/*--------------------------------*- C++ -*----------------------------------*\
  =========                 |
  \\      /  F ield         | OpenFOAM: The Open Source CFD Toolbox
   \\    /   O peration     | Website:  https://openfoam.org
    \\  /    A nd           | Version:  10
     \\/     M anipulation  |
\*---------------------------------------------------------------------------*/
FoamFile
{
    format      ascii;
    class       volVectorField;
    location    "109";
    object      U;
}
// * * * * * * * * * * * * * * * * * * * * * * * * * * * * * * * * * * * * * //

dimensions      [0 1 -1 0 0 0 0];

internalField   nonuniform List<vector> 
59698
(
(0.584681 0.00592533 -0.00172363)
(0.564787 -0.00115049 -0.000859974)
(0.566516 -0.000688097 0.00170071)
(0.578763 -0.00343378 -0.00126553)
(0.563005 0.00076872 -0.00294334)
(0.197723 0.198055 -0.00634482)
(0.566924 0.000232927 0.000405228)
(0.564016 0.000852028 -0.000295902)
(0.199879 -0.199527 -0.000424817)
(0.201226 -0.200793 -1.65072e-05)
(0.200369 -0.198722 -0.000624885)
(0.567011 -0.000304155 -0.000405648)
(0.199805 0.200486 -0.000571274)
(0.561614 -0.000761529 -0.000193171)
(0.562078 0.00110747 -0.00257609)
(0.20395 -0.197115 0.00176516)
(0.564676 0.000134963 0.000202016)
(0.566072 -0.00125893 0.000386129)
(0.567636 -0.000512441 0.000300398)
(0.567346 -0.000369136 -8.02133e-05)
(0.14286 -0.0999272 -0.0248563)
(0.53619 -0.00145405 -0.00279479)
(0.264985 -0.172986 -0.00706454)
(0.198824 -0.199921 -0.00136797)
(0.570385 0.000600151 0.00107994)
(0.566225 -0.00115489 0.00043328)
(0.566466 -0.000344195 -0.000426569)
(0.557283 -0.000201214 -0.00121539)
(0.570317 0.00133614 0.000931991)
(0.572435 -0.000471 0.000445365)
(0.548132 -0.000334896 -0.000368058)
(0.198552 -0.198586 -0.000173481)
(0.201146 -0.197956 0.00227763)
(0.559747 0.00122208 -0.000842323)
(0.549145 0.0114848 -0.00750656)
(0.566734 -0.000912308 -0.000385933)
(0.274918 0.0656039 -0.0385972)
(0.539509 0.000713085 0.00012671)
(0.561694 0.00013143 0.000561156)
(0.568103 0.00148522 -0.00274357)
(0.563905 0.000424588 -9.65284e-05)
(0.1949 0.197809 -0.00173684)
(0.5624 0.00058804 -0.000619937)
(0.563703 0.000447363 0.000105092)
(0.196728 0.199571 -0.000252581)
(0.560902 0.00365783 0.0051326)
(0.567062 -0.000861232 0.000371179)
(0.561581 -0.000324048 0.00148642)
(0.562937 0.000326608 0.000881408)
(0.565361 -0.000698827 0.0002347)
(0.567928 0.000157668 -0.0001697)
(0.566898 -0.000868507 0.000349404)
(0.566563 -8.55659e-05 -0.000782202)
(0.560449 -0.000166799 0.000454576)
(0.57245 0.00292492 0.00102631)
(0.567404 -0.000516962 -0.000141035)
(0.562746 -0.000987225 0.000603163)
(0.52472 -0.00189847 -0.000296106)
(0.564638 -0.000790708 -0.000383111)
(0.268438 0.121315 -0.0193572)
(0.559158 0.0045939 -0.00252776)
(0.564599 0.00135472 0.00052685)
(0.577855 0.0146999 0.00647454)
(0.56758 -0.000561507 0.000378795)
(0.561821 0.000254546 0.000701823)
(0.561404 0.000193992 0.00206679)
(0.199519 -0.199945 -1.3394e-05)
(0.567125 -0.000560443 -0.000632942)
(0.566978 -0.000465501 -0.000638148)
(0.199517 -0.19921 -7.78884e-05)
(0.209143 0.18232 -0.00778038)
(0.565285 -0.000727627 1.57969e-05)
(0.166598 0.118757 -0.0342366)
(0.593855 -0.0107148 0.0197111)
(0.202915 0.203536 -0.00036872)
(0.589868 -0.025247 0.0203842)
(0.561149 0.000253909 0.000995579)
(0.561034 0.000243235 -0.00162081)
(0.566859 0.000816886 -0.000635723)
(0.571485 0.00157371 0.000129041)
(0.552699 -0.00185823 -4.00709e-05)
(0.567922 0.000239456 -0.00012237)
(0.20125 -0.200756 -6.13648e-05)
(0.565108 -0.000730857 0.000601612)
(0.400048 -0.103807 0.0149847)
(0.562805 0.00019081 -8.86511e-05)
(0.563146 -0.00122924 0.00162479)
(0.557677 0.000481447 0.00714872)
(0.561957 0.00138517 0.000985974)
(0.560498 -0.000175519 0.00158816)
(0.199535 -0.199175 -0.000164803)
(0.560433 0.00089798 0.000572505)
(0.560823 -0.00051308 0.00164928)
(0.565875 -0.0003474 0.000401914)
(0.561539 0.00116776 0.00100142)
(0.563531 -0.00368608 0.00128754)
(0.558594 0.000689114 0.0012321)
(0.56234 0.000541696 0.000560695)
(0.559206 0.000655538 0.00123441)
(0.199678 0.200038 -3.2852e-06)
(0.556354 0.00154619 0.000852806)
(0.567545 0.00522273 0.0062145)
(0.562978 1.02093e-06 0.000215452)
(0.563067 -0.00161421 -0.00442118)
(0.567133 -0.000537032 0.000829861)
(0.198837 0.198574 0.000131351)
(0.565442 -0.000999787 0.000607807)
(0.567253 -0.000352061 -0.000409731)
(0.200742 -0.200891 -6.23933e-05)
(0.199793 0.199688 -0.00037088)
(0.566334 -0.000756966 -0.000345101)
(0.570329 -0.0104735 7.1576e-06)
(0.561749 0.00140146 0.00156124)
(0.200896 0.198779 -0.000337483)
(0.561058 -0.000135938 0.00025019)
(0.567444 -4.28392e-05 0.000153659)
(0.567176 0.00135325 -0.00137125)
(0.565193 0.00306429 0.000776519)
(0.563749 -0.000836405 0.00205127)
(0.200915 -0.200438 0.00044482)
(0.56565 -7.08277e-05 -2.11894e-05)
(0.558247 -0.0063717 -0.00375824)
(0.563152 -0.00497592 0.00572225)
(0.564559 -6.9255e-05 0.000123224)
(0.564027 0.0001214 0.000200318)
(0.566041 -0.000318091 -0.000130053)
(0.565944 -7.05778e-05 -0.000523151)
(0.199564 -0.199512 0.000483586)
(0.562047 -0.000616172 -0.000194376)
(0.56754 0.000318223 -0.00199253)
(0.567357 0.000347912 0.000569898)
(0.567218 -0.000177837 -0.00107651)
(0.201401 -0.200546 -1.39032e-05)
(0.579347 0.00686668 0.000586744)
(0.572777 -0.000118987 0.000153505)
(0.568494 -0.000186077 -0.000183063)
(0.5698 0.00383404 -0.00108806)
(0.201034 -0.200687 0.000301139)
(0.567414 -0.000353264 -0.000270837)
(0.56854 -1.99913e-05 -0.000361257)
(0.565298 -0.000270412 0.000884816)
(0.562622 0.00317216 -0.00101062)
(0.566086 -0.000850544 -0.000462858)
(0.567402 -0.000334262 -0.000309794)
(0.566012 0.00220244 -0.000449131)
(0.567418 -0.000272988 2.09505e-05)
(0.563624 -0.00395174 0.000303685)
(0.566472 -0.00372127 -0.000532037)
(0.562336 0.000381452 0.000899444)
(0.552208 -0.00023906 -4.36527e-07)
(0.408597 0.14425 0.0731043)
(0.200199 -0.199654 0.000118678)
(0.562139 -0.000106153 7.70508e-05)
(0.556583 -0.00217834 -0.00379624)
(0.563049 -0.000251514 -0.000139816)
(0.560674 0.000201437 -0.000464772)
(0.566473 -0.0010541 -0.000266808)
(0.558782 -0.000967151 0.00305348)
(0.563548 -0.000293559 -0.000355534)
(0.1997 0.199542 -0.000115999)
(0.564888 9.96211e-05 0.00017224)
(0.562821 -0.000376459 0.000242979)
(0.567889 -0.000618494 -0.000237622)
(0.554713 0.00186277 -0.00113329)
(0.562842 -0.000534556 -0.000197692)
(0.566815 -5.15815e-05 -0.000229935)
(0.567031 -0.000204046 -0.000692153)
(0.412162 0.0869513 0.00614987)
(0.554766 -0.000549405 -0.000389103)
(0.567032 -0.000130514 -0.000503336)
(0.559262 0.00175422 -0.00251082)
(0.211116 0.173785 0.000887684)
(0.553082 0.00137886 -0.00214758)
(0.552608 0.00128083 -0.00206686)
(0.57836 0.00131999 -0.00542829)
(0.562496 0.000275095 0.000357634)
(0.199575 -0.198907 0.000797552)
(0.53844 0.00502928 0.00297021)
(0.198956 -0.197825 -0.00579241)
(0.561981 0.000573942 -0.000490007)
(0.510549 -0.00192913 0.00530694)
(0.548388 -0.000540366 -0.000523188)
(0.562685 0.00039555 -0.00100738)
(0.565399 1.24822e-05 -0.000265455)
(0.564601 0.000592391 -0.000828031)
(0.543614 -0.000296009 -0.000328402)
(0.543529 6.09282e-05 -0.000919954)
(0.55957 0.00373834 0.00123673)
(0.566674 -5.22079e-05 0.000162215)
(0.563923 0.00151769 0.000716243)
(0.561582 0.000225699 0.00071681)
(0.562579 -0.00032089 0.000624436)
(0.562836 0.000551245 0.000494268)
(0.561859 -0.000389532 -0.000508169)
(0.554582 0.000270451 -0.000443863)
(0.557251 0.00328354 0.000803801)
(0.576581 0.00576735 -0.0135741)
(0.575788 0.00377224 -0.00219529)
(0.15219 -0.143929 -0.0196647)
(0.554208 -0.000544209 0.000104689)
(0.20304 0.205887 0.00271464)
(0.54593 0.000587317 0.000931174)
(0.57321 0.000360987 0.00027688)
(0.566606 -0.000372028 -0.000487433)
(0.55287 0.000957237 0.00112736)
(0.566784 0.000156322 0.000158648)
(0.563914 0.0003788 -0.000755466)
(0.557129 -0.00209214 0.00125988)
(0.554554 0.0115081 0.000472249)
(0.562334 0.000298317 -0.000202253)
(0.566005 0.000187522 0.000205146)
(0.564891 0.00021387 0.000469783)
(0.554743 0.000441353 0.00221738)
(0.199003 -0.197044 -0.00110248)
(0.565301 -0.000275494 -0.000188868)
(0.560061 0.000616212 -0.000140432)
(0.56618 -0.000784455 5.0067e-05)
(0.560982 -0.000619467 -0.0018572)
(0.561525 -0.00068405 -0.000165528)
(0.56492 0.000498692 -0.000590651)
(0.58207 0.0241868 0.0226735)
(0.563819 -0.000270946 0.000356526)
(0.565028 4.30532e-05 0.000106443)
(0.55697 0.000934546 0.00287165)
(0.5651 -0.000397609 -0.000236742)
(0.55365 0.00260364 0.00293765)
(0.564365 5.51983e-05 -7.4406e-05)
(0.566047 0.000583707 -0.00049078)
(0.577987 0.00280783 -0.000874378)
(0.593503 0.012222 0.00959661)
(0.199023 0.198602 -0.000392665)
(0.563338 1.22845e-05 0.000454493)
(0.565718 0.000397754 9.5707e-05)
(0.564467 0.000121419 -0.000357523)
(0.563559 -0.000542885 0.000476314)
(0.567923 -0.000482304 -1.68052e-05)
(0.565001 0.00160616 0.00152926)
(0.564063 0.000332057 0.000183758)
(0.558518 0.00137634 0.00348541)
(0.562143 -0.000906873 0.000487926)
(0.564872 -0.000211413 -8.15828e-05)
(0.563774 -0.00121585 -0.000495312)
(0.570488 4.5029e-05 -7.11292e-05)
(0.197427 -0.19788 0.00334431)
(0.566667 -0.000294298 -5.85849e-05)
(0.564054 0.000204462 0.00390581)
(0.582351 0.00508273 0.0161493)
(0.591524 -0.00741895 0.0132734)
(0.566261 3.02732e-05 0.000154759)
(0.567019 -0.000819539 0.000425147)
(0.56135 0.00105715 0.0040111)
(0.56256 -0.000462064 0.000433797)
(0.563376 0.00100343 0.000898456)
(0.198216 -0.193517 0.0031205)
(0.566487 -0.00138508 -9.73257e-05)
(0.563354 0.000357216 0.000419323)
(0.560514 0.0020934 0.000595585)
(0.561266 -0.000659614 0.000598336)
(0.566134 -0.000488964 -0.000125834)
(0.565001 -0.000164006 -3.42209e-05)
(0.200697 -0.108371 -0.000812471)
(0.200409 0.200043 0.000138193)
(0.563531 -0.000938114 0.000583069)
(0.559886 0.000572056 -0.00116731)
(0.558103 -0.00148798 0.00229532)
(0.586965 0.00743145 0.00244674)
(0.565415 4.18239e-05 -4.8944e-05)
(0.196916 -0.198439 -0.00166776)
(0.565467 -0.00117496 0.00041824)
(0.564885 -0.000182738 -0.000148666)
(0.566644 -0.000978168 -9.34046e-05)
(0.56313 -0.00126597 -0.000754611)
(0.545858 -0.118247 0.0772299)
(0.564758 -0.000127684 -0.000238616)
(0.565048 -0.00027149 5.44064e-05)
(0.557599 0.00037853 0.00141043)
(0.564908 -0.0016468 -0.00373683)
(0.564271 -0.000618446 0.00150096)
(0.570063 0.000267297 0.000194557)
(0.200813 -0.200142 0.000136014)
(0.195991 -0.195354 0.00168464)
(0.567552 1.01226e-05 -2.88238e-05)
(0.567039 -0.00089403 0.000490674)
(0.581555 0.00210212 0.00127581)
(0.587059 0.00637552 0.00090017)
(0.577912 -0.00115233 0.00145745)
(0.56605 -0.00028734 -0.000689967)
(0.299333 -0.213271 -0.0187774)
(0.574362 0.00135919 0.000502452)
(0.563448 0.00228424 0.00299955)
(0.586159 0.017586 0.000935314)
(0.567498 0.000352811 0.000316092)
(0.565285 -0.00087465 0.000551876)
(0.567008 -0.00100204 0.000161934)
(0.569847 -0.00107875 0.000814034)
(0.560524 -0.00148784 0.000711106)
(0.568321 -0.000255612 -0.00062568)
(0.568037 0.00156247 -0.000588412)
(0.565027 -7.82951e-06 -0.000140547)
(0.562993 0.00118694 0.00367247)
(0.566213 0.00163548 -6.14747e-05)
(0.198721 0.198928 -9.59123e-05)
(0.195968 0.197806 0.00149933)
(0.567155 -0.000166941 -0.000410787)
(0.567245 -0.000476542 -0.000162306)
(0.567046 -0.000209578 -0.000279417)
(0.569027 0.000316838 -0.00147769)
(0.560493 -0.00111438 -0.000317861)
(0.562295 -0.000377713 0.000268145)
(0.567293 -0.000129209 -0.000250106)
(0.565309 7.27056e-05 0.000151279)
(0.563437 -0.00201017 0.000542869)
(0.566094 0.00033586 0.00011929)
(0.200736 0.200933 0.00131593)
(0.561462 -0.00328441 0.00169824)
(0.566946 0.000692197 -0.000100896)
(0.202035 0.202597 -0.000457608)
(0.566736 -0.000207789 0.000183627)
(0.195214 0.19703 -0.00207386)
(0.565269 0.0024936 -0.00204124)
(0.562537 0.00303681 -0.00304885)
(0.594423 -0.0100634 0.0189257)
(0.564558 -0.000555707 8.42094e-05)
(0.199745 -0.199392 0.000594828)
(0.600599 -0.0139052 0.018622)
(0.555719 -0.000159925 0.000693518)
(0.564241 -6.41631e-06 -0.000330023)
(0.566686 -0.000327784 0.000455064)
(0.567176 0.00055326 -0.000197528)
(0.199172 0.199228 -0.000186244)
(0.548311 -0.000129842 -0.0020649)
(0.564062 -0.000933685 0.000317618)
(0.558911 0.000227934 -0.000668535)
(0.582541 -0.0109743 0.0166556)
(0.199616 -0.199995 -0.000182894)
(0.567466 0.000539933 0.000618063)
(0.562775 -0.00062925 0.000173794)
(0.56641 -6.55087e-05 0.000228748)
(0.557064 -0.00123023 -0.000417987)
(0.567952 0.00025146 -0.000133297)
(0.563854 0.00125338 0.000963558)
(0.566786 0.00258818 -0.00169342)
(0.564947 -0.000399294 0.000208557)
(0.565444 7.17239e-05 2.9412e-05)
(0.557779 0.000820919 -0.00116654)
(0.564925 -0.000176344 -0.000124884)
(0.56437 0.000210047 -7.49061e-05)
(0.540927 0.00125894 -0.00103451)
(0.562785 5.07229e-05 -0.000219259)
(0.562775 0.000131113 0.000271942)
(0.567644 0.000159896 0.000117812)
(0.561886 -0.00101346 0.000722941)
(0.56979 -0.00318935 -0.000906274)
(0.199481 -0.199204 -0.000146128)
(0.590126 0.00265535 0.00623121)
(0.546958 0.000645045 -0.000865615)
(0.55418 0.00301996 -0.00721651)
(0.56479 -0.000164465 0.000110935)
(0.562254 0.00038475 0.000736929)
(0.199411 -0.199035 2.99085e-05)
(0.56651 0.0010638 -0.000580256)
(0.559158 -0.000280658 0.000657863)
(0.203241 -0.194653 0.00034549)
(0.565669 -5.43937e-05 0.000274123)
(0.199991 0.200042 -5.30205e-05)
(0.196476 0.201286 0.000519002)
(0.563239 -5.67552e-05 9.0558e-05)
(0.564631 -0.000682347 0.00118407)
(0.564545 -0.000411132 0.000184514)
(0.490942 -0.00579432 0.00270352)
(0.567829 0.000228177 0.000293281)
(0.19799 0.198557 0.000297899)
(0.566115 0.000193638 -0.00031868)
(0.197307 0.199022 0.0012985)
(0.562913 9.85851e-05 -0.00054203)
(0.200086 -0.200256 -1.2955e-05)
(0.56437 -0.000396974 0.000384943)
(0.565345 0.000225086 2.2594e-05)
(0.198905 0.198355 -1.00196e-05)
(0.19902 -0.199212 0.0001294)
(0.201361 0.198084 -0.00338428)
(0.56306 -7.75559e-05 -0.000267651)
(0.565882 0.00135157 0.000400369)
(0.560207 0.0007658 -0.000374626)
(0.56671 -0.000264923 7.63782e-06)
(0.27764 0.142046 -0.00518927)
(0.563273 -0.00040128 0.000955817)
(0.1993 0.1995 3.0147e-05)
(0.199576 0.200006 -6.58973e-05)
(0.564974 0.00258278 0.000935367)
(0.560065 -0.000462533 5.08314e-05)
(0.199361 -0.196653 0.000734574)
(0.563765 0.000312967 0.00117144)
(0.574336 0.000258345 -4.95685e-06)
(0.379785 -0.147334 0.0155384)
(0.526832 -0.00159336 -0.000380178)
(0.551519 0.016241 -0.0119074)
(0.562555 0.00272669 0.00160987)
(0.56109 -0.000267905 -0.00249252)
(0.563482 -0.00168516 0.00130308)
(0.562487 0.000477992 -0.000493679)
(0.563752 0.000124353 -0.000177873)
(0.565003 -2.25828e-05 -0.00043061)
(0.5647 -0.00054849 -0.000503699)
(0.553119 -0.00291227 -0.000642675)
(0.560738 0.00442893 0.000769209)
(0.575963 0.00422397 -0.00285536)
(0.581595 0.00299982 -0.000766609)
(0.564368 0.000362538 -0.00136158)
(0.530794 0.000410853 -0.00303057)
(0.571629 0.00240736 -0.00165289)
(0.19892 -0.19913 1.0665e-06)
(0.560186 0.000616555 -0.00129556)
(0.199602 -0.199555 0.000196837)
(0.561368 -4.49293e-05 0.000207708)
(0.584031 0.00153789 0.00226763)
(0.567171 1.63207e-05 -0.000123095)
(0.567469 -0.0276157 0.0127831)
(0.532836 -0.00253123 0.000878428)
(0.535162 -5.84073e-05 -0.00641884)
(0.561631 -0.000523699 0.000205449)
(0.563033 -0.000245028 0.000699729)
(0.563944 0.00123153 0.0023846)
(0.587416 0.0135737 0.0117774)
(0.563705 -3.60936e-05 8.00652e-05)
(0.56397 -0.000239308 0.000169792)
(0.2 -0.199863 0.000342926)
(0.561589 -9.6706e-05 -0.000228567)
(0.558015 -0.00163607 9.84284e-06)
(0.199438 0.199208 -3.75823e-05)
(0.564305 -0.00147077 0.000762309)
(0.575353 0.0179475 0.00845658)
(0.572384 -0.00463651 0.0067955)
(0.565 7.66015e-05 -0.00135354)
(0.561267 -0.00025748 0.00150543)
(0.200489 -0.200415 -0.000906719)
(0.205315 -0.202252 0.000307013)
(0.574789 0.00500533 -0.00132653)
(0.565975 -0.000365708 -0.000493975)
(0.563239 -0.00103279 -0.00402463)
(0.202961 0.200382 -0.00178367)
(0.565221 -0.000609988 -0.000410518)
(0.200616 -0.199903 0.000295572)
(0.562046 -0.000431252 -0.000191225)
(0.563661 -0.0008139 -0.00100925)
(0.516647 -0.00741331 -0.00335239)
(0.580706 -0.00163279 0.0029171)
(0.200022 0.19974 -4.25062e-05)
(0.565389 -0.00104743 0.000623539)
(0.554041 -0.000115744 0.000334445)
(0.562408 -9.80842e-05 -0.0019086)
(0.566115 -0.000701713 -0.00017545)
(0.563955 0.00100812 -0.000940229)
(0.565196 -0.00127698 -0.000182818)
(0.562716 0.00163609 0.000108125)
(0.562265 0.000231065 2.49474e-07)
(0.580675 0.00141771 0.00230443)
(0.199645 -0.199555 0.000251179)
(0.54695 0.000443421 -0.000262379)
(0.56154 -0.000219398 0.00109339)
(0.577631 -0.00113622 0.00146954)
(0.564683 -0.000135592 -5.80348e-05)
(0.555154 -0.00152385 0.00161564)
(0.576991 5.0012e-05 0.000600906)
(0.200502 -0.19944 -0.000191723)
(0.5602 0.0051291 0.00196096)
(0.559695 0.00733705 0.0068855)
(0.567506 -0.000221166 -0.000147888)
(0.56381 0.000652245 -0.000616207)
(0.56575 0.000162556 4.80212e-06)
(0.560566 -0.00508306 -5.40245e-05)
(0.198388 0.198594 -0.0003049)
(0.199875 0.1998 1.62243e-06)
(0.198963 0.199802 2.59966e-05)
(0.56382 0.00213666 0.00287602)
(0.55408 -0.00310543 -0.0080175)
(0.504365 -0.00179429 0.000860101)
(0.577113 0.0010482 0.000579183)
(0.566687 -0.00296175 0.000960263)
(0.562935 -0.000509562 0.000677323)
(0.563137 0.000698422 -6.79189e-05)
(0.560065 0.000127729 0.000578054)
(0.563476 -0.000145333 0.000180629)
(0.202955 0.198896 -0.000353393)
(0.555952 -0.00673474 -1.29392e-05)
(0.562455 -0.000567209 -0.000102207)
(0.56001 0.000887265 0.00129997)
(0.562516 -0.000570148 0.000593901)
(0.571968 0.000496568 0.000482723)
(0.567419 0.000778025 9.8595e-05)
(0.560701 0.000741306 -0.00084495)
(0.590319 -0.00134135 0.00687572)
(0.574139 0.000922104 0.000252678)
(0.559866 -0.000550417 -0.00130308)
(0.571365 0.000335816 -0.000110165)
(0.559649 0.000804227 0.00146426)
(0.562076 -1.32507e-05 -0.000155842)
(0.556089 0.00349115 0.00266944)
(0.566556 -0.00021727 -0.0004643)
(0.197298 0.196543 0.000418695)
(0.198797 0.198751 -9.76769e-05)
(0.57366 -0.00183479 0.000797662)
(0.557044 0.000336175 0.000329361)
(0.566082 7.36355e-05 0.000489136)
(0.199187 0.200507 0.000238978)
(0.200009 -0.199958 -0.000255214)
(0.562746 -0.000773741 -0.000137726)
(0.200481 -0.200704 -9.77805e-06)
(0.564084 0.000274179 -2.92939e-06)
(0.567279 -2.14267e-05 -2.38556e-05)
(0.565725 -0.000248339 0.000113264)
(0.570639 0.000213733 0.000275097)
(0.560994 -0.00418725 -0.0012437)
(0.197936 0.200093 0.00148551)
(0.568063 -0.000721704 5.0173e-05)
(0.564782 -0.00020272 -6.14833e-06)
(0.198154 0.19836 0.000186175)
(0.563496 0.000304096 0.000466982)
(0.198282 0.2002 0.000327979)
(0.197312 0.196192 9.35577e-05)
(0.566815 0.000226885 -0.000503131)
(0.567469 0.000659237 -0.000130801)
(0.56425 -6.64867e-05 4.81822e-05)
(0.199173 0.198922 -0.000636075)
(0.199054 0.199095 0.000120165)
(0.48656 -0.000433902 -0.000919519)
(0.565737 -0.000505282 0.000993442)
(0.56621 0.000111913 -0.000248317)
(0.567075 -0.000402665 -0.000359948)
(0.564094 0.000508842 -0.000726098)
(0.565967 0.000243941 -0.000457725)
(0.56328 0.0204532 -0.0143443)
(0.199761 -0.200313 -0.000235247)
(0.564142 -0.000507056 1.87401e-05)
(0.560829 2.11737e-05 0.000174194)
(0.199429 0.199453 -4.03929e-05)
(0.200328 0.19868 -0.000271635)
(0.557005 -0.000210674 0.000189312)
(0.563704 -0.000377055 5.864e-05)
(0.198434 -0.198835 0.000602515)
(0.566632 -0.000281482 -7.96324e-05)
(0.564931 0.000196801 -0.000182671)
(0.56493 -3.68681e-05 -0.00108267)
(0.590603 0.0429082 -0.0161184)
(0.563171 0.000477637 8.7035e-05)
(0.568913 -0.000441975 -2.29249e-05)
(0.559085 0.0240771 -0.00308107)
(0.637492 0.129683 -0.0578146)
(0.566481 1.56497e-05 0.000117352)
(0.25569 0.159935 -0.00763273)
(0.561677 0.000571343 -0.000149028)
(0.200366 -0.199997 -6.70036e-06)
(0.558102 9.31728e-05 0.000967322)
(0.199714 -0.199531 0.000635812)
(0.565531 0.000141793 -0.00048114)
(0.563661 0.000442743 -0.000425136)
(0.199494 0.200293 -0.000228667)
(0.560796 0.000596923 0.000714155)
(0.565817 -0.000613215 -0.000277619)
(0.568219 -0.000304059 -0.000269593)
(0.19942 0.199113 4.96419e-05)
(0.198757 -0.199013 -0.000229512)
(0.561694 -0.000551933 0.000769242)
(0.163151 0.116479 0.0437593)
(0.567014 -0.00122529 -0.000655365)
(0.20042 -0.199736 0.000193574)
(0.582377 -0.000974868 0.00733239)
(0.561719 0.000464787 -0.000123071)
(0.567173 8.91071e-05 -0.000293894)
(0.200403 -0.198004 -0.00141033)
(0.568144 -0.000302664 -0.000174194)
(0.565513 -0.000987141 0.000598393)
(0.207058 0.195973 -0.00112666)
(0.56837 0.000177984 -0.000725978)
(0.566342 0.000266326 -0.00121572)
(0.567657 0.000313031 6.99507e-05)
(0.566568 -0.000303271 -9.60364e-05)
(0.568046 -6.2595e-05 -0.000196765)
(0.566128 -0.000431985 -0.000478009)
(0.200167 -0.200661 -0.000273516)
(0.192469 0.193549 0.00061)
(0.560471 0.000414521 0.000977701)
(0.565493 0.000876745 0.00225145)
(0.564719 -6.0702e-05 -0.000363314)
(0.568098 9.85075e-05 -0.000360332)
(0.199519 0.199446 2.16333e-05)
(0.566059 -0.000202281 -3.96785e-05)
(0.565362 0.00012449 -0.00101308)
(0.570994 -0.000289243 0.000405264)
(0.566702 0.000207583 -0.000270389)
(0.568435 -5.09832e-05 -0.000364862)
(0.560422 0.000813368 0.000748693)
(0.565351 0.000523096 -0.00111583)
(0.565027 0.000518068 -0.000813021)
(0.198826 0.198662 -0.000342048)
(0.558619 0.000466113 -0.000140124)
(0.227817 -0.191968 -0.00760308)
(0.553923 -0.00351462 0.00054633)
(0.196659 0.191302 -0.00190575)
(0.198307 0.198718 -5.75092e-05)
(0.565709 -3.09292e-05 0.000145355)
(0.564823 1.22809e-05 0.000235176)
(0.199243 0.198893 -3.25756e-05)
(0.555858 -0.000486986 0.000463156)
(0.565505 -0.000625312 4.48493e-05)
(0.566355 -0.000483133 -0.000125582)
(0.566302 2.31774e-05 -0.000542886)
(0.199207 0.198384 0.000732168)
(0.564949 0.0002814 7.10642e-05)
(0.559951 -4.64739e-05 0.00066767)
(0.560548 4.31011e-05 0.000584083)
(0.567149 0.000214245 -0.000308684)
(0.56243 2.49449e-05 0.000395864)
(0.567028 -0.000103003 -0.000376639)
(0.565623 5.59433e-06 -0.000124534)
(0.565849 0.00016652 -0.000118709)
(0.562373 -8.82336e-05 0.000278163)
(0.573742 -0.000852296 0.000500908)
(0.157326 0.0630315 -0.0718242)
(0.562823 -3.48388e-05 0.000372126)
(0.198254 0.198721 0.000269344)
(0.565515 0.000175619 0.000905956)
(0.566686 -0.000175004 -0.000689263)
(0.56291 0.00228701 -0.000514695)
(0.558046 -0.00216371 0.00389383)
(0.564429 -0.0010074 0.00209519)
(0.568215 0.00037746 6.08804e-05)
(0.567415 -9.63086e-05 -0.000809729)
(0.5669 -0.000262364 -0.000270686)
(0.567042 -0.00080954 -0.00089473)
(0.561139 -0.00110449 0.000854819)
(0.198008 0.199518 -0.00288146)
(0.566709 -0.00023589 0.00023629)
(0.56599 0.000339406 0.000332981)
(0.567888 -0.000304129 9.53875e-05)
(0.56602 -0.000101269 -0.000395903)
(0.566386 -0.000737834 -0.000627677)
(0.56266 -8.2151e-05 0.000387046)
(0.556431 0.00647516 -0.00109525)
(0.572306 0.000745108 0.00063103)
(0.558253 0.00181627 -0.000926768)
(0.562507 0.000322934 -0.000890438)
(0.199325 0.199332 8.45946e-05)
(0.200509 -0.199735 -1.78612e-06)
(0.566814 0.000179913 0.000159717)
(0.567759 0.000425212 0.000322383)
(0.562601 -0.000529638 0.000430897)
(0.558808 0.000714867 -0.00210098)
(0.56147 -0.000865949 5.91498e-05)
(0.19884 0.199067 -0.000329735)
(0.199095 0.199302 -0.000154827)
(0.566905 -0.000823539 -0.000894977)
(0.564106 -0.00043167 0.000162164)
(0.565598 -0.00028003 -0.000326006)
(0.565728 -1.77025e-05 -0.000197014)
(0.565001 -0.000128758 -0.000730948)
(0.566435 -0.000371537 -0.000196769)
(0.220731 -0.153253 -0.0146141)
(0.568006 0.0001707 -2.78125e-05)
(0.561831 -0.00114523 0.000861193)
(0.559929 0.000522291 -0.000834369)
(0.556671 3.51937e-05 -0.00177834)
(0.568203 -0.000140385 -0.00010022)
(0.541738 0.00343741 -0.012725)
(0.557241 0.016075 -0.0106593)
(0.568002 0.000106653 3.40416e-05)
(0.562177 -0.000832954 0.000828811)
(0.5606 -0.000278558 0.000383565)
(0.563113 -0.000624392 0.000636965)
(0.573254 0.000269628 -0.00101316)
(0.19932 0.19935 2.32376e-06)
(0.55652 0.00231628 -0.00216392)
(0.56725 -5.54681e-05 -5.28817e-06)
(0.550599 -0.00212294 -0.00585342)
(0.566146 0.000119607 -0.000589758)
(0.566917 7.92775e-05 -0.000595157)
(0.19973 0.197602 -0.000812208)
(0.563206 -0.000962759 0.0041138)
(0.573328 -0.000451351 0.000106174)
(0.56712 -1.12943e-05 -0.000600406)
(0.561141 0.000314244 0.000992679)
(0.553628 -0.000180979 -0.00167678)
(0.199309 0.20511 -0.00187071)
(0.197819 0.195525 -0.00103364)
(0.56609 0.000347277 0.000183845)
(0.566564 -0.000220597 -0.000160083)
(0.566539 -0.000106816 4.29253e-05)
(0.567786 -5.88128e-05 3.47244e-05)
(0.566363 0.000150933 2.92174e-06)
(0.565519 0.000587074 0.000454382)
(0.562492 -0.000644944 0.000811556)
(0.566528 0.00161225 -0.0027455)
(0.56563 -0.000215175 -0.000853809)
(0.566168 0.000865528 -0.000281484)
(0.564127 -0.0012756 0.0022724)
(0.561239 0.00117413 -0.000714142)
(0.562853 -0.000652445 0.000143334)
(0.566445 0.000199266 -0.000406328)
(0.198625 0.198605 0.000105132)
(0.566932 4.67075e-05 -0.000301361)
(0.200425 0.200585 -0.000125088)
(0.199604 0.199151 1.76708e-05)
(0.565825 0.00094967 -0.000462003)
(0.562748 8.60213e-05 0.000180032)
(0.566947 -0.000831502 0.000531547)
(0.200416 -0.200247 -3.44552e-05)
(0.56452 -8.48798e-06 0.000432086)
(0.560783 0.00106763 -0.00171896)
(0.567619 0.000531368 -0.00108915)
(0.199546 0.199647 9.21137e-05)
(0.565103 -0.000313689 -0.000199209)
(0.197084 0.198846 -0.000607372)
(0.563438 -0.000326975 0.00335039)
(0.198078 0.196992 -0.000116016)
(0.561765 -0.000290775 0.00104649)
(0.558431 -0.000238314 0.00107179)
(0.563707 -0.000149661 1.69068e-05)
(0.565584 0.000778268 -2.98938e-05)
(0.200337 -0.20025 0.0001032)
(0.198374 0.198349 -0.000171053)
(0.566812 0.00263388 -0.00299615)
(0.555292 -0.000242495 0.00187687)
(0.56747 8.10486e-05 -0.000858958)
(0.566227 7.4111e-05 -0.000354696)
(0.565189 1.04147e-05 -0.000762693)
(0.56395 0.00115995 -0.000330502)
(0.57457 0.00316407 -0.00125784)
(0.199742 0.199938 -0.000277653)
(0.58196 0.00703194 -0.000893726)
(0.565135 -0.000516186 -0.000743489)
(0.541707 0.0633377 -0.0394114)
(0.198089 0.196662 0.000529506)
(0.567619 0.0012764 -0.0016183)
(0.546539 0.000443306 0.00149454)
(0.199411 0.197818 0.0017034)
(0.581606 0.00226217 0.00103193)
(0.567739 -0.000245088 -0.000527624)
(0.199676 -0.199565 -7.17723e-05)
(0.558475 6.24082e-06 0.00128611)
(0.596299 0.00833294 0.00137187)
(0.56672 -0.00048853 -0.000170149)
(0.561981 -0.0014609 0.00245193)
(0.576371 0.00492444 0.0273331)
(0.560351 0.000816817 -0.000460486)
(0.563963 -0.000141753 -0.000400811)
(0.560372 0.000105287 -0.00196494)
(0.539781 -0.000122501 -4.91485e-05)
(0.566934 -0.0231698 0.0258543)
(0.564235 0.000326736 0.000786012)
(0.555454 -0.00109072 -0.00015541)
(0.566448 1.23971e-05 -0.000165185)
(0.575443 -0.0014395 0.000969359)
(0.567318 -3.83565e-05 7.75433e-05)
(0.567678 0.00225952 -0.00161541)
(0.199413 0.199488 2.25279e-05)
(0.566555 0.000726483 -0.000283689)
(0.58069 0.000426896 0.00147382)
(0.591017 0.00567357 0.00804438)
(0.199737 -0.199759 -7.53946e-05)
(0.562163 -0.00107852 0.0010875)
(0.569015 0.000419051 -0.00019038)
(0.197201 0.195144 0.000401298)
(0.557974 0.000402289 -6.50364e-05)
(0.56228 0.000164865 -0.000475789)
(0.566147 0.000402116 -0.000615715)
(0.568924 0.000361433 9.32735e-05)
(0.562038 -0.000549907 -0.000347327)
(0.565471 -0.000237694 0.000199234)
(0.198913 0.199227 -0.000232731)
(0.562274 -0.000279703 -0.00175715)
(0.570679 5.65054e-05 -0.000293501)
(0.198979 0.19897 0.000237912)
(0.200023 0.199453 -0.000105523)
(0.565789 0.000427486 0.000316269)
(0.199434 0.199781 -0.000109779)
(0.564469 -0.000191288 0.000385604)
(0.560181 -0.00405177 -0.000334146)
(0.566235 0.000267921 -0.000311704)
(0.562369 -0.000613369 -0.00229217)
(0.56233 -1.23464e-05 -0.00184624)
(0.284029 -0.0200192 0.0422982)
(0.199424 0.199669 0.000193004)
(0.571489 0.00031344 -1.21323e-05)
(0.566141 5.22729e-05 0.000154527)
(0.562947 0.000570869 -0.00047275)
(0.560646 0.00272822 -0.0019269)
(0.563169 -0.000146824 -0.000786746)
(0.199139 0.199302 -0.000233807)
(0.544467 -3.0985e-05 -0.000683921)
(0.560746 -0.000177601 -0.000921905)
(0.555993 0.00165647 0.00418011)
(0.567057 -0.000223609 0.00110269)
(0.563756 -0.00106351 -0.000305875)
(0.554208 0.0169496 -0.0203438)
(0.566526 -0.00165976 5.59274e-05)
(0.551086 0.00591346 -0.0110373)
(0.198594 0.195266 -0.00119084)
(0.199637 0.199569 0.000181667)
(0.199133 0.199101 -5.08538e-06)
(0.566949 0.000299863 -0.000111325)
(0.565948 -0.00050157 -0.000510728)
(0.199128 0.198571 -0.000101855)
(0.564231 -0.000116617 0.000818988)
(0.557595 0.0037719 0.00296536)
(0.55715 -0.000746721 -0.000590905)
(0.501288 0.0706335 -0.0406264)
(0.559331 -0.000793208 -0.000485477)
(0.565779 0.000201597 0.000123427)
(0.199844 0.204354 0.000327424)
(0.55712 0.0130399 -0.0208144)
(0.199878 0.199842 0.000166276)
(0.198918 0.19838 0.000351824)
(0.566184 -0.000224976 -2.73738e-05)
(0.318003 0.243267 0.0367005)
(0.290022 -0.117889 -0.00400759)
(0.562631 -0.00132803 -0.000114815)
(0.194327 -0.197746 0.00026006)
(0.566255 0.000126917 -7.16922e-05)
(0.560785 -0.00255859 -0.00511105)
(0.570129 0.019385 -0.0139046)
(0.565768 -0.000194733 0.000360059)
(0.575797 0.0110314 -0.0036715)
(0.563835 0.000348256 0.00019)
(0.570714 -0.0366412 -0.0107497)
(0.199036 0.198991 5.7748e-05)
(0.198898 0.19803 0.000209071)
(0.564643 -0.000988685 -5.25117e-05)
(0.563579 -0.000706595 0.00107595)
(0.566979 -0.00041684 0.000202487)
(0.19587 0.198987 -0.00154605)
(0.560183 0.00115304 1.28972e-05)
(0.565588 -0.000417046 0.000101754)
(0.56589 -6.79847e-05 -0.000265171)
(0.199254 0.19948 0.000835993)
(0.565647 0.000221565 -0.000592644)
(0.565823 -0.000242914 -0.000262456)
(0.510978 0.0571293 0.0377972)
(0.199119 0.19915 -0.000146932)
(0.645166 0.172762 -0.00642555)
(0.522291 0.073493 -0.0535472)
(0.200199 -0.199484 4.32166e-05)
(0.199811 0.199083 0.000345347)
(0.19892 0.198532 5.51874e-05)
(0.200462 0.199843 0.000424244)
(0.199968 0.199725 -0.000800779)
(0.565856 0.000579782 -0.000112207)
(0.566381 -0.000145139 0.000214851)
(0.564938 0.000510822 0.000162631)
(0.199456 0.198445 0.000170297)
(0.56503 -0.000327982 -0.000139112)
(0.5675 3.61612e-05 0.000416471)
(0.199651 0.198944 0.000263963)
(0.579076 -0.00448469 0.0100992)