/*--------------------------------*- C++ -*----------------------------------*\
  =========                 |
  \\      /  F ield         | OpenFOAM: The Open Source CFD Toolbox
   \\    /   O peration     | Website:  https://openfoam.org
    \\  /    A nd           | Version:  10
     \\/     M anipulation  |
\*---------------------------------------------------------------------------*/
FoamFile
{
    format      ascii;
    class       volScalarField;
    location    "1.2";
    object      p;
}
// * * * * * * * * * * * * * * * * * * * * * * * * * * * * * * * * * * * * * //

dimensions      [0 2 -2 0 0 0 0];

internalField   nonuniform List<scalar> 
111485
(
37.5386
13.3078
15.46
37.029
16.0009
36.3817
13.5545
11.7827
13.5914
20.0553
13.4237
17.2859
13.6721
13.3048
13.7383
13.9642
4.39876
35.2817
13.5567
36.8349
36.7001
36.8003
13.7359
13.807
15.9426
35.8764
19.2361
7.54068
15.4224
37.8638
26.6392
3.06916
37.1383
38.0345
35.1921
38.8907
26.3695
0.740121
30.8445
14.148
38.555
20.06
14.1351
23.2948
29.6583
38.9708
22.0037
13.7653
20.0106
35.7714
35.7948
34.9657
35.779
23.7533
35.7667
8.52041
13.7371
38.9415
22.0255
14.1239
14.1624
37.5255
10.9657
26.0366
35.237
9.62653
33.2623
12.5502
11.0595
11.8522
28.4724
9.93711
35.1766
11.0294
38.4563
5.69512
37.0843
19.2602
36.7942
35.3811
27.1464
22.6464
37.417
38.2641
10.8849
14.5727
31.8751
23.8592
27.6328
4.03769
29.6245
14.6032
10.9444
1.58495
20.086
38.231
37.5665
23.8133
30.3606
24.8333
37.3595
19.3572
38.5695
18.9799
12.8913
35.3217
38.2278
3.57707
14.9208
29.5073
2.43677
9.86892
14.5721
18.0041
35.8671
5.35368
36.0496
38.9624
11.147
36.8549
35.8599
34.4587
37.4134
38.9598
20.9383
35.4495
34.4803
4.1354
38.602
30.6632
26.4946
23.77
38.3982
34.3696
34.5845
13.2313
37.1815
5.67643
12.1454
12.2641
20.324
12.2821
12.2544
15.2783
21.3692
0.520097
37.1633
38.1471
38.5333
12.9353
15.3239
36.73
26.642
0.0424738
29.868
12.8415
12.6986
13.6064
29.9091
38.8519
37.0325
12.8028
15.3676
29.9741
29.9658
4.96816
25.5144
38.893
30.0366
30.0261
38.5413
38.0696
16.6607
37.7867
0.915461
0.170126
35.5995
35.2047
35.9383
35.4067
35.2098
36.9942
12.9538
12.987
12.8464
0.0743541
19.2796
6.83617
26.2403
37.3056
5.98445
35.2345
37.6337
6.89153
19.9997
25.3787
9.11832
0.742226
38.4492
13.013
15.1291
33.4908
22.5664
3.91179
38.6887
6.9353
18.3939
35.1851
25.254
21.9154
15.2004
6.78047
35.1649
37.6919
6.83778
33.4613
23.8106
37.723
6.92133
5.89469
20.3861
38.9887
7.69478
24.8682
34.0314
37.7696
38.5748
28.3348
29.905
35.232
34.6672
5.94777
1.52593
9.86975
35.2145
35.2877
26.0063
38.5535
12.9008
5.91709
5.96096
5.92153
5.96188
38.6299
27.3201
4.69493
38.7491
37.3527
23.8769
9.91715
35.2247
2.95425
4.40693
38.11
34.3338
22.3084
35.7869
35.0857
34.3228
36.3274
5.17079
5.86115
0.4673
39.0192
4.50678
37.0982
37.4928
38.6219
26.1942
19.3369
10.4044
10.5515
18.0315
10.4294
10.6451
27.3121
1.50155
1.56347
35.6412
38.0669
27.5343
3.59333
20.3787
1.87186
36.9238
10.5842
13.0077
10.3768
18.3507
27.5023
10.3273
10.5022
22.5263
38.9794
19.1947
37.7939
35.4235
35.0534
28.3111
18.0998
14.0067
36.1542
38.9142
8.17206
2.56648
36.6682
37.7501
35.8069
5.83478
1.5796
12.6606
13.2601
14.398
34.8915
38.2899
38.3481
8.19469
32.4814
14.0978
27.7724
25.8935
37.369
37.4902
37.5553
34.5614
8.82131
15.8344
38.9536
8.69992
35.146
35.8213
24.3232
8.76125
17.828
8.63502
35.2563
34.5652
38.6671
8.73019
0.444911
26.9012
35.7859
31.2671
26.9469
16.0668
7.75617
31.2972
14.489
37.0285
14.5034
8.9115
27.5072
24.2473
16.2274
38.1524
38.3581
38.4018
37.0512
12.5175
7.54715
17.9459
14.498
37.9855
16.9465
38.3117
37.5602
14.4942
35.4282
34.2401
38.9169
38.9919
12.864
38.9694
0.342629
16.7336
36.81
11.623
9.19184
35.2755
9.0137
17.0788
9.05473
25.3395
0.723699
1.65555
35.3009
38.125
23.1875
38.7991
17.6459
24.6561
35.454
38.7531
8.58075
17.4546
1.48306
16.781
37.1139
26.6099
17.2753
36.2324
23.2863
17.5443
37.7063
36.9358
0.346879
15.9828
38.8132
36.071
33.6929
37.3429
16.3339
37.7316
37.2521
17.3648
26.5903
21.3795
15.9563
36.4345
34.5532
23.2858
34.6731
23.2888
23.3782
19.8245
33.3264
34.7256
2.68774
29.7393
37.8374
24.3041
16.8246
39.0139
30.4285
20.3019
34.6756
17.8324
17.2943
0.810786
36.5751
0.797856
18.2704
0.773309
28.8517
34.5037
29.665
38.4425
26.6481
0.701906
38.4906
17.8376
22.189
34.373
38.9837
34.8866
36.6946
16.0301
0.766406
17.6194
17.7338
25.1671
37.7897
18.1106
37.5511
15.9902
36.0909
37.5535
38.034
17.778
38.1954
37.6858
35.2343
37.5789
38.6507
22.2956
38.9801
34.8785
38.3454
37.7434
36.3497
38.384
36.9094
17.9117
38.377
22.5124
18.3968
29.7806
36.0663
22.4792
38.3643
37.5101
17.7589
17.6314
17.8866
27.8079
34.9617
20.5254
20.5651
1.09709
1.99223
18.3303
38.0213
1.15221
34.3594
20.7593
37.8984
20.755
34.5132
2.26693
17.5634
35.0565
38.3798
2.04515
36.5638
20.519
20.6913
38.7088
38.3285
35.3075
38.4404
29.7341
20.4669
35.68
38.8736
16.0549
36.8082
20.59
37.0175
21.6495
37.5472
20.0945
20.5106
8.8869
2.18523
35.8685
0.522287
35.993
37.9275
18.8757
37.9249
20.2073
35.3287
20.8007
37.9172
18.8702
36.6579
34.723
29.8214
19.0438
20.5137
18.9802
20.6017
17.4882
38.5105
20.5834
18.9937
37.6284
28.0692
25.899
20.5639
35.5959
34.8496
15.8516
21.1227
32.5969
34.7519
18.9808
15.8833
19.2682
19.3396
2.13292
31.9542
34.6518
29.7167
32.3202
37.1105
20.4042
38.8143
34.7777
4.01671
31.9277
29.8969
31.3422
34.6711
19.466
15.9338
35.9931
34.747
15.8692
36.1715
36.7557
36.9103
35.9628
19.4775
38.3035
38.68
19.6207
6.08271
33.9595
15.8921
34.8949
5.98795
35.7669
38.5742
19.5943
37.882
36.1211
34.7604
0.505497
33.3197
20.1263
4.0663
36.076
29.7789
20.2167
16.5038
25.3548
30.4261
16.1486
37.9679
20.0513
16.4474
38.6821
9.34563
22.6063
16.87
0.527464
16.9508
16.8919
38.3991
20.5398
25.2707
34.6847
16.9334
20.6259
33.4174
4.04088
16.8927
20.7009
17.8456
17.9554
4.067
35.5093
17.977
20.2809
35.1057
19.1927
19.2343
4.34001
37.9545
0.443126
38.7713
37.2473
38.1252
35.9694
16.4304
34.7864
29.832
37.6394
36.3713
19.2314
19.3166
36.5454
20.6406
37.525
38.6274
35.8126
21.1092
20.4652
34.7565
38.9981
37.8638
38.0268
25.9589
4.35619
34.634
18.8218
29.6968
38.7096
18.8147
21.9243
2.20065
36.6369
37.7363
9.72806
4.26875
34.7136
38.4946
35.5426
7.16479
38.0945
36.0973
37.6614
18.6408
14.7231
36.8365
35.0448
34.9401
2.199
38.8489
36.2629
21.2519
26.0565
34.6752
33.7834
31.0452
21.6618
0.112531
35.3095
15.8013
22.2575
38.9882
35.7365
37.2264
37.7919
38.3609
36.9355
18.6778
37.5064
37.2046
35.6727
18.7298
4.23923
35.7934
35.7342
21.74
4.28278
4.39824
36.2373
37.2609
4.32351
38.183
18.8825
4.28678
4.45489
35.8404
37.3343
37.3337
38.1115
15.9915
37.3609
37.0277
23.7292
37.2874
7.54212
22.1383
35.4711
4.11477
34.7989
7.53316
19.6089
20.3136
21.5133
29.9161
34.8392
7.47888
21.7888
0.102104
35.2428
29.5912
34.3482
1.2391
38.1742
22.4367
21.9362
22.4131
35.1275
37.4077
39.0116
4.29025
34.948
2.93246
35.18
14.3718
1.15415
3.05741
4.31459
36.9523
35.883
35.1707
4.38248
36.118
34.9028
29.2407
38.8572
38.8346
37.3087
37.2523
3.1316
35.3582
37.7164
29.7292
34.9011
38.8965
34.4772
37.6046
22.4018
3.01729
36.7517
16.1299
31.2781
22.4585
29.9892
3.7743
38.4284
19.7799
25.6095
22.5166
38.3192
29.8494
3.14184
34.358
2.93259
27.8491
28.8073
11.7258
2.07823
28.2657
0.535096
2.70691
38.1313
35.8828
2.05542
2.04828
38.6673
2.08534
17.6269
2.66044
35.7232
28.57
38.1841
2.83424
2.712
36.5275
1.39829
2.63245
28.6821
0.807402
35.6336
12.6398
28.7398
30.3738
28.526
24.3466
38.0102
38.1813
23.7792
37.2114
18.0912
24.6309
34.1771
30.2057
30.0274
30.2172
37.2508
34.3333
6.4535
38.5951
35.6613
24.2468
36.0192
36.3786
30.0494
29.6996
37.2313
28.8237
37.7746
37.8663
38.6662
37.568
35.6721
38.1466
24.5269
35.8645
38.5398
38.704
30.073
24.2056
14.9666
6.39435
36.6212
36.1363
25.352
37.5529
36.3704
33.8991
24.8145
8.36986
36.6838
36.3194
36.0163
36.2652
38.4488
36.1649
25.2084
36.1196
28.8198
14.4289
38.0144
37.4261
35.7104
28.7864
35.7345
37.0482
38.0609
29.0772
38.2609
25.1648
26.2759
28.5134
36.87
33.3723
25.2406
13.9007
35.2656
28.9265
20.885
36.1219
35.4224
34.395
36.3022
6.44285
12.5226
25.8559
29.3923
36.5684
6.40856
35.3497
34.6431
34.391
38.5775
11.3368
37.6537
35.6808
26.7835
8.36945
35.687
20.3376
35.1548
25.9031
35.3901
37.9025
38.382
37.2326
2.95625
12.3916
30.4827
36.6467
35.6088
3.02716
37.2359
34.839
37.5939
18.6172
29.5689
15.9813
36.1242
27.0904
26.9177
35.3748
26.9688
35.967
23.4254
21.0228
12.1594
26.9404
26.9209
37.3977
37.8069
37.8221
26.9535
39.0108
27.3883
38.7813
30.7677
36.0278
13.9924
14.4309
35.7123
37.0793
35.6517
38.8116
27.3935
35.6419
34.4
3.02483
27.3702
35.2515
34.8165
34.9369
34.837
35.9864
37.4487
27.4736
21.0787
37.0087
35.7984
29.8738
37.5882
27.4455
3.03137
35.5097
23.8105
37.2874
1.8197
35.8055
15.5086
36.4824
29.8181
29.1627
28.1757
23.9122
23.9026
33.1912
35.4307
24.0733
35.7659
11.309
36.3744
38.3153
34.8528
38.3134
38.4571
38.6386
23.928
23.941
37.3015
34.2273
36.1265
24.2991
28.6602
37.7366
11.366
28.5767
35.7328
3.95201
2.76328
10.825
28.3109
37.2163
37.6205
38.0477
36.9704
11.411
38.3609
24.3859
37.4685
24.5333
15.5635
38.245
24.433
38.6527
37.1578
24.6621
26.0324
31.8193
37.4753
35.6263
36.2449
11.7814
35.0928
38.7611
35.4688
31.235
34.5458
29.775
34.8233
35.4261
35.4152
3.38522
2.98778
17.4863
12.991
38.7748
24.6334
37.9214
38.6762
2.902
35.8555
29.9157
24.5488
2.08316
24.821
29.7959
17.3217
38.4892
29.7435
29.3675
21.1411
25.2562
8.67649
33.6275
37.5125
16.7072
36.2046
36.3334
29.9218
20.0198
29.9933
37.9222
37.8817
26.7529
35.7221
35.8834
25.0208
35.6666
35.724
10.1317
25.0939
25.7106
10.1134
5.13731
36.0839
37.3581
29.9767
10.0443
36.9082
35.6912
17.8215
35.9623
34.2173
34.5975
34.6486
33.1629
34.0281
36.9042
16.9433
36.2344
25.5754
36.4796
32.6979
35.6843
35.7695
38.5255
37.1948
15.6988
37.2333
37.1976
34.7287
36.349
38.4622
37.8798
9.54463
37.2702
8.65636
25.7451
35.7584
17.1571
36.7346
21.6526
28.8144
2.24439
2.29861
35.8574
2.49809
15.7482
28.1051
38.6064
26.2971
7.5281
1.12399
35.1491
1.43065
35.6132
38.4749
36.3795
36.853
1.4306
37.7741
36.4266
1.12518
26.3105
1.08286
38.6921
33.7319
17.1708
38.172
30.0441
35.7183
2.43272
35.7754
35.9395
17.0555
36.4722
26.1918
37.6051
36.4765
7.44714
22.1597
5.45383
12.1607
29.0575
9.6501
36.5126
35.361
14.6141
5.66779
9.44065
26.2127
37.2238
8.72446
37.0991
36.2463
14.8775
26.4365
35.9986
5.79179
38.4978
5.50636
5.06642
35.2447
36.8823
38.108
14.5797
37.7435
37.7472
14.7125
5.48343
25.2339
1.33174
36.5105
38.3671
18.2136
14.7718
36.5422
14.6962
35.6006
14.6224
36.745
36.6148
14.6152
37.2697
21.0483
13.4176
36.0597
36.897
13.4457
34.1833
16.267
37.5005
25.4911
37.5814
34.2411
34.1739
13.5381
34.7418
34.6069
12.4953
34.6518
32.8389
34.3203
35.6038
36.178
28.2088
16.2837
37.7143
37.9396
16.1327
16.2041
36.0378
14.7552
36.9678
36.1529
18.8048
17.9193
0.130344
36.719
37.948
37.7814
37.207
36.009
36.0337
37.9932
36.1703
36.2444
36.9028
37.8206
36.1937
37.4446
36.6381
36.2663
35.3179
36.623
36.8874
37.3307
37.6028
38.5677
16.5146
37.6216
36.6513
38.6446
11.2324
38.9991
36.1386
32.1407
35.5725
35.4519
11.3089
35.2299
35.3185
32.428
11.3773
37.4544
34.1425
34.4109
36.3573
23.2597
11.4444
11.4976
11.0624
6.74392
36.078
36.4262
8.44533
8.88183
11.0456
37.0895
10.0482
22.4467
10.8884
1.73809
1.97544
11.1294
3.45951
10.878
38.6392
12.3721
10.0226
15.4974
10.0767
38.1463
37.8751
38.4303
37.3054
38.114
8.80257
10.2032
38.0838
36.2721
36.1345
35.2816
36.4365
36.3648
35.6771
36.2009
10.0573
28.7872
10.1616
16.9599
35.8299
35.1717
22.9724
29.471
36.8498
37.2119
16.2674
38.7933
37.6676
9.9201
10.1352
10.1079
16.0536
22.7961
36.2209
0.104734
12.0923
34.4172
36.2236
11.9653
36.1223
35.8532
31.8103
31.1428
17.1335
35.3308
38.7679
26.0293
12.2855
0.135697
8.85718
32.4187
37.3475
24.2279
35.1238
38.7775
35.3239
16.0635
36.4039
8.78098
0.374739
11.8036
12.2088
38.0325
7.72359
38.2958
35.2871
38.1147
36.0141
2.81611
32.9171
37.2478
36.9518
35.0626
8.82833
34.2084
7.90918
8.821
2.73159
8.83594
35.2674
35.4706
34.5155
15.8949
6.62034
29.9448
35.749
37.5159
34.3734
23.1598
17.095
37.2313
6.60804
31.902
12.2868
6.58101
37.1477
34.246
6.63088
8.7912
37.8952
19.9829
19.4087
17.136
7.84417
6.926
7.1322
34.3713
2.56726
7.14811
6.04041
35.0204
11.7722
34.4323
15.5884
7.48096
39.0081
1.8045
7.148
7.80004
9.29969
35.3884
31.7086
25.644
32.8186
7.19158
34.9178
2.17823
7.11516
35.8682
37.3517
30.467
28.2288
10.2985
35.2716
17.4484
29.1567
29.8752
26.5907
35.6758
38.7601
8.75379
35.3839
7.88435
28.6326
7.13016
2.10566
36.7884
21.2775
8.69167
36.163
34.2781
5.48514
38.0471
5.51863
5.16026
37.5703
35.3701
12.3374
36.4643
36.6657
39.02
2.0829
30.1083
15.9791
38.7462
15.5353
3.77441
35.3573
3.75064
3.94015
2.3518
28.4667
36.9624
7.8188
1.47029
3.84456
3.89727
2.45571
27.9262
14.2063
37.4899
0.399591
2.67676
37.156
3.89421
38.6892
37.6846
38.4157
38.8913
36.9029
23.0857
38.3811
3.7568
18.7639
38.7007
17.9926
35.4067
2.65845
36.1232
27.7451
35.2103
14.9881
23.9951
29.1019
4.06349
2.65972
15.4935
2.36003
4.13463
32.2633
4.06436
9.91498
4.16485
38.7096
8.78798
28.3173
4.21912
13.8508
28.638
38.594
34.5432
35.9004
15.6954
36.865
33.8266
2.64397
35.048
19.2727
36.1531
38.5728
37.2264
9.7248
16.3856
4.54312
24.6085
2.17582
8.33054
7.85792
9.98391
3.1183
7.83321
8.18746
35.3383
38.3219
39.0101
12.3616
8.60107
35.5959
37.2189
34.0226
7.88703
3.19674
36.6876
8.1844
37.7173
29.84
15.7479
25.5547
37.1216
37.5595
9.80208
37.2866
20.9809
4.17037
35.0656
11.0044
13.871
1.69444
35.9626
26.4928
34.6477
20.0875
15.9687
37.185
38.5006
4.01714
33.7843
38.1675
5.20399
1.93599
37.4615
35.9912
34.5481
7.94873
33.8707
12.4797
23.2235
19.7104
37.5357
34.3638
22.7209
37.5882
37.8312
37.9695
36.8449
34.613
35.1984
35.059
36.1326
35.2925
35.1337
35.151
35.1172
20.9778
35.0885
34.1607
34.102
35.392
34.3788
37.5538
23.1609
34.4877
35.1417
23.7479
35.0371
35.2663
35.298
23.2348
35.1969
23.1453
25.6141
19.7173
34.9167
36.6696
23.0861
29.85
35.6404
38.7169
12.3338
34.809
12.2656
34.7467
37.9738
34.835
12.2462
12.1522
37.8379
17.8704
35.3463
34.4805
27.7361
6.30352
23.1041
38.7727
12.2874
34.4106
19.3129
36.9382
36.0172
36.6355
34.2598
6.29987
7.68096
38.2325
29.8349
36.0986
36.1024
36.0831
36.9
21.7316
21.7871
7.84304
29.9612
39.0015
15.8174
12.5343
5.76592
21.7522
38.7318
6.18174
21.636
11.135
29.8865
11.6359
35.8185
14.9105
22.0762
12.4163
22.1779
23.2791
35.8553
23.4999
35.5201
37.6072
10.1818
38.2402
15.6922
37.9476
35.7208
35.255
35.9828
38.4762
22.1291
35.8846
18.3444
34.8835
38.0744
15.3095
21.1949
8.23925
17.7353
38.3874
30.6911
38.2582
19.3915
35.7176
15.3052
21.6651
21.9929
19.5542
35.6251
35.6221
35.5634
6.67012
38.0849
36.1837
6.66873
35.7354
36.4369
21.9233
35.6139
11.9615
29.7698
34.9029
34.8929
34.8099
7.84779
13.2087
36.8566
0.250486
18.9762
34.8051
22.3492
38.0513
6.82814
15.5297
5.85573
36.7075
16.3768
8.53819
23.1409
21.4568
18.1553
37.2027
37.3977
28.2909
36.3165
36.9507
37.7745
6.88947
22.4513
8.97157
14.2309
34.6206
16.3432
12.4568
13.3679
16.1001
16.349
20.5551
17.9781
37.2074
37.1556
37.1701
18.0393
38.1073
19.0905
33.6581
18.0459
29.9401
6.91607
3.36315
36.4773
37.8351
18.0969
17.978
37.6025
37.3978
38.8647
7.45517
17.9712
18.5968
18.7744
1.7921
12.4358
36.3074
38.3461
37.4991
1.44175
11.9751
0.191622
13.5731
7.74784
18.841
35.3494
37.4865
34.1994
35.7128
1.88193
16.0459
37.3434
35.8401
35.3204
38.6878
38.9159
35.1259
19.5348
36.6077
23.9419
29.9073
36.2039
19.1466
0.557976
7.27602
38.0536
35.2551
19.4425
37.2574
19.5184
30.0108
7.90149
35.0719
33.8435
37.0164
36.5901
36.3562
35.0613
31.6977
35.8968
19.588
8.951
37.5056
37.4457
19.968
36.2653
37.7169
10.8624
29.2146
36.1168
36.0915
35.3003
4.03175
37.3083
37.3645
31.1054
20.0501
19.9825
36.7677
36.1739
34.6724
20.0472
19.8504
19.9956
14.1342
36.7452
3.33833
0.675184
0.833426
38.6911
38.4666
37.5126
38.6384
37.31
10.846
11.1229
8.92915
38.738
38.0049
37.2705
37.8368
35.2394
24.393
1.25368
0.315229
35.9645
37.166
38.7493
29.8337
22.7868
26.2699
37.8429
29.6967
35.1383
35.8245
37.3794
10.8112
12.0159
36.1813
35.6557
14.7721
37.3906
7.94072
9.85991
31.9657
36.1443
35.7356
7.96913
24.561
35.1962
31.9067
1.10149
15.8961
36.6325
36.2505
38.6746
37.4767
2.14531
5.49164
36.2614
24.635
21.1085
30.2888
36.8679
36.3185
36.2119
36.2637
16.3286
35.1071
36.9089
35.5209
3.6179
18.5089
4.48011
35.4675
38.5172
21.1334
35.109
37.4206
36.3559
36.6219
11.5393
35.2501
36.4493
36.4715
4.46031
12.03
36.3004
38.176
35.9506
13.9845
34.9903
35.7896
35.9788
38.2764
38.0447
29.653
16.2031
39.0057
12.7989
16.1001
11.2199
38.7997
38.6077
37.1376
38.6725
36.4009
15.2827
36.8603
34.4429
34.9451
21.1797
34.8407
21.0598
37.3316
38.0779
25.3822
30.3743
34.8473
21.2574
36.8254
21.1635
35.2875
35.9218
36.2349
35.5343
36.1093
24.1801
36.1625
13.5121
38.2695
34.6635
38.0576
36.3144
4.22278
19.4191
37.1243
32.0502
38.9449
21.69
24.1898
19.3879
39.007
29.4896
19.3564
24.4142
16.4144
29.8289
19.6092
35.2086
36.5701
29.9755
6.75325
19.4416
35.7705
35.084
34.3276
32.2772
38.846
36.0322
38.2163
38.6595
38.9633
34.996
19.1874
25.7288
8.97972
34.384
27.2232
38.2176
15.5074
37.5248
38.8987
37.5917
35.1239
25.7611
35.3099
38.9735
36.8284
13.269
36.9591
37.8292
25.265
35.3044
33.5912
33.1564
32.9876
38.683
33.1058
32.9866
33.0812
33.4503
36.6553
36.655
13.1662
20.2427
34.7025
34.3393
36.853
13.3701
35.3402
35.4179
25.5365
36.3946
37.2317
21.6058
25.7419
38.9112
36.2137
27.4392
34.5771
35.7506
29.8385
14.3865
13.9801
35.3947
14.1874
38.4485
8.78249
29.5321
14.1114
36.9455
29.5446
14.1713
35.2529
29.7682
35.9003
13.3051
34.9241
13.1614
35.518
24.1667
35.9999
35.5205
38.2551
29.708
29.7824
38.4681
14.4854
24.1652
39.0095
36.9062
10.9246
0.539199
29.3933
38.7485
14.9107
14.6816
25.4038
29.779
38.945
29.4314
36.4935
28.3991
37.5256
29.7232
29.6109
35.9216
9.15375
35.6117
25.1096
37.1467
35.9279
36.1394
37.5512
36.2906
37.4763
20.1907
11.0238
28.2486
36.0751
34.0656
28.1511
36.1822
38.9949
35.748
38.7649
35.9458
0.434366
36.9411
38.3699
36.5417
0.391449
36.033
37.3069
35.0362
2.07773
37.5799
2.12264
29.5797
19.7439
2.08792
2.22586
35.3877
36.1769
37.0509
2.114
4.56687
35.4739
34.1259
2.27493
37.7754
38.4616
28.1032
35.8973
14.6631
36.1088
2.28714
25.0886
36.1451
36.6199
36.1278
38.2371
37.7549
25.1517
36.1762
2.34142
35.6891
36.6905
5.18503
38.3217
15.5626
35.299
37.8191
20.417
9.16292
28.3902
38.2257
38.2827
37.1054
9.12692
27.317
35.6193
37.3017
35.1786
5.67352
36.1437
15.6928
28.3029
36.6485
36.3559
5.76732
37.4826
35.0544
37.5784
35.2793
37.9234
28.3216
33.9902
35.7787
38.0619
34.1271
36.3909
34.2448
35.7679
36.0327
35.3148
9.19343
35.3196
5.6107
35.1401
36.265
29.8803
5.67418
36.1462
35.2974
36.2916
5.50174
34.6128
36.8862
35.4127
36.258
6.20295
36.1337
28.7349
38.8742
18.9805
34.6986
22.8651
35.7383
37.7118
18.0307
34.4339
36.1036
4.54006
18.5817
38.6418
38.2179
20.343
23.352
5.57938
5.62214
5.68298
20.3902
5.54336
23.7576
35.5534
28.7869
34.1704
34.1268
36.7758
35.5605
37.6496
5.48704
38.738
38.9594
38.6339
26.9053
23.649
33.9715
21.4652
38.3698
21.938
35.6422
25.6488
6.00075
34.1915
18.6043
35.679
35.8367
37.1513
6.1581
19.1006
37.0819
37.7718
6.22376
38.2156
29.1316
37.5362
27.4825
37.4046
37.1417
38.5678
37.1056
4.92667
37.0971
30.4148
38.2671
19.6007
36.7816
36.4192
33.123
32.9777
36.309
36.4982
37.506
38.4223
18.5691
29.0183
33.5987
38.1134
19.0554
36.8143
38.0875
29.9176
14.3436
26.6847
37.1884
3.39265
20.2781
9.76002
15.2573
37.5729
38.9596
38.9616
38.3052
37.2489
37.1132
37.1092
35.7513
37.1906
37.1102
37.3015
37.0465
27.4887
37.1518
36.2817
35.4457
38.3078
36.8086
32.0887
36.7502
36.5065
15.2935
28.4198
35.8051
38.885
37.2478
13.3133
38.8318
37.4867
28.2887
37.6861
36.1656
37.7556
38.0641
25.6033
37.4907
29.3931
38.0805
37.7733
36.5594
36.8339
36.3919
28.3696
28.5339
7.3454
38.3557
35.4485
38.4842
28.5528
36.1358
28.485
28.537
37.625
35.1697
33.9943
29.4824
35.8729
34.7364
29.4485
34.1044
20.879
38.1677
24.1542
34.0725
33.5757
37.3215
18.342
37.7489
18.4965
25.5568
35.93
18.5687
28.9661
37.4314
25.7591
36.395
36.0024
36.2361
35.9356
35.3716
36.9815
36.1237
38.7162
28.5534
34.8015
36.9679
37.729
35.9916
35.8119
13.4458
32.6943
28.8754
30.1436
36.1798
17.4474
17.5101
37.1172
34.7728
35.3112
35.6304
35.6661
35.5678
34.316
34.7181
21.9784
36.6512
38.7689
33.7808
34.1137
37.305
18.2907
35.405
36.0022
38.2567
27.053
38.6513
36.782
20.631
37.5343
38.8828
35.209
38.9245
20.784
36.7365
36.6052
36.4288
35.2396
22.1341
27.0446
26.9932
18.3275
23.3536
23.4497
37.7787
34.446
29.5735
22.7952
34.4475
29.5772
38.1046
29.9057
35.9117
27.1206
36.9857
36.1368
23.4689
29.7147
35.9402
22.743
36.9124
37.5743
27.1322
25.7037
38.3448
36.9691
35.7303
37.2133
36.3666
34.4191
38.3774
37.5541
22.6523
38.412
37.3684
36.8291
23.5085
36.1714
34.4444
37.4182
37.0593
35.0447
34.5578
23.5064
36.0071
34.6455
13.701
38.2634
22.7644
22.4829
36.3506
14.171
37.4312
35.2525
37.9024
34.6807
38.3192
38.8232
39.0201
38.8514
13.9572
38.4996
37.8622
38.501
35.282
36.9199
35.2577
27.5005
37.335
38.145
25.6836
37.0984
37.2967
38.9867
13.7913
36.6323
26.9939
34.5125
29.9548
1.62721
37.1976
34.4535
13.5299
34.2836
37.154
29.0472
29.4425
0.100295
24.7497
30.1589
29.9403
38.5076
35.8582
17.0313
27.7186
26.8556
16.55
29.9118
38.1994
3.032
17.0465
16.9982
39.0094
16.9566
2.562
9.70051
16.1074
27.6715
17.6659
3.59258
15.7985
0.572637
7.18056
16.173
34.449
0.422402
0.132513
18.395
21.4486
0.865833
16.1105
0.598066
34.4997
28.18
34.461
8.61488
17.1005
21.8357
12.8054
34.4878
37.2565
15.7943
12.9171
27.8525
26.9703
4.3797
17.1285
33.1137
17.1783
37.3298
30.3425
27.9346
24.6094
9.79517
28.1215
28.6754
19.7377
12.1412
12.2644
8.81933
17.2485
0.447019
33.8599
33.6086
17.2959
36.2892
37.2966
16.357
16.5334
1.33177
36.4645
25.001
25.7533
11.795
33.5278
37.3252
28.1963
0.36306
27.9851
38.964
4.26077
37.7482
12.721
19.512
23.8893
24.0867
36.4049
37.4185
26.0746
16.6078
16.5606
37.4585
13.3554
16.673
21.5217
37.6587
12.0012
0.968565
34.3803
9.78113
29.9622
26.6664
35.7808
25.3975
29.8854
37.4085
20.6138
1.82555
31.4579
21.0029
20.9813
3.75449
18.2546
21.2918
1.31416
28.1725
26.99
19.9515
3.35502
17.7467
28.798
12.8322
21.1075
7.22327
16.1749
28.8134
3.82117
37.5723
20.9941
20.9401
27.3646
5.11306
24.4662
35.8154
20.9117
9.73992
37.6486
24.976
0.420535
21.0502
20.2783
2.44984
0.480965
18.0325
20.3032
25.1798
37.624
37.2635
25.3121
38.6427
25.3761
24.6241
35.2878
2.50232
21.5639
13.4003
38.4973
9.73817
11.1281
24.9412
28.0107
10.9439
4.70924
13.5515
22.7728
37.305
35.983
27.3438
22.7223
24.8919
14.1778
35.9821
22.9104
19.5159
35.2467
13.436
17.2612
1.25229
29.6216
23.5193
19.673
4.01463
15.0011
38.6325
21.0361
10.738
20.007
29.4867
36.0027
23.7178
35.5118
37.0503
11.284
19.5069
12.2511
30.2123
25.8828
31.6885
37.3689
19.5321
19.5682
12.5059
12.4864
36.1359
39.0131
38.9526
12.5767
12.5272
29.4866
9.61591
35.1628
36.0663
12.5363
13.9423
24.2387
12.4677
12.4497
14.9863
23.4003
33.0073
36.6542
19.1733
1.35811
36.0445
18.0675
14.8888
29.8887
19.0662
14.9293
25.1782
36.0535
12.8704
15.4802
38.5579
35.21
0.813089
1.28877
5.24457
2.15584
14.9592
15.0837
3.65532
9.61754
13.8022
2.13992
35.9639
35.8822
0.0846309
2.39456
14.9159
28.934
14.4731
14.2611
19.8458
12.1516
14.3924
36.9338
38.5472
28.8063
35.9059
34.4955
15.6371
9.8987
15.3253
28.1801
34.7336
23.7865
28.9981
34.917
29.0772
29.2094
14.3668
14.478
0.953003
16.7372
27.852
2.43252
37.1537
34.8881
26.5382
4.66818
12.5167
4.82196
24.9669
22.5566
27.4147
34.9292
15.2834
3.23941
13.2822
29.057
23.7165
26.8199
29.2505
15.367
3.48549
34.8169
21.7906
14.7402
32.0054
34.5376
34.1875
13.2782
34.4326
0.735223
13.2216
12.3926
16.7335
26.0434
33.2171
32.1485
35.1711
34.1224
25.2316
37.1484
37.1527
29.9013
37.2187
9.66778
12.8863
11.8606
9.053
9.59343
17.1525
33.9853
4.61697
2.01371
22.338
16.2286
9.01644
15.2554
37.299
29.2457
8.84302
20.2122
37.1684
20.5117
15.9587
37.134
36.2136
24.8041
8.72906
37.8889
18.016
16.2288
24.8356
38.1005
37.0998
1.40846
28.9806
16.9382
37.2158
38.3914
37.1331
19.5091
31.8978
31.9204
6.08434
29.3441
38.8318
6.06333
29.2706
13.7183
1.5623
1.4817
6.57075
30.1286
1.69158
39.0037
6.91942
3.554
0.53044
11.0191
2.55818
2.48659
2.63187
2.80121
0.631378
25.7389
29.9916
15.0807
25.2093
27.9743
29.8061
2.73622
29.9173
2.75413
0.636465
7.98723
4.85772
24.8294
4.81477
30.1236
5.67046
35.0022
15.4308
32.5552
11.4043
17.1736
38.5642
21.1095
35.0298
17.9599
35.0803
35.3478
11.8415
21.6473
34.4839
4.67589
12.489
21.5745
36.0776
38.2581
25.1227
6.86018
28.8287
11.3134
3.75791
21.0795
27.0448
20.0433
21.2211
34.1141
15.2895
37.3741
35.478
8.52084
6.13776
28.3955
8.1672
5.41767
21.1639
21.9583
35.4901
27.3664
5.30029
20.9105
35.424
38.6045
15.3465
17.9851
33.9591
24.6034
0.460311
18.5056
1.41366
4.39767
11.4289
36.2261
32.9729
9.09299
26.5658
39.0162
8.54509
24.6472
19.4223
30.2495
9.08836
30.172
15.3487
25.5538
33.3412
26.1323
36.717
17.759
21.4673
4.18841
0.224298
34.3833
0.320621
26.6918
20.3286
25.9478
34.5257
37.1125
9.56449
26.3136
20.3798
17.5751
24.414
6.90821
1.30571
13.2157
1.46289
1.00879
24.7388
34.6415
28.596
20.1019
0.0990353
24.1004
34.7095
36.523
29.1237
28.1995
35.2947
28.2952
22.3605
34.8447
33.4364
33.4667
21.918
8.90525
30.2501
33.6472
24.5104
10.1304
34.9822
2.18969
34.232
19.3985
6.94083
38.0732
2.00774
24.2029
24.2009
6.15837
36.8263
29.2836
23.2108
25.8913
24.1522
25.1514
25.7837
22.0215
29.4792
22.7157
3.58419
9.04313
35.9742
34.2938
34.0537
35.1903
20.7828
10.5135
9.20301
24.2663
5.28386
9.28285
18.4714
21.6153
20.6775
6.70704
22.2252
24.2971
19.5014
4.93447
36.8693
24.0749
24.0529
21.1077
22.3916
35.047
12.4346
12.72
17.4087
17.4545
13.9739
35.7872
13.817
13.9028
34.4038
14.0623
19.9454
35.2141
14.0592
35.1209
39.0033
12.4391
21.695
20.0307
13.9067
36.425
2.16075
22.4181
38.9737
11.261
14.3641
11.7795
20.489
35.1268
21.7489
21.6681
18.9241
35.2741
9.86618
3.74117
19.3253
8.47459
10.6764
38.4088
35.3425
34.7402
0.695406
34.9063
9.61974
8.00031
2.60431
35.4264
2.92814
35.1378
36.8717
35.214
11.8286
0.301612
29.1559
19.3067
10.3368
34.5567
34.2436
24.4963
24.1079
7.89598
27.8815
10.4126
29.3815
36.7992
33.62
33.6525
36.8962
33.6954
0.4204
37.2625
9.61538
18.3258
10.3957
1.99307
12.402
34.2678
8.16118
18.3381
21.4285
25.3941
34.3279
36.6466
22.1962
8.12572
29.9101
29.8328
27.5714
28.6179
29.5019
29.2942
6.10533
1.37015
6.1421
29.7798
6.01275
18.4267
19.847
4.05009
6.01879
27.5044
29.961
29.7964
29.7444
29.7203
4.19155
25.651
38.8778
29.8356
29.6121
2.26103
1.3461
0.494024
18.4514
13.8398
29.5514
1.4614
28.254
36.0999
9.67564
13.2451
15.0523
36.1135
11.2099
6.20259
1.55641
13.5617
38.7794
35.8347
20.1322
3.83285
3.65779
0.740614
35.1959
37.6423
37.8396
14.9985
17.9683
3.44097
37.5791
9.91836
35.781
35.6779
1.484
1.04768
36.0978
3.47819
3.57362
0.713452
38.9452
38.1805
6.39602
18.4544
35.7726
3.15322
2.82312
2.85562
35.6375
35.6166
35.6773
2.86514
3.16146
24.3905
2.81437
38.7733
2.62607
17.3751
24.6061
22.4652
35.145
36.6064
2.51859
26.0192
25.3313
12.6754
35.2197
29.1757
37.3264
4.27
27.741
17.5607
35.2835
34.5643
26.3301
27.2187
34.4502
34.514
37.4338
11.3937
34.9045
34.3392
18.2075
17.8117
37.4068
34.3293
15.4737
2.69762
2.77423
11.8338
9.93546
34.3993
18.4303
34.0568
33.9968
34.827
12.5034
20.5004
2.81987
34.0678
35.0952
17.7674
27.5405
18.8419
20.7034
16.29
14.1439
16.112
2.73202
34.0177
17.4602
12.9143
2.75937
11.6214
20.5808
33.0308
11.519
11.5331
11.4921
11.5101
3.9112
33.8873
34.9336
13.3947
34.8943
34.973
16.1613
34.9629
9.5944
34.8406
34.9243
35.2866
34.5178
12.7861
4.17026
12.8573
34.6702
6.10703
12.1903
17.3306
34.8112
37.568
12.8001
13.6241
28.5449
12.8221
34.6709
0.134782
2.73121
2.1791
36.4707
35.2442
7.5637
6.3819
35.3069
34.9034
23.8866
0.18886
34.7285
26.339
23.8413
23.8933
14.173
34.871
16.133
30.9189
1.39156
0.31584
23.9155
23.6591
21.8567
8.99709
16.458
34.5518
18.4602
16.4694
28.461
25.7943
23.8811
34.6701
11.2812
16.8171
9.42877
14.343
16.6144
27.7843
1.13062
25.2801
22.1368
23.9266
6.68265
24.0411
25.2444
16.381
20.1304
35.2079
29.5371
38.9642
16.2428
16.943
24.0998
25.3189
23.1362
16.4919
16.5139
26.7794
12.7782
4.24531
36.2278
33.9304
25.3195
25.3401
19.6009
25.2844
28.2652
26.3554
28.2246
28.1052
34.0771
4.12579
28.1744
30.1693
34.0699
0.413125
33.8381
12.5563
16.5115
29.6477
11.1854
38.9268
15.9412
28.0991
1.85634
37.2168
28.173
3.60524
21.6506
28.0618
28.0809
34.0008
37.0631
11.5866
17.4065
9.15528
17.3902
15.6505
17.6821
28.5381
34.4289
0.454836
34.3012
17.5267
4.14085
18.7243
38.0088
33.6832
26.3394
17.5897
12.6715
18.9779
37.1494
18.7738
18.9897
0.518741
18.9456
32.161
31.4617
18.7759
36.7459
36.5632
11.2119
32.0205
26.0743
38.2389
8.40068
34.7883
29.5838
38.4346
5.21166
24.9804
29.417
18.8523
19.8654
17.0237
23.97
28.899
1.51943
29.4695
10.464
29.2386
35.2346
6.01575
36.3599
19.8948
20.1578
15.8133
13.9804
19.7568
0.451623
12.3717
19.7054
19.2169
30.1935
23.3854
26.3406
34.8506
19.6739
4.37411
29.7395
4.04483
19.7915
29.7962
6.07915
27.8562
17.611
29.8542
17.7256
10.6486
19.9743
16.0637
36.5667
36.4584
16.96
17.2996
21.8548
37.4827
29.7338
1.23094
16.4592
12.441
7.81814
13.0892
11.1421
17.238
0.0513702
9.79928
23.2078
8.23427
14.9678
13.3832
12.2741
23.1697
19.7415
8.14741
30.162
18.4823
30.1454
7.17292
20.9764
30.0025
9.22981
0.109091
13.1378
17.2729
7.34839
6.0706
35.9221
20.5773
30.0407
29.9574
31.9281
20.6152
34.1386
11.3116
20.5782
2.86453
22.1178
35.9426
20.0681
23.3529
0.499824
20.9526
30.0259
23.146
37.1292
13.5204
1.75751
22.2614
28.9909
30.4184
35.9207
37.2687
30.956
34.6474
23.2009
36.3635
29.65
30.6825
34.3941
34.5379
1.55887
34.6213
37.2704
23.1362
13.0389
38.2999
15.6085
11.8174
16.3664
29.7718
37.2782
26.6673
23.429
22.189
30.5171
37.3285
28.2374
22.6465
25.495
37.0844
13.2995
22.5013
35.8606
11.6652
36.9178
35.2027
28.3059
22.2788
37.5781
28.3129
27.9456
28.3646
27.8365
19.1564
27.3046
27.1282
20.1534
23.1441
38.7299
10.6039
3.74734
8.051
1.13298
27.6992
3.54562
11.4873
37.6471
36.277
17.7564
27.7517
22.9346
10.8135
22.9759
12.2669
1.23632
37.3718
0.0861223
27.3152
3.07051
22.9802
7.21466
37.64
26.5821
20.1664
26.6079
30.8054
37.5386
10.0876
38.8215
4.04591
38.5931
23.0338
26.5794
21.9002
16.6591
19.9568
1.0022
21.761
37.5737
23.11
23.1119
35.5897
35.656
1.44905
19.7772
37.8254
0.0426038
35.681
8.61302
26.6087
35.7159
2.35198
16.8629
18.861
35.7459
23.0008
3.91924
15.3478
19.2124
23.1939