/*--------------------------------*- C++ -*----------------------------------*\
  =========                 |
  \\      /  F ield         | OpenFOAM: The Open Source CFD Toolbox
   \\    /   O peration     | Website:  https://openfoam.org
    \\  /    A nd           | Version:  10
     \\/     M anipulation  |
\*---------------------------------------------------------------------------*/
FoamFile
{
    format      ascii;
    class       volScalarField;
    location    "1.2";
    object      SgT;
}
// * * * * * * * * * * * * * * * * * * * * * * * * * * * * * * * * * * * * * //

dimensions      [1 -1 -3 -1 0 0 0];

internalField   nonuniform List<scalar> 
111485
(
1.61609e-08
2.67591e-14
4.66297e-15
2.1147e-14
3.72368e-14
3.76221e-15
2.83162e-15
3.63441e-15
1.60365e-15
6.10038e-15
1.70536e-15
5.22028e-15
6.59598e-16
9.47627e-16
3.147e-16
3.40286e-15
4.12417e-15
1.58167e-14
1.25078e-15
4.96259e-14
5.74729e-14
2.03237e-15
4.69207e-15
1.37121e-14
4.98459e-15
2.8856e-14
1.16515e-14
7.5785e-15
3.08813e-15
3.56732e-05
1.18542e-14
2.94545e-15
4.90483e-15
1.81703e-13
1.94575e-14
2.70582e-14
9.47663e-15
5.51808e-14
1.87576e-14
1.01323e-14
2.82474e-14
4.89969e-15
9.56053e-16
1.43726e-14
5.90895e-14
1.51073e-14
1.88904e-15
1.70418e-15
2.69017e-15
1.4842e-14
9.8519e-14
1.11012e-14
2.87469e-14
1.56612e-15
5.71804e-14
3.05596e-15
5.32511e-15
1.66624e-15
2.14186e-14
4.54801e-15
7.38198e-15
1.11636e-08
1.23314e-15
1.87855e-14
1.10536e-14
3.13819e-15
9.42839e-15
6.38267e-15
2.35709e-15
1.85436e-15
5.72575e-15
3.06613e-15
2.94076e-14
2.19374e-15
2.95741e-10
6.05484e-16
4.50248e-14
5.90451e-15
2.58702e-15
2.06675e-13
2.7078e-15
2.19215e-15
7.00473e-14
1.73173e-06
2.67606e-16
2.89596e-15
1.92477e-13
6.38532e-15
5.83346e-14
1.22552e-14
3.95832e-15
3.01762e-14
8.7059e-16
8.49094e-15
1.87407e-15
1.88907e-06
4.49466e-09
1.97738e-14
9.25719e-14
1.05134e-13
4.12004e-12
1.77639e-14
6.73862e-15
5.52643e-15
9.14977e-15
9.58086e-14
1.4123e-14
4.2515e-15
3.75606e-15
3.69665e-14
6.6102e-14
3.99564e-15
1.79311e-15
1.43338e-15
1.16641e-13
9.70758e-16
2.15525e-14
2.45671e-14
3.69138e-15
5.8029e-15
8.52122e-15
1.60667e-14
1.64093e-14
5.11031e-15
1.08199e-13
1.96962e-15
5.09547e-15
1.55395e-13
1.71729e-10
7.25332e-14
7.7135e-15
1.03659e-14
8.12538e-10
2.50337e-14
2.54457e-14
1.20554e-15
2.52442e-15
1.83956e-14
1.39139e-14
3.49909e-15
6.51486e-15
1.15066e-15
1.48855e-14
1.25971e-15
6.27855e-15
9.04286e-15
1.17195e-15
5.91171e-05
7.46115e-14
2.09049e-16
1.93561e-15
2.47092e-15
7.38229e-15
2.18328e-13
4.18692e-13
1.4685e-15
3.98436e-15
2.62953e-15
1.06016e-13
3.43901e-15
7.43525e-15
3.29186e-15
3.84425e-15
2.90071e-14
7.06843e-14
9.05865e-14
5.33438e-15
3.35785e-15
3.23289e-14
4.62137e-14
6.08867e-14
2.07449e-05
2.79889e-15
4.63482e-14
3.65236e-14
1.04352e-14
3.83054e-14
7.53085e-15
1.91451e-14
6.1146e-14
2.37289e-14
8.5646e-16
5.54044e-15
4.77935e-16
2.62781e-15
5.1809e-14
2.6117e-15
1.53695e-14
5.61622e-15
1.35797e-13
1.85421e-14
5.30038e-14
6.72927e-08
3.22585e-14
4.00677e-15
4.45492e-14
1.17914e-15
2.04248e-15
1.56039e-10
9.57341e-15
1.44077e-14
1.5873e-13
1.07693e-14
1.21016e-15
2.27611e-14
4.36142e-15
4.73216e-16
5.57778e-14
3.98492e-14
6.33839e-15
3.96029e-15
1.33259e-15
1.64155e-14
3.92227e-07
9.71584e-16
8.15677e-15
7.34724e-15
2.86785e-13
1.99485e-14
6.34355e-15
1.06154e-16
2.9426e-15
1.1745e-16
1.01819e-14
8.54751e-14
1.75155e-13
1.13202e-14
3.40776e-15
1.96872e-14
4.49707e-16
1.93143e-15
5.30283e-15
1.52555e-15
3.80359e-15
9.75073e-16
1.75422e-15
4.58426e-16
1.39431e-10
1.95708e-16
2.08171e-14
2.15292e-14
2.28882e-14
2.09701e-15
2.61709e-14
2.33702e-14
1.5826e-14
9.2728e-14
6.00813e-15
9.72639e-15
3.5992e-15
1.52853e-14
2.67355e-14
3.15905e-14
2.05681e-05
1.71346e-13
7.45845e-15
1.33263e-14
1.76889e-13
5.3837e-15
5.74866e-14
3.22653e-15
1.60049e-15
1.5332e-14
7.68656e-15
1.85167e-13
2.31036e-14
3.07462e-09
2.68819e-13
2.92461e-14
1.08015e-15
6.304e-15
7.13595e-15
2.00322e-16
2.03163e-15
6.69532e-15
2.59509e-14
1.1832e-13
1.11673e-14
8.48031e-15
0.000154177
8.50677e-14
1.82841e-14
1.01056e-14
2.22881e-14
3.7015e-15
7.84319e-16
3.18966e-15
3.40795e-17
5.70083e-14
2.20039e-14
1.22266e-15
1.5195e-15
3.50628e-14
9.29702e-15
7.41719e-16
1.51017e-13
9.00209e-14
9.4347e-14
1.11533e-13
3.34921e-16
9.01075e-16
9.50194e-14
6.33345e-15
2.78621e-14
9.75173e-14
6.98985e-15
5.34666e-06
1.24223e-12
1.50752e-14
2.94743e-13
2.41289e-15
2.30138e-16
1.5968e-14
2.59702e-14
1.19099e-13
1.10816e-07
1.70044e-15
4.6636e-15
2.98223e-14
3.12429e-14
4.01567e-14
9.01364e-16
5.9107e-10
8.77735e-09
1.09542e-13
3.03359e-14
1.30604e-15
2.73387e-15
6.87437e-15
7.14766e-15
2.07836e-14
1.51777e-13
3.24579e-15
1.08089e-14
3.57451e-14
3.7529e-14
2.47734e-14
1.02621e-14
1.78536e-14
1.08684e-14
2.25259e-15
2.57432e-14
8.30593e-13
4.51995e-14
7.24193e-16
4.54496e-14
1.05304e-13
1.83107e-15
2.66594e-15
1.05314e-14
6.34695e-15
1.45673e-14
3.41496e-14
4.83948e-15
5.73412e-14
3.50962e-09
5.55543e-13
2.64805e-14
9.14836e-15
8.28172e-16
3.55135e-14
6.6016e-15
6.50699e-15
5.23625e-15
7.69774e-15
2.50354e-08
2.17941e-14
6.84461e-16
8.73998e-14
1.64862e-15
1.85655e-15
1.65426e-16
1.84134e-15
2.62166e-13
1.7774e-15
3.90709e-15
8.75713e-16
5.61955e-15
2.16308e-14
3.66978e-14
6.53779e-16
1.09473e-16
4.00992e-15
2.96106e-14
8.974e-16
1.09375e-13
8.9245e-05
4.16356e-14
1.02346e-15
2.21909e-15
2.1027e-14
4.64627e-15
9.03575e-15
6.94718e-15
1.79609e-14
1.04718e-13
4.46833e-15
7.99915e-15
8.19631e-15
3.94169e-16
6.51411e-15
2.431e-14
2.92892e-14
4.6517e-07
6.6829e-15
1.42538e-13
4.14921e-15
1.10101e-14
9.576e-15
2.34488e-13
2.05569e-12
1.11755e-15
2.54659e-13
1.50975e-12
9.44661e-15
3.74265e-14
9.95653e-16
3.65623e-15
1.98833e-14
6.77134e-15
4.75119e-14
5.30979e-14
3.99424e-14
1.15839e-14
3.84613e-16
5.50415e-14
1.60476e-14
1.44827e-14
4.25691e-15
2.47973e-05
1.24582e-14
1.61253e-15
1.18611e-14
2.39095e-14
2.84447e-14
2.51776e-14
1.07127e-14
2.92155e-15
2.62039e-15
4.59003e-14
1.51163e-16
6.29662e-15
1.62238e-14
8.16868e-14
5.66884e-14
4.1862e-15
2.89006e-09
1.03955e-13
2.75987e-14
1.05027e-13
9.90895e-15
7.71159e-14
1.7112e-13
2.48271e-16
4.91886e-14
2.37325e-14
1.12201e-14
9.33471e-14
2.62267e-14
1.23493e-15
2.13374e-15
1.43997e-13
6.19184e-14
7.17977e-09
5.03869e-15
1.20714e-15
9.49866e-09
8.4482e-05
2.63591e-14
3.10369e-05
9.42694e-07
2.54464e-13
6.24968e-08
1.74231e-14
1.66417e-15
9.63011e-15
5.66853e-15
1.95211e-14
2.73515e-06
1.27702e-13
3.53043e-09
1.40139e-14
2.41752e-15
1.56593e-13
7.82949e-14
3.84346e-16
5.77331e-14
7.56644e-15
2.7392e-14
2.54964e-13
1.98222e-09
8.0605e-15
3.18017e-14
2.51505e-14
2.51797e-15
3.23865e-15
5.86726e-16
4.14684e-15
3.8651e-15
3.80234e-15
7.68559e-15
0.00018796
9.82282e-15
2.07926e-13
5.74505e-15
2.76822e-13
3.73465e-15
1.74457e-13
1.98694e-16
8.44429e-16
5.35426e-15
2.59123e-15
1.35454e-14
6.79434e-14
2.40095e-15
2.41015e-15
5.80259e-15
1.69442e-14
6.16446e-14
3.32568e-14
1.12865e-14
7.94003e-16
4.9489e-15
7.63651e-16
1.63354e-14
4.00343e-15
2.5921e-15
4.48474e-15
5.68807e-15
6.12151e-09
1.52861e-15
1.87868e-15
2.58731e-16
6.70342e-15
1.42632e-13
2.89707e-14
1.68308e-15
1.92888e-14
8.15947e-15
1.24445e-13
5.26205e-14
1.95042e-14
3.38314e-16
6.56324e-05
2.40686e-14
1.29611e-14
2.19945e-14
5.79848e-14
2.06045e-14
4.4502e-15
1.58654e-16
1.14874e-14
1.12596e-14
7.71726e-14
2.98009e-15
1.28181e-14
5.38362e-14
3.18205e-14
3.72827e-14
2.22083e-14
8.87727e-15
3.16784e-13
2.50427e-14
1.02392e-13
1.0048e-13
4.61798e-15
4.61534e-15
1.74417e-14
3.56282e-15
4.10792e-16
1.81424e-15
7.55055e-15
3.75516e-15
8.93523e-15
1.17077e-15
1.58405e-14
3.42712e-15
2.15055e-15
1.08789e-13
3.34152e-15
2.26252e-13
3.58003e-14
2.75446e-14
5.31219e-13
7.02374e-16
2.92897e-14
1.55934e-14
1.4231e-14
2.69566e-14
1.73346e-14
5.30397e-15
2.8298e-15
8.86242e-14
3.86851e-15
4.54701e-14
2.91038e-14
2.31975e-16
5.6824e-14
5.18368e-14
2.46264e-14
1.63411e-14
2.75483e-14
4.09767e-14
2.11144e-14
5.29705e-16
2.61644e-13
1.43016e-14
4.06829e-13
2.17959e-13
7.89517e-13
5.70129e-16
1.07697e-15
5.20631e-14
1.18281e-14
2.43303e-15
1.03049e-14
3.89059e-14
5.68134e-14
9.74577e-15
1.13669e-13
1.41013e-15
2.02957e-15
7.03976e-14
7.32806e-18
6.42985e-15
3.20427e-15
1.13912e-13
1.95495e-14
8.34238e-15
7.05867e-09
3.93009e-16
1.76422e-14
7.03117e-17
8.73147e-15
4.67493e-16
3.6177e-13
4.89208e-15
1.60367e-14
2.3484e-15
6.68522e-15
5.58372e-15
5.35133e-14
2.11656e-13
2.31738e-15
6.49818e-14
2.24156e-14
4.38484e-16
8.85841e-16
1.59249e-14
4.3294e-13
3.6563e-14
1.76101e-14
4.96327e-14
1.90171e-13
1.35154e-14
1.7959e-15
5.20325e-14
7.38468e-15
5.72597e-08
6.3951e-15
3.71836e-15
4.97073e-15
1.19681e-14
4.23147e-15
4.30772e-09
1.09662e-12
1.71195e-13
6.6759e-15
6.70422e-15
1.10198e-14
2.26877e-14
4.01576e-13
5.38791e-15
9.02654e-14
2.40232e-14
2.28396e-14
2.12522e-14
9.46366e-14
9.72173e-15
1.37279e-14
1.65537e-13
6.34491e-15
4.80265e-16
5.19793e-13
3.52883e-15
1.27559e-15
1.89244e-14
1.27741e-13
1.14311e-14
5.3369e-15
8.05504e-05
1.74803e-13
2.29407e-14
1.47535e-14
1.77823e-15
9.72996e-15
3.12847e-14
1.25181e-13
2.45534e-14
1.18576e-15
1.30066e-14
1.46951e-14
4.72514e-15
9.64198e-14
3.04765e-14
1.53475e-14
1.27097e-15
5.29266e-14
1.51415e-13
4.66135e-15
1.54723e-15
4.51886e-15
2.59286e-14
3.07966e-15
7.91185e-13
2.30368e-14
5.00349e-15
1.13802e-14
2.99568e-09
8.87369e-15
1.65086e-13
9.60981e-15
3.49665e-14
8.66256e-16
1.47167e-14
1.27937e-15
3.183e-14
3.51542e-14
7.71929e-14
8.51239e-15
3.19963e-14
4.33246e-06
1.51923e-14
8.35824e-15
2.99033e-14
7.69161e-14
2.11674e-12
1.97751e-12
4.82218e-14
1.29065e-15
3.04208e-15
7.61552e-15
5.37113e-14
1.01132e-13
1.16756e-15
9.99844e-14
4.60792e-14
1.58199e-14
1.3516e-13
7.71968e-15
6.45755e-15
7.30515e-16
6.21905e-16
5.57503e-15
1.16229e-14
5.98077e-16
2.2788e-16
1.61841e-14
2.14688e-15
1.62736e-13
1.77645e-13
3.46134e-14
1.25746e-13
8.14992e-15
1.77764e-15
7.04825e-15
8.90457e-14
1.89713e-10
4.91977e-15
4.64544e-15
9.644e-16
5.26798e-14
1.45254e-14
1.18311e-13
6.70026e-14
4.46832e-14
1.56094e-16
4.50584e-15
6.15192e-14
1.38037e-14
5.65753e-15
1.46704e-14
1.09897e-14
1.92847e-14
3.28837e-15
5.48896e-15
1.47859e-13
5.13059e-15
3.59208e-14
1.38159e-14
2.4973e-15
2.96275e-14
3.89121e-15
9.55863e-16
2.0344e-13
8.12808e-14
1.0016e-14
3.83348e-14
1.73928e-14
3.51055e-14
3.25969e-14
3.48362e-15
8.71813e-15
3.34953e-14
9.34259e-15
7.14387e-15
1.02151e-15
1.12637e-15
9.53179e-08
6.8989e-15
1.6511e-14
2.28809e-13
8.94055e-15
4.05383e-13
1.87564e-14
1.30454e-15
4.82508e-14
1.00617e-13
1.35374e-15
3.37732e-15
3.57197e-13
5.45867e-15
1.05772e-13
1.43214e-14
1.4663e-14
1.28954e-14
1.44296e-14
3.79061e-15
9.3221e-15
1.77105e-14
1.78243e-13
9.1785e-16
6.18054e-15
5.54733e-14
6.60572e-14
1.43174e-15
2.76793e-14
1.01313e-13
2.42568e-14
3.06296e-16
2.42601e-14
1.36257e-14
8.9143e-15
3.76674e-15
3.61912e-14
1.24271e-13
1.62089e-14
3.42757e-15
3.67131e-15
1.17464e-14
4.43597e-14
1.20656e-13
8.34083e-14
2.08873e-14
7.84638e-15
2.87753e-13
1.24846e-13
3.29111e-12
1.42323e-15
1.1982e-14
2.217e-14
1.33424e-14
3.84144e-14
3.02326e-15
1.13787e-14
1.70058e-14
6.31668e-13
2.12298e-13
1.01617e-11
1.02417e-08
5.5865e-14
3.68113e-06
4.84792e-15
1.00294e-14
1.85571e-14
5.43907e-14
2.15708e-14
1.61246e-15
3.03736e-14
1.67322e-14
6.40932e-15
2.3553e-14
1.22403e-14
1.56721e-13
9.10592e-15
1.39784e-14
2.21164e-15
5.23312e-14
1.59804e-14
4.93629e-15
2.66424e-14
3.54359e-14
1.82076e-14
1.07313e-14
3.30901e-14
1.7737e-14
1.20684e-15
9.83238e-15
1.39278e-13
7.32819e-11
2.18569e-14
2.04545e-14
8.259e-14
1.24664e-14
1.34842e-13
4.03216e-14
1.66247e-13
6.09641e-15
8.51645e-14
1.05008e-14
9.1653e-15
3.33813e-14
1.36922e-14
7.54697e-16
1.14049e-14
4.67702e-14
1.63936e-14
9.45367e-15
7.7591e-15
1.87789e-13
2.66675e-14
1.80147e-14
7.43423e-15
6.52983e-16
1.39045e-15
4.38208e-15
2.32265e-14
1.60227e-14
1.36649e-14
4.83102e-14
2.09681e-14
6.55234e-15
7.41452e-14
1.92341e-14
1.01431e-13
8.46259e-15
2.35249e-14
1.86218e-15
3.00585e-13
3.2341e-14
5.18966e-13
1.49625e-13
1.3611e-13
2.62966e-13
4.71077e-14
1.31187e-15
9.98366e-15
6.84372e-15
4.4041e-15
4.88863e-13
4.12591e-16
1.31782e-14
3.69729e-08
1.08087e-14
1.60445e-14
8.03631e-16
1.68038e-14
5.08867e-14
3.0982e-13
2.6112e-13
4.20287e-14
1.36367e-14
9.78526e-15
4.47025e-16
1.16127e-16
1.46094e-15
3.59151e-14
1.35192e-14
1.00879e-13
1.25624e-12
4.91883e-13
2.65312e-15
1.48299e-14
6.40585e-15
1.67061e-14
3.28252e-14
6.09558e-15
1.07116e-13
1.10778e-13
2.92736e-15
3.2829e-14
9.19408e-15
9.51065e-15
9.15603e-15
2.05375e-13
1.11293e-14
9.70779e-15
1.61018e-13
2.00716e-14
4.28925e-15
2.27112e-14
1.34336e-14
1.83708e-14
1.15374e-14
6.30506e-14
3.08689e-16
3.31335e-14
2.88227e-15
9.16821e-08
1.2894e-14
4.596e-14
3.0125e-15
4.63379e-15
1.67025e-12
1.71174e-14
6.38343e-15
5.82127e-16
1.62015e-14
1.69044e-13
6.3976e-14
5.64052e-15
1.1181e-14
4.59509e-14
3.20408e-14
2.88292e-14
8.15405e-15
8.84954e-14
8.11827e-15
1.21651e-13
6.81948e-13
1.05035e-14
1.29232e-13
5.20448e-14
5.47789e-15
3.08639e-14
2.81407e-14
7.32581e-12
6.02197e-14
5.08553e-14
2.63173e-15
2.18949e-14
1.19746e-06
9.12118e-15
8.06204e-15
1.78643e-14
3.92719e-15
3.88075e-15
7.65149e-15
4.73201e-16
8.33298e-16
1.61967e-13
1.05759e-13
1.01127e-14
1.40174e-14
1.38264e-13
6.16552e-16
7.85245e-15
1.59558e-15
2.18783e-15
8.84899e-14
1.8382e-15
1.12135e-15
9.28936e-16
1.62471e-14
1.25084e-15
1.20166e-15
1.01148e-14
2.46151e-14
1.16572e-15
1.70587e-15
7.0951e-15
2.72026e-14
1.65332e-14
1.59453e-14
5.37885e-15
2.60519e-14
4.17739e-15
1.9056e-14
2.01054e-14
1.89676e-15
1.28849e-14
2.23826e-15
3.54941e-15
9.84759e-15
1.84928e-14
1.15665e-12
4.8186e-15
1.96768e-14
4.72428e-15
6.84164e-14
4.93778e-16
1.03629e-13
2.91414e-14
1.42613e-15
1.55226e-14
4.31968e-14
3.16179e-15
1.1117e-13
4.50961e-14
5.0686e-14
1.47535e-15
1.64211e-14
1.7221e-09
5.58143e-16
3.68717e-14
1.06451e-14
6.37779e-15
1.11034e-14
9.60931e-14
2.03555e-13
4.25571e-14
1.78699e-13
5.2903e-14
1.80168e-14
6.62794e-14
2.00791e-14
1.00247e-13
2.00448e-15
1.59709e-14
1.36358e-15
4.54681e-15
2.59524e-14
2.50506e-15
1.38119e-15
4.1475e-14
1.02365e-14
4.00417e-14
5.45408e-15
1.79073e-14
1.10206e-13
3.08969e-14
5.19362e-13
2.60951e-13
6.606e-14
4.02934e-14
1.07045e-15
1.90262e-14
2.95641e-15
4.35455e-14
2.74788e-15
7.18899e-13
6.83438e-14
5.41803e-14
6.80264e-14
1.24332e-14
3.90771e-16
6.17992e-15
7.64275e-15
6.29937e-14
2.80763e-14
2.84421e-14
2.92609e-13
3.48165e-15
7.34663e-15
3.56828e-16
1.2303e-14
2.92681e-15
3.08594e-15
8.41071e-17
1.08553e-13
3.44956e-14
8.55354e-14
1.14382e-13
4.87096e-15
2.56065e-15
3.53641e-14
2.35989e-14
2.36868e-11
1.76985e-14
1.30849e-14
9.04768e-15
1.45595e-13
1.07649e-13
1.74139e-13
6.85104e-14
8.78124e-15
5.18632e-15
3.05355e-14
4.69889e-13
1.51017e-15
7.48401e-14
2.40813e-14
5.10471e-14
7.23186e-15
3.03234e-14
1.71808e-14
1.12116e-13
4.34543e-14
2.07939e-14
3.68975e-14
7.72024e-14
1.58893e-14
2.26191e-14
3.05892e-14
2.80017e-14
1.46247e-07
7.54344e-15
7.13774e-15
7.25767e-15
7.67756e-15
5.57253e-15
3.52773e-14
5.0287e-14
1.45855e-14
2.07798e-13
1.06451e-14
1.17583e-14
1.10509e-15
1.79494e-14
1.22778e-14
1.9892e-16
8.57659e-16
4.795e-15
2.3192e-15
1.5664e-14
6.0748e-16
3.42956e-15
4.29069e-14
8.29532e-16
7.75524e-14
7.16534e-14
9.98224e-15
4.19504e-14
7.53647e-15
8.18216e-14
2.08062e-13
4.58643e-15
2.06676e-15
1.09873e-15
9.60155e-14
2.05987e-15
1.26994e-13
7.1727e-16
4.62047e-15
1.42342e-14
6.23124e-15
4.36244e-13
1.53898e-15
2.29698e-14
9.3487e-14
8.37979e-16
3.03244e-14
4.58975e-14
1.45837e-15
3.15996e-15
5.26603e-15
8.30763e-15
2.57593e-15
6.26112e-16
1.04198e-09
3.43828e-15
9.43455e-09
6.59824e-14
5.11721e-15
6.01288e-16
3.99968e-14
2.3004e-14
3.76696e-15
2.91249e-15
3.28277e-14
1.13989e-13
2.63064e-14
4.1548e-15
4.20838e-13
1.19638e-15
2.54818e-14
2.72014e-13
2.81394e-15
1.9464e-15
1.19477e-14
3.93242e-15
4.09383e-15
2.30025e-14
7.28522e-16
2.39825e-15
1.58511e-15
1.19397e-14
1.18588e-13
5.50673e-13
3.84251e-15
6.72583e-14
8.38844e-15
7.89733e-13
9.14094e-16
7.38104e-14
3.37956e-16
2.80008e-13
1.69476e-13
1.71724e-15
6.09358e-16
3.87909e-15
1.70802e-14
8.55347e-15
2.16922e-14
3.05215e-15
1.0788e-14
5.93254e-13
1.36735e-15
6.64311e-14
1.69765e-14
3.16404e-14
3.81193e-15
1.11229e-14
3.75939e-15
5.92633e-14
2.08965e-13
1.42147e-15
1.0514e-15
1.12605e-13
3.08528e-15
2.25599e-14
1.20023e-14
2.28631e-14
1.52842e-13
5.40598e-14
1.18417e-13
2.79897e-15
9.25688e-15
7.44373e-15
1.44812e-15
1.38636e-15
3.64159e-13
1.73472e-14
3.9061e-16
1.75774e-16
3.633e-15
2.48163e-15
1.33187e-15
2.2134e-14
6.3342e-15
3.82506e-14
3.22687e-13
5.10178e-15
7.204e-14
1.66044e-15
1.37522e-13
4.62642e-15
2.34231e-15
3.05805e-14
6.27089e-15
4.13525e-14
5.60009e-13
3.44372e-15
5.53686e-12
1.49701e-13
2.09429e-16
1.4065e-15
1.77455e-14
2.05421e-14
2.06063e-14
1.5569e-15
1.99563e-14
1.79038e-14
1.17099e-14
8.62304e-14
2.56376e-14
2.29962e-14
1.07878e-15
5.80985e-15
6.31298e-15
6.28366e-14
6.61948e-16
4.91206e-14
5.30505e-15
2.57784e-14
3.66725e-15
6.72355e-14
2.60533e-13
2.31964e-16
1.12123e-15
1.13907e-14
2.71555e-16
2.20902e-14
2.45885e-14
8.06768e-14
4.55013e-15
1.45866e-13
3.03913e-15
5.93201e-16
1.17178e-13
1.17816e-14
2.01994e-14
4.41098e-15
1.49311e-14
3.75152e-14
5.49449e-15
9.2126e-14
3.27506e-15
2.30616e-14
3.50147e-15
2.75096e-14
2.87383e-12
6.25372e-15
2.55869e-15
1.10439e-15
1.31956e-14
9.77755e-15
9.95274e-15
1.60051e-16
1.66575e-14
5.5841e-15
1.4412e-15
0.000132358
1.02071e-15
3.28752e-08
1.31572e-14
6.80988e-05
1.77584e-14
2.40604e-15
3.39721e-14
2.8106e-15
1.76025e-14
7.79971e-15
8.15978e-17
2.81562e-13
2.58018e-15
4.32069e-14
1.04526e-14
4.70775e-15
7.79162e-15
1.58847e-14
3.4798e-14
1.79541e-15
3.16238e-15
1.52384e-13
4.85298e-14
7.98626e-10
9.08592e-14
2.08035e-15
8.73458e-15
7.08119e-15
4.60366e-15
2.1231e-14
1.02106e-14
7.32375e-16
7.45342e-14
1.0796e-14
2.56294e-16
6.86065e-15
4.41739e-14
4.57642e-15
6.84716e-15
5.24215e-14
3.23646e-16
2.19997e-15
9.64191e-15
3.99593e-14
1.78453e-13
6.63358e-15
3.18346e-14
4.79605e-14
6.01943e-15
1.06279e-13
2.94727e-16
2.90639e-15
2.23032e-15
7.18724e-15
1.24384e-15
1.83618e-15
2.90728e-15
2.93124e-13
1.02617e-13
2.67938e-15
2.02703e-14
3.3989e-15
1.74145e-15
7.73715e-14
8.89973e-16
1.45031e-14
1.49702e-14
7.18771e-14
2.05127e-14
2.08572e-17
2.96362e-14
5.83712e-14
1.32983e-14
4.68277e-14
1.1026e-13
2.19059e-14
3.41666e-14
5.75148e-15
2.03442e-14
1.23173e-14
1.11371e-14
1.22428e-15
6.89189e-14
5.33713e-15
1.9759e-14
4.97701e-14
1.3716e-14
7.65505e-15
1.32336e-14
0.000115852
1.12903e-13
2.64587e-15
4.99893e-09
6.47614e-14
7.35548e-15
1.92005e-14
3.75782e-15
3.14353e-15
2.82266e-14
2.31673e-14
6.5799e-16
1.0147e-14
4.58558e-14
2.42523e-14
8.81652e-14
3.80786e-14
2.37379e-14
6.37526e-14
2.77505e-14
5.96554e-16
6.60057e-16
3.12536e-14
8.30589e-15
4.67256e-14
4.56344e-14
3.08806e-14
7.89985e-16
1.21966e-09
2.79785e-15
3.15409e-14
1.30651e-14
7.59394e-15
2.35038e-15
3.16355e-14
1.26577e-09
2.53462e-16
9.64121e-16
1.54377e-16
8.91761e-15
8.0118e-14
2.31058e-15
1.02841e-12
1.57958e-14
7.99929e-14
1.2577e-14
1.00893e-16
1.52026e-14
3.37809e-13
8.19887e-15
3.92411e-14
1.45805e-14
1.20306e-14
2.18904e-14
2.40611e-15
1.06529e-13
1.43836e-14
3.69251e-15
4.62942e-15
7.851e-15
6.98044e-15
7.50993e-14
8.55318e-15
6.65296e-15
3.84198e-15
2.71603e-14
7.78844e-15
5.90495e-11
1.59821e-14
4.30335e-14
1.49932e-16
2.45787e-14
1.56976e-13
1.42669e-13
2.45872e-14
5.15606e-15
1.73733e-15
6.20011e-11
1.79956e-14
3.45406e-15
1.75844e-14
5.25042e-15
4.52601e-15
1.56696e-13
1.37591e-14
1.48308e-16
7.32595e-16
3.7563e-14
8.18344e-17
8.80157e-15
9.35309e-14
1.86998e-13
8.28867e-15
3.14622e-15
1.11454e-14
3.68573e-14
9.09445e-15
8.28425e-14
4.78435e-15
2.22922e-14
1.19554e-14
2.43372e-15
1.09633e-06
7.58256e-14
3.01919e-14
3.84757e-14
8.73301e-15
9.46437e-08
6.76998e-16
6.97964e-14
5.51156e-15
2.09625e-15
5.29971e-15
1.25493e-14
1.17173e-14
2.15623e-14
3.18626e-14
1.78667e-15
4.18858e-15
9.79696e-16
4.78239e-15
6.83241e-14
4.11367e-10
6.0866e-15
3.24674e-13
1.7336e-05
7.30675e-15
9.87495e-14
2.13741e-10
1.36383e-14
2.69133e-15
1.34409e-15
1.41141e-13
9.17532e-15
3.53565e-14
3.59246e-14
3.7854e-09
7.27215e-14
1.78125e-14
2.50067e-08
2.18615e-14
9.01285e-05
3.04856e-14
2.2147e-14
1.15167e-14
2.94389e-13
1.80217e-14
2.29745e-14
2.13927e-13
4.95403e-15
2.71742e-14
2.22129e-14
4.61007e-15
4.34066e-15
4.02015e-15
1.03712e-13
3.89375e-14
9.15509e-09
1.43972e-15
2.83648e-14
9.04708e-14
6.54646e-15
1.00641e-14
8.95913e-14
4.51692e-15
3.05347e-14
7.40809e-14
1.65266e-14
5.36309e-15
2.35687e-15
3.17815e-14
8.35061e-15
1.36861e-14
6.88415e-15
1.07907e-14
1.03468e-12
1.0143e-14
1.61607e-14
3.53938e-14
9.58834e-16
4.91042e-14
3.41481e-13
3.1491e-15
1.95739e-15
4.00034e-05
2.67029e-16
1.2786e-13
4.67097e-14
3.1485e-14
3.55966e-14
5.00975e-15
2.63532e-15
4.44329e-15
2.39018e-13
4.39072e-15
2.90864e-16
7.38912e-16
7.34259e-15
3.8122e-14
6.52512e-14
1.05405e-15
6.15957e-06
1.24475e-13
3.76611e-14
2.53031e-13
7.28278e-14
4.20695e-15
1.15166e-13
3.89206e-14
3.13497e-15
1.26035e-13
1.78167e-14
7.14515e-15
1.3589e-14
7.0334e-15
1.25917e-13
1.3656e-14
7.58701e-15
1.44075e-13
6.48321e-16
1.1846e-14
2.29813e-15
1.18817e-13
1.35323e-14
9.29142e-14
6.74132e-15
9.47221e-14
3.73911e-16
1.1303e-13
9.07527e-14
1.50235e-14
3.16182e-08
1.73337e-15
1.27118e-06
1.06936e-15
6.79674e-05
1.84686e-14
9.33642e-14
3.86456e-15
1.48094e-09
9.0014e-14
1.45748e-14
6.69208e-15
5.73394e-14
1.64473e-13
3.68673e-15
8.51484e-16
6.0366e-15
4.68921e-15
6.3973e-10
1.63063e-14
9.8948e-07
1.01962e-14
9.19773e-15
7.419e-15
4.32572e-14
2.07703e-15
9.61074e-15
3.01279e-14
1.00712e-14
4.45334e-15
6.43991e-15
9.52538e-14
2.02871e-14
5.8785e-14
1.15448e-14
2.50033e-14
2.71397e-14
5.24568e-15
4.09181e-15
3.71768e-14
2.30651e-14
3.23492e-14
6.4594e-14
1.81842e-15
4.22219e-16
1.37546e-14
8.66802e-15
4.35322e-15
6.05607e-14
1.91417e-14
8.05502e-05
8.42774e-15
3.94336e-15
1.58061e-14
3.63039e-14
8.38492e-15
3.39265e-15
2.51698e-14
3.45508e-14
1.19484e-14
7.54643e-14
1.4848e-11
1.43837e-15
5.54907e-14
1.67054e-15
8.99115e-06
1.83332e-14
5.02698e-14
2.98349e-15
1.6688e-15
1.29208e-14
2.27446e-14
1.60246e-15
3.78457e-15
2.19801e-15
4.33062e-15
2.6105e-16
7.82351e-15
1.47632e-14
1.76984e-15
9.21813e-16
3.07822e-15
5.57632e-13
3.10294e-14
4.08358e-13
6.17027e-15
1.04572e-13
1.49969e-14
1.00487e-15
9.17143e-15
1.89542e-05
5.63765e-16
2.96344e-16
1.47168e-08
9.82493e-14
2.91298e-15
1.22599e-15
4.07485e-15
6.40905e-15
3.37356e-14
1.35504e-14
5.14532e-15
5.65631e-14
2.23198e-08
1.15469e-09
2.26011e-14
1.48255e-15
3.66648e-14
2.0635e-15
5.42531e-14
2.21275e-15
6.29888e-15
7.05291e-10
7.14518e-16
5.54035e-15
2.19911e-14
4.40783e-15
5.3947e-13
5.4983e-14
4.79296e-14
3.4045e-12
6.02361e-15
8.35433e-14
1.5616e-14
1.84438e-13
2.32991e-14
1.29324e-14
1.02002e-14
2.11401e-15
1.4445e-14
1.69847e-15
5.82815e-05
7.65575e-14
1.05033e-14
1.65172e-13
6.91386e-15
9.3819e-14
4.27146e-16
1.99328e-14
8.36959e-15
1.52173e-15
1.28447e-14
4.31901e-14
5.86953e-14
3.15442e-15
7.06928e-15
8.89892e-15
1.2443e-16
3.06434e-09
5.76465e-11
5.89578e-15
9.28509e-14
4.44297e-14
4.81596e-15
6.91565e-14
7.47571e-15
6.38797e-14
4.01571e-16
1.12665e-14
1.02336e-11
1.15412e-11
5.80644e-15
8.86852e-15
2.96664e-15
5.92856e-14
1.62243e-14
5.20269e-14
1.64371e-14
2.85129e-14
1.41344e-14
4.79527e-15
5.25741e-16
8.09008e-14
4.02543e-13
3.02288e-14
2.02764e-14
4.60191e-10
3.25405e-09
7.72585e-14
9.19479e-12
4.99309e-15
4.34005e-15
9.309e-16
1.05243e-13
0.000162903
1.73402e-13
2.05883e-05
1.71687e-14
1.35302e-14
7.4289e-13
5.84376e-15
7.21659e-17
5.58607e-14
3.69314e-14
2.49646e-14
1.17093e-14
4.13097e-14
2.92599e-13
3.27766e-14
4.98632e-14
7.6002e-15
1.91457e-11
3.8494e-15
9.81562e-16
1.73978e-14
3.14541e-14
4.87276e-15
5.19563e-12
1.72429e-15
4.14254e-15
7.52108e-15
6.51075e-14
6.82133e-14
5.71849e-15
1.13119e-14
8.76916e-16
8.78498e-15
3.81815e-14
1.38246e-14
8.57002e-15
4.83003e-14
4.2086e-13
9.87343e-11
1.70887e-14
5.57805e-15
3.44111e-14
8.00419e-14
2.33573e-16
6.23119e-15
1.21354e-14
5.34241e-15
1.46057e-14
4.47575e-15
1.90698e-14
6.46959e-14
5.13608e-14
1.29348e-13
1.22201e-14
1.16846e-14
5.66072e-14
1.67735e-15
2.0394e-10
7.63799e-16
2.6051e-15
2.57262e-11
7.51142e-15
1.3725e-14
1.46618e-15
9.59243e-14
1.75158e-15
1.03492e-14
8.13705e-14
3.0428e-15
9.20088e-14
1.90676e-06
1.53543e-14
7.24951e-16
2.96698e-14
7.04121e-17
6.38508e-15
1.09745e-06
0.000107141
1.02074e-14
3.16951e-14
1.61745e-15
1.32772e-16
1.74252e-14
1.95442e-16
1.64517e-14
1.76816e-12
2.66785e-14
2.49575e-14
4.45072e-16
1.04999e-14
1.2303e-13
3.58841e-14
3.12761e-15
3.17405e-14
8.10259e-14
2.86301e-14
1.07156e-12
1.23129e-13
1.36625e-13
4.36073e-14
1.47673e-14
7.77109e-14
1.35696e-14
7.61381e-14
1.76354e-14
3.75617e-14
1.61481e-13
1.05128e-14
4.11321e-14
3.71449e-14
8.21974e-14
2.36038e-15
7.28791e-14
2.16793e-15
6.92215e-05
1.65553e-15
4.66079e-16
3.70878e-15
2.70828e-16
1.72087e-15
2.6844e-15
1.88345e-14
8.18248e-16
9.62183e-15
3.0344e-15
3.95407e-14
1.95525e-14
1.43329e-14
1.47542e-15
1.46567e-13
1.88837e-14
5.09169e-15
1.1281e-14
3.47997e-14
4.00279e-15
4.16971e-15
4.56882e-14
1.96989e-14
1.23735e-15
7.87147e-15
1.02828e-15
1.93776e-15
3.15151e-05
2.88328e-11
6.80944e-17
7.6628e-14
9.72325e-15
3.30838e-14
1.78463e-15
1.64151e-14
5.07274e-14
2.48668e-06
2.64773e-16
1.17061e-09
1.90049e-16
1.45674e-14
2.37132e-15
2.77719e-14
4.39349e-14
2.32175e-14
1.54116e-14
4.59975e-16
1.39192e-14
1.52793e-05
1.9354e-13
2.24195e-14
1.33255e-14
1.31332e-14
4.18696e-14
1.42194e-12
1.35609e-15
1.59881e-14
1.01108e-14
2.33268e-14
1.23025e-14
6.71871e-16
1.24777e-15
4.27697e-15
1.62099e-14
3.15373e-15
1.13793e-14
4.75448e-15
1.46359e-13
6.14863e-14
7.32661e-15
4.68982e-14
1.51476e-13
5.12027e-15
2.10553e-14
1.93063e-16
2.54503e-15
2.69997e-15
3.06814e-14
5.30608e-14
2.50178e-14
5.65821e-15
1.50024e-15
5.49489e-14
8.30631e-16
9.43881e-09
5.23336e-16
3.79848e-14
6.6116e-15
1.90538e-14
6.46708e-14
2.2846e-15
2.56328e-14
1.6138e-15
5.08929e-15
1.00417e-14
1.74659e-15
6.60557e-15
9.50621e-16
5.06928e-15
2.44142e-14
4.04974e-14
4.39603e-13
3.9133e-16
9.63995e-16
1.09596e-13
8.26202e-15
6.31057e-15
3.44276e-15
1.04364e-14
1.19539e-14
1.5258e-14
1.67758e-14
7.57138e-15
3.14026e-14
7.5542e-15
9.82852e-15
1.21946e-14
2.03411e-15
1.24404e-14
1.02902e-14
2.8521e-14
3.43354e-09
8.53063e-14
2.40229e-14
1.96419e-14
1.30364e-15
4.06822e-14
3.03775e-13
2.04478e-14
1.00092e-13
6.16876e-14
4.31107e-09
2.55539e-13
3.7852e-10
3.39123e-15
3.9587e-15
1.23514e-14
2.00174e-14
1.02665e-13
1.68414e-15
2.0877e-13
1.77488e-16
2.09664e-14
2.15677e-14
4.70176e-14
1.60206e-13
1.81276e-15
1.32295e-08
1.58077e-16
1.43723e-13
4.22436e-14
7.83071e-15
4.11189e-14
2.26676e-14
6.0043e-14
7.28026e-15
2.16796e-14
3.66543e-14
4.77238e-15
2.19405e-13
1.34902e-14
3.05403e-14
2.49839e-14
7.3894e-16
4.4965e-14
8.58756e-15
2.849e-13
5.20123e-15
8.5345e-06
1.27987e-09
3.28379e-14
4.19363e-15
2.11862e-14
2.00271e-14
8.91696e-14
2.6476e-15
3.87588e-14
2.50472e-15
2.40322e-15
5.35115e-07
6.24069e-06
2.57724e-14
3.55315e-14
8.89649e-17
1.57492e-14
2.58127e-15
3.62709e-14
4.20444e-14
3.10273e-15
7.30013e-14
1.36586e-05
2.00663e-15
5.35305e-16
1.43822e-14
1.22957e-06
4.41443e-07
4.79555e-15
8.01305e-16
2.62568e-14
8.33596e-15
3.68031e-15
4.29076e-13
1.29613e-13
7.47914e-14
5.55451e-15
4.47726e-15
9.7793e-14
3.11609e-14
8.5156e-15
7.03988e-10
6.41503e-14
1.99009e-14
5.57431e-15
8.77858e-13
2.17665e-14
7.66487e-14
4.96335e-14
7.00692e-05
1.02476e-13
1.22993e-15
1.36993e-13
4.07931e-14
2.33224e-14
1.64903e-14
5.63336e-16
8.80623e-15
6.77037e-14
6.28258e-14
3.2437e-14
6.42098e-15
1.2538e-14
1.50705e-14
2.11316e-14
3.66681e-15
6.88966e-14
3.46204e-16
7.62717e-15
2.29299e-13
5.39421e-14
6.09434e-15
6.07622e-15
2.59e-15
2.93019e-15
1.45965e-14
2.78418e-14
3.98952e-16
9.51718e-14
8.00141e-07
3.78083e-15
5.52734e-15
3.01009e-14
1.06663e-13
4.23574e-15
1.09337e-12
1.03076e-05
9.23906e-16
3.1863e-14
3.24987e-14
3.47934e-14
2.78251e-14
4.36168e-15
1.16698e-14
2.07033e-14
1.87917e-13
2.56593e-15
1.53177e-14
2.80394e-14
8.3426e-16
1.47708e-14
1.08033e-07
1.4804e-14
5.23639e-14
4.2079e-16
1.09391e-11
1.3063e-14
1.11816e-14
1.002e-14
9.9601e-15
3.01933e-08
7.0945e-15
2.32984e-14
2.42732e-15
3.87043e-15
1.36333e-14
1.16781e-14
5.31372e-15
5.16289e-14
8.51881e-16
2.47924e-15
4.5347e-15
1.0267e-14
3.83781e-13
1.0683e-14
1.62304e-06
7.35304e-14
1.70173e-09
2.59871e-14
3.66469e-11
1.22937e-15
5.09676e-13
1.18713e-14
1.00817e-14
1.43833e-15
1.11781e-13
1.62744e-13
2.75293e-15
9.32911e-15
1.91009e-14
4.89187e-14
1.65272e-12
7.37559e-14
1.24201e-13
1.26949e-09
9.40108e-10
6.09163e-15
4.76284e-14
3.97229e-14
4.1104e-05
2.34808e-14
6.64792e-15
7.56839e-14
2.47149e-14
3.35642e-15
1.43681e-14
3.50563e-15
4.0637e-14
1.06452e-15
8.53614e-16
4.19571e-15
8.22693e-09
2.95572e-15
2.82853e-14
3.52181e-08
2.44695e-15
1.78777e-14
5.26104e-15
1.43962e-14
1.58939e-14
1.28194e-14
2.73413e-13
3.74457e-15
4.93352e-14
4.3517e-15
1.37781e-14
4.80145e-13
1.6198e-07
6.37025e-15
2.82796e-14
5.32363e-15
2.68463e-15
2.03944e-14
2.11417e-15
2.01908e-14
4.69302e-15
1.75087e-13
3.86195e-15
7.87169e-15
1.37412e-09
7.79782e-15
9.60797e-14
2.33719e-14
2.99255e-06
0.00027315
3.81183e-14
2.82963e-15
1.44392e-14
9.57363e-05
5.61572e-06
2.05404e-14
2.01502e-14
9.84009e-15
2.41274e-14
4.11916e-14
7.85961e-14
6.23233e-10
1.15568e-14
5.88757e-12
3.58481e-14
3.97803e-14
3.74729e-15
2.48665e-14
4.88347e-14
8.0914e-16
5.5585e-15
6.82745e-14
2.269e-14
2.58772e-14
1.35084e-14
4.64784e-13
1.22735e-15
1.36274e-13
4.81968e-15
1.68147e-13
1.2537e-13
2.92292e-13
7.79984e-15
1.88735e-14
1.39063e-13
3.18447e-15
1.04085e-13
1.01647e-14
2.10497e-14
2.29582e-10
1.17935e-14
7.12506e-15
3.53852e-16
6.63862e-14
9.91733e-15
7.31886e-16
7.49264e-16
2.36653e-14
2.40026e-13
1.09791e-13
9.78918e-15
6.67643e-15
4.33107e-06
9.7414e-16
4.66104e-15
3.46712e-14
6.15853e-14
1.1139e-13
2.24419e-14
1.41825e-14
2.04981e-14
8.73293e-15
7.5763e-14
2.16941e-13
3.04501e-13
6.1996e-15
1.84974e-14
5.3357e-13
2.61368e-13
3.72473e-15
5.50124e-15
1.09402e-13
7.23818e-14
1.45595e-13
2.17595e-15
2.02532e-14
8.0689e-15
7.19832e-16
4.41438e-14
3.31404e-08
3.66199e-14
4.38989e-13
6.70458e-15
7.1329e-15
1.69574e-14
3.89709e-14
6.06055e-15
1.07355e-14
5.56748e-15
2.38816e-14
5.19e-14