/*--------------------------------*- C++ -*----------------------------------*\
  =========                 |
  \\      /  F ield         | OpenFOAM: The Open Source CFD Toolbox
   \\    /   O peration     | Website:  https://openfoam.org
    \\  /    A nd           | Version:  10
     \\/     M anipulation  |
\*---------------------------------------------------------------------------*/
FoamFile
{
    format      ascii;
    class       volVectorField;
    location    "1.2";
    object      U;
}
// * * * * * * * * * * * * * * * * * * * * * * * * * * * * * * * * * * * * * //

dimensions      [0 1 -1 0 0 0 0];

internalField   nonuniform List<vector> 
111485
(
(0.986617 -0.981746 0.00466114)
(2.7537 0.00013864 -0.00813288)
(2.76287 0.00855581 0.00363047)
(0.976685 -0.984148 -0.000423716)
(2.76558 -0.00675353 -0.00026288)
(0.984341 0.975505 0.00216546)
(2.76121 0.00138008 -0.00853551)
(2.77333 0.00285221 0.00166407)
(2.76212 0.00331545 0.00384954)
(2.75669 0.00416078 0.00813568)
(2.77786 -0.00422886 0.00646996)
(2.76749 -0.0010496 0.00368913)
(2.77159 0.00385639 0.0155567)
(2.74657 -0.00895557 -0.00707206)
(2.76815 -0.00457687 0.00450557)
(2.74782 0.00824921 -0.0127126)
(2.75404 0.014889 0.0168953)
(0.979543 -0.0578283 0.170348)
(2.76898 0.00353799 0.000967813)
(0.977463 -0.969508 1.41378e-05)
(0.976851 -0.965443 0.0138685)
(0.974841 0.978904 0.00845851)
(2.76522 0.00146561 -0.00244676)
(2.76004 -0.00690657 0.000307764)
(2.74189 -0.00217932 -0.00906979)
(0.979423 -0.986152 -0.00583196)
(2.77531 0.00396707 0.0044376)
(2.76862 -0.00177251 -0.0147188)
(2.77451 -0.00461657 0.00752511)
(0.975941 -0.983401 0.0129985)
(2.75534 0.00987321 -0.0139308)
(2.75297 0.00174172 0.00648543)
(0.977046 -0.974881 0.00315325)
(0.988476 0.97401 0.00919128)
(1.02292 0.408201 0.184197)
(0.98242 0.992012 -0.0167142)
(2.76532 -0.000397935 -0.00182184)
(2.7592 0.00629 0.0126666)
(2.8573 0.861703 0.0600821)
(2.7591 -0.00137411 0.00559227)
(0.956207 0.975094 -0.0305078)
(2.76385 0.00579489 -0.0112236)
(2.76461 0.00450053 0.0015392)
(2.76314 0.0069993 2.91718e-05)
(2.86244 -0.0342848 -0.0249104)
(0.982246 -0.985617 -0.0176167)
(2.76826 -0.00134203 0.00363969)
(2.76542 -0.0023934 0.0018064)
(2.75965 -0.0102307 -0.0137294)
(0.961305 -0.951977 -0.00533167)
(0.983323 -0.975988 0.00416234)
(1.12622 0.939734 0.0211235)
(0.980574 -0.980363 0.0129049)
(2.77477 0.00986603 0.00250918)
(0.966405 -0.972024 0.00425861)
(2.77108 0.00371288 -0.008825)
(2.76475 -0.000911435 0.00550411)
(0.965505 0.994684 0.0085751)
(2.76495 -0.00837308 0.00198937)
(2.76056 -0.000679705 -0.00431615)
(2.76312 0.000538959 -0.00650755)
(0.978623 -0.979848 -0.00268617)
(2.7534 -0.0103999 -0.00667082)
(2.76964 0.00660421 -0.00355989)
(1.02173 0.91876 -0.00221157)
(2.76861 -0.000873882 -0.000164866)
(2.03225 -0.217002 0.0361716)
(2.76218 0.00984544 -0.000315725)
(2.75459 -0.00315965 -0.00876234)
(2.76672 -0.00532596 -0.00157099)
(2.76512 0.03546 -0.0280056)
(2.75296 -0.000820486 0.0104356)
(1.04506 -0.956282 -0.00963163)
(2.7471 -0.0125583 -0.00834859)
(0.969795 -0.983094 -0.00444586)
(2.77582 0.00237072 0.00957181)
(0.975068 0.971401 -0.0107071)
(2.76945 -0.00131123 -0.00457942)
(0.9735 0.986961 0.00440157)
(0.877977 0.843537 -0.0313248)
(2.74867 -0.0176993 0.0149576)
(2.74701 0.00112825 0.00437841)
(0.976214 0.982535 -0.00864923)
(0.981366 -0.979888 -0.000401357)
(2.77316 -0.00198292 -0.000772575)
(2.77756 0.00707777 0.00105764)
(2.23324 1.4295 -0.377471)
(2.77099 -0.00165274 -0.00509683)
(2.72258 0.0504485 0.0183303)
(2.76255 -0.0104107 -0.00632833)
(2.88728 0.0286391 -0.0302226)
(2.76405 0.00298292 -0.00410847)
(2.7744 -0.00251769 -0.0147964)
(2.75712 0.011334 0.00178737)
(2.76104 -0.0060021 0.0085054)
(0.975531 -0.972055 -0.001533)
(0.961539 -0.965959 0.0074341)
(2.76793 -0.000418718 -0.00804119)
(2.89327 -0.61899 0.0267283)
(2.76668 0.00415838 -0.00501541)
(0.977663 -0.975098 0.014303)
(2.77191 0.0110513 -0.0174385)
(0.984258 0.999291 0.00373754)
(2.77369 0.00188776 -0.00243924)
(2.75699 0.0132043 0.00214946)
(0.9697 0.847576 -0.0203754)
(0.985686 0.980514 -0.00373058)
(2.74977 -0.00456657 0.000874599)
(2.78705 -0.00132435 -0.00581719)
(2.57527 -0.0709174 -0.0432873)
(2.77065 0.00583277 0.00848004)
(2.76007 0.00111345 0.00243873)
(2.76998 -0.0089669 0.00023972)
(2.76234 0.00144964 0.00765869)
(0.991893 -0.987549 0.00172043)
(2.76435 0.00227155 -0.000663202)
(0.98143 -0.978869 -0.0064385)
(0.983521 0.979505 0.00632935)
(2.76418 -0.00846847 0.00083387)
(0.985398 -0.991504 -0.00408287)
(0.979264 -0.983731 -0.00168907)
(1.30683 1.01236 0.0642785)
(0.949781 0.966547 0.00134707)
(0.984216 0.976878 -0.00448143)
(2.75612 0.0079144 0.00203139)
(0.777379 -0.587788 -0.141573)
(1.25977 1.06654 0.0401518)
(2.75891 -0.00203074 -0.00600242)
(0.988939 -0.980662 -0.0110205)
(2.85225 0.174731 -0.0819096)
(2.75062 0.00842731 -0.0167873)
(2.76704 -0.0102577 -0.00275848)
(0.961209 -0.944825 0.00113978)
(1.2665 1.10607 0.108495)
(1.18622 1.06225 0.0444841)
(2.7701 0.00396589 -0.0042975)
(0.98809 0.973333 -0.00421389)
(2.76276 0.00540885 -0.00777459)
(2.76687 0.00432208 -0.00527068)
(2.76292 -0.00502489 -0.0145479)
(2.75525 0.00573908 0.00728828)
(2.76509 -0.00813126 -0.00235595)
(2.76022 0.00734807 -0.00161217)
(2.76645 -0.00965151 0.00476593)
(2.76698 0.00922767 0.00679312)
(2.76169 -0.00762026 -0.00507347)
(0.980323 0.988475 -0.0019121)
(0.980465 -0.985909 0.00709439)
(0.974098 0.974996 0.00316627)
(2.76542 0.0024806 0.00328808)
(2.76647 -0.0109865 0.00333025)
(0.973266 -0.970924 -0.00630892)
(2.68779 0.0280219 -0.000265525)
(2.76618 -0.00146035 0.00575749)
(3.01003 0.0754005 0.0300269)
(2.76882 0.00542742 -0.00376361)
(2.76026 -0.00928128 0.00586022)
(2.74374 0.00294907 0.00943269)
(2.99721 0.0901825 0.000515346)
(0.977998 -0.980951 0.00737859)
(0.969063 -0.974185 -0.00482025)
(2.76173 0.00419213 -0.00420603)
(2.75331 -0.0100965 -0.000750259)
(3.0215 0.106578 0.0350411)
(2.97722 0.0909187 0.0531556)
(2.74361 -0.0204873 -0.0053463)
(2.76813 -0.00186921 0.00407018)
(0.962042 0.976767 0.00100628)
(3.06538 0.141934 0.0268747)
(2.93244 0.102675 0.0526109)
(0.982795 0.971617 0.0142824)
(0.974052 -0.972004 0.00658727)
(2.74094 0.00346664 0.00930508)
(0.980777 0.981757 0.00630939)
(2.76956 -0.00491001 -0.00680482)
(2.77999 -0.00193547 -0.00243766)
(0.978895 0.954612 -0.00641518)
(1.04911 -0.970725 0.0138288)
(0.976578 -0.974627 -0.00164318)
(0.970119 0.910246 -0.00682042)
(1.0536 -0.972128 0.0275111)
(0.969908 -0.982127 0.00356926)
(2.77192 -0.00296987 -0.0028288)
(2.76081 0.00453261 -0.000452908)
(2.75841 0.00587883 0.00311048)
(2.74419 -0.00140378 -0.0088452)
(2.77432 0.00053705 0.00325197)
(2.75886 0.00389797 -0.00539478)
(2.76465 -0.0110173 0.00224735)
(0.978895 -0.978736 0.000920811)
(2.75622 -0.0122045 -0.00270953)
(1.05239 -0.969872 0.0129501)
(0.983816 -0.982112 0.00552395)
(2.75365 0.000465814 0.00174976)
(2.75575 0.00114499 0.00478412)
(2.77387 0.00536303 -0.00361367)
(2.75943 0.0039241 -0.0034063)
(2.75836 0.0108505 0.0103957)
(0.967871 -0.967989 0.00790241)
(2.77331 -0.00245166 0.0115619)
(2.76536 -0.00334217 0.00822104)
(1.89874 0.582789 0.102366)
(2.76513 0.00826755 0.00399451)
(2.77074 0.00185874 0.00578975)
(0.977394 -0.986484 -0.00982773)
(2.75899 -0.00383071 -0.00291281)
(2.76844 0.0112461 -0.00805036)
(1.05903 -0.963613 -0.00161441)
(2.76706 -0.00410163 0.000289222)
(2.77327 0.00145431 -0.00780636)
(2.76618 -0.0093969 0.00654028)
(2.7515 0.00320846 -0.00947677)
(1.06278 -0.979794 0.0207756)
(0.968488 -0.971564 -0.00764258)
(2.74994 -0.00322526 0.000578812)
(1.75795 1.0819 -0.076998)
(2.76511 0.00427693 0.00302606)
(0.981211 0.976794 -0.00777014)
(2.75442 -0.000265372 -0.00461663)
(2.7575 -0.000932564 -0.00703689)
(2.76973 0.0117199 -0.00275034)
(0.981905 -0.97108 0.0102604)
(2.76805 -0.000388267 -0.00518106)
(2.7671 -0.0165058 0.000792273)
(1.54261 1.01755 -0.0908061)
(0.981206 0.978052 0.00660936)
(0.980653 0.98011 0.0125557)
(2.83613 0.00795555 0.0183694)
(2.73596 0.0337196 0.00976801)
(1.00996 0.873104 -0.0221854)
(1.22237 -0.954765 0.0293343)
(2.75309 -0.00639865 -0.00657618)
(2.77265 -0.00656232 0.00130871)
(2.76508 0.00379695 0.0075603)
(1.02253 0.868751 -0.0150325)
(1.03198 -0.956437 -0.00864058)
(2.75241 -0.00572392 0.0150409)
(0.972446 -0.977088 0.0072769)
(2.77569 -0.000420229 0.000192963)
(2.76711 -0.00058437 0.00268868)
(2.7645 -0.00134097 -0.00285408)
(2.76807 -0.000382846 0.00133639)
(2.76731 -0.00307383 0.00341589)
(0.978019 0.980344 0.0136445)
(2.59286 0.00945804 -0.0188325)
(2.76625 0.00365775 0.000677438)
(0.974312 0.980518 -0.0187126)
(0.97796 0.99313 -0.00764392)
(2.75993 -0.0024616 -0.000582886)
(2.7484 0.0079734 0.00180103)
(0.996138 0.860188 -0.0322967)
(2.76862 -0.00788186 0.00473999)
(2.76201 0.000851062 0.000366423)
(0.978804 -0.981084 -0.00346555)
(1.22663 1.17545 -0.00102431)
(2.75497 0.0055024 -0.00337857)
(0.982843 -0.972263 -0.00838577)
(1.06266 -0.777218 -0.0479922)
(1.44812 -0.523356 -0.0287107)
(0.986603 -0.980422 -0.00521311)
(2.77212 -0.00278282 -1.47703e-05)
(2.74335 0.00181504 -0.00470365)
(2.76434 0.000959985 -0.00893923)
(0.979905 -0.97669 -0.00643139)
(2.773 -0.00919389 0.00356032)
(0.989416 -0.984337 -0.0132317)
(0.981909 -0.984476 0.00632735)
(0.975133 -0.975987 0.00324847)
(2.72264 -0.00606366 -0.0165279)
(2.76392 -0.00280414 -0.00153108)
(2.74816 0.00741716 -0.000941486)
(2.76542 6.59244e-05 -0.00165634)
(2.75862 -0.00233798 -0.0122958)
(2.769 0.00428244 -0.00505512)
(2.76578 0.000895331 -0.00190154)
(2.80236 -0.00585367 0.00819296)
(2.76276 0.004821 -0.00746954)
(2.77543 -0.0068885 0.000472607)
(1.00193 0.980581 0.00161879)
(0.961702 -0.978403 0.00679503)
(2.52606 0.00508563 -0.0186561)
(2.77257 -0.0025177 0.00644156)
(2.77148 0.00139857 0.0200604)
(2.77113 -0.00518569 -0.00292052)
(0.975277 -0.981678 0.0161747)
(2.74735 0.00564799 -0.00193644)
(2.74789 0.00452688 -0.00502833)
(2.77163 0.00123868 0.000307855)
(2.74354 0.00569888 -0.00106859)
(2.69147 -0.0220232 -0.0247389)
(2.76756 -0.000175275 0.000811977)
(2.76944 0.00247183 0.000663826)
(2.76047 -0.000613548 0.00187516)
(0.972552 0.985181 0.0233358)
(2.77257 -0.00104804 0.00397422)
(0.978873 0.980638 0.00512596)
(0.803615 0.585373 -0.135485)
(1.08964 -0.743415 -0.0458837)
(2.85498 -0.0137957 0.0257936)
(2.76263 -0.00479731 -0.00820627)
(2.74538 1.59968e-05 -0.0072552)
(0.972971 -0.978969 -0.00465469)
(0.976049 0.975835 -0.00129151)
(2.7557 -0.00334554 -0.00433624)
(2.75062 -0.00346854 -0.00542669)
(0.980443 -0.978827 -0.00899522)
(0.97738 -0.983181 0.0114196)
(0.964737 -0.95778 0.000599704)
(2.76162 -0.00107179 0.000794565)
(2.77579 0.00141422 -0.00284303)
(2.77057 0.0020285 -0.000293935)
(2.77421 0.00563466 0.00078691)
(2.76741 0.0059325 -0.00429192)
(1.13552 0.969017 0.00429139)
(0.979377 0.976701 -0.00111512)
(0.979733 -0.976398 -0.000137279)
(2.76483 -0.00334489 0.00318406)
(1.88101 -1.57283 -0.0974032)
(2.74913 0.00244441 0.00430526)
(2.8177 -0.00359662 0.0181703)
(2.75375 -0.0092877 0.0179394)
(0.973208 0.997392 0.00381855)
(0.983159 -0.979175 -0.00258372)
(0.970577 -0.965114 -0.00212077)
(1.24289 1.0245 0.0752508)
(2.75519 -0.0114549 0.000230699)
(2.76965 -0.00451833 -1.99803e-05)
(0.980735 0.986004 -0.000556451)
(2.77289 -1.80959e-05 -0.0191946)
(1.03248 0.809147 0.0411768)
(0.980541 -0.953194 0.0183256)
(2.7692 0.00258615 0.000112819)
(2.76554 -0.00254956 -0.00353115)
(2.75805 -0.01012 0.00960097)
(2.77083 0.00474816 -0.0216482)
(0.960121 0.826539 0.0429303)
(1.24358 1.0532 0.0734786)
(0.988278 0.974304 3.34068e-05)
(2.76238 -0.00417331 0.0020434)
(2.77445 0.00969657 0.00866004)
(2.77421 0.0208498 -0.00606411)
(0.98128 0.954811 0.00262322)
(1.9639 1.74277 -0.427271)
(2.74963 -0.0131525 0.0244615)
(2.76344 0.00117377 -0.00741881)
(2.75773 0.010044 0.00301945)
(2.6818 0.238937 -0.0104378)
(2.76518 0.00480895 -0.000560417)
(0.985473 0.978909 0.00672523)
(2.7702 -0.00429996 0.00923442)
(2.77176 0.00648411 -0.0039026)
(2.7945 -0.0244915 -0.00495505)
(2.76577 0.000525526 0.00142803)
(2.75367 -0.00224128 -0.000696138)
(0.971132 0.985937 0.00676424)
(0.969513 -0.977351 -0.000848618)
(0.987091 0.963906 0.0116083)
(0.979107 -0.968229 -0.00737552)
(2.76578 -0.00530467 0.00318749)
(2.75332 -0.000612239 0.0025427)
(2.77068 -0.00821838 -0.00650669)
(2.77052 -0.00784343 -0.00058338)
(0.967461 0.977513 0.0059948)
(2.75664 -0.00371652 0.00215726)
(0.975279 0.978999 0.0141649)
(0.978161 -0.981142 -0.00347177)
(2.76931 -0.00437677 -0.00457377)
(0.922166 -0.905117 0.00504995)
(1.60574 -0.339024 -0.027105)
(0.965084 -0.960986 -0.0110055)
(0.97886 0.977355 0.00997045)
(2.77692 0.00514543 -0.00210498)
(0.974174 0.967276 -0.0015096)
(2.77184 0.00348099 -0.000906977)
(2.77152 0.00581633 -0.000541743)
(0.986189 0.988442 0.00126003)
(2.76296 0.00162804 -0.000345577)
(2.76366 0.00468271 -0.00969067)
(0.995461 0.868097 -0.0229399)
(2.76572 4.69023e-05 0.00853258)
(2.76932 -0.00592644 -0.00468606)
(2.76138 -0.0082701 0.00508684)
(2.75821 -0.008748 0.00171705)
(2.76301 0.00433176 0.00942824)
(2.76233 -0.000599484 0.0123733)
(0.96529 0.814372 0.000871985)
(0.98335 -0.957748 -0.00710634)
(2.74395 0.00276874 0.00233482)
(0.976629 0.96157 0.000457393)
(2.75901 0.0110194 0.0025707)
(2.77374 6.31786e-05 0.00842851)
(0.985961 0.938993 0.00559908)
(0.974299 0.986219 -0.0070437)
(2.74728 0.00207042 0.00512799)
(2.75351 -0.0121692 0.0127107)
(2.76249 0.00962491 -0.00533059)
(2.75111 0.0111913 -0.00251585)
(0.981439 0.981507 0.00682079)
(2.78373 0.0116481 -0.00182587)
(2.77231 0.00761086 -0.00360997)
(0.985661 0.981062 -0.0046806)
(2.76812 0.0242444 0.0263957)
(2.76686 0.000585283 0.000745)
(0.984998 -0.971314 -0.00204918)
(0.984444 -0.95857 -0.0195989)
(2.76492 0.00462697 -0.000621557)
(2.76846 -0.000562031 -0.00799399)
(0.986596 0.984145 -0.00184659)
(0.96915 -0.989381 -0.00871474)
(1.68264 -0.940477 0.211293)
(0.978939 -0.980721 0.00244258)
(2.77093 0.00400722 -0.00260672)
(0.98166 0.973743 -0.00854089)
(0.968654 -0.978214 0.000473043)
(2.75874 -0.00401074 -0.00177493)
(2.73999 -0.0146529 0.000614638)
(2.75941 -0.00413598 -0.00618758)
(2.76756 -0.0136533 -0.00321471)
(0.986421 0.980091 0.00576027)
(1.25343 0.970393 0.0460629)
(2.74759 0.000905245 0.00355662)
(1.19961 1.04302 0.061341)
(2.7692 -0.00479764 0.00110813)
(2.75303 0.0213045 -0.00368793)
(2.76809 -0.0121174 -0.00559678)
(1.99503 0.065007 0.0776456)
(1.16662 1.01898 0.0598525)
(2.77912 -0.00206386 -0.0341081)
(2.85954 0.0722543 -0.00191048)
(0.983458 -0.978726 0.00303375)
(2.75544 0.00910472 -0.00637059)
(2.76227 -0.000967087 0.00155141)
(0.984277 -0.9755 0.00358805)
(2.80707 0.16223 -0.0698173)
(2.76177 0.00435584 -0.000719485)
(1.22234 0.963957 0.050132)
(2.76879 -0.00274757 -0.00415145)
(2.78079 0.00072596 0.00232636)
(2.7525 0.00293386 -0.00356366)
(0.988964 0.964844 0.00167759)
(2.74404 -0.00987611 0.0186277)
(2.76083 0.00393192 -0.00502173)
(2.73375 0.016006 -0.00247899)
(2.2977 -0.0147982 0.0262614)
(1.21882 1.12604 -0.0288846)
(2.01816 -0.0389703 0.037364)
(0.985039 -0.990502 0.00781902)
(2.71 -0.0203294 -0.0025333)
(2.73017 -0.00993602 -0.0303843)
(0.986954 0.978914 -0.00473561)
(2.76744 0.00847058 -0.0110029)
(2.74828 -0.00871149 -0.00040322)
(1.29928 1.13036 -0.0154017)
(0.974879 -0.977549 -0.00639115)
(1.13734 -0.968168 0.0249343)
(0.976971 -0.978378 0.00289546)
(2.71459 0.0197778 -0.0149231)
(2.7634 0.00442742 -0.00618142)
(2.77132 0.00203331 0.0044359)
(2.77468 -0.00734179 0.0039747)
(2.767 -0.00105134 -0.00390193)
(0.980015 0.970759 -0.000654979)
(2.76891 0.00315535 0.00735837)
(0.98003 -0.965562 0.00272311)
(2.76011 -0.00589657 0.00303803)
(0.978106 0.983572 0.0103239)
(0.972718 -0.978952 0.00327751)
(0.965243 -0.955214 -0.00752189)
(2.76514 0.00686959 -0.000505025)
(0.968075 -0.984713 0.00527761)
(0.982233 -0.984807 0.0044731)
(0.979722 0.604324 -0.0480718)
(0.98876 -0.979964 0.00451467)
(0.959286 0.9713 -0.000955863)
(2.77573 -0.00179942 -0.0061771)
(0.970493 0.970615 -0.00739134)
(1.16634 0.862011 -0.0112712)
(0.983727 0.973612 0.00179232)
(0.971281 -0.967337 -0.00181435)
(0.991843 0.974905 -0.0141806)
(0.978989 -0.964216 0.000576018)
(0.975169 0.977244 -0.00287962)
(2.77156 0.00266024 0.00563537)
(0.985087 0.982224 0.00198013)
(2.73687 -0.00124562 -0.00100914)
(2.77347 0.00405424 0.00245093)
(2.86273 -0.0415693 -0.00392585)
(0.964134 0.976812 0.000795604)
(2.75078 0.00576814 -0.0061826)
(0.981624 0.982198 -0.000506351)
(0.984625 -0.968835 -0.00502462)
(2.74452 -0.00406757 -0.00808914)
(2.75229 -0.00105504 -0.00305387)
(2.76116 -0.000303166 -0.000499063)
(2.82395 0.00535192 0.000279226)
(1.12196 0.927007 -0.0174928)
(2.7648 0.00109278 -4.18937e-05)
(2.76608 -0.00115866 -0.00311629)
(2.76577 -0.00898096 0.000899248)
(2.77043 0.00499401 -0.0164638)
(2.73417 -0.00686585 0.00991042)
(0.981224 -0.981213 0.00080501)
(2.75874 0.00372193 0.00507359)
(1.30195 1.13741 -0.00227814)
(2.77765 0.00276026 -0.004599)
(0.972309 0.967067 -0.00815158)
(2.76263 0.00186915 0.00757372)
(1.26687 1.05787 0.00837821)
(2.76928 -0.000586329 0.00357356)
(2.76709 0.0030395 -0.00064931)
(1.12686 -0.586481 -0.0120821)
(0.968529 0.974501 0.00393702)
(2.77269 0.00433057 0.00708193)
(0.972895 -0.976184 -0.00396308)
(2.76925 -0.00198857 -0.00417664)
(2.76872 0.00167396 -0.000455521)
(0.970736 0.977655 -0.0170081)
(0.961313 0.980325 -0.0065522)
(0.966969 0.836957 -0.0240791)
(0.97551 0.984485 -0.00648867)
(2.18553 -0.0968744 0.0644736)
(2.76782 -0.00170154 0.0103238)
(0.985336 0.962213 -0.00048077)
(0.973759 0.974936 0.000228674)
(2.75947 0.00109769 -0.00209389)
(0.97389 0.986311 -0.00915292)
(2.76726 0.00534812 -0.00035768)
(0.977534 0.987298 0.0133328)
(2.77078 0.00630795 -0.00682471)
(0.978737 -0.978683 0.00153912)
(2.75803 -0.0176237 0.0132852)
(2.76663 0.00743011 0.000874719)
(2.7679 -0.0109037 -0.000478868)
(2.76401 0.00411713 -0.00124559)
(0.988136 0.973056 0.00862144)
(2.76676 0.00521645 -0.00521063)
(0.987117 0.985851 0.00146441)
(0.984526 0.973202 -0.00251197)
(2.77179 0.00616541 0.00938367)
(0.980672 0.978076 -0.00247659)
(2.74864 -0.00147627 0.0031275)
(0.949668 0.880252 -0.0208735)
(2.77088 -0.000717694 -0.0016429)
(0.975983 -0.962296 0.00290994)
(2.76131 0.0277173 0.0165109)
(0.978937 -0.971423 -0.0137638)
(1.19082 1.04619 0.0224238)
(2.85871 0.0992566 -0.0201003)
(2.75316 0.000722277 0.00384136)
(2.77725 -0.00438901 -0.0105843)
(2.75075 -0.00198567 -0.00698122)
(2.77472 3.49639e-05 -0.00145256)
(2.76497 0.00122245 -0.00278685)
(0.973482 0.989103 -0.00979246)
(2.76796 0.00298321 0.00365712)
(2.75232 0.00335856 0.00281076)
(0.985001 0.988689 -0.00507362)
(2.57015 -0.0412765 -0.0441051)
(2.77721 0.00235253 0.00166204)
(2.76595 -0.00397143 0.00130559)
(0.965644 0.95251 -0.00617727)
(1.20963 0.239002 -0.209535)
(2.7691 0.00798672 -0.00162571)
(2.76253 -0.015933 0.0066219)
(2.28824 0.582558 0.00176527)
(1.253 -0.677555 -0.0496538)
(2.75969 -0.00802543 -0.00919043)
(2.7687 -0.0139562 0.000211607)
(2.73953 0.000266563 -0.00503441)
(2.77076 0.00773014 -0.0223583)
(2.7309 0.023584 -4.20673e-05)
(2.47706 0.308304 -0.00888265)
(1.22709 1.01872 0.00633901)
(2.57078 -0.04132 0.0248756)
(2.44503 -0.192828 0.0304183)
(0.975025 -0.979535 -0.00559524)
(2.77724 -0.00459963 -0.00294685)
(0.984687 0.978756 -0.0147155)
(1.14084 1.05421 0.0148385)
(2.7672 0.00911835 0.00136504)
(2.50431 0.369379 0.0127901)
(2.98661 -0.204538 -0.0485277)
(2.71991 -0.470435 -0.0114756)
(1.16433 1.11513 -0.101359)
(2.75071 -0.00356089 -0.0302735)
(2.75717 0.00393122 0.00136727)
(0.972108 0.966133 -0.00320448)
(1.26633 0.669341 -0.0454057)
(2.76101 -0.00151746 0.00779205)
(0.98688 -0.984512 -0.00454582)
(0.97067 0.964918 -0.00311468)
(0.972579 0.978338 0.0026733)
(0.977903 0.972429 -0.00017916)
(2.74649 -0.0155564 0.00834981)
(0.971209 0.972032 -0.00451903)
(0.981159 -0.980931 -0.0021179)
(2.77068 0.012829 -0.0048952)
(2.75926 0.00427393 0.00479584)
(1.42558 -1.26212 -0.0737643)
(2.74249 -0.00138803 0.00694765)
(1.16079 0.89935 0.0238398)
(2.75836 -0.00377219 -0.00700385)
(0.948101 -0.964882 -0.0113877)
(0.977927 0.979085 -0.0102899)
(2.76214 0.00308937 -0.0151595)
(0.972995 0.974472 0.00640259)
(0.968486 0.968748 0.00131264)
(1.12113 1.087 0.0329323)
(2.75614 -0.00624499 0.00271768)
(1.64751 1.36337 -0.183907)
(2.76916 0.00859894 -0.00533221)
(2.77552 -7.64981e-05 -0.00393779)
(0.972386 -0.964426 0.000906883)
(2.90139 0.0159427 0.0596069)
(2.75873 0.0115064 -0.0100581)
(2.76305 -0.0022766 -0.0101604)
(2.74726 -0.0133064 -0.0107869)
(2.8239 0.0243768 -0.0570394)
(2.74448 -0.00838296 0.00949865)
(0.986288 0.986886 0.0103156)
(2.75986 -0.00135387 -0.000468423)
(2.77099 0.000135996 0.0072259)
(0.972024 -0.983734 -0.00780742)
(2.75771 0.00278111 -0.00132441)
(2.75663 -0.00268289 0.010267)
(2.76538 -0.00783885 -0.00830519)
(2.74901 -0.0102526 -0.0199404)
(2.76998 0.00418517 -0.000271315)
(2.75947 0.00336351 -0.00462372)
(0.968356 -0.962515 0.00998731)
(2.76858 0.00265823 0.00155961)
(2.76354 -0.0030092 0.00753052)
(1.17986 1.03432 0.0582797)
(2.77329 -0.0086864 -0.00430703)
(2.77274 -0.0096902 -0.0111363)
(1.6215 1.2965 -0.200885)
(2.77077 -0.000943241 -0.000310134)
(2.77759 -0.00789182 -0.00151907)
(2.76624 -0.00282018 -0.0130319)
(2.77401 0.00539255 -0.00901608)
(2.76068 -0.00353454 -0.00339003)
(2.76783 0.000444787 -0.0112287)
(0.961825 0.933629 -0.00917405)
(2.76932 0.00421406 0.00832968)
(2.76298 -0.00848702 0.00823472)
(1.11224 -0.666899 0.00688267)
(2.753 0.00264546 -0.00189233)
(2.75927 -0.00306527 -0.000996206)
(2.76321 -0.00107863 0.00346335)
(0.97504 0.96836 0.00132881)
(2.75776 0.00726664 -0.0248771)
(0.989094 -0.976697 0.0106577)
(0.981602 0.965086 -0.00722788)
(0.965386 0.976062 0.000728635)
(0.984256 0.979666 0.0052443)
(2.76241 -0.00110531 0.00544533)
(1.19131 1.00967 0.0557879)
(2.44595 -0.107443 0.0817535)
(0.960817 -0.980349 -0.00662333)
(0.968595 0.992093 -0.00863837)
(2.7644 -0.00352315 0.00939349)
(2.77148 6.35913e-05 -0.00184238)
(0.97651 -0.979217 0.0032131)
(2.76597 0.00133851 0.00018412)
(0.981692 -0.974982 0.00769166)
(0.980665 -0.980195 0.00161888)
(0.964837 -0.974878 0.00378883)
(2.75517 -0.004146 -0.00838112)
(2.7662 0.00661203 0.000822794)
(1.17191 1.03486 -0.0111461)
(0.984704 -0.976639 -0.00289913)
(0.973253 0.986218 -0.00548804)
(0.987331 0.984794 -0.00237896)
(2.76591 0.00994933 -0.00660525)
(2.76417 0.00564739 0.000743552)
(1.16436 1.09231 0.0525304)
(2.77059 -0.00559022 0.000122656)
(2.68105 -0.0407218 -0.096317)
(0.973038 0.9772 0.016127)
(2.76969 -0.000911851 -0.0066394)
(2.75935 -0.00145338 0.00077933)
(2.74411 0.0154867 0.00245385)
(0.963553 0.974914 0.00839413)
(0.971647 0.967284 0.00570318)
(2.7657 -0.00378769 -0.00132544)
(2.7717 -0.00152157 -0.00692654)
(1.16974 1.05088 0.00706768)
(0.983977 0.976674 0.00548873)
(0.983352 0.955558 -0.00729882)
(2.75831 -0.0139993 -0.00505037)
(0.988941 -0.985295 -0.00336615)
(0.971975 -0.985827 -0.00612567)
(0.967362 0.978755 0.00815329)
(2.77187 0.0015036 -0.00279072)
(2.76465 -0.00538938 -0.00389458)
(0.97198 0.976131 -0.00244164)
(1.12706 0.260499 0.208786)
(1.21363 -0.15391 -0.0181756)
(2.73927 0.0254276 0.00282659)
(0.986478 0.993923 0.000906907)
(0.983475 0.976563 9.96148e-05)
(2.75368 -0.00233449 -0.00513546)
(2.76477 -0.00297734 0.00173685)
(1.19244 1.04409 0.0501367)
(1.73357 0.567791 0.000949475)
(2.72591 0.0583508 0.0901071)
(2.76778 0.00411176 0.00409276)
(2.77629 -0.00296202 0.00523483)
(1.02302 0.944138 0.0114533)
(2.76908 0.00394522 -0.0019476)
(2.77674 -0.000621189 0.0036965)
(0.975542 0.969453 -0.00880918)
(0.961855 -0.970099 -0.000194862)
(0.97616 0.973081 -0.00484795)
(0.973799 0.971504 0.00450861)
(0.976084 0.982309 0.00315495)
(0.984943 0.970217 -0.0107345)
(2.77339 -0.00250464 0.00881337)
(0.97099 -0.977316 0.0143155)
(0.968862 0.973106 0.00435907)
(0.964015 0.967645 0.0122932)
(2.77414 -0.00414369 0.0060048)
(2.7731 -0.00272903 0.000561966)
(0.987149 -0.971771 0.0102817)
(0.969877 -0.9524 0.00167574)
(2.758 0.0118195 0.00813293)
(2.75761 0.000297721 -0.00383644)
(2.75912 0.00376655 -0.000434823)
(0.973283 -0.969478 0.0132359)
(0.965414 0.991057 -0.00385137)
(2.76238 0.00268524 -0.00451789)
(0.983111 -0.976249 0.00367944)
(2.76232 0.00486439 0.00316421)
(2.7577 -0.00142353 0.00841028)
(2.75749 0.00496195 0.0015175)
(0.97543 -0.967873 -0.000663533)
(0.97411 -0.990357 0.0152651)
(0.982799 -0.982022 -0.000395127)
(0.980566 0.999155 0.00350989)
(2.77014 0.00030586 -0.00112104)
(0.985562 0.988481 0.0107463)
(0.971589 0.970745 -0.000312977)
(2.76478 -0.00205384 0.000536004)
(0.975939 -0.974 0.00672617)
(2.76864 0.00818698 -0.00186737)
(2.76638 0.0021169 0.000804517)
(0.988101 0.952761 0.00474237)
(2.7714 -0.00437949 0.00223388)
(1.3101 0.13585 -0.0233997)
(2.76867 0.00837696 -0.00887447)
(2.75341 -0.00498335 -0.00414692)
(2.76703 0.00229421 -0.00433476)
(2.7669 -0.00660554 -0.00630229)
(2.23468 -0.00695892 -0.0701007)
(1.1769 0.925139 0.021725)
(2.7681 0.00964854 -0.0082868)
(2.76549 -0.00204133 -0.00383779)
(2.77832 0.00190029 -0.00312091)
(0.993909 0.870744 -0.0358482)
(1.60717 0.0748316 -0.0608182)
(1.53204 -0.17473 0.0263668)
(2.76775 -0.00387257 -0.010462)
(0.981854 0.975227 -0.000456502)
(2.76836 -0.00389415 -0.000892239)
(2.77439 -0.00915345 0.00206687)
(2.76685 0.00481586 0.00277673)
(1.04755 -0.772256 -0.0412722)
(0.983838 -0.986861 0.00281467)
(0.974031 -0.978538 -0.00642723)
(2.76914 -0.00102642 0.00225553)
(1.11485 0.92824 -0.00877213)
(2.78033 0.00512815 -0.00934113)
(1.04758 0.97042 -0.00578592)
(2.76165 0.000574551 0.0129719)
(2.77066 0.0112859 0.00532351)
(2.76807 0.00604657 0.000789516)
(2.78199 -0.00271792 -0.0149345)
(0.962991 0.973089 -0.0035387)
(0.963869 0.96221 0.00023589)
(1.06802 -0.951759 -0.0139181)
(2.76943 -0.00559905 0.00120399)
(0.988713 0.985716 -0.002505)
(1.13025 0.973895 -0.0510579)
(2.85663 0.0662416 -0.0431742)
(0.983095 0.97717 -0.0109055)
(0.967717 0.962854 0.0129884)
(0.97971 -0.97564 -0.00458948)
(0.979234 0.984027 0.0172305)
(2.76745 0.00591921 0.00236569)
(1.00138 0.94702 -0.0038115)
(0.986818 0.980911 -0.0057309)
(2.3459 0.339671 -0.193892)
(1.14696 0.91709 0.00245122)
(0.971369 0.970924 0.00547953)
(1.38608 -0.829288 0.0254011)
(0.98658 0.979321 0.00291792)
(2.7543 1.56179e-05 0.00900722)
(2.76827 0.00905511 0.00489244)
(0.97355 -0.965471 -0.00671308)
(2.7646 -0.00472349 0.00260997)
(2.69267 0.40811 -0.0410447)
(2.76519 -0.000197423 0.00856636)
(2.91323 0.0757228 0.0149214)
(2.772 -0.00244038 -0.00234473)
(0.985935 0.979228 -0.0115047)
(2.75889 0.00973565 -0.00795015)
(2.7575 0.00166479 -0.00598496)
(2.75787 0.00729529 0.00820794)
(0.981178 -0.963993 -0.0117008)
(2.92567 0.76866 0.204666)
(2.77636 0.00448134 -0.0106352)
(1.33561 1.03741 -0.066861)
(2.76714 -0.0141406 -0.0045975)
(2.81078 -0.00872279 -0.00784975)
(2.84496 -0.00258421 0.00174518)
(2.76692 0.0061509 -0.0086602)
(2.77571 0.00902431 0.00198254)
(2.85551 -0.00239398 -0.0224743)
(2.77149 -0.00529177 -0.0114569)
(2.7605 -0.00427896 -0.00098149)
(0.969097 0.969948 0.0051192)
(0.977892 0.961641 0.00210699)
(2.77202 -0.00175396 -0.0084244)
(2.7686 -0.00911616 0.00905495)
(0.984314 0.977053 -0.0158219)
(2.76766 0.00282834 -0.00275199)
(2.75541 -0.00193352 0.0119359)
(2.75457 -0.00278228 0.000848985)
(0.98257 0.967738 -0.00249185)
(2.81203 0.00893237 0.00767442)
(0.980477 0.973739 -0.00282059)
(2.75636 -0.00785648 0.0196684)
(2.7555 0.000649308 0.00564145)
(0.982085 0.980547 -0.00518075)
(2.72903 0.0196664 -0.0291738)
(2.74067 0.00142873 0.0169288)
(2.80684 -0.00664752 0.0127931)
(2.77377 -0.0121852 0.0145319)
(1.01196 0.983723 -0.00519978)
(2.77424 0.00876668 0.0038494)
(2.83197 0.00807395 0.0035953)
(2.91813 -0.0663394 0.0145901)
(2.67317 0.00426531 0.0238595)
(2.75671 0.001029 -0.00160769)
(0.980212 0.984517 0.00214683)
(0.984255 0.982843 0.0105372)
(2.76929 -0.00284095 -0.00541232)
(0.971232 0.978285 0.00252864)
(2.74837 0.000721979 -0.0107172)
(2.76522 0.00467806 -0.0117123)
(1.66824 0.18682 -0.0294879)
(3.02247 -0.173913 0.0666879)
(2.69552 -0.0988363 0.0462197)
(2.98496 -0.0992669 0.0110785)
(0.971589 0.9834 0.00339282)
(1.31091 1.11467 0.00955502)
(2.77576 0.000436307 -0.0217445)
(0.974237 -0.973895 -0.0106734)
(0.547131 -0.38868 0.143858)
(2.74058 0.0110236 -0.00269966)
(0.979492 0.971458 -0.00500207)
(0.982388 0.974739 -0.00455846)
(2.52738 -0.0398428 0.00349144)
(2.21552 -0.112783 0.0446417)
(0.966107 0.971658 0.00907092)
(2.69583 -0.0140604 -0.0046477)
(0.968901 0.964813 0.0146771)
(0.97937 0.983221 -0.00552489)
(0.977172 -0.994698 0.00450041)
(0.974919 -0.973821 -0.00157058)
(0.969983 -0.966381 -0.012072)
(0.985403 -0.97615 -0.00612844)
(2.77053 -0.00605368 -0.0047654)
(0.963003 0.971484 0.00965643)
(0.983517 0.98119 0.00271643)
(0.97232 0.975592 0.00527145)
(2.37158 -0.524764 -0.142593)
(2.76147 -0.00212677 -0.00741208)
(2.75671 0.00690574 0.000689964)
(2.77482 -0.0136224 -0.0119825)
(0.968951 0.962555 -0.00339088)
(1.0004 0.968901 -0.00760141)
(2.74062 -0.00488751 -0.000324216)
(0.975995 0.975882 -0.0103937)
(0.98516 0.969535 -0.00947053)
(1.58622 0.88823 0.0379864)
(2.75683 -0.0018098 -0.00325458)
(2.76418 0.0106468 0.00037273)
(0.979683 0.978506 0.00190854)
(0.98999 0.970813 0.0077342)
(0.976096 0.973006 -0.00365081)
(0.986888 0.978487 0.00121021)
(0.991097 0.978329 0.0127164)
(0.976051 0.986501 -0.00291853)
(2.7529 -0.00213273 0.00381303)
(0.983206 0.975007 -0.00294126)
(2.27215 0.024162 0.0443145)
(2.7703 0.000592333 0.00458236)
(0.98158 0.987512 -0.00149457)
(0.972905 -0.977963 0.00599733)
(0.967578 -0.964152 -0.00077978)
(2.50108 0.0418172 0.106006)
(0.951305 -0.956091 -0.00911049)
(0.972952 -0.977015 -0.0106102)
(0.976313 0.973756 -0.0145229)
(2.69465 -0.00128912 -0.0140792)
(0.969894 0.981632 -0.00563797)
(2.77427 0.0047672 0.00278988)
(2.7618 -0.00434155 -0.000142406)
(2.30781 0.00476255 0.0617835)
(0.96808 0.975059 -0.00146753)
(1.93835 -0.519396 0.0495331)
(2.77845 -0.00415114 0.00770653)
(2.77254 -0.00228298 -0.0042188)
(1.0324 -0.992711 -0.0172106)
(2.79373 -0.00778694 -0.00535283)
(2.76738 -0.00325823 0.0135232)
(0.975174 -0.965917 0.0090971)
(1.01803 0.954029 -0.00373338)
(1.3291 -1.05973 -0.0865895)
(0.968427 0.993004 -0.0146352)
(2.76696 0.00135677 0.0011449)