/*--------------------------------*- C++ -*----------------------------------*\
  =========                 |
  \\      /  F ield         | OpenFOAM: The Open Source CFD Toolbox
   \\    /   O peration     | Website:  https://openfoam.org
    \\  /    A nd           | Version:  10
     \\/     M anipulation  |
\*---------------------------------------------------------------------------*/
FoamFile
{
    format      ascii;
    class       surfaceScalarField;
    location    "4.5";
    object      phi;
}
// * * * * * * * * * * * * * * * * * * * * * * * * * * * * * * * * * * * * * //

dimensions      [0 3 -1 0 0 0 0];

internalField   nonuniform List<scalar> 
214403
(
-0.0025375
0.00194489
0.000108048
0.000484566
-0.00120179
-0.00407619
0.000324992
0.00495299
-0.00376706
2.07141e-05
-4.9459e-05
0.0037958
0.00333626
-0.00223991
-0.00559314
0.0044968
0.00448307
-0.00566047
0.0013404
-0.000162997
-0.00195586
0.00203727
-2.07871e-05
-6.06228e-05
-0.000315125
-0.000598234
-0.00336205
0.00427541
-0.00614244
0.0035067
-0.000919647
0.00355539
-0.00856742
0.00603504
0.0061097
-0.00357733
0.00516939
0.000617645
-0.00580483
1.77857e-05
0.00185433
-0.00366784
0.00076256
0.00105095
-0.00376056
0.00116874
0.00195973
0.00063208
0.000172839
-0.00423797
0.00511501
-0.00104988
-0.00365422
0.00365631
-2.08997e-06
0.000706696
0.0043657
-0.00560506
0.000532665
-0.0043563
0.00363259
0.00109248
-0.000368772
-0.00442003
0.0043021
0.000117934
0.00145855
-1.82152e-05
-0.000352274
-0.00108806
0.00568386
-0.00339496
-0.00757009
0.0052812
-2.87103e-05
-0.0011746
3.38835e-05
0.00116943
0.00241914
-0.0023609
-5.82387e-05
-0.00448017
-0.00154959
0.00154098
0.00448879
-0.000836175
0.00496984
-0.00400155
-0.000132121
0.00244535
0.000244369
0.000844727
-0.00353444
-0.00377295
-0.00181411
0.00486693
0.000720142
0.00346024
-0.00438308
2.73974e-05
0.000895445
0.00116865
-0.00101272
0.00385276
-0.00400869
0.00285316
0.0037164
-0.00448252
-0.00208704
0.00406835
-0.002548
-0.000117289
-0.00140306
-0.00221133
0.00225538
-4.40478e-05
0.000892701
-0.00186584
0.00500094
-0.0040278
0.00505151
0.000242282
-0.000870958
-0.00442284
-0.0021239
-0.00218019
0.00223285
0.00207124
-0.000435013
-0.00245773
0.00217481
0.000717932
0.00161205
-0.00107124
-0.00346226
0.00292145
-0.000621475
0.00310275
-0.00112109
-0.00136018
0.00591709
-0.000150966
-0.00576613
-0.00250593
0.00492903
-0.0024231
0.000450094
-0.00542532
0.00315285
0.00182238
0.00088871
-0.000356981
0.00218982
-0.00272155
0.00207666
-1.84197e-05
-0.00205824
0.00374124
-8.49685e-05
0.000668097
-0.00432436
-0.00473006
0.000586929
0.00503184
0.000333362
0.000328221
0.0031852
-0.00384678
-0.00152913
-0.00993554
0.00964387
0.0018208
0.00215574
0.000390174
0.000486063
-0.00303198
0.00154627
0.00117541
-0.0037909
0.00106922
0.00484725
0.00289272
-0.00529463
0.000438292
0.00414473
-0.000841789
0.00068965
-0.00256566
-0.00151617
0.00339218
0.00117522
0.00180269
0.000533345
-0.00351125
0.000677591
-0.000509844
-0.0015563
0.00138856
0.00259609
-0.00469414
0.00327326
0.004368
-0.00411861
-0.00139814
0.00114875
0.00401906
-0.000733325
-0.00309494
0.00419506
-0.000168128
-0.000931993
0.00320316
-0.00410753
5.40984e-05
0.000850274
-0.00301379
0.00020084
0.00481475
-0.00200179
-0.005647
-0.00537247
0.0044786
0.00654088
-0.00297969
0.00299706
0.000586052
-0.000603419
0.000466278
-0.00380295
-0.00322788
-6.65361e-05
0.00167706
0.00161735
-0.00504822
0.002168
0.0032382
-0.000357981
0.00579379
-0.00466739
0.000285927
-0.00141232
0.000265553
0.000100757
-0.00377563
0.00340932
0.000215582
-0.0011042
0.00543815
-0.00454953
-0.0130538
0.00146127
0.0014338
0.0101587
-0.0011492
0.00342951
-0.00109005
-0.00119026
0.00177522
-0.000926592
-0.00379989
0.00295126
0.000428385
0.00278745
-0.0035202
0.000304365
-5.55318e-05
0.00314853
0.00108317
-0.00417617
-0.000641063
-0.000104436
-0.00137116
0.00211665
-0.00339733
0.00371085
-0.000138926
-0.00017459
0.000131428
-0.00340443
-0.00239573
0.00212347
0.000644247
-0.000371991
-0.00605162
-0.000384766
0.00294349
0.0034929
-0.00186008
-0.000791627
0.00158048
0.00107123
0.00274855
-0.00922001
0.00126371
0.00520775
-0.00142936
0.00287511
-0.00157106
0.000125307
0.00205156
-0.00159832
0.000204733
-0.00065798
5.44787e-05
-0.00392541
0.00387093
1.58519e-05
0.003167
-0.00318285
0.00276664
-0.000541738
0.000363665
-0.00258856
-0.00171241
0.00244293
0.000810649
-0.00154117
-0.00118801
0.0050934
-0.00122605
-0.00267934
0.00244261
-0.00419675
-0.00014114
0.00189529
0.00271764
0.00286398
-0.00558162
0.00399891
-0.00449854
0.00116072
-0.000661091
0.000382095
-0.000723335
0.00525271
-0.00491146
0.000165663
-0.000841376
0.00375352
-0.0030778
0.000931484
0.00789938
0.00224562
-0.0110765
-0.00682157
0.00599117
0.00389592
-0.00306553
0.000321693
0.00248637
-0.0033322
0.000524131
0.00328697
0.00363892
-0.00118399
-0.00574191
0.00593701
-0.00361929
-0.000100293
-0.00221742
0.000267091
-0.000782934
-0.00245821
0.00297405
-0.00249098
1.35747e-05
0.00247741
0.00363173
0.000121517
0.000245662
0.00454802
0.000387585
-0.00693145
0.00199584
-0.00367355
0.000795129
0.000647902
0.00223052
-0.0023487
0.000582861
0.000288202
0.00147764
0.000548477
0.000403206
-0.00473883
0.00378715
-0.000968387
-0.00563018
0.00358987
0.0030087
0.00227177
-0.00269505
-0.00175334
0.00217662
0.00365906
-2.14768e-05
-0.00365858
2.09954e-05
0.00279493
-0.00394196
-0.0013576
0.00250463
0.00722158
-0.00218703
-0.00112491
-0.00390964
0.00403535
-7.91908e-06
-0.00369938
-0.000328044
-0.0021709
0.00254567
0.0052738
-0.00564857
0.00451651
-0.00156199
-0.00435084
0.00139632
0.000852186
-0.00124673
0.00541521
-0.00502066
-0.00583966
0.00530937
0.00505022
-0.00451993
0.000275255
-0.00470738
0.00181389
0.00261823
0.00593057
-0.000306037
-0.000137869
-0.00548666
0.00415822
-0.000807113
0.000804645
-0.00415575
-0.00519882
-0.0047527
0.00561915
0.00433237
-0.000914917
0.00262592
0.000713346
-0.00242435
-0.00199149
0.000108648
0.00386063
-0.00197778
-0.000438091
0.00504061
-0.00467911
7.65935e-05
-0.00446913
0.00414928
0.000808314
-0.000488462
-0.000147476
-0.00260357
0.00621128
0.000802868
-0.00266042
-0.00195434
0.00381189
-0.00211364
2.76953e-05
0.00208594
0.000646433
0.00293972
-0.00271971
-0.000866452
0.00478179
-0.00275764
-0.000737872
-0.00128627
5.45991e-05
-0.00146906
0.00141446
-0.00265678
-0.000718751
0.00100317
0.00237237
0.000300951
0.00167468
-0.0037321
0.00175648
0.00594898
-0.000537781
0.00232309
-0.00773429
0.000416075
-0.000552493
-0.00703735
0.00717377
0.000446307
-0.00202629
-0.00266147
0.00424145
0.000165516
0.00366076
-0.000194539
1.34597e-05
-0.00220635
0.00219289
0.00443556
-0.00165018
-0.00198251
-0.00268608
0.00224048
-0.00221119
0.00485025
-0.00404371
-0.000495709
-0.000310831
0.000487778
-0.00230363
0.00100775
0.000808097
-0.0039152
-0.00119749
0.000804557
0.00430813
0.00331785
-0.00536014
0.00355021
-0.00150793
-0.000132038
0.00490448
-0.00490903
0.000136589
1.08185e-06
0.00479944
-0.00476193
-3.85947e-05
-0.00616344
0.00492745
-0.00395283
0.00518883
0.00514951
-0.00499743
-0.000152082
-0.00485627
0.00648107
-0.0011623
-0.000462491
-0.00428395
0.00104147
-0.000330843
0.00357332
-0.00699711
0.000525923
0.00450702
0.00196416
0.00123261
-0.00168418
0.000939351
-0.00176408
0.00200351
0.00322707
-0.0034665
-0.0018464
-0.000829563
0.00105647
0.00161949
-0.00251147
0.00164575
-0.00315655
0.00402227
0.000754202
6.62537e-05
-0.00567673
-0.00256281
0.00255589
6.91623e-06
0.00285287
-0.00275026
-0.000102608
-0.00412711
-0.000269095
-0.00109028
0.00101674
-0.00545646
0.00633302
-0.0018933
0.00242037
0.00413629
-0.00527092
-0.00128574
0.00459907
-0.00500799
0.000145256
0.000263661
0.00258144
0.000657221
-0.0026561
-0.000582561
-0.00394663
-0.000207461
0.00517083
0.00231774
-0.000167362
-0.00282479
0.000674407
0.00260845
-0.00223033
0.00256888
-0.002947
-0.0043757
0.000832994
0.00596307
-0.0015141
-0.00206951
0.00690621
-0.00332261
-0.0021458
-0.0023615
0.000560669
0.00062795
0.00170452
-0.00447827
-0.00318125
-0.000255264
0.00511097
-0.00167445
0.000468639
0.000780451
0.00269585
-0.00394494
-0.00142663
0.0034909
-0.00206427
0.00112201
-0.005498
0.00201449
0.00325822
0.00229227
-0.00492254
-0.00456689
5.68107e-05
0.00568809
-0.00117802
0.000799888
0.00068583
0.00214549
-0.00363121
0.00337306
-0.00338555
1.24947e-05
0.00115588
-0.000436918
0.00387651
-0.00459547
0.00402278
-0.00126685
0.0019279
-0.00468382
0.00772367
-0.00249476
0.00575406
-0.010983
0.00122353
0.00227056
-0.000944502
-0.00254959
-0.00349379
0.00143535
0.00183084
0.000227595
0.00252052
-0.00189917
-5.32497e-05
-0.000568101
-0.00157008
-0.0019813
0.00578151
-0.00223013
-0.00280407
0.0036503
0.00144958
-0.00229581
0.00423256
-0.000230214
-0.0013939
-0.00635419
0.00419657
-0.000353854
-0.00605468
0.00559816
0.00260269
-0.00214617
0.00386552
-0.00436231
-0.000622805
0.0011196
0.002162
-0.00393166
-0.00204167
-0.00228996
-0.00210479
0.00118749
0.00320726
-0.00330024
0.00103767
0.00327421
-0.00101164
0.00386491
-0.0036787
-0.00253933
0.00235312
2.39296e-05
-3.27678e-05
-0.00360963
0.00361847
0.000104348
-0.00330122
-0.000116996
0.00331387
-0.000908975
-0.00538889
0.000850874
-0.00312913
0.00281265
-0.000534398
-0.00210312
-0.000886544
-0.00031058
-4.54483e-05
0.00516413
5.07135e-05
-0.0124332
0.00874944
0.00633917
-0.00265539
-0.00373489
0.000256965
0.000123137
0.00335479
-0.000739006
0.0116422
-0.013715
0.00281175
0.000595253
0.000918406
-0.00206177
0.000548111
-0.00799602
0.00430488
0.000572923
0.00311822
-8.57032e-05
-0.00525585
-0.000763458
0.00610501
-0.00211927
0.00789139
-0.00548231
-0.000289813
0.0035553
0.00515474
-0.0047711
-0.00393894
-0.00414906
0.00396017
0.00490269
-0.00471379
0.00167715
0.00234234
-0.00291846
-0.00110103
0.00165946
-0.00110768
-0.00265489
-0.00835627
-0.000324902
0.00681097
0.0018702
0.00250628
0.000392171
-0.00146309
0.00253765
0.00341554
-0.00314665
-0.00280654
-0.00418673
0.000935111
0.00407518
-0.000823561
0.000485864
0.00135038
0.00464482
-0.00496347
0.00487994
0.000469712
-0.000386184
0.00306541
0.00241573
-0.00217701
-8.51223e-05
-0.000614047
0.00287618
-0.00325133
-0.000674465
0.00180193
-0.00615749
0.00260992
0.00174564
0.000175886
0.00333342
-0.00368757
0.000178261
-0.00127148
0.00024644
-0.00118136
0.0022064
0.00523639
-0.00374511
0.00016818
-0.002966
-0.00233111
0.00313787
0.00215923
0.0109812
-0.0117799
0.00387762
-0.00307901
-0.00217746
0.00270557
0.00108863
-0.00161674
-0.00526104
0.00226289
0.00457498
-0.00157683
-0.00211453
0.00306688
0.00394125
-0.0048936
0.00587599
-0.00225129
-0.00389357
0.000268868
0.000101242
-0.00141847
0.00344755
-0.00213033
-0.000599007
0.000589754
-0.00455764
0.00426139
0.00136879
-0.00456611
-0.00106407
0.00537277
-0.00440789
-0.00117235
0.00110264
0.00162323
-0.00386088
0.00113501
-0.0022613
-0.00409261
0.00366329
0.00269062
-0.000675984
-0.00176501
-0.000525011
0.00215054
-0.00228218
0.00491803
-0.0047864
0.000526753
-0.00597245
0.0054457
0.00203382
-0.00267476
0.00174358
0.00115001
0.00066809
0.000942409
-0.00276051
-0.000118449
-0.00508528
0.00520373
-0.00282423
0.000374934
-0.000917021
0.00336632
-0.000356925
0.00396564
-0.00359592
-1.27904e-05
-0.00264464
-0.00142566
0.00154525
0.00252506
-0.000969465
-0.00235116
-0.00215656
-0.00317235
0.0026492
0.00267971
0.000122079
-0.0032481
0.00548111
-0.00225189
-0.00029222
-0.002937
0.00304838
-0.000311417
-0.00222014
-0.00051683
-0.000447215
0.00410479
-0.0051445
0.00148692
0.00264304
0.000101535
0.00128658
-0.00403115
-9.68106e-05
-0.00217123
0.0010492
0.00121884
-0.00153439
0.00199103
0.00381753
-0.00427417
-0.00531291
-0.0013811
-0.00149219
0.0049071
-0.00493345
0.000129597
0.00153708
0.00326678
0.000453651
-0.00166018
-0.00289386
0.00410039
-0.00216567
-0.00422872
0.00106701
0.00532739
-0.00192206
-0.00212561
0.0022137
0.00183397
-0.00499446
0.00480766
0.00508289
-0.0048961
-0.000688271
-0.00120731
-0.00364271
0.0055383
-0.00499238
0.000488207
0.00507631
-0.000572132
-0.00088316
0.00231425
-0.00143109
-0.00202098
0.00373458
-0.00281179
0.00109819
-7.54988e-05
0.0064986
-0.0024374
-0.00398571
-0.00238507
-0.00117917
0.00478427
-0.00122003
0.00074309
-0.00195295
0.00441309
-0.00320323
0.000211485
0.00299458
-0.000524544
1.28963e-06
-0.00474485
0.00474245
1.11569e-06
0.00559648
-0.000993276
-0.00818159
0.00357839
-0.00517219
-0.000504625
0.00645601
-0.000779196
-0.00280846
0.00424391
0.000347501
-0.00178295
0.00256941
-0.00255366
-1.57481e-05
-0.00291289
0.000292702
-0.00249035
0.00511054
-0.00421528
0.00581007
-0.00118611
-0.000408683
0.00261301
-0.00108878
-0.00315232
0.00162808
-0.00505261
0.00508183
-2.92168e-05
0.00417203
-0.00605821
0.000485628
0.00140055
-0.00465278
-0.00127721
0.00797396
-0.00204397
0.00351444
-0.000156495
-0.000731397
-0.00262655
-0.00197374
-0.00334231
0.00746659
-0.000342983
-0.00489742
0.00295822
0.00773836
-0.00862939
-0.000824467
0.00171549
0.0021551
0.00102746
-0.00238267
-0.00235173
0.00243938
-8.7646e-05
-0.000871919
0.00489185
-0.000320237
-0.0036997
-0.00108315
0.00128677
0.00434286
-0.00454648
0.00290091
0.00684631
-0.00395728
-0.00578994
0.00499929
-0.00599368
0.0019058
-0.000911407
0.00438139
4.68101e-05
-0.0044282
7.22058e-05
0.00427741
-0.00434961
0.00485035
-0.00585955
0.00518123
4.2965e-05
-3.22004e-05
0.00400746
-0.00401823
7.20478e-05
0.00695712
-0.00693958
-8.95967e-05
-0.000574906
-0.00171337
-0.00349932
0.0057876
-0.0021671
-0.0012781
0.000431146
0.00411292
-0.00713923
0.00259517
-0.00340777
-0.000893173
0.00365311
0.000647834
-0.0042042
0.0046345
-0.00123865
0.000808351
0.000634393
0.00330243
-0.00112371
-0.0028131
-0.00157664
0.000374352
0.00271053
-0.00150824
-4.19779e-06
0.00125202
-0.00159589
0.000348069
-0.00173916
0.00425235
-0.00246156
-5.16387e-05
0.00124896
-0.00398883
-0.00231274
3.12163e-05
-0.00371825
0.00368703
-0.00142183
-0.00136245
0.000632135
0.00215213
0.0020638
-0.00119069
-0.000873105
0.00512965
-0.0051086
-0.0010288
0.00100774
-0.000487557
-0.00316134
0.00292819
0.000720712
-1.3696e-05
1.79517e-05
0.00287437
-0.00287862
0.00143014
-0.00117673
-0.00454754
0.00429413
0.00331341
-8.68386e-05
-0.00322657
-0.00485413
-0.00315299
0.00468176
0.00332536
0.00273239
0.00425181
-0.00732718
0.00265941
-0.000948329
0.00149418
-0.00320526
-0.00108477
0.001083
-0.00603327
0.00603504
0.00161128
-0.00318448
-0.00308649
0.00465969
-0.000330463
-0.000738332
0.00346004
-0.00239124
0.00240336
-0.00295334
0.00107065
-0.000520673
0.00136361
-0.00226269
-0.00218609
0.00308517
-0.00424565
0.00477456
-0.00125772
0.000728806
0.00496639
0.00638181
-0.00702742
-0.00432077
-0.00386203
0.00384663
1.54009e-05
-0.000448762
0.00448007
-0.00558643
0.00155513
0.000158566
-0.000257729
-0.00438266
0.00448183
0.00416806
0.000175641
-0.00479593
0.00045223
-0.00184727
-0.00312053
0.00392418
0.00104362
-0.00445675
0.00631069
-0.00223566
0.000381714
-0.00177481
-0.00218326
0.00129765
-0.000252812
-5.10989e-05
-0.00302828
0.00333219
-0.00998003
4.86823e-05
0.000867653
0.0090637
0.000395509
-0.0025384
-0.00131369
0.00345658
0.00619822
-0.00051702
-0.00200771
-0.00367349
-0.00109973
-0.00240322
0.000452053
0.00305089
0.00182303
-5.40674e-06
-0.00181763
0.00297214
0.00156161
-0.000991382
-0.00354237
0.00226998
-0.00179503
0.00445399
-0.00492894
0.000135755
0.00468021
-0.00154037
-0.00327559
0.00111478
0.00161118
0.00347225
-0.00223889
0.000163276
0.00207561
-0.00291183
0.000418272
0.000769874
0.000485488
-0.00400654
0.00275117
-0.00376588
0.00551885
0.00166109
0.00569224
-0.00119656
-0.00615676
-0.00369998
0.00360694
-0.00573546
0.0058285
-0.000546948
-0.00274712
0.00095995
0.00233412
-0.00305912
0.00577677
0.00174008
-0.00202124
0.000455775
-0.000174608
-0.00187687
-0.0059591
0.0018578
0.00597817
0.00388651
-0.00387274
-5.11832e-05
3.74206e-05
0.00319548
-0.00375397
0.00079627
-0.000237774
0.000803861
0.00317648
-0.00565805
0.0016777
1.43422e-05
0.00273565
-0.00274999
0.00177414
-0.00453683
0.00356656
-0.00173429
0.00465224
0.00394425
-0.00686219
0.00129822
-0.00135536
-0.00625044
0.00630759
-0.00187194
0.00310092
-0.00626299
0.00503401
-0.00447518
0.00355767
0.00464677
-0.00372927
-0.00278261
0.0038142
-0.00246528
0.00143368
-0.000606872
0.00264997
0.000430039
-0.00247314
0.00129464
-0.00188981
0.0019493
-0.00135413
0.00253712
0.000945653
0.000833973
-0.00431675
0.00693534
-0.00470038
-0.000302672
-0.00193229
5.00905e-06
-0.0033464
0.00334139
0.00212741
-0.00311302
-0.00955538
0.010541
-0.000437266
-0.00459366
-0.00138309
0.00641402
-0.000280335
-0.00211808
0.00239842
0.000647876
0.00306475
-0.000505061
-0.00320757
-0.000851425
-0.00307929
0.00248253
0.00144818
0.00246577
-0.00206644
-0.00362721
0.00606162
-0.00472475
0.00139403
0.00147605
-0.00287007
0.00467301
8.14436e-06
-0.000544735
-0.00413641
-0.000912729
-0.0015535
0.00246623
0.00163909
0.00109005
0.0091915
-0.0110596
-0.0038832
0.0057513
0.00140621
0.00300071
-0.00229347
-0.00211344
-0.00319767
0.00615557
0.00405281
-0.00701071
0.00372126
0.00128919
-0.000489792
-0.00452066
0.00597904
-0.00398941
0.00257151
-0.00456114
-0.00349103
0.00159867
-0.00445505
0.0063474
-0.00550994
0.0098341
-0.00384238
-0.000481774
-0.000162216
-0.00232577
-0.00320075
0.00568874
0.00446867
0.00185207
-0.00522291
-0.00109782
0.00246793
-0.00656476
0.00412466
-2.78354e-05
-0.00560802
-0.000213266
0.00366195
0.00215934
-0.00114579
0.00296227
0.00128179
-0.00309827
-0.000703531
0.00282227
0.00228125
-0.00439998
-0.00606537
0.00310716
-0.0002687
0.0032269
0.000523417
-0.00157847
0.00313956
-0.00208451
0.00256483
-0.00129006
0.000915379
-0.00219015
0.00245198
0.000479629
0.000239417
-0.00317102
-0.00353488
0.00379577
0.00140449
-0.00166538
-0.000847462
0.00451972
8.36137e-05
-0.00375587
0.0036573
-0.00214403
-0.00140825
-0.000105016
0.00314127
2.14348e-05
-0.0031627
0.00228463
0.00176843
-0.000401999
-0.00365106
0.00107059
0.00279531
0.00236054
-0.00622644
2.62503e-05
-0.00512081
0.00509456
-0.00271153
0.0103605
-0.00152158
-0.00612739
-4.17133e-05
0.0038342
-0.00379249
-0.000254099
-0.00274727
0.000494591
0.00250678
-0.00504017
0.00257443
0.00196214
0.000503605
0.00103642
0.000828172
-0.00585674
0.00399215
0.00296746
0.0046843
-0.0017501
-0.00590166
0.00453338
-0.00154431
-0.00433863
0.00134957
-0.00561443
0.00322416
0.00866227
-0.00627201
-1.3899e-05
0.00222306
-0.00222322
1.40608e-05
-0.00229899
0.00227563
2.33609e-05
-0.00569221
8.12197e-05
0.00241333
0.000650682
0.00137321
0.00378408
-0.00580798
0.0029688
-0.00353279
0.00227958
-0.00171559
-0.00294947
0.00258014
-9.53267e-05
0.000464651
-0.000593176
-0.00483066
0.00614633
-0.000722497
-0.00216579
0.0010414
0.00343002
-0.00230563
0.00367779
-0.00141649
0.000533952
-0.00279526
-0.00241357
-0.00042001
0.00282428
9.29458e-06
-0.000428274
-2.17192e-05
0.00406954
-0.00361954
0.000488555
-0.000418702
0.00395599
-0.00402584
-0.00359996
0.00502826
-0.00527964
0.00385134
1.15992e-05
-0.00450655
0.00449495
-0.00160503
0.000139099
0.0040735
-0.00260758
-0.00304621
0.00356256
-0.00486063
0.00434428
-0.00314025
0.00024074
0.000945172
-0.00145675
0.00397502
0.000224818
-0.0027431
-0.00105492
0.000146621
-0.00177777
-0.00155306
-0.00508753
0.00510512
0.00153546
-0.0022707
-0.000267643
-0.000575095
0.00311344
-0.00771241
0.00259895
0.000775547
0.00433791
-0.00244802
0.00564804
-0.00281318
-0.000386843
0.00169447
0.000669796
-0.00341919
0.0033206
0.00335513
-0.00667573
0.000473035
0.00743842
-0.0017313
-0.00618016
-9.52268e-05
-0.000135703
-0.00334413
0.00357506
-0.00355723
0.00583495
-0.00235729
7.95707e-05
0.00334399
-0.00209751
-0.00303064
0.00178416
0.000862456
-0.000115904
0.0010559
0.00522595
0.00143707
-0.0075274
0.000864386
-0.00371829
-0.000460035
0.00120748
0.00297084
0.00134028
-0.0015007
-0.00202284
0.00618107
-0.00416388
0.00326009
-0.00527727
-0.000700049
0.00401661
-0.0069436
0.00362704
0.00236782
-0.00300375
-0.000303541
0.000939477
-0.00264948
-0.000923857
-8.88075e-05
0.00366214
-0.00197218
-0.00184634
0.00381852
0.000492766
-0.00532983
0.0047178
0.000119266
0.00200908
-0.00195783
-0.00202344
-0.0034431
0.00435195
-0.000820628
-8.82206e-05
0.00477667
0.00131258
-0.00513871
-0.000950547
-0.00186862
-0.00275076
-0.000325313
0.0049447
0.00312189
-0.000951561
0.00361914
-0.00578946
-0.00342952
-0.000170441
-0.00398735
0.00214101
0.000517316
-0.00450114
0.00143991
0.00254391
0.00133744
-0.00479755
0.00262278
0.000837324
0.000740482
0.000179187
-0.0036957
0.00277603
0.000537441
0.00231717
-0.000160634
0.00409237
-0.000808406
-0.00312333
-0.00159772
-0.000175975
-0.00149417
0.00326786
-0.000949436
-0.00127831
0.00244407
-0.000216321
-0.00372919
-4.37621e-05
-0.00616899
0.00222434
0.00324112
0.00889591
-9.18833e-05
0.00123357
-0.0100376
-0.00402372
0.00618626
0.00127631
-0.00343886
-0.00113257
0.000604553
0.0038402
-0.00331218
0.000460364
0.00130649
-0.00101049
-0.000756369
-0.00671394
-0.00139861
0.00578268
0.00232987
0.000150978
0.00289783
-0.000583028
9.76985e-05
0.00143347
-0.00448633
0.00295517
-0.00273696
-9.86275e-06
0.00100929
0.00173753
-0.00388435
0.00480123
-0.000765899
0.00219761
-0.00198058
-0.000217032
-0.00321911
0.000429222
-0.00248439
0.00527428
-0.00146384
0.00220402
-0.00169921
0.000959031
-0.00314841
0.0035466
-0.00146568
0.00106749
0.00138431
-0.000234302
-0.00322127
0.00207126
-0.00140783
0.00882448
-0.0118734
-0.00123927
-0.000864758
0.000846485
0.00125754
0.00410777
-0.00641731
-0.000290581
0.00260012
-0.00171024
0.001276
0.00220029
-0.00176605
-0.000516234
0.00270668
-0.000742625
-0.00144782
-0.00304051
0.000673792
0.000711221
0.0016555
-0.00175921
0.000150311
0.0016089
0.00392025
-0.0018659
-0.00199016
-6.41946e-05
0.000297984
0.00202237
-0.00307071
0.000750356
-0.00209986
-0.0025457
0.0025963
0.00204927
-0.00115149
0.00292851
-0.00249095
0.000713928
0.0010119
-0.0019153
0.00131945
-0.000416054
0.003752
8.8591e-05
-0.00384059
0.00318612
-0.00393871
0.00195792
-0.00120533
-0.0050417
-0.000130463
0.00517216
0.00203582
-0.00168954
0.000395706
-0.000741985
-0.00015364
0.00359425
-0.00393197
0.000491361
-0.0017642
0.00220818
0.000567922
-0.00202526
0.00433145
0.00400451
-0.00336364
0.00331402
4.96113e-05
5.62764e-05
-0.00529289
0.00523661
0.00716883
0.000854275
-0.00150926
-0.00651384
0.00151699
-0.00588955
-0.000724357
0.00509692
0.00112272
0.00133117
0.000767423
-0.00322131
-0.00201395
-0.00199985
2.1486e-05
0.00399231
-0.000965132
0.00131379
-0.00236261
-0.00435231
0.000797036
0.00570993
-0.00215466
-0.00867896
0.00635561
0.00279743
-0.000474077
0.00382815
7.36076e-06
-0.00383551
-0.00224308
-0.00302134
0.00195397
0.00331046
-0.00216327
-0.00311923
0.000930191
-0.00314937
0.00171104
0.00197577
0.00127306
-0.00168008
-0.00303941
0.00344643
-0.00214351
4.20431e-07
0.00214309
-0.00501035
0.00205094
0.00207462
0.000884797
0.00125733
-0.00337746
-0.00102924
0.00424631
-0.00135685
-9.85707e-05
-0.00279088
-0.00291198
0.00483868
0.00283441
-0.00476111
-0.000881432
-0.00183878
0.000705458
0.00201475
-0.00121618
-0.000979088
0.00219527
-0.00213782
-0.00448922
-0.00205192
0.00103007
1.44174e-05
0.00207643
-0.00312092
0.0041148
-0.00298432
-0.00432326
0.00319277
-0.00152964
0.000552297
0.00307138
-0.00209403
0.00287106
-0.00202226
-0.000282966
-0.000565835
-0.00329501
0.000537382
0.00257348
0.000184153
-0.002039
0.00467171
-0.00507697
0.00198053
0.0001458
0.00295064
0.00484625
-0.00387395
-0.00304417
0.00207187
-0.00380512
0.000810571
0.00710935
-0.00366828
-0.00242832
0.00395156
0.00214504
-0.000429861
0.00383377
-0.00145547
-0.00194843
0.000226961
-0.00241537
-0.00159465
0.00378306
0.00436036
-0.00287693
-0.000176307
-0.00130713
0.00136112
0.00101048
-0.00333673
-0.000918414
0.00104045
0.00255928
-0.00268132
-0.000775349
0.00399998
-0.00493194
0.00170731
-0.00246638
0.000595462
0.000596733
0.00127419
-0.00532569
0.00539061
-6.49142e-05
0.00393325
-0.00388938
-4.38698e-05
0.00155808
-0.0059155
-0.00228663
0.00664405
0.00127136
0.00240235
0.000572589
-5.97876e-05
0.00213763
-0.00207784
0.00374637
0.00332166
-0.00706804
-0.00379704
0.00231857
0.00163791
-0.000159436
-0.00213223
0.000702616
0.00173381
-0.000304194
-0.00641955
0.00300591
0.00352026
-0.00010663
-0.00206802
-0.00230472
0.00222922
0.00345218
-0.000564129
-0.00219709
-0.000690966
-0.0035166
0.00380216
-0.00232455
0.000635666
-0.00402325
-0.000187029
0.00357461
-6.0299e-06
-0.00200765
0.00201368
0.00957256
5.37974e-05
0.00104281
-0.0106692
-0.000367233
-0.00072818
-0.00534131
0.00643672
0.00165922
-0.00224875
-0.00104214
0.00163167
0.000655562
0.00501449
-0.00202937
-0.00364069
0.00540507
-0.00539526
1.27254e-05
-2.25403e-05
-0.00304195
-0.00274084
0.0042852
0.00149759
0.00177748
0.00133334
-0.00351925
0.000408427
2.12894e-05
0.00329575
-0.00336576
4.87192e-05
-0.00452185
0.00146091
0.00366259
-0.000601645
0.00345192
0.00208694
-0.00349327
-0.0020456
7.53965e-05
-0.00309606
0.00153382
-0.000795365
0.00466662
-0.00248665
-0.000323293
-0.000387504
0.00319745
-0.00424338
0.000211353
0.00403203
0.00614401
0.00265136
-0.00198418
-0.00681119
-0.00400922
7.85204e-05
0.00400609
-0.000364171
-0.000946375
-0.00241438
0.00372492
-0.000454116
-0.000487543
-0.00130953
0.00225119
0.00101689
-0.00515732
0.00389476
0.000245662
0.00334621
-0.000505946
-0.0032675
0.000427229
-0.00393921
0.000813911
0.000311354
0.00281394
-0.0014995
0.00099619
-0.00208582
0.00258913
0.000850897
0.000585566
-0.00507378
0.00363731
0.000167699
-0.00345848
-0.000227489
0.00351827
0.00338934
0.000467205
-8.15226e-05
-0.00377502
-0.00405445
0.000936999
0.00366592
-0.00289349
-0.00382338
0.00671687
0.00566207
-0.00287209
0.00122173
-0.00401171
0.000445553
0.00314424
-0.00193057
-0.00459524
0.00085339
0.00162583
0.00211602
0.00567989
-0.00586373
0.000183834
-0.00348827
-0.00118699
0.00244326
0.002232
-0.0046225
-0.00358397
0.00240923
0.00579723
0.00456086
-0.00476184
-0.000584131
0.00078511
-0.000668538
0.00222213
-0.00174999
0.000196395
-0.00568726
0.00186599
0.00130146
0.00251981
-0.00853044
0.0105563
0.00178118
-0.00380704
0.00383101
-0.00828124
-0.000426103
0.00487634
-0.00341094
0.00434392
-0.00802195
0.00708897
-0.00352453
0.00776001
0.000767646
-0.00500313
0.000312846
0.00367847
-0.000877784
-0.00311353
0.00559446
-0.00420407
-0.000134189
-0.00125621
-0.000976474
-0.000937707
0.00143397
0.000480215
-0.00263523
-0.0054827
0.00472
0.00339794
-0.00376021
0.00500659
0.00434809
0.00314042
-0.00230874
-0.00287759
0.00204591
0.00112188
-0.00145178
-0.000640693
0.000970589
0.00248824
-0.00246403
-0.00327215
0.00324794
-0.00100617
0.00288567
-0.000208951
-0.00167055
-0.00399114
-0.000665774
0.00496976
-0.00301619
-0.000742961
0.00372966
2.94906e-05
0.00127886
-0.00285526
0.0015764
0.00100103
-0.0013149
0.00489068
-0.00457681
0.0041174
-0.00580011
0.000859343
0.00082337
0.00249887
-0.00269773
0.000198861
-0.00385437
9.41566e-05
0.00342512
-0.0013141
-0.00330843
0.00119741
0.00108133
0.000859585
0.00376771
-0.00570863
0.00245647
-0.0026686
0.000212132
-2.80565e-05
0.00298184
-0.00337163
0.00041785
-0.00423128
-0.000394691
0.005627
-0.00182046
-0.000308383
0.000420343
0.0017085
0.000251074
-0.00207291
0.00153008
0.000291756
0.00341502
-0.00327086
-0.000812697
0.000407119
0.00582585
-0.00368061
-0.00255237
-0.00195718
0.00412889
-0.00217171
-0.00528552
0.00201872
-0.00122475
0.00449155
0.00410016
-0.00370927
-0.00607815
-0.00208034
-0.00248794
0.00854939
-0.00398111
-0.00599849
0.00380738
0.00545261
-0.0032615
-0.000100406
-0.005092
0.00519241
0.00802919
1.38369e-05
-0.00463384
-0.00340919
0.00469241
-0.00302226
-0.000425951
-0.0012442
-0.00342186
0.00243111
-0.000607664
0.0015984
3.93235e-05
-0.00366813
0.00362881
-0.00253755
0.0026121
-7.45494e-05
-0.00185731
-0.00196176
-0.00500695
0.00882602
-0.00471193
0.00102219
-0.000518841
0.00420858
0.00112738
0.00182863
0.00508121
-0.0045771
-0.00378231
0.0032782
-0.00134488
-0.00279185
0.00307156
0.00106518
-0.00278614
-0.00141141
0.00420354
-5.99373e-06
0.000989423
-0.000560059
-0.00276059
0.00233122
0.00306929
0.000146677
-0.0039303
0.00071434
0.000945243
-0.000662093
0.00105073
-0.00126871
0.00126371
-0.00104573
0.00254335
0.00246921
-0.00253235
-0.0024802
0.00127392
0.00302521
-0.00312451
-0.00117462
0.00262747
0.00113798
-0.00207098
0.00325284
-0.00393207
0.000825912
-0.00437863
0.00306479
0.00165487
-0.000341032
0.00515702
-0.00170838
-0.00540581
-0.0013705
0.00363857
0.00183209
0.00357571
-0.00173429
-0.00304636
-0.000850754
-0.000481517
-0.00480556
0.00448217
0.000421155
-9.77706e-05
-0.000289676
0.00602229
-0.000617658
-0.00511495
-0.00389533
0.000793465
0.00173136
-0.000626044
-0.00394865
0.00110915
0.00346554
0.0035936
0.000495996
-9.67484e-06
-0.00407992
-0.0054344
-2.15777e-05
1.84819e-05
0.00543749
-0.00140933
0.00153429
-0.00252738
0.00240242
-0.00371748
0.00468335
-0.000471557
-0.00049431
0.00488531
-0.00455598
-0.00404682
-0.00354695
0.00318935
-0.00100308
0.00136069
0.00288884
-0.000130352
-0.000907733
-0.00185075
-0.00550262
0.00529415
0.00261117
-0.0024027
0.00265856
0.00101182
-0.000338315
-0.00333207
0.000921603
0.00234417
-0.00293107
-0.000334702
-0.00173851
0.00174894
-1.04287e-05
-0.00101559
-0.00259359
0.00260301
0.00424347
-0.00421935
-2.41258e-05
-0.00221596
-0.00176941
0.00173662
-0.000229555
-0.00270347
-0.00030764
0.00324066
-0.000311341
-0.00239599
0.00213826
0.000569064
0.00363972
-0.00413819
0.00049847
-0.00469109
0.00479682
0.0044096
-0.00451533
-0.00314203
0.002432
-0.00164975
0.00235979
-0.00129399
0.000552961
0.00117142
-0.000430396
-0.000123268
0.00569723
-6.19159e-05
-0.00551204
-0.00295522
0.0014327
0.00145599
0.00169029
0.00215134
-0.0037516
-9.00313e-05
0.000161527
-0.00467287
-0.000182793
-0.00410722
0.00412137
-1.4143e-05
-0.00290365
0.00147539
-0.00319424
0.000929844
-0.00205782
8.5837e-05
0.0018548
0.000805284
0.00269795
5.21901e-05
-0.00230797
-0.000442167
0.00226248
-0.00564237
0.00452311
-0.00114323
0.000944149
-0.00129801
0.00479504
-0.00444118
0.0057814
0.00169034
-0.000888013
-0.00658372
-0.00148725
-0.00243385
-0.000792584
0.00471368
0.00176349
0.00735863
-0.00662641
-0.00249571
0.000853166
0.00540584
-0.00522438
-0.00103462
-0.00182658
0.000240051
0.0037466
-0.00216007
-0.000655853
0.0052366
-0.00281726
0.00383639
-0.00303446
-0.00118055
0.000378628
0.00124397
0.00322098
-0.00446495
0.00301708
0.000669375
-0.000400955
-0.0032855
-0.00278005