/*--------------------------------*- C++ -*----------------------------------*\
  =========                 |
  \\      /  F ield         | OpenFOAM: The Open Source CFD Toolbox
   \\    /   O peration     | Website:  https://openfoam.org
    \\  /    A nd           | Version:  10
     \\/     M anipulation  |
\*---------------------------------------------------------------------------*/
FoamFile
{
    format      ascii;
    class       volScalarField;
    location    "4.5";
    object      SgP;
}
// * * * * * * * * * * * * * * * * * * * * * * * * * * * * * * * * * * * * * //

dimensions      [1 -1 -3 -1 0 0 0];

internalField   nonuniform List<scalar> 
111485
(
1.11954e-08
9.63533e-06
6.26576e-06
1.83037e-08
2.10881e-06
1.98229e-08
2.78174e-06
3.37677e-08
1.77297e-06
8.64801e-07
5.34562e-06
1.84086e-07
1.76841e-06
0.152819
1.13242e-06
6.36767e-06
0.113352
0.000609219
2.45797e-07
2.89868e-08
0.0206405
7.33786e-09
8.12915e-07
3.65198e-06
1.10784e-05
2.28554e-08
3.27822e-07
7.45762e-08
5.28544e-07
0.0267478
1.84419e-06
6.66217e-08
1.74131e-07
6.73492e-07
0.000392718
4.65196e-05
0.0724537
0.111957
0.00130938
2.08857e-07
0.0220483
5.03269e-07
8.70348e-07
3.92368e-05
1.35412e-05
1.21246e-06
2.6148e-06
6.39134e-07
2.18302e-06
2.07617e-07
5.55978e-07
8.67782e-06
2.88816e-07
4.71446e-06
6.09545e-07
1.34125e-07
8.46526e-07
3.33182e-08
1.14102e-05
1.46474e-07
1.92507e-07
1.89811e-07
1.15195e-05
3.14868e-06
4.5248e-06
9.80964e-07
0.000214396
5.87831e-07
2.98559e-06
1.07288e-05
1.89267e-05
2.67587e-06
6.48623e-06
9.65317e-06
3.44422e-08
2.38932e-08
1.74652e-08
2.73676e-07
2.54774e-08
1.58721e-05
0.148306
0.283759
5.34383e-08
8.45904e-09
2.4703e-06
5.76743e-06
0.075065
2.68414e-06
0.00012734
6.17098e-08
9.99908e-07
2.03826e-06
4.16344e-06
2.6785e-07
4.16353e-07
1.692e-08
0.0149971
5.64225e-06
0.000817957
0.000188704
9.84582e-09
1.25981e-06
1.07589e-06
3.9894e-06
1.63128e-06
8.69736e-06
3.2695e-08
2.64409e-08
6.70487e-07
0.000353915
2.17692e-08
6.80689e-07
2.78871e-06
1.77468e-05
6.99508e-08
6.30278e-08
1.54006e-08
3.41213e-06
4.34757e-06
3.19982e-08
4.93177e-08
0.000103391
0.0381368
9.89236e-07
1.56074e-05
0.0161301
5.78692e-05
2.83706e-08
2.62552e-08
0.000144191
6.21035e-05
7.3774e-06
0.0261063
9.49336e-05
4.38134e-05
1.99994e-07
1.13024e-08
3.9884e-08
3.89369e-06
5.04011e-06
2.51061e-05
7.43266e-08
0.0971817
1.4475e-05
1.3768e-05
3.85153e-07
2.00488e-07
2.77257e-08
6.06951e-08
6.26211e-08
5.65436e-06
0.0158124
0.0656896
1.74804e-06
2.29243e-05
5.54549e-08
1.14813e-06
1.9405e-05
0.000402346
3.02028e-06
1.06745e-08
6.64601e-08
9.67948e-06
4.05687e-05
3.67651e-05
2.02496e-07
1.73807e-06
0.0136977
0.000764304
6.73576e-05
1.6214e-08
8.82718e-09
0.120864
2.27943e-08
4.69549e-09
1.22245e-08
3.85189e-07
5.55713e-06
6.06962e-08
3.20321e-06
5.09155e-06
1.98535e-08
2.54134e-07
7.86587e-08
4.52463e-07
1.09902e-05
3.46538e-06
9.49629e-08
0.00014362
8.76343e-08
1.00044e-06
2.79674e-06
4.34841e-06
1.07942e-07
2.06818e-06
6.16673e-06
2.26299e-06
1.06509e-07
5.38688e-07
7.51648e-07
3.28479e-07
0.000879007
3.37455e-05
7.55771e-09
8.69186e-07
1.9915e-07
2.23773e-06
5.79435e-06
5.93245e-06
1.05563e-06
8.05935e-07
4.61189e-07
4.24144e-06
4.93325e-08
1.90174e-07
0.000164879
2.7521e-07
5.26721e-08
1.47313e-07
2.60139e-08
2.97295e-07
8.80441e-08
6.68635e-08
6.71637e-06
0.000150627
4.83826e-08
1.12483e-08
1.44579e-05
0.00209077
1.29552e-05
4.84058e-05
1.79548e-08
1.85441e-08
0.0752386
2.02564e-05
1.0053e-05
0.0858076
3.77891e-08
4.19488e-06
2.0679e-08
4.15138e-08
1.26246e-08
2.4197e-08
2.39904e-06
0.000832933
2.24789e-08
3.9193e-06
3.42579e-07
2.13983e-06
0.0704747
8.86983e-06
2.1573e-08
3.41056e-08
3.93589e-09
0.000104938
1.72706e-07
2.04053e-07
3.40825e-05
0.053881
4.48277e-08
1.36926e-08
6.70436e-08
7.0761e-07
2.51862e-08
1.86039e-07
5.04476e-09
2.26414e-08
2.68662e-07
0.0959807
1.3247e-06
3.13286e-06
9.34823e-08
0.0937102
2.09958e-06
1.81878e-07
0.000101266
2.26156e-08
9.97906e-08
2.76364e-07
2.39488e-08
0.0654872
1.80338e-08
2.12297e-05
1.65481e-08
2.1668e-08
0.116137
0.141876
1.71973e-07
7.25016e-05
1.75947e-05
5.32742e-07
3.92081e-07
4.60735e-06
1.68151e-07
1.88295e-06
3.53837e-08
0.000193328
0.000150564
7.23639e-06
7.68461e-07
0.18073
3.29613e-08
0.0434945
6.95379e-08
1.7018e-07
2.0348e-08
8.53153e-08
0.0137539
5.13319e-08
2.2077e-07
1.41492e-06
1.65054e-05
5.61104e-08
1.63133e-05
2.03857e-08
1.56735e-08
5.60428e-07
0.00233978
0.135984
1.50632e-06
0.000313886
3.37492e-08
2.08752e-08
6.38845e-08
4.62458e-05
4.4035e-07
2.31429e-07
1.04589e-06
6.39648e-08
3.953e-05
0.0337258
2.20634e-06
3.33217e-08
5.49642e-07
2.99875e-07
0.0243675
2.64469e-05
4.87169e-07
1.89014e-07
1.0183e-07
9.74231e-07
9.84173e-09
0.0789614
7.44614e-05
1.55617e-07
1.2036e-07
0.000161075
5.676e-08
0.0198104
6.70675e-08
3.00272e-07
3.48207e-06
1.97865e-07
9.53441e-06
5.45504e-06
4.83888e-08
4.55729e-07
3.26782e-07
1.1148e-06
0.18841
6.38416e-06
8.04912e-08
0.0268088
5.73485e-06
7.68218e-08
2.83602e-07
1.70438e-07
0.0263021
0.000267267
0.0254565
0.0251293
7.93731e-08
1.43321e-08
9.06911e-08
2.15573e-07
2.84903e-08
1.48165e-06
1.93114e-07
7.87143e-06
2.44807e-06
2.59105e-05
2.41116e-07
0.000334911
2.00024e-07
4.60865e-08
2.28438e-05
4.16595e-07
0.000296602
3.26888e-07
3.88539e-06
1.41255e-06
0.0154046
6.08629e-08
5.7695e-08
0.0802585
3.25278e-06
0.165321
7.21652e-08
2.22803e-06
1.00915e-06
1.55487e-08
1.9273e-06
1.64579e-05
3.28759e-08
0.0177759
6.40354e-07
4.68395e-07
2.9311e-07
7.91002e-08
0.00040099
1.56842e-08
2.11854e-06
1.101e-06
1.91714e-08
3.36522e-07
1.89013e-05
0.129839
2.91374e-05
9.06715e-09
4.44259e-05
4.93113e-05
5.31918e-05
1.76801e-05
0.000278589
1.15842e-06
0.000593351
2.77982e-05
0.105738
0.000106109
6.39534e-08
2.99973e-06
2.85465e-07
8.78035e-08
0.000744768
4.95644e-05
4.56712e-05
3.91761e-07
3.11359e-07
5.34722e-06
4.64402e-08
0.181963
5.59382e-07
1.85284e-05
0.00224867
4.74627e-05
0.000665069
6.04097e-08
0.134632
0.171169
3.87272e-08
1.02311e-05
7.92156e-05
5.42302e-05
1.60853e-08
1.39582e-05
5.54963e-09
0.158893
3.47495e-05
4.23222e-06
2.67362e-05
1.32662e-05
1.64864e-07
7.46703e-07
3.74706e-07
1.71887e-05
2.73606e-07
3.36918e-07
0.0290699
2.03419e-05
2.85187e-08
4.11267e-09
0.000205599
5.24742e-08
6.22593e-07
1.36057e-06
2.33622e-08
3.39793e-05
8.6249e-08
0.041188
1.06734e-07
9.46476e-07
2.65311e-08
5.12907e-05
2.01863e-07
0.127269
5.35842e-06
0.12427
5.23479e-08
3.6228e-05
1.16484e-06
2.69661e-08
0.190764
0.0743212
6.78986e-06
1.05636e-06
1.74251e-05
2.86019e-07
6.02182e-06
1.31828e-07
2.01523e-05
0.148998
3.27295e-08
8.16697e-07
5.62571e-05
4.74186e-06
0.029872
1.69786e-06
6.31537e-05
1.06123e-06
3.77166e-07
0.000366758
0.0413961
5.39707e-06
1.22816e-08
8.37706e-07
1.47333e-06
2.34288e-06
6.37737e-07
1.10596e-05
1.50705e-08
0.000914577
5.48843e-08
1.29313e-07
1.70662e-07
1.99815e-05
1.34008e-08
3.1978e-06
4.21858e-08
2.07395e-06
6.42695e-09
0.0613177
0.0747515
5.68778e-07
1.35863e-07
0.0330277
0.0523382
1.5742e-08
2.15451e-07
3.7629e-06
1.67101e-07
2.52025e-05
9.60409e-06
3.0397e-06
0.0236671
3.59819e-07
3.06304e-08
2.45396e-05
2.40598e-05
2.45686e-05
1.1005e-06
6.18779e-06
5.25002e-06
1.74087e-07
6.35557e-07
9.93549e-06
1.46115e-05
1.61395e-08
0.0684028
3.38564e-05
1.63839e-05
6.76056e-07
0.000628809
1.1326e-05
0.000160845
0.00156924
0.000199109
2.07239e-06
3.21615e-05
3.62191e-06
8.13547e-06
0.0588739
0.000104309
3.95637e-05
0.00191991
0.0408989
2.97063e-08
1.61114e-05
2.17091e-06
2.1425e-05
2.91296e-08
0.000282815
0.00148511
0.000230829
9.06187e-05
1.07255e-05
5.77285e-07
1.42725e-07
0.000106444
9.40954e-07
8.2741e-08
9.91283e-08
1.20784e-08
4.55526e-08
5.55068e-06
1.01775e-07
0.0192918
5.13812e-06
1.73375e-08
0.0540041
0.173909
3.25654e-05
3.91372e-08
0.0206897
5.19341e-08
8.66738e-06
2.0102e-07
1.6995e-08
2.3758e-05
6.34211e-06
0.0629814
1.06396e-05
1.49207e-08
1.52063e-06
1.39551e-05
0.0749684
1.9774e-06
1.3681e-05
2.99272e-05
0.112774
0.0210284
6.74024e-07
6.80529e-06
3.02371e-06
4.92825e-07
2.29118e-06
9.68581e-07
1.34938e-05
1.30176e-06
9.80622e-07
4.43487e-07
9.45808e-07
0.000264064
1.78183e-05
1.66827e-06
2.29121e-06
0.000353713
2.22523e-08
3.17931e-07
2.36333e-06
2.00314e-06
5.72578e-06
4.23451e-08
1.98494e-06
1.28574e-06
9.83508e-06
9.75202e-05
5.22208e-06
6.61375e-06
9.09e-09
3.23168e-07
9.30169e-06
2.67644e-06
2.57605e-08
0.0393798
6.29178e-08
0.0819995
3.03317e-05
0.00626655
1.2496e-07
0.0149068
6.9168e-07
5.23171e-06
1.43408e-08
3.14831e-06
1.85582e-07
2.87143e-08
8.48433e-07
0.149964
3.31744e-05
1.6729e-05
0.0228615
6.04654e-08
5.33339e-09
1.6609e-06
2.17829e-08
4.64332e-05
2.75881e-07
6.26569e-05
3.97508e-08
3.09974e-06
6.13655e-05
0.0861993
5.72034e-08
4.52992e-08
3.80477e-07
4.48156e-08
6.91586e-05
1.3329e-07
0.0319517
6.86829e-08
2.18452e-08
1.88028e-07
0.0230701
2.81164e-06
2.53758e-05
1.84649e-08
0.0027198
0.00049555
0.094225
6.02264e-08
1.41668e-08
1.86357e-06
1.40078e-05
2.22345e-05
0.000307932
0.000195027
6.7818e-05
4.92799e-08
0.0323049
6.96375e-06
3.2294e-07
2.40556e-08
4.47264e-07
4.33975e-08
2.0058e-08
4.22816e-08
7.1974e-08
2.00708e-06
2.30476e-08
2.32691e-08
4.31945e-07
1.39921e-07
1.31164e-08
9.89082e-08
3.98297e-07
1.29927e-07
2.36485e-09
3.85517e-08
8.89799e-08
4.89142e-08
1.22001e-08
1.61679e-08
1.47022e-05
2.15136e-07
1.02447e-08
1.80861e-07
6.61862e-09
4.312e-08
1.37455e-08
3.31201e-06
5.60644e-08
3.4509e-08
7.60551e-06
1.03613e-08
2.37296e-07
3.59396e-05
8.90409e-07
1.39892e-08
0.000315466
6.71021e-08
0.134204
3.30779e-05
3.83864e-06
0.112076
4.50709e-05
2.23541e-07
7.44676e-06
4.68191e-08
9.58322e-06
0.0488973
0.000375397
1.92083e-08
5.04556e-08
6.756e-06
4.07874e-05
4.19575e-05
4.79894e-05
1.92326e-08
1.86924e-08
1.98333e-08
2.12168e-05
2.5878e-06
1.91781e-06
2.07272e-05
3.9934e-08
1.5944e-08
1.17774e-07
2.70837e-08
0.0170204
6.70691e-06
5.15794e-09
7.50231e-09
2.90886e-05
6.53473e-05
8.92535e-07
1.70536e-07
0.0226073
4.00668e-08
3.14178e-08
0.0324875
2.52051e-08
0.0386095
2.32204e-05
0.0188228
0.000322057
5.45207e-08
1.86285e-05
3.64901e-08
0.0254416
9.48367e-06
0.00071923
0.0849298
6.57024e-05
1.81242e-08
4.16631e-07
6.4632e-07
0.258422
0.0849346
2.73981e-08
0.126623
2.45027e-08
8.843e-05
1.21484e-07
9.35514e-06
0.000542964
4.17732e-06
2.7671e-07
3.22755e-06
3.35784e-07
6.67629e-08
0.0231552
2.28959e-08
3.67949e-07
1.2817e-07
7.61384e-08
1.26011e-07
0.114889
2.96856e-07
2.4799e-07
0.000275454
1.06754e-08
2.59472e-07
0.110876
3.59146e-08
0.102043
0.179764
0.00059272
5.05189e-06
7.28166e-07
3.05389e-08
2.45761e-05
0.000132936
0.000583605
9.96378e-05
2.22948e-06
0.0230951
3.76122e-05
6.34262e-09
8.1509e-05
0.000110805
0.00031348
0.000251878
0.000458588
9.39737e-05
1.44217e-08
3.70198e-05
1.92533e-07
2.04475e-07
0.000890373
0.182314
1.30683e-07
1.43089e-08
0.00173123
0.00174653
1.09562e-08
0.000303991
1.40774e-07
4.5896e-09
4.75054e-08
2.31213e-07
1.81844e-06
1.21716e-07
2.85484e-05
0.0263387
3.11896e-08
5.78028e-07
0.00242099
0.061028
1.32725e-05
9.37562e-08
0.0165207
2.86877e-08
6.2471e-05
6.52401e-09
2.38816e-08
0.000319357
0.068587
1.47525e-07
1.5198e-08
1.51665e-07
0.0181493
1.16404e-08
0.0117484
6.45911e-08
5.39227e-05
7.70406e-09
0.00100224
7.05591e-07
1.92779e-08
3.32188e-07
2.46864e-07
0.00072621
5.17377e-07
1.57268e-08
1.10505e-06
0.00233097
0.0274876
3.73052e-05
0.000283751
0.000539511
1.15165e-07
0.000696328
4.51893e-06
2.25476e-07
1.48066e-06
0.000112789
6.31949e-06
2.38428e-07
4.25779e-06
7.84131e-05
4.61324e-08
1.60709e-07
8.10982e-08
6.37203e-06
0.0387977
5.93589e-09
4.20327e-08
0.0310705
6.6844e-05
3.88719e-05
3.39081e-08
3.48355e-07
5.0467e-08
3.73791e-07
1.53672e-05
1.48568e-07
4.46598e-07
7.70734e-06
1.53043e-05
3.76849e-05
8.76863e-06
9.77496e-08
2.32261e-06
1.78688e-08
1.26139e-07
6.487e-06
9.2736e-05
2.74043e-08
3.10322e-07
2.15199e-08
3.26816e-08
2.66117e-05
2.44944e-07
1.33548e-05
0.000444826
1.89713e-05
3.70773e-08
0.00063237
6.33199e-05
3.62325e-05
8.13321e-05
5.33582e-08
4.89376e-05
1.21603e-06
0.0648504
1.68936e-05
5.98485e-05
7.34759e-08
3.81387e-09
1.99896e-08
0.0995985
0.037961
2.22706e-05
2.3626e-08
7.97823e-05
4.66368e-08
0.0895698
2.90671e-05
3.90873e-07
1.27407e-08
6.73971e-07
4.46108e-07
3.9165e-05
9.42595e-07
6.14826e-05
0.16595
1.62476e-06
4.06272e-05
2.07833e-05
4.06199e-05
3.19496e-05
8.61864e-09
6.64439e-08
6.0798e-07
1.18591e-05
2.58297e-08
1.73547e-07
0.000332778
1.52396e-07
2.9078e-07
0.256666
1.15904e-06
3.30109e-05
1.7307e-08
2.36069e-07
1.84858e-07
0.188398
1.81966e-08
0.0638946
0.00286931
5.49809e-05
7.81038e-06
7.30936e-06
0.000508156
1.47437e-06
1.11129e-06
9.72472e-07
8.98068e-08
4.68251e-08
1.2115e-06
4.47548e-05
1.18929e-06
0.0358795
1.58446e-07
2.20481e-06
0.000139361
2.27519e-08
0.000204536
9.14678e-08
1.72096e-05
0.000409283
6.11372e-08
2.27482e-08
3.10017e-05
3.30412e-07
5.41008e-09
0.0976966
7.25727e-08
5.46919e-06
1.07963e-07
0.0237159
4.918e-06
2.5393e-07
8.5811e-08
3.01841e-06
3.27627e-06
6.80262e-09
0.0831308
4.23279e-07
6.90817e-09
6.77245e-05
4.39646e-07
2.5494e-08
1.99386e-05
0.000360396
0.000464964
4.95997e-08
6.33069e-07
6.6321e-08
2.8436e-06
2.74197e-05
0.0190747
4.51673e-06
0.000470166
3.69544e-05
0.000573282
1.84335e-05
1.67004e-06
4.79066e-07
1.18253e-07
1.15261e-08
3.94511e-07
1.02591e-06
0.024455
0.000129911
0.0243913
2.05567e-08
2.12774e-07
7.086e-08
3.64792e-05
5.42166e-05
2.21862e-08
1.84597e-05
0.000304692
2.86264e-05
1.36188e-08
0.00385565
0.00430958
1.76868e-05
2.03898e-05
2.11905e-07
0.000478469
9.88171e-07
1.06699e-06
9.38791e-08
1.5414e-08
0.000124542
2.2491e-06
0.000511516
2.94658e-07
0.0241135
0.000265247
4.64267e-07
1.68478e-08
0.000266068
1.13277e-06
0.0310176
0.145235
6.01255e-05
0.000112785
3.65027e-06
5.231e-08
7.55913e-08
1.33849e-07
3.5514e-05
1.85114e-06
0.017802
0.0307512
6.80505e-06
9.09059e-08
0.000165195
0.0214278
1.52469e-05
0.000625907
0.00132381
0.0224046
0.0770725
0.0260956
5.36141e-05
2.44857e-08
0.00109373
3.39217e-07
3.59204e-08
1.84191e-07
8.90703e-08
5.25142e-06
4.92957e-08
2.26089e-08
4.73773e-05
9.18419e-08
1.25501e-08
6.30659e-07
5.66304e-08
0.0304564
3.60428e-07
1.43884e-05
0.039367
0.149393
6.21616e-08
0.105429
8.32313e-05
0.199388
5.9483e-08
7.0406e-08
6.72291e-08
7.88177e-06
0.139582
4.95242e-08
0.000603632
3.91068e-08
1.08178e-07
8.64676e-06
3.74524e-08
5.29817e-07
1.37348e-07
0.0400608
1.92171e-08
5.36664e-08
6.45562e-08
3.56525e-07
8.40748e-09
0.000209595
1.46893e-05
6.23526e-07
0.000215439
5.8089e-06
2.33846e-07
7.20216e-05
3.83792e-07
2.47326e-08
7.35504e-08
9.5884e-08
0.149486
0.0226609
0.000160065
1.37246e-07
6.08023e-08
2.49356e-08
0.107172
1.09731e-07
1.41264e-06
5.0622e-07
7.99222e-08
4.52235e-09
0.0183264
2.42449e-05
1.29177e-08
3.2007e-07
6.97451e-06
3.23038e-08
0.0934416
2.42667e-08
0.0225514
1.50967e-05
3.85472e-06
1.79948e-08
5.27851e-09
6.44625e-07
3.78194e-08
1.24961e-07
2.33833e-06
5.94834e-09
4.48509e-09
1.15473e-05
0.0415999
1.52951e-08
5.79483e-06
3.78759e-08
3.7041e-05
4.96542e-08
0.0249413
1.2261e-06
5.87883e-06
7.55584e-06
1.42274e-07
1.18701e-05
8.69401e-07
2.14252e-06
3.55559e-08
2.5884e-08
3.18041e-06
4.69305e-08
3.04391e-05
1.67162e-05
2.24223e-08
3.68509e-08
2.18243e-05
0.000299447
0.158869
5.06479e-08
2.82157e-06
9.6814e-07
0.000195808
8.29185e-05
4.13058e-06
4.7732e-05
0.0413018
6.84553e-07
2.86059e-05
0.000443572
0.0349539
6.31439e-07
2.65732e-08
0.000182199
3.63399e-06
0.0215217
2.06254e-07
5.04521e-06
2.66723e-06
5.42586e-08
0.126599
1.17274e-08
7.20736e-08
3.98331e-07
8.40319e-06
0.201536
0.0296677
3.77711e-07
2.03301e-08
1.01678e-08
5.68349e-08
6.41215e-08
3.10937e-07
4.07804e-08
1.2662e-08
3.39574e-08
2.97365e-09
1.11376e-07
0.0324419
0.0193197
3.30328e-08
7.56431e-06
1.29271e-08
1.60936e-08
4.35463e-08
0.0189033
0.0457807
3.57316e-06
4.60579e-08
7.53191e-09
4.08574e-07
3.23945e-07
2.32585e-06
7.26134e-08
0.00017056
2.73855e-07
2.01497e-06
2.376e-07
0.00010847
2.42531e-06
0.000426246
6.02147e-07
9.23179e-09
0.000262273
0.000269678
1.86876e-08
7.66131e-06
5.57102e-07
9.58677e-07
2.92582e-06
4.12379e-07
2.29302e-06
1.50519e-07
0.173062
4.3004e-07
8.46195e-06
0.0325411
4.66833e-06
5.11486e-06
3.17289e-06
8.96703e-08
2.40204e-07
4.37395e-06
2.60862e-07
1.01498e-05
2.33139e-06
5.18191e-06
3.63659e-07
6.95965e-07
2.19476e-07
9.11187e-09
5.43556e-08
2.61718e-08
5.8183e-09
1.60505e-07
1.52742e-07
1.02149e-06
3.61664e-08
7.07997e-09
1.25864e-07
8.83876e-06
5.54389e-08
4.03264e-08
2.87796e-07
4.32622e-07
7.19681e-08
3.79512e-05
9.49861e-07
0.147513
1.2891e-07
6.9067e-06
7.97089e-06
1.94846e-06
1.2843e-08
5.58437e-08
0.12508
2.18543e-07
1.69006e-08
1.41985e-06
0.122626
2.0593e-07
1.56914e-05
2.71461e-05
6.21436e-07
2.89961e-06
1.89981e-06
0.000196423
3.06732e-08
5.39891e-06
2.81982e-06
5.71823e-08
0.000191873
0.000199534
0.124624
4.09682e-06
8.21748e-07
3.41468e-06
6.71992e-06
4.80336e-06
7.73232e-08
0.00140399
2.3101e-08
0.00025833
0.00020269
0.0338635
4.61158e-06
0.140822
1.64443e-08
1.86004e-07
1.46077e-07
2.65947e-06
6.43827e-06
1.83414e-06
9.46241e-07
5.57813e-08
4.60246e-06
3.28476e-08
1.03774e-08
6.1119e-09
0.000240258
2.00591e-08
5.24677e-09
0.000213085
2.37974e-07
0.000272658
9.80383e-08
2.24253e-07
8.39144e-09
2.35226e-07
1.15655e-05
2.21207e-06
0.000117274
7.41434e-08
2.11879e-08
0.00178997
4.79343e-07
1.40176e-08
8.21657e-05
2.04603e-06
9.19444e-06
3.10215e-08
0.0791972
6.30572e-05
6.32299e-06
4.36999e-07
2.4236e-08
0.000102799
5.05301e-08
9.13e-08
1.6059e-08
1.07786e-05
1.9965e-05
1.53347e-05
0.100631
3.58048e-07
3.66928e-08
0.000129477
8.98895e-09
7.59323e-08
1.38192e-08
4.16401e-05
2.12637e-07
6.2189e-05
0.0954558
1.42449e-07
1.57056e-08
3.49827e-08
1.32066e-07
1.72242e-07
2.15307e-07
0.00026263
0.000451867
0.000200373
0.000473871
1.9591e-07
2.76616e-05
9.61907e-08
3.46171e-08
3.45677e-08
7.08429e-08
0.0544655
0.00023538
2.75045e-07
0.000868815
1.21798e-06
1.31802e-05
0.000223032
1.47639e-06
1.36815e-06
1.58861e-06
3.86065e-08
2.13478e-05
2.20196e-07
7.25431e-05
7.63587e-08
2.88438e-07
2.64857e-08
7.90771e-06
1.97061e-07
2.08524e-08
0.000161137
2.14988e-08
4.85041e-06
2.01221e-07
1.4999e-08
5.27915e-08
0.0003223
0.0768283
3.62939e-08
1.91949e-08
1.87127e-08
0.0799664
0.130738
2.28743e-07
0.0296127
2.12229e-06
7.58504e-09
4.26291e-06
7.56467e-08
1.01116e-07
2.28725e-08
1.28619e-05
0.0598501
0.195915
0.216342
1.60257e-07
6.34063e-08
1.27592e-07
4.07468e-06
0.20687
1.62956e-08
0.113327
1.6991e-07
1.28789e-08
1.40805e-07
2.31582e-07
1.34707e-07
4.20687e-08
1.62324e-07
2.46741e-08
0.0751046
9.90492e-08
7.11718e-08
5.20015e-05
2.80615e-08
1.66484e-06
3.99278e-06
1.87285e-08
2.03233e-07
0.00027826
3.31913e-06
1.08624e-07
2.5482e-05
2.93189e-06
3.2561e-08
4.65072e-08
4.50028e-07
2.129e-08
1.22947e-08
0.00181458
6.85449e-08
5.09435e-07
1.51231e-08
4.97672e-07
3.50738e-07
4.86914e-05
1.71546e-08
1.86028e-06
2.49726e-06
1.06968e-06
3.14963e-05
7.56854e-08
2.74765e-06
0.0228859
0.000216659
0.195997
0.000410465
2.61795e-05
9.06411e-08
0.0341698
1.8057e-08
2.62067e-06
1.37188e-06
7.62968e-08
3.7237e-05
1.36016e-07
4.05661e-08
4.80175e-07
3.2049e-07
2.32083e-08
3.92186e-07
1.11121e-07
1.16958e-05
0.0399419
1.95049e-07
4.35818e-06
2.31742e-07
5.40465e-07
1.71855e-07
0.000135999
6.58967e-07
8.73417e-09
3.0916e-08
2.53452e-07
0.0246896
0.00010567
2.47024e-06
7.03244e-06
1.61779e-08
1.86925e-08
3.14229e-07
1.72838e-08
1.41163e-05
7.16519e-08
1.15727e-05
3.3646e-07
4.99132e-07
3.82099e-07
5.89571e-08
2.60009e-05
4.94973e-05
1.74283e-05
3.74755e-07
5.79875e-08
6.06839e-07
1.42626e-08
0.0002927
5.8828e-07
0.10789
5.23331e-06
2.82648e-08
1.03419e-07
0.000121653
8.67188e-08
0.000585094
1.15705e-07
3.61053e-05
0.128069
1.02043e-08
0.000169864
1.03779e-05
0.0236195
8.78884e-07
0.0263269
0.0461398
6.00062e-05
4.28016e-06
1.19389e-05
1.40895e-08
9.14642e-06
1.48071e-05
0.000182942
9.41794e-06
1.11815e-06
1.2593e-05
0.000223652
0.000179513
0.000246575
6.85679e-05
8.03165e-08
3.57931e-05
0.000454648
4.12025e-06
1.72764e-06
0.000138587
0.000117819
7.10574e-06
9.90708e-06
0.00013292
7.78052e-06
0.000143177
6.20618e-05
1.11727e-05
1.07521e-08
1.95908e-05
0.000212161
0.0371293
1.00063e-06
2.12318e-07
2.78922e-05
1.17957e-07
4.57643e-05
4.71325e-07
0.000197589
6.53617e-08
1.20902e-05
1.83903e-08
1.4274e-07
6.62037e-06
0.000516015
0.000583314
0.200966
2.47539e-05
8.73785e-07
9.92906e-08
0.000201535
5.10733e-06
0.0170598
0.0390788
7.04429e-08
0.000420561
5.94848e-07
2.58392e-08
5.45638e-08
0.000618329
2.86531e-07
0.0237346
1.3249e-07
3.53921e-08
1.58002e-05
5.48322e-07
3.99003e-08
2.0695e-05
0.0219449
2.88066e-06
8.1136e-08
8.4799e-08
0.122939
0.0218502
8.64287e-08
0.000132082
1.89307e-06
0.000277983
9.07697e-07
0.0207923
6.96742e-06
8.47611e-05
1.50681e-07
4.54962e-07
1.26717e-06
4.46368e-07
1.11535e-05
1.49374e-06
6.071e-07
7.91909e-07
2.30291e-06
1.70551e-05
2.59623e-08
2.13428e-07
0.0408964
3.72893e-08
3.6593e-08
2.22525e-05
3.1107e-08
5.1444e-05
2.00175e-05
0.0334019
2.90006e-06
0.136993
5.3128e-07
6.39421e-06
0.0221486
7.48817e-05
4.59691e-09
7.43804e-07
0.015571
2.07166e-06
4.00964e-05
4.87211e-06
4.25539e-08
2.36466e-06
3.24864e-06
4.92831e-07
0.0646776
4.5609e-07
6.16634e-08
4.47496e-08
3.75114e-07
4.36993e-08
3.7861e-05
1.45492e-06
0.140773
3.93425e-05
1.91888e-05
2.52807e-05
3.11469e-05
2.89663e-07
5.15159e-07
1.67929e-08
2.27095e-07
1.95589e-05
1.16102e-05
3.11789e-06
7.62818e-08
2.56957e-07
9.22577e-07
1.84864e-07
1.02236e-08
1.31685e-07
3.30626e-08
1.5957e-05
9.8401e-06
7.33533e-06
4.65503e-08
9.90473e-09
0.00084271
2.51925e-08
1.63389e-08
5.40929e-09
7.3969e-08
0.170217
3.46704e-08
1.117e-05
3.73268e-05
6.60104e-06
2.21523e-07
2.53718e-07
4.22617e-05
2.64532e-06
4.30015e-08
1.25164e-05
1.77414e-08
8.77577e-09
3.38374e-09
4.52603e-05
1.14242e-07
0.174105
0.000284027
7.57983e-06
0.000986244
8.59692e-08
1.1864e-08
3.84749e-08
0.0328034
3.87183e-06
1.11469e-06
8.71334e-07
8.7504e-08
2.1913e-08
0.248435
4.44876e-06
9.83999e-05
2.29677e-05
2.05185e-08
0.0627332
1.1589e-07
2.14267e-07
5.33551e-07
6.27001e-07
4.46438e-07
5.02203e-08
3.02874e-06
9.8237e-07
0.000131301
1.38436e-06
6.17628e-09
0.000102646
3.03968e-07
0.086714
8.9341e-07
4.31134e-08
6.01664e-07
1.18601e-05
0.0336227
0.0164951
9.37973e-06
1.77277e-05
0.0502237
1.03336e-06
1.60017e-05
0.0239587
2.22305e-06
2.1515e-08
0.0915707
0.0103369
6.61151e-06
1.53023e-05
2.59227e-08
1.54846e-05
0.000869615
1.10945e-07
5.37804e-06
0.000196465
5.27071e-09
0.0128513
1.7825e-08
1.73482e-05
0.103167
6.85555e-08
3.78784e-06
2.56462e-07
4.41618e-07
9.25766e-08
1.69047e-05
3.17055e-07
5.94148e-08
1.88169e-06
7.51947e-06
2.35958e-08
0.0129225
0.024388
3.09769e-08
2.50301e-08
5.35861e-09
7.96828e-05
6.01021e-06
3.3675e-06
3.18133e-08
9.88773e-08
7.21687e-05
3.16558e-05
2.12351e-05
3.13204e-05
0.206034
1.74842e-08
0.0828462
4.71292e-08
1.71527e-08
0.028418
4.91112e-07
1.97408e-08
0.0126651
1.28148e-08
3.71601e-07
6.6607e-07
3.70439e-07
5.64212e-07
2.01818e-08
2.53285e-08
2.38331e-08
1.15745e-05
0.0815173
0.120702
8.19015e-06
1.2273e-06
1.48295e-08
0.0308652
0.119037
0.000105402
4.8829e-07
1.06813e-07
0.000516709
0.000122189
3.3664e-07
6.6975e-09
2.33284e-07
1.01777e-06
1.17219e-08
6.20484e-06
1.07965e-05
0.0332762
0.116425
1.44852e-06
0.000445174
2.58351e-08
1.58991e-07
3.69916e-07
7.77635e-05
1.75837e-05
0.000238011
1.16202e-05
2.84283e-06
1.7893e-08
3.60142e-08
7.64889e-06
0.0322486
1.49622e-08
0.104025
8.33265e-08
5.16664e-06
1.13504e-06
8.29209e-06
3.62968e-08
2.53516e-08
4.3672e-08
4.05346e-08
5.72239e-07
0.000176686
3.02114e-08
0.0206531
2.55367e-08
0.0898992
1.47024e-08
5.27999e-07
7.99267e-07
9.6101e-07
7.1187e-06
4.76265e-08
2.81796e-08
9.91637e-08
6.12571e-07
4.53102e-06
0.0294255
0.0284881
8.47555e-08
3.87816e-07
3.25984e-08
1.99184e-08
2.2102e-08
6.55323e-07
0.00012123
1.13768e-07
2.89886e-08
1.46955e-08
0.0121813
1.64093e-05
1.88863e-05
0.0223965
1.58852e-07
0.176976
1.30703e-06
1.70534e-07
1.52768e-08
1.42027e-07
0.0296632
7.9394e-09
3.62983e-06
5.07942e-08
0.000374846
2.27323e-05
3.57335e-05
7.61261e-05
1.81963e-05
4.39033e-08
4.89562e-08
0.193045
1.72343e-05
1.84596e-05
0.000105557
3.52088e-07
3.58651e-05
5.6838e-05
1.66542e-06
1.7962e-06
0.000189192
4.24791e-08
0.000227841
0.0217196
5.68791e-07
1.42399e-07
4.52872e-05
5.56702e-07
0.0189138
0.0991148
8.48045e-06
1.65767e-08
0.00218698
2.43977e-07
6.60578e-06
8.08657e-07
2.36322e-05
1.46135e-08
0.000461377
2.31816e-05
4.17576e-05
4.3424e-06
6.1054e-05
1.87804e-05
3.65617e-06
1.28833e-08
8.6865e-05
3.20674e-07
1.45481e-05
2.80555e-07
5.06113e-06
6.64244e-05
0.000229046
1.93318e-08
6.23368e-08
7.72166e-08
2.12159e-08
1.11655e-07
0.0118519
9.5051e-05
6.90217e-05
6.86576e-07
0.000106729
4.4438e-05
2.09568e-08
2.82817e-06
2.95846e-08
2.67022e-07
3.92854e-08
8.4352e-06
0.000924744
1.37144e-05
1.31707e-07
2.48499e-08
6.00451e-07
1.33389e-07
1.75699e-08
0.0785572
4.88448e-06
0.000361555
0.000514731
0.000378101
4.34454e-09
0.00033237
0.000368383
0.00072218
0.000371245
1.41887e-08
3.40633e-08
8.93865e-07
2.49151e-06
3.69345e-05
0.000188399
0.0214837
2.18641e-06
1.53934e-05
2.63136e-06
0.000255744
2.55191e-08
2.28682e-08
4.04543e-05
0.00016042
0.0144799
1.82605e-08
0.0634111
6.88402e-05
1.47392e-07
4.65339e-05
1.09214e-06
1.13991e-05
1.17795e-06
1.39472e-05
1.07803e-08
1.6013e-07
0.00114333
5.07275e-06
6.35421e-08
0.000933092
8.32447e-06
6.22957e-06
0.00171646
4.1173e-08
2.10466e-06
3.06855e-05
9.73567e-06
6.37014e-07
0.115701
2.45569e-08
5.38356e-07
3.65121e-08
0.0626651
0.0640858
1.12052e-06
7.45497e-07
5.92644e-05
0.0305253
1.38155e-08
4.68525e-07
1.0018e-07
6.42523e-06
7.2008e-07
0.125399
3.39897e-06
6.87712e-06
0.00192141
8.56312e-08
3.4304e-06
6.53381e-07
1.27906e-06
3.26402e-08
0.00131574
0.00214698
9.8012e-08
1.16777e-07
7.43082e-07
4.12505e-05
5.72481e-08
0.0220551
1.00951e-07
5.72816e-06
7.1728e-07
4.12626e-07
6.0691e-07
2.88079e-06
2.39328e-07
3.46622e-06
0.000125154
3.26426e-07
6.52741e-07
0.023875
3.89749e-07
2.34412e-06
1.51726e-06
1.64378e-06
9.14219e-09
2.64194e-08
4.02843e-08
6.79809e-07
7.35881e-08
0.0342096
1.24462e-05
4.25552e-07
1.27104e-08
4.70154e-07
0.0619445
2.02462e-05
2.80586e-06
3.52134e-06
6.12473e-06
1.626e-07
1.15455e-07
1.1615e-05
2.59451e-09
2.00032e-06
0.000289092
1.44075e-07
2.92737e-08
3.44467e-08
1.35458e-06
3.80819e-08
9.7953e-07
2.17514e-08
4.49133e-07
9.00969e-06
1.67458e-07
3.2807e-08
0.0253911
1.21459e-08
6.1617e-09
8.25229e-06
0.0313397
1.96098e-07
9.42961e-07
1.96952e-08
3.30099e-08
2.94635e-06
5.15933e-06
3.23903e-06
1.47341e-08
4.02648e-07
2.41362e-07
2.12438e-06
5.06226e-08
2.7949e-08
5.30157e-08
1.86316e-06
7.79444e-06
6.25396e-07
2.08061e-08
4.19869e-06
5.9532e-08
5.58051e-08
5.95788e-06
1.91033e-07
5.29064e-08
8.73909e-08
2.08958e-08
1.64145e-07
1.00557e-05
8.3222e-09
1.32828e-05
3.80047e-09
7.13476e-07
0.000182145
8.68163e-08
3.28291e-08
0.0375359
3.01406e-08
0.0309071
1.19656e-07
2.3996e-08
5.74416e-06
7.63561e-07
0.0236463
1.12154e-07
0.0276922
0.0336946
4.96339e-05
3.1607e-08
0.0223931
6.24837e-06
3.0417e-08
6.04315e-08
0.0720366
0.0205557
0.023484
3.78778e-09
3.35187e-08
3.14942e-08
2.91206e-06
5.85648e-07
1.88185e-06
9.21242e-05
3.56915e-06
2.56612e-07
1.41205e-08
3.00096e-06
0.000159638
1.1217e-08
6.89115e-09
7.94666e-06
1.1056e-06
9.54785e-09
2.03736e-05
1.17015e-05
3.07819e-08
1.59159e-07
3.41384e-08
7.63915e-07
7.69553e-08
7.05423e-05
5.21197e-06
3.80363e-06
6.35774e-05
0.000246955
1.63392e-08
3.05638e-07
1.66072e-08
2.97613e-08
2.24116e-08
1.47372e-06
7.41986e-09
0.000175055
0.210699
0.045844
4.35904e-05
1.05227e-08
3.57321e-06
0.0280211
0.0575603
1.64181e-07
0.000142628
8.63663e-07
2.03121e-07
2.75098e-07
2.54136e-08
4.60459e-08
1.63294e-05
1.10936e-07
4.67364e-08
4.65527e-08
1.11037e-07
0.0930534
0.0300245
6.37448e-06
4.44725e-08
2.04619e-08
0.02331
2.71466e-08
9.77285e-09
1.28003e-07
0.000327122
4.41751e-08
2.20417e-06
5.51398e-08
5.7266e-08
0.000574736
0.080662
0.0358599
2.9048e-08
0.0382858
8.82703e-08
4.64149e-06
9.4131e-07
0.0610917
2.12566e-07
3.37587e-05
3.38686e-08
9.6333e-07
0.000146485
2.59511e-07
6.11526e-05
6.7886e-08
2.30077e-08
1.21373e-05
7.35942e-07
6.90629e-07
1.91508e-07
1.80823e-07
1.47382e-06
3.50618e-07
7.22671e-09
1.03571e-08
0.0380622
0.0206199
6.36163e-08
0.0426488
1.77022e-08
2.93699e-08
2.05254e-05
2.008e-08
8.29809e-09
0.0198434
4.09502e-08
2.19913e-08
0.000329155
6.42885e-09
1.77655e-08
1.08009e-05
0.0509873
1.23283e-07
0.0205716
5.01309e-08
1.53032e-06
0.0254319
2.48022e-06
0.000436895
7.18914e-09
2.97917e-08
5.87216e-07
4.97751e-08
0.112149
0.0230581
5.9285e-05
5.93821e-08
0.0256891
7.87188e-09
1.59704e-08
3.58422e-08
0.0567931
0.000904994
1.12504e-07
8.58065e-09
5.74217e-07
0.02672
0.000480072
2.83856e-07
0.00013015
0.0591854
0.0435468
2.02498e-05
0.0438054
0.000483176
0.0237102
2.25414e-05
0.0347974
0.000185678
1.74208e-06
8.68095e-07
7.63042e-07
0.000248765
0.000482462
5.51041e-09
1.07847e-06
1.11737e-07
1.35327e-05
3.57536e-06
1.03505e-06
3.54888e-06
0.00015346
1.39742e-07
6.56137e-06
2.02331e-07
6.96811e-09
1.0431e-07
2.9174e-08
2.8598e-06
9.23231e-09
4.2684e-08
5.09446e-08
5.68412e-06
2.35317e-05
1.22945e-08
5.21573e-08
9.34396e-08
1.70793e-07
5.86915e-07
0.000687179
0.00110257
6.74081e-05
7.65652e-08
9.84945e-06
3.01088e-06
0.0257128
1.76948e-05
6.95137e-06
2.11795e-07
4.97359e-07
1.4986e-06
0.000121949
6.31675e-05
0.0935372
0.0372791
3.28096e-08
0.000436238
0.000159665
4.69983e-08
6.22428e-07
4.61909e-06
3.5344e-08
7.80596e-07
2.37127e-06
0.0345239
8.79202e-09
2.69298e-05
3.79035e-08
0.0246399
2.98058e-05
0.0197042
1.0809e-05
3.63401e-08
3.828e-09
1.05819e-08
1.44648e-05
1.40454e-05
1.11075e-06
3.7176e-06
2.65246e-07
0.000297405
0.000155041
2.04704e-08
6.3954e-05
2.36921e-05
1.85239e-05
4.95684e-05
0.0014858
2.29429e-06
0.0524138
4.2224e-08
2.17142e-06
0.0212695
2.65238e-08
9.30204e-05
0.00387278
3.87296e-08
4.68832e-05
6.26184e-08
1.37852e-07
1.2136e-06
1.7966e-06
2.28131e-08
8.27523e-09
4.24731e-07
2.10612e-08
2.9412e-09
6.74483e-05
8.63815e-09
1.6672e-08
1.22647e-05
2.06386e-08
5.14596e-08
2.34013e-07
8.30859e-05
1.54349e-07
8.70629e-05
1.87659e-07
4.08797e-08
1.23946e-05
3.60409e-05
9.82528e-05
0.0218256
4.21359e-05
6.7066e-06
1.254e-06
0.166338
0.161819
3.50547e-08
6.11102e-06
3.1182e-08
0.0232804
0.0211114
0.000214376
0.0457352
0.0379891
3.78207e-06
1.30259e-08
2.94755e-05
6.09182e-08