/*--------------------------------*- C++ -*----------------------------------*\
  =========                 |
  \\      /  F ield         | OpenFOAM: The Open Source CFD Toolbox
   \\    /   O peration     | Website:  https://openfoam.org
    \\  /    A nd           | Version:  10
     \\/     M anipulation  |
\*---------------------------------------------------------------------------*/
FoamFile
{
    format      ascii;
    class       volScalarField;
    location    "4.5";
    object      SgRate;
}
// * * * * * * * * * * * * * * * * * * * * * * * * * * * * * * * * * * * * * //

dimensions      [1 -1 -3 -1 0 0 0];

internalField   nonuniform List<scalar> 
111485
(
1.11974e-08
9.63533e-06
6.26576e-06
1.83038e-08
2.10881e-06
1.98229e-08
2.78174e-06
3.37685e-08
1.77297e-06
8.64935e-07
5.34562e-06
1.84086e-07
1.76841e-06
0.152819
1.13242e-06
6.36767e-06
0.113352
2.39171
2.45798e-07
2.89883e-08
0.0206405
7.33788e-09
8.12917e-07
3.65198e-06
1.10784e-05
2.28561e-08
3.27861e-07
7.45772e-08
5.28545e-07
0.0267478
0.060449
6.66222e-08
1.74132e-07
6.73492e-07
0.00904476
4.65196e-05
0.0991326
0.111957
0.00130946
2.08859e-07
0.0220483
5.04948e-07
8.70348e-07
0.00269135
3.77554e-05
1.21246e-06
7.31985e-06
6.39134e-07
2.18597e-06
2.07618e-07
5.55978e-07
8.67782e-06
2.88816e-07
0.00436453
6.09545e-07
1.34126e-07
8.46526e-07
3.33183e-08
1.1411e-05
1.46474e-07
1.92508e-07
1.89813e-07
1.15195e-05
0.176259
4.5248e-06
9.80964e-07
0.288339
5.87833e-07
2.98559e-06
1.07288e-05
3.43269e-05
2.67587e-06
6.48623e-06
9.65317e-06
3.44428e-08
2.38943e-08
1.74659e-08
2.7388e-07
2.54775e-08
1.58721e-05
0.148308
0.283812
5.34383e-08
8.45933e-09
2.4703e-06
5.76743e-06
0.075065
0.0262624
0.000203861
6.17104e-08
0.0010084
2.03827e-06
4.16344e-06
2.67851e-07
4.25695e-07
1.69203e-08
0.0149971
0.00743065
0.000817965
0.000339215
9.84622e-09
1.25984e-06
1.07589e-06
3.9894e-06
1.63128e-06
8.69736e-06
3.26951e-08
2.64435e-08
6.70488e-07
0.000353996
2.17694e-08
6.80691e-07
2.78871e-06
1.77469e-05
6.99511e-08
6.30282e-08
1.54009e-08
3.41213e-06
4.34757e-06
3.19991e-08
4.93188e-08
0.000103391
0.0381368
9.89237e-07
1.56078e-05
0.0161317
5.78692e-05
2.83709e-08
2.62553e-08
0.000267109
0.0107419
0.0136227
0.0261063
9.49336e-05
4.38134e-05
1.99994e-07
1.13033e-08
3.9884e-08
3.89369e-06
5.04011e-06
2.51074e-05
7.43266e-08
0.0971817
1.4475e-05
2.56751e-05
3.85153e-07
2.00489e-07
2.77262e-08
6.06954e-08
6.26213e-08
5.65436e-06
0.0158124
0.075167
1.74804e-06
2.35054e-05
5.54557e-08
1.14813e-06
1.9405e-05
0.000402446
3.02028e-06
1.06746e-08
6.64617e-08
9.67948e-06
4.31527e-05
3.70071e-05
2.02498e-07
0.00121209
0.0136977
0.000770319
0.000122355
1.6214e-08
8.82758e-09
0.120864
2.27943e-08
4.6955e-09
1.22246e-08
3.8519e-07
5.55713e-06
6.06969e-08
3.20321e-06
5.09155e-06
1.9854e-08
2.54135e-07
7.8659e-08
4.52464e-07
1.09902e-05
3.46551e-06
9.49682e-08
0.000209955
8.76346e-08
1.00044e-06
2.79674e-06
4.34841e-06
1.07951e-07
2.06825e-06
0.0361736
2.26299e-06
1.06509e-07
5.38688e-07
7.5165e-07
3.28479e-07
0.00092699
0.000282851
7.55794e-09
8.69187e-07
1.99151e-07
2.23774e-06
5.79435e-06
4.14912e-05
3.85086e-05
8.05935e-07
4.6119e-07
4.24144e-06
4.93327e-08
1.90179e-07
0.000164879
0.0148727
5.26727e-08
1.47317e-07
2.60146e-08
3.35719e-07
8.80444e-08
6.68691e-08
0.0541497
0.000150627
4.83826e-08
1.12484e-08
0.150269
0.00209122
1.29552e-05
4.84058e-05
1.79555e-08
1.85441e-08
0.0752386
2.02564e-05
1.0053e-05
0.0870107
3.77894e-08
4.19488e-06
2.06818e-08
4.15161e-08
1.26266e-08
2.41972e-08
2.39904e-06
0.000833101
2.24791e-08
3.9193e-06
3.42579e-07
0.00038448
0.0704747
8.86983e-06
2.15735e-08
3.4108e-08
3.93628e-09
0.000104938
7.90588e-05
2.04053e-07
3.40825e-05
0.0539204
4.48279e-08
1.36932e-08
6.70436e-08
7.0761e-07
2.51865e-08
1.86039e-07
5.04481e-09
2.26418e-08
2.68662e-07
0.0959807
1.32496e-06
3.13287e-06
9.34832e-08
0.0937102
2.09959e-06
1.81879e-07
0.00096415
2.26156e-08
9.97906e-08
2.76364e-07
2.39492e-08
0.0654873
1.80344e-08
2.12522e-05
1.65482e-08
2.16682e-08
0.116137
0.141876
1.71973e-07
7.25016e-05
2.18334e-05
5.32742e-07
3.92082e-07
0.00055185
1.68151e-07
1.88295e-06
3.53842e-08
0.00019366
0.000150564
0.238197
7.68461e-07
0.18073
3.29633e-08
0.0434945
6.95387e-08
1.70181e-07
2.03481e-08
8.53177e-08
0.0137539
5.13321e-08
2.2077e-07
1.41492e-06
1.65054e-05
5.61106e-08
1.63133e-05
2.03859e-08
1.56736e-08
5.60428e-07
0.00233978
0.135984
0.187189
0.000313952
3.37492e-08
2.08752e-08
6.38847e-08
4.62458e-05
4.40351e-07
2.31429e-07
1.04589e-06
6.39659e-08
3.953e-05
0.0337258
0.111443
3.3322e-08
5.49642e-07
2.99876e-07
0.0243675
2.64469e-05
4.87169e-07
1.89014e-07
1.0183e-07
0.00712271
9.84175e-09
0.0789614
0.000256185
1.55618e-07
1.20362e-07
0.000236238
5.6761e-08
0.0198104
6.70682e-08
3.00273e-07
0.00622646
0.0143782
9.53441e-06
5.45504e-06
4.83896e-08
4.55731e-07
3.26784e-07
1.1148e-06
0.18841
6.38416e-06
8.04917e-08
0.0268088
5.73485e-06
7.68219e-08
2.83603e-07
1.70438e-07
0.0263021
0.0141797
0.0254565
0.0251293
7.93733e-08
1.43322e-08
9.06911e-08
2.15573e-07
2.84904e-08
1.48165e-06
1.93116e-07
7.87143e-06
2.44807e-06
2.59105e-05
2.41117e-07
0.0599414
2.00024e-07
4.60867e-08
2.28438e-05
4.16595e-07
0.00773522
3.26888e-07
3.88539e-06
0.124784
0.0154046
6.08631e-08
5.76969e-08
0.0802585
3.25278e-06
0.165321
7.21655e-08
0.0522306
1.00915e-06
1.55487e-08
0.000684091
1.64579e-05
3.28777e-08
0.0177759
6.40354e-07
4.68395e-07
2.93111e-07
7.91003e-08
0.000401015
1.56847e-08
2.11854e-06
1.101e-06
1.91734e-08
3.36522e-07
1.95219e-05
0.129839
2.91374e-05
9.06718e-09
4.44259e-05
0.00136691
5.31918e-05
0.00265999
0.01235
1.17443e-06
0.869135
2.77982e-05
0.105738
0.000366113
6.39535e-08
0.0311503
2.85465e-07
8.78038e-08
0.000744782
4.95644e-05
4.56712e-05
3.91761e-07
3.1136e-07
5.34722e-06
4.64403e-08
0.181963
5.59383e-07
1.85284e-05
0.00224926
4.74627e-05
0.000665297
6.04098e-08
0.134633
0.171169
3.87273e-08
1.02311e-05
0.000114965
5.42302e-05
1.60853e-08
1.39582e-05
5.54983e-09
0.158893
3.47495e-05
4.23222e-06
2.67362e-05
0.000306412
1.64865e-07
7.46703e-07
3.74708e-07
1.71887e-05
2.73606e-07
3.36918e-07
0.0290699
2.03419e-05
2.85189e-08
4.11277e-09
0.000205965
5.24742e-08
6.22593e-07
0.000166156
2.33627e-08
3.39793e-05
8.6249e-08
0.041188
1.06735e-07
9.46476e-07
2.65314e-08
5.12907e-05
2.01864e-07
0.128504
5.35842e-06
0.125354
5.23482e-08
0.000378061
1.16484e-06
2.69661e-08
0.190764
0.0743212
6.78986e-06
0.0187354
1.74251e-05
3.618e-07
6.19107e-06
1.31828e-07
2.01523e-05
0.148998
3.27298e-08
8.16697e-07
5.62571e-05
5.05643e-06
0.029872
1.91919e-06
6.31537e-05
1.06123e-06
3.77166e-07
0.000366761
0.0413961
5.39707e-06
1.22816e-08
1.06545e-06
1.80257e-06
2.34288e-06
6.37737e-07
1.10596e-05
1.50705e-08
0.000914585
1.54686e-07
1.29314e-07
1.70662e-07
1.99815e-05
1.34008e-08
3.32259e-06
4.21863e-08
2.11323e-06
6.42912e-09
0.0613177
0.0747515
5.68788e-07
1.35863e-07
0.0330277
0.0523382
1.57425e-08
2.15451e-07
3.76291e-06
1.67101e-07
2.52025e-05
9.60409e-06
3.7197e-06
0.0236671
3.59832e-07
3.06321e-08
2.45396e-05
0.0145985
2.45686e-05
1.61217e-06
6.18779e-06
5.61455e-06
1.74088e-07
6.35557e-07
1.02012e-05
1.46115e-05
1.61397e-08
0.0684028
0.046768
1.65732e-05
6.76057e-07
0.00598924
1.1326e-05
0.000162665
0.00272424
0.00019911
2.07239e-06
3.21615e-05
3.62191e-06
8.13548e-06
0.0588739
0.000946404
3.95637e-05
0.00191992
0.66468
2.97063e-08
1.61114e-05
2.17091e-06
2.1425e-05
2.91296e-08
0.00354497
0.00148523
0.000240908
9.06188e-05
1.07255e-05
5.77286e-07
1.42725e-07
0.000106444
9.40955e-07
8.27448e-08
9.91285e-08
1.20785e-08
4.55527e-08
5.55069e-06
1.01775e-07
0.0192918
5.13815e-06
1.73377e-08
0.0540041
0.173909
3.25654e-05
3.91401e-08
0.0206897
5.19347e-08
8.66746e-06
2.0102e-07
1.69951e-08
2.3758e-05
6.34211e-06
0.0629814
1.0641e-05
1.49208e-08
1.52063e-06
0.0815244
0.0749684
1.9774e-06
0.0751406
0.00120048
0.112774
0.0210284
6.8676e-07
6.80529e-06
3.02371e-06
4.92825e-07
0.000180022
9.68581e-07
1.34938e-05
1.30176e-06
9.80623e-07
4.43487e-07
1.07793e-06
0.0848111
1.78183e-05
1.66827e-06
2.29501e-06
0.000353713
2.22523e-08
3.17932e-07
2.36824e-06
2.00314e-06
5.72578e-06
4.23452e-08
1.98495e-06
1.28574e-06
9.83508e-06
9.75202e-05
5.22209e-06
6.61383e-06
9.09006e-09
3.23169e-07
9.30169e-06
2.67644e-06
2.57617e-08
0.0393798
6.29181e-08
0.0819995
3.03317e-05
0.00626701
1.2496e-07
0.0149068
6.91734e-07
5.23203e-06
1.43429e-08
3.18333e-06
1.85582e-07
2.87144e-08
8.48434e-07
0.149964
3.31745e-05
1.6729e-05
0.0228615
6.04657e-08
5.33343e-09
0.118971
2.17829e-08
4.64332e-05
2.75887e-07
6.56981e-05
3.97508e-08
3.09975e-06
0.000216876
0.0861993
5.72034e-08
4.53001e-08
3.80478e-07
4.48157e-08
6.91586e-05
1.3329e-07
0.0319517
6.86865e-08
2.1846e-08
1.8803e-07
0.0230701
2.81165e-06
2.53758e-05
1.8465e-08
4.13074
0.144609
0.094225
6.02264e-08
1.4168e-08
1.92708e-06
0.00168117
2.22345e-05
0.000314142
0.145796
6.78925e-05
4.92799e-08
0.0323049
6.96375e-06
0.00010724
2.40558e-08
4.47264e-07
4.33975e-08
2.00585e-08
4.22816e-08
7.1974e-08
2.00709e-06
2.30495e-08
2.32704e-08
4.31945e-07
1.39925e-07
1.31166e-08
9.89086e-08
3.98297e-07
3.012e-05
2.36594e-09
3.85526e-08
8.89801e-08
4.89142e-08
1.22014e-08
1.61683e-08
1.47022e-05
2.15136e-07
1.02448e-08
1.80862e-07
6.62059e-09
4.31232e-08
1.37455e-08
3.31201e-06
5.60644e-08
3.4511e-08
0.00605672
1.03651e-08
2.37303e-07
8.73294e-05
8.9041e-07
1.39893e-08
0.896443
6.71092e-08
0.134204
3.30779e-05
1.14908e-05
0.112076
4.50709e-05
2.23544e-07
4.45352e-05
4.68191e-08
9.58322e-06
0.0488973
0.608271
1.92083e-08
5.04558e-08
7.53063e-06
4.10118e-05
4.20768e-05
4.79894e-05
1.92341e-08
1.86927e-08
1.9834e-08
2.12168e-05
2.5878e-06
1.91781e-06
2.07272e-05
3.99341e-08
1.59455e-08
1.17774e-07
2.70839e-08
0.0170204
6.70691e-06
5.15794e-09
7.5024e-09
2.90886e-05
0.000118713
8.92535e-07
1.70536e-07
0.0226073
4.00672e-08
3.14184e-08
0.0324875
2.52051e-08
0.0386095
2.32204e-05
0.0188228
0.000322057
5.45214e-08
1.86288e-05
3.64902e-08
0.0254416
9.48367e-06
0.000731686
0.0849298
0.000135256
1.81243e-08
4.16631e-07
6.46321e-07
0.26156
0.0849346
2.73982e-08
0.126623
2.45028e-08
8.843e-05
1.21485e-07
0.000433485
0.000544853
4.17732e-06
2.76711e-07
0.00207276
3.35784e-07
6.6763e-08
0.0231552
2.28961e-08
3.67951e-07
1.28171e-07
7.61392e-08
1.26011e-07
0.114889
2.96856e-07
2.47991e-07
0.00209228
1.06755e-08
2.59472e-07
0.110876
3.59155e-08
0.102043
0.179764
0.000594381
5.05189e-06
7.28166e-07
3.0539e-08
4.50727e-05
0.00181684
0.000608683
9.99212e-05
2.22948e-06
0.0230951
0.000208648
6.34363e-09
8.1509e-05
0.000126816
0.000651528
0.000251949
0.000458629
9.50907e-05
1.44222e-08
3.70198e-05
1.92536e-07
2.04476e-07
0.00116006
0.182349
1.30683e-07
1.43094e-08
0.00173164
0.00174668
1.09563e-08
0.000308154
1.40775e-07
4.58974e-09
4.75054e-08
2.31213e-07
1.81844e-06
1.21717e-07
3.79718e-05
0.0263387
3.11897e-08
5.78028e-07
0.00242703
0.0610282
1.32725e-05
9.37581e-08
0.0165207
2.86878e-08
6.95667e-05
6.52431e-09
2.38816e-08
0.000319357
0.0699725
1.47529e-07
1.51981e-08
1.51666e-07
0.0181493
1.16406e-08
0.0117484
6.45912e-08
0.000586569
7.7042e-09
0.00100225
7.05592e-07
1.92779e-08
3.32188e-07
2.46864e-07
0.000736436
5.17378e-07
1.5727e-08
1.10505e-06
0.00233738
0.0274876
0.000418724
0.000284345
0.000542633
1.15165e-07
0.000747276
0.00025977
2.25476e-07
1.48066e-06
0.000117609
6.32884e-06
2.3843e-07
4.25779e-06
7.84131e-05
4.61335e-08
1.60712e-07
8.10994e-08
0.00122223
0.0387978
5.93591e-09
4.20337e-08
0.0310705
6.6844e-05
3.88719e-05
3.39083e-08
3.48355e-07
5.0467e-08
3.73791e-07
1.61249e-05
1.48573e-07
4.46599e-07
7.70763e-06
1.53043e-05
0.000136622
8.76863e-06
9.77498e-08
2.32262e-06
1.78695e-08
1.26139e-07
6.487e-06
0.349582
2.74043e-08
3.10322e-07
2.15204e-08
3.26819e-08
2.66117e-05
2.44944e-07
1.33548e-05
0.000447847
1.89713e-05
3.70785e-08
0.00162726
0.000839357
3.62325e-05
0.000149872
5.33585e-08
6.47597e-05
1.57254e-06
0.0648504
0.000881087
0.000160584
7.34764e-08
3.81419e-09
1.99907e-08
0.100979
0.037961
0.00755491
2.3626e-08
0.172659
4.66373e-08
0.0895698
2.90671e-05
3.90874e-07
1.27409e-08
6.73972e-07
4.46109e-07
0.0367266
9.42595e-07
6.14826e-05
0.16595
0.00678264
4.06272e-05
2.07833e-05
4.06199e-05
3.19496e-05
8.61885e-09
6.64439e-08
0.0243136
1.18592e-05
2.58306e-08
1.73548e-07
0.00033298
1.52396e-07
0.00527348
0.256666
1.15904e-06
0.00575033
1.7308e-08
2.36069e-07
1.84858e-07
0.188398
1.81971e-08
0.0638947
0.0028703
0.000883109
0.0109168
0.00819691
0.000509161
1.47437e-06
9.95143e-05
9.72472e-07
8.98071e-08
4.68259e-08
1.2115e-06
4.47548e-05
1.18929e-06
0.0358795
1.58447e-07
0.00721771
0.0117487
2.27536e-08
0.000204536
9.14757e-08
0.00253162
0.000421946
6.11379e-08
2.27486e-08
0.000171027
3.30412e-07
5.41046e-09
0.0976966
7.25735e-08
0.0123994
1.07964e-07
0.0237159
4.918e-06
2.53931e-07
8.58129e-08
3.01841e-06
0.0458871
6.80274e-09
0.0872634
4.23279e-07
6.90822e-09
0.0036206
4.39646e-07
2.54951e-08
0.00813998
0.000360442
0.00698292
4.95998e-08
6.33069e-07
6.63212e-08
2.8436e-06
2.74197e-05
0.0190747
4.51673e-06
0.000470718
3.69544e-05
0.000583711
1.84335e-05
1.67004e-06
4.79066e-07
1.18254e-07
1.15261e-08
3.94512e-07
1.02591e-06
0.024455
0.0207495
0.0243913
2.05567e-08
2.12774e-07
7.08606e-08
3.91708e-05
0.00323982
2.21864e-08
0.0163651
0.000304696
2.86264e-05
1.36189e-08
0.0038557
0.00430958
1.82577e-05
0.000254025
2.11906e-07
0.000478547
9.88173e-07
1.06699e-06
9.3883e-08
1.54142e-08
0.000144411
2.26703e-06
0.000511577
2.94658e-07
0.0241135
0.000265716
4.64268e-07
1.68485e-08
0.117065
1.13277e-06
0.0310176
0.145235
0.0116882
0.00121521
3.65027e-06
5.2311e-08
7.55915e-08
1.33849e-07
4.60851e-05
1.85114e-06
0.017802
0.0307512
6.80506e-06
9.09061e-08
0.000165195
0.0214278
1.52469e-05
0.000625907
2.55812
0.0224046
0.0770725
0.0260956
0.0400352
2.44858e-08
0.00109373
3.3922e-07
3.59216e-08
1.84191e-07
8.90707e-08
5.25142e-06
4.92958e-08
2.26097e-08
4.73773e-05
9.18427e-08
1.25503e-08
6.3066e-07
5.66312e-08
0.0304564
3.60428e-07
0.00852678
0.039367
0.149393
6.21622e-08
0.105466
8.73109e-05
0.199388
5.94839e-08
7.04065e-08
6.72291e-08
7.88177e-06
0.139601
4.95248e-08
0.0439295
3.91099e-08
1.08178e-07
8.64677e-06
3.74525e-08
5.29817e-07
1.37348e-07
0.0400608
1.92179e-08
5.36664e-08
6.45569e-08
3.56525e-07
8.40749e-09
0.025288
1.46893e-05
6.23526e-07
0.000215439
5.8089e-06
2.33846e-07
0.000179893
3.83793e-07
2.47328e-08
7.35505e-08
9.58843e-08
0.149486
0.0226609
0.0231237
1.37246e-07
6.08023e-08
2.49388e-08
0.107181
1.09732e-07
1.41264e-06
0.223311
7.99249e-08
4.52242e-09
0.0183264
2.42449e-05
1.29189e-08
3.20071e-07
0.00496884
3.23042e-08
0.0934416
2.42673e-08
0.0225514
1.50967e-05
0.0181477
1.79949e-08
5.27976e-09
6.44625e-07
3.78203e-08
1.24961e-07
2.33833e-06
5.94846e-09
4.48511e-09
1.15473e-05
0.0415999
1.52951e-08
5.79483e-06
3.78761e-08
3.84953e-05
4.96543e-08
0.0249413
1.2261e-06
5.87883e-06
7.55585e-06
1.42275e-07
1.18701e-05
8.69406e-07
2.14252e-06
3.55563e-08
2.58844e-08
3.18041e-06
4.69328e-08
3.04391e-05
1.67162e-05
2.2423e-08
3.68509e-08
2.18243e-05
0.000299447
0.158869
5.06495e-08
0.0602487
9.68142e-07
0.000195808
8.29185e-05
4.13058e-06
4.7732e-05
0.0413018
6.84553e-07
2.86059e-05
0.000697546
0.0349539
6.31439e-07
2.65737e-08
0.000182337
3.63399e-06
0.0215217
2.06254e-07
5.04521e-06
2.66723e-06
5.42588e-08
0.126599
1.17275e-08
7.20737e-08
3.98333e-07
8.40319e-06
0.201536
0.0296677
3.77711e-07
2.03304e-08
1.01678e-08
5.6835e-08
6.41217e-08
3.10937e-07
4.07804e-08
1.26622e-08
3.39577e-08
2.97367e-09
1.11376e-07
0.0324419
0.0193197
3.30329e-08
7.56431e-06
1.29274e-08
1.60936e-08
4.3547e-08
0.0189033
0.0457807
3.57316e-06
4.60583e-08
7.53203e-09
4.08574e-07
3.23945e-07
2.32585e-06
7.26176e-08
0.227596
2.73857e-07
2.01497e-06
2.376e-07
0.00010847
2.42531e-06
0.00600549
6.02148e-07
9.23182e-09
0.000985674
0.00153332
1.86887e-08
0.00424813
5.57103e-07
9.58677e-07
2.92582e-06
4.12381e-07
2.29303e-06
1.5052e-07
0.173062
4.30044e-07
8.46195e-06
0.0325411
4.66833e-06
0.000220341
3.17289e-06
8.96705e-08
2.40204e-07
4.37395e-06
2.60863e-07
1.01498e-05
2.33139e-06
5.18191e-06
3.6366e-07
6.95965e-07
2.19477e-07
9.11194e-09
5.4356e-08
2.61721e-08
5.81919e-09
1.60505e-07
1.52743e-07
1.02149e-06
3.61665e-08
7.07999e-09
1.25864e-07
8.83876e-06
5.5439e-08
4.03266e-08
2.87797e-07
4.32624e-07
7.19685e-08
0.000226224
9.49862e-07
0.147513
1.2891e-07
6.90671e-06
2.87987e-05
3.7741e-06
1.2843e-08
5.58438e-08
0.12508
2.18543e-07
1.69008e-08
1.41986e-06
0.122626
2.0593e-07
1.56914e-05
0.000274779
6.21437e-07
2.89961e-06
1.89981e-06
0.000196423
3.06736e-08
5.39891e-06
2.81982e-06
5.71825e-08
0.0319964
1.05516
0.124624
4.09682e-06
8.21748e-07
0.000663707
6.71992e-06
4.80336e-06
7.73236e-08
0.00392017
2.31028e-08
0.0599213
0.000202692
0.0338635
4.61158e-06
0.140822
1.64443e-08
1.86005e-07
1.46077e-07
2.65948e-06
6.43827e-06
1.83414e-06
9.46244e-07
5.57814e-08
4.60246e-06
3.2848e-08
1.03777e-08
6.11213e-09
0.774936
2.00591e-08
5.24682e-09
0.000221509
2.37977e-07
0.000548099
9.80393e-08
2.24254e-07
8.39166e-09
2.35228e-07
1.15655e-05
2.21207e-06
0.000117274
7.41434e-08
2.1189e-08
0.00178999
4.79343e-07
1.40177e-08
8.21657e-05
0.00259776
9.19444e-06
3.10218e-08
0.0791972
0.0483562
6.32299e-06
4.37e-07
2.42365e-08
0.000102799
5.05307e-08
9.13002e-08
1.60594e-08
1.0779e-05
1.9966e-05
1.53347e-05
0.100631
3.58049e-07
3.66957e-08
0.000129477
8.98906e-09
7.5933e-08
1.38192e-08
4.16413e-05
2.12637e-07
6.2189e-05
0.0954558
1.42453e-07
1.57057e-08
3.49829e-08
1.32073e-07
1.7225e-07
2.15308e-07
0.000278473
0.000660617
0.000206268
0.0282979
1.95913e-07
2.76616e-05
9.6192e-08
3.46194e-08
3.45679e-08
7.08429e-08
0.0544655
0.000248227
2.75046e-07
1.02953
1.21798e-06
0.010698
0.000223217
0.0726565
1.36815e-06
1.58861e-06
3.86084e-08
2.13478e-05
2.20202e-07
0.00431908
7.63614e-08
2.88438e-07
2.64862e-08
7.90778e-06
1.97061e-07
2.08529e-08
0.0297765
2.14994e-08
4.85041e-06
2.01224e-07
1.49995e-08
5.27941e-08
0.000322305
0.0768283
3.62944e-08
1.91952e-08
1.87128e-08
0.0799664
0.134812
2.28743e-07
0.0296127
2.12229e-06
7.58617e-09
4.26291e-06
7.56486e-08
1.01119e-07
2.28733e-08
0.00165635
0.0598501
0.195915
0.216342
1.6026e-07
6.34075e-08
1.27593e-07
0.131677
0.20687
1.62968e-08
0.113327
1.69912e-07
1.28792e-08
1.40805e-07
2.31582e-07
1.34708e-07
4.20687e-08
1.62324e-07
2.46742e-08
0.0752735
9.90493e-08
7.11727e-08
5.20015e-05
2.80619e-08
1.66484e-06
3.99279e-06
1.8729e-08
2.03234e-07
0.000331948
3.31913e-06
1.08625e-07
0.00338469
4.78806e-06
3.25612e-08
4.65079e-08
4.50028e-07
2.129e-08
1.22963e-08
0.00181458
6.85459e-08
5.09436e-07
1.51235e-08
4.97672e-07
3.50739e-07
0.000283631
1.71551e-08
1.86028e-06
0.0010166
1.06968e-06
3.14963e-05
7.56856e-08
2.74765e-06
0.0228859
0.000373027
0.195997
0.000921761
2.61796e-05
9.06414e-08
0.0341698
1.80575e-08
2.62067e-06
1.37188e-06
7.62968e-08
0.00386238
1.36016e-07
4.05662e-08
4.80177e-07
3.20491e-07
2.32083e-08
3.92188e-07
1.11122e-07
1.16958e-05
0.0399419
1.95049e-07
4.35818e-06
2.31743e-07
5.40466e-07
1.71855e-07
0.000135999
6.5897e-07
8.73421e-09
3.09182e-08
2.53453e-07
0.0246896
0.000106261
2.47024e-06
0.102112
1.61783e-08
1.86927e-08
3.1423e-07
1.72839e-08
1.41164e-05
7.16519e-08
1.15727e-05
3.36461e-07
4.99133e-07
3.821e-07
5.89575e-08
0.00134811
4.94973e-05
1.74295e-05
3.74756e-07
5.79876e-08
6.06839e-07
1.42627e-08
0.0002927
5.8828e-07
0.10789
5.23331e-06
2.82651e-08
1.0342e-07
0.000121653
8.67217e-08
0.000961044
1.15705e-07
0.00169513
0.128069
1.02052e-08
0.00017007
0.00086636
0.0236195
8.78884e-07
0.0263269
0.0461398
6.00062e-05
4.28016e-06
1.19389e-05
1.40897e-08
9.14642e-06
1.48071e-05
0.000182944
9.41794e-06
1.11835e-06
1.2593e-05
0.000238744
0.000179513
0.000298635
6.85679e-05
8.03168e-08
0.00148445
0.00948179
4.12025e-06
0.0033396
0.000138588
0.00011782
7.10574e-06
0.0023205
0.00013292
0.00144925
0.00322617
6.20618e-05
1.11727e-05
1.07529e-08
0.00084901
0.000212233
0.0371293
1.00063e-06
2.12319e-07
2.78922e-05
1.17957e-07
4.57643e-05
4.71325e-07
0.000200117
6.53629e-08
1.20902e-05
1.83905e-08
1.4274e-07
6.62037e-06
0.00173736
0.000796682
0.200966
0.00100379
8.73786e-07
9.92911e-08
0.000577395
5.10757e-06
0.0170598
0.0390788
7.0443e-08
0.00306233
5.9485e-07
2.58402e-08
5.45639e-08
0.000618475
2.86532e-07
0.0237346
1.32498e-07
3.53924e-08
3.96502e-05
3.23372e-05
3.99055e-08
0.287871
0.0219449
2.88066e-06
8.11366e-08
8.47994e-08
0.123021
0.0218502
8.64288e-08
0.000192482
1.89307e-06
0.000279006
9.07698e-07
0.0207923
6.96742e-06
0.000310095
1.50681e-07
0.000158056
0.0025507
4.46368e-07
0.00480414
1.49374e-06
6.07101e-07
7.9191e-07
2.30291e-06
1.70551e-05
2.5963e-08
2.13429e-07
0.0408964
3.72901e-08
3.65932e-08
8.29757e-05
3.11078e-08
5.1444e-05
2.00175e-05
0.0334019
2.90006e-06
0.136993
5.31281e-07
6.39421e-06
0.0221486
0.515396
4.59695e-09
7.43948e-07
0.015571
2.07166e-06
0.000114793
9.88803e-05
4.30914e-08
2.36466e-06
3.24864e-06
4.92831e-07
0.0646776
4.5609e-07
6.16636e-08
4.47523e-08
3.75114e-07
4.36994e-08
0.000210582
1.45492e-06
0.140773
3.94759e-05
1.91888e-05
2.52807e-05
3.11469e-05
2.89667e-07
5.15159e-07
1.67931e-08
2.27095e-07
1.95589e-05
1.16102e-05
0.000629477
7.6282e-08
2.56958e-07
9.22577e-07
1.84865e-07
1.02241e-08
1.31685e-07
3.30631e-08
0.00110724
1.67442e-05
7.33533e-06
4.65515e-08
9.9056e-09
0.000849025
2.51925e-08
1.6339e-08
5.4103e-09
7.39714e-08
0.170257
3.46705e-08
1.117e-05
3.73268e-05
6.60104e-06
2.21523e-07
2.53719e-07
4.22617e-05
2.64532e-06
7.5049e-08
1.25164e-05
1.77421e-08
8.77598e-09
3.38434e-09
4.52603e-05
1.14242e-07
0.174105
0.000284027
7.57983e-06
0.000986414
8.59708e-08
1.18642e-08
3.8475e-08
0.0328034
3.87183e-06
1.11469e-06
8.71336e-07
8.75059e-08
2.19133e-08
0.248435
4.44876e-06
9.83999e-05
2.29677e-05
2.05187e-08
0.0627332
1.1589e-07
2.14267e-07
5.33553e-07
6.27001e-07
4.46439e-07
5.02204e-08
3.02874e-06
9.82371e-07
0.000131301
1.38436e-06
6.17794e-09
0.000102646
3.03969e-07
0.086714
8.93411e-07
4.31136e-08
6.01665e-07
1.18601e-05
0.0336227
0.0164951
9.37974e-06
1.77287e-05
0.0502237
4.66434e-05
0.344467
0.0239587
2.22305e-06
2.15151e-08
0.0915707
0.0103369
6.61152e-06
1.53026e-05
2.59237e-08
1.54866e-05
0.000870448
1.10946e-07
5.37804e-06
0.000196466
5.27074e-09
0.0128513
1.7825e-08
1.73482e-05
0.288138
6.85559e-08
3.78858e-06
2.56462e-07
4.41619e-07
9.25795e-08
1.69075e-05
3.17058e-07
5.94149e-08
1.8817e-06
6.85761e-05
2.35966e-08
0.0129225
0.024388
3.09778e-08
2.50311e-08
5.35993e-09
0.000395687
6.01787e-06
3.37648e-06
3.18137e-08
9.88788e-08
7.21687e-05
3.16635e-05
2.12381e-05
3.13404e-05
0.206034
1.74842e-08
0.0828462
4.71293e-08
1.71528e-08
0.028418
4.91113e-07
1.97424e-08
0.0126651
1.28151e-08
3.71602e-07
6.66071e-07
3.7044e-07
5.64213e-07
2.01821e-08
2.53299e-08
2.38334e-08
1.15745e-05
0.0828781
0.120702
8.19015e-06
1.2273e-06
1.48296e-08
0.0308652
0.119037
0.00160737
0.150617
1.06813e-07
0.000516709
0.000122189
3.36641e-07
6.69866e-09
2.33284e-07
1.01777e-06
1.17228e-08
6.20484e-06
1.07965e-05
0.0332762
0.116425
1.44852e-06
2.05684
2.58353e-08
1.58992e-07
3.69917e-07
0.0191527
1.75837e-05
0.65026
1.16202e-05
2.84283e-06
1.78943e-08
3.60229e-08
7.64889e-06
0.0322486
1.4963e-08
0.104025
8.33284e-08
0.0689161
4.63483e-06
0.821695
3.62968e-08
2.53523e-08
4.36778e-08
4.05355e-08
5.72239e-07
0.000176753
3.02117e-08
0.0206531
2.55397e-08
0.0898992
1.47025e-08
5.28e-07
7.99268e-07
6.21003e-06
7.1187e-06
4.76269e-08
2.81817e-08
9.91689e-08
6.12572e-07
4.53102e-06
0.0294255
0.0284881
8.47559e-08
3.87817e-07
3.25987e-08
1.99186e-08
2.21022e-08
6.55323e-07
0.000121346
1.13768e-07
2.89898e-08
1.46969e-08
0.0121813
0.00227676
1.88863e-05
0.0223965
1.58852e-07
0.176976
1.30703e-06
1.70535e-07
1.52771e-08
1.42028e-07
0.0296632
7.93945e-09
3.62983e-06
5.07972e-08
0.0156135
2.27323e-05
3.95399e-05
7.61261e-05
1.89134e-05
4.39034e-08
4.89572e-08
0.254477
0.2109
1.84596e-05
0.00011679
3.52088e-07
3.77783e-05
5.6838e-05
1.66542e-06
1.7962e-06
0.00018958
4.24793e-08
0.000233008
0.0217196
5.68792e-07
1.42399e-07
4.52872e-05
5.56702e-07
0.0189138
0.0991148
8.4805e-06
1.65777e-08
0.00642786
2.43977e-07
6.99923e-06
0.00046497
2.36323e-05
1.46136e-08
0.000465103
2.31817e-05
0.0238918
4.3424e-06
6.14699e-05
1.87807e-05
3.65617e-06
1.28834e-08
8.72661e-05
3.20675e-07
1.45482e-05
2.80557e-07
5.06113e-06
6.64244e-05
0.47892
1.9332e-08
6.23369e-08
7.72171e-08
2.12162e-08
1.11655e-07
0.0119395
9.5051e-05
0.00916921
6.86578e-07
0.000106729
0.00471781
2.09568e-08
2.82817e-06
2.95847e-08
2.67022e-07
3.92855e-08
8.4352e-06
0.127256
1.37144e-05
1.31708e-07
2.4852e-08
6.00451e-07
1.3339e-07
1.75702e-08
0.111261
4.88448e-06
0.0461742
0.0643784
0.307364
4.34471e-09
0.194002
1.18447
2.04104
0.684441
1.4189e-08
3.40633e-08
8.93865e-07
2.49196e-06
3.69345e-05
0.00252158
0.0214837
2.18641e-06
1.53934e-05
2.63136e-06
0.0413938
2.55195e-08
2.28692e-08
5.05545e-05
0.0556047
0.0144799
1.82608e-08
0.0634331
6.88402e-05
1.47392e-07
6.66703e-05
1.09214e-06
1.13991e-05
1.17795e-06
1.39472e-05
1.07804e-08
1.60131e-07
0.00114378
5.07275e-06
6.35427e-08
0.000933104
8.32447e-06
6.22957e-06
0.0017166
4.11731e-08
2.10466e-06
3.06855e-05
9.73567e-06
6.37014e-07
0.183942
2.45571e-08
5.38357e-07
3.65128e-08
0.0626651
0.0640858
1.12052e-06
7.45497e-07
0.00374848
0.0305253
1.3816e-08
4.68525e-07
1.0018e-07
0.1881
7.2008e-07
0.125399
3.39897e-06
0.0119377
0.00192141
8.56315e-08
0.0592199
6.53382e-07
0.219564
3.26406e-08
0.00131575
0.00214699
9.80129e-08
1.16777e-07
7.43083e-07
0.0905985
5.72482e-08
0.0220551
1.00954e-07
5.72817e-06
7.1728e-07
4.12627e-07
6.06986e-07
2.88079e-06
0.141474
3.46623e-06
0.000125154
0.040451
6.52743e-07
0.023875
3.89749e-07
2.34412e-06
1.51727e-06
1.64378e-06
9.14291e-09
2.64196e-08
4.02843e-08
6.79809e-07
7.35912e-08
0.0342096
1.24462e-05
4.25553e-07
1.27107e-08
4.70154e-07
0.269574
2.02499e-05
2.80586e-06
3.52135e-06
6.12473e-06
1.62603e-07
1.15455e-07
1.1615e-05
2.59469e-09
2.00032e-06
0.000289092
1.44075e-07
2.92748e-08
3.44468e-08
0.299714
3.80824e-08
9.79531e-07
2.17544e-08
4.49133e-07
0.000564053
1.6746e-07
3.28071e-08
0.0253911
1.21459e-08
6.16256e-09
0.00150803
0.0313397
1.96099e-07
9.42962e-07
1.9696e-08
3.30105e-08
2.94635e-06
5.15933e-06
3.23903e-06
1.47341e-08
4.12732e-07
2.41362e-07
0.123579
5.06226e-08
2.79493e-08
5.30159e-08
1.86316e-06
0.123628
6.25396e-07
2.08065e-08
4.19869e-06
5.95347e-08
5.58059e-08
5.95788e-06
0.0238989
5.29082e-08
8.7391e-08
2.08958e-08
1.64147e-07
1.00557e-05
8.32222e-09
1.32828e-05
3.8016e-09
0.0542245
0.000182145
8.68186e-08
3.28298e-08
0.0375359
3.01407e-08
0.0309071
1.19657e-07
2.39964e-08
5.74416e-06
7.63561e-07
0.0236463
1.12154e-07
0.0276922
0.0336946
0.559077
3.16071e-08
0.0223931
6.24837e-06
3.0417e-08
6.04317e-08
0.0720366
0.0205557
0.023484
3.78792e-09
3.35233e-08
3.14946e-08
0.00313676
5.85648e-07
1.88186e-06
9.21242e-05
2.14302e-05
2.56612e-07
1.41228e-08
3.00096e-06
0.000159638
1.1217e-08
6.89126e-09
7.94666e-06
1.1056e-06
9.54863e-09
2.03814e-05
5.50626e-05
3.07824e-08
1.59159e-07
3.41388e-08
7.90346e-07
7.69555e-08
0.000108294
5.21197e-06
0.0236044
6.35774e-05
0.000246955
1.63402e-08
3.05641e-07
1.66077e-08
2.97625e-08
2.24118e-08
1.47372e-06
7.41987e-09
0.000390483
0.210699
0.045844
4.36897e-05
1.05229e-08
0.000145051
0.0280211
0.102757
1.64182e-07
0.000142628
8.63663e-07
2.03121e-07
2.75099e-07
2.54138e-08
4.60467e-08
1.63294e-05
1.10936e-07
4.67384e-08
4.65539e-08
1.11037e-07
0.729193
0.0300245
0.0804639
4.44726e-08
2.04663e-08
0.02331
2.71468e-08
9.77314e-09
1.28003e-07
0.000372411
4.41752e-08
2.20418e-06
5.51424e-08
5.7266e-08
0.000574736
0.080662
0.0358599
2.90488e-08
0.0382858
8.82709e-08
4.64149e-06
0.203099
0.0610917
2.12566e-07
3.37587e-05
3.38687e-08
9.6333e-07
0.000148258
2.59511e-07
0.000246458
6.78875e-08
2.30078e-08
1.2139e-05
7.35944e-07
6.9063e-07
1.91508e-07
1.80824e-07
1.47383e-06
3.50618e-07
7.22674e-09
1.03578e-08
0.0380622
0.0206199
6.36183e-08
0.0426488
1.77028e-08
2.93703e-08
0.0661451
2.00804e-08
8.29814e-09
0.0198434
4.09509e-08
2.19917e-08
1.05821
6.42916e-09
1.77658e-08
1.08009e-05
0.0509896
1.23283e-07
0.0205716
5.01309e-08
1.53033e-06
0.0254319
2.48022e-06
0.000440625
7.18915e-09
2.97947e-08
5.87217e-07
4.97753e-08
0.170487
0.0230581
0.000240443
5.93822e-08
0.0256891
7.87205e-09
1.59713e-08
3.58424e-08
0.0567977
0.000909151
1.12508e-07
8.58121e-09
5.74218e-07
0.02672
0.000480709
2.8386e-07
0.000130328
0.0591894
0.0435468
2.02498e-05
0.0438054
0.00048322
0.0237102
2.25414e-05
0.0347976
0.000185678
1.80137e-06
8.68095e-07
0.0111938
0.000248765
0.000484404
5.51215e-09
1.07847e-06
1.11737e-07
1.35327e-05
0.0126
1.03505e-06
3.54888e-06
0.000161307
1.39743e-07
0.0055258
2.02332e-07
6.96817e-09
1.04312e-07
2.91748e-08
2.8598e-06
9.23239e-09
4.26844e-08
5.09446e-08
0.266562
2.35317e-05
1.22945e-08
5.21574e-08
9.34398e-08
1.70793e-07
5.86918e-07
0.792275
0.00110566
7.92894e-05
7.65658e-08
9.84945e-06
3.01088e-06
0.0257128
1.76948e-05
6.95137e-06
2.11795e-07
4.97359e-07
1.49861e-06
0.000121949
6.31675e-05
0.0935372
0.0372791
3.28097e-08
0.000544412
0.00016063
4.69984e-08
6.22428e-07
4.6191e-06
3.53453e-08
7.80596e-07
0.108898
0.0345239
8.79205e-09
2.70699e-05
3.79037e-08
0.0246399
2.98058e-05
0.0197042
1.10257e-05
3.63421e-08
3.82819e-09
1.05823e-08
1.44648e-05
1.43029e-05
0.171347
0.0416916
2.65246e-07
0.0137373
0.0271252
2.04705e-08
6.3954e-05
0.118424
1.8689e-05
4.95684e-05
0.0014862
2.29429e-06
0.0524138
4.22244e-08
0.190317
0.0212695
2.65239e-08
0.0106783
0.00387295
3.87297e-08
5.34182e-05
6.26195e-08
1.37852e-07
0.148402
0.0033501
2.28132e-08
8.27527e-09
4.24731e-07
2.10613e-08
2.94186e-09
6.74483e-05
8.63827e-09
1.66721e-08
1.3298e-05
2.06386e-08
5.14597e-08
2.34013e-07
0.0141061
1.54349e-07
8.70629e-05
1.8766e-07
4.08799e-08
1.23946e-05
3.60409e-05
0.0055503
0.0218256
4.21359e-05
6.7066e-06
1.254e-06
0.166338
0.16182
3.50572e-08
6.11102e-06
3.11825e-08
0.0232804
0.0211114
0.000214376
0.0457352
0.0379891
3.78207e-06
1.30263e-08
2.94755e-05
6.09184e-08
7.69882e-08
3.15255e-07
8.99001e-06
1.06598e-08
8.86607e-06
0.0296863
8.34808e-09
4.8893e-08
0.199226
9.17934e-09
0.0087322
4.39017e-06
9.79139e-06
4.86852e-09
0.000407493
8.10411e-05
0.126682
4.27519e-08
0.0121176
0.000100164
3.77282e-06
0.000141128
0.0381288
0.000141064
0.000118539
1.71464e-07
0.0413797
0.000172984
0.000694124