/*--------------------------------*- C++ -*----------------------------------*\
  =========                 |
  \\      /  F ield         | OpenFOAM: The Open Source CFD Toolbox
   \\    /   O peration     | Website:  https://openfoam.org
    \\  /    A nd           | Version:  10
     \\/     M anipulation  |
\*---------------------------------------------------------------------------*/
FoamFile
{
    format      ascii;
    class       volScalarField;
    location    "4.5";
    object      SgT;
}
// * * * * * * * * * * * * * * * * * * * * * * * * * * * * * * * * * * * * * //

dimensions      [1 -1 -3 -1 0 0 0];

internalField   nonuniform List<scalar> 
111485
(
2.01974e-12
6.68746e-13
1.21218e-12
9.72371e-14
6.83306e-13
4.34444e-15
7.50937e-13
7.51244e-13
5.00017e-14
1.33483e-10
3.68535e-13
6.65473e-13
1.42499e-15
3.12534e-14
3.25665e-13
8.84255e-13
1.18377e-13
2.3911
2.51914e-13
1.48018e-12
7.32679e-14
2.03999e-14
1.56154e-12
1.18906e-12
2.80522e-13
6.59554e-13
3.90878e-11
9.43104e-13
1.0828e-12
2.3308e-14
0.0604471
5.3155e-13
2.83649e-13
2.97131e-13
0.00865204
5.90218e-13
0.0266789
2.8632e-13
7.60982e-08
1.83421e-12
4.66996e-14
1.67941e-09
3.73982e-13
0.00265211
2.42142e-05
1.08638e-12
4.70505e-06
8.47168e-14
2.94652e-09
2.08692e-13
2.38109e-14
1.62263e-12
2.26356e-13
0.00435982
1.19856e-14
6.97143e-13
1.67336e-13
8.18704e-14
7.89153e-10
4.22933e-13
9.11844e-13
1.73229e-12
1.51361e-12
0.176256
4.28438e-13
6.51313e-14
0.288125
1.88168e-12
1.51573e-12
2.15573e-12
1.54002e-05
1.50577e-12
1.91411e-13
1.14704e-12
5.95916e-13
1.12158e-12
6.77694e-13
2.0407e-10
1.36557e-13
7.76817e-12
2.2598e-06
5.37258e-05
2.62464e-14
2.9421e-13
3.4754e-13
4.52829e-13
4.46375e-10
0.0262597
7.65209e-05
6.24732e-13
0.0010074
2.16848e-12
5.80732e-13
6.56928e-14
9.34252e-09
2.77643e-13
1.10382e-13
0.00742501
7.96497e-09
0.000150512
3.99449e-13
2.48951e-11
8.02574e-14
4.55448e-13
1.66381e-13
7.63179e-13
1.06676e-13
2.60204e-12
9.98809e-13
8.1027e-08
1.90628e-13
1.79177e-12
8.67954e-14
7.58236e-13
2.3842e-13
3.37726e-13
3.68677e-13
1.10944e-12
9.88732e-13
8.32756e-13
1.13152e-12
2.80152e-12
2.78486e-13
2.61751e-13
3.64743e-10
1.6171e-06
3.38989e-13
3.09452e-13
5.4856e-14
0.000122918
0.0106798
0.0136153
4.27242e-13
5.83978e-12
9.7955e-13
8.64787e-14
8.78737e-13
4.18642e-15
8.78806e-14
1.39376e-12
1.31604e-09
2.8706e-14
2.03819e-14
8.70856e-14
1.19071e-05
5.91589e-14
9.3713e-13
5.23552e-13
2.98812e-13
1.70195e-13
2.30073e-14
3.67774e-12
0.00947736
1.20645e-13
5.8106e-07
7.64978e-13
3.48676e-13
9.94903e-14
9.99624e-08
1.70889e-13
8.27349e-14
1.58694e-12
1.58389e-13
2.58401e-06
2.41999e-07
1.95243e-12
0.00121036
1.36546e-13
6.01419e-06
5.49977e-05
3.89627e-14
3.97159e-13
5.6065e-13
1.26384e-14
1.61738e-14
1.32177e-14
1.07085e-13
1.56998e-14
7.40079e-13
1.18892e-12
4.06641e-13
4.54258e-13
2.38595e-13
2.19669e-13
8.36033e-13
1.97551e-14
1.29715e-10
5.34428e-12
6.63355e-05
3.22953e-13
1.5516e-12
9.98767e-15
6.04676e-13
9.07496e-12
6.82341e-11
0.0361675
8.68334e-13
5.87306e-14
3.83522e-14
1.50842e-12
2.74564e-13
4.79837e-05
0.000249105
2.27179e-13
1.10194e-13
4.14274e-13
1.09386e-12
2.75721e-13
3.55588e-05
3.74529e-05
4.85324e-14
1.59569e-12
1.79652e-13
2.88676e-13
5.55397e-12
6.02614e-12
0.0148724
6.53502e-13
3.9441e-12
7.68663e-13
3.84237e-08
3.61822e-13
5.56024e-12
0.054143
5.06689e-13
2.62116e-14
1.03839e-13
0.150255
4.5872e-07
8.32703e-13
5.99761e-13
6.81787e-13
5.95037e-14
1.83763e-12
8.62256e-14
4.38001e-13
0.00120314
2.141e-13
1.41254e-12
2.83479e-12
2.27268e-12
1.92512e-12
2.12839e-13
1.99993e-13
1.68354e-07
1.55418e-13
8.33679e-13
1.03337e-13
0.00038234
1.22033e-12
6.70153e-13
4.88281e-13
2.31698e-12
3.95327e-13
4.22208e-12
7.88861e-05
2.57254e-13
1.15865e-12
3.94006e-05
2.593e-13
6.18336e-13
4.14745e-14
3.75888e-14
3.01907e-13
6.60025e-14
5.59173e-14
3.2358e-13
1.48645e-13
4.74849e-10
2.58647e-10
3.35343e-12
8.6418e-13
1.48564e-13
1.29906e-12
7.39216e-13
0.000862884
2.96552e-14
1.62724e-14
3.04269e-13
4.25262e-13
1.30929e-07
5.37102e-13
2.25429e-08
1.52079e-13
1.27156e-13
6.39912e-14
6.21112e-14
1.0122e-13
3.37725e-12
4.23869e-06
3.11628e-13
9.86943e-13
0.000547242
4.1908e-13
1.02996e-12
4.69411e-13
3.32129e-07
3.02099e-13
0.238189
1.01291e-13
3.18505e-14
2.02287e-12
2.25392e-14
7.50931e-13
3.14483e-13
3.2424e-14
2.40493e-12
8.05055e-12
1.71913e-13
6.93841e-14
7.19659e-14
2.86488e-12
2.41934e-13
7.10138e-13
1.53342e-13
1.22953e-13
3.90939e-13
1.30862e-11
1.33024e-14
0.187188
6.59108e-08
7.09959e-14
5.07975e-14
2.12556e-13
5.77644e-12
7.23427e-13
3.44369e-13
1.40794e-13
1.0962e-12
4.39474e-12
4.2028e-13
0.11144
2.75725e-13
4.84229e-13
1.05677e-12
9.30452e-13
3.32572e-12
1.81598e-13
5.24342e-13
5.87711e-14
0.00712173
2.00918e-14
4.36606e-10
0.000181724
5.72819e-13
1.04843e-12
7.51638e-05
1.04535e-12
7.80656e-15
6.71813e-13
7.74041e-13
0.00622297
0.014378
3.06437e-12
2.09223e-13
7.91293e-13
1.30822e-12
1.72593e-12
1.14685e-12
1.68945e-12
1.3675e-13
5.56451e-13
9.02468e-14
2.2082e-12
6.52858e-14
6.90572e-13
7.20732e-13
1.43291e-13
0.0139125
2.83183e-13
4.25053e-14
1.56669e-13
8.04115e-14
2.39114e-14
2.19915e-13
8.82573e-14
2.90168e-14
2.16571e-12
6.61087e-13
1.24145e-12
1.63481e-13
6.38181e-13
0.0596065
1.51205e-14
2.60745e-13
3.17601e-12
8.60575e-14
0.00743862
1.11582e-13
1.09643e-13
0.124782
4.15763e-14
1.58302e-13
1.83918e-12
5.34799e-14
9.32945e-13
1.61082e-13
3.31573e-13
0.0522283
7.78798e-13
2.27379e-14
0.000682164
1.235e-13
1.75435e-12
4.72078e-13
1.25446e-14
6.46291e-14
7.84215e-13
1.09065e-13
2.48858e-08
5.25623e-13
4.70674e-13
9.69126e-14
1.98307e-12
1.22763e-13
6.20526e-07
5.44077e-08
9.45276e-14
2.52703e-14
3.08568e-12
0.0013176
3.20685e-13
0.00264231
0.0120714
1.60109e-08
0.868542
2.25924e-13
4.53879e-15
0.000260004
1.37115e-13
0.0311473
4.24749e-13
3.04223e-13
1.32603e-08
2.74988e-12
3.26512e-12
3.17096e-13
1.20256e-12
2.41276e-14
9.38131e-14
2.33583e-15
2.80771e-13
9.06792e-15
5.94573e-07
2.12967e-12
2.28349e-07
9.92783e-14
1.58987e-06
1.02536e-14
9.49512e-15
1.54345e-13
3.57489e-05
1.47784e-12
4.1406e-14
1.34534e-12
1.9954e-13
5.22356e-13
4.11954e-15
3.16418e-13
3.2083e-13
0.000293146
5.13312e-13
1.38473e-13
1.53878e-12
1.35793e-12
1.86544e-13
2.66055e-13
1.3541e-13
5.73157e-13
1.95441e-13
9.85667e-14
3.66143e-07
2.04123e-14
4.51434e-13
0.000164796
4.55418e-13
2.17812e-12
8.86991e-15
9.59909e-14
8.70621e-13
3.58802e-13
2.43469e-13
8.96371e-14
4.37668e-13
0.00123509
1.51199e-12
0.00108384
2.47155e-13
0.000341833
1.19257e-13
3.57291e-14
2.67446e-13
1.95257e-13
9.36138e-14
0.0187344
4.28442e-13
7.57813e-08
1.69244e-07
4.33158e-14
3.10766e-14
9.14332e-15
2.96802e-13
3.2728e-14
4.73285e-12
3.14567e-07
8.78145e-14
2.21334e-07
3.31211e-12
2.01098e-13
1.62048e-13
2.33835e-09
4.69587e-14
3.10698e-14
4.43158e-14
2.27746e-07
3.29239e-07
1.72509e-13
2.44948e-14
2.47879e-12
3.6326e-14
8.05469e-09
9.98017e-08
1.74605e-14
1.06733e-13
5.14969e-13
1.5558e-14
1.24797e-07
4.40048e-13
3.92817e-08
2.1732e-12
4.75076e-12
1.69096e-09
9.99854e-12
1.33785e-13
4.87388e-14
1.80518e-14
4.2612e-13
1.04273e-13
4.40524e-13
1.33395e-15
1.1916e-12
7.53574e-13
6.80006e-07
4.70129e-14
1.26482e-11
1.64142e-12
1.24784e-12
0.0145745
7.84285e-14
5.11669e-07
5.43804e-13
3.64528e-07
4.10869e-13
2.14419e-13
2.65668e-07
8.14089e-14
1.69823e-13
2.11794e-08
0.0467341
1.89334e-07
1.49096e-12
0.00536043
1.59336e-12
1.81973e-06
0.001155
1.82641e-10
3.64912e-13
5.71069e-14
1.30785e-13
6.74142e-12
6.52346e-14
0.000842095
2.29307e-13
8.84564e-09
0.623781
6.43878e-14
4.26916e-11
7.75263e-14
4.26242e-12
1.92887e-14
0.00326216
1.21733e-07
1.00792e-05
9.26299e-12
5.56227e-12
3.84063e-13
1.16799e-13
1.92567e-10
3.29783e-13
3.78387e-12
1.89233e-13
4.85676e-14
1.54901e-13
5.51018e-12
2.16104e-13
2.88816e-13
3.49106e-11
1.2133e-13
1.61411e-13
3.09383e-13
5.37514e-13
2.91693e-12
7.95823e-13
6.32869e-13
8.17029e-11
7.08121e-14
3.54978e-14
8.40064e-12
4.1632e-14
1.90261e-12
1.44873e-09
3.71827e-14
3.2452e-13
0.0815104
1.67381e-11
4.27017e-13
0.0751269
0.00117055
1.25952e-12
6.55718e-13
1.27364e-08
6.67666e-13
7.6566e-13
1.4774e-13
0.00017773
2.96037e-13
2.74248e-14
3.33865e-13
7.14447e-13
1.95365e-13
1.32117e-07
0.084547
9.58145e-13
1.87033e-13
3.80143e-09
2.37543e-13
1.15205e-14
5.86146e-13
4.90926e-09
4.58049e-13
4.61487e-13
1.28623e-13
6.12e-12
1.88326e-13
3.589e-12
6.24369e-12
1.7529e-11
8.00254e-11
6.48936e-14
2.49425e-13
1.92147e-13
1.60344e-15
1.24226e-12
1.65534e-13
3.2966e-13
8.45026e-14
2.08102e-12
4.56476e-07
3.98977e-13
1.58219e-14
5.37994e-11
3.18354e-10
2.04425e-12
3.50207e-08
6.79055e-13
7.3093e-14
1.80866e-13
6.71966e-08
1.46599e-11
1.72118e-12
6.25318e-13
3.86687e-13
4.0738e-14
0.11897
1.28143e-14
2.54474e-12
6.4356e-12
3.04119e-06
4.59241e-14
1.19864e-11
0.000155511
2.8407e-13
8.11942e-14
8.83234e-13
4.39127e-13
8.90564e-14
2.89576e-12
1.88135e-13
5.57612e-13
3.57867e-12
7.79719e-13
1.76795e-12
9.70157e-14
5.2792e-12
4.24034e-13
8.04029e-14
4.12802
0.144113
1.40027e-13
1.99297e-14
1.17378e-12
6.3506e-08
0.00166716
1.36754e-12
6.2107e-06
0.1456
7.45644e-08
1.61272e-14
2.71975e-12
1.06383e-13
0.000106917
1.63621e-13
5.62677e-13
2.82721e-14
4.44083e-13
3.16051e-14
3.55202e-14
3.50189e-12
1.96375e-12
1.29356e-12
2.84395e-13
3.92057e-12
1.08906e-13
4.25317e-13
2.43864e-13
2.99901e-05
1.09549e-12
9.43603e-13
1.98866e-13
1.53035e-14
1.30792e-12
3.61843e-13
4.79482e-12
5.15559e-13
8.55079e-14
4.28397e-13
1.9706e-12
3.24469e-12
5.64581e-14
1.06749e-12
9.13124e-15
2.0446e-12
0.00604911
3.78269e-12
6.97425e-12
5.13898e-05
8.32104e-13
8.36994e-14
0.896127
7.16504e-12
4.22335e-11
1.18007e-11
7.65213e-06
1.00298e-10
5.55971e-12
3.28793e-12
3.70884e-05
4.52845e-15
3.06373e-13
5.50462e-10
0.607895
2.49091e-14
2.34635e-13
7.74627e-07
2.24419e-07
1.19291e-07
4.53291e-13
1.4534e-12
2.95653e-13
7.43545e-13
4.04487e-12
2.09143e-13
1.15747e-12
9.04297e-13
5.38362e-14
1.54183e-12
8.21685e-14
1.43339e-13
2.14187e-13
3.14604e-13
2.46347e-15
9.1935e-14
2.31234e-13
5.33656e-05
9.22498e-14
6.00759e-14
1.50202e-13
3.33434e-13
6.60485e-13
5.69317e-13
1.20154e-14
1.3338e-09
1.56587e-12
2.52278e-14
8.73023e-12
7.67108e-13
3.52929e-10
1.46532e-13
2.18212e-13
5.73157e-13
1.24561e-05
2.90114e-09
6.95533e-05
1.23152e-13
3.36414e-14
4.36258e-13
0.00313715
1.41638e-08
6.81485e-14
1.29279e-08
9.50776e-14
1.08319e-12
6.16996e-13
0.00042413
1.88891e-06
1.99046e-13
2.61348e-13
0.00206953
1.12116e-14
1.19027e-13
2.84015e-13
2.11699e-13
1.89985e-12
4.39737e-13
8.20564e-13
3.10988e-13
1.05128e-12
2.53928e-13
8.9582e-13
0.00181683
7.78086e-14
5.14871e-14
5.50837e-13
8.8549e-13
2.45114e-13
2.6684e-14
1.66099e-06
5.73171e-13
4.17694e-13
2.83054e-14
2.04966e-05
0.00168391
2.50775e-05
2.8344e-07
2.96284e-14
1.8007e-13
0.000171036
1.00319e-12
8.31526e-13
1.60109e-05
0.000338048
7.14701e-08
4.01277e-08
1.11698e-06
4.72509e-13
5.24041e-12
3.16988e-12
9.22917e-13
0.000269688
3.44964e-05
1.0912e-14
5.05328e-13
4.17568e-07
1.45599e-07
1.81199e-14
4.16322e-06
6.34548e-13
1.40049e-13
5.86748e-14
6.11667e-13
8.84305e-13
2.42264e-13
9.42336e-06
1.88807e-13
9.84929e-14
5.31314e-13
6.04139e-06
1.93579e-07
1.2233e-12
1.84992e-12
4.89115e-14
9.33802e-14
7.09571e-06
2.99738e-13
2.1292e-14
4.52294e-13
0.00138544
3.88853e-12
1.60849e-13
1.34134e-12
8.24337e-13
1.21375e-13
5.5498e-14
3.315e-14
0.000532647
1.40808e-13
1.30297e-08
6.85447e-13
5.8266e-14
4.38006e-13
4.70681e-13
1.02258e-05
9.57706e-13
2.17787e-13
1.5449e-13
6.41471e-06
1.94276e-13
0.000381418
5.9415e-07
3.12237e-06
2.65856e-13
5.0948e-05
0.000255251
3.74396e-13
1.05049e-12
4.81993e-06
9.35084e-09
1.5486e-12
1.22891e-13
9.75285e-13
1.17451e-12
3.56131e-12
1.23214e-12
0.00121586
1.55783e-07
1.30925e-14
1.04006e-12
2.01247e-13
6.36063e-13
5.57083e-15
2.50582e-13
1.7789e-13
2.72796e-14
6.44767e-13
7.57712e-07
4.63455e-12
2.34574e-13
2.90257e-10
3.50702e-12
9.8937e-05
3.19082e-12
2.44192e-13
1.91092e-13
6.79153e-13
2.22562e-14
8.5795e-13
0.349489
3.74554e-14
3.41472e-13
4.77826e-13
2.56442e-13
1.20549e-12
7.08339e-13
1.19185e-12
3.02069e-06
5.82724e-13
1.21984e-12
0.000994891
0.000776037
6.05897e-12
6.85404e-05
3.12182e-13
1.58221e-05
3.5651e-07
5.75523e-14
0.000864193
0.000100736
4.35062e-13
3.20775e-13
1.15177e-12
0.0013801
9.98616e-14
0.00753264
7.69774e-14
0.17258
4.64538e-13
7.80067e-13
3.50607e-12
6.84055e-13
2.04458e-13
1.28668e-12
1.18114e-13
0.0366875
1.9501e-13
5.06565e-13
5.97527e-14
0.00678102
1.00287e-12
1.66428e-12
1.46694e-12
1.87913e-12
2.18095e-13
7.61434e-15
0.024313
1.65957e-10
8.99776e-13
9.41637e-14
2.02351e-07
8.65993e-13
0.00527319
8.73306e-14
3.66007e-13
0.00571732
1.02758e-12
4.22582e-13
2.073e-14
3.56312e-13
4.81656e-13
9.95655e-08
9.93072e-07
0.000828128
0.0109089
0.0081896
1.00479e-06
2.00081e-13
9.8403e-05
1.89025e-13
2.54279e-13
8.41104e-13
6.27074e-13
1.41432e-13
1.5039e-14
1.98948e-14
4.98233e-13
0.0072155
0.0116094
1.65091e-12
1.56772e-13
7.86074e-12
0.00251441
1.26629e-05
6.78239e-13
4.33478e-13
0.000140026
7.99016e-14
3.72119e-13
4.65286e-14
7.80308e-13
0.0123939
9.87998e-14
3.66101e-12
1.79457e-13
1.97732e-13
1.92525e-12
2.31023e-14
0.0458839
1.18248e-13
0.00413254
1.99104e-13
4.99276e-14
0.00355288
1.86041e-14
1.12678e-12
0.00812004
4.66227e-08
0.00651796
1.16889e-13
8.04822e-14
1.90471e-13
2.06732e-13
4.91072e-13
7.00003e-16
1.96839e-12
5.52901e-07
1.50854e-12
1.04298e-05
2.91001e-13
8.20372e-13
3.78507e-13
1.82477e-12
3.02798e-14
1.65516e-13
2.47859e-13
1.49334e-13
0.0206196
4.31302e-13
6.58647e-14
5.15981e-14
6.08962e-13
2.6916e-06
0.00318561
1.95839e-13
0.0163466
4.04054e-09
6.93818e-13
8.13638e-14
4.23429e-08
4.00941e-10
5.70884e-07
0.000233636
2.44456e-13
7.76112e-08
2.51124e-12
3.53285e-13
3.86007e-12
2.22018e-13
1.98696e-05
1.79267e-08
6.07995e-08
1.75781e-13
2.21214e-14
4.68854e-07
7.22807e-13
7.00727e-13
0.116799
7.17602e-13
5.2748e-14
2.39986e-13
0.0116281
0.00110243
2.44461e-12
1.00602e-12
1.1947e-13
1.06144e-13
1.05711e-05
8.89394e-13
4.69891e-13
2.24115e-12
1.89054e-12
2.75943e-13
9.456e-14
3.39117e-12
3.71147e-12
1.31972e-12
2.55679
1.5036e-12
5.67695e-14
1.45081e-12
0.0399816
7.84752e-14
1.90481e-13
3.03457e-12
1.25425e-12
1.32843e-13
3.77274e-13
5.69161e-14
1.22842e-13
8.17078e-13
1.52125e-12
8.52578e-13
1.95017e-13
3.19467e-13
7.98371e-13
1.26798e-12
3.76564e-13
0.00851239
1.37221e-13
1.14293e-12
6.55763e-13
3.73488e-05
4.07958e-06
3.99744e-14
8.92219e-13
4.85489e-13
8.05904e-14
4.54963e-13
1.81703e-05
6.48139e-13
0.0433259
3.10705e-12
1.38978e-14
3.38641e-12
6.82485e-14
6.10906e-13
7.81924e-14
2.24057e-13
7.53218e-13
1.50745e-14
6.40224e-13
6.61652e-14
5.58761e-15
0.0250784
7.90018e-14
9.76912e-14
1.06919e-13
1.19107e-12
1.71499e-13
0.000107871
1.45327e-12
1.62968e-13
1.40903e-13
3.39244e-13
3.73219e-13
1.60847e-13
0.0229637
7.57848e-13
2.29591e-14
3.24707e-12
8.94784e-06
7.32798e-13
1.17206e-12
0.223311
2.7023e-12
7.15352e-14
1.13519e-11
8.50906e-13
1.15849e-12
1.03265e-12
0.00496186
4.6364e-13
3.59921e-13
6.09209e-13
1.78866e-13
1.00338e-12
0.0181438
1.40993e-13
1.25394e-12
9.40677e-14
8.61227e-13
1.55489e-14
1.43797e-13
1.12965e-13
1.84786e-14
2.17196e-13
7.25186e-14
3.94856e-14
4.13871e-13
2.2031e-13
1.45432e-06
9.14141e-14
1.14243e-13
1.517e-13
3.21166e-13
7.1552e-13
1.37393e-12
4.52994e-13
5.07815e-12
2.71117e-13
4.62559e-13
3.58059e-13
1.14039e-13
2.35906e-12
2.22795e-12
4.22555e-13
7.42639e-13
2.57962e-15
1.11125e-12
3.28621e-11
3.77093e-13
1.65573e-12
0.0602458
2.263e-12
3.08834e-14
2.97567e-13
9.4092e-14
1.74608e-12
2.38882e-13
9.16949e-14
9.23856e-13
0.000253973
2.34816e-12
5.14815e-13
5.35395e-13
1.38421e-07
4.5533e-14
1.81799e-14
9.33382e-14
2.72019e-13
1.75735e-14
1.71298e-13
1.02956e-13
9.79268e-14
1.24916e-13
2.23079e-12
9.17879e-13
1.17757e-15
1.12038e-12
2.63988e-13
2.67834e-13
1.59333e-14
7.76724e-14
2.04614e-13
4.24752e-13
1.9063e-14
1.98415e-13
2.77244e-13
2.71427e-14
2.98423e-13
7.35576e-14
6.70539e-14
1.11687e-13
6.22545e-14
2.97427e-13
7.30723e-14
7.01539e-13
1.99933e-14
2.83221e-13
1.71065e-12
3.96998e-13
1.20977e-13
2.92789e-13
1.97487e-13
2.82069e-13
4.20709e-12
0.227425
2.02482e-12
5.1441e-14
6.93127e-14
4.39698e-10
5.48846e-14
0.00557924
1.94909e-13
3.26256e-14
0.000723401
0.00126364
1.07342e-12
0.00424047
5.43032e-13
1.55611e-13
8.45527e-13
2.05269e-12
4.80105e-12
2.75045e-13
4.36515e-13
4.01489e-12
6.10235e-13
3.72804e-14
1.18624e-12
0.000215226
1.86993e-13
2.93234e-13
5.23453e-14
7.02198e-13
3.3265e-13
8.393e-13
4.5789e-13
2.62313e-12
1.32163e-12
2.60842e-13
6.80054e-13
7.10405e-14
4.62355e-13
3.07744e-13
8.98476e-13
1.6423e-13
1.26105e-12
7.50834e-13
5.09051e-14
2.2961e-14
1.89878e-13
3.39728e-14
1.84213e-13
2.61905e-13
3.68663e-13
2.8515e-12
3.56177e-13
0.000188272
8.16362e-13
1.97665e-13
2.07276e-13
2.04961e-12
2.08278e-05
1.82564e-06
7.27638e-14
2.22234e-14
3.16661e-13
7.93476e-14
2.21727e-13
4.22797e-13
5.40336e-13
7.44637e-13
7.52581e-13
0.000247633
2.53864e-13
2.03355e-14
1.42436e-14
1.24374e-12
3.78001e-13
2.12659e-13
2.18166e-12
1.74475e-13
0.0318045
1.05496
4.70455e-14
1.1515e-12
1.47372e-13
0.000660292
7.66871e-14
6.90888e-14
4.02829e-13
0.00251617
1.77234e-12
0.0596629
2.38326e-09
1.69146e-13
2.50821e-13
1.12976e-13
2.75233e-14
8.70692e-13
4.15835e-14
3.09089e-12
1.2965e-12
4.96129e-13
2.39242e-12
1.08749e-13
6.44646e-13
3.95856e-13
2.87752e-13
2.29675e-13
0.774695
2.6686e-14
4.57232e-14
8.4235e-06
2.99155e-12
0.000275441
1.06907e-12
1.76645e-12
2.21338e-13
2.60326e-12
2.69806e-13
8.74284e-13
7.98627e-13
3.41871e-14
1.13292e-12
2.21872e-08
4.16273e-14
7.83786e-14
3.11035e-13
0.00259571
8.88869e-13
2.92817e-13
3.23159e-12
0.0482931
3.17385e-12
9.63018e-13
5.35255e-13
5.36777e-13
5.9466e-13
1.43963e-13
3.64851e-13
3.63763e-10
9.86748e-10
9.12645e-13
1.20844e-12
1.17322e-12
2.94704e-12
4.43376e-13
1.06819e-13
7.35144e-13
2.79316e-14
1.24567e-09
4.76806e-13
1.68984e-13
3.0218e-14
3.40572e-12
7.12688e-14
2.42404e-13
6.93248e-12
8.30848e-12
1.19235e-12
1.58433e-05
0.00020875
5.89536e-06
0.027824
3.45055e-12
2.88659e-13
1.301e-12
2.28586e-12
1.84783e-13
2.96173e-14
3.70975e-08
1.28478e-05
3.7901e-13
1.02866
7.89367e-13
0.0106848
1.85618e-07
0.072655
2.73503e-13
1.46591e-13
1.97292e-12
1.68541e-12
5.75228e-12
0.00424654
2.61701e-12
1.56634e-14
4.43725e-13
7.27217e-11
3.17364e-13
5.30222e-13
0.0296153
5.29595e-13
3.33129e-13
2.25104e-12
4.31299e-13
2.53487e-12
4.58501e-09
1.26131e-14
5.25317e-13
2.48905e-13
1.05574e-13
1.39588e-13
0.00407404
9.85035e-14
1.7621e-14
1.2075e-13
1.1334e-12
1.13923e-12
1.87355e-12
3.11956e-12
8.59564e-13
0.00164349
1.0292e-13
1.25273e-12
9.80678e-14
2.93188e-12
1.22532e-12
1.14839e-12
0.131673
1.0567e-13
1.21083e-12
2.70844e-14
1.706e-12
2.42285e-13
1.0859e-15
1.35785e-13
4.40246e-13
2.8498e-14
1.06532e-13
1.14733e-13
0.000168879
4.02971e-14
9.40096e-13
4.23682e-13
3.44241e-13
1.24326e-12
3.31026e-12
4.52383e-13
8.55768e-13
5.36883e-05
4.16767e-13
6.50615e-13
0.00335921
1.85616e-06
1.70543e-13
7.41497e-13
4.5986e-13
4.00981e-14
1.55143e-12
5.20917e-11
1.03216e-12
1.07151e-12
4.52955e-13
1.4586e-13
4.82685e-13
0.000234939
4.21336e-13
4.35118e-13
0.0010141
7.87665e-13
2.22236e-12
2.623e-13
3.18891e-13
1.18766e-13
0.000156368
7.32579e-14
0.000511296
4.52492e-11
3.62826e-13
4.13825e-14
5.70575e-13
4.52383e-13
5.49639e-13
1.37836e-14
0.00382515
6.01879e-14
9.66862e-14
2.78473e-12
3.53848e-13
1.64043e-14
1.70864e-12
6.52401e-13
7.56083e-14
2.14344e-13
4.0648e-13
5.13243e-14
7.13731e-13
1.37903e-12
2.06791e-13
6.77969e-13
2.59251e-12
4.0793e-14
2.16925e-12
6.28099e-13
1.07998e-12
5.90239e-07
2.23377e-13
0.102105
3.83239e-13
1.9951e-13
3.77775e-13
4.53597e-14
8.83425e-11
3.29018e-14
3.06387e-13
4.4023e-13
1.17536e-12
3.69414e-13
3.56202e-13
0.00132211
4.21775e-13
1.14473e-09
1.0441e-12
9.599e-14
9.98154e-14
8.42132e-14
2.51975e-12
2.25984e-13
3.8088e-14
4.1801e-14
2.38697e-13
3.51472e-13
4.10937e-13
2.92399e-12
0.00037595
4.89525e-13
0.00165902
7.48607e-10
8.94308e-13
2.05641e-07
0.000855982
2.3064e-13
9.61688e-14
9.569e-15
2.43914e-13
2.0705e-12
1.98984e-13
7.60932e-13
2.23833e-13
1.1421e-13
2.52568e-12
2.80425e-09
6.67021e-13
2.03466e-10
1.71522e-13
1.50917e-05
9.95223e-13
5.206e-05
1.19946e-13
3.08971e-13
0.00144866
0.00902714
1.88328e-13
0.00333787
3.56754e-10
1.19555e-09
3.71982e-14
0.00231059
2.10905e-12
0.00144147
0.003083
1.84116e-12
5.99466e-13
7.47985e-13
0.000829419
7.24331e-08
2.12624e-13
9.8384e-15
1.07462e-12
1.45196e-12
7.86544e-13
2.01115e-13
3.81134e-14
2.52829e-06
1.16959e-12
1.29553e-12
2.24422e-13
3.83879e-13
2.54006e-12
0.00122135
0.000213368
3.68327e-13
0.000979034
2.38302e-13
4.92113e-13
0.00037586
2.38976e-10
6.74301e-14
2.43145e-12
8.54239e-14
0.00264177
1.61474e-12
9.96354e-13
3.87189e-14
1.46032e-07
5.31069e-13
9.68753e-13
8.08996e-12
3.18544e-13
2.385e-05
3.17888e-05
5.1474e-12
0.287851
6.89346e-13
2.57938e-13
6.45024e-13
4.20949e-13
8.17823e-05
3.47873e-14
6.66989e-14
6.03994e-05
1.05413e-12
1.02367e-06
5.79868e-13
2.74591e-14
1.15583e-13
0.000225334
5.96723e-13
0.000157601
0.00254944
1.99132e-13
0.00479299
3.42305e-13
1.02632e-12
7.22375e-13
3.68931e-13
1.87691e-13
6.33105e-13
1.08121e-13
3.01802e-12
7.99315e-13
2.07895e-13
6.07232e-05
7.30185e-13
8.36576e-13
7.04797e-13
4.0748e-13
9.66876e-13
7.11356e-09
7.49452e-13
6.82902e-13
4.17199e-15
0.515321
3.89771e-14
1.44587e-10
1.47299e-13
1.40214e-13
7.46964e-05
9.40082e-05
5.37472e-10
9.55269e-13
1.25858e-12
1.24171e-13
7.2628e-14
5.65557e-14
1.73459e-13
2.68287e-12
4.69131e-13
1.42136e-13
0.000172721
1.27645e-13
1.2554e-13
1.33423e-07
3.41104e-14
2.76763e-13
1.2751e-12
3.3543e-12
3.77293e-13
2.30109e-13
4.61657e-14
8.08481e-13
1.81894e-12
0.000626359
2.45331e-13
3.56066e-13
2.54658e-13
1.06165e-12
5.16083e-13
1.63877e-13
4.92317e-13
0.00109128
6.90414e-06
3.77211e-13
1.19376e-12
8.69705e-13
6.31524e-06
4.07778e-14
8.90232e-14
1.01231e-12
2.43449e-12
3.96459e-05
5.83726e-14
1.17948e-13
4.04701e-13
4.32187e-13
7.28223e-13
5.71657e-13
8.13937e-14
1.19086e-13
3.20475e-08
1.22512e-13
6.77891e-13
2.13005e-13
6.00148e-13
1.56559e-13
5.30267e-13
2.52371e-12
1.66926e-12
9.31887e-13
1.70062e-07
1.63111e-12
1.69314e-13
1.43555e-13
1.66967e-13
2.65043e-13
1.71282e-13
2.25157e-12
1.94542e-12
2.41044e-13
2.39036e-12
1.03781e-13
7.45629e-13
1.14384e-12
2.55276e-13
3.02171e-12
4.04994e-13
4.92985e-13
1.67461e-12
2.16047e-14
5.39468e-13
9.20179e-15
1.2761e-13
4.33768e-13
2.76205e-12
2.56357e-13
1.66223e-12
1.83818e-12
1.08767e-13
4.71794e-14
3.71623e-13
1.35697e-13
1.20062e-12
3.44882e-13
3.48696e-13
6.86333e-13
2.74641e-12
1.09371e-09
1.87119e-12
4.56101e-05
0.344451
1.05022e-12
6.66026e-14
1.37063e-13
2.53444e-13
9.66083e-14
9.44663e-13
2.38918e-10
1.04425e-12
1.99065e-09
8.33011e-07
1.2166e-12
4.46395e-13
8.23614e-12
3.1125e-14
5.92558e-13
5.86035e-14
7.2149e-13
0.184971
4.2414e-13
7.40832e-10
1.45459e-14
4.9748e-13
2.8974e-12
2.84624e-09
2.6397e-12
1.44791e-13
2.27304e-12
6.10566e-05
7.89649e-13
4.84249e-13
9.65769e-14
8.49866e-13
1.00569e-12
1.3152e-12
0.000316004
7.66076e-09
8.97952e-09
4.40322e-13
1.46178e-12
1.42856e-12
7.6953e-09
2.92088e-09
2.00096e-08
3.12429e-13
2.55865e-14
6.87916e-13
9.86808e-14
1.05167e-13
6.99364e-14
3.42721e-13
1.57306e-12
2.81851e-13
2.68084e-13
8.17976e-13
8.45113e-13
1.23358e-12
1.76423e-13
2.6213e-13
1.38447e-12
2.52287e-13
8.15644e-14
0.00136083
5.54414e-15
1.6394e-14
1.96989e-13
9.05024e-14
1.20032e-13
2.78344e-09
0.00150196
0.150616
2.2318e-14
7.01681e-11
2.74139e-12
4.89114e-13
1.15912e-12
7.46468e-14
1.4366e-13
9.02467e-13
1.41867e-12
2.03511e-13
9.29745e-14
5.70965e-13
1.46997e-13
2.0564
1.70428e-13
9.10361e-13
1.87327e-12
0.0190749
1.32013e-13
0.650022
3.59449e-13
4.45018e-13
1.24888e-12
8.70807e-12
5.75457e-13
6.053e-13
7.57372e-13
2.32595e-14
1.8657e-12
0.0689109
3.49979e-06
0.821687
3.91758e-14
7.17974e-13
5.83922e-12
9.44374e-13
1.71202e-14
6.68056e-08
3.49321e-13
1.33799e-12
2.97431e-12
1.2819e-12
1.53732e-13
1.18362e-13
2.73855e-13
5.24902e-06
1.63849e-13
3.68258e-13
2.07516e-12
5.20131e-12
1.05304e-12
6.20471e-13
1.64183e-13
9.96174e-14
4.30302e-13
6.76592e-13
2.59129e-13
1.40372e-13
1.48449e-13
5.4415e-13
1.16602e-07
7.51594e-13
1.24336e-12
1.39238e-12
1.29152e-13
0.00226035
3.51684e-13
4.85257e-14
1.83812e-13
1.54867e-13
2.2984e-12
1.45178e-12
3.04228e-13
8.92267e-13
7.87392e-15
4.77661e-14
2.62155e-13
2.9368e-12
0.0152387
1.45883e-13
3.80638e-06
2.20723e-12
7.17103e-07
1.00912e-13
1.01239e-12
0.0614323
0.210882
1.76527e-12
1.12325e-05
1.62066e-13
1.91316e-06
1.18888e-14
3.13777e-12
6.14694e-13
3.88474e-07
1.36327e-13
5.16709e-06
7.52456e-14
2.45184e-13
2.34755e-14
3.38518e-12
1.80876e-13
2.07542e-13
4.5796e-14
5.4358e-11
9.22133e-13
0.00424088
1.66565e-13
3.93451e-07
0.000464161
1.10044e-10
1.40952e-13
3.72574e-06
6.04735e-12
0.0238501
1.10051e-12
4.15967e-07
2.73903e-10
1.58628e-12
1.17698e-13
4.01169e-07
8.67402e-13
9.11982e-11
2.74341e-12
1.52121e-13
5.15851e-13
0.478691
2.66665e-13
1.29071e-13
5.27008e-13
2.68066e-13
3.52739e-13
8.76225e-05
5.41173e-12
0.00910019
1.99924e-12
5.80379e-13
0.00467337
5.90073e-14
5.27843e-13
1.58484e-13
4.76621e-15
1.12529e-13
3.91999e-13
0.126331
1.30876e-12
1.02665e-12
2.06252e-12
2.09878e-13
1.12662e-12
3.07696e-13
0.0327037
1.0932e-12
0.0458126
0.0638637
0.306986
1.69244e-13
0.193669
1.18411
2.04031
0.68407
2.86902e-13
2.63241e-14
1.31053e-13
4.45587e-10
6.62723e-14
0.00233318
1.76559e-13
7.96731e-13
3.06624e-12
6.00869e-13
0.041138
4.38642e-13
1.08728e-12
1.01002e-05
0.0554442
1.02041e-13
3.41724e-13
2.19944e-05
3.63121e-12
9.80877e-14
2.01365e-05
4.50377e-14
5.32804e-14
2.03499e-12
1.11729e-13
1.27887e-13
1.49307e-12
4.51427e-07
5.12876e-13
6.27402e-13
1.19442e-08
1.99275e-13
3.202e-14
1.37846e-07
1.71417e-13
7.61628e-13
7.1138e-14
6.18249e-13
3.40521e-13
0.0682413
1.86747e-13
4.28492e-13
7.34982e-13
1.16325e-08
2.61613e-09
8.5029e-14
4.29312e-13
0.00368921
3.04794e-13
5.44192e-13
1.34448e-13
5.41972e-14
0.188093
9.03662e-14
3.95492e-14
1.13245e-13
0.0119308
3.91416e-10
3.86314e-13
0.0592164
4.21925e-13
0.219563
3.88183e-13
7.70276e-09
1.05487e-08
9.85692e-13
1.24184e-13
4.49427e-13
0.0905573
1.25357e-13
1.62264e-12
3.0543e-12
1.17242e-12
8.1055e-15
9.55395e-13
7.57278e-11
1.16794e-12
0.141474
4.88251e-12
1.1243e-13
0.0404506
2.34496e-12
6.26781e-15
4.08072e-13
6.62665e-14
4.01801e-12
2.70446e-13
7.13172e-13
1.97787e-13
8.32936e-15
2.24402e-13
3.05965e-12
2.23343e-14
9.73591e-13
6.90414e-13
3.10869e-13
3.99247e-13
0.20763
3.70828e-09
8.92298e-13
3.28653e-12
4.60103e-13
2.65327e-12
1.49297e-13
7.85706e-13
1.78365e-13
4.78204e-14
1.1859e-11
5.74273e-14
1.14034e-12
5.99229e-14
0.299713
4.40518e-13
8.51768e-13
2.99449e-12
4.8403e-13
0.000555043
1.63732e-12
2.62963e-14
6.06634e-14
4.19779e-14
8.61247e-13
0.00149978
4.10307e-13
9.82259e-13
1.12571e-12
8.67804e-13
6.42178e-13
1.34866e-13
1.17685e-13
4.88779e-13
2.69631e-14
1.00849e-08
3.42103e-14
0.123577
6.26928e-14
2.32769e-13
1.92719e-13
6.71921e-13
0.12362
2.34658e-14
4.6974e-13
1.19979e-12
2.6774e-12
7.94376e-13
4.12244e-13
0.0238987
1.75986e-12
1.30302e-13
4.56647e-14
2.3398e-12
3.87075e-12
1.92151e-14
4.2678e-13
1.12751e-12
0.0542238
4.05045e-13
2.22515e-12
6.07876e-13
1.71765e-14
1.58465e-13
2.46262e-13
6.33338e-13
4.26919e-13
1.69446e-12
4.16069e-13
5.2355e-13
6.7091e-13
2.25976e-12
6.50552e-13
0.559027
4.86763e-14
1.9965e-13
3.40923e-13
4.24699e-14
2.29791e-13
1.11e-12
1.67311e-12
1.37928e-12
1.42866e-13
4.53715e-12
4.07832e-13
0.00313385
3.82871e-13
4.16542e-12
6.40671e-13
1.7861e-05
4.15467e-13
2.27074e-12
1.14445e-12
4.53174e-13
5.17784e-14
1.10905e-13
1.95789e-12
2.55678e-13
7.87501e-13
7.80403e-09
4.33612e-05
4.82396e-13
1.3728e-13
3.87619e-13
2.64311e-08
2.13306e-13
3.77513e-05
2.00348e-12
0.0236006
9.95005e-14
1.86884e-13
9.82746e-13
3.10215e-12
5.55384e-13
1.18938e-12
2.05254e-13
1.00478e-13
4.82375e-15
0.000215428
1.64432e-08
3.92792e-12
9.92705e-08
2.12679e-13
0.000141478
1.94216e-13
0.045197
4.55193e-13
1.19816e-12
6.91175e-13
1.11752e-13
8.21731e-13
1.85665e-13
7.93443e-13
6.82097e-14
5.56115e-14
1.94457e-12
1.1405e-12
4.14326e-13
0.636139
1.12393e-12
0.0804575
8.08497e-14
4.34323e-12
2.45718e-13
2.05583e-13
2.86296e-13
3.54169e-13
4.52883e-05
7.99015e-14
4.93922e-12
2.63149e-12
4.16675e-15
4.73456e-12
1.41991e-12
6.678e-13
7.18281e-13
3.00416e-13
6.21261e-13
1.6056e-13
0.203098
1.43449e-12
8.16083e-14
4.70546e-13
1.26836e-13
4.81488e-14
1.77353e-06
1.97054e-13
0.000185306
1.50195e-12
6.27199e-14
1.70314e-09
1.76925e-12
2.43634e-14
5.94297e-13
6.20689e-13
1.4631e-12
1.54095e-13
3.49335e-14
7.36974e-13
2.05714e-12
3.11127e-13
1.96906e-12
2.71212e-12
6.10742e-13
4.25189e-13
0.0661245
4.23189e-13
4.69744e-14
1.39857e-09
7.30472e-13
3.65768e-13
1.05788
3.12553e-13
2.56016e-13
6.75768e-13
2.26915e-06
4.81402e-14
2.87023e-13
2.61234e-14
4.74653e-13
2.57799e-13
8.43963e-13
3.73064e-06
9.76447e-15
2.96474e-12
1.56344e-12
1.55124e-13
0.0583383
2.70598e-13
0.000181158
9.4399e-14
2.36433e-14
1.71372e-13
9.00341e-13
2.01313e-13
4.65608e-06
4.15678e-06
4.34287e-12
5.5907e-13
5.93546e-13
5.20762e-14
6.37645e-07
3.87776e-12
1.77217e-07
4.03221e-06
4.20343e-14
1.77579e-13
1.17612e-12
4.41192e-08
2.89954e-14
7.23118e-13
2.2131e-07
7.50361e-12
5.92837e-08
1.3825e-13
0.0111931
2.8476e-12
1.94216e-06
1.73644e-12
2.55106e-13
1.47775e-13
3.9568e-13
0.0125964
2.92214e-12
9.46396e-15
7.84667e-06
7.69707e-13
0.00551924
1.23132e-12
6.43471e-14
2.10757e-12
7.14494e-13
3.05966e-13
8.61328e-14
3.60648e-13
2.98945e-14
0.266557
9.74065e-14
1.82341e-14
9.8317e-14
2.1775e-13
3.56346e-13
2.79711e-12
0.791588
3.09482e-06
1.18813e-05
5.51909e-13
2.08998e-14
2.04749e-14
2.10236e-12
1.44047e-12
1.19671e-12
2.79625e-13
6.86884e-14
7.18859e-12
1.5891e-12
5.8124e-13
3.67496e-09
2.05372e-13
4.85454e-14
0.000108174
9.64925e-07
1.21139e-13
2.43873e-14
2.47402e-13
1.35589e-12
2.66841e-14
0.108895
5.22316e-13
2.94521e-14
1.4014e-07
1.52797e-13
1.27687e-12
3.13588e-13
1.06589e-12
2.16716e-07
2.01823e-12
1.8929e-13
3.65873e-13
1.86747e-13
2.57554e-07
0.171346
0.0416879
3.14383e-13
0.0134399
0.0269702
5.60302e-14
4.73162e-13
0.1184
1.65071e-07
6.41268e-12
4.05757e-07
9.37064e-13
1.58098e-10
4.23522e-13
0.190315
1.43061e-14
1.16928e-13
0.0105853
1.72878e-07
8.2058e-14
6.53496e-06
1.10665e-12
4.64565e-13
0.1484
0.00334831
5.48773e-14
3.89961e-14
5.65124e-13
3.51379e-14
6.58954e-13
8.17293e-13