/*--------------------------------*- C++ -*----------------------------------*\
  =========                 |
  \\      /  F ield         | OpenFOAM: The Open Source CFD Toolbox
   \\    /   O peration     | Website:  https://openfoam.org
    \\  /    A nd           | Version:  10
     \\/     M anipulation  |
\*---------------------------------------------------------------------------*/
FoamFile
{
    format      ascii;
    class       volVectorField;
    location    "4.5";
    object      U;
}
// * * * * * * * * * * * * * * * * * * * * * * * * * * * * * * * * * * * * * //

dimensions      [0 1 -1 0 0 0 0];

internalField   nonuniform List<vector> 
111485
(
(1.08727 -1.0866 0.000934957)
(3.06891 -0.00385418 -0.00846008)
(3.05595 0.006331 0.00800402)
(1.08576 -1.08703 -3.05549e-05)
(3.14058 0.0096926 0.00163077)
(1.09832 1.09653 0.000324215)
(3.09742 0.00504191 0.000799725)
(3.14619 0.00129519 0.00290126)
(3.10973 -0.00188216 0.00176379)
(3.16886 -0.0195868 -0.00670872)
(3.07299 0.00147574 0.00634488)
(3.18449 0.00051936 0.00927767)
(3.05483 0.00122801 0.00517367)
(3.04097 -0.0062579 -0.00941205)
(3.08576 0.00700029 0.00720215)
(3.12021 -0.000613965 -0.0076909)
(3.08491 0.00357837 0.00359587)
(1.10458 -0.0958378 0.181974)
(3.13783 0.00273245 -0.00285768)
(1.08428 -1.08236 -0.0002153)
(1.08461 -1.0839 -0.000192583)
(1.09749 1.09784 0.000713451)
(3.11649 0.00474256 -7.72974e-05)
(3.14499 -0.011122 -0.00376023)
(3.13221 0.0151776 -0.0100874)
(1.09315 -1.08985 -0.00135651)
(3.20094 -0.00414349 0.0123396)
(3.08728 0.00314312 -0.00511527)
(3.15572 0.000902896 -0.00513973)
(1.08526 -1.08602 0.00195668)
(3.22519 0.0576684 -0.0172824)
(3.0864 -0.000101576 0.000796304)
(1.08247 -1.08363 0.00186322)
(1.09935 1.09961 -0.00184829)
(1.11576 0.449819 0.184793)
(1.10471 1.11223 -0.01708)
(3.20964 0.0544139 -0.0224625)
(3.08307 -0.00133513 0.0208752)
(3.18676 0.956202 0.0574898)
(3.14026 0.0093327 0.00320197)
(1.08577 1.09619 -0.0141276)
(3.19063 0.00234192 -0.0152145)
(3.14011 0.011253 0.00491011)
(3.08549 -0.0119516 -0.00608395)
(3.21695 -0.0594428 -0.0310994)
(1.09433 -1.08586 0.00298614)
(3.19463 -0.00957181 0.0150783)
(3.14091 -0.00893778 -0.00171823)
(3.18956 -0.00238806 -0.0128576)
(1.07993 -1.06881 0.0034821)
(1.07989 -1.07317 0.00570463)
(1.25208 1.04857 0.0192147)
(1.07532 -1.07092 0.00405487)
(3.19984 0.010653 -0.0224398)
(1.07214 -1.06858 0.00169098)
(3.10323 0.00143816 -0.00171963)
(3.12689 -0.00679828 -0.000886552)
(1.09765 1.09828 0.00162551)
(2.90566 -0.00854464 -0.0432897)
(3.14326 0.0091411 0.000673792)
(3.14214 0.00961824 0.000923431)
(1.08322 -1.0858 0.00106878)
(2.99886 0.00156442 0.00816643)
(3.22379 0.0015082 0.0194894)
(1.13747 1.03159 0.00258335)
(3.04668 -0.00196194 0.00135119)
(2.26091 -0.207634 0.0670723)
(3.13947 -1.93133e-05 0.00272486)
(2.99171 0.000333515 0.00373832)
(2.96726 -0.0019134 -0.00561224)
(3.09757 0.0308527 -0.0164124)
(3.00304 0.000176715 0.00469725)
(1.17196 -1.06023 -0.0234318)
(2.99 0.00328742 0.010219)
(1.08474 -1.08598 -0.000706185)
(3.09028 0.000361793 0.00103127)
(1.09757 1.09717 -0.00144656)
(3.1867 -0.0049184 0.0104326)
(1.09696 1.09776 0.000755476)
(0.994824 0.964917 -0.0331397)
(3.10589 -0.0449076 0.0294677)
(3.19184 0.0156257 0.00379637)
(1.09683 1.09664 -0.000545127)
(1.08631 -1.08592 0.000202606)
(3.05237 -0.000276899 0.00175512)
(2.99342 0.00168396 -0.00225989)
(2.47718 1.60191 -0.430837)
(3.16098 0.0270374 0.00197092)
(3.05822 0.0768294 0.0641509)
(3.08404 -0.00225304 0.000120059)
(3.26827 0.0485541 -0.0383792)
(3.14179 -0.00196366 0.00199861)
(3.03799 -0.000567692 0.000956553)
(3.08358 0.00163547 0.000574188)
(3.19287 0.00284161 -0.0131301)
(1.08595 -1.08526 -0.000242907)
(1.0846 -1.08527 0.00108948)
(3.15981 0.027553 0.00859555)
(3.29032 -0.653085 0.0421338)
(3.01329 0.00476837 0.0203208)
(1.08608 -1.08596 0.0022378)
(3.15648 -0.00943794 0.000302559)
(1.10402 1.10727 0.00571604)
(3.14517 -0.00393934 -0.000603712)
(3.09077 -0.00325184 -0.00831145)
(1.07671 0.957611 -0.0234783)
(1.09855 1.09809 -0.000395342)
(3.08557 -0.00129789 -0.000200537)
(3.02798 -0.00728512 -0.000399441)
(2.83644 -0.080954 -0.0805856)
(3.08863 0.0010608 0.000929661)
(3.11089 0.00021769 -0.000870101)
(3.00478 -0.0034749 0.00641447)
(2.98079 -0.0101441 0.00196617)
(1.09527 -1.0904 0.000327619)
(3.08277 0.000270326 -0.000759882)
(1.08994 -1.08694 -0.00149148)
(1.10372 1.09927 0.00474983)
(3.08299 0.00367786 0.00419691)
(1.0864 -1.08682 -6.22963e-05)
(1.09316 -1.08915 -0.00122843)
(1.45531 1.13965 0.0719377)
(1.09184 1.09564 -0.000801467)
(1.1013 1.09844 -0.00272012)
(3.05894 -0.008597 0.0132817)
(0.878645 -0.634529 -0.155463)
(1.38855 1.18941 0.0429014)
(3.08505 -2.06033e-05 0.0011986)
(1.0871 -1.08575 -0.00151028)
(3.20114 0.220413 -0.0893267)
(3.19353 0.066735 -0.0365105)
(3.15314 0.0279657 0.00854517)
(1.08251 -1.07607 -0.00547421)
(1.42243 1.23577 0.12766)
(1.32827 1.18374 0.056632)
(3.14169 0.00297842 -0.0031801)
(1.09958 1.09831 -0.000771014)
(3.08485 -8.1449e-05 -0.000604267)
(3.10871 0.00660518 0.00329602)
(3.07703 0.00616874 0.00503)
(2.61999 -0.00103129 0.00443433)
(3.12767 0.00900927 0.00315905)
(3.10853 0.00801222 0.00556663)
(3.03398 -0.00185191 -0.00410969)
(3.14195 0.00258977 -0.00334547)
(3.08028 -0.00600872 -0.00160619)
(1.09849 1.09972 -0.00049963)
(1.08604 -1.08702 0.000917626)
(1.09589 1.09671 0.00210366)
(3.12626 0.00702473 0.00252102)
(3.03888 -0.000230108 -0.00336819)
(1.08448 -1.08424 -0.00099563)
(2.16109 -0.00473544 0.0181371)
(3.08872 0.00672722 0.00920044)
(3.39702 0.125243 0.0636078)
(3.13983 0.00414214 -0.00270186)
(3.12622 0.00330009 6.81703e-05)
(3.03666 0.00717385 -0.0081132)
(3.42088 0.15745 0.0430911)
(1.08108 -1.09045 0.005005)
(1.08362 -1.08544 0.00031403)
(3.13722 0.00226953 -0.00433326)
(3.09599 -0.00552019 -0.00458729)
(3.44232 0.180142 0.0472609)
(3.39287 0.158833 0.0652162)
(3.08261 -0.00368927 -0.000368225)
(3.1797 0.0277461 -0.00977738)
(1.08473 1.09441 0.000267206)
(3.48643 0.222855 0.0565999)
(3.31878 0.154894 0.0552821)
(1.09802 1.09708 0.00184807)
(1.08499 -1.08449 0.000408469)
(2.7797 0.00627929 -0.00968497)
(1.09859 1.0991 0.000675823)
(3.08837 -0.000511443 -0.00107937)
(3.09237 0.00123706 -0.000484917)
(1.09848 1.07231 -0.00712985)
(1.16856 -1.07602 0.0110286)
(1.08837 -1.08375 -0.00167547)
(1.08094 1.01674 -0.0110056)
(1.17641 -1.08744 0.0196362)
(1.0835 -1.0858 0.00079087)
(3.12611 0.0053499 0.00100071)
(3.13116 6.09461e-05 -0.00362236)
(3.12135 0.00466582 -0.00050266)
(3.06704 -0.0199832 0.0102751)
(3.02517 -0.00645865 0.00198153)
(3.07787 0.00229326 0.00058809)
(2.76196 0.0230229 0.0028192)
(1.08565 -1.08169 0.000148113)
(3.08065 -0.000884687 -0.00565559)
(1.16774 -1.08515 0.0117495)
(1.09531 -1.09638 0.000595863)
(3.07768 0.0025414 0.00132082)
(3.17155 -0.0236257 -0.00623046)
(3.16266 0.0021423 -0.0142282)
(3.08596 0.00467416 -0.004441)
(3.08765 0.00163126 0.000855452)
(1.08401 -1.08106 0.00350754)
(3.08602 -0.00266625 0.00242222)
(3.03838 -0.00339044 -0.00655658)
(2.1132 0.658482 0.0955161)
(3.10643 -0.0203891 -0.000873562)
(3.08799 6.58751e-05 0.000899413)
(1.08971 -1.08572 -0.00261393)
(3.07708 0.00258864 0.00031437)
(3.16628 0.00586767 -0.00166275)
(1.18212 -1.07191 0.00418105)
(3.06648 0.00251451 0.0125674)
(3.19502 0.000502656 0.0086939)
(3.03365 -0.00172026 -0.0038994)
(3.07577 0.00416241 0.00108846)
(1.17627 -1.09169 0.0146172)
(1.08462 -1.0854 -0.00108077)
(3.07378 0.00223514 0.00210756)
(1.97429 1.23002 -0.118423)
(3.22462 0.00748013 -0.025636)
(1.09808 1.0982 -0.00141734)
(3.07605 0.000674961 0.00253108)
(3.0844 0.000889564 -0.000969528)
(3.19827 -0.00257927 0.0155802)
(1.08791 -1.0861 0.00187398)
(3.06529 0.00232639 -0.00194986)
(3.18511 0.0432203 0.0227325)
(1.73965 1.15883 -0.125467)
(1.09874 1.0979 -0.000290884)
(1.09785 1.09795 0.00147497)
(3.26302 -0.0107127 0.0286399)
(3.0574 0.0659361 -0.00211944)
(1.15452 0.971802 -0.0234364)
(1.34381 -1.04599 0.0383913)
(3.08408 0.000387337 -0.000836793)
(3.08819 9.95066e-05 0.000114275)
(3.12514 0.00309578 0.00574023)
(1.14141 0.988777 -0.0271386)
(1.14776 -1.06018 -0.00440261)
(3.0816 0.0400356 -0.0462681)
(1.08556 -1.08555 0.001167)
(3.00053 -0.00143782 -0.0060988)
(3.08457 0.00115763 0.000885259)
(3.08489 0.000897655 -8.06941e-05)
(3.08515 0.000121764 0.000105119)
(3.08485 0.000146966 0.000885395)
(1.09521 1.0958 0.00493555)
(2.37903 -0.00332668 -0.0774137)
(3.08442 0.0012804 0.000137586)
(1.09299 1.09678 -0.00361074)
(1.09723 1.09924 -0.000704395)
(3.22289 -0.0282264 0.000745992)
(3.10909 0.0105364 -0.00264767)
(1.12499 0.958102 -0.0310782)
(3.08828 -0.00125738 0.000709113)
(3.08469 -3.50559e-05 0.000107965)
(1.08629 -1.08605 -0.000722763)
(1.39679 1.31719 -0.00825958)
(3.18145 0.0341167 -0.0152491)
(1.08827 -1.07625 -0.000892697)
(1.19764 -0.863302 -0.0238895)
(1.6422 -0.589061 -0.0545304)
(1.08729 -1.08456 -0.000831541)
(3.08738 -0.000618188 -0.000356141)
(3.08233 -0.00204919 -0.000991542)
(3.08528 -0.00111042 -0.00663375)
(1.08572 -1.08557 -0.000783055)
(3.08577 -0.000947044 0.00102351)
(1.08721 -1.08716 -0.00130611)
(1.08604 -1.08739 0.000770166)
(1.08422 -1.08053 0.00207789)
(2.25909 0.00976091 -0.0258701)
(3.18615 -0.00506624 0.0103268)
(3.05468 0.00690783 0.00540797)
(3.08282 0.0056107 0.00512643)
(3.19217 -0.00694376 -0.00127401)
(3.08161 0.00571528 0.00373551)
(3.11566 0.00563371 0.00282334)
(3.2003 0.0531222 -0.000245249)
(3.08786 0.000877755 -0.00158445)
(3.08696 -0.000735427 -8.42502e-05)
(1.1166 1.09813 -0.000483931)
(1.08363 -1.08533 -0.000765408)
(2.05702 0.00989655 -0.0412773)
(3.08873 -0.000244885 0.000751963)
(3.18549 0.0213698 0.0271831)
(3.08786 -0.000322553 -0.000512525)
(1.08537 -1.08578 0.00205701)
(3.10513 0.00479764 0.00129472)
(3.12852 0.0103777 0.00364946)
(3.08616 0.00271595 0.0035462)
(2.87731 0.00402501 -0.0178598)
(2.88343 -0.0268382 -0.0611409)
(3.10374 0.00508504 0.00103524)
(3.08158 0.00378981 0.00443371)
(3.16316 0.0270267 -0.0181823)
(1.09805 1.09959 0.0031391)
(2.98582 0.00826225 0.00044959)
(1.09798 1.09817 0.000135573)
(0.890294 0.666564 -0.148227)
(1.21612 -0.800048 -0.0723843)
(3.2829 -0.0221069 0.0479286)
(3.1926 -0.0067583 -0.00124479)
(3.12091 -0.00362211 0.000264313)
(1.08711 -1.08553 -0.00132969)
(1.09498 1.1006 0.00766433)
(3.09213 0.00322866 0.00205992)
(3.08406 -0.00152017 -0.00105822)
(1.08632 -1.08508 -0.000800596)
(1.08651 -1.08555 0.00243603)
(1.06687 -1.07245 0.0056574)
(3.083 -0.00102156 0.00102818)
(3.08569 -0.00228968 -0.00162609)
(3.03632 0.0010347 0.00551321)
(3.01772 0.00256605 -0.00339055)
(3.15311 0.00729616 -0.00306722)
(1.26378 1.08183 0.0277241)
(1.09629 1.09864 0.00194365)
(1.08631 -1.08464 -0.000166078)
(3.09024 0.00453321 0.00548641)
(2.06252 -1.75176 -0.126044)
(3.04753 -0.00365622 0.00521784)
(3.25933 -0.0123089 0.0653775)
(2.66829 0.00325854 -0.0420908)
(1.09683 1.10018 0.000248488)
(1.08582 -1.08602 0.000492427)
(1.08496 -1.08561 -0.000494215)
(1.39202 1.16421 0.0747315)
(3.10268 0.00174856 0.00128417)
(3.16542 -0.00862117 0.00314754)
(1.10088 1.1039 0.000381158)
(3.09986 0.00236837 -0.00122441)
(1.16214 0.935166 0.0694932)
(1.09233 -1.07808 0.00093807)
(3.22663 -0.00263501 0.0213994)
(3.09498 0.00335302 0.00195437)
(3.1901 0.00287675 0.00781258)
(3.09812 0.00308118 -0.00229399)
(1.06164 0.936486 0.058154)
(1.37938 1.18238 0.079353)
(1.09708 1.09778 -0.00228776)
(3.0958 0.00361585 0.00347589)
(3.08836 0.00330692 0.000983767)
(3.21286 0.0631486 -0.0255362)
(1.09075 1.08549 0.00173242)
(2.19656 1.94562 -0.467543)
(3.0299 0.0221933 0.0289094)
(3.16491 -0.00449093 0.00492687)
(3.08979 0.00603651 0.00444463)
(3.00168 0.291918 -0.0236104)
(3.15282 0.00348128 -0.00580271)
(1.09702 1.09625 0.000683663)
(3.15313 0.00513005 -0.00162799)
(3.07819 0.00386067 0.00219651)
(3.236 -0.0631173 0.00341974)
(3.23577 -0.011208 0.0343548)
(3.10256 -0.0112242 -0.00924363)
(1.0944 1.10031 -0.00391307)
(1.08406 -1.08498 -0.000433375)
(1.10092 1.09327 0.00485479)
(1.07986 -1.08256 -0.00145404)
(3.14384 -0.00414907 0.00170301)
(3.09872 0.00230389 -0.000353451)
(3.15856 0.00437301 -0.00874193)
(3.15413 0.00237294 -0.0057437)
(1.09099 1.09349 -0.00385568)
(3.13063 -0.0103988 -0.00450964)
(1.09713 1.09771 0.00253627)
(1.08213 -1.08526 -0.000635035)
(3.15235 0.00535461 -0.00367893)
(1.00703 -1.00642 0.014479)
(1.77797 -0.355334 -0.0258712)
(1.07414 -1.07002 -0.000314211)
(1.10747 1.09404 0.00895377)
(3.13355 0.000734004 -0.00252019)
(1.09809 1.0967 0.000566243)
(3.08536 0.00167027 -0.000895514)
(3.02166 0.00182684 -0.0021387)
(1.09965 1.09984 -0.000165176)
(2.98655 -0.00137774 -0.00473235)
(3.09112 0.00397275 0.000976703)
(1.10622 0.965738 -0.0363585)
(3.07835 0.00725905 0.00951584)
(3.02532 0.00226127 0.00415449)
(3.08582 0.00371776 0.00388274)
(2.91672 0.00827206 0.0327538)
(3.08022 0.0027446 0.00308731)
(3.08643 0.00134229 0.0018075)
(1.08148 0.920894 -0.0022564)
(1.08535 -1.08075 0.00548169)
(2.73096 0.0055168 0.0535499)
(1.0914 1.09356 -0.00607972)
(3.09845 0.0103953 0.0127788)
(3.23148 -0.00852904 0.0259564)
(1.10922 1.05872 0.00919044)
(1.09536 1.10014 -0.0016405)
(3.11054 0.00267939 0.000179519)
(3.05443 -0.00621654 -0.0148806)
(3.0791 0.00683705 -0.005105)
(3.17654 0.0130298 -0.00431182)
(1.09839 1.09701 0.000968674)
(3.25043 0.000482628 0.0447268)
(3.17424 -0.00294006 0.00917606)
(1.10077 1.09845 -0.000627097)
(3.13615 0.0451103 0.0377669)
(3.00145 -0.00549433 -0.0156945)
(1.08649 -1.08429 -0.000939129)
(1.08606 -1.08368 -0.00183853)
(3.08234 0.00299288 -0.000586585)
(3.12035 -0.000343194 -0.00104829)
(1.10363 1.10307 -0.00164354)
(1.08711 -1.08659 -0.0023591)
(1.89372 -1.03554 0.230807)
(1.08591 -1.08634 0.000465381)
(3.1378 0.00315223 0.00125277)
(1.09297 1.09569 0.00120608)
(1.08504 -1.08662 0.000279384)
(3.18966 0.00385671 0.0084624)
(2.9288 -0.0295276 -0.0726644)
(3.1724 -0.0134485 0.00086534)
(3.08044 -0.00497891 0.00284362)
(1.10005 1.09851 0.000771181)
(1.4308 1.09946 0.055414)
(3.07631 0.0337256 0.0562203)
(1.34115 1.18137 0.0642336)
(3.06707 0.0098441 0.0189376)
(3.06133 -0.0211193 8.82679e-06)
(3.16453 -0.0133492 -0.00857453)
(2.22614 0.0649288 0.0833449)
(1.31873 1.13336 0.0589157)
(3.10956 -0.00460962 -0.0316865)
(3.2419 0.099119 -0.0279646)
(1.08552 -1.08624 0.00170221)
(3.20246 0.00468382 -0.0255713)
(3.1788 -0.00442683 0.00828781)
(1.08787 -1.08685 0.00183355)
(3.11165 0.167865 -0.0921948)
(2.80126 -0.000539392 -0.0279394)
(1.39179 1.08885 0.047715)
(3.17115 -0.00179977 0.00781578)
(3.15214 0.000215561 -0.00289861)
(3.07847 0.00108459 -0.00257033)
(1.0993 1.09554 0.000114827)
(3.07345 -0.00932398 0.0236317)
(3.18968 0.00611055 0.00603968)
(3.06116 0.0182147 -0.00641383)
(2.01443 -0.0286566 0.0259107)
(1.34445 1.26559 -0.0259335)
(1.87571 -0.0472315 0.0597903)
(1.08597 -1.08725 0.00190703)
(2.91364 -0.0898394 -0.0803543)
(3.06896 -0.00992911 -0.0274469)
(1.0988 1.09779 0.00176735)
(3.01224 0.00508964 -0.0120549)
(2.56423 -0.00297015 0.0369121)
(1.43484 1.26537 -0.0116813)
(1.08583 -1.08541 -0.000277949)
(1.26727 -1.08042 0.0337966)
(1.08576 -1.08547 0.000515832)
(3.11977 0.0254286 -0.00941958)
(3.08193 0.00854657 -0.00354327)
(3.1059 -0.00331365 -0.00202594)
(2.98127 0.000275404 -0.00345206)
(3.18068 -0.0493667 -0.00879485)
(1.09817 1.09304 -0.00165534)
(3.0951 0.00194758 -0.0011259)
(1.08917 -1.07943 0.000261077)
(3.06245 0.00407761 0.00703948)
(1.1011 1.10079 0.000457218)
(1.0848 -1.08516 -4.38746e-05)
(1.07649 -1.07901 -0.00220506)
(3.06678 -0.00787363 0.00366239)
(1.08324 -1.08556 -0.000102812)
(1.08691 -1.08695 0.00107467)
(1.08339 0.702265 -0.0485318)
(1.08713 -1.08704 0.000743827)
(1.08624 1.1014 0.00961393)
(3.09148 -0.0144983 -0.00731918)
(1.09789 1.09679 -0.000603497)
(1.30405 0.959035 -0.000673437)
(1.09967 1.09855 0.000903935)
(1.08509 -1.08195 -0.000628814)
(1.10008 1.09571 -0.00249376)
(1.08334 -1.077 -0.00513436)
(1.09573 1.0962 -0.0002965)
(2.90582 -0.00188848 -0.00752085)
(1.10177 1.09526 0.00450294)
(2.9228 0.0318133 0.0538978)
(3.1486 0.0108492 -0.00419231)
(3.25584 -0.117753 -0.0199416)
(1.09698 1.09449 -6.00952e-05)
(2.77789 0.00589488 0.0380467)
(1.10142 1.097 0.000869418)
(1.08661 -1.08569 -0.000278486)
(3.08475 -0.018241 -0.0196966)
(3.09194 -0.0150471 -0.0175515)
(3.10298 -0.0019737 -0.00483248)
(3.26141 -0.00136408 -0.0481509)
(1.2681 1.0602 -0.0316104)
(3.17186 -0.00115495 -0.0124201)
(3.16902 5.75093e-05 -0.0134604)
(3.08299 -0.00222907 0.000974716)
(3.088 0.00128785 -0.00147744)
(3.128 -0.017915 -0.0104299)
(1.08449 -1.08502 -0.000359395)
(3.0834 -0.00218303 0.00299943)
(1.44757 1.25861 -0.00864531)
(3.13826 0.00535283 -0.00309992)
(1.09789 1.09689 -0.00102773)
(3.18396 -0.00225977 -0.00761122)
(1.42794 1.18217 0.0110906)
(3.0869 -0.00401864 -0.00214257)
(3.15637 -0.00716424 0.00696085)
(1.24913 -0.647316 -0.00435702)
(1.09934 1.10098 0.0111609)
(3.08896 0.00153282 0.00812531)
(1.08534 -1.08517 -0.000487562)
(3.19289 0.0060857 -0.0169226)
(3.17351 0.00449427 -0.00918175)
(1.09717 1.09521 -0.00957356)
(1.09585 1.09716 0.00178388)
(1.07838 0.954876 -0.0281488)
(1.09746 1.09923 -0.000204603)
(2.24314 -0.120107 0.0605263)
(3.19466 0.00562523 -0.013972)
(1.11219 1.08519 -0.000699682)
(1.09648 1.09747 0.000656708)
(2.90892 0.00124921 -7.10985e-05)
(1.0975 1.09909 -0.00134769)
(3.15325 0.0031394 -0.00715299)
(1.09769 1.09845 0.00185686)
(3.12567 -0.0131413 -0.00680531)
(1.08649 -1.08621 0.000642653)
(2.9543 -0.0129475 -0.028557)
(2.62839 -0.00589686 -0.00595455)
(3.06557 -0.00319455 0.000960633)
(3.08676 -0.00217256 -0.00393153)
(1.10535 1.09548 -0.00235044)
(3.08899 0.00450847 -0.00936546)
(1.10117 1.09727 0.000939388)
(1.09867 1.09901 -0.0024854)
(3.11221 -0.000800147 0.0019649)
(1.0989 1.09784 -0.000417221)
(2.77057 -0.000448309 -0.0188258)
(1.0631 0.979526 -0.0295282)
(3.15583 0.000269001 -0.00785182)
(1.08566 -1.08462 0.000347368)
(3.17605 0.00217988 -0.00499301)
(1.08655 -1.08465 -0.00121997)
(1.30959 1.15624 0.0328948)
(3.25084 0.119268 -0.00942999)
(3.08895 -0.018611 -0.0190751)
(3.13887 0.00698196 -0.00138576)
(3.15166 -0.0212773 -0.0145947)
(3.1261 0.00302713 -0.00075264)
(3.18412 -0.00795109 -0.00121309)
(1.0912 1.10167 -0.00577616)
(3.13452 0.0139163 0.00888889)
(3.09826 -0.0209432 -0.015758)
(1.09869 1.09908 -0.00115073)
(2.68543 -0.0360923 -0.0952529)
(3.2232 -0.0268895 -0.0150653)
(3.09078 0.00703752 0.00851926)
(1.08846 1.07304 -0.00622743)
(1.36044 0.25226 -0.222243)
(3.04359 0.00808234 0.00761653)
(2.60964 -0.0100946 0.0191456)
(2.57539 0.655669 -0.00126285)
(1.39825 -0.729417 -0.0559842)
(3.17608 -0.0203631 -0.00519528)
(3.0191 0.00486818 0.016671)
(3.08494 -0.0192994 -0.0203375)
(3.1427 -0.00987708 -0.00683151)
(3.06259 0.0112293 0.0103595)
(2.77002 0.351895 -0.0146274)
(1.36504 1.1532 0.00975136)
(2.82464 -0.104482 0.0213537)
(2.73702 -0.249378 0.0498035)
(1.08493 -1.08546 -0.000101656)
(2.88378 0.0111502 -0.00281383)
(1.10452 1.08489 -0.00683716)
(1.29299 1.17824 0.0113021)
(3.08658 0.00108519 0.00105631)
(2.78763 0.452532 -0.00227451)
(3.36924 -0.287938 -0.0564064)
(3.04412 -0.530223 0.00613954)
(1.29208 1.22818 -0.0937471)
(3.16097 -0.0107953 -0.00436664)
(3.12888 0.0136961 0.0124149)
(1.09567 1.0922 -0.00108233)
(1.42252 0.773915 -0.0308947)
(3.12944 0.0178038 0.013372)
(1.08619 -1.08294 0.000375948)
(1.09721 1.09625 -0.000561976)
(1.09708 1.09724 0.000297715)
(1.099 1.09231 0.00137499)
(3.16171 -0.0224233 -0.00583949)
(1.09772 1.09751 0.000356077)
(1.09081 -1.09032 0.00522009)
(3.11365 -0.0110952 -0.0102034)
(3.08153 -0.000335578 0.00040545)
(1.58905 -1.39583 -0.076363)
(3.12925 0.0169744 0.0122897)
(1.28262 1.02731 0.0258392)
(3.08786 -0.00245909 -0.00126088)
(1.06813 -1.07011 -0.0054669)
(1.09578 1.09812 -0.00105327)
(3.15765 -0.012163 -0.00534646)
(1.09871 1.09308 -0.00221177)
(1.0966 1.09446 0.000891324)
(1.26312 1.2097 0.0345057)
(3.07572 -0.00501798 0.00289847)
(1.8274 1.52809 -0.201973)
(3.12217 -0.00650339 -0.00359572)
(3.0877 8.45886e-05 0.000173796)
(1.07844 -1.07135 -0.00752295)
(3.27228 -0.00288557 0.0997852)
(2.98204 -0.0103553 -0.0321876)
(3.11121 -0.00184734 -0.0017104)
(3.16991 0.05189 0.00659068)
(3.18735 0.0282459 -0.0702955)
(2.86519 -0.00346874 -0.0133435)
(1.09815 1.09808 0.00160625)
(3.17036 -0.00131639 0.00837109)
(3.13582 0.00928049 0.000552679)
(1.07676 -1.09015 0.00125344)
(3.06188 0.00561512 -0.0081441)
(3.18679 0.0190257 -0.00136295)
(3.15897 0.0103912 -0.00259827)
(3.0779 -0.0139741 -0.0197698)
(3.16028 0.0114988 -0.00256985)
(3.15921 0.0143875 2.70743e-05)
(1.08828 -1.07462 0.00675566)
(3.18366 4.9967e-05 0.0109397)
(2.73261 -0.0155312 -0.00944068)
(1.33162 1.15405 0.0737405)
(3.15923 0.00619113 -0.0062362)
(3.06416 0.000868211 -0.00390363)
(1.78159 1.44584 -0.218731)
(3.08728 -7.26257e-05 0.000841989)
(3.16265 0.00348824 -0.00708545)
(3.06587 0.000591979 -0.00564575)
(3.14256 0.0123548 -0.00109938)
(3.10646 0.0255769 0.00969067)
(3.08655 0.000215548 -0.000515019)
(1.0746 1.0486 0.00101644)
(3.14148 0.014114 0.00255729)
(2.98186 -0.0166707 -0.0285164)
(1.21044 -0.7383 0.0232758)
(3.13045 0.021865 0.014126)
(3.10485 0.0213385 0.0230076)
(3.08525 -7.50852e-05 0.000516175)
(1.09761 1.09522 0.000938826)
(3.07101 0.0146772 -0.0261436)
(1.08785 -1.0817 0.00406447)
(1.09841 1.09685 -0.000919478)
(1.09488 1.08735 0.000852308)
(1.10034 1.09479 0.00141476)
(2.84638 0.000602097 -0.00375014)
(1.31456 1.12902 0.0473704)
(2.42043 -0.167824 0.191168)
(1.08166 -1.08368 -0.000515384)
(1.09744 1.11303 -0.00120823)
(3.14436 0.0244983 0.0165155)
(3.15144 0.00290048 -0.0117743)
(1.08605 -1.08629 0.000408878)
(3.16194 -0.0135927 -0.00183953)
(1.08671 -1.08503 0.00425288)
(1.08689 -1.08634 -0.00035763)
(1.0708 -1.07122 0.00397491)
(3.20831 -0.0152806 -0.00331312)
(2.82107 0.0117858 -0.00214515)
(1.30107 1.16683 0.0130604)
(1.09738 -1.08526 0.00231136)
(1.09652 1.09985 -0.00195013)
(1.09855 1.09906 -0.000760838)
(3.23988 0.00256367 -0.0331921)
(3.08612 0.000887272 0.000442391)
(1.31169 1.23265 0.0578008)
(3.18068 0.00267084 -0.0136775)
(2.99996 -0.0387812 -0.116115)
(1.09618 1.09675 0.00158541)
(3.17359 0.00193557 -0.012239)
(2.95007 -0.000734232 0.0129157)
(3.06812 0.011293 -0.0140906)
(1.09736 1.09783 0.000630256)
(1.09719 1.09583 0.000338422)
(3.07794 0.00897849 0.00993754)
(3.08576 -0.000408249 -0.000428795)
(1.30263 1.18232 0.0177978)
(1.09508 1.09641 0.000857488)
(1.11735 1.07918 -0.00376279)
(3.09358 -0.00160426 -0.00134607)
(1.08622 -1.08618 -0.00150266)
(1.08629 -1.08329 0.000152999)
(1.09478 1.0964 0.00142326)
(3.17108 0.00290176 -0.00958849)
(2.9549 -0.00814009 -0.00153789)
(1.09769 1.09821 0.000127479)
(1.23432 0.231315 0.226202)
(1.36589 -0.167028 -0.0320045)
(3.07703 0.011774 0.00236953)
(1.09795 1.10009 -0.000315064)
(1.09856 1.09614 -0.000312125)
(3.19345 -0.0234471 -0.00432848)
(3.08113 0.047577 0.0418693)
(1.32364 1.18069 0.0579647)
(1.94057 0.618327 0.0407153)
(3.04277 0.0670596 0.090317)
(2.94594 0.0106607 -0.00792859)
(3.09243 0.00049673 0.000519174)
(1.14198 1.07117 -0.000964634)
(3.07859 0.00387799 0.000132108)
(3.18007 -0.0130006 0.017818)
(1.10024 1.09697 -0.00220988)
(1.07778 -1.06428 0.00075764)
(1.0956 1.09588 -0.000713113)
(1.0969 1.09762 0.00028854)
(1.09815 1.10037 -0.000771326)
(1.09935 1.09809 -0.000754476)
(3.17801 0.00147327 -0.00907287)
(1.08416 -1.08514 0.00210068)
(1.09638 1.09682 0.000550732)
(1.09135 1.08045 0.00126749)
(3.18114 0.00348614 -0.0129782)
(3.086 -0.000472565 0.00054834)
(1.09068 -1.07718 0.00147584)
(1.07518 -1.06466 0.00145844)
(3.21091 -0.0061832 0.0231908)
(3.08517 -6.72448e-05 -0.000148375)
(3.08539 0.000335632 0.000296528)
(1.08579 -1.08296 0.000316982)
(1.09552 1.09927 0.00011434)
(3.08586 0.000216728 -0.000182786)
(1.08673 -1.08537 0.000427568)
(3.06648 0.00129735 0.00312137)
(3.08544 0.000877202 0.00226393)
(3.08316 0.000347076 -0.000290562)
(1.0935 -1.08487 0.00251276)
(1.08558 -1.08752 0.00176931)
(1.08605 -1.08686 0.00057327)
(1.09852 1.10101 0.00079881)
(3.11354 -0.00445349 -0.000558194)
(1.09805 1.09854 0.00148474)
(1.09659 1.09638 0.000176171)
(3.13926 0.0160753 -0.013572)
(1.08558 -1.08576 0.0011899)
(3.08828 0.0031003 0.000859356)
(2.88785 -0.024071 0.00510687)
(1.10933 1.07299 0.00588431)
(3.08552 -0.000808998 0.000726413)
(1.48821 0.171442 -0.0236981)
(3.08998 0.0033358 -0.00101372)
(3.20071 -0.00281921 0.00463011)
(2.93487 0.00370916 0.00607541)
(3.20437 -0.000906526 0.0168829)
(2.35424 0.0428948 -0.0902598)
(1.31182 1.04446 0.0230893)
(3.09048 0.00344972 -0.000588401)
(3.21303 0.0157994 0.00270665)
(3.09274 -0.00115498 -0.0016152)
(1.12371 0.975182 -0.03481)
(1.45555 0.135554 -0.0744946)
(1.6972 -0.148484 0.0450389)
(3.08837 0.000365945 -0.00216784)
(1.09691 1.09798 0.00176518)
(3.05547 -0.00523564 -0.0155465)
(3.11893 -0.00390985 -0.00461724)
(3.02262 -0.0187426 -0.0359679)
(1.1813 -0.850313 -0.0590549)
(1.08644 -1.08727 0.000598143)
(1.08538 -1.08597 -0.000743095)
(3.08755 -0.000524839 0.000356228)
(1.27875 1.05671 -0.0145899)
(3.09444 0.00717894 -0.00728344)
(1.19235 1.08512 0.0127765)
(3.01491 -0.00822729 -0.00896394)
(3.08824 0.000599369 -0.000328056)
(3.08868 0.000150349 0.000634395)
(3.08728 -0.000281951 -0.00156002)
(1.0961 1.09654 -0.000625336)
(1.09179 1.08983 -0.00137245)
(1.16837 -1.06267 0.00431844)
(3.0859 -0.000537992 0.00016179)
(1.09946 1.09645 -0.000764881)
(1.2706 1.09251 -0.0496893)
(3.23915 0.063964 -0.0526504)
(1.10286 1.10093 -0.00176408)
(1.09276 1.097 0.00442389)
(1.08329 -1.08031 -0.00248427)
(1.09825 1.09914 0.00202163)
(3.08846 -0.000112064 0.000903664)
(1.12748 1.06976 0.000418997)
(1.09922 1.09722 -0.000317727)
(2.58926 0.359611 -0.250825)
(1.28829 1.03634 -0.0118215)
(1.09368 1.09466 -0.00818015)
(1.55063 -0.925779 0.0527849)
(1.09946 1.09676 -0.000702674)
(2.62743 0.0027919 -0.00950854)
(3.08825 0.00115516 0.000860549)
(1.08551 -1.08407 -0.000804755)
(3.07054 0.00763036 -0.0135127)
(3.04872 0.477308 -0.0644689)
(3.00408 -0.0212981 -0.0373254)
(3.30123 0.114703 0.00545477)
(3.08763 -0.000313189 0.000414117)
(1.09815 1.09115 0.0021199)
(3.09823 -0.0190883 -0.0228354)
(3.23377 -0.00392537 0.00642874)
(3.00115 -0.0216078 -0.0369187)
(1.08603 -1.08425 -0.00138718)
(3.27728 0.856249 0.228894)
(3.08994 -0.000120552 -0.000783872)
(1.47358 1.16953 -0.0698598)
(3.08845 -0.00215634 -0.00122396)
(3.259 0.0293153 -0.025056)
(3.13763 0.0526427 0.00848226)
(3.0753 -0.00368604 -0.00535416)
(3.08982 0.00713571 -0.00418243)
(3.28519 0.0369989 -0.0114476)
(3.08702 0.00121049 -0.00413004)
(3.0857 -0.00134919 0.00177061)
(1.09124 1.09407 0.00470453)
(1.09625 1.08925 0.00354642)
(3.08836 0.00140183 -0.00645302)
(3.08848 -0.000679565 -0.00100507)
(1.09568 1.09876 -0.000903996)
(3.08971 0.0019988 -0.0011698)
(3.18895 -0.0040097 0.00321395)
(3.08479 -0.000904473 -6.84364e-05)
(1.10299 1.09083 -0.000601651)
(3.12236 0.0511007 0.0184935)
(1.0972 1.09656 1.85805e-05)
(3.08752 -0.00176529 0.00381357)
(3.08589 0.00159334 0.00104235)
(1.09762 1.09672 -0.000818724)
(3.0617 0.0120966 -0.0247516)
(3.08056 0.00122609 0.00291021)
(3.11248 0.047088 0.0084316)
(3.09626 -0.00800111 0.00500786)
(1.12168 1.09937 -0.00117699)
(3.137 -0.000356792 0.00324561)
(3.12578 0.0617246 0.00560602)
(3.28484 -0.0853736 0.0193278)
(2.79212 0.0312222 0.0150822)
(2.55587 0.00593845 -0.0285444)
(1.10045 1.08944 -0.00170176)
(1.09711 1.09589 0.00298695)
(3.07307 0.0299 0.00491794)
(1.09743 1.0992 -9.48718e-05)
(2.83696 -0.00168234 -0.0192051)
(3.06365 -0.00848761 -0.0135873)
(1.86397 0.238173 -0.0520901)
(3.41089 -0.223109 0.0781319)
(3.00955 -0.13981 0.0358797)
(3.34975 -0.128008 0.0296872)
(1.09754 1.09958 0.000325938)
(1.49786 1.26858 0.0115512)
(3.08948 0.000682267 -0.00347893)
(1.08131 -1.08465 -0.00438039)
(0.61321 -0.424305 0.183028)
(3.12831 -0.0432822 -0.0319337)
(1.09844 1.0954 -0.00248073)
(1.09853 1.09635 -0.000576402)
(2.81581 -0.0592567 -0.0068177)
(2.29811 -0.147218 0.0329505)
(1.09739 1.09797 0.000926845)
(2.85253 -0.0520248 0.00301917)
(1.09715 1.09583 0.00186707)
(1.09759 1.09981 -0.00244354)
(1.08565 -1.08779 0.00056143)
(1.08736 -1.08448 0.00234575)
(1.06819 -1.05943 0.00192487)
(1.08633 -1.08377 -0.000134223)
(2.88611 0.0173528 -0.00458318)
(1.09599 1.09158 0.000604566)
(1.09824 1.09796 0.000675051)
(1.09083 1.09838 0.000970551)
(2.64983 -0.594757 -0.159046)
(2.98551 -0.0196105 -0.0447245)
(2.95287 0.000616105 -0.0134679)
(3.08903 -0.00103513 -0.00226038)
(1.09386 1.08653 -0.000674533)
(1.10254 1.09576 -0.000692596)
(3.02932 -0.0443203 -0.0516629)
(1.09762 1.09799 -0.00175952)
(1.09879 1.09588 -0.000948615)
(1.76633 1.00006 0.0383592)
(3.225 -0.0322703 -0.000333475)
(3.09827 0.00284867 0.000418279)
(1.0973 1.09671 -0.000214473)
(1.09992 1.09564 0.002598)
(1.09604 1.09141 -0.00146047)
(1.09853 1.09562 0.000123701)
(1.10078 1.09889 -0.000243859)
(1.09951 1.09807 0.000528488)
(3.153 -0.0602697 -0.0366172)
(1.09874 1.0948 -0.00070843)
(2.2142 0.0308437 0.0694039)
(3.15017 -0.00197547 0.0062784)
(1.09774 1.09973 -0.000370155)
(1.08033 -1.0848 -0.00113578)
(1.07252 -1.06139 5.64505e-05)
(2.68719 0.0304754 0.141721)
(1.06656 -1.06743 -0.00438665)
(1.08433 -1.08543 -0.0004337)
(1.09363 1.09393 -0.00776462)
(2.88444 -0.0430795 -0.00446648)
(1.09611 1.09715 -0.000399657)
(3.13779 -0.0300127 -0.0185275)
(2.60213 0.0316746 -0.00917488)
(2.09903 0.00163367 0.0802436)
(1.09507 1.0969 0.000159524)
(2.17049 -0.572658 0.0496533)
(3.16638 -0.0035541 0.00731004)
(3.14739 0.00201186 -0.00473721)
(1.16076 -1.10869 -0.0132448)
(3.08303 -0.0523485 -0.0104073)
(3.13206 -0.00864834 -4.46588e-05)
(1.08446 -1.07731 0.00143184)
(1.13553 1.07446 0.00361671)
(1.51809 -1.17637 -0.0965876)
(1.09307 1.09667 -0.00193814)
(3.08759 -0.00036208 -0.000380048)
(3.13306 0.00116496 0.000851528)
(3.21302 -0.0310664 0.0162052)
(2.13369 0.000851169 0.112405)
(1.09826 1.09777 -0.000959196)
(3.08778 -0.000399997 0.00043607)
(1.13512 1.0773 -0.00299192)
(1.37809 1.16308 -0.00573765)
(1.45065 -1.1333 -0.0460164)
(1.09813 1.098 0.000564658)
(3.12348 0.0030503 -0.000553699)
(1.09496 1.09472 -0.000199556)
(1.0747 -1.05906 0.000567481)
(2.91723 -0.0330543 -0.0652691)
(3.09944 0.00294697 -0.00270124)
(1.07457 -1.059 -0.00278592)
(3.12855 -0.0017393 -0.000810742)
(1.1715 1.14428 -0.00720135)
(3.16915 -0.0198838 -0.00590713)
(1.03154 0.983039 0.00812275)