/*--------------------------------*- C++ -*----------------------------------*\
  =========                 |
  \\      /  F ield         | OpenFOAM: The Open Source CFD Toolbox
   \\    /   O peration     | Website:  https://openfoam.org
    \\  /    A nd           | Version:  10
     \\/     M anipulation  |
\*---------------------------------------------------------------------------*/
FoamFile
{
    format      ascii;
    class       surfaceScalarField;
    location    "8";
    object      phi;
}
// * * * * * * * * * * * * * * * * * * * * * * * * * * * * * * * * * * * * * //

dimensions      [0 3 -1 0 0 0 0];

internalField   nonuniform List<scalar> 
109758
(
-3.55205e-06
0.00122025
-0.0012167
-0.00124999
0.00128635
-3.63657e-05
0.000105044
-0.00114871
0.00104367
-0.00144188
8.69247e-05
0.00135496
0.00146458
-0.00017008
-0.00126115
-3.33532e-05
-0.00040529
0.000396321
8.96855e-06
-0.00110354
-6.82596e-06
0.00111037
0.00202701
-0.000257349
-0.000385458
-0.0013842
-2.38627e-05
0.000849608
1.4421e-05
-0.000840167
0.000466489
-7.24239e-05
0.000596697
-0.000990762
-4.02786e-06
0.000586026
-0.000581998
0.00187282
-0.00152563
-0.00143721
0.00109003
0.000320919
0.00125913
-0.00143779
-0.000142262
0.00118724
-0.00121875
3.1504e-05
-0.000976552
0.00110887
0.00133226
0.00069143
-0.000946156
-0.000684478
0.000939203
0.000820202
-0.00157467
0.00140431
-0.000649837
0.00148463
0.000242279
-0.00110179
-0.000625118
0.00149817
0.000227737
-0.00121017
-0.000515737
-0.00143257
0.000170181
-0.000107835
0.00137023
0.000216023
-0.000289768
7.37446e-05
-2.42698e-05
-0.0012003
0.000284218
0.000940353
-0.000275108
0.000849389
-0.000574281
0.000251248
-0.000301533
0.00102946
0.00116118
0.000415702
-0.00040138
-0.00117551
1.75876e-05
0.000563351
0.000903693
0.00124022
0.00151584
-0.00194098
-0.00081508
-0.00110428
0.00109315
1.11277e-05
3.68696e-05
0.00112432
0.00148156
-0.00101878
0.000787905
-0.00125068
-0.00149416
0.001565
-8.70408e-05
1.61962e-05
-4.98714e-05
0.000604474
-0.000554602
-1.45329e-05
0.00089874
-3.47764e-05
-0.000849431
-0.000831214
0.00082741
3.80432e-06
-0.000123691
-0.00131712
0.00110461
0.000336199
-0.00115933
0.00212031
-0.000718699
0.000576797
0.000169403
-0.0007462
0.000197663
0.00103781
-0.00147206
0.000236587
-0.000252507
-0.00111868
7.80427e-06
0.00136338
0.00114073
5.57921e-06
-0.0011463
0.00167619
-0.00110625
0.000734901
-0.00130484
-0.000392233
-0.000504916
0.000676485
0.000220664
-3.42405e-05
3.32183e-05
0.00167721
-0.00144751
0.00142538
1.30668e-05
9.06523e-06
0.000796994
-0.000798013
1.01922e-06
0.000334421
-0.00214635
-0.000332917
0.00214484
0.000997188
-0.00028227
-0.000251069
-0.000463849
-0.0011137
0.00138924
-0.00019526
-8.02809e-05
1.69212e-05
0.00102301
-0.00103993
-0.00224842
0.000142898
0.000188008
0.00191751
0.00107858
-0.000521927
0.000519277
-0.00107593
0.000398113
0.000616663
1.48451e-05
0.00139899
-0.00141384
-0.00105901
0.00106213
-3.12124e-06
-0.00121682
0.00125369
-0.00032885
-0.00175224
-0.000430177
0.00251127
-0.00228318
0.00318383
-0.000666931
-0.000233719
-0.00111335
0.000982425
0.00116673
-0.00103581
-0.00180309
0.000708149
-5.91583e-05
0.0011541
-0.000716649
0.000261899
0.000644663
-0.000189914
-0.00149622
0.00142436
7.18622e-05
-0.00323457
0.000189836
0.00163076
0.00141398
-0.000314272
0.00130134
-0.00124952
0.000262451
0.00156744
0.00151721
-0.00189457
-0.00114
0.00151736
-0.00190193
0.000923383
0.000514834
0.000463714
0.00139252
-0.00153986
-0.000857803
0.00100514
-0.0014751
9.86006e-05
0.000348339
0.00102816
-0.00112197
-0.000798218
0.000445087
0.00107516
-7.64716e-05
-9.3803e-05
-0.000904886
0.00100411
-0.000589713
0.000371764
-0.000786165
0.00141733
5.25368e-05
0.000602107
-0.00207197
-0.000519813
0.000191098
0.000328716
-0.00211859
0.00134832
0.00158387
-0.000813603
0.000803016
-0.000759574
-4.34421e-05
-0.000626739
0.000196867
-0.00168872
0.0001068
-0.000881737
-0.000284069
-0.000271419
5.71021e-05
-0.000865601
0.00107992
0.00174199
-0.00158256
-0.000332966
0.000173536
-0.0017012
0.00153699
-0.00105261
0.00119604
-0.000807155
-0.00100264
0.000613763
-0.000649874
0.00269514
-0.0013478
-0.000697464
-0.000152414
8.24623e-05
0.00152945
-0.0014595
3.72216e-05
0.00216873
0.000227019
-0.00243297
0.00086414
-0.00157242
-0.000133901
0.000842182
0.001239
-0.000233266
-0.00089893
0.000128294
0.000992315
-0.00135965
0.000239038
0.000545595
0.00205086
0.000129863
-0.00272632
0.000958977
-0.00112651
0.000177946
-1.04118e-05
0.000655306
0.000737234
-0.00276646
0.00137392
0.000933356
-0.000103701
6.15474e-05
-0.000891203
0.00199648
-0.00149718
-0.00297564
0.00247634
0.0016824
-0.00189814
0.000846073
-0.00063033
2.00985e-05
-0.00159118
0.00146353
0.000107551
0.00164647
-0.00115233
-0.00036349
-0.000130648
0.000888995
2.03133e-05
-0.000909309
-0.00169388
0.000289994
0.00118721
0.000216677
0.00111457
0.000746536
0.000571592
-0.00243269
0.000913386
-0.00164829
0.00114815
0.00249093
-0.00144455
-0.00219453
0.000914775
-1.38948e-06
-0.000366693
0.0011929
0.00119858
-0.00202479
0.00104932
0.000300587
-0.000146902
-0.00120301
8.1371e-05
0.000922381
-0.00100375
0.00141312
-0.000116556
5.53666e-05
-0.00135193
-0.000577867
-1.90561e-06
0.000579772
-0.00132447
0.00102228
-0.000799603
-0.000237441
0.00179432
-0.00188742
0.00033054
0.000431785
-0.000362746
-0.0014528
0.00138376
0.000287648
-0.000293327
-0.000681625
0.000687304
-0.000368803
-0.000988712
0.00123624
0.000121279
0.000449256
-0.0012219
0.00127119
-0.000498546
0.000925684
0.000279086
-9.27597e-06
-0.000549471
-9.87664e-05
0.000657513
0.000179174
0.000354027
-0.00204014
0.00150694
-0.00131022
0.000166427
0.00134645
-0.000202657
0.000974745
0.00015785
9.91401e-05
-0.00123174
0.000205434
0.000769311
0.00143442
0.00028954
-0.00156611
-0.000766619
-0.000873135
0.00130311
0.000336642
0.00135693
0.00018435
0.000199272
-0.00174055
-0.00147015
0.00125702
-0.000412381
0.000625511
0.00134879
0.000291064
-0.00104629
0.00117823
-0.00108753
0.000955586
0.00146448
-0.000211418
-0.000286682
-0.000966378
4.02882e-05
-0.00160569
0.00174086
-0.000175458
-0.00152947
-3.60965e-05
-0.000421831
0.00198739
0.000938756
0.000505932
-0.00148564
4.09558e-05
-0.00101923
9.47817e-05
0.00089516
2.92856e-05
0.000183728
5.66852e-05
-0.00187959
0.00163918
-0.000926116
-7.25828e-06
0.000933374
0.000192657
0.0013301
-0.00133903
-0.00106061
0.00141903
-0.000771257
0.000412834
-0.00121236
-0.000778446
0.00157761
0.000413201
0.00126193
0.000243123
-0.000717547
-0.000787502
-0.00200506
-2.78448e-05
-0.000283571
0.00231648
-0.00129233
-0.000776013
0.000564454
0.00150389
0.00177662
-0.00174074
-0.000112067
7.61864e-05
-0.000263915
-0.000788306
-0.000700021
0.00145944
0.00108129
0.000270522
-0.00281125
0.00211523
0.000267734
-0.00234574
0.000214181
0.00110508
-0.00131926
3.48709e-05
-0.00108739
0.00105252
-0.00103101
-0.000214649
0.000197255
0.00104841
9.20642e-05
0.00134522
-0.00128377
-0.00015352
-0.00221871
-0.000254176
0.000576105
0.00189678
0.00122496
-0.00129593
0.00110824
-0.00103727
0.000159427
0.000143155
0.000922381
-0.000875288
0.000849251
2.60368e-05
-0.000921936
2.80839e-05
0.00133769
-0.000443837
0.000264947
-0.000672349
-0.000493238
0.000900641
0.000673821
-0.000701955
2.81339e-05
-0.000965419
0.000914303
-0.000220303
-5.09177e-05
-0.00101392
-1.08859e-05
0.00107572
0.00171293
-0.000191865
-0.00108699
-0.000434071
-0.000409062
-0.0018725
0.0025129
-0.000231337
-0.00162308
0.00056235
-0.00135853
0.00151742
-0.000158895
-0.00073265
0.000662311
-0.00103089
0.00110123
0.000547791
-0.000670738
-0.000497683
0.00062063
-0.00091978
-0.00126199
0.00100192
0.00117985
5.05211e-05
0.00141408
-0.000140467
-0.00132413
-0.000358004
0.00170557
-0.000285523
-0.00106204
-0.00162392
0.00137513
-0.000100767
0.00034955
-0.00117102
0.000935072
-0.00101235
0.00124829
0.00120973
7.96988e-06
-0.0012177
-0.00180024
0.000388552
0.00176003
-0.000344586
0.00142155
-0.00107696
8.9059e-05
0.00146152
-0.00155058
0.000197344
0.00123456
-0.0018918
0.000459896
-0.000953991
-0.000993283
0.0010666
0.000880671
0.000692249
-0.00019967
0.000511536
-0.00142479
0.00149023
-3.96299e-05
-2.58123e-05
-0.00142269
1.66555e-05
-1.87503e-05
0.000751964
-0.000450956
0.00185018
-0.00215118
-6.86442e-05
0.00180902
-0.00174037
-0.00118323
0.000849693
-6.62253e-06
0.000340161
-0.00090291
-0.00109716
0.00200007
-0.000675992
-0.000253069
0.000929062
0.00100284
1.31648e-05
-0.001016
-0.00159791
-2.60999e-05
0.00131521
0.000308796
-0.000462537
0.000644091
0.000846989
-0.00102854
-0.00176459
0.000482115
0.000819942
0.00172118
-0.00271297
0.000576126
0.000415669
-0.0014477
0.00146138
-4.0458e-05
2.67786e-05
0.00194061
-0.00193893
-1.50858e-05
1.34001e-05
-0.0010994
1.34204e-05
0.000271912
0.000814071
7.67288e-05
-0.00113838
0.00106165
-0.00123298
-0.00175007
0.00118734
0.00179571
0.000149011
0.00161341
-0.000747329
-0.00101509
1.9658e-05
-0.0015586
-2.25633e-05
0.00156151
0.000254868
0.00139748
0.000329659
-0.00198201
0.000205267
0.00139858
-0.00147803
-0.000125818
-7.21555e-05
-0.00109866
0.00137608
-0.000908969
-0.000770725
0.000389562
0.00129013
0.000844322
4.77974e-05
-0.000892119
0.00135933
0.0013035
-0.00157425
-0.00108858
1.83772e-05
-0.00108256
0.00106418
0.000301396
0.000128717
6.25424e-05
-0.000492655
-0.00144634
-2.28769e-05
0.00047973
0.000989491
-0.00104372
-0.000538335
0.00158206
0.00084494
-0.00110939
0.000392985
-0.000128536
-0.00144782
0.00018336
0.00132075
-5.62912e-05
-0.00147868
0.0017974
-0.00141177
0.00109305
-5.59306e-06
-0.000903375
-0.0011409
0.00110917
3.17329e-05
-0.00147934
-0.000771961
0.000145743
0.00210556
-0.000136399
0.00130386
-0.00116746
0.0010351
-0.000813509
-0.000221592
0.000927727
-0.00093332
-0.00111098
1.73909e-07
0.0011108
0.000509027
0.00138705
-1.35033e-05
-0.00188258
-0.00115008
0.000175521
0.000974556
-0.0012633
-0.00044459
0.00131581
0.000392084
-0.0019107
0.00026328
0.00186487
-0.000217445
0.000945341
-0.000918528
-2.6813e-05
-0.000726594
-0.00101814
0.00390994
-0.00216521
-0.00148308
0.00054367
-0.000373845
0.00131326
-0.000753261
-0.000181406
-0.00118155
0.00211622
-4.35949e-06
3.04377e-06
0.0013056
-0.00130428
0.000708665
-0.00209455
0.00285651
-0.00147062
-0.0012168
0.00121244
0.00155509
0.000400706
-0.00190483
-5.09728e-05
0.00110509
0.000150983
-0.00138658
0.000130505
0.000948082
0.000444456
-0.00159044
0.000197904
0.000917901
0.000187191
-0.000541965
0.00169137
-8.91745e-05
-0.00106023
0.000326365
-0.00148593
0.00190011
-0.000740548
-0.0016699
0.000118486
-2.11706e-06
0.00155353
0.000973035
0.00374319
-0.000593785
-0.00412244
0.000450249
0.000343195
-0.000596814
-0.00019663
0.000309745
0.00112431
-0.000508023
-0.000926035
-0.000905341
0.000884034
-0.000520658
-4.67412e-06
0.00169149
4.5539e-06
0.00133737
-0.00135285
0.000214719
-0.000199239
0.000315628
-0.000105525
0.000805237
-0.00101534
-0.00129565
0.00126188
0.000184752
0.000392352
-0.00076855
-0.000880213
0.00125641
0.000544567
0.00151086
-0.00150983
0.00113071
-0.00148117
0.000200349
0.000150113
0.00111237
-1.86574e-07
-0.00111218
0.00242077
-0.00249049
0.0020166
-0.00194688
0.000366261
-0.000943798
-0.000472024
0.00104956
0.000384902
0.000204412
-0.00163451
0.000973994
-0.000581075
0.00124159
-0.00200552
0.00045034
0.00168977
-0.000134587
-0.00156336
-0.00086067
0.0031327
-0.000160008
0.0019185
-0.000632815
-0.00112568
0.00092454
-0.000466545
0.0017112
-0.00216919
0.000184706
-0.0008695
0.000740149
-5.53545e-05
-0.000382745
-0.00125758
0.00144434
0.000195981
0.00108165
-0.000611877
-0.000440137
-2.96316e-05
0.000548282
0.000230336
0.000291069
-0.00106969
-0.000776869
0.000997584
-0.000220715
0.000889003
-0.000828208
0.000123911
3.09146e-05
-0.00135765
0.00132674
0.00104499
-0.00121777
-0.00020996
0.00026481
0.00118337
-0.000265443
-0.00118273
-3.60954e-06
-0.000961912
0.000965521
0.000525301
0.00161345
-0.000883616
-0.00125514
-8.63974e-05
-0.000625835
-0.000422576
0.00113481
-0.000295211
-0.00162096
1.09841e-05
0.00190519
-0.00102898
0.000416803
0.00125814
-0.000645957
7.70372e-05
0.000967953
-0.000858832
0.000935869
0.000925659
0.00024756
0.000100665
-0.00127388
-0.000488252
0.00218549
-0.000142142
-8.92278e-05
-0.000621921
0.000566883
0.000144266
-0.000206364
0.00243656
-0.000114969
0.00197628
-0.00102652
-0.000424467
0.00225348
-0.000274985
-0.00120941
0.00180702
-0.000322629
-0.0022803
0.0019171
0.000936978
-0.000573784
5.74423e-05
0.00104827
0.000870568
-0.000999178
-0.0013173
0.00139036
-0.000717843
-0.000989161
0.00191253
-0.000205524
0.000739252
0.000842695
-0.00158195
2.69302e-05
0.000169306
0.00222495
-0.00242119
-0.00116496
0.00098413
0.0014261
-0.00124527
0.00135997
-0.00214832
0.00172695
-0.000938599
0.000449863
-2.28553e-05
-0.000427007
-0.000923581
-0.000516339
0.000172493
0.00126743
-0.000473065
-0.000678706
8.95822e-05
0.00117069
-0.000968877
-0.000291394
0.000984045
-0.00102558
4.15322e-05
0.0001078
-0.00130556
0.00137969
-0.000181935
0.0011449
-0.00282736
0.00139847
0.000283984
0.00065574
-0.000874715
0.000218974
0.000867145
-0.00011143
-0.000859346
0.000103631
-0.000174285
-0.00287352
0.00259492
0.000452879
-0.00113268
0.000194787
0.00132076
-0.000382863
-0.00118292
3.73161e-05
0.00114561
0.00118426
0.000199546
0.000784916
-0.000590552
-4.86964e-05
0.00152825
0.000102866
-0.00168438
0.00140722
-6.49813e-05
0.00116918
-0.0011042
-0.000815084
0.000504666
0.00135271
-0.00104229
-0.00018571
0.00155171
-4.41286e-05
-0.00132187
-0.000188073
0.00144425
-0.000976519
-0.000279653
-0.00100074
-2.23388e-05
0.00117922
-0.000156141
0.000833126
-0.00174066
0.000949743
-4.22136e-05
-0.000891566
0.000696983
-0.000716471
0.000911053
0.000863731
3.41454e-05
-0.000100882
0.000131446
-0.00125721
-0.000302944
0.00142871
-0.000258015
-0.00138173
0.000617287
0.00102245
0.000492836
-1.91079e-05
0.00113584
0.000273244
-0.00138998
0.000583431
-0.000411532
0.00117449
-0.00134639
-0.000751565
0.000931506
0.00124329
-0.00142323
0.00203208
0.000510122
-0.00204936
1.01871e-06
-0.00120929
0.00120827
7.36931e-06
-0.00122648
0.00127546
-5.63456e-05
2.39642e-05
0.00130969
-0.00117679
-0.000156858
0.000394323
-0.00198936
-6.49617e-05
0.00165999
-0.00110019
0.00132077
-0.000220579
0.000202202
-9.22804e-05
0.00132343
-0.00143335
-0.00102586
0.000227844
-0.000708893
0.00107294
-0.00142959
0.00106555
-0.000327222
-8.10784e-05
0.0004083
0.00323744
-0.00157954
-0.000703344
-0.000954553
0.00130348
0.00334081
-0.00140685
0.00216135
-0.00199886
0.000188931
0.00110104
-0.000852261
0.00121911
-0.000386497
1.96448e-05
-0.000251132
4.69083e-05
0.00178809
-0.00126929
0.000476592
0.000974762
-0.000182061
-0.00105279
0.00174211
0.000130875
0.00122061
-0.00139707
0.000708256
-0.000531796
0.000181753
0.00245283
-0.00243238
0.000735102
6.33488e-07
-0.000735736
1.95427e-07
-0.000973532
0.000973336
0.001705
0.000137782
-0.000381286
-0.0014615
0.00222467
-0.000718474
-0.0009385
-0.000567697
-0.000139296
-0.00280199
0.000846729
-8.61389e-06
-0.000679224
0.000687838
0.001465
-0.00134361
-0.00132945
0.00120806
0.00106329
0.000442617
-0.00125104
0.000862449
-0.000531557
-0.00131593
0.000985035
-0.001058
-9.2322e-06
-0.000811565
0.0018788
-0.00158393
-7.39169e-06
0.00159132
0.000992263
9.40917e-05
-0.00105563
-3.07215e-05
-0.00127473
-2.02693e-05
0.001295
6.39811e-05
0.00106949
-0.00113347
-0.000782783
0.00173518
-0.000125841
-0.000826557
-0.00190587
0.00229628
0.00145016
-0.00184057
0.000901566
0.000769329
-0.000208905
0.00134022
-0.000866027
-0.000265289
-0.000232317
-7.79413e-05
-0.00115579
0.00146605
0.00130345
-0.00114586
0.000911014
-0.00106861
-0.00124031
0.00129045
-5.01377e-05
-0.0015061
0.000252744
0.00129242
-3.90644e-05
-0.00264361
0.000528962
0.00201197
0.000102677
0.000260368
-0.000334288
-0.00130778
0.0013817
0.00190151
0.000181184
-0.00109221
-0.00099049
0.00103498
-0.000786056
-0.00104213
0.000793206
0.00118976
1.06772e-05
-0.00120044
0.000110762
-0.00202508
0.00148094
0.000433377
0.00075353
0.000448897
-0.00030086
0.000274045
-0.000882197
0.00128599
-0.000677833
-0.000545353
0.000529515
-0.000121924
0.000137762
-0.00362672
0.00437428
0.00141072
-0.00215828
0.00182157
-1.13796e-05
-0.00182081
1.06217e-05
8.77136e-06
0.00146036
-0.0015697
0.000100563
-0.00219379
0.00192227
-0.000511263
0.000974451
0.00121961
-0.00110393
-0.00109013
-0.000967719
-6.94964e-05
-0.000105246
0.00114246
0.00100972
5.37541e-05
-0.00106348
0.00128813
-7.10425e-05
-0.00121709
-0.00227791
0.00214582
8.43539e-05
4.77321e-05
7.11602e-05
0.00146878
-7.28201e-05
-0.00146712
0.000903818
0.000455136
-0.00295958
0.00160062
-0.000630797
0.000630747
5.05579e-08
0.000921119
3.49106e-06
-0.00092461
-4.66281e-07
-0.000556877
0.000557344
-0.000532603
0.00108234
0.000728079
-0.00127781
3.53746e-06
-0.00114346
0.000897115
0.000242809
-0.00128293
-0.000526111
-0.000468871
3.26518e-06
-0.000886533
-0.000131888
0.00101516
-0.000687425
1.28387e-05
0.000674586
0.000234777
0.000729474
-0.000237512
-0.000726739
0.000502842
-0.000895074
0.000392232
-0.000242716
-0.000832298
-0.000310094
0.00138511
0.000709319
0.000938397
0.000137976
-0.00178569
0.00186031
-0.000676219
-0.000602657
-0.000581434
-6.77432e-05
-0.00153253
0.00178632
-0.00018605
0.00073603
0.000388499
0.000213341
-0.00133787
0.00232292
0.00103484
-0.00217858
-0.00117917
-2.8405e-06
0.000587573
-0.000584732
-0.00137108
4.04584e-05
0.000317498
0.00101313
-0.0013446
-0.00014824
0.00152874
-3.58999e-05
0.00037431
-0.000468443
0.0019157
-0.000476426
0.000629253
-0.000152827
0.000936351
2.67353e-05
-0.000963086
0.000192468
0.00012091
-0.00121852
0.000905145
0.00131991
-0.000129609
-0.00123155
4.12466e-05
-0.00111057
-2.78236e-06
0.000237942
0.000321424
-0.00145989
0.00090052
-0.00135874
9.94164e-05
0.00125932
-5.30728e-05
-0.000947669
-0.00012359
0.00208871
0.000147021
-0.00211214
0.00111858
-0.0011845
6.5923e-05
-0.00119529
0.00118262
1.26725e-05
0.000958272
-0.00108186
0.000261349
0.000878361
0.00108981
-0.00222952
-0.00117597
-0.000639479
0.00181545
-1.02325e-05
0.000837455
-0.000827222
-1.76422e-05
-0.000910864
0.000928506
0.00111592
-0.00110638
-9.54002e-06
-0.00123679
4.78326e-05
0.00124342
-5.44581e-05
0.000302914
-0.00139419
0.001067
0.000693137
0.000582146
-0.00233975
0.00106447
0.00072174
4.79984e-06
-0.00072654
4.74189e-05
0.00136751
-0.00141493
0.00067171
2.11126e-06
-0.00154123
0.00137188
0.00130107
-0.00113172
-0.000969196
0.000122278
0.00124352
-0.000396599
0.00169398
-0.00244075
0.000590474
0.000156296
-0.0021892
0.000486542
-0.00104371
0.00115444
-0.000110731
2.58415e-05
-0.00115906
0.00113322
-0.00100514
-1.89204e-05
0.00102406
-0.00117658
6.22356e-06
0.00117036
0.00112336
-0.00123144
0.000108078
1.38913e-05
0.00173435
-0.00174824
-0.000257376
-0.00023411
0.00124502
0.00123866
-0.00129395
-0.000884567
0.000939858
-0.000699849
0.000126521
0.00136117
-0.000787844
0.000666717
-0.0015715
-0.000100355
-7.20597e-05
0.00153624
-0.00146418
0.00045489
0.000424197
-0.00058008
-0.000299007
-0.000707602
0.00116034
-0.00139426
0.00094152
-0.00112241
-0.000429081
0.00155149
0.00227591
-0.00140463
-0.000871284
-0.000432589
0.00163602
0.00107092
-0.00227435
-0.0011873
0.00143844
-0.00143549
0.00118435
0.000508866
-0.000382296
-0.000584584
0.000458014
2.05761e-05
-1.31935e-05
-0.00127929
0.0012719
-0.000116605
-0.00180327
0.00191987
0.000404332
5.17965e-05
-0.00152247
0.00106634
-0.00149399
0.00115926
0.000334736
-0.000702812
-0.000351914
0.00101383
4.08956e-05
-0.00098896
0.000984588
4.3722e-06
0.000966657
-0.000817277
0.00121059
-1.13612e-05
-0.00157917
0.00158215
8.38256e-06
0.00304971
-0.000788399
-0.00152899
-0.000732321
-0.000471425
0.00166153
7.66804e-06
-0.00119777
-0.000548796
0.000819517
0.00045656
-0.000727282
-0.00132476
0.000778045
0.00137622
-0.000829504
0.000727752
-0.000867958
-0.000344117
0.00153169
4.05508e-05
-0.00122813
0.0009052
-0.000999141
0.000103811
-0.00213935
2.52323e-05
-2.27237e-05
0.00213685
-0.000296914
-8.38252e-05
-0.000799367
0.00118011
-0.00108619
0.00139612
-0.00110979
0.000799861
-0.00248244
-0.000333736
0.00260981
-0.00160659
2.17447e-05
0.00160822
-2.33703e-05
0.00100648
0.000162811
-0.000678794
-0.000490499
-0.000314953
-0.00123335
0.000653306
0.000894993
0.00106985
-0.000419569
-0.00141013
0.000759849
-0.00138676
-0.000359242
-2.84208e-05
0.00177442
0.00111057
-0.000136457
-0.00101904
4.49233e-05
0.000939022
-0.000941436
2.41458e-06
-0.00074429
0.00242714
-0.00201812
0.000335274
0.00015629
0.00143147
-0.00230353
0.00071577
-0.000946094
-0.00030912
0.000995164
0.000260051
0.000330997
-0.000316279
-0.000960812
0.000818003
3.30962e-05
0.000160476
-0.00101158
-8.67638e-05
0.000616866
-0.00266946
-0.00138823
2.88508e-05
0.00178063
-0.000421249
-0.000994887
0.0011608
-0.000165917
0.000489217
-0.000459187
-0.000649121
0.000619091
-0.000700596
-0.00128651
0.000808804
0.0011783
-0.000577453
0.00179667
-0.000661734
-0.000557479
-0.00148208
1.15196e-05
-0.00129913
0.00161861
-3.95795e-05
3.48779e-05
-0.00128276
0.00128746
0.00123539
0.00132324
-0.00140574
-0.00115288
0.000979266
-0.00101024
3.09742e-05
0.00125313
-6.85779e-06
-0.00124627
0.00107047
-0.00124273
0.000351637
-0.000179375
-0.000313512
-0.000916298
0.00222497
-0.00164699
0.00141354
-0.000213348
0.000446793
0.000548716
-0.00074635
0.00176398
-0.00156635
-0.00157472
-0.00114964
0.00187218
0.000852183
-8.45684e-05
-0.00173847
0.000176046
0.000275178
-0.00145148
-1.12997e-05
0.0011876
0.00133618
0.00035254
0.00179082
-0.00156901
-0.00058924
0.000367427
-0.00133412
0.00132424
0.00108027
-0.00107038
0.00101147
0.000500615
-0.00114833
-0.000363752
0.000508945
-0.00111714
0.000927486
-0.000319289
0.0013702
-0.00112355
-0.00178509
0.00153843
0.00146215
-0.00162672
7.9996e-05
-0.00088994
0.000893701
-3.76156e-06
0.000113604
-0.00010293
0.00151597
-0.00181042
0.00170692
-0.00141247
0.00112196
-0.00100836
0.00113271
-0.00122503
-3.6967e-05
0.000129287
-2.44743e-05
-0.000519471
0.000543945
-0.000123556
-0.00103686
0.00124379
-8.33828e-05
0.00190945
-0.0017186
0.000135165
-0.000326021
0.000207607
-0.00230422
0.000190748
0.00169547
-0.00173495
-0.000188162
0.000227642
0.000371551
0.000279055
0.000461258
-0.00111186
-0.000101118
0.000948747
0.000923858
-0.00177149
-8.03995e-05
-0.00117298
-0.000325709
0.00157909
-0.00057038
0.00170913
-0.000464681
-0.000674069
-0.00106905
0.000453479
0.00168605
0.00104056
-0.00210715
0.000231527
0.000835067
-0.000305235
7.14649e-05
0.00192924
0.000311506
0.001417
-0.000484901
-0.00124361
-5.26848e-05
5.48348e-05
-0.00123893
0.00123678
0.00185861
0.00010445
-1.30838e-05
-0.00194998
0.00103204
0.000452371
-0.000410656
-0.00107375
-0.00112313
-0.000480055
0.000534132
9.19202e-05
0.0006482
-0.000657842
-8.22787e-05
0.000189333
1.64713e-05
-0.00144854
0.00100859
-0.000527329
-0.000136938
-0.000344323
0.00014817
0.00070159
-9.81258e-05
-0.000751634
-0.00111726
0.00095948
0.00119833
0.000743911
-0.00322907
0.000628439
0.00185672
0.000176776
-2.96564e-05
3.30056e-05
0.00127195
-0.0012753
0.00220462
-0.000708031
-0.000732177
-0.000764409
-0.00107555
1.36209e-05
0.00147681
-0.000414886
-0.000135986
-0.00103549
0.00124905
-7.75775e-05
0.00104076
-0.00141867
-0.000694243
0.00107215
-0.000982711
0.000955329
2.73823e-05
-2.93279e-05
0.000953141
-0.000923813
-0.000465417
-0.00108948
-0.00040199
0.00195688
-0.0008105
0.000906048
-9.55485e-05
-0.000152961
-0.00132768
-0.000334602
0.00181524
-0.00234409
0.00086445
-0.0012787
0.00275834
-0.00160748
3.55411e-05
0.00157194
0.000757893
0.000839181
-0.00081101
-0.000786063
0.000976152
-0.000559231
-0.000184668
-0.000232253
0.00132258
2.82508e-05
-0.00135083
0.00124659
-0.00372701
0.000136329
0.000845543
-3.13678e-05
-0.000814175
-0.00144024
-0.000571122
0.00193448
7.68899e-05
-0.000877047
0.00452938
-0.00277419
-0.000878139
-0.002638
0.00317526
-0.000466168
-7.1102e-05
0.00157523
-0.000910061
0.00219134
-0.000772444
-0.00168215
0.00248473
-3.01373e-05
-5.27863e-06
-0.000120911
-0.000677458
0.000803647
0.00148516
0.001909
-0.00216843
-0.00122572
-0.00152808
0.00180742
0.000494485
-0.000773823
0.00169249
-0.000310852
-0.000661696
-0.000719945
0.000145295
-0.00108409
-0.00018846
0.00112725
-0.0032259
9.9093e-05
0.00165088
0.00147593
-0.000591676
0.00225337
-0.000873481
-0.000788216
0.000383589
-0.000939471
0.00179011
-0.00123422
-0.000193152
-0.000553017
0.00104585
-0.000299679
-0.000916484
0.000975112
-6.2491e-05
3.86246e-06
0.00160181
-0.00180887
-8.62868e-05
0.000293341
-4.84774e-05
-0.00159826
0.00161144
3.53022e-05
0.000130676
-0.000116464
-0.00153092
0.0015167
0.00220605
-0.000362625
9.41919e-05
-0.00193762
-0.00144969
-0.000304757
0.000372322
0.00138213
0.000491625
-0.000491629
4.53047e-09
0.00108961
-0.000741335
0.000726883
0.0002265
0.00209084
-0.00012539
-0.00219195
-0.000334342
0.00022335
0.000280128
-0.000169136
-0.00162845
-0.00202637
0.00292822
-0.00115806
0.00132611
0.00126298
-0.00143103
-6.4661e-05
0.00129269
-0.00163059
0.000402555
-0.0012405
-0.0012963
-8.20442e-05
-0.000334069
0.00171242
-6.8905e-06
-0.000660468
0.000667359
-7.98816e-06
-0.000949732
0.00221469
-0.00125697
0.000651614
0.000916988
0.00163208
-0.000816129
7.62809e-05
-0.000892232
0.000716666
-0.000199405
-0.00119605
0.000678786
0.00090017
4.27143e-05
-0.00137222
0.000429332
-0.000648385
0.00053708
0.00203276
-0.00192146
0.00174059
0.00124523
0.000163402
-0.00314923
-0.00155474
-9.77762e-05
0.000314853
0.00133766
-0.00131048
0.00139565
-8.51724e-05
-9.11249e-05
0.000865389
-0.000129782
-0.000644482
-0.000267959
0.00055118
-0.000283221
0.00109088
0.00155412
-0.000694139
-0.00195087
0.000932813
-0.000933463
6.50076e-07
-0.00264469
0.000617091
0.00147796
0.000549642
0.00010708
-4.72739e-05
0.00128155
-0.00134136
0.000822913
3.42777e-06
-0.00082634
0.0016883
-0.00187447
-0.00120394
0.00139011
-0.00148803
-0.00287333
0.00171667
-0.000289007
0.000184427
0.00118755
-0.00108297
-0.00051139
0.00155509
-0.000163841
-0.000879864
0.000319551
-0.000844936
0.00124205
0.000978013
4.68658e-05
-0.00102488
0.00289439
-0.000700061
0.000172341
-0.00236667
0.00109339
0.00031297
0.000699812
-0.00167171
0.000803483
0.000168416
-0.00176417
4.99736e-05
0.00132336
0.000390842
-0.000328605
-0.000723256
0.000766769
0.000285092
0.00103076
-0.00132847
0.000297715
-0.000365141
-0.000709916
0.00107506
0.000910273
-0.000589528
-0.00103342
0.000712672
-0.000388633
-0.00021691
0.00155607
-0.000950529
-0.000766031
-0.0012246
0.000947312
0.00104332
-0.00150415
0.00137253
-2.52467e-05
0.000156867
-8.18137e-06
-0.00093129
-0.000224847
-0.0008196
0.00103407
1.038e-05
0.00156633
-0.00147324
0.000427909
-0.000520996
0.00238257
-0.00236983
0.00108066
-0.000415407
0.000456018
-4.06109e-05
-0.000870089
0.000858699
1.13895e-05
-7.86593e-05
0.00109223
0.000372588
-0.00138616
-0.000691836
-0.00109094
-0.000429234
0.00221201
-0.00064378
-0.000495518
0.00223862
-0.00109932
0.00111095
0.000297532
-0.00148714
-0.000214385
0.00165276
-0.000750844
-0.000687528
0.000235198
-0.00109201
-0.000478527
0.00133534
-0.000304161
0.000187433
-0.00152256
0.00163928
0.00151837
-0.00109926
-0.00083762
-0.000628288
-0.000187443
0.00165335
0.000452448
-0.00022799
-0.000227041
2.58208e-06
-0.0017807
0.00207762
-0.000211427
-8.54879e-05
0.000581333
0.000641836
-0.000610959
-0.00061221
-0.000244708
0.00126733
2.70331e-05
-0.00104966
0.00141547
6.05172e-05
-0.00126464
-0.000211345
-0.000176083
-0.00174159
-0.000430261
0.00234793
-0.000150136
0.00126267
-0.00111253
0.0015242
0.00129445
-0.00173559
-0.00108306
0.00100303
4.18511e-07
-0.00100345
0.000110939
-0.00133017
-0.00033221
0.00155144
0.00237926
-0.000339033
-0.00111826
-0.000921967
3.37368e-05
0.0023919
-4.63717e-05
0.00117472
-0.0011229
-5.18191e-05
-0.000418215
-0.000821763
0.00123998
0.00217505
-0.000579873
-0.00136744
-0.00101669
-0.000994231
0.00167189
9.4012e-05
0.000402676
-0.00156963
0.00107294
5.5554e-05
-0.00135381
0.000846944
0.000451308
-7.73531e-06
0.00118001
7.86474e-06
-0.00118014
-0.000230041
-3.22942e-05
-0.0011189
-0.000295047
0.00141394
-1.58129e-05
-0.000968565
0.000984378
0.00207891
0.000158097
-0.000133465
-0.00210355
0.000870885
-0.00161302
0.000388785
0.000353345
0.000549244
1.08969e-06
-0.000550334
-0.00158298
0.00025804
-6.32628e-05
0.0013882
0.000566374
4.18498e-05
0.00123597
-0.00184419
-0.000580439
0.000626888
-0.00174257
0.00169612
0.000174337
-0.000229006
-0.00163416
0.00168883
0.00116448
-0.00108775
-0.00249853
0.000283818
0.000737484
-0.000751928
-0.000762469
0.000776912
-0.000672321
0.000675196
-2.8747e-06
-0.00159781
-0.000564388
0.00240259
-0.000344579
-0.00149362
-0.00092967
-0.000283049
0.00126157
-4.88537e-05
0.000267423
0.0015161
-0.000580588
-0.00120293
-0.00301104
-0.00252517
0.000196731
0.0024199
-9.14587e-05
0.000179454
0.00012911
-0.00104298
0.000734417
0.00165788
-0.00153049
-0.00171133
0.00121819
0.000348313
-0.0015665
0.00173394
-0.000320909
-0.00124049
-0.000172542
-0.00103602
-5.75687e-05
-0.000700297
0.00179389
0.00169488
-0.00143354
-0.000504616
0.00024327
7.52455e-05
0.000526979
-0.00162454
0.00102232
4.32332e-06
0.000883872
0.000136944
-0.00102514
-0.00082262
0.00104741
0.000296107
-0.000520899
1.30521e-05
0.00145198
-1.19663e-05
-0.00145307
-0.00109646
0.00110951
-0.00102298
-2.60666e-06
0.00102559
-0.00167296
-0.000153904
0.000415957
0.00141091
0.00117466
-0.00114862
0.000687397
-0.000713432
0.000289593
0.00102193
-0.00110282
-0.000208704
-0.00141177
0.00206642
-0.00023822
-0.000416425
0.000824424
-0.000787199
-3.72253e-05
1.6944e-05
0.000652291
0.00171333
-0.00137801
0.00117465
0.000505113
-0.000301758
-0.000340573
0.000758879
-0.000418306
-3.46333e-05
0.00118635
-0.00115172
-0.00183961
0.000697318
0.000357536
0.000784752
-0.00333622
0.00243184
0.000921331
0.00248312
-0.000297013
-0.000424151
-0.00176196
0.000992959
0.000121058
0.000634621
-2.94362e-05
-0.000665033
5.9848e-05
0.000686743
-0.000538573
2.69518e-05
-0.00159346
0.00156651
-0.00275201
0.00196743
-0.000872451
0.00210622
-0.00142644
0.000192671
0.00143883
-0.0019463
0.000601485
0.00110688
-0.00202206
0.000389873
0.000525302
-0.00102633
0.00122894
-0.000202612
0.00214913
0.000449458
-5.55413e-06
-0.00259304
-0.00102873
0.00103844
-9.70491e-06
0.00280739
-0.00251687
0.000326347
0.00165933
-5.46008e-05
-0.00160473
0.00119338
-0.00121649
2.3108e-05
-0.00119488
0.000134926
0.00105995
-0.000459828
-0.00113071
0.000395657