/*--------------------------------*- C++ -*----------------------------------*\
  =========                 |
  \\      /  F ield         | OpenFOAM: The Open Source CFD Toolbox
   \\    /   O peration     | Website:  https://openfoam.org
    \\  /    A nd           | Version:  10
     \\/     M anipulation  |
\*---------------------------------------------------------------------------*/
FoamFile
{
    format      ascii;
    class       volScalarField;
    location    "8";
    object      SgRate;
}
// * * * * * * * * * * * * * * * * * * * * * * * * * * * * * * * * * * * * * //

dimensions      [1 -1 -3 -1 0 0 0];

internalField   nonuniform List<scalar> 
59698
(
0.00313389
0.00189146
0.00238827
0.0028218
1.03757e-06
0.00145199
0.00255766
1.07524e-07
8.21267e-07
3.79905e-09
0.0250167
1.36656e-09
1.60691e-09
0.00236784
2.41698e-08
4.27489e-07
1.05512e-08
2.24252e-09
1.32184e-09
5.91812e-09
0.000390009
1.56737e-06
0.000538188
8.81915e-08
2.55366e-07
9.38541e-10
1.01758e-09
0.00266304
0.00248913
1.33283e-09
6.65848e-08
0.000600689
6.67095e-08
0.00428797
1.18168e-06
2.73615e-09
0.000463157
5.27529e-07
1.35848e-08
0.00257881
2.02532e-09
2.30448e-07
1.75255e-09
2.14504e-08
0.000402104
7.97114e-08
8.03949e-10
5.49727e-08
0.00301956
3.51855e-08
6.97236e-10
6.72688e-10
0.00178048
0.002842
0.00224812
1.47847e-09
8.58744e-08
1.70986e-08
1.54491e-08
2.74962e-05
0.00184008
6.17425e-08
2.11143e-07
1.05597e-09
4.79595e-07
4.18832e-08
1.30184e-05
2.05232e-09
2.8182e-09
0.0001958
5.99204e-07
3.19037e-08
0.000359332
1.77973e-06
0.000411963
1.13937e-06
2.50695e-08
3.8102e-08
5.7474e-09
5.19629e-09
4.70957e-07
8.10034e-10
4.07757e-09
9.93601e-09
1.81554e-05
3.20575e-08
8.90116e-09
2.14418e-07
2.46709e-06
2.1101e-08
4.61685e-09
6.57777e-08
2.27992e-07
6.38698e-09
6.31793e-08
0.003715
1.0594e-07
5.65004e-08
4.05778e-08
8.80513e-10
0.00370644
2.0696e-05
2.17136e-07
0.00331052
4.39999e-08
0.000564805
1.95231e-09
2.40533e-09
2.62949e-09
4.1373e-10
3.02733e-08
2.77585e-06
1.58026e-06
1.56289e-07
8.77026e-08
2.73622e-08
3.58212e-07
0.00367005
2.66874e-07
1.13212e-08
1.43369e-09
3.02141e-07
2.61375e-07
2.20729e-09
1.26998e-09
4.37248e-09
1.07904e-09
7.20049e-09
1.05723e-08
3.89694e-07
0.00337645
3.26806e-09
0.0488524
1.93098e-07
1.60881e-09
1.68218e-09
5.02494e-07
2.10748e-10
1.39687e-09
4.0951e-09
1.87445e-08
0.00240333
0.00258479
8.48618e-10
1.8878e-07
4.37404e-10
5.35676e-07
4.10491e-07
0.00466731
5.65909e-07
0.000258238
0.0278294
5.72443e-08
2.63473e-07
4.63033e-09
1.02608e-07
3.31657e-09
0.00169397
4.88387e-09
5.59637e-10
2.36783e-10
3.61655e-09
1.6464e-08
7.69384e-08
7.0952e-09
0.00230609
8.02072e-10
0.000562507
0.00166888
7.11065e-09
2.60876e-07
1.44494e-06
2.15571e-07
9.3064e-07
5.76437e-07
0.00126628
4.4018e-09
0.00139492
0.00295891
0.00309275
2.36857e-06
2.85637e-07
2.52639e-07
1.34204e-08
2.78219e-07
4.06472e-08
2.27579e-07
0.00247681
1.95717e-10
1.35139e-08
6.68792e-09
7.14403e-09
1.52321e-08
3.71468e-07
1.70482e-08
0.00434742
1.7931e-06
0.0030838
1.37477e-05
1.64316e-08
0.000226448
6.857e-07
2.67159e-09
2.11944e-09
0.00388781
0.00250675
1.27218e-08
0.00215927
0.00279384
0.00370855
0.00250763
4.90312e-09
0.00285555
1.56742e-08
1.13274e-09
0.00350065
9.21161e-09
4.62767e-08
7.40411e-09
1.15396e-08
1.36746e-05
0.00227566
1.74376e-09
6.0217e-08
7.9429e-09
0.00297602
5.38862e-09
6.03279e-09
3.97223e-08
6.68781e-07
8.38758e-09
1.24258e-08
6.30234e-09
3.87658e-09
7.33054e-09
1.27445e-09
9.11785e-08
1.9293e-08
1.83636e-07
6.86615e-09
0.00270276
1.11843e-07
1.39566e-08
0.000664542
3.33778e-09
1.99605e-07
2.30267e-05
3.61367e-06
2.55782e-09
6.99795e-09
5.83595e-08
4.86478e-09
2.88383e-08
0.0158969
8.22307e-09
0.00176775
1.03899e-07
5.80135e-08
0.00324171
1.46145e-09
9.15117e-06
1.92584e-09
6.82203e-09
0.00282304
0.00373801
8.98048e-07
1.21131e-09
0.00123936
1.99416e-08
2.46779e-10
2.12719e-09
1.60273e-06
7.39197e-05
2.4769e-10
3.32803e-08
4.76717e-08
0.00151323
3.76576e-08
1.6007e-09
0.0526279
0.000574136
5.01539e-09
1.6069e-09
4.93971e-07
0.00349173
1.04366e-07
3.13779e-09
0.000694465
4.06408e-07
1.10083e-07
2.9311e-06
0.00237974
5.21631e-09
2.73594e-09
7.23974e-07
0.0028446
9.9722e-10
1.57567e-07
2.90804e-09
6.58367e-07
2.09988e-09
2.35718e-09
6.86737e-08
1.48733e-09
8.91806e-10
8.57134e-10
3.42278e-07
2.20828e-08
4.87452e-09
4.08372e-10
0.00196276
3.90256e-08
2.91658e-09
2.37786e-08
0.00198493
4.31332e-09
0.000403391
6.36064e-09
0.000829309
9.34152e-08
9.56532e-08
2.81043e-07
1.4052e-08
2.98858e-09
2.00121e-06
1.37533e-08
1.38907e-08
8.63177e-09
6.96721e-10
0.000361908
0.00316598
3.93235e-08
6.11307e-08
2.40432e-06
0.000431487
9.69617e-09
7.42118e-09
3.97051e-09
5.00511e-08
0.00125333
2.71932e-08
0.00215878
0.00258575
3.40047e-09
1.2536e-07
1.25598e-09
5.30931e-10
1.27438e-06
1.55567e-09
0.00208357
3.19653e-09
7.9575e-09
1.33638e-06
7.94687e-10
9.24717e-07
0.00203102
2.90046e-06
6.17754e-09
3.21525e-08
1.796e-09
2.39814e-08
8.5998e-09
0.00277019
2.66497e-09
1.0376e-10
1.04114e-07
0.00289916
0.00206861
2.29791e-08
9.78917e-07
1.37477e-07
0.000533975
0.00377415
0.000651144
2.17219e-09
2.9778e-09
3.62848e-08
3.12072e-09
0.000460628
1.32807e-05
0.000347123
4.75968e-08
4.39238e-08
4.40839e-08
9.65674e-10
6.70003e-06
1.02826e-08
0.000544798
7.49535e-10
4.57829e-08
2.0526e-08
0.000457521
0.0034263
9.40452e-10
5.7848e-05
0.00191156
3.92405e-06
0.00189715
0.00277955
7.59011e-08
0.00249442
0.00247543
0.00265538
3.42603e-09
0.00154306
0.00434151
0.00401805
0.00285882
5.46095e-09
9.52394e-07
1.77185e-07
0.000419598
0.00171386
0.0236697
5.13356e-10
2.25469e-07
1.82446e-09
2.36036e-06
0.00201932
0.00187543
0.0030466
0.00226935
0.00255678
0.0016564
5.05537e-09
2.54897e-09
0.0379006
1.74704e-08
0.00143993
5.34513e-10
6.49684e-09
0.00209638
0.00117433
1.66003e-08
4.68856e-08
1.45659e-08
0.00194078
0.00133543
5.36551e-09
0.00215857
1.92335e-07
0.00330195
0.0482739
4.52782e-08
1.98067e-07
2.1898e-06
1.02352e-07
4.49041e-10
1.39906e-09
4.41734e-08
0.00262225
3.92117e-09
7.48938e-08
2.01772e-06
6.29726e-07
1.07122e-07
3.62726e-07
1.40321e-09
1.13682e-06
1.77856e-07
7.00923e-08
3.80065e-09
0.00320516
7.03542e-09
2.18656e-09
2.06932e-07
3.3137e-07
1.10908e-08
4.52662e-08
9.62083e-10
0.00257805
3.24957e-09
1.59022e-10
8.41266e-09
6.37832e-08
2.07495e-06
8.87875e-07
3.69208e-09
0.00310365
0.00202172
2.21581e-08
2.19869e-07
1.23619e-08
1.95813e-08
2.65509e-07
3.14389e-08
4.31785e-08
1.65479e-08
1.12004e-09
2.35732e-09
2.46306e-07
4.26678e-07
5.91262e-10
4.34485e-08
0.00404276
2.21102e-07
1.38255e-08
0.00246138
5.28634e-09
0.000365597
1.0019e-09
1.19037e-07
6.82418e-08
5.28733e-09
1.69675e-08
7.72476e-08
8.06581e-08
2.31308e-09
3.42686e-09
1.51972e-09
3.6554e-09
1.56274e-09
1.38624e-06
5.41902e-08
1.14879e-08
1.56936e-09
6.88157e-09
6.78391e-09
7.03882e-08
2.4883e-08
3.61513e-09
1.02231e-09
4.34153e-09
3.73619e-09
2.18555e-09
6.77739e-06
5.27767e-08
1.75808e-09
0.00345146
0.00379142
1.98538e-09
0.00408548
1.82784e-08
3.69137e-09
0.00151278
3.56745e-10
1.35517e-08
0.0018586
1.80745e-09
0.000384853
9.37659e-09
1.53846e-09
4.15612e-08
2.95657e-06
5.60011e-09
9.7847e-10
8.85884e-06
0.000166671
4.74158e-09
7.36708e-06
1.41322e-08
0.0152706
2.69728e-08
1.91986e-09
3.44969e-09
1.11699e-08
1.93197e-08
1.59999e-08
1.52684e-09
6.08655e-09
0.000768505
0.000216487
1.20784e-08
9.9682e-06
1.34887e-08
1.81329e-09
1.22596e-06
1.68322e-08
4.08889e-09
0.0343505
8.47479e-10
6.54214e-09
1.90909e-07
2.38766e-09
3.83911e-08
6.74215e-10
2.86059e-10
3.32055e-10
0.00210253
2.31526e-09
0.000732639
3.50144e-08
0.00322794
1.15257e-08
6.04962e-09
0.000313717
1.36851e-09
6.2421e-09
6.04319e-09
1.81384e-08
2.04046e-09
0.00334504
4.91244e-09
1.17875e-08
1.00657e-09
3.10175e-08
2.56236e-05
0.00264512
0.000349777
7.52062e-09
5.79386e-09
1.27061e-09
3.96604e-09
0.0035145
1.91879e-08
5.27177e-09
1.30007e-09
0.00108766
0.00395576
1.42901e-08
1.14131e-08
1.05396e-09
1.11318e-08
3.58804e-09
2.94921e-09
4.08574e-09
4.35537e-09
2.5631e-08
7.93869e-05
6.44484e-09
5.1054e-09
6.50579e-09
1.51628e-08
2.70483e-05
0.00253586
1.16895e-08
0.00269124
2.54513e-09
8.47274e-09
4.99395e-09
0.00282856
0.000210179
1.41816e-09
7.98716e-09
6.97455e-10
2.50639e-08
9.84096e-09
2.41185e-09
0.00157339
0.00326265
1.34852e-07
1.57769e-07
0.000609422
0.00385202
4.10095e-09
2.57266e-09
4.39831e-07
0.00219231
3.7403e-08
2.72393e-09
0.000439486
4.72943e-09
4.02426e-09
4.51704e-09
1.80539e-09
3.40631e-09
4.97449e-10
8.32926e-06
3.47302e-09
0.00188769
4.68024e-08
1.08624e-07
4.64378e-09
1.54655e-06
3.49124e-06
5.43442e-09
2.24257e-08
0.00238952
0.00321138
5.18166e-08
3.81188e-09
7.7947e-07
3.36281e-09
0.00357008
3.09371e-10
2.26278e-08
0.000428463
0.00266099
2.84181e-09
9.18487e-10
1.93571e-07
6.01154e-07
3.53427e-07
0.000378105
0.001436
1.09287e-10
5.18998e-09
2.11576e-09
4.21963e-09
0.00286432
2.50518e-08
0.00316211
1.08711e-08
0.00134892
0.00215141
0.0024567
6.42955e-08
3.13964e-09
0.000650607
7.42329e-10
2.46262e-10
9.1917e-10
2.9568e-09
1.70591e-08
3.5344e-09
0.0317758
5.46064e-08
6.90034e-08
1.00998e-08
2.76383e-09
0.00192624
4.1796e-08
4.25519e-08
0.000363919
6.27091e-09
1.35433e-08
8.59928e-09
1.66294e-09
0.0393686
0.000646954
0.00207429
0.00259795
3.53099e-09
7.35628e-09
4.03299e-09
5.12765e-09
0.00203758
1.85119e-09
5.90294e-07
2.70844e-08
1.30217e-05
0.000344809
0.00172069
2.02181e-07
1.4805e-07
1.01263e-08
0.00443631
0.000959212
1.88961e-08
8.72612e-07
4.76733e-09
6.86272e-08
3.46184e-06
0.00245755
2.07279e-08
1.18467e-07
9.41543e-08
1.59014e-05
2.37256e-08
0.00191374
2.25692e-09
5.21399e-08
8.37794e-09
0.00224276
6.91363e-10
5.42282e-09
2.56674e-07
4.6003e-06
0.000614187
1.12097e-07
3.12333e-09
0.000383632
1.13618e-08
4.9048e-09
0.00196598
0.00224047
2.19459e-09
8.25821e-09
0.000401628
1.42957e-08
3.02319e-09
0.000373928
3.38482e-10
0.00273925
1.53103e-09
5.18856e-09
1.80862e-07
3.27213e-09
5.86665e-08
5.89008e-08
5.24625e-05
3.76587e-09
1.15327e-08
1.51107e-09
9.92542e-09
9.97625e-08
1.79535e-08
0.000326096
7.07004e-09
2.36165e-08
0.00145732
3.50331e-08
1.97831e-08
8.9506e-06
0.00193091
2.51798e-06
0.000545001
3.73348e-09
0.000382904
9.46206e-09
3.82208e-09
1.89269e-09
0.00323136
3.94706e-07
1.02558e-08
7.15769e-05
5.79514e-08
0.0016224
1.71558e-07
9.75949e-06
3.52687e-09
0.00100479
3.93804e-09
0.00130579
5.84552e-05
1.57243e-08
0.000651795
0.00184703
1.20062e-06
1.14119e-05
3.60278e-09
1.12958e-06
2.18894e-08
4.1034e-05
0.000444611
0.000430886
0.00216209
3.2808e-08
3.84628e-09
0.000561238
2.91476e-08
0.0023444
3.76985e-10
0.000401173
2.56448e-09
3.06319e-09
2.93346e-05
0.000503776
0.000205008
0.000108136
0.0513542
7.09586e-09
6.99075e-10
0.000484469
2.18409e-09
0.00358914
0.00488443
3.29942e-09
0.000500352
1.49755e-09
7.26808e-10
2.83743e-09
3.26758e-06
0.000469611
3.78842e-09
1.30979e-09
1.09382e-06
8.92926e-10
1.02304e-07
3.70634e-09
3.2094e-09
8.65647e-09
2.63816e-07
1.22998e-09
1.22522e-08
0.000532644
5.51577e-10
0.000127448
5.83518e-10
2.54691e-09
0.00128227
1.03721e-09
7.73448e-06
8.98299e-08
1.18807e-08
0.000108821
1.15229e-08
0.00162299
2.96176e-08
5.00845e-10
0.00180506
7.00599e-09
9.49945e-09
0.00030714
1.33301e-09
0.00212155
1.70801e-08
3.23311e-09
0.00439593
3.05444e-09
2.53398e-09
1.92903e-09
3.81163e-10
0.000319928
2.86884e-09
1.42403e-09
1.52198e-07
0.00191692
0.000634031
0.000584066
9.929e-09
3.52995e-09
0.000379941
0.00244232
3.90061e-09
7.81685e-09
5.97053e-08
1.1362e-08
1.99755e-09
3.24442e-09
0.00041224
0.00150182
0.0027227
1.49356e-07
2.03713e-09
0.00275436
0.00412765
0.00536154
1.82067e-09
3.22007e-09
1.53615e-07
4.62805e-07
1.38876e-08
1.65487e-08
8.21925e-07
2.47956e-08
4.38378e-09
4.51793e-09
1.35994e-06
4.95036e-08
7.08036e-09
0.002603
2.26654e-09
2.51199e-09
2.0144e-08
3.0066e-08
3.99285e-09
3.84044e-10
0.000761166
3.6458e-09
3.58176e-09
0.00197858
3.2134e-09
1.58013e-09
0.00328649
2.73501e-08
3.19502e-07
3.81173e-09
1.569e-08
2.55335e-08
0.000825578
2.71004e-08
0.00226862
1.86442e-07
2.04705e-07
2.93254e-08
0.00552924
0.00051971
3.34612e-09
4.79063e-09
1.01299e-06
1.45265e-09
1.07018e-08
7.84459e-10
0.0017466
6.66788e-10
1.55563e-09
7.80441e-09
4.70236e-09
3.23432e-08
2.39282e-08
7.18645e-09
0.000429145
0.00229942
0.000466223
6.00237e-08
0.00319193
0.00273781
8.22503e-08
2.67009e-09
0.00191655
6.88588e-06
0.001656
0.00216439
0.00212738
3.75764e-09
5.57424e-08
0.00248606
2.37251e-07
5.79487e-10
2.10511e-07
1.74839e-08
0.000444456
2.16572e-08
0.00053842
1.70566e-05
2.3368e-08
0.00209275
1.22372e-08
0.000608727
2.74038e-07
7.32729e-09
6.0826e-10
2.64385e-08
0.00159482
0.00376254
2.2044e-09
0.000395622
0.00196639
0.00140397
0.00293092
5.78272e-10
2.9453e-09
6.90342e-10
0.00379652
4.30747e-10
1.33369e-07
0.0038016
3.34943e-09
0.00360993
0.00375433
0.00377206
5.99776e-09
8.67747e-08
3.65664e-09
5.79214e-10
1.00686e-08
8.51722e-09
1.19315e-08
6.17889e-09
0.000475218
2.21967e-09
2.02248e-08
2.77995e-07
5.12784e-10
0.00168845
2.34616e-09
2.17872e-09
5.69986e-08
5.11773e-10
2.3858e-08
2.109e-09
7.4807e-09
0.00319628
3.19771e-05
6.15808e-10
1.56255e-08
0.00217395
0.00323052
1.85434e-07
0.000815731
9.27867e-09
2.23258e-09
0.002691
2.46562e-08
0.00325588
0.000542244
1.04703e-09
7.74885e-08
0.000765823
1.89082e-08
1.94663e-08
0.0025995
8.13832e-09
1.02027e-08
9.27812e-09
0.000534596
3.20782e-06
0.00200403
1.84313e-07
0.0149967
0.00182424
1.46008e-07
2.26054e-10
5.93065e-06
3.17593e-09
7.50975e-07
0.00133318
1.55913e-09
5.06744e-10
9.78427e-09
6.6936e-09
1.54797e-08
6.37122e-09
5.81774e-09
1.04937e-06
7.17955e-10
1.65482e-09
0.00176692
2.86544e-09
5.5161e-06
2.95282e-08
6.30422e-06
1.44374e-06
1.22058e-06
5.70514e-06
1.26374e-06
2.90849e-09
1.34656e-08
0.00107165
3.63057e-06
4.73739e-09
2.8955e-09
1.58326e-08
0.000449091
1.3826e-06
6.85296e-08
2.28873e-07
2.89712e-09
0.00240614
5.66433e-09
9.83504e-09
1.92228e-08
9.06726e-09
2.99202e-08
0.00227664
6.6773e-09
2.64217e-08
1.57882e-08
4.3615e-09
0.000477737
2.25513e-09
3.41164e-09
2.37646e-09
2.25507e-10
1.26403e-09
7.71728e-09
6.05209e-09
1.05178e-08
0.000357577
1.03933e-08
1.03728e-08
2.72448e-09
4.22696e-09
9.14509e-09
2.31706e-09
5.55499e-08
0.000380628
0.00249347
1.61168e-08
1.18435e-08
0.00291553
1.6902e-09
4.55825e-05
0.00215882
3.51226e-09
7.58154e-07
1.6293e-06
0.0019934
2.28234e-08
2.4667e-08
2.27758e-07
1.85719e-05
8.60108e-07
4.08098e-08
4.14689e-10
3.26722e-09
4.48195e-07
1.41741e-07
4.8622e-09
1.35891e-09
6.04876e-09
7.54347e-09
3.09149e-06
0.0013604
5.84087e-08
3.52151e-08
5.67545e-08
0.00280927
0.00254118
1.01021e-06
1.36587e-08
3.70592e-08
4.27463e-08
4.2961e-09
2.85199e-09
1.834e-07
4.22086e-09
2.3361e-08
1.43129e-09
1.09026e-08
1.70295e-08
2.05753e-09
4.77227e-07
3.35874e-09
0.00043443
1.01174e-07
0.0040305
0.00169191
9.85249e-08
3.23182e-08
0.000579701
0.00034517
2.36135e-08
2.13979e-08
9.35229e-06
0.0198422
1.42357e-09
1.94786e-08
1.37734e-08
0.000781405
0.000646978
9.03972e-09
1.07412e-08
7.47305e-09
3.46484e-07
5.02382e-08
0.00275354
0.000496426
1.63976e-08
0.0166681
5.43835e-09
0.000315906
0.000244275
0.0253226
2.07223e-08
1.29754e-07
1.47151e-09
4.01247e-08
1.89639e-08
0.00244155
4.88836e-09
4.08504e-08
4.19444e-09
2.47084e-09
2.2726e-05
0.00204435
0.0023497
2.21479e-08
2.9063e-08
0.0576428
6.77353e-09
1.03872e-06
1.04497e-08
0.00312041
9.56065e-09
1.80099e-08
9.11825e-06
0.00279014
2.62166e-08
3.99346e-09
0.00134337
1.06114e-08
4.80529e-10
1.41024e-09
2.94533e-09
5.61003e-09
1.36737e-08
5.70505e-10
2.17157e-08
3.89048e-08
1.05232e-08
7.20651e-08
1.3e-08
5.84207e-07
0.00199229
1.88146e-09
1.4581e-08
4.00465e-08
0.00221793
9.07559e-07
3.30387e-09
0.000400979
1.57392e-09
2.25156e-07
1.41366e-07
0.000983779
7.36251e-08
3.93172e-05
0.000532264
6.18377e-10
1.22833e-07
2.4053e-08
3.01079e-09
1.59349e-07
6.88407e-09
6.76458e-08
5.69979e-10
0.000584263
5.1188e-08
0.00213451
9.86885e-10
4.65844e-08
2.27653e-06
1.07304e-08
6.28886e-06
5.19694e-09
6.20808e-10
5.76635e-08
3.46254e-08
4.55787e-09
1.69986e-05
6.10945e-08
7.83422e-08
0.000547257
2.9582e-09
0.000563698
3.16721e-08
3.13083e-09
8.93388e-09
9.04909e-09
7.82876e-09
4.24162e-07
3.13688e-07
1.48996e-07
0.00246956
2.07734e-07
0.00403379
0.00224772
0.00340519
1.0601e-07
1.99242e-07
0.00152623
4.4588e-09
0.00381474
2.27379e-08
0.00251112
5.66608e-09
0.00269111
0.000492202
2.90882e-09
0.00268862
5.16779e-06
0.00271888
1.03952e-08
0.00252935
5.58961e-08
0.000340328
1.27412e-09
5.09002e-09
1.2191e-08
0.000746514
8.38283e-07
6.52736e-10
1.965e-08
8.03793e-05
0.00282455
0.000313637
6.0676e-08
0.00196745
1.82108e-07
0.000544603
3.27829e-08
3.38024e-10
6.06154e-09
2.62854e-09
8.00627e-08
2.04143e-05
3.4057e-09
1.34585e-06
3.49772e-08
3.52086e-08
4.18802e-09
9.84982e-05
2.04406e-07
8.26293e-10
6.42691e-09
0.000432451
1.12179e-06
8.16882e-08
0.00157301
1.77132e-06
1.48896e-06
9.62531e-09
3.04349e-09
3.96003e-09
0.000682215
2.46616e-08
3.60681e-09
1.97688e-08
3.77386e-07
1.02727e-06
2.04071e-07
1.82141e-09
3.24519e-06
6.60431e-07
5.92437e-09
1.46174e-08
5.89748e-06
1.33249e-09
6.88907e-10
0.00245868
0.00229894
6.35449e-09
1.9624e-09
9.13801e-10
3.39656e-08
0.0019338
2.32342e-08
1.37655e-06
7.05864e-10
5.56122e-07
2.70073e-08
0.00111914
0.000444877
7.1821e-07
2.24686e-08
3.49868e-06
5.57001e-07
0.000107454
5.90969e-09
1.57302e-08
0.00119217
1.34461e-08
8.5534e-07
5.97344e-07
2.03438e-06
1.28451e-06
7.62382e-09
0.00163662
1.3217e-05
2.79972e-09
1.16122e-08
1.20959e-09
0.000427677
0.000113087
1.88265e-08
0.000637651
1.28619e-07
7.27965e-05
0.00291389
0.0633144
0.00284446
0.00203939
0.00221777
4.14522e-10
2.80599e-06
3.40754e-09
3.6304e-06
1.55652e-05
2.22273e-06
0.0692361
3.59624e-07
1.37322e-08
3.2842e-07
0.000761567
2.95316e-07
9.19909e-10
0.00191292
1.50132e-07
0.000207827
1.80098e-07
4.20909e-07
4.84697e-10
3.9256e-07
2.17219e-07
0.00157322
2.18599e-07
2.7969e-08
1.18914e-08
2.5936e-05
0.0014221
0.00136678
0.00311043
4.82087e-09
0.000502779
0.00155673
0.00184761
0.00156314
2.54836e-07
0.00223915
7.66211e-09
4.44061e-09
3.88873e-09
8.59046e-09
0.00153067
0.00184033
4.95948e-09
1.36577e-08
3.84748e-10
4.14519e-07
0.0176448
0.00377176
0.00140931
8.5488e-08
0.00254507
1.20654e-09
1.85401e-09
0.00113341
0.000804515
2.252e-09
2.91619e-06
1.75181e-09
4.66978e-09
0.00352793
6.39787e-09
0.000423312
1.16731e-09
0.000378709
0.000405486
0.000581367
0.00199013
3.36805e-07
0.00161691
1.13364e-09
1.19399e-05
0.0122058
0.00127113
0.00226261
0.00112394
5.85209e-10
0.00126894
1.19056e-09
1.10281e-08
0.0029639
1.64018e-07
6.61076e-06
6.44165e-08
5.69186e-08
0.000573401
1.5201e-06
2.21817e-09
7.01586e-09
4.76282e-07
0.000403307
0.00238208
2.72959e-07
4.56576e-09
0.000614774
1.29373e-08
1.13702e-08
5.1441e-08
7.9894e-08
0.00224795
1.54399e-08
0.00252018
3.19153e-07
0.0204924
0.00443638
9.59333e-09
3.05225e-06
0.00254033
4.98889e-05
5.21536e-06
8.83691e-09
0.00178352
0.00285165
3.46089e-09
0.000489088
8.56608e-07
0.00061878
1.89525e-08
8.98888e-07
0.000117634
1.76416e-08
7.68507e-11
0.00163284
0.00131675
5.25697e-09
3.30349e-09
0.00217882
0.0332935
3.51356e-09
2.97198e-08
0.0334408
7.87753e-08
0.00362885
0.00209354
1.67297e-08
2.4283e-08
0.00220979
1.94352e-07
0.00277614
3.1605e-09
1.7511e-06
4.52176e-08
8.95174e-09
3.05519e-09
1.0115e-08
0.00346731
0.000986146
0.00033533
0.000274723
0.00246467
0.000453124
1.47193e-08
1.19814e-06
1.89515e-07
0.0002288
0.00234304
9.23872e-10
2.39291e-08
3.97699e-08
3.04628e-08
0.000502469
2.70607e-07
0.000529718
1.84757e-07
2.9476e-09
5.97076e-11
5.35502e-09
0.000221106
0.000394036
6.98945e-09
0.00394795
0.00252261
3.04444e-08
4.48493e-10
2.75512e-09
6.1357e-09
5.10815e-09
1.59048e-08
0.00275262
0.000617124
0.0221483
7.75246e-05
0.000347745
0.000381684
3.6719e-09
2.06204e-07
9.29411e-10
4.30015e-08
0.0249361
0.00237694
9.11879e-09
5.5011e-10
0.00116296
1.52549e-08
7.764e-08
1.51171e-08
1.96816e-09
6.93551e-08
2.73294e-09
0.00226146
3.61371e-09
1.66826e-08
4.20543e-09
1.17996e-08
2.06022e-08
0.00386382
3.10304e-07
1.19037e-07
7.53944e-08
5.38189e-10
4.84254e-05
1.05199e-06
4.89702e-09
1.22947e-07
1.24496e-05
7.43398e-09
9.04741e-09
1.11781e-05
1.9249e-06
2.55736e-07
0.00315496
4.49486e-09
4.37438e-07
1.40968e-06
0.00290816
2.26888e-07
1.23758e-10
1.98747e-06
1.77841e-05
3.58263e-07
1.10011e-08
1.55641e-07
4.78169e-08
5.49632e-08
1.52338e-08
2.87564e-08
0.00195589
1.62307e-09
2.61251e-09
3.76696e-09
3.0873e-10
2.2553e-10
6.51042e-10
0.00420939
1.18757e-07
3.08949e-09
6.99401e-09
3.25354e-09
1.17327e-09
8.17033e-08
1.47957e-10
2.89862e-09
5.55968e-08
1.25856e-08
0.0022772
3.71832e-09
0.000385384
2.79052e-08
9.29719e-08
1.83473e-08
1.26692e-06
2.00588e-09
0.00329869
7.32759e-09
0.00183582
3.2635e-07
2.79576e-08
7.19584e-09
1.78442e-06
1.73831e-09
3.89657e-09
2.70965e-09
0.000257591
0.000626658
0.00214802
8.80047e-08
1.99991e-07
0.00244605
1.74588e-06
5.02123e-09
1.25068e-08
2.98049e-07
1.05306e-08
0.00424841
3.30255e-06
0.00315516
2.59924e-08
6.51835e-09
0.00158653
0.00149017
0.00179946
1.60119e-08
1.5626e-06
0.00194387
1.86518e-09
1.31367e-05
1.54257e-07
0.00184304
0.000459784
3.62597e-08
0.00237609
2.18633e-05
6.6373e-07
0.00211064
0.00223239
1.14243e-08
0.00245481
0.0031183
0.00185968
1.48393e-08
6.20607e-09
5.17938e-09
1.55081e-09
8.50404e-10
0.00174765
0.00284181
0.00186938
3.35106e-09
0.00328811
6.66435e-10
0.00227924
0.00258585
7.93704e-09
3.24291e-08
0.00170122
2.44658e-08
8.03712e-09
3.23764e-07
7.52887e-10
0.00263275
0.00205325
7.7798e-07
0.00175258
5.95338e-09
5.92604e-09
3.02508e-09
3.68065e-08
7.75476e-08
3.05954e-07
1.97251e-09
3.12773e-09
1.50557e-08
7.10734e-09
8.1067e-09
7.72689e-08
3.89198e-10
1.42681e-08
2.24702e-06
1.43508e-08
3.56129e-08
1.31479e-08
1.19121e-07
1.07256e-09
7.42222e-09
2.27146e-07
9.34783e-10
4.801e-09
0.0019458
3.36077e-08
5.62133e-09
6.70569e-07
2.38888e-09
1.20362e-08
6.3425e-09
0.00196036
1.04626e-07
0.00224046
0.00153792
1.1444e-08
1.13451e-08
5.4381e-08
5.33411e-09
0.00162567
4.16251e-08
2.89246e-07
6.77899e-08
1.93554e-08
0.00242984
0.00154371
2.18986e-09
2.52439e-09
8.64517e-09
1.18558e-08
2.02659e-08
4.6239e-09
4.14955e-07
2.83618e-09
1.48634e-06
2.49219e-09
3.23985e-09
7.72146e-09
1.68651e-08
2.18095e-07
5.25781e-09
1.68815e-08
0.00442017
0.00150115
0.00264479
0.00159909
1.44409e-06
7.71981e-09
0.00207708
8.96575e-07
5.13937e-09
0.000410087
2.25049e-09
1.43293e-07
0.00242097
8.89453e-09
1.26105e-07
2.30299e-08
4.46544e-08
0.00148094
7.8323e-09
9.00194e-10
2.19247e-07
2.46686e-09
5.02234e-07
8.91134e-06
8.98826e-09
0.00216523
2.78377e-08
0.000461802
2.41644e-07
0.00219455
8.28618e-10
4.73253e-09
1.95479e-07
2.58838e-09
0.00188334
3.88026e-07
0.000518476
1.49299e-07
3.68025e-07
1.33061e-07
7.4172e-08
6.31039e-09
7.52131e-08
4.18825e-06
3.8597e-08
3.38665e-06
0.0033908
5.0308e-08
0.0043057
0.00635229
2.08509e-09
4.79031e-06
0.00194816
1.04897e-08
1.36521e-09
9.70138e-07
6.70344e-09
6.14427e-09
0.00239261
1.53919e-08
6.3373e-07
0.0027298
1.35615e-09
6.43869e-09
4.30705e-07
6.44069e-10
6.06504e-09
0.00261018
3.5283e-09
0.00284947
1.8625e-08
1.99399e-07
1.1309e-09
0.000942479
8.2013e-08
2.43399e-08
1.86221e-07
0.00261016
1.58572e-06
3.52069e-09
1.1948e-08
2.13131e-08
0.00226166
7.87793e-10
7.04333e-09
1.21274e-08
1.4705e-06
0.00260887
0.000288522
0.00119172
8.15468e-09
0.000359025
8.85968e-09
9.53945e-07
0.000845792
5.56681e-09
0.00094224
3.48676e-06
1.83354e-09
2.63602e-09
2.27368e-09
0.00260792
1.4317e-09
3.19656e-09
6.59527e-08
1.119e-08
2.14905e-09
0.000394632
2.47216e-09
5.50362e-08
0.00253044
1.4191e-06
2.75123e-09
0.00210464
3.44901e-06
6.16743e-09
1.29944e-08
1.29517e-05
6.53983e-09
2.73144e-07
1.233e-08
1.04907e-09
1.04314e-08
5.04741e-06
0.00117305
4.4316e-08
0.00253641
1.64356e-09
3.746e-08
0.00284782
3.14158e-08
6.86534e-08
9.96975e-09
1.24975e-07
0.00244091
2.15825e-08
1.80843e-08
0.00170433
6.27463e-09
0.00275129
1.48639e-09
8.232e-09
1.00811e-09
8.09849e-09
0.00155954
1.21146e-09
5.39232e-10
1.26233e-09
1.07534e-08
5.97954e-08
0.00265768
3.62914e-09
3.75181e-09
2.37467e-09
5.6404e-09
5.64071e-06
3.26712e-09
0.00174215
1.93253e-08
1.20511e-08
7.17414e-09
5.7643e-08
0.000429759
6.75414e-07
8.3053e-11
1.51014e-09
0.00190648
0.00229153
5.40598e-08
4.93427e-10
0.00193609
2.75394e-08
4.74735e-10
0.00356184
9.74678e-09
0.00280391
2.99882e-07
1.55031e-08
1.47416e-08
1.24489e-08
9.14724e-09
4.17928e-10
3.20813e-05
4.52183e-07
1.3963e-09
4.0075e-08
4.99975e-08
5.96011e-09
0.00267971
4.03633e-09
1.04172e-08
0.00207264
5.84386e-09
3.18772e-08
7.57512e-11
0.00239738
3.3439e-08
1.10988e-07
3.32829e-09
3.6998e-08
3.355e-09
0.00244908
4.49917e-09
2.25766e-09
0.000616479
1.01222e-08
7.20526e-09
0.002416
5.29813e-08
3.67243e-10
2.86176e-08
5.09396e-09
0.00192407
4.47013e-07
5.70847e-08
2.69356e-09
4.39021e-07
1.09486e-07
1.0307e-08
3.27408e-09
1.02575e-09
3.49677e-08
3.77601e-09
6.95772e-10
6.17855e-09
9.08755e-10
7.15126e-09
0.00239563
7.13368e-07
1.43951e-08
2.59457e-09
1.46877e-09
0.00231703
2.88048e-09
0.00341672
9.63149e-07
0.00163448
5.76825e-10
0.00223159
0.00305149
6.60674e-09
8.42129e-09
7.81324e-08
0.00218674
0.00265712
3.22109e-07
6.51853e-09
5.74379e-08
5.48332e-10
2.7923e-07
7.92251e-09
1.0558e-08
6.50461e-09
2.38662e-09
2.9818e-09
1.99987e-09
6.52477e-09
8.0452e-09
4.08178e-09
5.07546e-09
1.04246e-08
1.52162e-09
2.15603e-10
3.378e-09
3.15412e-09
5.66732e-09
9.14764e-10
1.99358e-07
0.00195782
0.00288065
2.45745e-09
0.00230753
1.59628e-08
2.12019e-09
5.18388e-09
1.68552e-06
1.03364e-07
3.98111e-09
3.89056e-10
8.45766e-09
1.12906e-09
8.27438e-09
6.25179e-09
1.09837e-08
1.41269e-07
0.00163922
1.28541e-09
3.75539e-09
0.00145945
0.00185784
0.00226594
0.00206815
0.00180536
3.77318e-08
2.27743e-08
2.59033e-09
8.81594e-09
0.0119411
1.41601e-06
7.8177e-10
2.64799e-08
3.20154e-08
6.74181e-09
3.11934e-09
2.14786e-09
7.56116e-07
3.1551e-06
3.91204e-08
9.64243e-09
1.29311e-09
4.55241e-09
0.00296159
2.17937e-09
0.00192676
1.00413e-07
8.06706e-09
7.5203e-07
0.00105424
7.17721e-08
9.25541e-10
3.44162e-09
1.33257e-09
1.24913e-09
1.99762e-08
3.48823e-09
0.00115037
3.99403e-10
4.18233e-08
0.00284471
3.01646e-09
0.00138778
6.09111e-08
0.00222962
1.49291e-07
0.00126061
1.44484e-10
0.00290909
0.0024125
2.69789e-08
1.26908e-09
0.001628
1.63458e-08
0.00199897
7.79009e-09
7.45483e-09
4.71546e-10
2.23121e-08
5.81704e-09
1.49518e-08
6.32281e-07
0.00310612
0.00169522
1.17222e-06
3.84531e-09
8.78038e-08
0.00314694
0.00142074
0.00245826
0.00242685
4.09978e-09
8.81041e-08
7.12076e-09
1.58896e-08
0.0031538
5.22936e-09
0.00153272
0.00334446
4.40194e-09
2.8469e-09
0.00166881
0.00314819
2.7193e-08
3.82295e-10
0.00174353
8.58273e-08
1.4994e-09
4.88691e-07
9.95483e-08
0.000406579
5.04816e-08
4.89519e-08
2.44399e-07
2.64677e-07
1.02502e-07
1.88803e-09
3.85869e-09
1.17706e-08
3.00027e-09
1.63679e-08
7.5227e-09
1.20095e-10
1.76512e-09
0.00207041
0.00293222
3.27126e-10
1.81802e-08
8.47858e-09
2.55848e-09
5.01433e-07
1.22117e-09
2.68041e-09
0.0028721
0.00156498
0.00150418
0.00168981
1.00863e-08
0.00145824
2.72458e-07
0.00391774
8.94816e-10
0.00234936
1.40429e-08
3.53356e-08
1.71973e-07
4.55897e-10
0.00306668
1.71084e-07
0.00427398
1.01019e-08
1.24743e-09
1.07387e-08
8.47938e-09
0.00139325
0.00297772
1.81244e-10
3.13516e-09
1.84379e-08
0.00172057
4.61908e-09
0.0029313
3.45127e-07
1.86635e-09
5.58107e-10
0.00250846
2.81203e-08
0.002219
7.80499e-08
0.00395336
0.00329946
6.98382e-08
1.46465e-09
0.00366056
9.43961e-09
0.00013526
0.000344637
1.53466e-08
1.92183e-07
2.31835e-08
7.93013e-09
0.00309942
5.96239e-09
5.34949e-09
4.12054e-10
6.23209e-08
7.0833e-09
4.59826e-09
2.11045e-08
9.48613e-09
1.9847e-08
0.00302145
2.0597e-08
2.14975e-08
4.49545e-09
8.38275e-10
8.04689e-09
7.24421e-09
1.00484e-08
0.00226552
7.40268e-09
0.00302652
0.00203056
5.42832e-09
0.000360668
2.09255e-09
2.17102e-09
2.72974e-08
1.3579e-08
3.14951e-08
0.00158453
0.00209218
1.10719e-07
1.14541e-07
8.55204e-08
0.0031824
0.00110964
4.82791e-08
0.00216137
0.00453382
1.29073e-06
0.00259348
0.000421095
5.91921e-09
8.35299e-07
5.31908e-10
0.000563896
7.23858e-10
0.0026063
1.72137e-10
2.0633e-09
0.000636512
0.000341717
1.38776e-08
0.000460269
2.86668e-09
9.53461e-08
2.08383e-08
3.1882e-09
4.25432e-07
4.12396e-10
3.58866e-09
0.0025714
9.71285e-09
1.39065e-08
1.39575e-08
1.21993e-07
2.59354e-09
4.83805e-05
3.17994e-08
5.14946e-09
1.0134e-07
1.49974e-07
0.000297064
0.00242622
3.92359e-08
5.55354e-09
0.00242621
0.0023618
0.00436711
1.97665e-08
1.33884e-08
2.06405e-09
2.03257e-08
7.99502e-09
0.00213927
0.00447782
6.33386e-09
2.57065e-09
2.83999e-09
4.21016e-09
0.00254173
0.000394484
1.65777e-09
1.73286e-08
1.71873e-08
0.00222197
1.12355e-05
1.17392e-06
0.00199289
2.06825e-08
1.7426e-08
2.57117e-09
3.01147e-08
1.68414e-08
0.00247603
5.34495e-08
0.000310598
3.10738e-09
3.98216e-09
0.00328904
0.00267292
6.133e-09
0.00315717
1.06908e-09
0.0439578
2.15214e-07
2.99662e-09
1.40854e-09
0.00187486
2.97462e-08
7.75007e-09
0.00384479
1.15439e-08
0.00155271
0.0031176
1.05798e-08
0.00328803
1.12974e-08
1.07031e-08
1.58649e-08
2.40164e-07
3.26544e-09
4.63665e-08
8.67841e-10
2.41413e-08
4.8784e-07
1.42816e-08
0.00250339
6.45483e-09
0.00309058
5.94502e-10
5.86266e-09
2.61788e-09
0.00240748
1.0393e-08
0.00229689
0.00210757
0.0031847
1.20556e-08
0.00224896
1.80632e-07
4.70932e-09
2.09297e-09
4.46295e-09
8.30986e-09
3.90094e-08
1.50415e-07
2.99085e-07
2.21096e-09
0.00292259
3.1514e-08
1.34244e-09
2.42509e-09
4.2894e-09
1.09172e-09
0.00206636
3.65647e-08
0.00306809
2.11904e-08
0.000624963
2.36587e-09
2.53704e-09
0.00181844
0.00365652
5.74443e-08
1.62442e-09
0.00383463
9.69503e-09
1.32983e-08
8.06718e-10
2.4842e-09
4.24051e-10
1.09507e-08
1.12735e-09
9.06921e-09
3.66528e-09
5.69354e-08
2.6985e-08
0.00248517
5.60408e-07
6.26192e-09
1.18729e-08
6.42806e-09
0.0021601
4.24819e-09
0.00317508
7.6152e-10
4.97638e-09
4.32532e-09
1.61536e-08
7.95057e-08
7.60741e-07
0.00135023
0.00129865
8.08018e-09
0.00380081
1.79267e-08
0.0028771
1.08383e-08
1.81266e-08
2.41243e-09
0.00270518
0.00132752
0.000427182
1.59952e-08
1.7892e-09
0.00134018
4.77873e-09
3.70794e-09
7.38756e-09
8.33963e-09
0.002449
0.00209851
1.45356e-08
2.16692e-08
6.98625e-09
4.02294e-09
3.46018e-06
1.98248e-06
6.16316e-09
1.88397e-08
0.00163953
7.29572e-09
2.973e-08
1.0976e-09
2.50642e-08
2.68922e-09
0.0023497
5.60589e-09
1.80902e-06
0.000526451
3.63911e-09
6.45962e-09
1.07937e-07
2.69905e-09