/*--------------------------------*- C++ -*----------------------------------*\
  =========                 |
  \\      /  F ield         | OpenFOAM: The Open Source CFD Toolbox
   \\    /   O peration     | Website:  https://openfoam.org
    \\  /    A nd           | Version:  10
     \\/     M anipulation  |
\*---------------------------------------------------------------------------*/
FoamFile
{
    format      ascii;
    class       volScalarField;
    location    "8";
    object      SgT;
}
// * * * * * * * * * * * * * * * * * * * * * * * * * * * * * * * * * * * * * //

dimensions      [1 -1 -3 -1 0 0 0];

internalField   nonuniform List<scalar> 
59698
(
4.78493e-15
3.48705e-14
3.16815e-12
1.82156e-13
3.18324e-15
1.82668e-19
3.26475e-14
4.02406e-13
8.189e-07
1.06074e-15
0.0244127
5.4857e-14
2.71207e-17
5.53242e-14
1.7033e-15
2.49073e-16
2.55509e-13
7.56364e-14
5.92388e-13
1.59811e-13
1.82953e-08
1.91287e-15
1.47609e-08
6.28361e-17
4.16743e-15
1.65488e-13
3.13949e-13
1.95002e-14
2.03928e-15
1.13821e-14
5.92892e-14
3.04441e-17
5.60733e-16
3.97321e-15
1.37324e-14
1.95827e-13
1.36299e-14
7.95583e-15
7.88657e-14
5.77928e-17
1.51389e-14
5.36296e-18
1.73265e-14
3.2415e-13
9.98524e-17
1.37314e-14
6.67637e-13
2.74572e-13
1.61099e-13
4.30573e-13
1.08264e-12
3.84053e-13
8.26285e-14
4.67024e-14
2.91242e-16
1.54745e-13
6.15003e-14
5.51373e-15
2.09744e-14
1.32539e-14
2.45164e-14
1.39085e-13
1.01429e-13
2.03853e-13
7.7711e-17
1.93268e-13
1.30165e-05
1.89277e-13
1.06315e-14
0.000195794
5.68459e-15
9.62343e-14
5.68025e-15
7.27669e-13
2.656e-18
1.27575e-12
8.49981e-14
3.09782e-14
1.71265e-14
1.10983e-15
5.12854e-15
6.32596e-14
1.20824e-13
2.16492e-13
1.18101e-09
9.29554e-14
3.58539e-13
2.55934e-13
8.12601e-16
3.56213e-13
7.50943e-13
2.26187e-13
1.64335e-16
6.527e-14
6.14808e-14
2.10948e-14
1.22174e-14
9.64514e-14
2.0702e-15
3.64268e-17
4.51817e-15
2.06738e-14
2.6717e-15
6.26801e-14
1.81982e-14
2.20802e-15
4.02974e-13
5.70976e-14
1.96972e-11
3.02544e-16
4.43794e-14
5.55028e-14
3.46387e-14
6.65518e-18
9.74562e-15
2.6619e-14
1.42077e-15
5.15982e-16
2.76199e-15
4.88859e-15
9.02936e-14
7.45788e-13
7.36262e-16
1.07827e-14
1.22366e-14
1.58313e-14
1.39357e-13
1.67352e-16
9.20485e-15
9.01468e-14
2.80156e-14
1.8471e-13
0.0488524
2.37365e-14
2.67758e-15
9.4453e-14
8.71838e-14
2.82374e-16
5.83267e-14
9.65447e-13
3.90803e-14
1.10537e-14
1.26398e-14
8.44941e-15
1.64024e-13
6.31491e-14
1.49871e-14
1.28661e-13
1.56057e-14
1.18297e-15
1.9759e-15
0.027377
2.82617e-13
1.84075e-13
1.10344e-13
1.08832e-12
1.7008e-13
9.59905e-14
1.9483e-15
1.48906e-15
1.26878e-14
9.5998e-14
1.6218e-15
1.211e-15
1.54987e-15
4.23808e-16
6.11051e-14
4.26122e-15
1.13935e-14
3.45409e-13
2.72079e-16
7.67844e-15
4.65718e-15
1.28909e-15
2.33105e-14
1.01281e-12
2.15094e-17
3.05166e-14
0.00261082
9.46576e-16
2.56007e-15
2.1169e-16
1.79837e-15
1.35533e-13
1.94764e-15
8.00567e-16
3.84472e-15
2.06669e-13
1.32493e-13
7.64864e-14
1.94736e-13
5.03358e-13
1.26569e-15
3.06172e-15
2.80753e-15
1.30518e-14
2.62765e-14
1.13534e-14
8.6915e-08
4.35458e-15
1.3895e-14
6.85456e-15
1.42049e-15
3.26256e-13
5.23792e-15
1.80915e-14
2.40765e-15
7.87934e-14
1.21282e-13
5.38293e-15
4.20818e-14
9.27337e-14
1.4447e-14
9.62038e-16
2.55083e-14
2.38976e-13
5.96528e-13
4.38285e-13
4.96358e-15
9.07002e-15
7.81603e-14
1.70076e-16
1.10387e-13
2.41538e-14
2.79522e-14
2.50979e-15
1.70579e-14
1.39526e-13
8.63751e-16
4.01222e-14
1.98473e-15
3.19656e-14
2.13354e-14
2.88912e-14
1.64942e-13
7.08108e-15
4.63862e-14
1.02779e-12
5.42118e-13
4.07834e-14
2.77305e-14
2.62449e-15
9.7782e-15
2.25954e-17
1.53826e-14
2.06534e-13
7.99873e-14
9.35267e-14
2.6283e-13
2.60731e-12
4.33894e-13
1.95228e-14
9.86956e-14
0.0156492
1.38613e-12
1.90737e-13
1.87309e-12
3.48052e-14
1.01213e-12
1.82103e-13
1.67562e-06
3.12705e-16
1.75455e-13
6.99761e-13
1.98617e-12
1.37972e-14
3.98902e-14
0.00123925
1.03302e-13
2.22736e-13
2.25464e-13
1.10471e-14
2.396e-10
1.79708e-13
7.37477e-15
6.63197e-13
1.77896e-14
3.26363e-13
3.97791e-15
0.0526279
4.45764e-16
9.7435e-14
5.42339e-13
2.63457e-14
1.36712e-14
1.39353e-15
1.24337e-13
1.48608e-08
2.51999e-15
7.64104e-13
1.02091e-13
3.01559e-14
1.72301e-13
1.07046e-12
9.0903e-13
3.11862e-13
1.08695e-13
3.66428e-13
2.23847e-13
4.81742e-14
4.27759e-14
6.93546e-17
2.67954e-16
2.82422e-13
2.01199e-13
3.63045e-14
1.69253e-15
7.93559e-13
1.74345e-14
7.71548e-14
8.11213e-14
3.41901e-15
1.07666e-13
4.59446e-17
1.76612e-14
5.57006e-13
1.15894e-16
6.06224e-13
1.6776e-18
3.08359e-13
2.76863e-13
1.49132e-13
2.39853e-13
7.05735e-17
4.38105e-12
1.72836e-14
2.70366e-13
2.76979e-13
2.4232e-14
1.1681e-15
1.07176e-14
1.58086e-13
3.17636e-14
1.34052e-13
4.20504e-07
3.4269e-13
2.0374e-14
6.94858e-14
4.82279e-14
1.18799e-15
2.04243e-13
4.08003e-14
7.60525e-14
1.18821e-13
2.85334e-15
7.87209e-14
1.87338e-13
6.08974e-15
4.72983e-14
1.117e-14
2.36669e-14
4.37518e-13
1.805e-14
1.29973e-17
6.36187e-15
1.03078e-15
6.53934e-15
5.0391e-14
1.14871e-13
1.78488e-13
4.32327e-13
1.10978e-13
0.00277006
3.17241e-13
1.37701e-16
1.77898e-17
6.21353e-13
9.12868e-14
1.80743e-12
1.7302e-15
1.09416e-14
1.44814e-15
1.28465e-13
7.73505e-17
2.59019e-14
2.88064e-16
1.82878e-12
1.2817e-13
7.07497e-16
1.32784e-05
8.31909e-18
3.53666e-14
3.09045e-13
1.80868e-13
1.33782e-12
2.81949e-16
5.67613e-13
8.78896e-17
2.26193e-15
1.73374e-12
2.45943e-14
9.33182e-17
1.12616e-13
2.8165e-15
1.59131e-09
8.49509e-15
4.02619e-13
2.51566e-13
7.2266e-14
1.2322e-13
2.44197e-15
2.74054e-14
5.95528e-14
1.7708e-14
7.19163e-13
5.79742e-14
1.6681e-15
1.15577e-16
2.53296e-15
2.99093e-14
9.82494e-15
1.47318e-05
4.81457e-13
0.0232144
2.9881e-14
4.47938e-15
2.71404e-16
2.85664e-14
1.25845e-15
1.1993e-14
1.23998e-14
4.26782e-14
2.9571e-13
2.78523e-14
3.08764e-13
2.10053e-13
0.0379006
3.11448e-14
1.04709e-13
3.31173e-15
2.11564e-15
1.6655e-12
3.334e-14
6.10999e-14
3.98174e-15
4.25486e-16
0.00194076
1.17622e-12
1.34399e-13
6.78462e-16
1.37603e-18
4.94486e-13
0.0482739
3.14665e-13
1.32995e-13
4.85412e-15
1.54521e-14
5.03392e-17
2.5928e-14
8.0596e-15
9.4007e-14
5.0172e-14
6.61595e-14
3.81256e-15
9.28924e-14
2.76973e-13
9.08909e-15
2.10432e-17
4.97338e-15
4.41901e-13
1.41554e-15
1.37456e-13
1.80504e-14
1.83201e-15
1.28793e-12
4.01558e-13
1.39152e-12
1.31655e-13
2.05334e-13
1.93868e-15
1.91595e-14
1.04792e-15
2.00879e-15
1.85959e-16
9.5028e-14
4.68369e-14
5.94127e-14
2.84964e-15
6.52679e-13
1.43128e-13
4.94763e-14
3.13646e-14
7.61547e-14
1.70276e-15
4.74105e-15
6.41135e-14
3.54383e-14
1.10961e-13
2.28609e-15
9.57775e-14
1.57323e-14
2.98432e-14
1.60408e-15
1.95198e-13
1.06179e-14
1.07346e-13
1.28489e-13
6.97394e-15
8.15371e-15
5.76855e-16
1.44e-15
1.57913e-16
2.23267e-15
5.34605e-13
7.97867e-16
7.60955e-08
2.79655e-14
4.63711e-14
4.85556e-15
2.41501e-16
2.98571e-13
3.83195e-15
3.50867e-14
3.87481e-18
1.38432e-13
6.67141e-14
8.25918e-17
2.40957e-14
1.93541e-17
1.56101e-16
1.23662e-15
1.52866e-13
9.04954e-14
8.91273e-17
3.70488e-16
1.90434e-14
1.65846e-14
4.22954e-13
9.305e-14
1.23189e-13
5.64227e-14
1.37915e-13
7.71702e-18
5.80074e-14
7.16221e-14
1.76091e-15
7.23006e-18
9.08458e-16
6.64763e-14
2.82521e-11
1.89182e-14
1.21816e-13
2.59336e-13
1.91333e-14
1.50447e-14
9.45188e-15
5.71303e-15
1.53713e-14
1.04684e-14
4.38439e-15
1.31516e-13
0.0152706
1.4051e-13
3.80795e-16
4.77002e-14
5.13051e-15
2.78357e-16
6.19772e-13
2.36226e-14
4.03385e-13
1.3357e-15
0.000216485
1.07716e-13
2.5275e-14
3.92919e-13
6.25482e-17
4.04713e-14
1.55534e-13
1.6872e-14
0.0337982
1.41536e-13
1.23789e-13
1.44391e-15
3.705e-13
2.94238e-14
1.15127e-13
1.78506e-13
3.5376e-14
5.81203e-14
1.30261e-16
1.73439e-18
3.93671e-13
1.45065e-14
8.39174e-15
2.29381e-12
6.29137e-16
1.15521e-12
7.05874e-15
5.81131e-15
2.31671e-13
3.24294e-13
7.62901e-15
1.78252e-15
1.85255e-14
1.47006e-16
1.13834e-14
2.46385e-05
4.56211e-14
7.81605e-18
1.23238e-17
5.01204e-14
4.65155e-13
5.74763e-16
1.29641e-13
1.5513e-13
2.89045e-13
2.25111e-14
3.12963e-17
2.15375e-13
8.87221e-14
6.27763e-14
4.06483e-14
2.83566e-13
6.80528e-13
1.91548e-12
4.1301e-13
3.96404e-14
6.87741e-16
2.14161e-11
4.35693e-13
1.68158e-15
2.80247e-13
1.50466e-13
1.00967e-12
3.13663e-13
1.8014e-13
4.28133e-15
2.7453e-14
1.47942e-13
5.47712e-13
3.57228e-14
8.54134e-15
6.01666e-13
4.79727e-13
5.76831e-13
1.92877e-13
1.79237e-13
2.8823e-13
1.12429e-13
5.96087e-15
1.76873e-13
5.82461e-14
8.57097e-15
0.00385201
1.49466e-13
4.73977e-14
7.41153e-14
2.67026e-13
3.07883e-13
1.18684e-15
1.4746e-15
3.98781e-14
1.14641e-14
9.46042e-13
2.94886e-14
1.11091e-14
9.90186e-14
1.45799e-07
6.93551e-16
3.95484e-14
2.31326e-13
4.94431e-13
5.0513e-15
1.85633e-14
9.40781e-14
1.01881e-13
6.35171e-14
2.41011e-14
3.25984e-13
1.84168e-15
1.31687e-16
1.58799e-13
1.5234e-13
9.07857e-13
8.14667e-14
4.65291e-12
2.31445e-17
3.1702e-14
3.07283e-14
8.76632e-14
4.99961e-13
5.57905e-13
1.15101e-17
3.15848e-16
2.49492e-13
2.36621e-14
2.3888e-12
1.29803e-13
1.10481e-13
1.55148e-14
5.891e-14
6.6611e-16
5.20089e-14
9.30541e-14
2.56473e-13
5.77188e-13
2.39491e-12
2.00393e-13
2.84294e-16
2.6764e-13
1.81053e-16
4.12506e-16
3.72167e-14
4.28494e-13
5.05348e-13
0.0317758
1.22532e-14
1.22899e-13
1.22997e-12
6.12201e-17
2.36859e-12
5.06634e-18
1.4332e-13
2.21892e-16
8.83482e-15
5.35016e-15
4.14279e-14
4.21744e-13
0.0393686
1.36465e-15
7.26604e-15
7.8931e-15
3.78201e-13
2.05261e-13
7.28492e-15
1.44824e-14
7.51592e-15
6.1678e-15
2.00867e-15
5.36621e-13
4.99989e-15
1.89005e-16
2.22025e-15
5.70447e-14
1.47275e-17
7.29781e-15
2.55558e-13
0.000424559
2.77405e-14
1.27307e-14
1.20607e-12
2.93884e-13
1.14585e-12
2.18497e-14
1.29455e-13
5.10579e-13
4.65477e-14
4.60477e-15
1.41419e-12
1.13289e-14
4.56429e-13
1.58117e-16
6.32254e-14
8.66623e-15
1.13945e-15
2.89204e-13
3.29962e-14
6.96276e-13
1.35298e-05
5.69253e-13
1.60988e-14
3.02883e-17
3.8048e-15
4.52279e-15
2.65289e-14
3.62573e-15
5.92701e-15
5.9239e-14
1.55605e-15
2.64292e-15
2.36953e-15
3.67591e-16
9.43629e-16
6.95194e-14
3.44454e-16
2.06235e-14
9.99181e-13
1.46092e-13
5.06674e-15
1.12376e-15
4.45191e-11
3.43895e-17
4.33217e-15
4.10838e-15
1.88418e-15
3.45917e-13
5.91781e-16
4.24233e-16
5.34772e-15
4.92896e-15
2.82434e-13
2.73478e-15
7.21293e-14
1.66948e-12
2.04696e-13
1.82842e-13
6.92985e-15
1.80246e-15
3.11279e-15
9.33022e-14
5.31701e-14
4.60362e-15
2.1504e-12
4.709e-13
1.86953e-14
6.41043e-14
5.47264e-13
5.47461e-14
3.96086e-16
3.71709e-14
8.42738e-16
1.82454e-15
2.49034e-13
7.03284e-15
1.42549e-09
1.65344e-14
1.62819e-16
3.13418e-14
4.95009e-14
1.64859e-13
7.69165e-13
8.59263e-15
6.33679e-13
8.3012e-15
7.87898e-15
4.5766e-15
3.83791e-12
8.27847e-13
3.14869e-14
4.68288e-17
3.90879e-14
1.23545e-13
1.22327e-13
5.03535e-16
2.07822e-13
1.26193e-13
1.20981e-13
5.63958e-15
5.27156e-14
7.07836e-14
0.0513542
1.08727e-14
1.0001e-14
2.15997e-14
4.46198e-16
9.16651e-15
9.67542e-14
1.44722e-13
1.05038e-15
2.22172e-14
1.11071e-14
6.23886e-16
3.86015e-14
2.38318e-16
1.38346e-13
5.51138e-16
1.88738e-14
2.04961e-14
3.324e-13
1.23301e-13
1.16816e-12
8.82023e-15
5.99667e-17
6.15352e-14
7.13918e-14
3.3558e-15
9.18586e-14
2.32296e-14
5.85911e-13
7.96526e-15
8.93008e-14
1.08787e-17
5.99566e-15
1.85398e-18
4.7002e-13
5.12466e-17
4.47553e-13
4.73155e-14
6.14474e-14
2.12775e-14
1.76858e-13
2.99822e-13
3.49803e-13
1.56854e-16
3.44825e-16
4.19865e-13
4.84292e-13
1.5728e-13
1.46497e-14
2.15237e-16
3.10418e-13
3.68635e-15
9.69938e-14
1.09708e-16
1.45973e-12
1.48093e-14
1.76921e-13
4.3194e-14
5.53526e-07
3.59804e-17
5.85247e-14
9.82305e-14
3.8818e-18
2.92837e-14
3.22529e-13
1.23308e-16
4.69161e-14
3.05536e-14
3.28566e-14
2.94102e-14
6.12743e-16
2.28257e-15
7.55849e-15
9.59118e-17
1.39062e-16
3.52496e-14
1.20158e-14
1.09595e-14
3.05033e-15
1.62659e-14
1.7477e-14
2.54074e-15
1.25693e-14
2.17795e-12
6.35671e-15
2.54205e-12
1.5009e-14
6.98483e-14
2.55911e-14
3.16199e-15
3.34908e-15
8.9954e-14
1.43827e-15
3.365e-15
4.24697e-14
4.58646e-13
3.63491e-14
4.84122e-17
1.54305e-15
1.8734e-14
4.90148e-13
7.21448e-14
5.65028e-15
1.01367e-14
2.39253e-13
1.11003e-13
1.46693e-14
1.04883e-14
1.11597e-14
6.77358e-14
5.63585e-16
2.57368e-14
1.82683e-13
3.69684e-13
1.41084e-13
4.47383e-14
3.43029e-14
0.000202133
4.18666e-13
2.33314e-13
5.04788e-14
1.67164e-16
8.79077e-14
2.17522e-14
6.99528e-15
1.90642e-13
4.16786e-13
1.40628e-13
5.68992e-14
1.25156e-12
2.33579e-15
1.21614e-15
1.18471e-15
3.99327e-14
4.77679e-18
4.05837e-14
4.53067e-14
3.82921e-15
1.63113e-15
2.13658e-13
4.05354e-14
3.34784e-14
4.751e-14
1.02845e-13
1.53241e-13
1.06729e-13
5.74806e-13
1.80593e-14
2.0336e-14
1.71234e-15
5.97679e-16
7.09116e-14
8.42026e-15
8.76058e-15
2.20938e-16
1.7128e-14
8.29191e-14
1.39501e-15
2.53845e-12
2.97848e-08
2.67749e-07
1.15007e-14
1.31312e-12
2.07353e-13
9.76659e-14
9.76095e-15
3.20702e-15
8.6872e-16
3.89965e-14
8.23687e-14
8.15931e-15
3.18182e-17
8.47007e-13
1.00033e-12
2.66065e-15
1.40162e-13
5.96037e-13
8.51173e-16
6.78192e-14
9.25325e-14
1.27837e-15
6.72181e-13
1.5968e-13
5.14226e-14
8.85342e-14
6.30893e-14
3.75963e-13
1.68618e-15
4.57497e-14
1.03348e-13
2.40714e-16
4.0937e-13
1.36927e-14
1.62309e-12
3.65713e-17
5.42266e-13
7.3581e-14
2.23211e-14
2.01845e-13
6.22694e-14
2.06032e-15
4.83255e-14
1.78405e-15
1.79693e-13
2.18053e-10
2.11335e-14
2.07361e-16
1.12051e-14
2.20422e-14
6.70811e-15
9.54907e-08
1.75265e-12
5.01042e-15
2.11113e-14
2.76999e-13
2.1929e-14
3.26751e-16
8.50575e-17
6.83937e-16
3.28006e-15
8.54578e-14
2.30695e-13
6.7198e-14
1.24318e-13
3.25292e-13
6.21466e-09
4.15163e-12
2.01377e-14
4.29913e-13
2.32954e-14
0.0149967
6.79224e-13
6.99142e-15
1.19601e-13
5.92521e-14
4.40147e-14
7.10262e-15
1.21253e-14
3.78964e-13
3.15267e-13
4.48523e-14
1.99933e-13
1.50787e-19
9.38811e-14
2.54033e-13
5.01775e-13
3.40738e-14
1.17062e-13
4.78216e-13
8.51286e-13
2.36204e-12
1.83759e-16
3.23084e-14
2.00255e-12
1.23147e-13
3.21242e-12
2.85268e-14
2.02311e-14
8.23697e-15
4.29183e-15
1.24826e-13
1.11507e-14
3.53491e-14
2.63003e-12
6.14523e-17
2.67336e-14
8.87699e-14
1.7248e-17
3.38026e-13
6.0467e-15
7.58322e-13
6.28498e-14
6.28337e-14
2.3912e-13
8.44199e-17
5.16159e-14
2.00727e-14
1.71017e-15
1.65519e-13
2.38549e-13
2.66976e-18
6.44656e-17
6.26655e-13
4.31895e-15
4.05616e-16
1.55538e-12
8.08831e-13
1.74323e-14
3.88881e-13
6.04938e-10
2.05381e-13
4.62956e-15
1.0631e-14
2.59566e-15
3.15181e-13
1.64704e-14
1.4026e-14
2.06233e-17
7.75076e-15
3.55172e-14
6.23146e-14
1.97523e-14
2.83059e-13
1.40917e-11
8.11735e-15
4.04531e-14
2.05264e-14
7.52502e-15
1.19119e-13
2.17814e-14
5.01877e-15
4.44376e-13
1.21041e-14
1.59648e-16
8.27063e-15
8.96491e-14
3.07552e-13
2.20069e-14
4.19753e-14
1.22723e-15
4.46716e-14
2.77648e-14
1.73436e-16
3.91422e-14
1.78246e-14
1.10851e-15
4.24348e-16
1.25502e-14
3.6984e-14
2.03855e-14
3.05633e-15
1.92637e-13
8.23211e-13
4.79691e-13
8.0853e-14
2.44987e-16
6.31504e-14
3.74156e-17
9.39387e-14
1.79614e-13
3.68457e-12
2.41809e-14
1.50869e-13
9.01204e-15
1.41684e-13
1.86046e-16
4.9095e-13
3.87575e-14
8.29074e-16
1.15088e-13
6.501e-14
6.60471e-17
2.05153e-17
2.38578e-13
2.35999e-13
3.71094e-14
0.0198422
6.4165e-14
1.32797e-13
3.44112e-13
4.2439e-17
3.61981e-16
5.95022e-14
9.84796e-14
6.27835e-14
5.41529e-13
1.67137e-14
9.07527e-14
7.54083e-17
1.91519e-14
0.0164169
5.19463e-14
1.02133e-14
3.33781e-10
0.0250871
5.55623e-14
7.17005e-15
4.33553e-13
3.72975e-15
6.95689e-15
1.04299e-14
3.6264e-17
6.57622e-14
5.12658e-14
2.85444e-14
9.28322e-15
1.62186e-13
1.57824e-14
9.71981e-17
1.30505e-13
0.0572616
1.81537e-13
5.07939e-15
5.50609e-16
9.95508e-13
3.97835e-13
1.10365e-12
4.11326e-15
3.878e-14
6.13636e-14
2.33214e-13
1.3972e-13
3.08527e-13
1.26922e-16
4.08058e-16
9.05129e-14
3.4861e-14
2.85124e-14
6.58982e-13
6.93578e-13
2.88549e-15
6.08378e-15
7.70101e-13
2.05829e-13
5.93104e-14
8.0529e-14
2.78864e-13
4.27627e-13
1.39148e-12
2.78249e-15
4.50257e-15
9.24231e-14
4.41339e-09
7.12083e-13
9.50413e-18
4.61066e-13
6.49606e-17
6.02729e-16
3.9317e-05
0.000532129
1.5477e-14
2.19558e-17
6.47452e-15
1.18808e-13
1.37786e-14
1.34472e-17
4.98769e-13
1.33387e-13
4.37483e-17
6.48078e-13
5.65126e-14
1.2907e-13
8.65677e-14
2.66513e-15
2.79411e-16
5.49135e-14
1.41585e-13
4.89031e-16
1.28054e-14
8.49914e-13
8.80813e-14
1.45678e-14
6.11647e-18
2.05654e-13
2.50066e-16
3.42017e-13
4.54016e-16
5.15509e-13
8.74071e-15
2.25683e-14
1.88205e-14
1.68401e-14
7.02414e-13
1.83615e-13
1.93173e-15
9.69672e-15
4.81904e-16
9.17184e-14
1.28541e-14
1.39762e-14
2.30023e-14
6.15342e-14
3.96225e-14
5.04282e-14
0.00381469
1.58159e-12
5.95476e-14
7.47787e-14
0.00205503
3.48752e-16
4.13234e-13
1.79336e-14
9.60375e-15
1.92012e-15
6.37914e-14
1.1276e-14
1.63944e-17
1.48758e-16
6.98828e-16
9.56039e-13
2.0304e-14
2.47802e-10
3.55226e-15
3.38921e-14
8.52611e-16
8.0379e-05
0.00228885
8.68359e-14
9.62024e-14
9.62726e-17
7.37316e-15
1.17273e-16
1.35572e-14
5.03893e-13
7.16205e-17
6.01525e-14
3.07722e-14
3.80894e-15
8.94935e-14
1.02977e-14
7.2123e-14
9.08978e-14
2.86811e-14
1.25662e-14
1.51869e-14
8.54825e-15
9.83537e-17
2.12554e-16
2.95485e-14
1.22367e-13
8.08998e-14
3.23903e-14
1.36778e-13
1.40133e-14
3.76069e-14
1.07291e-13
3.21359e-15
1.55319e-13
1.19833e-13
5.90635e-14
2.64232e-15
3.87578e-15
2.70779e-14
1.55803e-18
9.91262e-14
4.51707e-15
7.72036e-14
8.32023e-15
1.61562e-12
2.54569e-13
1.51995e-14
7.05942e-14
3.19236e-14
9.95634e-15
1.91574e-13
6.98532e-14
2.14184e-13
7.26397e-15
2.12179e-15
1.20247e-13
2.78904e-13
5.20652e-15
5.87632e-13
7.82813e-15
7.50291e-16
2.34385e-14
4.64473e-14
7.60216e-14
1.8265e-12
5.61892e-11
3.56226e-09
1.36629e-14
2.08345e-15
3.25894e-14
1.97131e-15
2.88353e-15
4.66516e-14
3.98618e-15
5.37447e-14
1.10687e-15
4.89643e-15
2.11282e-14
2.47679e-15
6.03409e-14
1.53417e-16
4.15777e-14
1.37477e-15
2.55244e-17
8.69624e-14
8.18092e-15
1.75132e-15
0.0629081
2.10425e-15
3.28036e-15
4.19347e-18
2.51612e-16
3.97339e-13
3.75828e-15
1.15638e-12
2.74398e-12
5.90001e-15
0.0692361
1.32405e-14
5.02395e-14
3.27833e-13
1.77486e-18
2.93255e-14
1.19727e-16
6.96613e-11
5.62065e-13
4.77713e-17
1.76687e-13
3.39146e-13
2.16475e-13
2.50636e-13
7.5512e-13
3.46438e-13
4.76581e-15
1.08756e-15
6.95002e-16
1.64517e-14
2.44524e-15
7.0807e-13
4.41125e-15
7.14661e-17
1.3481e-15
4.33304e-14
1.31358e-13
1.70667e-15
6.34569e-14
4.66988e-13
1.06493e-14
1.267e-13
2.39871e-13
8.84557e-14
2.64352e-13
6.16694e-13
2.1746e-15
1.83569e-16
1.55683e-14
6.0251e-13
0.0173313
1.53004e-14
1.14842e-12
1.07079e-14
6.15771e-15
2.4429e-10
1.27836e-15
1.46721e-13
1.52225e-10
2.52558e-15
3.87271e-13
9.05341e-15
1.46952e-13
3.6445e-15
4.96046e-15
1.38955e-16
1.08872e-16
6.66e-17
2.1892e-15
2.49364e-15
1.77399e-13
1.64932e-13
8.19543e-14
4.61837e-15
2.62889e-14
0.0117422
1.67558e-14
7.7475e-15
3.0729e-15
6.34112e-15
8.20072e-15
9.31934e-14
6.78697e-14
4.43563e-15
1.35316e-16
1.47665e-13
2.59666e-15
1.71437e-13
4.92793e-17
6.74665e-16
7.37525e-14
1.5017e-14
2.54206e-13
1.66771e-16
4.52062e-14
2.4914e-13
1.48543e-13
2.63155e-09
6.26095e-13
1.38408e-13
2.54308e-13
4.85201e-15
1.90977e-13
1.81394e-13
3.86333e-15
3.17028e-07
0.0202315
8.56608e-14
2.70846e-14
4.99664e-14
1.68207e-14
4.89772e-14
7.59157e-14
6.37376e-09
2.82585e-15
2.65787e-13
2.86457e-09
5.93835e-16
5.82839e-14
3.44482e-18
6.33708e-14
9.34116e-16
0.000117074
6.55291e-14
1.1839e-16
0.00128578
1.89779e-14
9.00753e-13
6.93124e-15
1.0709e-13
0.0332935
1.56039e-14
1.19155e-13
0.0334408
2.53605e-17
6.25134e-13
1.62683e-13
6.46806e-13
2.37027e-08
2.07371e-13
2.58624e-13
3.49256e-13
1.14518e-12
2.01357e-14
1.95323e-18
2.21324e-12
3.71396e-10
1.35455e-15
4.83806e-16
0.000986141
0.000335025
2.75737e-12
1.4816e-13
2.81144e-15
4.88219e-13
3.50619e-14
1.8694e-07
9.45622e-14
2.1297e-13
8.64788e-17
2.06509e-08
3.30258e-16
7.67637e-14
1.94666e-15
2.08196e-13
8.73382e-16
2.65862e-13
4.16331e-13
2.07077e-15
9.18887e-14
1.7826e-16
2.17593e-17
1.95288e-13
2.42832e-14
2.24112e-13
3.10568e-15
1.45158e-14
1.09155e-13
3.45666e-13
1.30313e-13
3.22755e-14
6.33928e-14
3.50728e-15
0.0216282
3.03508e-14
1.16464e-14
9.40731e-16
3.06602e-14
1.63767e-07
2.2569e-13
2.52063e-15
0.0249361
8.62273e-15
5.35448e-14
1.2775e-13
1.47208e-13
9.87145e-14
1.56962e-13
1.8669e-15
1.36314e-14
2.37971e-14
2.71965e-14
1.79981e-13
2.33483e-13
3.97633e-15
3.16135e-13
1.41774e-13
6.11048e-14
6.47814e-14
9.67844e-15
7.03846e-14
3.09678e-15
1.20466e-14
2.71533e-10
1.07607e-13
1.48684e-12
9.90461e-15
3.77878e-15
1.46969e-12
4.70771e-14
1.9131e-07
3.16227e-14
1.45714e-15
4.8847e-16
2.06635e-13
7.83089e-17
6.28682e-13
6.44351e-13
9.07548e-15
3.11155e-14
1.44244e-14
1.19112e-12
2.97138e-15
3.17924e-13
3.02773e-15
1.46577e-15
1.38218e-16
3.93865e-14
2.38031e-13
2.86426e-15
3.57384e-13
4.85029e-14
7.0888e-15
2.5782e-14
2.72255e-13
2.28001e-13
1.22221e-14
1.5481e-15
6.07004e-14
1.36125e-14
2.18878e-13
6.65768e-16
4.03846e-16
8.34726e-15
2.08259e-16
3.45517e-13
6.93501e-15
2.12342e-14
8.39294e-15
1.91637e-14
3.42321e-15
5.37293e-15
8.57135e-14
1.94554e-15
5.15541e-14
2.14067e-15
2.61482e-14
1.96063e-14
2.40011e-15
3.03291e-14
5.17512e-13
1.99971e-15
3.62403e-13
7.74235e-14
1.50039e-13
3.12654e-16
1.25807e-13
2.13393e-16
7.36392e-15
4.45486e-15
5.21261e-15
2.41414e-15
1.4462e-12
2.16778e-13
1.03609e-12
2.4277e-14
1.8228e-14
2.81387e-07
3.8437e-12
2.77006e-14
3.23322e-13
1.03568e-14
1.24552e-13
6.84377e-14
4.79555e-14
4.89187e-15
5.45885e-14
2.13269e-13
3.76399e-14
2.40153e-13
2.7852e-14
3.52148e-15
1.26856e-15
1.29471e-13
3.0506e-14
6.81519e-15
9.78621e-15
5.72432e-14
7.29295e-14
1.20706e-15
2.09251e-13
2.62527e-14
1.20553e-13
4.24849e-15
3.93695e-14
9.65062e-14
6.77396e-14
1.68894e-14
9.76841e-14
1.48301e-14
1.70744e-14
1.90878e-14
5.28393e-15
1.51513e-14
2.20191e-13
7.363e-13
7.38238e-14
5.77928e-14
1.70107e-13
1.46891e-14
2.03142e-14
2.11674e-12
6.1332e-14
9.54854e-13
9.30808e-15
2.37911e-14
9.28663e-14
1.0896e-14
5.90968e-13
1.53581e-14
1.27708e-13
1.84874e-13
2.96317e-14
4.80423e-14
5.15879e-15
3.78367e-13
4.56745e-15
3.18693e-14
3.17928e-13
9.06033e-15
2.56544e-14
2.71531e-13
1.8016e-12
3.3059e-15
1.45994e-13
7.4714e-15
1.70002e-12
6.35812e-15
1.30706e-14
3.7915e-16
6.04775e-13
3.65978e-14
1.88197e-13
4.65702e-13
1.25368e-12
6.41823e-13
3.22522e-16
4.85222e-15
2.59794e-15
3.25412e-15
4.77032e-14
3.83148e-14
5.18868e-13
6.05005e-15
1.753e-12
1.16415e-13
8.91442e-14
4.07009e-15
1.27295e-14
4.99618e-13
9.69267e-14
3.13703e-14
6.92274e-15
2.9235e-13
2.17979e-15
3.49118e-14
1.64724e-14
5.79354e-14
6.32346e-13
1.3892e-13
1.86146e-15
7.43327e-17
1.52319e-12
1.51699e-14
3.86967e-14
1.59635e-15
4.23434e-14
1.12448e-14
3.65283e-14
6.35674e-14
1.22471e-14
1.02534e-14
8.61213e-15
7.41069e-14
1.82837e-15
1.14735e-15
1.44698e-13
2.91624e-16
1.57313e-12
1.56816e-13
1.99451e-13
2.10866e-14
5.05405e-13
2.18352e-18
1.94288e-13
1.76431e-15
1.30682e-13
3.60756e-14
2.14929e-13
1.19537e-15
2.66315e-13
1.8361e-15
9.61632e-15
2.29378e-14
1.54578e-12
2.12895e-15
5.79146e-14
7.52282e-16
6.43117e-14
8.18861e-16
3.38202e-16
1.51897e-12
8.21721e-15
9.95121e-14
1.71018e-15
1.00254e-17
8.98115e-16
1.92757e-13
1.6246e-13
3.71413e-14
6.00115e-16
3.56712e-16
4.48334e-14
1.33505e-15
3.64537e-13
9.5268e-16
5.42762e-14
0.00635229
2.04186e-13
1.24056e-12
1.04964e-13
1.64591e-14
9.48668e-14
1.01798e-14
1.44453e-16
2.44219e-14
3.85306e-14
1.25599e-14
7.3614e-15
3.76265e-13
3.76335e-19
5.60092e-14
5.86254e-15
1.10424e-16
2.57934e-13
2.27827e-14
1.0493e-14
1.27748e-13
4.45093e-15
2.19737e-16
5.95628e-16
2.94234e-15
1.16709e-15
3.30484e-16
2.82299e-14
2.08892e-14
1.20784e-14
7.43617e-15
1.10724e-16
1.90388e-14
1.78526e-15
1.51861e-13
6.30868e-15
1.53828e-14
1.12773e-15
6.93297e-14
2.35389e-08
2.2887e-14
4.74756e-14
3.15856e-15
2.16496e-14
7.90526e-14
5.57564e-13
3.82531e-13
3.4737e-13
1.61621e-12
3.56733e-14
2.53611e-16
8.18206e-15
1.14437e-13
1.62902e-14
9.39644e-15
1.1307e-14
1.20019e-16
6.30885e-15
7.23476e-05
6.91214e-15
1.34623e-15
4.69161e-13
3.42428e-15
8.10429e-14
7.66298e-15
1.50398e-14
1.57448e-12
1.78888e-14
9.39153e-15
4.87867e-15
3.92905e-16
4.18231e-14
3.77454e-14
2.44661e-15
3.92178e-15
6.40397e-14
1.85067e-13
3.16312e-14
1.82442e-14
1.2879e-13
9.83724e-13
2.14511e-13
4.08921e-14
1.45891e-14
2.19403e-13
8.4591e-14
4.24673e-14
1.42192e-13
1.41015e-15
1.31344e-12
2.12595e-13
6.6923e-13
3.27331e-14
5.88544e-13
1.0932e-14
6.04515e-15
2.76856e-15
3.82213e-13
2.54378e-13
1.28836e-14
2.07102e-15
4.07928e-14
1.95766e-14
1.2582e-14
3.08888e-13
7.46142e-15
1.4583e-12
9.60326e-14
1.00928e-14
1.67052e-14
1.48418e-14
3.46219e-14
4.37936e-14
5.46921e-09
1.44443e-13
3.88044e-13
1.83016e-13
6.68058e-13
2.32428e-15
2.48077e-13
2.29857e-14
9.14177e-15
6.73075e-15
5.39614e-14
2.64384e-14
3.69511e-13
1.82634e-14
3.78831e-14
1.07598e-14
2.69286e-14
4.95987e-13
8.39832e-15
2.08751e-14
9.65526e-12
7.21068e-15
6.28989e-14
1.25692e-12
4.55636e-14
2.39208e-15
4.47157e-14
5.07655e-14
2.9715e-13
2.25831e-14
1.00506e-14
2.4275e-14
3.60512e-13
6.86449e-14
6.33294e-15
2.43063e-15
1.10578e-13
1.13041e-17
1.69224e-15
9.99774e-14
7.15387e-13
1.23861e-15
1.90525e-14
1.34175e-12
2.72255e-14
1.91561e-13
9.12847e-15
1.18052e-13
6.28459e-13
1.91967e-12
1.10895e-14
1.57904e-13
3.13359e-13
1.72725e-14
8.49355e-13
5.24108e-15
1.13755e-13
9.35381e-16
8.51468e-16
4.71153e-13
3.47004e-15
1.27542e-13
1.03145e-12
8.23473e-15
2.18129e-15
2.96189e-14
4.29486e-13
1.42699e-15
9.21124e-14
3.83255e-13
4.58572e-15
5.37198e-14
4.33085e-15
7.18767e-15
2.52383e-13
8.36171e-13
2.79789e-13
5.56267e-13
1.2018e-13
1.05995e-13
1.42883e-14
6.88484e-13
2.79178e-14
2.30355e-12
8.41009e-13
1.99674e-15
1.04733e-13
3.18657e-15
5.26695e-13
9.53152e-15
2.62613e-15
1.42305e-14
5.02373e-13
6.09396e-14
4.90561e-14
1.83443e-13
1.85714e-13
4.8073e-16
9.13233e-13
3.25602e-14
1.54049e-15
5.78935e-16
1.85452e-13
2.81156e-14
1.69268e-13
9.78626e-16
1.30321e-15
1.77448e-13
5.95311e-14
1.55444e-15
3.82619e-14
2.71813e-13
2.55112e-13
2.24006e-14
6.92693e-17
6.67488e-14
9.50023e-14
5.30293e-14
9.79486e-14
1.21209e-12
1.18817e-13
7.22391e-13
1.51596e-17
1.23677e-13
2.53238e-14
5.09412e-14
2.43464e-13
7.20914e-14
1.99039e-14
8.71628e-16
2.3204e-14
2.00946e-13
3.31049e-14
2.00914e-13
6.36331e-14
0.0119411
6.29346e-13
7.04516e-15
8.92391e-13
6.22709e-13
1.81199e-14
7.77962e-15
5.68783e-14
4.69526e-14
1.26118e-17
1.69849e-15
5.22166e-14
2.28942e-14
4.09291e-14
5.40464e-15
3.89855e-13
4.39443e-14
3.02717e-13
4.96247e-15
3.61066e-19
1.64814e-17
3.44666e-15
1.7917e-14
1.01479e-13
4.02124e-14
1.2083e-13
3.76266e-16
1.17848e-13
4.69225e-14
2.25768e-13
1.04614e-18
8.75747e-14
1.18479e-14
5.00656e-14
1.26298e-14
1.11953e-14
1.78348e-15
6.92031e-13
5.58787e-14
6.49699e-15
1.17951e-14
1.49645e-14
9.06004e-15
6.17432e-13
4.69736e-13
2.21123e-14
6.08314e-16
1.5032e-13
3.91194e-16
2.91789e-15
2.41511e-15
4.80429e-16
5.97763e-13
2.40946e-15
1.53149e-14
2.54887e-15
6.79796e-14
7.75994e-15
9.92615e-14
7.94818e-15
4.32249e-14
7.81996e-14
4.86365e-15
8.88633e-16
1.12326e-14
2.37941e-14
1.59612e-13
4.55815e-13
1.90007e-14
1.39577e-14
8.51664e-16
1.30731e-14
1.59356e-13
8.96268e-15
8.99608e-14
2.17984e-13
1.49875e-14
4.33685e-15
6.22026e-13
2.99074e-14
7.6043e-16
6.25041e-15
1.01089e-14
1.97578e-13
7.01e-13
2.76064e-13
1.6031e-13
6.74543e-15
2.08035e-12
1.95644e-13
5.63642e-14
6.65413e-14
4.99374e-13
5.55981e-14
2.73233e-13
1.14685e-13
6.00309e-15
4.07604e-14
4.21625e-13
4.61181e-16
1.30328e-13
1.11801e-14
4.73561e-15
7.30069e-14
6.90244e-14
3.07948e-14
9.31812e-16
6.56882e-14
6.03328e-15
7.57448e-14
1.97869e-14
1.7878e-13
6.65867e-13
2.6638e-14
3.60476e-15
7.82118e-14
4.8417e-15
3.48655e-13
4.78999e-14
2.14497e-15
1.85329e-14
1.80586e-14
1.80997e-13
2.52105e-12
1.2584e-13
2.89684e-13
2.92844e-13
7.66325e-14
1.03957e-13
5.07235e-13
3.56697e-14
4.25381e-13
9.97433e-13
1.14371e-13
9.27246e-13
9.96573e-15
6.93002e-13
7.41404e-14
1.36789e-13
1.71576e-14
9.46108e-13
8.44807e-14
3.38173e-13
1.7696e-13
1.91878e-13
1.79169e-14
0.000134318
1.75045e-16
2.07868e-14
1.83411e-14
3.52313e-15
3.19483e-13
1.18064e-12
3.73366e-14
8.27647e-14
1.97842e-14
1.43262e-13
6.54253e-14
5.25529e-14
8.85256e-13
8.71194e-14
4.91021e-15
2.34082e-13
6.37389e-14
1.132e-13
6.42136e-13
1.85993e-14
3.92904e-15
2.84865e-13
1.57133e-13
1.69741e-13
2.22717e-14
3.67914e-14
3.66301e-10
6.02982e-13
6.03538e-16
1.8718e-13
2.79434e-13
1.83513e-14
5.1683e-15
6.98531e-14
5.61722e-13
2.63154e-14
1.38245e-13
1.38913e-14
1.15694e-13
1.80613e-13
3.80543e-17
5.07812e-17
6.8288e-15
5.88303e-13
1.60506e-15
1.54353e-15
1.04019e-05
1.31581e-13
2.61385e-14
1.04636e-14
8.23999e-18
9.40643e-16
3.39785e-13
3.64135e-13
8.20449e-14
3.97649e-16
6.29084e-17
1.11127e-12
9.64012e-16
1.58045e-14
2.513e-13
1.11016e-13
2.7888e-14
1.87423e-13
6.78899e-15
4.26929e-14
7.0498e-15
3.00369e-14
1.42566e-17
9.69763e-16
1.6844e-17
5.39773e-10
3.55021e-11
7.85871e-14
5.26357e-15
2.87888e-13
2.07227e-13
3.84845e-16
3.30043e-16
7.25987e-13
2.73259e-13
4.31901e-14
1.39581e-14
0.00436707
2.64668e-13
1.73795e-13
1.98287e-13
8.56285e-13
2.71545e-13
1.57116e-15
5.69184e-13
7.77848e-13
3.18335e-13
1.92305e-15
1.13049e-13
1.43298e-12
2.31863e-17
5.32115e-13
1.82444e-13
6.13442e-13
1.61727e-14
3.10985e-14
7.98435e-14
2.51602e-14
1.02537e-13
5.09398e-14
1.03669e-12
9.11511e-13
7.82899e-13
1.66012e-15
7.50341e-13
2.18358e-18
7.70048e-14
8.70498e-14
3.06936e-14
3.41461e-14
1.59327e-14
2.74609e-14
8.006e-16
0.0439578
1.65421e-14
5.08505e-15
3.02029e-12
5.25529e-14
4.58194e-14
5.88322e-16
5.71005e-15
3.15318e-14
4.70425e-14
4.85516e-14
1.10696e-13
3.72362e-15
3.6297e-14
2.20373e-14
3.9979e-15
1.12838e-14
3.75774e-15
9.99653e-19
2.7989e-15
2.82176e-15
9.44666e-15
2.82031e-15
2.14392e-14
4.7073e-14
3.25414e-13
5.79618e-14
3.32723e-15
5.5858e-14
2.10191e-15
4.91102e-14
7.95067e-14
9.47337e-15
9.41319e-14
1.75228e-13
2.24341e-14
1.33954e-14
2.09941e-14
2.5682e-14
3.52008e-14
2.76817e-14
5.46368e-14
1.36738e-13
3.24158e-13
1.20231e-13
2.165e-13
2.67082e-13
1.371e-13
1.85165e-13
1.02385e-13
1.07296e-13
1.25473e-13
7.93537e-14
1.92296e-14
1.07365e-14
1.92836e-18
8.23326e-14
4.39296e-14
1.14129e-13
6.78562e-16
5.03786e-14
9.44851e-14
6.54203e-15
8.47154e-14
2.42331e-15
1.05255e-13
3.44669e-15
1.08044e-13
4.85022e-14
1.34567e-13
6.41865e-14
9.84963e-14
3.00423e-13
6.43272e-17
7.51229e-15
3.23455e-13
2.70607e-15
4.85376e-13
2.64621e-14
1.00765e-14
1.31873e-13
1.59154e-13
1.52967e-14
2.46381e-14
3.85762e-14
2.74447e-15
6.69816e-14
1.89124e-13