/*--------------------------------*- C++ -*----------------------------------*\
  =========                 |
  \\      /  F ield         | OpenFOAM: The Open Source CFD Toolbox
   \\    /   O peration     | Website:  https://openfoam.org
    \\  /    A nd           | Version:  10
     \\/     M anipulation  |
\*---------------------------------------------------------------------------*/
FoamFile
{
    format      ascii;
    class       volVectorField;
    location    "8";
    object      U;
}
// * * * * * * * * * * * * * * * * * * * * * * * * * * * * * * * * * * * * * //

dimensions      [0 1 -1 0 0 0 0];

internalField   nonuniform List<vector> 
59698
(
(0.584787 0.00608402 -0.0017452)
(0.563681 -0.000977706 -0.000709422)
(0.565702 -0.000327985 0.00173255)
(0.579712 -0.00309555 -0.0015637)
(0.563978 0.00192938 -0.00376348)
(0.197727 0.198048 -0.00635089)
(0.564462 4.59098e-05 0.000295312)
(0.564722 0.00118821 -0.000552783)
(0.199962 -0.199586 -0.000441184)
(0.201199 -0.200802 3.86599e-06)
(0.200123 -0.198575 -0.000705845)
(0.566502 -0.000201388 -0.000392856)
(0.199796 0.200502 -0.000570746)
(0.561131 -0.000664815 -0.00050798)
(0.562951 0.00217944 -0.00334476)
(0.203948 -0.197118 0.00176799)
(0.565116 0.000114843 0.000203983)
(0.566237 -0.0011703 0.000249142)
(0.56688 -0.000379116 0.000371075)
(0.564312 -0.000512281 2.85553e-05)
(0.142693 -0.0997623 -0.0255042)
(0.538853 -0.000825314 -0.00404088)
(0.265956 -0.173351 -0.00672548)
(0.198824 -0.199921 -0.00136793)
(0.569075 -0.000911681 0.000682711)
(0.566406 -0.00106483 0.000340554)
(0.566157 -0.000472066 -0.000420577)
(0.563603 -6.19684e-05 -0.000369787)
(0.569206 0.000488718 0.000436541)
(0.567954 0.000167172 4.80057e-05)
(0.561337 -0.000456705 -0.00115387)
(0.198552 -0.198582 -0.000177736)
(0.201152 -0.197956 0.00227365)
(0.561876 0.000763224 -0.000734729)
(0.548944 0.0114769 -0.00744751)
(0.566524 -0.00079677 -0.000411829)
(0.274333 0.0653272 -0.0380448)
(0.538615 0.00081942 0.000465454)
(0.5627 0.000134052 0.000407983)
(0.568243 0.00150687 -0.00297183)
(0.564114 0.000125659 8.43979e-05)
(0.194901 0.197809 -0.0017379)
(0.563939 0.000467664 -0.000468269)
(0.563926 0.000341909 9.00078e-05)
(0.196726 0.199572 -0.000253873)
(0.561165 0.00346096 0.00394851)
(0.56657 -0.000669396 0.000326255)
(0.562144 -0.0003337 0.0016948)
(0.5623 0.000308765 0.00101677)
(0.565552 -0.00060106 1.49228e-05)
(0.567272 0.000159816 -0.000241448)
(0.566512 -0.000662999 0.000304503)
(0.566045 -4.5167e-05 -0.000553241)
(0.56074 -7.77092e-05 0.000248899)
(0.571583 0.00154188 0.000878675)
(0.56677 -0.000369533 -2.23235e-05)
(0.562713 -0.000910833 0.000494486)
(0.523695 -0.0019835 -0.00145317)
(0.564499 -0.0007849 -0.000334481)
(0.267649 0.120371 -0.0190683)
(0.560165 0.00470996 -0.00259818)
(0.564483 0.00135672 0.000342005)
(0.577811 0.0146291 0.00647418)
(0.566839 -0.000427409 0.000461381)
(0.562877 -0.00026426 0.00129955)
(0.561981 0.000327545 0.00188027)
(0.199522 -0.199926 -2.0779e-05)
(0.56666 -0.00039968 -0.000528591)
(0.56653 -0.000337421 -0.00052327)
(0.199504 -0.199241 -7.32567e-05)
(0.209016 0.181959 -0.00781277)
(0.564787 -0.000614931 -0.000270029)
(0.166258 0.118652 -0.0336078)
(0.593878 -0.0104521 0.0197898)
(0.202915 0.203542 -0.00037111)
(0.589998 -0.0245047 0.0204648)
(0.561366 0.000284717 0.000794467)
(0.563592 0.000610687 -0.00222418)
(0.566578 0.000879173 -0.000695467)
(0.570847 0.000585273 3.25135e-05)
(0.551785 -0.00221463 -0.00102835)
(0.566976 0.00020237 -0.000162975)
(0.201256 -0.200767 -6.90539e-05)
(0.565356 -0.000630885 0.000367508)
(0.399949 -0.102939 0.0148539)
(0.563184 0.000189904 -0.000278128)
(0.563511 -0.00111067 0.00146207)
(0.558696 0.000522116 0.00675736)
(0.559325 -7.36836e-06 2.14118e-05)
(0.561314 -0.000173336 0.00135876)
(0.199554 -0.199166 -0.00015247)
(0.561723 0.000822364 0.000537536)
(0.558424 -0.00140678 0.000801724)
(0.565574 -0.000227877 0.000132827)
(0.561395 0.00125944 0.000766963)
(0.562997 -0.00340084 0.00118645)
(0.556355 -0.000489711 0.000260884)
(0.562899 0.000924238 -8.08783e-06)
(0.556908 -0.000604016 0.000268207)
(0.199671 0.200064 1.62364e-06)
(0.553902 0.000267511 -0.000241166)
(0.567216 0.00521616 0.00628941)
(0.562624 -0.000888293 -0.00106089)
(0.563221 -0.00149001 -0.00446889)
(0.56686 -0.000484571 0.000719308)
(0.198835 0.198576 0.000130431)
(0.565853 -0.000977115 0.000413994)
(0.566771 -0.000263755 -0.000468286)
(0.200765 -0.200903 -6.08031e-05)
(0.199799 0.199694 -0.000361177)
(0.566174 -0.000724883 -0.000437305)
(0.571551 -0.0103616 -0.000321305)
(0.559543 0.000157232 0.000586474)
(0.200897 0.198779 -0.000338191)
(0.561932 4.90541e-05 0.000149921)
(0.566751 5.37678e-05 0.000145218)
(0.567709 0.00138456 -0.00137504)
(0.565771 0.00306069 0.000891139)
(0.564911 -0.000745837 0.00195759)
(0.200919 -0.200436 0.000445316)
(0.565471 0.000125163 -0.000135568)
(0.559023 -0.00639787 -0.00373693)
(0.56415 -0.00471939 0.00548392)
(0.564546 -1.45476e-05 0.000179623)
(0.564526 0.000153265 0.000185254)
(0.565647 -0.000228727 -6.27133e-05)
(0.566127 -0.000179563 -9.16521e-05)
(0.199565 -0.199513 0.000484041)
(0.562408 -0.000319775 -0.000222037)
(0.56652 0.000274341 -0.00204927)
(0.563778 4.48457e-05 0.000218659)
(0.566319 -0.000274433 -0.00110882)
(0.201171 -0.200211 -0.000172783)
(0.579303 0.00714865 0.000560987)
(0.566947 2.34833e-05 -0.000143512)
(0.567397 -4.77313e-05 5.34943e-05)
(0.568856 0.00379258 -0.00118199)
(0.201048 -0.200688 0.000296961)
(0.56674 -0.000235311 -0.000158165)
(0.568028 -0.000105583 -0.000261958)
(0.56559 -0.000300769 0.000820053)
(0.562511 0.00326041 -0.00122954)
(0.565518 -0.000790826 -0.000361479)
(0.565499 -0.000465978 -0.000337806)
(0.565497 0.00225408 -0.00058017)
(0.56703 -0.000380968 5.20349e-05)
(0.563426 -0.00388029 0.000235926)
(0.566343 -0.00373631 -0.000658941)
(0.563306 0.000658112 0.000582709)
(0.551109 0.000383628 -0.00027128)
(0.408437 0.144262 0.0732473)
(0.199986 -0.199611 0.000215975)
(0.564349 -6.63897e-05 0.000308538)
(0.5581 -0.00212473 -0.00370957)
(0.563765 -0.000116165 -1.67842e-06)
(0.562174 0.000170648 -0.000533182)
(0.566449 -0.000955573 -0.00033527)
(0.559672 -0.000956804 0.00284354)
(0.565157 0.000110564 -0.000287355)
(0.199736 0.199542 -0.000111682)
(0.564706 0.000223166 4.93619e-05)
(0.563846 -0.000330349 0.000194456)
(0.566517 -0.000449323 -0.000207205)
(0.566757 0.00198898 -0.000682903)
(0.564217 -0.00100477 0.000151019)
(0.564373 -0.000635365 -9.70205e-05)
(0.566498 -0.000109187 -0.000495164)
(0.412142 0.0868131 0.006169)
(0.564972 -0.00114179 -0.000558361)
(0.565855 -0.00025049 -0.000514548)
(0.561263 0.00249831 -0.00313011)
(0.210641 0.173444 0.000823417)
(0.555257 0.00212331 -0.00282889)
(0.554971 0.00204718 -0.00290951)
(0.578455 0.00126105 -0.0055378)
(0.563857 0.00023756 0.000380208)
(0.199575 -0.19891 0.000795393)
(0.538239 0.00511383 0.00292553)
(0.199231 -0.197936 -0.00562886)
(0.561317 0.000958258 -0.000748398)
(0.511276 -0.00180841 0.00552421)
(0.550913 0.000140717 -0.000604279)
(0.560932 0.00102018 -0.000940016)
(0.565766 -7.08283e-05 -0.000353625)
(0.564261 0.000731861 -0.00118195)
(0.546006 9.26752e-05 3.29698e-05)
(0.548522 0.000547917 -0.000493796)
(0.560275 0.00369999 0.00126903)
(0.566012 -2.20692e-05 0.00023171)
(0.564623 0.00157267 0.00084521)
(0.562246 0.000108284 0.000399517)
(0.561979 -0.000138321 0.000379975)
(0.563617 0.00131733 0.00066817)
(0.562875 0.000790443 0.000110464)
(0.563214 0.000409327 0.000165292)
(0.558911 0.00302948 0.00055281)
(0.576545 0.00586839 -0.0135353)
(0.575831 0.00440058 -0.00226289)
(0.151567 -0.143659 -0.0203283)
(0.564395 -0.000374305 0.000124994)
(0.202832 0.205697 0.00229307)
(0.545361 0.000592614 0.00115927)
(0.564895 0.000200206 0.000177701)
(0.566262 -0.000465259 -0.00028658)
(0.562558 0.00169234 0.000922222)
(0.565929 0.000245452 0.000232486)
(0.56468 0.000160981 -0.000314348)
(0.558708 -0.00195136 0.00144551)
(0.553521 0.0111739 0.00024513)
(0.564191 -0.000364837 0.000636306)
(0.56553 0.000315899 0.000172319)
(0.565261 0.000140019 0.00037051)
(0.562223 0.000326601 0.00244016)
(0.199003 -0.197044 -0.00110257)
(0.565812 -5.37617e-05 -0.000117232)
(0.56097 0.000739647 -0.000397791)
(0.566222 -0.000962735 -3.39511e-06)
(0.561313 -0.000642384 -0.00192324)
(0.565242 -0.000676424 -9.69091e-05)
(0.56458 0.000478644 -0.00047239)
(0.581642 0.0245855 0.0230042)
(0.564151 -0.000254966 0.00043905)
(0.564199 9.4008e-05 5.84674e-05)
(0.56568 0.000382476 0.000682887)
(0.564154 -0.00022215 2.20383e-05)
(0.562985 0.00194138 0.00100535)
(0.564523 0.000124087 8.07288e-05)
(0.565797 0.000639976 -0.000551139)
(0.578179 0.00398561 -0.00114785)
(0.593273 0.0125397 0.00988434)
(0.199103 0.198662 -0.000407106)
(0.563391 3.10854e-05 -6.49407e-06)
(0.565789 0.000342385 5.06872e-06)
(0.564535 0.000337525 -0.000320563)
(0.564462 -0.000471941 0.000361563)
(0.566601 -0.000547922 2.20044e-05)
(0.563303 0.00155557 0.00170566)
(0.564149 0.000429839 7.41059e-05)
(0.559562 0.00136906 0.00307463)
(0.563367 -0.000856679 0.000616726)
(0.564478 3.89621e-05 -7.49858e-05)
(0.562143 -0.0010746 -0.000656393)
(0.564257 6.28369e-05 2.04962e-06)
(0.197427 -0.19788 0.00334428)
(0.566452 -9.78231e-05 -4.85868e-05)
(0.565067 0.000389188 0.00345006)
(0.582179 0.00476812 0.0163664)
(0.591475 -0.00766121 0.0131118)
(0.566012 3.17463e-05 0.000165265)
(0.566426 -0.000586543 0.000203965)
(0.561921 0.00128473 0.00403803)
(0.56276 -0.000483305 0.000538538)
(0.564109 0.000873684 0.00076912)
(0.198694 -0.193522 0.00346722)
(0.566399 -0.00143602 -0.00048495)
(0.563178 0.00030043 0.000499855)
(0.561331 0.00224783 0.000806852)
(0.562078 -0.000788201 0.000708265)
(0.564916 -0.000369863 -3.16843e-05)
(0.565256 -0.00017379 -9.06881e-05)
(0.198634 -0.108763 -0.00143298)
(0.200286 0.200012 0.000260035)
(0.563084 -0.00113532 0.000622617)
(0.560692 0.000789904 -0.000920474)
(0.55909 -0.00130354 0.00261163)
(0.586965 0.00791311 0.00246779)
(0.564517 0.000133536 -0.000199979)
(0.196986 -0.198481 -0.00160996)
(0.565779 -0.00121364 0.000290863)
(0.564974 -0.000278129 -0.000219238)
(0.566534 -0.000849468 -0.000110281)
(0.563052 -0.00132133 -0.000665186)
(0.546203 -0.118232 0.0768207)
(0.564951 -0.00016802 -0.000326692)
(0.563764 -0.000865512 -0.000355677)
(0.558309 0.000192131 0.00126347)
(0.564328 -0.00161023 -0.00381188)
(0.56469 -0.000821087 0.00126577)
(0.56472 -0.000226219 0.000243532)
(0.201079 -0.20043 0.000179958)
(0.195991 -0.195353 0.00168454)
(0.56664 0.000222431 0.000369425)
(0.566493 -0.000707967 0.000253324)
(0.581484 0.0021919 0.00129674)
(0.587064 0.00688194 0.000822991)
(0.577781 -0.000415392 0.00140072)
(0.565833 -8.13376e-05 -0.000962396)
(0.299547 -0.213386 -0.0185431)
(0.573802 0.00165973 0.000679472)
(0.564282 0.00234764 0.00280571)
(0.585983 0.0172539 0.00100977)
(0.566042 0.000106362 7.61163e-05)
(0.565522 -0.000776454 0.000356162)
(0.566666 -0.000836425 -1.1265e-05)
(0.570852 -0.00101884 0.000772391)
(0.561654 -0.00126934 0.00028743)
(0.567287 -0.000148255 -0.000624515)
(0.567642 0.00137392 -0.000683099)
(0.565689 8.73799e-06 -4.62101e-05)
(0.562073 0.00112605 0.00374449)
(0.566364 0.0016305 -0.000189749)
(0.198726 0.198917 -0.000100855)
(0.195967 0.197806 0.00150006)
(0.566469 -0.000186702 -0.00017856)
(0.566678 -0.000374542 -0.000151859)
(0.566544 -0.000150828 -0.000255652)
(0.57006 -0.000290534 -0.00112906)
(0.561594 -0.000981687 -0.000256889)
(0.562654 -0.000413894 0.0003357)
(0.566641 -3.23882e-05 -0.00017549)
(0.564495 0.000336545 0.000175186)
(0.563477 -0.00201497 0.000625569)
(0.56604 0.000580104 -2.33711e-05)
(0.200735 0.200933 0.00131496)
(0.561234 -0.00310475 0.00144726)
(0.566076 0.000661802 -0.000191389)
(0.202034 0.202598 -0.000458932)
(0.566394 -0.000338545 0.000161344)
(0.195216 0.197028 -0.00207585)
(0.564733 0.00235325 -0.00199479)
(0.562138 0.00295707 -0.00307399)
(0.594433 -0.010025 0.0189636)
(0.5646 -0.000563748 0.000113735)
(0.199744 -0.199401 0.000621412)
(0.600734 -0.013679 0.0188592)
(0.563919 -0.00034835 0.000858272)
(0.564612 -5.24052e-06 -0.000335671)
(0.566338 -0.000414677 0.000442329)
(0.56631 0.000561171 -0.000291291)
(0.199172 0.199224 -0.000189716)
(0.558117 0.000358666 -0.00127358)
(0.563991 -0.000859018 0.000362441)
(0.562593 0.000571206 -0.000255814)
(0.582421 -0.0107913 0.0169908)
(0.199661 -0.2 -5.54741e-05)
(0.565471 0.000193369 0.000563832)
(0.562171 -0.000421775 -9.45891e-05)
(0.565539 4.24073e-06 0.000268695)
(0.564246 -0.00133187 -0.000389184)
(0.564858 7.82379e-05 -0.000174272)
(0.563251 0.00102575 0.00123438)
(0.567696 0.0025188 -0.00139229)
(0.564463 -0.000451551 0.000319364)
(0.565634 0.000146328 8.4381e-05)
(0.566324 0.0010155 -0.00139433)
(0.565175 -0.000183277 -0.000231254)
(0.565385 0.000244006 1.03147e-06)
(0.541416 0.00171206 -0.00160411)
(0.562141 0.00025718 -0.00050643)
(0.563686 0.00019751 0.000289768)
(0.564397 9.10821e-05 -2.68629e-05)
(0.562348 -0.00134943 0.000622883)
(0.56946 -0.00303596 -0.00107857)
(0.199482 -0.199201 -0.000145794)
(0.590145 0.00222726 0.00612539)
(0.546021 0.000734508 -0.000473977)
(0.553799 0.00322864 -0.00741302)
(0.565146 -0.00012488 8.91808e-05)
(0.562395 0.00037478 0.000540509)
(0.199405 -0.199043 2.35207e-05)
(0.566649 0.00100059 -0.000707763)
(0.559849 -0.000196377 0.000417641)
(0.202879 -0.194275 0.000283938)
(0.565888 -3.7005e-05 0.000315965)
(0.199988 0.200023 -6.643e-05)
(0.196477 0.201287 0.000519371)
(0.563183 0.000426598 -8.83935e-05)
(0.564583 -0.000664958 0.0011236)
(0.564534 -0.00015356 -3.50039e-05)
(0.491142 -0.00571588 0.00256073)
(0.564462 0.000278256 6.32982e-05)
(0.198008 0.198475 0.000331918)
(0.564673 0.000491768 0.000322731)
(0.197308 0.199025 0.00130115)
(0.564495 3.64588e-05 -0.000310522)
(0.200087 -0.200257 -1.20917e-05)
(0.564384 -0.000112164 0.000200136)
(0.564093 0.000231007 -4.1207e-05)
(0.198942 0.198358 -9.83232e-06)
(0.199119 -0.199203 9.01757e-05)
(0.201361 0.198084 -0.00338382)
(0.562505 -6.06142e-05 -0.000214765)
(0.565008 0.00167139 0.000412186)
(0.561437 0.000915341 -0.00034675)
(0.566731 -0.000184381 -1.75881e-05)
(0.277877 0.142031 -0.00536648)
(0.563913 -0.000509084 0.000847319)
(0.199301 0.199495 3.01926e-05)
(0.199123 0.199573 5.18652e-05)
(0.564247 0.0029671 0.000966561)
(0.560677 -0.000647653 3.78594e-05)
(0.199365 -0.196652 0.000740317)
(0.563062 0.000254638 0.00125963)
(0.565559 -0.000303168 -0.000352316)
(0.379745 -0.148677 0.015317)
(0.526027 -0.0016262 -0.00153297)
(0.550961 0.0162104 -0.0115545)
(0.563061 0.00310664 0.00106021)
(0.560179 -0.000163505 -0.00252287)
(0.563261 -0.00176228 0.00143346)
(0.563621 0.000240571 -0.000459217)
(0.564314 -4.03446e-05 -4.95752e-05)
(0.564277 2.45894e-05 -0.000420851)
(0.56499 -0.000258278 -0.000811886)
(0.554085 -0.00293504 -0.00116345)
(0.561355 0.0052411 -0.000279683)
(0.57619 0.00519854 -0.00322245)
(0.581349 0.00436941 -0.00090539)
(0.565038 0.000305701 -0.00134116)
(0.532245 0.000838875 -0.00431998)
(0.571934 0.0035089 -0.00202244)
(0.199157 -0.199185 -0.000107167)
(0.561275 0.000689541 -0.00128083)
(0.199419 -0.199481 0.000314971)
(0.562142 -1.28265e-05 -9.58322e-05)
(0.583923 0.0019101 0.00227945)
(0.566371 7.77158e-05 -6.18388e-05)
(0.567372 -0.0281515 0.0125847)
(0.532055 -0.00286548 0.000548993)
(0.534817 0.000225549 -0.00655586)
(0.562415 -0.000640098 -0.000168173)
(0.56403 -0.000234047 0.000630045)
(0.56374 0.00126857 0.00225377)
(0.587514 0.0132675 0.0116315)
(0.564266 -1.27312e-05 -8.55449e-05)
(0.564408 -0.000257038 0.000154283)
(0.20072 -0.200322 0.000310631)
(0.562408 -0.000179586 -0.000626173)
(0.559197 -0.00191795 -9.80798e-05)
(0.199437 0.199215 -4.96085e-05)
(0.565366 -0.0014762 0.000686314)
(0.575545 0.0170294 0.00797356)
(0.572309 -0.00498704 0.007058)
(0.565154 0.000215609 -0.00148137)
(0.561068 -0.00106074 0.00196977)
(0.200488 -0.200417 -0.000919542)
(0.205202 -0.202286 0.00046602)
(0.573491 0.00372829 -0.000701432)
(0.564489 0.00011281 -7.36584e-05)
(0.560056 -0.00142478 -0.00368811)
(0.202961 0.200382 -0.00178361)
(0.564272 -0.000569344 -1.66523e-05)
(0.201095 -0.200292 0.000343689)
(0.562294 -0.000263905 -0.000510974)
(0.56404 -0.0013194 -0.00100638)
(0.51612 -0.00721279 -0.00360018)
(0.580837 -0.00100008 0.00268636)
(0.20002 0.199741 -4.1528e-05)
(0.565738 -0.000982166 0.00041849)
(0.563469 -0.000170378 0.000659702)
(0.561656 -5.84548e-05 -0.00190003)
(0.565997 -0.00073787 -0.000244933)
(0.564632 0.000835389 -0.00113688)
(0.564898 -0.00123809 -9.92762e-05)
(0.563492 0.00137617 -0.000156722)
(0.562639 0.000194887 -0.000316314)
(0.580393 0.00189954 0.00224303)
(0.199644 -0.199557 0.000252738)
(0.546158 0.000775969 0.000366555)
(0.562653 -0.00023648 0.00104119)
(0.577327 -0.00035875 0.00140743)
(0.564873 -5.16466e-05 -0.00022585)
(0.553753 -0.000922404 0.00228357)
(0.577008 0.00046625 0.000804754)
(0.200509 -0.199436 -0.00018608)
(0.561107 0.00468097 0.00186814)
(0.560679 0.00680161 0.00680133)
(0.564902 -0.000145247 -0.000325996)
(0.564528 0.00043767 -0.000824601)
(0.565356 0.000375816 2.38144e-05)
(0.560009 -0.00544839 -3.89262e-05)
(0.198414 0.198499 -0.000262425)
(0.199861 0.199757 -1.20378e-05)
(0.199017 0.199923 -6.26744e-06)
(0.564663 0.00192785 0.0026245)
(0.555411 -0.00357827 -0.00795311)
(0.504816 -0.00174094 0.000946792)
(0.575906 0.000182959 0.000109138)
(0.565148 -0.00289364 0.000913469)
(0.563061 -0.000132075 0.000441646)
(0.563644 0.00072215 -0.000117512)
(0.561059 -0.00023839 0.000451712)
(0.563976 -0.000281397 6.65643e-05)
(0.202623 0.198554 -0.00063632)
(0.555689 -0.00682121 -0.000159508)
(0.563272 -0.000738019 -0.000253104)
(0.560959 0.000778013 0.00110489)
(0.563244 -0.000692711 0.000388832)
(0.566829 0.000521976 0.0001086)
(0.565338 0.000444798 1.21656e-05)
(0.558834 0.000695268 -0.000545389)
(0.590377 -0.00156232 0.00681849)
(0.565385 0.000804338 3.59266e-05)
(0.560824 -0.000748061 -0.00153403)
(0.5641 0.000189919 3.78541e-05)
(0.560575 0.00064181 0.00124766)
(0.563783 -0.000237356 -0.00032265)
(0.557018 0.00325266 0.00243728)
(0.564209 -2.65488e-05 -0.000490107)
(0.197303 0.196537 0.000408074)
(0.198779 0.198731 -0.000102014)
(0.573468 -0.00196258 0.000840766)
(0.565368 -4.54709e-05 0.0011237)
(0.565725 -0.000144977 0.000415265)
(0.199187 0.20051 0.000238931)
(0.20002 -0.199931 -0.000251937)
(0.563517 -0.000732412 -0.000212084)
(0.200518 -0.200725 -6.17619e-06)
(0.564345 0.000336237 -0.000115617)
(0.564447 1.4597e-05 1.54092e-05)
(0.565619 -0.00027018 0.000188418)
(0.566796 0.000277102 0.000211297)
(0.561215 -0.00444257 -0.00146691)
(0.197936 0.200093 0.0014854)
(0.565742 -0.000559292 4.99119e-05)
(0.564854 -5.78837e-05 -0.000114293)
(0.198154 0.19836 0.000185944)
(0.563799 0.00043681 0.000385722)
(0.198279 0.200204 0.000326172)
(0.197313 0.196195 9.66077e-05)
(0.564154 0.000259761 -0.000256145)
(0.566873 0.000532065 -8.29979e-05)
(0.564533 -5.82775e-06 -5.21453e-05)
(0.199177 0.198962 -0.000627773)
(0.199053 0.199096 0.000121516)
(0.48624 -0.000485139 -0.000969936)
(0.564713 -0.000228167 0.00137758)
(0.56527 0.000119571 -5.45252e-06)
(0.564929 -0.000643041 -0.000550411)
(0.564781 0.000102549 -0.00104832)
(0.56534 0.000206143 -0.000511673)
(0.562895 0.0197489 -0.0141041)
(0.199761 -0.200313 -0.000235217)
(0.564358 -0.000405951 -2.60673e-05)
(0.562425 -0.000214794 -0.000175651)
(0.199437 0.199456 -4.42263e-05)
(0.200329 0.19868 -0.000271724)
(0.56483 -0.000131677 0.000308622)
(0.564054 -0.000416766 5.43074e-05)
(0.198423 -0.198834 0.000604169)
(0.565 -0.000422701 -0.000235592)
(0.565058 0.000236902 -0.000123193)
(0.564811 -0.000315452 -0.000818464)
(0.590217 0.0432912 -0.0155979)
(0.56364 0.000515256 -6.19277e-05)
(0.566359 -0.000409838 -9.59079e-05)
(0.558889 0.0248597 -0.0025876)
(0.637128 0.129689 -0.058144)
(0.565359 4.80421e-05 1.09753e-05)
(0.255027 0.159301 -0.00797292)
(0.562406 0.000387029 -0.00030542)
(0.2007 -0.200181 9.53775e-05)
(0.559374 1.86537e-05 0.000722304)
(0.199713 -0.199533 0.000631697)
(0.56385 0.000165331 -0.000130088)
(0.564084 0.000254494 -0.000569045)
(0.199773 0.200767 -0.000122734)
(0.562444 0.000724387 0.000740448)
(0.565407 -0.000513161 -0.000431203)
(0.566797 -0.000347466 -0.000428681)
(0.199419 0.199113 4.45716e-05)
(0.198821 -0.199043 -0.000201232)
(0.56269 -0.000514694 0.000574089)
(0.163811 0.116995 0.0440345)
(0.567096 -0.00128335 -0.000693528)
(0.200419 -0.199736 0.000193563)
(0.582655 -0.00116569 0.00736149)
(0.562441 0.000282419 -0.000273011)
(0.566535 4.42103e-05 -0.000408625)
(0.200463 -0.197894 -0.00140689)
(0.566754 -0.000414389 -0.000222613)
(0.565809 -0.000992596 0.000428489)
(0.206939 0.195597 -0.00125428)
(0.567209 0.000220313 -0.00087252)
(0.565692 0.000224289 -0.00127399)
(0.567235 0.000258864 -2.03771e-05)
(0.565876 -0.000157751 -0.000120493)
(0.566607 -0.000168749 -0.000261627)
(0.567804 -0.000296714 -0.000477242)
(0.200168 -0.20066 -0.000274038)
(0.19247 0.193548 0.000609603)
(0.562227 0.000302353 0.000463555)
(0.56514 0.000940481 0.00230502)
(0.565142 -5.14689e-05 -0.000371678)
(0.566881 0.000124106 -0.000432529)
(0.199645 0.199628 8.08642e-05)
(0.565849 -0.000151095 -4.78606e-05)
(0.565629 0.00015172 -0.000937781)
(0.566727 -5.97001e-05 -0.000212307)
(0.565508 0.000135848 -0.000388499)
(0.567416 7.72608e-07 -0.00046301)
(0.562808 0.00077858 0.000699378)
(0.56567 0.00040572 -0.0010567)
(0.565524 0.000482743 -0.000746307)
(0.198833 0.198791 -0.000275384)
(0.559885 0.000196766 -0.000346775)
(0.22781 -0.191872 -0.0074419)
(0.553853 -0.00373135 0.000201994)
(0.196659 0.191303 -0.00190574)
(0.198268 0.198681 -5.38186e-05)
(0.564511 -0.000180504 1.47259e-05)
(0.564672 0.00011372 0.000171817)
(0.199093 0.198828 1.45456e-05)
(0.55724 -0.000575899 0.000247552)
(0.564848 -0.000741375 4.89467e-05)
(0.565101 -0.000537353 -0.000236642)
(0.566148 4.00313e-05 -0.000432805)
(0.199184 0.198419 0.000758306)
(0.564328 0.000189128 0.000177498)
(0.56052 -0.0002691 0.000518679)
(0.561111 -0.000169886 0.000471574)
(0.566511 0.000253555 -0.000557695)
(0.562829 -0.000101345 0.000324236)
(0.566501 -5.82951e-05 -0.000521871)
(0.56526 -0.000133346 -0.000205468)
(0.565413 0.000215194 -0.000414376)
(0.562792 -0.000212078 0.000234883)
(0.573923 -0.0003554 0.000668983)
(0.15691 0.0624756 -0.0710109)
(0.563249 -0.000144868 0.000265586)
(0.19827 0.198731 0.000237276)
(0.565038 0.000178768 0.000743775)
(0.565718 -0.000275949 -0.000581468)
(0.563212 0.00263281 -0.000516451)
(0.559527 -0.00206937 0.0040129)
(0.564228 -0.000949559 0.00193401)
(0.563594 0.000139753 0.000259937)
(0.56651 -0.000159231 -0.00068605)
(0.565876 -0.000362895 -0.000279354)
(0.566044 -0.000900893 -0.000863298)
(0.562774 -0.00116543 0.000740876)
(0.197208 0.199143 -0.00349062)
(0.56598 -3.6759e-05 0.000303179)
(0.565202 0.000235672 0.000254946)
(0.567042 -0.000167913 0.000156068)
(0.565185 0.000165524 9.04114e-05)
(0.565235 -0.000385342 -0.000513657)
(0.563075 -0.000202073 0.000304931)
(0.557313 0.00637039 -0.00102808)
(0.570476 0.00218798 0.00132354)
(0.559075 0.00179007 -0.000767915)
(0.563281 0.000276472 -0.000907868)
(0.199498 0.199605 0.00017054)
(0.20056 -0.199674 -0.000126636)
(0.566528 0.000157737 0.000155587)
(0.565899 0.000365743 0.000345874)
(0.562233 -0.000529037 0.000505568)
(0.559639 0.000700835 -0.00216143)
(0.562074 -0.000708725 -0.000369213)
(0.199009 0.199302 -0.000327572)
(0.199097 0.199305 -0.00015481)
(0.566496 -0.000582839 -0.000754684)
(0.564287 -7.66006e-05 0.000138288)
(0.564581 -0.000250543 -0.000253182)
(0.564821 -0.000215925 -0.00028157)
(0.565287 -0.000229231 -0.000757772)
(0.565653 -0.000212063 -0.000212809)
(0.220701 -0.153315 -0.0146281)
(0.564851 -2.60308e-05 -6.59633e-05)
(0.563044 -0.00102085 0.000793752)
(0.560722 0.000524997 -0.00087794)
(0.557337 -0.000109513 -0.00174583)
(0.566214 -0.000261438 -0.000237918)
(0.54146 0.00351564 -0.0129472)
(0.556349 0.0151686 -0.00995927)
(0.566321 0.000279539 3.21067e-05)
(0.561504 -0.000702108 0.000662069)
(0.56002 -0.000147261 0.000105636)
(0.563784 -0.000787871 0.000312195)
(0.573996 -0.000504023 -0.000663562)
(0.199321 0.199348 1.16749e-06)
(0.557021 0.00206727 -0.0023991)
(0.566412 2.47411e-05 0.000114786)
(0.551097 -0.00238515 -0.00610325)
(0.566005 0.00013114 -0.000437563)
(0.565289 0.000269926 -0.000322378)
(0.19973 0.197602 -0.000812282)
(0.56361 -0.00113015 0.0041388)
(0.567453 -0.000314449 -0.000274497)
(0.566612 2.02759e-05 -0.000330749)
(0.562074 0.000373527 0.00108092)
(0.554171 -0.000434247 -0.00194058)
(0.199309 0.20511 -0.0018709)
(0.197822 0.195524 -0.00103314)
(0.565337 0.000357564 0.00025359)
(0.565857 -7.95303e-05 -0.000162787)
(0.565276 -0.000131629 0.00023324)
(0.566866 0.000129183 0.000121072)
(0.565887 0.000172922 2.08425e-06)
(0.562509 -0.000213481 -9.75101e-05)
(0.56284 -0.000647744 0.000665119)
(0.564909 0.00119933 -0.00272935)
(0.565685 -0.000316473 -0.00108513)
(0.564652 0.000892017 -0.000101395)
(0.564028 -0.00128918 0.00230868)
(0.5618 0.000974545 -0.000982472)
(0.563433 -0.000838144 -9.98236e-05)
(0.566193 0.0001928 -0.000231153)
(0.198621 0.198618 0.000118422)
(0.566399 8.52474e-05 -0.000174898)
(0.200332 0.200556 -2.48257e-05)
(0.199595 0.199161 -1.4007e-06)
(0.565715 0.00102698 -0.000488482)
(0.563286 0.000145345 7.52489e-05)
(0.566384 -0.000672015 0.000462941)
(0.200961 -0.200685 -7.81146e-05)
(0.564548 0.00128271 0.00105736)
(0.560986 0.00055041 -0.00162683)
(0.56699 0.000491746 -0.000873245)
(0.199542 0.199646 9.15969e-05)
(0.564047 -0.00049461 -4.00774e-05)
(0.197085 0.198847 -0.000605472)
(0.563821 -0.00044173 0.00324001)
(0.198435 0.19758 -0.000273064)
(0.56265 -0.000356269 0.00100098)
(0.563387 -7.75585e-05 0.000538666)
(0.563734 3.06027e-06 6.55387e-05)
(0.565616 0.000496651 4.97709e-05)
(0.20083 -0.200677 0.000147413)
(0.198378 0.198345 -0.000173143)
(0.568309 0.00379566 -0.00379303)
(0.56221 0.000338322 0.00140081)
(0.567342 1.85066e-05 -0.000856843)
(0.565366 -0.000303301 -0.000551085)
(0.565726 -0.00014089 -0.000585172)
(0.565431 0.000483492 -0.00082998)
(0.575509 0.00428401 -0.00166847)
(0.199453 0.199708 -1.41215e-05)
(0.582104 0.00738351 -0.0010367)
(0.565337 -0.000810832 -0.000870418)
(0.541398 0.0641815 -0.0391429)
(0.198265 0.196833 0.000584958)
(0.563883 0.000481195 -0.00133121)
(0.558836 0.000305422 0.000304277)
(0.19941 0.197822 0.00170559)
(0.580815 0.00356944 0.00116777)
(0.566563 -0.000131247 -0.000423622)
(0.200002 -0.199841 -0.000170704)
(0.56314 0.000153839 0.000644799)
(0.596146 0.00864232 0.00187293)
(0.565502 -0.000339709 -0.000106682)
(0.562313 -0.0014117 0.00221215)
(0.576033 0.00559666 0.0277908)
(0.563005 0.000808975 -0.000605274)
(0.564707 -0.000154198 -0.000346166)
(0.561675 0.000154632 -0.00193631)
(0.539705 -0.000148355 0.000287991)
(0.566768 -0.0233379 0.0258546)
(0.564369 9.86905e-05 0.00107871)
(0.564264 -0.00058636 0.000663736)
(0.565824 -2.34449e-05 -0.000143449)
(0.57545 -0.00117331 0.000898349)
(0.566175 -0.00019488 0.000229962)
(0.567665 0.00235864 -0.00162757)
(0.199429 0.199489 6.3997e-06)
(0.566253 0.00065167 -6.27015e-05)
(0.579927 0.00158444 0.00160312)
(0.591166 0.00593157 0.00824846)
(0.199908 -0.199737 -0.000135285)
(0.562972 -0.00136278 0.000775655)
(0.56584 -0.00011278 -0.000386914)
(0.197199 0.195141 0.000394141)
(0.563968 0.000328788 -0.00018133)
(0.563953 0.000131398 -0.000486379)
(0.565922 0.000585588 -0.000547906)
(0.563786 0.000484666 0.000112278)
(0.564883 -0.00033732 -0.000428903)
(0.564599 -0.000314276 0.000119158)
(0.198945 0.199314 -0.000157966)
(0.563077 -0.000346024 -0.00196873)
(0.566119 -4.80963e-05 -0.000210656)
(0.198982 0.198966 0.00023787)
(0.20002 0.199452 -0.000103645)
(0.565591 0.000383114 0.000393127)
(0.199509 0.200168 9.73124e-05)
(0.564421 -0.000285076 0.00053)
(0.561199 -0.00417128 -0.000805379)
(0.566027 0.000310065 -0.000187142)
(0.562478 -0.000987248 -0.00253207)
(0.562435 -0.000256561 -0.00224126)
(0.284263 -0.0197681 0.0421274)
(0.199431 0.199672 0.0001863)
(0.564873 8.06128e-05 8.45821e-05)
(0.56469 5.37593e-05 -4.86426e-05)
(0.562992 0.000718977 -0.000496646)
(0.562175 0.00279365 -0.00181804)
(0.563859 0.000178133 -0.000940822)
(0.199139 0.199306 -0.000232477)
(0.545089 -0.00011007 -1.16664e-05)
(0.559819 0.000734761 -0.000888528)
(0.557013 0.00166612 0.00373634)
(0.565677 -0.000593739 0.000622314)
(0.565598 0.000124597 -9.76494e-05)
(0.55433 0.0168448 -0.02006)
(0.565403 -0.00138349 3.1644e-05)
(0.551288 0.0061316 -0.0110494)
(0.199069 0.196039 -0.000816614)
(0.198831 0.199238 0.000208751)
(0.199096 0.199005 6.11103e-05)
(0.565828 0.000445483 -3.00483e-05)
(0.565343 -6.35809e-05 -0.000405367)
(0.199306 0.198923 -7.55964e-05)
(0.563072 -7.92808e-05 0.000934079)
(0.558664 0.00393133 0.00255327)
(0.562703 -0.000619547 -0.000787394)
(0.500948 0.0705125 -0.0410908)
(0.560245 -0.000825053 -0.000413493)
(0.564863 0.000222058 0.000434211)
(0.199915 0.204376 0.00033867)
(0.556698 0.0129833 -0.0209372)
(0.19987 0.199853 0.000180165)
(0.19897 0.198427 0.000355448)
(0.565207 -0.000190721 0.000110583)
(0.317943 0.243551 0.0366293)
(0.289915 -0.118453 -0.0042986)
(0.564801 -0.000770949 0.000131353)
(0.194327 -0.197746 0.000260191)
(0.565177 0.000184738 8.47044e-05)
(0.560837 -0.00231236 -0.00514775)
(0.569926 0.0195705 -0.0131935)
(0.564671 -7.65355e-05 0.000476435)
(0.575486 0.0108298 -0.00376082)
(0.564505 0.000531303 -7.04659e-05)
(0.570691 -0.0371076 -0.0107692)
(0.198896 0.199008 4.97012e-05)
(0.199389 0.198518 9.09443e-05)
(0.563384 -0.00117375 -0.000237303)
(0.563257 -0.000770373 0.00105866)
(0.566208 0.000344277 -4.72804e-05)
(0.19587 0.198988 -0.00154651)
(0.562073 0.00104028 -1.52459e-05)
(0.564565 -0.000329681 -6.3743e-05)
(0.564841 -3.64863e-05 -0.000310098)
(0.199257 0.199485 0.000829837)
(0.56466 0.000298053 -0.000621497)
(0.564782 -0.000171788 -0.000348514)
(0.510683 0.0572563 0.0373891)
(0.199168 0.199162 -0.000181203)
(0.644812 0.172767 -0.00667841)
(0.521922 0.0736957 -0.0536745)
(0.20025 -0.199439 0.000116687)
(0.200238 0.199708 0.000272534)
(0.199074 0.19891 0.000159408)
(0.199788 0.199486 0.000231301)
(0.199958 0.199825 -0.000606892)
(0.564475 0.000159876 -0.000388488)
(0.565274 0.000415899 0.000568782)
(0.564602 0.000534673 0.000221017)
(0.199614 0.198829 0.000301148)
(0.565389 -0.00027469 -0.000143265)
(0.566868 0.000303295 0.00042381)