/*--------------------------------*- C++ -*----------------------------------*\
  =========                 |
  \\      /  F ield         | OpenFOAM: The Open Source CFD Toolbox
   \\    /   O peration     | Website:  https://openfoam.org
    \\  /    A nd           | Version:  10
     \\/     M anipulation  |
\*---------------------------------------------------------------------------*/
FoamFile
{
    format      ascii;
    class       surfaceScalarField;
    location    "5.4";
    object      phi;
}
// * * * * * * * * * * * * * * * * * * * * * * * * * * * * * * * * * * * * * //

dimensions      [0 3 -1 0 0 0 0];

internalField   nonuniform List<scalar> 
214403
(
-0.00663076
0.00508475
0.00028074
0.00126528
-0.00326513
-0.0109792
0.000934353
0.01331
-0.0100281
6.67165e-05
-0.000136541
0.0100979
0.00872784
-0.00586773
-0.0146292
0.011769
0.0120237
-0.0152022
0.00362049
-0.000442069
-0.0052481
0.00546642
-5.33019e-05
-0.000165014
-0.000840124
-0.00158581
-0.00902315
0.0114491
-0.0166347
0.00946753
-0.00249952
0.00966665
-0.022808
0.0161095
0.0162508
-0.00955229
0.0138902
0.00164848
-0.0155254
-1.33308e-05
0.00493177
-0.00976709
0.00200869
0.00282663
-0.0101202
0.00318238
0.00524485
0.00169293
0.000466752
-0.011206
0.0134973
-0.00275806
-0.00973477
0.00979313
-5.8354e-05
0.00187714
0.0116783
-0.0149697
0.0014143
-0.0117874
0.00985471
0.00298513
-0.00105242
-0.0118701
0.0115795
0.000290601
0.00384936
-2.83203e-05
-0.000945938
-0.0028751
0.0153455
-0.00918376
-0.0204034
0.0142417
-7.45883e-05
-0.00305609
8.97915e-05
0.00304089
0.00630312
-0.00615524
-0.000147882
-0.0120475
-0.00416777
0.00414393
0.0120713
-0.00223175
0.0133479
-0.0107663
-0.000349759
0.00658233
0.000691168
0.00229576
-0.00956925
-0.0100286
-0.00482059
0.0129831
0.00186606
0.00905482
-0.0114679
6.78992e-05
0.00234515
0.00315915
-0.00276414
0.0103491
-0.0107441
0.00748492
0.00978994
-0.0117937
-0.00548116
0.010938
-0.00685981
-0.000311167
-0.00376703
-0.00577239
0.00588404
-0.000111642
0.00238587
-0.00497047
0.013264
-0.0106794
0.0138256
0.000655256
-0.00241149
-0.0120694
-0.00553706
-0.00568272
0.00581956
0.00540022
-0.00117035
-0.00660079
0.0058473
0.00192384
0.00431482
-0.00295186
-0.00919648
0.00783352
-0.00167032
0.00833269
-0.00301035
-0.00365202
0.0157052
-0.000387133
-0.0153181
-0.00675195
0.0131687
-0.00641676
0.00121428
-0.0144457
0.00836873
0.00486269
0.00240507
-0.000967228
0.00588512
-0.00732296
0.00557051
-5.8634e-05
-0.00551188
0.0100297
-0.000216103
0.00177769
-0.0115913
-0.0127222
0.00159816
0.0135291
0.000846738
0.000865777
0.00844838
-0.0101609
-0.00403695
-0.0263466
0.0255563
0.00482725
0.0056203
0.00101478
0.00127064
-0.00790573
0.00415181
0.00314055
-0.0101432
0.00285089
0.0130796
0.00783778
-0.0143351
0.00118408
0.0111008
-0.00225517
0.00179187
-0.00671002
-0.00395021
0.00886836
0.00305492
0.00469333
0.00139562
-0.00914387
0.00180987
-0.00135993
-0.00418175
0.00373181
0.00676307
-0.0122408
0.00853263
0.0116594
-0.010978
-0.0037648
0.00308341
0.0104694
-0.00191447
-0.00841601
0.0114097
-0.000483924
-0.00250976
0.00866629
-0.0110825
0.000128165
0.00228802
-0.00809242
0.000535227
0.0129314
-0.00537424
-0.0150214
-0.0141283
0.011859
0.0172907
-0.00802636
0.00807735
0.00158769
-0.00163868
0.00126646
-0.01026
-0.00843899
-0.000175727
0.00438686
0.00422785
-0.0131475
0.00564454
0.00850632
-0.00100332
0.0154231
-0.012421
0.00078912
-0.00379125
0.000707303
0.000259247
-0.0101166
0.00915001
0.000510623
-0.00280063
0.0138473
-0.0115573
-0.0342124
0.00358868
0.00382204
0.0268017
-0.00314664
0.00926755
-0.00293387
-0.00318703
0.00456066
-0.00239888
-0.00973474
0.00757297
0.00109571
0.00681652
-0.00866323
0.000750999
-0.000166872
0.00833568
0.00289779
-0.0110666
-0.00165619
-0.000262885
-0.00345154
0.00537062
-0.00886733
0.00968955
-0.000366167
-0.000456049
0.000310379
-0.00889727
-0.00626447
0.00554889
0.00168409
-0.000968512
-0.0165646
-0.00104646
0.00808216
0.0095289
-0.00499836
-0.00213049
0.00425272
0.00287614
0.00737095
-0.0247196
0.00342681
0.0139219
-0.00383972
0.00772701
-0.00422059
0.000333308
0.00550591
-0.00427566
0.000544052
-0.0017743
0.000126286
-0.0103928
0.0102665
3.48406e-05
0.0084341
-0.00846894
0.00741533
-0.00144966
0.000982098
-0.00694777
-0.00447507
0.00638486
0.00211624
-0.00402604
-0.00314485
0.0134005
-0.0032224
-0.00703324
0.00633434
-0.0107978
-0.000408829
0.00487232
0.00722571
0.00762817
-0.0148539
0.0106693
-0.0119906
0.00307235
-0.00175102
0.00103869
-0.00192467
0.0139278
-0.0130419
0.000401235
-0.00224265
0.0100318
-0.00819041
0.00238472
0.0209804
0.00604291
-0.029408
-0.0183501
0.0161419
0.0104669
-0.00825869
0.000842606
0.00647585
-0.00870477
0.00138632
0.00857139
0.00952492
-0.00311775
-0.0149786
0.0159082
-0.00966708
-0.00031346
-0.00592765
0.000698372
-0.00204643
-0.00642657
0.00777463
-0.00650404
3.70476e-05
0.006467
0.00966853
0.000333741
0.000667019
0.0120256
0.00101142
-0.018296
0.00525898
-0.00964349
0.00212672
0.00171473
0.00580205
-0.00613729
0.00152167
0.000754432
0.00386119
0.00149742
0.00107155
-0.0127057
0.0101368
-0.00259685
-0.0151135
0.00963567
0.00807472
0.00607646
-0.00718919
-0.00468395
0.00579668
0.00981873
-0.000104761
-0.00981839
0.000104422
0.00749529
-0.0105938
-0.00367131
0.00676978
0.0194068
-0.00587384
-0.00302459
-0.0105084
0.0110318
-1.88583e-05
-0.0101449
-0.000868067
-0.00557292
0.00656119
0.013672
-0.0146603
0.0119376
-0.00419053
-0.011482
0.00373495
0.00220125
-0.00321451
0.0139842
-0.0129709
-0.0157548
0.0143588
0.0136124
-0.0122163
0.000710724
-0.0122865
0.00474133
0.00683448
0.0153808
-0.000810382
-0.00031598
-0.0142545
0.0108799
-0.0021198
0.00210396
-0.0108641
-0.0126002
-0.0114613
0.0135643
0.0104972
-0.00239257
0.00686468
0.00186064
-0.00633275
-0.00534903
0.000291608
0.0103674
-0.00530997
-0.00119616
0.0134907
-0.0125565
0.000261925
-0.0116836
0.0108502
0.00211187
-0.00127849
-0.000392447
-0.00681641
0.0162637
0.00214392
-0.00713533
-0.00522042
0.0102118
-0.00566081
7.40089e-05
0.0055868
0.00173576
0.00789294
-0.00730131
-0.0023274
0.0126368
-0.00728701
-0.00193742
-0.00341235
9.50636e-05
-0.00375741
0.00366235
-0.00710226
-0.00191584
0.00267118
0.00634693
0.000736566
0.004054
-0.00909429
0.00430372
0.0155343
-0.0014031
0.00607096
-0.0202022
0.00110973
-0.00137855
-0.0187291
0.018998
0.00120718
-0.00536743
-0.00708848
0.0112487
0.000453429
0.00975964
-0.000544536
3.91944e-05
-0.00576518
0.00572598
0.0118505
-0.0043983
-0.00530829
-0.00718386
0.00599701
-0.00591541
0.0131109
-0.0109103
-0.00132448
-0.00087615
0.00130937
-0.0061924
0.00270745
0.00217559
-0.0106946
-0.00324057
0.00217478
0.0117604
0.00890697
-0.0144731
0.00953666
-0.00397049
-0.000397485
0.0130765
-0.0130939
0.000414824
-4.01824e-05
0.0119413
-0.0118317
-6.94701e-05
-0.0166318
0.0132726
-0.0106535
0.0140127
0.0138741
-0.0134273
-0.000446823
-0.0127358
0.0170535
-0.00311352
-0.00120417
-0.0113726
0.00273602
-0.000858482
0.00949502
-0.0187327
0.00144056
0.0120444
0.00524769
0.00331556
-0.00452828
0.00252209
-0.00461021
0.0052414
0.00843235
-0.00906354
-0.0049644
-0.00222782
0.00284087
0.00435136
-0.00675119
0.00441447
-0.00852384
0.0108606
0.00202795
0.000165487
-0.0149292
-0.00667999
0.00666568
1.43078e-05
0.00727017
-0.00699009
-0.000280083
-0.0109809
-0.000718416
-0.0029213
0.00270461
-0.0144529
0.0168255
-0.00507721
0.00650626
0.0111945
-0.0142377
-0.00346309
0.0124305
-0.0135011
0.000362642
0.000707951
0.0066387
0.00172332
-0.00686034
-0.00150168
-0.0104689
-0.000580266
0.0137538
0.0060525
-0.000437455
-0.00737828
0.00176323
0.00681917
-0.00583957
0.00672721
-0.00770681
-0.0118363
0.00222464
0.016118
-0.00400183
-0.00560604
0.0185214
-0.00891357
-0.00570356
-0.0062865
0.00152115
0.00169659
0.00451687
-0.011917
-0.00808054
-0.000713951
0.0129863
-0.00419179
0.00125903
0.00198981
0.00721212
-0.010461
-0.00383068
0.00937637
-0.00554568
0.00303813
-0.0146072
0.00528257
0.00870192
0.00607893
-0.0130843
-0.0122649
0.000148237
0.0152828
-0.00316618
0.00209176
0.00179237
0.00559911
-0.00948324
0.00831638
-0.00838025
6.38664e-05
0.00310476
-0.00117254
0.0104227
-0.0123549
0.0109541
-0.00347161
0.00526556
-0.0127481
0.020185
-0.00649504
0.0150609
-0.0287509
0.00328298
0.00611072
-0.00253867
-0.00685503
-0.00915819
0.00376866
0.0047994
0.000590134
0.00656243
-0.00494351
-0.000135712
-0.00148321
-0.00422196
-0.00534784
0.0155798
-0.00601
-0.00734992
0.00954417
0.00380413
-0.00599838
0.0110713
-0.000605353
-0.00364679
-0.0171211
0.01132
-0.000950066
-0.0163274
0.0150649
0.00699589
-0.00573347
0.0104166
-0.0117391
-0.00169487
0.00301739
0.00587246
-0.0106147
-0.00555687
-0.00606368
-0.00556313
0.00314437
0.00848244
-0.0086532
0.00268735
0.00854373
-0.00257789
0.010017
-0.00953303
-0.00656914
0.00608517
6.209e-05
-8.78677e-05
-0.00942349
0.00944927
0.00022753
-0.00824897
-0.000313168
0.00833461
-0.0023837
-0.0141244
0.00221968
-0.00816835
0.00734692
-0.00139824
-0.00553593
-0.00233187
-0.000785391
-0.000183197
0.0138798
0.000193611
-0.0331647
0.0233296
0.0168653
-0.00703009
-0.00981055
0.00066846
0.000354816
0.00878728
-0.00195005
0.0310563
-0.0365492
0.00744298
0.00155645
0.00240081
-0.00538743
0.00143016
-0.0209962
0.0113126
0.00146335
0.00822022
-0.000247435
-0.0139333
-0.00198559
0.0161663
-0.00576668
0.0209839
-0.0145166
-0.000700645
0.00942031
0.0136974
-0.0126607
-0.010457
-0.0112416
0.0107084
0.0132966
-0.0127633
0.00437916
0.00611902
-0.00762174
-0.00287644
0.00433896
-0.00292584
-0.00694906
-0.0223373
-0.000884225
0.0182383
0.00498328
0.00658468
0.00101193
-0.00382795
0.00673937
0.00902198
-0.00833034
-0.00743102
-0.0111559
0.00248576
0.0108816
-0.00221151
0.0013234
0.00350935
0.0122207
-0.0129485
0.0127836
0.00124053
-0.00107563
0.00803695
0.00630662
-0.00568231
-0.000224659
-0.00159893
0.0075059
-0.00855872
-0.00170244
0.00476025
-0.0164568
0.00700065
0.00469592
0.000501158
0.00890069
-0.00987477
0.000472921
-0.00341205
0.000660463
-0.00317559
0.00592718
0.0137741
-0.00984663
0.000411519
-0.00780581
-0.00610792
0.00821567
0.00569806
0.0294855
-0.0315401
0.0103003
-0.00824572
-0.0056875
0.00706697
0.00284668
-0.00422615
-0.0129789
0.0056384
0.0113129
-0.00397241
-0.00560841
0.00814214
0.0104743
-0.013008
0.0156982
-0.00606113
-0.010387
0.000749899
0.000272371
-0.00380917
0.00926504
-0.00572824
-0.00161038
0.00159606
-0.0122506
0.0112982
0.00366625
-0.0120956
-0.00286888
0.0141937
-0.0116447
-0.00312924
0.00296756
0.00438538
-0.0103883
0.00303532
-0.00586249
-0.0107254
0.00953567
0.00705223
-0.00178163
-0.0046235
-0.00140068
0.00579254
-0.00618857
0.0133366
-0.0129405
0.00140345
-0.0161476
0.0147441
0.00547009
-0.00716392
0.00466139
0.00299809
0.00173355
0.00245958
-0.00719122
-0.000306536
-0.0134664
0.013773
-0.00738195
0.000980772
-0.0023957
0.00879688
-0.000883164
0.010221
-0.00931043
-2.73831e-05
-0.00692626
-0.00366625
0.0039989
0.00659361
-0.00258248
-0.00612541
-0.0056855
-0.00835859
0.00697186
0.00707223
0.000307138
-0.00857512
0.0147206
-0.00605238
-0.000783835
-0.00788443
0.0078654
-0.000754656
-0.00573725
-0.00137348
-0.00127358
0.0110287
-0.013744
0.00398889
0.00709644
0.00027292
0.00345468
-0.010824
-0.000260183
-0.00583375
0.00281893
0.003275
-0.00405822
0.00527958
0.0101993
-0.0114206
-0.0143514
-0.00370387
-0.00400092
0.0131749
-0.0123279
0.000293657
0.00385712
0.00817708
0.00118889
-0.00436027
-0.00775073
0.0109221
-0.00566077
-0.0110491
0.00278827
0.0139216
-0.00512529
-0.00568209
0.00591341
0.00489397
-0.0132959
0.0127975
0.0135106
-0.0130122
-0.00181055
-0.00316067
-0.00952536
0.0144966
-0.0130453
0.00131134
0.0132765
-0.00154256
-0.0022704
0.00607116
-0.00380075
-0.00528237
0.0097646
-0.00735023
0.002868
-0.000222129
0.0174463
-0.00648646
-0.0107377
-0.00625418
-0.00301996
0.0125379
-0.00326377
0.00201213
-0.00527905
0.0119783
-0.00871139
0.00055185
0.00782521
-0.0013709
-4.41035e-05
-0.0127541
0.0127474
5.0831e-05
0.0146391
-0.00259309
-0.0213964
0.00935041
-0.0135201
-0.00132478
0.016881
-0.00203612
-0.00733705
0.0110851
0.000909883
-0.00465793
0.00652674
-0.00645169
-7.50507e-05
-0.00777812
0.00075274
-0.00670953
0.0137349
-0.0112236
0.0154681
-0.00322389
-0.00102063
0.00699431
-0.00293297
-0.00843357
0.00437223
-0.0135146
0.0136314
-0.000116747
0.0111377
-0.0161956
0.00130878
0.00374912
-0.0126114
-0.00345238
0.0215666
-0.00550283
0.00931415
-0.000390326
-0.00195589
-0.00696793
-0.00530662
-0.0090003
0.0200995
-0.000943793
-0.0132768
0.00803202
0.0208214
-0.023224
-0.00220879
0.00461137
0.00562414
0.00268101
-0.0062134
-0.00590148
0.00615029
-0.000248805
-0.00238572
0.0133389
-0.000847384
-0.0101058
-0.00290803
0.00344955
0.0115965
-0.012138
0.00758091
0.0178069
-0.0104117
-0.0149761
0.013069
-0.01568
0.00498543
-0.00237448
0.0118154
0.000165005
-0.0119804
0.000218856
0.0114996
-0.0117185
0.0129697
-0.0156983
0.0138664
0.000139286
-0.00011774
0.010123
-0.0101446
0.000257548
0.0184046
-0.0183375
-0.000324711
-0.00157084
-0.00464429
-0.00940229
0.0156174
-0.00575416
-0.00344717
0.00115485
0.0108943
-0.0189507
0.0069015
-0.00915102
-0.00239979
0.00981162
0.00173919
-0.0108669
0.0119991
-0.00320579
0.00207359
0.0017034
0.00887048
-0.00301828
-0.0075556
-0.00428381
0.00105523
0.00728424
-0.00405566
-1.34599e-05
0.00331978
-0.00417389
0.000867576
-0.00462029
0.0113042
-0.0065187
-0.000165216
0.00337641
-0.0106635
-0.00622754
7.59542e-05
-0.00994223
0.00986627
-0.00371146
-0.0035616
0.00165154
0.00562152
0.00553695
-0.00319427
-0.00234268
0.0138988
-0.0138004
-0.00281964
0.00272121
-0.0012658
-0.00823303
0.00759303
0.0019058
-3.49237e-05
4.70537e-05
0.00749247
-0.0075046
0.00373836
-0.00307266
-0.0118941
0.0112284
0.00863147
-0.000216708
-0.00841476
-0.0125683
-0.00814003
0.0121283
0.00857997
0.00735706
0.0115213
-0.0198222
0.00698848
-0.00251551
0.0039364
-0.00840937
-0.00279957
0.00278574
-0.0154391
0.0154529
0.00435784
-0.00858461
-0.00835023
0.012577
-0.000879503
-0.00196763
0.00926894
-0.0064218
0.00645885
-0.0079377
0.00287625
-0.00139741
0.00356647
-0.00591208
-0.00571481
0.00806042
-0.0114394
0.0128768
-0.00342494
0.00198758
0.0130615
0.0167985
-0.0185024
-0.0113576
-0.0100864
0.0100427
4.37355e-05
-0.00113128
0.0119096
-0.0148724
0.00409413
0.000460201
-0.000752036
-0.0114603
0.0117521
0.0112055
0.000470113
-0.0128931
0.00121743
-0.00482555
-0.00815666
0.0102573
0.00272491
-0.0116588
0.0165198
-0.00584989
0.000988836
-0.00476464
-0.00583244
0.00346175
-0.000710417
-0.000121166
-0.00823218
0.00906376
-0.0268956
0.000105588
0.00240728
0.0243827
0.00106072
-0.00681486
-0.0035274
0.00928154
0.016799
-0.00138155
-0.00543772
-0.00997971
-0.00297383
-0.00644648
0.00124126
0.00817905
0.00474693
-1.70841e-05
-0.00472985
0.00789946
0.00420707
-0.0026212
-0.00948533
0.00611361
-0.00484004
0.0120567
-0.0133303
0.000393306
0.0125457
-0.00414545
-0.00879351
0.00304388
0.00434697
0.00940812
-0.00598533
0.000429426
0.0055559
-0.00778589
0.0011054
0.00206356
0.0013046
-0.0107588
0.00739068
-0.0102144
0.0149465
0.00452516
0.0154323
-0.00326604
-0.0166914
-0.0098203
0.00963768
-0.0152533
0.0154359
-0.00146718
-0.00735888
0.00257389
0.00625217
-0.0081326
0.0153583
0.00457145
-0.00532134
0.00119192
-0.000442033
-0.00503858
-0.0160614
0.0050282
0.0160718
0.010551
-0.0105287
-9.67151e-05
7.44833e-05
0.00852857
-0.00996311
0.00212184
-0.000687295
0.0021902
0.00856639
-0.015263
0.00450641
3.72571e-05
0.00733436
-0.00737162
0.00477264
-0.012229
0.00964656
-0.0046168
0.0123949
0.010443
-0.018221
0.00351854
-0.00358812
-0.0166759
0.0167454
-0.00502812
0.00833028
-0.0167124
0.0134102
-0.0119703
0.00953027
0.0124949
-0.0100549
-0.00747678
0.0102433
-0.00661882
0.00385235
-0.00158895
0.00692223
0.00112696
-0.00646023
0.00348113
-0.00507616
0.0052346
-0.00363957
0.00661984
0.00246312
0.00217746
-0.0112604
0.0187524
-0.01273
-0.000768898
-0.00525346
-7.97176e-06
-0.00909462
0.00910259
0.00569971
-0.00833444
-0.0255565
0.0281913
-0.00114561
-0.0123845
-0.00375214
0.0172822
-0.000750162
-0.00567978
0.00642995
0.0017366
0.00823144
-0.0013036
-0.00866443
-0.00229131
-0.00827123
0.00667507
0.00388746
0.00644864
-0.00540136
-0.00948627
0.0163651
-0.0127381
0.00362266
0.00383751
-0.00746017
0.0123692
-0.000235326
-0.00147681
-0.0106571
-0.00238494
-0.00405672
0.00644166
0.00440299
0.0029257
0.0247063
-0.0297173
-0.0104897
0.0155007
0.00378247
0.00805644
-0.00616218
-0.00567674
-0.00864688
0.0165518
0.0110011
-0.0189061
0.0097608
0.00338835
-0.00130491
-0.0118442
0.0160751
-0.0107194
0.00691682
-0.0122726
-0.00905361
0.00413932
-0.011353
0.0162673
-0.0147178
0.0263726
-0.0103351
-0.00131971
-0.000393515
-0.00627349
-0.00864781
0.0153148
0.0119458
0.00493848
-0.0140178
-0.00286651
0.0064077
-0.0170778
0.0107758
-0.000105779
-0.0150744
-0.000571288
0.00986173
0.00578394
-0.00302467
0.00782197
0.00340218
-0.00819947
-0.00191447
0.00767884
0.00617882
-0.0119432
-0.0157279
0.00808802
-0.00076041
0.00840028
0.00142949
-0.00426278
0.00847542
-0.00564214
0.00669096
-0.00336583
0.00238829
-0.00571342
0.00645391
0.00124112
0.000635554
-0.00833058
-0.00950139
0.0101924
0.00377846
-0.00446947
-0.00225711
0.0120829
0.000243515
-0.0100693
0.00975117
-0.00572476
-0.00378019
-0.000246221
0.00840089
6.25211e-05
-0.00846341
0.00614196
0.00475466
-0.00107923
-0.00981739
0.00287993
0.00759623
0.00649418
-0.0169703
-1.26425e-05
-0.0136575
0.0136701
-0.00711887
0.0275752
-0.00402947
-0.0164269
-0.000127327
0.010277
-0.0101496
-0.000684208
-0.00738074
0.0013253
0.00673965
-0.0134192
0.00683721
0.00519445
0.00138752
0.0027391
0.00227604
-0.0156834
0.0106682
0.00798037
0.012609
-0.00471191
-0.0158775
0.0120711
-0.00413607
-0.0115545
0.0036195
-0.0150838
0.00860411
0.0230067
-0.016527
-3.92815e-05
0.00579925
-0.00579926
3.92979e-05
-0.00599927
0.00593691
6.23656e-05
-0.0153335
0.000235177
0.00645146
0.00171512
0.00370289
0.0101418
-0.0155598
0.00797517
-0.00948586
0.00611857
-0.00460789
-0.00769126
0.00673545
-0.000254963
0.00121078
-0.00160036
-0.0126475
0.0161773
-0.00192949
-0.00566482
0.00272794
0.00896823
-0.00603135
0.00978463
-0.00377191
0.00144219
-0.00745492
-0.00647452
-0.00112867
0.00757913
2.40575e-05
-0.00112077
-6.0124e-05
0.0106461
-0.00946518
0.00134794
-0.00113639
0.010617
-0.0108286
-0.00955475
0.0133564
-0.0139982
0.0101965
6.18752e-05
-0.0120352
0.0119733
-0.00428852
0.000375212
0.0108126
-0.00689933
-0.00819943
0.00958588
-0.0130737
0.0116872
-0.00841089
0.000638131
0.00255234
-0.00390663
0.0105822
0.000590734
-0.00726627
-0.00281572
0.000390899
-0.00475903
-0.00416536
-0.0135313
0.0135926
0.00410398
-0.00602646
-0.000704067
-0.00151647
0.008247
-0.0206506
0.00697725
0.00203834
0.011635
-0.00650954
0.0149751
-0.00745759
-0.001008
0.00454199
0.00178533
-0.00914304
0.00898814
0.00916438
-0.0181525
0.00122086
0.0197242
-0.00456363
-0.0163815
-0.000251868
-0.000351568
-0.00874001
0.00934345
-0.00947598
0.0156051
-0.00629081
0.000161673
0.00898787
-0.00567563
-0.0081465
0.00483426
0.00225318
-0.000302191
0.00275809
0.0138194
0.00385249
-0.019975
0.00230312
-0.00959094
-0.00124573
0.00314279
0.00769389
0.00360988
-0.00401376
-0.00542856
0.0166445
-0.0112026
0.00871745
-0.0141593
-0.00184347
0.010747
-0.0185859
0.00968232
0.006452
-0.00815573
-0.000826129
0.00252986
-0.00711925
-0.00247809
-0.000240762
0.00983811
-0.00532149
-0.0050303
0.0103518
0.00133688
-0.014294
0.0126752
0.000281857
0.00547485
-0.00528108
-0.00551526
-0.00891781
0.0113182
-0.00215927
-0.000241134
0.0127555
0.00350818
-0.0137388
-0.00252494
-0.00493606
-0.00720726
-0.000827159
0.0129705
0.00815381
-0.0024808
0.00945491
-0.0151279
-0.00904937
-0.000505375
-0.0108233
0.00579297
0.00139011
-0.0120959
0.00387032
0.0068355
0.00353023
-0.0126462
0.00696373
0.00215222
0.00189035
0.000495497
-0.00948273
0.00709688
0.00144433
0.0061859
-0.000420835
0.0106937
-0.00211272
-0.00816014
-0.00419212
-0.00043493
-0.00392188
0.00854893
-0.00248279
-0.00334431
0.00639441
-0.000567308
-0.00988997
-0.000138643
-0.016707
0.00599964
0.00879291
0.0237665
-0.000199281
0.00324653
-0.0268137
-0.0104129
0.0161733
0.00328202
-0.00904234
-0.00296532
0.00162384
0.0102296
-0.00888808
0.00123588
0.00350859
-0.00271414
-0.00203034
-0.0178799
-0.00370312
0.0154305
0.0061525
0.000392694
0.00757642
-0.00152047
0.000231938
0.00380275
-0.0119312
0.00789648
-0.00735782
-2.5829e-05
0.00271218
0.00467147
-0.0101594
0.012555
-0.00200285
0.00573252
-0.00516909
-0.000563427
-0.00843239
0.00121172
-0.00655186
0.0137725
-0.00382192
0.0057516
-0.00443321
0.00250353
-0.00822804
0.00926571
-0.00382866
0.00279099
0.00368306
-0.00060819
-0.00870868
0.00563381
-0.0036796
0.0230679
-0.0310471
-0.00332801
-0.00232268
0.00227433
0.00337636
0.010917
-0.0170454
-0.000770934
0.00689934
-0.00459618
0.00342952
0.00591127
-0.00474461
-0.00136848
0.0072648
-0.002001
-0.00389532
-0.00817094
0.00181286
0.00191004
0.00444804
-0.00458621
0.000393949
0.00419226
0.0105091
-0.00500432
-0.00533212
-0.000172663
0.000775611
0.00528229
-0.00801792
0.00196002
-0.00562638
-0.00681962
0.00695452
0.00549148
-0.00292838
0.00755075
-0.00647073
0.00184836
0.00271818
-0.00514493
0.00354576
-0.00111901
0.0098867
0.000267381
-0.0101541
0.00851336
-0.0104846
0.00518966
-0.00321838
-0.0133604
-0.000386017
0.0137465
0.00548483
-0.00454936
0.00106147
-0.00199694
-0.000433499
0.00947658
-0.0103447
0.00130167
-0.00473583
0.00592895
0.00152506
-0.00529167
0.0113368
0.0104747
-0.00898087
0.00890181
7.9059e-05
0.000244261
-0.0141963
0.013952
0.0191832
0.00231042
-0.00407701
-0.0174166
0.00401059
-0.0156416
-0.00193736
0.0135684
0.00303656
0.00358596
0.00202708
-0.0086496
-0.00537846
-0.00538505
7.30148e-05
0.0106905
-0.00256678
0.00352579
-0.00633747
-0.0118216
0.0021362
0.015518
-0.00583255
-0.0232176
0.017003
0.00748537
-0.00127073
0.0102662
8.46213e-05
-0.0103509
-0.00585513
-0.00788025
0.00509518
0.0086402
-0.00585683
-0.00850243
0.00253763
-0.00842037
0.00457278
0.00529192
0.00342577
-0.00445604
-0.00817992
0.00921019
-0.00575472
2.69085e-06
0.00575203
-0.0134578
0.00546974
0.00555772
0.00243036
0.00338763
-0.00906679
-0.00274121
0.0115559
-0.00366716
-0.00029035
-0.00759842
-0.00776275
0.0128624
0.007633
-0.0127326
-0.00229266
-0.00480603
0.00178465
0.00531405
-0.00326556
-0.00262656
0.00589212
-0.00570893
-0.0120007
-0.00550803
0.00269197
3.51181e-05
0.00543216
-0.00815925
0.0109936
-0.00800645
-0.0115769
0.00858981
-0.00407973
0.00145459
0.00824143
-0.00561629
0.00771246
-0.00542926
-0.00076446
-0.00151874
-0.00884348
0.00143603
0.00690767
0.00049979
-0.00547659
0.0125784
-0.0136386
0.0053176
0.000394097
0.00792686
0.0128268
-0.0102534
-0.00807023
0.0054969
-0.0102045
0.00212514
0.0190729
-0.00988704
-0.00652044
0.0106417
0.00576579
-0.00115497
0.0102986
-0.00390747
-0.00523611
0.000588428
-0.00609861
-0.00402047
0.00953065
0.0117248
-0.00773507
-0.000475864
-0.00351387
0.00363269
0.00271441
-0.00891387
-0.00246547
0.00279078
0.00688161
-0.00720691
-0.00205113
0.0107115
-0.0132015
0.00454108
-0.00644999
0.00155622
0.00156072
0.00333305
-0.014093
0.0143337
-0.000240754
0.00972342
-0.00958575
-0.000137672
0.00391252
-0.0151034
-0.00579994
0.0169908
0.00345503
0.00656726
0.00153363
-0.000164885
0.00572999
-0.00556511
0.00923382
0.00827523
-0.0175091
-0.0102008
0.0062274
0.00440165
-0.000428255
-0.0057285
0.00188789
0.00465728
-0.000816667
-0.0171777
0.00801766
0.00942215
-0.000262111
-0.00555136
-0.00619122
0.00598786
0.00883877
-0.00139435
-0.00569079
-0.00175363
-0.00945771
0.010214
-0.00623287
0.00167621
-0.0106403
-0.000544104
0.00950817
-1.29789e-05
-0.00524089
0.00525387
0.0256813
0.000195607
0.00273921
-0.0286161
-0.000966695
-0.00189754
-0.0139726
0.0168369
0.00444597
-0.00602012
-0.00280294
0.00437708
0.00173321
0.0132894
-0.00537704
-0.0096456
0.014483
-0.0144901
-3.16484e-05
3.87268e-05
-0.00812892
-0.00733556
0.011465
0.00399947
0.00474389
0.00362757
-0.00945217
0.00108072
6.63787e-05
0.00879852
-0.00899076
0.000125864
-0.0121039
0.00387839
0.00980888
-0.00158336
0.00927491
0.0056069
-0.00938968
-0.00549214
0.000219798
-0.00828234
0.00420355
-0.0021566
0.012436
-0.00667948
-0.000869069
-0.00104057
0.00858912
-0.0111819
0.000583107
0.0105988
0.0163695
0.00707028
-0.00530222
-0.0181375
-0.0106904
0.000230081
0.0106801
-0.000975536
-0.0025389
-0.00648315
0.00999758
-0.00127179
-0.00128726
-0.00344962
0.00600867
0.00269408
-0.0136694
0.0103065
0.000668817
0.00849731
-0.00132514
-0.00826869
0.00109652
-0.0104833
0.00218687
0.000838114
0.00745836
-0.00399686
0.00262476
-0.00542792
0.00680003
0.002298
0.00145697
-0.0135318
0.00977687
0.000472786
-0.00918033
-0.000638506
0.00934604
0.00909964
0.00119328
-0.000156836
-0.0101361
-0.0108614
0.00253076
0.00982808
-0.00779616
-0.0103491
0.0181453
0.0150446
-0.00765277
0.00324295
-0.0106348
0.00118302
0.00843469
-0.00517174
-0.0121762
0.00223617
0.00431894
0.00562113
0.01503
-0.0154881
0.000458132
-0.00912323
-0.0030976
0.00638649
0.00583434
-0.0118228
-0.0091814
0.00615687
0.0148473
0.0122512
-0.0127949
-0.00156602
0.0021097
-0.00178049
0.00595015
-0.00469036
0.000520704
-0.0153892
0.00501795
0.00353514
0.00683615
-0.0226586
0.0281739
0.00469036
-0.0102057
0.0101128
-0.0219247
-0.0011301
0.012942
-0.00899627
0.0114469
-0.0212098
0.0187592
-0.00942258
0.0207488
0.00206385
-0.0133901
0.000830005
0.00986257
-0.00230278
-0.0083898
0.0149986
-0.01125
-0.000378157
-0.0033704
-0.00262663
-0.00252206
0.00385536
0.00129333
-0.00707826
-0.0147371
0.01258
0.00923532
-0.0100601
0.0134
0.0116588
0.00820787
-0.00603363
-0.00752029
0.00534605
0.00301417
-0.00390032
-0.00172224
0.00260839
0.00666918
-0.00659717
-0.00878622
0.00871422
-0.00270435
0.00775907
-0.000561537
-0.00449319
-0.0107734
-0.00172074
0.0133241
-0.00810753
-0.00199352
0.0100231
7.79413e-05
0.0033381
-0.00745753
0.00411943
0.00265226
-0.00352203
0.0131225
-0.0122528
0.0102731
-0.0144505
0.00209538
0.00208206
0.00655077
-0.00706765
0.000516877
-0.010335
0.000274834
0.00922077
-0.00351505
-0.0088997
0.00319398
0.00290428
0.00235345
0.0103165
-0.0155742
0.00639987
-0.0069485
0.000548633
-7.92936e-05
0.00801307
-0.00905814
0.00112437
-0.0113509
-0.00109355
0.0150967
-0.00488586
-0.000834919
0.00112874
0.00459204
0.000675115
-0.00557771
0.00411467
0.000787923
0.0091426
-0.00875064
-0.00217245
0.00105422
0.0151563
-0.00954745
-0.00666309
-0.0052066
0.0110006
-0.00579397
-0.0141051
0.0054014
-0.00330769
0.0120114
0.0111044
-0.0100637
-0.01643
-0.00542601
-0.00648997
0.0223076
-0.0103916
-0.015874
0.0101116
0.0144152
-0.00865288
-0.000350716
-0.0135423
0.013893
0.0214853
4.29019e-05
-0.0123815
-0.00914668
0.0124566
-0.00802284
-0.00110604
-0.00332775
-0.00908425
0.00644997
-0.00162645
0.00426073
0.000123032
-0.00934756
0.00922453
-0.00680902
0.0070084
-0.000199378
-0.00495534
-0.00524089
-0.0134227
0.0236189
-0.012641
0.00275679
-0.00141277
0.011297
0.00294229
0.00477496
0.0130015
-0.0117309
-0.00970139
0.00843075
-0.00360156
-0.00742747
0.00818954
0.0028395
-0.00748189
-0.00380518
0.0112983
-1.11877e-05
0.00245447
-0.00141282
-0.00694275
0.0059011
0.00825805
0.000367585
-0.0105579
0.00193222
0.00254778
-0.00177162
0.00274499
-0.00331164
0.00329927
-0.00273261
0.00675663
0.00661442
-0.00675565
-0.00661539
0.00332266
0.00776239
-0.00803256
-0.00305249
0.00702426
0.00304514
-0.00552741
0.00872617
-0.0105805
0.0022219
-0.0116054
0.00811368
0.00436894
-0.000877228
0.0137592
-0.0045585
-0.0144073
-0.00367575
0.00983967
0.00494052
0.00959427
-0.00467328
-0.00808655
-0.00220537
-0.00131348
-0.0128982
0.01207
0.00113391
-0.000305733
-0.000803318
0.0161249
-0.00167095
-0.0136506
-0.0104975
0.00213624
0.00468548
-0.00168256
-0.0106257
0.00298605
0.00932216
0.00963637
0.00133731
-2.77625e-05
-0.0109459
-0.0143905
-0.000118377
9.65343e-05
0.0144124
-0.0037146
0.00406037
-0.0066128
0.00626703
-0.00990563
0.0125308
-0.00129749
-0.00132766
0.0130189
-0.0121573
-0.0107672
-0.00962738
0.00868352
-0.00275475
0.00369861
0.00775411
-0.000349392
-0.00243902
-0.0049657
-0.0145654
0.0140443
0.00688542
-0.00636439
0.00693584
0.00264164
-0.00088076
-0.00869671
0.00248415
0.00629817
-0.00787486
-0.000907461
-0.00466169
0.00468926
-2.75706e-05
-0.0027287
-0.00696647
0.00699083
0.0105827
-0.0104923
-9.04393e-05
-0.00593626
-0.00473346
0.00464961
-0.000624073
-0.00712682
-0.00078474
0.00853563
-0.000811716
-0.00625061
0.00558733
0.00147499
0.00976647
-0.0111007
0.00133425
-0.012505
0.0128383
0.0117464
-0.0120797
-0.00842582
0.00650862
-0.00443291
0.00635011
-0.00338258
0.00144543
0.00306322
-0.00112607
-0.000355678
0.0152164
-0.000133401
-0.0147273
-0.00772217
0.00374367
0.00380277
0.00441764
0.00562228
-0.0098087
-0.000231215
0.000424926
-0.0121881
-0.000477598
-0.0109941
0.0109946
-4.23628e-07
-0.00740326
0.00372775
-0.00814726
0.00249609
-0.00552307
0.000224044
0.00484454
0.00210359
0.00725429
0.000141332
-0.00620368
-0.00119194
0.00607275
-0.0151574
0.0121515
-0.00306692
0.00252004
-0.00343574
0.0127802
-0.0118645
0.0156576
0.0046165
-0.00241045
-0.0178637
-0.00397781
-0.00651452
-0.00211345
0.0126058
0.00473969
0.0197545
-0.0178358
-0.00665841
0.00227562
0.0143182
-0.0138204
-0.00277342
-0.00491006
0.000648715
0.0100634
-0.00580202
-0.001731
0.0140539
-0.00758317
0.0101672
-0.0080283
-0.00313188
0.00099297
0.00332823
0.00870627
-0.0120345
0.00812218
0.00180277
-0.00108185
-0.00884309
-0.00746826
0.00596858
0.000600374
0.000899298
-0.000728333
-0.0106055
0.000619422
0.0107144
-0.00778211
-0.000988074
-0.00032406
0.00909425
0.00446842
-0.00990679
9.85116e-05
0.00389446
0.00591382
8.41566e-05
0.00643059
-0.00651475
0.000799475
0.0113309
-0.0289506
0.0168202
0.00320938
-0.00808827
0.00768473
-0.00280583
0.00460644
0.00525816
-0.00364175
-0.00622285
4.61637e-05
-0.0057756
0.00572943
-0.00313714
-0.00222797
0.01271
-0.00734486
-0.00388962
0.0129919
-0.0112124
0.00211013
0.0141361
-0.00982223
-0.00948581
0.00517194
-0.00580167
0.00394349
0.00180303
5.51427e-05
-0.000807744
0.00449142
-0.00240003
-0.00128365
0.0152375
-0.0119093
0.00706395
-0.000817119
-0.0115625
0.00531568
-0.00322486
0.00301587
0.00361323
-0.00340424
0.000181013
0.0145741
-8.85255e-05
-0.0146666
-0.010642
-0.0035051
0.0144255
-0.000278451
-0.0030179
-0.00130083
0.00332112
0.00429286
-0.00631315
0.00860742
0.00606167
-0.012874
-0.00179511
-0.00265051
-0.00173091
-0.011539
0.0159204
0.0151785
-0.0120048
-0.0211495