/*--------------------------------*- C++ -*----------------------------------*\
  =========                 |
  \\      /  F ield         | OpenFOAM: The Open Source CFD Toolbox
   \\    /   O peration     | Website:  https://openfoam.org
    \\  /    A nd           | Version:  10
     \\/     M anipulation  |
\*---------------------------------------------------------------------------*/
FoamFile
{
    format      ascii;
    class       volScalarField;
    location    "5.4";
    object      SgT;
}
// * * * * * * * * * * * * * * * * * * * * * * * * * * * * * * * * * * * * * //

dimensions      [1 -1 -3 -1 0 0 0];

internalField   nonuniform List<scalar> 
111485
(
9.05661e-18
9.92835e-06
2.75887e-05
1.14451e-18
5.81612e-05
3.72612e-18
5.36615e-05
7.20994e-06
2.24837e-05
1.40305e-06
5.3984e-05
1.11704e-05
5.49386e-06
9.84373e-07
7.64343e-06
3.71255e-05
1.63401e-06
0.00305025
1.24193e-05
3.71872e-18
9.7353e-18
1.24205e-18
3.0528e-05
4.20488e-05
1.03785e-05
8.65312e-19
4.79736e-05
2.13979e-06
1.90312e-05
1.2449e-18
5.41222e-05
2.22898e-05
1.71615e-17
3.27e-18
8.97722e-06
1.25743e-16
1.29763e-05
4.88663e-06
5.57562e-11
2.73877e-05
2.08561e-17
8.50339e-05
1.8785e-05
1.60826e-06
6.20743e-08
4.11654e-17
3.70574e-05
8.62132e-07
5.67876e-05
2.75149e-18
2.65988e-18
8.67103e-17
2.8758e-17
5.87235e-05
1.16702e-17
5.18008e-05
3.91999e-06
9.58272e-18
2.77184e-08
5.68759e-06
1.91668e-05
2.3353e-18
5.34772e-06
0.000113621
2.019e-17
4.0325e-06
0.0003759
0.000113949
1.23047e-06
6.86727e-06
1.27789e-08
7.33231e-06
7.21644e-18
3.24512e-06
1.66984e-18
8.22744e-07
2.21864e-17
5.00986e-05
3.38672e-18
8.21672e-17
7.62838e-09
4.00901e-05
2.11932e-17
3.08595e-18
1.0564e-05
4.91645e-06
5.13711e-13
2.94458e-05
6.65901e-08
8.54564e-06
4.44705e-07
4.91272e-05
1.3448e-05
7.20564e-08
6.41644e-05
2.51325e-18
2.74191e-19
2.0007e-06
2.50469e-11
1.48919e-06
6.06408e-18
2.23349e-05
2.81555e-18
2.28518e-05
5.64865e-06
8.26237e-18
1.27796e-18
9.09041e-06
4.55397e-06
9.2743e-11
6.93593e-06
5.77593e-06
4.22942e-06
3.62149e-06
1.41648e-17
3.88901e-08
2.08246e-18
1.36676e-16
1.47046e-05
2.665e-17
3.82675e-19
1.57713e-16
4.52006e-17
1.17067e-17
2.10226e-06
3.35259e-09
6.4515e-18
1.92175e-06
4.83741e-19
5.97345e-08
1.54069e-06
3.75022e-05
1.7986e-17
3.05126e-16
1.58096e-17
5.86613e-05
3.95114e-18
5.04238e-05
2.95293e-05
3.20735e-06
2.62464e-07
2.39117e-06
2.66001e-05
3.41131e-06
4.62826e-06
1.52747e-05
7.7677e-17
2.31848e-18
1.47311e-18
3.29825e-05
2.00354e-06
2.85061e-18
2.27454e-10
5.94233e-06
5.53992e-10
1.25956e-05
1.9851e-05
1.24084e-05
9.41453e-11
7.89471e-18
1.36051e-18
6.27867e-05
2.86142e-05
2.6866e-09
4.02399e-10
6.65167e-06
4.30549e-06
1.39076e-17
6.51697e-09
5.93529e-08
2.76177e-19
8.24257e-18
1.64853e-07
1.44602e-18
6.98692e-06
2.59888e-06
3.16956e-18
1.0888e-17
4.17409e-18
4.9584e-17
7.78252e-19
3.14904e-19
1.70542e-06
8.16359e-06
3.4895e-05
5.05158e-06
8.65324e-06
4.58931e-06
1.00112e-07
1.09506e-18
5.45894e-06
1.28365e-19
1.83646e-18
7.51463e-06
1.2778e-05
3.17244e-05
1.3046e-05
5.74513e-06
9.8836e-18
7.70966e-06
6.39107e-07
5.33947e-08
1.57586e-05
2.77477e-06
1.74041e-17
4.30156e-06
3.15185e-05
9.4581e-18
2.18886e-07
9.02192e-06
2.5552e-06
4.09576e-07
5.71214e-18
2.93224e-18
9.40082e-06
9.81676e-15
0.000145168
4.57042e-17
7.67065e-06
2.37792e-05
0.000144848
4.49916e-18
3.58173e-06
1.62077e-05
3.40688e-16
1.19644e-18
6.91343e-18
0.000186826
3.82215e-10
4.1374e-17
1.9758e-19
1.12496e-05
9.43178e-06
1.81281e-05
1.67969e-17
1.45328e-17
1.43264e-08
2.19291e-18
3.06156e-06
1.06904e-05
1.86257e-05
1.3548e-05
1.15928e-05
1.77355e-18
3.30927e-10
7.25524e-07
4.59169e-17
9.67422e-18
3.67154e-05
2.50552e-05
1.37612e-17
7.22539e-06
1.23949e-05
2.5881e-18
2.12675e-16
1.67353e-07
1.17758e-18
4.22593e-17
4.96436e-08
7.80306e-18
1.82029e-05
1.33349e-05
4.49215e-06
5.99099e-17
1.37444e-05
6.7228e-19
1.02384e-18
3.10979e-18
2.76851e-11
2.72554e-05
7.14637e-06
6.11156e-06
4.42413e-05
1.41711e-05
1.9597e-06
6.91237e-07
3.98368e-05
1.08819e-05
2.72301e-18
1.89172e-18
3.28555e-10
2.67851e-05
2.87662e-05
1.4752e-05
1.43971e-18
8.24025e-06
2.52935e-06
3.51196e-06
4.15016e-09
4.40251e-09
1.58318e-05
2.61826e-06
2.28542e-06
2.59404e-17
8.53087e-07
1.11488e-17
1.18927e-10
1.90037e-16
0.000300688
8.19891e-05
1.49173e-05
3.01531e-17
1.73364e-17
1.0613e-05
2.04838e-06
1.32251e-17
5.24575e-18
7.66407e-17
3.864e-07
7.15216e-05
4.52578e-06
1.72334e-05
2.29038e-05
3.28973e-17
6.26998e-18
6.63076e-18
4.5005e-06
2.26758e-15
1.20506e-06
0.000224493
4.49051e-10
4.37092e-18
3.65978e-18
6.50582e-19
2.44132e-16
7.08081e-05
1.45121e-05
8.05675e-18
6.11841e-06
9.95741e-17
6.08636e-18
8.15369e-05
6.83057e-06
1.33146e-05
1.0914e-05
1.50918e-16
9.94721e-17
3.6962e-17
1.10113e-05
2.24595e-05
5.94023e-06
5.07348e-18
3.21422e-13
2.11043e-07
2.49466e-06
9.42965e-06
4.97469e-08
3.40463e-05
8.75185e-19
4.48593e-05
4.09373e-06
9.2707e-06
2.92698e-05
1.66695e-05
1.48049e-17
2.47378e-17
7.55899e-18
3.16082e-18
3.80486e-05
1.12846e-05
4.14654e-05
8.06945e-05
1.28904e-17
2.30383e-05
3.35556e-18
1.39208e-17
1.94016e-05
1.33205e-18
7.569e-05
3.81792e-17
6.28396e-18
2.79259e-05
4.06149e-18
1.66158e-05
3.64902e-07
5.76205e-18
1.26042e-06
1.91712e-05
3.35906e-17
1.02789e-05
1.17108e-05
9.48492e-06
7.00127e-07
3.31084e-06
7.05525e-06
1.28849e-16
5.50007e-19
2.01274e-06
5.72095e-17
6.96228e-06
0.000139223
1.32601e-18
6.72629e-17
3.20727e-05
1.40363e-07
9.59447e-06
2.58788e-05
7.76456e-18
5.22016e-05
2.30954e-05
1.74276e-19
9.50594e-07
3.07877e-06
2.8721e-18
1.20188e-17
1.36047e-05
6.22274e-06
2.56144e-18
1.48941e-18
3.06854e-11
1.02942e-18
1.39726e-05
1.12149e-17
3.84098e-18
2.05676e-05
2.23677e-09
1.5275e-05
3.43853e-05
1.55108e-19
1.12834e-16
1.60115e-06
2.50469e-17
1.64129e-07
1.56668e-05
0.000146535
0.00104185
6.1573e-19
3.25569e-06
5.01099e-07
2.65009e-18
4.54798e-05
3.84784e-05
5.27365e-17
1.00136e-11
1.16013e-07
1.41024e-16
2.98204e-05
2.99247e-05
1.74825e-05
5.43642e-18
7.97463e-07
2.21759e-05
2.76106e-05
9.86066e-10
3.38045e-17
6.92109e-13
8.55778e-18
1.71559e-08
3.76978e-05
2.28967e-17
1.05766e-05
1.04685e-07
1.40541e-16
6.90931e-18
1.34989e-17
1.55689e-17
4.73077e-06
1.16384e-05
7.99409e-06
2.6666e-06
3.49281e-06
4.20487e-17
2.48366e-06
5.9876e-18
4.6761e-05
3.01042e-18
2.96817e-18
1.81731e-18
4.21244e-05
3.83158e-17
6.328e-19
2.74117e-10
1.48743e-19
6.7725e-18
1.19513e-06
2.41008e-17
3.81339e-17
9.54536e-18
5.02249e-18
9.18683e-18
1.95335e-17
1.62071e-17
8.89876e-06
5.93614e-17
5.72244e-07
2.20455e-06
1.32983e-06
7.31208e-19
9.23939e-07
3.53707e-17
2.27217e-19
3.42086e-06
2.24706e-06
3.3419e-05
2.89206e-05
2.979e-17
2.43413e-06
9.46469e-05
1.02398e-05
1.26144e-06
4.01616e-06
1.20611e-18
2.80044e-05
1.21943e-16
5.66856e-06
1.21744e-17
8.88179e-05
4.98772e-17
2.59256e-05
2.84423e-07
3.07742e-10
3.56923e-17
2.47204e-06
1.69366e-19
9.55877e-05
5.7252e-05
8.70372e-18
5.51971e-18
6.11583e-17
4.0753e-18
1.63133e-12
6.55798e-05
1.47536e-19
3.60469e-17
3.15185e-06
2.42272e-18
3.92167e-05
7.23337e-18
3.91907e-07
1.1611e-17
6.1879e-07
1.18123e-09
1.27423e-06
1.56872e-05
1.38288e-17
4.63134e-07
1.52415e-18
2.71369e-18
1.85784e-05
1.4359e-17
3.88753e-08
2.20368e-17
1.86561e-06
2.12831e-18
7.80265e-05
6.35438e-18
1.83175e-17
1.98005e-05
4.18598e-06
2.01412e-06
4.82261e-06
7.83027e-06
2.50919e-05
6.21526e-18
2.83066e-05
7.72348e-06
5.64345e-18
9.54069e-11
4.53292e-05
1.70953e-05
3.5385e-17
5.3359e-06
7.55179e-06
1.89932e-06
1.38577e-06
2.73246e-13
1.64515e-05
1.34813e-06
1.75722e-07
2.96575e-05
1.66205e-05
8.58401e-07
5.01528e-17
3.73534e-12
0.000770588
4.72386e-18
4.5527e-07
3.44692e-18
6.9989e-17
8.80554e-06
3.64667e-06
2.35728e-10
1.5799e-08
1.47319e-16
2.04597e-05
1.32173e-05
7.94065e-18
1.0173e-13
2.47864e-06
2.92538e-18
4.76762e-18
1.68719e-19
1.90167e-19
1.66721e-05
1.69936e-17
6.74665e-18
1.09272e-05
2.48037e-06
4.58134e-17
1.23978e-05
2.94973e-17
1.0237e-05
6.33399e-18
4.18824e-17
6.51236e-05
1.54928e-17
3.75873e-19
1.03097e-16
5.47717e-06
3.82897e-17
3.62587e-05
7.53136e-06
4.36775e-18
9.9032e-05
3.05926e-06
3.33438e-05
3.26157e-05
7.48094e-07
9.92637e-08
2.39418e-17
6.59514e-05
5.37931e-05
5.0594e-17
3.74526e-07
4.79779e-05
8.83829e-06
1.78687e-06
3.25976e-05
3.08419e-05
3.00542e-17
1.26793e-05
5.8654e-09
3.88339e-17
4.04928e-05
3.20962e-07
5.71716e-17
1.31124e-05
4.76134e-05
1.69214e-06
2.46408e-05
2.26064e-05
8.54946e-06
6.29094e-17
1.18857e-05
4.06268e-07
2.84154e-14
1.96402e-05
2.02882e-05
4.28522e-05
3.32129e-17
2.3339e-06
3.84689e-17
4.15508e-18
5.85536e-18
5.46268e-18
1.79588e-08
5.63846e-17
2.68898e-13
6.37573e-18
1.23443e-18
8.25495e-08
5.08148e-05
1.61033e-17
3.99763e-05
1.41712e-17
1.00593e-17
7.97142e-18
4.72043e-05
5.20737e-07
7.58372e-17
8.3497e-17
9.08864e-18
5.51853e-19
0.00026199
8.27961e-05
5.03372e-17
2.28277e-06
3.07228e-09
8.65575e-18
4.40116e-05
9.31041e-06
1.50149e-05
3.32467e-18
3.53082e-17
4.88938e-07
1.28888e-06
1.08789e-16
2.12595e-17
1.89647e-17
8.60139e-06
5.86898e-18
8.63122e-17
1.10883e-17
4.89902e-05
2.28582e-06
4.16437e-18
0.00479354
0.000323318
1.25194e-05
2.8603e-18
2.27178e-18
6.7046e-05
4.47227e-07
2.43318e-18
8.42463e-09
0.000154827
3.12188e-06
1.38229e-05
4.89384e-17
6.55065e-05
2.12819e-06
1.29829e-17
7.61369e-19
9.61318e-18
1.79997e-17
1.4167e-18
9.11259e-20
2.54818e-05
7.49222e-18
8.93431e-18
2.08413e-17
1.40291e-05
2.8088e-05
1.16339e-17
2.39883e-18
0.000126986
1.67695e-05
1.1257e-05
8.8084e-17
2.38278e-18
4.349e-05
7.77666e-19
2.24369e-06
3.05436e-06
4.51585e-06
2.37256e-18
5.55563e-19
1.06072e-17
4.58331e-18
1.82965e-05
3.04097e-18
3.18768e-18
1.13667e-06
8.00627e-18
2.67907e-05
2.06645e-06
1.6151e-17
4.42288e-05
0.000527123
2.96284e-06
3.51515e-05
1.89081e-07
5.43721e-05
1.54252e-13
2.54912e-16
2.75365e-05
8.53719e-05
7.31842e-06
1.7518e-17
1.03239e-12
0.000836837
1.20411e-05
5.02262e-18
3.18664e-06
3.28825e-06
1.51191e-06
5.66334e-17
2.2697e-18
2.67643e-17
1.56171e-05
1.78336e-16
3.0136e-06
2.64043e-17
1.55985e-06
1.61942e-06
4.28869e-05
6.75242e-07
1.14575e-17
2.89588e-19
8.96681e-18
2.44109e-05
9.13728e-19
6.30952e-18
6.95817e-08
1.11044e-17
7.91515e-18
6.33822e-18
3.14538e-18
1.13552e-05
6.75621e-18
4.6864e-18
6.13994e-13
8.28221e-17
2.43114e-17
3.84029e-17
8.82277e-18
3.65001e-09
1.90255e-06
1.21117e-17
4.54138e-06
9.06769e-09
3.94017e-10
7.67261e-08
5.01736e-06
2.53201e-17
1.13012e-08
1.16057e-05
4.75555e-07
9.30336e-18
1.93064e-12
9.56655e-07
1.70314e-17
1.12641e-05
2.3963e-07
2.09343e-09
2.88672e-05
1.09044e-05
2.69068e-06
6.24289e-06
2.39629e-06
1.13562e-17
3.64654e-18
3.79891e-05
3.05949e-05
4.30197e-17
9.68853e-06
6.48382e-05
3.37778e-05
3.3498e-18
1.6297e-06
6.06275e-18
1.23078e-05
1.64957e-05
1.42021e-18
1.81302e-06
5.55256e-07
1.51314e-09
5.67384e-06
4.37109e-18
5.79126e-05
1.88601e-08
1.92026e-06
4.06367e-08
1.541e-08
3.48651e-18
4.51012e-18
8.88891e-06
4.19172e-18
1.33641e-07
3.27216e-07
2.4216e-07
5.97817e-11
9.44519e-11
9.74283e-10
7.27388e-18
3.65152e-17
2.7407e-05
8.35901e-18
2.99041e-07
2.53282e-06
7.70264e-18
3.15375e-18
6.75236e-10
1.00331e-12
1.72623e-18
5.2723e-09
1.66462e-18
1.05937e-17
8.78101e-18
4.10016e-18
1.02877e-17
2.94131e-18
3.56635e-07
5.19087e-19
5.44178e-18
2.00124e-17
7.75998e-09
6.66283e-08
2.19712e-06
1.10685e-05
3.56238e-19
2.33193e-19
2.19172e-07
2.56865e-18
6.16414e-18
1.76028e-17
2.25583e-05
5.03911e-05
2.54992e-18
5.98258e-18
5.91509e-18
6.14893e-18
5.6468e-19
1.68071e-18
8.79938e-06
8.77495e-19
5.14945e-11
3.20998e-05
1.59212e-17
3.46569e-17
2.40802e-18
2.79686e-08
1.8663e-18
2.95228e-19
4.79858e-18
9.79762e-09
2.39605e-19
5.50903e-06
1.21415e-09
6.20046e-12
1.2398e-18
7.6385e-08
2.62285e-06
5.29031e-05
5.15003e-17
8.18217e-09
7.09055e-06
5.62312e-18
1.62163e-18
9.05144e-17
1.3135e-18
9.84125e-06
2.08353e-06
4.13903e-06
2.08919e-10
2.9447e-18
2.687e-05
1.29185e-18
3.13628e-17
5.74331e-17
1.57746e-17
3.11113e-05
1.38948e-17
5.37368e-18
2.28727e-09
6.04617e-05
1.27348e-18
3.04836e-06
2.65557e-17
1.09841e-06
5.74573e-17
6.40048e-19
4.38557e-17
1.81548e-17
3.02981e-06
7.57915e-07
0.000383373
3.37754e-18
6.76341e-18
2.53255e-06
4.18167e-18
8.19234e-17
1.88838e-17
4.57552e-05
9.52854e-09
3.70605e-05
1.46101e-17
1.09491e-08
5.09275e-08
8.67044e-17
1.25984e-07
1.9277e-18
1.61498e-06
3.10418e-05
2.40217e-05
1.56043e-06
3.05602e-07
1.24019e-17
1.09209e-17
7.12972e-18
2.30765e-08
8.37471e-18
8.12351e-06
3.66143e-17
0.000211941
1.20595e-18
4.96658e-05
3.85093e-06
4.89065e-18
1.88179e-18
7.79329e-17
3.97962e-17
4.56452e-05
1.40241e-17
1.08309e-16
1.46187e-05
7.7155e-06
1.12174e-16
3.7052e-17
1.4919e-16
8.39311e-17
1.31004e-18
6.01447e-19
2.89702e-05
5.27823e-07
4.21199e-18
9.80249e-19
5.401e-10
2.30659e-18
1.84423e-06
1.33715e-07
7.70638e-18
3.84971e-06
6.53379e-19
4.2599e-07
2.59967e-19
1.21713e-06
6.80427e-19
1.05497e-10
2.47666e-09
8.25401e-07
2.0248e-05
3.8256e-05
1.35421e-09
1.18028e-18
5.62021e-07
6.53454e-18
5.34538e-06
2.41611e-18
1.53264e-17
1.96352e-17
1.15785e-17
1.94652e-17
5.0116e-17
8.04085e-06
8.93122e-06
2.80718e-18
2.13998e-17
2.52485e-17
8.13383e-07
1.69435e-08
7.2863e-19
2.19127e-05
2.2865e-07
5.66023e-19
2.76325e-05
9.74741e-06
4.13286e-06
1.44418e-05
8.42515e-18
1.68385e-17
1.99176e-18
1.7865e-17
4.38519e-05
1.98935e-17
0.000132717
3.03511e-18
3.33142e-07
8.74312e-07
2.26106e-18
1.01934e-06
6.02564e-18
8.24502e-18
3.34007e-06
2.86847e-11
9.80974e-06
2.4077e-18
5.96072e-18
9.31447e-20
9.28409e-07
3.98419e-17
9.55181e-18
1.75684e-17
3.97687e-10
7.18063e-17
9.67397e-09
2.05582e-17
1.33596e-17
8.88325e-19
2.17337e-05
1.17253e-05
2.16921e-05
4.25045e-05
2.8445e-17
1.61748e-08
1.80606e-18
3.3038e-18
1.21503e-05
2.28619e-18
2.83486e-09
3.83458e-07
7.81446e-06
3.84453e-07
1.1605e-12
2.4524e-06
2.33001e-17
1.29853e-12
7.0825e-13
1.36282e-07
1.05342e-06
1.73761e-05
8.35487e-11
2.36264e-17
3.66637e-05
3.95676e-18
8.79491e-19
2.03162e-08
8.91142e-05
8.04546e-11
7.95445e-18
9.29553e-18
4.18388e-10
4.45283e-18
2.82671e-18
1.81168e-08
1.6074e-17
4.02514e-18
4.81179e-05
2.31555e-07
1.79323e-07
2.72064e-05
8.68912e-06
6.59901e-19
8.04583e-19
1.44301e-08
4.94085e-06
9.34977e-18
7.98985e-18
1.20939e-05
2.86312e-19
1.48475e-17
5.01414e-17
1.00156e-16
3.36625e-16
0.00308406
1.85643e-17
2.44378e-07
1.61927e-19
2.31488e-05
2.12786e-18
2.45161e-15
1.34459e-17
2.29701e-18
3.35018e-17
1.147e-17
3.63932e-06
1.93909e-18
3.38455e-17
3.08511e-17
1.15115e-17
5.30377e-18
7.31025e-18
1.1727e-05
3.57075e-18
1.31093e-05
3.36851e-06
2.34132e-18
1.89873e-06
2.94551e-18
5.51515e-07
2.23651e-09
4.71194e-06
1.6317e-05
1.08022e-18
1.09287e-07
9.80944e-06
9.08035e-09
3.32969e-18
2.3276e-09
2.19643e-05
5.60345e-06
3.61453e-17
3.13125e-05
8.69612e-18
2.90991e-19
2.77286e-18
2.85347e-19
9.74634e-06
3.91527e-17
3.43142e-18
9.81281e-06
2.23117e-10
3.19154e-06
5.99775e-18
5.78814e-17
7.76865e-07
9.8336e-18
1.0029e-07
7.47289e-18
2.72407e-05
2.3898e-18
2.24388e-18
6.51211e-08
2.0713e-18
1.50728e-07
3.82721e-18
3.21056e-18
5.9405e-06
4.96235e-07
5.79429e-06
1.91476e-05
0.000263489
2.40966e-05
1.13354e-18
2.35758e-16
3.29652e-06
8.07367e-06
4.31647e-05
1.37496e-05
2.7921e-17
1.43191e-05
3.41883e-18
2.91689e-17
1.03126e-05
1.26402e-05
8.15281e-18
1.54759e-05
9.10903e-18
3.30093e-06
1.03628e-05
1.03037e-17
2.27485e-18
1.06576e-18
3.17312e-06
1.90982e-17
4.50434e-17
4.74321e-06
2.48894e-05
4.55596e-09
9.01724e-06
3.55837e-18
1.30597e-18
9.0517e-08
8.8446e-07
4.7534e-19
1.18878e-05
4.25979e-17
3.01639e-06
1.86292e-18
4.3977e-18
1.41956e-05
7.16775e-18
4.85588e-08
4.04878e-06
1.27938e-17
1.20148e-18
4.93341e-06
5.3279e-14
6.34375e-05
2.91924e-17
0.000316405
6.06843e-18
6.88487e-17
1.57538e-17
8.49855e-06
1.62851e-17
9.84809e-18
6.436e-06
4.9318e-17
2.72818e-07
2.15894e-16
1.32873e-17
1.12361e-17
1.46781e-10
9.12834e-07
2.81855e-18
3.06951e-18
4.24392e-05
1.10821e-06
2.48068e-18
5.45124e-07
6.04383e-18
3.55568e-18
1.76778e-09
3.35867e-06
1.47735e-06
1.21503e-17
2.92284e-17
1.13863e-18
4.18643e-18
2.02354e-17
9.73875e-18
2.94286e-18
6.36407e-19
2.4338e-19
5.43874e-18
1.48423e-17
3.6033e-18
5.94517e-17
3.87396e-18
2.74017e-20
3.93272e-18
2.81654e-18
2.5525e-18
3.62916e-17
4.94952e-18
2.68342e-17
2.13043e-05
2.27132e-17
8.70383e-19
1.16374e-17
7.65016e-06
4.79918e-17
2.14697e-18
0.000309709
3.31262e-17
8.53029e-19
2.71715e-05
7.59825e-16
1.55346e-19
7.88409e-06
2.86966e-05
1.38122e-18
2.56041e-06
4.02895e-06
3.47626e-18
1.50951e-05
4.65573e-05
2.06791e-05
3.79404e-06
1.2474e-05
8.61737e-18
1.72059e-18
3.4508e-06
1.26142e-05
3.59194e-06
2.29797e-18
7.37927e-06
1.97723e-06
2.43135e-05
1.24738e-05
7.86058e-07
1.77184e-05
1.27456e-06
1.142e-05
3.38117e-19
3.05236e-05
9.76449e-06
2.03998e-06
1.50316e-06
1.55366e-17
9.82854e-18
3.35103e-17
1.98246e-18
1.79133e-17
1.10459e-05
1.58039e-05
5.84797e-18
8.07836e-20
1.29414e-16
2.23966e-18
4.85759e-18
2.01889e-17
4.29171e-18
1.48859e-17
5.33124e-06
1.76608e-07
2.51107e-05
7.49181e-08
2.38971e-18
5.88996e-17
3.76651e-05
6.6695e-09
5.96787e-19
4.86579e-17
8.43512e-06
2.47743e-17
4.06583e-18
4.86748e-09
9.10198e-06
1.5829e-05
3.82503e-05
3.78837e-05
3.90657e-18
1.67812e-05
3.70147e-07
2.5752e-17
1.31038e-17
1.33768e-05
9.1223e-18
3.65785e-19
2.29011e-05
0.00123183
1.95476e-07
3.93027e-17
7.07258e-19
1.91264e-05
2.49708e-05
2.03766e-05
6.62697e-06
4.02174e-06
4.07764e-18
1.17584e-09
3.00783e-12
4.98898e-17
2.31159e-17
2.01003e-05
1.90525e-18
2.34624e-06
3.0098e-05
1.98496e-05
1.37672e-05
1.83451e-18
6.74574e-06
7.11052e-18
1.58135e-17
1.68189e-18
5.5252e-19
2.93724e-06
0.000991358
3.7255e-18
3.95005e-18
4.57072e-09
2.74141e-05
1.04424e-06
7.93683e-06
3.85037e-05
5.50291e-06
2.31341e-05
4.88303e-18
2.69897e-17
3.91876e-17
3.59609e-05
6.51786e-06
3.07517e-11
3.5486e-19
2.39871e-18
3.51354e-17
2.5332e-05
3.18584e-06
5.71096e-18
5.53145e-06
6.45976e-05
8.18659e-06
6.99061e-06
3.40964e-18
3.35579e-17
7.92324e-06
2.65403e-05
1.16538e-17
3.62179e-07
1.64009e-05
1.12198e-06
1.08211e-05
5.29843e-06
9.24654e-06
1.03706e-16
3.98591e-06
2.36705e-05
4.29946e-05
6.1369e-13
2.66891e-05
1.33391e-16
1.91937e-05
1.69543e-07
1.18587e-17
2.95253e-06
8.28253e-06
4.14993e-07
1.30218e-05
1.107e-09
1.70554e-07
1.92493e-08
4.13379e-05
4.05984e-06
8.76633e-18
4.51101e-05
1.38764e-06
6.46125e-18
2.23329e-19
4.49447e-11
1.00529e-08
1.17211e-06
0.00126916
3.99999e-05
1.2441e-05
2.54476e-10
4.93994e-05
2.07906e-18
4.41912e-17
4.67376e-06
9.43514e-18
2.44301e-06
5.44023e-06
2.37769e-06
5.37631e-06
6.08931e-18
2.46008e-07
0.000124691
4.07895e-18
3.06568e-05
8.37876e-06
2.45206e-18
4.38272e-06
2.04566e-07
7.49336e-18
6.65498e-12
1.04658e-07
2.72229e-17
5.07462e-19
4.7e-17
5.03178e-06
5.09839e-06
1.62638e-05
1.84986e-17
5.87702e-06
3.72755e-05
1.53162e-17
8.91055e-06
1.37988e-05
2.83405e-05
1.6966e-06
1.79687e-18
6.74281e-07
1.07858e-05
1.16359e-05
9.95456e-06
4.35415e-05
0.000185754
3.80465e-06
2.60983e-18
7.50237e-09
5.89226e-05
1.79604e-18
4.58901e-07
1.70996e-17
1.5724e-18
6.71601e-18
5.45887e-18
2.68741e-18
3.64286e-06
2.1415e-18
7.79644e-06
1.44789e-06
8.78823e-18
4.62851e-06
1.48902e-16
1.64022e-05
1.142e-18
2.04777e-08
1.31401e-17
2.49492e-05
1.6467e-07
2.31605e-09
4.52838e-06
3.30524e-05
1.94126e-05
4.42762e-06
3.00651e-05
5.68077e-15
2.47881e-05
6.15256e-05
1.03004e-05
3.20206e-18
1.33206e-06
3.26699e-07
6.19773e-06
1.24564e-05
7.25582e-07
7.87955e-18
6.24555e-17
6.70219e-18
4.29397e-06
4.21283e-18
1.59333e-07
2.55182e-07
1.27704e-06
3.11273e-07
5.42692e-18
7.15608e-18
1.74802e-17
9.52247e-06
2.41717e-05
1.47584e-06
9.56704e-09
2.16226e-06
7.66767e-06
2.2299e-06
9.54075e-07
7.9694e-06
6.61276e-06
2.89464e-06
8.08798e-18
8.10019e-18
2.79592e-17
1.54903e-05
1.23204e-05
1.64742e-17
3.99353e-18
1.17644e-16
9.18236e-06
2.18196e-05
7.81748e-18
2.3753e-06
3.16713e-20
6.51273e-10
5.63495e-06
9.74896e-05
9.58417e-19
4.04029e-19
4.26502e-06
3.52168e-18
7.57088e-08
1.34882e-05
3.00941e-17
1.20292e-05
3.73726e-05
2.05321e-05
1.36709e-18
1.31949e-06
4.61206e-17
8.99965e-08
5.53719e-05
8.25003e-18
3.36909e-17
1.25431e-05
3.7174e-16
1.03911e-17
4.5642e-08
1.16699e-06
1.28644e-17
7.82897e-18
3.37282e-17
6.66591e-08
1.47723e-06
3.68504e-06
2.75309e-05
1.0449e-05
2.048e-18
7.19807e-10
6.92217e-07
9.75148e-18
8.90657e-19
5.5558e-18
7.85339e-18
1.51588e-17
2.0316e-17
7.849e-18
3.74251e-18
3.98544e-17
3.57441e-17
2.50579e-12
2.21536e-17
4.12578e-07
5.59779e-17
2.02773e-07
9.10988e-17
6.55177e-08
5.24235e-17
5.24385e-19
3.02597e-05
1.03318e-05
1.76427e-17
0.000101803
5.64028e-12
1.97197e-13
4.25903e-18
1.4259e-06
6.55215e-15
2.94652e-06
6.53683e-09
1.04202e-06
9.80474e-18
1.43526e-17
9.33853e-07
3.69155e-11
1.95058e-18
2.47378e-17
4.39805e-05
3.36709e-17
4.18473e-05
6.5494e-17
8.05744e-18
1.6107e-09
3.15775e-05
9.40181e-06
3.20381e-18
3.68818e-07
8.82174e-17
2.67615e-06
1.88163e-08
2.09318e-06
9.62438e-07
7.7911e-18
2.29174e-05
1.22833e-06
5.73797e-06
5.45829e-18
2.06305e-18
2.91226e-19
1.49341e-05
4.51769e-06
5.72757e-05
4.99137e-19
4.43698e-10
4.61571e-19
9.00387e-19
1.35354e-17
1.56741e-18
3.41687e-06
2.24053e-06
3.19554e-06
0.000354209
7.98371e-17
3.17651e-05
4.00438e-05
1.99169e-05
1.75328e-06
2.63315e-17
6.18712e-06
4.71461e-06
5.51266e-06
5.11346e-10
1.14813e-05
1.04955e-17
1.83757e-06
1.29442e-06
3.67711e-05
1.17413e-09
3.50927e-06
4.40318e-18
2.05483e-05
1.30066e-17
3.05775e-18
1.84114e-06
4.03969e-18
7.36637e-06
4.5334e-18
2.17984e-18
4.04228e-17
1.5185e-18
1.3304e-17
8.36202e-07
2.19655e-17
6.6158e-07
1.69803e-17
2.11836e-17
2.09333e-05
6.2637e-06
8.73642e-06
8.81285e-06
1.38713e-17
0.000655759
1.55e-18
7.90633e-05
2.90473e-18
2.06462e-05
2.52071e-05
2.51802e-06
6.41042e-05
1.83184e-17
1.50876e-17
2.51e-19
2.45428e-06
8.06811e-18
1.14708e-17
2.00272e-05
4.12057e-18
3.97572e-18
5.6836e-06
3.42755e-18
1.45094e-05
8.46892e-11
6.4197e-18
6.38637e-18
5.41901e-18
1.78877e-06
7.42038e-06
5.05274e-18
2.56533e-05
3.57468e-07
2.55815e-17
0.000115228
1.74942e-17
1.79925e-05
2.04046e-05
3.79155e-06
1.72304e-17
2.01185e-05
1.07199e-05
8.99195e-07
5.67429e-06
1.38868e-05
8.33005e-18
3.08905e-17
1.92943e-09
8.34528e-18
2.55485e-18
1.62362e-18
2.2207e-05
4.93762e-05
4.95543e-06
2.29406e-06
2.19582e-17
5.46506e-05
5.1558e-05
4.78132e-06
2.89957e-06
1.0187e-05
2.37351e-05
2.85084e-06
1.28992e-17
2.95604e-18
6.21414e-19
7.36903e-06
1.17315e-17
2.86106e-05
1.91011e-16
8.43709e-07
5.30681e-10
2.94036e-06
2.50276e-05
4.19353e-18
4.66118e-19
2.70498e-06
3.98902e-07
4.14338e-18
3.97463e-17
1.58705e-17
3.64499e-08
3.27817e-07
1.52128e-07
8.69474e-07
1.10402e-05
9.94473e-05
3.87945e-18
7.19098e-18
3.18662e-17
4.2692e-06
2.11458e-05
2.27042e-05
3.87997e-05
2.1443e-06
3.09176e-06
4.05208e-18
2.15421e-18
1.46502e-16
3.12194e-18
1.08631e-05
2.5032e-05
8.07797e-18
1.84945e-17
7.00086e-17
9.97616e-18
2.56197e-17
8.09138e-19
1.48888e-05
3.54822e-17
1.19223e-06
0.000437168
2.85171e-18
1.70657e-08
2.55796e-05
7.83451e-07
2.34677e-18
1.11723e-18
5.30624e-06
8.1145e-19
1.56754e-05
1.27409e-09
2.71981e-05
1.88487e-17
2.49034e-15
3.39259e-19
1.64071e-18
6.09735e-18
6.15783e-17
0.000219252
4.35825e-18
6.30488e-06
1.35155e-06
3.28734e-18
1.01345e-17
2.14597e-06
1.69627e-17
1.48921e-17
1.56488e-05
1.11281e-07
2.54679e-19
4.83349e-17
1.80566e-18
1.86498e-05
7.11576e-18
1.12347e-17
4.25088e-07
2.8033e-06
3.31092e-06
1.09896e-18
4.03018e-18
1.03502e-17
4.07925e-06
1.97979e-06
1.40665e-05
4.00675e-06
4.73407e-19
8.74634e-07
1.41574e-05
7.23333e-06
9.64331e-19
1.56761e-17
1.22812e-17
9.95671e-18
7.98711e-18
3.48781e-05
6.44174e-06
5.96224e-06
2.02816e-17
4.8912e-18
1.27824e-18
2.31034e-19
7.75599e-18
1.00393e-09
2.87102e-07
2.61576e-06
3.70224e-19
5.42754e-18
1.06796e-16
3.15844e-12
3.79705e-05
0.000127011
1.40672e-17
2.11086e-12
5.83588e-15
1.05363e-17
2.29357e-17
4.28872e-06
7.72105e-06
5.93327e-18
2.40532e-17
3.20433e-06
1.40027e-18
7.94227e-07
1.28439e-06
0.00243415
1.93768e-18
4.10005e-18
1.38526e-05
5.51665e-07
4.47905e-18
0.000766964
6.45632e-07
7.61911e-06
9.365e-18
1.16636e-17
5.12196e-17
1.48696e-17
8.86838e-06
1.12714e-07
4.71941e-17
2.80399e-05
2.11128e-05
0.0010074
3.44515e-19
1.0392e-18
1.29777e-17
3.04581e-18
7.16091e-06
6.85472e-11
2.2218e-17
4.06396e-17
2.10492e-05
1.06484e-06
5.80324e-06
7.7667e-18
4.62609e-18
3.25112e-05
5.27179e-19
1.71862e-17
2.55508e-18
1.53466e-17
2.56115e-05
5.28157e-18
1.7319e-18
6.82613e-18
2.87645e-05
1.43685e-05
8.92124e-19
5.37862e-18
2.32358e-18
1.74189e-05
1.74014e-10
4.64919e-18
1.74431e-19
1.22026e-17
6.18674e-18
2.69621e-06
1.19486e-05
8.29048e-18
2.38164e-06
1.18119e-06
5.17017e-06
3.29707e-16
8.77184e-18
3.00092e-18
1.66078e-17
7.69085e-20
2.35473e-05
5.1446e-17
1.73372e-05
1.69656e-17
1.64334e-06
6.20212e-17
2.51177e-06
2.10248e-18
4.13476e-18
1.21973e-05
0.000209722
2.80215e-17
3.77761e-06
1.00426e-17
4.08219e-07
5.20162e-18
5.34878e-18
1.75746e-17
4.64402e-10
4.70324e-18
3.86838e-07
1.5814e-18
4.04837e-05
1.35851e-17
1.20443e-16
1.78233e-18
4.74135e-19
8.73257e-09
1.47899e-07
3.90229e-18
5.80645e-06
6.18042e-19
3.44879e-06
2.19329e-05
1.33536e-06
1.8439e-17
4.83652e-09
4.61499e-07
2.16706e-09
5.27468e-06
4.04497e-10
1.7473e-06
2.06635e-17
1.07276e-18
4.59954e-10
6.18032e-06
2.52017e-07
4.31931e-18
1.54642e-17
4.10793e-17
0.000620582
8.76333e-18
4.97544e-18
2.26577e-18
4.381e-19
5.1323e-17
5.60988e-08
1.87588e-07
1.08315e-06
7.05664e-08
6.22763e-16
1.54122e-06
3.49733e-18
6.71323e-06
2.25577e-17
8.33902e-18
2.30818e-18
1.30194e-17
2.25282e-08
7.72937e-18
8.48163e-17
3.21602e-17
1.68254e-05
2.47242e-17
1.90571e-18
1.23294e-05
2.58027e-17
6.9524e-05
0.000124217
0.00059082
9.66509e-18
0.000233809
0.00139173
0.00155528
0.0007697
2.58213e-18
7.78586e-19
5.57008e-06
5.47215e-06
8.39872e-18
7.77861e-06
3.24229e-18
3.6747e-05
8.57357e-17
4.70519e-18
7.23359e-07
2.66579e-17
1.09142e-17
1.08145e-08
4.11875e-08
1.96317e-17
1.79528e-18
2.55326e-09
1.07602e-16
8.45169e-18
2.37431e-08
9.19579e-06
1.58652e-06
5.52033e-18
8.31342e-06
2.57219e-17
3.96584e-06
4.62282e-10
7.81855e-06
9.25461e-18
1.16327e-11
6.07937e-06
1.3567e-18
1.68998e-12
1.36888e-18
3.69287e-05
3.47825e-18
1.13002e-05
5.29052e-18
1.82218e-10
2.12821e-18
1.99303e-17
1.16341e-17
5.55856e-13
2.92322e-13
2.19925e-17
1.38077e-05
9.4334e-06
2.30354e-17
3.13309e-17
3.74602e-05
2.03581e-05
0.000209804
4.23017e-17
7.15838e-08
2.83688e-05
5.24377e-05
6.12047e-11
7.80202e-18
6.51073e-05
2.34165e-18
0.000256117
1.03975e-17
4.28143e-11
4.38977e-11
7.15841e-18
5.74111e-08
9.42071e-18
2.34937e-05
1.45949e-18
8.34222e-18
2.63234e-18
3.38453e-18
1.3358e-17
5.40192e-17
3.38801e-07
2.01911e-06
0.000154474
1.38016e-17
2.2982e-17
4.64789e-05
2.88327e-18
5.33339e-19
1.54933e-18
1.5418e-16
1.68822e-17
6.27723e-06
6.94324e-19
4.00446e-18
2.11778e-19
3.49389e-06
4.61172e-17
8.88459e-18
2.1889e-17
3.42963e-06
2.76416e-18
6.45999e-06
0.000253656
5.47684e-06
5.80501e-06
2.85295e-05
1.25285e-17
8.07787e-18
1.23712e-17
3.295e-06
2.00627e-06
2.39303e-18
4.23858e-16
6.16104e-07
1.51476e-19
1.33503e-17
0.000371404
5.02682e-18
2.48097e-05
3.96238e-18
2.55969e-06
3.87184e-06
4.1967e-17
2.96891e-18
3.64299e-19
2.34121e-17
2.27185e-18
2.152e-05
3.16572e-17
4.87599e-06
1.26537e-17
9.61509e-18
7.23715e-06
4.05053e-18
1.47439e-05
1.84072e-17
2.65765e-18
2.61771e-06
8.54858e-08
0.000154881
1.15085e-17
9.13151e-18
2.68613e-17
4.02297e-06
0.000198966
4.40027e-18
1.35676e-17
1.45854e-17
1.56687e-06
3.32987e-17
2.26425e-05
3.33141e-05
1.07612e-17
3.5478e-19
7.50793e-06
5.27901e-17
3.54531e-17
1.67771e-18
1.70048e-17
2.19859e-17
7.40913e-05
4.52812e-17
1.00458e-17
6.5814e-18
4.86706e-18
3.28504e-18
1.21249e-18
8.94577e-18
5.23704e-18
3.17126e-17
8.54162e-06
4.34855e-17
8.74073e-06
5.85023e-17
2.11161e-18
0.000649316
2.83334e-06
3.15459e-18
8.11435e-18
5.72178e-18
2.49122e-06
6.41542e-17
1.70631e-17
2.40708e-17
1.44701e-17
7.54103e-06
2.28211e-18
4.6971e-06
1.57174e-18
1.11109e-05
8.23112e-18
6.3979e-05
1.03866e-18
2.54781e-18
2.24363e-05
1.20825e-17
1.4827e-18
3.0326e-05
3.19993e-07
1.46108e-18
5.14536e-19
4.20337e-05
1.18229e-05
6.75445e-06
8.45898e-07
1.85693e-06
1.88992e-05
1.01398e-06
5.73636e-06
3.18141e-17
3.00577e-05
1.79966e-17
2.03648e-18
8.34636e-19
3.09134e-17
1.22015e-17
1.07077e-05
1.25589e-17
6.98919e-19
4.94294e-18
2.12107e-09
1.15852e-08
1.44446e-16
2.74969e-06
3.90639e-17
4.56439e-06
9.60068e-19
1.15216e-09
4.10092e-06
4.38133e-16
4.89344e-05
5.78546e-19
1.18691e-18
3.31754e-18
3.09752e-06
1.50906e-06
1.36693e-18
1.03198e-17
2.60909e-06
1.64709e-18
0.000730016
1.1618e-18
0.000109216
5.38132e-18
1.28877e-19
5.90083e-19
1.96794e-17
1.06038e-05
5.66227e-18
4.71632e-08
7.89633e-18
1.08302e-05
1.45065e-17
7.79319e-19
7.88887e-15
1.17956e-16
4.43798e-17
4.04796e-17
1.38825e-17
4.99894e-18
4.84393e-06
0.000220999
1.12003e-17
8.57931e-18
4.31279e-07
4.26018e-18
1.733e-17
1.62997e-09
1.91402e-05
1.73691e-07
1.81377e-18
6.91778e-07
3.88111e-06
5.50827e-06
9.42972e-06
6.91581e-18
2.30481e-17
7.1716e-17
1.44278e-17
8.31505e-18
2.19207e-17
9.10199e-18
2.84216e-18
4.68512e-17
2.30175e-17
3.30773e-18
1.80435e-18
8.343e-05
6.77964e-18
4.40559e-18
8.95181e-13
9.47443e-18
1.84571e-18
0.00123168
1.6501e-18
1.10439e-18
2.02321e-06
1.72806e-12
3.79932e-18
4.05556e-17
8.42395e-19
2.50633e-05
1.84699e-17
2.45628e-17
5.20009e-11
3.32786e-19
3.56026e-18
7.80499e-18
1.87068e-18
0.000125801
4.50308e-18
2.0869e-07
4.79295e-19
9.58166e-18
5.34231e-18
1.03304e-18
2.36212e-18
2.69194e-11
4.81851e-11
1.343e-07
3.11752e-18
5.84461e-18
2.71532e-17
1.10795e-10
1.72695e-17
3.17087e-10
1.64699e-11
4.77584e-18
1.62424e-17
1.85393e-17
8.48056e-12
1.43551e-18
2.53085e-17
2.22152e-12
1.01188e-16
3.55711e-05
1.04057e-17
7.43522e-06
5.01511e-17
2.51672e-09
1.55954e-18
1.70982e-06
3.60247e-18
4.87645e-06
2.67605e-05
1.30122e-17
2.92099e-06
1.3653e-08
1.9959e-17
1.11284e-05
7.7432e-18
2.34044e-18
1.85572e-17
5.38639e-18
2.54406e-17
3.81446e-18
1.87902e-17
6.206e-19
0.000309096
9.10658e-18
3.67578e-18
9.12431e-19
2.32858e-18
2.81866e-19
3.57393e-05
0.000932302
3.2519e-09
1.44743e-08
3.37273e-18
2.17911e-06
1.49142e-06
5.57392e-18
4.17151e-17
6.27927e-17
3.15352e-19
1.4853e-18
2.5722e-17
3.89513e-18
2.85142e-17
4.63792e-07
4.37903e-17
6.89558e-18
2.07614e-07
3.16869e-09
2.4294e-17
3.0317e-05
1.0962e-18
2.7887e-18
3.33224e-18
0.00019554
4.80013e-17
3.13115e-19
2.81018e-05
1.20504e-17
3.99955e-17
2.19466e-17
5.13215e-17
6.09261e-05
2.89523e-18
9.80155e-18
7.86215e-18