/*--------------------------------*- C++ -*----------------------------------*\
  =========                 |
  \\      /  F ield         | OpenFOAM: The Open Source CFD Toolbox
   \\    /   O peration     | Website:  https://openfoam.org
    \\  /    A nd           | Version:  10
     \\/     M anipulation  |
\*---------------------------------------------------------------------------*/
FoamFile
{
    format      ascii;
    class       volScalarField;
    location    "5.4";
    object      T;
}
// * * * * * * * * * * * * * * * * * * * * * * * * * * * * * * * * * * * * * //

dimensions      [0 0 0 1 0 0 0];

internalField   nonuniform List<scalar> 
111485
(
303.15
285.148
301.047
303.15
298.516
283.15
299.029
293.456
296.455
286.299
300.596
296.278
300.294
284.602
300.064
286.808
299.336
298.641
294.195
303.15
303.15
283.15
297.364
288.759
301.564
303.15
293.281
300.65
288.968
303.15
300.765
294.362
303.15
283.15
283.463
283.15
302.302
297.732
283.149
296.696
283.15
289.711
297.11
302.894
303.189
303.15
287.462
288.617
289.751
303.15
303.15
283.15
303.15
299.043
303.15
293.636
287.958
283.15
283.327
295.558
295.959
303.15
302.098
300.339
283.15
284.6
300.575
291.617
302.147
302.55
303.166
301.937
303.15
302.147
303.15
295.415
283.15
293.574
283.15
283.15
283.243
293.413
283.15
303.15
300.394
284.248
283.15
301.607
303.125
299.2
283.378
289.689
300.933
300.403
289.917
303.15
303.15
301.607
303.149
283.426
303.15
286.728
283.15
285.232
285.783
283.15
283.15
293.112
301.496
283.146
298.984
288.155
301.347
301.739
303.15
302.016
303.15
283.15
300.21
303.15
303.15
283.15
283.15
283.15
283.409
303.152
283.15
301.856
303.15
283.179
303.084
302.002
303.15
283.15
283.15
292.628
283.15
294.342
298.873
301.148
303.138
296.901
299.049
284.814
302.3
297.929
283.15
303.15
283.15
297.239
284.981
303.15
303.144
287.431
283.156
293.839
295.741
302.538
283.154
303.15
303.15
292.313
286.303
283.153
283.157
301.248
283.703
283.15
283.153
283.152
283.15
303.15
283.209
283.15
291.59
287.256
283.15
303.15
303.15
283.15
303.15
303.15
297.742
293.633
295.918
289.897
301.435
300.501
283.191
303.15
301.502
303.15
303.15
300.241
286.326
301.473
301.351
295.877
303.15
300.921
284.632
283.161
300.847
297.105
303.15
300.494
288.323
303.15
283.232
300.228
284.852
300.76
303.15
303.15
300.774
283.15
292.94
283.15
300.68
298.812
290.458
303.15
301.785
300.574
283.15
283.15
283.15
289.588
283.158
283.15
303.15
298.749
291.521
290.011
283.15
303.15
303.109
303.15
284.36
300.165
299.353
299.602
299.472
283.15
283.143
298.958
283.15
283.15
288.818
288.463
283.15
301.233
298.984
303.15
283.15
301.041
303.15
303.15
303.123
303.15
288.331
285.899
290.927
303.15
298.441
303.15
303.15
303.15
283.148
298.168
301.039
299.508
291.265
299.565
296.331
283.214
290.471
291.729
283.15
303.15
283.149
292.508
298.8
286.522
303.15
298.081
297.34
298.983
302.967
283.166
297.205
299.447
302.019
283.15
283.629
283.15
283.149
303.15
283.934
290.324
286.374
303.15
283.15
297.683
285.316
303.15
303.15
303.15
284.634
290.375
301.122
284.444
293.121
283.15
283.15
303.15
298.442
303.15
283.844
289.661
283.152
283.15
303.15
303.15
283.15
294.444
290.024
283.15
295.828
283.15
303.15
301.126
297.399
294.039
295.934
283.15
283.15
283.15
296.717
291.152
302.381
283.15
283.15
283.15
290.148
297.042
283.219
290.583
283.15
292.89
299.639
284.221
298.773
285.296
283.15
303.15
283.15
303.15
290.729
296.672
288.052
292.078
283.15
286.404
283.15
303.15
293.918
303.15
301.899
303.15
283.15
292.086
283.15
288.908
284.663
283.15
284.006
298.128
283.15
300.221
284.72
298.932
303.032
291.193
286.051
283.15
303.15
303.145
283.15
301.046
300.909
283.15
283.15
294.745
284.393
298.305
296.856
283.15
295.25
296.195
283.15
302.085
283.914
303.15
303.15
288.37
298.685
283.15
303.15
303.15
303.15
300.767
283.15
303.15
294.008
283.171
287.009
300.048
283.15
283.15
302.638
283.15
302.49
301.496
297.98
289.314
283.15
294.045
303.383
303.15
298.752
292.376
303.15
283.15
283.31
283.15
290.148
286.174
291.792
283.15
293.012
296.64
293.205
303.147
283.15
303.15
303.15
283.169
292.871
283.15
284.351
303.135
283.15
303.15
303.15
303.15
301.836
290.654
286.054
284.219
284.342
283.15
285.756
303.15
300.804
283.15
303.15
303.15
300.722
303.15
303.15
283.151
303.15
283.15
300.75
283.15
283.15
283.15
303.15
283.15
303.15
283.15
283.681
283.15
303.129
301.866
283.764
283.15
303.089
283.15
303.15
284.739
284.701
286.172
297.671
283.15
297.61
297.719
292.444
286.908
285.3
303.15
291.899
283.15
299.951
283.15
296.913
283.15
292.224
298.658
303.151
283.15
286.888
303.15
295.637
299.186
283.15
283.15
283.15
283.15
303.15
293.803
283.15
283.15
283.242
283.15
299.906
283.15
284.837
303.15
283.441
303.123
284.686
292.045
283.15
301.511
283.15
283.15
285.744
283.15
283.259
283.15
299.761
303.15
290.8
303.15
283.15
302.409
284.495
300.169
285.697
300.168
289.526
283.15
300.701
284.579
283.15
283.14
300.446
301.642
283.15
282.397
301.122
303.067
283.117
303.15
287.621
302.206
284.43
285.435
288.313
282.506
283.15
303.15
300.78
303.15
283.562
283.15
283.15
291.905
282.66
303.15
303.12
283.15
286.335
299.653
283.15
283.15
299.664
303.15
283.15
283.15
283.15
286.211
283.15
303.15
284.86
284.261
303.15
299.753
283.15
289.293
303.15
283.15
286.212
283.15
283.15
283.15
285.446
283.15
285.495
292.099
303.15
300.442
283.455
298.806
300.977
283.346
283.466
283.15
289.072
298.537
303.15
302.276
296.074
296.973
284.751
297.538
297.275
303.15
300.293
303.137
283.15
297.251
284.875
283.15
292.51
295.842
284.892
298.862
300.692
292.47
283.15
298.992
283.476
303.15
300.648
302.001
294.227
283.15
286.585
303.15
283.15
283.15
283.15
283.307
283.15
303.15
303.15
283.15
300.458
299.353
303.15
285.672
303.15
303.15
303.15
290.091
283.427
283.15
303.15
283.15
283.15
286.93
292.519
283.15
295.264
283.135
283.15
295.44
302.255
287.881
283.15
283.15
300.32
292.225
283.15
283.15
283.15
294.089
303.15
303.15
283.15
296.358
302.401
283.15
282.494
301.869
286.616
283.15
283.15
287.506
302.981
283.15
283.16
287.493
283.774
288.895
283.15
285.753
300.366
283.15
303.15
283.15
283.15
283.15
283.15
295.793
303.15
283.15
283.15
295.406
291.948
303.15
303.15
289.951
298.526
298.423
303.15
283.15
298.097
303.15
283.856
298.927
298.452
303.15
303.15
303.15
283.15
286.106
283.15
283.15
302.715
303.15
297.919
302.305
283.15
294.19
283.256
296.552
292.039
283.43
289.892
283.15
283.15
296.998
288.175
290.892
283.15
283.15
298.163
295.106
283.15
283.93
284.632
283.486
303.15
303.15
303.15
290.797
283.15
300.137
283.15
284.397
297.658
298.62
292.4
283.15
283.15
303.15
295.505
283.15
283.15
303.104
283.15
283.15
303.15
283.15
299.414
283.15
283.15
283.15
283.15
283.15
303.15
283.15
283.172
298.813
303.15
302.547
283.13
283.406
283.094
285.586
283.15
284.477
290.606
283.406
303.15
283.149
299.826
283.15
300.331
283.156
283.143
286.259
297.607
283.215
291.908
298.008
283.15
283.15
299.158
299.879
283.15
297.466
291.341
297.573
283.15
283.247
283.15
297.888
297.01
283.15
300.16
297.656
283.149
299.867
283.15
295.728
283.144
303.119
283.162
283.16
283.15
283.15
284.464
283.15
302.976
283.603
283.075
303.148
303.149
303.147
283.15
283.15
293.925
303.15
303.146
283.887
283.15
283.15
303.155
303.15
283.15
303.164
283.15
283.15
303.15
303.15
303.15
303.15
283.371
283.15
283.15
283.15
303.159
283.31
283.905
293.578
283.15
283.15
283.342
283.15
283.15
283.15
287.294
293.726
283.15
283.15
283.15
283.15
283.15
283.15
284.027
283.15
303.15
291.668
283.15
303.15
303.15
303.153
303.15
303.15
283.15
303.169
283.15
283.713
283.144
303.152
283.15
303.065
284.439
292.213
303.15
303.129
284.491
303.15
283.15
303.15
283.15
294.168
293.585
284.686
303.148
283.15
293.37
283.15
283.15
303.15
283.15
294.958
283.15
303.15
283.163
298.218
303.15
284.421
283.15
283.595
283.15
283.15
283.15
303.15
285.926
283.481
284.416
283.15
283.15
285.711
283.15
283.15
303.15
284.373
303.164
298.662
303.15
303.129
303.13
283.15
303.133
283.15
283.455
289.249
301.026
283.827
283.167
283.15
283.15
283.15
303.182
283.15
302.921
303.15
293.032
303.15
288.778
283.843
303.15
283.15
303.15
283.15
301.853
303.15
303.15
286.497
300.648
283.15
283.15
283.15
283.15
283.15
283.15
300.902
283.59
303.15
303.15
303.157
303.15
300.288
284.451
283.15
302.155
303.15
301.676
283.15
302.595
283.15
283.148
303.152
283.32
302.161
300.326
283.147
283.15
289.422
303.15
293.513
303.15
283.15
303.15
283.15
283.15
283.15
300.895
302.097
303.15
303.15
303.15
302.915
283.149
303.15
293.023
283.083
303.15
297.557
298.328
296.599
283.383
283.15
283.15
283.15
283.15
294.734
283.15
295.002
283.15
303.065
289.903
283.15
302.875
283.15
283.15
302.764
283.148
302.924
283.15
303.15
283.15
302.422
283.15
303.15
283.15
283.147
283.15
283.172
283.15
283.15
303.15
293.032
301.121
296.224
297.135
303.15
303.119
283.15
283.15
285.768
283.15
283.158
302.862
298.811
302.957
303.15
283.369
283.15
303.15
283.15
303
283.334
298.328
283.15
303.15
288.164
303.15
283.15
283.123
295.197
283.147
283.15
283.15
283.149
303.15
283.15
303.143
303.15
303.15
290.042
302.998
303.007
289.113
293.392
283.15
283.15
303.096
289.184
283.15
303.15
284.775
283.15
303.15
283.15
283.15
283.15
297.747
283.15
302.948
283.15
300.595
283.15
283.15
283.15
283.15
283.15
283.15
285.076
283.15
283.15
283.15
283.15
283.15
283.15
292.121
283.15
298.395
302.953
283.15
302.338
283.15
302.545
303.145
292.342
288.841
303.15
292.208
284.828
303.113
303.15
303.139
295.099
288.74
283.15
287.961
283.15
283.15
283.15
283.15
287.598
283.15
283.15
291.691
303.137
285.356
283.15
283.15
302.532
283.15
283.187
303.15
299.921
283.15
283.15
302.831
283.15
303.178
303.15
283.15
289.141
298.007
292.759
285.732
292.694
294.222
283.15
283.15
302.321
290.649
292.89
284.449
283.15
294.416
283.15
303.15
300.805
298.781
283.15
297.453
283.15
292.825
297.33
303.15
283.15
283.15
301.824
283.15
283.15
300.582
296.182
283.197
291.28
283.15
283.15
302.814
300.6
283.15
300.717
283.15
300.575
283.15
283.15
300.876
283.15
283.229
301.651
283.15
283.15
302.462
283.15
287.976
303.15
290.541
303.15
303.15
303.15
301.015
283.15
283.15
299.629
283.15
302.995
283.15
283.15
303.15
283.151
288.264
283.15
283.15
288.125
288.306
283.15
283.697
283.15
303.15
302.448
283.748
301.627
283.15
283.15
283.15
283.15
283.15
283.15
283.15
283.15
283.15
283.15
283.15
303.15
283.15
283.15
283.15
283.15
283.15
283.15
283.15
283.15
303.15
287.012
283.15
283.15
283.15
294.835
283.15
303.15
302.979
283.15
283.15
294.845
283.15
283.15
301.934
295.32
283.15
303.597
303.579
283.15
301.56
294.09
297.664
301.529
298.239
303.15
283.15
296.408
291.874
301.474
283.15
302.184
302.433
300.939
288.097
287.36
301.122
301.804
301.831
303.15
285.933
297.645
285.59
297.353
283.15
283.15
283.15
303.15
283.15
292.098
298.008
283.15
283.15
283.15
283.15
283.15
303.15
283.15
303.15
292.188
303.127
299.114
302.849
283.15
283.15
285.45
283.168
283.15
283.15
301.716
303.15
283.15
298.244
299.594
297.618
298.759
300.88
303.15
291.093
302.607
303.15
303.15
300.4
303.15
283.15
282.933
295.669
302.956
283.15
303.15
289.731
286.232
297.163
292.297
302.47
303.15
303.138
303.15
303.15
283.15
298.976
283.15
291.905
290.554
299.785
284.8
303.15
301.97
303.15
283.15
303.15
303.15
291.578
299.83
283.15
303.15
303.134
291.884
303.042
299.438
292.948
288.379
293.036
283.15
303.15
283.15
291.393
298.412
303.151
303.15
303.15
303.15
297.582
302.569
283.15
300.055
301.202
284.917
299.608
303.15
303.15
298.788
293.083
283.15
302.914
299.819
302.62
292.084
297.419
298.36
303.15
287.034
298.201
291.479
283.15
289.186
303.15
288.454
301.126
303.15
288.777
301.34
300.187
293.291
283.149
283.16
283.242
301.776
300.989
303.15
288.865
301.533
303.15
283.15
303.15
303.209
298.862
291.115
296.847
303.248
283.149
297.684
303.15
303.15
292.923
303.15
300.345
283.312
301.377
291.575
303.15
283.674
293.348
303.15
283.036
298.787
303.15
300.772
286.312
303.15
303.15
284.015
303.15
283.15
283.15
285.948
299.412
291.329
303.15
285.275
297.605
283.15
298.954
298.988
289.033
303.11
283.15
301.523
299.639
298.954
300.172
288.706
290.917
302.496
303.15
301.609
288.776
303.15
298.965
283.15
283.15
303.15
283.15
303.15
297.507
283.15
300.608
283.652
303.15
283.819
283.15
289.913
303.15
303.145
303.15
294.259
303.001
303.121
299.961
290.466
289.51
290.638
298.553
303.15
299.504
292.287
299.043
303.15
283.895
283.466
299.365
287.246
283.524
303.15
283.15
303.15
285.384
303.15
303.309
284.725
303.307
302.962
303.15
303.15
283.15
300.626
300.659
285.564
303.091
287.044
295.792
301.897
292.624
288.277
302.101
296.217
283.15
283.15
303.15
285.869
289.774
283.15
283.15
303.15
302.011
288.806
303.15
296.497
303.15
283.156
285.242
301.106
303.15
303.15
292.405
303.15
283.309
290.669
283.15
297.25
294.72
296.119
303.15
302.731
283.15
302.687
293.564
303.15
303.15
288.846
283.15
303.15
301.85
284.488
303.15
303.15
283.15
302.373
303.432
289.587
299.806
298.078
303.15
303.158
302.626
303.15
283.15
303.15
303.15
303.15
303.15
303.15
303.15
303.15
283.15
303.15
303.15
283.351
303.15
303.315
303.15
303.16
303.15
303.15
301.021
303.677
303.15
292.154
303.15
303.15
283.15
302.583
303.15
302.163
303.116
283.294
283.15
303.15
302.937
283.149
303.15
303.15
291.479
283.15
292.701
283.15
283.15
283.153
291.331
284.875
303.15
296.733
283.15
303.673
303.134
284.345
302.619
283.15
292.278
303.085
301.72
283.15
303.15
283.15
303.997
284.858
296.934
303.15
303.15
303.15
303.15
303.15
303.15
302.385
302.825
297.7
292.208
303.15
287.242
292.751
285.02
303.205
283.15
286.973
302.772
284.809
283.148
287.528
303.15
283.392
302.93
292.645
302.861
301.948
303.15
302.245
303.15
303.15
298.036
303.15
284.517
303.15
303.15
283.15
303.15
303.15
302.86
303.15
283.302
283.15
283.15
285.893
284.94
300.928
286.179
303.15
295.004
303.15
290.544
303.15
287.248
300.764
301.545
293.459
303.15
303.15
303.15
289.859
283.15
303.15
289.612
283.15
283.15
301.877
303.15
286.233
283.148
283.15
303.15
303.15
300.695
298.301
303.15
293.59
303.043
283.15
298.622
303.15
286.453
288.298
302.169
303.15
296.379
296.789
302.962
301.931
301.692
303.15
303.15
303.147
303.15
283.15
303.15
289.617
300.095
294.419
302.168
283.15
300.442
291.51
298.321
283.618
298.438
289.747
302.201
283.15
283.15
283.15
302.245
283.15
290.558
283.15
301.326
303.161
289.771
298.094
283.15
303.15
301.314
301.292
303.15
283.15
303.15
286.464
301.505
302.986
302.373
298.076
288.491
303.15
303.15
303.15
294.396
286.048
289.939
296.012
283.982
302.966
303.15
303.15
283.15
283.15
285.459
299.662
303.15
303.15
283.15
303.15
303.15
303.15
300.35
303.15
285.418
292.828
283.15
283.251
293.49
285.731
303.15
303.15
301.938
303.15
299.33
283.146
297.651
303.15
303.15
283.15
303.15
303.15
303.15
305.347
303.15
301.89
301.146
303.15
303.15
301.675
303.15
283.15
287.314
303.114
303.15
303.15
303.15
298.06
303.15
303.15
302.54
302.518
301.832
303.15
283.15
303.15
302.088
302.538
301.583
302.561
283.15
300.741
287.618
297.515
283.15
303.15
303.15
303.15
303.15
294.49
287.617
299.69
303.15
303.15
303.15
303.15
283.15
303.148
284.835
285.189
283.15
303.15
303.15
283.147
299.682
295.111
283.15
303.15
303.15
303.15
303.15
289.669
289.79
303.15
303.15
302.413
303.15
301.467
283.974
292.043
303.15
283.15
301.188
303.127
303.15
303.255
301.383
286.938
303.15
303.15
303.15
303.15
293.364
284.187
303.15
302.715
298.207
289.828
303.15
303.15
303.15
303.15
299.621
303.151
303.15
303.15
298.389
302.597
288.471
303.15
303.15
297.897
303.15
303.15
303.15
303.15
288.89
303.15
283.15
283.15
296.079
291.216
303.15
303.15
303.15
297.095
303.147
303.15
303.15
303.15
303.15
303.434
300.949
303.15
287.417
302.667
299.49
303.15
303.15
303.15
303.15
283.15
285.739
303.15
302.835
283.15
302.219
303.15
303.137
303.15
283.15
301.944
285.945
283.15
302.845
303.15
302.45
283.15
303.15
303.15
303.151
303.15
283.275
303.15
290.924
283.15
283.15
303.15
303.15
298.948
302.408
283.15
302.465
283.15
284.138
288.093
302.721
283.15
303.155
302.995
303.136
284.441
283.156
302.992
283.15
283.15
283.156
302.123
302.329
303.15
283.15
283.15
295.779
303.15
283.15
303.15
303.15
303.15
303.105
303.052
302.943
302.476
303.15
302.922
303.15
284.861
303.15
303.15
283.15
303.15
303.112
303.15
283.15
303.15
288.378
303.15
303.15
303.179
283.15
303.059
302.332
297.196
303.15
289.978
295.295
284.008
290.553
283.15
283.15
287.266
284.362
283.15
303.742
283.15
286.461
303.15
283.15
303.157
303.15
303.15
303.019
303.155
303.15
283.15
303.139
303.15
283.15
283.104
298.846
302.722
303.15
301.889
303.15
285.743
303.152
301.242
303.15
303.15
301.106
303.15
303.15
303.15
287.757
303.15
285.188
303.15
303.147
303.15
283.15
283.15
303.15
303.15
303.15
288.791
302.58
303.15
303.15
288.714
286.58
291.495
303.15
302.721
287.734
287.601
303.15
303.15
287.923
283.15
292.075
303.15
303.153
303.149
303.15
300.605
283.15
302.325
283.15
303.15
303.15
303.15
303.15
303.15
284.37
302.275
291.224
303.15
303.15
290.753
303.15
303.15
303.15
303.15
303.15
300.248
303.15
303.15
283.15
299.567
303.15
283.15
303.15
301.431
283.15
300.057
290.813
302.701
300.118
299.547
303.15
303.15
303.15
300.918
288.605
283.15
303.15
300.404
303.15
303.15
292.157
303.15
287.562
303.15
297.957
284.362
303.15
283.15
303.15
303.15
303.15
285.325
303.15
300.566
303.15
303.15
299.799
283.15
284.79
303.15
303.15
288.225
301.558
296.588
303.15
303.15
303.15
301.575
292.402
303.15
283.15
303.15
300.751
303.15
284.813
296.47
303.15
303.15
301.204
303.15
303.15
283.15
303.15
283.15
294.77
303.15
283.15
303.15
303.15
303.15
303.15
303.15
303.15
283.15
301.524
283.15
302.116
303.15
303.15
296.185
300.558
303.15
283.15
303.15
300.954
283.15
303.15
303.15
303.15
300.776
303.15
297.831
303.15
285.913
283.15
286.789
303.15
303.15
298.591
283.15
303.15
287.966
283.248
303.15
303.15
285.136
283.877
300.921
301.78
301.248
293.232
301.784
283.867
303.15
297.888
283.15
283.15
303.15
303.15
303.15
301.274
303.15
303.15
303.15
303.131
283.17
283.15
283.572
303.15
302.049
283.15
303.143
296.235
283.15
294.692
303.15
303.15
283.15
299.976
283.947
303.15
283.15
300.003
303.15
297.788
303.15
295.443
303.15
283.15
303.15
283.15
299.485
283.15
283.231
283.15
286.251
303.15
303.15
283.15
283.15
303.15
303.15
303.15
303.15
284.911
284.853
283.15
303.15
283.235
283.15
283.15
303.155
290.003
283.552
283.15
301.556
284.924
300.504
288.294
303.15
303.15
303.15
303.15
283.15
283.15
283.15
303.15
283.15
283.15
303.15
283.15
297.374
283.15
303.15
283.15
303.15
303.15
283.427
283.15
303.15
301.988
303.149
303.15
303.15
303.15
288.786
283.15
303.15
303.149
283.15
303.15
303.15
303.15
295.31
283.15
283.186
303.15
303.15
303.15
303.15
303.15
303.149
303.147
284.134
303.15
283.15
303.15
303.15
303.15
303.148
303.149
283.15
283.15
283.15
303.15
303.15
283.15
303.15
283.15
287.763
283.15
301.856
283.15
303.154
303.15
284.637
283.15
284.478
297.509
303.15
284.721
303.172
303.15
297.518
283.15
303.15
303.15
303.15
303.15
283.15
303.15
303.15
299.256
283.15
303.15
303.15
303.15
303.15
292.385
290.814
303.169
283.166
303.15
301.861
302.349
303.15
283.15
283.15
303.15
303.15
303.15
283.15
283.15
283.834
303.15
303.15
303.194
303.151
283.15
288.982
303.15
283.15
303.15
288.171
303.15
283.15
302.151
283.15
283.15
283.15
303.15
299.749
303.15
303.15
303.15
283.15
284.531
293.715
295.357
289.682
303.125
303.026
283.15
283.15
301.097
283.704
283.15
303.149
303.15
303.15
283.15
294.677
303.15
283.15
302.989
303.15
303.15
283.809
303.15
303.15
288.516
289.693
303.15
283.15
303.15
283.15
303.15
303.15
303.15
303.15
283.963
303.15
303.15
303.15
302.941
303.15
303.15
283.15
283.15
283.15
283.15
302.954
283.15
283.15
301.026
303.15
284.8
284.963
303.15
301.187
303.15
283.15
303.15
283.15
283.15
303.15
303.15
303.15
302.685
303.15
303.15
303.15
283.15
303.15
283.15
286.427
303.15
303.15
291.702
303.15
283.15
283.15
302.447
303.15
303.148
283.15
303.197
286.741
283.15
283.15
299.293
283.15
283.15
303.054
303.16
293.398
303.166
303.151
303.152
283.15
283.15
302.663
283.467
285.91
300.911
283.159
283.15
291.108
301.618
301.522
283.15
300.289
290.742
300.181
302.241
302.784
284.733
295.623
299.307
286.295
293.449
300.175
303.15
297.98
297.706
302.801
283.677
292.514
301.202
287.378
303.15
301.122
303.15
300.755
301.548
283.649
285.036
303.15
283.15
302.295
301.732
283.145
303.172
288.602
302.698
301.916
300.893
303.15
303.225
301.192
295.206
300.456
289.145
302.931
301.654
302.204
302.307
284.247
302.526
301.645
283.182
303.15
302.906
303.15
303.15
302.132
302.042
294.427
303.15
284.72
292.375
292.398
301.106
303.15
284.047
285.239
284.414
303.15
298.895
303.15
296.42
295.474
300.812
303.143
303.15
303.15
301.999
301.318
302.799
303.15
292.69
302.762
290.112
283.15
298.393
294.082
303.15
300.537
283.15
283.205
283.15
302.601
303.105
303.15
302.986
298.496
283.148
300.565
302.256
295.383
283.549
295.966
297.18
283.475
303.134
284.791
296.354
283.324
297.018
300.568
300.335
300.436
302.031
290.072
301.626
303.15
302.739
302.673
302.667
296.527
302.894
283.15
302.058
293.491
303.15
283.441
286.876
301.255
302.616
290.594
284.859
287.773
302.642
296.475
303.15
303.15
295.092
283.15
292.746
283.439
303.15
290.616
290.364
283.931
303.15
297.359
298.527
284.263
301.317
294.234
290.226
300.576
303.11
303.15
303.15
283.56
302.639
283.355
285.866
303.15
303.023
303.043
303.15
285.457
300.822
297.977
283.254
299.637
302.4
300.57
287.005
283.15
303.108
301.852
283.762
283.143
303.15
303.078
303.15
303.15
284.213
302.557
296.414
283.042
283.152
303.15
283.15
302.96
303.049
302.53
301.465
303.15
283.15
283.15
301.866
301.921
283.222
295.914
303.15
303.15
301.671
285.564
283.263
301.731
301.828
301.775
284.432
303.15
283.15
298.505
297.836
303.15
302.721
302.117
284.865
285.027
302.149
303.056
303.15
298.233
284.461
283.15
303.15
300.608
301.286
302.054
289.724
302.111
285.73
300.237
300.297
290.405
297.665
303.15
303.15
301.002
284.51
302.128
283.151
300.584
301.754
283.64
288.35
302.447
283.15
283.15
283.028
303.15
303.15
300.022
298.99
302.315
283.147
283.15
283.966
283.151
283.15
283.152
303.081
300.995
299.272
296.031
283.377
303.102
300.224
303.15
283.15
302.584
289.311
300.852
292.751
283.518
303.064
283.148
283.15
302.847
301.274
302.634
283.157
291.411
284.924
303.15
284.291
301.085
283.15
283.314
284.997
284.323
283.15
283.15
301.689
283.15
289.508
302.553
302.722
301.806
283.492
298.737
290.35
283.15
303.315
292.173
283.15
283.15
283.15
303.15
301.229
302.444
299.237
301.515
299.956
288.978
283.155
291.049
290.211
303.064
291.243
300.076
292.139
283.15
286.346
301.138
301.587
283.15
284.012
299.715
283.15
303.15
283.19
301.327
303.15
284.039
302.278
303.027
303.15
283.15
292.888
303.153
301.744
283.15
283.15
283.15
302.226
297.715
303.142
302.22
303.165
303.15
288.499
303.165
290.507
300.306
300.267
296.714
283.157
301.75
283.15
290.67
301.473
289.598
290.552
299.082
300.781
301.652
287.231
291.194
285.083
283.174
302.249
286.177
283.149
283.145
300.284
283.077
300.382
287.105
296.112
299.539
289.345
299.383
283.121
299.163
283.15
290.087
289.572
298.737
283.337
283.15
300.638
283.15
302.811
283.15
303.15
286.529
286.54
283.15
299.103
298.603
287.127
303.15
303.15
301.777
289.842
303.02
283.748
301.631
287.201
303.147
284.23
288.296
303.15
301.484
283.15
283.15
287.629
287.126
283.145
285.311
301.552
286.316
301.202
303.15
285.205
301.795
291.281
303.15
303.15
301.673
302.086
303.15
293.115
294.341
283.701
296.538
286.895
290.133
303.15
302.864
297.133
285.084
283.15
287.79
291.967
299.736
283.166
283.772
282.924
301.993
303.126
283.151
303.135
303.15
300.614
293.181
298.938
294.001
283.15
291.996
296.13
285.651
283.213
292.292
283.15
300.292
303.164
292.693
284.124
303.145
291.925
298.721
288.359
300.38
291.378
287.434
283.15
303.142
285.384
290.044
293.597
283.15
283.15
283.15
303.141
283.15
283.136
286.5
303.15
283.15
303.166
283.173
291.161
289.339
303.433
302.925
289.99
303.15
297.115
303.173
302.046
287.367
283.15
293.069
303.146
303.098
286.275
283.15
283.15
283.482
286.113
303.06
303.145
287.576
289.56
283.499
283.162
289.929
293.283
303.15
283.15
303.103
303.15
302.365
285.051
302.354
303.097
284.09
283.796
284.072
302.86
302.214
297.444
294.059
303.076
291.391
291.09
303.15
303.101
302.614
285.495
283.39
303.15
286
283.394
302.942
301.686
302.211
283.15
300.413
301.897
303.15
302.19
285.446
303.15
298.012
303.15
283.15
300.753
302.7
286.4
302.517
283.15
285.233
303.017
283.15
302.334
285.409
294.975
284.368
303.15
303.023
302.881
286.557
283.15
287.196
284.29
289.874
285.806
302.286
303.15
283.15
283.15
293.179
283.15
301.078
302.199
290.415
283.15
294.087
283.15
303.15
283.15
300.081
298.686
283.151
285.327
301.743
303.09
303.156
292.037
294.374
301.264
283.222
301.817
283.145
303.15
303.144
299.407
283.15
301.44
294.926
303.15
300.977
287.373
301.964
284.934
288.29
283.15
302.256
287.809
298.511
303.079
283.15
303.15
291.726
302.199
283.075
283.147
286.867
298.456
303.149
284.578
301.089
301.06
301.308
303.152
299.978
287.726
284.965
301.637
299.977
283.749
283.099
303.159
303.149
303.15
297.476
283.163
283.15
303.15
303.149
289.996
298.944
300.306
287.854
302.813
303.15
286.467
301.584
303.15
300.986
283.814
301.513
303.15
284.588
301.402
295.542
302.775
303.15
303.15
285.222
295.201
296.502
287.491
303.15
303.15
283.15
287.279
302.426
296.291
303.15
285.619
303.15
303.15
300.468
288.787
283.15
295.676
296.003
299.091
283.15
303.15
292.734
287.281
303.15
298.065
300.582
300.489
303.15
303.15
303.15
300.301
298.436
302.812
299.972
283.15
292.923
287.748
290.754
300.649
303.15
303.15
300.828
303.101
286.635
296.219
303.15
303.148
283.15
286.492
299.034
285.625
303.15
303.15
283.35
303.125
303.15
303.15
283.15
290.569
303.15
303.15
284.622
299.32
283.15
303.15
284.647
301.38
300.241
287.054
294.971
303.15
283.505
303.15
303.15
283.302
300.6
290.457
300.464
303.15
303.132
302.202
292.864
299.858
301.401
284.474
283.466
300.858
298.492
303.15
302.767
284.164
299.819
301.427
287.782
303.15
297.464
301.454
301.539
301.579
292.925
303.15
283.15
299.239
283.15
283.15
287.797
283.15
284.027
283.15
283.15
283.15
283.15
302.768
288.168
302.717
283.15
295.794
290.981
284.769
283.15
303.15
302.693
301.764
303.173
302.653
283.15
294.946
300.336
290.215
283.15
283.15
299.868
285.959
283.15
283.15
303.149
290.655
283.15
287.211
303.15
303.152
284.334
283.15
288.304
292.903
300.81
294.612
302.964
285.687
302.524
295.315
286.319
283.15
283.549
291.713
303.086
289.224
302.672
283.15
292.41
287.793
301.045
301.267
284.944
303.11
284.959
297.163
302.988
303.148
285.156
303.146
303.011
293.379
302.682
283.15
303.15
303.15
294.852
291.15
283.155
301.156
284.705
284.169
284.647
303.145
288.394
300.526
283.15
283.15
302.527
303.151
294.638
302.909
303.181
299.895
303.218
302.897
283.15
301.343
302.892
283.15
303.15
301.333
303.15
284.344
298.854
283.165
291.593
283.15
287.621
303.022
299.834
283.15
303.031
290.937
301.236
303.13
303.081
283.15
283.15
301.944
302.032
283.815
302.825
302.438
302.4
303.141
283.15
293.84
283.15
302.803
287.914
302.993
303.15
283.15
302.84
285.169
291.516
302.08
283.15
302.601
302.029
301.609
302.505
303.053
303.206
303.015
303.15
283.15
301.536
297.909
303.09
303.15
290.003
285.042
303.15
283.15
285.363
303.183
303.164
302.926
301.182
284.292
303.1
290.714
294.246
303.148
289.12
303.163
283.15
289.919
283.15
300.031
298.234
284.813
288.251
299.676
296.663
295.344
299.239
293.83
303.153
293.87
296.481
283.159
299.446
293.882
303.15
298.996
299.21
303.15
291.294
303.171
301.706
303.15
286.961
286.025
302.81
289.704
283.15
283.15
300.397
301.141
283.741
283.15
303.15
300.274
302.345
300.678
299.934
302.797
292.614
289.673
286.688
292.521
284.324
290.469
283.309
295.723
290.461
293.965
287.173
284.304
303.162
283.275
303.147
285.646
300.763
283.151
300.395
298.387
288.775
302.111
285.437
299.139
283.15
302.959
283.155
283.113
287.851
299.718
303.15
300.363
303.025
299.959
302.773
303.15
301.307
284.977
295.035
302.076
303.149
283.717
283.15
290.405
285.263
285.785
303.141
303.149
283.15
283.15
283.177
303.15
293.475
303.15
303.153
294.748
303.433
303.15
300.428
303.15
303.15
293.676
290.653
303.15
289.867
302.087
289.592
303.15
303.15
286.034
283.34
290.376
303.22
303.15
303.146
285.502
283.26
283.15
289.043
287.662
303.15
284.325
303.15
303.15
303.132
287.364
303.15
303.147
283.283
303.152
302.677
287.945
283.151
283.617
297.349
290.79
303.15
285.952
284.467
301.366
287.161
302.234
290.605
293.924
303.15
303.15
284.025
303.151
302.956
295.878
302.952
302.752
287.222
283.15
285.372
283.221
297.223
302.609
285.423
303.15
283.817
286.745
303.127
283.176
303.15
286.461
283.15
300.122
303.15
299.782
299.972
283.311
283.367
302.342
290.958
301.339
303.15
301.438
301.782
303.15
303.15
298.396
293.538
283.15
288.865
303.15
295.225
283.366
303.15
296.962
298.775
289.022
303.15
302.77
294.323
295.446
284.484
303.161
298.764
296.236
284
303.126
302.812
287.435
298.533
289.845
290.847
289.772
283.15
302.957
303.152
303.15
303.171
293.216
296.419
302.98
301.328
303.15
284.465
303.15
303.047
302.867
303.15
293.653
296.264
303.15
285.417
303.098
303.15
303.095
303.156
286.106
293.411
291.163
288.435
293.414
303.15
301.258
291.556
295.42
293.45
303.141
303.15
300.592
303.187
284.27
303.188
303.15
303.15
303.143
303.15
284.98
303.15
284.255
303.146
303.15
290.308
303.144
292.534
295.579
303.135
295.409
286.008
283.453
303.127
302.94
284.713
283.15
297.154
303.15
285.544
302.921
302.07
303.022
298.43
287.113
303.15
298.708
289.937
299.401
283.15
283.63
303.15
303.145
303.189
294.083
303.15
292.484
289.388
303.194
303.15
284.836
298.845
293.304
299.656
302.498
301.595
300.438
303.15
284.739
296.952
302.377
285.645
298.341
292.336
284.497
291.742
303.15
286.74
291.893
290.14
299.5
303.15
286.474
284.104
303.15
302.451
288.171
302.111
283.15
303.15
299.891
301.726
289.093
302.013
301.919
301.847
303.15
289.42
285.161
301.988
302.259
297.219
303.15
283.202
303.15
302.013
303.15
302.829
303.15
291.742
303.15
296.617
283.15
289.586
303.15
283.15
292.197
301.485
300.466
289.237
300.545
303.15
302.51
303.15
302.377
285.257
303.15
300.452
290.459
303.15
300.85
303.15
303.15
293.205
283.15
285.581
293.303
300.964
303.15
291.271
293.96
288.244
289.681
288.136
299.242
300.26