/*--------------------------------*- C++ -*----------------------------------*\
  =========                 |
  \\      /  F ield         | OpenFOAM: The Open Source CFD Toolbox
   \\    /   O peration     | Website:  https://openfoam.org
    \\  /    A nd           | Version:  10
     \\/     M anipulation  |
\*---------------------------------------------------------------------------*/
FoamFile
{
    format      ascii;
    class       surfaceScalarField;
    location    "8.6";
    object      phi;
}
// * * * * * * * * * * * * * * * * * * * * * * * * * * * * * * * * * * * * * //

dimensions      [0 3 -1 0 0 0 0];

internalField   nonuniform List<scalar> 
214403
(
-0.0067886
0.00520506
0.000287491
0.00129604
-0.0033685
-0.0113224
0.000964523
0.0137264
-0.0103336
6.90247e-05
-0.000140987
0.0104056
0.00893458
-0.00600765
-0.0149752
0.0120482
0.012393
-0.0156709
0.00373323
-0.000455363
-0.00544008
0.00566603
-5.50676e-05
-0.000170888
-0.000859849
-0.00163457
-0.0093063
0.0118007
-0.0171609
0.00976332
-0.00257767
0.00997523
-0.0235008
0.0165883
0.0167455
-0.00983301
0.0143289
0.00170065
-0.0160102
-1.93173e-05
0.00508092
-0.0100649
0.00207002
0.00291392
-0.010434
0.00328332
0.0054064
0.0017443
0.000481541
-0.0115442
0.0139023
-0.00283962
-0.0100375
0.0101049
-6.74235e-05
0.00193598
0.012037
-0.0154292
0.00145629
-0.0121607
0.0101693
0.00308152
-0.00109009
-0.0122312
0.0119354
0.000295863
0.00395918
-5.18524e-06
-0.0010221
-0.0029319
0.0158266
-0.00947238
-0.0210432
0.014689
-7.63291e-05
-0.00312871
9.16913e-05
0.00311334
0.00645325
-0.00630182
-0.00015143
-0.0124869
-0.00431974
0.00429525
0.0125114
-0.00230608
0.0137635
-0.0110937
-0.000363691
0.00678897
0.000715049
0.00236907
-0.00987309
-0.0103361
-0.00496229
0.0133797
0.00191875
0.00926806
-0.0117403
6.93469e-05
0.00240287
0.00326027
-0.00285137
0.0106692
-0.0110781
0.00770344
0.0100774
-0.0121385
-0.00564238
0.0112803
-0.00707542
-0.000321152
-0.00388371
-0.00591005
0.00602443
-0.000114377
0.0024622
-0.00512551
0.0136621
-0.0109988
0.0142666
0.000676058
-0.0024907
-0.012452
-0.00566903
-0.00581781
0.00595804
0.0055288
-0.00121298
-0.00684209
0.00606116
0.00199391
0.00447154
-0.00310945
-0.00952549
0.00816339
-0.0017315
0.00863764
-0.00312056
-0.00378559
0.0161747
-0.000390981
-0.0157837
-0.00696556
0.013585
-0.00661942
0.00126112
-0.0149133
0.00863059
0.00502155
0.00247941
-0.000996691
0.00606886
-0.00755158
0.00577459
-6.1034e-05
-0.00571355
0.0103408
-0.000223275
0.00183465
-0.0119522
-0.0131166
0.00164697
0.013949
0.000869299
0.000893414
0.00870637
-0.0104691
-0.00415032
-0.0271337
0.0263118
0.00497221
0.00574995
0.00103816
0.00129966
-0.00808776
0.00428007
0.00323964
-0.0104567
0.00293699
0.0134919
0.00808699
-0.0147899
0.00122002
0.0114451
-0.0023243
0.00183404
-0.00686892
-0.00404199
0.00907686
0.0031263
0.00480547
0.00143044
-0.00936221
0.00187308
-0.00140625
-0.00433519
0.00386836
0.00692101
-0.0125272
0.0087325
0.0120165
-0.011313
-0.00388176
0.00317823
0.0107171
-0.00196202
-0.00867991
0.0117688
-0.000500355
-0.00258854
0.00893842
-0.0114287
0.000131425
0.00235885
-0.00838804
0.000554126
0.0134042
-0.00557031
-0.0154776
-0.0145411
0.0122137
0.017805
-0.00827727
0.00832734
0.00163841
-0.00168848
0.00130546
-0.0105794
-0.00863884
-0.000179822
0.00449064
0.00432802
-0.0135429
0.00581484
0.00876219
-0.00103416
0.0158864
-0.0127959
0.000818436
-0.00390898
0.000731091
0.000265744
-0.0104848
0.00948802
0.000524456
-0.00287753
0.0142296
-0.0118765
-0.0351398
0.00365144
0.00390045
0.027588
-0.00324659
0.00956121
-0.00303183
-0.00328279
0.00469596
-0.00247322
-0.0100183
0.00779555
0.00112603
0.00699782
-0.00889685
0.000773001
-0.000175025
0.00858644
0.00298776
-0.0113992
-0.00170428
-0.000270017
-0.00355028
0.00552458
-0.00907838
0.00992485
-0.000377962
-0.000468507
0.00031805
-0.00916496
-0.00641314
0.00568027
0.00172425
-0.000991383
-0.0170889
-0.00107875
0.0083403
0.00982736
-0.00518077
-0.00220799
0.00440797
0.00298079
0.00759717
-0.02548
0.00353325
0.0143496
-0.00397959
0.00800928
-0.00437407
0.000344369
0.00571586
-0.00443674
0.000566035
-0.00184515
0.000128826
-0.0107115
0.0105827
3.22366e-05
0.00869731
-0.00872954
0.00768672
-0.00150457
0.00101937
-0.00720152
-0.00458159
0.006537
0.00216663
-0.00412204
-0.00323937
0.0138002
-0.0033164
-0.00724438
0.00651291
-0.0110978
-0.000423864
0.00500877
0.00745365
0.00789074
-0.0153444
0.0109935
-0.0123545
0.00316603
-0.001805
0.00106757
-0.00198339
0.0143522
-0.0134364
0.000412762
-0.00232147
0.0103381
-0.00842942
0.00245053
0.0216358
0.00623574
-0.0303221
-0.0189202
0.0166464
0.010789
-0.00851516
0.000869283
0.00666388
-0.0089603
0.00142714
0.00881283
0.00980103
-0.00320872
-0.0154051
0.0164012
-0.00996341
-0.000328379
-0.00610945
0.000714775
-0.00209539
-0.00657933
0.00795994
-0.00665873
3.79242e-05
0.00662081
0.00996264
0.000344262
0.000686576
0.0123784
0.00104441
-0.0188204
0.00539762
-0.00992574
0.0021923
0.001764
0.00596944
-0.00628357
0.00155816
0.000772614
0.00395279
0.00154498
0.0011049
-0.0131011
0.0104512
-0.0026918
-0.0156657
0.00998778
0.00836968
0.00626525
-0.00741161
-0.00482989
0.00597626
0.0101284
-0.000110317
-0.0101284
0.000110293
0.00777317
-0.0109849
-0.00381511
0.00702686
0.0201129
-0.00608561
-0.00313451
-0.0108928
0.0113831
-1.88612e-05
-0.0104711
-0.000893129
-0.00573237
0.00675164
0.0140707
-0.01509
0.0122946
-0.00431793
-0.0118229
0.00384621
0.00226111
-0.00330693
0.0143866
-0.0133408
-0.0162529
0.0148133
0.0140424
-0.0126028
0.000731898
-0.0126521
0.0048837
0.00703653
0.0158344
-0.000839568
-0.000321654
-0.0146731
0.0111383
-0.00217092
0.00215401
-0.0111214
-0.0129325
-0.0117603
0.0139194
0.0107733
-0.00245002
0.00702708
0.00190489
-0.00648195
-0.00554454
0.000302215
0.0107465
-0.00550417
-0.00123417
0.0139029
-0.0129397
0.000270969
-0.0119594
0.0111072
0.00216258
-0.00131033
-0.000401353
-0.0069798
0.0166492
0.00221672
-0.00739083
-0.00539878
0.0105729
-0.00586861
7.72265e-05
0.00579138
0.00179918
0.00818146
-0.00756817
-0.00241246
0.0130222
-0.00750808
-0.00199493
-0.00351923
8.97309e-05
-0.00382427
0.00373454
-0.00735292
-0.00198092
0.00276102
0.00657281
0.000755522
0.00416039
-0.00933569
0.00441978
0.0159011
-0.00143567
0.00621482
-0.0206802
0.00114585
-0.00140276
-0.0193244
0.0195813
0.0012469
-0.00552328
-0.0073082
0.0115846
0.000467688
0.0100556
-0.000560696
4.0324e-05
-0.00590235
0.00586202
0.0122648
-0.00454803
-0.00550002
-0.00743672
0.00621225
-0.00612844
0.0135216
-0.0112534
-0.00136313
-0.000905082
0.00135732
-0.00641881
0.00280635
0.00225514
-0.011038
-0.00334163
0.00224335
0.0121363
0.00918404
-0.0149231
0.00983247
-0.00409345
-0.000409187
0.0134759
-0.0134947
0.000427956
-4.33712e-05
0.0122715
-0.0121589
-6.92992e-05
-0.0171522
0.0136886
-0.0109877
0.0144513
0.0143088
-0.0138479
-0.000460861
-0.0131077
0.0175573
-0.00321055
-0.00123906
-0.0117137
0.00281645
-0.000881688
0.00977891
-0.0193175
0.00148863
0.0124205
0.00540839
0.00343733
-0.00469406
0.00261405
-0.00471887
0.00536536
0.0086315
-0.00927798
-0.00514589
-0.0023094
0.00294485
0.00451044
-0.00695437
0.00455049
-0.00879087
0.0111948
0.00209312
0.000168222
-0.0153691
-0.00683851
0.00682443
1.40761e-05
0.00749666
-0.00720747
-0.000289186
-0.011316
-0.000739739
-0.00301193
0.00279465
-0.0148944
0.0173477
-0.005248
0.0067091
0.0115458
-0.0146827
-0.00357215
0.0128175
-0.0139217
0.00037369
0.000730439
0.0068255
0.00177443
-0.00705557
-0.00154436
-0.0107903
-0.000599881
0.0141848
0.00619604
-0.000447986
-0.00755323
0.00180517
0.00698192
-0.00597801
0.00688636
-0.00789027
-0.0122045
0.00229197
0.0166217
-0.00412133
-0.00578411
0.0190955
-0.00919009
-0.0058875
-0.0064813
0.0015785
0.00175811
0.00465074
-0.0122964
-0.00832098
-0.000733826
0.013371
-0.00431622
0.00129705
0.00204603
0.00743768
-0.0107808
-0.00397029
0.00971885
-0.00574856
0.00315054
-0.0150693
0.00543746
0.00897774
0.00627056
-0.0134902
-0.0127124
0.00015293
0.0158415
-0.00328204
0.00214118
0.00183437
0.00573365
-0.00970921
0.00852525
-0.00858847
6.32203e-05
0.00321793
-0.00121491
0.0108029
-0.0128059
0.011304
-0.00358414
0.00543578
-0.0131557
0.0207672
-0.0066765
0.0154978
-0.0295885
0.0034045
0.00633402
-0.00263129
-0.00710724
-0.00937649
0.00385804
0.00491826
0.000600193
0.00671929
-0.00506226
-0.000138446
-0.00151859
-0.00437465
-0.00554869
0.0161561
-0.00623279
-0.00753077
0.00976865
0.00390136
-0.00613923
0.0113331
-0.00061965
-0.00373153
-0.0176521
0.0116669
-0.000969169
-0.0168346
0.0155315
0.00721252
-0.00590942
0.010738
-0.0121018
-0.00174624
0.00311007
0.00606252
-0.0109528
-0.0057378
-0.00624624
-0.00573247
0.0032395
0.00873921
-0.00891705
0.00276872
0.00880126
-0.00265293
0.0102994
-0.00979841
-0.00674555
0.00624456
6.43215e-05
-8.93514e-05
-0.0096467
0.00967173
0.000232836
-0.00848796
-0.00032253
0.00857766
-0.00243969
-0.0144676
0.00227182
-0.00836195
0.00752178
-0.00143165
-0.00570474
-0.00240488
-0.000807437
-0.000193837
0.0143186
0.00020414
-0.0341746
0.0240391
0.0173718
-0.0072363
-0.0100959
0.000686442
0.000366901
0.0090426
-0.00201058
0.0320021
-0.0376536
0.00766209
0.0015934
0.00245777
-0.00551531
0.00146413
-0.0216186
0.0116506
0.00150611
0.00846183
-0.00025597
-0.0143573
-0.00204222
0.0166555
-0.00599739
0.0216528
-0.0149869
-0.000668491
0.00971037
0.0141153
-0.0130465
-0.0107792
-0.0115886
0.0110366
0.0137076
-0.0131555
0.00448294
0.00626428
-0.00780261
-0.00294461
0.0044711
-0.00301646
-0.00715937
-0.0230248
-0.00090542
0.0188119
0.0051184
0.00674796
0.0010306
-0.00392053
0.00694561
0.0092976
-0.00858508
-0.00765813
-0.0114936
0.00256039
0.011212
-0.00227885
0.00136829
0.00360887
0.0125802
-0.0133416
0.0131752
0.00127689
-0.00111046
0.0082315
0.00645541
-0.00581759
-0.000230472
-0.0016367
0.00768477
-0.00882027
-0.00175265
0.00490585
-0.0170211
0.00723929
0.00487601
0.000518062
0.00917424
-0.0101803
0.000487959
-0.00353875
0.000684347
-0.00329035
0.00614474
0.0141947
-0.0101461
0.000422499
-0.00804009
-0.00629006
0.00846178
0.00586837
0.0303922
-0.0325121
0.0106192
-0.00849928
-0.00582238
0.00723468
0.00291431
-0.00432662
-0.0133256
0.00579324
0.0116191
-0.00408672
-0.00578122
0.00839192
0.0107929
-0.0134036
0.0162246
-0.00627756
-0.0107419
0.00079479
0.000282723
-0.00394756
0.00960314
-0.0059383
-0.00166937
0.00165596
-0.012699
0.0116412
0.0037853
-0.0124612
-0.00296527
0.0146231
-0.011994
-0.00322894
0.00307804
0.00455512
-0.0107667
0.00313351
-0.00599481
-0.0110028
0.00977147
0.00722618
-0.0018338
-0.00476167
-0.00144462
0.00597345
-0.0063832
0.0137546
-0.0133449
0.00144758
-0.0166595
0.015212
0.00568003
-0.0074271
0.00482511
0.00307174
0.00177061
0.00251893
-0.00736128
-0.000310549
-0.0138723
0.0141829
-0.00755713
0.00100384
-0.00245218
0.00900547
-0.000907444
0.0105029
-0.00957334
-2.21388e-05
-0.0071346
-0.00377599
0.00411968
0.0067909
-0.00266023
-0.00630817
-0.00585907
-0.00861252
0.00718329
0.00728831
0.00031599
-0.00883529
0.0152584
-0.0062739
-0.000812257
-0.00817223
0.00807397
-0.000769471
-0.00589102
-0.00141348
-0.00129157
0.0113862
-0.014219
0.00412443
0.00735577
0.000283005
0.00358085
-0.0112196
-0.000269998
-0.00604701
0.00291829
0.00339872
-0.00418027
0.00543991
0.0105161
-0.0117758
-0.0148053
-0.00384107
-0.00414441
0.0136655
-0.0126478
0.000298109
0.00396923
0.00838051
0.00121786
-0.00448774
-0.00799319
0.0112631
-0.0057947
-0.0113112
0.00285409
0.0142518
-0.00529608
-0.0058823
0.00610648
0.0050719
-0.0137004
0.0131878
0.0139142
-0.0134016
-0.00185392
-0.00323595
-0.00974628
0.0148361
-0.0133455
0.00136191
0.0135822
-0.00159857
-0.00231775
0.00623122
-0.00391347
-0.00540727
0.0099952
-0.00752469
0.00293677
-0.000235345
0.017987
-0.00667624
-0.0110754
-0.00643462
-0.00310927
0.0129155
-0.00337165
0.00207594
-0.00544631
0.0123588
-0.00898842
0.000564948
0.00801099
-0.00140348
-3.7023e-05
-0.0131669
0.0131569
4.70459e-05
0.0149859
-0.00265379
-0.0219035
0.00957142
-0.0138394
-0.00135627
0.0172796
-0.00208394
-0.00751119
0.0113479
0.00093162
-0.00476834
0.00669426
-0.00661111
-8.31563e-05
-0.00801506
0.000772756
-0.00691656
0.0141589
-0.0115678
0.0159416
-0.00332396
-0.00104978
0.00720938
-0.00302367
-0.00869332
0.0045076
-0.0139327
0.0140583
-0.000125596
0.0114798
-0.0166935
0.00135022
0.00386348
-0.0130071
-0.00356097
0.0222437
-0.00567555
0.00959558
-0.000399671
-0.00201566
-0.00718024
-0.00547091
-0.00927825
0.0207226
-0.000975905
-0.0136929
0.00828563
0.0215768
-0.0240726
-0.00228447
0.00478025
0.00575728
0.00274484
-0.00636094
-0.00602982
0.00628595
-0.000256132
-0.00246282
0.0137594
-0.000873414
-0.0104232
-0.00299598
0.00355361
0.0119514
-0.012509
0.00780752
0.0183213
-0.0107208
-0.015408
0.0133773
-0.01605
0.00510238
-0.00242974
0.0121843
0.000170426
-0.0123547
0.000225702
0.0118585
-0.0120842
0.0133682
-0.016182
0.0142937
0.000145469
-0.000122916
0.0103983
-0.0104209
0.000266698
0.0189517
-0.0188792
-0.00033919
-0.00161969
-0.00478971
-0.00969352
0.0161029
-0.00593001
-0.00355412
0.0011908
0.0112174
-0.019522
0.00711376
-0.00948561
-0.00248726
0.01017
0.00180288
-0.0111736
0.0123387
-0.00329565
0.00213054
0.00176481
0.00919567
-0.00312813
-0.00783235
-0.00446672
0.00111401
0.00756952
-0.00421681
-1.29571e-05
0.00340962
-0.0042737
0.00087704
-0.00476562
0.0116558
-0.006719
-0.000171166
0.003485
-0.0109948
-0.00642293
7.79402e-05
-0.0102537
0.0101758
-0.00379985
-0.00364623
0.00169112
0.00575496
0.00573912
-0.00331091
-0.00242821
0.0143434
-0.0142453
-0.00290553
0.00280751
-0.00130204
-0.00847156
0.00781185
0.00196175
-3.52418e-05
4.7688e-05
0.00767191
-0.00768436
0.00382691
-0.00314515
-0.0121762
0.0114945
0.0088323
-0.000219522
-0.00861278
-0.0129363
-0.0083766
0.0124837
0.00882923
0.00758328
0.0118841
-0.0204432
0.00720049
-0.00259084
0.00405385
-0.00866349
-0.00288261
0.00285979
-0.0158614
0.0158842
0.00449536
-0.00885265
-0.00861538
0.0129727
-0.000909036
-0.0020374
0.00959786
-0.00665143
0.00669467
-0.00822817
0.00298171
-0.0014482
0.00365169
-0.00605284
-0.0058504
0.00825156
-0.0117955
0.0132822
-0.00353815
0.00205146
0.0134034
0.017234
-0.0189806
-0.0116569
-0.0103859
0.0103416
4.43285e-05
-0.00116286
0.0122721
-0.0153294
0.00422016
0.000476575
-0.000779492
-0.0117858
0.0120887
0.0116161
0.00048746
-0.0133653
0.0012618
-0.00493978
-0.00834984
0.0105006
0.00278901
-0.0119372
0.0169129
-0.00598849
0.00101277
-0.00493885
-0.0060332
0.00358122
-0.000733242
-0.000124802
-0.00849221
0.00935026
-0.0277432
0.000110731
0.00248799
0.0251445
0.00109923
-0.00706375
-0.00365601
0.00962053
0.017325
-0.00142378
-0.005608
-0.0102932
-0.00309308
-0.00667664
0.00130025
0.00846948
0.00485734
-1.8408e-05
-0.00483893
0.00813697
0.00433616
-0.00269895
-0.00977417
0.00630376
-0.00499235
0.0124353
-0.0137467
0.000409063
0.0129359
-0.00427482
-0.00907012
0.00314031
0.00448199
0.00970268
-0.00620797
0.000438106
0.00576986
-0.00805957
0.00113981
0.00213882
0.00135247
-0.0111522
0.00766086
-0.0105347
0.0154146
0.00466834
0.0159297
-0.00337602
-0.0172221
-0.0101118
0.0099313
-0.0157164
0.0158969
-0.00152117
-0.00762836
0.00266827
0.00648127
-0.00840646
0.0158601
0.00470764
-0.00547995
0.00122626
-0.000453939
-0.00519381
-0.0165657
0.00518584
0.0165737
0.0108844
-0.0108624
-9.87123e-05
7.67294e-05
0.00880202
-0.0102734
0.00219162
-0.000720197
0.00225854
0.00883597
-0.0157401
0.00464563
3.76531e-05
0.00760262
-0.00764028
0.00492182
-0.0126143
0.009951
-0.0047582
0.0127741
0.0107602
-0.0187761
0.00363408
-0.00369639
-0.0171973
0.0172596
-0.00518251
0.00858564
-0.0172213
0.0138181
-0.0123469
0.00983083
0.0128909
-0.0103748
-0.00775073
0.0106188
-0.00686073
0.00399266
-0.00162669
0.00708722
0.001153
-0.00661353
0.00360865
-0.00526162
0.00542614
-0.00377317
0.00677682
0.00252152
0.002229
-0.0115273
0.0193453
-0.0131352
-0.000790046
-0.00542002
-1.05785e-05
-0.00937966
0.00939024
0.00587529
-0.00859108
-0.0263441
0.0290599
-0.00117954
-0.0127704
-0.00387187
0.0178218
-0.000777514
-0.00588776
0.00666527
0.00178989
0.00848974
-0.00134067
-0.00893896
-0.00237528
-0.00857351
0.00691906
0.00402973
0.00660174
-0.00552888
-0.0097117
0.0168794
-0.0131371
0.00370638
0.00392662
-0.00763299
0.0127332
-0.000338672
-0.00153013
-0.0108644
-0.00244169
-0.00415295
0.00659464
0.00456409
0.00303262
0.0254768
-0.0306399
-0.0108252
0.0159883
0.00392033
0.0083518
-0.00638788
-0.00588425
-0.00892138
0.0170722
0.0113512
-0.019502
0.0100481
0.00348745
-0.00134522
-0.0121903
0.0166621
-0.0111102
0.00716966
-0.0127216
-0.00931271
0.00425805
-0.0116732
0.0167278
-0.0151696
0.0271876
-0.0106566
-0.00136131
-0.000401129
-0.00650821
-0.00897002
0.0158794
0.0123172
0.00508844
-0.0144534
-0.00295223
0.00658757
-0.017563
0.0110865
-0.000111079
-0.0155377
-0.000592044
0.0101668
0.00596292
-0.00311729
0.00805975
0.00350503
-0.00844749
-0.00197618
0.00792523
0.00637505
-0.0123241
-0.0161831
0.00832523
-0.000789415
0.00864727
0.00148844
-0.00442323
0.00878752
-0.00585273
0.00684992
-0.00344581
0.00244501
-0.00584913
0.00664709
0.00127867
0.000654275
-0.00858004
-0.00984726
0.0105655
0.00391328
-0.00463151
-0.00232647
0.0124532
0.000252603
-0.0103793
0.0100457
-0.00589805
-0.00389557
-0.000252102
0.00870802
6.76855e-05
-0.00877571
0.00636574
0.00492897
-0.00111774
-0.010177
0.00296816
0.00783352
0.00670519
-0.0175069
-1.72039e-05
-0.0140821
0.0140993
-0.00735201
0.0284403
-0.00414446
-0.0169438
-0.000135031
0.0105975
-0.0104625
-0.000709866
-0.00764951
0.00137389
0.00698549
-0.0138281
0.00704484
0.00534967
0.0014336
0.00282171
0.0023482
-0.0161704
0.0110005
0.00827263
0.0130677
-0.004884
-0.0164564
0.0124355
-0.00426043
-0.0119029
0.00372775
-0.0155497
0.00886643
0.0237002
-0.0170169
-3.95397e-05
0.0059367
-0.00593679
3.96321e-05
-0.00614244
0.00607834
6.41004e-05
-0.015818
0.000243549
0.00665303
0.00176605
0.00381922
0.0104531
-0.0160384
0.00826728
-0.00983304
0.00634196
-0.0047762
-0.00787424
0.00689632
-0.000261513
0.00123944
-0.00165304
-0.0129749
0.0166144
-0.00198643
-0.00579878
0.00279235
0.00918144
-0.006175
0.0100787
-0.00388506
0.00148712
-0.00768073
-0.00671147
-0.00117007
0.00785664
2.48896e-05
-0.00114735
-6.15553e-05
0.0108984
-0.00968947
0.00139414
-0.00117103
0.0109465
-0.0111696
-0.00984553
0.0137605
-0.014418
0.010503
6.72945e-05
-0.0124122
0.012345
-0.00441865
0.00038787
0.0111401
-0.0071093
-0.00849941
0.00993674
-0.0135511
0.0121138
-0.00870796
0.000659324
0.00264985
-0.00402378
0.0109033
0.000605792
-0.00748531
-0.00290989
0.000406417
-0.00493325
-0.00429126
-0.0139419
0.0140052
0.00422797
-0.00621042
-0.00072779
-0.00156064
0.00849885
-0.0212847
0.00719492
0.00209675
0.0119931
-0.00674977
0.0154332
-0.00766425
-0.00101916
0.00471135
0.00184703
-0.00946826
0.00927512
0.00945857
-0.0187337
0.00124006
0.0203428
-0.00470862
-0.0168742
-0.00025775
-0.000360025
-0.00894723
0.009565
-0.00976186
0.0160823
-0.00648281
0.000162371
0.00926847
-0.00585341
-0.0084001
0.00498504
0.00230663
-0.000309309
0.00282354
0.014239
0.00398328
-0.0206044
0.00238216
-0.00985887
-0.00128672
0.00323326
0.00791234
0.0037429
-0.00414921
-0.00562688
0.017162
-0.0115445
0.00896998
-0.0145875
-0.00189832
0.0110801
-0.0191636
0.0099818
0.00665932
-0.00841553
-0.000852851
0.00260906
-0.00737877
-0.0025676
-0.000249208
0.0101956
-0.00549147
-0.00519334
0.0106848
0.00137806
-0.0147328
0.013067
0.000287739
0.00565186
-0.00544962
-0.00569371
-0.00921845
0.0116998
-0.00222911
-0.000252244
0.0132013
0.00363341
-0.0142264
-0.00260825
-0.00509792
-0.00745261
-0.000855333
0.0134059
0.00834669
-0.00253957
0.00967878
-0.0154859
-0.00932122
-0.000524302
-0.0111713
0.00597793
0.00144119
-0.0125377
0.00401158
0.00708493
0.00363617
-0.0130199
0.00717142
0.00221235
0.00194545
0.000511849
-0.00976355
0.00730625
0.00149759
0.00640759
-0.000430738
0.0109479
-0.00216332
-0.00835387
-0.0042978
-0.000436944
-0.00401798
0.00875272
-0.00254148
-0.00342358
0.00654588
-0.000580832
-0.0101908
-0.000145366
-0.0172405
0.00618923
0.00907505
0.0244972
-0.000198884
0.00333901
-0.0276373
-0.0107114
0.0166454
0.00337396
-0.009308
-0.00305386
0.00167444
0.0105468
-0.00916736
0.00128103
0.00363722
-0.00281384
-0.00210441
-0.0184243
-0.00380161
0.0159008
0.0063251
0.000402044
0.00775584
-0.00155614
0.000237502
0.00391809
-0.0122946
0.008139
-0.00762608
-2.69758e-05
0.00281208
0.00484097
-0.0104001
0.0128526
-0.00205049
0.00586882
-0.00529213
-0.000576689
-0.00868522
0.001252
-0.00674629
0.0141795
-0.00391309
0.00588857
-0.00453868
0.00256319
-0.00842339
0.00948568
-0.00391988
0.00285759
0.00380413
-0.000623094
-0.00903962
0.00585859
-0.00376714
0.0236132
-0.0317833
-0.00344989
-0.00240775
0.00235753
0.0035001
0.0112527
-0.0175654
-0.000797635
0.00711031
-0.00476448
0.00355552
0.00612706
-0.0049181
-0.0014115
0.00752519
-0.00207554
-0.00403815
-0.00846974
0.00187904
0.00197962
0.00461108
-0.00469531
0.000403502
0.0042918
0.0108933
-0.00518717
-0.00552708
-0.000179077
0.000793708
0.00540779
-0.00820817
0.00200668
-0.00583203
-0.00706988
0.00720915
0.00569276
-0.00300713
0.00776215
-0.00665801
0.00190299
0.00281714
-0.00533315
0.00367584
-0.00115983
0.0101848
0.000276476
-0.0104613
0.00877154
-0.0107996
0.00534414
-0.00331603
-0.0137703
-0.000405232
0.0141756
0.00568634
-0.004717
0.00109963
-0.00206897
-0.000447448
0.00976318
-0.0106558
0.00134011
-0.00490865
0.00614521
0.00158058
-0.00541693
0.0116061
0.0107238
-0.00926335
0.00918296
8.03911e-05
0.000255112
-0.0146434
0.0143883
0.019778
0.00239136
-0.00421881
-0.0179505
0.00412907
-0.0161141
-0.00199641
0.0139814
0.00314702
0.00372158
0.00208925
-0.00895785
-0.00554297
-0.00555075
7.44504e-05
0.0110193
-0.00264473
0.00363625
-0.00653448
-0.0121987
0.00220269
0.0160134
-0.00601745
-0.0239407
0.0175329
0.00771699
-0.00130915
0.0105882
9.18254e-05
-0.01068
-0.0059955
-0.00806663
0.00521752
0.00884461
-0.00604227
-0.00877527
0.00261888
-0.00871084
0.00473066
0.00547776
0.00353191
-0.00459239
-0.00842897
0.00948945
-0.00596593
4.02218e-06
0.00596191
-0.0138742
0.00564012
0.00572785
0.00250623
0.00351485
-0.00939299
-0.0028327
0.0119233
-0.00378139
-0.000301163
-0.00784072
-0.00799908
0.0132539
0.00786771
-0.0131226
-0.00234168
-0.0049201
0.00180479
0.00545698
-0.00338519
-0.00272265
0.00610784
-0.0058871
-0.0123743
-0.00567931
0.00275626
3.55283e-05
0.00556165
-0.00835344
0.0113314
-0.00825266
-0.0119338
0.0088551
-0.00420404
0.00149836
0.00849521
-0.00578952
0.00799435
-0.00562794
-0.000792594
-0.00157382
-0.00916711
0.00148807
0.00716053
0.000518515
-0.00568095
0.013053
-0.0141365
0.0055116
0.000409012
0.00821589
0.0132317
-0.0105682
-0.0083231
0.00565952
-0.0105195
0.00219046
0.0196605
-0.010249
-0.00675664
0.0110303
0.00597531
-0.00119731
0.0106752
-0.00404949
-0.00542837
0.000604858
-0.00625816
-0.00412741
0.00978071
0.0121532
-0.00801748
-0.000493148
-0.00364255
0.00374543
0.00279781
-0.00918797
-0.00255464
0.00289244
0.00713324
-0.00747104
-0.0021124
0.0110446
-0.0136136
0.00468137
-0.00660329
0.00159263
0.00159848
0.00341219
-0.0145198
0.0147703
-0.00025052
0.0099877
-0.00984385
-0.000143847
0.00401818
-0.0155227
-0.00595999
0.0174645
0.0035636
0.00677914
0.00158054
-0.000171447
0.0059402
-0.00576875
0.00948028
0.00849765
-0.0179779
-0.010573
0.00645454
0.00456233
-0.000443881
-0.00593799
0.00195663
0.00482767
-0.000846299
-0.0177082
0.00826403
0.00971223
-0.000268096
-0.00575498
-0.00641648
0.00620553
0.00908037
-0.00142921
-0.00585317
-0.00179799
-0.00980987
0.0105972
-0.00646833
0.00172824
-0.0109666
-0.000560659
0.00979899
-1.24516e-05
-0.00536585
0.0053783
0.0264778
0.000213133
0.00281351
-0.0295045
-0.000992448
-0.00194151
-0.0143022
0.0172362
0.0046022
-0.00623113
-0.00290607
0.00453499
0.00178174
0.0136907
-0.00553108
-0.00994139
0.0149381
-0.0149467
-3.55349e-05
4.41123e-05
-0.00837883
-0.00756016
0.0118166
0.0041224
0.00489211
0.00374522
-0.00975106
0.00111373
6.88525e-05
0.00906677
-0.00926552
0.000129904
-0.0124819
0.00399665
0.010116
-0.00163084
0.00961373
0.00581208
-0.0097327
-0.00569312
0.000226625
-0.0085366
0.00433976
-0.00222371
0.0128221
-0.00692265
-0.000901532
-0.00108055
0.00890474
-0.0115095
0.000605127
0.0109043
0.0168686
0.00729063
-0.00546923
-0.01869
-0.0110145
0.000236901
0.0110043
-0.00101128
-0.00263263
-0.00672195
0.0103659
-0.00133987
-0.00131757
-0.00354647
0.00620391
0.00277641
-0.014084
0.0106187
0.000688852
0.00874364
-0.00136444
-0.00850749
0.00112829
-0.0108447
0.00227624
0.000886245
0.00768225
-0.00411991
0.00269374
-0.00555095
0.00697712
0.002372
0.00150239
-0.0139657
0.0100913
0.000488115
-0.00945881
-0.000659024
0.00962972
0.00938767
0.001228
-0.000158327
-0.0104573
-0.0112003
0.00260976
0.0101356
-0.0080421
-0.0106792
0.0187213
0.0155327
-0.00792413
0.00333975
-0.0109483
0.00121928
0.00873527
-0.00535235
-0.0125453
0.002315
0.00444179
0.00578852
0.0154794
-0.015938
0.000458552
-0.00933962
-0.00317112
0.00653757
0.00597317
-0.012141
-0.00943216
0.00632256
0.0152506
0.0126982
-0.0132622
-0.00162279
0.00218675
-0.00184688
0.00616184
-0.0048565
0.00054154
-0.0158658
0.00517157
0.00364613
0.0070481
-0.0233753
0.0290889
0.0048163
-0.0105299
0.0104076
-0.0225871
-0.00115006
0.0133296
-0.00926873
0.0117677
-0.0218133
0.0193144
-0.00974705
0.0214813
0.00213273
-0.013867
0.000855733
0.010171
-0.00237273
-0.00865402
0.0154608
-0.0115963
-0.000389595
-0.00347494
-0.00272257
-0.00261504
0.00399607
0.00134154
-0.00734229
-0.0152615
0.0130013
0.0096025
-0.01037
0.0138139
0.0120168
0.00840143
-0.00617653
-0.0076967
0.0054718
0.00312439
-0.00404287
-0.00178569
0.00270416
0.00691281
-0.00683553
-0.00911137
0.00903409
-0.00280389
0.00804341
-0.000581961
-0.00465755
-0.0111158
-0.00177114
0.0137427
-0.00840429
-0.00206652
0.0103903
8.05259e-05
0.00341721
-0.00763453
0.00421732
0.00273379
-0.00363081
0.013531
-0.0126339
0.0105489
-0.0148333
0.00214701
0.00213737
0.00671993
-0.00725173
0.000531803
-0.0106534
0.000283425
0.00955489
-0.00363814
-0.00921767
0.00330092
0.00299246
0.00242973
0.010654
-0.0160761
0.00655018
-0.00711239
0.000562209
-8.16662e-05
0.00830589
-0.0093899
0.00116568
-0.0117065
-0.00112886
0.0155691
-0.00506534
-0.00086662
0.00117067
0.00476129
0.00069973
-0.00578248
0.00426531
0.000817442
0.00946788
-0.00906202
-0.00225274
0.00108328
0.0155985
-0.00982368
-0.00685811
-0.00537641
0.011371
-0.00599456
-0.0145374
0.00556721
-0.00341224
0.0123825
0.0114479
-0.0103756
-0.0169381
-0.0055531
-0.00664478
0.0228372
-0.0106394
-0.01635
0.0104168
0.014843
-0.00890984
-0.000366205
-0.0139569
0.0143231
0.0221473
4.49525e-05
-0.0127601
-0.00943214
0.0128342
-0.00826629
-0.00114186
-0.00342606
-0.00936507
0.00664898
-0.0016806
0.00439669
0.000127687
-0.00960342
0.00947573
-0.00705788
0.0072644
-0.000206526
-0.00510958
-0.0053983
-0.013836
0.0243439
-0.0130307
0.00284234
-0.00145746
0.0116458
0.00301214
0.00488801
0.0133619
-0.0120582
-0.00997205
0.00866837
-0.00371362
-0.0076542
0.00844548
0.00292233
-0.00771411
-0.00392342
0.0116483
-1.07457e-05
0.00251881
-0.00145054
-0.00713154
0.00606328
0.00851529
0.000377067
-0.0108834
0.00199109
0.00262634
-0.00182515
0.00281026
-0.00339037
0.00337783
-0.00279772
0.0069584
0.00681731
-0.00695976
-0.00681595
0.00342375
0.00799445
-0.00827158
-0.00314662
0.00727421
0.00315454
-0.0057174
0.00899597
-0.0109082
0.00228934
-0.011953
0.00835607
0.00449846
-0.000901501
0.0142309
-0.00471074
-0.0148966
-0.00379405
0.0101452
0.00509672
0.00989115
-0.0048186
-0.00832978
-0.00226866
-0.0013546
-0.0132956
0.012442
0.00116902
-0.000315427
-0.000827113
0.0166159
-0.0017216
-0.0140672
-0.0108338
0.00220667
0.00483304
-0.00174457
-0.0110179
0.00309589
0.00966656
0.00992952
0.00137722
-2.40781e-05
-0.0112827
-0.0148268
-0.00012542
0.000103156
0.0148491
-0.00380741
0.00417199
-0.00676917
0.00640458
-0.0102121
0.0129153
-0.0013328
-0.00137035
0.0134169
-0.0125292
-0.0110999
-0.00993202
0.00895482
-0.00284371
0.00382092
0.00803689
-0.000362328
-0.00252782
-0.00514674
-0.0150123
0.0144785
0.00709367
-0.0065599
0.00709992
0.00270418
-0.000901578
-0.00890252
0.00257647
0.00652854
-0.00816591
-0.000939099
-0.00483265
0.00486061
-2.7966e-05
-0.0028279
-0.00722135
0.00724536
0.0108544
-0.0107598
-9.45878e-05
-0.00615108
-0.00489308
0.00481304
-0.000637401
-0.00736364
-0.000802362
0.00880341
-0.00083123
-0.00639933
0.0057205
0.00151006
0.0101242
-0.0115074
0.00138325
-0.0128864
0.0132322
0.0121014
-0.0124473
-0.00868521
0.0067085
-0.00457106
0.00654777
-0.00346369
0.00148026
0.00313581
-0.00115239
-0.000366202
0.0156839
-0.000137215
-0.0151805
-0.00790499
0.00383244
0.00389273
0.00452237
0.00575544
-0.0100419
-0.00023587
0.000435716
-0.0124727
-0.000490193
-0.0113386
0.0113337
4.88278e-06
-0.0076002
0.00382661
-0.00836743
0.00258427
-0.00571924
0.000228899
0.0049595
0.00215351
0.00751894
0.000146522
-0.00642961
-0.00123586
0.00629486
-0.015706
0.0125923
-0.00318116
0.00260019
-0.00354278
0.0131745
-0.0122319
0.016143
0.00476498
-0.002482
-0.018426
-0.00411594
-0.00674812
-0.00218784
0.0130519
0.00488727
0.0203656
-0.018391
-0.00686188
0.00234715
0.0147492
-0.0142386
-0.00285775
-0.00508964
0.000671364
0.0104318
-0.00601349
-0.00178222
0.0144884
-0.00781888
0.0104765
-0.00827106
-0.0032293
0.00102385
0.0034321
0.0089837
-0.0124158
0.00841989
0.00186842
-0.00112216
-0.00916615
-0.00774207
0.00618695
0.000622476
0.000932644
-0.000752977
-0.010928
0.000636851
0.0110442
-0.0080263
-0.00101941
-0.00033679
0.0093825
0.00463017
-0.0102677
0.000101883
0.00403635
0.0061295
8.85297e-05
0.0066693
-0.00675783
0.00082447
0.0116772
-0.0298437
0.017342
0.0032859
-0.00827958
0.00786637
-0.00287269
0.00471621
0.0053837
-0.00372902
-0.0063709
4.89485e-05
-0.00598271
0.00593376
-0.0032357
-0.00229508
0.0131032
-0.00757238
-0.00399633
0.01335
-0.0115244
0.00217071
0.0146525
-0.0101807
-0.00983311
0.00536134
-0.00602652
0.00407352
0.00186634
8.66574e-05
-0.000800798
0.00459933
-0.00247359
-0.00132495
0.0157186
-0.0122865
0.00732215
-0.000846155
-0.0119858
0.00550982
-0.00334326
0.00312609
0.00374546
-0.00352829
0.000190676
0.01503
-9.54764e-05
-0.0151252
-0.0109643
-0.00361268
0.0148645
-0.000287473
-0.00311816
-0.00132449
0.003416
0.00443739
-0.00652891
0.00887049
0.00626318
-0.013273
-0.00186066
-0.00273139
-0.00177811
-0.0118699
0.0163794
0.0156324
-0.0123647
-0.0217877
0.01852
-0.00609472
-4.51416e-05
0.00613987
-0.00737251
-0.00389686
-0.00122999