/*--------------------------------*- C++ -*----------------------------------*\
  =========                 |
  \\      /  F ield         | OpenFOAM: The Open Source CFD Toolbox
   \\    /   O peration     | Website:  https://openfoam.org
    \\  /    A nd           | Version:  10
     \\/     M anipulation  |
\*---------------------------------------------------------------------------*/
FoamFile
{
    format      ascii;
    class       volScalarField;
    location    "8.6";
    object      SgT;
}
// * * * * * * * * * * * * * * * * * * * * * * * * * * * * * * * * * * * * * //

dimensions      [1 -1 -3 -1 0 0 0];

internalField   nonuniform List<scalar> 
111485
(
2.4478e-17
9.5144e-06
2.86883e-05
2.42588e-18
5.89237e-05
2.5253e-19
5.52963e-05
7.23418e-06
2.29788e-05
1.43741e-06
5.58086e-05
1.12274e-05
5.74708e-06
1.04986e-06
7.84431e-06
3.63929e-05
1.6879e-06
0.00312382
1.24827e-05
7.00497e-17
5.48752e-17
3.5263e-19
3.15826e-05
4.14148e-05
1.06472e-05
1.07409e-18
4.77418e-05
2.18114e-06
1.80521e-05
3.90084e-18
5.49432e-05
2.2743e-05
2.5988e-17
3.15221e-18
8.00907e-06
6.81085e-19
1.32238e-05
5.00652e-06
4.84919e-11
2.82933e-05
4.38927e-18
8.50995e-05
1.8959e-05
1.73549e-06
7.33033e-08
4.22168e-17
3.61628e-05
8.52479e-07
5.67048e-05
1.07133e-17
1.20321e-17
3.776e-17
6.53672e-18
6.13646e-05
3.24872e-17
5.24885e-05
3.7745e-06
3.17322e-19
2.57331e-08
5.71848e-06
1.92085e-05
4.04058e-18
5.69448e-06
0.000117256
7.59938e-18
3.80661e-06
0.000379148
0.000113197
1.32307e-06
7.1958e-06
1.78641e-08
7.72516e-06
6.51743e-18
3.45245e-06
4.94413e-18
8.43879e-07
2.48663e-17
5.01154e-05
2.08278e-17
1.45602e-16
3.37126e-09
4.00326e-05
6.25234e-18
3.40909e-17
1.10489e-05
4.68429e-06
4.6233e-13
3.04625e-05
7.1511e-08
8.783e-06
3.32185e-07
4.92786e-05
1.41149e-05
7.15458e-08
6.29426e-05
1.01733e-17
2.94545e-18
2.12564e-06
3.16507e-11
1.3708e-06
4.71957e-17
2.16564e-05
1.53984e-18
2.18952e-05
5.56306e-06
1.52829e-17
3.85016e-18
9.03398e-06
4.83516e-06
7.60953e-11
6.65519e-06
5.79162e-06
4.45745e-06
3.7835e-06
8.90038e-18
4.02149e-08
2.54751e-18
1.14349e-18
1.53919e-05
4.89259e-17
1.37271e-17
1.33743e-17
1.29359e-17
5.40558e-19
1.96688e-06
3.6598e-09
2.37358e-17
1.98774e-06
5.0976e-19
3.94073e-08
1.72559e-06
3.90702e-05
6.78934e-18
1.20628e-16
3.16677e-18
5.82088e-05
1.14379e-17
5.06068e-05
3.02721e-05
3.34988e-06
2.85921e-07
2.39745e-06
2.68142e-05
3.22421e-06
4.8171e-06
1.55079e-05
3.31545e-18
9.74773e-17
6.17701e-17
3.35475e-05
1.86298e-06
8.01603e-18
2.67377e-10
5.70129e-06
5.32736e-10
1.30809e-05
1.94689e-05
1.28797e-05
7.98878e-11
1.38271e-17
1.19758e-17
6.28708e-05
2.77941e-05
2.2154e-09
3.91888e-10
7.00476e-06
4.09504e-06
2.67934e-19
5.4122e-09
5.50212e-08
6.8128e-18
1.88624e-17
1.58817e-07
6.16801e-19
6.67706e-06
2.51145e-06
1.67836e-18
1.12727e-17
4.93878e-18
1.56474e-17
7.01084e-18
8.25087e-18
1.7723e-06
8.14908e-06
3.56153e-05
4.9683e-06
9.0399e-06
4.83769e-06
9.26617e-08
5.40338e-18
5.78952e-06
9.40372e-18
6.62385e-18
7.79654e-06
1.25005e-05
3.39026e-05
1.34562e-05
6.00623e-06
3.74529e-17
7.9619e-06
5.85346e-07
5.16502e-08
1.6766e-05
2.78842e-06
6.47344e-18
4.49008e-06
3.09794e-05
7.15485e-17
1.94771e-07
9.30573e-06
2.39668e-06
4.28564e-07
3.86569e-17
2.02735e-17
9.95356e-06
1.35824e-14
0.000144881
2.95051e-18
8.00395e-06
2.45031e-05
0.000144172
2.55163e-17
3.82806e-06
1.6604e-05
2.8986e-16
1.12478e-19
1.85572e-17
0.000181263
3.17338e-10
3.00413e-17
7.20959e-19
1.16562e-05
9.28392e-06
1.82734e-05
4.66727e-17
1.88782e-17
1.67611e-08
7.45687e-17
2.95925e-06
1.10897e-05
1.92416e-05
1.40425e-05
1.18919e-05
2.73501e-17
3.04089e-10
7.45366e-07
7.83509e-17
5.03322e-18
3.65607e-05
2.47919e-05
2.56671e-17
7.61794e-06
1.2794e-05
5.34801e-18
1.03167e-17
1.62679e-07
2.68686e-18
5.91656e-17
5.35663e-08
3.58951e-18
1.78707e-05
1.30076e-05
4.44928e-06
3.4743e-17
1.39791e-05
7.36085e-19
2.27722e-17
1.50255e-17
2.40056e-11
2.76192e-05
7.46806e-06
6.41627e-06
4.38448e-05
1.47733e-05
1.89899e-06
6.64875e-07
3.89637e-05
1.06169e-05
1.14902e-17
8.18453e-17
3.03973e-10
2.68834e-05
2.92122e-05
1.43403e-05
1.73252e-17
8.36584e-06
2.4832e-06
3.62886e-06
4.15888e-09
4.24597e-09
1.62451e-05
2.69446e-06
2.37678e-06
1.49484e-18
7.76845e-07
6.24368e-18
2.03274e-10
2.45452e-16
0.000287612
8.12232e-05
1.43767e-05
1.98473e-17
3.22457e-19
1.07081e-05
1.95646e-06
2.77753e-17
5.62054e-18
2.54784e-17
3.68796e-07
6.98401e-05
4.70656e-06
1.63606e-05
2.27623e-05
4.17487e-17
5.78707e-18
4.30497e-17
4.56754e-06
2.76911e-15
1.21003e-06
0.000220817
3.69525e-10
7.4965e-18
1.86845e-17
9.52552e-18
2.07025e-17
7.16188e-05
1.43334e-05
2.81571e-19
6.25544e-06
3.90369e-18
6.81678e-18
8.29941e-05
7.00397e-06
1.33985e-05
1.11827e-05
4.2446e-17
1.4101e-17
1.02554e-17
1.125e-05
2.22334e-05
6.1621e-06
1.51081e-17
3.3534e-13
1.89452e-07
2.57496e-06
9.56034e-06
4.14363e-08
3.39485e-05
1.03522e-18
4.46873e-05
4.23167e-06
9.33563e-06
2.99951e-05
1.62247e-05
8.70487e-18
6.17732e-18
1.52894e-17
1.11149e-18
3.75098e-05
1.16011e-05
3.96229e-05
8.04835e-05
7.65889e-18
2.23911e-05
3.82297e-18
7.54714e-17
1.99867e-05
1.07978e-17
9.1349e-05
4.15239e-17
2.32056e-19
2.77227e-05
2.66007e-19
1.62826e-05
3.29741e-07
7.59501e-18
1.20732e-06
1.96491e-05
9.27176e-18
1.07079e-05
1.10346e-05
9.75261e-06
7.90119e-07
3.22636e-06
6.66425e-06
4.69331e-17
8.33247e-19
2.23431e-06
2.75444e-18
7.3942e-06
0.000142002
1.96954e-19
2.92585e-18
3.23954e-05
1.36973e-07
9.88346e-06
2.56958e-05
3.19433e-18
5.44954e-05
2.29402e-05
8.83672e-18
9.89017e-07
2.92015e-06
1.43102e-17
3.10681e-17
1.32242e-05
6.29574e-06
2.02214e-18
1.84351e-20
4.14775e-11
3.83781e-17
1.44419e-05
2.11802e-18
1.16581e-17
2.04227e-05
2.02636e-09
1.4467e-05
3.5982e-05
1.57517e-17
1.05897e-17
1.7775e-06
3.19314e-17
1.78536e-07
1.69113e-05
0.00014708
0.0010138
1.67817e-18
3.2967e-06
6.09077e-07
6.3155e-17
4.68667e-05
3.79446e-05
1.75155e-17
8.43865e-12
1.09044e-07
1.32581e-17
2.92109e-05
2.89941e-05
1.68106e-05
6.79821e-17
7.96797e-07
2.16938e-05
2.73857e-05
9.86067e-10
3.11916e-17
7.80284e-13
4.09225e-17
1.55748e-08
3.73337e-05
7.76568e-20
1.01201e-05
1.1348e-07
1.97302e-16
1.04857e-18
5.29012e-17
1.76191e-17
4.79248e-06
1.14993e-05
7.87049e-06
2.49408e-06
3.24033e-06
6.72763e-18
2.3366e-06
4.39394e-17
4.89675e-05
4.84511e-18
1.83301e-17
1.78131e-18
4.36908e-05
2.46017e-17
4.001e-18
2.04472e-10
3.04033e-17
3.26724e-18
1.25882e-06
1.31726e-18
3.74568e-17
1.301e-18
3.78759e-18
1.5158e-17
3.57983e-17
3.62947e-17
8.44719e-06
1.8767e-17
6.41901e-07
2.28271e-06
1.11022e-06
8.0986e-18
1.02166e-06
2.84331e-18
5.67436e-18
3.36779e-06
2.16902e-06
3.28347e-05
3.00359e-05
1.52304e-17
2.45271e-06
9.84237e-05
1.02029e-05
1.21969e-06
3.94514e-06
1.58949e-16
2.77734e-05
1.2303e-16
6.00332e-06
2.18443e-18
9.15019e-05
8.74106e-17
2.57413e-05
2.93717e-07
6.28216e-10
2.18622e-17
2.44176e-06
5.60061e-18
9.56441e-05
5.87362e-05
8.47147e-18
5.61604e-18
2.3916e-17
4.06277e-18
1.69682e-12
6.50542e-05
8.41952e-19
3.4658e-18
2.92309e-06
3.43125e-18
4.05247e-05
5.74777e-18
3.7487e-07
4.62045e-18
5.8498e-07
1.30135e-09
1.19617e-06
1.56399e-05
7.641e-19
4.98305e-07
4.11069e-17
7.59453e-18
1.80961e-05
1.28199e-17
3.63897e-08
6.65942e-18
1.92552e-06
4.24347e-18
7.77651e-05
6.29027e-18
8.22886e-18
2.12901e-05
4.01419e-06
2.1101e-06
4.72873e-06
8.24995e-06
2.48375e-05
7.37864e-18
3.00223e-05
7.39182e-06
1.47976e-18
9.57173e-11
4.8121e-05
1.81579e-05
2.16182e-17
4.65451e-06
7.99045e-06
2.06535e-06
1.25244e-06
2.66727e-13
1.62628e-05
1.46602e-06
1.57486e-07
2.85757e-05
1.63555e-05
7.44361e-07
4.64694e-17
3.97716e-12
0.000779311
1.08225e-17
4.17096e-07
4.16511e-19
7.71192e-17
8.80587e-06
3.39812e-06
2.6502e-10
1.85312e-08
9.91328e-17
1.97375e-05
1.32717e-05
6.6826e-18
1.7475e-13
2.31588e-06
1.6294e-17
3.31961e-18
6.98676e-19
1.65837e-17
1.57346e-05
1.77087e-17
1.93462e-17
1.05092e-05
2.32705e-06
3.65233e-16
1.26962e-05
9.01643e-18
1.01232e-05
1.04666e-17
1.60752e-17
6.34733e-05
8.09402e-18
2.73349e-17
3.36962e-17
5.24755e-06
3.20181e-16
3.47413e-05
7.48719e-06
1.20392e-18
0.000104961
2.92162e-06
3.4207e-05
3.3688e-05
5.5618e-07
9.37544e-08
4.62545e-17
6.50221e-05
5.57685e-05
3.19519e-17
3.86779e-07
4.77632e-05
9.3749e-06
1.70228e-06
3.28206e-05
3.11187e-05
1.60195e-16
1.29004e-05
6.57058e-09
2.57129e-18
4.14163e-05
3.113e-07
1.51788e-16
1.30099e-05
4.85183e-05
1.62178e-06
2.55373e-05
2.35495e-05
8.47206e-06
1.45132e-17
1.23298e-05
3.84782e-07
5.17151e-15
2.04972e-05
2.13441e-05
4.3052e-05
5.41898e-18
2.2477e-06
3.27503e-17
1.11789e-17
8.09837e-18
2.67109e-17
1.6765e-08
5.79983e-18
3.08146e-13
1.37412e-17
3.54043e-18
9.26462e-08
5.19194e-05
3.2741e-17
3.7991e-05
2.81375e-17
3.68043e-17
5.23248e-18
4.65562e-05
4.82475e-07
4.75148e-17
4.07304e-17
1.42634e-17
4.73605e-18
0.000250398
8.2791e-05
3.24656e-17
2.3649e-06
2.51657e-09
1.78806e-17
4.46232e-05
1.00082e-05
1.44572e-05
6.63413e-18
1.14487e-17
5.11545e-07
1.30161e-06
2.01572e-17
2.00587e-17
1.78577e-17
8.74263e-06
2.35261e-18
3.76757e-17
1.62675e-17
4.99835e-05
2.42251e-06
3.3353e-18
0.00463585
0.000397579
1.21013e-05
1.77072e-18
4.28781e-18
6.5818e-05
4.97179e-07
6.78961e-18
6.80177e-09
0.000138381
2.93745e-06
1.34416e-05
2.02947e-17
6.34721e-05
2.22954e-06
9.96041e-19
2.6537e-17
1.49795e-17
5.63867e-19
6.09275e-18
2.87501e-18
2.63473e-05
1.5303e-17
9.46162e-18
1.92532e-17
1.37396e-05
2.76906e-05
7.76756e-18
3.18873e-18
0.000127049
1.71853e-05
1.14022e-05
4.84468e-17
1.70403e-18
4.45337e-05
8.5183e-18
2.09748e-06
3.10204e-06
4.58494e-06
1.0679e-17
2.01902e-18
1.45668e-18
4.43406e-18
1.79135e-05
1.47253e-17
9.65182e-19
1.21025e-06
2.19256e-18
2.75057e-05
2.23242e-06
2.38535e-18
4.42949e-05
0.000435826
3.03657e-06
3.47624e-05
1.70431e-07
5.3124e-05
1.06388e-13
2.5747e-17
2.81767e-05
8.28531e-05
7.24468e-06
2.21749e-17
7.6074e-13
0.000894174
1.20671e-05
7.67819e-18
2.9648e-06
3.07536e-06
1.41165e-06
4.32579e-17
4.9383e-18
4.75954e-17
1.5826e-05
2.69159e-18
3.0871e-06
4.33226e-18
1.51915e-06
1.68423e-06
4.39144e-05
6.54308e-07
4.11835e-18
4.29551e-18
7.9746e-18
2.46568e-05
5.19457e-18
1.97023e-17
8.30681e-08
9.85273e-19
7.69545e-18
9.41788e-18
3.48051e-18
1.20411e-05
1.06423e-17
6.76387e-18
5.52817e-13
7.59008e-18
2.4252e-19
2.82943e-17
3.66583e-18
3.37472e-09
1.91862e-06
1.18978e-18
4.74723e-06
7.83007e-09
3.45035e-10
7.32966e-08
4.85298e-06
6.55345e-18
1.12474e-08
1.1782e-05
4.75327e-07
3.18578e-17
3.27482e-12
1.01762e-06
1.13011e-16
1.16475e-05
2.18245e-07
1.95202e-09
2.80959e-05
1.11655e-05
2.69577e-06
5.95813e-06
2.39948e-06
4.08715e-18
1.81633e-18
3.94629e-05
3.13244e-05
2.05992e-17
1.00041e-05
6.43512e-05
3.3976e-05
6.86615e-18
1.52258e-06
5.56945e-18
1.23432e-05
1.66001e-05
7.48718e-17
1.88898e-06
5.51018e-07
1.42676e-09
5.89727e-06
9.74332e-18
5.83839e-05
1.77382e-08
1.78786e-06
3.81244e-08
1.39991e-08
1.41285e-17
3.73719e-17
8.3535e-06
5.62581e-18
1.41619e-07
2.99997e-07
3.31121e-07
6.42416e-11
8.4658e-11
3.53447e-10
3.66222e-18
1.01654e-16
2.77093e-05
6.8301e-17
1.45892e-07
2.42834e-06
5.37023e-17
1.25359e-17
7.52461e-10
1.14374e-12
2.10625e-19
5.9498e-09
1.30566e-17
4.16377e-18
3.74852e-17
3.50772e-17
3.55547e-17
1.21377e-16
3.2967e-07
2.83192e-18
5.50975e-18
5.90769e-17
7.6093e-09
6.25592e-08
2.15386e-06
1.12117e-05
2.47009e-18
1.36032e-17
2.01575e-07
2.13337e-17
1.16433e-17
1.33062e-16
2.21328e-05
5.05768e-05
2.21819e-17
2.49457e-18
5.00204e-18
9.61187e-18
1.91958e-18
1.52537e-17
8.31672e-06
5.84044e-18
6.29168e-11
3.19795e-05
1.67515e-18
1.37542e-17
2.05592e-17
3.29344e-08
1.5459e-17
2.92617e-18
4.95675e-18
1.10593e-08
3.21249e-18
5.20481e-06
1.11357e-09
6.65846e-12
2.11802e-17
8.93407e-08
2.37236e-06
5.26812e-05
4.29203e-17
1.00908e-08
6.70439e-06
3.00711e-18
1.36865e-17
4.99335e-16
2.23263e-17
1.00607e-05
1.95215e-06
3.90568e-06
2.08995e-10
1.15864e-18
2.61253e-05
1.12751e-18
4.67729e-17
1.09859e-16
2.01718e-17
3.15522e-05
1.25008e-17
1.66581e-17
2.05582e-09
6.13279e-05
3.96797e-17
2.86088e-06
6.01995e-17
9.90542e-07
9.94344e-17
6.86966e-18
6.85427e-18
1.95333e-17
2.91581e-06
7.1505e-07
0.000359463
1.23404e-18
1.02658e-17
2.38155e-06
1.63507e-18
6.74511e-17
6.71887e-17
4.3809e-05
1.12676e-08
3.85805e-05
1.38165e-17
1.25176e-08
5.84758e-08
4.35975e-17
1.48851e-07
2.63604e-17
1.43627e-06
3.02653e-05
2.44141e-05
1.443e-06
2.82784e-07
1.92897e-17
3.29966e-18
2.74511e-18
2.60308e-08
6.22331e-19
8.90346e-06
6.37495e-17
0.000210448
2.63286e-18
4.92114e-05
3.73061e-06
4.52249e-17
1.40372e-17
2.05058e-18
1.88192e-18
4.92809e-05
1.65112e-17
1.87215e-16
1.41488e-05
8.1675e-06
3.75235e-17
7.55616e-17
7.69605e-17
3.15154e-17
1.68808e-17
8.12482e-18
3.07772e-05
4.9615e-07
2.48532e-18
3.92881e-18
6.27367e-10
5.02441e-17
1.89076e-06
1.28248e-07
3.34014e-18
4.18179e-06
1.55178e-18
4.5343e-07
7.03267e-19
1.31896e-06
1.12814e-17
8.87974e-11
2.54743e-09
7.53651e-07
2.15871e-05
4.05708e-05
1.40508e-09
9.41673e-18
6.05701e-07
1.13358e-18
5.46755e-06
1.51055e-18
2.99203e-17
6.34838e-17
9.41684e-18
7.47197e-18
1.66334e-17
8.57154e-06
9.68863e-06
4.07609e-18
7.64082e-17
1.66852e-17
9.07177e-07
1.59232e-08
2.97834e-18
2.16949e-05
2.15285e-07
2.10945e-17
2.78986e-05
9.81113e-06
4.29866e-06
1.37356e-05
5.51293e-18
2.76541e-17
1.9861e-18
1.2867e-17
4.40824e-05
1.18718e-18
0.000136382
2.83818e-18
3.78712e-07
8.70182e-07
1.10585e-18
1.14111e-06
1.81677e-19
1.02675e-17
3.66485e-06
2.62867e-11
1.13008e-05
1.03907e-17
2.79174e-17
4.70304e-18
9.95478e-07
1.5902e-17
1.41496e-17
3.70746e-17
3.34967e-10
3.5394e-17
8.07222e-09
1.1285e-17
1.49091e-17
6.2094e-18
2.16696e-05
1.18364e-05
2.18833e-05
4.31342e-05
1.73396e-17
1.93875e-08
7.51439e-19
1.75309e-17
1.17499e-05
1.29843e-18
2.64953e-09
4.30325e-07
7.90533e-06
4.28969e-07
1.27884e-12
2.26795e-06
1.29221e-17
1.43666e-12
5.35187e-13
1.49473e-07
9.39942e-07
1.76941e-05
7.60455e-11
5.11197e-17
3.63428e-05
1.14857e-17
8.22355e-18
1.66716e-08
8.97497e-05
6.77766e-11
2.51521e-17
5.0993e-18
3.6556e-10
5.78059e-18
2.05181e-17
2.13487e-08
5.60489e-17
2.5714e-18
4.84739e-05
2.68073e-07
2.12122e-07
2.71141e-05
8.68656e-06
8.23963e-18
2.78371e-17
2.13223e-08
4.83072e-06
5.56072e-18
2.6452e-17
1.15375e-05
4.77563e-17
3.19158e-17
4.01936e-17
3.39059e-17
5.94926e-16
0.00308527
4.23007e-19
2.58085e-07
6.50871e-19
2.52196e-05
1.09762e-18
7.16088e-16
4.30049e-18
6.93103e-18
9.15931e-18
4.21271e-17
3.35826e-06
9.91652e-18
1.59123e-17
3.9343e-18
1.93549e-17
3.73929e-17
9.57353e-18
1.16995e-05
6.40923e-18
1.32625e-05
3.6819e-06
6.98043e-18
1.93934e-06
9.79227e-18
5.90618e-07
2.37423e-09
4.56019e-06
1.56569e-05
4.67919e-19
1.09007e-07
9.30423e-06
1.10225e-08
2.13678e-17
3.12423e-09
2.22538e-05
5.65597e-06
4.47731e-17
3.10748e-05
3.72318e-17
1.05792e-17
1.78235e-17
1.51634e-17
9.7559e-06
1.26788e-17
4.00813e-19
9.84057e-06
3.79807e-10
3.23137e-06
2.47663e-18
1.56321e-16
8.00497e-07
1.53485e-17
8.18808e-08
4.79343e-17
2.78028e-05
2.00203e-18
4.58364e-18
6.70261e-08
3.20647e-18
1.64448e-07
1.41159e-16
1.03731e-17
5.74434e-06
5.07929e-07
5.67278e-06
1.84878e-05
0.000263838
2.43247e-05
2.3565e-18
5.90212e-17
3.55049e-06
8.00965e-06
4.35994e-05
1.28664e-05
2.38238e-17
1.44923e-05
1.81638e-17
3.6191e-17
1.08579e-05
1.30599e-05
9.86855e-19
1.5686e-05
1.38103e-17
3.2591e-06
1.04257e-05
5.98119e-17
9.04994e-19
6.74273e-18
3.34286e-06
2.43708e-18
1.33685e-17
4.98173e-06
2.52846e-05
4.26015e-09
8.86165e-06
2.57384e-17
1.40329e-17
9.90527e-08
9.03647e-07
5.08349e-17
1.24e-05
2.87559e-17
3.1621e-06
1.15209e-17
7.35087e-18
1.4701e-05
5.28884e-17
4.57753e-08
4.32056e-06
1.48412e-17
3.43105e-18
5.26467e-06
6.31924e-14
6.23285e-05
3.51573e-17
0.000307524
6.26719e-19
1.20224e-16
4.02233e-17
8.9364e-06
1.10304e-17
3.56969e-18
6.63635e-06
5.55853e-17
2.89108e-07
1.09615e-16
1.64066e-17
4.82391e-17
1.23928e-10
9.14625e-07
1.05609e-17
4.63927e-18
4.17192e-05
1.10928e-06
3.43816e-18
5.16905e-07
5.38743e-18
1.53104e-17
1.975e-09
3.11686e-06
1.56423e-06
1.81891e-17
2.69779e-17
4.47713e-18
1.11505e-18
4.8075e-18
1.93211e-18
2.20399e-17
3.7392e-18
2.64996e-17
4.50853e-17
3.05804e-18
1.93619e-18
1.19626e-16
4.94805e-18
1.977e-18
2.64009e-18
1.47229e-18
1.83818e-17
2.71533e-18
1.24521e-17
1.99403e-17
2.07515e-05
8.53002e-18
3.54415e-18
7.94273e-18
7.85327e-06
1.30217e-18
3.28971e-18
0.000343166
1.48112e-18
1.96982e-18
2.75045e-05
3.77034e-15
3.99644e-18
9.05528e-06
2.91023e-05
2.36766e-18
3.24458e-06
4.83946e-06
2.84854e-17
1.57679e-05
4.68535e-05
2.11973e-05
4.00845e-06
1.27322e-05
2.68717e-17
2.14389e-17
3.49223e-06
1.22735e-05
3.81307e-06
2.33028e-17
7.79262e-06
2.08903e-06
2.53762e-05
1.2103e-05
8.26167e-07
1.85569e-05
1.24962e-06
1.20549e-05
4.3762e-17
2.93881e-05
1.00076e-05
1.94995e-06
1.62583e-06
4.553e-18
1.23338e-17
2.87647e-19
1.2618e-17
4.07266e-18
1.07094e-05
1.61193e-05
8.81324e-19
4.4931e-18
1.02918e-16
5.60865e-19
6.10301e-18
7.75504e-18
1.97716e-17
2.21236e-17
5.39923e-06
2.15808e-07
2.57676e-05
7.95773e-08
6.08239e-18
8.37121e-17
3.64448e-05
8.31243e-09
7.18228e-19
3.7877e-18
8.60417e-06
4.57106e-17
7.99475e-18
3.80719e-09
9.2956e-06
1.59562e-05
3.98864e-05
4.04749e-05
1.17461e-17
1.66072e-05
3.93439e-07
8.65499e-17
1.30902e-17
1.39937e-05
2.14995e-17
6.22569e-20
1.96299e-05
0.00124
2.06064e-07
9.83421e-18
2.13169e-17
2.14047e-05
2.3816e-05
2.07021e-05
6.80631e-06
4.92036e-06
1.47931e-17
1.26002e-09
3.13522e-12
2.89735e-17
2.61594e-17
2.04172e-05
2.29408e-18
2.36316e-06
2.96326e-05
2.07176e-05
1.3634e-05
2.34991e-17
7.15535e-06
6.36427e-18
1.82563e-18
6.20763e-17
1.8129e-18
2.88386e-06
0.00103784
4.67689e-18
1.46103e-17
3.98922e-09
2.7151e-05
1.34377e-06
8.13212e-06
3.85281e-05
5.64988e-06
2.42312e-05
5.77779e-18
7.83857e-18
2.45306e-17
3.52004e-05
6.66217e-06
3.17961e-11
6.57169e-18
1.00759e-17
3.36334e-16
2.60609e-05
3.28725e-06
1.82888e-17
5.7472e-06
6.81993e-05
7.82157e-06
7.19618e-06
1.12205e-17
2.11217e-16
8.11054e-06
2.63913e-05
7.70576e-18
3.96123e-07
1.7173e-05
1.17452e-06
1.06724e-05
5.44287e-06
9.41839e-06
5.46658e-17
3.8768e-06
2.41344e-05
4.24391e-05
5.51729e-13
2.65322e-05
3.86177e-16
1.90655e-05
1.85921e-07
5.10661e-18
3.00161e-06
8.8136e-06
4.44191e-07
1.33225e-05
2.23874e-10
1.50855e-07
1.7031e-08
4.78041e-05
4.24992e-06
1.91301e-17
4.47061e-05
1.51337e-06
4.94776e-18
8.48611e-18
4.81689e-11
1.22712e-08
1.20151e-06
0.00127973
4.05729e-05
1.4083e-05
2.41795e-10
5.18277e-05
3.33847e-18
5.18761e-17
4.54239e-06
8.80825e-18
2.46141e-06
4.874e-06
2.52411e-06
5.33134e-06
3.58554e-18
2.36252e-07
0.000124942
4.27627e-18
2.22893e-05
8.66953e-06
1.14937e-17
4.65389e-06
1.54685e-07
2.99826e-18
7.62094e-12
1.06079e-07
1.56524e-17
3.05063e-17
2.53008e-19
5.07321e-06
5.60199e-06
1.63333e-05
6.71903e-18
5.72924e-06
3.81057e-05
6.39358e-18
9.23837e-06
1.42688e-05
2.78725e-05
1.77258e-06
3.63256e-18
6.72154e-07
1.08281e-05
1.20126e-05
1.04004e-05
4.28633e-05
0.00018771
3.88032e-06
1.79848e-17
8.69442e-09
5.76988e-05
9.35558e-18
4.89761e-07
1.52755e-18
2.11276e-18
6.81207e-18
3.22886e-19
4.69367e-19
3.68699e-06
1.00163e-17
8.2505e-06
1.31983e-06
1.17868e-16
4.3453e-06
3.8172e-17
1.60668e-05
8.5265e-18
2.5496e-08
3.26662e-17
2.51492e-05
1.80942e-07
2.86443e-09
4.83138e-06
3.27712e-05
1.9166e-05
4.41942e-06
3.09822e-05
7.38735e-15
2.59071e-05
6.17517e-05
1.07971e-05
4.4903e-17
1.2653e-06
2.97269e-07
6.40436e-06
1.17404e-05
6.91847e-07
3.68353e-20
7.46522e-18
3.32344e-18
4.09249e-06
1.63321e-17
3.35118e-07
2.49649e-07
1.83002e-06
3.2261e-07
2.28833e-18
3.32772e-17
5.2355e-18
9.96495e-06
2.46201e-05
1.38082e-06
1.09254e-08
2.14338e-06
7.82711e-06
2.23515e-06
8.99491e-07
7.60726e-06
6.84352e-06
3.00581e-06
5.14869e-17
2.00132e-17
2.88073e-17
1.49657e-05
1.21964e-05
1.53436e-18
2.09723e-18
6.1146e-16
9.48552e-06
2.1229e-05
1.26666e-17
2.47432e-06
1.78966e-17
7.03423e-10
5.32662e-06
0.0001011
3.06472e-18
1.96602e-18
4.09418e-06
2.4179e-18
6.75639e-08
1.33696e-05
1.4892e-17
1.22352e-05
3.70772e-05
2.1005e-05
1.7451e-18
1.53584e-06
1.83531e-18
9.71859e-08
5.54002e-05
2.00645e-17
1.86047e-17
1.22517e-05
1.64016e-16
4.55102e-17
5.04427e-08
1.09085e-06
2.42057e-17
3.88908e-18
4.76018e-18
6.93648e-08
1.38243e-06
3.48211e-06
2.91691e-05
1.04104e-05
3.18501e-17
8.03087e-10
7.46782e-07
1.13945e-18
3.12388e-18
8.5119e-18
1.28331e-18
1.36635e-17
5.11546e-17
4.81859e-17
3.11237e-18
3.95323e-17
5.32451e-17
2.70005e-12
5.52238e-17
3.84492e-07
4.34287e-17
2.67022e-07
1.36314e-16
6.88223e-08
1.48331e-16
3.36767e-18
3.21709e-05
1.02185e-05
5.42164e-17
0.000100612
1.26452e-11
4.11876e-13
1.68574e-17
1.4838e-06
1.04851e-14
3.07325e-06
7.37909e-09
9.59257e-07
8.76482e-19
2.51069e-17
1.03003e-06
2.71793e-11
7.58134e-18
5.78618e-17
4.38355e-05
7.89481e-18
4.15683e-05
2.4551e-17
3.25801e-18
1.9839e-09
3.1708e-05
9.01605e-06
7.83109e-18
3.60759e-07
3.36475e-17
3.56073e-06
2.05917e-08
2.02858e-06
1.07025e-06
8.6914e-18
2.2934e-05
1.33666e-06
5.84087e-06
8.07392e-18
5.39336e-18
7.05681e-18
2.16176e-05
4.43416e-06
5.85128e-05
1.45401e-17
5.25433e-10
1.47269e-18
1.63359e-18
1.98507e-17
2.15906e-17
3.69094e-06
2.50068e-06
3.36692e-06
0.000359214
6.02297e-17
3.07001e-05
4.01733e-05
1.95395e-05
1.95858e-06
2.45815e-17
5.90146e-06
5.12586e-06
6.9292e-06
3.75451e-10
1.13874e-05
1.71466e-17
1.7099e-06
1.42502e-06
3.6713e-05
1.31734e-09
3.76611e-06
7.07989e-18
2.11587e-05
6.72636e-18
6.9537e-18
1.85418e-06
1.14923e-18
6.89378e-06
3.55626e-18
2.14667e-17
4.91043e-18
7.46576e-19
2.59884e-17
9.0862e-07
6.01669e-18
6.14559e-07
3.08568e-17
2.95539e-17
2.00786e-05
6.09153e-06
8.91654e-06
8.36569e-06
2.90308e-17
0.000665825
5.40446e-18
7.84353e-05
3.05495e-17
1.99383e-05
2.68527e-05
2.68426e-06
6.38464e-05
3.35675e-17
1.05267e-16
4.14156e-18
2.44046e-06
1.3818e-17
2.76424e-18
1.98493e-05
1.84131e-17
1.19473e-18
6.07071e-06
5.49184e-18
1.43038e-05
7.56982e-11
1.86756e-18
1.34176e-17
1.33689e-17
1.81895e-06
7.63024e-06
1.40077e-17
2.56301e-05
3.86982e-07
2.47649e-17
0.000116689
4.64727e-17
1.76936e-05
2.02622e-05
4.01568e-06
3.1245e-17
2.0046e-05
1.09789e-05
9.65695e-07
6.04863e-06
1.42489e-05
4.22538e-18
1.20602e-17
2.03535e-09
1.52774e-17
8.13177e-18
5.24478e-18
2.20206e-05
5.10158e-05
5.00476e-06
2.46415e-06
5.28888e-18
5.6661e-05
5.18305e-05
4.77971e-06
2.74271e-06
1.05644e-05
2.36442e-05
3.05458e-06
6.55127e-18
3.90723e-18
7.48985e-18
7.89716e-06
9.06768e-18
2.79312e-05
1.91987e-16
8.44878e-07
6.43741e-10
2.88866e-06
2.50894e-05
3.27726e-17
1.62001e-17
2.81968e-06
4.14758e-07
3.62333e-17
3.6493e-17
1.51095e-17
3.83361e-08
3.638e-07
1.67204e-07
9.42012e-07
1.14558e-05
9.81345e-05
1.24547e-18
1.80785e-17
2.20033e-17
4.23904e-06
2.01534e-05
2.26687e-05
3.98594e-05
1.99538e-06
3.36328e-06
7.13958e-18
1.44525e-17
3.49617e-16
6.83099e-18
1.07317e-05
2.5486e-05
8.3482e-18
1.29615e-17
1.82149e-17
1.44273e-17
3.36863e-17
2.77993e-17
1.57036e-05
3.95308e-17
1.1012e-06
0.000463879
1.37925e-17
1.58866e-08
2.60571e-05
8.61146e-07
2.05059e-18
6.65607e-18
5.6251e-06
4.75528e-18
1.62279e-05
1.18657e-09
2.77533e-05
9.83389e-17
1.34438e-15
4.18292e-19
1.33536e-18
3.10454e-18
1.84153e-17
0.000228363
3.25511e-18
6.7947e-06
1.37351e-06
1.7909e-17
4.48144e-17
2.21777e-06
2.24218e-17
3.39056e-18
1.3015e-05
1.49638e-07
1.04325e-18
3.53572e-17
2.64518e-17
1.9204e-05
1.47798e-17
2.05972e-17
4.74314e-07
3.00897e-06
3.52606e-06
2.66811e-18
2.3673e-18
1.56115e-17
4.37852e-06
2.12524e-06
1.49458e-05
4.27433e-06
1.53005e-17
9.18564e-07
1.35752e-05
7.39752e-06
1.15566e-17
2.37606e-17
5.13554e-18
2.36495e-17
7.58092e-18
3.56942e-05
6.00246e-06
6.34916e-06
7.74349e-17
3.84119e-17
1.05797e-17
5.88135e-18
1.59426e-17
1.12422e-09
2.78295e-07
2.57685e-06
6.86275e-18
2.13226e-17
3.69726e-17
2.73975e-12
3.98281e-05
0.000130878
5.57005e-18
8.53015e-13
2.16163e-14
1.77711e-18
1.26357e-17
4.39817e-06
7.55284e-06
1.37813e-17
2.91009e-17
3.32513e-06
2.2004e-17
8.08925e-07
1.25878e-06
0.00241339
3.56092e-18
5.22953e-18
1.39554e-05
6.10787e-07
3.85162e-17
0.000768214
6.87156e-07
7.27505e-06
2.18968e-17
3.39447e-17
4.48096e-18
4.57625e-18
9.26994e-06
1.05694e-07
3.27352e-17
2.91671e-05
2.20163e-05
0.000994958
1.71239e-18
2.04924e-18
6.25665e-18
1.94413e-18
7.53204e-06
7.90298e-11
4.97973e-17
2.22973e-17
2.15714e-05
1.07631e-06
5.57081e-06
1.48765e-17
6.83118e-17
3.30571e-05
6.87968e-17
1.32318e-17
3.79823e-18
1.32002e-17
2.494e-05
1.1803e-18
1.98487e-18
1.28854e-17
2.89456e-05
1.38939e-05
1.94847e-18
1.64856e-17
4.0886e-18
1.75497e-05
2.09341e-10
1.8789e-17
3.89986e-18
2.56536e-17
3.22671e-17
2.75322e-06
1.26171e-05
3.75602e-18
2.33278e-06
1.27769e-06
5.49105e-06
7.62103e-17
1.29292e-16
1.68843e-17
2.09925e-17
3.39584e-18
2.24678e-05
1.41705e-16
1.6589e-05
2.50101e-18
1.75571e-06
2.57635e-16
2.73374e-06
2.54351e-17
4.94618e-18
1.24076e-05
0.000190522
7.99539e-18
4.1096e-06
3.29195e-17
4.46125e-07
2.27178e-16
7.95574e-18
1.79929e-17
1.57411e-10
2.29398e-17
3.53128e-07
1.24828e-17
4.02674e-05
3.76372e-18
2.08607e-18
1.34763e-17
1.55022e-17
8.95285e-09
1.53097e-07
1.00895e-17
6.42422e-06
3.59568e-19
3.17631e-06
2.12958e-05
1.44369e-06
5.5944e-19
5.32338e-09
5.00574e-07
2.4637e-09
4.82814e-06
3.74526e-10
1.91024e-06
4.96526e-18
2.53846e-17
4.98157e-10
6.52332e-06
2.71223e-07
2.55718e-17
4.25849e-18
1.46534e-17
0.000658302
1.32484e-17
5.41008e-18
1.68404e-17
1.49487e-17
1.50015e-17
3.30485e-08
2.02262e-07
1.16957e-06
7.7946e-08
1.07589e-15
1.69286e-06
9.29216e-18
6.34191e-06
9.91981e-17
8.73253e-19
1.34781e-17
2.26132e-17
2.132e-08
2.1889e-18
7.91789e-19
4.62476e-17
1.64677e-05
6.70452e-17
1.14968e-17
1.2546e-05
2.13098e-17
8.33457e-05
0.000142714
0.000641618
1.64039e-16
0.000228737
0.00131771
0.00133763
0.000740784
2.85923e-17
2.40064e-18
5.47112e-06
5.25006e-06
8.83322e-18
1.06129e-05
9.64251e-18
3.61801e-05
1.17975e-17
2.43567e-18
7.99429e-07
3.2089e-17
1.53817e-17
1.15751e-08
4.5444e-08
4.05189e-18
1.35952e-18
3.15317e-09
4.96519e-17
1.44342e-17
2.25188e-08
9.37017e-06
1.70323e-06
7.56867e-18
8.77248e-06
3.57269e-18
3.98159e-06
4.5212e-10
8.2169e-06
5.35895e-18
1.8097e-11
6.34856e-06
1.05005e-18
1.68699e-12
6.62664e-19
3.61008e-05
1.81431e-17
1.08688e-05
1.7114e-18
2.57881e-10
5.90149e-18
1.38285e-17
1.05764e-18
9.27414e-13
5.21742e-13
1.35057e-17
1.36414e-05
1.02511e-05
2.48761e-17
1.07923e-16
3.66777e-05
1.93311e-05
0.000204417
2.40828e-17
7.58848e-08
2.7878e-05
5.1292e-05
6.82117e-11
2.39501e-17
6.36702e-05
2.55278e-17
0.000253663
1.5092e-17
4.15961e-11
3.98281e-11
6.73874e-18
5.74263e-08
3.46019e-17
2.40605e-05
1.62713e-18
1.59917e-17
2.28326e-18
2.18257e-17
2.04841e-17
6.86601e-18
3.41604e-07
2.12805e-06
0.000150356
3.50525e-17
1.8192e-16
4.56858e-05
1.04054e-17
2.13303e-19
6.51104e-18
1.77131e-16
1.93771e-17
6.52753e-06
5.83512e-18
2.40343e-17
2.12452e-18
3.65218e-06
4.66278e-17
7.14845e-19
1.37824e-17
3.58123e-06
1.61115e-17
6.8088e-06
0.000257643
5.78398e-06
5.92707e-06
2.95697e-05
2.08805e-18
9.41894e-18
1.34773e-17
3.36539e-06
1.94007e-06
1.46404e-18
7.06744e-17
6.55981e-07
4.15771e-18
7.25965e-17
0.000371248
6.38783e-18
2.43747e-05
6.66856e-18
2.59747e-06
3.67994e-06
1.27794e-17
1.75611e-17
1.79699e-17
1.80732e-17
1.12357e-17
2.07037e-05
1.0949e-17
5.12325e-06
9.43925e-18
1.0592e-17
7.49378e-06
5.79721e-18
1.41195e-05
4.12655e-17
8.62714e-18
2.67557e-06
8.57434e-08
0.000155164
3.28635e-17
9.48659e-19
6.47712e-17
4.05207e-06
0.00019727
3.24011e-18
6.14918e-18
2.47881e-17
1.68487e-06
2.12787e-17
2.17525e-05
3.42471e-05
1.10179e-17
1.28714e-18
7.95808e-06
1.25605e-17
5.81893e-17
3.40914e-18
8.70419e-17
9.97242e-18
7.54127e-05
2.53369e-16
2.96353e-18
3.94798e-17
9.1637e-17
1.06339e-17
4.1613e-17
2.04782e-17
1.87085e-18
6.57262e-17
8.58473e-06
4.95404e-18
9.19275e-06
9.16747e-17
2.40922e-18
0.000638404
2.94247e-06
1.3038e-17
2.99883e-18
3.95514e-18
2.62475e-06
4.54063e-17
3.47069e-17
5.253e-18
2.37524e-18
7.86413e-06
7.24791e-19
5.26632e-06
2.32179e-17
1.05563e-05
1.82193e-18
6.2566e-05
3.03099e-17
8.67845e-18
2.33259e-05
4.19204e-17
6.38785e-19
2.94205e-05
2.99466e-07
2.14467e-17
6.31591e-17
4.02854e-05
1.10673e-05
6.9881e-06
9.17873e-07
1.97493e-06
1.88504e-05
1.06515e-06
5.36388e-06
2.50835e-17
3.15915e-05
2.22052e-17
5.17417e-17
1.04705e-18
3.35683e-17
2.21732e-17
1.12695e-05
1.86841e-17
6.48442e-18
4.96813e-18
3.19747e-09
1.0089e-08
6.91171e-17
2.52214e-06
3.74696e-17
4.70619e-06
2.31598e-18
1.35903e-09
3.95147e-06
1.28925e-16
4.98394e-05
1.9334e-18
1.78469e-17
1.19129e-18
3.21788e-06
1.43045e-06
4.61632e-18
8.45442e-18
2.7337e-06
2.38365e-17
0.000725841
1.00437e-17
0.00011202
1.29549e-17
1.2836e-17
1.01142e-17
1.30176e-17
1.08529e-05
1.88839e-18
4.31178e-08
5.37308e-18
1.06813e-05
1.26779e-17
4.41761e-18
6.28227e-15
6.73383e-16
4.11735e-17
6.17599e-17
2.09997e-17
9.56994e-17
4.70569e-06
0.000210183
1.85311e-17
2.25846e-17
3.98135e-07
2.10987e-17
1.50064e-17
1.2395e-09
1.8834e-05
1.61628e-07
7.8459e-18
7.56927e-07
3.62704e-06
5.69214e-06
9.18178e-06
5.41008e-18
2.22742e-17
6.47415e-17
2.2725e-17
2.32416e-18
1.55781e-17
1.96019e-19
4.28597e-18
6.94958e-18
6.2884e-18
1.09149e-17
2.2596e-17
8.25049e-05
6.74534e-18
3.20588e-18
1.11871e-13
3.36852e-18
1.47818e-19
0.00121521
1.50512e-17
1.90456e-18
2.16032e-06
2.04533e-12
1.64622e-17
3.82695e-17
9.69343e-19
2.49154e-05
8.08605e-18
3.44853e-17
5.55697e-11
5.71426e-18
5.967e-18
1.26113e-17
1.38443e-17
0.000126486
1.43636e-17
1.875e-07
5.1933e-18
3.26992e-18
3.43672e-19
4.71044e-18
1.43032e-18
2.05351e-11
4.18866e-11
1.24254e-07
4.10523e-18
7.37694e-19
9.5556e-17
1.13218e-10
1.05611e-17
3.37269e-10
1.17875e-11
3.37074e-17
3.03358e-18
1.01854e-16
5.24438e-12
8.58094e-18
1.04692e-18
2.5544e-12
1.17194e-16
3.49313e-05
1.2682e-17
7.77758e-06
6.24663e-17
2.53961e-09
1.84835e-18
1.63517e-06
9.7766e-19
4.6968e-06
2.87291e-05
1.64252e-17
2.86469e-06
1.5858e-08
2.4584e-18
1.20644e-05
2.82335e-19
7.34785e-18
7.21746e-18
2.93413e-18
2.23693e-17
3.61103e-19
2.10514e-17
3.23026e-17
0.000319519
1.21759e-17
1.35971e-17
1.45666e-18
5.67915e-18
7.70172e-18
3.55953e-05
0.000920509
3.4859e-09
1.28771e-08
4.8253e-18
2.32664e-06
1.59132e-06
5.95863e-18
2.1032e-17
5.94759e-19
1.80364e-18
2.18351e-18
1.05136e-17
8.97533e-17
1.52459e-17
4.53449e-07
3.37702e-17
8.87594e-17
2.47081e-07
4.02925e-09
5.9401e-19
2.94274e-05
1.12089e-17
3.45975e-18
2.49524e-17
0.00019788
8.12414e-17
5.4445e-19
2.91534e-05
3.12581e-18
4.25279e-19
6.4186e-18
5.05338e-17
6.26028e-05
4.55162e-18
8.06664e-18
4.5141e-19
6.39916e-19