/*--------------------------------*- C++ -*----------------------------------*\
  =========                 |
  \\      /  F ield         | OpenFOAM: The Open Source CFD Toolbox
   \\    /   O peration     | Website:  https://openfoam.org
    \\  /    A nd           | Version:  10
     \\/     M anipulation  |
\*---------------------------------------------------------------------------*/
FoamFile
{
    format      ascii;
    class       volVectorField;
    location    "8.6";
    object      U;
}
// * * * * * * * * * * * * * * * * * * * * * * * * * * * * * * * * * * * * * //

dimensions      [0 1 -1 0 0 0 0];

internalField   nonuniform List<vector> 
111485
(
(2.90789 -2.90849 0.00356294)
(8.50094 -0.0223312 -0.0491474)
(8.37623 0.0200728 0.026038)
(2.90851 -2.90927 0.000251227)
(8.70246 0.0382996 -0.00336709)
(3.0522 3.05056 0.000258523)
(8.55376 0.0250802 0.00207392)
(8.78668 -0.0250382 0.012119)
(8.55784 -0.0049305 0.00617719)
(8.75806 -0.0950265 -0.0409734)
(8.42634 0.020748 0.0250229)
(8.81609 -0.0214117 0.0409804)
(8.30374 0.00708056 0.0186335)
(8.38688 -0.0177934 -0.061973)
(8.50143 0.0335699 0.017869)
(8.6819 -0.0585449 -0.0471141)
(8.54534 -0.00946171 0.0127703)
(2.99971 -0.218995 0.445214)
(8.72564 0.0251093 -0.0193424)
(2.88776 -2.88387 -0.00145479)
(2.89297 -2.89251 -0.00337294)
(3.05982 3.05882 -0.00025649)
(8.63002 0.0295792 -0.00903314)
(8.76523 -0.0592539 -0.01723)
(8.58626 0.0331391 -0.0100218)
(2.93144 -2.91814 -0.00282269)
(8.85735 -0.0442576 0.046042)
(8.38135 -0.0128029 0.00338796)
(8.75153 0.01531 -0.0198594)
(2.89809 -2.89951 0.000245584)
(8.81989 0.143679 -0.037337)
(8.71326 -0.019283 0.00248865)
(2.88583 -2.89209 0.00427154)
(3.05616 3.06243 -0.00750754)
(3.06502 1.28218 0.489037)
(3.07527 3.09583 -0.0449537)
(8.77722 0.142999 -0.0572847)
(8.49164 0.03112 0.0744024)
(8.74294 2.64952 0.147939)
(8.71599 0.042285 0.00330874)
(3.01868 3.04611 -0.0212829)
(8.81235 0.0100846 -0.0508774)
(8.70669 0.044053 0.0151108)
(8.39959 -0.0508909 0.00152538)
(8.78294 -0.154047 -0.0787812)
(2.91592 -2.8944 0.0152638)
(8.81164 -0.0405862 0.0414701)
(8.75266 -0.0548474 -0.0164251)
(8.81291 0.00397459 -0.038233)
(2.89125 -2.85617 0.0175085)
(2.87564 -2.84954 0.0179787)
(3.47437 2.92351 0.0505649)
(2.86723 -2.85584 0.00930193)
(8.79786 0.0397737 -0.0740099)
(2.85978 -2.84806 0.00087171)
(8.69735 0.0232738 -0.00788842)
(8.69984 -0.0371085 -0.0176478)
(3.05979 3.05386 0.001741)
(7.93443 -0.0177866 -0.1399)
(8.74049 0.0356102 -0.00523838)
(8.73899 0.0395471 -0.00374302)
(2.89892 -2.90462 0.00372424)
(8.10158 0.00877375 0.0532513)
(8.84055 -0.0236182 0.069762)
(3.15478 2.85993 0.00467255)
(7.97256 0.0182946 -0.0153707)
(6.13112 -0.486877 0.215164)
(8.7698 -0.0345647 0.0131511)
(7.9069 0.00383293 0.0232896)
(7.47915 -0.0149242 0.00423833)
(8.45821 0.0513441 -0.0427197)
(7.84581 -0.00845331 0.024969)
(3.13986 -2.82655 -0.0653968)
(8.01395 0.0151026 0.0624581)
(2.90515 -2.90412 -4.85541e-05)
(8.72551 -0.020366 0.0096393)
(3.05894 3.05898 -0.000545987)
(8.80256 -0.0188511 0.0467103)
(3.05805 3.05619 -0.000414461)
(2.7542 2.6876 -0.0912346)
(8.48331 -0.130914 0.0887953)
(8.76081 0.0345679 0.00774089)
(3.04763 3.0404 -0.000170643)
(2.90559 -2.90573 0.0016305)
(8.2507 -0.00150687 0.0158057)
(7.90728 0.0217207 -0.0325941)
(6.79389 4.41166 -1.18389)
(8.68072 0.102446 0.00931956)
(8.36299 0.215449 0.184533)
(8.46873 0.0107928 0.0254089)
(8.95813 0.179669 -0.114092)
(8.71145 -0.0150614 0.0139069)
(8.14811 -0.0130413 0.0321576)
(8.28359 -0.00963993 0.00912015)
(8.82284 0.0266863 -0.0553884)
(2.90548 -2.90512 -0.000687911)
(2.90053 -2.8995 0.00156867)
(8.6774 0.0956048 0.0297755)
(8.93963 -1.77236 0.125675)
(8.12838 0.0300009 0.0531081)
(2.90538 -2.90588 0.00144481)
(8.72713 -0.0475282 0.0047141)
(3.07213 3.07726 0.0168556)
(8.65534 0.00063705 -0.00475701)
(8.57921 -0.0445028 -0.0551455)
(3.00121 2.685 -0.063159)
(3.05878 3.05772 -0.000567987)
(8.72058 -0.0238238 -0.00239241)
(8.05701 -0.0443304 0.0102291)
(7.7221 -0.229606 -0.244793)
(8.24645 -0.00654992 0.0150564)
(8.66385 0.012293 -0.00476835)
(8.08014 -0.00499625 0.032813)
(7.95493 -0.0416601 0.0178393)
(2.93351 -2.91763 0.00229221)
(7.64944 -0.00733753 0.0230048)
(2.91692 -2.90774 -0.00337038)
(3.07253 3.05947 0.0126933)
(8.51462 0.0333654 0.0245918)
(2.90769 -2.90566 0.0010406)
(2.93268 -2.91688 -0.00144677)
(4.02111 3.16509 0.187763)
(3.02686 3.03958 -0.00579949)
(3.0653 3.05798 -0.00726773)
(8.32271 -0.020912 0.0406407)
(2.31449 -1.63059 -0.432641)
(3.83407 3.29843 0.116165)
(7.72568 -0.00215961 0.0376507)
(2.90514 -2.90398 -0.0010225)
(8.76387 0.660147 -0.23842)
(8.74861 0.169257 -0.086918)
(8.66156 0.0981784 0.0292272)
(2.89236 -2.8851 -0.0142708)
(3.93821 3.42542 0.353004)
(3.67514 3.27996 0.154767)
(8.74828 0.0262439 -0.0161758)
(3.06109 3.06082 -0.000927746)
(8.68263 0.0204603 0.00136316)
(8.62629 0.0400109 0.0234717)
(8.47973 0.0383024 0.036399)
(6.64559 0.000742391 0.0275549)
(8.69548 0.04497 0.0105697)
(8.6217 0.0445148 0.0281532)
(8.21813 0.00868267 -0.0342887)
(8.59048 -0.0165124 0.00867538)
(8.49575 -0.00438408 0.0213451)
(3.06178 3.06204 -0.000623186)
(2.90545 -2.90671 0.000275735)
(3.05325 3.05493 0.00638296)
(8.69985 0.0385186 0.00686918)
(8.22208 0.0144324 -0.0310656)
(2.89499 -2.8935 0.00184145)
(5.68014 -0.0332099 0.0567058)
(8.48252 0.0407369 0.019196)
(9.29203 0.375106 0.163618)
(8.74705 0.0259434 -0.0169684)
(8.7073 0.0269286 -0.00671219)
(8.06854 0.00267541 -0.0158176)
(9.37834 0.459198 0.11324)
(2.88933 -2.91658 0.0112491)
(2.90346 -2.90612 0.00276621)
(8.73211 0.0250927 -0.0166982)
(8.55459 -0.0304615 -0.0316515)
(9.44052 0.517454 0.123203)
(9.31157 0.453037 0.169446)
(8.09612 0.0121641 0.0414109)
(8.71271 0.108746 -0.0394766)
(3.02079 3.04604 0.000508932)
(9.55206 0.64042 0.151911)
(9.11159 0.461337 0.140598)
(3.05673 3.05859 0.000874393)
(2.90011 -2.89948 0.000235321)
(6.94696 0.00859426 -0.0540036)
(3.06006 3.06137 0.000391767)
(8.66778 -0.018815 -0.00361238)
(8.34004 0.00462214 -0.019167)
(3.05926 2.98602 -0.0167916)
(3.14284 -2.88333 0.0310891)
(2.89945 -2.88437 -0.00491355)
(3.01521 2.84792 -0.0294666)
(3.15823 -2.90779 0.050595)
(2.90311 -2.90499 0.00261496)
(8.67849 0.0336428 0.00909797)
(8.69398 0.020823 -0.0164123)
(8.66272 0.0267463 -0.00897912)
(8.5528 -0.0254608 0.0307639)
(8.24246 -0.0203285 0.00658357)
(8.27124 0.0140375 0.0261619)
(7.33579 0.0954576 0.010102)
(2.90011 -2.89014 -0.000222949)
(8.00964 0.00127716 0.0102037)
(3.13493 -2.90735 0.0316623)
(2.92663 -2.9317 -0.00147748)
(8.34075 0.0159086 0.0297656)
(8.76237 -0.106403 -0.0384219)
(8.67805 0.0174208 -0.0399478)
(8.33161 -0.00970665 0.0109989)
(8.48488 -0.0061262 0.009826)
(2.89999 -2.89526 0.00718063)
(8.32157 -0.0375746 0.0063436)
(8.29839 -0.00873712 -0.052313)
(5.81407 1.8603 0.238273)
(8.50657 -0.068658 0.00533517)
(8.62732 -0.0143211 0.00780237)
(2.91391 -2.89753 -0.00468502)
(8.30489 0.0204523 0.0296535)
(8.71825 0.0205792 -0.00717867)
(3.18888 -2.87404 0.0144845)
(8.36568 0.0210953 0.0319497)
(8.78155 -0.00720903 0.0451599)
(8.21792 0.00930331 -0.035675)
(8.28045 0.0217942 0.0389216)
(3.1552 -2.91695 0.0411801)
(2.89847 -2.89865 -0.000794381)
(8.27815 0.0222457 0.0418387)
(5.43411 3.41413 -0.336819)
(8.88222 0.0389535 -0.0869416)
(3.05851 3.05956 -0.00186613)
(8.32982 0.0165502 0.0347174)
(8.33667 0.0067341 0.004996)
(8.83307 -0.0281953 0.0552119)
(2.90755 -2.90624 0.00113537)
(7.77666 -0.00226527 0.0209029)
(8.72679 0.125515 0.0655419)
(4.80364 3.2297 -0.351949)
(3.06009 3.06063 -0.002259)
(3.05681 3.05845 0.000832462)
(8.92376 -0.0575098 0.085607)
(8.33244 0.198288 -0.0236499)
(3.21414 2.71597 -0.0623781)
(3.60508 -2.79113 0.114681)
(8.36101 0.00852875 0.0152576)
(8.63459 0.0149332 -0.000909885)
(8.71986 0.0192044 0.00818703)
(3.16841 2.75923 -0.0810256)
(3.06663 -2.82165 -0.010407)
(8.39559 0.100214 -0.119409)
(2.90479 -2.90461 0.00173967)
(7.96118 0.010471 -0.0508292)
(8.26821 0.00565714 0.0345559)
(8.35787 0.00435561 0.0187548)
(8.36878 0.0170442 0.021489)
(8.40237 0.00948632 0.0287363)
(3.04846 3.04909 0.00945502)
(6.3271 -0.018914 -0.246532)
(8.50282 0.019099 0.0331614)
(3.04376 3.04898 -0.00369442)
(3.0587 3.06052 0.000337232)
(8.86194 -0.107761 -0.0103615)
(8.66002 0.0390853 -0.0130166)
(3.13168 2.66944 -0.0832527)
(7.88373 -0.00320949 0.0240805)
(8.48609 0.024282 0.0222208)
(2.9071 -2.90568 -0.00087744)
(3.84816 3.65767 -0.0191482)
(8.7192 0.080017 -0.03504)
(2.91828 -2.88035 0.00151311)
(3.22979 -2.28963 -0.0547668)
(4.44375 -1.5489 -0.157623)
(2.91019 -2.90191 -0.00146049)
(8.53608 -0.0152962 -0.0165038)
(8.29808 -0.0133101 -0.0163573)
(8.64274 0.0138536 -0.0215799)
(2.90348 -2.90394 -0.000215087)
(8.55423 0.0241347 0.0201371)
(2.90849 -2.90926 0.000209018)
(2.90775 -2.90873 0.00068155)
(2.89988 -2.88858 0.00478308)
(5.83548 0.0224532 -0.0906566)
(8.78506 -0.0425209 0.0497919)
(8.36164 0.0310094 0.0431948)
(8.52111 0.0285062 0.0136197)
(8.81739 -0.0509727 -0.00209524)
(8.48118 0.0128048 0.0147013)
(8.69379 0.0314363 0.0110275)
(8.75693 0.149066 -0.0142776)
(8.57039 0.011682 -0.00369611)
(8.64433 0.015211 -0.00434792)
(3.11153 3.06199 -0.00187291)
(2.89612 -2.89627 -0.00378563)
(5.3322 0.0347402 -0.129457)
(8.69306 -0.0196007 0.00234267)
(8.76266 0.0666718 0.0712104)
(8.27297 -0.0106734 -0.0135782)
(2.90813 -2.90643 0.000768392)
(8.64748 0.0274758 0.0160464)
(8.68358 0.0442812 0.0213312)
(8.50807 0.0196553 0.0107961)
(7.4795 -0.00780351 -0.0400697)
(7.84169 -0.0886567 -0.196815)
(8.63385 0.0269675 0.0100188)
(8.49721 0.0240089 0.0152682)
(8.65231 0.0667834 -0.042328)
(3.05911 3.05936 0.000399614)
(7.9376 0.044454 -0.00267381)
(3.05804 3.05841 -0.00094119)
(2.48392 1.89245 -0.393435)
(3.27622 -2.09499 -0.213794)
(8.9939 -0.0827262 0.116142)
(8.81994 -0.0510281 -0.00176302)
(8.61082 -0.0036558 0.00198506)
(2.9101 -2.9025 -0.000874425)
(3.0458 3.06365 0.0252186)
(8.63739 0.029107 0.0143735)
(8.26817 0.0182879 -0.0115611)
(2.89661 -2.89591 0.000827208)
(2.90821 -2.90606 0.0023895)
(2.84056 -2.86082 0.0185425)
(8.20335 0.0113227 -0.00445602)
(8.60532 0.00960642 -0.00897068)
(8.21232 0.00219497 0.0300888)
(7.94391 0.0138351 -0.0425747)
(8.77249 0.01996 -0.020814)
(3.50254 3.0072 0.0836917)
(3.05256 3.05989 0.00555632)
(2.90489 -2.90128 -0.00135405)
(8.60114 0.0335048 0.0231181)
(5.57058 -4.7157 -0.330868)
(8.19493 -0.0098667 0.0122832)
(8.92913 -0.0626561 0.196592)
(7.1891 0.00542811 -0.149458)
(3.06029 3.05975 -0.000374532)
(2.90312 -2.9064 0.0020674)
(2.90803 -2.90919 -0.00145205)
(3.85267 3.23335 0.198099)
(8.71293 0.0263898 -0.00333159)
(8.78596 -0.0513736 0.00878002)
(3.06437 3.07223 0.000993419)
(8.65525 0.0241225 -0.00159576)
(3.23008 2.61942 0.184297)
(2.91095 -2.87713 -0.00696853)
(8.86751 -0.0303371 0.0726503)
(8.6324 0.0321625 0.0159203)
(8.82174 -0.0118606 0.0208472)
(8.65861 0.0247062 0.000426475)
(2.94041 2.60976 0.158654)
(3.81383 3.28368 0.20898)
(3.05204 3.05592 -0.0043799)
(8.64505 0.0303478 0.0115081)
(8.6329 0.0245433 -0.0022057)
(8.79188 0.156568 -0.0526954)
(3.02445 3.01751 0.00554686)
(6.03504 5.34415 -1.27828)
(8.24333 0.0821234 0.0751308)
(8.79411 -0.0419197 0.0212006)
(8.65466 0.03133 0.0195965)
(8.23696 0.859567 -0.0692757)
(8.77207 0.019539 -0.0249678)
(3.04705 3.04703 0.00136169)
(8.77372 0.0212976 -0.013463)
(8.42887 0.0120527 0.0176322)
(8.87424 -0.209648 -0.00182391)
(8.8955 -0.0535349 0.108999)
(8.59711 -0.0694788 -0.0633838)
(3.04549 3.05889 -0.0114193)
(2.90167 -2.90489 -0.00546949)
(3.06457 3.04668 0.0116468)
(2.88324 -2.89155 -0.000561824)
(8.77584 -0.0420585 -8.89042e-05)
(8.69621 -0.0128142 0.00331198)
(8.70008 0.0418821 -0.0335975)
(8.76616 0.0246375 -0.0274502)
(3.03395 3.03705 -0.0131514)
(8.67798 -0.0640795 -0.023477)
(3.05559 3.05647 0.00111896)
(2.89474 -2.90302 0.000127536)
(8.76725 0.0249862 -0.0180421)
(2.67303 -2.67601 0.0386291)
(4.81619 -0.853188 -0.0671119)
(2.87155 -2.86082 0.00240979)
(3.0846 3.04359 0.0243878)
(8.68409 0.0157457 -0.0121231)
(3.05804 3.05633 0.00111855)
(8.57789 0.0245761 -0.00534449)
(8.15805 0.00467885 -0.0377874)
(3.06342 3.06354 -0.000728846)
(7.85517 -0.00354826 -0.0373785)
(8.53675 0.0152574 0.0122937)
(3.08209 2.70514 -0.0990625)
(8.49934 0.0382045 0.0425994)
(8.03648 0.0427792 -0.00372968)
(8.55388 0.0405114 0.0120998)
(7.97247 0.0309403 0.100763)
(8.63196 0.0248956 0.00426161)
(8.24444 0.00215112 -0.0161123)
(3.02485 2.58775 -0.0130301)
(2.89547 -2.89009 0.0173638)
(7.38739 0.0116742 0.17341)
(3.03729 3.04785 -0.0173125)
(8.53902 0.0463669 0.0408221)
(8.87373 -0.0451207 0.0889201)
(3.07213 2.93768 0.0246466)
(3.05145 3.06436 -0.000873208)
(8.75058 -0.0176028 0.0066471)
(8.43385 -0.0397439 -0.0868517)
(8.45596 0.0451977 0.0013969)
(8.76514 0.0205174 -0.00786377)
(3.05864 3.05424 -0.00147839)
(8.91195 -0.0255559 0.143959)
(8.77902 -0.029998 0.0442786)
(3.06779 3.06258 -2.07621e-05)
(8.59175 0.133631 0.109003)
(8.20425 -0.0333894 -0.0886604)
(2.90077 -2.90052 -0.000613996)
(2.89751 -2.89746 0.00094237)
(8.56721 0.0262649 -0.00901291)
(8.61885 0.00756078 -0.0129895)
(3.07094 3.07104 -0.00388456)
(2.90364 -2.89756 -0.00460006)
(5.13028 -2.75688 0.630166)
(2.90728 -2.90925 0.00060623)
(8.61647 -0.00330384 0.0156805)
(3.03819 3.04968 0.00703915)
(2.90822 -2.90913 0.000244093)
(8.8264 -0.0124312 0.0287573)
(7.99709 -0.0933631 -0.231129)
(8.72953 -0.0520117 0.0117387)
(8.43411 -0.000928199 0.0161544)
(3.06546 3.06331 0.000200648)
(3.96402 3.05855 0.15315)
(8.43193 0.112825 0.160977)
(3.71552 3.2784 0.173406)
(8.40571 0.0359221 0.0658605)
(8.37146 -0.0713613 0.00695262)
(8.73987 -0.0255232 -0.0234115)
(6.08223 0.197634 0.226014)
(3.64648 3.14448 0.157139)
(8.72809 0.0141467 -0.0826851)
(8.84577 0.274676 -0.0928344)
(2.90314 -2.90839 0.00537865)
(8.81494 0.0229107 -0.0872848)
(8.82667 -0.0391961 0.032633)
(2.90859 -2.90798 0.00298671)
(8.50412 0.487621 -0.260588)
(7.43591 7.97017e-05 -0.102121)
(3.85625 3.03617 0.127593)
(8.79165 -0.0219194 0.0360737)
(8.68477 0.0138528 -0.00975742)
(8.63662 0.0235189 -0.0062588)
(3.05813 3.05545 -0.000852634)
(8.59841 -0.0128341 0.0596189)
(8.82399 -0.00364796 0.028183)
(8.56656 0.0839863 -0.00848552)
(5.40247 -0.0731685 0.0907254)
(3.71386 3.50688 -0.0721882)
(5.09668 -0.13004 0.172419)
(2.90244 -2.90636 0.00213621)
(7.92656 -0.268707 -0.2621)
(8.60027 -0.0144244 -0.0566531)
(3.05952 3.05729 0.00483969)
(8.18212 0.0205496 -0.0626911)
(6.74116 -0.0176479 0.123667)
(3.96146 3.50687 -0.038165)
(2.90534 -2.90339 0.000185986)
(3.40627 -2.88985 0.0940323)
(2.90759 -2.90644 -0.000353748)
(8.53747 0.0476386 -0.00621248)
(8.62456 0.0463966 -0.0148378)
(8.54793 -0.0244446 -0.0248557)
(8.02908 0.0221152 -0.0449263)
(8.75193 -0.178607 -0.0368337)
(3.0569 3.04398 -0.00630105)
(8.4912 0.000255081 -0.0212456)
(2.91394 -2.89255 0.000367153)
(8.40384 0.0314515 0.0202973)
(3.06889 3.0692 -0.00134062)
(2.90544 -2.9028 1.0265e-05)
(2.87573 -2.88387 -0.00387937)
(8.25815 -0.0555911 0.0119973)
(2.89484 -2.89597 -0.0024517)
(2.90697 -2.90722 0.00124949)
(3.017 2.01388 -0.122926)
(2.90753 -2.90931 0.00101302)
(3.0262 3.06811 0.0288449)
(8.46399 -0.0311692 -0.0133215)
(3.0601 3.05585 0.00111379)
(3.62441 2.67873 0.00519404)
(3.06048 3.0623 0.0036766)
(2.89639 -2.88668 -0.00104596)
(3.05949 3.04844 -0.00423369)
(2.89535 -2.88068 -0.014746)
(3.04145 3.04375 3.40806e-05)
(7.70243 0.00209357 -0.0659969)
(3.06416 3.04794 0.0121964)
(7.8998 0.117409 0.160289)
(8.6461 0.0116104 -0.00347518)
(8.91848 -0.367118 -0.0644992)
(3.06663 3.05135 -0.000591303)
(7.52588 0.0219955 0.125596)
(3.06419 3.05349 0.00295183)
(2.9081 -2.90931 -0.00131679)
(8.52053 -0.08106 -0.0874266)
(8.53275 -0.0657848 -0.0790829)
(8.552 -0.0185945 -0.0235171)
(8.93514 0.0228333 -0.152176)
(3.51347 2.95881 -0.0973628)
(8.75498 0.0106177 -0.0458065)
(8.75162 0.0159485 -0.0430009)
(8.64835 0.0157282 -0.000100988)
(8.50773 0.0096376 0.0028412)
(8.662 -0.0881362 -0.0607349)
(2.89483 -2.89638 -0.000830717)
(8.65626 0.012094 0.000157762)
(3.99787 3.48328 -0.0257713)
(8.6246 0.0229988 -0.0114073)
(3.05526 3.05188 -0.00111212)
(8.78367 0.0284648 -0.0395775)
(3.95548 3.28789 0.0305949)
(8.66466 0.00767771 -0.0126256)
(8.69057 -0.0413856 0.0317905)
(3.357 -1.6856 -0.0205539)
(3.06044 3.0626 0.034089)
(8.51986 0.0152831 0.0150072)
(2.90446 -2.90341 0.000559396)
(8.82104 0.0363254 -0.0576133)
(8.75628 0.0342813 -0.0373561)
(3.05727 3.04817 -0.0243716)
(3.05067 3.04951 0.00751836)
(2.99291 2.68542 -0.0597357)
(3.05703 3.05931 0.00147736)
(6.12057 -0.327496 0.166768)
(8.8259 0.030485 -0.0551604)
(3.10272 3.02973 -0.00223688)
(3.05321 3.05748 0.00300574)
(7.52702 0.00994412 -0.0179106)
(3.06192 3.06155 0.000159352)
(8.68979 0.0246312 -0.031798)
(3.05971 3.05899 0.000291582)
(8.60583 -0.0500669 -0.0377122)
(2.9086 -2.9084 0.000670279)
(8.07202 -0.0408512 -0.122612)
(6.66622 -0.0268353 0.00710939)
(8.08696 0.0255003 -0.0174328)
(8.66769 0.00990461 -0.0136469)
(3.07113 3.04857 -0.00999941)
(7.85775 0.00810959 -0.00118981)
(3.06495 3.05412 0.00275818)
(3.06042 3.06126 -0.00830251)
(8.568 -0.0230857 -0.0137131)
(3.05648 3.05287 -0.00139766)
(7.28935 0.00123518 -0.0742051)
(2.95124 2.71715 -0.0899652)
(8.70045 0.0229238 -0.0275951)
(2.89803 -2.90109 0.000273889)
(8.77456 0.0216053 -0.0193364)
(2.90963 -2.90694 0.000389534)
(3.62901 3.2132 0.0929781)
(8.87501 0.317996 -0.0232952)
(8.52435 -0.0728722 -0.0916704)
(8.65322 0.0365733 0.000164712)
(8.72467 -0.0987839 -0.0646136)
(8.61418 0.0171698 -0.00874715)
(8.81088 -0.0624732 -0.00610853)
(3.0378 3.0611 -0.0136127)
(8.64852 0.0490233 0.0262127)
(8.55929 -0.0857457 -0.0885245)
(3.0589 3.06073 -0.00169062)
(7.26308 -0.106348 -0.281084)
(8.84409 -0.0637831 -0.0448306)
(8.49209 0.0363336 0.032481)
(3.02643 2.9851 -0.0171829)
(3.76041 0.756534 -0.594038)
(8.31116 0.0210793 0.0273854)
(6.79871 -0.0267137 0.0690644)
(7.05285 1.82075 -0.014558)
(3.77114 -1.91043 -0.157253)
(8.79356 -0.101435 -0.022574)
(8.2526 0.0317337 0.0612719)
(8.51872 -0.0805614 -0.0885467)
(8.68242 -0.0488421 -0.018368)
(8.53958 0.0501108 0.0211054)
(7.58527 0.990011 -0.0437183)
(3.77882 3.20784 0.0263982)
(7.71033 -0.291057 0.0658428)
(7.44515 -0.647209 0.156653)
(2.90209 -2.90368 0.00153956)
(7.59543 0.0532482 -0.0224214)
(3.0749 3.01715 -0.0158138)
(3.58649 3.26199 0.0306467)
(8.61282 0.0191018 -0.00478064)
(7.63762 1.2947 -0.0433157)
(9.18987 -0.781815 -0.142093)
(8.28009 -1.42569 0.0328397)
(3.57705 3.39979 -0.250199)
(8.75775 -0.0543006 -0.0171126)
(8.64121 0.0504522 0.0391098)
(3.05236 3.04387 -0.00149681)
(3.93477 2.19223 -0.0912544)
(8.64094 0.0650048 0.0405153)
(2.90576 -2.89457 0.00313166)
(3.05878 3.05746 -0.00062957)
(3.04929 3.04816 -0.000274605)
(3.06257 3.04661 0.00355542)
(8.75486 -0.0904876 -0.041482)
(3.05966 3.05889 0.00191602)
(2.91554 -2.91537 0.0154033)
(8.5985 -0.0528004 -0.0432535)
(7.90839 -0.00277815 -0.02416)
(4.27735 -3.74474 -0.199045)
(8.64146 0.0634871 0.0390785)
(3.55862 2.87844 0.0646008)
(8.6878 -0.0356363 -0.0195381)
(2.84875 -2.84677 -0.0132443)
(3.05211 3.05818 -0.00226158)
(8.73305 -0.0555795 -0.0160389)
(3.05939 3.0413 -0.0116733)
(3.06022 3.05312 0.0016964)
(3.50334 3.35304 0.0966181)
(8.21123 -0.00647988 -0.00555323)
(5.02997 4.21323 -0.558221)
(8.60556 -0.0360615 -0.0174083)
(8.60959 0.0183945 -0.00613464)
(2.87995 -2.8612 -0.0229502)
(8.92935 -0.0267407 0.284287)
(8.18141 -0.0501509 -0.122749)
(8.57391 0.00147778 -0.00428538)
(8.67841 0.156839 0.0155594)
(8.72434 0.0854409 -0.1873)
(7.49994 0.00377299 -0.0706423)
(3.05373 3.05045 0.0017516)
(8.74387 0.00946397 0.0240738)
(8.67745 0.0371271 -0.00770898)
(2.87736 -2.91542 0.00574329)
(8.07077 -0.00585716 -0.00227617)
(8.75841 0.0484604 -0.0175623)
(8.75696 0.0402083 -0.0145465)
(7.95277 -0.034555 -0.0789165)
(8.75403 0.0383837 -0.0159748)
(8.75858 0.0458627 -0.00517888)
(2.91106 -2.87245 0.0177423)
(8.75717 -0.0183627 0.0444298)
(7.24482 -0.0454573 -0.0132241)
(3.68224 3.19972 0.202515)
(8.75298 0.0329249 -0.021362)
(8.35271 0.0095362 -0.0198412)
(4.89571 3.98841 -0.601396)
(8.61042 0.0170521 -0.00464245)
(8.75706 0.0274265 -0.026643)
(8.35589 0.00271401 -0.0349632)
(8.6862 0.0390961 0.00336154)
(8.58612 0.0858155 0.0381283)
(8.62913 0.00723406 0.00633215)
(2.99263 2.92495 0.00445788)
(8.68428 0.0459884 0.00537342)
(8.15169 -0.053818 -0.110448)
(3.25519 -1.95148 0.0762448)
(8.6436 0.0746481 0.0457625)
(8.53241 0.0707824 0.0694073)
(8.66072 0.0257242 0.0013835)
(3.05418 3.04698 0.00270044)
(8.39429 0.0487308 -0.0800014)
(2.90518 -2.89257 0.00722837)
(3.05967 3.05989 -0.00208296)
(3.04347 3.02251 -0.001243)
(3.06438 3.0467 0.00065823)
(7.2684 0.00444483 -0.0333041)
(3.64174 3.1375 0.126449)
(6.55577 -0.460427 0.541848)
(2.89048 -2.89166 -0.000232336)
(3.05267 3.0936 -0.00461975)
(8.65235 0.0855046 0.0443676)
(8.70572 0.0225223 -0.0403571)
(2.90734 -2.90754 6.9306e-05)
(8.71456 -0.0529766 -0.00594173)
(2.90545 -2.90348 0.00846285)
(2.90745 -2.90543 -0.00111582)
(2.85886 -2.85889 0.00864824)
(8.84452 -0.0716974 -0.00983275)
(7.36395 0.0422103 -0.0200949)
(3.60484 3.24896 0.0404408)
(2.93463 -2.90208 0.00781158)
(3.0547 3.06459 -0.00413524)
(3.05661 3.0585 -0.000727603)
(8.90053 0.0178318 -0.0978667)
(8.64009 0.0181123 -0.00133962)
(3.63216 3.41569 0.157041)
(8.80258 0.027911 -0.0481372)
(8.18799 -0.11445 -0.340515)
(3.05312 3.05454 -0.0015389)
(8.77963 0.0242151 -0.0419043)
(8.04902 0.00641822 0.0428963)
(8.54436 0.045301 -0.0515942)
(3.0641 3.0625 -0.000197441)
(3.05509 3.0525 0.000359528)
(8.48289 0.0506066 0.0515738)
(8.6706 0.0206913 -0.00332669)
(3.61253 3.28705 0.0513354)
(3.04514 3.04617 0.000265562)
(3.09629 3.00337 -0.0100952)
(8.61699 -0.0163874 0.00759293)
(2.90296 -2.9029 -0.00320895)
(2.89863 -2.88756 0.00222882)
(3.0413 3.04182 0.000150121)
(8.77686 0.0270633 -0.036784)
(7.67189 -0.0383118 0.0137088)
(3.06247 3.06275 5.45456e-05)
(3.39772 0.692171 0.594846)
(3.68902 -0.388987 -0.145069)
(8.48813 0.0458668 -0.00264375)
(3.05344 3.05847 -0.00137065)
(3.05945 3.05395 -0.00235164)
(8.8049 -0.110806 -0.017099)
(8.4347 0.143457 0.135776)
(3.6634 3.27484 0.15449)
(5.32582 1.73989 0.123961)
(8.31967 0.189153 0.242405)
(7.95672 0.0247371 -0.0556856)
(8.46172 0.00575776 -0.0071804)
(3.16127 2.96899 -0.00756554)
(8.41235 0.0250802 -0.00367677)
(8.71895 -0.0588799 0.0626222)
(3.06448 3.05695 -0.00327997)
(2.88336 -2.83456 0.00481104)
(3.04309 3.04482 0.000453577)
(3.05347 3.05319 -0.000618035)
(3.05916 3.06404 -0.0036121)
(3.06326 3.06434 -0.000638107)
(8.79431 0.0258074 -0.0389683)
(2.90528 -2.90457 0.00187475)
(3.0514 3.05204 0.000461172)
(3.04174 3.00184 -0.00403971)
(8.80231 0.027813 -0.0493121)
(8.66532 0.0203204 -0.00015319)
(2.91861 -2.87798 -0.000696063)
(2.8706 -2.84002 0.0039969)
(8.8713 -0.0429314 0.0766956)
(8.42912 0.00267811 0.00858777)
(8.41665 0.00660408 0.0126885)
(2.90638 -2.89864 -0.00162171)
(3.04945 3.04961 0.00208397)
(8.42323 0.00459455 0.0119875)
(2.90728 -2.90487 0.000409162)
(8.32115 0.0232255 0.00229718)
(8.51203 0.0142885 0.0299811)
(8.53451 0.0295338 0.00994021)
(2.91469 -2.89301 0.00827961)
(2.90662 -2.90812 0.000562053)
(2.90613 -2.90808 0.00019098)
(3.05975 3.06005 0.000860742)
(8.62865 -0.041419 -0.0239719)
(3.05619 3.05927 0.00130546)
(3.05061 3.0479 -0.000122808)
(8.58768 0.0232763 -0.0344111)
(2.90684 -2.90781 0.00123303)
(8.46122 0.00102072 0.0099193)
(7.71983 -0.066862 0.0262786)
(3.07712 2.97364 0.0160656)
(8.65514 0.0225745 -0.00462664)
(4.08109 0.624816 -0.10795)
(8.543 0.00905273 0.00463375)
(8.83147 -0.0302668 0.0207176)
(7.79074 0.0320099 0.0110649)
(8.83267 -0.00155991 0.0577299)
(6.37678 0.138815 -0.242178)
(3.63845 2.91283 0.0588618)
(8.52372 0.00509486 0.00324941)
(8.86728 0.0700274 0.011042)
(8.65739 -0.0207998 -0.0088637)
(3.13262 2.72677 -0.0913403)
(3.87592 0.384294 -0.197228)
(4.61613 -0.315119 0.154856)
(8.53343 0.0122729 0.00653545)
(3.05082 3.05532 0.00406575)
(8.36774 -0.0195078 -0.0617174)
(8.54836 -0.00863731 -0.0190259)
(8.29689 -0.0736974 -0.13393)
(3.17578 -2.24325 -0.169989)
(2.90739 -2.90852 0.00142267)
(2.90432 -2.90435 -5.10317e-05)
(8.69811 -0.0283846 -0.00321456)
(3.56492 2.95628 -0.0383459)
(8.2563 0.0287461 0.0134679)
(3.31742 3.02198 0.04215)
(8.21251 -0.0168706 -0.0590088)
(8.44532 -0.0176449 0.00865565)
(8.35731 -0.0104078 0.0298613)
(8.66752 0.0216005 -0.00492691)
(3.05051 3.05047 -0.00101073)
(3.03728 3.02786 -0.00568802)
(3.10415 -2.82838 0.0146256)
(8.65345 0.0268001 0.00407246)
(3.06317 3.05445 -0.000615937)
(3.52946 3.03718 -0.134105)
(8.84186 0.165399 -0.139086)
(3.06863 3.06486 -0.0018095)
(3.04465 3.05967 0.00923622)
(2.89035 -2.88139 -0.00477273)
(3.06119 3.06204 0.000914746)
(8.26654 -0.00326142 0.0282156)
(3.12128 2.96488 0.00601138)
(3.06004 3.05681 0.000978338)
(7.02356 0.994224 -0.727564)
(3.57763 2.89711 -0.0397533)
(3.0452 3.04679 -0.0253358)
(4.18925 -2.46483 0.154414)
(3.05755 3.05397 -0.00331921)
(6.74557 0.0268303 -0.0596356)
(8.42845 -0.0144243 0.0233108)
(2.89573 -2.89607 -0.000175529)
(8.2833 0.00866213 -0.0217809)
(8.37373 1.36193 -0.187391)
(8.23652 -0.080175 -0.132691)
(9.06114 0.340964 0.00848726)
(8.14542 0.00704945 -0.0132338)
(3.05662 3.03564 0.00965884)
(8.55049 -0.0801469 -0.0909626)
(8.85456 -0.0309042 0.0205372)
(8.2342 -0.0807025 -0.133105)
(2.90461 -2.9055 -0.000252842)
(8.9787 2.36065 0.628858)
(8.24684 0.0121166 0.0126633)
(4.06813 3.25011 -0.192239)
(8.19001 0.00337277 0.00919689)
(8.94037 0.11289 -0.0849065)
(8.5317 0.173167 0.00955267)
(8.46366 -0.0251217 -0.0332728)
(8.46737 0.0284468 0.00104964)
(9.01106 0.133117 -0.0497702)
(8.68894 -0.0152062 -0.014036)
(8.60328 -0.0123196 0.00898411)
(3.03318 3.04479 0.0114501)
(3.04426 3.02931 0.00941668)
(8.30557 0.0226076 0.0117157)
(8.16577 0.0105093 0.0105178)
(3.05226 3.05953 -0.00129355)
(8.42239 0.00810296 0.00033015)
(8.82226 -0.0417484 0.00542518)
(8.62573 -0.0210452 0.0076128)
(3.0577 3.0264 -0.0011334)
(8.50222 0.172891 0.0380974)
(3.05004 3.04756 0.000178375)
(8.6077 -0.0118741 0.00753301)
(8.63576 -0.0134532 0.00578397)
(3.05752 3.05621 -0.000280592)
(8.25285 0.044806 -0.021256)
(8.61268 -0.00961086 0.00127986)
(8.46741 0.161361 0.0143668)
(8.33198 0.00205269 0.0340632)
(3.11961 3.06111 -0.00464332)
(8.70686 -0.0229652 0.0255656)
(8.49347 0.19703 0.00247533)
(8.95455 -0.206549 0.0578298)
(7.53662 0.0988111 0.0259281)
(6.72621 0.0212174 -0.0950986)
(3.05943 3.028 -0.00548027)
(3.04934 3.04656 0.00222631)
(8.35281 0.115442 0.0150581)
(3.06139 3.0616 -0.000989589)
(7.28973 -0.020715 -0.018195)
(8.39208 -0.0449228 -0.0657445)
(5.12206 0.722887 -0.186189)
(9.29319 -0.594428 0.227356)
(8.20096 -0.365482 0.110228)
(9.1298 -0.324069 0.0912384)
(3.06076 3.06097 -0.000913333)
(4.14829 3.52381 0.0287055)
(8.68758 0.0214655 -0.0066877)
(2.89263 -2.90428 -0.00986448)
(1.5935 -1.11243 0.475754)
(8.5959 -0.165135 -0.128653)
(3.04732 3.03987 -0.00603979)
(3.06283 3.05927 0.000319839)
(7.6749 -0.148106 -0.00268106)
(6.27396 -0.406387 0.0837065)
(3.06186 3.06221 -0.000359357)
(7.77093 -0.144541 0.0255032)
(3.0487 3.04615 0.00132311)
(3.05748 3.06233 -0.00504398)
(2.90396 -2.90422 -0.000562198)
(2.90767 -2.90121 0.00592494)
(2.84985 -2.82505 0.0095733)
(2.90172 -2.89601 -0.000348287)
(7.75409 0.0644058 -0.0291748)
(3.03626 3.01596 -0.00361576)
(3.05648 3.05783 0.00106531)
(3.04022 3.05631 0.00543929)
(7.22242 -1.5924 -0.414546)
(8.18121 -0.0678861 -0.149889)
(7.92015 0.000136376 -0.0827713)
(8.68826 0.0202364 -0.00746075)
(3.04207 3.02244 -3.26399e-05)
(3.07012 3.05889 0.000166957)
(8.32238 -0.142956 -0.174308)
(3.05974 3.06073 -0.0035605)
(3.05715 3.05407 0.000879631)
(4.86108 2.802 0.101623)
(8.86036 -0.12167 -0.00862547)
(8.67121 0.0204265 -0.00731886)
(3.05582 3.05507 -0.000307397)
(3.05379 3.04846 0.00448639)
(3.0422 3.03389 -0.00387477)
(3.04703 3.04068 -0.000414922)
(3.06051 3.05926 -0.00333298)
(3.06749 3.05872 0.00186644)
(8.67657 -0.203119 -0.128045)
(3.06432 3.05549 -9.31643e-05)
(6.01938 0.086698 0.202589)
(8.74995 -0.0199224 0.0229305)
(3.05725 3.06162 -0.000845578)
(2.88432 -2.89596 -0.00788766)
(2.86439 -2.83493 0.00314623)
(7.33487 0.0864513 0.397661)
(2.84391 -2.84083 -0.0115508)
(2.90266 -2.90508 0.00305119)
(3.0401 3.04523 -0.019119)
(7.8617 -0.12263 0.00776453)
(3.04763 3.04659 0.000265547)
(8.62438 -0.113319 -0.0713635)
(6.86893 0.112795 -0.0352648)
(5.66488 0.00715228 0.226772)
(3.04882 3.05111 0.00089266)
(5.90037 -1.50615 0.120244)
(8.69198 -0.0160353 0.00283769)
(8.75627 0.0222195 -0.0225254)
(3.12167 -2.97842 -0.03376)
(8.41816 -0.136194 -0.0220422)
(8.59278 -0.016509 -0.00921107)
(2.90786 -2.88736 0.00286771)
(3.15951 2.99803 0.0147247)
(4.10798 -3.16301 -0.265839)
(3.04118 3.0402 0.00102496)
(8.69197 0.0170494 -0.00222463)
(8.68452 -0.0112156 0.0104663)
(8.83143 -0.10669 0.0442209)
(5.80906 -0.00653178 0.318453)
(3.06306 3.06132 -0.000337124)
(8.69489 0.0172027 -0.00380125)
(3.1386 2.98762 -0.00749573)
(3.82001 3.2332 -0.0133372)
(3.9104 -3.04147 -0.1264)
(3.05712 3.0576 0.00120351)
(8.71486 0.0262966 -0.00551166)
(3.04779 3.0408 0.0019665)
(2.87361 -2.82237 0.00135246)
(7.94474 -0.109355 -0.199411)
(8.5297 -0.0190151 0.0101478)
(2.87591 -2.82818 -0.00833069)
(8.56881 0.0152966 -0.00370761)
(3.25639 3.18473 -0.0189284)
(8.70276 -0.0745517 -0.0386076)
(2.87633 2.75219 0.0273553)
(3.06039 3.06229 -0.00137581)
(3.07306 3.06269 0.0100183)
(2.90819 -2.90876 0.00078483)
(8.42358 0.0133972 -0.0134608)
(7.53725 0.0161863 -0.0346314)
(8.73638 -0.0279789 0.179776)
(3.04456 3.04734 0.00199556)
(3.03998 2.9854 0.02056)
(8.37603 0.0163298 -0.0147269)
(3.06082 3.06097 -0.00112317)
(3.55191 3.21613 0.0443544)
(2.90521 -2.90326 0.000209861)
(8.3342 0.0536277 -0.00544617)
(8.8744 -0.218946 -0.0644189)
(8.69192 0.0217138 -0.0092476)
(2.90102 -2.89515 0.00674723)
(6.88135 -0.0105367 0.19191)
(7.18398 0.00686757 0.184642)
(2.74995 2.42988 0.017034)
(7.76804 0.0996632 0.156268)
(3.06169 3.04583 0.00300739)
(8.20451 0.0772328 -0.00762729)
(8.81264 -0.0149974 0.0511165)
(8.53535 0.00580143 -0.0147853)
(8.82316 -0.111942 0.0135121)
(8.10528 -0.178429 -0.251485)
(3.06011 3.05684 0.000771243)
(3.06069 3.06043 -0.000191797)
(3.05351 3.0576 -0.000661125)
(7.10534 0.0701482 0.256169)
(3.0312 3.00421 0.00333009)
(8.62305 0.0364465 -0.0156493)
(2.90395 -2.90363 -0.000224661)