/*--------------------------------*- C++ -*----------------------------------*\
  =========                 |
  \\      /  F ield         | OpenFOAM: The Open Source CFD Toolbox
   \\    /   O peration     | Website:  https://openfoam.org
    \\  /    A nd           | Version:  10
     \\/     M anipulation  |
\*---------------------------------------------------------------------------*/
FoamFile
{
    format      ascii;
    class       surfaceScalarField;
    location    "19";
    object      phi;
}
// * * * * * * * * * * * * * * * * * * * * * * * * * * * * * * * * * * * * * //

dimensions      [0 3 -1 0 0 0 0];

internalField   nonuniform List<scalar> 
109758
(
-3.13395e-06
0.00121983
-0.0012167
-0.00125157
0.00128764
-3.60772e-05
0.000104257
-0.00114947
0.00104521
-0.0014395
8.78241e-05
0.00135168
0.00146235
-0.000168352
-0.00125783
-3.61661e-05
-0.000405291
0.000396323
8.96813e-06
-0.00110503
-6.57693e-06
0.0011116
0.00202295
-0.000255744
-0.000384732
-0.00138247
-2.37273e-05
0.000849318
1.44642e-05
-0.000840055
0.000466405
-7.21938e-05
0.000596551
-0.000990762
-3.93866e-06
0.000586474
-0.000582536
0.00187409
-0.00152674
-0.00143844
0.00109109
0.000320907
0.00125913
-0.0014378
-0.000142234
0.0011886
-0.00121935
3.07476e-05
-0.000974027
0.00110818
0.0013282
0.000691352
-0.000946073
-0.000684578
0.000939299
0.000819907
-0.00157403
0.00140369
-0.000649567
0.00148454
0.000242374
-0.00110164
-0.000625272
0.00149956
0.00022796
-0.00121115
-0.000516376
-0.00143915
0.000171127
-0.000108954
0.00137697
0.000215362
-0.000290203
7.48412e-05
-2.63495e-05
-0.00119645
0.000285626
0.000937171
-0.000275584
0.000847062
-0.000571478
0.000251248
-0.000301533
0.00102946
0.00116214
0.000420187
-0.000405492
-0.00117684
1.76682e-05
0.000563585
0.000903283
0.001241
0.00151612
-0.00194142
-0.000815696
-0.0010911
0.00108138
9.71932e-06
3.44086e-05
0.00112773
0.00149209
-0.00102659
0.000795286
-0.00126079
-0.00146146
0.00153022
-8.43369e-05
1.55732e-05
-4.9913e-05
0.000604449
-0.000554536
-1.4612e-05
0.00089871
-3.46905e-05
-0.000849408
-0.000827465
0.000824324
3.14128e-06
-0.000124016
-0.00131741
0.00110484
0.00033659
-0.00115986
0.00212104
-0.000718799
0.000577935
0.000169897
-0.000747832
0.000198056
0.00103984
-0.00147424
0.000236348
-0.0002523
-0.00111682
7.96605e-06
0.00136115
0.0011405
5.12901e-06
-0.00114563
0.00167436
-0.00110221
0.000735021
-0.00130717
-0.000392233
-0.000504917
0.000676485
0.000220665
-3.36815e-05
3.28338e-05
0.0016752
-0.0014483
0.00142559
1.31777e-05
9.53823e-06
0.000796994
-0.000798019
1.02501e-06
0.000330595
-0.00214986
-0.000329106
0.00214837
0.000997746
-0.000282543
-0.000251198
-0.000464005
-0.00111433
0.00139016
-0.000195548
-8.0281e-05
1.67005e-05
0.00102434
-0.00104104
-0.0022482
0.000142534
0.000187914
0.00191775
0.00107904
-0.000522004
0.00051962
-0.00107666
0.000398804
0.00061661
1.43969e-05
0.00139989
-0.00141429
-0.0010585
0.00106207
-3.57509e-06
-0.00121985
0.00125425
-0.000329524
-0.00175365
-0.000430694
0.00251387
-0.0022833
0.00318406
-0.000667362
-0.000233398
-0.00111416
0.000983035
0.00117049
-0.00103936
-0.00180393
0.00070858
-5.92404e-05
0.00115459
-0.000718762
0.000264154
0.000645959
-0.000191351
-0.00149344
0.00142154
7.18976e-05
-0.00323465
0.000189561
0.00163163
0.00141347
-0.000314164
0.00130136
-0.0012495
0.000262307
0.00156884
0.00151349
-0.00189098
-0.00113793
0.00151542
-0.00190198
0.00092235
0.000514677
0.00046495
0.0013926
-0.00153986
-0.000857903
0.00100516
-0.00147613
9.85344e-05
0.000349011
0.00102858
-0.00112258
-0.000798811
0.000445263
0.00107496
-7.64956e-05
-9.37167e-05
-0.000904748
0.00100512
-0.000590379
0.000372911
-0.000787647
0.00141801
5.19265e-05
0.000602412
-0.00207235
-0.000520557
0.000192051
0.000328506
-0.0021183
0.00134828
0.00158022
-0.00081021
0.000803014
-0.00075957
-4.34441e-05
-0.000627591
0.000200809
-0.00169151
0.000106506
-0.000881379
-0.000283626
-0.000270609
5.6108e-05
-0.000860863
0.00107536
0.00174186
-0.00158241
-0.000333464
0.000174009
-0.00170473
0.00153671
-0.00105182
0.00119819
-0.000810889
-0.00100337
0.000616062
-0.000650378
0.00269791
-0.00134923
-0.000698303
-0.000152308
8.22971e-05
0.00152946
-0.00145945
3.66374e-05
0.00216854
0.000227417
-0.00243259
0.000866576
-0.00157241
-0.000133046
0.000838879
0.00123874
-0.000233149
-0.000899089
0.000128896
0.000991376
-0.0013586
0.000238325
0.000543521
0.00204821
0.000129569
-0.0027213
0.000961869
-0.00113391
0.00018023
-8.18744e-06
0.00065515
0.000735668
-0.0027644
0.00137358
0.000933343
-0.000103705
6.16174e-05
-0.000891256
0.00199484
-0.00149616
-0.00297353
0.00247484
0.00169084
-0.00190366
0.000844364
-0.000631537
2.06755e-05
-0.0015924
0.00146364
0.000108083
0.00164645
-0.00115285
-0.000363084
-0.00013052
0.000889116
2.08636e-05
-0.00090998
-0.00170035
0.000293983
0.00118719
0.000219174
0.00111408
0.000743445
0.000570982
-0.00242851
0.000918888
-0.00165737
0.00114788
0.00249095
-0.00144435
-0.00219448
0.000917345
1.54288e-06
-0.00036749
0.00119344
0.00119919
-0.00202514
0.00105137
0.000300387
-0.000149035
-0.00120273
8.12411e-05
0.000922404
-0.00100364
0.00141367
-0.000116683
5.53144e-05
-0.00135231
-0.000577879
-1.89587e-06
0.000579775
-0.0013243
0.00102175
-0.000799084
-0.000237703
0.00179602
-0.00188877
0.000330452
0.000431878
-0.000362742
-0.00145274
0.00138361
0.000287592
-0.000293291
-0.000681618
0.000687318
-0.000368716
-0.000989113
0.00123662
0.000121204
0.000448029
-0.0012196
0.00126896
-0.000497395
0.000927811
0.000283517
-9.27653e-06
-0.000549471
-9.87657e-05
0.000657513
0.000179682
0.000353077
-0.00203749
0.00150473
-0.00131161
0.00016656
0.00134782
-0.000202773
0.000973431
0.000158374
9.8892e-05
-0.0012307
0.000205037
0.000768394
0.00143153
0.000288314
-0.00156147
-0.000766624
-0.000873113
0.00130307
0.000336662
0.00135748
0.00018374
0.000199311
-0.00174053
-0.00146903
0.00125597
-0.000412238
0.0006253
0.00134612
0.000290449
-0.00104562
0.00117774
-0.00108706
0.000954945
0.00146311
-0.000211197
-0.000286448
-0.000965464
4.02578e-05
-0.00160605
0.00174129
-0.000175491
-0.00152868
-3.78772e-05
-0.000420433
0.00198699
0.000938752
0.000505943
-0.00148562
4.09262e-05
-0.00101834
9.45876e-05
0.000894357
2.93953e-05
0.000184099
5.70071e-05
-0.00188193
0.00164082
-0.000930395
-6.28057e-06
0.000936675
0.000193111
0.00133145
-0.00134046
-0.00106142
0.00142129
-0.000773884
0.000414023
-0.00121281
-0.000777885
0.00157853
0.000412165
0.00127428
0.000244462
-0.000722663
-0.000796076
-0.00200739
-2.81834e-05
-0.000284135
0.00231971
-0.00129391
-0.000777409
0.000565766
0.00150555
0.00177653
-0.00174076
-0.000112073
7.63119e-05
-0.000263763
-0.000788969
-0.000700917
0.00146076
0.00108175
0.000271231
-0.00281374
0.00211425
0.000267386
-0.002345
0.000214744
0.00110506
-0.0013198
3.51135e-05
-0.0010874
0.00105229
-0.00103204
-0.000214508
0.000197175
0.00104938
9.21644e-05
0.00134634
-0.00128428
-0.00015422
-0.00221998
-0.000254813
0.000576726
0.00189806
0.00122539
-0.0012965
0.00110864
-0.00103753
0.000159363
0.000143172
0.000922858
-0.000873886
0.000847479
2.64073e-05
-0.000919802
3.01592e-05
0.00133349
-0.000443843
0.000264593
-0.000672222
-0.000492846
0.000900475
0.000674458
-0.000702066
2.76081e-05
-0.000961987
0.000910208
-0.000218829
-5.07621e-05
-0.00101201
-1.07415e-05
0.00107352
0.00171243
-0.000192091
-0.00108684
-0.000433497
-0.00040861
-0.00186917
0.00250924
-0.000231454
-0.00162363
0.000562299
-0.00135715
0.0015153
-0.000158148
-0.000731845
0.000659313
-0.0010273
0.00109984
0.000547792
-0.0006707
-0.000497638
0.000620547
-0.000920657
-0.00126254
0.00100182
0.00118138
5.03577e-05
0.00141139
-0.000140117
-0.00132163
-0.000358571
0.00170979
-0.000286488
-0.00106473
-0.00159293
0.00134699
-9.65967e-05
0.000342539
-0.00117045
0.000933635
-0.00100794
0.00124475
0.00121597
6.44412e-06
-0.00122241
-0.00180143
0.000389235
0.00176121
-0.00034506
0.00142146
-0.0010764
8.77272e-05
0.0014352
-0.00152292
0.000197618
0.00123518
-0.0018931
0.000460306
-0.000951422
-0.000989211
0.00106173
0.000878905
0.000693844
-0.000200014
0.000511285
-0.00142027
0.00148339
-3.80411e-05
-2.50789e-05
-0.00141781
1.42058e-05
-1.66707e-05
0.000752148
-0.000451158
0.00184979
-0.00215078
-6.85927e-05
0.00180545
-0.00173686
-0.00118324
0.000849676
-6.59055e-06
0.000340159
-0.000902696
-0.00109796
0.00200066
-0.000674692
-0.000253298
0.00092799
0.00100484
1.26974e-05
-0.00101754
-0.0015962
-2.58017e-05
0.00131307
0.000308932
-0.000461913
0.000638877
0.00083928
-0.00101624
-0.00176806
0.000484218
0.000821931
0.00172103
-0.002712
0.000575497
0.000415467
-0.00144934
0.00146277
-3.98136e-05
2.63859e-05
0.00193059
-0.00193003
-1.53738e-05
1.48066e-05
-0.00109067
1.53444e-05
0.000268922
0.000806408
7.65192e-05
-0.00113748
0.00106096
-0.00123388
-0.00175178
0.00118814
0.00179751
0.000149179
0.00161325
-0.000747172
-0.00101526
2.0465e-05
-0.00155879
-2.34576e-05
0.00156179
0.000256016
0.00139815
0.000329808
-0.00198398
0.000203751
0.00139805
-0.00147298
-0.000128827
-7.47564e-05
-0.00109358
0.00137209
-0.000895049
-0.000757875
0.000385012
0.00126791
0.000842042
4.82116e-05
-0.000890253
0.00135944
0.00130354
-0.0015747
-0.00108828
1.71986e-05
-0.00108207
0.00106487
0.00030266
0.00013186
5.98989e-05
-0.000494419
-0.00142089
-2.28347e-05
0.000470204
0.000973518
-0.0010463
-0.00053666
0.00158296
0.000845606
-0.00111026
0.000393619
-0.000128965
-0.00146899
0.000185116
0.00134023
-5.63492e-05
-0.00148001
0.00179845
-0.00141306
0.00109462
-5.95262e-06
-0.000889096
-0.00114078
0.00110882
3.19659e-05
-0.00147923
-0.000770887
0.000146178
0.00210394
-0.000136943
0.0013035
-0.00116656
0.00103738
-0.000815632
-0.000221749
0.000925298
-0.000931251
-0.00111089
-3.44322e-07
0.00111123
0.000508753
0.00138647
-1.33127e-05
-0.00188191
-0.00113536
0.000172865
0.000962493
-0.0012633
-0.000444589
0.00131581
0.000392082
-0.00190978
0.000262203
0.00186434
-0.000216762
0.000944054
-0.000916797
-2.72561e-05
-0.00072633
-0.00101938
0.00390989
-0.00216418
-0.0014829
0.000543177
-0.00037351
0.00131323
-0.000750999
-0.000179497
-0.00117531
0.00210581
-3.29097e-06
1.85852e-06
0.00130802
-0.00130659
0.000708056
-0.002097
0.00285896
-0.00147001
-0.00121669
0.0012134
0.00155678
0.000401003
-0.00190706
-5.07174e-05
0.00108571
0.000148321
-0.00136371
0.000129684
0.000950686
0.00044556
-0.00159441
0.000198168
0.000904077
0.000181632
-0.000541695
0.00169127
-8.90223e-05
-0.00106055
0.000326589
-0.00148624
0.00190041
-0.000740759
-0.00167245
0.00012175
-4.71079e-07
0.00155117
0.000972048
0.0037446
-0.000593548
-0.0041231
0.000450127
0.000343074
-0.00059669
-0.000196511
0.000309937
0.00112372
-0.00050802
-0.000925639
-0.00090553
0.000884108
-0.000520273
-4.69617e-06
0.00169131
4.65556e-06
0.00133516
-0.00135033
0.00021419
-0.00019902
0.000315981
-0.000105196
0.000805282
-0.00101607
-0.00130139
0.00126677
0.000182943
0.000392607
-0.000768617
-0.000879816
0.00125583
0.000542284
0.00150851
-0.00150727
0.00113019
-0.00148052
0.00020019
0.000150136
0.00111231
7.56952e-08
-0.00111239
0.00242794
-0.00249747
0.00202055
-0.00195102
0.000370342
-0.000955391
-0.000476649
0.0010617
0.000384902
0.000204412
-0.00163461
0.000973845
-0.000581282
0.00124205
-0.00200244
0.000451582
0.00168568
-0.000134823
-0.00156228
-0.000861977
0.00313231
-0.000160193
0.00191852
-0.000633232
-0.0011251
0.00092499
-0.00046682
0.0017124
-0.00217057
0.000184467
-0.000870048
0.000740793
-5.52112e-05
-0.000383182
-0.00125707
0.00144423
0.000196021
0.00108193
-0.000611922
-0.000440213
-2.9793e-05
0.000548732
0.000229798
0.000291175
-0.00106971
-0.000776206
0.000995604
-0.000219398
0.000889378
-0.000828381
0.000123469
3.09319e-05
-0.00135823
0.0013273
0.00104468
-0.0012173
-0.000210561
0.000264928
0.00118338
-0.000265548
-0.00118276
-3.85752e-06
-0.000963242
0.0009671
0.000525012
0.00161267
-0.000883451
-0.00125423
-8.86201e-05
-0.000630005
-0.000428763
0.00114739
-0.000294716
-0.00162196
1.0754e-05
0.00190592
-0.00102957
0.000417018
0.00125881
-0.000646257
7.64525e-05
0.000968224
-0.000858897
0.000935349
0.000926216
0.000247621
9.97406e-05
-0.00127358
-0.000489132
0.00218842
-0.000142508
-8.92403e-05
-0.000621659
0.000566716
0.000144183
-0.000206324
0.0024359
-0.000115324
0.0019759
-0.00102618
-0.000424707
0.00225393
-0.00027546
-0.00120929
0.00180752
-0.000322771
-0.00228041
0.00191505
0.0009375
-0.000572144
5.75294e-05
0.00104798
0.000870389
-0.00100403
-0.00131868
0.00139232
-0.000717173
-0.00098943
0.0019118
-0.000205198
0.000740175
0.000842827
-0.001583
2.6327e-05
0.00016897
0.00222581
-0.00242111
-0.00117483
0.000993234
0.00144024
-0.00125865
0.00135765
-0.00214582
0.00172481
-0.000936631
0.000449864
-2.28604e-05
-0.000427003
-0.000923478
-0.000516796
0.000171806
0.00126847
-0.000473571
-0.000679021
8.94507e-05
0.00117075
-0.000969016
-0.000291181
0.000984392
-0.00102503
4.06393e-05
0.000109467
-0.00130638
0.00137854
-0.000181624
0.00114602
-0.00282883
0.00139814
0.000284671
0.000655306
-0.000874254
0.000218949
0.000867537
-0.000110841
-0.000859804
0.000103108
-0.000174207
-0.00287292
0.00259348
0.000453646
-0.0011333
0.000195094
0.00132072
-0.00038251
-0.00118359
3.79635e-05
0.00114562
0.00118342
0.000199955
0.000785157
-0.000590132
-4.89412e-05
0.00152845
0.000102966
-0.00168359
0.00140642
-6.39315e-05
0.00116667
-0.00110274
-0.000816565
0.000505591
0.00135436
-0.00104339
-0.000185605
0.00155161
-4.40396e-05
-0.00132197
-0.000186745
0.00144224
-0.000975031
-0.000280461
-0.00100239
-2.22282e-05
0.0011813
-0.000156681
0.000832469
-0.00174024
0.000950026
-4.22528e-05
-0.000891561
0.000696982
-0.00071648
0.000911059
0.000863737
3.41372e-05
-0.00010088
0.000132323
-0.00125857
-0.000303214
0.00142946
-0.000258131
-0.00138287
0.00061804
0.00102296
0.000493383
-2.11167e-05
0.00113426
0.000275121
-0.00138827
0.000582517
-0.000410706
0.00117349
-0.0013453
-0.000751836
0.000931657
0.00124335
-0.00142317
0.00203382
0.000510593
-0.00205103
4.41423e-07
-0.00120979
0.00120935
7.48798e-06
-0.00122613
0.00127499
-5.63476e-05
2.40299e-05
0.00130989
-0.00117812
-0.000155806
0.000394341
-0.00198937
-6.49565e-05
0.00165999
-0.00110068
0.00132068
-0.000219992
0.000201852
-9.21399e-05
0.00132382
-0.00143353
-0.00102586
0.000227836
-0.000708953
0.00107349
-0.0014306
0.00106607
-0.000327223
-8.10763e-05
0.000408299
0.00324001
-0.00158097
-0.000703535
-0.000955504
0.00130459
0.00334295
-0.00140753
0.00216014
-0.00199878
0.000188955
0.00110087
-0.000852254
0.00121912
-0.000386538
1.96755e-05
-0.000258387
4.91948e-05
0.00178942
-0.00125093
0.000471016
0.000960621
-0.000180711
-0.00105241
0.00174151
0.0001308
0.00122118
-0.00139802
0.000708591
-0.000531751
0.000181409
0.0024529
-0.00243245
0.000735105
6.38477e-07
-0.000735744
-4.84145e-07
-0.000956898
0.000957382
0.00170447
0.000138088
-0.000381385
-0.00146118
0.0022109
-0.000712359
-0.000935672
-0.000562869
-0.000139776
-0.00280378
0.000846548
-8.61144e-06
-0.00067929
0.000687901
0.00146604
-0.00134486
-0.00132981
0.00120863
0.00106449
0.000443904
-0.00125238
0.000862942
-0.000531947
-0.00131605
0.000985051
-0.00104283
-9.60815e-06
-0.000803274
0.00185571
-0.00159386
-5.79998e-06
0.00159966
0.000992665
9.37122e-05
-0.001056
-3.03754e-05
-0.00127435
-2.07449e-05
0.0012951
6.41823e-05
0.00107037
-0.00113455
-0.000783413
0.00173617
-0.000125871
-0.000826887
-0.00187896
0.00226291
0.00142715
-0.00181111
0.000901102
0.000769101
-0.000209046
0.00134064
-0.000866291
-0.000265304
-0.000229772
-7.79114e-05
-0.00115537
0.00146305
0.00130435
-0.00114749
0.000912366
-0.00106923
-0.00123891
0.00128844
-4.95221e-05
-0.00151394
0.000253577
0.00130019
-3.98258e-05
-0.00264441
0.000529047
0.0020118
0.000103562
0.000260691
-0.000334567
-0.00130887
0.00138275
0.00190152
0.000181185
-0.00109222
-0.000990486
0.00103472
-0.00078638
-0.00104202
0.000793674
0.00119124
1.2003e-05
-0.00120324
0.000109761
-0.00202592
0.00148249
0.00043367
0.000752817
0.000448746
-0.000300461
0.000273932
-0.000881646
0.00128548
-0.000677762
-0.000545331
0.000529511
-0.000121954
0.000137774
-0.00362709
0.00437336
0.00141069
-0.00215696
0.0018201
-1.19555e-05
-0.00181945
1.13014e-05
9.15315e-06
0.00146345
-0.00157284
0.000100239
-0.00219526
0.00192327
-0.00051143
0.000974392
0.00121973
-0.00110392
-0.0010902
-0.000967719
-6.94969e-05
-0.000105247
0.00114246
0.00101023
5.29013e-05
-0.00106313
0.00128797
-7.09987e-05
-0.00121697
-0.00227737
0.00214588
8.458e-05
4.69155e-05
7.06131e-05
0.0014678
-7.19321e-05
-0.00146649
0.000909257
0.000458519
-0.00297732
0.00160954
-0.000630635
0.000630643
-7.91052e-09
0.000923595
2.20398e-06
-0.000925799
-4.61469e-07
-0.00055687
0.000557332
-0.000530986
0.00108009
0.000726045
-0.00127515
3.53823e-06
-0.00114345
0.000897097
0.000242811
-0.00128299
-0.000526033
-0.000468347
2.99275e-06
-0.000888126
-0.000131898
0.00101703
-0.00068738
1.28525e-05
0.000674527
0.000235015
0.000729252
-0.000237598
-0.000726668
0.000502841
-0.000895075
0.000392234
-0.000243115
-0.00083319
-0.00031036
0.00138667
0.000709344
0.000939965
0.000138559
-0.00178787
0.00185834
-0.000675848
-0.000602401
-0.000580094
-6.79292e-05
-0.00153304
0.00178666
-0.000185689
0.000735932
0.000387553
0.00021249
-0.00133597
0.00232105
0.00103363
-0.00217711
-0.00117757
-2.84188e-06
0.000587579
-0.000584737
-0.00137317
4.09341e-05
0.000317689
0.00101454
-0.00134537
-0.000149191
0.00153043
-3.58647e-05
0.000374596
-0.000468121
0.00191363
-0.000476421
0.000629234
-0.000152814
0.000937437
2.68525e-05
-0.000964289
0.000194578
0.000122377
-0.00123684
0.000919882
0.00131897
-0.000130296
-0.00122692
3.82418e-05
-0.00111337
-7.9109e-07
0.000237454
0.000322162
-0.00146052
0.000900908
-0.00135582
9.75472e-05
0.00125828
-5.3266e-05
-0.000949121
-0.000123753
0.0020899
0.000147239
-0.00211339
0.00111659
-0.00118263
6.60319e-05
-0.00119568
0.00118293
1.27472e-05
0.000959652
-0.0010834
0.000262239
0.00087644
0.00108899
-0.00222767
-0.00117284
-0.000640457
0.0018133
-9.22671e-06
0.000835857
-0.00082663
-1.94694e-05
-0.000909658
0.000929127
0.00111462
-0.00110766
-6.96915e-06
-0.00123662
4.76491e-05
0.00124322
-5.42505e-05
0.000302177
-0.0013909
0.00106238
0.000693723
0.000583282
-0.0023383
0.0010613
0.000721226
4.9474e-06
-0.000726174
4.74392e-05
0.0013677
-0.00141514
0.000672025
2.43306e-06
-0.00153955
0.00137043
0.00129909
-0.00112997
-0.000969659
0.000123015
0.00124335
-0.000396708
0.0016959
-0.00244332
0.00059072
0.000156697
-0.0021898
0.000487747
-0.00104583
0.001156
-0.000110171
2.55216e-05
-0.00115998
0.00113446
-0.00100426
-1.98036e-05
0.00102406
-0.00117449
6.18479e-06
0.0011683
0.00112345
-0.00123175
0.000108298
1.52377e-05
0.00173298
-0.00174822
-0.000256882
-0.000234115
0.00124381
0.00123778
-0.00129324
-0.000884134
0.000939601
-0.000698644
0.000127275
0.00135654
-0.000785173
0.000667757
-0.00157026
-0.000101757
-7.28842e-05
0.00153474
-0.00146185
0.000454908
0.000424172
-0.000580051
-0.000299028
-0.000706881
0.00115901
-0.00139305
0.000940921
-0.00112403
-0.000426941
0.00155097
0.00227613
-0.00140333
-0.000872805
-0.000432191
0.00163527
0.00107132
-0.0022744
-0.0011863
0.00143872
-0.00143553
0.00118312
0.000508896
-0.00038233
-0.000584558
0.000457992
2.12509e-05
-1.36466e-05
-0.00127994
0.00127234
-0.000119375
-0.00180123
0.0019206
0.00040472
5.3164e-05
-0.00152558
0.0010677
-0.00150252
0.00116565
0.000336879
-0.000702812
-0.000351914
0.00101383
4.08962e-05
-0.00099071
0.000985671
5.03841e-06
0.000963498
-0.000814852
0.001209
-1.05579e-05
-0.00157811
0.00158101
7.66081e-06
0.00304963
-0.000788569
-0.00153068
-0.000730385
-0.000471375
0.00166325
7.92341e-06
-0.0011998
-0.000550153
0.000819095
0.000457385
-0.000726328
-0.00132476
0.000778042
0.00137623
-0.000829507
0.000727611
-0.000868489
-0.000339433
0.00150737
3.98206e-05
-0.00120776
0.000906386
-0.000999618
0.000103601
-0.00213945
2.39897e-05
-2.0998e-05
0.00213645
-0.000297286
-8.37888e-05
-0.000799645
0.00118072
-0.0010853
0.00139611
-0.00110958
0.000798766
-0.00248047
-0.000334503
0.00260865
-0.00160741
2.25965e-05
0.00160912
-2.43085e-05
0.00100648
0.000162807
-0.000678797
-0.000490489
-0.000317163
-0.00123365
0.00065534
0.000895471
0.0010683
-0.000418941
-0.00140808
0.000758717
-0.00138745
-0.000357705
-3.0879e-05
0.00177603
0.00111029
-0.000136288
-0.00101872
4.47158e-05
0.000940086
-0.000944
3.91391e-06
-0.000745504
0.00242679
-0.00201606
0.00033478
0.000156326
0.00143143
-0.0023035
0.000715747
-0.000945994
-0.000308017
0.000994277
0.000259734
0.000330333
-0.00031691
-0.000959417
0.000819995
3.2916e-05
0.000161259
-0.00101417
-8.83992e-05
0.000616249
-0.0026673
-0.00138836
2.85248e-05
0.00178192
-0.000422089
-0.000995199
0.00116111
-0.000165906
0.00048979
-0.00045934
-0.000649098
0.000618649
-0.000700624
-0.00128676
0.000808936
0.00117845
-0.000577195
0.00179594
-0.000661473
-0.000557273
-0.00148171
1.02165e-05
-0.00129686
0.00161697
-3.90527e-05
3.44437e-05
-0.00128139
0.00128599
0.00123723
0.00132712
-0.00141037
-0.00115398
0.000979831
-0.00101067
3.08392e-05
0.00125296
-8.0563e-06
-0.00124491
0.00106996
-0.001242
0.000351449
-0.000179407
-0.000312295
-0.000915994
0.00222257
-0.00164541
0.00141238
-0.000212903
0.000445935
0.000547233
-0.000744669
0.00176754
-0.00157011
-0.00157623
-0.00114995
0.00187385
0.000852331
-8.4512e-05
-0.00173739
0.000176488
0.00027491
-0.0014496
-1.17965e-05
0.00118649
0.00133547
0.000351821
0.00180886
-0.00158406
-0.000594358
0.000369556
-0.00133485
0.00132494
0.00108052
-0.00107061
0.00101499
0.000503183
-0.00115211
-0.000366065
0.000508241
-0.00111713
0.000928108
-0.000319222
0.00139181
-0.00114101
-0.00181307
0.00156226
0.00146017
-0.00162519
8.05075e-05
-0.000901167
0.000905128
-3.96139e-06
0.000112836
-0.000102271
0.0015119
-0.00180617
0.00170382
-0.00140955
0.0011204
-0.00100756
0.00113747
-0.00123006
-3.75604e-05
0.000130157
-2.4446e-05
-0.000519487
0.000543933
-0.000123565
-0.00103693
0.00124387
-8.33746e-05
0.00191015
-0.00171911
0.000135747
-0.000326791
0.000204321
-0.0022671
0.000183823
0.00169631
-0.00173584
-0.000188016
0.000227542
0.000371552
0.000279054
0.000461247
-0.00111185
-0.000100995
0.000948678
0.000923879
-0.00177156
-8.04271e-05
-0.00117192
-0.000325465
0.00157782
-0.000570276
0.00170887
-0.000464644
-0.000673947
-0.0010686
0.000453237
0.00168532
0.0010457
-0.00211865
0.00023231
0.00084064
-0.000305296
7.15593e-05
0.00193005
0.000313057
0.001427
-0.000488607
-0.00125145
-5.17817e-05
5.40412e-05
-0.00123863
0.00123637
0.00185861
0.000104449
-1.30836e-05
-0.00194998
0.00103432
0.000453145
-0.000410995
-0.00107647
-0.00112293
-0.000479911
0.000534245
9.19286e-05
0.000648198
-0.000657842
-8.22845e-05
0.000189451
1.64142e-05
-0.00144787
0.00100858
-0.000527318
-0.000136939
-0.000344323
0.000148169
0.000701589
-9.81253e-05
-0.000751633
-0.00112211
0.000962823
0.00120499
0.000744058
-0.00323201
0.000629174
0.00185878
0.000176813
-2.9793e-05
3.29981e-05
0.00127207
-0.00127528
0.00220461
-0.000708036
-0.000732166
-0.00076441
-0.00107619
1.3719e-05
0.0014779
-0.000415427
-0.000136001
-0.00103734
0.00125104
-7.76955e-05
0.00104156
-0.00142091
-0.000694125
0.00107347
-0.000986593
0.000957996
2.85962e-05
-3.00101e-05
0.000952333
-0.000922323
-0.000466164
-0.00109017
-0.000402181
0.00195851
-0.000809072
0.000905677
-9.66047e-05
-0.000152964
-0.00132768
-0.000334601
0.00181524
-0.00234365
0.000864153
-0.00127918
0.00275868
-0.00160475
3.7057e-05
0.0015677
0.000757878
0.000839144
-0.000810991
-0.000786031
0.000976152
-0.000559231
-0.000184668
-0.000232253
0.00130352
2.85431e-05
-0.00133206
0.00124628
-0.00372622
0.00013629
0.000845564
-3.13721e-05
-0.000814192
-0.00144383
-0.000573104
0.00194072
7.62145e-05
-0.000876609
0.00452889
-0.00277329
-0.000878989
-0.0026388
0.003178
-0.00046554
-7.36632e-05
0.0015764
-0.000908582
0.00219114
-0.000771946
-0.00168104
0.00248295
-2.99649e-05
-4.53014e-06
-0.000121921
-0.000680271
0.000806722
0.00148789
0.00190617
-0.00216812
-0.00122595
-0.00152919
0.00180789
0.00049598
-0.000774678
0.00169584
-0.000311129
-0.000663028
-0.000721685
0.000144764
-0.00108552
-0.000188258
0.00112901
-0.00322363
9.97052e-05
0.00164991
0.00147401
-0.000591311
0.00225046
-0.000872481
-0.00078667
0.000382325
-0.000938144
0.00178755
-0.00123173
-0.000193151
-0.000553035
0.00104585
-0.00029966
-0.000918122
0.000976916
-6.24901e-05
3.69616e-06
0.00160113
-0.00180733
-8.66885e-05
0.000292884
-4.87407e-05
-0.0015958
0.00160845
3.60914e-05
0.00013082
-0.000116674
-0.00153069
0.00151655
0.00220731
-0.00036249
9.40955e-05
-0.00193891
-0.00145086
-0.0003048
0.000372379
0.00138328
0.000491614
-0.000491628
1.32453e-08
0.0010893
-0.000741141
0.0007268
0.000226292
0.00208718
-0.000124838
-0.00218864
-0.000333259
0.000222881
0.000278822
-0.000168444
-0.0016286
-0.00202544
0.00292771
-0.00115807
0.00132611
0.00126298
-0.00143103
-6.48711e-05
0.00129218
-0.00163018
0.000402865
-0.00124017
-0.00129708
-8.2166e-05
-0.000334024
0.00171327
-7.02229e-06
-0.000660538
0.00066756
-7.67783e-06
-0.000950807
0.0022164
-0.00125792
0.00065098
0.000916427
0.001634
-0.000818283
7.6611e-05
-0.000892325
0.000716876
-0.000199386
-0.00119669
0.000679201
0.000900615
4.28536e-05
-0.00137252
0.000429047
-0.000649019
0.000537267
0.002034
-0.00192224
0.00174269
0.00124567
0.000163205
-0.00315156
-0.00155569
-9.80635e-05
0.000314857
0.0013389
-0.0013097
0.00139485
-8.5152e-05
-9.11255e-05
0.000865384
-0.000129782
-0.000644477
-0.000267959
0.00055118
-0.000283221
0.00109061
0.00155024
-0.000695898
-0.00194496
0.000933204
-0.000934173
9.6967e-07
-0.0026441
0.000617115
0.0014776
0.000549383
0.000107
-4.74595e-05
0.00128263
-0.00134217
0.000822269
3.39596e-06
-0.000825665
0.00168895
-0.00187521
-0.00120433
0.0013906
-0.00148705
-0.00287246
0.00171541
-0.00029032
0.000187478
0.00119565
-0.00109281
-0.000511323
0.00155535
-0.000163956
-0.000880074
0.000319768
-0.00084556
0.00124267
0.000974634
4.7046e-05
-0.00102168
0.00289309
-0.00069974
0.000172181
-0.00236554
0.00109323
0.000312813
0.000699757
-0.00167179
0.000803469
0.000168561
-0.00176117
4.97992e-05
0.0013206
0.000390773
-0.000328144
-0.000724039
0.000767123
0.00028506
0.0010312
-0.00132815
0.000296946
-0.00036514
-0.000709916
0.00107506
0.000910579
-0.000589645
-0.00103368
0.000712741
-0.000389334
-0.00021664
0.00155733
-0.000951351
-0.000766004
-0.00122403
0.000946961
0.00104308
-0.00150529
0.00137449
-2.53301e-05
0.000156131
-8.7418e-06
-0.000929402
-0.000224663
-0.000819739
0.00103413
1.0274e-05
0.00156712
-0.00147403
0.000428094
-0.000521177
0.00238297
-0.00237091
0.00108117
-0.00041542
0.00045603
-4.06102e-05
-0.000870188
0.000858804
1.1384e-05
-7.88115e-05
0.00109114
0.000372549
-0.00138487
-0.000691622
-0.00108986
-0.000429625
0.00221111
-0.000645227
-0.000495833
0.00224053
-0.00109947
0.00111027
0.00029759
-0.00148667
-0.000214258
0.00165311
-0.00075163
-0.000687217
0.000234937
-0.00109171
-0.000478397
0.00133517
-0.000304207
0.000187123
-0.00152238
0.00163947
0.00151786
-0.00109921
-0.000839901
-0.000626635
-0.00018684
0.00165338
0.000453007
-0.000229318
-0.000227106
3.41654e-06
-0.00177998
0.00207655
-0.000211431
-8.51364e-05
0.000581179
0.000641822
-0.000610887
-0.000612114
-0.000244504
0.00126812
2.66231e-05
-0.00105024
0.00141612
6.05455e-05
-0.00126544
-0.000211223
-0.000174944
-0.0017406
-0.000431444
0.00234699
-0.00015043
0.00126234
-0.00111191
0.00152482
0.00129498
-0.00173589
-0.00108392
0.00101085
9.58166e-07
-0.00101181
0.000110958
-0.00133064
-0.000332567
0.00155225
0.0023807
-0.000339436
-0.00111888
-0.000922381
3.38239e-05
0.00239344
-4.65631e-05
0.00117447
-0.00112234
-5.21292e-05
-0.000421799
-0.000821594
0.00124339
0.00217677
-0.000580743
-0.00136806
-0.00101744
-0.000995011
0.00167301
9.45446e-05
0.000402908
-0.00157137
0.00107392
5.64526e-05
-0.001355
0.000847764
0.000450781
-6.83328e-06
0.00118092
6.82013e-06
-0.00118091
-0.000230336
-3.17843e-05
-0.00111829
-0.000294454
0.00141275
-1.88781e-05
-0.000970208
0.000989086
0.00207737
0.000157895
-0.000133224
-0.00210204
0.000869799
-0.00161147
0.000388534
0.000353141
0.000548515
1.34422e-06
-0.00054986
-0.00158316
0.000258339
-6.3943e-05
0.00138876
0.000566414
4.18033e-05
0.00123633
-0.00184455
-0.000582
0.00062836
-0.00174557
0.00169921
0.000174484
-0.000229354
-0.00163513
0.00169
0.00116343
-0.00108691
-0.00249764
0.000284564
0.000736553
-0.000751323
-0.000762028
0.000776798
-0.000672315
0.000675193
-2.87837e-06
-0.00159847
-0.000564604
0.00239594
-0.000343431
-0.0014879
-0.000930988
-0.000283016
0.00126318
-4.9172e-05
0.000268369
0.0015175
-0.000581192
-0.00120468
-0.0030099
-0.00252785
0.000196967
0.00242285
-9.19678e-05
0.000179729
0.000129709
-0.00104295
0.000733515
0.00166634
-0.00154073
-0.00171947
0.00121622
0.000348069
-0.00156429
0.00173246
-0.0003204
-0.00123981
-0.000172249
-0.00103673
-5.74886e-05
-0.000699707
0.00179393
0.00170058
-0.00143819
-0.000506475
0.000244081
7.47121e-05
0.000527611
-0.00162504
0.00102271
5.46036e-06
0.000884972
0.00013587
-0.0010263
-0.000822888
0.00104806
0.000296133
-0.000521308
1.23655e-05
0.00145298
-1.14124e-05
-0.00145393
-0.00109772
0.00111009
-0.00102313
-2.01894e-06
0.00102515
-0.00167028
-0.000154166
0.000417764
0.00140668
0.00117466
-0.00114862
0.000687407
-0.000713444
0.00029002
0.00102084
-0.00110226
-0.0002086
-0.00141329
0.00206841
-0.000238184
-0.000416945
0.000823844
-0.000787235
-3.66097e-05
1.62898e-05
0.00065241
0.00171427
-0.00138026
0.00117656
0.000506724
-0.000303018
-0.000340574
0.00075888
-0.000418306
-3.49448e-05
0.00118675
-0.0011518
-0.00185966
0.000705284
0.000361825
0.000792555
-0.00333904
0.00243368
0.00092165
0.0024809
-0.000296472
-0.000424255
-0.00176017
0.000992169
0.000121696
0.000634622
-2.94361e-05
-0.000665033
5.98477e-05
0.000686741
-0.000538572
2.67365e-05
-0.00159491
0.00156818
-0.00275471
0.00196955
-0.000874671
0.00211013
-0.00142817
0.000192703
0.00144049
-0.00194846
0.00060251
0.00110762
-0.00202338
0.000390203
0.000525556
-0.00102932
0.00123629
-0.000206967
0.00214732
0.000449689
-5.50552e-06
-0.0025915
-0.00103166
0.00104044
-8.77981e-06
0.00280751
-0.00251657
0.000325312
0.00166233
-5.40804e-05
-0.00160825
0.00119291
-0.00121621
2.33002e-05
-0.0011939
0.000134103
0.00105979
-0.000460213
-0.0011297
0.000396012
-0.00244141
0.00160112
0.000439353
0.000400937