/*--------------------------------*- C++ -*----------------------------------*\
  =========                 |
  \\      /  F ield         | OpenFOAM: The Open Source CFD Toolbox
   \\    /   O peration     | Website:  https://openfoam.org
    \\  /    A nd           | Version:  10
     \\/     M anipulation  |
\*---------------------------------------------------------------------------*/
FoamFile
{
    format      ascii;
    class       volVectorField;
    location    "2";
    object      U;
}
// * * * * * * * * * * * * * * * * * * * * * * * * * * * * * * * * * * * * * //

dimensions      [0 1 -1 0 0 0 0];

internalField   nonuniform List<vector> 
59698
(
(0.576003 0.00166173 0.000664269)
(0.564285 -0.0019473 -0.000705758)
(0.570175 -0.000849819 0.00141833)
(0.579852 -0.00343536 -0.00159327)
(0.563589 -0.000521295 2.35546e-05)
(0.197729 0.198039 -0.00637296)
(0.562751 0.00034752 0.000559632)
(0.564466 0.000693459 -0.000595146)
(0.199624 -0.200313 0.00102582)
(0.201108 -0.200188 0.00135251)
(0.201945 -0.200173 -0.000841861)
(0.564669 0.000274007 0.000213357)
(0.199239 0.200956 -0.00173995)
(0.563169 -0.000314792 -0.000422319)
(0.563015 -0.000259518 0.000492561)
(0.203769 -0.196336 0.00166608)
(0.563252 0.000216026 -0.000873408)
(0.565683 -0.00171252 0.000342512)
(0.566516 0.00188524 0.00122425)
(0.564859 -0.000683832 0.000386568)
(0.146018 -0.107175 -0.0278471)
(0.561976 7.55053e-05 -0.000264558)
(0.262024 -0.169267 -0.00891072)
(0.198817 -0.199924 -0.00137129)
(0.563095 0.000988576 0.000459957)
(0.566229 -0.00137573 0.000580669)
(0.563577 -0.000529119 0.000418083)
(0.561823 7.22097e-05 -0.000752967)
(0.563284 0.00143362 0.000325156)
(0.564354 -0.000818774 0.000882725)
(0.563603 -0.000426068 -0.00176965)
(0.20016 -0.200472 -0.000255233)
(0.201347 -0.197147 0.00174882)
(0.562442 -0.000493001 0.000389248)
(0.54296 0.0107389 -0.0065066)
(0.56506 -0.000971526 -0.0005149)
(0.272961 0.0652007 -0.0393464)
(0.562384 0.000770968 0.000817953)
(0.56483 0.001442 -0.00023325)
(0.563504 -0.000979578 -0.000619152)
(0.563169 0.000659228 -0.000787634)
(0.194905 0.197806 -0.00174388)
(0.5634 0.0010058 -0.00117028)
(0.56292 0.000108482 -0.000853169)
(0.198082 0.200288 7.03784e-05)
(0.561781 0.00263767 0.00481807)
(0.566377 -0.000267915 0.00132145)
(0.561856 -0.000431111 -8.89108e-05)
(0.562158 0.0012958 -0.00103483)
(0.565837 -0.00126025 -0.000281363)
(0.566151 -0.00064036 -0.000127167)
(0.566396 -0.000492752 0.00105474)
(0.566426 0.000858056 0.00156969)
(0.560945 -0.000404624 0.000971192)
(0.56166 0.00219102 0.00073037)
(0.566403 0.000871901 0.000292831)
(0.563529 -0.00134304 0.000236997)
(0.563294 0.000356734 0.000802347)
(0.56417 -0.00101477 -0.00034219)
(0.271144 0.119029 -0.0169226)
(0.561343 0.00484895 -0.00240905)
(0.566008 0.000820666 7.44121e-05)
(0.576072 0.0146738 0.0063121)
(0.567514 0.0012834 0.00117392)
(0.565384 -9.99929e-05 0.000298314)
(0.563689 0.000194632 0.00184437)
(0.198914 -0.200947 5.41843e-05)
(0.56517 -8.48044e-05 -7.57668e-05)
(0.564812 -0.000152806 0.000243044)
(0.199878 -0.200107 -0.000137545)
(0.208083 0.182938 -0.00734195)
(0.564606 -0.000231457 0.000219592)
(0.163103 0.115493 -0.0359831)
(0.593022 -0.00968902 0.020986)
(0.202711 0.203409 -0.000415483)
(0.588966 -0.0236582 0.0215739)
(0.561268 -0.000723878 0.00181028)
(0.564919 7.78441e-05 -0.00077142)
(0.565204 0.000751755 0.000565922)
(0.56098 0.0011859 -0.000103975)
(0.563786 -0.000432425 -0.000865083)
(0.564527 -0.000659116 0.00011923)
(0.200223 -0.198911 0.000561893)
(0.564405 -0.000718138 0.000343685)
(0.404371 -0.105522 0.0177377)
(0.563431 -2.12831e-05 0.000482109)
(0.564897 -0.0010353 0.00142444)
(0.559744 4.06224e-05 0.00684938)
(0.562711 -0.000476529 -0.000330593)
(0.564315 -0.000554201 0.000117231)
(0.19986 -0.201034 0.000247804)
(0.562973 0.000472519 0.000377645)
(0.563326 -0.00119642 -0.000445506)
(0.565137 0.000405025 -0.000207879)
(0.563482 0.00116859 -0.000642491)
(0.565321 -0.00198202 0.000563784)
(0.562339 -0.00126361 -0.00079647)
(0.562892 0.00062159 -0.000122414)
(0.562457 -0.00118838 -0.000746498)
(0.198783 0.199494 0.000363492)
(0.561992 -0.00101143 -0.000639908)
(0.570154 0.00573128 0.00624461)
(0.563989 -1.80112e-05 -0.00146156)
(0.563103 -0.00215026 -0.00339126)
(0.567446 -0.00137176 -0.000140462)
(0.195964 0.197519 0.00166208)
(0.565174 -0.00143883 0.000423471)
(0.56372 -0.002374 -0.000943577)
(0.200562 -0.199966 0.000295146)
(0.201615 0.199421 -0.00270128)
(0.567165 -0.00209957 -0.00115135)
(0.574208 -0.0106153 -0.00108523)
(0.562101 -0.00125767 -0.00067826)
(0.200905 0.198773 -0.000345892)
(0.560227 0.000111474 0.000804265)
(0.566362 0.00152725 0.000759554)
(0.56591 0.0007659 -0.00102638)
(0.564071 0.00265425 0.000909172)
(0.562311 -0.000841073 0.00276392)
(0.196873 -0.198846 -0.00182464)
(0.564856 -0.00112647 -0.000164786)
(0.559287 -0.00713715 -0.00375424)
(0.562123 -0.0052163 0.00637483)
(0.563879 -0.00222626 0.00102653)
(0.563901 0.000719245 0.00112156)
(0.565206 -8.38298e-05 0.00129749)
(0.563825 0.00117009 -0.000197066)
(0.201113 -0.201877 0.000504613)
(0.562912 -0.00172334 0.000566309)
(0.565591 0.000623633 -0.00179072)
(0.56325 -0.00113743 -0.000640958)
(0.56552 0.000547977 -0.000914598)
(0.200703 -0.198214 -0.00102106)
(0.560658 0.00217028 0.00161345)
(0.565093 -0.000346358 0.000442279)
(0.566356 0.000392585 0.000113587)
(0.56813 0.0040283 -0.000972114)
(0.198241 -0.199349 -0.00086482)
(0.566059 0.00132319 0.000341131)
(0.564873 0.00092985 -0.00134308)
(0.564871 -0.000371956 0.000809632)
(0.564522 0.00329584 -0.00267575)
(0.566191 -0.00105319 7.01266e-05)
(0.566097 -0.00117645 -0.000147112)
(0.565117 0.00256132 -0.000413191)
(0.564383 7.47517e-05 0.00116105)
(0.565888 -0.00389985 0.000758565)
(0.568281 -0.00358096 -0.000142553)
(0.566026 0.000684282 -0.000541118)
(0.564323 -0.000282734 -0.000764943)
(0.408228 0.140463 0.0741649)
(0.199829 -0.199498 -0.000276268)
(0.565004 -7.71264e-05 0.00141648)
(0.558866 -0.00166321 -0.00335089)
(0.562625 -0.000222998 -0.000462687)
(0.563387 -0.00020324 -0.000569)
(0.56489 -0.00146217 -0.000574925)
(0.560474 -0.000879435 0.00253709)
(0.564719 0.000669169 -0.000369256)
(0.19969 0.1989 -0.0010774)
(0.564533 -1.17802e-06 0.00142965)
(0.562614 0.00141954 5.28828e-05)
(0.561025 -0.00189918 0.000310739)
(0.567409 0.00200227 -0.0012108)
(0.564359 -0.000822081 0.000459086)
(0.564153 -0.000753973 0.000525658)
(0.564877 -0.000165865 -0.00062533)
(0.408547 0.0852058 0.0069154)
(0.56556 -0.0011586 -0.000397783)
(0.565791 0.000180876 0.000167455)
(0.564846 -0.000550869 -0.000382209)
(0.212427 0.17412 0.00213187)
(0.564051 -0.000729471 0.000615821)
(0.563885 -0.000559087 0.000567769)
(0.576282 -0.00261832 -0.00279349)
(0.565854 -0.00127547 0.000870119)
(0.201649 -0.200551 0.00150046)
(0.541372 0.00555829 0.00261371)
(0.201473 -0.198009 -0.00410922)
(0.565348 0.000788272 -0.000813225)
(0.560924 6.59057e-05 0.00130947)
(0.562319 0.00103018 -0.000788595)
(0.56462 0.00106317 -0.000615191)
(0.564652 -0.000457475 -0.000967079)
(0.562956 -0.00177323 0.0014517)
(0.565203 -0.000320173 -0.000447881)
(0.561779 0.00042323 -0.00118916)
(0.56074 0.00261738 -0.000234229)
(0.563607 -0.00104031 0.000859079)
(0.56506 0.00109416 0.000936764)
(0.561903 -0.000451893 0.000531699)
(0.563808 0.000375624 0.000299535)
(0.564009 -0.000722408 0.000102524)
(0.564856 -0.00172367 -0.000615865)
(0.563564 0.000787383 -0.000290235)
(0.55931 0.00327636 0.00103759)
(0.557633 0.00136051 -0.0130432)
(0.562889 -0.0013496 0.000850699)
(0.153944 -0.144394 -0.0221192)
(0.564562 -0.000156583 -0.000122595)
(0.203355 0.206485 0.00217351)
(0.565785 0.000769379 0.000488655)
(0.565206 -0.000643276 0.000419331)
(0.565418 -0.000396811 0.000510413)
(0.563252 0.00198735 0.000454938)
(0.565345 0.000253631 0.00125832)
(0.564869 0.000484015 -8.13958e-05)
(0.559543 -0.000560897 0.00187599)
(0.556222 0.0101547 8.69024e-05)
(0.564465 -0.000132986 0.000701055)
(0.56588 0.000866554 0.000244611)
(0.56445 -9.41477e-05 0.00048367)
(0.562766 0.000327701 0.00217956)
(0.198767 -0.197372 -0.00074244)
(0.562793 -0.0011737 0.000348182)
(0.565412 0.000473104 -1.31981e-05)
(0.56574 -0.00122382 -0.000235493)
(0.560043 -0.000307763 -0.00190983)
(0.565061 -1.89932e-05 -6.51577e-05)
(0.566807 0.000481261 -0.000934341)
(0.584174 0.0236005 0.0229258)
(0.566954 2.20336e-05 -0.000259028)
(0.565366 -0.000180787 -0.000131117)
(0.568143 0.000436359 0.000587342)
(0.564888 -0.00125227 3.20053e-06)
(0.56553 0.00205749 0.000969612)
(0.565155 -0.000644062 0.000528321)
(0.565094 0.00139149 4.68591e-05)
(0.56453 9.3235e-05 7.18502e-05)
(0.594374 0.0135113 0.00930116)
(0.200404 0.196578 -0.000966943)
(0.564216 -0.000936867 0.00101519)
(0.565992 -0.000393904 0.000118279)
(0.564983 -0.000335116 0.000119485)
(0.564187 0.000938151 0.000692932)
(0.565083 -0.000235608 0.000149556)
(0.564973 0.001747 0.00143234)
(0.562866 0.000608711 -0.000989388)
(0.561146 0.00146723 0.00301739)
(0.563879 1.95747e-06 0.00105401)
(0.562874 -0.00049734 0.000329491)
(0.561699 -0.00210527 -0.000361658)
(0.566241 -0.000600087 7.17819e-05)
(0.197424 -0.197883 0.00334503)
(0.564137 0.00104699 0.000211247)
(0.566033 -7.14391e-05 0.0033473)
(0.582821 0.00451284 0.0157106)
(0.591449 -0.00701809 0.0120643)
(0.563666 -0.00159012 0.0012784)
(0.566633 -0.00092199 0.00159281)
(0.564353 0.0014908 0.0040373)
(0.564172 -0.000552177 0.00015166)
(0.564323 0.00181431 0.00138092)
(0.199819 -0.193304 0.00489759)
(0.56643 -0.00284557 0.000204804)
(0.565757 0.000979449 0.000705511)
(0.564097 0.00251712 0.00113627)
(0.56144 -0.000231689 0.000349977)
(0.561122 -0.00149897 -0.000592532)
(0.565539 0.00155683 0.000286122)
(0.208932 -0.112362 -0.00199622)
(0.199297 0.200078 0.00109511)
(0.560583 0.000112596 -0.000552616)
(0.563208 0.00174335 -3.32827e-05)
(0.560709 -0.00130238 0.00389599)
(0.566516 0.000709502 0.000392285)
(0.565428 -0.000268994 -0.000561746)
(0.197763 -0.200505 -0.00212975)
(0.565035 -0.00142397 -8.57939e-07)
(0.565317 0.00107502 0.000525096)
(0.56518 -0.00113213 -0.000301233)
(0.564333 0.001145 -0.000186636)
(0.542027 -0.121556 0.0757858)
(0.565636 0.00128761 0.000153983)
(0.56353 -0.00175461 -0.00116796)
(0.561122 8.41306e-05 0.001976)
(0.563762 -0.00146005 -0.0034548)
(0.565466 -0.00262073 0.00256136)
(0.564895 -0.000819539 -0.000144882)
(0.200646 -0.198524 0.000738472)
(0.196366 -0.195597 -8.27673e-05)
(0.563702 0.000643253 0.000900502)
(0.565823 -0.000483173 0.001269)
(0.564468 0.000952275 0.00032842)
(0.566552 -0.000981461 0.000577076)
(0.564184 0.000906083 -0.00140502)
(0.56547 0.000439641 -0.000880541)
(0.299093 -0.210052 -0.0181148)
(0.560642 -0.000176379 -0.000549872)
(0.564968 0.00251842 0.00313867)
(0.586162 0.0109986 0.00014915)
(0.569025 0.00118923 0.000714137)
(0.564802 -0.000970913 0.000587292)
(0.567295 -0.00139592 0.000588687)
(0.570871 -0.00106819 0.00123303)
(0.563767 -0.00157502 0.000690239)
(0.565511 0.00125341 4.38995e-05)
(0.566104 0.00126887 -0.000359769)
(0.563563 -0.000898432 0.00057398)
(0.564448 -0.000608211 0.00364446)
(0.564621 0.00134226 0.000947609)
(0.199429 0.199943 -0.000281958)
(0.197604 0.199163 0.00144401)
(0.564406 -0.000229785 0.000314573)
(0.564671 0.00119302 0.000658222)
(0.565056 0.000581809 0.000620868)
(0.567218 -0.000779028 -0.0010049)
(0.564724 -0.000671642 -0.000312991)
(0.563424 -0.000680784 7.60932e-05)
(0.56555 0.00114642 0.00037563)
(0.56293 0.00171444 0.000893527)
(0.564004 -0.00136321 0.000505338)
(0.56674 0.00111877 0.000100467)
(0.199378 0.201196 0.00212459)
(0.561328 -0.00219842 0.000932416)
(0.564205 0.00167865 -0.000722425)
(0.202857 0.202756 -3.6813e-05)
(0.566036 0.000929701 0.00138219)
(0.195223 0.197038 -0.00210359)
(0.566454 0.00295388 -0.00221547)
(0.563689 0.00368319 -0.00324058)
(0.594893 -0.00847755 0.0185663)
(0.563669 0.000196759 0.00103624)
(0.19961 -0.198962 -0.000744298)
(0.601273 -0.0102569 0.0172146)
(0.564407 -0.000865991 -0.00057669)
(0.562355 0.000547482 -0.0010702)
(0.566009 0.000136318 0.0017847)
(0.564242 0.00126502 -0.000751405)
(0.200316 0.197098 -0.00163098)
(0.562472 -0.000126703 -0.000874646)
(0.56455 -0.0008562 0.00146784)
(0.563093 -0.00016341 0.000340203)
(0.584739 -0.0110352 0.0171626)
(0.199784 -0.201587 0.000766204)
(0.56384 0.000456581 0.000685168)
(0.563839 -0.000406351 -0.000177394)
(0.565443 0.000985021 0.00177238)
(0.565817 -0.00172419 -0.00204809)
(0.564417 0.000310741 -0.00041176)
(0.562449 0.000824044 0.00166053)
(0.567094 0.00144614 0.0010135)
(0.565583 -0.000822471 0.00122399)
(0.565867 4.29984e-05 0.000245272)
(0.566413 0.00181754 -0.00258224)
(0.565702 0.0015556 0.000151585)
(0.566748 0.000325261 0.000156229)
(0.562051 -0.000372843 0.000756241)
(0.564695 0.000982311 -0.00106861)
(0.565448 -0.000407856 -0.000304077)
(0.5652 0.000275246 -0.000567077)
(0.563972 -0.000756414 0.00103539)
(0.56552 0.00286313 -0.000147001)
(0.199506 -0.199248 -0.000119928)
(0.589315 0.00155983 0.00581849)
(0.564864 2.5048e-05 0.000427176)
(0.557238 0.0053088 -0.00306294)
(0.565182 0.00153488 0.000447106)
(0.564294 0.000190409 0.000848699)
(0.199405 -0.199493 0.000420416)
(0.565991 0.000862174 -0.000635593)
(0.561604 -0.000827816 -0.00120466)
(0.200153 -0.192145 -0.000247559)
(0.565754 -0.000211066 0.000460798)
(0.197642 0.198968 -0.00143815)
(0.196355 0.201174 0.000505702)
(0.565993 -0.001164 0.000551962)
(0.562726 1.47319e-05 -0.000311252)
(0.565649 -0.000812073 0.00021735)
(0.493174 -0.00482768 0.00440631)
(0.565987 -0.000360956 0.000681663)
(0.197124 0.200089 0.00127743)
(0.56249 -0.000418716 -0.00116865)
(0.196761 0.199403 0.000395133)
(0.563012 -0.000524175 0.000643136)
(0.201546 -0.20094 -0.000105604)
(0.565699 -0.000802393 0.000291088)
(0.564286 0.000684381 0.000498189)
(0.199519 0.19898 -0.00103443)
(0.197724 -0.198334 0.000590419)
(0.200996 0.1982 -0.00299263)
(0.563225 -0.000566374 8.56367e-05)
(0.5692 0.000764251 5.37235e-05)
(0.560649 0.00151351 -0.000909669)
(0.567434 0.000504873 -0.00145893)
(0.281098 0.140865 -0.00660753)
(0.564898 6.19178e-06 0.000770144)
(0.19907 0.199746 6.80132e-05)
(0.200992 0.198555 0.000695137)
(0.568261 0.00221999 0.000678035)
(0.562615 -0.00105859 -0.000787396)
(0.198387 -0.196902 0.000903872)
(0.562492 0.00211696 -0.000406123)
(0.563009 -0.000232518 -0.000397196)
(0.38093 -0.147654 0.0161678)
(0.563213 0.000788302 0.000159862)
(0.54324 0.0102361 -0.0075784)
(0.562247 0.00383684 0.00088883)
(0.56288 0.000238355 -0.00331263)
(0.564355 -0.00146834 0.000485262)
(0.566175 0.000310094 -0.000339461)
(0.566244 8.8251e-05 0.000154689)
(0.565048 -0.000482457 -0.00105859)
(0.564513 -0.000856138 -2.94622e-05)
(0.55608 -0.00288054 -0.000814551)
(0.562319 0.00315235 -0.000744676)
(0.564497 0.000444479 -0.000867411)
(0.564865 -0.00047478 -0.000454909)
(0.565167 8.87625e-05 -0.000675026)
(0.563713 7.89174e-06 -0.00139616)
(0.563866 -0.000251845 0.000533789)
(0.199714 -0.199585 -9.89236e-05)
(0.564268 0.000531272 -0.00174147)
(0.198712 -0.199166 0.000195217)
(0.56607 0.0003345 -0.00028575)
(0.56428 -6.60333e-05 -0.00059867)
(0.565395 -0.00101154 -2.46034e-05)
(0.568276 -0.0282187 0.0130569)
(0.560892 0.00110425 -0.000840663)
(0.562716 0.000647243 0.000316258)
(0.561427 -0.000226322 8.43893e-05)
(0.562467 0.00100295 2.25951e-05)
(0.566958 0.000759136 0.00334556)
(0.588362 0.0137555 0.0121463)
(0.565046 0.00133975 0.000344441)
(0.564935 -0.000267198 0.00100714)
(0.202378 -0.202206 0.000998107)
(0.56142 -3.78117e-05 -0.00072371)
(0.56163 -0.00239448 -0.000202688)
(0.200205 0.201749 0.000671046)
(0.565243 -0.00271252 6.75102e-05)
(0.574167 0.0170826 0.00749665)
(0.573774 -0.00435619 0.00743325)
(0.562174 -0.000935557 -0.00133328)
(0.564067 -0.000408819 0.00119868)
(0.197296 -0.200538 -0.00182964)
(0.204498 -0.201576 -0.000454068)
(0.576293 0.00347133 -0.00238179)
(0.563818 -0.000966992 -0.0012632)
(0.561344 -0.00240256 -0.0036896)
(0.202967 0.200391 -0.00178268)
(0.568939 -0.000883915 -0.00368549)
(0.201137 -0.19954 0.00119808)
(0.563507 1.27384e-05 -0.00172973)
(0.565814 -0.000508471 -0.00134965)
(0.555986 0.00141462 0.000231642)
(0.562494 0.000593524 -0.000906354)
(0.200725 0.201712 0.00148601)
(0.565038 -0.00129529 0.000390274)
(0.564677 -9.84691e-05 0.000839137)
(0.562987 -0.000443317 -0.00230063)
(0.565107 -0.00100242 1.59785e-05)
(0.565648 0.00107072 -0.000632145)
(0.563363 1.44801e-05 -0.00165863)
(0.565085 0.00203054 0.000484219)
(0.563589 -0.000728997 -0.000450727)
(0.564213 -0.000631039 -0.000450241)
(0.199877 -0.19944 0.000485341)
(0.563843 0.00117796 0.000278077)
(0.563238 -0.000142354 0.00120468)
(0.564743 0.000702269 -0.00127327)
(0.565285 -0.000717123 0.000610138)
(0.564774 0.000283361 0.000105729)
(0.56434 0.000362647 -0.00156495)
(0.200407 -0.199559 -0.00067769)
(0.56399 0.0044194 0.00132133)
(0.563412 0.00666096 0.00627431)
(0.565935 -0.0013925 -0.00112275)
(0.565441 0.000978941 -0.000797396)
(0.564459 0.000325023 -0.000117535)
(0.55869 -0.00569345 0.00022103)
(0.200362 0.19785 -0.00173489)
(0.198957 0.200247 0.00121652)
(0.200171 0.199941 -0.00102549)
(0.565987 0.00224244 0.00205496)
(0.559036 -0.00348251 -0.00833952)
(0.560081 0.000454194 -0.00158447)
(0.561732 0.000452138 0.00055943)
(0.564141 -0.0035047 0.000659878)
(0.560253 0.00107261 0.000408701)
(0.565041 -0.000547819 0.000961323)
(0.564301 -0.000290056 0.000164618)
(0.563767 0.000114859 0.000277535)
(0.202044 0.197893 0.000357261)
(0.565585 0.00156917 0.000833106)
(0.56353 -0.000674848 -0.000619725)
(0.562418 0.000236778 0.000314284)
(0.563292 -0.000260372 0.00024122)
(0.565517 0.000167656 -0.000447874)
(0.564892 -8.45105e-05 0.000391796)
(0.56581 6.59334e-05 -8.77568e-05)
(0.581844 -0.00038247 0.00282978)
(0.565951 -0.000845611 -0.000293756)
(0.562228 -0.00119772 -0.00186811)
(0.565252 0.00010267 -0.00021194)
(0.561973 0.000309953 0.000818285)
(0.561397 2.00623e-05 -1.56782e-05)
(0.558407 0.00266116 0.00181561)
(0.5663 7.53939e-06 -3.98013e-05)
(0.197932 0.196627 -2.93656e-05)
(0.200012 0.199305 3.88378e-05)
(0.563244 -0.00144834 -0.000716679)
(0.565769 0.000967168 0.000695995)
(0.564622 -0.000471033 0.00101946)
(0.199411 0.200617 -0.000482742)
(0.199838 -0.19889 -0.000453161)
(0.564341 -0.00169738 -0.000591482)
(0.200394 -0.199889 -9.65629e-05)
(0.565149 -0.000976901 0.000750258)
(0.566582 -0.000147789 0.000102242)
(0.564699 -0.000601905 0.000842786)
(0.565444 0.000304254 -0.00103224)
(0.563175 -0.00485533 -0.00198926)
(0.197982 0.200083 0.00146295)
(0.566834 -0.00139445 -0.000490314)
(0.565205 -0.00128891 0.000578072)
(0.201233 0.200564 0.000278407)
(0.565146 -0.00032834 0.00113248)
(0.197413 0.199891 0.000967497)
(0.197347 0.196235 3.39174e-05)
(0.566304 -8.05834e-05 -0.000716329)
(0.563913 0.000974479 -0.000847737)
(0.565201 -0.000933393 0.000816275)
(0.198489 0.197768 -0.00103259)
(0.19946 0.201291 0.000790359)
(0.502169 0.00350776 -0.0018939)
(0.565107 -0.000229709 0.00173454)
(0.564046 0.000338616 -0.000592138)
(0.566139 -0.00112604 -0.00160781)
(0.566522 0.000958604 -0.00175459)
(0.564419 0.00131801 -0.000586512)
(0.564664 0.0199226 -0.014847)
(0.199758 -0.200303 -0.00022681)
(0.564856 -0.00116573 -0.000248963)
(0.561317 -0.000326517 0.000518528)
(0.199354 0.198984 -0.000456208)
(0.200336 0.198685 -0.00026883)
(0.56619 -0.000181525 -0.000925238)
(0.563376 -0.0011214 0.000248979)
(0.198831 -0.198424 0.00122122)
(0.56635 0.000606354 -0.000508881)
(0.563771 -0.000337604 -0.00103396)
(0.564558 -0.00025064 -0.00099467)
(0.59256 0.0427581 -0.0158882)
(0.564245 0.000213164 0.00179382)
(0.566144 0.000364545 -0.000838455)
(0.56159 0.0234398 -0.0015635)
(0.638478 0.129583 -0.0589418)
(0.566054 9.39728e-05 -0.000920941)
(0.254385 0.161479 -0.00561712)
(0.563669 0.000177609 6.42815e-05)
(0.199896 -0.198146 -0.000650465)
(0.56046 -0.000438262 -0.000542567)
(0.202359 -0.199531 0.000630954)
(0.565888 0.00178466 0.00066285)
(0.564899 0.00100836 -0.000161458)
(0.1986 0.200238 0.000808324)
(0.563426 0.00104354 0.00148493)
(0.56494 -0.000122847 -0.000638142)
(0.56633 -6.54661e-05 0.000250286)
(0.20173 0.201505 0.00243589)
(0.199755 -0.199842 -0.000190042)
(0.561855 -0.000437029 -2.44693e-05)
(0.161557 0.115485 0.0426003)
(0.566399 -0.00137949 -0.000955973)
(0.199982 -0.199822 0.000305709)
(0.583567 -8.94195e-05 0.00467379)
(0.563458 0.00029865 1.42604e-05)
(0.565172 0.000109046 -0.000458649)
(0.199326 -0.197953 -0.000600041)
(0.565459 -0.000284473 7.87954e-05)
(0.565207 -0.00153 0.000364137)
(0.206488 0.195232 -0.00359219)
(0.566545 0.000611859 9.12493e-05)
(0.565127 0.000151824 -0.000410273)
(0.566431 -0.000878166 -0.00121354)
(0.56434 0.000150998 -0.000411205)
(0.565554 -3.91584e-05 -0.000662269)
(0.566965 -4.35888e-05 -0.000250197)
(0.198904 -0.20175 0.000520352)
(0.192471 0.193526 0.000582451)
(0.561174 0.000450242 0.000843248)
(0.562004 0.000610446 0.00177423)
(0.563759 -0.000399522 -0.000962495)
(0.566231 0.00106415 0.000673031)
(0.198783 0.197592 -0.000634949)
(0.563702 -0.000553716 -0.000867814)
(0.564191 -0.000377324 -0.000991838)
(0.564191 -0.000657475 -0.000642535)
(0.564742 0.000649585 -0.000108177)
(0.566354 3.68514e-05 0.00085093)
(0.562028 0.000770767 0.00114409)
(0.564341 -0.00012994 -0.000765814)
(0.564166 0.000103236 -0.00071978)
(0.199469 0.197823 -0.000431169)
(0.559674 -0.000159028 -0.00146968)
(0.224365 -0.19137 -0.00581083)
(0.554118 -0.00334143 0.00017377)
(0.196241 0.191718 -0.00172044)
(0.197969 0.198764 -0.000488293)
(0.565958 -0.00116582 0.000135611)
(0.56881 0.000283094 0.00138785)
(0.199817 0.200159 -0.000804874)
(0.558967 -0.000852573 -0.000905242)
(0.563517 -0.00159844 -0.00193574)
(0.566611 -0.00109938 -0.000243526)
(0.56482 -0.000445203 -0.000732396)
(0.199274 0.198949 0.000793163)
(0.56825 0.000595694 0.00148012)
(0.563043 -0.000399288 0.000111084)
(0.563263 -0.00014075 0.000175473)
(0.564778 0.000631229 -0.000160053)
(0.563361 0.000377332 0.000375528)
(0.564021 0.000517297 -0.000943615)
(0.563252 0.000907755 0.000390251)
(0.562146 0.000103791 -0.00170555)
(0.56298 0.000438946 0.000268299)
(0.564095 0.000706297 -0.000869989)
(0.156906 0.0536661 -0.0705497)
(0.562742 8.5174e-05 2.88131e-05)
(0.200107 0.199339 -0.00042033)
(0.564952 0.000517757 -0.000384921)
(0.564854 -8.83443e-05 -0.000877469)
(0.561421 0.00243948 -0.000288355)
(0.56028 -0.00209493 0.00443908)
(0.563884 -0.000309656 0.000920733)
(0.564645 -0.000733295 -0.000816416)
(0.565179 -0.000138028 -0.000888259)
(0.565619 -0.000152944 0.000262949)
(0.565527 -0.000636005 -0.000410418)
(0.564692 -0.0015413 7.98031e-05)
(0.198614 0.200179 -0.00351705)
(0.566218 0.00126695 0.000825145)
(0.566138 0.000277031 0.000682367)
(0.566431 0.00253809 0.000753068)
(0.56651 0.000142396 -7.61174e-05)
(0.567268 -0.000772768 -0.000432068)
(0.562788 0.000209105 0.000151729)
(0.557714 0.00681651 -0.00147959)
(0.566597 0.00106489 5.07872e-05)
(0.560585 0.000961288 -0.000692396)
(0.563588 -0.000460898 0.000107062)
(0.198843 0.199069 0.00157809)
(0.200529 -0.197005 -0.00134539)
(0.563402 -0.000141128 0.00162736)
(0.565283 0.0011589 0.000935198)
(0.562894 -0.00103572 -0.000461705)
(0.560476 -0.000453231 -0.00296725)
(0.563596 -0.000266796 -0.000528692)
(0.199232 0.199746 -0.000260152)
(0.199006 0.199067 -0.00178312)
(0.564515 -0.000720316 -0.0003585)
(0.563513 -0.000885411 0.00028429)
(0.56577 0.000157679 0.00138743)
(0.569984 0.000446879 0.000891884)
(0.564003 -0.000742056 -0.000976469)
(0.564784 0.000429454 -0.000797478)
(0.222842 -0.157192 -0.0152842)
(0.564181 0.000293562 -0.000237427)
(0.564074 -0.000592167 0.000188905)
(0.56151 -0.000953442 -0.000789466)
(0.562084 -0.000694305 -0.00244555)
(0.565568 0.000185806 -0.00113897)
(0.542504 0.00527071 -0.0130395)
(0.551469 0.00850234 -0.00722994)
(0.569661 0.000503366 -0.000134877)
(0.564587 0.00165532 -0.00129909)
(0.562914 0.0016006 -0.00320983)
(0.5604 0.000171763 0.000700951)
(0.563308 0.000186994 -0.00014474)
(0.200217 0.201394 -0.000114376)
(0.560032 0.00182006 -0.00277685)
(0.566373 0.00167677 -8.17941e-06)
(0.55411 -0.00271692 -0.00662568)
(0.56458 -0.00038638 -0.00106002)
(0.565364 0.000258138 -0.000383035)
(0.199586 0.197538 -0.000846534)
(0.564837 -0.00252033 0.00562543)
(0.563881 -0.000470763 -0.000685138)
(0.565443 0.00115174 -0.000823598)
(0.563067 0.000845799 0.000697658)
(0.557226 -0.000627769 -0.00238764)
(0.199365 0.205196 -0.00178556)
(0.197728 0.195567 -0.00115371)
(0.565521 -0.000286278 -0.000488185)
(0.564798 0.000295036 -0.000732159)
(0.563912 -0.000132471 -0.000578904)
(0.566824 0.0029993 0.000350821)
(0.564238 -1.36287e-06 0.000189167)
(0.566335 -0.000722786 -0.000591712)
(0.561199 -0.00112264 0.000183492)
(0.564672 -0.00012873 -0.000862605)
(0.565514 -0.00022175 -0.00163481)
(0.562587 0.000608624 -0.000958518)
(0.561622 -0.00118479 0.000510936)
(0.564485 0.000569738 -0.00162993)
(0.566136 -0.00130284 -0.000750917)
(0.563778 -0.000434283 0.000281774)
(0.200085 0.20092 -0.000667954)
(0.565447 0.000507227 0.00033976)
(0.200148 0.200175 -0.000607943)
(0.200189 0.201899 2.05133e-05)
(0.560544 0.00162481 -0.00341506)
(0.565581 0.000861244 -0.000103435)
(0.56365 0.000264606 0.000823922)
(0.20132 -0.202123 0.00128223)
(0.563101 -5.38301e-05 -0.000513278)
(0.563664 0.00130768 -0.00178906)
(0.56614 5.76787e-05 -0.00123682)
(0.199021 0.20119 -0.0010477)
(0.564701 0.000647938 -0.000231615)
(0.197098 0.198801 -0.000601857)
(0.564002 -0.000534309 0.00202688)
(0.199935 0.198429 -0.000389798)
(0.562576 -0.000235165 0.000596244)
(0.565092 -0.00117296 0.000234175)
(0.565017 -0.000129317 0.000356616)
(0.564858 0.000339347 -0.000629572)
(0.199928 -0.199369 0.00102961)
(0.202171 0.200633 -0.000376513)
(0.56337 0.000581646 -0.00115213)
(0.563648 0.000831843 0.000163032)
(0.56548 0.000340397 -0.00110334)
(0.570044 0.000470319 0.000568567)
(0.565925 -0.000189908 -0.000230178)
(0.565415 0.00111071 -0.00177383)
(0.563902 0.000877985 -6.3954e-05)
(0.200432 0.199016 0.0010107)
(0.567283 0.0011715 -0.000609389)
(0.565549 -0.000878067 -0.000916965)
(0.543951 0.0640188 -0.0390917)
(0.199711 0.197443 0.000963251)
(0.561633 9.83415e-05 -0.00143742)
(0.561481 -5.68871e-05 -0.000654452)
(0.199255 0.198227 0.00167841)
(0.564916 0.000198817 -0.000241931)
(0.567411 -9.7037e-05 -4.25445e-05)
(0.198606 -0.199152 -0.000504827)
(0.564811 -0.00119391 0.000248013)
(0.597187 0.0105091 0.000648556)
(0.564244 -0.00156166 -0.000771659)
(0.563451 -0.00115882 0.00163957)
(0.579385 0.00366281 0.0278362)
(0.563348 0.000565622 -0.0013034)
(0.56464 -0.00012499 -0.00026767)
(0.56253 0.00122164 -0.00112119)
(0.563974 -9.9283e-05 0.000155065)
(0.569077 -0.0244878 0.0259881)
(0.562059 0.000658891 2.40374e-05)
(0.564635 -0.000957978 -0.000775649)
(0.5641 -0.000284028 -0.00046399)
(0.561931 0.00201007 -0.0014921)
(0.566132 -0.00016457 -0.00194103)
(0.564199 -0.00126396 0.00153906)
(0.198475 0.198876 0.00089188)
(0.564598 0.00103913 0.000515053)
(0.565077 -0.00152642 -0.000209044)
(0.590824 0.00761351 0.0100621)
(0.19715 -0.197846 0.000321981)
(0.564756 -0.00138709 0.000895822)
(0.563944 0.000156705 -0.000971132)
(0.196117 0.193004 0.0018125)
(0.565456 0.000424323 -0.000625053)
(0.562582 -0.00126288 0.000193832)
(0.565141 0.000600015 0.000147908)
(0.563458 0.00141011 0.000156774)
(0.563895 -0.00096487 -0.000439184)
(0.563939 -0.000783416 -0.000193077)
(0.199487 0.199263 -0.000320771)
(0.56236 -0.000708587 -0.00171288)
(0.56511 0.000442476 -0.00105803)
(0.198507 0.198527 -0.000601003)
(0.20121 0.200394 0.00171698)
(0.566063 0.000789825 8.1111e-05)
(0.198608 0.199716 0.000427195)
(0.565401 -0.000658158 0.000765797)
(0.563392 -0.00410218 -0.000624303)
(0.565757 0.000778672 -0.000764857)
(0.562195 -0.00102388 -0.00213952)
(0.562535 -0.000452574 -0.0024123)
(0.285464 -0.0201472 0.0420914)
(0.199127 0.198992 0.00101685)
(0.567276 0.000329998 -0.000219559)
(0.566532 0.00108657 0.000602295)
(0.562424 0.000591329 -0.000224712)
(0.561982 0.00195338 0.00113155)
(0.562583 -0.000269127 -0.00102497)
(0.195912 0.19941 -0.00109994)
(0.561974 -9.11647e-05 0.000649103)
(0.564388 0.00096086 -0.000439948)
(0.558416 0.00156191 0.00403786)
(0.564894 -0.000317002 0.00056324)
(0.564051 0.000695106 -6.53503e-05)
(0.556317 0.0175007 -0.0178746)
(0.564687 -0.00171466 0.000452679)
(0.549199 0.00302737 -0.0071558)
(0.199724 0.193635 -0.00157611)
(0.199529 0.200215 -2.00383e-05)
(0.198628 0.199516 -0.000110695)
(0.565318 0.00106468 0.00134056)
(0.564891 -7.25758e-05 0.000976295)
(0.199531 0.200697 -0.000674181)
(0.56598 0.00096677 0.00186963)
(0.559527 0.00363677 0.00240418)
(0.564357 -0.000958119 -0.00181892)
(0.503538 0.0698237 -0.0424857)
(0.56157 -6.37715e-05 -0.000509628)
(0.566055 -2.68517e-06 0.00010483)
(0.197701 0.202746 0.000687994)
(0.559126 0.013022 -0.0207259)
(0.199121 0.200374 0.00132261)
(0.200065 0.196037 0.000203763)
(0.567304 0.000524299 0.00161106)
(0.317417 0.243888 0.0375929)
(0.295998 -0.125689 -0.00521497)
(0.563065 -0.000387541 3.85802e-05)
(0.196138 -0.198489 7.1165e-05)
(0.567625 0.00111066 0.00112842)
(0.560576 -0.0026678 -0.00407519)
(0.571022 0.0179796 -0.0137996)
(0.566218 0.000587323 0.00116753)
(0.576988 0.0119323 -0.0039159)
(0.564032 0.000710925 -0.000335843)
(0.572004 -0.0384142 -0.0103386)
(0.200175 0.202869 -7.46676e-06)
(0.195163 0.196461 -0.000323644)
(0.5631 0.000132964 0.00154713)
(0.566181 -0.000527656 0.00130136)
(0.564414 0.000979669 -4.7351e-05)
(0.194935 0.198441 -0.000836418)
(0.563279 0.00137947 -0.000821526)
(0.561679 -0.000138903 0.000368995)
(0.56389 -0.000107023 -0.000280369)
(0.201498 0.201857 0.00188696)
(0.563175 0.00071766 8.33228e-05)
(0.564126 -0.000281197 -0.000103965)
(0.513621 0.0573862 0.0354515)
(0.197838 0.198141 0.0012279)
(0.645919 0.172553 -0.00683062)
(0.52313 0.0733681 -0.054162)
(0.19929 -0.199707 0.000361018)
(0.200569 0.200436 -0.000347433)
(0.198196 0.19955 0.000249284)
(0.200893 0.201237 7.61514e-05)
(0.20035 0.200567 -0.000361417)
(0.56581 0.000164438 -0.00039366)
(0.563784 -0.000653792 0.000180314)
(0.568723 0.00109558 0.001564)
(0.202017 0.198444 0.00181087)
(0.56212 -0.000852958 0.000186207)
(0.566366 0.000337404 0.000635764)
(0.20425 0.198213 0.00223231)
(0.579016 -0.00291053 0.0095871)
(0.196219 0.198627 -0.000828953)
(0.565182 -0.000135215 -0.000202498)
(0.201987 0.199113 0.000689556)
(0.562027 -0.000619298 -0.000826373)