/*--------------------------------*- C++ -*----------------------------------*\
  =========                 |
  \\      /  F ield         | OpenFOAM: The Open Source CFD Toolbox
   \\    /   O peration     | Website:  https://openfoam.org
    \\  /    A nd           | Version:  10
     \\/     M anipulation  |
\*---------------------------------------------------------------------------*/
FoamFile
{
    format      ascii;
    class       surfaceScalarField;
    location    "65";
    object      phi;
}
// * * * * * * * * * * * * * * * * * * * * * * * * * * * * * * * * * * * * * //

dimensions      [0 3 -1 0 0 0 0];

internalField   nonuniform List<scalar> 
109758
(
-3.22421e-06
0.0012199
-0.00121668
-0.00125268
0.00128852
-3.58407e-05
0.000104111
-0.00114988
0.00104577
-0.00144
8.78749e-05
0.00135212
0.00146231
-0.000168305
-0.00125774
-3.62585e-05
-0.000405293
0.000396326
8.96731e-06
-0.00110845
-6.47844e-06
0.00111492
0.00202382
-0.000255912
-0.000384879
-0.00138303
-2.37278e-05
0.000849319
1.44625e-05
-0.000840054
0.000466459
-7.22187e-05
0.000596541
-0.000990781
-3.94273e-06
0.00058648
-0.000582537
0.00187436
-0.00152688
-0.00143887
0.00109139
0.000320907
0.00125913
-0.0014378
-0.000142235
0.00118865
-0.00121937
3.07257e-05
-0.000973954
0.00110817
0.00132809
0.000691415
-0.000946083
-0.000684503
0.000939171
0.000819591
-0.00157362
0.00140327
-0.000649233
0.0014843
0.000242365
-0.00110139
-0.000625274
0.00150006
0.000227954
-0.00121147
-0.000516551
-0.00144003
0.000171263
-0.000108859
0.00137762
0.000216066
-0.000290465
7.4399e-05
-2.64026e-05
-0.00119633
0.00028567
0.000937061
-0.000275494
0.000847434
-0.00057194
0.000251248
-0.000301532
0.00102946
0.0011622
0.00042021
-0.000405522
-0.00117689
1.77055e-05
0.000563465
0.000903125
0.0012414
0.00151639
-0.00194186
-0.00081593
-0.0010912
0.00108139
9.80822e-06
3.43788e-05
0.00112782
0.00149192
-0.00102643
0.000795211
-0.00126071
-0.00146094
0.00152969
-8.43015e-05
1.55549e-05
-4.99192e-05
0.000604483
-0.000554564
-1.46085e-05
0.000898729
-3.47081e-05
-0.000849412
-0.00082726
0.000824114
3.14693e-06
-0.000123839
-0.00131752
0.00110497
0.000336394
-0.00115981
0.00212098
-0.000718807
0.000577946
0.000169922
-0.000747868
0.000198038
0.00103977
-0.00147417
0.000236365
-0.000252273
-0.00111668
8.16209e-06
0.00136079
0.00114048
5.14783e-06
-0.00114563
0.00167383
-0.00110249
0.000734912
-0.00130625
-0.000392233
-0.000504918
0.000676484
0.000220668
-3.41693e-05
3.3316e-05
0.00167468
-0.0014472
0.00142462
1.32328e-05
9.34871e-06
0.000796995
-0.000798021
1.02579e-06
0.000330628
-0.00214984
-0.000329156
0.00214837
0.000997939
-0.000282629
-0.000251218
-0.000464093
-0.00111255
0.00138815
-0.000195404
-8.01919e-05
1.65593e-05
0.00102434
-0.0010409
-0.00224762
0.000142318
0.000187779
0.00191752
0.00107968
-0.000522354
0.000520002
-0.00107733
0.000398925
0.00061672
1.43437e-05
0.00140048
-0.00141482
-0.00105835
0.00106189
-3.54455e-06
-0.00121992
0.0012543
-0.000329723
-0.00175407
-0.000430748
0.00251454
-0.00228282
0.00318366
-0.000667433
-0.000233401
-0.00111417
0.000983043
0.00117054
-0.00103942
-0.00180371
0.00070847
-5.92364e-05
0.00115448
-0.000718928
0.000264473
0.000646385
-0.000191929
-0.00149364
0.00142215
7.14877e-05
-0.00323423
0.000189514
0.00163172
0.00141299
-0.000314156
0.00130137
-0.00124958
0.00026237
0.00156927
0.0015135
-0.00189096
-0.00113799
0.00151546
-0.00190108
0.000921707
0.00051473
0.00046464
0.0013926
-0.00153986
-0.000857905
0.00100516
-0.00147635
9.85696e-05
0.000349149
0.00102863
-0.00112268
-0.000798877
0.000445213
0.00107496
-7.64985e-05
-9.37194e-05
-0.000904746
0.00100532
-0.000591066
0.000373317
-0.000787571
0.00141974
5.18463e-05
0.000602383
-0.00207397
-0.000520867
0.000192307
0.00032856
-0.0021184
0.00134679
0.00158238
-0.000810772
0.000803011
-0.000759559
-4.34515e-05
-0.000627433
0.000201279
-0.00169224
0.000106486
-0.000881199
-0.000283633
-0.000270536
5.59933e-05
-0.000860632
0.00107518
0.00174248
-0.00158309
-0.000333491
0.000174101
-0.0017048
0.00153669
-0.00105181
0.0011982
-0.000810975
-0.00100332
0.000616096
-0.000650735
0.00269958
-0.00135002
-0.000698821
-0.000152336
8.23688e-05
0.00152942
-0.00145945
3.63955e-05
0.00216824
0.000227611
-0.00243225
0.00086647
-0.00157368
-0.000131691
0.000838899
0.00123806
-0.00023315
-0.00089842
0.000128781
0.000991271
-0.00135853
0.000238476
0.000543387
0.00204821
0.000129553
-0.00272115
0.000961807
-0.00113401
0.000180333
-8.12645e-06
0.00065517
0.000735447
-0.00276359
0.00137297
0.000933336
-0.000103682
6.16193e-05
-0.000891273
0.00199179
-0.00149349
-0.00296907
0.00247077
0.00169132
-0.00190471
0.000844955
-0.000631557
2.06014e-05
-0.00159273
0.00146395
0.000108176
0.00164641
-0.00115281
-0.000363109
-0.000130488
0.000889515
2.08708e-05
-0.000910386
-0.00170026
0.000294161
0.00118689
0.000219212
0.001115
0.000743618
0.000571253
-0.00242987
0.000918932
-0.00165739
0.00114788
0.00249095
-0.00144436
-0.00219448
0.000917271
1.66059e-06
-0.000367445
0.00119343
0.00119917
-0.00202516
0.00105166
0.000300454
-0.000148994
-0.00120312
8.13469e-05
0.000922147
-0.00100349
0.00141391
-0.000116753
5.53263e-05
-0.00135248
-0.00057788
-1.89457e-06
0.000579775
-0.00132411
0.00102149
-0.000798762
-0.000237711
0.00179641
-0.00188909
0.000330388
0.00043185
-0.000362736
-0.00145274
0.00138363
0.000287593
-0.000293294
-0.000681616
0.000687317
-0.000368714
-0.000989316
0.00123683
0.000121203
0.000447974
-0.00121945
0.00126886
-0.000497382
0.000927756
0.000283677
-9.2777e-06
-0.00054947
-9.8764e-05
0.000657512
0.000179572
0.000352956
-0.00203725
0.00150472
-0.00131195
0.000166441
0.00134823
-0.000202722
0.00097362
0.000158175
9.90393e-05
-0.00123083
0.000205012
0.000768608
0.00143166
0.000288446
-0.00156193
-0.000766608
-0.000873118
0.00130309
0.000336639
0.00135802
0.000183638
0.000199574
-0.00174123
-0.00146802
0.00125523
-0.000411807
0.000624599
0.00134627
0.000290394
-0.00104609
0.00117848
-0.00108773
0.000955333
0.00146318
-0.000211193
-0.00028644
-0.000965546
4.01879e-05
-0.00160662
0.00174202
-0.000175593
-0.00152934
-3.75885e-05
-0.000422808
0.00198974
0.000938757
0.000505931
-0.00148564
4.09465e-05
-0.00101895
9.45131e-05
0.000894841
2.9594e-05
0.000184212
5.68998e-05
-0.00188305
0.00164193
-0.000930532
-6.13861e-06
0.000936671
0.000193161
0.0013321
-0.00134105
-0.00106142
0.00142124
-0.000773865
0.000414041
-0.00121296
-0.000777971
0.00157815
0.000412785
0.00127431
0.000244287
-0.000722686
-0.000795907
-0.0020102
-2.81279e-05
-0.000282991
0.00232132
-0.00129462
-0.000777599
0.000565876
0.00150634
0.00177655
-0.00174072
-0.000112063
7.62308e-05
-0.000263756
-0.000789096
-0.000701217
0.00146082
0.00108166
0.000271148
-0.00281362
0.00211354
0.000267142
-0.00234429
0.000214718
0.00110499
-0.00131971
3.51878e-05
-0.00108863
0.00105344
-0.00103479
-0.000214748
0.000197584
0.00105195
9.21858e-05
0.00134678
-0.00128485
-0.000154113
-0.00221981
-0.000254854
0.000576583
0.00189808
0.00122521
-0.00129639
0.00110861
-0.00103743
0.000159162
0.000143143
0.000922909
-0.000874114
0.000847537
2.65765e-05
-0.000919775
3.02568e-05
0.00133313
-0.000443613
0.000264843
-0.000672127
-0.000493104
0.000900389
0.000674458
-0.000702072
2.76139e-05
-0.000961834
0.000910025
-0.000218727
-5.08457e-05
-0.00101117
-1.05859e-05
0.0010726
0.00171122
-0.000192401
-0.00108587
-0.000432954
-0.000408182
-0.00186735
0.00250691
-0.000231385
-0.00162342
0.000562174
-0.00135662
0.00151467
-0.000158056
-0.000731668
0.000659166
-0.00102721
0.00109971
0.000547786
-0.000670694
-0.000497643
0.000620552
-0.000920547
-0.00126232
0.00100162
0.00118124
5.0327e-05
0.00141135
-0.000139988
-0.00132169
-0.000358604
0.00170979
-0.000286494
-0.0010647
-0.00159265
0.00134675
-9.643e-05
0.000342337
-0.00117001
0.000933196
-0.00100751
0.00124432
0.00121545
6.64927e-06
-0.0012221
-0.00180188
0.000389466
0.00176157
-0.000345149
0.00142196
-0.00107681
8.78633e-05
0.00143507
-0.00152294
0.000197938
0.00123675
-0.00189564
0.00046095
-0.000951316
-0.000989048
0.00106154
0.000878829
0.000694396
-0.00020084
0.000511764
-0.00142008
0.00148312
-3.7976e-05
-2.50634e-05
-0.00141761
1.41072e-05
-1.65816e-05
0.000752284
-0.000451029
0.00184945
-0.00215071
-6.8613e-05
0.00180462
-0.00173601
-0.00118324
0.000849675
-6.58708e-06
0.000340156
-0.000902623
-0.00109784
0.00200047
-0.000674706
-0.000253286
0.000927991
0.00100457
1.253e-05
-0.0010171
-0.00159627
-2.5639e-05
0.00131313
0.000308781
-0.000461624
0.000638536
0.000839041
-0.00101595
-0.00176755
0.000484148
0.000821775
0.00172074
-0.00271128
0.000575303
0.000415231
-0.00144936
0.00146279
-3.9839e-05
2.64118e-05
0.00193048
-0.00192974
-1.55657e-05
1.4827e-05
-0.00109047
1.54073e-05
0.000268983
0.000806081
7.65397e-05
-0.00113688
0.00106034
-0.00123426
-0.00175227
0.00118841
0.00179812
0.000148993
0.00161165
-0.000746245
-0.0010144
2.03252e-05
-0.00155705
-2.33163e-05
0.00156004
0.000256082
0.00139848
0.000329892
-0.00198445
0.000203744
0.00139804
-0.00147294
-0.000128854
-7.47578e-05
-0.0010936
0.0013721
-0.00089472
-0.000757648
0.000384949
0.00126742
0.00084157
4.8355e-05
-0.000889925
0.00135955
0.0013034
-0.00157459
-0.00108836
1.7134e-05
-0.00108207
0.00106494
0.000302685
0.000132448
5.9011e-05
-0.000494145
-0.00142039
-2.27971e-05
0.000469885
0.000973305
-0.00104625
-0.000536668
0.00158292
0.000845588
-0.00111025
0.000393568
-0.000128908
-0.00146891
0.000185121
0.00134022
-5.64391e-05
-0.00147999
0.00179845
-0.0014129
0.00109443
-5.91724e-06
-0.000888803
-0.00114272
0.00111068
3.20356e-05
-0.00147866
-0.000770739
0.000146038
0.00210336
-0.000136583
0.0013004
-0.00116382
0.00103751
-0.000815782
-0.000221728
0.000925028
-0.000930945
-0.00111198
-1.71674e-07
0.00111215
0.000508604
0.00138601
-1.33909e-05
-0.00188123
-0.00113552
0.000173007
0.000962516
-0.0012633
-0.000444588
0.00131581
0.000392081
-0.00190956
0.000262472
0.00186421
-0.000217114
0.000944198
-0.000916801
-2.73978e-05
-0.000726227
-0.00101909
0.00390906
-0.00216374
-0.00148232
0.00054301
-0.000373399
0.00131271
-0.000750801
-0.000179471
-0.00117524
0.00210551
-4.2755e-06
2.7005e-06
0.0013069
-0.00130533
0.000708239
-0.00209699
0.00285901
-0.00147026
-0.00121626
0.00121198
0.0015571
0.00040107
-0.00190737
-5.07981e-05
0.0010853
0.000148486
-0.0013632
0.000129424
0.000950351
0.000445366
-0.00159417
0.000198455
0.000903594
0.000181702
-0.000541831
0.00169142
-8.92274e-05
-0.00106036
0.000326674
-0.00148646
0.00190081
-0.000741024
-0.00167252
0.000121876
-4.28831e-07
0.00155107
0.0009725
0.00374391
-0.000593951
-0.00412245
0.000450127
0.00034307
-0.000596687
-0.00019651
0.00031016
0.0011236
-0.000508282
-0.000925482
-0.000905617
0.000884288
-0.000520503
-5.05869e-06
0.00169152
4.95994e-06
0.00133531
-0.00135025
0.000214
-0.000199058
0.000316201
-0.000105668
0.000806877
-0.00101741
-0.00130095
0.00126669
0.00018275
0.00039256
-0.000768645
-0.00087994
0.00125603
0.000542004
0.00150816
-0.00150678
0.00112912
-0.00147853
0.000199699
0.000149714
0.00111297
2.05784e-07
-0.00111318
0.00242813
-0.00249727
0.00202066
-0.00195152
0.000370257
-0.000955487
-0.00047657
0.0010618
0.000384902
0.000204411
-0.00163411
0.000974031
-0.000580743
0.00124082
-0.00200267
0.000452156
0.00168511
-0.000134597
-0.00156208
-0.000862189
0.0031325
-0.000158916
0.0019184
-0.000633655
-0.00112582
0.000924594
-0.000466555
0.00171247
-0.00217051
0.000184422
-0.000870263
0.000741016
-5.51759e-05
-0.000382605
-0.00125569
0.00144248
0.000195817
0.0010811
-0.000611817
-0.000439676
-2.96093e-05
0.000548048
0.000229708
0.000290574
-0.00106833
-0.000776211
0.000995618
-0.000219407
0.000889424
-0.00082853
0.000123529
3.05134e-05
-0.00135779
0.00132728
0.00104323
-0.00121552
-0.000210316
0.000264625
0.00118149
-0.000265094
-0.00118102
-4.01703e-06
-0.000963831
0.000967848
0.000524866
0.00161287
-0.000883497
-0.00125424
-8.6798e-05
-0.000626552
-0.000424932
0.00113828
-0.000294654
-0.00162193
1.0754e-05
0.00190583
-0.00102994
0.000416978
0.00125933
-0.000646364
7.62796e-05
0.000966955
-0.000857637
0.000933917
0.000926212
0.000247631
9.96294e-05
-0.00127347
-0.00048927
0.00218877
-0.000142399
-8.92464e-05
-0.000621656
0.000566714
0.000144188
-0.000206149
0.0024352
-0.000115507
0.00197589
-0.00102622
-0.000424808
0.0022537
-0.000275459
-0.00120936
0.00180757
-0.000322744
-0.00228019
0.00191539
0.000936602
-0.000571798
5.77257e-05
0.00104784
0.00087033
-0.00100402
-0.00131892
0.0013924
-0.000716483
-0.000988301
0.00190979
-0.000205009
0.000740358
0.000843266
-0.00158362
2.61997e-05
0.000168858
0.00222427
-0.00241933
-0.00117462
0.000992964
0.00144023
-0.00125858
0.00135766
-0.00214586
0.00172481
-0.000936605
0.000449865
-2.28599e-05
-0.000427005
-0.00092393
-0.000517178
0.000171927
0.00126918
-0.000473733
-0.000679159
8.94489e-05
0.00117076
-0.00096895
-0.000291259
0.000984374
-0.00102497
4.05963e-05
0.000109471
-0.00130637
0.00137851
-0.000181607
0.00114614
-0.00282832
0.00139764
0.000284541
0.00065541
-0.000874263
0.000218853
0.000867562
-0.000110883
-0.000859813
0.000103134
-0.000174048
-0.00286957
0.00259045
0.000453176
-0.00113289
0.000195251
0.00132063
-0.000382988
-0.00118631
3.82058e-05
0.0011481
0.00118295
0.000200051
0.000785237
-0.000590191
-4.90266e-05
0.00152864
0.000102781
-0.00168145
0.00140462
-6.4009e-05
0.00116671
-0.0011027
-0.000816948
0.000505913
0.00135505
-0.00104402
-0.000185984
0.00155266
-4.38411e-05
-0.00132284
-0.000187241
0.00144232
-0.00097539
-0.000279686
-0.00100248
-2.22551e-05
0.00118143
-0.000156696
0.00083242
-0.0017401
0.000949972
-4.22926e-05
-0.000891561
0.00069697
-0.000716466
0.000911056
0.000863738
3.41366e-05
-0.000100879
0.0001324
-0.00125903
-0.000303378
0.00143
-0.000258131
-0.00138332
0.000618338
0.00102311
0.000493547
-2.11432e-05
0.00113427
0.000275127
-0.00138825
0.000581734
-0.000410084
0.00117228
-0.00134393
-0.000751433
0.000930949
0.00124244
-0.00142195
0.00203439
0.000510702
-0.00205154
1.64037e-07
-0.00121047
0.00121031
7.48829e-06
-0.00122642
0.00127535
-5.64232e-05
2.39141e-05
0.00131061
-0.00117889
-0.00015563
0.000394341
-0.00198937
-6.49569e-05
0.00165999
-0.00110095
0.00132102
-0.000220066
0.000202254
-9.24154e-05
0.0013259
-0.00143574
-0.00102586
0.000227835
-0.000709005
0.00107355
-0.00143077
0.00106622
-0.000327224
-8.10712e-05
0.000408296
0.00324053
-0.00158162
-0.000703462
-0.000955453
0.00130479
0.00334327
-0.00140753
0.00216037
-0.00199883
0.000188985
0.00110084
-0.000852261
0.00121913
-0.000386538
1.96695e-05
-0.000257017
4.99479e-05
0.00178945
-0.00125101
0.000470923
0.000960682
-0.000180593
-0.00105226
0.00174107
0.000130785
0.00122124
-0.00139806
0.000708612
-0.000531783
0.000181378
0.0024566
-0.00243573
0.000735104
6.38949e-07
-0.000735743
-3.98935e-07
-0.000956601
0.000957
0.00170507
0.000137895
-0.000381594
-0.00146137
0.00221022
-0.000712145
-0.000935285
-0.000562789
-0.000139835
-0.00280366
0.000846503
-8.61069e-06
-0.000679292
0.000687903
0.00147048
-0.00134927
-0.00133356
0.00121234
0.00106481
0.000444012
-0.00125274
0.000864079
-0.000532506
-0.00131812
0.000986551
-0.00104281
-9.41706e-06
-0.000803489
0.00185572
-0.00159304
-6.82838e-06
0.00159987
0.000993014
9.37505e-05
-0.00105663
-3.01383e-05
-0.00127232
-2.08164e-05
0.00129313
6.42929e-05
0.00107033
-0.00113462
-0.000782632
0.00173423
-0.000125976
-0.00082562
-0.00187844
0.00226236
0.00142709
-0.00181102
0.000901214
0.000769383
-0.000208432
0.00133808
-0.000865022
-0.000264621
-0.000229746
-7.79049e-05
-0.00115527
0.00146292
0.0013045
-0.00114735
0.000912629
-0.00106978
-0.00123773
0.00128823
-5.04998e-05
-0.00151431
0.00025332
0.00130058
-3.95898e-05
-0.00264244
0.000528689
0.00201023
0.000103512
0.000260932
-0.000334861
-0.00130889
0.00138282
0.00190152
0.000181185
-0.00109222
-0.000990484
0.00103414
-0.000786449
-0.00104167
0.000793976
0.00119116
1.19878e-05
-0.00120314
0.000109759
-0.00202623
0.00148292
0.000433547
0.000752767
0.00044891
-0.000300463
0.000273705
-0.000881824
0.00128577
-0.000677647
-0.000545333
0.00052951
-0.000121952
0.000137774
-0.00362619
0.00437319
0.00141029
-0.00215729
0.00181971
-1.18995e-05
-0.00181893
1.11191e-05
9.10944e-06
0.00146347
-0.0015728
0.000100227
-0.00219282
0.00192113
-0.000510943
0.000974382
0.00121975
-0.00110392
-0.0010902
-0.000967718
-6.94975e-05
-0.000105247
0.00114246
0.00101053
5.27172e-05
-0.00106324
0.00128827
-7.10616e-05
-0.00121721
-0.00227759
0.00214628
8.44909e-05
4.68197e-05
7.05223e-05
0.00146791
-7.18425e-05
-0.00146659
0.000909428
0.000458526
-0.0029775
0.00160954
-0.00063063
0.000630638
-7.8341e-09
0.000924176
2.11781e-06
-0.000926293
-4.72765e-07
-0.000556876
0.000557348
-0.000530724
0.00108029
0.000725886
-0.00127545
3.53455e-06
-0.00114345
0.000897116
0.000242804
-0.00128319
-0.000526052
-0.000468356
3.25607e-06
-0.000888551
-0.000132238
0.00101753
-0.000687381
1.28511e-05
0.00067453
0.000235009
0.000729255
-0.000237593
-0.000726671
0.00050284
-0.000895074
0.000392234
-0.000243037
-0.000833083
-0.000310438
0.00138656
0.000709537
0.000940512
0.000138625
-0.00178867
0.00185642
-0.000675191
-0.000601585
-0.000579649
-6.80641e-05
-0.00153316
0.00178691
-0.000185681
0.000736001
0.000387717
0.000212182
-0.0013359
0.00232029
0.00103343
-0.00217624
-0.00117748
-2.84135e-06
0.000587578
-0.000584737
-0.00137315
4.08938e-05
0.000317705
0.00101455
-0.00134582
-0.000149406
0.00153109
-3.5861e-05
0.000374616
-0.000468992
0.00191409
-0.000476421
0.000629232
-0.000152811
0.000937427
2.69496e-05
-0.000964377
0.00019442
0.000122391
-0.00123671
0.0009199
0.00131792
-0.000129567
-0.00122642
3.80614e-05
-0.00111341
-7.57043e-07
0.000237432
0.000322029
-0.00146039
0.000900928
-0.00135677
9.78246e-05
0.00125894
-5.32574e-05
-0.000949218
-0.000123767
0.00208952
0.000147245
-0.002113
0.00111649
-0.00118252
6.60261e-05
-0.00119418
0.00118139
1.27896e-05
0.000959589
-0.00108336
0.000262537
0.000876309
0.00108909
-0.00222794
-0.00117263
-0.000640144
0.00181278
-9.07101e-06
0.000836214
-0.000827143
-1.95566e-05
-0.000909609
0.000929165
0.00111453
-0.00110769
-6.84918e-06
-0.00123532
4.73877e-05
0.001242
-5.40677e-05
0.000302158
-0.00139078
0.00106222
0.000693747
0.000583355
-0.00233831
0.00106121
0.000721231
4.94127e-06
-0.000726173
4.73462e-05
0.00136518
-0.00141253
0.00067203
2.42868e-06
-0.00153956
0.00137048
0.0012989
-0.00112982
-0.000969637
0.000123004
0.00124333
-0.0003967
0.00169645
-0.0024443
0.000590939
0.000156907
-0.00218933
0.000487417
-0.00104582
0.00115602
-0.000110206
2.54706e-05
-0.00115969
0.00113422
-0.00100314
-1.985e-05
0.00102299
-0.00117457
6.31131e-06
0.00116826
0.00112362
-0.00123202
0.000108407
1.42886e-05
0.00173464
-0.00174893
-0.000256878
-0.000234227
0.00124387
0.00123781
-0.0012928
-0.000883956
0.000938946
-0.000698731
0.000127417
0.00135652
-0.000785203
0.000666948
-0.00156864
-0.000101455
-7.29222e-05
0.00153345
-0.00146053
0.000454874
0.000424182
-0.000580035
-0.000299021
-0.000706418
0.00115821
-0.00139178
0.000939989
-0.0011246
-0.000426956
0.00155155
0.00227589
-0.0014031
-0.000872787
-0.000432103
0.00163506
0.00107133
-0.00227429
-0.00118639
0.00143892
-0.00143576
0.00118322
0.000508909
-0.000382378
-0.000584559
0.000458027
2.12499e-05
-1.36307e-05
-0.00127995
0.00127233
-0.000119984
-0.00180207
0.00192206
0.000404991
5.33149e-05
-0.00152678
0.00106847
-0.00150305
0.00116643
0.00033662
-0.000702811
-0.000351916
0.00101383
4.08975e-05
-0.000991034
0.000985986
5.04763e-06
0.000963448
-0.000814834
0.00120905
-1.03651e-05
-0.00157777
0.00158069
7.45249e-06
0.00304721
-0.000787982
-0.00152945
-0.000729786
-0.000471301
0.00166293
8.05803e-06
-0.00119969
-0.000550117
0.000819086
0.00045738
-0.000726348
-0.00132476
0.000778043
0.00137622
-0.000829506
0.000727337
-0.000868499
-0.000339382
0.00150743
3.97605e-05
-0.00120781
0.000906332
-0.000999649
0.000103569
-0.00213752
2.41013e-05
-2.1159e-05
0.00213458
-0.000297328
-8.38068e-05
-0.0007996
0.00118073
-0.00108434
0.00139478
-0.00110852
0.000798075
-0.00247903
-0.000334654
0.00260754
-0.00160746
2.27381e-05
0.00160913
-2.44136e-05
0.00100648
0.000162808
-0.000678796
-0.000490493
-0.000317321
-0.00123365
0.000655393
0.000895583
0.00106764
-0.000418618
-0.00140721
0.000758181
-0.00138744
-0.000357691
-3.09129e-05
0.00177604
0.00111012
-0.000136196
-0.00101856
4.46349e-05
0.000940108
-0.000944013
3.90483e-06
-0.000745549
0.0024268
-0.00201602
0.00033477
0.000156316
0.00143146
-0.0023035
0.000715723
-0.000945338
-0.000307795
0.000993417
0.000259715
0.000330093
-0.00031687
-0.00095856
0.000822377
3.31586e-05
0.000161056
-0.00101659
-8.81665e-05
0.000615866
-0.00266522
-0.00138856
2.84927e-05
0.00178203
-0.000421964
-0.00099518
0.00116128
-0.000166105
0.000489789
-0.000459332
-0.000649107
0.00061865
-0.000700623
-0.00128675
0.000808926
0.00117845
-0.000577182
0.00179592
-0.000661471
-0.000557269
-0.0014803
1.02806e-05
-0.00129569
0.0016155
-3.93071e-05
3.46595e-05
-0.00128152
0.00128616
0.00123735
0.00132704
-0.00141031
-0.00115408
0.000982114
-0.00101301
3.08951e-05
0.00125367
-7.86723e-06
-0.0012458
0.00106973
-0.00124165
0.0003513
-0.000179384
-0.000312057
-0.00091518
0.00222065
-0.00164466
0.00141174
-0.000212788
0.000445707
0.000547128
-0.000744584
0.00176753
-0.00157007
-0.00157607
-0.00114993
0.00187378
0.000852223
-8.45311e-05
-0.00173662
0.00017649
0.000274851
-0.00144882
-1.18875e-05
0.00118586
0.001335
0.000351588
0.00180879
-0.00158398
-0.000594427
0.000369614
-0.00133912
0.00132918
0.00108383
-0.00107388
0.00101473
0.000503282
-0.001152
-0.000366017
0.000508339
-0.00111704
0.000927999
-0.000319298
0.00139177
-0.00114099
-0.00181294
0.00156216
0.00145934
-0.00162443
8.05545e-05
-0.00090107
0.000905036
-3.96596e-06
0.000112616
-0.000102095
0.00151071
-0.00180489
0.00170268
-0.00140851
0.00111973
-0.00100711
0.00113741
-0.00122994
-3.76038e-05
0.000130136
-2.44461e-05
-0.000519487
0.000543933
-0.00012357
-0.00103693
0.00124387
-8.33758e-05
0.00191012
-0.00171906
0.000135734
-0.000326795
0.000204315
-0.0022669
0.000184153
0.00169606
-0.001736
-0.000187502
0.00022744
0.000371551
0.000279055
0.000461247
-0.00111185
-0.000100997
0.000948679
0.00092388
-0.00177156
-8.04567e-05
-0.00117137
-0.000325269
0.00157709
-0.000570277
0.00170889
-0.000464646
-0.000673969
-0.00106833
0.000453074
0.00168499
0.0010458
-0.00211864
0.000232261
0.000840579
-0.000305331
7.13951e-05
0.00193
0.000313037
0.00142702
-0.000488576
-0.00125148
-5.16402e-05
5.39046e-05
-0.00123887
0.0012366
0.00185861
0.00010445
-1.30836e-05
-0.00194998
0.0010364
0.000454095
-0.000412046
-0.00107844
-0.00112278
-0.000479899
0.000534345
9.19239e-05
0.000648199
-0.000657838
-8.2285e-05
0.0001895
1.63499e-05
-0.0014475
0.00100858
-0.000527315
-0.000136939
-0.00034433
0.000148166
0.000701588
-9.81241e-05
-0.00075163
-0.00112207
0.00096294
0.00120494
0.000743302
-0.00323126
0.000629972
0.00185799
0.000176843
-2.97898e-05
3.30013e-05
0.00127207
-0.00127528
0.00220461
-0.000708029
-0.000732176
-0.000764408
-0.00107613
1.36408e-05
0.00147788
-0.0004154
-0.00013629
-0.0010383
0.00125229
-7.76944e-05
0.00104301
-0.00142212
-0.000694697
0.0010738
-0.000986737
0.00095857
2.81674e-05
-2.95025e-05
0.000952353
-0.000922851
-0.000466133
-0.00109054
-0.000402455
0.00195913
-0.000809979
0.000907826
-9.78469e-05
-0.000152964
-0.00132768
-0.0003346
0.00181524
-0.0023432
0.000863877
-0.0012788
0.00275812
-0.00160394
3.7166e-05
0.00156677
0.000757879
0.000839144
-0.000810991
-0.000786031
0.000976152
-0.00055923
-0.000184669
-0.000232254
0.0013038
2.83866e-05
-0.00133219
0.00124572
-0.00372526
0.00013634
0.000845562
-3.13719e-05
-0.00081419
-0.0014444
-0.000572988
0.0019408
7.65933e-05
-0.000876886
0.00452869
-0.00277261
-0.000879196
-0.00263805
0.00317648
-0.000465198
-7.32273e-05
0.00157648
-0.000908685
0.00219121
-0.000771825
-0.00168097
0.00248288
-3.00853e-05
-4.8257e-06
-0.0001218
-0.000680354
0.00080698
0.00148833
0.0019066
-0.00216858
-0.00122634
-0.00152938
0.0018081
0.000496054
-0.000774768
0.00169575
-0.000310946
-0.000663189
-0.000721615
0.000145289
-0.00108538
-0.000188709
0.0011288
-0.00322224
9.97425e-05
0.00164921
0.00147328
-0.000591313
0.00225046
-0.000872471
-0.000786677
0.000382029
-0.000937512
0.0017866
-0.00123112
-0.000193153
-0.000553031
0.00104584
-0.000299662
-0.000918777
0.000977624
-6.2441e-05
3.59332e-06
0.00160064
-0.00180678
-8.66971e-05
0.000292831
-4.87182e-05
-0.00159579
0.00160843
3.60838e-05
0.000130414
-0.000116285
-0.00152643
0.0015123
0.00220871
-0.000362555
9.40479e-05
-0.0019402
-0.00145324
-0.000305387
0.000372924
0.00138571
0.000491612
-0.000491622
9.94084e-09
0.00108931
-0.00074114
0.000726798
0.000226327
0.0020868
-0.000124768
-0.00218836
-0.000333343
0.000222671
0.000278516
-0.000167845
-0.00162884
-0.00202539
0.002928
-0.00115807
0.00132611
0.00126298
-0.00143103
-6.50738e-05
0.00129228
-0.00162992
0.000402705
-0.00123957
-0.00129808
-8.23596e-05
-0.00033438
0.00171482
-7.02273e-06
-0.000660542
0.000667565
-7.6031e-06
-0.000952221
0.00221979
-0.00125997
0.000650555
0.000916143
0.00163427
-0.000818268
7.66379e-05
-0.000892635
0.000717869
-0.00019944
-0.00119857
0.000680141
0.00090156
4.28937e-05
-0.00137382
0.000429368
-0.000649
0.000537519
0.00203442
-0.00192293
0.00174326
0.00124581
0.000163173
-0.00315224
-0.00155844
-9.83852e-05
0.000315742
0.00134109
-0.00130656
0.00139166
-8.51081e-05
-9.11252e-05
0.000865387
-0.000129784
-0.000644478
-0.00026796
0.00055118
-0.00028322
0.00109027
0.00154934
-0.000695668
-0.00194394
0.000933205
-0.000934088
8.82969e-07
-0.00264368
0.000617082
0.00147718
0.000549419
0.000107169
-4.72222e-05
0.00128425
-0.0013442
0.000822268
3.41189e-06
-0.000825679
0.00168883
-0.00187531
-0.0012043
0.00139079
-0.00148672
-0.0028719
0.00171494
-0.000290464
0.000187603
0.00119569
-0.00109283
-0.000512316
0.00155843
-0.000164335
-0.000881779
0.000320288
-0.000846602
0.00124418
0.000973906
4.6717e-05
-0.00102062
0.00289243
-0.000699381
0.00017191
-0.00236496
0.00109293
0.000312778
0.000699757
-0.00167179
0.00080347
0.000168562
-0.00175985
4.98306e-05
0.00131951
0.000390507
-0.000328051
-0.000724096
0.000767002
0.000285144
0.00103126
-0.00132797
0.000296707
-0.000365138
-0.000709917
0.00107506
0.00091056
-0.000589662
-0.00103368
0.000712779
-0.000390014
-0.000217006
0.00156008
-0.000953062
-0.000766343
-0.00122497
0.000947768
0.00104355
-0.00150502
0.00137426
-2.54956e-05
0.000156261
-8.79725e-06
-0.000928715
-0.000225009
-0.000820705
0.00103525
1.04673e-05
0.00157
-0.00147643
0.000428707
-0.000522275
0.00238294
-0.00237115
0.00108114
-0.000415459
0.000456062
-4.06032e-05
-0.000871005
0.000859701
1.13042e-05
-7.87318e-05
0.0010904
0.000372511
-0.00138418
-0.000691269
-0.00108915
-0.000429704
0.00221012
-0.000645525
-0.000496042
0.00224166
-0.00110009
0.00110985
0.000297605
-0.00148619
-0.000214393
0.00165447
-0.000752234
-0.000687846
0.000235182
-0.00109263
-0.000478893
0.00133634
-0.000304483
0.000187172
-0.0015233
0.00164061
0.00151748
-0.00109889
-0.000839988
-0.000626533
-0.000186856
0.00165338
0.000453065
-0.000229545
-0.000226995
3.475e-06
-0.00177938
0.00207583
-0.000211448
-8.50018e-05
0.000581181
0.000641816
-0.000610878
-0.000612118
-0.000244579
0.0012686
2.66714e-05
-0.00105069
0.00141763
6.046e-05
-0.00126686
-0.000211234
-0.000174496
-0.00174047
-0.000431663
0.00234663
-0.000150272
0.00125956
-0.00110929
0.00152475
0.00129504
-0.00173588
-0.0010839
0.0010111
7.46375e-07
-0.00101185
0.000111316
-0.00133188
-0.000333241
0.00155381
0.00238337
-0.000340058
-0.00112024
-0.000923071
3.3931e-05
0.00239627
-4.68274e-05
0.00117146
-0.00111949
-5.19712e-05
-0.000421929
-0.000821457
0.00124339
0.00217766
-0.000581107
-0.0013686
-0.00101851
-0.000995939
0.0016744
9.4809e-05
0.000402984
-0.00157212
0.00107432
5.65017e-05
-0.00135669
0.000848713
0.000451475
-6.63223e-06
0.00118251
6.85905e-06
-0.00118273
-0.000230254
-3.16498e-05
-0.00111781
-0.000294181
0.00141199
-1.90123e-05
-0.000970218
0.00098923
0.00207615
0.000157755
-0.000133198
-0.00210071
0.000869588
-0.00161068
0.000388201
0.000352896
0.000548515
1.34296e-06
-0.000549858
-0.00158317
0.000258324
-6.39411e-05
0.00138879
0.000566898
4.19121e-05
0.00123644
-0.00184525
-0.000582827
0.000629064
-0.00174774
0.00170151
0.000174483
-0.00022934
-0.00163484
0.0016897
0.0011627
-0.00108616
-0.00249664
0.000284747
0.00073653
-0.000751322
-0.000762006
0.000776798
-0.000672315
0.000675193
-2.87812e-06
-0.00159847
-0.000564545
0.00239531
-0.000343173
-0.00148759
-0.000931589
-0.000283281
0.00126392
-4.90552e-05
0.000268456
0.00151826
-0.0005814
-0.00120532
-0.0030091
-0.00252846
0.000197111
0.00242342
-9.20687e-05
0.000179965
0.000129683
-0.0010431
0.000733452
0.00166677
-0.00153986
-0.00171995
0.0012151
0.000348061
-0.00156316
0.00173159
-0.000320194
-0.00123901
-0.000172387
-0.00103542
-5.73689e-05
-0.000699105
0.00179189
0.00170072
-0.00143856
-0.000506299
0.000244143
7.49858e-05
0.000527319
-0.00162529
0.00102299
5.93857e-06
0.000884136
0.00013594
-0.00102602
-0.000824983
0.00105043
0.000296723
-0.000522168
1.23283e-05
0.00145331
-1.14877e-05
-0.00145415
-0.00109797
0.00111029
-0.00102338
-2.28635e-06
0.00102566
-0.00167014
-0.000154216
0.000417835
0.00140652
0.00117466
-0.00114862
0.000687407
-0.000713443
0.000289881
0.00102037
-0.00110174
-0.000208512
-0.00141381
0.00206931
-0.000238199
-0.000417305
0.000823449
-0.000786861
-3.65881e-05
1.60489e-05
0.000652594
0.00171429
-0.00138146
0.00117765
0.000507087
-0.000303285
-0.000340574
0.00075888
-0.000418306
-3.54421e-05
0.00118655
-0.00115111
-0.00185958
0.000705304
0.000361772
0.000792506
-0.00334
0.00243422
0.000921825
0.00247912
-0.000296436
-0.000424099
-0.00175858
0.000991685
0.000121646
0.000634621
-2.9436e-05
-0.000665033
5.98476e-05
0.000686737
-0.000538571
2.68035e-05
-0.00159544
0.00156864
-0.00275522
0.00197001
-0.000875206
0.00211123
-0.00142884
0.000192812
0.00144122
-0.00194934
0.000602921
0.00110791
-0.00202365
0.000390126
0.000525623
-0.00102912
0.00123611
-0.000206995
0.00214738
0.000449578
-5.27703e-06
-0.00259168
-0.00103171
0.0010405
-8.79117e-06
0.00280678
-0.00251561
0.000324699
0.00166339
-5.42759e-05
-0.00160911
0.00119367
-0.00121683
2.31619e-05
-0.00119337
0.000134068
0.0010593
-0.000459968
-0.00112921
0.000395807
-0.00244195
0.00160148
0.000439518