/*--------------------------------*- C++ -*----------------------------------*\
  =========                 |
  \\      /  F ield         | OpenFOAM: The Open Source CFD Toolbox
   \\    /   O peration     | Website:  https://openfoam.org
    \\  /    A nd           | Version:  10
     \\/     M anipulation  |
\*---------------------------------------------------------------------------*/
FoamFile
{
    format      ascii;
    class       volScalarField;
    location    "8.5";
    object      T;
}
// * * * * * * * * * * * * * * * * * * * * * * * * * * * * * * * * * * * * * //

dimensions      [0 0 0 1 0 0 0];

internalField   nonuniform List<scalar> 
111485
(
303.15
285.107
300.968
303.15
298.405
283.15
298.913
293.381
296.315
286.248
300.508
296.189
300.203
284.571
299.967
286.758
299.297
297.859
294.031
303.15
303.15
283.15
297.229
288.693
301.54
303.15
293.183
300.611
288.854
303.15
300.727
294.305
303.15
283.15
283.448
283.15
302.28
297.578
283.149
296.583
283.15
289.591
297.001
302.881
303.191
303.15
287.37
288.552
289.633
303.15
303.15
283.15
303.15
298.909
303.15
293.483
287.893
283.15
283.321
295.428
295.828
303.15
302.048
300.26
283.15
284.55
300.258
291.519
302.101
302.526
303.162
301.891
303.15
302.099
303.15
295.352
283.15
293.447
283.15
283.15
283.238
293.383
283.15
303.15
300.301
284.208
283.15
301.54
303.117
299.069
283.335
289.571
300.851
300.369
289.764
303.15
303.15
301.54
303.149
283.414
303.15
286.654
283.15
285.165
285.745
283.15
283.15
293.053
301.447
283.146
298.892
288.063
301.284
301.694
303.15
301.972
303.15
283.15
300.114
303.15
303.15
283.15
283.15
283.15
283.399
303.151
283.15
301.803
303.15
283.177
303.086
301.931
303.15
283.15
283.15
292.487
283.15
294.196
298.77
301.079
303.137
296.797
298.951
284.768
302.275
297.774
283.15
303.15
283.15
297.116
284.925
303.15
303.144
287.308
283.156
293.699
295.611
302.52
283.154
303.15
303.15
292.158
286.241
283.153
283.157
301.168
283.684
283.15
283.152
283.152
283.15
303.15
283.206
283.15
291.525
287.162
283.15
303.15
303.15
283.15
303.15
303.15
297.625
293.476
295.764
289.75
301.368
300.404
283.19
303.15
301.433
303.15
303.15
300.138
286.275
301.395
301.319
295.726
303.15
300.871
284.593
283.16
300.765
297.044
303.15
300.397
288.189
303.15
283.225
300.165
284.802
300.669
303.15
303.15
300.684
283.15
292.751
283.15
300.588
298.688
290.355
303.15
301.744
300.52
283.15
283.15
283.15
289.49
283.157
283.15
303.15
298.624
291.349
289.91
283.15
303.15
303.107
303.15
284.328
300.061
299.236
299.485
299.354
283.15
283.144
298.829
283.15
283.15
288.745
288.352
283.15
301.171
298.849
303.15
283.15
301.008
303.15
303.15
303.121
303.15
288.257
285.859
290.767
303.15
298.308
303.15
303.15
303.15
283.148
298.071
300.959
299.396
291.184
299.454
296.208
283.21
290.312
291.558
283.15
303.15
283.149
292.43
298.716
286.451
303.15
297.965
297.236
298.862
302.959
283.166
297.071
299.334
301.993
283.15
283.605
283.15
283.149
303.15
283.883
290.246
286.305
303.15
283.15
297.56
285.237
303.15
303.15
303.15
284.582
290.22
301.047
284.398
292.997
283.15
283.15
303.15
298.322
303.15
283.819
289.467
283.153
283.15
303.15
303.15
283.15
294.328
289.95
283.15
295.679
283.15
303.15
301.056
297.268
293.955
295.788
283.15
283.15
283.15
296.578
290.989
302.359
283.15
283.15
283.15
290.071
296.912
283.213
290.459
283.15
292.766
299.531
284.197
298.661
285.255
283.15
303.15
283.15
303.15
290.656
296.628
287.929
291.92
283.15
286.35
283.15
303.15
293.785
303.15
301.755
303.15
283.15
291.929
283.15
288.765
284.619
283.15
283.981
297.998
283.15
300.126
284.664
298.815
303.022
291.036
285.995
283.15
303.15
303.143
283.15
300.97
300.836
283.15
283.15
294.683
284.363
298.162
296.806
283.15
295.092
296.09
283.15
302.044
283.895
303.15
303.15
288.238
298.565
283.15
303.15
303.15
303.15
300.721
283.15
303.15
293.924
283.171
286.956
299.946
283.15
283.15
302.606
283.15
302.454
301.427
297.827
288.764
283.15
293.893
303.38
303.15
298.614
292.285
303.15
283.15
283.305
283.15
290.018
286.094
291.629
283.15
292.849
296.556
293.041
303.147
283.15
303.15
303.15
283.169
292.707
283.15
284.315
303.133
283.15
303.15
303.15
303.15
301.815
290.503
285.989
284.187
284.312
283.15
285.693
303.15
300.718
283.15
303.15
303.15
300.659
303.15
303.15
283.151
303.15
283.15
300.657
283.15
283.15
283.15
303.15
283.15
303.15
283.15
283.663
283.15
303.125
301.839
283.742
283.15
303.084
283.15
303.15
284.706
284.668
286.111
297.494
283.15
297.458
297.571
292.271
286.803
285.263
303.15
291.74
283.15
299.84
283.15
296.759
283.15
292.061
298.561
303.151
283.15
286.784
303.15
295.472
299.061
283.15
283.15
283.15
283.15
303.15
293.652
283.15
283.15
283.237
283.15
299.792
283.15
284.791
303.15
283.434
303.121
284.632
291.884
283.15
301.442
283.15
283.15
285.686
283.15
283.254
283.15
299.645
303.15
290.64
303.15
283.15
302.375
284.465
300.063
285.651
300.061
289.455
283.15
300.607
284.544
283.15
283.14
300.319
301.576
283.15
282.455
301.047
303.062
283.119
303.15
287.56
302.161
284.402
285.384
288.189
282.559
283.15
303.15
300.58
303.15
283.546
283.15
283.15
291.741
282.678
303.149
303.117
283.15
286.269
299.564
283.15
283.15
299.578
303.15
283.15
283.15
283.15
286.151
283.15
303.15
284.819
284.218
303.15
299.671
283.15
289.238
303.15
283.15
286.147
283.15
283.15
283.15
285.363
283.15
285.439
291.937
303.15
300.338
283.447
298.683
300.928
283.314
283.457
283.15
288.947
298.415
303.15
302.255
296.029
296.849
284.711
297.413
297.167
303.15
300.23
303.136
283.15
297.115
284.823
283.15
292.346
295.692
284.844
298.74
300.608
292.306
283.15
298.88
283.468
303.15
300.569
301.957
294.056
283.15
286.482
303.15
283.15
283.15
283.15
283.301
283.15
303.15
303.15
283.15
300.395
299.22
303.15
285.616
303.15
303.15
303.15
290.007
283.418
283.15
303.15
283.15
283.15
286.797
292.352
283.15
295.107
283.137
283.15
295.281
302.214
287.766
283.15
283.15
300.227
292.06
283.15
283.15
283.15
293.963
303.15
303.15
283.15
296.21
302.373
283.15
282.394
301.769
286.522
283.15
283.15
287.443
302.964
283.15
283.159
287.235
283.752
288.763
283.15
285.683
300.286
283.15
303.15
283.15
283.15
283.15
283.15
295.639
303.15
283.15
283.15
295.254
291.784
303.15
303.15
289.832
298.396
298.294
303.15
283.15
297.968
303.15
283.826
298.797
298.318
303.15
303.15
303.15
283.15
286.051
283.15
283.15
302.7
303.15
297.788
302.271
283.15
294.022
283.257
296.405
291.949
283.417
289.761
283.15
283.15
296.853
288.031
290.818
283.15
283.15
297.777
294.946
283.15
283.904
284.584
283.475
303.15
303.15
303.15
290.723
283.15
300.031
283.15
284.37
297.569
298.483
292.233
283.15
283.15
303.15
295.34
283.15
283.15
303.097
283.15
283.15
303.15
283.15
299.299
283.15
283.15
283.15
283.15
283.15
303.15
283.15
283.172
298.749
303.15
302.527
283.131
283.399
283.095
285.506
283.15
284.449
290.504
283.399
303.15
283.149
299.714
283.15
300.23
283.145
283.144
286.193
297.463
283.205
291.863
297.97
283.15
283.15
299.036
299.78
283.15
297.327
291.252
297.535
283.15
283.243
283.15
297.847
296.968
283.15
300.042
297.616
283.149
299.746
283.15
295.623
283.145
303.125
283.162
283.16
283.15
283.15
284.418
283.15
302.969
283.586
283.064
303.148
303.149
303.147
283.15
283.15
293.768
303.15
303.183
283.869
283.15
283.15
303.154
303.149
283.15
303.165
283.15
283.15
303.15
303.15
303.15
303.15
283.362
283.15
283.15
283.15
303.157
283.305
283.887
293.419
283.15
283.15
283.335
283.15
283.15
283.15
287.232
293.567
283.15
283.15
283.15
283.15
283.15
283.15
284.007
283.15
303.15
291.552
283.15
303.15
303.15
303.153
303.15
303.15
283.15
303.171
283.15
283.695
283.144
303.152
283.15
303.063
284.39
292.058
303.15
303.128
284.443
303.15
283.15
303.15
283.15
294.01
293.454
284.634
303.148
283.15
293.224
283.15
283.15
303.15
283.15
294.817
283.15
303.15
283.163
298.138
303.15
284.372
283.15
283.575
283.15
283.15
283.15
303.15
285.843
283.468
284.232
283.15
283.15
285.63
283.15
283.15
303.15
284.323
303.164
298.531
303.15
303.127
303.128
283.15
303.13
283.15
283.44
289.131
301.003
283.799
283.167
283.15
283.15
283.15
303.183
283.15
302.901
303.15
292.692
303.15
288.713
283.823
303.15
283.15
303.15
283.15
301.784
303.15
303.15
286.401
300.544
283.15
283.15
283.15
283.15
283.15
283.15
300.799
283.578
303.15
303.15
303.157
303.15
300.178
284.414
283.15
302.107
303.15
301.62
283.15
302.565
283.15
283.148
303.152
283.311
302.105
300.216
283.147
283.15
289.34
303.15
293.355
303.15
283.15
303.15
283.15
283.15
283.15
300.798
302.047
303.15
303.15
303.15
302.899
283.15
303.15
292.865
283.084
303.15
297.498
298.291
296.464
283.374
283.15
283.15
283.15
283.15
294.606
283.15
294.855
283.15
303.057
289.831
283.15
302.856
283.15
283.15
302.736
283.148
302.918
283.15
303.15
283.15
302.385
283.15
303.15
283.15
283.148
283.15
283.171
283.15
283.15
303.15
292.976
301.083
296.106
297.001
303.15
303.115
283.15
283.15
285.687
283.15
283.158
302.841
298.766
302.942
303.15
283.359
283.15
303.15
283.15
302.993
283.316
298.282
283.15
303.15
288.086
303.15
283.15
283.125
295.08
283.147
283.15
283.15
283.149
303.15
283.15
303.142
303.15
303.15
289.936
302.987
302.994
289.006
293.232
283.15
283.15
303.089
289.076
283.15
303.15
284.724
283.15
303.15
283.15
283.15
283.15
297.435
283.15
302.94
283.15
300.494
283.15
283.15
283.15
283.15
283.15
283.15
285.009
283.15
283.15
283.15
283.15
283.15
283.15
291.986
283.15
298.35
302.934
283.15
302.321
283.15
302.514
303.145
292.291
288.785
303.15
292.156
284.778
303.109
303.15
303.14
295.042
288.665
283.15
287.885
283.15
283.15
283.15
283.15
287.509
283.15
283.15
291.641
303.136
285.311
283.15
283.15
302.516
283.15
283.184
303.15
299.881
283.15
283.15
302.82
283.15
303.178
303.15
283.15
289.046
297.945
292.699
285.656
292.53
294.11
283.15
283.15
302.285
290.586
292.76
284.404
283.15
294.359
283.15
303.15
300.73
298.71
283.15
297.399
283.15
292.754
297.193
303.15
283.15
283.15
301.772
283.15
283.15
300.496
296.12
283.195
291.219
283.15
283.15
302.797
300.514
283.15
300.633
283.15
300.488
283.15
283.15
300.794
283.15
283.227
301.589
283.15
283.15
302.427
283.15
287.909
303.15
290.395
303.15
303.15
303.15
300.941
283.15
283.15
299.525
283.15
302.991
283.15
283.15
303.15
283.151
288.198
283.15
283.15
288.061
288.24
283.15
283.675
283.15
303.15
302.413
283.724
301.56
283.15
283.15
283.15
283.15
283.15
283.15
283.15
283.15
283.15
283.15
283.15
303.15
283.15
283.15
283.15
283.15
283.15
283.15
283.15
283.15
303.15
286.952
283.15
283.15
283.15
294.683
283.15
303.15
302.893
283.15
283.15
294.689
283.15
283.15
301.812
295.166
283.15
303.657
303.596
283.15
301.5
293.937
297.529
301.463
298.114
303.15
283.15
296.36
291.761
301.406
283.15
302.139
302.41
300.858
288.038
287.318
301.045
301.771
301.774
303.15
285.858
297.52
285.526
297.223
283.15
283.15
283.15
303.15
283.15
291.973
297.892
283.15
283.15
283.15
283.15
283.15
303.15
283.15
303.15
292.12
303.115
299
302.839
283.15
283.15
285.406
283.167
283.15
283.15
301.693
303.15
283.15
298.131
299.49
297.5
298.63
300.79
303.15
291.037
302.583
303.15
303.15
300.313
303.15
283.15
282.985
295.545
302.948
283.15
303.15
289.594
286.149
297.125
292.172
302.387
303.15
303.136
303.15
303.15
283.15
298.93
283.15
291.791
290.443
299.675
284.765
303.15
301.917
303.15
283.15
303.15
303.15
291.486
299.535
283.15
303.15
303.133
291.77
303.03
299.327
292.789
288.321
292.896
283.15
303.15
283.15
291.225
298.28
303.151
303.15
303.15
303.15
297.466
302.555
283.15
299.947
301.121
284.858
299.494
303.15
303.15
298.663
292.947
283.15
302.902
299.728
302.604
291.959
297.284
298.229
303.15
286.982
298.157
291.323
283.15
289.044
303.15
288.389
301.049
303.15
288.705
301.272
300.12
293.157
283.149
283.159
283.238
301.63
300.91
303.15
288.819
301.474
303.15
283.15
303.15
303.209
298.739
290.774
296.759
303.254
283.149
297.514
303.15
303.15
292.771
303.15
300.297
283.304
301.311
291.525
303.15
283.661
293.192
303.15
283.053
298.656
303.15
300.678
286.249
303.15
303.15
283.994
303.15
283.15
283.15
285.914
299.23
291.161
303.15
285.22
297.465
283.15
298.824
298.858
288.969
303.097
283.15
301.499
299.615
298.824
300.066
288.66
290.772
302.478
303.15
301.546
288.714
303.15
298.834
283.15
283.15
303.15
283.15
303.15
297.434
283.15
300.509
283.631
303.15
283.79
283.15
289.837
303.15
303.144
303.15
294.148
302.993
303.117
299.86
290.409
289.437
290.586
298.413
303.15
299.386
292.157
298.923
303.15
283.871
283.451
299.243
287.164
283.51
303.15
283.15
303.15
285.326
303.15
303.329
284.684
303.36
302.954
303.15
303.15
283.15
300.54
300.625
285.49
303.086
287.001
295.653
301.872
292.488
288.147
302.077
296.081
283.15
283.15
303.15
285.81
289.697
283.15
283.15
303.15
301.984
288.666
303.15
296.374
303.15
283.155
285.186
301.086
303.15
303.15
292.266
303.15
283.301
290.613
283.15
297.129
294.625
296.078
303.15
302.708
283.15
302.661
293.4
303.15
303.15
288.79
283.15
303.15
301.795
284.435
303.15
303.15
283.15
302.344
303.468
289.496
299.686
298.027
303.15
303.159
302.603
303.15
283.15
303.15
303.15
303.15
303.15
303.15
303.15
303.15
283.15
303.15
303.15
283.341
303.15
303.339
303.15
303.16
303.15
303.15
300.932
303.678
303.15
292.006
303.15
303.15
283.15
302.555
303.15
302.126
303.114
283.289
283.15
303.15
302.923
283.149
303.15
303.15
291.364
283.15
292.585
283.15
283.15
283.153
291.21
284.84
303.15
296.644
283.15
303.742
303.134
284.313
302.59
283.15
292.162
303.084
301.675
283.15
303.15
283.15
304.103
284.818
296.872
303.15
303.15
303.15
303.15
303.15
303.15
302.341
302.805
297.611
292.004
303.15
287.128
292.637
284.973
303.206
283.15
286.912
302.749
284.761
283.148
287.477
303.15
283.381
302.916
292.526
302.843
301.9
303.15
302.223
303.15
303.15
297.92
303.15
284.468
303.15
303.15
283.15
303.15
303.15
302.842
303.15
283.297
283.15
283.15
285.805
284.906
300.896
286.089
303.15
294.692
303.15
290.45
303.15
287.137
300.675
301.478
293.345
303.15
303.15
303.15
289.804
283.15
303.15
289.558
283.15
283.15
301.819
303.15
286.19
283.148
283.15
303.15
303.15
300.651
298.177
303.15
293.413
303.037
283.15
298.557
303.15
286.416
288.23
302.141
303.15
296.284
296.733
302.951
301.877
301.655
303.15
303.15
303.147
303.15
283.15
303.15
289.561
300.06
294.325
302.127
283.15
300.354
291.393
298.212
283.602
298.312
289.589
302.159
283.15
283.15
283.15
302.206
283.15
290.479
283.15
301.259
303.161
289.715
298.041
283.15
303.15
301.246
301.225
303.15
283.15
303.15
286.432
301.436
302.976
302.333
298.003
288.437
303.15
303.15
303.15
294.227
285.959
289.784
295.864
283.956
302.954
303.15
303.15
283.15
283.15
285.421
299.576
303.15
303.15
283.15
303.15
303.15
303.15
300.248
303.15
285.356
292.449
283.15
283.248
293.352
285.696
303.15
303.15
301.882
303.15
299.222
283.147
297.563
303.15
303.15
283.15
303.15
303.15
303.15
305.22
303.15
301.834
301.111
303.15
303.15
301.613
303.15
283.15
287.242
303.104
303.15
303.15
303.15
297.914
303.15
303.15
302.468
302.485
301.773
303.15
283.15
303.15
302.04
302.506
301.52
302.529
283.15
300.641
287.487
297.443
283.15
303.15
303.15
303.15
303.15
294.359
287.57
299.649
303.15
303.15
303.15
303.15
283.15
303.148
284.767
285.145
283.15
303.15
303.15
283.148
299.584
294.929
283.15
303.15
303.15
303.15
303.15
289.608
289.663
303.15
303.15
302.394
303.15
301.441
283.95
291.873
303.15
283.15
301.16
303.123
303.15
303.074
301.315
286.817
303.15
303.15
303.15
303.15
293.282
284.145
303.15
302.693
298.052
289.417
303.15
303.15
303.15
303.15
299.532
303.151
303.15
303.15
298.247
302.584
288.339
303.15
303.15
297.734
303.15
303.15
303.15
303.15
288.808
303.15
283.15
283.15
295.924
291.087
303.15
303.15
303.15
296.985
303.146
303.15
303.15
303.15
303.15
303.407
300.873
303.15
287.334
302.641
299.377
303.15
303.15
303.15
303.15
283.15
285.654
303.15
302.845
283.15
302.175
303.15
303.134
303.15
283.15
301.92
285.7
283.15
302.824
303.15
302.416
283.15
303.15
303.15
303.151
303.15
283.27
303.15
290.846
283.15
283.15
303.15
303.15
298.818
302.378
283.15
302.41
283.15
284.093
287.988
302.704
283.15
303.155
302.987
303.134
284.391
283.156
302.982
283.15
283.15
283.156
302.072
302.288
303.15
283.15
283.15
295.331
303.15
283.15
303.15
303.15
303.15
303.108
303.045
302.93
302.447
303.15
302.902
303.15
284.819
303.15
303.15
283.15
303.15
303.11
303.15
283.15
303.15
288.315
303.15
303.15
303.166
283.15
302.846
302.066
296.663
303.15
289.296
294.475
283.795
289.944
283.15
283.15
287.212
284.318
283.15
303.814
283.15
286.415
303.15
283.15
303.156
303.15
303.15
303.012
303.155
303.15
283.15
303.138
303.15
283.15
283.105
298.734
302.701
303.15
301.844
303.15
285.71
303.152
301.18
303.15
303.15
301.044
303.15
303.15
303.15
287.692
303.15
285.146
303.15
303.147
303.15
283.15
283.15
303.15
303.15
303.15
288.711
302.548
303.15
303.15
288.579
286.501
291.195
303.15
302.7
287.674
287.533
303.15
303.15
287.663
283.15
291.892
303.15
303.152
303.149
303.15
300.516
283.15
302.301
283.15
303.15
303.15
303.15
303.15
303.15
284.329
302.247
291.032
303.15
303.15
290.564
303.15
303.15
303.15
303.15
303.15
300.142
303.15
303.15
283.15
299.446
303.15
283.15
303.15
301.366
283.15
299.95
290.767
302.684
300.013
299.428
303.15
303.15
303.15
300.82
288.471
283.15
303.15
300.31
303.15
303.15
291.961
303.15
287.481
303.15
297.814
284.313
303.15
283.15
303.15
303.15
303.15
285.243
303.15
300.483
303.15
303.15
299.691
283.15
284.749
303.15
303.15
288.102
301.532
296.404
303.15
303.15
303.15
301.549
292.241
303.15
283.15
303.15
300.66
303.15
284.772
296.285
303.15
303.15
301.13
303.15
303.15
283.15
303.15
283.15
294.545
303.15
283.15
303.15
303.15
303.15
303.15
303.15
303.15
283.15
301.498
283.15
302.075
303.15
303.15
296.069
300.468
303.15
283.15
303.15
300.874
283.15
303.15
303.15
303.15
300.725
303.15
297.648
303.15
285.826
283.15
286.728
303.15
303.15
298.486
283.15
303.15
287.846
283.245
303.15
303.15
285.074
283.846
300.845
301.727
301.179
293.142
301.733
283.845
303.15
297.688
283.15
283.15
303.15
303.15
303.15
301.2
303.15
303.15
303.15
303.129
283.169
283.15
283.556
303.15
302.012
283.15
303.142
296.087
283.15
294.567
303.15
303.15
283.15
299.877
283.926
303.15
283.15
299.903
303.15
297.641
303.15
295.268
303.15
283.15
303.15
283.15
299.412
283.15
283.226
283.15
286.197
303.15
303.15
283.15
283.15
303.15
303.15
303.15
303.15
284.875
284.729
283.15
303.15
283.232
283.15
283.15
303.154
289.852
283.535
283.15
301.492
284.868
300.456
288.164
303.15
303.15
303.15
303.15
283.15
283.15
283.15
303.15
283.15
283.15
303.15
283.15
297.241
283.15
303.15
283.15
303.15
303.15
283.311
283.15
303.15
301.941
303.149
303.15
303.15
303.15
288.717
283.15
303.15
303.149
283.15
303.15
303.15
303.15
295.229
283.15
283.18
303.15
303.15
303.15
303.15
303.15
303.149
303.147
284.099
303.15
283.15
303.15
303.149
303.15
303.148
303.149
283.15
283.15
283.15
303.15
303.15
283.15
303.149
283.15
287.699
283.15
301.807
283.15
303.154
303.15
284.605
283.15
284.448
297.368
303.15
284.689
303.173
303.15
297.378
283.15
303.15
303.15
303.15
303.15
283.15
303.15
303.15
299.142
283.15
303.15
303.15
303.15
303.15
292.31
290.337
303.17
283.165
303.15
301.806
302.31
303.15
283.15
283.15
303.15
303.15
303.15
283.15
283.15
283.821
303.15
303.15
303.197
303.151
283.15
288.842
303.15
283.15
303.15
288.059
303.15
283.15
302.113
283.15
283.15
283.15
303.15
299.668
303.15
303.15
303.15
283.15
284.501
293.568
295.195
289.53
303.12
303.017
283.15
283.15
301.013
283.692
283.15
303.149
303.15
303.15
283.15
294.519
303.15
283.15
302.978
303.15
303.15
283.793
303.15
303.15
288.389
289.542
303.15
283.15
303.15
283.15
303.15
303.15
303.15
303.15
283.945
303.15
303.15
303.15
302.927
303.15
303.15
283.15
283.15
283.15
283.15
302.94
283.15
283.15
300.957
303.15
284.766
284.926
303.15
301.115
303.15
283.15
303.15
283.15
283.15
303.15
303.15
303.15
302.659
303.15
303.15
303.15
283.15
303.15
283.15
286.363
303.15
303.15
291.618
303.15
283.15
283.15
302.414
303.15
303.147
283.15
303.192
286.649
283.15
283.15
299.191
283.15
283.15
303.046
303.161
293.318
303.167
303.151
303.152
283.15
283.15
302.642
283.452
285.819
300.834
283.157
283.15
291.037
301.558
301.455
283.15
300.204
290.692
300.133
302.199
302.741
284.679
295.464
299.196
286.253
293.284
300.092
303.15
297.948
297.549
302.786
283.658
292.339
301.134
287.33
303.15
301.042
303.15
300.71
301.486
283.631
284.971
303.15
283.15
302.275
301.68
283.146
303.173
288.546
302.673
301.826
300.814
303.15
303.231
301.115
295.055
300.416
288.935
302.908
301.625
302.184
302.266
284.209
302.498
301.583
283.178
303.15
302.893
303.15
303.15
302.09
301.996
294.251
303.15
284.661
292.309
292.324
300.898
303.15
284.006
285.184
284.387
303.15
298.759
303.15
296.361
295.363
300.741
303.142
303.15
303.15
301.936
301.252
302.782
303.15
292.603
302.741
289.943
283.15
298.337
293.983
303.15
300.499
283.15
283.203
283.15
302.57
303.097
303.15
302.979
298.372
283.148
300.488
302.215
295.317
283.535
295.839
297.051
283.459
303.133
284.729
296.311
283.319
296.839
300.493
300.236
300.341
301.997
289.798
301.566
303.15
302.714
302.644
302.647
296.49
302.881
283.15
302.007
293.422
303.15
283.433
286.837
301.185
302.595
290.518
284.817
287.696
302.619
296.367
303.15
303.15
295.002
283.15
292.674
283.43
303.15
290.559
290.302
283.91
303.15
297.276
298.484
284.221
301.228
294.164
290.17
300.526
303.106
303.15
303.15
283.529
302.608
283.348
285.785
303.15
303.016
303.036
303.15
285.411
300.787
297.829
283.245
299.555
302.368
300.5
286.889
283.15
303.106
301.813
283.735
283.137
303.15
303.072
303.15
303.15
284.174
302.525
296.363
283.035
283.153
303.15
283.15
302.948
303.043
302.497
301.399
303.15
283.15
283.15
301.81
301.867
283.214
295.866
303.15
303.15
301.607
285.484
283.258
301.67
301.771
301.72
284.404
303.15
283.15
298.447
297.747
303.15
302.7
302.077
284.699
284.965
302.107
303.053
303.15
298.126
284.429
283.15
303.15
300.572
301.204
302.01
289.604
302.069
285.65
300.128
300.266
290.332
297.517
303.15
303.15
300.925
284.457
302.087
283.151
300.494
301.702
283.621
288.296
302.417
283.15
283.15
283.029
303.15
303.15
299.927
298.93
302.283
283.147
283.15
283.932
283.151
283.15
283.151
303.074
300.922
299.163
295.868
283.367
303.097
300.126
303.15
283.15
302.554
289.225
300.773
292.694
283.503
303.06
283.148
283.15
302.835
301.197
302.612
283.156
291.278
284.866
303.15
284.257
301.032
283.15
283.309
284.934
284.158
283.15
283.15
301.628
283.15
289.365
302.525
302.702
301.773
283.48
298.285
290.014
283.15
303.342
292.084
283.15
283.15
283.15
303.15
301.197
302.41
299.163
301.461
299.911
288.848
283.155
290.986
290.159
303.058
291.078
299.977
292.059
283.15
286.29
301.076
301.535
283.15
283.975
299.631
283.15
303.15
283.187
301.273
303.15
284.017
302.255
303.019
303.15
283.15
292.792
303.153
301.686
283.15
283.15
283.15
302.192
297.56
303.143
302.19
303.166
303.15
288.373
303.166
290.434
300.218
300.178
296.582
283.156
301.694
283.15
290.588
301.404
289.448
290.484
298.97
300.683
301.591
287.174
291.142
285.016
283.172
302.214
286.128
283.15
283.144
300.201
283.079
300.292
286.992
296.05
299.422
289.196
299.264
283.121
299.13
283.15
289.999
289.052
298.656
283.329
283.15
300.566
283.15
302.798
283.15
303.15
286.485
286.483
283.15
298.979
298.552
287.042
303.15
303.15
301.727
289.786
302.997
283.725
301.571
287.086
303.147
284.191
288.197
303.15
301.42
283.15
283.15
287.563
287.023
283.145
285.245
301.49
286.239
301.171
303.15
285.111
301.74
291.189
303.15
303.15
301.612
302.042
303.15
293.019
294.278
283.678
296.383
286.787
290.015
303.15
302.778
297.002
285.013
283.15
287.724
291.904
299.643
283.163
283.747
282.945
301.944
303.116
283.151
303.133
303.15
300.562
293.062
298.802
293.829
283.15
291.94
295.974
285.593
283.21
291.589
283.15
300.261
303.164
292.541
284.097
303.144
291.853
298.604
288.233
300.347
291.329
287.32
283.15
303.142
285.346
289.884
293.474
283.15
283.15
283.15
303.141
283.15
283.137
286.428
303.15
283.15
303.167
283.172
291.105
288.96
303.53
302.911
289.859
303.15
296.967
303.176
301.997
287.26
283.15
292.912
303.145
303.094
286.187
283.15
283.15
283.474
286.017
303.053
303.144
287.509
289.473
283.48
283.162
289.851
293.208
303.15
283.15
303.096
303.15
302.327
285.011
302.334
303.093
284.055
283.77
284.034
302.85
302.178
297.386
293.976
303.07
291.272
291.027
303.15
303.097
302.58
285.434
283.377
303.15
285.94
283.384
302.93
301.663
302.17
283.15
300.323
301.843
303.15
302.15
285.408
303.15
297.885
303.15
283.15
300.672
302.682
286.332
302.485
283.15
285.162
303.01
283.15
302.304
285.372
294.87
284.338
303.15
303.016
302.871
286.502
283.15
287.122
284.249
289.779
285.725
302.245
303.15
283.15
283.15
293.126
283.15
301.04
302.156
290.359
283.15
294.017
283.15
303.15
283.15
300.05
298.544
283.151
285.272
301.718
303.074
303.156
291.832
294.18
301.193
283.208
301.792
283.145
303.15
303.141
299.023
283.15
300.843
294.75
303.15
300.938
287.306
301.945
284.895
288.197
283.15
302.216
287.727
298.401
303.074
283.15
303.15
291.631
302.155
283.077
283.147
286.739
298.322
303.149
284.483
301.018
300.99
301.244
303.153
299.874
287.641
284.92
301.573
299.878
283.725
283.104
303.16
303.149
303.15
297.323
283.163
283.15
303.15
303.149
289.899
298.897
300.266
287.775
302.798
303.15
286.425
301.545
303.15
300.945
283.795
301.445
303.15
284.535
301.373
295.497
302.762
303.15
303.15
285.168
295.033
296.343
287.37
303.15
303.15
283.15
287.204
302.397
296.132
303.15
285.542
303.15
303.15
300.442
288.705
283.15
295.517
295.843
299.055
283.15
303.15
292.654
287.212
303.15
297.921
300.479
300.385
303.15
303.15
303.15
300.192
298.293
302.797
299.86
283.15
292.864
287.659
290.572
300.552
303.15
303.15
300.731
303.096
286.546
296.07
303.15
303.147
283.15
286.426
298.896
285.571
303.15
303.15
283.34
303.122
303.15
303.15
283.15
290.5
303.15
303.15
284.568
299.262
283.15
303.15
284.614
301.308
300.143
286.974
294.915
303.15
283.492
303.15
303.15
283.311
300.51
290.375
300.374
303.15
303.129
302.171
292.613
299.773
301.343
284.444
283.452
300.823
298.355
303.15
302.745
284.124
299.698
301.358
287.67
303.15
297.392
301.387
301.474
301.514
292.865
303.15
283.15
299.163
283.15
283.15
287.733
283.15
284.001
283.15
283.15
283.15
283.15
302.75
288.128
302.697
283.15
295.654
290.912
284.724
283.15
303.15
302.672
301.726
303.162
302.63
283.15
294.766
300.238
290.146
283.15
283.15
299.793
285.924
283.15
283.15
303.149
290.545
283.15
287.122
303.149
303.152
284.307
283.15
288.172
292.392
300.776
294.569
302.955
285.608
302.494
295.214
286.254
283.15
283.534
291.593
303.073
289.095
302.65
283.15
292.341
287.729
301.005
301.242
284.877
303.105
284.89
297.03
302.981
303.146
285.12
303.145
303.003
293.271
302.67
283.15
303.15
303.15
294.727
291.01
283.155
301.081
284.672
284.144
284.605
303.145
288.328
300.432
283.15
283.15
302.498
303.15
294.528
302.897
303.182
299.787
303.222
302.879
283.15
301.265
302.875
283.15
303.15
301.293
303.15
284.297
298.73
283.163
291.496
283.15
287.559
303.011
299.716
283.15
303.022
290.879
301.176
303.126
303.078
283.15
283.15
301.921
301.984
283.794
302.805
302.407
302.361
303.141
283.15
293.671
283.15
302.782
287.842
302.985
303.15
283.15
302.816
285.1
291.446
302.029
283.15
302.576
301.977
301.546
302.476
303.044
303.211
303.008
303.15
283.15
301.498
297.779
303.086
303.15
289.89
284.872
303.15
283.15
285.289
303.184
303.165
302.915
301.114
284.253
303.096
290.632
294.185
303.148
289.008
303.164
283.15
289.803
283.15
299.928
298.085
284.761
288.145
299.584
296.623
295.247
299.134
293.723
303.153
293.784
296.34
283.16
299.346
293.814
303.15
298.863
299.101
303.15
291.137
303.172
301.659
303.15
286.9
286.009
302.795
289.633
283.15
283.15
300.328
301.114
283.713
283.15
303.15
300.196
302.308
300.586
299.83
302.78
292.536
289.602
286.609
292.448
284.297
290.359
283.303
295.655
290.392
293.886
287.053
284.27
303.163
283.271
303.148
285.581
300.693
283.151
300.365
298.353
288.707
302.085
285.379
299.037
283.15
302.949
283.154
283.116
287.634
299.626
303.15
300.323
303.017
299.893
302.755
303.15
301.233
284.942
294.871
302.033
303.149
283.703
283.15
290.256
285.226
285.736
303.129
303.148
283.15
283.15
283.176
303.15
293.418
303.15
303.149
294.227
303.433
303.15
300.394
303.15
303.15
293.624
290.567
303.15
289.795
302.042
289.52
303.15
303.15
285.918
283.332
290.28
303.225
303.15
303.145
285.454
283.244
283.15
288.944
287.563
303.15
284.296
303.15
303.15
303.132
287.305
303.15
303.147
283.275
303.152
302.656
287.884
283.152
283.594
297.288
290.699
303.15
285.917
284.416
301.303
287.082
302.198
290.548
293.811
303.15
303.15
284.003
303.148
302.943
295.827
302.938
302.735
287.145
283.15
285.296
283.217
297.081
302.578
285.357
303.15
283.788
286.692
303.124
283.175
303.15
286.36
283.15
300.092
303.15
299.69
299.854
283.252
283.358
302.315
290.79
301.309
303.15
301.374
301.725
303.15
303.15
298.292
293.366
283.15
288.736
303.15
295.173
283.355
303.15
296.851
298.666
288.949
303.15
302.752
294.155
295.318
284.454
303.161
298.63
296.062
283.972
303.123
302.796
287.341
298.382
289.783
290.759
289.701
283.15
302.94
303.152
303.15
303.175
293.026
296.25
302.973
301.268
303.15
284.44
303.15
303.04
302.853
303.15
293.498
296.184
303.15
285.361
303.095
303.15
303.088
303.158
286.044
293.277
291.071
288.369
293.36
303.15
301.18
291.368
295.309
293.412
303.141
303.15
300.528
303.189
284.233
303.19
303.15
303.15
303.143
303.15
284.926
303.15
284.213
303.146
303.15
290.181
303.144
292.424
295.467
303.133
295.266
285.972
283.443
303.124
302.932
284.664
283.15
297.062
303.15
285.488
302.909
302.021
303.016
298.374
287.03
303.15
298.649
289.863
299.31
283.15
283.609
303.15
303.145
303.19
294.02
303.15
292.384
289.302
303.195
303.15
284.776
298.707
293.169
299.539
302.464
301.57
300.346
303.15
284.705
296.9
302.355
285.567
298.302
292.237
284.456
291.589
303.15
286.619
291.771
290.095
299.395
303.15
286.429
284.079
303.15
302.415
288.109
302.088
283.15
303.15
299.789
301.674
288.954
301.966
301.896
301.79
303.15
289.276
285.115
301.944
302.222
297.094
303.15
283.201
303.15
301.967
303.15
302.793
303.15
291.624
303.15
296.453
283.15
289.409
303.15
283.15
292.154
301.415
300.373
289.163
300.453
303.15
302.484
303.15
302.358
285.19
303.15
300.36
290.356
303.15
300.767
303.15
303.15
293.14
283.15
285.527
293.177
300.885
303.15
291.122
293.802
288.147
289.621
288.08
299.181
300.23
300.757
287.344
287.075