/*--------------------------------*- C++ -*----------------------------------*\
  =========                 |
  \\      /  F ield         | OpenFOAM: The Open Source CFD Toolbox
   \\    /   O peration     | Website:  https://openfoam.org
    \\  /    A nd           | Version:  10
     \\/     M anipulation  |
\*---------------------------------------------------------------------------*/
FoamFile
{
    format      ascii;
    class       volScalarField;
    location    "114";
    object      SgP;
}
// * * * * * * * * * * * * * * * * * * * * * * * * * * * * * * * * * * * * * //

dimensions      [1 -1 -3 -1 0 0 0];

internalField   nonuniform List<scalar> 
59698
(
0.00309511
0.00183544
0.00231272
0.00271413
1.14702e-06
0.00145199
0.00249692
1.07367e-07
1.9871e-09
3.93688e-09
0.000586479
1.77899e-09
1.57963e-09
0.00228616
2.78089e-08
4.29004e-07
9.4071e-09
3.81146e-09
1.64495e-09
5.95903e-10
0.00036559
1.56162e-06
0.000499842
8.81925e-08
1.99526e-07
1.19905e-09
1.18709e-09
0.00248149
0.00239425
2.15741e-09
1.35442e-07
0.000600653
6.67353e-08
0.00403436
1.11295e-06
3.80716e-09
0.000464896
5.04904e-07
1.73297e-08
0.00245308
2.96011e-08
2.30475e-07
2.31096e-08
2.46211e-08
0.000402108
1.0475e-07
2.67037e-09
4.88658e-08
0.00290838
3.14646e-08
2.95304e-10
2.3333e-09
0.00172823
0.00272937
0.00216825
2.04592e-09
8.45213e-08
1.54785e-08
1.76838e-08
2.76358e-05
0.00178289
6.27644e-08
1.98731e-07
1.52539e-09
4.98288e-07
4.17078e-08
1.75218e-09
3.23437e-09
4.19666e-09
6.77154e-09
6.034e-07
2.79084e-08
0.000360242
1.73187e-06
0.000411943
1.10102e-06
2.15857e-08
2.19581e-08
6.39838e-09
1.00722e-08
4.80342e-07
9.80953e-10
4.05249e-09
8.05949e-09
1.68985e-05
3.14832e-08
9.13439e-09
2.22816e-07
2.34518e-06
2.31771e-08
4.50359e-09
6.35634e-08
1.70793e-07
6.53088e-09
6.06839e-08
0.00359104
1.35869e-07
6.19356e-08
4.99934e-08
8.59121e-10
0.00353752
2.08144e-05
2.95469e-07
0.0032925
5.41835e-08
0.000564777
2.33747e-09
2.27699e-09
2.66861e-09
4.41071e-10
3.64263e-08
2.63805e-06
1.35499e-06
1.56279e-07
9.75529e-08
3.45668e-08
3.4913e-07
0.00353382
2.92637e-07
1.15111e-08
2.27399e-09
2.98944e-07
2.25173e-07
3.35667e-09
1.62484e-09
7.97074e-09
8.37988e-09
7.20069e-09
1.26025e-08
3.86443e-07
0.00335607
3.8647e-09
1.10452e-09
1.83055e-07
6.32434e-08
3.2235e-09
4.91697e-07
2.64204e-10
1.7287e-09
5.67363e-09
2.0861e-08
0.00231724
0.0025209
1.57969e-09
1.90711e-07
7.94308e-10
5.35042e-07
3.78879e-07
0.00448816
7.05413e-07
0.000257387
0.000434379
2.77949e-08
2.54756e-07
9.80596e-09
1.04547e-07
7.44591e-09
0.00162892
6.71507e-08
5.36511e-10
3.10669e-09
7.71596e-09
2.21611e-08
9.68072e-08
1.89468e-08
0.00222851
1.06267e-09
0.000567235
0.00152531
6.91215e-09
2.561e-07
1.45275e-06
2.17905e-07
9.27531e-07
5.77778e-07
0.00121902
4.37562e-09
0.00139555
0.000326014
0.00293205
2.25327e-06
7.42509e-07
4.01532e-07
1.12394e-08
2.49702e-07
6.79279e-08
3.70749e-07
0.00238041
1.36436e-10
1.8374e-08
6.44488e-09
7.04829e-09
2.30696e-08
6.05434e-07
1.21892e-07
0.00416754
1.74844e-06
0.00294429
1.26382e-05
9.08153e-08
0.000227096
6.75951e-07
1.48697e-09
2.55248e-09
0.00356757
0.0024469
3.59379e-08
0.00205808
0.00270775
0.00350291
0.00242678
6.10997e-09
0.00262747
1.56705e-08
2.34662e-09
0.0033671
9.87321e-09
4.5467e-08
1.54995e-07
4.65692e-09
1.3694e-05
0.0021743
1.72646e-09
5.10136e-07
8.93066e-09
0.00274673
2.1238e-08
5.47914e-09
4.88111e-08
6.82469e-07
7.56133e-09
1.87063e-08
7.43765e-09
1.13908e-08
9.55072e-09
9.10681e-09
3.08283e-07
1.9525e-08
1.7644e-07
8.1979e-09
0.00261371
1.19043e-07
3.43478e-08
0.000664542
8.67368e-09
2.15097e-07
2.29132e-05
3.47347e-06
5.28523e-09
4.92897e-09
6.172e-08
6.17052e-09
3.07498e-08
0.000233555
1.93206e-08
0.00169894
1.09848e-07
5.43085e-08
0.00314712
2.88054e-09
7.05944e-06
1.81826e-09
7.83299e-09
0.00270862
0.00357786
8.56693e-07
1.087e-09
1.07245e-07
1.98144e-08
6.05952e-10
3.11953e-09
1.53515e-06
6.89884e-05
6.63603e-10
1.24677e-07
5.01567e-08
0.00146581
3.98196e-08
2.92165e-09
1.21477e-09
0.000574133
1.77153e-09
1.66039e-09
4.68721e-07
0.00334901
1.02319e-07
5.26605e-09
0.000647414
3.81869e-07
1.00798e-07
2.61733e-06
0.00232505
9.2617e-09
1.35256e-09
7.03767e-07
0.00273245
4.74097e-10
1.52283e-07
1.44907e-08
6.43357e-07
3.07576e-09
2.34228e-09
6.86711e-08
5.6945e-10
1.11962e-09
1.16702e-09
3.61674e-07
2.19416e-08
5.35069e-09
5.34498e-10
0.00190121
4.08881e-08
3.52482e-09
2.38011e-08
0.00191498
5.61038e-09
0.00040339
8.31067e-09
0.000829309
8.51809e-08
9.53033e-08
2.82623e-07
1.67483e-08
2.96199e-09
1.60612e-06
2.54833e-07
1.60798e-08
8.70476e-09
4.36343e-10
0.000361923
0.00289874
4.02107e-08
3.58482e-07
2.43119e-06
0.000430954
1.0359e-08
7.76359e-09
4.28155e-09
1.40009e-07
0.00122085
2.13453e-08
0.00206207
0.00250593
4.95423e-09
1.00362e-07
1.36753e-09
2.67739e-10
1.24707e-06
1.34628e-09
0.00203387
9.29946e-10
1.45767e-08
1.25364e-06
7.95689e-10
9.20737e-07
0.00191629
2.68992e-06
1.44071e-08
3.30444e-08
1.82741e-09
2.10042e-08
1.08747e-08
1.10601e-07
3.59235e-09
1.11778e-10
1.04126e-07
0.00279684
0.00201716
2.81855e-08
9.87195e-07
1.13257e-07
0.00053399
0.00366891
0.000651143
2.09482e-08
2.97303e-09
3.63123e-08
2.0389e-09
0.000460524
2.48851e-09
0.000347123
4.46143e-08
4.28764e-08
5.15497e-08
8.52043e-10
6.7688e-06
1.09031e-08
0.000544826
8.06378e-10
3.38995e-08
2.07773e-08
0.000457497
0.00330051
3.25609e-09
5.36305e-05
0.00179785
3.75627e-06
0.0018271
0.00269777
8.14747e-08
0.00243862
0.00236498
0.0025738
5.41775e-09
0.00148346
0.00417843
0.00383929
0.00276259
5.87031e-09
8.24251e-07
1.88159e-07
0.000404302
0.00163743
0.000434529
4.70188e-10
2.07848e-07
2.00159e-09
2.24294e-06
0.00189705
0.00175659
0.00292194
0.00218234
0.00249158
0.00166472
7.81011e-09
2.04854e-09
7.77435e-09
1.58909e-08
0.00138453
5.55531e-10
7.79608e-09
0.00196035
0.00116524
2.3468e-08
3.70696e-08
1.41921e-08
1.38869e-08
0.00126534
3.3408e-09
0.00211843
1.92324e-07
0.00321066
5.04987e-09
4.39955e-08
1.86342e-07
2.03214e-06
8.72241e-08
4.51935e-10
2.13839e-09
1.29032e-07
0.0025433
6.60126e-09
7.33261e-08
1.97009e-06
6.15851e-07
1.15091e-07
3.4181e-07
1.38862e-09
1.15318e-06
1.65069e-07
6.1192e-08
4.61568e-09
0.00320819
6.41718e-09
2.19279e-09
2.01393e-07
3.50805e-07
9.26858e-09
4.475e-08
6.15876e-09
0.00247474
4.41226e-09
2.12353e-10
6.89977e-09
6.32914e-08
2.04188e-06
8.23214e-07
2.19994e-09
0.00300904
0.00194622
2.345e-08
2.10275e-07
1.59316e-08
1.95135e-08
2.52788e-07
4.1194e-08
4.44308e-08
1.97189e-08
1.61431e-09
1.65261e-09
2.5076e-07
4.06777e-07
3.91849e-10
4.23667e-08
0.00402049
2.12781e-07
1.53542e-08
0.00236662
3.71022e-08
0.000365619
9.75133e-10
1.18929e-07
2.04282e-07
1.21158e-08
1.71098e-08
1.12033e-09
8.17002e-08
2.17256e-09
5.2502e-09
8.27632e-09
5.75868e-09
7.87888e-09
1.35074e-06
5.41925e-08
1.60316e-08
2.67475e-09
6.86892e-09
1.00364e-08
7.04382e-08
2.48127e-08
1.71172e-08
3.46982e-09
5.0674e-09
3.85642e-09
2.18805e-09
6.31601e-06
3.29943e-08
2.81025e-09
0.00339747
0.00370795
2.91332e-09
0.00384739
1.82772e-08
5.466e-09
0.00145127
3.56344e-10
1.35535e-08
0.00178826
1.87346e-09
0.000384884
4.29697e-08
2.57163e-09
4.50525e-08
3.00435e-06
1.48492e-08
5.2456e-09
8.93818e-06
0.000167099
1.87584e-08
7.43529e-06
1.83068e-08
2.28615e-09
3.08612e-08
1.91134e-09
5.05552e-09
1.45173e-08
1.92452e-08
1.61925e-08
2.58678e-09
2.22766e-09
0.0007685
1.73712e-09
1.65836e-08
1.01039e-05
1.51438e-08
1.80892e-09
1.2131e-06
2.24762e-08
8.55717e-09
0.000539255
7.7861e-10
7.61348e-09
1.98636e-07
1.57477e-09
4.39547e-08
1.31579e-09
3.14781e-10
4.40796e-10
0.00200339
2.31362e-09
0.000732636
3.91733e-08
0.00320748
1.49559e-08
3.28791e-09
0.00031336
1.14668e-09
1.35933e-08
1.79522e-08
1.63942e-08
1.99018e-09
0.00316743
8.11568e-09
1.68527e-08
8.51451e-10
4.13787e-08
9.24506e-07
0.00264911
0.000349775
7.33385e-09
7.93743e-09
1.64028e-09
2.84742e-09
0.00337493
1.35381e-08
4.42952e-09
2.482e-09
0.00108737
0.0038561
1.53989e-08
1.2626e-08
1.56777e-09
1.15094e-08
4.28217e-09
4.11883e-09
5.15194e-09
4.90222e-09
3.63346e-08
7.83597e-05
7.31266e-09
5.04299e-09
7.86017e-09
1.82238e-08
2.53596e-05
0.00241928
1.09512e-08
0.0026635
1.63107e-09
8.77962e-09
4.32643e-09
0.00269464
0.000211215
9.63604e-10
8.41311e-09
7.2274e-10
2.86105e-08
6.32283e-09
2.85963e-09
0.00151549
0.00323691
1.26989e-07
1.62471e-07
0.000607899
1.45269e-09
5.18609e-09
1.60535e-09
4.11837e-07
0.00210672
3.38551e-08
1.75567e-09
0.000439477
7.67859e-09
3.19018e-08
3.32467e-09
2.38192e-09
4.35985e-09
9.29889e-10
7.57996e-06
1.01915e-09
0.00182037
5.06444e-08
1.1203e-07
6.79769e-09
1.54287e-06
3.3734e-06
5.37832e-09
2.07867e-08
0.00230812
0.00311018
7.31413e-08
3.8664e-09
7.58448e-07
1.55687e-09
0.00343736
3.12774e-10
1.95833e-08
0.000428463
0.00255399
4.20207e-09
1.60714e-09
1.96499e-07
5.89854e-07
3.53427e-07
0.0003781
0.00139637
1.13614e-10
6.60865e-09
7.96151e-10
4.64379e-09
0.00277526
2.71801e-08
0.00303019
1.0121e-08
0.00131534
0.00209608
0.00236432
6.18933e-08
4.11763e-09
0.000650595
1.27169e-09
2.30778e-10
1.00544e-09
4.35468e-09
1.81556e-08
4.55166e-09
1.50196e-09
9.17566e-08
6.73266e-08
7.52135e-09
2.72238e-09
0.00186398
4.18289e-08
3.58863e-08
0.000362162
9.62235e-09
3.49009e-08
3.8192e-08
1.94687e-09
1.39145e-09
0.000646938
0.00196277
0.00241491
3.882e-09
1.11492e-08
7.00334e-09
1.63735e-07
0.00194534
1.33421e-09
5.69126e-07
2.58926e-08
1.32196e-05
0.000344566
0.00169862
2.25599e-07
1.4816e-07
2.24227e-08
0.00430842
0.000532165
1.88434e-08
8.95407e-07
3.50424e-09
6.81919e-08
3.45128e-06
0.00231952
2.45348e-08
1.2064e-07
1.01645e-07
1.58596e-05
2.46366e-08
0.00185623
2.48401e-09
5.1621e-08
1.16445e-08
0.00213078
7.39933e-10
6.3527e-09
2.06953e-07
4.48241e-06
0.000599777
1.09264e-07
7.05022e-08
0.000383644
4.16057e-08
2.57228e-09
0.00190614
0.00219655
5.43514e-09
7.57069e-09
0.000401563
1.0184e-08
1.76e-08
0.000373922
3.51083e-10
0.00265404
2.56343e-09
1.93075e-08
1.81568e-07
4.0066e-09
3.97633e-08
3.56673e-08
5.00758e-05
3.75464e-09
6.14281e-09
7.10516e-09
1.17189e-08
9.70814e-08
1.55141e-08
0.000326092
6.86722e-09
2.0406e-08
0.00140035
5.74105e-08
9.83544e-08
8.57991e-06
0.00187028
2.40356e-06
0.000541559
7.05221e-09
0.000383176
1.5932e-08
4.20315e-09
1.69482e-09
0.00314076
3.7874e-07
3.25212e-08
7.11727e-05
6.4354e-08
0.00157968
1.65611e-07
9.87117e-06
3.555e-09
0.00100439
3.1574e-09
0.00130376
5.37571e-05
2.44332e-07
0.000651796
0.00179453
1.22368e-06
1.10413e-05
4.11045e-09
1.12522e-06
2.50903e-08
4.07905e-05
0.000444808
0.00042876
0.00211174
3.52791e-08
3.21572e-08
0.000561237
4.59318e-08
0.0022771
6.8972e-10
0.000401154
2.28383e-09
2.67268e-09
2.94011e-05
0.000503651
0.000206193
0.000108605
7.69255e-09
5.05816e-09
2.12509e-09
0.000487192
2.18897e-09
0.00350803
0.00473696
2.46597e-09
0.000499725
2.07524e-09
9.65058e-10
2.91894e-09
3.23792e-06
0.000469634
2.90396e-09
1.31115e-09
1.05392e-06
4.46185e-09
1.12217e-07
3.78364e-09
2.99321e-09
8.86649e-08
2.63802e-07
3.12549e-08
1.0411e-08
0.000532567
8.06143e-10
0.000127622
2.68299e-10
2.51146e-09
0.00124249
1.52506e-09
7.75721e-06
8.98221e-08
7.43487e-09
0.000108823
1.25351e-08
0.00157162
2.72382e-08
4.60741e-10
0.00174583
5.69592e-09
1.13302e-08
0.000307133
1.24304e-09
0.00205968
1.69425e-08
1.42e-09
0.00422995
3.05667e-09
5.51884e-09
1.49698e-08
1.63751e-08
0.000319936
8.65608e-09
5.59594e-09
1.65078e-07
0.00180902
0.000633469
0.000584059
2.24792e-08
1.77253e-09
0.000379941
0.00237001
6.77045e-09
8.57808e-09
5.57579e-08
1.16351e-08
2.86121e-09
2.56347e-08
0.000412244
0.00144847
0.00262297
1.49195e-07
2.039e-09
0.00267082
0.00400967
0.00520962
5.09008e-08
1.80489e-08
1.57642e-07
4.39666e-07
1.80989e-08
2.57438e-08
7.87235e-07
2.81439e-08
7.50923e-09
8.16745e-09
1.35067e-06
7.16265e-08
7.37312e-09
0.00254236
1.70327e-09
6.02697e-08
1.87569e-08
2.82294e-08
6.4956e-09
3.88109e-10
0.000761136
1.88886e-08
3.11812e-09
0.00193673
1.90746e-08
2.39614e-08
0.00316676
2.93862e-08
3.33927e-07
5.70038e-09
1.99492e-08
2.43367e-08
0.000826004
3.04104e-08
0.00220048
1.82791e-07
1.98627e-07
3.66317e-08
0.00533112
0.000295136
4.59794e-09
5.47689e-09
9.92114e-07
1.45117e-09
1.11745e-08
8.53089e-09
0.0016735
1.17104e-09
2.292e-09
8.17829e-09
2.46916e-09
3.57577e-08
2.37828e-08
7.52288e-09
0.000429221
0.00219281
0.000466221
6.29532e-08
0.00314142
0.00256279
5.61519e-08
1.76014e-09
0.00183297
6.44246e-06
0.00154632
0.00208216
0.00203128
3.32428e-09
5.88818e-08
0.0023783
1.94846e-07
3.375e-08
1.89714e-07
2.6444e-08
0.000443782
2.08515e-08
0.000538421
1.69051e-05
2.57484e-08
0.00196182
2.00357e-08
0.000608723
6.8682e-09
1.72935e-08
1.19036e-09
4.00186e-08
0.00153624
0.00364925
1.28133e-09
0.000395621
0.00188713
0.00135367
0.00278173
5.67371e-10
1.01262e-08
1.1753e-09
0.00355326
7.6931e-10
1.29727e-07
0.00356026
5.31897e-09
0.00346989
0.00351542
0.00366741
1.54772e-08
5.72475e-08
4.62483e-08
8.75812e-09
1.10707e-08
6.14096e-08
1.26587e-08
5.21178e-09
0.000475238
4.12586e-09
3.70852e-08
2.76049e-07
5.70436e-10
0.00162324
2.92226e-08
4.6272e-09
6.66161e-08
2.68546e-10
7.00715e-08
3.90581e-09
2.02954e-07
0.00306604
3.11838e-05
8.89471e-10
1.56294e-08
0.00210097
0.00314924
1.78078e-07
0.000760563
9.982e-09
7.82967e-09
0.00257378
2.21832e-08
0.00322075
0.000542246
1.04735e-09
7.34351e-08
0.000765799
1.67663e-08
2.51443e-08
0.0025017
6.36768e-09
1.35982e-08
3.12275e-09
0.000534602
3.14391e-06
0.00193138
1.83269e-07
9.37695e-09
0.00175022
1.30352e-07
2.56551e-10
5.96994e-06
2.18788e-09
7.21083e-07
0.00129386
2.69187e-09
9.41787e-10
1.13453e-08
5.82873e-09
1.54786e-08
5.86857e-09
1.267e-08
1.00025e-06
9.58898e-10
1.2482e-09
0.00169856
4.66015e-09
5.23734e-06
2.93029e-08
4.47375e-06
1.33097e-06
1.17205e-06
5.365e-06
1.25695e-06
5.34377e-09
1.65884e-08
0.00100313
3.04446e-06
2.49398e-08
2.2647e-08
2.49428e-08
0.00044909
1.36549e-06
7.88277e-08
2.28821e-07
3.45988e-09
0.00226299
4.73867e-09
1.22725e-08
2.08769e-08
1.18509e-08
2.99188e-08
0.00212686
5.58938e-08
2.40597e-08
1.86666e-08
4.76283e-09
0.000477735
2.25055e-09
5.1723e-09
3.35638e-08
2.49168e-10
1.4092e-09
6.12751e-09
9.36345e-09
1.37641e-08
0.000334025
1.14045e-08
1.317e-08
2.51108e-09
2.00292e-08
1.2433e-08
1.00835e-08
5.84595e-08
0.000380629
0.0024247
1.54465e-08
7.87759e-09
0.00284484
1.6445e-09
4.30092e-05
0.00202996
4.95898e-09
7.12386e-07
1.52968e-06
0.00186657
2.19557e-08
3.1872e-08
2.17528e-07
1.73738e-05
8.68895e-07
2.12991e-07
1.40141e-09
3.75771e-09
4.27045e-07
1.09165e-07
5.39782e-09
1.52401e-09
1.23178e-08
7.53631e-09
3.00954e-06
0.00129376
6.40835e-08
3.58294e-08
5.10661e-08
0.00264628
0.00244629
9.24145e-07
1.51422e-08
3.26244e-08
4.01442e-08
4.46338e-09
2.89601e-09
1.81484e-07
4.22165e-09
3.45826e-08
2.03273e-09
1.2679e-08
2.26785e-08
3.323e-09
4.15699e-07
2.79899e-09
0.000434431
9.5022e-08
0.00394809
0.00165204
1.1239e-07
2.13743e-08
0.000579702
0.00034517
2.78271e-08
2.34558e-08
9.23545e-06
2.32062e-09
1.88042e-09
2.35538e-08
1.73008e-08
0.000781454
0.000646991
9.57702e-09
1.18151e-08
7.73506e-09
3.33318e-07
5.10692e-08
0.00267068
0.000496403
1.48933e-08
0.000238787
7.04253e-09
0.000315407
0.000227603
0.000223583
2.8187e-08
1.04937e-07
1.77023e-09
1.01726e-07
2.53898e-08
0.00240355
4.88579e-09
4.13284e-08
6.91081e-09
7.70309e-08
2.27484e-05
0.00194504
0.00227798
2.2527e-08
2.97784e-08
0.000377607
3.99452e-08
1.03778e-06
1.04324e-08
0.00304786
4.0721e-08
2.27204e-08
8.53419e-06
0.002623
6.84349e-08
2.28492e-08
0.00131292
2.01393e-08
4.65261e-10
1.39225e-09
4.45969e-09
3.16587e-08
1.32896e-08
6.35599e-10
2.24192e-08
3.72135e-08
1.14981e-08
6.06323e-08
1.84701e-08
5.51816e-07
0.00191139
2.79967e-09
1.57148e-08
5.63964e-08
0.00200075
8.72178e-07
2.00573e-08
0.000375151
2.86332e-09
2.25158e-07
1.46347e-07
0.000983774
3.60339e-07
3.20027e-10
1.22031e-07
1.40074e-08
1.22677e-07
4.98111e-08
2.94013e-09
1.52977e-07
6.88492e-09
8.69711e-08
7.82849e-10
0.000584267
5.05456e-08
0.00207399
1.32729e-09
6.34496e-08
2.15509e-06
1.07312e-08
5.27872e-06
4.80453e-09
6.71968e-10
2.4549e-07
4.18444e-08
4.85472e-09
1.73669e-05
6.10931e-08
7.4209e-08
0.000547251
2.98888e-09
0.000563699
3.16179e-08
2.27121e-09
7.69019e-09
5.79308e-09
1.98167e-08
3.90299e-07
3.13528e-07
1.50798e-07
0.00237872
2.13519e-07
0.0039323
0.00209525
0.00329168
8.49464e-08
2.15045e-07
0.00143513
3.81846e-09
2.47856e-08
2.97677e-08
0.00237006
9.80317e-09
0.000635586
0.000492194
2.77145e-09
0.00262596
5.03034e-06
0.00263994
1.89009e-08
0.0024964
5.58883e-08
0.000340315
1.64346e-09
3.84459e-09
4.2734e-08
0.000746794
7.68114e-07
4.15668e-10
2.68478e-08
6.33995e-10
0.000532962
0.000313631
5.70033e-08
0.00190926
4.56024e-07
0.000544668
3.19426e-08
5.58843e-10
6.08939e-09
2.599e-09
8.93607e-08
2.04112e-05
5.69445e-09
1.35023e-06
4.44417e-08
4.21683e-08
4.66412e-09
9.87335e-05
2.24355e-07
1.87097e-09
6.38998e-09
0.000432448
1.09641e-06
7.80418e-08
0.00152073
1.76521e-06
1.48496e-06
7.4146e-09
8.59692e-09
3.90701e-09
0.000681378
2.69539e-08
5.43074e-09
1.50358e-08
3.63657e-07
9.99012e-07
2.06598e-07
1.82218e-09
3.16089e-06
6.69894e-07
7.49319e-09
5.97876e-09
5.51392e-06
2.51726e-09
5.14574e-09
0.0023871
0.00220926
6.17401e-08
4.49525e-09
1.14535e-09
3.33779e-08
0.00192983
2.58307e-07
1.36852e-06
5.46456e-10
5.49621e-07
3.25893e-08
0.00112029
0.000444877
6.98371e-07
2.48895e-08
3.4623e-06
5.3882e-07
0.000100647
2.23282e-09
1.83154e-08
0.00118818
2.553e-08
7.77854e-07
5.8941e-07
2.02502e-06
1.22486e-06
1.16872e-08
0.00162269
1.30995e-05
2.45905e-09
1.20909e-08
4.66166e-09
0.000427672
0.000113579
1.85672e-08
0.000637651
1.23795e-07
7.26108e-05
0.00282737
0.000398956
0.00281989
0.00183696
0.00221777
4.49546e-10
2.82783e-06
8.47294e-08
3.45287e-06
1.49055e-05
2.21352e-06
2.01721e-09
3.97683e-07
1.46845e-08
3.20273e-07
0.000761567
2.88668e-07
8.97359e-10
0.00178468
1.39251e-07
0.000207825
1.83603e-07
4.1114e-07
4.75239e-09
3.87595e-07
2.12119e-07
0.00151228
2.09594e-07
3.57166e-08
1.49912e-07
2.59939e-05
0.00129747
0.00131391
0.00293962
4.90857e-09
0.000502803
0.00149672
0.00175322
0.00149462
2.38067e-07
0.00217389
2.67914e-07
4.71689e-09
5.39483e-09
6.40465e-09
0.00147152
0.00176861
5.60381e-09
1.45835e-08
8.39038e-09
4.0869e-07
0.000298095
0.00368249
0.00135431
8.20929e-08
0.00247919
8.75958e-10
3.61381e-08
0.0010892
0.000804583
5.35949e-09
2.77463e-06
1.22058e-08
6.38433e-09
0.00352022
6.35436e-09
0.000423336
1.17632e-09
0.000378709
0.00040541
0.000581335
0.00190919
3.24575e-07
0.00161745
1.26799e-08
1.18108e-05
0.000460523
0.00124698
0.00220783
0.00109661
7.54213e-09
0.00124436
9.02154e-09
1.59378e-08
0.00292716
1.64013e-07
6.62543e-06
5.6403e-08
5.20446e-08
0.000573423
1.43464e-06
3.33877e-09
1.49144e-07
4.38141e-07
0.000403275
0.00219823
2.72652e-07
7.62527e-09
0.000614698
1.86251e-08
1.57322e-08
5.11133e-08
6.04567e-07
0.00214165
3.72235e-09
0.00241682
8.37196e-10
0.000256113
0.00433599
8.69618e-09
2.98114e-06
0.00242905
4.98375e-05
5.14742e-06
2.47155e-09
0.00177877
0.00277878
5.19129e-10
0.000489118
8.38792e-07
0.000618778
1.49052e-08
8.53345e-07
5.1303e-07
3.52656e-08
7.82466e-11
0.000345769
0.00131468
6.44539e-09
1.16919e-09
0.0021817
1.1114e-08
2.20997e-09
3.73908e-08
1.87491e-09
7.87844e-08
0.00354116
0.00209459
2.6433e-08
5.44915e-10
0.00221185
1.99169e-07
0.00270366
2.78305e-09
1.91094e-06
4.58946e-08
7.44509e-09
2.74745e-09
1.08428e-08
0.00333601
5.04909e-09
2.79726e-07
0.000274717
0.00237605
0.000453106
1.37838e-08
1.17337e-06
2.56585e-09
0.000229242
0.00228075
8.96851e-10
3.76585e-09
3.97711e-08
3.31083e-08
0.000502529
2.61926e-07
0.000529726
1.92173e-07
6.66569e-09
5.86647e-11
4.97472e-08
0.000221129
0.000394063
5.42496e-09
0.00384295
0.00245682
8.60382e-09
3.09992e-10
3.83493e-09
7.33939e-09
3.79206e-09
1.53259e-08
0.00275094
0.000620055
0.000514077
7.76465e-05
0.000348233
0.000381682
2.75874e-09
4.27322e-08
1.52139e-09
3.06683e-08
1.88956e-08
0.00234582
1.07322e-08
4.92886e-09
0.00111864
1.90253e-08
7.62831e-08
8.81594e-08
1.64148e-09
8.35066e-08
3.48478e-08
0.00219881
5.26084e-09
1.44367e-08
4.31281e-09
1.58358e-08
2.1257e-08
0.00375551
4.52578e-07
1.12297e-07
7.36255e-08
1.06201e-09
4.50033e-05
1.09291e-06
3.17897e-09
5.78107e-07
1.25978e-05
1.01483e-08
1.1315e-08
1.03117e-05
1.60876e-06
2.5043e-07
0.00304083
3.86534e-09
3.96844e-07
1.38335e-06
0.00282696
2.24138e-07
4.2977e-10
1.9175e-06
1.52323e-05
3.43695e-07
1.00787e-08
1.70248e-07
4.61328e-08
6.6196e-08
1.99527e-08
3.31462e-08
0.00186382
2.16171e-09
1.18312e-08
1.0977e-08
6.93956e-10
4.60747e-09
9.01092e-10
0.00421528
1.25696e-07
1.95663e-09
3.31198e-09
3.10223e-09
1.07943e-09
4.95742e-08
5.12927e-09
2.80397e-09
5.40303e-08
1.33846e-08
0.00220951
3.05323e-09
0.000384348
3.54964e-08
1.18215e-07
1.81113e-08
1.209e-06
1.01642e-09
0.00315761
9.47777e-09
0.00178982
2.97158e-07
4.02997e-08
1.34858e-08
1.81962e-06
2.74816e-09
3.61871e-09
2.9386e-09
0.000259076
0.000626661
0.00213651
1.01483e-07
1.5692e-07
0.00227839
1.72095e-06
3.36521e-09
1.37654e-08
2.87275e-07
1.03403e-08
0.00411989
2.78711e-06
0.00307947
2.77024e-08
7.6612e-09
0.00158853
0.00144431
0.00174766
1.66208e-08
1.46907e-06
0.00186867
1.67381e-09
1.23107e-05
1.51517e-07
0.00177473
0.000459353
1.81591e-07
0.00230818
2.04371e-05
6.21886e-07
0.00205383
0.00216972
1.91741e-08
0.00237785
0.00300979
0.00180858
2.4929e-08
4.38947e-09
6.10904e-09
8.05831e-10
2.92284e-09
0.00163015
0.00275212
0.00182472
2.53924e-09
0.00303339
2.7639e-09
0.00228131
0.00249125
5.76798e-09
3.66311e-08
0.00165396
2.45869e-08
1.33834e-08
3.19866e-07
4.39727e-10
0.00256039
0.00199031
8.29066e-07
0.00163472
4.04731e-09
3.05153e-09
7.10941e-09
3.33125e-08
6.71421e-08
3.13227e-07
1.21637e-09
5.64379e-09
1.41905e-08
8.14381e-09
6.23216e-09
1.04413e-07
3.66983e-10
2.32055e-08
2.11007e-06
1.15562e-08
3.44121e-08
2.76638e-09
1.21489e-07
1.55994e-09
5.21447e-09
2.21996e-07
1.56444e-09
3.03153e-09
0.00188087
3.46156e-08
5.16569e-09
6.52807e-07
3.14319e-09
1.47501e-08
4.83406e-08
0.00185686
9.28875e-08
0.00220804
0.00148584
1.71498e-08
2.0739e-08
5.81609e-08
6.57812e-09
0.00157707
4.93411e-08
2.23786e-07
3.66995e-07
2.90682e-08
0.00235744
0.00149678
1.88155e-09
3.13169e-09
6.96646e-09
6.37142e-08
5.8835e-08
7.41324e-09
4.16185e-07
5.3292e-09
1.49437e-06
2.49419e-09
1.52958e-09
6.3211e-09
1.55541e-08
2.332e-07
7.92203e-09
1.87365e-08
0.00429577
0.00144845
0.00257014
0.00155372
1.49153e-06
1.21133e-08
0.0020132
6.9486e-07
6.75475e-09
0.00041006
1.32214e-09
1.44745e-07
0.00235105
4.40514e-08
1.25086e-07
2.30275e-08
4.27931e-08
0.00139988
8.21317e-09
9.73676e-10
2.03682e-07
2.63385e-09
4.69079e-07
5.96055e-06
6.65411e-08
0.00211099
4.18122e-08
0.000460375
2.59789e-07
0.0020987
3.87755e-10
4.99409e-09
2.67823e-07
3.87064e-09
0.00183883
3.83313e-07
0.000518019
1.49303e-07
1.83757e-07
1.3381e-07
2.66196e-08
8.70749e-09
4.91672e-08
3.01104e-06
4.06833e-08
2.59836e-06
0.00324747
5.34271e-08
0.00421536
5.65802e-09
2.45851e-09
4.59054e-06
0.00186426
1.40437e-08
1.35469e-09
9.01282e-07
5.69435e-08
3.36626e-08
0.00233975
1.34666e-08
6.12131e-07
0.00262075
1.35937e-09
8.06674e-09
4.17518e-07
9.80648e-10
8.18717e-09
0.00253087
5.31604e-09
0.00276767
2.31738e-08
2.15378e-07
3.90746e-08
0.00089419
5.97354e-08
2.80379e-08
1.48687e-07
0.00253483
1.58791e-06
1.25854e-08
9.35916e-09
1.25129e-07
0.00207253
3.45096e-09
5.1842e-08
6.30179e-08
1.59685e-06
0.00252797
0.000270076
0.00119101
1.74343e-08
0.000358067
1.31703e-08
9.00508e-07
0.000789587
1.15373e-08
0.000881017
3.28901e-06
4.8574e-09
2.64437e-09
1.20594e-08
0.00253348
1.53099e-08
2.42089e-09
2.59829e-07
1.12232e-08
5.70145e-09
0.000301412
2.69706e-09
4.48288e-08
0.00242978
1.2651e-06
4.53181e-09
0.00203794
3.26065e-06
6.53138e-09
1.381e-08
1.20051e-05
4.30199e-08
2.24645e-07
1.6758e-08
4.14044e-08
6.05097e-08
4.74264e-06
0.00109788
4.84243e-08
0.0024824
1.51458e-08
3.79329e-08
0.00271655
3.10421e-08
7.83898e-08
9.56932e-09
1.29782e-07
0.00237012
2.98862e-08
2.12529e-08
0.00163486
5.79621e-09
0.00266886
1.40684e-09
8.12197e-09
1.04017e-09
8.66178e-09
0.00151681
5.41271e-08
1.42155e-09
2.58566e-09
1.43648e-08
5.29045e-08
0.00255062
4.76709e-09
4.62688e-09
1.89271e-09
1.55183e-07
5.30848e-06
5.0286e-09
0.00156986
3.50663e-08
9.56095e-09
6.31143e-09
5.11669e-08
0.000429647
6.49783e-07
1.62101e-10
1.00704e-09
0.0018263
0.00217018
6.14378e-08
3.84037e-09
0.00183571
1.65426e-08
9.01084e-10
0.00356108
9.04251e-09
0.00275316
2.89637e-07
1.75122e-08
2.01532e-08
9.7741e-09
9.5351e-09
4.41425e-09
3.04166e-05
7.44372e-07
2.26922e-09
4.03618e-08
5.5471e-08
5.32446e-09
0.00257881
8.69246e-09
1.33357e-08
0.001974
2.62095e-08
3.5924e-08
2.93566e-10
0.00228717
2.82361e-08
1.33799e-07
3.25946e-09
3.70017e-08
4.05568e-09
0.00233769
5.92652e-09
7.03281e-09
0.000611711
1.07609e-08
7.12282e-09
0.00233156
6.5308e-08
3.89222e-10
3.14394e-08
5.9415e-09
0.00188355
4.41816e-07
5.99737e-08
3.46692e-09
4.02393e-07
1.41598e-07
8.683e-09
1.3386e-09
1.02901e-09
3.40487e-08
1.04719e-08
8.77371e-10
7.80486e-09
6.48283e-09
1.02031e-08
0.00231617
6.96498e-07
1.48062e-08
2.05151e-09
9.43975e-10
0.00219987
1.94476e-08
0.00327809
9.36048e-07
0.00158579
7.53479e-10
0.00215253
0.0029264
8.64927e-09
9.39215e-09
8.96351e-08
0.0021052
0.00251639
3.06958e-07
7.1074e-09
2.4996e-07
1.05381e-09
2.22318e-07
8.50432e-09
9.44533e-08
1.66172e-08
1.46879e-09
3.87602e-09
8.48341e-10
6.21207e-09
9.38635e-09
3.7775e-09
5.07375e-09
1.51169e-08
9.01573e-08
2.82426e-11
3.36655e-09
7.48011e-10
5.6265e-09
1.52804e-09
1.78537e-07
0.00189962
0.00279691
4.51006e-09
0.00222574
1.39852e-08
3.07051e-09
4.46319e-09
1.64655e-06
1.80793e-07
7.18141e-08
9.9266e-10
1.1035e-08
2.14292e-09
7.95639e-09
1.6035e-09
1.29335e-08
1.41461e-07
0.00158842
2.443e-09
2.12207e-08
0.0014033
0.00178427
0.00219802
0.00206396
0.00176514
4.64446e-08
3.7781e-08
2.89072e-09
7.9054e-09
7.59956e-09
1.341e-06
3.94301e-09
2.92772e-08
3.4122e-08
7.18596e-09
2.22683e-09
2.64529e-09
7.43446e-07
3.15507e-06
3.97459e-07
6.01309e-09
1.67882e-09
3.25184e-09
0.00284202
2.53499e-09
0.00185272
1.06003e-07
8.77607e-09
7.52671e-07
0.00105424
6.75798e-08
4.05734e-10
3.79477e-09
3.21034e-08
1.50852e-09
2.3661e-08
8.26976e-10
0.00110408
3.44568e-10
4.18301e-08
0.0028446
2.9872e-09
0.0013304
5.8673e-08
0.00216662
9.95913e-08
0.0012197
3.55359e-10
0.0028948
0.00232084
2.7922e-08
4.05445e-09
0.00158366
1.97221e-08
0.00186979
1.68717e-08
7.82717e-09
5.00218e-10
1.66134e-08
2.05072e-08
1.5011e-08
6.36858e-07
0.00292374
0.00166188
1.22115e-06
3.75152e-09
3.48029e-07
0.00305628
0.00136148
0.00236579
0.00234398
5.32694e-09
6.03924e-08
2.7577e-08
1.25317e-08
0.00303578
6.52469e-09
0.00148775
0.00321496
5.51438e-09
3.14055e-09
0.00160517
0.00302782
2.83134e-08
9.11163e-10
0.00169037
9.15899e-08
2.55954e-09
4.67509e-07
9.60763e-08
0.00040671
7.13431e-08
5.64875e-08
2.47435e-07
2.69691e-07
9.07444e-08
3.91255e-09
4.54973e-09
1.06301e-08
2.0293e-09
2.06003e-08
8.68076e-09
1.88922e-10
2.17697e-09
0.00200653
0.00284308
3.41901e-10
2.54372e-08
6.65707e-09
2.79057e-09
4.81615e-07
1.94852e-08
2.36106e-09
0.00270667
0.0015058
0.0014488
0.00162328
4.86992e-08
0.00136171
2.54842e-07
0.00376686
7.29032e-10
0.00227616
2.71201e-08
3.63884e-08
1.55502e-07
6.13126e-10
0.00294104
1.85599e-07
0.00423653
5.91645e-09
9.40996e-10
9.10957e-09
8.96919e-09
0.00133978
0.00286832
1.40098e-10
3.44754e-09
2.43364e-08
0.00167434
4.00909e-09
0.00280337
3.40441e-07
1.92511e-09
5.80608e-09
0.00241521
3.5119e-08
0.00213604
8.20331e-08
0.00383052
0.00319961
7.75464e-08
3.69954e-09
0.00352898
8.61402e-09
8.52156e-07
0.000344637
1.56661e-08
1.36949e-07
2.27977e-08
8.85397e-09
0.00300984
3.94165e-09
7.39149e-08
3.88042e-10
7.03352e-08
4.45823e-09
5.33328e-09
1.51338e-08
1.00941e-08
1.71107e-08
0.00294981
2.13718e-08
2.77053e-08
4.74219e-09
1.43465e-08
9.12547e-09
9.39845e-09
1.16574e-08
0.00217421
8.6482e-09
0.00293681
0.00189537
4.9084e-09
0.00036067
2.94719e-09
3.30607e-09
2.61856e-08
3.47688e-08
3.0393e-08
0.00152604
0.00202696
1.10596e-07
1.03275e-07
8.26668e-08
0.00305482
0.00110991
4.8189e-08
0.00216333
0.00439076
1.26872e-06
0.00258946
0.000410465
6.37112e-09
7.82256e-07
2.52691e-08
0.000563893
6.72872e-10
0.0025248
3.30625e-10
2.31298e-09
0.000636408
0.000341713
1.79978e-08
0.000460457
4.2329e-08
1.04486e-07
2.58041e-08
2.69402e-09
3.93927e-07
2.86624e-09
4.80935e-09
0.00243087
1.325e-08
1.38531e-08
4.38976e-09
1.22e-07
1.65621e-09
4.5864e-05
2.96148e-08
2.04101e-08
7.75449e-08
1.64182e-07
0.000297092
0.00227228
4.17799e-08
6.91242e-09
0.00236628
0.00234092
3.70023e-08
2.28254e-08
1.23682e-08
3.15845e-09
3.05096e-08
1.1056e-08
0.00200158
0.00433471
6.10628e-09
2.04229e-09
3.80618e-09
5.99933e-09
0.00246896
0.000394487
1.75901e-09
1.80917e-08
1.53355e-08
0.00211929
1.05022e-05
1.08832e-06
0.00194333
2.49548e-08
2.50734e-08
4.9795e-09
4.11991e-08
2.52934e-08
0.00220456
5.19566e-08
0.000310669
5.52065e-09
6.25856e-09
0.00320556
0.00260274
7.56323e-09
0.0030698
1.07693e-09
1.47378e-09
4.52913e-07
5.00097e-09
3.54757e-09
0.00179231
2.67075e-08
1.23854e-07
0.00385165
1.33198e-08
0.00155114
0.00300649
1.4698e-08
0.00319264
1.44288e-08
1.27664e-08
1.79034e-08
1.87111e-07
9.84243e-09
4.63619e-08
5.97948e-09
2.45692e-08
4.78986e-07
1.96169e-08
0.00232328
6.37988e-09
0.00301313
8.55087e-10
1.1494e-08
5.39411e-09
0.00231098
8.46599e-09
0.00223805
0.00192344
0.00309696
1.56971e-08
0.00209369
1.43934e-07
2.1543e-08
3.13662e-09
7.92732e-09
1.27229e-08
7.63672e-08
1.42119e-07
2.84709e-07
3.41595e-09
0.00282194
3.23109e-08
1.16526e-09
9.34737e-10
4.47857e-09
7.03338e-10
0.00200404
3.58665e-08
0.00294239
2.69765e-08
0.000624971
3.59891e-09
3.64447e-09
0.00176861
0.00346494
6.65837e-08
3.71035e-09
0.0037551
1.56765e-08
1.06912e-09
3.32906e-09
1.31689e-08
6.28133e-10
1.37323e-08
1.5337e-09
1.4084e-08
2.84809e-09
5.93538e-08
2.70059e-08
0.00246216
5.49173e-07
1.01793e-07
1.12166e-08
4.64195e-09
0.00208838
1.39807e-08
0.00298245
4.13506e-08
2.80928e-08
6.62852e-09
6.20548e-09
7.94292e-08
7.42707e-07
0.00129734
0.00121781
7.99276e-09
0.00369084
2.41399e-08
0.00276912
9.0442e-09
2.15792e-08
2.95341e-09
0.00259954
0.00127756
0.000427438
4.43256e-08
2.02833e-09
0.00128972
5.28994e-09
3.32348e-09
8.97551e-09
5.33721e-09
0.00237149
0.00202097
1.78848e-08
3.15303e-08
5.16337e-08
3.90153e-09
3.24351e-06
1.811e-06
6.1782e-09
2.4349e-08
0.00157767
8.80136e-09
3.11605e-08
1.09005e-09
3.0025e-08
4.49484e-09
0.00226811
4.56011e-09