/*--------------------------------*- C++ -*----------------------------------*\
  =========                 |
  \\      /  F ield         | OpenFOAM: The Open Source CFD Toolbox
   \\    /   O peration     | Website:  https://openfoam.org
    \\  /    A nd           | Version:  10
     \\/     M anipulation  |
\*---------------------------------------------------------------------------*/
FoamFile
{
    format      ascii;
    class       volScalarField;
    location    "114";
    object      SgT;
}
// * * * * * * * * * * * * * * * * * * * * * * * * * * * * * * * * * * * * * //

dimensions      [1 -1 -3 -1 0 0 0];

internalField   nonuniform List<scalar> 
59698
(
0.0132262
0.000152686
0.000210726
2.04624e-06
0.030392
4.83574e-19
0.00213219
3.02967e-05
9.30903e-16
3.25689e-17
3.4201e-15
0.000299089
3.31781e-17
6.19527e-06
0.000353794
1.5502e-17
6.96223e-06
0.000145851
4.5133e-05
0.000271285
0.0013727
0.0140069
1.20776e-07
1.20352e-17
0.0422652
6.7549e-05
0.000342597
0.00754555
0.00672936
0.00747361
0.00480382
1.91723e-16
1.10312e-16
0.0123258
0.00244736
0.000163343
0.0186122
0.0206216
3.08478e-05
0.0224942
0.00864167
1.97941e-19
0.00370949
0.000644155
6.88027e-18
0.0321391
7.37801e-05
0.000730635
0.000245862
0.000173989
0.00151603
0.000119451
0.000337175
5.15194e-06
0.00920699
7.69067e-05
0.00132467
0.000213325
0.000806555
0.00278852
0.00346394
0.000498838
0.122045
7.03932e-05
0.0124733
0.00161084
3.27657e-17
0.000399518
5.56416e-05
4.6802e-15
7.91192e-10
0.000252832
3.69888e-06
0.0419523
1.01212e-18
0.0393101
0.000117866
0.00924753
0.000359284
0.00617208
0.00887818
0.000476279
1.84711e-16
1.60066e-05
0.00841766
0.000551619
3.64681e-06
4.19374e-05
0.0635072
0.000129369
6.20791e-16
0.00205952
0.0147838
9.73207e-06
7.32549e-05
0.000160384
0.00535272
6.10132e-05
0.000264576
8.36973e-18
0.0733711
0.0017835
0.0162892
0.012081
0.000121422
1.10479e-16
4.3799e-05
3.6707e-05
5.90979e-17
2.0065e-16
0.00025017
4.63555e-06
0.0380442
6.14751e-19
2.62097e-05
4.49739e-05
3.97871e-05
4.39544e-06
2.3307e-05
3.67591e-17
3.63767e-05
0.00070737
9.21121e-07
6.1767e-06
2.12302e-05
3.34795e-05
0.0108237
4.53144e-17
2.78119e-05
2.92859e-05
0.0416462
3.72386e-05
2.11211e-16
0.100066
0.00429249
0.00440862
1.6255e-06
5.89899e-17
0.000255227
0.000130971
0.000109434
1.59938e-06
0.000174803
0.00266232
9.78232e-06
0.000694432
5.80504e-06
2.17635e-05
1.72861e-06
0.0293131
4.20934e-05
6.14234e-15
0.00149147
7.34896e-06
0.000161937
0.000343071
4.76868e-05
3.18526e-07
0.0124672
5.12698e-17
0.000862851
5.1287e-05
0.0163714
0.00162775
0.00336853
0.0322768
0.00023792
0.0717768
0.000506506
0.000413098
0.0119266
2.33775e-08
0.0107956
0.014625
0.0789251
0.0007285
4.02387e-17
5.00893e-05
1.73194e-15
0.00629685
0.00947449
0.018144
0.014783
1.98145e-05
0.0459328
0.000235537
0.0114759
9.84812e-05
6.47037e-06
0.00118118
0.000406189
6.72874e-05
0.00266429
0.0386789
0.0040476
3.92555e-06
0.00984724
0.0554335
1.432e-05
0.0077434
3.1712e-16
0.00610262
0.0212058
6.65094e-05
0.0068525
0.000319765
0.00610671
0.000808459
0.0051176
0.00792278
0.00013416
2.36331e-05
0.00016657
2.52391e-17
0.00409457
4.87055e-07
3.72569e-05
3.59777e-05
0.0127765
0.0066075
0.0055997
0.000510126
2.98783e-05
0.0661446
0.000819787
0.0236397
0.00734359
0.00324687
0.00687629
0.15882
5.44369e-16
0.00472527
0.002919
0.00324148
1.38547e-05
0.00967043
0.0830854
1.91459e-05
6.7861e-07
0.000441555
1.11407e-05
0.00147509
0.0135189
7.53188e-18
0.00612612
0.000120176
0.00375552
0.228971
0.00122101
0.00042657
0.000703362
0.00164235
0.000629453
4.03879e-15
0.000618217
0.00069325
0.00601659
0.00128581
0.000497165
4.09802e-05
6.87533e-06
2.1154e-17
0.000393696
0.00321833
0.00114963
0.0476798
2.32898e-05
1.27211e-14
0.00016502
1.63357e-05
0.00014147
0.0441497
0.000154163
1.85175e-05
0.0179498
0.000206345
1.61954e-07
0.000510076
0.00210084
2.57537e-16
3.87588e-17
0.000193334
0.00021213
0.10526
0.0457162
0.0201056
0.000134603
3.36769e-10
0.0731029
0.000445202
0.0905028
1.499e-05
0.000187969
0.000164522
0.000321579
3.25985e-06
0.000356327
0.00080391
0.0042372
1.1063e-05
0.00272422
9.49568e-18
2.31952e-17
0.000824604
6.47507e-05
5.26274e-05
0.0520141
0.00101145
2.00971e-06
0.000267303
7.84867e-05
7.0959e-05
3.84451e-05
1.07932e-17
2.47108e-05
0.00513626
1.05014e-17
0.000392248
5.30512e-18
0.000805926
0.000342022
0.324165
0.00032036
1.78636e-18
0.0481577
0.0103978
0.000327962
0.000353064
0.000439121
1.30137e-16
0.00640804
0.00417044
0.0202774
0.206257
1.55666e-15
1.91845e-05
1.00702e-05
0.000664285
0.00911413
0.00327368
0.0102351
3.81338e-06
2.89618e-05
0.00147466
9.66804e-05
6.72383e-06
9.88727e-05
0.0393757
4.79813e-05
1.51459e-05
0.0079954
9.16683e-05
0.0400629
1.80539e-18
0.244061
0.000256944
0.0140727
0.000126275
3.79036e-05
1.01036e-16
2.76302e-05
8.75008e-06
1.39348e-15
0.000882857
1.71027e-17
2.53818e-18
1.64866e-05
1.34938e-05
0.000156503
0.00166877
0.00190264
8.4477e-16
5.03815e-06
3.10169e-18
0.00618974
8.01382e-18
0.000153433
2.45938e-05
6.81194e-17
8.94588e-16
2.24844e-19
0.000103281
5.64893e-05
0.00052477
0.000140027
1.30089e-05
0.000211407
5.05381e-18
6.08014e-17
0.000143538
8.77116e-05
2.25843e-17
0.00126232
0.00258278
0.00128839
0.000478741
0.0487577
1.32474e-05
2.27211e-05
0.000145383
0.000409234
2.22538e-05
1.26825e-05
3.99221e-05
3.53507e-06
2.78162e-05
0.0815502
0.0252445
2.23071e-05
0.00539186
0.031535
1.45282e-15
0.000147425
1.71224e-15
4.53375e-08
0.0595586
2.72409e-06
0.01036
0.000512742
8.05829e-05
0.000115917
4.96127e-06
3.58487e-05
0.309405
3.76844e-05
1.31383e-05
5.66935e-15
0.000220747
4.67303e-05
3.52608e-16
0.000263211
0.000189128
0.0151304
0.00303169
0.0021264
1.32657e-15
6.93146e-16
0.212442
0.000123779
0.00105763
1.44353e-18
4.69944e-05
1.75375e-16
2.17932e-05
4.01426e-05
0.0024006
0.0698478
1.43073e-18
6.45756e-05
0.00907465
1.81123e-05
0.000124809
5.84028e-05
0.032954
0.000282515
9.70458e-05
0.108304
7.49486e-18
0.00963118
2.87574e-05
0.0541241
8.63844e-06
0.012589
0.0133269
1.29064e-16
0.000975505
0.000447692
0.00848675
3.31197e-05
0.00806248
0.000451605
4.0276e-17
5.09305e-16
2.47251e-16
0.000384649
0.000814807
0.00113463
0.0690632
0.00320072
0.000254775
3.50183e-05
0.000496539
3.95607e-05
6.58762e-16
0.00542211
4.56973e-05
5.5566e-05
9.37914e-05
0.0658895
0.00178331
0.0231672
0.0656671
0.00112501
0.000163474
0.0546596
6.15979e-05
5.52565e-07
3.59959e-06
0.0094975
9.64367e-17
1.52098e-16
0.0642813
0.00712908
0.00460328
2.56446e-16
7.53151e-18
3.82656e-05
1.65299e-16
1.244e-05
0.00316357
0.000582713
0.0747809
0.00729022
5.32107e-19
0.00913701
5.58957e-05
2.15563e-17
3.85402e-05
5.17207e-18
3.20908e-17
0.00547277
0.00377724
1.16825e-05
8.63853e-17
3.67519e-17
0.0012528
0.00947963
1.02781e-05
0.00725736
0.000192643
3.8857e-05
0.0390411
1.20051e-18
2.22704e-05
7.23012e-07
3.20532e-16
6.93636e-19
6.9478e-05
0.000138899
7.77608e-16
0.0096679
0.000357546
0.000148142
0.0678374
0.00818231
0.0135227
0.00999611
6.34684e-06
0.0116967
3.85003e-07
4.1984e-05
7.90363e-16
3.93512e-05
1.51021e-16
0.000283484
2.99648e-06
4.41338e-16
0.0011505
0.00689429
0.000442552
1.36529e-16
5.86709e-15
3.30266e-05
8.263e-05
5.56429e-05
3.50722e-18
0.0738257
5.27789e-05
0.00554299
4.93736e-16
0.00288191
6.4239e-05
3.06576e-16
0.0025976
0.00287832
0.00338334
6.79485e-05
0.00400009
0.00011333
5.81516e-17
6.66932e-19
7.6006e-05
0.00197787
5.43116e-05
0.00409283
1.5241e-16
0.00242444
1.77709e-05
0.00420122
0.00269162
0.00216085
0.000155596
0.000371938
0.000167715
1.30506e-16
1.89822e-05
1.36385e-12
0.00169114
8.21596e-19
2.07371e-17
0.00519266
3.36505e-05
5.02294e-17
3.03827e-05
0.00146622
0.00216277
0.000165132
7.96557e-18
7.53847e-05
6.43471e-07
8.08239e-06
0.000546433
1.0128e-05
0.00433964
0.00142237
0.00279358
2.20806e-05
0.224573
1.87874
2.05874e-05
3.7381e-16
0.000594117
0.00213058
0.000901275
6.0117e-05
4.83071e-05
0.00446826
0.00246499
0.00318375
0.00155424
7.36898e-05
6.31098e-16
9.19664e-05
0.00113739
0.000107547
0.00134288
0.000238844
2.42549e-05
5.2344e-05
0.10628
0.000237429
4.93326e-06
2.72023e-15
1.05261e-16
0.00243019
0.00382881
4.11347e-05
0.000335794
0.000120797
6.68292e-17
1.21839e-16
0.00017633
0.00828107
0.000798446
0.000583712
0.000113918
4.06503e-05
2.815e-07
0.000327536
0.000209584
0.000307558
0.000815891
0.000896471
0.0199823
0.0905816
0.00136328
3.37195e-05
2.55339e-05
8.76577e-05
0.0415141
2.3471e-17
2.0868e-05
0.000460671
0.000109143
0.000143974
0.00167923
3.45809e-18
0.00825746
0.0473161
0.000145076
0.000422258
7.96674e-05
2.42576e-18
1.82607e-17
1.04152e-05
1.56288e-05
0.00214947
0.000194935
0.000191639
0.00871079
0.00439597
0.0364961
0.000806189
7.03144e-05
2.00069e-05
7.80207e-05
0.000243244
0.00118243
1.94826e-16
0.000158941
2.01549e-17
1.35434e-16
0.0066042
0.000820664
4.48469e-05
3.75135e-15
0.00640447
2.87248e-05
4.40538e-06
5.13121e-17
0.00156872
1.62533e-18
0.00050604
1.8711e-16
2.81448e-05
0.0019857
0.00922381
3.42539e-05
3.49779e-16
1.30158e-16
0.0597719
0.000820579
3.83476e-05
0.000949457
0.00145792
0.025702
0.00692273
5.6289e-16
0.0553561
5.18113e-05
0.00254527
3.8446e-17
0.00771728
7.12282e-05
8.14458e-19
0.0112618
0.000184922
2.97293e-15
0.0030745
0.0598359
0.000584677
6.94376e-05
0.244922
6.78988e-06
0.000729765
0.00240532
0.00190642
0.00174953
5.23943e-06
0.0132495
1.91072e-05
0.0599989
0.00316837
0.0226299
3.56492e-17
0.000212571
0.104992
0.237678
3.54475e-15
6.8501e-05
0.0498764
2.76853e-17
0.00224972
0.00520324
3.68214e-05
0.0061469
0.00411223
5.96368e-05
5.26449e-16
0.00195371
0.014187
1.36147e-16
5.15939e-17
3.85641e-05
1.31552e-15
0.00437724
3.8134e-05
0.000223648
0.0060988
0.0052052
1.23165
2.94419e-17
0.0246677
0.00970954
0.0210736
0.00104928
0.00469964
4.60524e-17
0.000989033
0.0016288
1.50585e-06
0.00671076
0.0111188
0.10372
0.00032056
0.00549148
2.27924e-16
3.87502e-17
9.51672e-16
0.000367812
0.000233722
1.09518e-15
6.18975e-05
1.76162e-06
0.0094819
0.000143061
0.000720512
2.71904e-06
1.3821e-17
0.00686503
2.20681e-16
2.44251e-16
6.10066e-05
8.4455e-11
6.02607e-05
0.0136992
1.74451e-17
1.19966e-06
0.0200524
0.209343
8.05869e-05
0.00874322
0.00012886
0.00067277
8.32276e-16
1.22453e-16
0.00169151
0.00084639
0.00749082
4.8834e-17
0.00627917
1.97361e-06
2.03608e-06
1.37865e-16
7.36808e-05
8.32486e-05
3.91468e-06
4.91083e-16
7.02757e-05
0.000208061
2.89125e-16
5.5418e-16
1.18484e-16
1.73409e-16
1.12042e-16
0.00207799
0.000191896
0.00153642
1.07431e-16
0.00405965
1.64932e-05
9.99327e-18
0.0158542
4.96803e-17
0.000153039
4.45006e-17
0.0359065
0.00489962
0.000875643
8.96005e-06
2.46743e-05
0.0105704
1.28226e-17
0.00979364
0.000131861
4.02753e-16
0.000488288
8.07827e-07
3.31697e-05
2.83982e-15
9.97384e-05
1.95627e-17
0.00895623
8.03613e-19
0.00209901
1.75127e-19
7.01519e-05
6.54081e-05
0.00164972
0.000597619
0.000178482
6.02748e-06
0.0020265
1.00342e-17
6.19347e-17
6.51111e-07
6.30256e-05
3.31023e-05
8.0043e-06
7.31314e-16
0.000268219
0.00373336
0.0183138
9.10601e-17
0.00106098
0.00298298
9.16455e-05
0.00279347
2.5975e-15
2.76231e-17
0.00449555
0.000149345
8.7794e-18
0.000184581
0.00162721
7.44604e-18
0.00261276
0.000106101
1.22326e-05
0.0652688
4.88519e-17
7.99595e-06
1.32939e-06
5.29491e-17
1.17385e-16
5.4383e-05
2.43772e-05
6.39614e-06
0.0201977
0.00398041
5.04208e-07
0.0407303
9.45174e-05
0.00132786
0.115019
0.00023053
0.00459085
0.00451307
0.0326872
0.0583024
1.74987e-16
1.11095e-06
2.20225e-16
0.0247187
0.000271494
0.000345072
0.00141482
1.01666e-17
1.33889e-16
0.00245456
0.0005764
1.60778e-05
0.00676527
0.00283147
1.60764e-06
8.18787e-05
0.0250537
0.000727546
0.000141495
4.70383e-05
7.21702e-14
5.69498e-05
0.000181095
0.0010694
2.04094e-05
4.81145e-05
1.67867e-07
4.44833e-16
0.000163622
0.000106983
0.005412
1.24093e-16
0.000141125
0.00959505
0.00190246
0.00029404
0.000414854
0.000265904
0.000128141
0.00042493
4.71995e-17
3.96933e-17
6.72089e-17
0.00014846
6.04612e-19
0.00039745
0.0109966
0.0162844
0.0177883
7.59604e-06
8.44976e-06
0.00291882
0.00115761
0.00274063
0.00392936
0.000403927
4.62285e-05
0.000181676
4.41585e-05
0.0109665
0.0564078
0.00197695
3.47867e-16
6.8658e-07
9.93376e-18
8.70456e-05
0.00114483
0.000315273
0.00233755
2.79913e-15
3.12047e-15
0.000123103
0.00237418
0.00235303
0.00078419
6.43867e-06
0.0472955
3.63774e-17
1.57868e-05
2.88606e-06
0.0200275
2.24003e-17
0.000396281
1.39899e-05
0.00104546
0.000454074
0.00159916
0.00112275
3.42763e-05
7.93383e-06
4.93923e-05
1.34737e-06
0.0054723
0.0094772
0.0100955
0.00817484
0.0052757
0.00574915
1.40944e-07
0.000148147
1.40557e-17
0.00595159
0.00473934
0.00222693
5.83027e-17
0.000118916
0.00394306
0.000245552
0.00161938
6.3648e-05
0.0147426
0.000126952
0.0406353
8.37815e-05
0.736424
7.62958e-06
3.94779e-17
1.34521e-05
2.40973e-05
4.54507e-17
2.31803e-10
0.00398746
0.00699388
0.00173468
0.000635567
0.00360429
1.83469e-18
5.38381e-18
0.0197035
7.97596e-16
0.000930948
0.00115735
0.000177376
0.000323594
0.00112687
4.18631e-16
1.24497e-15
0.00810857
0.000782475
0.0923468
9.47443e-16
0.000658324
0.0820682
6.99715e-17
0.00874749
0.0027762
0.0253119
1.57238e-05
0.00362119
3.49766e-05
6.77744e-06
0.00132639
8.98376e-20
0.00124553
4.23011e-05
0.000117385
0.000125707
9.14211e-06
1.88234e-05
0.00323061
0.00976914
3.37404e-16
0.00227434
0.000514333
0.000160471
0.0366536
0.0544224
0.0050583
0.000369561
0.00328025
0.457083
0.0240403
0.0262877
0.000459841
5.58973e-18
0.102724
0.00013688
8.05216e-18
1.491e-06
0.0143423
0.000214676
0.00170412
0.000328124
0.00174694
2.23898e-17
0.00251612
0.00900815
0.00288577
0.000644326
0.000738831
3.03441e-17
2.09155e-17
0.000131026
0.00364764
1.05995e-16
0.00114568
0.00058514
0.00777764
0.000354412
0.115564
4.48732e-05
0.00118503
3.40377e-07
0.00563281
9.287e-05
0.00109751
0.00258104
1.5306e-17
1.56388e-07
1.23674e-05
0.000137447
1.43901e-05
3.82791e-05
0.0186577
0.0101471
1.0472e-05
0.00150466
0.0835587
0.00109388
0.00400834
0.000114258
1.80645e-05
0.00370559
0.0362632
0.00873977
0.00264528
0.000182563
0.0019281
0.00336432
0.00300468
0.00371374
0.00537689
5.40838e-18
0.116181
0.0499196
0.000492078
9.98433e-07
3.04127e-05
0.00048297
3.45659e-06
0.0261717
0.00113416
7.0441e-07
0.00229603
0.000371718
2.22199e-17
0.00355622
3.98951e-18
0.00269005
2.67063e-05
0.00148113
0.0037668
9.25013e-05
0.0195992
0.000150988
2.63662e-18
0.00363783
0.000184687
0.000395167
0.00210963
0.0119447
6.57876e-18
2.50374e-18
0.000374706
0.000265625
3.46652e-10
7.85075e-16
0.000190305
7.29725e-05
9.7295e-05
1.67966e-17
2.66719e-17
0.000855972
5.18542e-06
1.83948e-05
1.82573e-05
0.000318141
5.88948e-08
2.58742e-17
4.32567e-05
7.6976e-16
2.93259e-05
5.39574e-15
4.35967e-06
5.89579e-16
0.00390471
0.103421
5.29247e-05
0.00477366
0.00167085
0.00173374
2.13088e-16
3.50304e-06
4.40145e-05
0.00842876
0.0197613
0.00286708
5.013e-05
2.79755e-16
8.48917e-05
2.99591e-15
0.00475949
0.00953591
1.1435e-16
0.00211792
0.00283646
0.00107644
0.00353545
1.6435e-05
0.0145264
0.00187728
0.00252106
9.62453e-05
6.43639e-17
2.92245e-17
5.27256e-05
0.00560854
8.29262e-06
1.88207e-16
3.49715e-05
0.0050227
0.000211372
0.00100829
0.00101812
5.94453e-05
3.23292e-07
4.81643e-05
0.00388481
9.71424e-05
8.46957e-05
0.0283905
0.00208028
0.000841343
6.10356e-05
1.82011e-18
0.00101995
1.04258e-17
0.0145717
1.65116e-16
1.35982e-16
0.00125559
5.15447e-18
0.000863853
0.00021715
4.04876e-12
1.56039e-18
0.000215289
0.000283368
6.99546e-18
0.00219661
6.96891e-06
0.000277359
0.000575703
2.3367e-05
5.68169e-17
0.00583967
0.00020435
3.86198e-17
0.0474546
6.52786e-05
3.2664e-05
0.000264157
1.86517e-18
1.62643e-05
2.41471e-16
8.7773e-05
4.40376e-18
9.55779e-06
0.000950967
0.000347395
0.00274823
0.00429787
0.00129514
1.52224e-05
0.0630902
4.17759e-06
2.53654e-14
0.00213781
0.000798304
0.00340829
1.14849e-05
1.86219e-14
0.350484
1.67707e-06
3.3908e-16
3.47958e-05
0.023171
0.00303289
4.35532e-15
4.12864e-17
2.0667e-05
0.00059241
0.0363168
0.00218459
0.00871828
0.0117105
1.63526e-17
1.42488e-16
1.96425e-16
3.62305e-05
0.00829085
1.36085e-15
0.0747691
1.65587e-16
0.000477444
3.46016e-16
6.63003e-16
9.00288e-16
0.000377033
0.00861553
0.0181279
1.86696e-17
0.00184358
0.00450238
1.44421e-16
0.000240405
0.000989554
0.00198624
0.000399922
0.000805949
0.00750327
0.0107028
0.000592473
0.00159565
0.00266938
3.70577e-05
6.68653e-18
5.50683e-17
0.0138828
0.0115661
0.00351797
0.0475098
0.00268869
0.000171684
0.00523209
0.000184781
1.0113e-14
0.0010644
0.022299
0.00028708
0.0204776
0.0114718
0.0343372
3.18687e-20
0.100832
0.00874898
0.00175191
0.00466217
0.0649538
0.000400541
0.00282846
4.15054e-06
7.89365e-05
0.00800187
0.00112681
3.1437e-05
1.80264e-06
0.000101518
0.024898
0.293267
0.000156469
0.00905264
0.000292089
0.000135181
2.36996e-16
0.189071
0.000616347
0.287031
0.778876
3.28952e-06
1.686e-16
7.58438e-06
0.000173627
0.0106515
0.00563744
0.0101897
0.0623239
0.0341425
0.00183662
1.53365e-05
0.0102505
0.0113615
4.19883e-17
0.000536637
2.68861e-17
0.000245404
0.000418887
4.81697e-18
0.138763
0.000201376
6.90729e-05
8.03054e-16
0.000256871
0.00018293
4.0121e-18
6.07243e-16
0.477336
0.0314525
0.184731
0.149389
0.00215415
1.09249e-15
0.00649449
0.00125293
2.81059e-05
1.10249e-18
0.0852468
7.94774e-18
3.29107e-06
6.97276e-05
3.82637e-18
0.0166173
4.71405e-05
0.00854209
5.30112e-05
6.45724e-05
0.000137399
0.000603036
0.00113107
0.0129754
3.36163e-06
0.00115303
7.01551e-05
0.0149794
1.6064e-16
1.09766e-16
2.19886e-06
0.013442
0.00015376
0.00016594
9.1848e-05
0.0313407
0.000501752
0.000196298
3.08778e-05
9.68604e-06
5.50515e-06
0.00305648
1.24235e-16
2.88301e-05
2.41911e-05
3.56006e-15
0.000123326
5.81631e-07
5.85325e-16
0.000210967
1.34331e-16
0.0107559
4.16813e-08
5.32779e-16
0.00191361
0.00173136
0.00952789
0.000579677
0.0102282
0.000302989
9.80475e-17
2.64074e-17
1.12012e-17
5.53827e-17
2.53058e-17
5.28199e-05
1.80892e-07
1.56482e-05
0.00946853
0.00173323
1.26397e-15
0.0175433
4.3941e-05
0.000208075
0.014551
0.00620788
0.0122834
0.0131356
0.00331695
2.41069e-17
0.321323
0.0623813
0.000811723
6.38202e-18
0.0148394
0.000912219
0.024252
0.000102715
1.64702e-16
0.0120323
5.38729e-06
0.00677424
1.44966e-16
0.000131927
0.00756188
1.66586e-05
0.0312759
0.354429
0.00113901
0.0549841
2.81322e-16
1.4676e-15
1.54515e-05
1.6834e-06
0.103507
1.30752e-05
0.00165286
0.000475729
3.86758e-17
0.00164377
1.76464e-05
9.24714e-16
3.29309e-16
0.0265018
6.69586e-18
5.7241e-05
0.0617856
1.03634e-13
0.00271911
1.85944e-17
1.56472e-16
0.00108667
0.000153168
3.95726e-16
3.38981e-06
1.05004e-15
0.00251452
0.000524547
6.00636e-15
4.97018e-17
0.000846084
5.494e-06
0.00279527
1.83609e-17
3.61411e-06
0.000627253
9.33558e-05
5.0956e-05
0.0318062
1.55064e-18
5.63767e-05
2.16876e-16
0.00168712
0.0338428
1.24342e-15
2.35479e-14
4.65458e-16
0.000169881
4.98046e-16
0.00195916
0.296487
1.87684e-16
2.76503e-06
4.1395e-05
1.53505e-16
2.01865e-15
8.29377e-17
0.000176315
9.06726e-17
0.000847008
1.3322e-16
0.000105393
0.000198504
4.00965e-17
0.0114363
4.73644e-17
4.22642e-19
0.00147999
0.000105792
0.00140113
0.0445694
8.45992e-16
0.000172525
0.000122791
8.51789e-05
0.000107041
2.69677e-05
3.37407e-16
1.67403e-15
4.24864e-05
8.90943e-17
1.64767e-16
1.12271e-05
9.73113e-16
8.41947e-05
0.0226049
6.53993e-16
0.006195
0.00012359
0.0155155
2.03266e-05
0.000118444
4.6746e-05
0.00434557
2.79153e-05
0.00410242
0.0192578
2.19552e-05
6.13968e-05
2.54823e-05
0.0001497
0.000861533
0.000348377
0.000107168
0.0163566
7.15577e-05
0.0103743
4.66029e-06
0.877882
0.441561
0.000109599
0.0414627
8.31006e-05
0.000391704
0.00938137
9.38141e-10
0.603834
0.0439926
0.0045033
0.000623216
0.0283181
0.393035
8.9719e-05
0.0251128
0.00436888
0.00222492
0.125094
0.0440711
0.000577726
0.000948044
0.0260313
0.0487271
0.00412876
0.000308595
0.0308613
0.000205828
0.0140972
7.36523e-16
1.11599e-05
0.00662853
0.000213906
9.4345e-07
0.00393077
0.000125231
0.000128771
0.000295172
2.42781e-16
0.00783803
0.00605809
2.69144e-17
0.000443234
0.00170326
1.43241e-05
0.00408982
1.65498e-15
0.0115737
0.0632869
4.36516e-07
0.0334053
0.000140689
0.00115621
0.000143999
0.000441302
0.0304294
0.00412701
0.000223092
0.0271883
0.000305138
7.64382e-05
0.000365762
4.05936e-16
7.6493e-16
0.00545778
0.0258304
0.0146975
0.00506263
0.00547938
0.00105537
0.000132883
8.03664e-05
0.000136664
1.63704e-05
1.33353e-08
0.00174372
3.23723e-07
3.59121e-06
4.8379e-06
3.72656e-06
9.31177e-06
5.68625e-05
0.0102158
5.0391e-06
2.21428e-06
0.00337947
0.000275761
2.53538e-05
2.45939e-16
0.00678841
4.27444e-06
0.00503848
0.000434092
0.00427372
0.000120328
4.34384e-05
1.10622e-05
0.000117191
7.68648e-07
0.00153488
8.61347e-16
4.71293e-05
8.90986e-05
0.0347175
0.000165788
0.00427779
1.68939e-05
0.000176658
0.000308517
0.00842185
1.90012e-07
1.54791e-05
0.00362563
1.19317e-06
1.01124e-06
0.00189895
0.0003656
4.23053e-05
0.00300259
5.98167e-05
0.00598981
0.0288629
3.58383e-05
8.11417e-05
0.00301078
0.000328249
0.00425047
7.63324e-05
0.00614988
0.00035519
0.00278471
2.85229e-05
0.000733122
0.000926424
0.00721481
6.17376e-05
0.0198562
0.00615044
0.00023822
0.00139044
0.00159456
0.000252151
2.9101e-05
0.00247727
0.0219168
3.37528e-06
0.0378007
0.000203185
3.79486e-08
0.000109422
0.00188476
1.01453e-05
0.00087734
0.013857
0.021181
0.00208468
0.0095277
6.57033e-05
7.63476e-05
0.00437757
0.0145402
0.000447153
7.67021e-07
2.47819e-05
0.0826986
0.041975
0.000104234
5.0277e-05
1.42962e-07
7.82451e-06
0.000113597
0.0337495
0.00859848
0.0158515
3.87421e-05
0.00100324
2.862e-05
0.0193476
1.31669e-17
0.00338302
2.54104e-05
0.00105007
0.0201688
7.44021e-05
0.000394476
3.61499e-05
2.65918e-05
5.98401e-06
1.67906e-06
0.0235034
0.000227607
2.24331e-07
0.0200123
2.05736e-05
2.78403e-16
0.000428017
0.00036421
1.81686e-05
0.0134114
0.000465703
7.79532e-19
5.23236e-05
1.16951e-05
1.45093e-06
5.67474e-06
2.07809e-05
6.40175e-17
2.59786e-05
3.17035e-05
0.0116824
0.00289214
0.000370073
9.43281e-10
0.000297409
0.0601114
3.80705e-05
3.71432e-16
0.018071
0.00280204
2.17982e-05
0.0033182
2.66244e-15
8.69081e-18
0.0183761
0.00216948
0.0229057
0.000772841
0.0496787
0.014227
0.000125404
0.0256655
1.5228e-05
0.0896535
0.00326269
2.69012e-15
3.55954e-05
0.256173
0.0048325
0.00100302
0.00309101
0.000161255
0.00334488
0.0308689
0.00850014
0.00289828
0.144404
0.00373628
9.40061e-19
0.0177332
0.0641074
0.0346317
0.00132791
3.29878e-05
0.000211262
6.11292e-05
0.000668414
0.0188892
0.0197547
2.40111e-08
0.0522104
0.0229644
0.000626897
4.06842e-06
0.0136611
0.00324013
0.000693804
0.0502746
0.000541165
0.000112899
0.0107807
0.0108462
0.0218634
5.90178e-05
4.86563e-07
0.00161608
0.0162883
4.16811e-16
9.40115e-05
0.172776
0.00256415
0.00122598
0.000719626
4.33159e-05
0.00436579
2.55409e-17
0.0186623
1.71402e-06
0.0140938
3.28766e-05
0.00554366
3.01377e-18
0.0164604
1.96949e-11
0.000118386
0.00870306
1.29413e-05
0.0066714
0.00771212
3.31965e-05
0.0159405
0.000134199
0.0156576
0.00662987
0.00924805
0.0563731
0.00558049
0.0292419
0.0345405
0.0170669
4.36649e-05
0.00452923
0.000171402
0.000981175
0.000916549
0.00126038
0.00222373
0.000640173
8.94069e-06
3.29815e-05
2.81739e-06
0.00133815
0.0012794
0.051931
0.00325036
3.01158e-05
0.000110583
2.36876e-05
0.000452183
8.80045e-06
0.00106644
0.0298699
0.00254232
0.00192849
5.23712e-05
0.0170397
5.05323e-07
3.28362e-05
1.89655e-06
0.000217627
0.0346816
0.00680986
0.000514614
0.000733555
0.00447473
0.000220595
8.8386e-05
0.00490039
2.27079e-15
1.49087e-05
8.47619e-05
2.56316e-05
4.58668e-05
4.66396e-05
0.00104405
0.0085883
0.100854
0.00023948
1.81465e-05
6.79325e-06
0.000327684
0.00834583
0.00240765
5.34628e-05
5.16135e-05
0.00319884
4.84889e-05
0.0101136
0.0729731
0.0451503
0.000173764
0.000526908
8.86919e-06
0.000115211
5.57776e-05
0.00392297
0.000450816
0.000754322
0.014227
0.00195309
0.000277954
2.3247e-05
0.000436241
0.0298429
9.23538e-07
5.27271e-18
0.011015
6.03723e-06
0.000564854
0.00459109
2.01552e-09
0.000106174
0.000510935
0.000146211
0.0227173
4.00479e-05
0.000114336
0.000300741
0.00513872
7.80822e-05
0.000698353
0.000108761
0.00128917
0.00963006
3.62592e-05
0.0285802
1.19128e-17
5.1035e-05
0.00236861
7.50936e-05
0.000338754
0.0034567
0.00119532
5.56367e-05
8.62788e-06
0.00180529
3.64526e-05
7.5921e-05
6.72003e-05
0.00333942
1.29079e-05
0.300973
0.000144954
0.000953349
8.52087e-05
3.09822e-05
0.00028341
0.000245022
0.00370523
4.92407e-05
0.000575834
7.13178e-05
0.000904807
0.0139821
0.00279202
0.111894
0.000861697
0.0101724
0.0103056
0.0124124
0.0012606
3.18035e-05
8.00953e-05
9.48368e-05
0.000101366
8.78603e-17
0.000257708
0.0115742
1.20962e-16
8.21563e-17
0.00376956
2.30886e-05
3.22884e-05
0.0149898
2.48454e-05
0.000112423
0.00190862
5.23492e-05
5.08236e-05
0.00159236
4.24911e-05
0.0242858
0.0132877
0.0102122
0.00191663
0.000139588
0.00158766
0.000292606
5.85302e-06
4.17105e-05
2.3134e-19
0.000101104
0.0110384
0.00690408
5.32808e-05
7.44499e-06
5.0014e-08
0.000257662
1.56417e-06
0.000342017
0.00411511
8.38536e-06
4.06723e-05
1.40435e-15
4.89781e-05
0.00276271
6.71126e-05
0.000334665
0.00227825
5.32796e-05
0.00010003
6.37877e-06
6.49512e-18
0.0534958
0.000489138
0.000676215
3.63967e-05
1.65195e-07
0.00221138
2.12898e-06
0.00343718
3.80387e-05
3.31518e-19
4.77637e-18
2.79315e-05
0.0194689
0.00321371
0.0241496
0.00158542
0.0511592
0.000104776
2.36438e-06
0.00023661
1.75606e-18
0.000883379
7.55641e-05
6.40643e-06
0.000102755
5.07789e-05
0.0192896
0.000441752
0.00232699
0.00581069
7.26454e-05
0.0108831
0.00360362
5.16463e-05
0.000934532
0.00319239
0.0296996
0.000303014
4.73675e-17
0.0634798
0.00889653
0.0065229
4.1907e-05
0.0625662
0.000270153
0.015232
3.23076e-05
0.0172169
0.000198041
8.72435e-08
5.95356e-06
9.33779e-06
5.49486e-06
0.0403443
0.0145523
0.0145721
1.51753e-06
0.00231986
0.000107186
1.01052e-06
0.00094897
0.000103832
1.76761e-06
6.22324e-06
3.49533e-07
0.000130884
3.09476e-07
0.0361704
0.00307795
0.00034619
1.73874e-15
1.66729e-15
0.00169301
0.000456146
0.00151674
0.000733748
1.36683e-06
0.0140759
0.000252091
0.000667884
0.00205913
0.00125853
0.000133294
7.51006e-05
0.000175884
4.42066e-05
1.8063e-06
1.35294e-05
0.000108521
0.000672505
0.00010291
9.35474e-07
0.016721
0.00021754
0.000573462
2.40932e-05
5.50949e-05
0.000489863
0.0069583
0.0028832
0.000594586
0.00021406
7.16052e-05
5.54602e-06
0.0043335
9.41454e-06
0.00752676
0.000392278
2.4832e-05
0.00186979
0.0960831
5.45555e-05
0.000193649
0.000518082
3.77323e-05
3.84694e-05
1.82905e-06
0.000199858
1.62368e-05
0.00137447
0.00370522
0.000582787
6.76496e-05
7.65071e-07
0.000464171
0.00948702
5.95671e-07
0.000140474
8.68857e-06
2.47011e-05
0.000369269
0.000182031
2.15877e-05
0.00029252
4.73382e-08
0.000101376
7.73427e-13
1.76888e-17
0.000198676
0.120202
7.38694e-06
0.000564635
0.000225608
0.000105523
0.0117516
8.44229e-06
0.00274498
0.000121039
7.96138e-05
0.00052353
1.85524e-05
0.000205821
1.66627e-06
3.85759e-06
0.000108729
0.000122882
0.0185118
0.000601952
0.000357229
0.000355325
3.40532e-06
4.46539e-05
0.000179728
0.00261965
3.06223e-05
1.60145e-16
2.99917e-06
0.00116741
1.47627e-05
0.0124481
0.000291267
8.44059e-08
0.000162197
0.000126801
0.0846052
0.000382006
6.81365e-06
2.98946e-17
1.36864e-18
0.000209001
0.000597879
0.0266118
0.00854882
6.62579e-16
3.07921e-05
0.0377139
0.0398651
1.21403e-18
0.0179857
0.00592269
0.000394454
0.000130075
2.00861e-16
1.51154e-16
0.000317377
6.25919e-16
0.00429814
1.50778e-05
0.000162191
2.66784e-05
5.69482e-05
0.00601227
7.75556e-05
3.91057e-05
3.90845e-05
9.46588e-18
0.000198151
7.29863e-18
4.38249e-16
1.00037
0.00018448
0.0194182
0.00306732
1.08941e-05
8.46708e-17
0.0154819
0.00188606
1.99026e-05
1.62171e-05
0.0033001
1.53548e-15
5.38822e-06
0.000396788
1.69735e-05
0.00222524
0.000556076
0.000466285
0.00053423
6.05117e-06
7.01947e-05
0.0195832
0.0028305
0.000590485
4.02219e-17
0.0035541
9.61181e-05
9.40188e-05
0.000249279
0.00929819
0.0125694
0.00410648
0.000756884
0.000178926
0.00253679
0.00190317
0.002023
0.000460196
0.000229064
2.18445e-17
0.00366306
0.00169233
0.000124149
0.000105997
0.00075163
0.00157589
2.39958e-17
2.3668e-16
0.0226638
1.10923e-05
0.000909254
0.000301791
0.00330433
0.00989881
3.5327e-07
8.85855e-05
0.00561323
0.000153947
0.000125315
7.26593e-05
4.36331e-06
1.27053e-05
1.75179e-05
0.00360726
0.0130076
5.27259e-19
0.00604417
0.00159088
0.151293
0.000166993
0.00139933
3.06362e-05
0.00908318
1.14487e-05
8.52717e-05
2.58466e-05
0.0198179
1.2051e-05
0.000511628
0.000684634
1.96538e-05
0.00675811
6.54628e-05
0.00221022
0.0168523
0.00690483
5.47317e-05
3.78416e-05
0.0122897
0.000135985
4.4265e-05
0.00190105
0.000773097
0.00188846
2.09671e-05
0.000111173
0.00466399
0.00326958
6.46995e-05
2.78174e-05
0.000257245
0.00189317
4.90882e-18
7.60667e-05
2.54087e-06
0.000929039
0.0150876
0.00284739
0.0015626
0.00332275
0.000492179
0.0314371
0.00132464
0.0074381
0.000251813
1.03924e-05
0.000235471
2.74375e-05
0.000448291
5.87369e-06
8.15769e-18
0.00119357
0.000152931
0.0375108
0.000766868
0.00781995
5.24091e-05
0.00747517
0.000337362
0.0148991
0.0174267
0.00140088
0.00971314
1.06622e-05
0.000373267
2.79903e-06
0.000601183
0.000218002
0.000351871
6.17301e-05
0.000307573
0.000100139
0.00264486
2.11139e-05
5.59091e-05
5.96006e-05
1.13311e-16
0.0266183
0.000161554
1.60453e-05
3.39321e-05
3.10974e-05
0.000138297
0.00542275
8.63826e-05
3.2653e-07
3.44569e-05
0.00159892
0.00312741
0.000252663
0.0157044
0.0132232
2.78947e-17
0.000208958
0.000164318
0.000100279
0.000289885
0.000472995
0.000453025
2.38737e-05
0.000932824
0.000451263
0.00528631
1.54971e-16
0.00116246
0.000541887
0.0083867
0.00527255
0.0087551
2.06139e-05
0.0542844
0.0219946
0.0970713
2.0744e-05
0.00014601
3.7083e-05
0.000278181
0.00674211
0.0100111
0.0301151
0.0247043
9.16024e-06
1.59606e-05
0.00773278
0.00039992
0.0174779
0.301396
0.0177748
0.000344503
0.000448561
0.0159708
0.00158579
0.000242481
0.000725975
0.162068
1.3706
6.9515e-05
1.03123e-06
6.3893e-05
0.00340845
0.00104892
0.00185535
0.00269539
0.00196728
0.00212671
0.000884406
2.80874e-06
3.11839e-05
0.000207747
1.03851e-07
5.87407e-05
0.000443603
2.79911e-05
9.00612e-07
0.00321243
0.0108893
0.00402706
2.45727e-07
1.08977e-05
3.13995e-05
1.97626e-07
6.60019e-05
3.0065e-05
0.00878497
8.2123e-17
0.0311437
0.000107875
0.0484918
0.014993
0.000250141
0.00216241
1.01555e-05
0.00234938
0.000137162
0.00087203
0.0837745
1.10328e-05
3.55677e-19
5.69477e-10
4.31597e-05
0.00344271