/*--------------------------------*- C++ -*----------------------------------*\
  =========                 |
  \\      /  F ield         | OpenFOAM: The Open Source CFD Toolbox
   \\    /   O peration     | Website:  https://openfoam.org
    \\  /    A nd           | Version:  10
     \\/     M anipulation  |
\*---------------------------------------------------------------------------*/
FoamFile
{
    format      ascii;
    class       volVectorField;
    location    "114";
    object      U;
}
// * * * * * * * * * * * * * * * * * * * * * * * * * * * * * * * * * * * * * //

dimensions      [0 1 -1 0 0 0 0];

internalField   nonuniform List<vector> 
59698
(
(0.584697 0.0059726 -0.00173171)
(0.564786 -0.00115089 -0.000860019)
(0.566518 -0.000686623 0.00170025)
(0.57881 -0.00342862 -0.00127362)
(0.562951 0.000731557 -0.0029091)
(0.197723 0.198055 -0.00634469)
(0.566925 0.000231109 0.000405036)
(0.564033 0.000851907 -0.000292408)
(0.199879 -0.199527 -0.000424445)
(0.201226 -0.20079 -1.58474e-05)
(0.20037 -0.198721 -0.00062409)
(0.567011 -0.000304541 -0.000405191)
(0.199806 0.200486 -0.000570784)
(0.561612 -0.000761088 -0.000194202)
(0.562027 0.00107036 -0.00254269)
(0.203958 -0.197114 0.00180831)
(0.564674 0.000134495 0.000203538)
(0.566071 -0.00126004 0.000386164)
(0.567635 -0.00052089 0.000300949)
(0.567346 -0.0003725 -8.02686e-05)
(0.142872 -0.100117 -0.0251062)
(0.536095 -0.00147011 -0.00275168)
(0.265182 -0.172919 -0.0075213)
(0.198824 -0.199921 -0.00136796)
(0.570369 0.000668575 0.00109028)
(0.566224 -0.0011556 0.00043332)
(0.566467 -0.000342126 -0.000425765)
(0.557264 -0.000205887 -0.00120511)
(0.570319 0.00140228 0.000883739)
(0.572429 -0.00046463 0.000449418)
(0.548133 -0.000332852 -0.000372999)
(0.198531 -0.198582 -0.000187055)
(0.201159 -0.197949 0.00230616)
(0.559735 0.00122693 -0.000840874)
(0.549114 0.0114566 -0.00747549)
(0.566733 -0.000911464 -0.000387832)
(0.274933 0.0656756 -0.0385798)
(0.539487 0.000733466 0.000160123)
(0.561694 0.0001307 0.000560628)
(0.568154 0.0015274 -0.00276927)
(0.56391 0.000429796 -8.58964e-05)
(0.1949 0.197809 -0.00173683)
(0.562391 0.00058405 -0.00059848)
(0.563705 0.000446273 0.000105648)
(0.196729 0.199572 -0.000252534)
(0.560911 0.00366216 0.00513236)
(0.567064 -0.000861381 0.000371354)
(0.561577 -0.00032498 0.00149039)
(0.562932 0.000324919 0.000879476)
(0.565361 -0.00069867 0.000234591)
(0.567928 0.000158175 -0.000169965)
(0.566901 -0.000868375 0.000349418)
(0.566562 -8.59353e-05 -0.000782679)
(0.560441 -0.00016841 0.000459983)
(0.57242 0.00294315 0.00104245)
(0.567403 -0.000517881 -0.000138395)
(0.562754 -0.000985994 0.000604788)
(0.524737 -0.00189496 -0.000274755)
(0.564637 -0.000787125 -0.000387699)
(0.268455 0.121472 -0.0193776)
(0.559159 0.00459367 -0.00252841)
(0.564612 0.00135923 0.000529686)
(0.577856 0.014695 0.00648629)
(0.567579 -0.000566461 0.000377673)
(0.561853 0.000243623 0.000712345)
(0.561407 0.000191977 0.00206951)
(0.19952 -0.199946 -1.22595e-05)
(0.567125 -0.00056002 -0.000633806)
(0.566981 -0.00046695 -0.000639967)
(0.199516 -0.19921 -7.82657e-05)
(0.209377 0.182566 -0.00779324)
(0.565284 -0.000731828 2.095e-05)
(0.16641 0.118774 -0.0343921)
(0.593041 -0.0110761 0.0202741)
(0.202915 0.203536 -0.000368764)
(0.590041 -0.0252629 0.0212074)
(0.56114 0.000252489 0.000998699)
(0.56104 0.000234081 -0.00161852)
(0.566859 0.000816726 -0.000636026)
(0.571495 0.00155461 0.000130161)
(0.5527 -0.00186172 -9.82288e-06)
(0.567921 0.000239769 -0.000122093)
(0.201247 -0.200761 -5.88941e-05)
(0.565107 -0.000730474 0.00060149)
(0.400001 -0.103808 0.0152683)
(0.562805 0.000189472 -8.64818e-05)
(0.563147 -0.00122749 0.0016235)
(0.557669 0.000482886 0.00714753)
(0.562024 0.00139494 0.000994292)
(0.560497 -0.00017508 0.0015872)
(0.199534 -0.199173 -0.00016291)
(0.560433 0.000896594 0.000571211)
(0.560805 -0.000427096 0.00166466)
(0.565876 -0.00034777 0.000404534)
(0.561547 0.00116772 0.00099366)
(0.56353 -0.0036834 0.00128592)
(0.558657 0.000691906 0.00124356)
(0.562341 0.000543712 0.000558633)
(0.559274 0.000662873 0.0012427)
(0.199678 0.200038 -3.38293e-06)
(0.556436 0.00154109 0.000860337)
(0.567515 0.00521928 0.0062408)
(0.563027 -2.67434e-05 0.000190725)
(0.563033 -0.00176204 -0.00447546)
(0.567133 -0.000575032 0.000827287)
(0.198838 0.198574 0.000131079)
(0.565441 -0.001001 0.000607211)
(0.567254 -0.00035728 -0.000411848)
(0.200751 -0.200884 -7.01165e-05)
(0.199793 0.199688 -0.000369837)
(0.566316 -0.000784922 -0.000367212)
(0.570432 -0.0104263 -8.60148e-05)
(0.561802 0.00142523 0.00157283)
(0.200896 0.198779 -0.000337497)
(0.561059 -0.000133254 0.000251852)
(0.567444 -4.31574e-05 0.000154627)
(0.567177 0.00135512 -0.00137198)
(0.565194 0.00306657 0.000775458)
(0.56375 -0.000833489 0.00205373)
(0.200911 -0.200443 0.000447704)
(0.565651 -7.13245e-05 -2.42692e-05)
(0.558249 -0.00636298 -0.0037675)
(0.563155 -0.0049715 0.00572304)
(0.564549 -6.25964e-05 0.000119914)
(0.564028 0.000121792 0.000201086)
(0.566042 -0.000323337 -0.000139301)
(0.565945 -7.36633e-05 -0.000519439)
(0.199564 -0.199512 0.000485527)
(0.562043 -0.000615897 -0.000194239)
(0.567541 0.000318312 -0.00199241)
(0.567335 0.000366864 0.000582535)
(0.567219 -0.000177568 -0.00107632)
(0.201403 -0.200546 -1.29964e-05)
(0.579326 0.0069075 0.000618614)
(0.572764 -0.000122131 0.000175651)
(0.568493 -0.000188308 -0.000186216)
(0.5698 0.0038341 -0.00108793)
(0.20104 -0.200689 0.000304499)
(0.567412 -0.000354718 -0.000268649)
(0.568541 -1.98491e-05 -0.000361589)
(0.565298 -0.000270294 0.000884732)
(0.562622 0.00317254 -0.00101469)
(0.566081 -0.000849619 -0.000465198)
(0.567401 -0.000333459 -0.000309108)
(0.566013 0.00220246 -0.000449017)
(0.567418 -0.000273289 2.19457e-05)
(0.563624 -0.00395182 0.000303777)
(0.566472 -0.00372144 -0.000531918)
(0.562337 0.00038103 0.000900679)
(0.552184 -0.000248162 -1.06463e-05)
(0.408613 0.144237 0.0731015)
(0.2002 -0.199654 0.000118495)
(0.562147 -0.00010716 6.5336e-05)
(0.556583 -0.00217837 -0.00379623)
(0.56312 -0.000261244 -0.000200411)
(0.560674 0.000198661 -0.000462984)
(0.566473 -0.00105257 -0.000269165)
(0.558784 -0.000966784 0.00305259)
(0.56354 -0.000301739 -0.000342855)
(0.199703 0.199541 -0.000103642)
(0.564899 9.46357e-05 0.000165503)
(0.562824 -0.000374082 0.000239272)
(0.567885 -0.000599218 -0.000245584)
(0.554709 0.00186173 -0.00112809)
(0.562804 -0.000549978 -0.000185677)
(0.566783 -6.93277e-05 -0.000222208)
(0.567031 -0.000204792 -0.00069251)
(0.412384 0.0870112 0.00621564)
(0.554762 -0.000546219 -0.000368377)
(0.567032 -0.00013149 -0.000503593)
(0.559238 0.0017558 -0.00251179)
(0.2111 0.17377 0.000730409)
(0.553055 0.00137706 -0.00214531)
(0.552568 0.00127331 -0.00204824)
(0.578308 0.00140143 -0.00547521)
(0.562494 0.000275973 0.000357255)
(0.199576 -0.198909 0.000797162)
(0.53837 0.0050105 0.00298424)
(0.198958 -0.197823 -0.0057914)
(0.561928 0.000554661 -0.000467171)
(0.510502 -0.00190866 0.00527136)
(0.548333 -0.000553366 -0.000493711)
(0.562626 0.000373985 -0.00097788)
(0.565398 1.24967e-05 -0.00026553)
(0.564666 0.000617215 -0.000837045)
(0.543606 -0.000315575 -0.00034635)
(0.543503 4.91777e-05 -0.000891854)
(0.559564 0.00374075 0.00123777)
(0.566674 -5.21543e-05 0.000162175)
(0.56392 0.0015146 0.000727006)
(0.561578 0.000227703 0.000723034)
(0.56258 -0.000321349 0.000624675)
(0.562851 0.000559622 0.000502203)
(0.561887 -0.00036968 -0.00049595)
(0.554552 0.000260148 -0.000429142)
(0.55726 0.00327955 0.000809663)
(0.576637 0.00581545 -0.0136058)
(0.575774 0.00371651 -0.00218056)
(0.152117 -0.14395 -0.0194775)
(0.554179 -0.000547204 0.000125854)
(0.203034 0.205884 0.00271946)
(0.545885 0.000600551 0.000954388)
(0.573214 0.000350306 0.000270642)
(0.566603 -0.000373923 -0.000487213)
(0.552838 0.000945568 0.00114041)
(0.566783 0.000156614 0.000158859)
(0.563887 0.000365808 -0.000740743)
(0.557127 -0.00209103 0.00126192)
(0.55455 0.0115005 0.000469886)
(0.562299 0.000287306 -0.000181656)
(0.566008 0.000188935 0.000206628)
(0.564891 0.000213885 0.000470439)
(0.55475 0.000449107 0.0022325)
(0.199004 -0.197044 -0.00110276)
(0.5653 -0.000272162 -0.000187387)
(0.560064 0.000617083 -0.000141367)
(0.566177 -0.000789213 4.98406e-05)
(0.560981 -0.000619792 -0.00185495)
(0.56151 -0.000688501 -0.000151506)
(0.564914 0.000495283 -0.000587122)
(0.582056 0.024426 0.0226984)
(0.563811 -0.000275355 0.000361095)
(0.565028 4.39302e-05 0.000104918)
(0.556945 0.000926271 0.00285638)
(0.565108 -0.000391804 -0.000239723)
(0.553625 0.00259396 0.00292158)
(0.564372 5.85487e-05 -7.97658e-05)
(0.566047 0.000583074 -0.000490885)
(0.57797 0.00276532 -0.000862255)
(0.593331 0.0122669 0.00971129)
(0.199024 0.198602 -0.00039236)
(0.563347 1.66261e-05 0.000449581)
(0.565725 0.000398964 8.97721e-05)
(0.564475 0.000127871 -0.000363957)
(0.563562 -0.000541951 0.000475737)
(0.567923 -0.000480128 -1.90584e-05)
(0.564986 0.00159162 0.0015215)
(0.564062 0.000331228 0.000185001)
(0.558513 0.00137224 0.0034846)
(0.562145 -0.00090736 0.000487144)
(0.564871 -0.000211996 -8.13985e-05)
(0.563779 -0.00120828 -0.000490952)
(0.570497 4.20424e-05 -7.38516e-05)
(0.197427 -0.19788 0.00334429)
(0.566669 -0.000290941 -5.64849e-05)
(0.564051 0.000203596 0.00389743)
(0.582345 0.00507805 0.0160858)
(0.591441 -0.00739033 0.0131154)
(0.566261 3.0397e-05 0.000154591)
(0.567021 -0.000819584 0.000424993)
(0.561345 0.00107449 0.00400696)
(0.56256 -0.00047664 0.000450956)
(0.563375 0.00100266 0.000881532)
(0.198218 -0.193516 0.00312095)
(0.566487 -0.00138544 -9.77566e-05)
(0.563348 0.000356507 0.000415539)
(0.560512 0.00211141 0.000594756)
(0.561269 -0.000664041 0.000611713)
(0.566126 -0.000489363 -0.000125171)
(0.565003 -0.000162433 -3.38126e-05)
(0.201375 -0.109572 -0.0013106)
(0.200412 0.200047 0.000143653)
(0.563532 -0.00093768 0.000581736)
(0.559874 0.000594776 -0.00115526)
(0.558083 -0.00147064 0.00231507)
(0.586934 0.00740387 0.00245098)
(0.565414 4.21619e-05 -5.02086e-05)
(0.196925 -0.198436 -0.00164151)
(0.565466 -0.00117509 0.000416997)
(0.564886 -0.00018133 -0.000151029)
(0.566643 -0.000977465 -9.46302e-05)
(0.563159 -0.00123416 -0.000720313)
(0.545945 -0.118153 0.0772614)
(0.564759 -0.000125486 -0.000241097)
(0.56502 -0.000251684 6.73943e-05)
(0.5576 0.000381676 0.00141259)
(0.564909 -0.00164679 -0.00373673)
(0.564272 -0.000617193 0.00150071)
(0.57007 0.000276219 0.000193795)
(0.20081 -0.200143 0.000133784)
(0.195991 -0.195353 0.00168423)
(0.567553 3.38482e-07 -2.96488e-05)
(0.567041 -0.000894423 0.000489957)
(0.581546 0.0021336 0.00129286)
(0.587024 0.00638581 0.000906985)
(0.57791 -0.00116866 0.00145439)
(0.566051 -0.000286807 -0.000688943)
(0.299249 -0.213283 -0.0187948)
(0.574271 0.00145647 0.000573298)
(0.563433 0.00229268 0.00300205)
(0.585815 0.0172683 0.000817191)
(0.567501 0.000350889 0.000314417)
(0.565284 -0.000874023 0.000552111)
(0.567008 -0.0010029 0.000162103)
(0.569825 -0.00107493 0.000816352)
(0.560552 -0.00149884 0.000709085)
(0.568322 -0.00025782 -0.00062647)
(0.568041 0.00156429 -0.000587491)
(0.565024 -7.06402e-06 -0.000137071)
(0.562978 0.00119331 0.00366936)
(0.566214 0.0016359 -6.22449e-05)
(0.198732 0.198913 -9.68225e-05)
(0.195968 0.197806 0.00149919)
(0.567155 -0.000166542 -0.000402786)
(0.567242 -0.000482609 -0.000159638)
(0.567047 -0.000209236 -0.000281177)
(0.56906 0.000296905 -0.00146598)
(0.560493 -0.00111926 -0.000320283)
(0.562304 -0.000376989 0.000261543)
(0.567294 -0.000131278 -0.000246073)
(0.5653 7.00952e-05 0.000153156)
(0.563431 -0.00200964 0.000544519)
(0.566016 0.000286642 0.000216944)
(0.200736 0.200934 0.001316)
(0.561462 -0.0032824 0.00169704)
(0.56694 0.000688212 -0.000103037)
(0.202035 0.202597 -0.000457392)
(0.566735 -0.000208693 0.000183516)
(0.195214 0.19703 -0.00207387)
(0.565268 0.00249251 -0.00204055)
(0.562537 0.00303552 -0.0030476)
(0.594112 -0.00995958 0.0191249)
(0.564557 -0.000556987 8.53169e-05)
(0.199745 -0.199395 0.000602534)
(0.600981 -0.0134052 0.0177807)
(0.555721 -0.000163608 0.000689298)
(0.56424 -7.18848e-06 -0.000328251)
(0.566686 -0.000328795 0.000455775)
(0.567173 0.000542941 -0.000197301)
(0.199172 0.199228 -0.000186403)
(0.548296 -0.000137106 -0.00206196)
(0.564062 -0.000933385 0.000316716)
(0.558893 0.000230136 -0.000662321)
(0.582506 -0.0108425 0.0166878)
(0.199615 -0.199995 -0.000181298)
(0.567465 0.000539595 0.000619339)
(0.562775 -0.000629205 0.000173839)
(0.566408 -6.60928e-05 0.00022803)
(0.557063 -0.00123052 -0.000423182)
(0.567951 0.000251752 -0.000132994)
(0.563853 0.0012514 0.00096465)
(0.566782 0.00258738 -0.00169124)
(0.564946 -0.000398547 0.000207654)
(0.565444 7.04785e-05 2.99667e-05)
(0.557771 0.000821651 -0.00115793)
(0.564926 -0.00017417 -0.000126134)
(0.564371 0.000209855 -7.56675e-05)
(0.540974 0.00127257 -0.00106359)
(0.562786 4.97023e-05 -0.000218159)
(0.562775 0.000132301 0.000266804)
(0.567644 0.000161451 0.000118224)
(0.56186 -0.00100802 0.000739666)
(0.569859 -0.00321725 -0.000937547)
(0.199481 -0.199203 -0.000145881)
(0.589949 0.00273664 0.00603797)
(0.546944 0.00063762 -0.000859319)
(0.554154 0.00250225 -0.00693451)
(0.564788 -0.000162024 0.00011214)
(0.562253 0.000384103 0.000734661)
(0.199411 -0.199034 3.03145e-05)
(0.566508 0.00105904 -0.000580324)
(0.559157 -0.000280852 0.000657519)
(0.203243 -0.194647 0.00034531)
(0.565668 -5.58115e-05 0.000274287)
(0.199994 0.200038 -5.31556e-05)
(0.196476 0.201286 0.000518989)
(0.563239 -5.71582e-05 9.05351e-05)
(0.564628 -0.000682181 0.0011867)
(0.564547 -0.00040885 0.000185046)
(0.490944 -0.00579573 0.00275244)
(0.567831 0.000240841 0.000291592)
(0.197988 0.198556 0.000296686)
(0.566114 0.000193488 -0.000318635)
(0.19731 0.199025 0.00130142)
(0.562947 8.81141e-05 -0.000556732)
(0.200085 -0.200253 -1.43246e-05)
(0.564371 -0.000395778 0.000385464)
(0.565345 0.000225292 2.30162e-05)
(0.198898 0.198357 -1.12823e-05)
(0.199022 -0.199213 0.000130085)
(0.201361 0.198084 -0.00338427)
(0.56306 -7.59312e-05 -0.000268993)
(0.565879 0.00135239 0.000399433)
(0.560207 0.000766513 -0.000374327)
(0.56671 -0.000263839 7.31175e-06)
(0.277613 0.142122 -0.00519652)
(0.563273 -0.000400849 0.000953724)
(0.199301 0.199501 2.99171e-05)
(0.199581 0.200001 -4.92241e-05)
(0.564975 0.00258253 0.00093649)
(0.560061 -0.000460869 4.88533e-05)
(0.199364 -0.196653 0.000737242)
(0.563762 0.000310047 0.00117177)
(0.574328 0.000286242 1.93737e-06)
(0.37957 -0.147385 0.0156206)
(0.526848 -0.00158949 -0.00036052)
(0.551069 0.0162903 -0.0114889)
(0.562557 0.0027302 0.0016068)
(0.561085 -0.000268888 -0.00249481)
(0.563483 -0.00168444 0.00130252)
(0.562482 0.000480368 -0.000500178)
(0.563754 0.000124769 -0.000179586)
(0.565001 -2.13402e-05 -0.000430965)
(0.564701 -0.000548795 -0.000503001)
(0.553116 -0.00291008 -0.000646567)
(0.560736 0.00442972 0.000764715)
(0.575932 0.00417889 -0.00283406)
(0.581595 0.00294996 -0.000771817)
(0.564369 0.00036276 -0.00136299)
(0.530732 0.000400162 -0.00298956)
(0.571606 0.00235933 -0.00162547)
(0.198921 -0.199129 1.93594e-06)
(0.560187 0.000616099 -0.00129235)
(0.199603 -0.199554 0.000196714)
(0.561368 -4.49432e-05 0.000209596)
(0.584021 0.00154694 0.00226561)
(0.56717 1.54436e-05 -0.000119523)
(0.567399 -0.0274386 0.012678)
(0.532813 -0.00254673 0.000841484)
(0.535122 -3.38186e-05 -0.00637804)
(0.561608 -0.000528711 0.000230071)
(0.563035 -0.000242292 0.000695328)
(0.563947 0.00123484 0.00237931)
(0.587738 0.012787 0.0120192)
(0.563705 -3.49685e-05 8.07642e-05)
(0.563968 -0.00024127 0.000177789)
(0.200002 -0.199859 0.000343927)
(0.561591 -8.89999e-05 -0.000216588)
(0.558024 -0.00162554 1.94308e-05)
(0.199438 0.199208 -3.80771e-05)
(0.564303 -0.00147248 0.000763768)
(0.575408 0.0179111 0.0084517)
(0.572297 -0.00466669 0.00679752)
(0.565001 7.79044e-05 -0.0013542)
(0.561263 -0.000243826 0.00148871)
(0.200482 -0.200408 -0.000921236)
(0.205317 -0.202252 0.000309561)
(0.57453 0.0047999 -0.00106575)
(0.565975 -0.000365567 -0.00049347)
(0.563242 -0.0010232 -0.00402496)
(0.202961 0.200382 -0.00178367)
(0.56522 -0.000610291 -0.000410013)
(0.200613 -0.199904 0.000299421)
(0.562047 -0.000431001 -0.000191898)
(0.563662 -0.000813706 -0.00101043)
(0.516587 -0.00739575 -0.00329961)
(0.580708 -0.00164117 0.00290684)
(0.200021 0.19974 -4.20615e-05)
(0.565389 -0.00104846 0.000623401)
(0.554052 -0.000111652 0.000326555)
(0.562406 -9.60878e-05 -0.00191145)
(0.566115 -0.000703401 -0.000177415)
(0.563957 0.00100449 -0.00093298)
(0.565212 -0.00126159 -0.000189205)
(0.562712 0.00163214 0.000109945)
(0.562265 0.0002308 -2.30247e-07)
(0.580688 0.0013705 0.00230173)
(0.199644 -0.199555 0.000248618)
(0.546952 0.000423197 -0.000295297)
(0.561539 -0.000219476 0.00109322)
(0.577633 -0.00116615 0.00146767)
(0.564683 -0.000136565 -5.79546e-05)
(0.555146 -0.00150753 0.00156191)
(0.576989 6.50298e-05 0.000612914)
(0.200503 -0.19944 -0.000187993)
(0.560189 0.00512319 0.00197207)
(0.559698 0.00732972 0.00686658)
(0.56751 -0.000222132 -0.000149084)
(0.563814 0.000644905 -0.000608271)
(0.565752 0.000162536 2.69513e-06)
(0.560568 -0.00508285 -5.33402e-05)
(0.198388 0.198593 -0.000304679)
(0.199871 0.199799 6.48245e-07)
(0.198963 0.199803 2.54838e-05)
(0.563822 0.00213713 0.00288594)
(0.554081 -0.00310728 -0.00801103)
(0.504361 -0.00178718 0.00091045)
(0.577117 0.00101411 0.000570078)
(0.56669 -0.00296027 0.000958806)
(0.562935 -0.000512784 0.000678301)
(0.563137 0.00069155 -6.86345e-05)
(0.560052 0.00012025 0.000581166)
(0.563475 -0.000146324 0.000180314)
(0.202956 0.198902 -0.000349038)
(0.555929 -0.00674463 2.83198e-05)
(0.562455 -0.000568724 -0.000102938)
(0.560008 0.000888105 0.00130403)
(0.562516 -0.000574074 0.000594007)
(0.571967 0.000489701 0.000486218)
(0.567417 0.000777159 9.97734e-05)
(0.560669 0.000745119 -0.000884642)
(0.590284 -0.00138225 0.00683752)
(0.574138 0.000919533 0.000245897)
(0.559866 -0.000551718 -0.00130301)
(0.571363 0.000347122 -0.000108144)
(0.559648 0.000804251 0.0014646)
(0.562085 -1.75313e-05 -0.000152186)
(0.556088 0.00348984 0.00266863)
(0.566573 -0.000224274 -0.000473249)
(0.197299 0.196543 0.000418677)
(0.198803 0.198752 -9.27597e-05)
(0.57365 -0.00182829 0.000799291)
(0.557036 0.000337145 0.000336273)
(0.566084 7.48877e-05 0.000488025)
(0.199187 0.200506 0.000238426)
(0.20001 -0.199959 -0.000255019)
(0.562748 -0.000773706 -0.000138535)
(0.200484 -0.200706 -1.1422e-05)
(0.564088 0.00027317 -2.98372e-06)
(0.567291 -2.70987e-05 -2.91024e-05)
(0.565727 -0.000247136 0.00011216)
(0.570639 0.000203633 0.000271882)
(0.561041 -0.00412415 -0.00117448)
(0.197936 0.200093 0.00148551)
(0.568064 -0.000721644 5.02272e-05)
(0.564782 -0.000203341 -5.88263e-06)
(0.198153 0.198359 0.000185131)
(0.563495 0.000301594 0.000467251)
(0.198281 0.200199 0.000328705)
(0.197312 0.196192 9.3316e-05)
(0.566831 0.000219981 -0.000507397)
(0.567469 0.000660911 -0.000130768)
(0.56425 -6.73922e-05 4.88262e-05)
(0.19917 0.198913 -0.000636956)
(0.199053 0.199096 0.00012102)
(0.486589 -0.000403437 -0.000902449)
(0.565738 -0.000503379 0.000993578)
(0.566212 0.000111114 -0.000248438)
(0.567077 -0.000405622 -0.000363815)
(0.564098 0.000507035 -0.000729085)
(0.565968 0.000244006 -0.000458159)
(0.563996 0.0213008 -0.0143724)
(0.199761 -0.200313 -0.000235189)
(0.564142 -0.000506218 1.87839e-05)
(0.560833 2.11865e-05 0.000177243)
(0.19943 0.199453 -4.00439e-05)
(0.200328 0.19868 -0.000271637)
(0.556999 -0.000212067 0.000188617)
(0.563705 -0.000376482 5.73189e-05)
(0.198436 -0.198837 0.000602235)
(0.56663 -0.000285185 -7.44041e-05)
(0.564932 0.00019598 -0.000182349)
(0.564932 -3.67826e-05 -0.00108229)
(0.590596 0.0429944 -0.0160993)
(0.563166 0.000477168 9.12134e-05)
(0.568907 -0.000442933 -1.66511e-05)
(0.559193 0.0241733 -0.00305509)
(0.637575 0.12972 -0.0577795)
(0.566476 1.54947e-05 0.000120728)
(0.255793 0.159992 -0.00757088)
(0.561678 0.000570219 -0.000147162)
(0.200368 -0.199998 -5.95878e-06)
(0.558105 9.51148e-05 0.000962482)
(0.199714 -0.199532 0.000636193)
(0.565531 0.000144972 -0.000482009)
(0.56366 0.000439064 -0.000420798)
(0.1995 0.200295 -0.000234634)
(0.560796 0.000596989 0.000713968)
(0.565815 -0.000614647 -0.000276083)
(0.56822 -0.000304635 -0.000269898)
(0.199419 0.199113 4.86376e-05)
(0.198756 -0.199013 -0.000229477)
(0.561693 -0.000550923 0.000767014)
(0.163038 0.116222 0.0436589)
(0.567008 -0.0012268 -0.000652406)
(0.20042 -0.199736 0.000194018)
(0.582341 -0.000897231 0.00725553)
(0.561717 0.000463591 -0.00012174)
(0.567174 8.92903e-05 -0.000294539)
(0.200404 -0.198004 -0.00141012)
(0.568145 -0.000302352 -0.000174038)
(0.565512 -0.000987552 0.000597823)
(0.207081 0.196066 -0.00113716)
(0.568371 0.000178463 -0.000726)
(0.566344 0.00026814 -0.00121534)
(0.567657 0.00031294 6.97521e-05)
(0.566567 -0.000303093 -9.63892e-05)
(0.568045 -6.10481e-05 -0.000195879)
(0.566129 -0.000431332 -0.000479983)
(0.200168 -0.20066 -0.000273337)
(0.192469 0.193549 0.00061001)
(0.560473 0.000413999 0.000976788)
(0.565455 0.000899077 0.00227874)
(0.56472 -6.06518e-05 -0.000363245)
(0.568099 9.86237e-05 -0.000357946)
(0.199526 0.19945 2.13202e-05)
(0.566067 -0.00020224 -3.92401e-05)
(0.565361 0.000121268 -0.00101038)
(0.570981 -0.000271303 0.000412041)
(0.566701 0.000206918 -0.000271823)
(0.568435 -4.90081e-05 -0.000366125)
(0.560421 0.000812379 0.000746981)
(0.565351 0.000522548 -0.00111464)
(0.565028 0.000517703 -0.000811612)
(0.198826 0.198663 -0.000341953)
(0.558657 0.000467198 -0.000111999)
(0.227808 -0.191981 -0.00760414)
(0.553898 -0.00345456 0.0006079)
(0.196659 0.191302 -0.00190575)
(0.198295 0.198715 -4.70323e-05)
(0.565709 -2.88791e-05 0.000143577)
(0.564833 1.18781e-05 0.000231971)
(0.19925 0.198907 -6.5785e-05)
(0.555873 -0.000473237 0.000468338)
(0.565504 -0.000625068 4.52584e-05)
(0.566354 -0.00048276 -0.000125036)
(0.566304 2.19866e-05 -0.000542117)
(0.199207 0.198381 0.000731332)
(0.564957 0.000278277 7.01202e-05)
(0.559938 -4.9127e-05 0.000668031)
(0.560552 3.81771e-05 0.000583752)
(0.567149 0.000216296 -0.000308451)
(0.562428 2.71732e-05 0.000396698)
(0.567029 -0.000101197 -0.000375699)
(0.565629 6.33508e-06 -0.000123298)
(0.56585 0.000168399 -0.000117632)
(0.562373 -8.66459e-05 0.000277046)
(0.573724 -0.000849068 0.000502754)
(0.157246 0.0628999 -0.0718699)
(0.562823 -3.52215e-05 0.000370317)
(0.198257 0.198719 0.000268506)
(0.565514 0.00017523 0.000903835)
(0.566687 -0.000175137 -0.000689347)
(0.56289 0.00222168 -0.000398792)
(0.558049 -0.00216465 0.00389196)
(0.56443 -0.0010052 0.00209218)
(0.56822 0.000374879 5.88532e-05)
(0.567416 -9.63513e-05 -0.000809192)
(0.566901 -0.000262011 -0.000270224)
(0.567043 -0.00080969 -0.000894627)
(0.56114 -0.0011056 0.000853044)
(0.197998 0.199511 -0.00289919)
(0.566708 -0.000234436 0.000238831)
(0.565991 0.000339095 0.000332325)
(0.567893 -0.000304793 9.10001e-05)
(0.566021 -0.000101125 -0.000395851)
(0.566385 -0.00073743 -0.000626984)
(0.562661 -8.18901e-05 0.000386151)
(0.556429 0.00647416 -0.00109353)
(0.572354 0.000713805 0.000617112)
(0.558238 0.00181611 -0.00092959)
(0.562507 0.000322148 -0.000890359)
(0.199324 0.19933 8.76658e-05)
(0.200511 -0.199732 -3.70203e-06)
(0.566806 0.000176947 0.000171131)
(0.567759 0.000426164 0.000322315)
(0.5626 -0.000525879 0.000430027)
(0.55879 0.000718099 -0.00210376)
(0.561468 -0.000866297 5.92277e-05)
(0.198844 0.199072 -0.000323481)
(0.199095 0.199301 -0.000156734)
(0.566906 -0.000823547 -0.000894637)
(0.564109 -0.000434718 0.00015908)
(0.565598 -0.000280742 -0.000326563)
(0.565728 -1.80162e-05 -0.000197351)
(0.565001 -0.000131523 -0.000732186)
(0.566435 -0.000371432 -0.000197121)
(0.220643 -0.153422 -0.0145975)
(0.568005 0.000169629 -2.72739e-05)
(0.561831 -0.00114696 0.000862587)
(0.559914 0.00052285 -0.000840058)
(0.556673 3.4482e-05 -0.00177863)
(0.568199 -0.000140052 -0.000100002)
(0.541837 0.00348489 -0.0126645)
(0.557066 0.0157749 -0.0108066)
(0.568006 0.000104749 3.20953e-05)
(0.562176 -0.000831137 0.000827968)
(0.560599 -0.000277489 0.000381889)
(0.563113 -0.000624028 0.000636741)
(0.573238 0.000291015 -0.00101275)
(0.19932 0.199351 3.1254e-06)
(0.55651 0.00231566 -0.00216135)
(0.56725 -5.57843e-05 -4.67166e-06)
(0.550585 -0.00212238 -0.00585211)
(0.566148 0.000120164 -0.000589757)
(0.566918 7.92782e-05 -0.000594762)
(0.19973 0.197602 -0.000812243)
(0.563201 -0.000964328 0.00411649)
(0.573327 -0.000440416 0.0001096)
(0.567123 -1.14898e-05 -0.000601038)
(0.56114 0.000313625 0.000993283)
(0.553631 -0.000179415 -0.00167924)
(0.199309 0.20511 -0.00187072)
(0.197818 0.195525 -0.0010336)
(0.566089 0.000348077 0.000183244)
(0.566564 -0.000220399 -0.000160425)
(0.566537 -0.000105312 4.14754e-05)
(0.567789 -5.56076e-05 3.41223e-05)
(0.56636 0.00015363 1.56387e-06)
(0.565507 0.000584264 0.00046235)
(0.562491 -0.0006474 0.00081402)
(0.566562 0.00161063 -0.00274943)
(0.565628 -0.000217551 -0.00084951)
(0.566168 0.000865946 -0.000281216)
(0.564125 -0.00127569 0.00227313)
(0.561233 0.00117427 -0.000713347)
(0.562847 -0.000652346 0.000144497)
(0.566444 0.000199418 -0.000406221)
(0.198621 0.198611 0.000106561)
(0.566932 4.36922e-05 -0.000298597)
(0.200424 0.200587 -0.000122878)
(0.199605 0.19915 1.95433e-05)
(0.565824 0.000951953 -0.000461743)
(0.562747 8.58303e-05 0.000180506)
(0.566948 -0.00083079 0.000531401)
(0.200416 -0.200246 -3.69441e-05)
(0.56454 6.70548e-06 0.000443428)
(0.560784 0.00106808 -0.00172031)
(0.567619 0.00052724 -0.00108998)
(0.199547 0.199645 9.2328e-05)
(0.565103 -0.000302415 -0.000201254)
(0.197084 0.198846 -0.0006075)
(0.563422 -0.000317057 0.00336257)
(0.19808 0.196995 -0.000122004)
(0.561761 -0.000264504 0.00103532)
(0.558427 -0.000235464 0.00108252)
(0.563704 -0.000148633 1.78639e-05)
(0.565584 0.000776752 -2.91681e-05)
(0.200337 -0.200254 0.000102472)
(0.198374 0.198349 -0.000170723)
(0.566762 0.00261734 -0.00298127)
(0.555286 -0.00024119 0.00188485)
(0.567472 8.54536e-05 -0.000852977)
(0.566227 7.36798e-05 -0.000355285)
(0.565197 1.66139e-05 -0.000763896)
(0.563953 0.00116485 -0.000331531)
(0.574543 0.00315818 -0.00125425)
(0.199739 0.199932 -0.000265945)
(0.581971 0.00706253 -0.000888969)
(0.565134 -0.000522101 -0.000743045)
(0.541772 0.0634214 -0.0394336)
(0.198089 0.196662 0.000529754)
(0.567617 0.00130646 -0.00162728)
(0.546538 0.00044371 0.00149417)
(0.199411 0.197818 0.00170326)
(0.581619 0.00223139 0.0010258)
(0.567737 -0.000242909 -0.000525825)
(0.199676 -0.199563 -6.99097e-05)
(0.558475 9.73937e-06 0.00129696)
(0.596173 0.00824422 0.0014478)
(0.56672 -0.000491548 -0.000170084)
(0.561978 -0.00146122 0.00245178)
(0.576435 0.00494701 0.0273406)
(0.560357 0.000822888 -0.000440443)
(0.563962 -0.000143116 -0.000403664)
(0.560372 0.000106418 -0.00196396)
(0.539787 -0.000116359 2.55214e-05)
(0.566976 -0.0230794 0.0258738)
(0.56421 0.000334067 0.00077794)
(0.55545 -0.00109426 -0.00015702)
(0.566449 1.25093e-05 -0.000165524)
(0.575448 -0.00143812 0.000963339)
(0.567317 -3.82357e-05 7.80955e-05)
(0.567705 0.00225789 -0.00161701)
(0.199414 0.199487 2.1738e-05)
(0.566547 0.000733147 -0.000303387)
(0.580714 0.00037719 0.0014639)
(0.591019 0.00556733 0.00836714)
(0.199739 -0.199758 -7.60001e-05)
(0.562162 -0.00108083 0.00108571)
(0.56902 0.000424026 -0.000190792)
(0.197201 0.195144 0.000401435)
(0.557964 0.000398023 -5.40865e-05)
(0.562277 0.000160468 -0.000468323)
(0.566146 0.000402757 -0.000611803)
(0.568921 0.000353332 9.50038e-05)
(0.562031 -0.000546328 -0.000344582)
(0.565472 -0.000236903 0.000199007)
(0.19891 0.199227 -0.000231323)
(0.562277 -0.000280372 -0.00175777)
(0.570676 6.3209e-05 -0.000293572)
(0.198981 0.198968 0.000237185)
(0.200023 0.199453 -0.000105818)
(0.565788 0.000427054 0.000318666)
(0.199435 0.199783 -0.000109604)
(0.564465 -0.00019006 0.000386681)
(0.56018 -0.00405312 -0.000334481)
(0.566237 0.000269026 -0.000310458)
(0.562373 -0.000613762 -0.00229262)
(0.562333 -1.55021e-05 -0.00185013)
(0.284135 -0.0200221 0.0422228)
(0.199424 0.19967 0.000192953)
(0.571486 0.000320159 -1.32726e-05)
(0.566131 5.64839e-05 0.000158803)
(0.56295 0.000569735 -0.000473108)
(0.560646 0.00272825 -0.00192665)
(0.563171 -0.000148838 -0.000788757)
(0.19914 0.199303 -0.000233086)
(0.544424 -3.03579e-05 -0.000697593)
(0.560692 -0.000198072 -0.000893754)
(0.555987 0.00165715 0.00417573)
(0.56706 -0.000216382 0.00109035)
(0.563749 -0.00105602 -0.000307927)
(0.554381 0.01695 -0.0201651)
(0.566524 -0.00166593 5.78458e-05)
(0.551237 0.00610203 -0.0115008)
(0.19858 0.195319 -0.0011983)
(0.199675 0.199595 0.000173485)
(0.199127 0.199168 1.59355e-05)
(0.566949 0.000301015 -0.00010963)
(0.565949 -0.000500243 -0.000509395)
(0.199126 0.198552 -0.000101934)
(0.564229 -0.000118567 0.000816761)
(0.557589 0.00376873 0.00295482)
(0.557148 -0.000748434 -0.000595598)
(0.501329 0.0706887 -0.0405612)
(0.559344 -0.000792861 -0.000488615)
(0.565779 0.000201653 0.000123661)
(0.199893 0.204266 0.000316994)
(0.557036 0.0130447 -0.0208116)
(0.199878 0.199842 0.000164091)
(0.198918 0.19838 0.000351987)
(0.566185 -0.000224985 -2.72185e-05)
(0.317957 0.243247 0.0366797)
(0.290092 -0.118064 -0.00394799)
(0.562629 -0.00132033 -0.000118077)
(0.194326 -0.197747 0.00026061)
(0.566256 0.0001273 -7.09429e-05)
(0.560751 -0.0026211 -0.00514329)
(0.570063 0.0196285 -0.0138326)
(0.565769 -0.000195354 0.000360884)
(0.575723 0.0110636 -0.00371915)
(0.563838 0.000346616 0.00018857)
(0.570563 -0.0365251 -0.010603)
(0.199033 0.198995 4.80416e-05)
(0.198888 0.19803 0.000204808)
(0.564643 -0.000988122 -5.27653e-05)
(0.563573 -0.000705066 0.00107733)
(0.566977 -0.000411159 0.000203481)
(0.195871 0.198987 -0.0015457)
(0.560181 0.00115394 1.26404e-05)
(0.565588 -0.000417357 0.000101623)
(0.56589 -6.84761e-05 -0.000265758)
(0.199253 0.19948 0.000836556)
(0.565648 0.00022124 -0.00059337)
(0.565823 -0.000244082 -0.000262546)
(0.510989 0.0571807 0.0378265)
(0.19912 0.199151 -0.000142564)
(0.645286 0.172788 -0.00639293)
(0.522321 0.0735457 -0.0535281)
(0.2002 -0.199484 4.38446e-05)
(0.199813 0.199089 0.000339832)
(0.198891 0.198507 2.37779e-05)
(0.200484 0.199827 0.000429233)
(0.200024 0.1997 -0.000769263)
(0.565858 0.000578311 -0.000111525)
(0.566376 -0.000142893 0.000205846)
(0.56495 0.000509121 0.00016134)
(0.199456 0.198449 0.000164465)
(0.56503 -0.000325281 -0.000138329)
(0.567502 2.01199e-05 0.00042327)
(0.199648 0.198944 0.00026418)