/*--------------------------------*- C++ -*----------------------------------*\
  =========                 |
  \\      /  F ield         | OpenFOAM: The Open Source CFD Toolbox
   \\    /   O peration     | Website:  https://openfoam.org
    \\  /    A nd           | Version:  10
     \\/     M anipulation  |
\*---------------------------------------------------------------------------*/
FoamFile
{
    format      ascii;
    class       volVectorField;
    location    "73";
    object      U;
}
// * * * * * * * * * * * * * * * * * * * * * * * * * * * * * * * * * * * * * //

dimensions      [0 1 -1 0 0 0 0];

internalField   nonuniform List<vector> 
59698
(
(0.584694 0.00596843 -0.00173273)
(0.564786 -0.00115123 -0.000859869)
(0.566517 -0.00068491 0.00170009)
(0.578769 -0.0034276 -0.00127603)
(0.562954 0.000728856 -0.00290629)
(0.197724 0.198053 -0.0063463)
(0.566925 0.000231082 0.00040507)
(0.564027 0.000859681 -0.00029932)
(0.199878 -0.199528 -0.000423899)
(0.201226 -0.200792 -1.84881e-05)
(0.20037 -0.198721 -0.00062429)
(0.567011 -0.000303032 -0.000407045)
(0.199805 0.200487 -0.000571031)
(0.561614 -0.000762302 -0.000191185)
(0.56203 0.0010683 -0.00253988)
(0.203957 -0.197116 0.00180544)
(0.564676 0.000134452 0.000201905)
(0.566068 -0.00125964 0.000385348)
(0.567629 -0.000523956 0.000303911)
(0.567346 -0.000373322 -8.02923e-05)
(0.142867 -0.100074 -0.0249757)
(0.536096 -0.00147165 -0.00274755)
(0.265119 -0.173046 -0.00740887)
(0.198824 -0.199921 -0.00136794)
(0.570335 0.000586353 0.00108361)
(0.566221 -0.00115638 0.000432067)
(0.566469 -0.000345504 -0.000421785)
(0.55726 -0.000207407 -0.00120177)
(0.570271 0.00131722 0.000934208)
(0.57243 -0.000466013 0.000449005)
(0.548132 -0.000336811 -0.000376822)
(0.198533 -0.198581 -0.000186702)
(0.201165 -0.197946 0.0023031)
(0.559738 0.00122412 -0.000841164)
(0.549154 0.011462 -0.00746583)
(0.56673 -0.000912672 -0.000387592)
(0.274939 0.0656718 -0.0385935)
(0.539433 0.000724154 0.000142218)
(0.561696 0.0001313 0.000560271)
(0.568157 0.00153344 -0.0027729)
(0.56391 0.000427974 -7.66369e-05)
(0.1949 0.197809 -0.00173711)
(0.562393 0.000584138 -0.000595227)
(0.563701 0.000444701 0.00010709)
(0.196729 0.199572 -0.000252523)
(0.560911 0.00366189 0.00513304)
(0.567063 -0.000862944 0.000369627)
(0.561579 -0.00032359 0.00148545)
(0.562936 0.000327471 0.000880743)
(0.56536 -0.000697819 0.000232624)
(0.567929 0.000158517 -0.000170608)
(0.566897 -0.000871996 0.000346988)
(0.566562 -8.54085e-05 -0.00078196)
(0.56045 -0.00016454 0.000451224)
(0.572398 0.00290431 0.00102681)
(0.567401 -0.000517128 -0.000139873)
(0.562751 -0.000992581 0.000606726)
(0.524746 -0.00189631 -0.000277642)
(0.564639 -0.000787599 -0.000386839)
(0.268439 0.121515 -0.0193385)
(0.559158 0.00459461 -0.00252897)
(0.564611 0.00134723 0.000529549)
(0.577857 0.0146862 0.0064749)
(0.567577 -0.000563814 0.000375972)
(0.561867 0.000240685 0.000711087)
(0.561396 0.000192039 0.00206266)
(0.199519 -0.199946 -1.22529e-05)
(0.567123 -0.000559095 -0.00063096)
(0.566979 -0.000464447 -0.000636761)
(0.199517 -0.19921 -7.79069e-05)
(0.209368 0.182582 -0.00779902)
(0.565283 -0.000726651 1.53406e-05)
(0.166468 0.118802 -0.0344112)
(0.592965 -0.0114241 0.0202994)
(0.202915 0.203538 -0.000369121)
(0.590066 -0.0251608 0.0215331)
(0.561149 0.000256017 0.000990583)
(0.561042 0.000231802 -0.00161717)
(0.566859 0.000816664 -0.000635636)
(0.571454 0.00156173 0.000128724)
(0.552715 -0.0018635 -2.1457e-05)
(0.567922 0.000238507 -0.000122774)
(0.201246 -0.200762 -5.62879e-05)
(0.565107 -0.000730614 0.000600533)
(0.400044 -0.103819 0.0152329)
(0.562811 0.00019063 -9.47897e-05)
(0.563147 -0.00122824 0.001623)
(0.557675 0.000478365 0.00714413)
(0.562049 0.00126596 0.00098623)
(0.560494 -0.000176454 0.00158015)
(0.199534 -0.199172 -0.000162188)
(0.560434 0.000896347 0.000571588)
(0.560699 -0.000357281 0.00165131)
(0.565877 -0.000354105 0.000411291)
(0.561537 0.0011688 0.00100085)
(0.563532 -0.00368651 0.00128703)
(0.558675 0.000609639 0.00127817)
(0.562345 0.00054027 0.000560279)
(0.559315 0.000558804 0.00127188)
(0.199678 0.200038 -3.18552e-06)
(0.556476 0.00146326 0.000870744)
(0.567568 0.0052178 0.00624019)
(0.563033 -2.40185e-05 0.000189747)
(0.563019 -0.00176584 -0.00446297)
(0.567137 -0.000557123 0.000841713)
(0.198839 0.198574 0.000130587)
(0.56544 -0.00100062 0.000607716)
(0.567252 -0.000350985 -0.000406588)
(0.200746 -0.200883 -6.7607e-05)
(0.199793 0.199687 -0.000369544)
(0.566328 -0.000764654 -0.000342317)
(0.570335 -0.010474 -3.00197e-06)
(0.561762 0.00141637 0.00159949)
(0.200896 0.198779 -0.000337595)
(0.561057 -0.00013622 0.000251923)
(0.567444 -4.34575e-05 0.000154603)
(0.567175 0.00135346 -0.00137155)
(0.565192 0.00306506 0.000776039)
(0.563748 -0.000835155 0.00205339)
(0.200903 -0.200447 0.000442522)
(0.56565 -7.12709e-05 -2.53641e-05)
(0.558247 -0.00636809 -0.00375918)
(0.563153 -0.00497431 0.00572405)
(0.564553 -6.90308e-05 0.000124508)
(0.564029 0.000120495 0.000198973)
(0.56604 -0.000323086 -0.000136953)
(0.565944 -7.49421e-05 -0.000520664)
(0.199564 -0.199513 0.000485547)
(0.562041 -0.000619873 -0.000191906)
(0.56754 0.000318362 -0.00199264)
(0.567331 0.000367818 0.000581205)
(0.567219 -0.000177557 -0.00107648)
(0.201402 -0.200547 -1.26844e-05)
(0.579364 0.00689953 0.00054092)
(0.57276 -9.79506e-05 0.000157315)
(0.568493 -0.000188716 -0.000186207)
(0.5698 0.00383414 -0.00108827)
(0.201045 -0.200689 0.000308115)
(0.567409 -0.000354355 -0.000265055)
(0.568541 -2.00688e-05 -0.000362467)
(0.565298 -0.000269891 0.000882002)
(0.562619 0.00317306 -0.00101081)
(0.566079 -0.000849304 -0.000465406)
(0.567401 -0.000333214 -0.000309005)
(0.566012 0.0022027 -0.000449256)
(0.567418 -0.000273065 2.05833e-05)
(0.563625 -0.00395214 0.00030397)
(0.566472 -0.00372161 -0.000531841)
(0.562336 0.000381551 0.000899863)
(0.552178 -0.000249408 -2.2605e-05)
(0.408647 0.144224 0.0731314)
(0.2002 -0.199654 0.000118275)
(0.562149 -0.00010732 6.22619e-05)
(0.556584 -0.00217831 -0.00379652)
(0.563104 -0.000278439 -0.000191623)
(0.560673 0.000202094 -0.000464131)
(0.566471 -0.00105089 -0.000267815)
(0.558784 -0.000967843 0.00305414)
(0.563539 -0.000300153 -0.000344755)
(0.199701 0.199538 -0.000105554)
(0.564901 9.34561e-05 0.000163427)
(0.562823 -0.00037333 0.000239113)
(0.567884 -0.000602459 -0.000244089)
(0.554705 0.00186108 -0.00112719)
(0.562806 -0.000547646 -0.000187507)
(0.566785 -6.69129e-05 -0.000223352)
(0.567031 -0.000202971 -0.00069182)
(0.412308 0.0869775 0.00614979)
(0.554759 -0.000546333 -0.000370068)
(0.567031 -0.000132025 -0.000504107)
(0.559248 0.00176052 -0.00251576)
(0.211093 0.173767 0.00074556)
(0.553065 0.00137678 -0.00214642)
(0.552578 0.00127094 -0.00204856)
(0.578312 0.00138216 -0.00545171)
(0.562493 0.000277175 0.000356089)
(0.199575 -0.198909 0.000795754)
(0.538409 0.00501018 0.00296876)
(0.198957 -0.197824 -0.00579144)
(0.561921 0.000561146 -0.000461732)
(0.510487 -0.00192715 0.00525372)
(0.548348 -0.000547244 -0.00048715)
(0.562622 0.000356948 -0.000969487)
(0.565401 1.19913e-05 -0.000266138)
(0.564671 0.000620481 -0.00084131)
(0.543608 -0.000324883 -0.000352014)
(0.543499 5.61484e-05 -0.000876068)
(0.559555 0.00373424 0.00122995)
(0.566672 -5.20534e-05 0.000162233)
(0.563913 0.00151659 0.000726218)
(0.561589 0.000223966 0.000716036)
(0.562581 -0.000321588 0.000625057)
(0.562852 0.000563534 0.000505782)
(0.561888 -0.000366288 -0.000494804)
(0.554551 0.000260898 -0.000430228)
(0.557242 0.00328505 0.000805359)
(0.576607 0.00579447 -0.0135952)
(0.575779 0.00372243 -0.00218577)
(0.152155 -0.143915 -0.0195172)
(0.554178 -0.000546406 0.000123374)
(0.203032 0.205883 0.00271567)
(0.545891 0.000604424 0.000956866)
(0.573205 0.000324553 0.000281522)
(0.566603 -0.000373367 -0.000486497)
(0.552838 0.000946461 0.00113957)
(0.566781 0.000159225 0.000160717)
(0.563888 0.000366784 -0.000742275)
(0.557127 -0.00209104 0.0012619)
(0.55455 0.0114985 0.000469291)
(0.562298 0.000286291 -0.000182968)
(0.566009 0.000184268 0.000207687)
(0.564891 0.000213421 0.000469371)
(0.554746 0.000449061 0.00223099)
(0.199004 -0.197044 -0.00110278)
(0.5653 -0.00027302 -0.000187148)
(0.560063 0.000617536 -0.000142179)
(0.566179 -0.000788751 4.96075e-05)
(0.560981 -0.000619653 -0.00185617)
(0.561508 -0.000687459 -0.000153494)
(0.564913 0.000495279 -0.000587164)
(0.582073 0.0244725 0.0226746)
(0.563811 -0.000275247 0.000360948)
(0.565027 4.27626e-05 0.000106592)
(0.556948 0.000925806 0.00285581)
(0.565109 -0.000392473 -0.000240087)
(0.553628 0.00259378 0.00292142)
(0.564372 5.94294e-05 -7.9665e-05)
(0.566048 0.000581545 -0.000491356)
(0.577973 0.00276674 -0.000863855)
(0.59336 0.0123568 0.00977029)
(0.199023 0.198602 -0.000394509)
(0.563347 1.77603e-05 0.000449023)
(0.565724 0.000399156 8.90784e-05)
(0.564474 0.000129759 -0.000365074)
(0.563563 -0.000540804 0.000474411)
(0.56792 -0.000495372 -2.09279e-05)
(0.564986 0.00159198 0.00152055)
(0.564063 0.000332431 0.000185136)
(0.558517 0.00137648 0.00348091)
(0.562145 -0.000906789 0.000488799)
(0.56487 -0.000212306 -8.09347e-05)
(0.563778 -0.00120924 -0.000491215)
(0.570496 4.50794e-05 -7.2458e-05)
(0.197427 -0.19788 0.00334429)
(0.566671 -0.000289287 -6.01119e-05)
(0.564056 0.000203096 0.00389984)
(0.582486 0.00506436 0.0161307)
(0.591368 -0.00753234 0.0131308)
(0.56626 3.05406e-05 0.000156453)
(0.567017 -0.000820295 0.000425625)
(0.561339 0.00107715 0.00401519)
(0.562563 -0.000470226 0.000434795)
(0.563392 0.00100815 0.000874347)
(0.198217 -0.193516 0.0031208)
(0.566484 -0.00138678 -9.66489e-05)
(0.563345 0.000349252 0.000418652)
(0.560511 0.00210578 0.000590578)
(0.561257 -0.000667858 0.00060039)
(0.566131 -0.000488175 -0.000124542)
(0.565003 -0.000163283 -3.341e-05)
(0.201793 -0.109154 -0.00117003)
(0.20041 0.200048 0.000137544)
(0.563532 -0.000937579 0.000581952)
(0.559875 0.000580722 -0.00117177)
(0.558097 -0.00144968 0.00230068)
(0.586928 0.00741378 0.00245067)
(0.565414 4.15481e-05 -4.89621e-05)
(0.196917 -0.198431 -0.00165675)
(0.565465 -0.00117295 0.000416336)
(0.564886 -0.000182208 -0.000147511)
(0.566641 -0.000979929 -9.6271e-05)
(0.56315 -0.00124545 -0.000736559)
(0.545897 -0.118118 0.0772394)
(0.56476 -0.000126604 -0.000237961)
(0.565014 -0.00025109 6.74598e-05)
(0.5576 0.000377924 0.00141055)
(0.564908 -0.00164665 -0.00373706)
(0.564271 -0.000619488 0.00150147)
(0.57007 0.000278917 0.000193615)
(0.200813 -0.200143 0.000135888)
(0.195991 -0.195353 0.00168427)
(0.567548 4.3913e-06 -2.82815e-05)
(0.567038 -0.000894285 0.000490579)
(0.581535 0.00215678 0.00129534)
(0.587035 0.00638635 0.000908361)
(0.577902 -0.00116434 0.001454)
(0.566055 -0.000291354 -0.000690127)
(0.299292 -0.21329 -0.018785)
(0.574322 0.00141324 0.000525005)
(0.563426 0.00229222 0.00301008)
(0.585955 0.0174409 0.000861479)
(0.567502 0.000350922 0.00031434)
(0.565282 -0.000871529 0.000551297)
(0.567004 -0.00100428 0.000162262)
(0.569809 -0.00107609 0.000837863)
(0.560524 -0.00149123 0.000708628)
(0.568323 -0.000260465 -0.000629837)
(0.568041 0.00157335 -0.000603953)
(0.565024 -6.51364e-06 -0.000136887)
(0.562993 0.00118718 0.00367259)
(0.566215 0.00163597 -6.20345e-05)
(0.198734 0.198915 -9.37871e-05)
(0.195968 0.197806 0.00149914)
(0.567157 -0.000167758 -0.000405316)
(0.567235 -0.000481187 -0.000157138)
(0.567047 -0.000207524 -0.000283014)
(0.56907 0.00029751 -0.00146569)
(0.560492 -0.00111851 -0.000321275)
(0.562304 -0.000376901 0.000259041)
(0.567293 -0.000130688 -0.000247573)
(0.565297 7.11027e-05 0.000152966)
(0.563432 -0.00200135 0.000543784)
(0.566003 0.000314384 0.00021293)
(0.200736 0.200934 0.00131598)
(0.561464 -0.0032853 0.00169833)
(0.566938 0.000690164 -0.000103908)
(0.202035 0.202597 -0.000457529)
(0.566736 -0.000208127 0.000183416)
(0.195215 0.197029 -0.00207414)
(0.565267 0.00249291 -0.00204097)
(0.562536 0.00303584 -0.00304805)
(0.594155 -0.0100546 0.0189189)
(0.564557 -0.000555758 8.43097e-05)
(0.199743 -0.199403 0.000627885)
(0.601223 -0.0137631 0.0174651)
(0.555714 -0.000162712 0.000689558)
(0.564241 -6.84947e-06 -0.000329932)
(0.566686 -0.000328235 0.000455012)
(0.567172 0.000542272 -0.000199192)
(0.199172 0.199228 -0.000186515)
(0.548304 -0.00014057 -0.00206215)
(0.564063 -0.00093337 0.000315987)
(0.558899 0.00022657 -0.000665098)
(0.58254 -0.0108992 0.0166424)
(0.199614 -0.199995 -0.000179749)
(0.567466 0.000538714 0.000618843)
(0.562775 -0.000629333 0.000173906)
(0.566409 -6.50588e-05 0.000226485)
(0.557064 -0.00123123 -0.000425023)
(0.567951 0.000251263 -0.00013282)
(0.563852 0.00125144 0.000964281)
(0.566782 0.00258737 -0.00169127)
(0.564948 -0.00039898 0.000208311)
(0.565444 6.98115e-05 2.95072e-05)
(0.557775 0.000822022 -0.00116306)
(0.564927 -0.000175198 -0.000124299)
(0.564372 0.000210049 -7.33875e-05)
(0.540973 0.00127629 -0.00107008)
(0.562786 5.0171e-05 -0.000218809)
(0.562776 0.000132176 0.000267504)
(0.567644 0.000161347 0.000118415)
(0.56197 -0.00105792 0.000598334)
(0.569788 -0.00321526 -0.000899468)
(0.199482 -0.199201 -0.000145689)
(0.589865 0.00257412 0.00616144)
(0.546943 0.000634729 -0.000856844)
(0.554147 0.00276722 -0.00703549)
(0.564791 -0.000162485 0.000113655)
(0.562255 0.000380101 0.000735765)
(0.199411 -0.199034 3.02438e-05)
(0.566508 0.00106018 -0.000580312)
(0.559147 -0.000283567 0.000643636)
(0.203242 -0.19465 0.000346709)
(0.565668 -5.77197e-05 0.00027294)
(0.199994 0.200039 -5.08843e-05)
(0.196477 0.201286 0.00051923)
(0.563239 -5.78503e-05 9.04471e-05)
(0.564628 -0.000682091 0.00118711)
(0.564543 -0.000411805 0.000184913)
(0.490932 -0.00578178 0.0027674)
(0.56783 0.000238256 0.00029194)
(0.197989 0.198558 0.000297206)
(0.566114 0.000193782 -0.000316281)
(0.19731 0.199024 0.00130047)
(0.562922 9.94664e-05 -0.000548813)
(0.200085 -0.200254 -1.39393e-05)
(0.564369 -0.000398121 0.000386703)
(0.565345 0.000225625 2.33748e-05)
(0.198894 0.198357 -1.21495e-05)
(0.199021 -0.199214 0.000129936)
(0.201361 0.198084 -0.00338415)
(0.563061 -7.7499e-05 -0.000267332)
(0.565888 0.00134986 0.00039655)
(0.560207 0.000766636 -0.000374267)
(0.566709 -0.000266399 6.4908e-06)
(0.277676 0.142085 -0.00515923)
(0.56327 -0.000401526 0.000959979)
(0.199301 0.199501 2.96048e-05)
(0.199574 0.200006 -5.96776e-05)
(0.56498 0.00258425 0.000936162)
(0.560055 -0.000469488 4.49555e-05)
(0.199366 -0.196652 0.00074121)
(0.563764 0.000313532 0.00117088)
(0.574321 0.000285826 -9.62431e-07)
(0.379666 -0.147378 0.0155981)
(0.526858 -0.00159174 -0.000361866)
(0.55144 0.0161708 -0.0117757)
(0.56256 0.00272686 0.00160856)
(0.561089 -0.000267398 -0.00249177)
(0.563484 -0.00168576 0.00130369)
(0.562479 0.000481228 -0.000502317)
(0.563751 0.000124894 -0.000179767)
(0.565003 -2.28145e-05 -0.000430096)
(0.564701 -0.000550856 -0.000502314)
(0.55312 -0.00291278 -0.0006452)
(0.560739 0.00443017 0.000771255)
(0.575938 0.00417518 -0.00283218)
(0.581602 0.00294717 -0.000769241)
(0.564387 0.000358687 -0.00136235)
(0.530725 0.000402871 -0.00298569)
(0.571608 0.00235963 -0.00162631)
(0.198921 -0.19913 1.56843e-06)
(0.560186 0.000616802 -0.00129611)
(0.199603 -0.199555 0.000196437)
(0.561369 -4.47485e-05 0.000209171)
(0.584026 0.00157016 0.0022697)
(0.567169 1.68921e-05 -0.000118882)
(0.567486 -0.0274957 0.0126942)
(0.532765 -0.00248873 0.000838806)
(0.535113 6.45962e-05 -0.00643421)
(0.561635 -0.000523791 0.000205678)
(0.563031 -0.000243217 0.000694845)
(0.563948 0.00123753 0.00236797)
(0.587819 0.0134235 0.0117822)
(0.563707 -3.50336e-05 8.16461e-05)
(0.563968 -0.000236132 0.00016772)
(0.2 -0.199861 0.000343971)
(0.561593 -9.67363e-05 -0.000227829)
(0.558006 -0.00162957 1.21831e-05)
(0.199438 0.19921 -3.54928e-05)
(0.564304 -0.00147228 0.000764155)
(0.575417 0.0181819 0.00850187)
(0.572367 -0.00461778 0.00675259)
(0.565001 7.80018e-05 -0.00135434)
(0.561265 -0.000243284 0.00148947)
(0.200471 -0.200408 -0.000935472)
(0.205317 -0.202252 0.000308701)
(0.574281 0.00509334 -0.0017241)
(0.565976 -0.000364398 -0.000491574)
(0.563243 -0.00102365 -0.00402475)
(0.202961 0.200382 -0.00178364)
(0.565223 -0.000610279 -0.000411485)
(0.200615 -0.199901 0.000298064)
(0.562044 -0.000429984 -0.000186058)
(0.563664 -0.000814069 -0.00101008)
(0.516567 -0.00742022 -0.00330515)
(0.580707 -0.00163671 0.00290234)
(0.200022 0.19974 -4.20824e-05)
(0.565386 -0.0010476 0.00062362)
(0.554054 -0.000112207 0.000321972)
(0.562409 -9.81834e-05 -0.00190809)
(0.566115 -0.000702737 -0.000177681)
(0.563941 0.00101422 -0.000951866)
(0.565193 -0.00125985 -0.00019059)
(0.562694 0.00164885 0.000103736)
(0.562265 0.000232505 -4.47763e-07)
(0.580685 0.00137879 0.00230161)
(0.199644 -0.199556 0.00024736)
(0.546954 0.000429332 -0.000283053)
(0.56154 -0.000219325 0.00109346)
(0.577628 -0.00116537 0.00146689)
(0.564682 -0.000135848 -5.79883e-05)
(0.555148 -0.00154259 0.00156104)
(0.576992 6.6279e-05 0.000616467)
(0.200506 -0.199438 -0.000183255)
(0.560186 0.00513237 0.00196184)
(0.559695 0.00733936 0.00686289)
(0.56751 -0.000223242 -0.000149612)
(0.5638 0.000658385 -0.000626109)
(0.565752 0.000162531 3.16223e-06)
(0.560568 -0.00508189 -5.66603e-05)
(0.198388 0.198592 -0.000308196)
(0.199869 0.199796 3.7986e-07)
(0.198961 0.199802 2.73609e-05)
(0.563794 0.00214703 0.00286064)
(0.55408 -0.0031069 -0.00801268)
(0.504346 -0.00179685 0.000885806)
(0.577112 0.00101023 0.000567056)
(0.566686 -0.00295806 0.000959807)
(0.562931 -0.000509123 0.000676588)
(0.563137 0.00069852 -6.85312e-05)
(0.560052 0.000126068 0.00057506)
(0.563475 -0.000145797 0.000178734)
(0.202955 0.198892 -0.00035082)
(0.555923 -0.00675545 2.62461e-05)
(0.562455 -0.000569507 -0.000102714)
(0.560009 0.000884493 0.00129756)
(0.562515 -0.000572936 0.000590758)
(0.571969 0.000486529 0.000483617)
(0.567417 0.00077635 9.83581e-05)
(0.560709 0.000735107 -0.00090646)
(0.590334 -0.00141294 0.00684223)
(0.574136 0.0009116 0.000251741)
(0.559866 -0.000552648 -0.00130437)
(0.571362 0.000348779 -0.000107812)
(0.559648 0.000800228 0.00146087)
(0.562084 -1.43711e-05 -0.000152033)
(0.556089 0.00348814 0.00266751)
(0.566576 -0.000225667 -0.000475162)
(0.197299 0.196543 0.00041852)
(0.198807 0.198752 -9.08363e-05)
(0.573647 -0.00182359 0.000792353)
(0.55704 0.000339812 0.000332301)
(0.566083 7.49288e-05 0.000487618)
(0.199188 0.200507 0.000238337)
(0.20001 -0.199959 -0.000254951)
(0.56275 -0.000770444 -0.000138226)
(0.200483 -0.200706 -1.19711e-05)
(0.564084 0.000274317 -3.45247e-06)
(0.567293 -2.85546e-05 -3.02793e-05)
(0.565727 -0.000246895 0.000111931)
(0.57064 0.000204163 0.000273552)
(0.561064 -0.0041469 -0.00111635)
(0.197936 0.200093 0.00148551)
(0.568064 -0.000722614 4.96923e-05)
(0.564781 -0.000203023 -5.64642e-06)
(0.198152 0.19836 0.00018603)
(0.563496 0.000303521 0.00046688)
(0.198282 0.200198 0.000328675)
(0.197312 0.196193 9.45401e-05)
(0.566834 0.000218664 -0.00050813)
(0.567469 0.000660854 -0.000130504)
(0.564249 -6.65917e-05 4.78793e-05)
(0.19917 0.19891 -0.000637021)
(0.199052 0.199096 0.000121242)
(0.486571 -0.000413729 -0.000912714)
(0.565736 -0.000504582 0.000994135)
(0.566211 0.000111809 -0.000247039)
(0.567076 -0.000407795 -0.000363056)
(0.564102 0.000505415 -0.000731127)
(0.565968 0.000243423 -0.000458276)
(0.564284 0.0215046 -0.0146293)
(0.199761 -0.200313 -0.000235275)
(0.564144 -0.000508808 1.81589e-05)
(0.560833 1.98454e-05 0.000179504)
(0.199429 0.199453 -4.01529e-05)
(0.200328 0.19868 -0.000271646)
(0.556995 -0.000212984 0.000190049)
(0.563701 -0.000376783 5.68496e-05)
(0.198436 -0.198835 0.000601148)
(0.566638 -0.000281316 -9.08544e-05)
(0.56493 0.00019599 -0.000182248)
(0.564932 -3.78602e-05 -0.00108212)
(0.590673 0.0430194 -0.0160898)
(0.563166 0.000477203 9.052e-05)
(0.568911 -0.000433029 -2.85187e-05)
(0.559179 0.0240977 -0.00303215)
(0.637564 0.129701 -0.0577799)
(0.566477 1.58095e-05 0.000120368)
(0.255839 0.159976 -0.0074651)
(0.561682 0.000569907 -0.000146218)
(0.200366 -0.199997 -5.79076e-06)
(0.558101 9.22255e-05 0.000971167)
(0.199712 -0.199532 0.000630314)
(0.565536 0.000146698 -0.00047736)
(0.56367 0.000440039 -0.000427528)
(0.199492 0.200295 -0.000231136)
(0.560795 0.000597059 0.000713967)
(0.565816 -0.000615577 -0.000277762)
(0.56822 -0.000304611 -0.000269863)
(0.19942 0.199114 4.75445e-05)
(0.198757 -0.199014 -0.000229758)
(0.561694 -0.000552753 0.000769313)
(0.163001 0.116235 0.0436444)
(0.567009 -0.00122861 -0.000651839)
(0.20042 -0.199736 0.000194174)
(0.58237 -0.000874268 0.00724532)
(0.561723 0.00046262 -0.000120917)
(0.567174 8.93422e-05 -0.000294492)
(0.200404 -0.198004 -0.00141011)
(0.568145 -0.000302229 -0.000174019)
(0.56551 -0.000985682 0.000598413)
(0.207088 0.196072 -0.00113482)
(0.56837 0.000177321 -0.000724025)
(0.566341 0.000276382 -0.00123175)
(0.567656 0.000312643 7.20571e-05)
(0.566567 -0.000305057 -9.60319e-05)
(0.568045 -5.86682e-05 -0.000194119)
(0.566129 -0.000431312 -0.00047965)
(0.200168 -0.20066 -0.000273331)
(0.192469 0.193549 0.000609868)
(0.56048 0.000416602 0.000981829)
(0.565447 0.00091332 0.00229316)
(0.564721 -6.12222e-05 -0.000360316)
(0.568099 9.79719e-05 -0.000359119)
(0.199524 0.199448 1.91117e-05)
(0.56606 -0.000205352 -4.01989e-05)
(0.565357 0.000116631 -0.00100515)
(0.570978 -0.000271357 0.000410885)
(0.566702 0.000206929 -0.000271787)
(0.568435 -4.84816e-05 -0.000364738)
(0.560422 0.000813097 0.000748162)
(0.565346 0.000520641 -0.00111283)
(0.565025 0.000515325 -0.000808309)
(0.198827 0.198663 -0.000342038)
(0.558625 0.000460298 -0.000140724)
(0.227808 -0.19198 -0.00760404)
(0.553897 -0.00345326 0.000597747)
(0.196659 0.191302 -0.00190575)
(0.198305 0.198716 -5.68238e-05)
(0.56571 -2.84838e-05 0.000143544)
(0.564828 1.1971e-05 0.00023336)
(0.199252 0.198908 -4.74629e-05)
(0.555856 -0.000490475 0.000466578)
(0.565505 -0.000625583 4.73994e-05)
(0.566353 -0.000482442 -0.000124296)
(0.566305 1.82118e-05 -0.000539349)
(0.199203 0.1984 0.000739929)
(0.564953 0.000279794 6.94491e-05)
(0.559959 -4.76046e-05 0.000669375)
(0.560549 4.72592e-05 0.000584896)
(0.567149 0.000209685 -0.000308124)
(0.562434 2.70416e-05 0.000396893)
(0.567028 -0.000104799 -0.000373563)
(0.565628 6.03772e-06 -0.000120209)
(0.565848 0.000168108 -0.000115019)
(0.562376 -8.53418e-05 0.000278856)
(0.573724 -0.000855516 0.000505233)
(0.157283 0.0629569 -0.0719047)
(0.562825 -3.19715e-05 0.000372593)
(0.198253 0.198722 0.00026941)
(0.565514 0.000174664 0.000905829)
(0.566685 -0.000177113 -0.000690809)
(0.562832 0.00227555 -0.000395306)
(0.558049 -0.00216479 0.00389168)
(0.564443 -0.00100923 0.00209565)
(0.568223 0.000371578 5.83484e-05)
(0.567415 -9.72935e-05 -0.000810198)
(0.5669 -0.000263119 -0.000270755)
(0.567042 -0.00081081 -0.000895417)
(0.56114 -0.00110565 0.000853771)
(0.197983 0.199503 -0.00290829)
(0.566701 -0.000242959 0.000238131)
(0.56599 0.000338412 0.000331161)
(0.567897 -0.000313398 8.94911e-05)
(0.566021 -0.000101328 -0.000395688)
(0.566386 -0.00073714 -0.000627895)
(0.562662 -7.91998e-05 0.000386982)
(0.55643 0.00647261 -0.00109161)
(0.572353 0.00070406 0.000612213)
(0.558209 0.00181581 -0.000927583)
(0.56251 0.000321896 -0.000890999)
(0.199324 0.19933 8.39528e-05)
(0.20051 -0.199733 -3.62529e-06)
(0.566785 0.000167575 0.000198266)
(0.567757 0.000425371 0.000322652)
(0.562602 -0.000530301 0.000431218)
(0.558751 0.000717394 -0.00210692)
(0.561468 -0.000865767 5.86437e-05)
(0.198839 0.199071 -0.000328587)
(0.199095 0.199301 -0.000157294)
(0.566905 -0.000823463 -0.000891665)
(0.56411 -0.000434658 0.000157726)
(0.565601 -0.000281507 -0.000328052)
(0.565727 -1.78626e-05 -0.000196882)
(0.565003 -0.000130897 -0.000733227)
(0.566435 -0.000373111 -0.0001973)
(0.220699 -0.153386 -0.014619)
(0.568005 0.000169226 -2.70326e-05)
(0.56183 -0.00114661 0.000862447)
(0.55989 0.000516446 -0.000840951)
(0.556672 3.45193e-05 -0.00177816)
(0.568199 -0.000139486 -9.83773e-05)
(0.541795 0.00347035 -0.0126528)
(0.55683 0.0159749 -0.0109264)
(0.568006 0.00010466 3.20177e-05)
(0.562177 -0.000832331 0.000828913)
(0.5606 -0.000278751 0.000384239)
(0.563114 -0.00062415 0.000636698)
(0.573236 0.000292412 -0.00099784)
(0.19932 0.19935 3.69868e-06)
(0.556509 0.00231765 -0.00216309)
(0.567251 -5.58246e-05 -4.82002e-06)
(0.550594 -0.00212171 -0.0058529)
(0.56615 0.000118931 -0.000587389)
(0.566916 8.0763e-05 -0.000593924)
(0.19973 0.197602 -0.000812293)
(0.5632 -0.000964422 0.00411668)
(0.573328 -0.000438963 0.000109069)
(0.567122 -1.08519e-05 -0.000599711)
(0.56114 0.000314075 0.000993664)
(0.553615 -0.000181962 -0.00167491)
(0.199309 0.20511 -0.00187076)
(0.197819 0.195524 -0.00103413)
(0.566089 0.000347895 0.000183875)
(0.566564 -0.000221866 -0.000160237)
(0.566538 -0.000106845 4.25276e-05)
(0.567789 -5.05487e-05 3.94483e-05)
(0.56636 0.000152223 3.28278e-06)
(0.56551 0.000582866 0.000457858)
(0.562489 -0.000646829 0.000813353)
(0.566563 0.00161073 -0.00274822)
(0.56563 -0.000216088 -0.000857476)
(0.566167 0.000866236 -0.000279221)
(0.564126 -0.00127547 0.00227244)
(0.561224 0.0011729 -0.000714273)
(0.562838 -0.000653914 0.000143549)
(0.566443 0.000200668 -0.000404523)
(0.198623 0.198606 9.58196e-05)
(0.56693 4.47098e-05 -0.000301127)
(0.200429 0.200582 -0.000124775)
(0.199591 0.199156 4.24946e-06)
(0.565824 0.000951981 -0.000461727)
(0.562748 8.52566e-05 0.000180674)
(0.566946 -0.000827786 0.000527424)
(0.200415 -0.200246 -3.57721e-05)
(0.564549 2.52911e-06 0.0004395)
(0.560786 0.0010675 -0.00171975)
(0.567619 0.000524946 -0.00108995)
(0.199547 0.199644 9.27136e-05)
(0.565092 -0.000316269 -0.00017891)
(0.197084 0.198847 -0.000606497)
(0.56344 -0.000297594 0.00334695)
(0.198074 0.196992 -0.000121278)
(0.561783 -0.0002734 0.00101226)
(0.558425 -0.000235233 0.00108409)
(0.563705 -0.000148423 1.76394e-05)
(0.565585 0.000776257 -2.94133e-05)
(0.200337 -0.200252 0.000103609)
(0.198374 0.198349 -0.000171237)
(0.566766 0.00261139 -0.00297516)
(0.555288 -0.000241793 0.00188611)
(0.56747 8.35299e-05 -0.000853401)
(0.566227 7.38676e-05 -0.000354949)
(0.565184 3.3638e-05 -0.000759852)
(0.563957 0.00116687 -0.000333831)
(0.574545 0.00315491 -0.00125256)
(0.199739 0.199937 -0.000289143)
(0.581957 0.00705737 -0.000892642)
(0.565134 -0.000520813 -0.000742543)
(0.541764 0.0633443 -0.039418)
(0.198089 0.196662 0.000529769)
(0.567622 0.0012981 -0.00162483)
(0.546538 0.000442884 0.00149028)
(0.199411 0.19782 0.00170442)
(0.581623 0.00222407 0.0010248)
(0.567738 -0.000245334 -0.000526186)
(0.199675 -0.199562 -7.01493e-05)
(0.558477 6.89263e-06 0.00130576)
(0.596172 0.00831864 0.00145231)
(0.566719 -0.000496258 -0.000170029)
(0.561979 -0.00145938 0.00245023)
(0.576455 0.00487026 0.0273368)
(0.560342 0.000813583 -0.000460585)
(0.563965 -0.000142236 -0.000403344)
(0.560372 0.000105937 -0.00196415)
(0.539789 -0.000120856 1.16267e-05)
(0.566997 -0.0231395 0.0258888)
(0.564232 0.000318779 0.000790921)
(0.555439 -0.00109053 -0.000151853)
(0.566449 1.2433e-05 -0.000165442)
(0.575442 -0.00143876 0.000958139)
(0.567317 -3.81511e-05 7.80957e-05)
(0.567715 0.00226772 -0.00162062)
(0.199414 0.199487 2.24564e-05)
(0.566537 0.00072143 -0.000292205)
(0.580714 0.000375138 0.00146411)
(0.591067 0.00565227 0.00822376)
(0.199738 -0.199758 -7.57262e-05)
(0.562163 -0.0010806 0.00108565)
(0.569021 0.000425517 -0.000191258)
(0.197201 0.195144 0.000400619)
(0.557962 0.000396985 -5.17492e-05)
(0.562278 0.000166698 -0.00046576)
(0.566144 0.000403313 -0.000616133)
(0.56892 0.000351456 9.56385e-05)
(0.56203 -0.000544525 -0.000340294)
(0.56547 -0.000236815 0.000200945)
(0.198912 0.199227 -0.000233013)
(0.562288 -0.000286451 -0.00177061)
(0.570677 6.56643e-05 -0.000293634)
(0.198981 0.198968 0.000236703)
(0.200023 0.199453 -0.000105901)
(0.565788 0.000425917 0.000318988)
(0.199433 0.199778 -0.000112361)
(0.564467 -0.000189936 0.000386494)
(0.560182 -0.00405258 -0.000335869)
(0.566237 0.000267735 -0.000310673)
(0.562369 -0.000611277 -0.00229054)
(0.562329 -1.07671e-05 -0.00182107)
(0.284117 -0.0198828 0.0421971)
(0.199424 0.19967 0.000192953)
(0.571487 0.000323656 -1.35316e-05)
(0.566133 5.63864e-05 0.000158765)
(0.562957 0.000569093 -0.000474588)
(0.560645 0.00272824 -0.00192648)
(0.563187 -0.000150554 -0.000789829)
(0.19914 0.199303 -0.000233444)
(0.544425 -3.12155e-05 -0.000694264)
(0.560691 -0.000215501 -0.000893406)
(0.555992 0.0016557 0.00417704)
(0.567061 -0.000215598 0.00109198)
(0.563752 -0.00105636 -0.000308413)
(0.555644 0.0176938 -0.0205985)
(0.566521 -0.00167111 5.79422e-05)
(0.551059 0.00580906 -0.0111409)
(0.198594 0.195306 -0.00119885)
(0.199633 0.199567 0.00018793)
(0.199112 0.1991 -2.79052e-05)
(0.566948 0.000298594 -0.000111896)
(0.565946 -0.000501134 -0.000510818)
(0.199129 0.198567 -9.84089e-05)
(0.56423 -0.000116935 0.00081711)
(0.557595 0.00377098 0.00295871)
(0.557148 -0.000749823 -0.000598249)
(0.501338 0.0706638 -0.0406069)
(0.559338 -0.000792683 -0.000489858)
(0.565779 0.000201462 0.000124569)
(0.19987 0.204345 0.000303909)
(0.557095 0.0130683 -0.020821)
(0.199884 0.199832 0.000186791)
(0.198918 0.198381 0.000350201)
(0.566184 -0.000224999 -2.68164e-05)
(0.317973 0.243319 0.0367215)
(0.290078 -0.118022 -0.00397373)
(0.562632 -0.00131958 -0.000119264)
(0.194326 -0.197746 0.000260607)
(0.566256 0.000126278 -7.10651e-05)
(0.560773 -0.00263998 -0.00512695)
(0.570079 0.0195122 -0.0138435)
(0.56577 -0.000194274 0.000361441)
(0.575737 0.0110346 -0.00374195)
(0.563834 0.000349701 0.000189647)
(0.570642 -0.0365548 -0.0106228)
(0.199035 0.198993 6.28e-05)
(0.198893 0.198027 0.000204466)
(0.564644 -0.000986217 -5.08277e-05)
(0.563573 -0.000707918 0.00107464)
(0.566977 -0.000410414 0.000202534)
(0.195871 0.198987 -0.00154605)
(0.560182 0.00115223 1.16978e-05)
(0.565587 -0.000416722 0.000103351)
(0.56589 -6.77252e-05 -0.000265193)
(0.199252 0.199479 0.000835818)
(0.565647 0.000222097 -0.000592394)
(0.565823 -0.000242652 -0.000262416)
(0.511014 0.0571213 0.037812)
(0.199121 0.19915 -0.000144782)
(0.645271 0.172771 -0.0064024)
(0.522339 0.0735267 -0.0535337)
(0.2002 -0.199484 4.36939e-05)
(0.199812 0.199087 0.000339155)
(0.19892 0.198532 5.54031e-05)
(0.200462 0.199845 0.000422021)
(0.199998 0.199733 -0.000790823)
(0.565858 0.000578333 -0.000111289)
(0.566377 -0.000140479 0.000205542)
(0.564944 0.00050989 0.000161272)
(0.19946 0.19845 0.000168421)
(0.56503 -0.000325894 -0.000138407)
(0.567502 2.09391e-05 0.000432513)
(0.199649 0.198944 0.000264814)