/*--------------------------------*- C++ -*----------------------------------*\
  =========                 |
  \\      /  F ield         | OpenFOAM: The Open Source CFD Toolbox
   \\    /   O peration     | Website:  https://openfoam.org
    \\  /    A nd           | Version:  10
     \\/     M anipulation  |
\*---------------------------------------------------------------------------*/
FoamFile
{
    format      ascii;
    class       volScalarField;
    location    "14";
    object      SgRate;
}
// * * * * * * * * * * * * * * * * * * * * * * * * * * * * * * * * * * * * * //

dimensions      [1 -1 -3 -1 0 0 0];

internalField   nonuniform List<scalar> 
111485
(
4.48573e-10
0.00807993
0.0239172
6.99334e-11
0.0489306
3.05685e-08
0.0460436
0.00614857
0.0189449
0.00121906
0.0464431
0.00937781
0.00475724
0.292474
0.00648715
0.0306665
0.207882
2.61175
0.0103253
4.82984e-08
0.0370024
2.48934e-09
0.0264954
0.0348286
0.00860224
3.45261e-08
0.0396588
0.00176868
0.0156762
0.0478733
0.0442892
0.0193306
2.18276e-07
1.44791e-06
0.00753093
9.00801e-05
0.145537
0.207383
0.00245901
0.023951
0.0427487
0.0711261
0.0158158
0.00160735
7.9246e-05
1.57492e-06
0.0300134
0.00071435
0.0476521
4.23217e-07
1.09436e-06
1.70478e-05
4.61226e-07
0.0507663
1.49234e-06
0.0435888
0.00313646
4.23284e-08
6.97796e-05
0.00479165
0.0160552
2.62993e-07
0.00479465
0.0963023
6.47042e-06
0.00322874
0.314945
0.0944813
0.00116131
0.00612051
6.50654e-05
0.00657013
1.10876e-05
0.00294709
4.34077e-08
0.000704136
1.5552e-08
0.0412539
2.73646e-08
3.10466e-05
0.277476
0.553601
4.13771e-08
5.08124e-09
0.00922521
0.00395707
0.141614
0.0251607
0.000303275
0.00739937
0.000289115
0.0405661
0.0117936
5.78874e-05
0.0525227
6.46491e-09
0.0269105
0.0017971
0.00152373
0.00173011
1.07454e-09
0.0181274
1.92816e-06
0.0182405
0.0046511
1.63022e-05
6.32111e-09
0.00757512
0.00406176
0.000714033
0.00542136
0.0047258
0.00373165
0.00323776
1.0462e-07
3.35226e-05
3.00497e-08
6.43577e-06
0.012749
4.06831e-09
9.16674e-08
0.000188873
0.0739159
2.22215e-06
0.00159985
0.0277464
0.000106024
0.00169009
2.52235e-10
0.000351862
0.00156669
0.0324774
0.0469345
0.000173974
7.78916e-05
0.0484504
1.10984e-09
0.0425396
0.0252113
0.00273161
0.00031246
0.00200408
0.200598
0.00281467
0.00398022
0.0130282
1.5327e-09
7.57281e-10
4.80971e-08
0.0280215
0.00161819
0.0283872
0.113936
0.00481931
3.64758e-05
0.0107027
0.0163654
0.0106902
0.000811856
5.40517e-06
9.03725e-10
0.0522393
0.0230826
7.51403e-05
6.46332e-05
0.00581228
0.00348173
0.0265886
0.0015445
0.00017535
1.49183e-09
1.4564e-08
0.196391
1.20757e-10
0.00555204
0.00209974
5.36823e-07
9.51217e-06
3.5511e-08
5.74623e-06
9.73395e-06
3.71079e-08
0.00149633
0.00679139
0.0296441
0.00416291
0.00753473
0.00403789
0.000460245
1.72927e-07
0.00482796
5.65757e-06
7.09155e-06
0.00651301
0.0105028
0.028012
0.011173
0.00503011
8.46283e-07
0.00665014
0.000525909
0.00167478
0.0140835
0.00231713
1.81463e-06
0.00375014
0.0255818
1.16296e-05
0.000186062
0.0077483
0.0020565
0.00037108
8.56576e-06
7.42534e-09
0.00828585
0.00030861
0.119907
7.32509e-09
0.00663135
0.020403
0.119525
8.29844e-08
0.00323299
0.013748
0.000275457
7.13978e-09
5.94357e-10
0.152891
0.00409873
2.33709e-05
9.23268e-05
0.00943816
0.00777626
0.159049
3.83025e-05
2.02229e-05
0.158999
4.58266e-08
0.00250264
0.00945784
0.0165392
0.0116362
0.00959679
3.84451e-06
0.00190411
0.000624443
7.69956e-06
1.06577e-08
0.0309318
0.155418
1.81258e-05
0.00641322
0.0106961
7.90778e-10
0.000190626
0.000116729
2.75733e-07
6.66728e-05
0.0988421
1.86135e-08
0.0149355
0.0109105
0.00366816
3.40726e-09
0.0118622
6.47177e-11
6.08775e-08
5.05856e-07
0.163872
0.0227622
0.00615028
0.00539379
0.211791
0.0122395
0.00158722
0.000821938
0.0327173
0.00889395
4.52762e-07
5.32928e-09
0.111128
0.022623
0.0244248
0.011995
1.62521e-09
0.222028
0.26469
0.00299863
0.000316553
3.63376e-05
0.0136833
0.00218782
0.00193085
2.20037e-08
0.000671212
2.3949e-09
0.000357498
0.000269558
0.241063
0.068337
0.354232
1.79437e-08
0.0844431
0.00896762
0.0017296
3.91505e-09
1.14294e-07
0.0244884
0.000300462
0.0573918
0.00394023
0.0139222
0.0192681
3.00545e-05
3.00519e-08
3.36834e-08
0.0037869
0.00433574
0.247868
0.185651
0.000769896
1.46861e-09
8.75185e-09
1.36152e-08
8.38769e-05
0.0598148
0.0119491
2.13119e-06
0.00522233
7.09513e-05
0.0604605
0.0668354
0.00588565
0.0114107
0.00925083
0.0473563
4.94364e-05
7.2709e-07
0.00939174
0.018798
0.00474833
6.73617e-08
0.149087
0.000330733
0.00218308
0.00801313
0.000334999
0.0285222
0.0383987
0.0375916
0.00353518
0.00778045
0.0251152
0.0134658
8.97098e-06
1.95435e-07
5.4055e-07
7.07993e-07
0.0314886
0.367343
0.0332984
0.0673892
0.0520131
0.0187088
1.75094e-08
4.06303e-07
0.016541
0.0466966
0.0763345
0.0456393
0.0487456
0.0229584
2.38443e-08
0.0136344
0.00029556
5.11858e-10
0.00101611
0.0164584
1.56383e-05
0.00885817
0.00945298
0.00810556
0.0013666
0.00274239
0.00558414
4.26439e-05
1.18014e-06
0.00259527
3.83712e-07
0.00621144
0.116216
0.0298
1.15035e-07
0.0273964
0.152941
0.00823806
0.323242
6.64312e-08
0.0463209
0.0187562
6.98754e-09
0.000827895
0.00249318
3.82836e-09
0.0318613
0.0109967
0.00521116
4.47411e-07
2.43743e-08
0.000748306
3.90202e-09
0.0121899
3.53915e-06
3.36915e-10
0.0168551
3.96884e-05
0.256074
0.029711
1.92735e-09
7.89673e-05
0.00157232
9.63656e-05
0.000197612
0.0147525
0.121872
0.846417
5.07998e-05
0.204935
0.00070381
4.55703e-08
0.0386314
0.0313459
2.01225e-07
0.00140908
0.000306859
8.29061e-05
0.0239956
0.0243137
0.0139732
3.52059e-08
0.347613
0.0171172
0.0230025
0.00435982
9.04261e-05
0.00126059
3.57609e-08
0.250529
0.359451
2.56091e-08
0.00847143
0.000358032
0.000102493
3.92622e-09
2.97199e-05
3.92957e-09
0.285336
0.0096654
0.00645367
0.00222758
0.002739
1.86631e-07
0.00201246
4.96826e-07
0.0405628
1.55308e-07
5.947e-07
0.0521061
0.036672
3.96308e-08
1.21035e-09
0.000378724
8.46116e-08
1.5643e-06
0.0010582
2.65904e-08
6.12202e-05
6.59733e-08
0.0737364
6.75625e-08
1.64924e-06
3.75235e-08
0.00729561
4.17347e-07
0.221957
0.00193214
0.234738
9.0236e-09
0.000935257
2.53745e-06
2.81806e-09
0.367887
0.143194
0.0273221
0.0246487
3.0413e-05
0.00203262
0.0812419
0.00846799
0.00106804
0.289285
2.38137e-08
0.0234191
0.00010758
0.00498871
0.0579877
0.0754822
0.000113998
0.0209385
0.000243661
0.000769799
0.0804751
0.00200882
2.21349e-08
0.0800333
0.0484279
3.50256e-06
1.12355e-06
1.94197e-05
1.8153e-09
0.00168361
0.0549303
3.43549e-07
1.79806e-07
0.00259995
2.77349e-09
0.0335424
2.82899e-08
0.000335125
1.10741e-09
0.11538
0.113303
0.00103837
0.012526
0.0640719
0.0808607
4.79996e-08
2.54128e-07
0.0150417
4.30223e-08
0.000197576
1.76159e-05
0.00163567
0.0424092
0.0642883
2.87757e-09
4.65271e-05
0.0170295
0.00335467
0.00172091
0.00393969
0.00680938
0.0208185
9.59232e-07
0.0249499
0.00617241
2.45194e-09
0.125209
0.040182
0.0151813
1.32117e-06
0.00499742
0.00674883
0.00219586
0.0040136
0.000381881
0.0136479
0.00128356
0.000140443
0.0236606
0.127303
0.00083316
7.35628e-05
0.00356255
0.723433
3.19983e-08
0.000425225
4.50497e-06
4.03561e-05
0.00732932
0.00331787
0.00273374
0.000441104
0.000165171
0.0163864
0.0110434
5.74927e-08
0.000197134
0.00137667
2.92173e-08
7.54061e-10
5.19451e-08
3.34934e-08
0.0131531
2.19082e-09
0.0345557
0.00874333
0.00195037
0.0981011
0.325977
5.98848e-05
0.00854313
0.0369459
5.4311e-08
0.0528922
1.56023e-07
2.18411e-08
4.73524e-05
0.00427197
0.119586
0.0289634
0.0062441
2.67872e-06
0.0875314
0.144423
0.0283964
0.0278327
0.000533752
0.195072
0.0408091
0.054007
0.0461041
5.91933e-06
0.000314722
0.0404087
0.00786059
0.00145623
0.0275243
0.0259912
1.13538e-06
0.0107219
0.000661035
3.19945e-05
0.0345992
0.000259596
0.000653249
0.010993
0.0404076
0.00135873
0.0213415
0.0194608
0.00721084
3.25431e-06
0.010335
0.000344333
0.000194312
0.0169188
0.0176818
0.0357376
4.57234e-07
0.00189477
4.43321e-06
4.09177e-09
0.076382
1.49436e-08
0.13551
5.84738e-05
0.0116417
8.10001e-08
0.028967
8.09606e-05
0.0429046
1.21217e-09
0.0316715
2.99102e-07
1.89296e-08
8.18168e-07
0.318037
0.000537968
2.92789e-05
0.0409524
9.66982e-08
2.55488e-09
0.209607
0.0693466
8.29223e-05
0.00195979
0.000129114
6.24264e-08
0.0370399
0.00845521
0.177715
1.13198e-09
4.74706e-09
0.000414921
0.00106167
0.000131634
3.99893e-07
0.0619909
0.00723557
2.60326e-08
1.22426e-07
0.0447805
0.0416641
0.00218461
6.90596e-10
3.88478
0.33912
0.189693
1.62738e-08
1.92505e-08
0.0555754
0.000438832
3.92568e-05
0.000584074
0.116822
0.00272442
0.0113588
0.0624524
0.053005
0.00186918
6.61422e-08
1.19313e-06
1.20531e-08
9.32757e-09
7.51934e-08
8.30505e-10
0.0219789
6.9363e-08
1.82267e-08
3.34464e-07
0.0114632
0.0237969
1.05094e-07
5.74244e-07
0.105568
0.0142271
0.00979178
2.6678e-08
6.9811e-09
0.0368773
7.07848e-10
0.00180217
0.00264124
0.00393573
1.26419e-07
2.10901e-10
9.42407e-10
1.57564e-09
0.0149007
1.88088e-08
6.50073e-08
0.00103426
5.14263e-09
0.0229732
0.00194308
2.33108e-06
0.0368758
0.365665
0.00251756
0.278295
0.000255595
0.0440481
0.207454
8.17128e-05
0.023468
0.068748
0.00601357
2.03231e-05
0.0881712
0.749232
0.00992068
3.84744e-08
0.00254095
0.00261196
0.00128483
9.19833e-05
1.89853e-09
1.73973e-10
0.0134051
3.83402e-05
0.00266105
3.87584e-06
0.00142429
0.00140809
0.0363641
0.000581906
1.62735e-08
0.0329632
8.17991e-06
0.0204933
2.69514e-08
4.93484e-05
0.000198724
1.75149e-06
3.38358e-07
0.0404781
1.41129e-09
0.0100215
0.0628359
1.0545e-08
0.0719732
4.26813e-05
0.0365321
0.000602624
9.44959e-08
2.69812e-05
0.00161108
0.0456118
0.00398837
0.00130821
0.159874
0.000200715
0.0040633
9.78121e-07
1.05178e-05
0.490997
0.160605
4.15841e-08
0.23879
0.00085669
0.000161008
0.00979029
0.000214508
0.00119245
0.0234759
0.00932005
0.00224891
0.00491841
0.00196392
0.0449739
8.37483e-08
0.0327102
0.0261406
9.55471e-08
0.00841053
0.269126
0.0281733
2.91163e-07
0.0019218
1.5029e-08
0.010113
0.223767
2.18e-08
0.177543
0.338999
0.00132671
0.00492459
1.0547e-06
0.0482651
7.60081e-05
0.00170026
0.00120768
0.00032247
4.22379e-06
0.0446996
0.00715025
6.87699e-10
0.000419716
0.000545628
0.00090276
0.000463495
0.000856974
0.000170905
1.24045e-09
6.8077e-05
0.0225623
4.08833e-07
0.00176484
0.347593
1.72917e-07
3.09128e-08
0.00321632
0.00327791
2.93397e-09
0.000607886
8.47015e-08
1.567e-08
1.30167e-08
4.46097e-07
4.97709e-06
1.64843e-07
0.000358697
0.0511098
1.61403e-09
5.25006e-07
0.00447306
0.114808
0.00180906
0.00911564
0.0321089
4.48702e-09
0.000296149
4.28653e-09
2.1599e-09
0.000568011
0.147089
0.0421316
5.18557e-09
6.90736e-08
0.0352
1.77826e-08
0.022812
4.69607e-08
0.00698338
7.72478e-09
0.00195236
0.0264483
2.52602e-09
7.51734e-07
5.57623e-07
0.00142489
6.23156e-07
2.38346e-08
2.05297e-06
0.00442538
0.0533365
0.00438576
0.000599007
0.00106698
4.29302e-08
0.00138575
0.00202084
0.0441599
2.89241e-06
0.000223934
0.00544724
1.20636e-07
9.36972e-06
0.000148501
9.88178e-08
0.00809352
0.0016044
0.00328783
0.0724076
1.33698e-09
0.0233839
0.0600356
0.000120803
7.65805e-05
5.76087e-09
0.0262338
1.6658e-08
1.11752e-06
2.82442e-05
0.0511382
5.4579e-07
0.00239031
2.73172e-05
0.000908291
1.6685e-05
8.2667e-09
3.76998e-06
1.59528e-09
0.00249715
0.000667481
0.310785
2.88289e-08
4.99138e-07
0.00216346
2.76632e-10
4.74633e-05
4.45359e-07
0.0364833
0.000843029
0.03172
1.30778e-08
0.00140034
0.000166632
6.24135e-05
0.000281922
4.47736e-08
0.00139488
0.0250252
0.135978
0.00122802
0.000327416
6.29177e-08
6.9363e-10
2.15305e-08
0.184607
0.073739
0.00743393
7.90144e-10
0.174844
2.91869e-08
0.212809
0.00319673
7.51301e-07
8.79557e-08
3.3582e-06
6.10387e-07
0.0408492
2.10644e-06
0.000121715
0.321112
0.00670409
7.17255e-05
3.35632e-05
6.86415e-05
5.09568e-05
3.08047e-08
3.11674e-10
0.025347
0.00044178
8.41457e-09
1.99699e-07
0.000609562
4.53987e-07
0.00152005
0.419554
1.78128e-06
0.00351223
3.77768e-10
0.000380928
2.65403e-07
0.329118
2.9094e-09
0.118112
0.00550973
0.000768975
0.0179999
0.0337983
0.000938165
2.55968e-06
0.00053147
2.27821e-06
0.00459036
5.93928e-08
1.84294e-06
8.47072e-05
2.3583e-06
0.0696868
2.72741e-07
0.0071392
0.00830655
2.09108e-09
0.000380404
8.59806e-08
0.000814772
0.000827364
6.79146e-08
0.0180892
0.00024455
5.46977e-07
0.0231866
0.188375
0.00366191
0.0114466
1.77039e-10
0.0459722
8.83373e-06
1.89786e-07
0.0369
4.87781e-06
0.112925
8.50854e-09
0.150973
0.000729481
1.83701e-09
0.0010753
4.02467e-07
2.63893e-09
0.00306228
0.000999509
0.00995341
8.81709e-09
1.10861e-06
4.57076e-08
0.00087177
5.00279e-05
0.0341538
6.25075e-06
0.0009021
6.7189e-05
0.00114797
3.06883e-05
3.46974e-06
1.06543e-06
0.0182677
0.0096647
0.0181206
0.0357832
0.0438264
0.00026923
0.0473108
7.47496e-10
0.00964806
1.19628e-07
6.45596e-05
0.000448633
0.0066409
0.00041242
0.000542216
0.00205146
1.32075e-09
0.00714726
0.00828791
0.000211435
0.000835051
0.0150247
0.000973767
1.67989e-06
0.0303874
1.36142e-07
5.77683e-09
0.000263735
0.0741823
0.000982207
6.38197e-07
0.0468161
0.000659725
7.13674e-07
1.29903e-07
0.000593416
2.87674e-06
0.0554446
0.318044
0.000354902
0.000410057
0.0223655
0.00721009
3.56581e-08
1.39229e-08
8.26995e-05
0.00408802
0.0344676
0.0548731
0.00979055
2.74458e-08
0.000319466
0.0411941
2.74222e-05
0.00114616
2.57192
0.0435347
0.121154
0.0506419
0.0210753
1.33852e-09
0.00201976
6.5854e-07
1.54146e-07
1.89327e-07
7.85578e-09
0.00290754
3.73405e-09
2.30889e-09
9.09272e-05
4.90133e-08
6.13531e-09
9.43217e-07
0.00970211
0.0591682
0.0107971
0.00309408
0.0763859
0.261907
5.03183e-09
0.186977
0.000163994
0.391038
0.0131608
1.11491e-07
9.28476e-05
0.00768641
0.260103
1.6993e-09
0.00117222
0.0189968
0.00472742
1.62496e-05
0.0259833
1.08139e-06
2.36436e-07
0.0777608
1.09016e-08
0.00814948
1.05573e-07
8.64793e-07
0.0083037
0.00045719
0.00280444
1.14616e-06
0.000386702
0.000653883
4.18058e-07
0.000208674
7.41175e-07
0.0230889
1.42993e-07
1.31022e-07
0.252749
0.0439085
0.000535477
3.28877e-07
6.14411e-09
0.00476392
0.193436
0.00470324
0.0152761
0.217851
0.0201509
1.95217e-09
0.0357975
0.00305453
0.00673965
0.0367656
0.0107615
7.73963e-09
0.191165
1.34067e-09
0.0403631
0.00913196
0.0109535
1.82293e-08
0.0131519
1.30691e-06
0.00273749
0.00899804
5.04296e-06
3.32463e-10
4.67956e-09
0.00289379
0.0806551
2.23176e-09
0.00418615
0.0213397
9.86541e-05
0.00738877
0.0484242
2.29909e-06
0.000138284
0.000825719
6.13279e-08
0.0102232
1.95426e-06
0.00257168
2.87559e-08
2.34067e-08
0.0121554
5.89975e-09
0.000215843
0.00363391
3.6527e-08
7.46658e-08
0.00449426
0.000544394
0.355445
1.17013e-07
0.254126
1.83687e-06
0.000366431
0.000169221
0.00744095
8.26625e-05
0.0793931
0.00552514
5.47104e-05
0.00107317
0.0670696
7.28718e-07
4.78066e-08
0.000419896
0.0007804
0.0416885
1.9199e-07
0.0350957
0.0009434
1.64233e-08
0.22966
9.79958e-09
1.68564e-07
2.30774e-06
0.00294682
0.30868
0.057557
4.87699e-07
2.33849e-08
1.42625e-09
1.10008e-07
1.05742e-07
6.4598e-07
1.18046e-07
5.51252e-09
6.32766e-08
1.09082e-08
1.83365e-07
0.0631176
0.0374326
2.85496e-09
1.36962e-05
6.93129e-09
6.55494e-08
1.16157e-08
0.0366902
0.0819693
0.0173303
4.24115e-08
1.23612e-08
8.20494e-07
0.0065407
4.01775e-06
1.35415e-07
0.283011
2.69312e-07
3.1131e-06
0.0228643
0.000188199
5.28906e-06
0.0082355
0.0242321
2.99129e-08
0.00317924
0.00447494
1.73634e-08
0.0131161
0.0390051
0.0175701
0.00335641
0.0106183
3.64809e-06
1.11472e-07
0.331308
0.0106457
0.00319634
0.0631497
0.00675624
0.00175262
0.0211258
0.010114
0.000694492
0.0153945
0.00105602
0.0101012
3.36057e-06
0.0247027
0.00836468
0.00165618
0.00138816
5.50698e-09
6.06195e-08
4.49757e-08
6.44971e-10
1.76616e-07
0.00927494
0.0134102
1.93707e-08
3.26767e-09
1.76479e-07
1.71652e-05
5.2588e-09
9.26475e-09
8.09363e-07
1.10705e-06
0.00460386
0.000273522
0.0214977
0.245279
1.26323e-07
1.1492e-05
0.0304725
1.05134e-05
4.07817e-09
1.75568e-08
0.229604
5.56827e-07
5.00637e-09
5.00018e-06
0.231336
0.0135007
0.032982
0.0336793
1.09376e-06
0.0139687
0.000342876
0.00038243
1.92519e-08
0.0116916
4.95574e-06
1.88816e-07
0.0168043
1.03109
0.195182
6.73747e-06
1.36972e-06
0.0169444
0.0200274
0.0175738
0.00549144
0.00655316
1.19922e-08
0.000634126
0.000412174
0.0607579
9.90999e-06
0.272637
2.92843e-08
0.00197062
0.0248572
0.0172767
0.0112623
3.24732e-06
0.00598252
3.53569e-08
9.66074e-06
1.10289e-09
1.84963e-08
0.00246871
0.86306
9.90551e-08
5.30929e-09
0.000419918
0.0230523
0.00165957
0.0067684
0.0322397
0.00469659
0.0198552
1.99395e-05
4.54226e-06
0.000203843
0.0293923
0.00554025
0.00328824
1.20461e-06
7.23227e-09
0.000156092
0.0216015
0.00259543
4.51191e-09
0.147444
0.0561676
0.0063228
0.006017
7.40759e-09
0.000194416
0.00672481
0.022387
8.94515e-10
0.000400218
0.0144336
0.00101536
0.203326
0.00456132
0.00773884
0.000244344
0.00326957
0.020239
0.0352608
8.22874e-05
0.0220019
0.000118799
0.197794
0.000165058
3.7841e-10
0.00249159
0.00735016
0.000410264
0.0112031
0.000463352
0.000998763
0.00048752
0.0395353
0.00355368
5.21074e-05
0.0373906
0.00126289
1.18605e-07
1.09189e-08
0.10121
0.000516334
0.00100929
1.06465
0.0340182
0.0112336
0.000426649
0.0429946
2.25085e-06
3.20792e-06
0.00385526
4.16324e-05
0.00197749
0.00418199
0.00212125
0.00451371
5.92262e-09
0.000218883
0.104303
1.94289e-08
0.0173938
0.00725017
8.00221e-06
0.00386106
0.000139609
4.07401e-08
0.000589143
0.137535
4.82219e-08
5.95504e-09
2.09208e-08
0.14738
0.248868
0.0136071
0.0530363
0.00459858
0.0315033
7.92242e-06
0.00769929
0.0119249
0.0232367
0.00146463
0.116121
0.337284
0.397029
0.0100315
0.00868141
0.035867
0.155977
0.360611
1.35007e-08
0.17354
0.0484079
1.07047e-08
0.000403549
5.80813e-07
2.90339e-08
3.66263e-08
2.26592e-07
1.89655e-08
0.138683
4.56626e-08
0.00683669
0.00131532
2.22255e-08
0.00373408
7.2813e-06
0.0134269
6.57055e-08
0.000604756
6.36602e-06
0.0207236
0.000213516
6.3779e-06
0.00406578
0.0273884
0.0159773
0.00375316
0.0258578
0.00337628
0.0219864
0.0520307
0.00926262
8.30615e-07
0.0010884
0.000345143
0.0053346
0.0100187
0.000598682
1.15643e-06
5.74664e-05
1.35479e-07
0.00339653
0.0409835
0.000693503
0.325985
0.00236683
0.000350069
1.81691e-08
0.0612021
9.83129e-10
0.00828954
0.0200697
0.00116339
9.49869e-05
0.00179203
0.00653805
0.00176124
0.000814378
0.00652393
0.00580337
0.0025297
2.22674e-05
0.0775417
3.52983e-07
0.0125959
0.0104006
7.82985e-07
1.0129e-09
0.000258134
0.0080047
0.0176124
1.29177e-08
0.00209884
0.044145
0.000208956
0.00447589
0.084591
1.74457e-09
9.57121e-11
0.00353347
3.8972e-09
0.00010624
0.0114598
2.15825e-05
0.010285
0.0310572
0.0179003
2.99435e-08
0.00142051
8.96637e-05
0.000129748
0.0460845
2.94746e-08
9.76612e-07
0.0102464
0.000531876
9.82078e-07
0.160306
0.000935146
2.89335e-08
4.06553e-08
0.000228626
7.93275e-05
0.00226807
0.00304357
0.0240303
0.239779
2.1771e-10
0.000329434
0.00068529
0.0422905
1.72789e-06
0.04723
0.0826081
0.000118167
7.53258e-06
1.98622e-05
1.12387e-08
1.58435e-05
2.67796e-05
0.000373102
1.89403e-05
0.000324802
2.5692e-05
0.000647702
0.000341154
0.000558525
0.000128815
1.65052e-08
0.0267075
0.009534
6.2319e-06
0.0825835
0.000244403
0.000211661
1.3716e-05
0.00113481
0.000261031
0.00258084
0.000382094
0.00107024
1.91826e-05
2.18462e-08
0.00114776
0.000414381
0.0664924
2.11762e-06
0.0366494
4.86566e-05
0.0351636
8.44408e-05
8.28516e-07
0.000392807
0.0263218
0.00762851
2.51308e-08
0.00029432
1.1003e-05
0.00391585
0.0012132
0.337247
4.51961e-05
2.0062e-06
0.0191698
0.00151708
0.00484841
0.0332079
0.0700249
7.31258e-10
0.0185695
0.00373938
0.0490396
5.78386e-09
0.00113877
5.66229e-07
0.0425075
4.93041e-08
3.09864e-09
0.0031275
0.00203209
0.00286563
0.296442
0.039325
0.025445
0.0338201
0.0163349
0.218171
0.0424312
0.00498525
0.00454912
0.00466305
0.000562392
0.00958816
0.037199
0.00148011
0.00137301
0.0307841
1.88472e-06
0.00317053
5.18327e-07
0.017067
2.27106e-06
7.66428e-07
0.00156772
4.12643e-06
0.00585244
2.48216e-08
3.59465e-07
0.0791149
9.60886e-09
7.42186e-08
0.000812799
6.16675e-08
0.000703022
3.52791e-05
0.0646573
0.0167613
0.262973
0.00739228
0.00706168
0.0396923
0.54676
1.70765e-10
0.0648834
0.0278278
0.0165402
0.0224134
0.00223087
0.0527532
6.93515e-06
7.37505e-06
8.39504e-07
0.127923
1.07953e-06
1.02061e-07
0.0167257
6.57632e-07
1.62352e-08
0.00515216
2.42785e-06
0.282565
8.05193e-05
3.50497e-05
4.5663e-05
5.78775e-05
0.00143553
0.0063366
1.04744e-10
0.021858
0.000399493
2.12826e-05
0.0946907
6.90492e-08
0.0147988
0.0170004
0.00349004
3.1261e-08
0.0169257
0.00942818
0.000845843
0.005032
0.0114272
2.93907e-08
2.17926e-08
0.00165588
2.17974e-08
1.37439e-09
2.9404e-09
0.0186129
0.351544
0.00422049
0.00215262
6.8736e-05
0.0469888
0.0431321
0.00398775
0.00239239
0.00874766
0.0195316
0.00259431
3.86159e-09
2.50848e-09
3.83428e-09
0.00677031
1.10979e-07
0.348442
0.000522366
0.000749449
0.00182668
0.00249529
0.0205615
3.49129e-09
0.0589387
0.00238785
0.000362044
1.54198e-06
4.00716e-07
1.60069e-07
0.475102
0.000305271
0.0005724
0.000850884
0.00956882
0.203379
3.15031e-07
3.18843e-07
5.00686e-07
0.0036852
0.0169314
0.0190623
0.0330052
0.00171462
0.00331863
3.56214e-06
4.42839e-10
0.000188846
3.81482e-07
0.163857
0.0211104
2.37096e-07
1.24718e-06
1.89385e-05
0.0602961
0.0295801
1.80348e-05
0.0130339
0.0900295
0.000947247
0.390511
0.0464587
2.57856e-05
0.0215986
0.171747
0.0185362
1.04205e-05
0.00479593
1.51814e-08
0.0136228
0.00169485
0.0231328
1.11474e-05
0.000375215
1.21287e-09
0.0229918
9.40562e-09
2.84013e-05
0.38062
1.20727e-07
0.00570619
0.0011768
3.74259e-07
4.14709e-08
0.00196037
4.1614e-07
1.12003e-07
0.012411
0.000134745
1.34076e-08
0.0231448
0.0438318
0.0161458
2.84402e-10
2.04576e-09
0.000556088
0.00255083
0.00299666
4.20849e-09
9.68131e-08
0.000131395
0.00371827
0.00183844
0.0124077
0.362781
8.857e-10
0.139898
0.0112727
0.00616994
0.055174
1.07755e-06
2.12644e-08
0.0226761
7.87727e-10
0.0294961
0.00497953
0.00551622
1.09489e-06
9.27632e-09
4.11758e-09
1.60782e-08
2.02675e-05
0.132146
0.209943
0.00217688
2.49884e-06
1.70975e-10
0.0554245
0.222612
0.0333349
0.109638
1.45999e-07
0.000958583
0.000241873
2.38542e-07
1.28988e-08
0.00366437
0.00629085
3.56833e-08
1.09994e-05
0.00277598
0.0596055
0.202603
0.00109066
2.01309
9.61864e-09
3.66692e-07
0.0112704
0.000688136
3.32514e-05
0.64042
0.000578019
0.00614148
8.09601e-09
8.68275e-08
1.25841e-05
0.0579089
0.00802068
0.175744
1.96716e-08
0.0238407
0.0182487
0.831179
1.11605e-08
1.38309e-09
1.08754e-07
3.53616e-08
0.006449
0.000320694
1.01269e-08
0.0370862
0.0178801
0.158133
0.00468263
2.96273e-06
1.64034e-06
0.0275548
1.31479e-05
3.16551e-08
2.36464e-08
1.48984e-08
0.0207816
9.41802e-06
0.057138
0.0553093
0.0248069
0.0116266
5.96278e-09
2.22528e-09
2.46812e-08
0.0146487
0.000247093
2.00451e-07
3.54463e-08
3.4805e-09
0.0218064
0.00231969
0.0106095
0.0401339
0.00194484
0.308195
0.00461609
4.37023e-07
4.60704e-10
2.58452e-07
0.0531392
7.11406e-10
0.0186231
1.40735e-08
0.0146628
4.458e-05
0.00155272
0.000143987
0.00233485
4.22783e-09
1.50881e-08
0.364551
0.159119
3.47447e-05
0.00366806
4.20423e-07
0.000450212
9.59912e-05
2.99229e-06
3.28042e-06
0.000297129
7.86162e-08
0.00100581
0.0389202
0.0338526
2.02105e-07
8.25824e-05
9.0157e-07
0.0338744
0.17983
0.000150054
9.77033e-10
0.00931862
3.37195e-07
0.00273018
0.0176808
0.00135098
1.12399e-08
0.000877915
0.00051397
0.000133545
0.00419505
0.000121528
0.00163342
5.32294e-06
1.22368e-09
0.000157034
0.0054521
0.000290748
6.57499e-07
9.57221e-06
0.000121506
0.545297
9.25614e-09
2.9198e-08
3.52265e-08
3.98114e-10
1.26863e-07
0.021498
0.000576618
0.00109917
0.000104644
0.000203332
0.00142956
2.69203e-10
0.00530319
6.6631e-09
5.3479e-07
6.66665e-09
2.56187e-05
0.00203416
1.52439e-05
1.11159e-07
1.40111e-08
0.0138917
1.22977e-07
7.7023e-09
0.154493
9.1645e-06
0.0699535
0.118722
0.530143
8.35481e-09
0.191375
1.09683
1.12162
0.61821
2.04352e-09
5.05575e-10
0.00462394
0.00438332
6.75927e-05
0.00922611
0.0416791
0.0304409
3.25251e-05
4.426e-06
0.00122349
3.35583e-08
1.34056e-09
0.000121941
0.000407111
0.0259397
7.75642e-09
0.116439
0.000125596
3.31464e-07
0.000110031
0.00773748
0.00151406
2.25035e-06
0.00741794
6.33026e-09
0.00329384
0.00215456
0.00689956
5.76052e-08
0.00174736
0.00535252
1.05039e-05
0.00322194
8.40495e-08
0.0303928
5.63614e-05
0.00917965
8.64862e-07
0.190772
5.56516e-08
8.48073e-07
2.70491e-08
0.11655
0.119622
2.0589e-06
0.0113419
0.00860424
0.0547417
3.11383e-08
0.030412
0.0161733
0.171736
1.27111e-06
0.193102
0.0234554
0.0431784
0.0035973
1.59149e-07
0.0534873
1.68363e-06
0.212188
1.71859e-09
0.00238841
0.00394729
1.10853e-07
5.34192e-05
1.25701e-06
0.0190503
8.40306e-09
0.0395676
2.86365e-07
9.94863e-06
1.09423e-06
5.27062e-07
0.000255752
0.00183499
0.125944
4.93753e-06
0.000243768
0.0382757
1.3282e-06
0.0427497
7.60695e-07
3.37056e-06
2.49115e-06
0.0054352
2.08686e-10
4.5673e-09
9.91153e-10
0.00301665
5.51669e-08
0.0664073
2.19626e-05
0.0030049
3.66652e-09
0.00562185
0.332784
0.00500388
0.00510052
0.024529
1.23333e-05
2.00089e-07
7.97202e-08
0.00290351
0.00163563
2.70816e-06
0.000539826
0.000556988
4.71238e-08
2.85683e-08
0.309899
6.87923e-08
0.0202606
4.0496e-08
0.00218167
0.00307152
1.97729e-07
1.27566e-09
0.0454371
7.04722e-09
2.26974e-09
0.0170949
0.056124
0.00429096
2.21691e-06
1.84778e-08
0.00633685
5.26804e-06
0.0117149
5.953e-06
8.16272e-09
0.00216546
6.7163e-05
0.12944
3.74425e-09
5.43302e-09
4.92315e-09
0.00309351
0.16356
9.53952e-07
1.60128e-08
7.4819e-06
0.00142309
1.97452e-08
0.0179391
0.028479
4.14072e-08
6.97503e-09
0.00658821
2.38355e-07
2.06131e-05
1.64496e-09
2.51962e-05
8.85969e-09
0.0626077
0.000345969
1.33724e-07
5.62592e-09
0.0682657
3.09149e-08
0.0561482
2.49522e-07
4.89038e-08
9.5444e-06
0.00686182
0.0461014
0.00780044
0.0496303
0.0603049
0.535639
0.00248413
0.0401365
1.07772e-05
1.61973e-08
0.00223206
0.138677
0.0367982
0.0419527
1.14262e-08
0.0066977
1.61127e-08
0.00440747
9.82732e-07
0.00888919
0.000168682
0.0525035
5.23547e-07
1.53403e-08
0.0195886
0.000291488
2.41797e-08
0.0247344
0.000298034
1.96569e-06
7.44592e-10
0.0335202
0.00926804
0.00587134
0.000774146
0.00165985
0.0159811
0.000926066
0.00464277
8.62823e-06
0.0261254
0.000124709
0.000453695
3.38131e-09
6.21849e-07
2.79271e-08
0.00943907
8.92836e-08
2.30242e-06
8.78367e-11
0.000396721
0.386901
0.0875468
0.00229577
4.8454e-09
0.00386187
0.0542685
0.101558
0.00282732
0.000268713
0.0410248
5.49808e-07
1.19926e-07
2.7493e-09
0.00268385
0.00122236
3.92115e-08
4.64317e-09
0.00226706
1.64313e-07
0.784152
0.0536066
0.0926181
5.48975e-09
1.12011e-08
0.0418365
4.83545e-09
0.00902137
1.03921e-08
0.000640946
1.99402e-08
0.00901169
5.11763e-08
5.33369e-09
0.0010705
0.152563
0.0642664
1.42576e-08
0.0685929
4.27103e-08
0.00390757
0.17534
0.116127
2.39287e-07
0.000499554
3.94622e-09
1.93526e-06
0.000275733
0.0156963
0.000301401
9.5345e-09
0.000624804
0.00310255
0.00481895
0.00760484
3.64878e-07
3.29449e-07
3.35576e-06
6.05119e-07
9.77521e-09
3.39397e-09
0.0739342
0.0369459
1.44107e-08
0.0828992
3.9888e-10
2.02912e-08
0.0689183
5.2198e-09
4.6817e-09
0.0393442
1.95031e-08
9.59937e-10
1.01561
2.10272e-09
1.01084e-09
0.00187617
0.0914082
1.40609e-07
0.0369203
8.81194e-09
0.0210136
0.0494175
6.23598e-06
0.000858386
6.44912e-10
7.19044e-08
1.03925e-06
1.74635e-07
0.316412
0.0447769
0.000264534
3.20904e-08
0.0460204
8.53216e-10
1.94183e-08
2.83796e-09
0.101459
0.00178007
0.000112441
1.40689e-09
1.27986e-06
0.0478723
0.000900344
3.69078e-07
0.000255723
0.107233
0.0846192
3.47415e-05
0.0839165
0.000921339
0.0424377
4.16656e-05
0.064806
0.000340856
0.0291813
1.45721e-06
0.006512
0.000453938
0.000919798
7.32011e-10
0.00134698
7.19667e-08
0.00388652
0.0239354
9.97118e-07
0.00238692
0.000308862
1.73695e-07
0.0100649
8.93603e-08
2.65377e-08
2.84823e-08
4.47436e-08
5.0052e-06
4.31896e-08
4.84602e-08
7.2259e-08
0.263378
4.27951e-05
1.68559e-10
1.66961e-09
5.58902e-08
9.90511e-08
0.0299678
0.772987
0.00208387
0.000139862
9.80394e-09
0.00197962
0.00135836
0.046095
3.17218e-05
1.28312e-05
5.5913e-07
1.0772e-06
2.43554e-06
0.000220902
0.000116073
0.17756
0.0668014
8.16225e-08
0.00102479
0.000296266
1.2884e-08
0.0245644
4.55227e-06
3.85457e-08
1.71559e-06
0.161305
0.0618101
3.35769e-10
0.0244138
1.42974e-08
0.0478741
5.07931e-05
0.0353067
0.0521337
4.69113e-09
6.79364e-09
2.42788e-08
2.48731e-05
0.00572886
0.225979
0.0280737
0.0421874
0.00434516
0.00052441
8.59651e-10
0.000115524
0.134471
0.0013176
9.43835e-05
0.00292735
4.03202e-06
0.0979593
4.98738e-08
0.206365
0.0381444
1.19861e-08
0.000480748
0.00711825
4.00956e-08
0.00999002
1.4521e-08
1.8459e-07
0.197661
0.0294882
5.4269e-08
7.67411e-09
6.76154e-07
2.50038e-09
5.54771e-09
0.000125255
2.4122e-08
4.97327e-10
0.00313502
7.64972e-09
9.72502e-08
2.67144e-07
0.000226701
2.18419e-07
0.000166853
1.06381e-07
4.5991e-08
2.23566e-05
6.54342e-05
0.00346369
0.0424059
7.98756e-05
0.00493782
2.28475e-06
0.316162
0.311618
1.22448e-07
0.0033582
1.70163e-08
0.0450394
0.0378151
0.000400326
0.0887389
0.0681143
7.10761e-06
1.30189e-09
0.00239651
1.14174e-08
1.36937e-09
3.94393e-07
1.56928e-05
6.83848e-09
1.71857e-05
0.0360607
5.12238e-09
2.48925e-08
0.337447
1.53135e-09
0.0169568
8.14299e-06
0.001288
9.75903e-09
0.000437964
0.000144386
0.236755
0.00804121
0.0235313
0.000180946
0.04003
0.000266422
0.0740156
0.000146404
0.000226251
0.00980807
0.0572444
0.000322149
0.00127114
4.23518e-06
1.71792e-07
0.00107526
0.000229745
0.0165226
0.0119654
0.00014856
1.86263e-06
0.00548574
0.00511175
0.0182809
1.90246e-09
0.0121748
0.0166251
0.00267447
0.0014563
0.00122274
0.00326839
0.0190168
0.0401669
0.00719581
0.0109852
0.00795266
8.96299e-05
0.00285405
0.00361505
0.00104557
0.00270915
0.0142518
0.0136448
0.0196483
0.000120505
0.0108653
0.000416539
0.00496602
0.00278889
0.000369489
0.00238849
0.000200934
0.0743913
0.00395422
0.0011991
0.0001396
0.00072313
0.0160926
0.00238915
0.204827
0.00345655
8.954e-10
0.229004
0.0442305
0.0222731
0.00699406
0.0201851
0.000399155
0.00867089
0.457939
0.00209066
0.0014166
0.00243729
0.173118
0.00121123
0.0738108
7.35167e-05
7.57791e-08
1.27975e-08
0.0021683
0.0060238
0.0118207
0.0705441
0.00704144
0.0610711
0.0550159
0.0652059
2.8131e-08
0.00745064
0.00270617
0.0265202
1.05174e-06
0.00629162
9.12723e-08
0.22268
0.0114487
0.00731916
0.21859
5.08205e-09
8.87393e-08
0.00212694
0.000107963
0.000742999
1.54077e-07
0.00654909
0.000943604
0.0795951
8.88455e-07
0.0218993
0.00308663
0.000346762
0.000128518
0.00238518
0.00137663
2.39144e-07
0.00179811
5.2605e-05
9.80003e-09
0.266155
0.0037397