/*--------------------------------*- C++ -*----------------------------------*\
  =========                 |
  \\      /  F ield         | OpenFOAM: The Open Source CFD Toolbox
   \\    /   O peration     | Website:  https://openfoam.org
    \\  /    A nd           | Version:  10
     \\/     M anipulation  |
\*---------------------------------------------------------------------------*/
FoamFile
{
    format      ascii;
    class       volScalarField;
    location    "4";
    object      SgRate;
}
// * * * * * * * * * * * * * * * * * * * * * * * * * * * * * * * * * * * * * //

dimensions      [1 -1 -3 -1 0 0 0];

internalField   nonuniform List<scalar> 
59698
(
0.0031315
0.00187905
0.00238361
0.00283671
4.04346e-08
0.001452
0.00255831
9.4675e-08
7.98997e-10
0.0296319
0.000627821
1.90046e-09
2.06074e-09
0.00238286
5.98491e-09
0.000339134
1.01265e-08
2.50054e-09
3.05311e-09
1.13662e-09
0.000395375
1.88661e-08
0.000539011
8.81917e-08
4.3142e-09
2.4116e-09
2.47046e-10
0.0026604
0.00243049
2.83839e-10
6.22139e-08
0.000615888
0.0192464
0.0043011
1.19445e-06
3.55793e-09
0.000462807
4.62354e-07
1.36882e-08
0.00252859
1.98343e-09
2.30413e-07
1.84918e-09
1.20717e-08
0.00040206
8.22399e-08
1.75356e-09
5.5755e-08
0.00301559
5.09247e-08
2.19898e-10
1.31993e-09
0.00177059
0.00284832
0.00218212
1.92528e-09
7.63935e-08
1.45751e-08
1.07859e-08
2.61236e-05
0.00184378
5.92888e-08
2.02092e-07
1.72024e-09
4.51585e-08
4.88913e-08
1.27407e-09
1.40445e-09
3.68856e-09
5.03378e-09
6.93238e-07
2.72596e-08
0.000358551
1.65896e-06
0.000411964
1.05662e-06
2.74244e-08
3.54544e-08
3.42968e-09
7.52253e-09
5.47489e-09
6.15884e-10
0.000525615
7.58454e-09
1.86141e-05
3.02954e-08
1.14003e-08
1.92505e-07
2.16909e-09
2.29129e-08
0.00245075
6.27866e-08
4.47207e-09
2.77131e-09
6.07598e-08
0.00372314
4.02456e-09
5.80971e-08
9.55445e-10
1.08083e-09
0.00370896
2.07607e-05
4.6627e-09
0.00332902
5.01427e-08
0.000572701
1.50899e-09
3.03361e-09
0.000211746
3.52989e-10
2.50105e-08
2.87873e-06
5.38816e-09
1.56306e-07
9.09698e-08
1.59035e-08
3.2943e-07
0.00366286
2.96143e-07
0.0515167
2.99116e-09
3.09023e-07
2.22345e-07
1.61761e-09
1.97432e-09
4.88235e-09
8.17667e-10
7.88529e-09
9.82096e-09
3.64604e-07
0.00337742
2.28552e-09
7.17583e-10
2.07706e-07
9.12257e-10
1.53134e-09
5.0954e-07
0.0291187
1.68908e-09
8.22863e-09
1.13499e-08
0.00241874
0.00259194
1.97051e-09
1.84751e-07
3.09836e-10
5.29226e-07
3.8622e-07
0.00465211
1.75504e-09
0.000259871
0.000465505
4.78243e-08
2.43001e-07
3.08469e-09
1.0725e-07
3.06149e-09
0.00169893
4.25205e-09
1.40044e-09
2.50452e-10
1.0084e-08
2.88703e-08
7.41667e-08
6.08572e-09
0.00230443
1.17218e-09
0.000560319
0.00167172
6.2906e-09
2.64353e-09
1.4795e-06
4.92521e-09
1.22762e-08
5.52581e-07
0.00126559
4.43128e-09
0.00139621
0.000351583
0.00312694
2.31795e-06
3.81614e-09
4.4941e-09
1.54293e-08
8.81865e-09
2.88256e-09
9.04988e-09
0.0024782
9.69139e-10
1.32715e-08
7.57653e-09
5.59831e-09
9.98924e-10
4.33859e-08
1.71719e-08
0.00434244
1.8858e-06
0.00297249
1.39837e-05
1.62821e-08
0.000227791
6.56442e-08
1.00482e-09
4.52766e-10
0.0038895
0.00251792
1.22988e-08
0.00216262
0.00280574
0.00370801
0.00249834
3.69786e-09
0.00286331
1.56886e-08
3.10048e-10
0.00350462
1.06673e-08
3.88578e-08
6.58347e-09
7.98178e-09
1.3489e-05
0.00228217
2.66767e-09
6.61384e-08
1.48608e-08
0.00299623
6.77959e-09
6.02534e-09
2.50754e-09
6.26631e-07
5.9248e-09
1.99154e-08
4.29664e-09
5.07512e-09
1.04213e-08
3.04136e-09
1.19408e-07
1.19099e-08
1.82117e-07
7.35905e-09
0.00270722
1.06073e-07
1.26854e-08
0.000664542
2.85071e-09
1.68761e-07
2.25823e-05
3.40552e-06
1.10533e-09
5.34061e-09
4.87808e-08
2.51862e-09
2.57071e-08
0.000252284
4.86186e-09
0.00176817
1.01913e-07
5.08794e-08
0.00324334
9.20425e-10
7.70786e-06
1.03797e-09
6.46154e-09
0.00283974
0.0037643
1.08402e-06
1.81845e-09
1.20833e-07
1.57011e-08
3.76615e-10
3.09889e-09
1.44686e-06
7.35792e-05
2.23727e-10
7.14051e-09
2.81103e-08
0.00151167
2.11968e-08
9.77211e-10
1.33355e-09
0.000574183
1.38217e-09
2.73249e-09
4.42094e-07
0.00349639
6.60803e-09
3.17595e-09
0.000692292
3.03129e-07
1.21519e-07
2.85111e-06
0.00237846
3.76688e-09
1.68205e-09
7.03482e-07
0.0028579
3.15858e-10
1.54805e-07
1.66302e-09
6.64707e-07
2.29554e-09
2.32743e-09
6.89097e-08
8.10419e-10
1.29871e-09
1.00051e-09
7.29378e-08
3.20001e-08
3.72006e-09
7.28485e-10
0.00195926
3.71208e-08
8.69006e-10
2.37395e-08
0.00198916
2.70363e-09
0.00040337
4.13216e-09
0.00082931
7.77248e-08
9.73582e-08
2.85002e-07
1.04913e-08
2.91383e-09
1.74462e-06
1.79802e-08
1.09501e-08
3.93225e-09
1.44649e-09
0.000365201
0.00320019
4.71542e-08
9.06425e-09
2.43832e-06
0.000465807
9.47173e-09
6.09245e-09
2.35576e-09
4.74732e-08
0.00125824
2.39219e-08
0.00216027
0.002575
2.84776e-09
1.29331e-07
3.11628e-10
3.4635e-09
3.947e-09
4.38064e-09
0.00207941
3.13983e-09
3.48631e-09
1.40178e-06
7.95419e-10
9.42681e-07
0.0021554
2.95053e-06
1.38625e-08
2.69733e-08
0.000415395
2.80182e-08
1.14116e-08
9.79698e-08
4.60081e-09
1.28558e-09
1.04013e-07
0.00290559
0.00206923
1.3179e-08
9.94927e-07
1.37563e-07
0.000535999
0.00378019
0.000650846
1.85265e-09
7.495e-06
3.25603e-08
2.62888e-09
0.000458999
2.68002e-09
0.000347122
4.91573e-08
3.96062e-08
3.37824e-08
2.04557e-09
6.75857e-06
1.17802e-08
0.000545492
4.06412e-10
5.97724e-08
2.386e-08
0.000457514
0.00342234
5.68348e-10
5.78991e-05
0.00215743
4.12449e-06
0.00190455
0.00278438
7.4163e-08
0.00250183
0.00246599
0.00266043
3.48288e-09
0.00154857
0.00435204
0.00390186
0.00270531
5.35799e-09
1.82089e-08
2.58526e-09
0.000436152
0.00171182
0.000466525
2.18198e-09
1.41413e-07
1.01751e-09
2.33366e-06
0.00213527
0.001859
0.00305583
0.0022519
0.00256515
0.00165736
1.04158e-08
4.32839e-09
2.14622e-09
1.5851e-08
0.00144069
1.93345e-09
5.90656e-09
0.00208869
0.00117573
8.71984e-09
5.21611e-08
0.198212
2.2244e-08
0.00133473
2.43776e-09
0.00216499
1.92338e-07
0.00329834
3.18621e-09
4.30318e-08
1.78593e-07
2.3397e-06
1.21649e-08
4.80348e-10
2.19991e-09
3.3005e-08
0.00262703
4.42618e-09
6.80572e-08
2.02609e-06
5.87946e-07
8.40285e-08
8.19128e-08
2.22954e-07
4.15534e-08
1.73845e-07
4.02264e-09
2.76759e-09
0.00324368
1.07259e-09
0.0093502
2.12254e-07
2.61975e-07
1.1341e-08
3.46739e-08
2.82943e-09
0.00257662
3.58497e-09
6.54813e-09
9.79118e-09
5.99973e-08
2.03929e-06
8.64533e-07
2.62622e-09
0.00309613
0.00201883
1.70274e-08
2.03041e-07
1.21122e-08
1.79553e-08
2.62131e-07
1.37574e-08
2.60123e-08
7.19316e-09
6.74267e-10
2.62437e-09
1.32502e-08
4.02761e-07
3.46352e-10
3.20674e-08
0.00403668
2.30681e-07
1.50609e-08
0.0024798
4.60724e-09
0.000365744
3.22372e-09
2.75974e-10
5.98595e-08
2.38527e-09
3.44851e-08
4.98628e-10
8.10506e-08
0.0131716
2.28069e-09
1.0921e-09
2.70238e-09
1.77425e-09
1.31255e-06
5.41428e-08
1.51594e-08
9.52137e-10
7.03254e-09
3.65625e-09
7.0685e-08
2.48956e-08
2.85026e-09
2.03796e-09
3.91655e-09
5.54268e-09
1.38947e-09
6.60147e-06
5.31866e-08
3.36166e-09
0.00346077
0.00379592
1.21082e-09
0.00407404
1.82902e-08
3.61078e-09
0.00151469
1.54682e-09
1.35485e-08
0.00185434
1.10855e-09
0.00040923
7.63265e-09
1.02223e-09
2.52932e-08
2.88586e-06
1.80456e-09
5.21357e-10
8.87814e-06
0.000166366
8.67163e-10
7.56072e-06
1.04374e-08
1.30605e-09
3.07927e-08
2.01005e-09
7.30971e-10
1.03086e-08
2.22259e-08
1.72533e-08
1.85845e-09
2.58846e-09
0.000776532
2.64733e-09
8.37426e-09
1.01449e-05
1.00503e-08
1.81194e-09
1.23896e-06
1.63558e-08
2.6911e-09
0.000579755
8.55735e-10
5.65441e-09
1.9299e-07
1.6192e-09
3.3854e-08
2.41824e-10
9.59302e-10
3.82732e-10
0.00210693
9.30109e-07
0.00073264
3.44641e-08
0.00320254
1.15963e-08
1.50443e-09
0.000315493
2.50116e-09
4.64352e-09
3.74679e-09
1.25443e-08
2.96904e-09
0.00334232
9.01527e-09
1.54363e-08
1.39284e-09
3.2196e-08
8.95614e-07
0.00264357
0.000349772
8.36549e-09
6.85301e-09
2.65263e-09
1.23194e-09
0.00351074
2.79034e-08
5.78153e-09
3.50684e-09
0.00108812
0.00394182
9.2268e-09
9.57333e-09
1.48953e-09
5.3036e-09
9.93327e-09
9.16374e-09
7.34807e-09
2.15499e-09
3.62498e-10
8.15241e-05
3.97455e-09
3.40405e-09
4.95476e-09
1.46631e-08
2.69788e-05
0.00254009
1.18797e-08
0.00269274
1.81181e-09
1.00582e-08
5.34283e-09
0.00283299
0.000211326
4.51438e-09
5.64815e-09
2.85252e-09
2.29555e-08
7.43791e-09
1.9779e-09
0.00157888
0.00313552
1.09944e-07
1.82843e-07
0.000608622
3.37751e-10
1.89769e-09
4.35775e-09
4.2917e-07
0.00219824
2.60888e-08
3.22802e-09
0.000442183
4.65662e-09
2.97584e-09
3.71866e-09
1.01087e-09
3.14929e-09
4.92085e-10
8.42237e-06
6.92691e-10
0.00188389
4.34224e-08
8.69701e-08
5.30268e-09
1.60904e-06
3.36179e-06
3.26994e-09
1.67621e-08
0.00239741
0.00321549
6.77446e-09
5.39072e-09
7.14871e-07
4.53291e-09
0.00359033
8.42183e-10
1.61045e-09
0.000428464
0.00266218
2.18034e-09
1.27358e-09
2.07978e-07
5.68657e-07
3.53412e-07
0.000378116
0.00143311
9.413e-11
7.16157e-09
4.27576e-09
6.81789e-09
0.00287219
1.95195e-08
0.00312486
1.04911e-08
0.00135745
0.00215118
0.00246643
7.73692e-08
2.00089e-09
0.000650635
2.82476e-10
5.52396e-10
3.29816e-09
5.89227e-09
1.45696e-08
3.8856e-09
3.45142e-09
8.79869e-09
5.99298e-08
8.81734e-09
1.99627e-10
0.00192932
4.17703e-08
5.62377e-08
0.000360806
6.63723e-09
1.69426e-08
8.86604e-09
1.9531e-09
1.88173e-09
0.000648066
0.00202928
0.00260412
4.33788e-09
7.44537e-09
3.52014e-09
2.15369e-09
0.00195685
1.54381e-09
8.22437e-07
2.57476e-08
1.28581e-05
0.000344747
0.00170187
1.7555e-07
1.48258e-07
4.11543e-09
0.00444205
0.000570468
1.32836e-08
7.9419e-07
2.36949e-09
6.48867e-08
3.40374e-06
0.0024516
1.46104e-08
1.11246e-07
6.41404e-08
1.57758e-05
2.20718e-08
0.00190808
1.18866e-09
5.56768e-09
6.40102e-09
0.0021748
6.57281e-09
2.97189e-09
1.451e-08
4.57739e-06
0.000642161
1.05329e-07
6.98965e-10
0.000383754
1.10083e-08
2.35845e-09
0.00196967
0.00224055
6.17941e-10
1.11174e-08
0.000400358
1.43315e-08
2.96591e-09
0.000378024
7.15189e-10
0.00274416
3.58045e-09
4.82953e-09
1.67366e-07
2.26657e-09
5.01146e-08
5.80557e-08
5.195e-05
2.42119e-10
8.26867e-09
1.0469e-09
7.49504e-09
9.87128e-08
1.52174e-08
0.00032633
2.85747e-08
2.27039e-09
0.00146363
6.48661e-09
1.72101e-08
9.28096e-06
0.0019395
2.46624e-06
0.000540111
2.95125e-09
0.000385491
8.9281e-09
3.67873e-09
2.79148e-09
0.00322944
3.83492e-07
9.39906e-09
7.07907e-05
4.34413e-08
0.00162943
1.48773e-07
9.93622e-06
3.13788e-09
0.00101814
4.23199e-09
0.00130672
5.91458e-05
1.38077e-09
0.000651836
0.0018488
1.14557e-06
1.15198e-05
2.30209e-09
1.15339e-06
1.54763e-08
4.08919e-05
0.000448156
0.00043316
0.00216633
2.77398e-08
1.73831e-09
0.000561242
3.19909e-08
0.00234549
1.033e-09
0.000402077
2.40534e-09
3.04557e-09
2.90463e-05
0.000501476
0.000205894
0.0001087
7.59031e-09
3.22699e-09
9.34465e-09
0.000492364
2.15674e-09
0.00359083
0.00487939
2.87762e-09
0.000502143
1.06112e-09
5.72346e-10
3.77649e-09
3.08205e-06
0.000470604
1.84693e-09
1.19235e-09
2.93648e-09
3.08433e-10
8.77557e-08
2.64221e-09
2.26548e-09
5.6659e-09
2.63801e-07
5.60293e-10
8.77629e-09
0.000536671
7.83117e-10
0.000128427
2.0437e-09
3.16592e-09
0.00127622
8.9664e-10
7.69131e-06
8.98506e-08
1.09953e-08
0.000108863
8.33456e-09
0.00162802
3.19236e-08
5.92891e-10
0.00181051
4.54156e-09
6.91594e-09
0.00030706
3.7727e-10
0.00212616
5.90446e-09
3.14091e-09
0.00441685
1.32988e-09
1.81532e-09
5.00954e-10
2.74342e-10
0.000320949
1.45237e-09
1.2417e-09
1.25975e-07
0.00191701
0.000684096
0.000584085
1.24754e-08
4.83391e-09
0.00037994
0.00243822
2.02462e-09
6.07444e-09
5.79257e-08
1.08425e-08
2.20281e-09
7.04502e-10
0.000412711
0.00149712
0.00272409
1.48584e-07
8.3761e-08
0.00275235
0.00413569
0.00536106
1.07793e-09
3.18114e-09
1.68534e-07
6.32602e-07
1.55525e-08
1.70272e-08
8.10468e-07
1.60188e-08
4.70965e-09
2.39536e-09
1.33142e-06
6.52874e-09
4.43494e-09
0.00260544
7.78926e-10
2.34746e-09
1.81809e-08
3.63402e-08
3.768e-09
2.6848e-09
0.000764596
2.93691e-09
3.34951e-09
0.00198452
2.388e-09
5.6103e-10
0.00330194
2.55416e-08
3.90183e-09
2.43714e-09
1.47114e-08
2.90968e-08
0.000825312
2.6138e-08
0.00226773
1.83273e-07
1.92802e-07
2.23153e-08
0.00555553
0.000316032
3.77952e-09
1.31141e-09
1.04163e-06
1.60177e-09
9.57806e-09
6.19562e-10
0.00174627
1.44677e-10
3.24944e-10
3.71919e-09
8.25597e-09
2.39623e-08
2.38249e-08
7.37046e-05
0.000429058
0.0023003
0.000466223
4.23695e-08
0.00319007
0.00269603
2.13507e-10
1.0053e-09
0.00191344
7.1038e-06
0.00166099
0.00216208
0.00212684
3.48804e-09
4.09286e-08
0.00248909
2.2015e-07
1.43961e-09
4.25486e-08
1.95636e-08
0.000443055
2.32796e-08
0.000538417
1.72118e-05
2.83313e-08
0.00219852
1.68668e-08
0.000648851
5.73225e-10
5.27713e-09
5.64073e-10
3.4745e-08
0.0015923
0.00375419
2.54051e-09
0.000395396
0.00196712
0.00140707
0.00291842
2.93494e-10
1.76962e-09
7.94279e-10
0.00376735
1.10083e-09
1.44846e-07
0.00377685
2.65134e-09
0.00362161
0.00372913
0.00378763
4.15783e-09
7.8149e-08
7.87499e-10
6.69494e-10
9.28522e-09
1.52205e-09
1.12939e-08
3.00877e-09
0.000475239
1.83432e-09
9.23825e-09
2.73039e-07
2.98116e-09
0.0016893
2.87728e-09
2.50992e-09
4.20442e-08
7.40466e-10
2.30413e-09
3.23333e-09
5.37774e-10
0.00320791
3.13581e-05
1.08728e-09
1.82876e-06
0.00216751
0.00323683
1.54976e-07
0.000811823
7.40083e-09
9.47897e-10
0.00269658
1.88433e-08
0.00326421
0.00054224
1.06722e-09
4.11331e-08
0.000771844
1.59328e-08
1.2478e-08
0.00260788
5.46155e-09
6.98008e-09
2.75904e-09
0.00196996
3.27099e-06
0.00200533
1.85995e-07
8.77671e-09
0.00182751
1.18329e-07
0.0222259
6.18781e-06
3.12365e-09
7.23914e-07
0.00132923
9.36662e-10
1.19415e-09
7.77829e-09
6.21926e-09
1.54921e-08
3.33937e-09
5.55331e-09
1.05884e-06
6.33342e-10
1.47521e-09
0.00176847
1.93507e-09
5.45023e-06
0.0439103
4.42293e-06
1.41712e-06
1.26329e-06
5.51051e-06
1.09196e-06
3.13465e-09
1.39384e-08
0.00107361
2.86985e-06
2.83564e-09
2.45153e-09
5.86737e-09
0.000449092
1.33997e-06
5.28876e-08
2.2887e-07
2.65697e-09
0.00252423
1.6551e-08
8.06949e-09
1.78597e-08
8.82355e-09
2.98945e-08
0.00227553
5.87579e-09
2.15735e-08
8.00566e-09
3.99585e-09
0.000477739
1.81675e-08
2.40614e-09
2.70531e-09
4.58959e-09
6.59454e-09
7.33822e-09
3.54079e-09
5.21581e-09
0.000363616
8.85493e-09
9.1218e-09
2.68303e-09
3.57663e-09
1.01179e-08
2.33426e-09
4.59948e-08
0.000380626
0.00250665
1.73954e-08
1.19457e-08
0.00291297
6.74042e-10
4.57188e-05
0.00222236
3.67971e-09
7.7444e-07
2.00401e-06
0.00198826
2.15239e-08
2.01376e-08
2.25829e-07
1.82322e-05
7.45718e-08
4.42193e-09
6.04481e-10
7.29073e-09
4.37015e-07
1.55729e-07
5.18449e-09
1.09616e-09
3.16068e-09
7.59369e-09
2.95645e-06
0.00136938
5.13928e-08
3.0296e-08
6.60379e-08
0.00280534
0.00256303
9.22851e-09
8.91072e-09
3.98438e-08
4.57383e-08
4.96074e-09
7.21266e-05
1.73511e-07
4.23047e-09
1.47586e-08
2.04106e-09
1.23313e-08
1.4182e-08
3.05966e-09
2.02636e-08
2.33446e-09
0.000434428
1.04556e-07
0.00403896
0.00169728
8.8013e-08
2.65801e-08
0.0005797
0.000345171
8.52841e-09
1.3671e-08
9.25032e-06
2.06888e-09
1.78423e-09
1.01668e-08
6.16721e-09
0.000782353
0.000647118
1.06604e-08
9.42515e-09
4.55175e-09
3.59421e-07
4.10245e-08
0.00274012
0.000493514
1.1198e-08
0.000255163
4.25795e-09
0.000315565
0.000243965
0.000239369
1.74679e-08
3.39344e-09
2.36784e-09
4.2199e-08
1.39941e-08
0.00243951
1.552e-06
3.51861e-08
2.66047e-09
2.52132e-09
2.25347e-05
0.00204369
0.00234745
2.8619e-06
3.23515e-08
0.000405553
4.77247e-09
4.28867e-07
1.0301e-08
0.00312772
8.01859e-09
3.63352e-08
8.9864e-06
0.00279318
8.63892e-09
5.71867e-09
0.00134307
7.61255e-09
2.08713e-09
5.1342e-09
3.29904e-09
4.85781e-09
1.40461e-08
0.00225064
1.07807e-08
4.09772e-08
1.39173e-08
5.42157e-08
7.13201e-09
5.7118e-07
0.00199513
1.17725e-09
8.74079e-09
2.58305e-08
0.00227871
4.254e-08
1.88336e-09
0.000400373
2.50368e-09
2.25164e-07
1.52701e-07
0.000983766
6.01327e-09
8.19848e-10
1.39676e-07
2.21656e-10
1.19996e-07
1.64319e-09
1.85847e-09
1.12693e-07
6.88151e-09
4.81276e-08
9.95492e-10
0.000584278
3.98544e-08
0.00213493
5.57323e-10
4.19175e-08
2.19189e-06
4.97721e-07
6.68936e-06
3.02365e-09
2.50497e-09
1.81366e-08
2.6801e-08
2.81095e-09
1.71926e-05
6.11149e-08
7.39861e-08
0.000548922
3.74219e-09
0.000563697
1.43704e-08
3.36232e-09
3.47998e-09
5.92993e-09
5.82844e-09
4.43613e-07
2.71526e-07
1.44723e-09
0.0024874
2.04675e-07
0.0040392
0.00224279
0.00341224
9.85449e-08
2.3353e-07
0.00152869
4.21693e-09
2.17597e-08
2.11324e-08
0.00252081
3.68263e-09
0.000683637
0.000496684
3.77417e-09
0.00270704
5.28785e-06
0.00272475
7.01007e-09
0.00252589
5.59908e-08
0.00034081
1.91617e-09
2.21537e-09
1.06836e-08
0.000795857
2.01595e-07
0.0958599
2.26398e-08
7.05826e-10
0.00057095
0.000435128
7.04807e-08
0.00188283
1.80701e-07
0.000544588
3.15454e-08
2.94743e-10
3.17995e-06
3.45827e-09
7.79992e-08
2.0662e-05
4.05075e-09
1.31938e-06
2.25505e-08
2.38367e-08
3.54241e-09
9.9223e-05
1.80601e-07
7.77038e-10
1.36356e-06
0.000432445
1.15142e-06
6.29187e-08
0.00157981
1.71566e-06
1.38401e-06
1.54681e-08
1.12823e-09
3.72279e-09
0.00069127
2.29684e-08
2.93693e-09
1.91721e-08
1.69027e-07
3.44474e-07
2.56479e-07
1.82486e-09
3.03774e-06
2.49878e-07
4.89661e-09
1.13912e-08
5.97207e-06
5.10585e-09
2.25614e-09
0.00246455
0.00230316
1.13717e-08
6.07125e-10
7.81884e-10
3.32296e-08
0.00196923
1.08221e-09
1.30185e-06
1.57047e-09
4.47954e-07
1.37019e-08
0.00119786
0.000444894
6.74655e-07
2.45319e-08
3.27663e-06
5.44125e-07
0.000105971
8.45471e-08
1.07929e-08
0.00126943
1.33092e-08
7.83523e-09
3.94231e-09
2.05672e-06
3.64195e-09
7.92953e-09
0.00171833
1.34695e-05
4.18227e-09
0.109872
2.99154e-09
0.000427382
0.000113045
4.33866e-09
0.000637651
1.4975e-07
7.28677e-05
0.00290932
0.00042887
0.00298525
0.00204815
0.00221777
2.58565e-09
2.60645e-06
2.67346e-09
3.65886e-06
1.52586e-05
2.22667e-06
2.96479e-09
7.79864e-09
9.84603e-09
3.23092e-07
0.000761568
2.9011e-07
1.61115e-09
0.00191086
1.54133e-07
0.000207844
1.70319e-07
4.30501e-07
2.54451e-10
3.84138e-07
2.12117e-07
0.00157512
4.0325e-07
2.93862e-08
3.13558e-09
2.56495e-05
0.00142467
0.0013686
0.00312803
1.27314e-08
0.000506049
0.00156045
0.00185126
0.00156825
2.9314e-07
0.00223756
1.90659e-09
4.07051e-09
4.24935e-09
1.01192e-08
0.00153481
0.00184668
4.35554e-09
0.0865701
2.84819e-10
3.98175e-07
0.000317371
0.00377682
0.00141607
7.39838e-08
0.00255217
2.45889e-06
1.95277e-09
0.001139
0.000855115
2.3493e-09
2.94192e-06
8.19257e-10
3.00298e-09
0.00352968
6.21748e-09
0.00723483
1.13922e-09
0.000378708
0.000403623
0.000583738
0.00199325
3.29022e-07
0.00161834
8.49478e-10
1.14462e-05
0.000495243
0.00127375
0.00226418
0.00112596
6.06577e-10
0.00127077
3.87941e-10
8.82955e-09
0.00301798
1.64013e-07
6.26477e-06
1.28949e-09
6.18073e-08
0.000573548
6.68083e-08
9.37652e-10
8.2635e-10
4.48286e-07
0.000403323
0.00238499
2.5707e-07
2.97982e-09
0.000660487
9.38865e-09
1.04768e-08
4.84517e-08
1.82718e-09
0.00224256
1.52916e-08
0.00245659
1.30035e-09
0.000274335
0.00443443
8.7449e-09
3.12194e-06
0.00253694
4.94625e-05
5.09426e-06
2.32913e-08
0.00178603
0.00285031
1.78736e-08
0.000490148
8.06394e-07
0.00061878
1.67568e-08
7.33602e-07
5.57548e-07
1.75527e-08
5.12984e-07
0.000371893
0.00131926
7.61666e-09
1.65385e-09
0.00218634
7.27017e-09
1.45395e-09
2.6602e-08
2.15113e-09
7.84737e-08
0.00362474
0.00209605
1.44756e-08
5.7093e-09
0.00221418
1.99659e-07
0.0027598
4.35146e-09
8.75596e-08
4.47121e-08
1.52737e-08
5.00488e-08
2.62332e-08
0.00329065
4.51139e-09
2.72307e-07
0.000350506
0.00246218
0.000458662
1.58347e-08
1.05556e-06
2.83499e-09
0.000229684
0.00234632
0.0157255
1.99001e-10
3.10861e-07
2.71529e-08
0.000505621
2.67439e-07
0.000529531
1.82348e-07
3.14239e-09
3.3073e-10
4.4045e-09
0.000221032
0.00039377
9.29389e-09
0.00391993
0.00250059
5.963e-09
5.19552e-09
2.82924e-09
5.69274e-09
4.43108e-09
1.70149e-08
0.00276067
0.000625706
0.000550199
7.78859e-05
0.000350189
0.000381724
4.29517e-09
3.81398e-08
1.10772e-09
6.59356e-09
1.35814e-08
0.00242766
7.97067e-09
2.34868e-10
0.00116439
7.42707e-09
7.02371e-08
1.52786e-08
1.7867e-09
7.12274e-08
2.46722e-09
0.00226181
1.01835e-09
1.19145e-08
5.15489e-09
9.08339e-09
1.84001e-08
0.00388138
3.20029e-07
1.42307e-07
6.50582e-08
3.02288e-10
4.99109e-05
9.60184e-07
6.50472e-09
1.94407e-08
1.25529e-05
6.02279e-09
6.54897e-09
1.10648e-05
1.71272e-06
1.77669e-07
0.0031648
3.59358e-09
7.1378e-10
1.23017e-06
0.00290314
3.49283e-08
4.42337e-10
1.79254e-06
1.56499e-05
2.59534e-07
8.81728e-09
2.71734e-09
2.12861e-08
8.85529e-08
1.47164e-08
2.16018e-08
0.00194062
1.0829e-09
2.47087e-09
1.37687e-08
2.59851e-10
4.42059e-10
7.79645e-10
0.00422334
7.56713e-09
3.67304e-10
7.34549e-09
4.71736e-09
8.76057e-10
2.34561e-08
2.14014e-10
1.9021e-09
5.2087e-08
1.57197e-08
0.0022769
2.49931e-09
0.000385496
2.63795e-08
7.90719e-09
2.87585e-08
4.34548e-09
1.29149e-09
0.00330784
6.09595e-09
0.0018298
3.67039e-09
2.78664e-08
6.34803e-09
1.87503e-06
1.14805e-09
3.08303e-09
2.1042e-09
0.000260839
0.0242782
0.00214752
5.02187e-09
2.96169e-09
0.0025972
1.8113e-06
2.46555e-09
3.82651e-09
2.90176e-07
3.44073e-09
0.00423142
2.93972e-06
0.00316149
3.05457e-08
8.27261e-09
0.00158996
0.00148952
0.00180218
1.78046e-08
1.63775e-06
0.00194136
2.02858e-09
1.33514e-05
1.63045e-07
0.00185085
0.000465148
3.48459e-08
0.00238024
2.2457e-05
5.80171e-07
0.00211268
0.00223573
1.06266e-08
0.00244453
0.00312232
0.00186094
4.51783e-09
3.70221e-09
1.40335e-08
5.0863e-10
9.2046e-10
0.00174736
0.00283086
0.00187148
1.93473e-09
0.00329008
5.48052e-10
0.00228612
0.00259352
9.60788e-09
2.70252e-08
0.00170286
2.52925e-08
6.51647e-09
2.64456e-07
2.33236e-10
0.00263353
0.00206314
2.39975e-09
0.00175166
2.61556e-09
2.67971e-09
4.6173e-09
1.3821e-09
8.90481e-08
3.19918e-07
1.54526e-09
1.64954e-09
1.52954e-08
5.27478e-09
1.09455e-08
5.36528e-08
1.54663e-10
1.10564e-08
2.31591e-06
9.98821e-09
2.50539e-08
8.9431e-09
1.12167e-07
8.14548e-10
3.73553e-09
1.81834e-09
2.68871e-09
1.34059e-09
0.00194351
3.38606e-08
5.00167e-09
6.7905e-07
1.25689e-09
1.21173e-08
9.73788e-09
0.00197809
2.19213e-09
0.00224063
0.0015493
8.36032e-09
9.98119e-09
1.04553e-09
1.0519e-09
0.00162484
1.21918e-08
1.19585e-09
1.63009e-09
1.57736e-08
0.00242726
0.00153966
1.5553e-09
6.2345e-09
8.5306e-10
7.99701e-09
1.32026e-08
4.59711e-09
4.0727e-07
1.9886e-09
2.11833e-08
2.48327e-09
3.34248e-09
7.72839e-09
1.7608e-08
8.74372e-10
4.85004e-09
9.92534e-10
0.00440747
0.00150102
0.00263613
0.00159353
1.77906e-08
7.49285e-09
0.00207117
5.53202e-09
6.03734e-09
0.000410045
1.29638e-09
1.31778e-07
0.00241431
5.09735e-09
1.03807e-07
2.3031e-08
3.70811e-08
0.00163877
7.43434e-09
1.06851e-09
2.38645e-07
1.33135e-08
4.87412e-07
1.64375e-08
1.38029e-08
0.00218053
1.60908e-08
0.00046331
2.22492e-07
0.00209137
2.58381e-09
3.08806e-09
1.05471e-09
1.2804e-09
0.00188715
4.06702e-07
0.0005233
1.49301e-07
2.04177e-09
1.30621e-07
6.55843e-08
6.4548e-09
3.98408e-09
9.48836e-09
2.87796e-08
6.52685e-09
0.00338931
2.13542e-08
0.00431055
5.75273e-09
8.43759e-10
4.65692e-06
0.00194552
1.05007e-08
1.62186e-09
1.05237e-06
1.21774e-08
4.82233e-09
0.00239003
1.56248e-08
6.41168e-07
0.00272781
1.35674e-09
2.89197e-09
3.89944e-07
3.44013e-10
3.39256e-09
0.0025984
2.50858e-09
0.0028507
2.20251e-08
3.40089e-10
7.39243e-10
0.000942605
1.0298e-09
2.36749e-09
1.93286e-07
0.00260089
1.55174e-06
2.4767e-09
2.23128e-10
1.95722e-10
0.00230148
6.83899e-10
6.74683e-09
9.76139e-09
6.91291e-08
0.0025942
0.000289487
0.00119677
9.56782e-10
0.000362876
7.55479e-09
8.7594e-07
0.00084247
4.55314e-09
0.000938972
3.67598e-06
1.00789e-09
3.31848e-09
8.49442e-10
0.00261126
2.12979e-09
2.43339e-09
1.94931e-09
1.12883e-08
1.55635e-10
0.000325562
2.50011e-09
3.57609e-08
0.00254544
2.78065e-07
4.65134e-09
0.00210794
3.35778e-06
6.48929e-09
1.28943e-08
1.35113e-05
5.63166e-09
5.12133e-08
4.75372e-09
1.65729e-09
1.02865e-08
5.12537e-06
0.0011666
4.16175e-08
0.00254696
6.95022e-10
3.21578e-08
0.00284997
3.78986e-08
6.39705e-08
1.39172e-08
1.20403e-07
0.00244716
2.08325e-08
1.6272e-08
0.00166529
1.03027e-08
0.0027438
6.42176e-10
1.26694e-08
7.04538e-10
7.21994e-09
0.00155428
4.68826e-10
5.39785e-10
1.24425e-09
7.82863e-09
4.77927e-08
0.00266937
2.71443e-09
3.84081e-09
8.65981e-10
7.4534e-09
5.5626e-06
2.67427e-09
0.00174593
1.32316e-08
9.83142e-09
5.45494e-09
6.09104e-08
0.000459536
6.72349e-07
1.05944e-09
3.66906e-10
0.00191519
0.0022986
5.26983e-08
6.11738e-10
0.00192904
2.59306e-08
1.54445e-09
0.00356535
8.2644e-09
0.00279821
2.89565e-07
1.17442e-08
9.41827e-09
1.04975e-08
9.33673e-09
5.98489e-10
3.15397e-05
6.45328e-08
2.62131e-09
6.64332e-08
4.33341e-08
6.75683e-09
0.00267493
2.47416e-09
5.25781e-09
0.00207749
1.27627e-09
2.67536e-08
2.46405e-10
0.00239603
3.05187e-09
9.93592e-10
1.32814e-08
3.69986e-08
1.3417e-09
0.00244882
2.42289e-09
6.13053e-10
0.000608787
7.19663e-09
1.34532e-08
0.00242145
4.68507e-08
1.31545e-09
2.22614e-08
3.19979e-09
0.00192722
4.89103e-07
6.60103e-08
3.58578e-09
4.69489e-07
9.43903e-08
9.25471e-09
3.96625e-09
1.52437e-09
2.98802e-08
2.62686e-09
5.18978e-10
2.24508e-09
1.19915e-09
5.61578e-09
0.00239411
6.29203e-07
1.57338e-08
4.41013e-09
9.00996e-10
0.00232685
3.30663e-09
0.00341411
1.00515e-06
0.0016269
4.04531e-10
0.0022252
0.00305829
4.36199e-09
8.92464e-09
7.28608e-08
0.00219224
0.0026552
3.04723e-07
7.04631e-09
4.06367e-08
9.96281e-10
2.86168e-08
8.95951e-09
8.41976e-09
4.89528e-10
2.0606e-09
2.71161e-09
1.09672e-09
5.89557e-09
1.00792e-08
7.44293e-10
5.41456e-07
8.35249e-09
3.31318e-09
5.52222e-10
3.26289e-09
6.17266e-10
5.01634e-09
7.00896e-10
1.8481e-07
0.00195525
0.00286514
4.1876e-09
0.00231795
1.99877e-08
1.76995e-09
5.05723e-09
2.14944e-08
5.32502e-09
5.42909e-09
1.53416e-10
5.41969e-09
1.12948e-09
7.05033e-09
1.02389e-08
1.01895e-08
1.41145e-07
0.00164027
1.28146e-09
2.95532e-09
0.00146052
0.00186158
0.00226055
0.00221141
0.0018103
2.46999e-08
2.33272e-08
5.50673e-09
6.79971e-09
1.07008e-08
1.45318e-06
7.15797e-10
2.92111e-08
2.97421e-08
6.13819e-09
4.78755e-09
2.86081e-09
7.36906e-07
3.15523e-06
9.22511e-09
6.35414e-09
9.26513e-10
1.57763e-09
0.00295856
4.78298e-09
0.0019314
6.26329e-08
7.00961e-09
7.52291e-07
0.00105424
7.98872e-08
8.81177e-10
1.89385e-09
1.24644e-09
1.94053e-09
3.32318e-10
1.60809e-09
0.00115057
3.81854e-10
4.18103e-08
0.00284624
1.62029e-09
0.00138685
6.38858e-08
0.00222815
4.90396e-10
0.00126193
2.56694e-10
0.00289151
0.00240696
1.0724e-08
6.2383e-10
0.00162505
1.30045e-08
0.00201752
1.11565e-08
7.24492e-09
4.07262e-10
6.32466e-09
4.30839e-09
9.84129e-10
6.69296e-07
0.00309107
0.00169971
9.8834e-08
6.28821e-09
1.15481e-09
0.0031428
0.00142284
0.00248045
0.00243886
2.49866e-09
3.11153e-09
5.22022e-10
1.64103e-08
0.00318087
3.68621e-09
0.00152582
0.00336627
7.60665e-10
7.28908e-09
0.00167921
0.00315211
4.54875e-08
1.88834e-09
0.00173659
5.76196e-08
1.6388e-09
4.91176e-07
9.40963e-08
0.000411025
3.71258e-08
3.19113e-08
2.54107e-07
2.69102e-07
7.06621e-08
2.66799e-09
1.65193e-09
3.31214e-09
3.52623e-09
1.23645e-08
8.03761e-09
2.14148e-10
3.20131e-09
0.00207181
0.00292045
4.73242e-10
1.37762e-08
6.49886e-09
1.52133e-09
2.2783e-07
1.40541e-09
1.98376e-09
0.00288214
0.00156082
0.00152704
0.00169748
9.20977e-09
0.00145109
2.98237e-07
0.0039576
1.51874e-09
0.00234666
1.37457e-08
3.04568e-08
1.80734e-07
5.91145e-10
0.00306978
5.13859e-09
0.00428031
1.35534e-09
1.11708e-09
7.05442e-09
9.24131e-09
0.00139486
0.00298724
5.93487e-10
8.29862e-09
1.54933e-08
0.00172801
3.50791e-09
0.00292607
3.43958e-07
7.42144e-10
3.95535e-10
0.00251558
2.30449e-08
0.0022251
6.15659e-08
0.00394564
0.00327986
6.6113e-08
2.33444e-10
0.00367332
4.08547e-09
8.33125e-07
0.000344636
2.48798e-08
1.09996e-08
2.26355e-08
7.10237e-09
0.00309298
2.31373e-09
3.43142e-09
5.36817e-10
3.62936e-08
3.53442e-09
1.37364e-09
1.32545e-08
7.28604e-09
3.25872e-08
0.00302302
1.74019e-08
9.45426e-09
3.15154e-09
1.07117e-09
5.23642e-09
1.96267e-09
8.37595e-09
0.00227188
3.57167e-09
0.0029995
0.00202613
5.60384e-09
0.0003606
2.41676e-09
1.5403e-09
2.51871e-08
1.04929e-08
2.71738e-08
0.00158887
0.00209102
1.10761e-07
9.02487e-08
7.9219e-08
0.00319184
0.00110981
4.83539e-08
0.002159
0.00451845
1.3441e-08
0.00269354
0.000439369
6.11039e-09
9.2123e-07
1.3415e-09
0.000563899
9.9593e-10
0.00260246
3.6578e-10
8.35305e-10
0.000637722
0.000342131
7.70319e-09
0.000463829
8.96676e-10
7.78774e-08
2.24631e-08
4.38441e-09
4.37596e-07
1.13318e-10
3.40025e-09
0.00258176
7.45098e-09
1.44599e-08
6.4211e-09
1.21994e-07
5.04279e-09
4.90908e-05
1.81289e-08
3.98215e-09
8.07724e-08
1.36496e-07
0.000297125
0.00245645
3.05505e-08
5.55713e-09
0.00244034
0.00236785
5.42026e-08
1.63788e-08
6.33203e-09
1.38908e-09
1.52167e-08
9.6927e-09
0.00230711
0.00445934
9.7184e-09
2.5503e-09
6.10637e-10
7.59156e-09
0.00253558
0.000395442
5.44608e-09
1.92285e-08
2.25952e-08
0.00221468
1.13905e-05
1.31307e-06
0.00198918
1.926e-08
1.89019e-08
2.21695e-09
1.66007e-08
1.31921e-08
0.00251381
5.65968e-08
0.000310542
5.26546e-09
2.01227e-09
0.00329548
0.00267995
3.91068e-09
0.00316221
1.50414e-09
2.85564e-09
2.27991e-07
1.17795e-09
1.45133e-09
0.00188197
3.40155e-08
6.63053e-09
0.00385546
8.57872e-09
0.0015573
0.00312307
7.10805e-09
0.00327937
2.80003e-09
5.84211e-09
9.312e-09
2.17081e-07
3.66077e-09
4.63739e-08
9.80702e-10
4.52501e-09
4.38156e-07
1.28523e-08
0.00250246
6.99582e-09
0.00308583
1.19267e-09
7.2587e-09
2.41034e-09
0.00235895
5.57282e-09
0.00230622
0.00210966
0.00319372
4.73357e-09
0.00224419
1.66615e-07
3.11041e-09
6.02132e-09
4.5162e-09
3.59625e-09
3.88967e-08
1.57696e-07
2.88141e-07
1.20295e-09
0.00293126
2.55514e-08
1.33495e-09
2.90785e-09
5.01076e-09
1.18126e-09
0.00206969
5.47961e-08
0.00307457
2.23808e-08
0.000625
1.46087e-09
3.63383e-09
0.00181739
0.00370778
5.19373e-08
1.25372e-09
0.0038876
1.04552e-08
1.05662e-08
2.92335e-10
2.79008e-09
4.89118e-10
9.36808e-09
6.79065e-10
3.17374e-09
2.18197e-09
4.0487e-08
2.72548e-08
0.00248985
5.8733e-07
4.17322e-09
9.74513e-09
1.00748e-08
0.00215461
2.61446e-09
0.00318021
3.95522e-10
6.52884e-09
6.64529e-09
1.32674e-08
7.2458e-08
6.33901e-07
0.0013507
0.0013003
1.26104e-08
0.00380274
1.29829e-08
0.00285923
1.0104e-08
1.69259e-08
2.95582e-09
0.00270247
0.00132874
0.000429199
1.63609e-08
1.55873e-09
0.00134263
5.60845e-09
1.70667e-09
7.35787e-09
8.71047e-09
0.00244599
0.00210466
1.17738e-08
1.67252e-08
6.51998e-09
2.65361e-09
3.47103e-06
2.24511e-06
0.000118097
1.81946e-08
0.00164105
6.86608e-09
2.93442e-08
2.71882e-09
2.46037e-08
2.89386e-09
0.00233925
4.02129e-09
1.74137e-06