/*--------------------------------*- C++ -*----------------------------------*\
  =========                 |
  \\      /  F ield         | OpenFOAM: The Open Source CFD Toolbox
   \\    /   O peration     | Website:  https://openfoam.org
    \\  /    A nd           | Version:  10
     \\/     M anipulation  |
\*---------------------------------------------------------------------------*/
FoamFile
{
    format      ascii;
    class       volScalarField;
    location    "24.5";
    object      SgP;
}
// * * * * * * * * * * * * * * * * * * * * * * * * * * * * * * * * * * * * * //

dimensions      [1 -1 -3 -1 0 0 0];

internalField   nonuniform List<scalar> 
111485
(
1.19366e-09
0.000121649
2.82267e-05
5.73637e-11
8.59373e-06
3.20916e-08
1.52094e-05
2.53382e-07
1.04965e-05
3.00831e-06
2.57139e-05
9.36396e-07
6.8729e-06
0.295487
6.75657e-06
1.61326e-05
0.2091
0.00105498
9.07836e-07
4.80375e-08
0.037217
3.26815e-09
3.16699e-06
1.13829e-05
4.05852e-05
3.47058e-08
5.83571e-07
1.46987e-05
1.06032e-06
0.0481497
4.19461e-06
5.03941e-07
2.17979e-07
1.46878e-06
0.00075275
9.18123e-05
0.136649
0.205813
0.00246141
9.05506e-07
0.0435769
1.18389e-06
3.02758e-06
0.000107769
1.87174e-05
1.58714e-06
6.57254e-06
4.39559e-07
6.21287e-06
4.29051e-07
1.09606e-06
1.72251e-05
4.63424e-07
1.00031e-05
1.5081e-06
1.60551e-07
2.80025e-06
4.44156e-08
5.07444e-05
3.85728e-07
5.82576e-07
2.65407e-07
8.64958e-05
7.11517e-06
6.4587e-06
2.13596e-05
0.0004277
2.41875e-06
7.19004e-05
0.00014249
4.86793e-05
8.7387e-05
1.12805e-05
9.24224e-05
4.65514e-08
1.78716e-06
1.53082e-08
7.18231e-07
2.75448e-08
3.12778e-05
0.28105
0.526531
4.71662e-08
5.22485e-09
1.60644e-05
3.81219e-05
0.143732
9.07527e-06
0.000247661
4.4277e-06
1.37034e-06
6.6357e-06
4.6563e-05
4.9149e-07
2.31749e-06
6.67479e-09
0.0270666
1.19733e-05
0.00152723
0.000578004
1.38269e-09
2.63803e-06
1.9675e-06
1.43815e-05
6.15123e-06
1.6508e-05
5.88535e-09
2.83472e-07
1.51984e-05
0.000730365
4.22298e-05
1.37907e-06
1.32609e-05
7.42212e-05
1.03649e-07
1.84019e-07
3.02626e-08
6.55857e-06
2.3192e-05
4.87245e-09
9.17606e-08
0.000190052
0.0753394
2.27073e-06
5.82311e-05
0.0278522
0.000107283
1.3366e-05
3.01064e-10
0.000324657
0.000137325
1.75603e-05
0.047208
0.000175281
7.84791e-05
8.64572e-07
8.4746e-10
3.24417e-07
1.00618e-05
2.45393e-05
7.13463e-05
3.74628e-07
0.180367
9.94643e-05
4.15052e-05
2.41683e-06
7.92676e-10
8.96737e-10
4.76935e-08
5.11668e-07
3.35819e-05
0.0285505
0.115708
1.41642e-05
3.53581e-05
5.56506e-07
5.67632e-06
0.000154102
0.000824059
5.437e-06
9.64086e-10
7.18166e-07
4.04205e-05
7.43699e-05
6.3861e-05
3.85112e-05
7.38557e-06
0.027101
0.00156764
0.000127593
1.58497e-09
1.52296e-08
0.197977
1.17658e-10
2.67774e-07
2.86267e-06
5.23986e-07
9.48678e-06
3.6283e-08
5.81758e-06
9.95499e-06
3.71761e-08
2.65032e-06
5.07937e-07
2.39243e-06
2.06081e-05
9.8556e-06
5.55331e-05
0.000387354
1.78825e-07
5.44651e-05
5.79506e-06
7.13702e-06
3.73549e-05
5.10196e-06
1.20673e-05
2.07626e-06
1.39126e-06
8.4616e-07
8.89248e-06
3.01097e-06
0.00166448
8.07076e-05
9.26011e-07
1.8292e-06
4.12474e-06
1.2563e-05
1.18447e-05
1.82466e-05
3.0545e-06
5.69222e-06
9.87657e-06
8.65921e-06
7.81708e-09
7.05908e-05
0.000312031
4.56527e-07
7.05165e-09
1.20505e-05
1.77918e-05
8.74966e-07
8.33387e-08
1.62707e-05
1.66462e-05
0.000278019
6.91932e-09
4.30065e-10
3.1207e-05
0.00418279
2.35683e-05
9.38217e-05
1.39855e-05
2.37425e-06
0.146176
3.87199e-05
2.09513e-05
0.16095
4.66882e-08
6.1982e-05
2.21607e-05
2.711e-05
3.30496e-05
4.8638e-06
3.90021e-06
0.00195775
1.10763e-06
7.84733e-06
1.2431e-08
4.86658e-06
0.136623
1.82206e-05
1.09484e-05
2.20831e-05
7.88461e-10
0.000193237
4.731e-07
2.78527e-07
6.70904e-05
0.0997191
1.85051e-08
4.65877e-06
5.49655e-05
2.52277e-06
3.37275e-09
1.16768e-05
6.44993e-11
6.1006e-08
5.10136e-07
0.165034
4.35289e-06
3.24865e-05
1.38036e-06
0.177482
1.9881e-05
1.42003e-06
0.000254097
4.74942e-06
1.18732e-06
4.5111e-07
5.35511e-09
0.111619
4.2936e-07
4.02326e-05
2.10063e-05
1.89492e-09
0.217802
0.266023
1.57851e-06
0.000319438
3.53361e-05
3.20642e-06
8.85551e-06
1.1934e-05
2.01517e-08
7.53474e-06
2.94808e-09
0.000361262
0.000276699
1.54667e-05
1.63804e-06
0.34687
1.77633e-08
0.0860708
1.10232e-06
7.78332e-06
3.02691e-09
1.15078e-07
0.0246302
4.90294e-06
1.51923e-06
5.94031e-06
0.000171963
7.69873e-07
3.04658e-05
3.0547e-08
3.53921e-08
5.74165e-06
0.00442252
0.250421
3.41578e-06
0.000792692
1.78545e-09
8.66784e-09
1.41133e-08
8.484e-05
5.70363e-07
5.85448e-07
2.1749e-06
8.75389e-07
7.14628e-05
0.0608126
5.50485e-06
1.23298e-07
1.89263e-06
2.27098e-06
0.0483282
4.99825e-05
7.38045e-07
7.23152e-07
7.86484e-07
1.34645e-05
7.13316e-08
0.151344
0.000173518
8.59222e-07
3.21513e-06
0.00030433
4.77569e-07
0.0391355
5.36978e-07
1.07691e-05
6.46259e-06
3.88062e-07
2.0198e-05
9.111e-06
1.97875e-07
5.46522e-07
7.13685e-07
1.76661e-06
0.362334
2.99236e-05
1.70693e-07
0.0530139
1.65424e-05
1.74433e-08
4.07589e-07
3.75278e-07
0.0469236
0.000624503
0.0459042
0.0496845
2.81366e-07
2.50169e-08
2.80303e-06
4.04943e-06
4.03799e-10
7.75292e-06
3.05255e-06
1.58542e-05
2.65582e-05
0.000141527
5.60709e-06
0.000708649
4.77403e-07
8.21391e-06
4.31917e-05
1.1617e-06
0.000673128
3.89722e-07
1.47582e-05
2.79809e-06
0.0303782
1.17626e-07
2.0879e-07
0.154818
4.77752e-06
0.306542
6.66149e-08
4.68927e-06
3.54314e-06
7.66074e-09
5.17579e-06
4.62582e-05
3.7802e-09
0.0320448
3.17134e-06
2.84255e-06
4.595e-07
2.60904e-08
0.000758009
3.77091e-09
1.029e-05
3.63317e-06
4.36233e-10
1.1437e-06
3.88048e-05
0.246889
0.000135004
1.97532e-09
7.95853e-05
0.000102781
9.91783e-05
3.90528e-05
0.000631583
2.43389e-06
0.00112633
5.55091e-05
0.204909
0.000202088
4.58627e-08
7.40738e-06
1.05918e-06
2.03827e-07
0.00142085
0.000222634
8.32526e-05
1.48723e-06
1.35291e-06
9.58255e-06
3.69484e-08
0.351655
8.28814e-07
3.36404e-05
0.00439299
9.16678e-05
0.00127101
3.56583e-08
0.253582
0.332502
2.50718e-08
3.5644e-05
0.000261562
0.000103547
4.06197e-09
3.01465e-05
3.58785e-09
0.285072
7.24014e-05
2.13058e-05
0.000108458
2.11373e-05
1.91689e-07
1.76599e-06
4.99734e-07
6.96513e-05
1.54536e-07
5.98388e-07
0.0524078
9.60768e-05
4.0369e-08
1.55439e-09
0.00038505
8.46336e-08
1.60479e-06
3.60409e-06
2.74961e-08
6.14664e-05
6.73239e-08
0.0741633
6.94882e-08
1.65951e-06
3.67997e-08
0.000238938
4.30517e-07
0.224124
1.9618e-05
0.237064
1.74609e-08
6.65849e-05
2.59013e-06
2.66693e-09
0.369887
0.143238
2.62879e-05
3.05798e-06
3.06547e-05
6.48685e-07
1.20661e-05
7.91548e-07
4.60111e-05
0.289942
2.58294e-08
2.42275e-06
0.000108467
1.7752e-05
0.059105
5.68996e-06
0.000115003
2.45315e-06
1.37908e-06
0.000785426
0.0820287
1.78155e-05
2.17847e-08
1.32398e-06
3.52253e-06
3.55525e-06
1.14489e-06
1.96709e-05
1.75382e-09
0.00170063
1.73116e-07
3.50945e-07
1.7882e-07
9.61041e-05
4.30574e-09
1.01317e-05
3.0264e-08
9.32826e-06
1.99771e-09
0.116292
0.114784
2.00552e-05
1.16398e-06
0.0653032
0.0813848
4.77361e-08
2.65448e-07
1.50743e-05
4.61455e-08
0.000173718
1.79474e-05
1.09894e-05
0.0426555
1.69575e-06
2.39223e-09
4.68485e-05
4.54617e-05
6.21814e-05
1.64853e-06
1.59319e-05
1.03549e-05
1.19563e-06
9.73829e-07
2.13065e-05
3.33699e-05
2.57517e-09
0.126579
6.74202e-05
4.35147e-05
1.34606e-06
0.00118913
3.20984e-05
0.00046371
0.00302432
0.000386233
4.09238e-06
8.66044e-05
1.16462e-05
2.12136e-05
0.115093
0.000212068
7.44436e-05
0.00359131
0.0770607
3.16115e-08
6.61245e-05
4.59425e-06
4.07067e-05
3.68434e-07
0.000516405
0.00274571
0.000435934
0.000167298
2.66261e-05
2.36737e-06
5.54499e-08
0.000198814
3.46467e-06
2.89269e-08
5.72192e-10
5.60371e-08
3.18929e-08
9.94566e-06
1.83839e-09
0.0347559
1.27935e-05
2.56459e-05
0.098908
0.319478
6.03822e-05
3.04701e-06
0.0371527
5.53309e-08
1.87499e-05
1.91685e-07
1.95869e-08
4.7798e-05
2.37046e-05
0.121525
2.64841e-05
1.62579e-07
2.69341e-06
2.89754e-05
0.143866
7.10058e-06
2.75698e-05
7.05515e-05
0.196922
0.0415943
2.84348e-06
1.78048e-05
5.96166e-06
2.41345e-06
5.96749e-06
1.06504e-06
3.18675e-05
4.21517e-06
2.18492e-06
1.1406e-06
4.39952e-06
0.000659618
3.26583e-05
4.25357e-06
5.05968e-06
0.000660136
3.99039e-07
5.12717e-07
1.81667e-05
3.09026e-06
1.66126e-05
3.05423e-06
3.27834e-06
3.41211e-06
3.29144e-05
0.000198041
1.26842e-05
1.85003e-05
3.11819e-06
4.65883e-07
4.48072e-05
4.45426e-06
4.07645e-09
0.0778519
1.61622e-08
0.13681
5.88481e-05
0.0117848
8.0446e-08
0.0295265
1.44372e-06
1.13887e-05
1.31768e-09
7.21349e-06
3.01173e-07
1.65189e-08
8.16186e-07
0.282972
0.000130935
2.96009e-05
0.0411898
1.07777e-07
2.58508e-09
3.68931e-06
1.91033e-06
8.36655e-05
5.35436e-07
0.000128616
6.48478e-08
7.3871e-06
0.000125581
0.168373
6.35346e-10
4.6981e-09
3.37024e-06
8.46528e-07
0.000132748
4.18088e-07
0.0631867
1.20117e-06
2.64954e-08
1.22963e-07
0.0456448
6.48988e-06
0.000139564
6.05061e-10
0.00503842
0.00104488
0.182375
1.61538e-08
1.89846e-08
3.55534e-06
2.2752e-05
3.95663e-05
0.000586646
0.000334711
0.000260471
5.03722e-06
0.0636374
2.69538e-05
8.13935e-07
6.8997e-08
1.20449e-06
1.33568e-08
9.24724e-09
7.71852e-08
9.38293e-10
3.42056e-06
7.14308e-08
1.94544e-08
3.23643e-07
2.13956e-07
1.67442e-06
1.07537e-07
5.80708e-07
2.66159e-07
1.49342e-05
1.67904e-05
2.70363e-08
7.43385e-09
2.25683e-05
7.93892e-10
9.2107e-05
2.12576e-06
5.40657e-06
1.24714e-07
1.27528e-10
9.62146e-10
1.60044e-09
1.56726e-05
1.80985e-08
6.56924e-08
2.10621e-05
4.79824e-09
1.41366e-05
8.26064e-05
2.35605e-06
1.73087e-06
0.000530216
4.55773e-06
0.252409
0.000111299
8.28224e-06
0.209956
8.25066e-05
6.22402e-06
2.86525e-05
9.6766e-07
2.03566e-05
0.0890461
0.000706982
6.22431e-07
3.97495e-08
1.27825e-05
8.02019e-05
9.9724e-05
9.28966e-05
1.85205e-09
1.5637e-10
1.31434e-06
3.86566e-05
9.34097e-06
3.91188e-06
0.000207199
3.43942e-06
2.99934e-05
1.46591e-07
1.52891e-08
0.0335982
8.08073e-06
3.65335e-07
2.79275e-08
4.98683e-05
0.000130983
1.78706e-06
3.47639e-07
0.0407124
1.62663e-09
2.75367e-05
0.0640375
9.79271e-09
0.0726795
4.30501e-05
0.0372362
0.000609587
9.71202e-08
2.49193e-05
2.20923e-05
0.0458757
5.6947e-05
0.00131796
0.161882
0.00014577
1.15086e-05
1.00055e-06
1.35269e-06
0.48719
0.162238
4.30965e-08
0.242195
1.39073e-05
0.000162676
2.53171e-05
2.21537e-05
0.00121432
3.98949e-05
1.39971e-05
6.83256e-06
1.33086e-07
1.7796e-06
0.045841
8.18823e-08
5.57196e-05
2.82713e-05
9.79718e-08
3.96696e-06
0.217701
4.47973e-06
2.96499e-07
0.000646553
1.5808e-08
4.06513e-06
0.212707
2.35329e-08
0.178145
0.343004
0.00135381
1.78073e-05
1.0838e-06
3.77019e-06
6.32257e-05
0.000224988
0.00120336
0.000318393
4.29958e-06
0.0455587
0.000112034
9.34586e-10
0.000304628
0.000299386
0.000613286
0.000467218
0.00086428
0.000171382
1.05193e-09
6.88489e-05
1.02879e-06
4.12593e-07
0.00171324
0.350093
1.75437e-07
3.31408e-08
0.00324317
0.00330564
3.28825e-09
0.000604753
8.69071e-08
1.58364e-08
1.25e-08
4.49599e-07
5.06918e-06
1.65565e-07
7.8611e-05
0.0520919
1.45827e-09
5.01632e-07
0.004513
0.116193
7.52972e-05
7.8753e-07
0.0327288
1.08658e-08
0.000134374
4.01289e-09
2.27857e-09
0.000574163
0.130176
2.57946e-06
7.331e-09
6.71023e-08
0.035877
1.86067e-08
0.0232516
4.70899e-08
0.000104122
6.77081e-09
0.00196043
3.19005e-06
2.84364e-09
7.57132e-07
5.60134e-07
0.00140808
6.26347e-07
2.36817e-08
2.09283e-06
0.00444749
0.0543718
7.26173e-05
0.000614749
0.00107036
4.30848e-08
0.00132733
1.03295e-05
3.42101e-07
3.44121e-06
0.000215377
2.26107e-05
1.1772e-07
9.55635e-06
0.00015114
1.00883e-07
1.37595e-06
7.52111e-07
1.65306e-05
0.0734518
1.278e-09
9.00347e-07
0.0611713
0.000121935
7.76576e-05
5.46976e-09
8.9763e-07
1.62056e-08
1.13848e-06
2.76306e-05
5.33756e-05
5.54225e-07
3.02222e-05
2.76544e-05
8.33603e-05
1.69434e-05
7.14131e-09
3.83449e-06
1.67698e-09
5.01085e-07
6.73024e-05
0.000186177
3.1472e-08
5.099e-07
4.58712e-06
1.13565e-10
4.79836e-05
4.46701e-07
7.31599e-05
0.000841459
7.55617e-05
1.49173e-08
0.00139449
0.000119366
6.32731e-05
0.000159473
4.70835e-08
0.000164465
2.56765e-06
0.117516
3.50813e-05
9.77875e-05
6.19351e-08
6.67052e-10
2.27825e-08
0.186994
0.0751603
4.47013e-05
6.76118e-10
0.000144462
2.98188e-08
0.173737
0.000161131
7.62424e-07
9.24661e-08
3.41541e-06
6.18038e-07
9.01282e-05
2.11949e-06
0.000123478
0.313569
4.19239e-06
7.23022e-05
3.38648e-05
7.12801e-05
5.22261e-05
3.25897e-08
3.49782e-10
2.84425e-06
3.68542e-05
8.17552e-09
2.0212e-07
0.00061074
4.5959e-07
1.44328e-06
0.423798
1.76341e-06
6.87247e-05
4.09519e-10
3.34685e-06
2.6611e-07
0.331952
3.02208e-09
0.119422
0.00554575
0.000138019
1.72537e-05
1.58082e-05
0.000947176
2.57719e-06
4.07779e-06
2.30531e-06
1.0327e-06
6.20479e-08
1.8714e-06
8.60748e-05
2.40139e-06
0.0710305
2.76808e-07
4.34983e-06
0.000308829
2.07423e-09
0.000385393
8.58595e-08
3.96742e-05
0.000832222
6.86419e-08
2.13407e-06
7.06445e-05
5.52376e-07
9.42711e-06
0.182664
8.06866e-07
9.94594e-06
1.35945e-10
0.0468548
9.01111e-06
1.91177e-07
1.92288e-07
4.95818e-06
7.31203e-06
9.55231e-09
0.152486
1.51679e-06
2.10258e-09
0.000125538
4.03306e-07
2.68073e-09
4.57994e-05
0.00102245
0.000885955
8.13163e-09
1.11807e-06
4.66267e-08
4.90024e-05
5.07798e-05
0.0343515
6.2721e-06
0.000924475
6.79197e-05
0.00117805
3.09474e-05
3.54049e-06
1.08708e-06
4.80801e-07
5.1275e-05
2.10219e-06
7.41042e-06
0.0440804
0.00025256
0.0482266
1.27647e-09
7.96484e-06
1.21299e-07
6.06937e-05
0.000102682
1.18572e-05
4.91533e-05
0.000540669
0.000151961
7.73973e-10
0.00721997
0.00842612
8.65783e-05
4.76005e-05
8.46257e-07
0.000960038
1.68745e-06
2.86424e-06
1.3763e-07
5.60801e-09
0.000253521
9.84205e-06
0.00100545
6.69687e-07
0.0477137
0.000673322
7.23068e-07
1.37735e-07
0.000581778
2.91982e-06
0.0557556
0.282148
0.000131638
0.000237817
1.65952e-06
5.28432e-07
2.1272e-08
1.43098e-08
6.26157e-05
5.04295e-06
0.0351313
0.0551763
3.19135e-05
3.18755e-08
0.000324142
0.0419305
2.76846e-05
0.0011593
0.00261665
0.0443739
0.122392
0.0516174
0.000122201
1.15579e-09
0.00204212
6.65893e-07
1.63215e-07
1.95172e-07
7.37205e-09
2.88192e-05
3.98513e-09
2.09639e-09
9.22163e-05
4.95404e-08
6.70381e-09
9.57666e-07
5.55947e-07
0.0603093
6.47794e-06
3.08228e-05
0.0778634
0.263581
5.92562e-09
0.188767
0.000157009
0.392479
3.97489e-07
1.09511e-07
6.89489e-08
4.49359e-05
0.263462
1.72641e-09
0.00118758
7.35792e-08
3.99907e-06
1.63778e-05
7.80873e-06
1.10149e-06
2.42201e-07
0.0792573
9.89e-09
7.2075e-06
1.24227e-07
9.27163e-07
1.7658e-06
0.00046075
0.000121561
1.16616e-06
0.000391282
2.17744e-05
4.24874e-07
0.000143249
7.52399e-07
2.5434e-05
1.44109e-07
1.32443e-07
0.25576
0.0447522
0.0004002
3.33072e-07
6.4146e-09
4.49795e-06
0.195467
2.54315e-07
1.16788e-05
5.02428e-07
2.95424e-06
2.51572e-09
0.0365428
0.000111802
7.60829e-07
6.21844e-07
1.77446e-05
7.97991e-09
0.181159
1.03296e-09
0.0405963
7.97704e-05
5.09027e-06
1.30952e-08
3.34351e-06
1.33537e-06
1.03076e-06
3.6528e-06
5.13165e-06
3.04122e-10
4.73933e-09
9.63872e-05
0.0822001
2.39592e-09
3.44402e-05
5.20759e-06
9.86655e-05
3.927e-07
0.0493584
2.34341e-06
5.15244e-05
5.55437e-05
6.114e-08
5.89433e-05
1.98447e-06
1.72782e-05
2.9133e-08
2.7071e-08
1.07986e-05
6.21559e-09
0.000185023
4.04913e-05
3.09663e-08
8.19898e-08
0.000136782
0.000549717
0.307058
1.18318e-07
5.01699e-06
1.84669e-06
0.000371722
0.000172039
2.73573e-05
8.39002e-05
0.0807904
3.52971e-06
5.51994e-05
0.00083643
0.0682307
7.11221e-07
5.04394e-08
0.00042739
2.93819e-06
0.0424906
1.9127e-07
6.98873e-06
3.52356e-06
1.72796e-08
0.232293
9.61256e-09
1.70275e-07
6.35764e-07
2.75208e-05
0.310905
0.0586658
4.91097e-07
2.46695e-08
1.83535e-09
1.11746e-07
1.09809e-07
6.61867e-07
1.21343e-07
6.64869e-09
6.40881e-08
1.18287e-08
1.845e-07
0.0643381
0.0381534
2.91852e-09
1.38418e-05
7.85616e-09
7.86449e-08
1.31116e-08
0.0373983
0.0824443
5.65845e-06
3.88274e-08
1.30156e-08
8.38511e-07
1.29211e-06
4.09216e-06
1.37273e-07
0.000334267
2.70002e-07
3.13337e-06
3.5861e-06
0.000190419
5.37342e-06
0.000807068
1.8096e-06
3.06795e-08
0.000495113
0.000446132
1.8575e-08
2.30606e-05
4.0496e-06
1.37768e-05
4.37163e-05
1.0541e-05
3.74165e-06
1.12789e-07
0.332654
5.05232e-07
4.04755e-05
0.0643673
0.000120594
1.22595e-05
1.50622e-05
1.6811e-06
2.37976e-06
2.30209e-05
6.72992e-05
5.75755e-05
3.37663e-06
4.57062e-05
7.66738e-06
3.95395e-06
2.21756e-06
5.58454e-09
6.32363e-08
4.7135e-08
6.69254e-10
1.78579e-07
3.60741e-08
7.48519e-06
1.91008e-08
3.06318e-09
1.83844e-07
1.73681e-05
4.26121e-09
9.76946e-09
8.24119e-07
1.12758e-06
1.01301e-06
8.82778e-05
6.60727e-06
0.248173
1.20842e-07
1.15859e-05
1.55244e-05
4.2632e-06
4.26039e-09
1.83558e-08
0.22535
5.62327e-07
5.95757e-09
2.3656e-06
0.22647
1.74327e-06
5.93456e-05
5.91062e-05
1.10048e-06
7.70495e-06
9.41212e-06
0.00038862
1.9614e-08
4.41244e-05
4.97063e-06
1.89463e-07
0.000323213
0.000399024
0.197365
6.80483e-06
1.37759e-06
7.43104e-06
3.85956e-05
1.61955e-05
1.91824e-07
0.00261997
1.1962e-08
0.000641842
0.000416535
0.0611094
1.00671e-05
0.259416
3.14062e-08
1.37686e-07
5.19404e-06
2.52112e-05
7.45407e-05
3.2677e-06
0.000117852
3.60454e-08
9.83728e-06
1.11356e-09
2.02261e-08
1.63387e-06
0.000492882
1.01155e-07
5.42696e-09
0.000422771
2.24834e-07
0.000550684
3.48993e-06
2.03186e-06
1.51072e-06
4.53938e-07
2.01021e-05
4.51405e-06
0.000205866
6.42831e-07
8.29067e-06
0.00331465
1.22425e-06
7.238e-09
0.000157927
2.35889e-06
4.06886e-05
4.99054e-09
0.144468
0.000117014
7.18416e-05
1.78785e-06
7.37843e-09
0.000196916
4.71606e-06
2.47735e-07
7.97375e-10
6.61222e-05
7.19663e-05
8.05959e-05
0.196819
2.91748e-06
6.12815e-06
0.000247274
1.01316e-05
7.27795e-06
2.70833e-06
8.93343e-05
3.64228e-06
0.000120512
0.18424
1.50947e-05
5.42334e-10
1.71151e-06
5.30798e-05
1.50947e-05
2.72145e-07
0.000460166
0.000885851
0.000487036
0.0008799
1.73807e-05
5.29316e-05
7.18116e-06
2.04347e-05
1.14381e-07
1.07727e-08
0.102334
0.000506072
2.84958e-06
0.00166608
5.15588e-06
2.47865e-05
0.000435766
4.37255e-06
2.26602e-06
3.2318e-06
4.05803e-07
4.22551e-05
3.01558e-05
0.000153032
2.86664e-05
5.62527e-07
6.44316e-09
2.82945e-05
9.97007e-07
2.03516e-08
0.000313185
3.03581e-06
8.04935e-06
3.8231e-05
7.54164e-06
4.0589e-08
0.00060095
0.139006
4.78379e-08
5.57473e-09
2.11781e-08
0.144939
0.247424
4.31558e-07
0.0533436
5.39816e-06
2.04493e-05
8.00935e-06
8.3789e-06
1.17664e-05
1.39183e-05
2.95111e-05
0.118366
0.34086
0.393193
1.20206e-05
3.2077e-05
6.74925e-06
7.4077e-06
0.36181
1.40012e-08
0.175536
4.08616e-06
1.10849e-08
7.20757e-07
5.94525e-07
2.92851e-08
3.74334e-08
2.29705e-07
1.7604e-08
0.137307
4.7125e-08
2.91137e-05
0.000197645
2.29799e-08
4.55689e-06
7.35424e-06
6.39168e-06
6.54329e-08
0.000587233
6.45313e-06
8.61151e-07
6.90545e-05
4.2791e-06
3.07537e-05
4.66911e-06
1.18905e-06
5.25818e-07
2.05942e-05
0.00335884
4.91841e-05
9.02569e-07
1.38383e-05
8.35253e-07
2.54021e-05
0.000100793
1.2082e-05
2.22674e-06
5.45926e-06
1.15385e-06
5.79535e-05
1.2424e-07
8.1724e-06
0.0412223
0.000425232
0.329222
0.000784021
0.000114638
1.63381e-08
0.0615586
1.09913e-09
4.96426e-05
1.58194e-05
8.26041e-07
8.76707e-05
1.6684e-06
9.49397e-07
4.47895e-05
8.0065e-07
2.07823e-07
1.97556e-05
6.53854e-07
2.25799e-05
0.079037
3.56164e-07
3.80382e-05
1.39003e-06
8.03347e-07
6.20173e-10
0.000261771
9.15149e-05
3.7114e-06
1.40593e-08
7.15376e-07
0.0443998
0.000212475
9.86104e-06
1.49894e-05
1.69532e-09
8.31482e-11
9.34282e-07
4.15524e-09
4.91111e-05
3.589e-07
2.1771e-05
1.68429e-06
1.99107e-07
5.99363e-07
3.12662e-08
4.8048e-05
9.04857e-05
4.41317e-05
5.15558e-07
2.92897e-08
9.82178e-07
2.32457e-06
0.000536682
1.01168e-06
0.162134
2.18814e-05
2.90692e-08
4.12745e-08
0.000230958
1.28956e-05
0.00114357
5.44591e-07
9.88823e-05
0.234513
4.0982e-10
0.000334085
2.70692e-05
0.0425359
1.76469e-06
0.0475043
0.0830868
0.000120021
7.5114e-06
2.02346e-05
1.12901e-08
1.57843e-05
2.71149e-05
0.000377249
1.92505e-05
6.88227e-06
2.61936e-05
0.000430718
0.000345948
0.000515333
0.000130746
1.67176e-08
8.96692e-05
0.000891592
6.29253e-06
3.98333e-06
0.000250357
0.00021533
1.38258e-05
1.87687e-05
0.000266238
1.56675e-05
0.000380495
0.000250493
1.94956e-05
2.48929e-08
3.4887e-05
0.000418794
0.066888
2.13397e-06
5.21446e-07
4.92948e-05
1.83992e-07
8.53381e-05
8.39931e-07
0.000397345
5.8495e-07
7.04317e-05
2.5122e-08
1.01172e-07
1.10671e-05
0.000921059
0.00120682
0.339135
4.1744e-05
2.04539e-06
2.10996e-07
0.000408314
2.31921e-05
0.0338475
0.0704281
4.09072e-10
0.000787148
6.46933e-05
6.76381e-06
5.66535e-09
0.00114726
5.70403e-07
0.0427539
5.00024e-08
4.88329e-09
3.02447e-05
1.15043e-06
1.32266e-06
3.68871e-05
0.0395531
2.0397e-05
2.38837e-07
8.42735e-05
0.219268
0.0432491
6.7889e-06
0.000285159
3.04001e-05
0.000580943
3.02872e-06
0.0374097
3.86038e-05
0.000186977
2.42649e-07
8.81431e-07
4.71571e-06
5.20793e-07
2.42421e-05
2.35755e-06
7.69619e-07
2.54641e-06
4.15276e-06
0.000101356
2.4616e-08
3.62752e-07
0.0806188
9.74444e-09
7.74186e-08
4.34031e-05
6.32407e-08
0.000186093
3.56159e-05
0.0659007
2.34534e-05
0.261397
1.28695e-05
2.15602e-05
0.0399226
0.000160317
2.43227e-10
1.94666e-06
0.0279848
1.55833e-05
7.89171e-05
1.69136e-05
1.63462e-07
7.06099e-06
7.48577e-06
8.49394e-07
0.127595
1.0958e-06
1.02641e-07
1.77406e-06
6.59639e-07
1.51304e-08
8.70451e-05
2.52022e-06
0.274383
8.15088e-05
3.524e-05
4.63955e-05
5.86752e-05
1.67599e-05
2.97313e-06
1.52982e-10
8.99206e-07
7.40797e-05
2.15419e-05
6.53409e-06
6.92251e-08
1.13365e-05
1.26952e-06
4.03543e-05
3.21628e-08
1.37706e-07
1.23454e-06
2.86449e-05
2.19909e-05
3.30872e-05
2.89818e-08
2.26201e-08
0.00165904
2.22725e-08
1.41012e-09
2.76604e-09
1.4658e-06
0.308941
9.3022e-07
0.000115948
6.91584e-05
2.10712e-05
1.7863e-07
1.25231e-06
0.000226323
7.38866e-06
3.51671e-07
3.75746e-05
4.09296e-09
2.86908e-09
4.01914e-09
9.93799e-05
1.11336e-07
0.329067
0.000526904
3.5435e-05
0.00184087
6.83623e-07
1.71553e-05
2.53254e-09
0.059283
8.28406e-06
6.20151e-06
1.55206e-06
4.12065e-07
1.61773e-07
0.481435
1.68806e-05
0.000437435
6.61091e-05
1.38146e-06
0.122489
3.16894e-07
3.20317e-07
4.99576e-07
7.24552e-07
3.51119e-05
5.02038e-07
2.448e-05
1.81679e-05
0.000503366
3.59842e-06
4.85437e-10
0.000190534
3.82368e-07
0.156837
3.45975e-06
2.40865e-07
1.25081e-06
1.89435e-05
0.0606461
0.0297518
1.84947e-05
4.86068e-05
0.0905599
3.56064e-06
2.53771e-05
0.0473543
1.26212e-05
5.92958e-06
0.173236
0.0186439
1.04464e-05
3.33297e-05
1.53734e-08
3.85812e-05
0.00172645
1.0361e-05
1.1504e-05
0.000380739
1.2767e-09
0.0231248
1.03571e-08
2.87095e-05
0.194355
1.22423e-07
1.22146e-05
4.61753e-06
3.74997e-07
4.04131e-08
4.82058e-05
4.18328e-07
1.1722e-07
3.16749e-05
9.74395e-06
1.40062e-08
0.0232798
0.0440605
4.92384e-06
2.78015e-10
1.91203e-09
0.000143338
1.41442e-05
5.41074e-06
3.36138e-09
9.54194e-08
0.000132898
6.9676e-05
4.76147e-05
8.35063e-05
0.363476
1.42308e-09
0.140828
1.76299e-05
6.83766e-06
0.0562366
1.08555e-06
2.10822e-08
0.0228072
7.34048e-10
6.8377e-06
6.45832e-06
7.27627e-06
1.10189e-06
9.2596e-09
3.93836e-09
1.6281e-08
2.03796e-05
0.134067
0.212344
3.14373e-05
2.55006e-06
1.7178e-10
0.0557468
0.225517
0.000278954
1.01635e-06
1.39789e-07
0.000967383
0.000247437
2.40041e-07
1.32569e-08
2.18112e-06
8.00246e-06
3.71244e-08
1.10729e-05
6.98307e-05
0.059951
0.204395
5.6225e-05
0.000874826
1.00761e-08
3.73644e-07
3.289e-05
0.000179623
3.37526e-05
0.000459237
8.26291e-06
1.51497e-05
6.92409e-09
8.73766e-08
1.26573e-05
0.0582451
1.14768e-06
0.177801
2.02823e-08
1.21518e-05
2.37787e-06
1.66806e-05
1.07287e-08
1.25377e-09
1.10424e-07
3.54017e-08
1.21724e-06
0.000328287
1.01889e-08
0.0373094
1.79106e-05
0.159264
1.95279e-06
3.01241e-06
1.65242e-06
1.97807e-06
1.33122e-05
3.0547e-08
2.3122e-08
1.34557e-08
3.33884e-06
9.66457e-06
0.0582389
0.0563759
5.25683e-06
1.01216e-06
5.98215e-09
2.40798e-09
2.49518e-08
1.72139e-06
0.000250156
2.02304e-07
3.6466e-08
3.58681e-09
0.0219327
2.67182e-05
4.46865e-05
0.0403666
8.72778e-07
0.31079
9.89914e-06
4.39591e-07
4.25566e-10
2.59255e-07
0.0534471
9.66002e-10
2.3689e-05
2.24432e-08
0.000704227
4.50345e-05
8.48572e-05
0.000145698
2.94483e-05
4.00807e-09
1.56456e-08
0.359221
3.30702e-05
3.51288e-05
0.000235094
4.22185e-07
8.61916e-05
9.63808e-05
3.00573e-06
3.29883e-06
0.00030452
8.201e-08
0.000718736
0.0391453
1.4256e-06
2.0633e-07
8.33081e-05
9.06363e-07
0.0340701
0.182121
2.18058e-05
9.20186e-10
0.00411059
3.43115e-07
2.15698e-05
1.53411e-06
0.000125021
1.12291e-08
0.000880528
8.73724e-05
0.000131971
2.13934e-05
0.000123293
3.06748e-05
5.36303e-06
7.46418e-10
0.000155756
4.76139e-05
5.82297e-05
6.64177e-07
9.65902e-06
0.000121742
0.000454756
9.4416e-09
1.85111e-08
3.4863e-08
3.49997e-10
1.27332e-07
0.021617
0.000405152
0.000144413
4.08935e-05
0.000206323
8.31604e-05
2.78677e-10
1.16347e-05
6.7655e-09
5.38891e-07
7.84288e-09
2.64591e-05
0.00204115
1.54755e-05
1.11565e-07
1.33319e-08
1.50317e-06
1.22549e-07
6.95083e-09
0.146402
9.25364e-06
0.000675608
0.00102869
0.000728563
9.01253e-09
0.000676794
0.000757882
0.00135727
0.000731727
3.78252e-09
3.90523e-10
3.45275e-06
8.68469e-06
6.83134e-05
0.000320753
0.0424814
8.30268e-06
3.302e-05
4.47551e-06
0.000558985
3.40669e-08
1.22502e-09
0.000114605
0.000371975
0.0260899
6.32065e-09
0.117926
0.000127032
3.39087e-07
9.38253e-05
4.96759e-06
8.97962e-05
2.286e-06
9.86294e-05
6.73376e-09
9.61813e-06
0.00217361
3.66868e-05
5.81876e-08
0.00175993
4.48577e-05
1.06471e-05
0.00321886
8.65088e-08
7.69989e-06
5.71532e-05
0.000103461
8.63245e-07
0.193131
5.66079e-08
8.52758e-07
2.69107e-08
0.118075
0.12098
2.06811e-06
1.82426e-06
0.000155256
0.0550597
3.32879e-08
1.10037e-05
2.16684e-05
1.34072e-05
1.28018e-06
0.195391
7.2047e-06
1.7049e-05
0.00364083
1.60637e-07
7.21735e-06
1.73238e-06
2.52075e-06
1.80043e-09
0.002406
0.00397623
1.09022e-07
7.7037e-07
1.27197e-06
0.000102051
7.60293e-09
0.0397974
2.89514e-07
1.00018e-05
1.09911e-06
5.30515e-07
4.99798e-06
3.39504e-05
1.29779e-06
5.05459e-06
0.000247463
1.59646e-06
1.34878e-06
0.0429971
7.7354e-07
3.37987e-06
2.4754e-06
1.99383e-05
1.89785e-10
5.04593e-09
7.06013e-10
6.0193e-06
5.59128e-08
0.0676898
2.23059e-05
1.21373e-05
4.0364e-09
3.27668e-05
0.117484
7.90878e-05
1.38552e-05
6.19185e-05
1.25267e-05
2.00594e-07
7.90158e-08
2.43643e-05
4.40036e-06
2.72325e-06
0.000546426
9.73736e-06
4.67619e-08
2.99224e-08
2.32176e-06
7.74143e-08
7.01713e-06
4.12791e-08
1.20655e-05
1.63201e-05
1.92314e-07
7.69814e-10
0.0456998
7.12357e-09
2.45946e-09
2.51794e-05
0.0564498
2.06934e-05
2.24802e-06
1.42916e-08
1.00628e-05
5.36143e-06
2.23193e-05
6.00014e-06
7.42646e-09
1.79474e-06
1.58944e-06
5.52725e-06
4.06447e-09
4.98914e-09
4.40955e-09
5.2823e-06
1.71284e-05
9.60627e-07
1.60875e-08
7.59746e-06
5.22122e-05
1.96269e-08
2.49257e-05
4.63021e-07
5.24338e-08
4.40021e-09
3.9465e-05
2.39916e-07
2.06308e-05
1.53749e-09
2.56141e-05
9.9927e-09
1.56206e-06
0.000351069
1.34463e-07
5.50588e-09
0.0688063
2.98157e-08
0.0565795
2.47811e-07
4.66302e-08
9.48134e-06
2.58529e-05
0.0470098
5.91813e-05
0.0499244
0.0606554
9.02103e-05
1.14544e-05
0.0403703
1.08987e-05
1.67099e-08
4.29618e-05
0.141163
0.0370098
0.0422076
1.19024e-08
1.02372e-05
1.65126e-08
5.55703e-06
9.89916e-07
7.91831e-06
0.000171832
7.07244e-06
5.30074e-07
1.65184e-08
3.75168e-06
0.000295114
2.39073e-08
1.21163e-05
3.84018e-05
1.97708e-06
9.85345e-10
6.3721e-05
2.63485e-05
2.61555e-05
1.79724e-05
1.66766e-05
2.14508e-06
7.61783e-06
0.000153915
8.72899e-06
6.76064e-06
0.000126042
0.000457967
3.82349e-09
6.3025e-07
2.78357e-08
1.99247e-05
9.06352e-08
2.31292e-06
1.03608e-10
0.000397525
0.391875
0.0890387
0.000150025
5.00279e-09
1.12321e-05
0.0553087
0.102909
2.45865e-06
0.000271695
2.09901e-06
5.58048e-07
1.19372e-07
3.00509e-09
9.4293e-06
4.49413e-05
3.88408e-08
4.34794e-09
1.77766e-05
1.65724e-07
0.176343
0.0539163
1.17015e-05
5.26831e-09
1.1508e-08
0.0420799
5.1061e-09
2.5656e-05
9.65663e-09
0.000614687
2.3138e-08
4.91113e-06
5.1323e-08
6.08323e-09
0.00108216
0.154938
0.0646393
1.45155e-08
0.0689832
4.24117e-08
1.37394e-05
1.64406e-06
0.118046
2.40011e-07
0.000162723
3.92805e-09
1.96709e-06
0.000278215
1.71961e-06
0.000165203
1.03039e-08
1.16648e-05
3.29747e-05
2.07431e-05
5.41574e-06
3.66796e-07
3.32593e-07
3.3856e-06
6.10445e-07
9.99511e-09
3.62845e-09
0.0753623
0.0371672
1.45363e-08
0.0844969
2.9306e-10
2.1439e-08
5.28407e-05
5.15605e-09
4.80114e-09
0.0402259
1.82498e-08
7.0706e-10
0.000650006
2.01665e-09
1.23698e-09
5.0663e-05
0.092962
1.34813e-07
0.0371352
8.47203e-09
4.67494e-06
0.0503711
6.27934e-06
0.00087357
5.77561e-10
7.27408e-08
1.0454e-06
1.80897e-07
0.209783
0.0456402
0.000109541
3.26257e-08
0.04629
9.89198e-10
2.05032e-08
1.81593e-09
0.103365
0.00178609
9.25337e-06
1.27016e-09
1.29146e-06
0.0481498
0.000912719
3.645e-07
0.000261883
0.109106
0.0862615
3.44151e-05
0.0853558
0.00092714
0.0426842
4.20915e-05
0.0657447
0.000345174
4.52791e-06
1.48224e-06
2.32325e-06
0.000458641
0.000931115
6.9448e-10
3.88853e-06
7.36096e-08
4.64659e-05
7.37095e-06
9.9943e-07
8.11608e-06
0.000297496
1.74581e-07
8.03751e-06
9.09658e-08
2.68892e-08
2.7596e-08
4.50078e-08
5.06831e-06
4.4546e-08
4.88738e-08
7.45192e-08
1.06638e-05
4.32576e-05
2.01364e-10
1.80492e-09
5.53424e-08
1.00266e-07
1.07717e-06
0.0012969
0.0021009
0.00013093
9.82371e-09
3.22975e-05
5.78384e-06
0.0463615
3.20619e-05
1.29092e-05
5.65031e-07
1.11561e-06
2.45455e-06
0.000222975
0.000117055
0.179486
0.0671882
8.2381e-08
0.000828969
0.000296544
1.4869e-08
2.6818e-06
4.62052e-06
3.80357e-08
1.73093e-06
3.93274e-06
0.0621682
1.24068e-09
8.35945e-05
1.38335e-08
0.0487978
5.12536e-05
0.0355114
3.33663e-05
4.66765e-09
6.72263e-09
2.32083e-08
2.50921e-05
2.44475e-05
4.22095e-06
7.25875e-06
9.65798e-07
0.000763344
0.000290261
9.48615e-10
0.000117071
4.85041e-05
5.29203e-05
9.54419e-05
0.00296675
4.05229e-06
0.0992005
4.97735e-08
5.90086e-06
0.038366
1.45754e-08
0.000260846
0.00717397
4.04937e-08
0.000103028
1.39862e-08
1.85984e-07
2.57243e-06
4.04987e-06
5.33036e-08
8.56845e-09
6.97869e-07
2.57324e-09
6.08964e-09
0.000126792
2.45465e-08
5.76484e-10
2.93809e-05
7.68426e-09
9.72708e-08
2.70211e-07
0.000215139
2.1959e-07
0.000169375
1.0641e-07
4.69784e-08
2.26232e-05
6.61581e-05
0.00023172
0.0432247
8.07766e-05
4.29817e-05
2.30019e-06
0.319996
0.311155
1.26641e-07
2.91172e-05
1.78855e-08
0.0458879
0.0380343
0.000405805
0.0904429
0.0685096
7.16411e-06
1.10311e-09
0.000116099
1.13096e-08
1.21558e-09
3.97664e-07
1.59925e-05
7.17036e-09
1.73273e-05
3.38864e-05
5.13956e-09