/*--------------------------------*- C++ -*----------------------------------*\
  =========                 |
  \\      /  F ield         | OpenFOAM: The Open Source CFD Toolbox
   \\    /   O peration     | Website:  https://openfoam.org
    \\  /    A nd           | Version:  10
     \\/     M anipulation  |
\*---------------------------------------------------------------------------*/
FoamFile
{
    format      ascii;
    class       volScalarField;
    location    "24.5";
    object      T;
}
// * * * * * * * * * * * * * * * * * * * * * * * * * * * * * * * * * * * * * //

dimensions      [0 0 0 1 0 0 0];

internalField   nonuniform List<scalar> 
111485
(
303.15
285.067
300.943
303.15
298.372
283.15
298.879
293.34
296.244
286.199
300.478
296.135
300.162
284.539
299.938
286.701
299.302
297.053
293.974
303.15
303.15
283.15
297.19
288.636
301.572
303.15
293.109
300.601
288.801
303.15
300.768
294.278
303.15
283.15
283.44
283.15
302.302
297.543
283.149
296.565
283.15
289.536
296.989
302.868
303.193
303.15
287.295
288.496
289.571
303.15
303.15
283.15
303.15
298.865
303.15
293.438
287.833
283.15
283.316
295.394
295.796
303.15
302.035
300.18
283.15
284.535
300.046
291.447
302.085
302.507
303.157
301.862
303.15
302.086
303.15
295.324
283.15
293.35
283.15
283.15
283.234
293.291
283.15
303.15
300.264
284.198
283.15
301.523
303.112
299.049
283.322
289.504
300.818
300.361
289.736
303.15
303.15
301.524
303.149
283.413
303.15
286.578
283.15
285.142
285.694
283.15
283.15
293.012
301.4
283.147
298.837
288
301.247
301.652
303.15
301.945
303.15
283.15
300.1
303.15
303.15
283.15
283.15
283.15
283.39
303.151
283.15
301.776
303.15
283.175
303.099
301.909
303.15
283.15
283.15
292.443
283.15
294.141
298.763
301.076
303.135
296.781
298.945
284.742
302.263
297.734
283.15
303.15
283.15
297.087
284.901
303.15
303.144
287.254
283.156
293.653
295.582
302.51
283.154
303.15
303.15
292.111
286.188
283.153
283.157
301.146
283.679
283.15
283.152
283.153
283.15
303.15
283.206
283.15
291.467
287.114
283.15
303.15
303.15
283.15
303.15
303.15
297.6
293.421
295.714
289.691
301.331
300.375
283.19
303.15
301.41
303.15
303.15
300.11
286.226
301.365
301.308
295.656
303.15
300.832
284.566
283.159
300.712
297.013
303.15
300.369
288.134
303.15
283.223
300.126
284.778
300.648
303.15
303.15
300.663
283.15
292.707
283.15
300.568
298.614
290.266
303.15
301.71
300.513
283.15
283.15
283.15
289.455
283.156
283.15
303.15
298.566
291.289
289.844
283.15
303.15
303.108
303.15
284.307
300.036
299.19
299.449
299.32
283.15
283.144
298.813
283.15
283.15
288.709
288.301
283.15
301.129
298.826
303.15
283.15
301.052
303.15
303.15
303.12
303.15
288.199
285.817
290.704
303.15
298.281
303.15
303.15
303.15
283.148
297.984
300.941
299.372
291.145
299.424
296.189
283.21
290.245
291.49
283.15
303.15
283.149
292.372
298.722
286.407
303.15
297.957
297.223
298.83
302.953
283.167
297.038
299.306
302.013
283.15
283.603
283.15
283.149
303.15
283.845
290.213
286.247
303.15
283.15
297.543
285.219
303.15
303.15
303.15
284.556
290.168
301.017
284.387
292.953
283.15
283.15
303.15
298.308
303.15
283.804
289.383
283.153
283.15
303.15
303.15
283.15
294.29
289.894
283.15
295.634
283.15
303.15
300.976
297.236
293.926
295.742
283.15
283.15
283.15
296.541
290.93
302.373
283.15
283.15
283.15
290.004
296.89
283.21
290.406
283.15
292.723
299.499
284.177
298.556
285.211
283.15
303.15
283.15
303.15
290.6
296.648
287.894
291.875
283.15
286.293
283.15
303.15
293.746
303.15
301.699
303.15
283.15
291.859
283.15
288.705
284.598
283.15
283.965
297.955
283.15
300.111
284.653
298.789
303.017
290.978
285.953
283.15
303.15
303.144
283.15
300.952
300.768
283.15
283.15
294.673
284.332
298.128
296.864
283.15
294.978
296
283.15
302.044
283.874
303.15
303.15
288.181
298.529
283.15
303.15
303.15
303.15
300.707
283.15
303.15
293.904
283.17
286.87
299.899
283.15
283.15
302.606
283.15
302.442
301.388
297.763
288.392
283.15
293.832
303.377
303.15
298.572
292.207
303.15
283.15
283.302
283.15
289.933
286.053
291.567
283.15
292.793
296.513
292.985
303.147
283.15
303.15
303.15
283.168
292.652
283.15
284.297
303.131
283.15
303.15
303.15
303.15
301.846
290.443
285.939
284.172
284.284
283.15
285.648
303.15
300.669
283.15
303.15
303.15
300.608
303.15
303.15
283.151
303.15
283.15
300.613
283.15
283.15
283.15
303.15
283.15
303.15
283.15
283.657
283.15
303.128
301.856
283.738
283.15
303.084
283.15
303.15
284.672
284.642
286.059
297.442
283.15
297.415
297.527
292.205
286.757
285.224
303.15
291.678
283.15
299.805
283.15
296.721
283.15
291.995
298.467
303.151
283.15
286.737
303.15
295.444
299.026
283.15
283.15
283.15
283.15
303.15
293.612
283.15
283.15
283.236
283.15
299.758
283.15
284.753
303.15
283.424
303.119
284.616
291.822
283.15
301.409
283.15
283.15
285.637
283.15
283.254
283.15
299.618
303.15
290.574
303.15
283.15
302.378
284.434
300.029
285.603
300.026
289.408
283.15
300.575
284.508
283.15
283.141
300.251
301.554
283.15
282.488
301.011
303.058
283.124
303.15
287.517
302.152
284.372
285.333
288.123
282.599
283.15
303.15
300.536
303.15
283.544
283.15
283.15
291.692
282.694
303.149
303.114
283.15
286.205
299.55
283.15
283.15
299.572
303.15
283.15
283.15
283.15
286.092
283.15
303.15
284.779
284.204
303.15
299.676
283.15
289.18
303.15
283.15
286.083
283.15
283.15
283.15
285.33
283.15
285.393
291.887
303.15
300.306
283.437
298.632
300.923
283.295
283.449
283.15
288.875
298.387
303.15
302.245
295.961
296.821
284.685
297.387
297.148
303.15
300.175
303.133
283.15
297.08
284.797
283.15
292.297
295.646
284.814
298.713
300.592
292.258
283.15
298.862
283.457
303.15
300.552
301.951
294.021
283.15
286.434
303.15
283.15
283.15
283.15
283.299
283.15
303.15
303.15
283.15
300.393
299.184
303.15
285.558
303.15
303.15
303.15
289.964
283.415
283.15
303.15
283.15
283.15
286.768
292.305
283.15
295.058
283.138
283.15
295.226
302.195
287.71
283.15
283.15
300.214
292.017
283.15
283.15
283.15
293.894
303.15
303.15
283.15
296.171
302.346
283.15
282.355
301.661
286.49
283.15
283.15
287.417
302.957
283.15
283.159
287.108
283.746
288.717
283.15
285.652
300.208
283.15
303.15
283.15
283.15
283.15
283.15
295.593
303.15
283.15
283.15
295.204
291.735
303.15
303.15
289.727
298.336
298.235
303.15
283.15
297.903
303.15
283.819
298.777
298.284
303.15
303.15
303.15
283.15
285.998
283.15
283.15
302.699
303.15
297.735
302.243
283.15
293.981
283.272
296.356
291.906
283.415
289.672
283.15
283.15
296.799
287.986
290.759
283.15
283.15
297.504
294.869
283.15
283.885
284.552
283.463
303.15
303.15
303.15
290.661
283.15
299.994
283.15
284.34
297.515
298.428
292.193
283.15
283.15
303.15
295.301
283.15
283.15
303.096
283.15
283.15
303.15
283.15
299.247
283.15
283.15
283.15
283.15
283.15
303.15
283.15
283.171
298.705
303.15
302.52
283.132
283.389
283.096
285.475
283.15
284.418
290.461
283.389
303.15
283.149
299.671
283.15
300.191
283.141
283.144
286.148
297.411
283.205
291.82
297.979
283.15
283.15
298.99
299.733
283.15
297.259
291.191
297.545
283.15
283.243
283.15
297.849
296.975
283.15
300.017
297.625
283.149
299.718
283.15
295.546
283.145
303.128
283.161
283.16
283.15
283.15
284.407
283.15
302.962
283.573
283.064
303.147
303.149
303.148
283.15
283.15
293.742
303.15
303.216
283.847
283.15
283.15
303.154
303.149
283.15
303.165
283.15
283.15
303.15
303.15
303.15
303.15
283.36
283.15
283.15
283.15
303.157
283.3
283.869
293.395
283.15
283.15
283.328
283.15
283.15
283.15
287.184
293.515
283.15
283.15
283.15
283.15
283.15
283.15
283.985
283.15
303.15
291.473
283.15
303.15
303.15
303.154
303.15
303.15
283.15
303.171
283.15
283.678
283.145
303.152
283.15
303.061
284.358
292.008
303.15
303.129
284.424
303.15
283.15
303.15
283.15
293.97
293.373
284.593
303.148
283.15
293.164
283.15
283.15
303.15
283.15
294.783
283.15
303.15
283.163
298.079
303.15
284.357
283.15
283.561
283.15
283.15
283.15
303.15
285.798
283.464
284.08
283.15
283.15
285.595
283.15
283.15
303.15
284.315
303.165
298.485
303.15
303.126
303.127
283.15
303.129
283.15
283.439
289.04
301.03
283.777
283.165
283.15
283.15
283.15
303.184
283.15
302.892
303.15
292.537
303.15
288.667
283.81
303.15
283.15
303.15
283.15
301.757
303.15
303.15
286.363
300.508
283.15
283.15
283.15
283.15
283.15
283.15
300.76
283.566
303.15
303.15
303.157
303.15
300.141
284.392
283.15
302.088
303.15
301.588
283.15
302.559
283.15
283.148
303.152
283.309
302.089
300.173
283.147
283.15
289.301
303.15
293.307
303.15
283.15
303.15
283.15
283.15
283.15
300.755
302.03
303.15
303.15
303.15
302.898
283.15
303.15
292.813
283.087
303.15
297.46
298.303
296.437
283.37
283.15
283.15
283.15
283.15
294.572
283.15
294.71
283.15
303.055
289.78
283.15
302.852
283.15
283.15
302.724
283.148
302.909
283.15
303.15
283.15
302.373
283.15
303.15
283.15
283.148
283.15
283.17
283.15
283.15
303.15
292.938
301.064
296.014
296.946
303.15
303.115
283.15
283.15
285.643
283.15
283.158
302.835
298.751
302.933
303.15
283.356
283.15
303.15
283.15
302.987
283.312
298.299
283.15
303.15
288.008
303.15
283.15
283.127
294.978
283.148
283.15
283.15
283.149
303.15
283.15
303.141
303.15
303.15
289.872
302.98
302.988
288.945
293.182
283.15
283.15
303.08
289.016
283.15
303.15
284.715
283.15
303.15
283.15
283.15
283.15
297.258
283.15
302.932
283.15
300.418
283.15
283.15
283.15
283.15
283.15
283.15
284.989
283.15
283.15
283.15
283.15
283.15
283.15
291.934
283.15
298.37
302.925
283.15
302.333
283.15
302.502
303.145
292.25
288.73
303.15
292.114
284.751
303.107
303.15
303.14
295.033
288.608
283.15
287.831
283.15
283.15
283.15
283.15
287.459
283.15
283.15
291.596
303.135
285.276
283.15
283.15
302.522
283.15
283.181
303.15
299.864
283.15
283.15
302.818
283.15
303.178
303.15
283.15
288.993
297.995
292.656
285.62
292.458
294.034
283.15
283.15
302.264
290.529
292.714
284.379
283.15
294.359
283.15
303.15
300.684
298.729
283.15
297.386
283.15
292.703
297.158
303.15
283.15
283.15
301.744
283.15
283.15
300.453
296.09
283.196
291.163
283.15
283.15
302.785
300.472
283.15
300.602
283.15
300.457
283.15
283.15
300.76
283.15
283.225
301.571
283.15
283.15
302.418
283.15
287.848
303.15
290.263
303.15
303.15
303.15
300.904
283.15
283.15
299.487
283.15
302.981
283.15
283.15
303.15
283.151
288.141
283.15
283.15
288.005
288.184
283.15
283.667
283.15
303.15
302.407
283.704
301.53
283.15
283.15
283.15
283.15
283.15
283.15
283.15
283.15
283.15
283.15
283.15
303.15
283.15
283.15
283.15
283.15
283.15
283.15
283.15
283.15
303.15
286.889
283.15
283.15
283.15
294.637
283.15
303.15
302.874
283.15
283.15
294.64
283.15
283.15
301.755
295.117
283.15
303.682
303.604
283.15
301.439
293.891
297.479
301.443
298.101
303.15
283.15
296.386
291.702
301.386
283.15
302.119
302.403
300.834
287.983
287.266
301.023
301.752
301.756
303.15
285.827
297.496
285.487
297.198
283.15
283.15
283.15
303.15
283.15
291.922
297.881
283.15
283.15
283.15
283.15
283.15
303.15
283.15
303.15
292.077
303.105
298.977
302.836
283.15
283.15
285.364
283.168
283.15
283.15
301.724
303.15
283.15
298.12
299.478
297.486
298.585
300.762
303.15
290.983
302.566
303.15
303.15
300.269
303.15
283.15
282.997
295.494
302.941
283.15
303.15
289.519
286.117
297.133
292.121
302.353
303.15
303.136
303.15
303.15
283.15
298.971
283.15
291.731
290.384
299.644
284.729
303.15
301.897
303.15
283.15
303.15
303.15
291.423
299.413
283.15
303.15
303.132
291.711
303.025
299.31
292.741
288.266
292.851
283.15
303.15
283.15
291.169
298.25
303.151
303.15
303.15
303.15
297.443
302.561
283.15
299.935
301.095
284.835
299.475
303.15
303.15
298.636
292.902
283.15
302.894
299.656
302.602
291.901
297.263
298.187
303.15
286.932
298.163
291.262
283.15
288.998
303.15
288.335
301.018
303.15
288.646
301.239
300.062
293.116
283.151
283.16
283.237
301.568
300.875
303.15
288.764
301.441
303.15
283.15
303.15
303.208
298.696
290.513
296.716
303.26
283.149
297.355
303.15
303.15
292.724
303.15
300.273
283.298
301.28
291.478
303.15
283.646
293.147
303.15
283.072
298.63
303.15
300.656
286.206
303.15
303.15
283.974
303.15
283.15
283.15
285.874
299.19
291.106
303.15
285.18
297.404
283.15
298.802
298.837
288.907
303.1
283.15
301.506
299.632
298.802
300.036
288.607
290.685
302.481
303.15
301.515
288.659
303.15
298.813
283.15
283.15
303.15
283.15
303.15
297.408
283.15
300.486
283.629
303.15
283.785
283.15
289.776
303.15
303.144
303.15
294.057
302.996
303.116
299.807
290.349
289.379
290.528
298.341
303.15
299.329
292.11
298.882
303.15
283.857
283.439
299.191
287.109
283.502
303.15
283.15
303.15
285.285
303.15
303.345
284.658
303.393
302.953
303.15
303.15
283.15
300.505
300.655
285.45
303.083
286.952
295.615
301.861
292.446
288.09
302.065
296.05
283.15
283.15
303.15
285.77
289.633
283.15
283.15
303.15
301.968
288.634
303.15
296.352
303.15
283.155
285.148
301.156
303.15
303.15
292.217
303.15
283.297
290.551
283.15
297.114
294.567
296.084
303.15
302.696
283.15
302.658
293.343
303.15
303.15
288.736
283.15
303.15
301.77
284.416
303.15
303.15
283.15
302.324
303.479
289.431
299.642
298.087
303.15
303.159
302.58
303.15
283.15
303.15
303.15
303.15
303.15
303.15
303.15
303.15
283.15
303.15
303.15
283.336
303.15
303.352
303.15
303.164
303.15
303.15
300.878
303.675
303.15
291.889
303.15
303.15
283.15
302.544
303.15
302.128
303.113
283.288
283.15
303.15
302.56
283.149
303.15
303.15
291.31
283.15
292.535
283.15
283.15
283.153
291.158
284.804
303.15
296.587
283.15
303.788
303.133
284.291
302.581
283.15
292.11
303.083
301.635
283.15
303.15
283.15
304.146
284.789
296.847
303.15
303.15
303.15
303.15
303.15
303.15
302.336
302.804
297.547
291.941
303.15
287.097
292.587
284.944
303.209
283.15
286.86
302.748
284.727
283.148
287.423
303.15
283.379
302.917
292.474
302.842
301.848
303.15
302.239
303.15
303.15
297.909
303.15
284.457
303.15
303.15
283.15
303.15
303.15
302.841
303.15
283.295
283.15
283.15
285.785
284.85
300.906
286.057
303.15
294.521
303.15
290.368
303.15
287.105
300.638
301.449
293.242
303.15
303.15
303.15
289.752
283.15
303.15
289.504
283.15
283.15
301.792
303.15
286.134
283.148
283.15
303.15
303.15
300.621
298.14
303.15
293.361
303.032
283.15
298.57
303.15
286.367
288.172
302.121
303.15
296.258
296.729
302.947
301.86
301.625
303.15
303.15
303.147
303.15
283.15
303.15
289.506
300.175
294.256
302.104
283.15
300.332
291.338
298.197
283.59
298.259
289.545
302.142
283.15
283.15
283.15
302.19
283.15
290.396
283.15
301.221
303.162
289.66
298.015
283.15
303.15
301.209
301.185
303.15
283.15
303.15
286.383
301.412
302.973
302.324
297.958
288.385
303.15
303.15
303.15
294.175
285.932
289.727
295.81
283.941
302.953
303.15
303.15
283.15
283.15
285.387
299.571
303.15
303.15
283.15
303.15
303.15
303.15
300.208
303.15
285.306
292.116
283.15
283.246
293.291
285.652
303.15
303.15
301.863
303.15
299.167
283.147
297.497
303.15
303.15
283.15
303.15
303.15
303.15
305.098
303.15
301.814
301.106
303.15
303.15
301.586
303.15
283.15
287.188
303.098
303.15
303.15
303.15
297.883
303.15
303.15
302.383
302.475
301.751
303.15
283.15
303.15
302.023
302.5
301.496
302.521
283.15
300.625
287.428
297.388
283.15
303.15
303.15
303.15
303.15
294.277
287.517
299.654
303.15
303.15
303.15
303.15
283.15
303.148
284.746
285.113
283.15
303.15
303.15
283.148
299.513
294.761
283.15
303.15
303.15
303.15
303.15
289.549
289.594
303.15
303.15
302.397
303.15
301.448
283.934
291.737
303.15
283.15
301.167
303.121
303.15
302.934
301.281
286.784
303.15
303.15
303.15
303.15
293.221
284.13
303.15
302.673
298.005
289.183
303.15
303.15
303.15
303.15
299.525
303.151
303.15
303.15
298.215
302.594
288.29
303.15
303.15
297.696
303.15
303.15
303.15
303.15
288.741
303.15
283.15
283.15
295.878
291.006
303.15
303.15
303.15
296.975
303.146
303.15
303.15
303.15
303.15
303.383
300.828
303.15
287.276
302.635
299.346
303.15
303.15
303.15
303.15
283.15
285.634
303.15
302.844
283.15
302.16
303.15
303.133
303.15
283.15
301.943
285.525
283.15
302.825
303.15
302.402
283.15
303.15
303.15
303.151
303.15
283.27
303.15
290.769
283.15
283.15
303.15
303.15
298.798
302.353
283.15
302.386
283.15
284.089
287.898
302.688
283.15
303.155
302.98
303.133
284.379
283.156
302.98
283.15
283.15
283.156
302.053
302.274
303.15
283.15
283.15
295.114
303.15
283.15
303.15
303.15
303.15
303.107
303.044
302.92
302.426
303.15
302.896
303.15
284.781
303.15
303.15
283.15
303.15
303.11
303.15
283.15
303.15
288.258
303.15
303.15
303.168
283.15
302.771
301.916
296.611
303.15
289.107
294.133
283.755
289.805
283.15
283.15
287.156
284.298
283.15
303.857
283.15
286.36
303.15
283.15
303.155
303.15
303.15
303.011
303.155
303.15
283.15
303.138
303.15
283.15
283.106
298.663
302.688
303.15
301.809
303.15
285.664
303.152
301.135
303.15
303.15
300.995
303.15
303.15
303.15
287.635
303.15
285.105
303.15
303.147
303.15
283.15
283.15
303.15
303.15
303.15
288.633
302.531
303.15
303.15
288.531
286.457
291.076
303.15
302.686
287.616
287.486
303.15
303.15
287.555
283.15
291.834
303.15
303.153
303.149
303.15
300.485
283.15
302.312
283.15
303.15
303.15
303.15
303.15
303.15
284.305
302.224
290.975
303.15
303.15
290.503
303.15
303.15
303.15
303.15
303.15
300.103
303.15
303.15
283.15
299.406
303.15
283.15
303.15
301.331
283.15
299.906
290.748
302.672
299.971
299.389
303.15
303.15
303.15
300.805
288.419
283.15
303.15
300.267
303.15
303.15
291.913
303.15
287.415
303.15
297.773
284.286
303.15
283.15
303.15
303.15
303.15
285.202
303.15
300.443
303.15
303.15
299.649
283.15
284.712
303.15
303.15
288.027
301.539
296.359
303.15
303.15
303.15
301.555
292.178
303.15
283.15
303.15
300.63
303.15
284.734
296.239
303.15
303.15
301.099
303.15
303.15
283.15
303.15
283.15
294.478
303.15
283.15
303.15
303.15
303.15
303.15
303.15
303.15
283.15
301.506
283.15
302.049
303.15
303.15
296.044
300.427
303.15
283.15
303.15
300.837
283.15
303.15
303.15
303.15
300.687
303.15
297.594
303.15
285.806
283.15
286.68
303.15
303.15
298.477
283.15
303.15
287.795
283.244
303.15
303.15
285.047
283.829
300.801
301.698
301.145
293.106
301.705
283.825
303.15
297.628
283.15
283.15
303.15
303.15
303.15
301.175
303.15
303.15
303.15
303.129
283.168
283.15
283.553
303.15
301.978
283.15
303.142
296.018
283.15
294.457
303.15
303.15
283.15
299.832
283.906
303.15
283.15
299.861
303.15
297.642
303.15
295.193
303.15
283.15
303.15
283.15
299.367
283.15
283.222
283.15
286.146
303.15
303.15
283.15
283.15
303.15
303.15
303.15
303.15
284.836
284.69
283.15
303.15
283.231
283.15
283.15
303.154
289.811
283.535
283.15
301.461
284.845
300.434
288.121
303.15
303.15
303.15
303.15
283.15
283.15
283.15
303.15
283.15
283.15
303.15
283.15
297.182
283.15
303.15
283.15
303.15
303.15
283.277
283.15
303.15
301.914
303.149
303.15
303.15
303.15
288.658
283.15
303.15
303.149
283.15
303.15
303.15
303.15
295.273
283.15
283.177
303.15
303.15
303.15
303.15
303.15
303.149
303.147
284.086
303.15
283.15
303.15
303.149
303.15
303.148
303.149
283.15
283.15
283.15
303.15
303.15
283.15
303.149
283.15
287.658
283.15
301.757
283.15
303.154
303.15
284.572
283.15
284.418
297.322
303.15
284.655
303.174
303.15
297.331
283.15
303.15
303.15
303.15
303.15
283.15
303.15
303.15
299.08
283.15
303.15
303.15
303.15
303.15
292.272
290.088
303.171
283.164
303.15
301.79
302.304
303.15
283.15
283.15
303.15
303.15
303.15
283.15
283.15
283.804
303.15
303.15
303.2
303.151
283.15
288.801
303.15
283.15
303.15
287.983
303.15
283.15
302.078
283.15
283.15
283.15
303.15
299.586
303.15
303.15
303.15
283.15
284.47
293.511
295.138
289.49
303.117
303.012
283.15
283.15
301.018
283.679
283.15
303.149
303.15
303.15
283.15
294.467
303.15
283.15
302.971
303.15
303.15
283.775
303.15
303.15
288.333
289.475
303.15
283.15
303.15
283.15
303.15
303.15
303.15
303.15
283.929
303.15
303.15
303.15
302.918
303.15
303.15
283.15
283.15
283.15
283.15
302.931
283.15
283.15
300.912
303.15
284.731
284.887
303.15
301.078
303.15
283.15
303.15
283.15
283.15
303.15
303.15
303.15
302.651
303.15
303.15
303.15
283.15
303.15
283.15
286.329
303.15
303.15
291.528
303.15
283.15
283.15
302.399
303.15
303.147
283.15
303.183
286.6
283.15
283.15
299.134
283.15
283.15
303.048
303.162
293.264
303.167
303.151
303.153
283.15
283.15
302.628
283.439
285.753
300.829
283.156
283.15
290.975
301.543
301.445
283.15
300.191
290.636
300.11
302.189
302.711
284.65
295.418
299.168
286.209
293.258
300.078
303.15
297.967
297.511
302.773
283.654
292.275
301.127
287.276
303.15
300.962
303.15
300.677
301.458
283.628
284.954
303.15
283.15
302.28
301.647
283.146
303.173
288.491
302.668
301.783
300.775
303.15
303.235
301.074
294.9
300.41
288.8
302.9
301.641
302.188
302.255
284.196
302.485
301.552
283.178
303.15
302.886
303.15
303.15
302.062
301.971
294.218
303.15
284.646
292.214
292.268
300.751
303.15
283.978
285.152
284.378
303.15
298.735
303.15
296.381
295.265
300.67
303.141
303.15
303.15
301.905
301.214
302.771
303.15
292.542
302.736
289.899
283.15
298.339
293.92
303.15
300.498
283.15
283.202
283.15
302.543
303.092
303.15
302.979
298.315
283.148
300.488
302.205
295.28
283.525
295.742
296.98
283.448
303.132
284.718
296.316
283.315
296.743
300.442
300.191
300.311
301.955
289.575
301.535
303.15
302.713
302.643
302.653
296.523
302.888
283.15
301.989
293.392
303.15
283.423
286.795
301.175
302.576
290.453
284.79
287.622
302.602
296.306
303.15
303.15
294.925
283.15
292.58
283.419
303.15
290.5
290.217
283.894
303.15
297.214
298.505
284.212
301.197
294.136
290.112
300.49
303.111
303.15
303.15
283.518
302.596
283.339
285.758
303.15
303.017
303.033
303.15
285.372
300.837
297.794
283.241
299.472
302.342
300.452
286.858
283.15
303.103
301.775
283.725
283.134
303.15
303.07
303.15
303.15
284.163
302.519
296.392
283.034
283.153
303.15
283.15
302.948
303.04
302.487
301.378
303.15
283.15
283.15
301.795
301.852
283.209
295.893
303.15
303.15
301.586
285.467
283.256
301.65
301.755
301.691
284.372
303.15
283.15
298.469
297.695
303.15
302.685
302.05
284.61
284.94
302.084
303.056
303.15
298.111
284.395
283.15
303.15
300.559
301.177
301.983
289.549
302.044
285.628
300.111
300.292
290.282
297.483
303.15
303.15
300.893
284.438
302.06
283.151
300.434
301.668
283.618
288.242
302.398
283.15
283.15
283.029
303.15
303.15
299.91
298.882
302.256
283.148
283.15
283.913
283.151
283.15
283.151
303.075
300.877
299.094
295.808
283.361
303.09
300.079
303.15
283.15
302.534
289.18
300.767
292.654
283.501
303.056
283.148
283.15
302.823
301.171
302.593
283.155
291.139
284.859
303.15
284.236
300.996
283.15
283.303
284.92
284.067
283.15
283.15
301.609
283.15
289.314
302.511
302.687
301.763
283.467
298.073
289.913
283.15
303.352
292.001
283.15
283.15
283.15
303.15
301.193
302.394
299.109
301.427
299.895
288.806
283.154
290.926
290.103
303.057
290.978
299.966
292.016
283.15
286.272
301.036
301.542
283.15
283.97
299.626
283.15
303.15
283.186
301.236
303.15
283.991
302.252
303.015
303.15
283.15
292.726
303.153
301.663
283.15
283.15
283.15
302.162
297.488
303.144
302.169
303.167
303.15
288.324
303.167
290.386
300.174
300.132
296.53
283.156
301.662
283.15
290.52
301.376
289.387
290.429
298.912
300.662
301.559
287.123
291.089
284.968
283.171
302.19
286.086
283.15
283.144
300.15
283.081
300.248
286.945
296.039
299.38
289.126
299.225
283.122
299.152
283.15
289.929
288.81
298.589
283.325
283.15
300.505
283.15
302.783
283.15
303.15
286.426
286.431
283.15
298.934
298.562
286.971
303.15
303.15
301.676
289.733
302.98
283.718
301.54
287.031
303.147
284.17
288.113
303.15
301.385
283.15
283.15
287.507
286.977
283.145
285.22
301.461
286.181
301.223
303.15
285.084
301.713
291.142
303.15
303.15
301.578
302.018
303.15
292.946
294.237
283.656
296.337
286.737
289.94
303.15
302.738
296.978
284.958
283.15
287.667
291.823
299.568
283.161
283.739
282.959
301.921
303.113
283.151
303.132
303.15
300.541
292.956
298.776
293.766
283.15
291.89
295.861
285.536
283.211
291.271
283.15
300.287
303.165
292.45
284.083
303.143
291.791
298.546
288.188
300.339
291.282
287.267
283.15
303.141
285.301
289.831
293.383
283.15
283.15
283.15
303.14
283.15
283.137
286.368
303.15
283.15
303.168
283.172
291.074
288.669
303.565
302.904
289.791
303.15
296.923
303.177
301.985
287.219
283.15
292.853
303.144
303.091
286.144
283.15
283.15
283.463
285.959
303.049
303.143
287.469
289.421
283.472
283.162
289.786
293.161
303.15
283.15
303.094
303.15
302.314
284.975
302.325
303.091
284.042
283.762
284.027
302.855
302.147
297.366
293.985
303.066
291.182
290.972
303.15
303.095
302.569
285.392
283.374
303.15
285.899
283.381
302.926
301.687
302.15
283.15
300.297
301.828
303.15
302.125
285.363
303.15
297.833
303.15
283.15
300.666
302.664
286.266
302.474
283.15
285.138
303.001
283.15
302.28
285.324
294.799
284.308
303.15
303.015
302.879
286.452
283.15
287.071
284.232
289.707
285.693
302.229
303.15
283.15
283.15
293.084
283.15
301.025
302.136
290.299
283.15
293.989
283.15
303.15
283.15
300.076
298.51
283.151
285.233
301.722
303.063
303.154
291.781
294.128
301.159
283.197
301.795
283.145
303.15
303.144
298.837
283.15
300.605
294.706
303.15
300.915
287.245
301.95
284.866
288.141
283.15
302.196
287.655
298.374
303.078
283.15
303.15
291.6
302.135
283.079
283.147
286.707
298.254
303.149
284.419
300.981
300.952
301.209
303.153
299.838
287.566
284.878
301.548
299.831
283.704
283.107
303.16
303.149
303.15
297.29
283.163
283.15
303.15
303.149
289.834
298.876
300.248
287.706
302.786
303.15
286.381
301.565
303.15
300.924
283.783
301.42
303.15
284.523
301.365
295.491
302.757
303.15
303.15
285.129
295.005
296.306
287.319
303.15
303.15
283.15
287.14
302.374
296.092
303.15
285.516
303.15
303.15
300.438
288.648
283.15
295.467
295.8
299.052
283.15
303.15
292.597
287.15
303.15
297.881
300.462
300.364
303.15
303.15
303.15
300.17
298.265
302.779
299.832
283.15
292.821
287.589
290.523
300.511
303.15
303.15
300.712
303.091
286.481
296.011
303.15
303.147
283.15
286.381
298.843
285.525
303.15
303.15
283.334
303.121
303.15
303.15
283.15
290.447
303.15
303.15
284.553
299.248
283.15
303.15
284.579
301.278
300.1
286.922
294.917
303.15
283.49
303.15
303.15
283.309
300.483
290.335
300.333
303.15
303.129
302.137
292.519
299.699
301.287
284.413
283.447
300.846
298.316
303.15
302.741
284.114
299.673
301.338
287.601
303.15
297.346
301.368
301.454
301.496
292.825
303.15
283.15
299.097
283.15
283.15
287.676
283.15
283.984
283.15
283.15
283.15
283.15
302.736
288.075
302.683
283.15
295.599
290.863
284.699
283.15
303.15
302.658
301.695
303.16
302.614
283.15
294.728
300.197
290.084
283.15
283.15
299.728
285.878
283.15
283.15
303.149
290.485
283.15
287.064
303.149
303.152
284.279
283.15
288.13
291.966
300.762
294.555
302.945
285.559
302.482
295.144
286.198
283.15
283.53
291.494
303.066
288.982
302.634
283.15
292.299
287.674
300.984
301.273
284.866
303.099
284.868
296.933
302.983
303.145
285.083
303.145
302.999
293.179
302.678
283.15
303.15
303.15
294.639
290.911
283.155
301.013
284.638
284.12
284.579
303.145
288.26
300.397
283.15
283.15
302.473
303.15
294.423
302.883
303.183
299.706
303.225
302.87
283.15
301.244
302.866
283.15
303.15
301.275
303.15
284.287
298.642
283.163
291.42
283.15
287.501
303.005
299.686
283.15
303.018
290.819
301.172
303.123
303.076
283.15
283.15
301.925
301.965
283.782
302.802
302.388
302.355
303.141
283.15
293.615
283.15
302.779
287.787
302.979
303.15
283.15
302.803
285.082
291.402
302.015
283.15
302.558
301.956
301.515
302.457
303.04
303.213
303.003
303.15
283.15
301.472
297.747
303.086
303.15
289.831
284.803
303.15
283.15
285.264
303.184
303.166
302.906
301.07
284.236
303.094
290.653
294.147
303.148
288.943
303.165
283.15
289.775
283.15
299.881
298.027
284.744
288.079
299.512
296.629
295.184
299.074
293.626
303.154
293.802
296.25
283.161
299.28
293.776
303.15
298.842
299.037
303.15
291.086
303.171
301.615
303.15
286.842
285.967
302.78
289.583
283.15
283.15
300.259
301.146
283.705
283.15
303.15
300.15
302.287
300.566
299.795
302.768
292.475
289.556
286.564
292.401
284.265
290.291
283.301
295.656
290.338
293.83
287.025
284.249
303.164
283.27
303.148
285.527
300.634
283.15
300.394
298.36
288.644
302.079
285.348
298.968
283.15
302.942
283.154
283.118
287.492
299.543
303.15
300.306
303.014
299.848
302.743
303.15
301.196
284.908
294.821
302.005
303.149
283.686
283.15
290.21
285.194
285.689
303.122
303.148
283.15
283.15
283.175
303.15
293.356
303.15
303.146
293.802
303.441
303.15
300.386
303.15
303.15
293.558
290.492
303.15
289.741
302.02
289.47
303.15
303.15
285.826
283.33
290.223
303.228
303.15
303.145
285.408
283.239
283.15
288.872
287.482
303.15
284.272
303.15
303.15
303.131
287.259
303.15
303.147
283.269
303.152
302.634
287.84
283.153
283.576
297.327
290.629
303.15
285.877
284.396
301.271
287.033
302.155
290.486
293.731
303.15
303.15
283.978
303.146
302.937
295.846
302.937
302.721
287.094
283.15
285.268
283.215
297.035
302.576
285.319
303.15
283.767
286.645
303.123
283.175
303.15
286.329
283.15
300.1
303.15
299.623
299.739
283.296
283.352
302.296
290.731
301.347
303.15
301.335
301.696
303.15
303.15
298.233
293.306
283.15
288.689
303.15
295.188
283.347
303.15
296.789
298.65
288.904
303.15
302.735
294.115
295.282
284.423
303.161
298.597
296.007
283.957
303.122
302.786
287.284
298.336
289.725
290.697
289.649
283.15
302.935
303.151
303.15
303.177
292.982
296.197
302.97
301.224
303.15
284.411
303.15
303.035
302.842
303.15
293.428
296.154
303.15
285.317
303.093
303.15
303.085
303.158
285.996
293.228
290.991
288.315
293.324
303.15
301.155
291.329
295.212
293.33
303.14
303.15
300.476
303.191
284.21
303.192
303.15
303.15
303.143
303.15
284.881
303.15
284.179
303.146
303.15
290.083
303.144
292.368
295.391
303.133
295.23
285.925
283.432
303.123
302.932
284.644
283.15
297.008
303.15
285.443
302.895
302.003
303.016
298.416
286.959
303.15
298.607
289.808
299.215
283.15
283.605
303.15
303.145
303.191
293.984
303.15
292.309
289.224
303.196
303.15
284.728
298.669
293.119
299.499
302.445
301.577
300.308
303.15
284.672
296.943
302.345
285.543
298.32
292.156
284.421
291.541
303.15
286.521
291.715
290.032
299.344
303.15
286.373
284.06
303.15
302.403
288.053
302.079
283.15
303.15
299.751
301.643
288.9
301.941
301.914
301.767
303.15
289.227
285.068
301.917
302.199
297.026
303.15
283.199
303.15
301.941
303.15
302.784
303.15
291.573
303.15
296.409
283.15
289.387
303.15
283.15
292.113
301.396
300.344
289.097
300.428
303.15
302.464
303.15
302.348
285.166
303.15
300.33
290.285
303.15
300.739
303.15
303.15
293.102
283.15
285.48
293.115
300.856
303.15
291.065
293.724
288.081
289.564
288.025
299.156
300.243