/*--------------------------------*- C++ -*----------------------------------*\
  =========                 |
  \\      /  F ield         | OpenFOAM: The Open Source CFD Toolbox
   \\    /   O peration     | Website:  https://openfoam.org
    \\  /    A nd           | Version:  10
     \\/     M anipulation  |
\*---------------------------------------------------------------------------*/
FoamFile
{
    format      ascii;
    class       surfaceScalarField;
    location    "17";
    object      phi;
}
// * * * * * * * * * * * * * * * * * * * * * * * * * * * * * * * * * * * * * //

dimensions      [0 3 -1 0 0 0 0];

internalField   nonuniform List<scalar> 
109758
(
-3.30101e-06
0.00121993
-0.00121663
-0.00125168
0.0012878
-3.61176e-05
0.000104125
-0.00114908
0.00104495
-0.0014396
8.76644e-05
0.00135194
0.00146229
-0.000168342
-0.00125781
-3.61444e-05
-0.000405291
0.000396323
8.96818e-06
-0.00110513
-6.54058e-06
0.00111168
0.00202343
-0.000255997
-0.00038492
-0.00138251
-2.3731e-05
0.000849363
1.44522e-05
-0.000840084
0.000466411
-7.21954e-05
0.000596543
-0.000990759
-3.94689e-06
0.000586482
-0.000582535
0.00187391
-0.00152649
-0.00143839
0.00109098
0.000320906
0.00125913
-0.0014378
-0.000142235
0.00118869
-0.00121967
3.09812e-05
-0.000974015
0.00110812
0.00132818
0.000691323
-0.000946087
-0.000684571
0.000939334
0.000819717
-0.00157387
0.00140356
-0.000649405
0.00148456
0.000242346
-0.00110165
-0.000625258
0.00149933
0.000227935
-0.00121092
-0.000516345
-0.00143454
0.000170504
-0.000108345
0.00137238
0.000215671
-0.000290472
7.48015e-05
-2.63423e-05
-0.0011964
0.000285593
0.000937146
-0.00027551
0.000847321
-0.000571811
0.000251248
-0.000301533
0.00102946
0.00116213
0.000419912
-0.00040514
-0.0011769
1.76487e-05
0.000563553
0.000903356
0.00124121
0.00151588
-0.00194131
-0.000815784
-0.00109141
0.00108236
9.04608e-06
3.44448e-05
0.00112768
0.00149224
-0.00102656
0.000795162
-0.00126085
-0.00146137
0.0015297
-8.42279e-05
1.58911e-05
-4.98946e-05
0.000604439
-0.000554544
-1.45592e-05
0.000898701
-3.47409e-05
-0.000849401
-0.000827591
0.00082464
2.9505e-06
-0.000123589
-0.00131746
0.00110493
0.000336125
-0.00115972
0.00212091
-0.000718838
0.000577811
0.000170585
-0.000748395
0.000198014
0.00103959
-0.00147394
0.000236343
-0.000252385
-0.00111687
8.01455e-06
0.00136124
0.00114072
5.16949e-06
-0.00114589
0.00167549
-0.00110456
0.000735115
-0.00130605
-0.000392233
-0.000504917
0.000676485
0.000220665
-3.41314e-05
3.31162e-05
0.00167651
-0.00144817
0.00142552
1.31699e-05
9.47355e-06
0.000796994
-0.000798019
1.02502e-06
0.000330543
-0.00214969
-0.000329043
0.00214819
0.000997639
-0.000282563
-0.000251178
-0.000463898
-0.00111418
0.0013898
-0.000195355
-8.027e-05
1.69535e-05
0.00102388
-0.00104083
-0.0022481
0.000142522
0.00018784
0.00191774
0.00107896
-0.00052196
0.000519643
-0.00107664
0.000398814
0.000616474
1.45288e-05
0.00139919
-0.00141372
-0.00105854
0.00106214
-3.60021e-06
-0.00121985
0.0012543
-0.000329568
-0.00175341
-0.000430579
0.00251356
-0.00228294
0.00318351
-0.000667308
-0.000233265
-0.00111406
0.000982951
0.00117053
-0.00103942
-0.0018039
0.000708608
-5.92117e-05
0.0011545
-0.00071879
0.000263793
0.00064588
-0.000190883
-0.00149327
0.00142162
7.16487e-05
-0.00323406
0.00018951
0.00163145
0.00141311
-0.000314036
0.00130138
-0.00124955
0.000262209
0.00156857
0.00151336
-0.00189084
-0.00113764
0.00151512
-0.00190194
0.00092225
0.000514612
0.000465078
0.0013926
-0.00153985
-0.000857907
0.00100516
-0.00147601
9.86944e-05
0.000348854
0.00102846
-0.00112257
-0.000798643
0.000445209
0.00107495
-7.64844e-05
-9.37131e-05
-0.000904751
0.00100566
-0.000590007
0.000372942
-0.000788595
0.0014174
5.19547e-05
0.000602239
-0.0020716
-0.000520237
0.000192265
0.000327972
-0.0021187
0.00134921
0.00158247
-0.000812986
0.000803014
-0.00075957
-4.34438e-05
-0.000628192
0.000200604
-0.00169111
0.000106496
-0.000881427
-0.000283609
-0.000270132
5.63954e-05
-0.000861478
0.00107521
0.0017418
-0.0015824
-0.000333454
0.000174053
-0.0017046
0.00153672
-0.00105197
0.00119816
-0.000810913
-0.0010033
0.000616052
-0.000650162
0.00269771
-0.00134911
-0.000698444
-0.000152324
8.2351e-05
0.00152942
-0.00145945
3.65355e-05
0.00216859
0.000227473
-0.0024326
0.000866574
-0.00157315
-0.000132746
0.000839318
0.00123877
-0.000233165
-0.000899106
0.000128811
0.000991615
-0.00135891
0.000238489
0.000543732
0.00204858
0.000129549
-0.00272186
0.000961743
-0.00113385
0.000180286
-8.18151e-06
0.000655105
0.000735843
-0.00276441
0.00137347
0.000933344
-0.000103711
6.16112e-05
-0.000891244
0.00199508
-0.00149637
-0.00297384
0.00247514
0.001691
-0.00190398
0.000844549
-0.000631562
2.06159e-05
-0.00159248
0.00146389
0.000107976
0.00164709
-0.00115311
-0.000363449
-0.000130534
0.000889485
2.06626e-05
-0.000910148
-0.00170023
0.000293908
0.00118709
0.000219232
0.00111459
0.000743962
0.000571226
-0.00242978
0.000918718
-0.0016572
0.00114788
0.00249095
-0.00144435
-0.00219448
0.000917239
1.47933e-06
-0.000367394
0.00119382
0.00119885
-0.00202528
0.00105172
0.000300494
-0.000148862
-0.00120335
8.13079e-05
0.00092222
-0.00100353
0.00141325
-0.000116667
5.52564e-05
-0.00135184
-0.000577878
-1.89703e-06
0.000579775
-0.00132438
0.00102182
-0.000799094
-0.00023765
0.00179595
-0.00188864
0.000330332
0.000431853
-0.000362741
-0.00145273
0.00138362
0.000287592
-0.000293291
-0.000681618
0.000687317
-0.000368517
-0.00098881
0.00123621
0.000121117
0.000447995
-0.00121933
0.0012686
-0.000497262
0.000927622
0.000283525
-9.27646e-06
-0.000549471
-9.87658e-05
0.000657513
0.000179702
0.000353006
-0.00203664
0.00150393
-0.00131161
0.000166687
0.00134778
-0.000202858
0.000972875
0.000158422
9.8776e-05
-0.00123007
0.00020495
0.000767925
0.00143072
0.000288126
-0.00156043
-0.000766634
-0.000873122
0.00130308
0.000336672
0.00135752
0.000183828
0.000199324
-0.00174067
-0.00146864
0.0012557
-0.000412051
0.000624986
0.00134535
0.000290326
-0.00104581
0.00117781
-0.00108716
0.000955162
0.0014637
-0.000211303
-0.000286569
-0.000965827
4.02977e-05
-0.00160616
0.00174137
-0.000175507
-0.00152775
-3.76873e-05
-0.000420793
0.00198623
0.00093875
0.000505946
-0.00148562
4.09286e-05
-0.00101855
9.47153e-05
0.000894559
2.92773e-05
0.000183983
5.70964e-05
-0.00188085
0.00163977
-0.000930364
-6.0537e-06
0.000936418
0.000193082
0.00133089
-0.00133999
-0.00106141
0.00142134
-0.000773909
0.000413976
-0.00121266
-0.000777787
0.00157858
0.000411874
0.00127434
0.000244249
-0.000722658
-0.000795935
-0.0020061
-2.80509e-05
-0.000284076
0.00231823
-0.00129313
-0.000777153
0.000565591
0.00150469
0.00177657
-0.00174074
-0.000112056
7.6227e-05
-0.000263728
-0.000788787
-0.000700894
0.00146062
0.00108167
0.000271214
-0.0028135
0.0021143
0.000267331
-0.0023451
0.000214496
0.0011056
-0.00132009
3.52207e-05
-0.00108703
0.00105181
-0.00103211
-0.000214441
0.00019711
0.00104944
9.21092e-05
0.00134581
-0.00128358
-0.000154334
-0.0022197
-0.000254817
0.000576653
0.00189787
0.00122578
-0.00129689
0.00110897
-0.00103785
0.000159501
0.000143187
0.000923088
-0.000874225
0.000847846
2.63795e-05
-0.000919855
3.01191e-05
0.00133421
-0.000444477
0.000264226
-0.000672338
-0.000492543
0.000900655
0.000674478
-0.000702095
2.76169e-05
-0.000961795
0.000910241
-0.000218578
-5.07579e-05
-0.00101259
-1.0657e-05
0.00107401
0.00171237
-0.000192318
-0.00108678
-0.000433277
-0.000408913
-0.00186953
0.00250987
-0.000231426
-0.00162338
0.000562345
-0.00135701
0.00151536
-0.000158351
-0.000731589
0.00065897
-0.00102706
0.00109968
0.000547793
-0.0006707
-0.000497646
0.000620552
-0.000920159
-0.00126228
0.00100132
0.00118112
5.02975e-05
0.001411
-0.000140075
-0.00132122
-0.000358593
0.00170947
-0.000286463
-0.00106441
-0.0015923
0.00134641
-9.65504e-05
0.000342435
-0.00116977
0.000932948
-0.00100734
0.00124416
0.00121523
6.75527e-06
-0.00122198
-0.00180145
0.000389418
0.00176088
-0.000346194
0.00142221
-0.00107602
8.7927e-05
0.00143461
-0.00152253
0.000197497
0.00123487
-0.00189281
0.000460441
-0.000951562
-0.000989499
0.0010621
0.000878959
0.000694504
-0.000199784
0.00051094
-0.0014205
0.00148382
-3.8162e-05
-2.5165e-05
-0.00141806
1.43646e-05
-1.67991e-05
0.00075198
-0.000450873
0.00184983
-0.00215094
-6.85488e-05
0.00180598
-0.00173743
-0.00118324
0.000849683
-6.60461e-06
0.000340161
-0.000902541
-0.0010981
0.00200064
-0.000674685
-0.000253308
0.000927993
0.00100472
1.25399e-05
-0.00101726
-0.00159612
-2.57621e-05
0.00131294
0.00030894
-0.000461564
0.000638636
0.000839202
-0.00101627
-0.00176756
0.000484064
0.000821932
0.00172147
-0.00271274
0.000575653
0.000415624
-0.00144964
0.00146308
-3.97967e-05
2.63496e-05
0.00193077
-0.00193022
-1.51854e-05
1.46373e-05
-0.00109063
1.53743e-05
0.000269295
0.000805963
7.6511e-05
-0.0011374
0.00106089
-0.00123371
-0.00175141
0.00118803
0.00179708
0.000149168
0.0016133
-0.000747234
-0.00101523
2.05229e-05
-0.00155871
-2.3527e-05
0.00156171
0.000255769
0.00139874
0.000329811
-0.00198432
0.000203769
0.00139826
-0.00147341
-0.000128619
-7.44588e-05
-0.00109427
0.0013725
-0.000894426
-0.00075755
0.000384977
0.001267
0.000842127
4.82889e-05
-0.000890416
0.00135904
0.00130386
-0.00157478
-0.00108813
1.71104e-05
-0.00108199
0.00106488
0.000302774
0.000132826
5.88465e-05
-0.000494446
-0.00142004
-2.28069e-05
0.000469648
0.000973201
-0.00104624
-0.000536698
0.00158294
0.000845628
-0.00111027
0.000393796
-0.000129155
-0.00146903
0.000185083
0.00134054
-5.65917e-05
-0.00147985
0.00179855
-0.00141318
0.00109448
-5.7806e-06
-0.000888646
-0.00114044
0.00110837
3.2069e-05
-0.00147821
-0.000770645
0.000145886
0.00210297
-0.000136878
0.00130347
-0.00116659
0.00103752
-0.000815766
-0.00022175
0.000924857
-0.000930638
-0.00111119
-3.95846e-10
0.00111119
0.000508828
0.00138665
-1.34016e-05
-0.00188208
-0.00113525
0.000173034
0.000962217
-0.0012633
-0.000444589
0.0013158
0.000392083
-0.0019101
0.000263152
0.00186397
-0.000217023
0.000944352
-0.000917016
-2.73353e-05
-0.00072629
-0.00101946
0.00391001
-0.00216426
-0.0014827
0.000543187
-0.000373541
0.00131305
-0.000750593
-0.000179425
-0.00117515
0.00210516
-3.99673e-06
2.49982e-06
0.00130699
-0.0013055
0.000707673
-0.00209595
0.00285895
-0.00147068
-0.00121616
0.00121217
0.00155724
0.000401028
-0.00190739
-5.08843e-05
0.00108507
0.000148916
-0.00136294
0.000128959
0.000949028
0.000445065
-0.0015923
0.000198209
0.000903153
0.000181914
-0.000542255
0.0016923
-8.9463e-05
-0.00106058
0.0003266
-0.00148617
0.00190045
-0.00074088
-0.00167231
0.000121584
-5.12101e-07
0.00155124
0.000971768
0.00374406
-0.000594077
-0.00412175
0.000450127
0.000343074
-0.00059669
-0.000196511
0.000310186
0.00112458
-0.000508433
-0.000926336
-0.000906057
0.000884916
-0.000521114
-5.13561e-06
0.00169253
4.90006e-06
0.00133495
-0.00134997
0.000214159
-0.000199132
0.000315783
-0.000105235
0.000805197
-0.00101574
-0.0013003
0.00126681
0.000182402
0.000392499
-0.000768435
-0.000879601
0.00125554
0.000542437
0.00150881
-0.00150752
0.00113039
-0.00148076
0.000200255
0.000150118
0.00111247
3.31594e-08
-0.0011125
0.00242799
-0.0024972
0.00202066
-0.00195145
0.00037033
-0.000955692
-0.000476635
0.001062
0.000384902
0.000204412
-0.00163463
0.000973904
-0.000581229
0.00124195
-0.00200287
0.000451499
0.0016863
-0.000134925
-0.00156254
-0.000862141
0.00313235
-0.000158628
0.00191852
-0.000633124
-0.00112677
0.00092491
-0.000466842
0.00171237
-0.00217043
0.000184395
-0.000869905
0.000740734
-5.52246e-05
-0.000383256
-0.00125723
0.0014445
0.000195992
0.00108173
-0.000611687
-0.000440213
-2.98279e-05
0.000548677
0.000229827
0.000291105
-0.00106961
-0.000776206
0.000995595
-0.000219389
0.000889305
-0.0008284
0.00012349
3.11685e-05
-0.00135797
0.0013268
0.00104484
-0.00121745
-0.000210647
0.000264851
0.00118334
-0.00026549
-0.0011827
-4.09113e-06
-0.000962593
0.000966685
0.000524921
0.0016125
-0.000883335
-0.00125408
-8.88008e-05
-0.00062741
-0.000427058
0.00114327
-0.000294713
-0.00162195
1.07755e-05
0.00190588
-0.0010295
0.000416945
0.00125874
-0.000646193
7.64005e-05
0.000968437
-0.000859075
0.000935476
0.000926003
0.000247629
9.99553e-05
-0.00127359
-0.000489391
0.0021891
-0.000142471
-8.90931e-05
-0.000621716
0.000566734
0.000144075
-0.000206315
0.00243599
-0.000115376
0.00197588
-0.00102616
-0.0004248
0.00225388
-0.000275416
-0.00120927
0.00180733
-0.000322648
-0.00228001
0.0019153
0.000936809
-0.000572104
5.75594e-05
0.00104804
0.000870278
-0.00100373
-0.0013186
0.00139197
-0.000717092
-0.000989466
0.00191175
-0.000205191
0.000739933
0.000842298
-0.00158223
2.62991e-05
0.00016896
0.00222572
-0.00242098
-0.00117451
0.00099288
0.00144025
-0.00125863
0.00135766
-0.0021458
0.0017248
-0.000936664
0.000449863
-2.2859e-05
-0.000427004
-0.000923631
-0.000516876
0.000172063
0.00126844
-0.000473548
-0.000678919
8.94385e-05
0.00117068
-0.00096899
-0.000291129
0.000984295
-0.00102512
4.08208e-05
0.000109608
-0.00130641
0.00137847
-0.000181664
0.00114622
-0.00282932
0.00139845
0.000284651
0.000655252
-0.000874161
0.000218909
0.000867453
-0.000110875
-0.000859802
0.000103225
-0.000174062
-0.00287326
0.0025937
0.000453626
-0.0011329
0.000195301
0.00132071
-0.000383114
-0.00118362
3.79997e-05
0.00114562
0.00118346
0.000199877
0.000785253
-0.000590044
-4.89628e-05
0.00152831
0.000103116
-0.00168353
0.00140635
-6.40657e-05
0.00116664
-0.00110258
-0.000816348
0.000505588
0.00135423
-0.00104347
-0.000185576
0.00155129
-4.42242e-05
-0.00132149
-0.000187094
0.00144258
-0.000975672
-0.000279812
-0.00100279
-2.22374e-05
0.00118179
-0.00015676
0.00083252
-0.00174022
0.000950009
-4.23042e-05
-0.00089156
0.00069698
-0.000716481
0.000911061
0.000863737
3.41371e-05
-0.00010088
0.000132088
-0.00125836
-0.000303254
0.00142952
-0.00025801
-0.00138275
0.000617907
0.00102285
0.000493322
-2.09172e-05
0.00113407
0.000274939
-0.00138809
0.000582513
-0.000410689
0.0011735
-0.00134532
-0.000751899
0.00093178
0.00124361
-0.00142349
0.00203372
0.000510432
-0.00205083
5.19964e-07
-0.00120967
0.00120915
7.50237e-06
-0.0012256
0.00127436
-5.62705e-05
2.39967e-05
0.00130943
-0.0011775
-0.000155933
0.000394341
-0.00198937
-6.49562e-05
0.00165999
-0.00110076
0.00132099
-0.000220226
0.000202003
-9.22924e-05
0.00132343
-0.00143315
-0.00102586
0.000227836
-0.00070882
0.00107323
-0.00143035
0.00106595
-0.000327222
-8.10766e-05
0.000408299
0.00323897
-0.00158032
-0.000703305
-0.000955343
0.00130411
0.00334193
-0.00140707
0.00216235
-0.00199835
0.000188972
0.00110055
-0.000852254
0.00121911
-0.000386521
1.96673e-05
-0.000256845
4.9374e-05
0.00178995
-0.00125173
0.000472022
0.000961082
-0.000181377
-0.00105229
0.00174122
0.000130786
0.00122089
-0.00139776
0.000708511
-0.000531633
0.000181478
0.00245252
-0.00243199
0.000735104
6.3911e-07
-0.000735743
-4.98333e-07
-0.000957073
0.000957572
0.00170528
0.000137829
-0.000381439
-0.00146167
0.00221112
-0.000712383
-0.000935943
-0.000562794
-0.000139827
-0.00280306
0.000846943
-8.60209e-06
-0.000679318
0.00068792
0.00146597
-0.00134476
-0.00132971
0.0012085
0.0010647
0.000443657
-0.00125259
0.000863019
-0.000531914
-0.00131642
0.000985311
-0.00104284
-9.53164e-06
-0.000803498
0.00185587
-0.00159135
-6.82049e-06
0.00159818
0.000992671
9.37259e-05
-0.00105596
-3.04383e-05
-0.00127453
-2.07371e-05
0.00129526
6.43879e-05
0.00107043
-0.00113482
-0.000783295
0.00173613
-0.000125871
-0.000826966
-0.00187826
0.00226205
0.00142684
-0.00181063
0.000901095
0.000768962
-0.000209061
0.0013407
-0.000866205
-0.00026543
-0.000230052
-7.79848e-05
-0.00115579
0.00146382
0.00130494
-0.00114762
0.000912408
-0.00106973
-0.00123716
0.00128794
-5.07798e-05
-0.00150899
0.000253149
0.00129485
-3.90036e-05
-0.0026434
0.000528872
0.00201112
0.000103409
0.000260662
-0.000334598
-0.0013087
0.00138263
0.00190151
0.000181185
-0.00109221
-0.000990489
0.00103453
-0.000786199
-0.00104185
0.000793516
0.00119127
1.15695e-05
-0.00120284
0.000109605
-0.00202558
0.00148237
0.000433604
0.00075281
0.000448635
-0.000300349
0.00027387
-0.000881603
0.00128541
-0.000677677
-0.000545334
0.00052951
-0.000121952
0.000137777
-0.00362727
0.00437363
0.00141084
-0.0021572
0.00182017
-1.17993e-05
-0.00181948
1.11043e-05
9.12712e-06
0.00146345
-0.00157281
0.000100231
-0.00219521
0.00192332
-0.000511401
0.000974378
0.00121973
-0.00110391
-0.0010902
-0.000967719
-6.94969e-05
-0.000105247
0.00114246
0.0010101
5.28041e-05
-0.0010629
0.0012874
-7.08952e-05
-0.0012165
-0.00227694
0.00214559
8.45913e-05
4.67633e-05
7.04258e-05
0.00146776
-7.18954e-05
-0.00146629
0.000909424
0.000458564
-0.00297727
0.00160929
-0.000630639
0.000630643
-4.07549e-09
0.000923319
2.29668e-06
-0.000925615
-4.61575e-07
-0.00055687
0.000557332
-0.000531738
0.00108192
0.000727536
-0.00127772
3.53959e-06
-0.00114345
0.000897098
0.000242809
-0.00128289
-0.000525914
-0.000468134
2.91347e-06
-0.000887593
-0.000131767
0.00101645
-0.000687382
1.28515e-05
0.00067453
0.000235012
0.000729253
-0.000237595
-0.000726671
0.000502841
-0.000895075
0.000392234
-0.000243101
-0.000833547
-0.000310568
0.00138722
0.000709001
0.000939815
0.000138483
-0.0017873
0.00185826
-0.000675774
-0.000602357
-0.000580129
-6.80173e-05
-0.00153291
0.00178643
-0.00018551
0.000736213
0.000387755
0.000212431
-0.0013364
0.00232135
0.0010338
-0.00217738
-0.00117777
-2.84129e-06
0.000587578
-0.000584736
-0.00137321
4.08807e-05
0.00031775
0.00101458
-0.00134486
-0.00014926
0.00152999
-3.58678e-05
0.00037443
-0.00046804
0.00191378
-0.000476423
0.000629243
-0.000152821
0.000937187
2.67117e-05
-0.000963899
0.00019438
0.000122345
-0.00123668
0.000919955
0.00131831
-0.000129738
-0.00122694
3.83666e-05
-0.00111339
-6.67375e-07
0.00023776
0.000321572
-0.00146047
0.000901141
-0.00135656
9.77507e-05
0.00125881
-5.32025e-05
-0.000949586
-0.000123857
0.002091
0.000147329
-0.00211447
0.00111651
-0.0011829
6.63893e-05
-0.00119562
0.00118295
1.26651e-05
0.00096014
-0.001084
0.000262277
0.00087665
0.00108922
-0.00222814
-0.00117317
-0.000640483
0.00181365
-9.3659e-06
0.0008363
-0.000826934
-1.94235e-05
-0.00090968
0.000929103
0.00111467
-0.00110757
-7.09857e-06
-0.00123646
4.77192e-05
0.00124307
-5.43288e-05
0.000302168
-0.00139087
0.00106236
0.000693676
0.000583263
-0.00233821
0.00106127
0.000721228
4.94395e-06
-0.000726172
4.72847e-05
0.00136747
-0.00141475
0.000672052
2.42582e-06
-0.00154003
0.00137085
0.00129939
-0.00113021
-0.000969572
0.000122866
0.00124338
-0.000396675
0.00169601
-0.00244363
0.000590867
0.00015675
-0.00218946
0.000487099
-0.00104595
0.00115608
-0.000110129
2.57077e-05
-0.00116009
0.00113438
-0.00100407
-2.00054e-05
0.00102407
-0.00117411
6.18117e-06
0.00116792
0.0011237
-0.00123192
0.000108223
1.36091e-05
0.00173481
-0.00174842
-0.000256802
-0.000234198
0.00124381
0.00123781
-0.00129322
-0.000884196
0.000939609
-0.000698684
0.000127493
0.00135642
-0.000785234
0.000667864
-0.00157003
-0.000101903
-7.26478e-05
0.00153432
-0.00146168
0.000454909
0.000424171
-0.00058005
-0.00029903
-0.000707755
0.00116054
-0.00139467
0.000941884
-0.00112431
-0.000427038
0.00155135
0.00227594
-0.00140337
-0.000872561
-0.000432196
0.00163532
0.0010712
-0.00227433
-0.00118625
0.00143867
-0.0014355
0.00118309
0.000508866
-0.000382315
-0.00058456
0.000458009
2.12441e-05
-1.36399e-05
-0.00127997
0.00127236
-0.000121126
-0.00180058
0.00192171
0.000404696
5.30789e-05
-0.00152539
0.00106762
-0.00150258
0.00116599
0.000336591
-0.000702812
-0.000351914
0.00101383
4.08961e-05
-0.000990558
0.000985481
5.07699e-06
0.00096351
-0.000814823
0.00120897
-1.04804e-05
-0.00157802
0.0015809
7.60063e-06
0.00304943
-0.000788472
-0.0015305
-0.00073046
-0.000471399
0.00166312
7.98643e-06
-0.00119971
-0.000550278
0.000819091
0.000457461
-0.000726274
-0.00132476
0.000778042
0.00137623
-0.000829507
0.000727521
-0.000868437
-0.000339548
0.00150767
3.97381e-05
-0.00120786
0.000906937
-0.000999597
0.000103743
-0.00213944
2.38546e-05
-2.08284e-05
0.00213641
-0.000297147
-8.38562e-05
-0.00079959
0.00118059
-0.0010852
0.00139613
-0.00110959
0.000798653
-0.00248044
-0.000334661
0.00260879
-0.00160743
2.27368e-05
0.00160911
-2.44149e-05
0.00100648
0.000162803
-0.000678803
-0.000490482
-0.000317455
-0.00123373
0.000655513
0.000895668
0.00106892
-0.000419266
-0.00140888
0.000759219
-0.00138749
-0.000357607
-3.09865e-05
0.00177609
0.00111009
-0.000136305
-0.00101854
4.47533e-05
0.000940102
-0.000944001
3.89914e-06
-0.000745257
0.00242688
-0.00201629
0.000334669
0.000156328
0.00143143
-0.00230353
0.000715779
-0.000946043
-0.000307917
0.000994191
0.000259769
0.000330251
-0.000316926
-0.000959368
0.000818473
3.29948e-05
0.000160763
-0.00101223
-8.8651e-05
0.000616193
-0.00266698
-0.0013897
2.89349e-05
0.00178259
-0.000421827
-0.000995367
0.00116129
-0.000165919
0.000489792
-0.000459342
-0.0006491
0.000618649
-0.000700625
-0.00128676
0.000808935
0.00117845
-0.000577177
0.00179593
-0.000661475
-0.000557278
-0.00148177
1.01092e-05
-0.00129675
0.0016169
-3.90254e-05
3.44018e-05
-0.00128131
0.00128593
0.00123764
0.00132692
-0.00141021
-0.00115435
0.000979903
-0.00101075
3.08457e-05
0.00125291
-8.17994e-06
-0.00124473
0.00106977
-0.00124192
0.000351401
-0.00017925
-0.000312169
-0.000916018
0.00222238
-0.00164565
0.00141253
-0.000213026
0.00044614
0.000546987
-0.000744511
0.00176787
-0.00157034
-0.00157581
-0.00114993
0.00187355
0.000852183
-8.45538e-05
-0.00173748
0.000176392
0.000274979
-0.00144989
-1.17075e-05
0.00118662
0.00133552
0.000351989
0.00180891
-0.00158407
-0.000594329
0.000369489
-0.00133472
0.00132479
0.00108041
-0.00107048
0.00101462
0.000502897
-0.00115172
-0.000365794
0.000508433
-0.00111713
0.000927911
-0.000319216
0.00139186
-0.00114106
-0.00181321
0.00156241
0.00146045
-0.00162535
8.03445e-05
-0.000901082
0.000905102
-4.02047e-06
0.000112989
-0.000102431
0.0015121
-0.00180637
0.00170396
-0.00140968
0.00112062
-0.00100763
0.00113732
-0.00122898
-3.73749e-05
0.000129026
-2.44468e-05
-0.000519486
0.000543933
-0.000123569
-0.00103693
0.00124388
-8.33749e-05
0.00191021
-0.00171924
0.000135882
-0.000326847
0.000204114
-0.00226639
0.000184016
0.00169666
-0.00173611
-0.000188093
0.000227541
0.000371551
0.000279054
0.000461246
-0.00111185
-0.000100995
0.000948676
0.000923883
-0.00177156
-8.03675e-05
-0.00117197
-0.000325377
0.00157772
-0.000570282
0.0017089
-0.000464656
-0.000673957
-0.00106852
0.000453314
0.00168498
0.00104455
-0.00211762
0.000232125
0.00084095
-0.000305287
7.15691e-05
0.00193038
0.000313087
0.00142721
-0.000488664
-0.00125164
-5.18268e-05
5.42205e-05
-0.00123872
0.00123632
0.00185861
0.000104449
-1.30836e-05
-0.00194998
0.00103275
0.000452497
-0.000410676
-0.00107457
-0.00112273
-0.000479816
0.000534023
9.1926e-05
0.000648198
-0.000657842
-8.22818e-05
0.000189351
1.63736e-05
-0.00144764
0.00100858
-0.000527317
-0.000136939
-0.000344324
0.000148169
0.000701589
-9.81254e-05
-0.000751633
-0.00112173
0.000961481
0.0012048
0.000743957
-0.00323141
0.000629111
0.00185834
0.000176708
-2.97885e-05
3.30007e-05
0.00127206
-0.00127528
0.00220461
-0.000708036
-0.000732167
-0.000764409
-0.00107583
1.36516e-05
0.00147783
-0.00041565
-0.000135751
-0.00103614
0.00124966
-7.77727e-05
0.00104058
-0.00142049
-0.000693233
0.00107314
-0.000986996
0.000958685
2.8311e-05
-2.95546e-05
0.000952678
-0.000923124
-0.000466178
-0.00109011
-0.000402134
0.00195842
-0.000811347
0.00090729
-9.59423e-05
-0.000152963
-0.00132768
-0.000334601
0.00181525
-0.00234377
0.00086413
-0.00127912
0.00275877
-0.00160474
3.69879e-05
0.00156775
0.000757878
0.000839144
-0.000810991
-0.000786031
0.000976152
-0.000559231
-0.000184668
-0.000232253
0.00130354
2.85786e-05
-0.00133212
0.00124636
-0.00372636
0.00013623
0.000845569
-3.13715e-05
-0.000814198
-0.00144461
-0.000573163
0.00194139
7.63897e-05
-0.000876856
0.00452918
-0.00277338
-0.00087895
-0.00263862
0.00317771
-0.000465652
-7.34345e-05
0.00157596
-0.000909199
0.00219219
-0.000772435
-0.00168152
0.00248413
-3.01706e-05
-4.51426e-06
-0.000121866
-0.000680385
0.000806765
0.00148758
0.00190762
-0.00216893
-0.00122627
-0.00152908
0.00180804
0.000496088
-0.000775045
0.0016937
-0.000310727
-0.00066219
-0.000720785
0.000144875
-0.00108545
-0.000188582
0.00112915
-0.00322328
9.94931e-05
0.00164975
0.00147403
-0.000591321
0.00225048
-0.000872488
-0.000786673
0.000382483
-0.00093801
0.00178741
-0.00123188
-0.00019315
-0.000553031
0.00104585
-0.000299667
-0.000917479
0.000976213
-6.22504e-05
3.51711e-06
0.00160097
-0.00180734
-8.65157e-05
0.000292891
-4.87388e-05
-0.00159581
0.00160844
3.61125e-05
0.000130746
-0.000116608
-0.00153073
0.00151659
0.00220748
-0.000362482
9.39307e-05
-0.00193893
-0.00145086
-0.000304827
0.000372368
0.00138332
0.000491614
-0.000491629
1.51661e-08
0.00108929
-0.000741139
0.000726796
0.000226316
0.00208763
-0.000124892
-0.00218905
-0.000332921
0.000224176
0.000277808
-0.000169063
-0.00162875
-0.00202556
0.00292803
-0.00115806
0.00132611
0.00126298
-0.00143103
-6.4886e-05
0.00129252
-0.00163015
0.00040252
-0.00123983
-0.00129694
-8.21947e-05
-0.000333974
0.00171311
-7.03595e-06
-0.000660531
0.000667567
-7.59406e-06
-0.000950825
0.00221635
-0.00125793
0.000651014
0.000916543
0.00163378
-0.000818634
7.65705e-05
-0.000891716
0.000716834
-0.000199381
-0.00119648
0.000679029
0.000900589
4.27675e-05
-0.0013726
0.000429241
-0.000649056
0.000537348
0.00203371
-0.001922
0.00174235
0.00124566
0.000163229
-0.00315123
-0.0015553
-9.81169e-05
0.000314841
0.00133857
-0.00131028
0.00139543
-8.51511e-05
-9.11254e-05
0.000865385
-0.000129781
-0.000644478
-0.000267959
0.00055118
-0.000283221
0.00109048
0.00155028
-0.000695852
-0.00194491
0.000933125
-0.000934132
1.00697e-06
-0.00264448
0.00061701
0.00147768
0.000549795
0.000107048
-4.74374e-05
0.00128237
-0.00134198
0.000822263
3.38459e-06
-0.000825648
0.00168911
-0.0018753
-0.0012044
0.00139059
-0.00148751
-0.00287292
0.00171595
-0.000290456
0.000187685
0.00119555
-0.00109278
-0.000511338
0.00155501
-0.000163914
-0.000879758
0.00031978
-0.000845492
0.00124255
0.000977002
4.70547e-05
-0.00102406
0.00289357
-0.000699691
0.000171951
-0.00236583
0.00109315
0.000312914
0.000699758
-0.00167179
0.000803469
0.00016856
-0.00176108
4.9894e-05
0.0013206
0.000390584
-0.000328066
-0.000724063
0.000767013
0.000285116
0.00103103
-0.00132789
0.000296859
-0.00036514
-0.000709916
0.00107506
0.000910555
-0.000589644
-0.00103367
0.000712756
-0.000389332
-0.000216545
0.00155713
-0.000951249
-0.000766015
-0.00122412
0.000947015
0.00104312
-0.00150531
0.0013746
-2.52941e-05
0.000156004
-8.58345e-06
-0.000929427
-0.000224823
-0.000819959
0.00103439
1.0387e-05
0.0015675
-0.00147427
0.000428166
-0.000521398
0.00238294
-0.00237099
0.0010812
-0.000415418
0.000456029
-4.06104e-05
-0.000870213
0.000858878
1.13351e-05
-7.87125e-05
0.00109138
0.000372725
-0.00138539
-0.000691678
-0.00109008
-0.000429767
0.00221152
-0.000645258
-0.000495784
0.00224042
-0.00109938
0.00111042
0.000297709
-0.00148684
-0.000214264
0.0016528
-0.000751444
-0.000687088
0.000234743
-0.00109161
-0.000478267
0.00133513
-0.000304156
0.000187127
-0.0015223
0.00163933
0.00151823
-0.00109949
-0.000839738
-0.000626802
-0.000186826
0.00165337
0.000452966
-0.000229856
-0.000226747
3.63663e-06
-0.00178038
0.00207696
-0.000211473
-8.51023e-05
0.000581178
0.000641818
-0.000610885
-0.00061211
-0.000244538
0.00126811
2.66435e-05
-0.00105022
0.00141592
6.04782e-05
-0.00126518
-0.000211219
-0.000174889
-0.00174054
-0.000431354
0.00234678
-0.000150533
0.00126272
-0.00111218
0.00152485
0.00129513
-0.00173589
-0.00108408
0.00100979
1.87827e-06
-0.00101167
0.000110995
-0.00133067
-0.000332472
0.00155215
0.00238033
-0.00033946
-0.00111855
-0.000922316
3.39657e-05
0.00239307
-4.67064e-05
0.00117463
-0.00112253
-5.21072e-05
-0.000421811
-0.000821519
0.00124333
0.00217623
-0.000580687
-0.00136761
-0.00101734
-0.000994807
0.00167268
9.45945e-05
0.000402737
-0.00157107
0.00107374
5.66745e-05
-0.00135516
0.000847879
0.000450605
-6.68203e-06
0.00118099
6.61064e-06
-0.00118092
-0.000230429
-3.17252e-05
-0.00111817
-0.000294647
0.00141282
-1.87085e-05
-0.000970171
0.00098888
0.00207722
0.00015784
-0.000133259
-0.0021018
0.000869814
-0.00161107
0.000388176
0.000353085
0.000548511
1.34867e-06
-0.00054986
-0.00158313
0.000258318
-6.39297e-05
0.00138874
0.000566663
4.18755e-05
0.00123629
-0.00184483
-0.000580968
0.000627702
-0.00174389
0.00169716
0.000174544
-0.000229432
-0.00163598
0.00169086
0.00116333
-0.00108682
-0.0024978
0.000284687
0.000736546
-0.000751325
-0.000762019
0.000776797
-0.000672314
0.000675193
-2.87824e-06
-0.00159836
-0.000564474
0.00239478
-0.000342705
-0.0014876
-0.000931013
-0.00028311
0.00126319
-4.90624e-05
0.000268186
0.00151755
-0.000581139
-0.0012046
-0.00301027
-0.00252724
0.000196612
0.00242228
-9.1653e-05
0.00017965
0.000129903
-0.0010431
0.000733552
0.00166513
-0.00153827
-0.00171821
0.00121602
0.000348091
-0.00156411
0.00173285
-0.000320461
-0.00123956
-0.000172833
-0.00103665
-5.74749e-05
-0.000699713
0.00179383
0.00170092
-0.00143823
-0.000506686
0.000243995
7.43691e-05
0.000527495
-0.00162447
0.0010226
5.04953e-06
0.000883203
0.0001367
-0.00102495
-0.000822896
0.00104808
0.000296155
-0.000521343
1.27061e-05
0.0014536
-1.17074e-05
-0.0014546
-0.00109795
0.00111066
-0.00102309
-2.05696e-06
0.00102515
-0.00167026
-0.000154151
0.000417829
0.00140659
0.00117466
-0.00114862
0.000687406
-0.000713442
0.000290006
0.00102096
-0.00110237
-0.000208595
-0.00141306
0.00206829
-0.000238129
-0.000417103
0.000823929
-0.000787283
-3.66455e-05
1.60309e-05
0.000652582
0.00171432
-0.00138049
0.00117672
0.000506898
-0.00030313
-0.000340574
0.00075888
-0.000418306
-3.49699e-05
0.00118694
-0.00115197
-0.00185968
0.000705462
0.000361738
0.000792476
-0.00333874
0.00243343
0.000921334
0.00248054
-0.000296519
-0.000424199
-0.00175982
0.000992262
0.000121673
0.000634622
-2.94361e-05
-0.000665033
5.98477e-05
0.000686741
-0.000538572
2.66942e-05
-0.00159465
0.00156795
-0.00275404
0.00196915
-0.000874869
0.00211052
-0.00142839
0.000192735
0.00144051
-0.0019482
0.000602288
0.00110743
-0.00202306
0.00039017
0.000525457
-0.00102894
0.00123563
-0.000206691
0.00214707
0.000449462
-5.5281e-06
-0.002591
-0.00103149
0.00104058
-9.08507e-06
0.00280749
-0.0025164
0.0003251
0.00166264
-5.40177e-05
-0.00160863
0.0011933
-0.00121654
2.32347e-05
-0.00119401
0.000134142
0.00105987
-0.000460228
-0.00112981
0.000396029
-0.00244124