/*--------------------------------*- C++ -*----------------------------------*\
  =========                 |
  \\      /  F ield         | OpenFOAM: The Open Source CFD Toolbox
   \\    /   O peration     | Website:  https://openfoam.org
    \\  /    A nd           | Version:  10
     \\/     M anipulation  |
\*---------------------------------------------------------------------------*/
FoamFile
{
    format      ascii;
    class       volScalarField;
    location    "15";
    object      SgRate;
}
// * * * * * * * * * * * * * * * * * * * * * * * * * * * * * * * * * * * * * //

dimensions      [1 -1 -3 -1 0 0 0];

internalField   nonuniform List<scalar> 
111485
(
1.28085e-09
1.71737e-06
6.30723e-07
4.82624e-12
1.70572e-07
2.49756e-09
3.03259e-07
1.1259e-08
2.82829e-07
1.22929e-06
5.53172e-07
2.16701e-08
1.4166e-07
0.00513385
1.42597e-07
3.1631e-07
0.00377642
1.99789
1.9884e-08
2.51397e-08
0.0006928
2.29629e-10
5.6914e-08
2.12707e-07
8.92142e-07
2.17386e-09
2.51985e-06
1.01548e-07
4.72245e-08
0.000902708
0.0419011
2.96609e-08
6.38936e-09
2.55464e-08
0.00968049
1.80201e-06
0.0125266
0.00372475
4.27426e-05
7.60164e-08
0.00072233
2.4028e-05
5.69815e-08
0.00256342
3.71591e-05
3.9099e-08
0.00190153
1.69714e-08
2.58736e-05
1.44978e-08
2.98407e-08
3.58292e-07
1.07631e-08
0.0365622
3.49197e-08
7.6445e-09
3.11124e-08
4.18571e-10
1.31821e-06
9.30816e-09
1.99243e-08
5.82043e-09
2.06595e-06
0.0888254
1.50114e-07
3.12877e-07
0.301085
3.12515e-08
1.25973e-06
2.73153e-06
7.70391e-06
1.37045e-06
2.15724e-07
1.70645e-06
5.78014e-09
3.05984e-09
1.1157e-09
3.75848e-06
1.98436e-09
5.24515e-07
0.0050201
0.0184329
9.32576e-10
2.18046e-09
3.89034e-07
6.66592e-07
0.00249493
0.0652611
5.06996e-05
4.35344e-08
0.000869856
1.27623e-07
7.85555e-07
6.19272e-09
9.52893e-05
4.24576e-10
0.000505016
0.00381306
2.90762e-05
0.00102356
6.44345e-10
6.71505e-07
3.54578e-08
2.67915e-07
1.31299e-07
2.62467e-07
1.9308e-10
2.72145e-08
2.1295e-07
1.18827e-05
6.34588e-09
2.32493e-08
2.41694e-07
1.44347e-06
5.60586e-09
1.46594e-08
1.57686e-09
1.64877e-07
5.23564e-07
1.5862e-10
1.14515e-09
3.36136e-06
0.00124902
4.51686e-08
1.97551e-06
0.000533254
1.9775e-06
5.02306e-08
1.75776e-11
0.000178923
0.00105026
0.0581227
0.000884791
3.17019e-06
1.47848e-06
5.02967e-09
2.00106e-10
1.84737e-08
2.53649e-07
4.68094e-07
1.32171e-05
2.12271e-09
0.00333781
1.67884e-06
0.00338894
4.47718e-08
2.28683e-10
8.25448e-10
2.22227e-09
2.13551e-08
5.89708e-07
0.000530744
0.00199432
1.26505e-07
1.66181e-06
1.42571e-09
8.71006e-08
2.84204e-06
1.63451e-05
1.09077e-07
7.64719e-11
3.18103e-09
7.92836e-07
6.21006e-06
1.5758e-06
1.44554e-07
0.00333024
0.000451772
3.74214e-05
6.81171e-05
4.10219e-11
2.08733e-09
0.00351483
2.53927e-11
4.04489e-09
1.68455e-09
8.12086e-09
1.63271e-07
4.07719e-09
1.00199e-07
1.47206e-07
4.97598e-09
2.98742e-08
8.18738e-09
6.06247e-08
4.18515e-07
2.03223e-06
2.30785e-07
9.88277e-05
5.68382e-09
2.90359e-07
9.13071e-08
1.31598e-07
2.5573e-07
1.26024e-06
0.027223
5.12986e-08
3.7748e-10
2.00858e-08
1.64562e-07
2.0678e-08
7.32607e-05
0.00813715
7.43762e-09
3.05501e-08
6.22367e-08
2.31979e-07
2.02207e-07
0.00018488
0.00333081
6.48775e-08
4.71452e-08
1.40259e-07
1.10146e-10
7.35528e-07
5.06595e-06
0.119316
2.9854e-10
9.50554e-08
1.01447e-07
0.000239787
1.35316e-09
7.18823e-08
0.028513
5.0291e-06
1.17681e-10
2.2234e-11
0.167343
7.42051e-05
4.09149e-07
1.72813e-06
4.88035e-08
6.59738e-09
0.00260823
6.52552e-07
2.25587e-07
0.00285371
1.38374e-09
9.0711e-07
1.22075e-07
8.63749e-08
1.17991e-07
4.5445e-08
7.49336e-08
3.3636e-05
6.55023e-09
1.44423e-07
1.43605e-09
0.0194049
0.00244115
3.5857e-07
7.04354e-09
3.32926e-08
2.54669e-11
3.6393e-06
0.00521617
5.70268e-09
1.20915e-06
0.00184342
1.52248e-09
2.39734e-08
2.69534e-07
1.75075e-08
6.55567e-11
6.00917e-09
1.56063e-11
9.6643e-10
1.2452e-08
0.0029699
4.39809e-06
6.52008e-07
1.5089e-08
0.00320055
3.92003e-07
2.09012e-08
0.000593269
8.23754e-09
1.49168e-08
9.42578e-09
1.83504e-09
0.00202714
3.61406e-09
0.000174336
5.76514e-09
2.75239e-11
0.00399894
0.00489707
3.11057e-08
6.15073e-06
5.0185e-06
9.48391e-08
1.25513e-07
0.00925621
1.64562e-10
1.27451e-07
3.12878e-10
6.84175e-06
4.93812e-06
0.268247
3.66117e-08
0.00612756
6.00395e-09
0.00144089
1.74059e-08
5.08968e-08
2.37283e-10
2.20298e-09
0.000461991
1.73051e-08
1.59211e-08
1.34934e-07
2.64736e-06
8.7248e-09
4.57655e-07
7.73395e-10
3.91441e-09
5.82015e-08
7.74794e-05
0.00444634
0.189611
1.39532e-05
1.74083e-10
1.02037e-09
4.47506e-10
1.4943e-06
4.36413e-08
1.31545e-08
5.71653e-08
1.0494e-08
1.32201e-06
0.00112863
0.0956704
1.23767e-08
5.32473e-08
3.92157e-08
0.000795655
9.28681e-07
1.0758e-08
2.69665e-08
6.24308e-09
0.0045638
2.7102e-09
0.0026478
0.000227209
8.63343e-09
6.74995e-08
6.81915e-05
1.06411e-08
0.00065204
2.94749e-09
1.65334e-07
0.00833834
0.0300519
4.02041e-07
1.75633e-07
6.85607e-09
9.12789e-09
1.86674e-08
6.95568e-08
0.00656291
5.21301e-07
2.08115e-09
0.000882307
3.73295e-07
4.19488e-10
8.77359e-09
2.65737e-09
0.000880371
0.0401727
0.000856222
0.000824261
3.75941e-09
2.16556e-10
3.73402e-08
3.37849e-08
3.66061e-11
1.74142e-07
5.7698e-08
2.83398e-07
4.85314e-07
2.3107e-06
8.94382e-08
0.00045661
4.04808e-08
3.69942e-08
8.88644e-07
1.23002e-08
0.0573348
5.51641e-09
2.70398e-07
0.128724
0.000503763
1.99464e-09
2.11619e-09
0.00272518
1.23208e-07
0.00564509
7.80619e-09
0.0396864
5.73945e-08
1.31467e-10
0.00203092
8.68621e-07
1.82524e-09
0.000596824
5.57821e-08
5.30567e-08
1.6639e-08
3.22916e-10
1.31807e-05
3.59061e-10
1.3192e-07
6.6875e-08
1.48994e-12
1.56221e-08
3.34828e-06
0.00448981
2.76295e-06
3.88772e-11
1.44028e-06
0.00557848
1.76906e-06
0.00365097
0.0233408
0.00014436
0.905612
9.3384e-07
0.00349916
0.000238218
3.79115e-09
0.045533
2.56923e-08
1.9448e-09
2.43443e-05
3.75219e-06
1.39135e-06
3.2134e-08
3.1553e-08
2.79604e-07
3.66584e-09
0.00602222
5.69593e-08
6.43313e-07
8.48616e-05
1.68552e-06
2.47815e-05
1.23021e-09
0.00451738
0.00566902
4.13424e-10
6.53349e-07
0.0312985
2.0004e-06
6.19463e-11
4.81048e-07
4.20103e-10
0.00534638
1.1936e-06
3.6715e-07
2.03167e-06
0.00270199
4.63754e-09
7.89995e-08
1.35125e-08
1.52126e-06
2.92906e-09
1.79419e-08
0.000977558
1.77871e-06
1.79174e-09
2.05104e-09
7.61675e-06
1.54027e-09
3.14541e-08
0.00183273
6.74823e-11
1.06148e-06
1.66723e-09
0.00138479
8.47322e-09
4.47086e-08
3.13124e-09
4.02153e-06
8.87466e-09
0.0767988
5.25255e-07
0.00680516
4.43257e-10
0.0147589
4.68559e-08
6.08834e-11
0.00649324
0.00252341
5.33045e-07
0.0222723
5.65379e-07
0.000100271
0.000569553
7.65387e-09
5.45722e-07
0.00510974
1.05574e-09
2.10944e-08
1.93282e-06
0.000329925
0.000986896
0.00105146
2.00431e-06
2.25566e-08
2.61617e-08
1.33328e-05
0.00136537
1.41957e-07
9.64196e-09
0.000762502
0.000977991
6.03232e-08
2.3108e-08
4.00664e-07
2.11268e-11
3.03155e-05
0.000357565
6.53683e-09
4.78982e-09
1.87521e-06
4.97304e-10
0.000644924
4.12826e-09
9.36141e-06
1.31473e-09
0.0020546
0.00212852
3.85482e-07
3.94029e-09
0.0010855
0.00173802
5.62674e-09
4.17755e-09
3.01074e-07
3.8439e-09
2.62428e-06
2.89186e-07
0.0011708
0.000795447
5.37689e-07
9.2754e-11
8.1989e-07
0.0121588
1.13612e-06
0.0012167
3.47338e-07
0.000608193
2.58194e-08
1.87713e-08
0.000669588
6.5178e-07
1.59945e-10
0.00225899
0.0336006
0.000384863
3.44803e-08
0.00552173
7.26325e-07
0.00377297
0.00143188
6.15261e-06
6.13385e-08
2.0205e-06
2.42333e-07
8.51299e-07
0.00195089
0.00109448
1.31387e-06
6.5468e-05
0.62158
5.87311e-09
1.22963e-06
8.13622e-08
6.1436e-07
3.97131e-10
0.00364594
4.87627e-05
1.77855e-05
3.01516e-06
6.61797e-07
2.15287e-08
6.61743e-09
3.52298e-06
3.67273e-08
1.45464e-09
5.12067e-11
9.02828e-09
7.95301e-10
7.93622e-07
3.00161e-11
0.000651099
9.66111e-07
1.87563e-07
0.00180997
0.00592915
1.01862e-06
3.24973e-08
0.000691461
6.917e-10
3.09396e-06
3.2915e-09
9.86349e-09
8.02e-07
2.53485e-07
0.00208417
1.51598e-05
4.98424e-10
6.43861e-08
0.0727944
0.00253194
1.58483e-07
0.028429
0.000932658
0.00344328
0.000696058
8.07805e-05
4.02337e-07
1.31935e-07
3.33321e-08
0.0124313
1.57543e-08
4.83581e-07
8.50585e-08
4.08099e-08
2.15245e-08
0.000424896
0.0050592
5.45834e-07
7.82088e-08
1.6829e-06
1.23101e-05
1.38979e-09
9.5116e-09
5.52115e-06
9.92142e-08
3.49046e-07
6.92333e-09
7.05517e-08
5.06524e-08
5.51186e-07
3.15137e-06
1.01082e-06
3.62375e-06
9.25535e-09
9.51424e-09
3.49114e-07
9.93211e-08
2.16344e-09
0.00129589
6.0425e-10
0.00244784
1.01593e-06
0.000238457
1.31421e-08
0.000492521
2.0986e-06
6.76293e-06
3.02015e-10
0.000116086
6.00181e-09
4.14e-10
2.01036e-08
0.00528574
2.24355e-06
5.65394e-07
0.000762504
2.27517e-09
4.11329e-10
0.223753
1.39901e-08
1.49134e-06
1.31954e-07
7.07914e-06
6.48468e-10
4.23922e-07
0.0125433
0.00286213
9.50646e-12
3.67509e-09
2.78529e-08
3.03942e-08
2.27553e-06
9.10966e-09
0.00104533
1.03151e-08
1.12872e-09
4.47124e-09
0.000759264
1.96578e-07
3.16578e-06
1.91662e-11
4.12149
0.143192
0.00310867
2.53224e-10
2.56044e-09
0.000201711
0.000344036
7.52113e-07
1.71814e-05
0.169769
3.23301e-05
8.35235e-10
0.00105399
5.40918e-07
0.00101393
1.45572e-09
2.52056e-08
4.87405e-09
3.74434e-09
1.14177e-09
2.51881e-11
1.2495e-07
1.36076e-09
8.46155e-09
1.95379e-08
2.68947e-07
2.94465e-09
4.73614e-09
1.49027e-08
0.0120454
9.93875e-09
4.9316e-08
8.74194e-09
7.22913e-10
3.54931e-08
2.14305e-11
1.47792e-06
2.94609e-09
2.17555e-08
2.90785e-09
8.43276e-11
2.1324e-10
4.23196e-11
3.31842e-07
2.07355e-09
1.1806e-08
0.00355007
2.20475e-10
2.1024e-07
0.00108898
6.88545e-08
1.16826e-08
0.599454
1.87653e-08
0.00457912
2.08426e-06
0.00341323
0.00376555
1.47835e-06
1.55563e-07
0.0080334
3.04538e-09
3.4539e-07
0.00169257
0.517591
9.73776e-10
3.91227e-09
0.000127517
5.8721e-05
3.76962e-05
1.36471e-06
8.13074e-11
4.73331e-13
1.26073e-08
6.73151e-07
5.27732e-08
6.94656e-08
3.33553e-06
3.30837e-09
8.4438e-09
2.38255e-09
2.86813e-09
0.000558345
2.01032e-07
1.63078e-09
2.09217e-09
8.90652e-07
4.49339e-05
3.38364e-08
8.1912e-09
0.00076
3.62156e-11
5.26983e-09
0.00106067
6.42877e-10
0.00125284
7.65375e-07
0.000617688
8.86131e-06
5.54181e-09
6.14257e-07
5.32697e-10
0.000852508
9.53557e-07
3.49265e-05
0.00285755
8.70227e-05
1.49452e-08
2.11216e-08
1.55491e-08
0.0172401
0.0028698
3.18737e-09
0.00418722
2.67072e-09
2.98567e-06
7.83273e-09
0.000295182
2.28143e-05
7.48331e-07
1.26898e-08
0.00215004
3.32698e-08
1.64574e-08
0.000765768
3.39518e-09
1.00865e-08
4.44216e-09
9.86675e-10
3.47962e-09
0.0039433
1.28255e-08
6.23623e-09
0.00165483
8.17153e-10
1.39931e-08
0.00366585
7.83416e-09
0.00338869
0.00594596
2.4424e-05
2.15875e-07
1.89265e-08
5.25785e-08
2.04032e-05
0.00186402
6.04056e-05
1.12794e-05
7.88568e-08
0.000762805
0.00356445
6.10387e-10
7.05113e-06
0.000224792
2.16578e-05
8.42891e-06
1.61106e-05
4.30532e-06
1.01788e-10
1.28134e-06
1.5138e-08
1.38055e-08
0.00118631
0.00761725
4.34688e-09
5.6436e-09
5.78315e-05
6.27526e-05
4.16165e-11
1.46919e-05
9.84671e-09
2.29672e-10
3.46016e-10
7.6963e-09
1.05983e-07
8.23934e-09
0.000148946
0.000856336
5.60636e-11
1.36556e-08
8.38044e-05
0.00208028
1.40711e-06
6.75309e-09
0.000544605
6.90333e-11
0.000175809
5.35859e-10
8.55132e-10
1.07679e-05
0.0197211
4.2664e-08
1.99841e-09
3.26485e-09
0.000593828
8.5062e-09
0.000388428
4.63838e-09
0.00647474
1.34893e-10
3.85378e-05
4.48047e-08
4.28299e-11
1.79222e-08
1.01227e-08
4.27051e-05
1.58953e-08
3.72676e-09
3.52934e-08
9.14767e-05
0.000907106
0.00453291
1.14105e-05
2.04291e-05
4.05521e-09
6.93206e-05
0.00176277
4.66165e-09
4.92263e-08
9.7729e-06
1.8248e-05
4.63078e-09
1.56372e-07
2.77931e-06
4.1417e-09
3.96683e-08
1.43073e-08
0.00419338
0.0012567
9.91861e-11
3.08171e-09
0.00101243
2.12515e-06
1.35745e-06
2.9195e-10
3.80814e-08
2.7796e-09
1.97012e-08
2.89335e-06
5.8183e-07
1.78249e-08
1.67887e-06
4.42269e-07
0.000968194
3.9598e-07
9.53867e-11
6.24079e-08
8.10485e-11
4.00139e-09
1.56626e-06
0.338627
3.65882e-09
8.66199e-09
6.96747e-08
7.81771e-11
7.81657e-07
9.29959e-09
1.22123e-06
2.09925e-05
1.64971e-06
4.80297e-09
3.13269e-05
4.04771e-05
1.31304e-06
7.74467e-05
8.45607e-10
0.000493032
0.000476668
0.00220599
0.0016065
0.000332215
8.96261e-09
1.34255e-11
1.23464e-09
0.00331387
0.00125597
0.00546393
8.16756e-12
0.175993
6.46508e-10
0.00309372
3.4802e-06
1.4987e-08
2.53558e-09
4.86227e-08
1.55983e-08
0.0317273
4.40502e-08
2.09511e-06
0.00550099
0.00550239
1.29117e-06
5.25904e-07
1.33776e-06
9.23515e-07
7.9146e-09
1.15791e-11
0.0206179
9.57411e-07
4.75332e-09
3.73571e-09
1.09408e-05
6.83974e-09
0.0014159
0.00840823
2.75531e-08
0.0029407
1.34091e-11
7.41059e-09
3.74898e-09
0.00616714
3.92487e-10
0.00214941
0.000107116
0.000873144
0.0291909
0.0464539
1.88345e-05
4.59852e-08
0.00127441
4.82605e-08
9.3316e-09
1.30712e-08
3.82996e-08
1.52421e-06
5.64428e-08
0.00118882
4.63508e-09
0.00961127
0.00616847
9.35987e-11
7.27888e-06
4.60102e-09
0.00145615
3.16362e-05
2.35216e-09
2.32253e-09
0.000213107
9.74523e-09
6.63748e-09
0.00322909
1.31127e-08
0.0133973
1.32107e-10
0.000778616
1.59162e-07
1.22144e-08
1.42071e-08
8.10088e-08
0.117653
1.40282e-09
0.00322136
1.86116e-08
5.04389e-11
0.00141489
8.19055e-09
1.34269e-10
0.00390243
1.66301e-05
0.00591512
4.48173e-10
3.40087e-08
8.40587e-10
9.10785e-07
8.68988e-07
0.000643251
1.06253e-07
1.49072e-05
1.25435e-06
3.24356e-05
5.22099e-07
5.3933e-08
2.19815e-08
1.36869e-08
2.05509e-08
3.90134e-08
1.66884e-07
0.000820171
4.8117e-05
0.000801464
4.27085e-11
1.95916e-08
1.80016e-09
4.48207e-06
0.000764333
3.03221e-08
0.00116099
8.31499e-06
2.39818e-06
1.53964e-11
0.000115831
0.000144162
0.000890589
0.00102781
1.17191e-08
1.59651e-05
3.69357e-08
7.97175e-08
7.13323e-09
1.18396e-09
3.39898e-05
0.000114131
1.65194e-05
1.51724e-08
0.000792906
1.2074e-05
1.60366e-08
1.97218e-08
0.00138193
5.8736e-08
0.00104031
0.0050406
0.000330566
0.000154173
1.46411e-07
1.96667e-08
4.47587e-10
3.05e-09
4.96363e-06
8.24678e-08
0.000582791
0.00102668
5.3329e-07
4.73149e-09
5.66843e-06
0.000704189
4.62027e-07
2.11162e-05
2.52225
0.000739224
0.00232834
0.000859549
0.0196867
1.57128e-10
3.59122e-05
3.17055e-08
3.53423e-09
4.58668e-09
5.50794e-09
4.61048e-07
1.25722e-09
3.36463e-09
1.5673e-06
2.33117e-09
2.47135e-10
1.71509e-08
5.43332e-09
0.00100099
4.48757e-08
0.00292028
0.00129157
0.00496865
1.99342e-09
0.0116007
5.10081e-06
0.00661969
8.42801e-08
1.37382e-09
1.69935e-08
7.17016e-07
0.00465097
3.77172e-11
0.000195184
2.88093e-09
3.62353e-09
2.89614e-07
3.13014e-09
2.67949e-08
5.8365e-09
0.00131167
2.59841e-09
5.23922e-10
4.75436e-09
9.22156e-09
1.84006e-08
6.65923e-05
5.8143e-07
1.98459e-08
6.54535e-06
3.8863e-07
9.89535e-09
0.00014931
2.20632e-08
4.78881e-08
3.79059e-09
2.30131e-09
0.00484663
0.000743947
9.63251e-05
6.0094e-09
6.83145e-10
2.38345e-08
0.00497842
1.28647e-08
1.78615e-07
0.218418
2.60683e-08
5.18988e-10
0.000598549
2.56936e-06
1.08326e-08
2.75733e-08
0.0125239
3.16211e-09
0.00327459
3.67386e-10
0.000756226
1.60261e-06
0.00972614
3.19879e-10
1.81404e-08
2.49543e-08
7.89159e-09
9.27727e-09
7.53276e-08
2.29527e-11
1.23141e-10
1.78739e-06
0.00136758
2.57676e-10
7.03e-07
3.03999e-08
4.81131e-06
2.02208e-09
0.00082196
3.21239e-08
9.15645e-07
1.13893e-06
7.6669e-09
1.22867e-06
4.51745e-08
3.16315e-07
3.44332e-09
6.44959e-09
2.80806e-07
1.3938e-09
3.20223e-06
1.03835e-06
1.2935e-09
5.75993e-09
2.81964e-06
9.49924e-06
0.00554015
2.49751e-09
0.246372
3.95355e-08
6.62124e-06
3.5862e-06
5.48271e-07
1.56494e-06
0.00135975
8.24822e-08
9.52918e-07
0.000175998
0.00115443
1.53361e-08
9.28191e-10
7.48705e-06
2.3105e-08
0.000707509
4.90825e-09
2.5504e-07
2.21114e-08
4.38131e-09
0.00413605
1.21511e-09
1.08771e-08
1.85319e-07
4.42791e-07
0.00668192
0.000971275
8.73092e-09
2.4302e-09
7.55616e-11
1.11016e-08
1.06667e-08
1.74641e-08
2.9842e-09
1.3441e-10
3.90503e-09
1.93242e-10
5.39068e-09
0.00106597
0.000635179
2.14586e-10
2.61799e-07
4.08973e-09
8.39041e-09
2.09915e-09
0.00062297
0.0015455
2.22892e-07
4.34807e-09
1.38819e-09
1.65515e-08
3.69558e-08
8.82731e-08
5.80511e-09
0.195012
5.01571e-09
5.41024e-08
1.08704e-07
3.20355e-06
1.00087e-07
0.00440042
5.45761e-08
4.87515e-09
0.00128789
0.00218407
6.09035e-09
0.0187164
8.25567e-08
2.50448e-07
8.07136e-07
1.35179e-07
7.39098e-08
3.46118e-09
0.00605069
2.50842e-08
1.15706e-06
0.00106923
1.81814e-06
0.00282706
3.73034e-07
2.60524e-08
5.73116e-08
5.70945e-07
2.02834e-08
1.58517e-06
8.03859e-08
7.82517e-07
8.79363e-08
3.48178e-08
1.81279e-08
1.4787e-10
7.74297e-09
5.61322e-10
1.0227e-11
2.75846e-09
1.84579e-08
1.37735e-07
2.37778e-09
3.50029e-11
8.10989e-09
3.11453e-07
6.46212e-09
2.12909e-10
1.46875e-08
4.15397e-08
4.39066e-09
9.02369e-05
1.50471e-07
0.0047161
2.2439e-09
2.04839e-07
0.00432639
2.99001e-06
4.05579e-10
1.05174e-08
0.00422507
9.41351e-09
2.93036e-10
6.84593e-08
0.00416915
1.69699e-08
1.3066e-06
0.0257517
2.99291e-08
1.97928e-07
4.20162e-07
6.91256e-06
2.68027e-10
8.43186e-07
1.05564e-07
3.63136e-09
0.0276537
0.993353
0.00375645
1.36174e-07
3.03671e-08
0.0161945
8.77933e-07
1.68682e-07
1.52522e-08
0.00203998
3.86115e-09
0.0573333
6.88386e-06
0.00113131
1.42539e-07
0.0048175
4.86425e-09
1.9326e-08
2.83319e-09
4.69235e-07
1.09793e-06
7.15825e-08
1.39813e-06
9.62248e-10
1.66023e-07
4.15936e-10
2.20049e-10
4.4472e-10
0.710295
5.47557e-09
3.66664e-10
1.25169e-05
1.14629e-08
0.000476358
4.3865e-08
2.12513e-08
1.20192e-09
5.08643e-09
3.65471e-07
9.51297e-08
3.74513e-06
7.47542e-09
5.85342e-08
6.34017e-05
3.10426e-08
3.07354e-10
2.68489e-06
0.031888
5.80782e-07
9.07177e-10
0.00262837
0.0450447
8.32737e-07
4.73623e-08
6.18061e-09
3.7918e-06
6.49461e-08
4.09006e-09
8.3153e-11
5.24777e-06
1.86976e-05
1.42528e-06
0.0034855
6.82303e-08
9.5094e-08
4.70594e-06
1.44049e-08
4.14677e-08
6.31283e-09
1.23661e-06
3.84477e-08
2.26057e-06
0.00330154
8.13071e-08
3.16222e-13
3.34386e-09
2.86313e-07
2.67772e-07
3.80927e-09
1.15269e-05
0.000206497
2.07097e-05
0.0246203
1.43757e-07
9.00532e-07
2.2349e-08
6.77407e-08
6.38638e-09
4.18476e-10
0.00186912
1.41995e-05
5.05989e-08
1.01332
1.0973e-07
0.00774924
9.18751e-06
0.0370206
4.96045e-08
5.9627e-08
1.55933e-09
7.8285e-07
2.53634e-07
0.00619333
1.35872e-07
2.78332e-08
8.48796e-09
5.7671e-07
4.8572e-08
5.65321e-10
0.0595805
7.47499e-08
1.82482e-07
1.21489e-07
9.27153e-09
2.81437e-09
9.77146e-06
0.00239298
1.34208e-08
4.32346e-10
1.02651e-10
0.0026506
0.00889618
8.74632e-09
0.00100116
1.73967e-07
1.46433e-08
1.46004e-07
3.0104e-08
3.84916e-08
5.88275e-09
0.00128906
0.0019595
0.00653217
0.0071601
9.21541e-09
2.19978e-08
4.40936e-08
0.147131
0.0068288
6.28144e-10
0.00376313
1.41604e-07
5.96504e-10
1.76739e-08
1.01587e-08
7.33069e-09
1.44795e-09
3.73068e-09
1.20001e-09
0.0061811
1.22925e-09
6.32538e-08
3.51018e-06
4.29685e-10
8.26179e-08
1.25459e-07
4.25694e-09
2.04686e-09
1.84988e-05
1.01738e-07
2.08713e-08
0.000457374
1.35649e-06
1.45802e-08
1.51496e-08
1.93293e-08
2.75415e-08
1.80578e-08
5.56483e-05
3.1459e-08
1.0512e-08
1.88917e-08
1.96551e-08
2.3385e-07
0.000363081
1.82021e-08
1.41254e-07
0.000749396
2.22822e-08
1.05905e-06
8.79241e-09
2.2719e-07
0.000764441
5.48339e-05
0.00645924
0.000547208
2.88226e-06
2.6927e-10
0.00114893
7.9646e-10
8.43551e-07
1.22846e-07
1.77174e-07
7.4214e-05
2.10235e-08
1.07244e-08
2.68712e-07
1.56429e-08
4.78778e-09
2.02357e-07
2.59148e-08
4.57343e-07
0.00131566
4.5296e-09
7.4156e-07
4.49635e-08
2.18943e-08
2.97278e-10
4.29354e-06
8.1446e-07
3.09288e-09
7.08573e-09
2.72486e-08
0.000831612
4.32076e-06
2.13483e-07
0.0761043
6.51932e-11
3.91906e-12
1.1128e-08
3.0479e-10
1.01469e-06
9.36509e-09
3.94114e-07
3.84654e-08
8.17305e-09
8.75086e-08
6.44467e-10
0.000799612
1.53499e-06
5.46638e-05
1.26944e-08
2.08286e-09
1.99049e-08
1.76788e-08
9.93977e-06
2.88948e-08
0.00342523
1.73396e-07
3.94891e-09
6.20993e-09
4.08651e-06
1.90839e-07
0.00127285
3.18307e-08
0.0098898
0.00435811
3.15093e-10
6.08417e-06
0.00203901
0.000796171
2.88442e-08
0.000886356
0.00154927
2.17938e-06
1.37617e-07
3.25121e-07
7.99305e-10
2.82427e-07
4.65878e-07
6.26429e-06
3.26857e-07
4.87937e-07
4.45188e-07
9.43528e-05
6.2597e-06
7.14561e-05
2.74154e-06
1.80489e-09
0.0168298
0.00805945
1.07169e-07
0.0529628
4.25205e-06
3.57691e-06
2.84928e-07
0.013073
4.52409e-06
0.0153969
9.55582e-06
4.50603e-06
3.81905e-07
6.57228e-10
0.00710221
8.12551e-06
0.00123997
4.73929e-08
2.1982e-08
8.09276e-07
2.70161e-08
1.41418e-06
1.51319e-08
7.88099e-06
8.40764e-09
1.90051e-06
4.53428e-09
5.37291e-09
2.37249e-07
0.00104994
3.83747e-05
0.00621022
0.00426988
2.95625e-08
2.04347e-09
0.000770702
1.87758e-06
0.000562492
0.00131326
1.86646e-11
0.00527789
2.96846e-07
3.26998e-08
1.04511e-08
2.27967e-05
2.02424e-08
0.000799706
4.05281e-09
2.75797e-10
0.00235423
0.0100294
2.52634e-08
0.279157
0.00073695
3.01637e-07
1.59346e-08
3.71109e-07
0.049739
0.000719259
8.54866e-08
0.0346565
4.83049e-07
1.09129e-05
9.50221e-08
0.000698368
8.86917e-07
0.0485726
2.87381e-09
0.0168231
0.00565091
1.38175e-08
0.0314363
3.33203e-08
1.22107e-08
4.54445e-08
8.3597e-08
1.56506e-06
5.56374e-10
1.1949e-08
0.00134084
1.63472e-10
1.63478e-09
0.00444156
8.47586e-09
4.35511e-06
6.23448e-07
0.00110272
3.35317e-07
0.00463237
1.7341e-07
3.6828e-07
0.000745019
0.555271
9.34067e-12
3.59737e-06
0.000523451
2.08563e-07
0.0107726
0.00336984
8.45384e-06
1.32219e-07
1.49525e-07
1.9892e-08
0.00222127
3.55856e-08
2.29479e-08
7.9793e-08
1.22045e-08
1.09071e-09
0.0143942
5.91794e-08
0.00480001
1.74138e-06
6.3582e-07
7.83173e-07
1.00347e-06
1.57077e-07
6.60983e-08
1.04997e-10
3.44751e-08
1.72967e-06
3.82708e-07
0.0697374
5.63389e-09
2.5243e-07
2.0168e-08
1.93299e-07
6.25915e-09
1.2048e-08
2.15972e-08
0.00154246
0.00357616
6.75085e-07
4.62536e-09
3.49357e-09
3.33991e-05
6.99878e-09
1.53429e-09
1.55157e-10
3.5809e-08
0.0119059
3.30843e-09
3.43182e-06
1.28972e-06
5.31017e-07
3.07011e-09
1.61022e-08
3.3545e-06
1.73355e-07
2.92316e-05
8.94933e-07
2.18593e-09
1.6816e-09
5.83473e-10
2.30936e-06
4.88454e-09
0.00592541
9.23715e-06
6.89897e-07
3.46869e-05
5.99357e-09
3.27029e-09
9.44685e-10
0.00110658
2.12771e-07
1.09472e-07
3.35384e-08
2.09834e-08
1.25708e-09
0.00823764
3.69031e-07
9.45154e-06
1.57467e-06
4.8277e-09
0.00217853
1.55576e-08
6.42321e-09
1.05907e-08
5.42357e-08
2.70517e-07
6.27618e-10
5.10076e-07
6.38821e-07
1.0962e-05
5.5042e-08
3.60636e-10
3.21248e-06
9.55926e-09
0.00287538
5.74436e-08
6.04582e-09
2.7833e-08
3.57533e-07
0.00114295
0.000558916
3.26388e-07
2.51479e-05
0.00167379
0.000543519
0.292932
0.000784295
2.12151e-07
4.29246e-10
0.00298141
0.000348768
1.70306e-07
6.25934e-06
1.74301e-09
2.47351e-05
3.16635e-05
8.03796e-08
1.7555e-07
6.48036e-06
3.41284e-10
0.000430884
2.55846e-09
4.95636e-07
0.175755
2.6039e-09
1.26086e-05
5.84979e-08
9.01152e-09
1.00282e-08
4.67602e-05
1.22187e-08
2.79963e-09
6.3157e-07
5.08169e-05
8.82847e-10
0.000432115
0.000820513
3.84392e-08
6.15165e-12
1.36746e-10
0.000245635
3.42562e-05
5.83457e-05
5.19004e-09
1.00193e-08
2.48861e-06
9.32737e-05
4.62056e-05
0.000224464
0.00678122
1.21887e-10
0.00273103
1.38217e-08
2.75442e-09
0.000939761
2.85966e-08
9.87146e-10
0.000426421
7.37961e-11
1.0458e-07
1.22355e-07
2.63143e-08
1.72487e-08
6.5265e-09
1.79182e-10
6.35817e-10
3.69858e-07
0.00779523
0.00399995
3.25591e-07
6.75004e-08
4.65461e-12
0.00104275
0.00397821
0.00573252
0.101025
6.38899e-09
2.20352e-05
4.03012e-06
3.61395e-09
5.85451e-10
2.39511e-08
1.23057e-07
2.40031e-09
1.75657e-07
1.30978e-06
0.00111285
0.00390351
5.92322e-07
2.00957
2.03066e-10
1.16935e-08
2.2836e-07
0.00102345
5.29458e-07
0.634286
3.90806e-07
2.57936e-07
2.07769e-09
9.66761e-09
2.76932e-07
0.00108574
6.01468e-09
0.0033375
7.76528e-10
0.033865
0.00191898
0.838572
6.02379e-10
3.32935e-11
1.10049e-08
1.16519e-09
4.78822e-08
6.05283e-06
6.61821e-09
0.00069042
6.59303e-09
0.00299436
7.40183e-09
4.54176e-08
3.05136e-08
0.00349972
1.99838e-07
2.1675e-10
9.95254e-10
8.5588e-10
9.3282e-08
1.52798e-07
0.000963347
0.000937459
2.12764e-09
2.17213e-08
1.06229e-10
5.42614e-11
4.33679e-10
2.31327e-08
3.68746e-06
8.00605e-09
3.02066e-10
1.0519e-10
0.000407936
0.00218735
1.11658e-06
0.000756395
1.22093e-08
0.00575752
1.60693e-07
1.44549e-08
1.79528e-11
4.85476e-09
0.00100054
1.57112e-11
4.07445e-07
9.05031e-10
0.0155294
7.73678e-07
0.00479184
2.41407e-06
0.000740945
6.66559e-10
4.55928e-10
0.0172255
0.261745
6.076e-07
0.0145377
1.62836e-08
0.00263305
1.59352e-06
5.13906e-08
9.24187e-08
5.91014e-06
6.2905e-09
0.000138973
0.000728439
4.89274e-08
6.96196e-09
1.45705e-06
1.46527e-08
0.000635759
0.00327364
1.12335e-06
7.60068e-10
0.00383475
5.82859e-09
8.51991e-05
0.0114118
4.04269e-06
4.85159e-11
2.04091e-05
2.01275e-06
0.138144
4.30544e-07
2.60513e-06
7.01624e-06
1.17888e-07
2.66082e-11
3.53664e-06
3.98458e-07
4.32716e-06
2.0747e-08
1.71525e-07
2.10601e-06
0.431668
1.93286e-10
3.88858e-10
1.61875e-09
1.91143e-11
2.18035e-09
0.000480821
8.85236e-06
0.000904258
1.00883e-06
3.75324e-06
0.000925777
6.36808e-12
3.28521e-07
3.80595e-10
9.48067e-09
1.45641e-09
4.09832e-07
0.00136737
4.15017e-07
2.38977e-09
4.7522e-09
3.56548e-08
7.51894e-09
2.58072e-09
0.0135651
1.95581e-07
0.0364204
0.0656227
0.385298
1.30968e-09
0.204674
1.27488
1.80373
0.669098
6.42041e-10
4.31695e-11
3.60157e-08
2.5511e-06
1.19688e-06
0.00295775
0.000705805
5.01743e-07
5.64612e-07
7.2719e-08
0.000496405
3.94193e-09
9.47963e-11
0.00301762
0.000585201
0.000488565
2.16176e-10
0.00207888
2.07862e-06
1.44053e-08
2.19594e-05
1.2074e-07
2.01872e-06
5.08707e-08
1.81055e-06
5.77931e-09
1.41409e-07
4.0205e-05
7.85847e-07
1.46149e-08
3.2361e-05
9.70821e-07
1.7949e-07
5.87745e-05
1.35491e-09
2.47669e-07
9.39355e-07
1.72765e-06
1.2553e-08
0.0646641
2.70269e-09
2.88928e-08
4.13602e-09
0.00209804
0.00206988
4.50691e-08
5.77551e-08
0.00618715
0.00102865
1.07567e-08
1.28714e-07
3.36848e-08
0.173715
2.62811e-08
0.00361975
2.48265e-07
0.0426278
7.82158e-05
1.50093e-09
0.0647728
3.40945e-08
0.21344
5.06257e-10
4.56996e-05
6.57958e-05
1.65849e-09
1.86317e-08
3.12109e-08
0.0230956
3.52609e-10
0.000737276
1.08778e-08
2.26053e-07
1.46255e-08
1.37191e-08
3.85655e-07
9.44366e-07
0.137537
9.28593e-08
4.23676e-06
0.0406767
2.60775e-08
0.000800092
2.17671e-08
5.55334e-08
5.90521e-08
9.92328e-08
3.38533e-11
4.67874e-10
4.62756e-11
3.53992e-08
1.17689e-08
0.00112139
3.59372e-07
4.27248e-08
8.92936e-10
2.1864e-08
0.197969
5.30371e-05
1.49532e-07
1.05718e-07
2.05208e-07
6.27349e-09
6.91989e-09
4.21777e-07
6.13508e-09
4.7365e-08
8.79402e-06
6.05507e-09
2.08385e-09
5.75617e-09
0.311751
1.33917e-08
1.1548e-07
9.59322e-10
4.11091e-09
0.00284001
5.06164e-09
2.70072e-11
0.000852915
1.4286e-10
1.32157e-10
0.0142541
0.00105457
2.84344e-08
3.95921e-08
6.17396e-10
4.60456e-08
1.02624e-07
5.00867e-07
9.63938e-08
2.07547e-09
1.70364e-05
2.38653e-08
0.123621
1.10789e-09
6.6739e-10
8.22461e-09
5.28276e-08
0.171018
2.5798e-08
3.60702e-09
1.28382e-07
6.73009e-08
2.57962e-09
5.40133e-07
0.0233904
1.71044e-08
5.612e-10
1.29106e-07
2.94982e-09
3.64848e-07
4.89104e-11
4.53378e-07
4.73229e-10
0.060364
6.0949e-06
2.56004e-09
1.08614e-09
0.00126411
9.87294e-10
0.00104088
9.85498e-09
1.17688e-08
2.01785e-07
2.0315e-07
0.000774535
2.73456e-07
0.000922684
0.00112101
0.542516
8.19403e-08
0.000752137
1.92682e-07
5.08045e-10
5.72431e-08
0.00236733
0.000688228
0.000781362
5.83833e-10
3.964e-08
1.51538e-10
0.0029269
1.79493e-08
2.74318e-07
3.15785e-06
0.00589769
1.98922e-08
3.93946e-09
7.6569e-08
5.39857e-06
1.189e-09
3.54612e-08
6.01972e-07
3.95826e-08
1.26587e-11
5.32397e-05
0.00296681
1.25935e-07
5.27952e-08
4.51446e-08
0.000119413
4.1462e-08
0.0016204
1.5705e-07
0.019929
2.23581e-06
8.31084e-06
1.34721e-10
1.73964e-08
3.87361e-09
4.09957e-07
1.86412e-09
4.95833e-08
6.27272e-12
8.15126e-06
0.00692991
0.00150827
4.07527e-05
3.87279e-10
0.012782
0.000918474
0.00271361
1.77221e-08
4.88601e-06
1.10191e-07
1.06387e-08
7.59076e-09
2.38666e-09
9.76741e-08
7.61629e-07
8.17941e-09
8.7652e-10
7.61092e-08
1.05483e-08
0.625699
0.0010085
0.0808589
2.33996e-10
3.03059e-09
0.000786964
4.80239e-10
3.4413e-08
1.01253e-08
7.20146e-05
3.26661e-10
3.4811e-07
8.14805e-09
3.84123e-09
2.00123e-05
0.00268397
0.0012055
2.68748e-08
0.00127917
7.01299e-10
2.60239e-07
0.227994
0.00200949
7.81558e-09
2.97548e-06
4.34238e-10
5.40473e-08
6.77333e-06
1.66996e-08
0.000170805
4.84246e-09
1.9316e-09
6.17161e-06
1.87807e-07
5.81094e-08
1.08682e-08
7.12522e-09
6.05365e-08
2.41305e-08
4.25739e-09
2.51041e-09
0.00125138
0.000691118
2.79138e-09
0.00139192
1.45856e-10
5.6035e-09
0.070576
1.20095e-08
1.04105e-10
0.000647871
2.37571e-09
7.2309e-11
1.05401
1.58495e-10
3.0097e-11
1.09845e-06
0.00156609
3.73421e-09
0.000694135
7.9123e-10
4.64431e-08
0.00083276
1.24146e-07
1.67408e-05
1.90747e-11
3.03199e-09
2.30377e-08
3.89215e-09
0.110471
0.000756743
0.000251677
8.65492e-10
0.000864218
1.58677e-10
6.62735e-09
8.52332e-10
0.00174818
3.48863e-05
1.95694e-07
2.50223e-11
1.72776e-08
0.000899341
1.8865e-05
7.5909e-09
4.80614e-06
0.00185348
0.00143097
6.4955e-07
0.00144924
1.81735e-05
0.000795299
7.27172e-07
0.00113959
6.00441e-06
0.000143997
3.51819e-08
0.0135379
7.83632e-06
1.81714e-05
8.50791e-11
1.07849e-07
1.8536e-09
7.53459e-07
0.0210869
2.78809e-08
1.68616e-07
1.44655e-05
4.61369e-09
0.00875068
6.865e-09
4.7701e-10
1.8916e-09
8.84754e-10
8.89497e-08
2.02048e-09
1.32657e-08
2.06015e-09
0.237865
7.62935e-07
7.43137e-11
4.8244e-11
1.07421e-09
2.16926e-09
2.474e-08
0.779282
4.21126e-05
1.87261e-05
1.3109e-10
6.58198e-07
1.72995e-07
0.00086167
5.26894e-07
3.01306e-07
9.41131e-09
1.68065e-08
5.01621e-08
3.90321e-06
2.01775e-06
0.00316509
0.00124967
1.46564e-09
0.000109446
7.07187e-06
8.62241e-10
5.52787e-08
9.11641e-08
2.19841e-09
3.88449e-08
0.165702
0.00115007
2.66278e-11
0.000254819
3.06845e-09
0.000814037
9.75058e-07
0.000664158
0.00026907
8.28035e-10
1.16652e-09
8.83848e-09
4.85572e-07
0.000159719
0.228516
0.0268803
6.04738e-08
0.139108
0.0831312
2.38904e-10
2.01338e-06
0.105855
8.91732e-05
1.70474e-06
5.72884e-05
8.09635e-08
0.00170101
5.8707e-09
0.210524
0.000713291
7.06753e-10
0.0577712
0.000145273
2.12122e-09
0.0011345
5.52953e-10
4.40765e-09
0.201886
0.0272812
1.60503e-09
2.35111e-09
2.44319e-08
3.07581e-10
1.79967e-09
1.97585e-06
4.40838e-10
1.94563e-11
0.00043678
9.09995e-11
2.54548e-09
3.55736e-09
0.065487
8.91032e-09
3.02916e-06
1.33462e-08
2.13942e-09
3.95829e-07
1.23558e-06
0.0221581
0.000714599
1.37437e-06
8.53828e-07
4.42592e-08
0.00565308
0.00577219
6.04709e-09
5.9525e-07
3.85844e-09
0.000768272