/*--------------------------------*- C++ -*----------------------------------*\
  =========                 |
  \\      /  F ield         | OpenFOAM: The Open Source CFD Toolbox
   \\    /   O peration     | Website:  https://openfoam.org
    \\  /    A nd           | Version:  10
     \\/     M anipulation  |
\*---------------------------------------------------------------------------*/
FoamFile
{
    format      ascii;
    class       volScalarField;
    location    "94";
    object      T;
}
// * * * * * * * * * * * * * * * * * * * * * * * * * * * * * * * * * * * * * //

dimensions      [0 0 0 1 0 0 0];

internalField   nonuniform List<scalar> 
59698
(
286.607
292.868
293.307
293.544
299.955
283.15
292.53
293.496
303.15
303.15
303.15
293.179
283.15
293.767
300.135
303.15
294.066
293.45
293.176
293.815
303.28
302.13
303.149
303.15
295.695
293.448
293.103
298.35
295.714
295.334
300.29
303.15
303.15
298.815
302.371
293.266
283.377
283.462
293.444
297.54
296.216
283.15
296.56
293.849
283.15
296.583
293.304
295.26
294.643
293.577
293.059
293.341
292.349
294.538
294.398
293.197
294.279
302.177
294.243
282.976
291.242
294.297
299.617
293.204
286.798
294.464
303.15
293.178
293.176
303.15
283.15
293.776
283.135
298.517
283.15
297.729
294.538
287.694
291.646
294.157
299.957
292.579
303.15
293.442
303.697
294.506
294.183
293.556
298.881
293.882
303.15
294.738
298.981
293.542
293.771
293.515
299.06
293.521
298.907
283.15
299.112
283.128
285.914
284.493
293.369
283.15
293.47
293.132
303.15
283.15
293.401
293.655
298.866
283.15
293.421
293.236
293.409
293.421
293.441
303.15
293.253
292.837
293.439
293.294
293.376
293.246
295.48
303.15
293.382
292.889
287.511
292.984
303.15
292.777
290.232
291.657
292.896
303.15
293.124
293.465
293.464
293.767
290.851
292.119
292.907
293.581
293.38
293.386
293.451
301.183
283.138
303.15
288.085
293.27
294.057
293.37
293.309
293.475
296.963
283.15
289.679
293.438
290.759
299.554
297.814
296.696
292.907
280.913
299.359
292.197
300.366
283.151
300.935
301.001
285.542
292.809
303.15
283.237
303.15
298.932
302.767
300.415
298.645
293.24
298.712
300.856
300.766
293.859
292.994
294.72
294.357
293.667
296.589
297.45
299.392
293.591
293.924
296.608
303.155
299.384
283.15
284.151
292.452
292.799
299.301
290.947
297.342
295.414
293.59
298.045
293.134
293.708
299.13
303.15
294.872
293.456
293.28
294.063
297.846
296.012
282.058
296.32
292.639
299.284
295.272
299.337
295.83
291.352
295.653
284.983
283.15
296.161
295.172
295.834
293.429
294.819
295.987
293.739
293.566
295.003
293.237
293.99
289.924
303.15
294.638
293.583
282.928
285.584
293.628
293.302
293.828
294.945
295.147
303.15
293.592
294.752
294.119
295.307
292.853
293.301
303.12
283.15
294.456
294.341
294.822
295.325
292.667
303.15
293.474
293.291
293.327
286.637
303.101
293.308
287.321
293.709
292.905
293.632
293.98
303.15
303.15
292.904
293.337
289.081
295.111
290.715
292.95
303.15
286.009
294.609
301.415
291.292
293.398
293.416
294.887
293.605
292.716
293.621
295.1
292.673
291.441
283.15
283.15
292.612
293.237
293.201
287.836
293.657
294.631
293.059
293.118
293.316
293.371
283.15
293.713
292.679
283.15
293.726
283.15
293.589
293.875
293.332
294
303.15
298.293
286.256
294.107
293.714
292.435
283.15
300.173
290.667
298.871
281.572
303.15
293.808
293.696
292.557
298.464
293.834
295.134
295.543
292.634
294.983
298.949
293.306
295.606
301.427
293.73
289.168
292.827
293.043
301.354
303.15
284.203
300.758
302.09
293.327
293.637
303.15
293.302
293.85
303.15
295.008
283.15
283.15
293.553
290.469
293.544
282.756
292.664
283.15
292.738
283.15
296.425
303.15
293.541
292.914
283.15
303.15
283.15
292.713
293.306
293.513
293.507
283.148
293.504
283.15
283.15
293.41
293.819
303.15
294.601
290.727
303.133
301.992
301.773
293.519
292.671
292.793
288.503
295.724
292.731
293.361
293.55
293.483
295.965
293.284
295.675
302.253
297.906
303.15
295.277
303.15
293.441
289.797
292.982
283.576
302.295
302.83
294.383
293.421
290.793
281.956
293.368
293.326
303.15
294.393
293.273
283.15
295.498
302.786
285.305
291.841
287.581
303.15
303.15
298.662
292.865
291.941
283.15
292.191
303.15
293.651
293.149
302.913
294.877
283.15
293.465
299.204
292.736
293.297
294.106
286.314
294.009
293.625
290.677
303.15
284.313
293.325
290.088
293.389
283.969
293.906
303.15
293.57
293.407
291.89
294.114
294.99
295.103
283.15
283.15
283.15
294.052
293.141
302.759
292.151
293.702
294.016
293.381
293.599
293.38
283.15
300.934
293.368
293.505
293.384
291.96
292.877
299.067
290.529
291.392
293.475
292.081
293.488
293.436
293.507
289.591
283.15
283.15
295.179
299.053
294.676
283.15
303.15
293.342
303.15
293.359
290.281
294.702
290.7
283.151
283.15
291.623
293.353
283.15
293.389
283.15
283.15
289.558
293.957
293.396
283.15
283.15
302.995
294.931
292.608
289.853
288.757
293.263
301.493
303.15
293.426
293.559
283.15
283.15
286.368
293.392
303.15
290.015
292.982
293.116
281.281
289.379
291.844
282.242
283.132
290.839
283.147
293.352
303.15
293.475
303.15
292.888
293.311
283.15
295.584
291.514
291.83
283.15
303.15
293.499
283.123
293.321
303.15
286.377
293.342
291.207
303.15
292.07
293.456
283.15
291.903
290.958
293.526
293.093
292.28
295.523
303.15
283.15
293.565
285.27
293.207
292.363
283.15
292.43
293.185
289.713
291.65
291.957
296.413
293.079
293.123
283.15
293.37
303.15
282.782
283.15
283.15
290.924
290.974
283.15
293.46
291.043
291.618
292.896
283.15
291.078
293.319
293.297
292.535
293.302
292.111
291.113
291.144
293.267
297.843
285.617
293.263
283.15
291.152
291.926
302.954
295.264
293.733
290.913
292.232
292.023
292.082
295.601
283.15
293.223
291.364
293.064
292.145
292.077
293.252
293.2
286.938
293.495
292.773
283.15
303.15
292.039
294.042
292.802
293.721
293.659
283.15
283.15
293.17
288.572
291.779
292
293.252
293.018
303.147
293.592
292.388
293.668
293.391
290.999
283.791
301.825
291.64
293.689
293.774
291.802
288.919
283.15
293.522
292.813
293.534
292.863
291.679
283.15
295.319
293.206
292.881
292.428
293.516
283.15
283.15
291.896
293.01
291.9
292.954
291.991
295.762
290.797
297.186
293.964
291.728
290.813
293.619
293.624
292.589
283.15
292.87
283.15
283.15
292.548
291.772
293.24
303.15
296.518
293.124
292.09
283.15
293.671
283.15
293.753
283.15
293.441
297.64
289.339
293.163
303.15
283.15
297.862
297.945
293.192
292.061
295.609
297.204
295.54
283.15
296.202
293.304
282.867
283.15
290.531
300.327
283.15
291.102
292.815
303.15
297.635
287.917
293.092
293.822
283.264
297.042
294.591
294.531
283.595
283.446
292.465
286.011
293.061
296.89
293.734
298.126
283.15
292.919
290.275
295.004
303.15
293.418
296.884
283.15
298.218
295.934
292.317
293.853
296.738
293.148
283.15
294.925
294.551
283.15
283.15
292.343
283.15
289.439
293.559
292.409
294.525
294.543
297.39
283.15
293.67
290.458
294.87
295.29
295.317
283.15
284.364
298.843
293.573
288.64
297.666
301.102
293.496
302.769
283.15
283.15
283.15
292.667
292.764
283.15
292.553
293.575
298.052
283.164
292.522
291.711
283.15
282.353
283.15
283.15
292.576
283.15
303.102
298.489
303.15
292.55
284.563
288.617
292.546
282.183
293.472
283.227
283.15
283.15
291.271
294.727
296.691
283.15
295.803
292.657
292.67
283.15
292.655
292.683
283.161
283.15
283.132
283.173
303.15
283.15
283.15
283.15
283.15
291.185
292.952
291.047
283.15
294.64
293.275
283.15
285.384
283.15
292.753
283.15
299.44
295.182
291.977
292.587
292.759
295.877
303.15
295.878
292.893
283.15
292.598
283.149
293.312
283.15
292.048
283.15
284.107
283.15
290.384
283.15
293.504
291.774
294.914
292.687
291.904
292.716
292.101
283.15
283.15
292.71
293.546
293.046
293.215
283.15
294.324
296.329
296.016
283.15
294.117
295.069
293.419
296.748
303.15
283.15
295.894
292.368
283.15
292.945
293.416
283.15
295.889
292.792
293.138
293.576
283.15
293.26
293.338
283.15
303.15
293.039
292.954
292.888
295.888
297.651
294.002
296.67
290.214
294.986
295.618
293.565
291.431
290.737
286.588
292.116
283.15
289.765
283.15
296.561
295.751
291.919
290.299
283.15
283.15
297.547
291.278
290.052
296.119
296.762
293.397
295.393
285.34
294.021
293.187
293.361
283.15
293.38
292.939
293.24
293.064
293.292
293.395
303.15
293.341
293.498
294.489
303.15
293.562
296.666
294.178
293.516
293.857
294.464
295.681
292.888
303.15
303.15
283.15
295.553
283.15
293.573
291.472
302.705
298.554
293.047
295.019
302.158
297.862
294.926
295.847
293.714
293.132
295.687
293.881
290.667
287.775
294.115
283.15
293.136
303.15
283.168
294.721
300.406
294.704
303.15
303.15
292.73
293.395
294.905
292.727
293.006
292.635
283.15
293.741
293.22
298.362
283.15
294.558
295.251
302.801
293.051
293.697
302.798
293.208
293.537
302.806
292.738
294.567
295.186
296.451
295.373
296.002
295.197
293.479
292.91
303.15
295.491
296.541
293.256
283.15
293.21
297.709
293.096
293.632
293.126
295.355
292.795
287.742
294.507
290.907
292.828
303.15
293.573
288.107
283.15
303.15
294.047
294.203
295.985
294.326
289.343
303.15
303.15
293.113
283.15
295.024
294.444
294.315
294.431
293.951
303.15
303.15
284.107
294.32
295.147
303.15
294.082
296.146
303.15
282.451
292.917
283.566
291.987
294.359
292.923
293.21
294.108
303.15
293.78
291.73
293.102
292.934
293.001
293.566
294.391
301.059
303.15
297.239
302.908
293.024
301.666
287.114
291.092
295.272
297.732
297.143
289.464
289.162
293.329
283.15
288.123
292.877
303.15
293.338
300.988
293.129
294.508
294.324
294.94
283.15
302.396
289.606
294.815
294.647
292.519
283.15
303.15
293.514
286.77
283.15
292.943
292.983
294.666
293.475
304.919
293.337
295.046
292.736
295.298
293.403
287.087
294.944
303.15
292.728
292.909
292.917
290.193
293.282
300.809
301.124
293.371
295.895
299.123
302.606
293.685
293.372
293.055
302.577
287.718
300.258
291.914
292.138
295.941
295.795
295.393
293.306
295.26
303.15
286.066
298.85
295.795
293.753
292.991
297.236
293.72
298.994
293.77
293.132
293.66
293.574
303.15
293.359
303.15
292.583
292.865
294.042
292.086
293.175
285.414
292.806
303.15
294.48
291.964
288.946
292.439
293.377
303.15
303.15
293.554
293.425
283.15
303.15
293.133
293.509
294.144
283.15
303.15
292.817
293.318
293.284
292.955
285.248
292.619
283.15
284.967
303.15
293.431
283.15
303.143
303.15
297.274
290.529
293.222
297.355
296.7
292.329
303.15
293.341
293.347
296.908
282.327
296.661
293.036
303.15
293.387
303.15
296.784
284.582
283.15
291.181
297.606
293.496
302.761
297.494
295.76
297.46
291.409
297.627
283.15
283.15
297.492
297.425
294.318
303.15
292.809
291.916
293.735
293.668
294.08
294.363
294.16
293.334
291.255
293.251
300.612
285.613
297.021
303.023
293.204
303.15
294.741
283.15
299.951
303.15
303.15
293.499
283.15
300.654
293.198
283.15
303.15
292.054
292.899
303.15
293.493
291.79
293.095
293.674
302.96
303.15
297.439
293.756
283.15
289.037
292.018
293.171
283.097
303.15
293.122
303.15
293.205
303.15
293.153
297.88
297.779
296.959
297.553
294.287
293.144
286.81
293.749
283.15
292.022
298.046
294.837
296.66
283.15
301.152
293.203
303.15
293.317
297.01
296.291
303.15
303.15
293.283
288.942
287.352
294.317
289.22
289.621
303.15
303.15
283.15
292.114
287.799
303.15
299.76
303.15
287.572
303.15
303.15
303.15
291.7
290.741
299.278
303.15
292.592
292.928
303.15
291.92
287.3
282.684
293.722
283.733
295.843
291.701
292.133
283.314
293.658
292.228
303.15
303.15
285.184
288.657
292.711
283.575
283.285
292.915
289.887
293.126
283.15
295.284
291.706
294.637
287.698
285.22
293.94
303.15
292.19
284.064
290.957
294.018
300.918
291.98
292.389
292.556
293.509
298.084
292.206
292.922
293.495
283.9
286.79
283.772
292.978
284.862
292.867
284.221
303.15
293.992
290.563
288.454
292.57
303.112
303.15
293.394
284.409
294.784
300.63
284.979
285.121
298.413
294.55
284.945
282.315
294.007
303.15
287.37
283.15
283.131
285.154
303.15
297.625
283.151
292.996
303.15
284.928
300.028
303.15
283.15
289.24
295.105
296.49
297.831
283.513
303.15
285.25
291.854
293.362
283.15
293.927
283.15
303.125
293.454
303.15
294.34
293.464
292.613
293.425
293.425
293.574
300.136
298.995
285.916
283.138
299.321
293.601
299.42
303.15
283.15
293.377
296.301
285.77
292.942
292.788
288.101
293.753
293.563
293.154
293.548
293.54
296.754
303.15
293.689
293.547
303.15
288.565
293.574
283.15
288.195
303.15
296.127
293.573
303.15
296.85
302.679
290.228
292.505
286.897
288.131
303.15
283.15
303.15
283.15
283.15
294.164
293.577
283.14
291.91
283.207
303.15
288.311
288.774
287.968
294.281
288.268
294.9
289.063
286.22
303.15
287.404
291.753
292.992
303.15
300.566
292.907
289.592
303.228
303.15
299.147
293.499
290.462
303.15
293.432
290.514
293.502
297.733
297.161
290.17
295.042
303.15
303.15
290.273
290.297
283.917
295.156
283.152
283.567
303.15
283.788
290.228
303.15
283.15
283.001
283.15
290.353
299.827
303.15
290.328
303.15
303.15
283.654
293.804
283.15
283.149
303.15
293.27
292.423
303.15
303.15
291.364
283.127
290.959
303.15
283.14
293.464
290.993
290.993
300.724
283.15
290.996
303.15
294.725
294.232
303.15
303.15
303.15
292.523
283.15
291.128
291.879
303.15
283.14
291.298
303.15
303.15
303.15
292.416
283.15
293.58
283.15
293.788
291.63
283.15
296.142
303.15
283.15
291.549
291.431
291.413
294.078
283.15
293.468
291.777
291.822
293.856
283.14
283.15
303.15
283.15
283.15
283.15
292.968
303.15
293.617
294.239
303.15
285.302
293.662
293.204
293.484
292.945
293.561
297.21
292.993
296.725
295.913
292.532
293.473
292.957
292.19
292.28
293.479
292.183
298.951
293.639
287.283
293.244
304.958
283.997
292.368
300.343
283.134
293.554
291.74
303.15
294.338
296.49
295.228
292.629
301.435
296.205
292.199
298.957
293.109
302.824
297.594
300.384
292.318
285.248
294.208
289.31
294.344
295.91
297.383
292.778
296.653
283.15
293.223
294.763
292.783
283.143
299.564
293.017
288.106
293.087
283.15
297.894
293.728
283.15
293.604
292.498
292.975
295.068
283.15
293.104
298.412
293.736
300.334
292.878
294.444
292.871
293.609
298.451
291.701
292.485
284.623
293.488
292.677
293.363
283.15
303.15
292.498
297.132
298.073
301.561
283.459
292.501
292.852
293.565
292.407
292.4
303.151
291.675
293.653
292.541
283.139
292.59
292.569
292.803
301.992
293.902
292.684
303.187
293.705
293.171
283.15
299.004
292.839
302.105
302.826
294.674
292.769
293.238
292.055
293.427
292.682
293.536
283.15
293.224
292.675
295.149
302.943
293.045
288.186
293
298.912
293.006
283.158
293.132
292.339
293.464
292.697
295.255
293.325
302.927
293.27
292.682
291.267
298.237
302.944
293.281
292.723
292.742
298.511
294.069
294.315
288.189
289.742
293.351
294.461
289.075
294.119
292.919
289.333
302.815
292.836
293.355
289.43
293.385
293.299
294.024
299.711
292.777
294.614
292.217
293.467
292.811
293.137
292.791
295.051
287.183
298.571
299.529
289.329
293.072
293.176
294.783
295.977
293.357
292.772
293.336
298.687
285.524
293.077
292.927
292.821
292.811
292.82
296.221
287.993
296.575
293.337
292.864
293.167
299.577
303.15
293.412
292.859
292.991
296.961
293.403
299.694
292.873
293.41
292.856
292.86
299.655
293.625
292.894
301.302
292.077
283.15
293.152
294.341
292.003
289.333
293.417
303.15
294.297
301.436
293.456
293.19
292.889
283.15
293.295
301.37
287.259
290.352
292.986
283.15
283.228
295.961
293.133
283.15
298.924
291.964
290.402
290.569
283.15
303.15
298.522
293.432
294.398
295.703
295.016
301.377
293.369
301.184
295.292
293.01
292.091
303.15
293.611
300.039
295.445
295.689
291.922
302.833
286.646
295.642
293.883
292.397
296.208
295.417
283.15
291.139
292.611
295.754
294.106
293.069
293.356
292.659
296.432
296.074
295.218
296.197
294.297
295.78
294.788
292.939
291.979
295.612
295.814
296.774
300.259
297.34
297.454
297.949
301.251
293.07
303.146
283.148
290.49
283.15
292.64
301.784
303.551
295.262
303.01
303.129
291.143
283.15
292.09
292.666
290.855
293.137
300.599
283.15
291.102
303.15
293.067
293.476
293.615
301.07
295.236
293.166
302.012
294.057
289.226
302.269
286.673
295.41
291.733
292.616
294.647
300.561
302.959
293.23
289.818
289.042
294.069
295.288
294.649
295.879
292.848
293.226
292.549
294.208
294.247
295.786
291.135
292.941
292.972
293.774
292.975
293.432
290.954
294.089
292.896
292.177
293.346
293.395
294.701
293.338
293.348
293.551
286.565
302.169
291.964
299.931
296.662
294.71
292.824
295.976
303.15
293.175
293.139
292.953
295.298
296.777
295.482
294.338
298.695
288.437
293.319
283.142
292.923
291.346
291.609
293.349
293.35
292.66
293.355
296.164
297.881
300.887
295.598
294.841
293.511
292.831
293.845
295.389
293.747
295.506
294.702
289.675
293.416
295.693
300.952
296.724
293.434
303.15
292.593
295.698
293.367
294.716
283.15
293.637
292.379
293.478
290.617
292.993
293.639
293.602
292.915
293.277
295.199
293.161
295.385
290.855
292.435
293.622
283.15
293.636
292.24
293.739
293.569
295.101
295.183
293.165
293.158
295.479
293.015
292.991
296.657
296.187
293.433
297.932
292.877
293.912
293.364
293.695
293.668
292.316
296.018
293.075
296.425
295.429
294.965
299.987
292.902
296.154
295.11
296.783
295.665
293.661
292.867
293.028
292.972
292.816
293.411
303.15
294.007
289.374
283.15
283.15
292.523
292.941
293.222
299.293
292.977
292.9
293.55
293.788
292.915
292.617
292.832
300.854
286.361
287.364
293.277
293.892
293.73
292.939
294.223
292.823
283.15
292.971
291.721
295.914
293.281
293.196
292.711
284.19
288.496
292.318
294.622
293.443
293.31
303.15
293.169
293.606
293.774
293.252
292.014
292.972
293.163
293.494
303.15
287.151
291.363
293.442
293.29
293.652
292.019
293.512
291.374
290.509
283.15
283.15
294.589
293.424
291.662
294.156
293.506
291.587
293.115
293.613
293.097
303.15
283.411
292.814
293.59
290.627
292.721
295.842
293.206
292.074
285.216
292.973
289.292
295.572
291.023
293.907
302.029
294.375
293.605
283.15
294.273
293.204
296.896
293.818
300.507
291.969
301.267
292.648
297.613
292.809
294.612
293.398
293.75
293.437
293.926
295.034
292.926
293.411
293.357
292.991
293.457
292.182
292.986
293.457
293.454
293.459
292.77
292.069
299.356
293.972
293.881
283.15
283.15
291.124
292.776
294.357
294.573
294.047
291.636
292.199
293.623
292.327
294.097
289.77
292.798
292.178
292.133
292.796
292.992
293.604
290.942
293.092
302.66
290.513
292.685
296.797
293.348
285.563
293.405
298.653
303.388
296.196
293.646
293.176
293.12
298.421
293.782
290.068
292.881
293.941
286.383
285.951
292.732
292.756
293.284
292.941
294.03
293.386
292.774
293.742
293.556
293.06
294.731
294.951
293.373
292.26
292.254
293.062
293.692
293.71
293.383
292.729
292.943
293.271
293.265
293.393
292.94
303.15
303.15
292.776
291.997
295.683
293.267
292.88
293.104
296.996
293.32
291.967
293.539
293.509
291.252
290.809
292.801
290.873
292.734
293.68
292.616
295.393
295.465
293.31
294.524
294.508
293.761
292.729
303.242
293.155
303.15
292.834
291.766
292.739
296.089
292.965
293.376
293.152
292.605
291.152
294.38
294.512
283.15
303.15
282.891
292.773
301.983
284.047
303.15
293.365
300.875
294.263
283.15
291.753
293.053
292.88
293.046
303.15
303.15
293.355
283.15
296.671
293.319
295.554
294.345
294.942
293.889
292.697
296.774
293.281
283.15
300.787
303.15
303.15
297.766
293.858
294.85
294.738
293.014
283.15
300.973
292.103
293.208
291.233
291.802
303.15
293.165
292.95
293.21
291.014
292.792
300.84
292.804
292.667
292.656
294.449
292.201
292.683
283.15
292.167
293.717
292.686
296.687
301.952
302.711
293.572
295.793
293.65
293.213
291.447
292.105
300.575
293.04
283.15
291.818
290.469
290.343
290.516
291.801
290.476
283.15
303.15
297.11
293.293
292.501
295.104
291.545
297.957
283.146
293.498
283.667
293.457
293.466
292.986
293.294
293.357
293.349
292.172
294.957
303.15
295.675
284.939
292.89
297.801
298.036
293.774
292.08
293.351
298.075
293.374
296.181
293.418
292.439
298.68
292.775
294.561
298.112
294.131
296.554
293.862
293.349
293.352
297.004
293.302
293.053
291.94
292.562
293.077
293.3
292.748
291.937
291.512
291.253
293.716
295.875
292.07
283.15
292.534
293.419
291.863
299.668
291.872
294.104
286.32
291.134
290.755
292.06
293.87
292.801
293.494
292.377
293.395
292.748
293.201
283.15
290.847
293.397
296.834
292.615
296.33
294.094
295.976
297.512
295.571
287.431
297.25
294.027
295.387
293.2
294.177
297.509
292.758
292.609
293.418
292.772
290.558
294.816
293.356
293.842
293.57
283.15
290.094
292.473
293.605
293.402
293.171
293.275
292.311
293.098
293.711
293.275
295.598
298.738
292.843
302.766
301.076
303.15
293.803
294.235
293.401
295.413
293.445
295.137
293.735
293.672
292.107
302.51
283.15
298.124
290.028
294.385
292.768
300.302
292.96
288.345
300.867
287.19
290.685
290.299
292.992
283.117
291.996
289.932
282.404
293.563
293.485
293.612
296.769
292.317
284.908
291.419
302.414
292.656
292.301
297.403
303.181
293.035
291.647
294.854
290.928
292.731
293.496
293.226
284.325
293.241
294.576
293.104
293.172
291.427
293.447
293.841
293.038
292.965
293.587
300.294
293.15
293.539
293.596
294.647
300.448
290.231
293.589
292.965
298.926
293.377
292.401
293.478
283.221
283.15
297.201
293.225
285.07
297.044
283.143
291.982
292.09
298.593
293.578
292.453
290.664
293.317
283.15
283.149
292.387
293.209
282.637
291.895
292.099
292.441
303.151
293.612
293.217
293.632
286.009
293.094
292.387
292.096
297.336
285.99
283.744
293.363
284.419
283.289
293.773
293.674
293.794
292.316
284.345
293.854
293.376
289.457
297.402
287.172
291.301
291.968
293.57
295.706
292.822
296.337
293.14
293.34
293.357
296.749
292.714
303.15
287.449
294.984
285.597
293.844
285.81
292.045
296.63
287.976
293.051
303.15
286.257
292.077
288.24
285.271
285.173
290.775
285.471
288.568
291.918
294.511
295.582
292.599
289.255
294.611
294.002
293.049
294.639
293.007
293.07
293.932
288.527
299.558
288.968
288.379
287.415
292.957
286.464
302.406
291.906
295.182
292.977
293.451
294.818
291.004
291.245
293.36
293.455
295.852
283.15
292.506
291.784
293.251
283.15
283.15
302.587
296.429
286.909
293.381
293.62
294.452
293.925
303.103
283.15
292.356
293.454
294.409
292.482
292.743
293.442
292.133
284.085
299.069
291.817
293.564
291.556
293.923
290.921
293.934
300.072
292.614
299.602
291.843
299.154
299.197
302.346
302.083
299.489
299.693
299.539
289.053
293.378
292.461
291.828
292.881
288.847
293.555
294.174
290.625
292.547
285.599
292.294
292.827
291.581
289.992
293.517
291.23
301.031
293.61
299.965
301.471
289.118
293.457
293.754
291.98
290.275
299.036
290.778
292.414
293.637
292.125
283.15
292.029
292.099
293.18
293.887
292.968
292.121
290.844
292.78
290.854
292.179
293.901
293.114
292.828
292.124
297.391
293.441
291.746
293.321
292.637
292.186
295.91
283.15
292.868
293.087
292.131
293.625
290.964
293.084
292.852
293.009
301.893
302.254
294.634
293.484
301.133
304.619
292.446
302.216
302.159
293.47
292.458
292.988
293.157
302.352
294.174
292.907
293.122
302.35
293.523
293.692
292.607
292.479
292.781
294.117
293.206
303.081
293.485
296.172
292.789
292.506
292.552
292.545
293.108
292.498
290.509
292.512
293.146
293.048
293.035
294.123
293.049
299.26
292.821
292.67
293.219
287.045
301.44
293.436
301.095
291.185
300.514
293.207
301.536
283.15
298.684
293.282
290.916
290.426
296.685
298.679
297.846
294.209
292.806
293.562
300.215
292.813
291.799
298.931
292.835
283.151
292.943
284.22
299.026
287.902
299.042
291.66
293.107
293.783
295.775
293.198
293.252
292.674
296.741
289.167
295.187
292.977
297.324
292.859
292.881
298.13
297.059
291.265
291.817
297.132
290.3
287.444
297.544
298.822
303.15
292.207
285.568
293.554
304.28
291.265
287.608
296.073
283.15
296.479
283.15
291.652
294.753
297.506
293.028
292.297
293.741
292.174
292.241
293.894
294.096
301.821
283.15
296.485
286.15
297.295
292.654
294.45
292.661
301.924
294.083
295.023
294.905
288.69
295.598
300.129
292.676
292.648
293.463
293.612
299.36
296.608
292.564
292.556
290.752
292.793
294.541
294.233
303.144
295.581
295.688
290.651
299.163
290.29
293.487
303.15
293.36
283.15
293.308
293.316
286.945
294.912
292.374
293.18
292.326
291.096
283.15
293.514
287.958
292.801
294.362
291.29
292.796
289.753
293.407
298.281
295.802
300.58
291.77
293.401
293.023
294.066
284.604
296.425
297.124
292.196
296.641
293.734
296.622
297.116
300.246
295.154
294.377
290.565
292.72
292.736
303.108
303.15
292.878
295.389
290.325
293.448
292.98
303.15
303.15
293.953
294.789
293.441
295.099
295.228
287.263
295.086
294.703
295.175
295.23
295.837
289.753
291.715
292.532
298.642
293.486
293.981
293.036
292.967
302.502
290.592
293.624
292.56
294.041
292.964
283.15
292.829
292.347
292.964
293.998
291.649
293.244
302.712
293.252
293.246
298.266
295.642
303.15
288.104
297.619
300.9
293.644
292.39
295.839
295.996
293.491
294.073
293.256
294.744
292.658
292.947
291.695
296.364
292.354
293.72
297.255
293.4
297.038
293.491
292.411
293.087
293.107
293.45
294.053
295.574
295.031
293.487
300.806
295.226
292.183
292.246
293.245
293.374
293.267
293.1
292.348
289.492
293.283
291.995
303.15
293.492
293.55
294.255
294.707
292.805
293.259
302.469
295.149
297.407
289.87
289.77
293.275
293.465
293.788
293.7
294.151
290.416
293.45
293.285
293.336
292.911
293.001
293.458
293.349
292.959
294.289
295.601
285.179
291.732
291.993
294.499
294.385
293.147
295.974
295.662
295.903
295.667
295.003
295.662
293.425
295.389
295.332
290.23
292.114
291.503
295.212
293.123
294.78
293.028
302.966
294.653
295.682
296.845
285.481
295.171
290.262
285.428
293.312
290.288
293.754
292.034
282.85
293.297
294.999
292.765
292.895
300.07
297.3
283.146
297.866
292.75
300.964
290.296
293.525
293.244
293.569
301.326
296.122
293.603
291.784
295.245
293.154
283.15
294.646
292.585
293.589
293.074
295.593
292.571
293.195
292.313
293.255
293.667
291.943
294.989
292.785
290.91
293.239
293.395
291.117
293.483
290.434
289.495
292.983
296.965
293.221
297.622
286.671
293.321
299.374
290.225
293.371
303.198
293.394
292.772
293.292
294.592
293.04
283.15
289.774
293.35
293.144
294.367
292.62
290.82
291.37
287.294
290.071
297.476
295.797
293.538
297.28
283.599
292.695
288.682
303.15
297.598
293.006
292.283
292.771
294.25
293.115
294.304
292.826
298.148
290.164
303.15
290.136
289.597
287.533
289.974
289.548
291.992
286.327
303.15
292.124
289.7
286.597
292.771
292.838
292.436
293.042
289.994
296.718
293.364
293.245
292.8
293.841
293.766
301.588
292.631
288.682
292.759
293.5
296.618
292.579
294.979
293.392
300.898
292.989
292.824
294.086
293.362
293.878
286.248
295.422
293.769
295.906
293.475
293.823
293.606
302.451
293.041
293.37
295.44
303.114
293.146
294.444
283.15
293.836
296.744
289.413
293.299
291.565
293.659
295.7
293.554
293.882
295.703
294.579
296.587
293.323
293.734
292.998
293.656
303.15
293.606
293.346
293.566
292.847
293.723
293.284
292.98
292.644
287.48
283.187
292.538
293.898
293.072
293.664
290.311
294.442
293.667
293.453
292.829
293.313
293.211
293.27
292.976
292.975
292.977
294.286
293.332
293.403
293.123
294.407
292.373
298.823
290.611
293.751
296.534
293.659
293.78
296.889
297.076
296.908
293.345
292.749
291.794
292.279
293.661
292.911
297.205
287.571
301.625
293.573
292.281
293.764
293.102
292.927
291.728
291.547
293.335
291.696
292.809
293.606
287.045
294.357
288.505
295.192
292.987
291.984
293.544
293.204
293.024
283.15
283.15
292.893
290.045
296.739
293.079
293.183
293.037
293.005
293.207
290.994
296.135
293.565
291.726
283.15
293.707
293.593
291.635
290.99
286.744
287.811
288.536
291.266
291.327
297.693
294.162
294.195
294.441
300.989
285.009
295.936
294.453
285.036
284.918
293.025
293.196
290.697
291.432
296.451
293.16
283.15
291.203
293.43
297.488
285.004
293.647
291.134
295.808
296.948
289.203
292.231
293.927
300.245
293.38
301.698
294.027
292.718
292.56
293.833
293.448
294.118
291.095
293.666
284.101
291.123
293.631
292.664
294.006
293.471
293.004
293.335
293.483
293.717
292.341
293.037
283.722
292.129
293.16
293.939
293.629
284.774
292.069
293.449
283.15
293.386
294.181
294.103
293.483
293.377
293.735
293.201
293.671
301.232
283.568
292.911
288.403
283.15
293.534
288.448
293.534
293.433
293.865
283.15
293.07
293.245
293.302
283.15
293.907
293.235
293.438
292.895
293.819
286.956
293.969
293.468
293.378
293.319
292.785
293.962
292.786
294.099
283.15
293.356
292.961
293.417
293.239
294.246
293.171
293.875
293.722
286.995
293.673
293.443
294.579
294.163
294.015
294.105
294.469
293.461
290.614
294.083
293.621
292.17
294.137
293.774
294.2
293.398
302.493
294.504
295.197
297.197
293.363
295.383
293.392
292.842
283.15
293.666
293.344
295.682
293.321
291.753
296.678
293.529
290.915
298.884
292.075
291.789
290.552
290.806
294.232
292.68
292.627
293.45
283.15
293.318
292.677
292.59
292.606
292.606
292.52
293.395
293.64
293.766
293.341
293.659
293.748
293.477
293.34
293.161
292.221
292.815
293.473
292.424
292.486
293.466
293.087
293.384
295.011
292.967
292.64
294.621
294.113
293.61
294.375
292.64
293.647
293.577
293.721
293.449
284.893
293.722
292.787
292.966
292.902
283.729
293.206
293.32
283.215
284.926
283.15
293.406
293.448
283.748
293.164
293.119
283.15
284.994
290.099
293.366
293.456
292.743
293.801
294.094
294.197
294.094
294.112
294.164
293.271
293.417
293.349
285.295
293.468
289.575
285.499
285.34
290.976
293.995
293.649
293.289
294.118
294.045
294.464
292.974
290.263
293.522
293.586
293.666
291.617
294.136
293.396
293.611
294.3
293.889
293.503
293.627
294.032
293.478
291.421
293.594
293.365
293.835
294.353
293.05
293.595
283.15
292.663
293.151
293.342
293.491
290.619
293.967
292.307
289.995
293.415
293.608
293.166
292.67
288.734
291.639
289.236
301.694
295.528
289.025
293.263
292.796
296.053
293.459
292.965
290.267
293.127
289.02
293.441
291.687
293.28
296.33
288.937
303.15
293.523
293.384
294.053
288.739
295.601
291.083
293.787
290.808
290.979
300.437
283.21
290.838
295.203
293.574
293.784
293.526
290.593
294.372
293.776
293.099
293.619
291.43
293.563
289.673
291.999
293.976
283.15
284.92
289.141
291.542
293.795
291.372
292.736
292.617
292.635
293.569
285.768
287.996
292.51
293.679
293.702
294.262
303.15
292.611
293.656
296.864
303.15
288.244
293.287
294.028
293.274
290.433
291.746
292.654
288.966
294.029
292.688
285.249
295.333
283.15
293.666
293.24
293.585
293.444
293.565
294.197
293.547
293.765
293.141
293.87
299.047
292.58
292.03
292.148
294.898
292.314
292.775
286.516
293.018
294.086
292.392
303.15
293.623
293.611
283.195
292.351
293.228
293.518
291.238
293.422
293.102
293.055
293.841
293.44
294.736
293.441
292.665
291.901
293.308
291.784
293.436
293.561
293.591
293.422
294.363
293.426
293.968
293.314
294.052
293.952
294.06
293.124
293.08
293.214
292.316
293.729
293.461