/*--------------------------------*- C++ -*----------------------------------*\
  =========                 |
  \\      /  F ield         | OpenFOAM: The Open Source CFD Toolbox
   \\    /   O peration     | Website:  https://openfoam.org
    \\  /    A nd           | Version:  10
     \\/     M anipulation  |
\*---------------------------------------------------------------------------*/
FoamFile
{
    format      ascii;
    class       volScalarField;
    location    "85";
    object      T;
}
// * * * * * * * * * * * * * * * * * * * * * * * * * * * * * * * * * * * * * //

dimensions      [0 0 0 1 0 0 0];

internalField   nonuniform List<scalar> 
59698
(
286.615
292.869
293.308
293.544
299.93
283.15
292.522
293.496
303.15
303.15
303.15
293.18
283.15
293.769
300.111
303.15
294.068
293.45
293.177
293.81
303.281
302.123
303.149
303.15
295.691
293.449
293.104
298.34
295.708
295.334
300.291
303.15
303.15
298.82
302.37
293.267
283.382
283.468
293.444
297.577
296.227
283.15
296.569
293.848
283.15
296.596
293.305
295.26
294.642
293.578
293.057
293.342
292.348
294.535
294.39
293.197
294.283
302.177
294.246
282.976
291.247
294.301
299.612
293.205
286.789
294.465
303.15
293.179
293.177
303.15
283.15
293.78
283.135
298.543
283.15
297.746
294.535
287.694
291.645
294.152
299.958
292.582
303.15
293.443
303.704
294.504
294.181
293.555
298.895
293.881
303.15
294.735
298.996
293.54
293.769
293.514
299.073
293.519
298.922
283.15
299.125
283.129
285.894
284.489
293.369
283.15
293.471
293.132
303.15
283.15
293.401
293.654
298.878
283.15
293.42
293.237
293.407
293.419
293.44
303.15
293.253
292.837
293.438
293.293
293.376
293.245
295.476
303.15
293.381
292.889
287.531
292.984
303.15
292.785
290.251
291.652
292.897
303.15
293.125
293.463
293.465
293.766
290.853
292.124
292.908
293.582
293.381
293.387
293.451
301.182
283.138
303.15
288.08
293.27
294.056
293.369
293.31
293.476
296.948
283.15
289.668
293.438
290.775
299.551
297.79
296.667
292.908
280.92
299.359
292.199
300.362
283.151
300.93
300.993
285.54
292.809
303.15
283.238
303.15
298.908
302.764
300.404
298.619
293.241
298.734
300.855
300.761
293.86
292.995
294.719
294.357
293.67
296.604
297.469
299.383
293.59
293.953
296.58
303.155
299.376
283.15
284.152
292.422
292.799
299.289
290.951
297.318
295.415
293.579
298.022
293.137
293.709
299.139
303.15
294.871
293.457
293.279
294.063
297.84
296.001
282.05
296.309
292.638
299.272
295.29
299.326
295.842
291.352
295.616
284.992
283.15
296.172
295.18
295.845
293.429
294.823
295.971
293.736
293.565
295.001
293.236
293.995
289.913
303.15
294.644
293.582
282.926
285.619
293.632
293.304
293.828
294.938
295.143
303.15
293.593
294.744
294.12
295.304
292.852
293.302
303.12
283.15
294.463
294.342
294.821
295.296
292.666
303.15
293.475
293.291
293.327
286.648
303.101
293.309
287.338
293.709
292.905
293.632
293.998
303.15
303.15
292.904
293.338
289.115
295.09
290.704
292.95
303.15
286.048
294.61
301.411
291.284
293.398
293.417
294.888
293.606
292.713
293.622
295.098
292.673
291.44
283.15
283.15
292.611
293.238
293.202
287.822
293.657
294.629
293.06
293.119
293.315
293.373
283.15
293.715
292.673
283.15
293.728
283.15
293.59
293.875
293.373
294.003
303.15
298.324
286.255
294.108
293.715
292.431
283.15
300.171
290.666
298.872
281.564
303.15
293.805
293.698
292.555
298.464
293.825
295.129
295.539
292.633
294.981
298.949
293.306
295.604
301.434
293.732
289.168
292.838
293.043
301.348
303.15
284.219
300.755
302.079
293.328
293.637
303.15
293.301
293.85
303.15
295.005
283.15
283.15
293.554
290.471
293.544
282.757
292.681
283.15
292.738
283.15
296.428
303.15
293.541
292.914
283.15
303.15
283.15
292.713
293.306
293.516
293.507
283.148
293.503
283.15
283.15
293.41
293.819
303.15
294.602
290.763
303.133
301.993
301.786
293.517
292.67
292.793
288.509
295.724
292.731
293.36
293.549
293.482
295.925
293.243
295.684
302.249
297.874
303.15
295.279
303.15
293.442
289.819
292.98
283.577
302.291
302.826
294.384
293.421
290.793
281.984
293.369
293.326
303.15
294.394
293.274
283.15
295.497
302.787
285.306
291.842
287.587
303.15
303.15
298.66
292.864
291.951
283.15
292.19
303.15
293.653
293.149
302.913
294.884
283.15
293.465
299.211
292.736
293.297
294.105
286.313
294.009
293.626
290.651
303.15
284.307
293.325
290.069
293.39
283.966
293.905
303.15
293.57
293.407
291.881
294.114
294.992
295.111
283.15
283.15
283.15
294.051
293.14
302.757
292.129
293.712
294.015
293.381
293.599
293.379
283.15
300.938
293.367
293.504
293.383
291.955
292.876
299.048
290.501
291.385
293.474
292.101
293.487
293.437
293.506
289.573
283.15
283.15
295.18
299.053
294.68
283.15
303.15
293.342
303.15
293.359
290.266
294.707
290.691
283.157
283.15
291.62
293.353
283.15
293.389
283.15
283.15
289.542
293.96
293.396
283.15
283.15
302.995
294.933
292.608
289.847
288.752
293.264
301.524
303.15
293.426
293.56
283.15
283.15
286.368
293.392
303.15
290.012
292.982
293.115
281.268
289.381
291.843
282.229
283.132
290.846
283.147
293.353
303.15
293.476
303.15
292.887
293.312
283.15
295.583
291.515
291.826
283.15
303.15
293.5
283.124
293.321
303.15
286.387
293.343
291.205
303.15
292.068
293.457
283.15
291.898
290.956
293.523
293.093
292.287
295.528
303.15
283.15
293.566
285.284
293.207
292.359
283.15
292.429
293.185
289.739
291.641
291.953
296.414
293.079
293.124
283.15
293.37
303.15
282.782
283.15
283.15
290.923
290.973
283.15
293.461
291.045
291.624
292.896
283.15
291.077
293.319
293.297
292.535
293.303
292.11
291.111
291.143
293.268
297.831
285.644
293.264
283.15
291.152
291.924
302.96
295.263
293.734
290.902
292.231
292.024
292.083
295.599
283.15
293.225
291.365
293.065
292.142
292.076
293.253
293.2
286.912
293.496
292.774
283.15
303.15
292.04
294.041
292.802
293.721
293.66
283.15
283.15
293.171
288.56
291.779
292
293.252
293.018
303.147
293.583
292.388
293.669
293.392
291.005
283.796
301.808
291.632
293.69
293.774
291.802
288.93
283.15
293.522
292.814
293.534
292.863
291.682
283.15
295.31
293.224
292.882
292.428
293.516
283.15
283.15
291.896
293.01
291.902
292.955
291.991
295.757
290.797
297.189
293.964
291.73
290.813
293.619
293.624
292.588
283.15
292.871
283.15
283.15
292.549
291.772
293.242
303.15
296.537
293.124
292.09
283.15
293.664
283.15
293.754
283.15
293.44
297.643
289.341
293.163
303.15
283.15
297.841
297.947
293.191
292.061
295.614
297.216
295.515
283.15
296.209
293.304
282.862
283.15
290.55
300.332
283.15
291.071
292.813
303.15
297.638
287.938
293.092
293.822
283.261
297.043
294.589
294.531
283.596
283.45
292.465
286.012
293.061
296.893
293.732
298.126
283.15
292.918
290.239
295.037
303.15
293.417
296.897
283.15
298.216
295.937
292.318
293.833
296.738
293.149
283.15
294.928
294.558
283.15
283.15
292.345
283.15
289.442
293.559
292.41
294.529
294.545
297.381
283.15
293.681
290.471
294.874
295.29
295.318
283.15
284.364
298.821
293.573
288.638
297.67
301.113
293.491
302.766
283.15
283.15
283.15
292.665
292.762
283.15
292.554
293.574
298.048
283.164
292.522
291.712
283.15
282.346
283.15
283.15
292.577
283.15
303.102
298.496
303.15
292.552
284.561
288.606
292.546
282.176
293.471
283.228
283.15
283.15
291.273
294.72
296.695
283.15
295.802
292.656
292.669
283.15
292.654
292.683
283.162
283.15
283.132
283.174
303.15
283.15
283.15
283.15
283.15
291.18
292.952
291.045
283.15
294.639
293.277
283.15
285.42
283.15
292.755
283.15
299.444
295.181
291.976
292.588
292.758
295.894
303.15
295.891
292.891
283.15
292.598
283.149
293.313
283.15
292.046
283.15
284.111
283.15
290.381
283.15
293.505
291.774
294.913
292.687
291.903
292.715
292.101
283.15
283.15
292.709
293.548
293.045
293.215
283.15
294.321
296.329
296.015
283.15
294.113
295.075
293.419
296.743
303.15
283.15
295.886
292.365
283.15
292.946
293.416
283.15
295.882
292.793
293.137
293.577
283.15
293.26
293.338
283.15
303.15
293.038
292.953
292.887
295.899
297.653
293.999
296.709
290.216
294.983
295.613
293.566
291.432
290.745
286.589
292.079
283.15
289.763
283.15
296.542
295.758
291.919
290.301
283.15
283.15
297.549
291.279
290.058
296.135
296.764
293.398
295.391
285.339
293.995
293.187
293.362
283.15
293.38
292.938
293.241
293.065
293.293
293.396
303.15
293.342
293.497
294.478
303.15
293.562
296.67
294.177
293.514
293.856
294.464
295.688
292.888
303.15
303.15
283.15
295.559
283.15
293.57
291.454
302.707
298.558
293.044
295.02
302.152
297.861
294.94
295.856
293.724
293.132
295.694
293.881
290.671
287.758
294.115
283.15
293.136
303.15
283.168
294.723
300.392
294.706
303.15
303.15
292.729
293.391
294.906
292.727
293.007
292.608
283.15
293.741
293.22
298.336
283.15
294.56
295.253
302.797
293.051
293.697
302.793
293.208
293.538
302.801
292.738
294.554
295.191
296.447
295.37
295.988
295.2
293.48
292.911
303.15
295.487
296.535
293.257
283.15
293.209
297.706
293.096
293.629
293.127
295.322
292.795
287.744
294.507
290.914
292.828
303.15
293.571
288.102
283.15
303.15
294.037
294.206
295.975
294.321
289.323
303.15
303.15
293.105
283.15
295.018
294.44
294.311
294.424
293.949
303.15
303.15
284.103
294.311
295.124
303.15
294.083
296.136
303.15
282.446
292.914
283.571
291.987
294.355
292.924
293.209
294.106
303.15
293.782
291.73
293.101
292.935
293.001
293.565
294.389
301.058
303.15
297.271
302.914
293.024
301.668
287.086
291.084
295.27
297.734
297.187
289.457
289.168
293.33
283.15
288.095
292.878
303.15
293.339
300.977
293.13
294.507
294.323
294.94
283.15
302.395
289.609
294.814
294.647
292.521
283.15
303.15
293.516
286.773
283.15
292.944
292.985
294.665
293.477
304.953
293.338
295.046
292.736
295.3
293.404
287.086
294.944
303.15
292.729
292.911
292.918
290.196
293.28
300.819
301.112
293.369
295.896
299.103
302.608
293.686
293.372
293.055
302.577
287.727
300.249
291.912
292.138
295.942
295.796
295.405
293.309
295.262
303.15
286.065
298.845
295.797
293.751
292.99
297.241
293.719
299.01
293.77
293.132
293.662
293.571
303.15
293.363
303.15
292.584
292.865
294.035
292.086
293.175
285.397
292.807
303.15
294.482
291.949
288.949
292.441
293.38
303.15
303.15
293.554
293.425
283.15
303.15
293.134
293.51
294.142
283.15
303.15
292.819
293.318
293.283
292.956
285.263
292.619
283.15
284.961
303.15
293.43
283.15
303.143
303.15
297.275
290.555
293.223
297.373
296.694
292.341
303.15
293.34
293.346
296.92
282.322
296.651
293.037
303.15
293.388
303.15
296.773
284.579
283.15
291.176
297.598
293.491
302.757
297.487
295.753
297.451
291.41
297.622
283.15
283.15
297.486
297.42
294.32
303.15
292.809
291.921
293.736
293.664
294.083
294.365
294.161
293.335
291.255
293.252
300.608
285.599
297.027
303.023
293.205
303.15
294.741
283.15
299.948
303.15
303.15
293.479
283.15
300.65
293.199
283.15
303.15
292.053
292.9
303.15
293.493
291.788
293.097
293.673
302.96
303.15
297.511
293.756
283.15
289.055
292.016
293.171
283.097
303.15
293.121
303.15
293.204
303.15
293.152
297.884
297.781
296.974
297.556
294.289
293.144
286.802
293.748
283.15
292.033
298.051
294.82
296.655
283.15
301.144
293.203
303.15
293.316
297.032
296.292
303.15
303.15
293.283
288.937
287.359
294.299
289.219
289.624
303.15
303.15
283.15
292.113
287.794
303.15
299.753
303.15
287.573
303.15
303.15
303.15
291.7
290.766
299.277
303.15
292.589
292.933
303.15
291.925
287.302
282.681
293.724
283.73
295.846
291.688
292.132
283.31
293.659
292.227
303.15
303.15
285.174
288.649
292.712
283.571
283.278
292.916
289.881
293.124
283.15
295.282
291.706
294.637
287.714
285.227
293.945
303.15
292.213
284.068
290.957
293.998
300.929
291.982
292.389
292.557
293.509
298.101
292.205
292.921
293.496
283.903
286.788
283.766
292.981
284.851
292.866
284.216
303.15
294.053
290.563
288.486
292.596
303.112
303.15
293.393
284.405
294.766
300.639
284.978
285.118
298.425
294.551
284.948
282.313
294.006
303.15
287.369
283.15
283.129
285.157
303.15
297.639
283.152
292.994
303.15
284.93
300.027
303.15
283.15
289.242
295.133
296.48
297.819
283.516
303.15
285.256
291.854
293.361
283.15
293.936
283.15
303.125
293.453
303.15
294.345
293.464
292.607
293.424
293.425
293.574
300.149
298.994
285.918
283.138
299.313
293.6
299.447
303.15
283.15
293.377
296.289
285.773
292.942
292.788
288.106
293.756
293.565
293.153
293.548
293.54
296.749
303.15
293.672
293.546
303.15
288.564
293.574
283.15
288.198
303.15
296.122
293.572
303.15
296.849
302.682
290.216
292.503
286.915
288.126
303.15
283.15
303.15
283.15
283.15
294.164
293.576
283.14
291.901
283.208
303.15
288.301
288.774
287.965
294.284
288.26
294.899
289.062
286.226
303.15
287.42
291.767
292.992
303.15
300.569
292.905
289.593
303.227
303.15
299.156
293.498
290.461
303.15
293.431
290.512
293.501
297.731
297.168
290.167
295.075
303.15
303.15
290.27
290.295
283.93
295.159
283.151
283.576
303.15
283.802
290.225
303.15
283.15
283.004
283.15
290.35
299.828
303.15
290.323
303.15
303.15
283.674
293.805
283.15
283.149
303.15
293.252
292.423
303.15
303.15
291.367
283.127
290.959
303.15
283.139
293.464
290.991
290.992
300.704
283.15
290.994
303.15
294.755
294.261
303.15
303.15
303.15
292.523
283.15
291.125
291.865
303.15
283.14
291.298
303.15
303.15
303.15
292.416
283.15
293.58
283.15
293.787
291.628
283.15
296.132
303.15
283.15
291.547
291.428
291.41
294.107
283.15
293.469
291.777
291.823
293.858
283.14
283.15
303.15
283.15
283.15
283.15
292.967
303.15
293.618
294.238
303.15
285.309
293.664
293.198
293.483
292.944
293.562
297.182
292.992
296.724
295.93
292.533
293.474
292.956
292.189
292.277
293.48
292.183
298.964
293.64
287.28
293.245
304.954
284.024
292.367
300.346
283.134
293.553
291.725
303.15
294.383
296.505
295.234
292.627
301.438
296.23
292.197
298.946
293.103
302.821
297.673
300.374
292.316
285.25
294.223
289.328
294.342
295.91
297.462
292.776
296.667
283.15
293.223
294.749
292.785
283.143
299.541
293.016
288.101
293.089
283.15
297.88
293.709
283.15
293.605
292.484
292.976
295.057
283.15
293.107
298.435
293.736
300.333
292.886
294.444
292.871
293.626
298.45
291.682
292.485
284.623
293.492
292.675
293.36
283.15
303.15
292.478
297.127
298.068
301.568
283.459
292.499
292.851
293.564
292.405
292.398
303.151
291.677
293.652
292.542
283.139
292.591
292.57
292.802
301.984
293.903
292.683
303.187
293.705
293.172
283.15
298.999
292.838
302.099
302.824
294.643
292.768
293.239
292.054
293.427
292.683
293.537
283.15
293.223
292.676
295.154
302.942
293.047
288.182
293.001
298.907
293.007
283.158
293.132
292.334
293.464
292.698
295.254
293.324
302.926
293.266
292.683
291.265
298.232
302.943
293.28
292.713
292.742
298.507
294.066
294.316
288.184
289.741
293.349
294.455
289.081
294.121
292.919
289.333
302.813
292.835
293.352
289.437
293.385
293.3
294.015
299.704
292.777
294.602
292.218
293.467
292.811
293.134
292.791
295.053
287.189
298.569
299.516
289.325
293.072
293.175
294.786
295.976
293.358
292.771
293.336
298.711
285.523
293.078
292.927
292.821
292.812
292.82
296.206
288
296.577
293.336
292.864
293.168
299.566
303.15
293.415
292.859
292.994
296.956
293.403
299.686
292.872
293.412
292.855
292.859
299.648
293.627
292.894
301.301
292.078
283.15
293.16
294.344
292.004
289.345
293.416
303.15
294.298
301.439
293.457
293.191
292.89
283.15
293.296
301.371
287.255
290.347
292.986
283.15
283.227
295.97
293.134
283.15
298.923
291.968
290.404
290.571
283.15
303.15
298.535
293.43
294.39
295.706
295.03
301.378
293.37
301.18
295.292
293.024
292.081
303.15
293.612
300.068
295.459
295.698
291.921
302.834
286.648
295.645
293.887
292.406
296.214
295.415
283.15
291.135
292.623
295.757
294.105
293.069
293.359
292.658
296.434
296.077
295.215
296.197
294.308
295.753
294.788
292.939
291.998
295.614
295.817
296.778
300.253
297.334
297.453
297.952
301.23
293.071
303.146
283.144
290.483
283.15
292.64
301.794
303.554
295.261
303.01
303.129
291.143
283.15
292.107
292.665
290.851
293.136
300.591
283.15
291.104
303.15
293.066
293.482
293.616
301.076
295.241
293.165
302.014
294.057
289.242
302.278
286.676
295.416
291.737
292.615
294.619
300.554
302.961
293.229
289.822
289.037
294.073
295.288
294.65
295.881
292.847
293.226
292.55
294.211
294.251
295.782
291.133
292.941
292.972
293.771
292.975
293.431
290.951
294.068
292.898
292.179
293.345
293.403
294.702
293.338
293.348
293.549
286.562
302.174
291.948
299.934
296.657
294.703
292.823
295.964
303.15
293.176
293.139
292.954
295.295
296.771
295.48
294.339
298.695
288.437
293.319
283.142
292.922
291.363
291.603
293.349
293.349
292.671
293.354
296.162
297.877
300.894
295.604
294.84
293.512
292.831
293.847
295.387
293.746
295.511
294.697
289.675
293.413
295.691
300.95
296.71
293.434
303.15
292.583
295.696
293.366
294.716
283.15
293.637
292.379
293.478
290.616
292.994
293.64
293.602
292.918
293.276
295.198
293.16
295.386
290.864
292.434
293.632
283.15
293.637
292.256
293.737
293.569
295.106
295.189
293.165
293.157
295.48
293.016
292.991
296.65
296.179
293.433
297.935
292.878
293.912
293.365
293.694
293.67
292.317
296.018
293.075
296.427
295.431
294.962
299.988
292.901
296.152
295.107
296.79
295.657
293.662
292.866
293.028
292.971
292.815
293.413
303.15
294.006
289.36
283.15
283.15
292.508
292.94
293.223
299.286
292.978
292.9
293.55
293.786
292.916
292.615
292.833
300.845
286.351
287.372
293.279
293.894
293.731
292.939
294.222
292.822
283.15
292.97
291.736
295.919
293.281
293.196
292.71
284.189
288.499
292.318
294.621
293.443
293.312
303.15
293.169
293.611
293.774
293.252
292.014
292.973
293.164
293.495
303.15
287.168
291.352
293.439
293.292
293.652
292.019
293.513
291.374
290.501
283.15
283.15
294.588
293.409
291.669
294.16
293.509
291.608
293.116
293.614
293.098
303.15
283.411
292.813
293.59
290.628
292.721
295.861
293.203
292.067
285.202
292.972
289.286
295.579
291.023
293.908
302.02
294.391
293.606
283.15
294.284
293.172
296.904
293.817
300.496
291.954
301.249
292.646
297.601
292.809
294.612
293.399
293.752
293.438
293.947
295.029
292.919
293.411
293.367
292.992
293.458
292.199
292.987
293.458
293.455
293.46
292.77
292.069
299.348
293.969
293.885
283.15
283.15
291.125
292.775
294.357
294.574
294.048
291.619
292.198
293.624
292.325
294.094
289.769
292.8
292.178
292.133
292.797
292.992
293.604
290.944
293.092
302.662
290.513
292.682
296.795
293.349
285.561
293.404
298.652
303.388
296.195
293.645
293.176
293.117
298.421
293.783
290.078
292.88
293.941
286.387
285.99
292.732
292.755
293.284
292.94
294.03
293.387
292.772
293.741
293.554
293.049
294.728
294.949
293.374
292.26
292.25
293.063
293.691
293.711
293.382
292.732
292.942
293.271
293.264
293.394
292.939
303.15
303.15
292.776
291.985
295.689
293.268
292.881
293.103
297.011
293.317
291.97
293.538
293.509
291.247
290.807
292.8
290.87
292.734
293.68
292.616
295.404
295.467
293.308
294.525
294.509
293.76
292.728
303.242
293.155
303.15
292.834
291.764
292.739
296.102
292.964
293.377
293.151
292.605
291.126
294.382
294.511
283.15
303.15
282.892
292.772
301.988
284.046
303.15
293.364
300.876
294.274
283.15
291.753
293.048
292.883
293.045
303.15
303.15
293.354
283.15
296.67
293.32
295.56
294.345
294.943
293.901
292.697
296.771
293.282
283.15
300.782
303.15
303.15
297.73
293.862
294.849
294.732
293.014
283.15
300.953
292.102
293.209
291.236
291.784
303.15
293.165
292.95
293.211
291.014
292.793
300.841
292.805
292.667
292.655
294.444
292.199
292.683
283.15
292.166
293.717
292.686
296.702
301.949
302.711
293.579
295.797
293.647
293.211
291.447
292.105
300.577
293.038
283.15
291.817
290.467
290.341
290.515
291.802
290.477
283.15
303.15
297.131
293.292
292.498
295.1
291.547
297.94
283.146
293.497
283.662
293.456
293.464
292.988
293.294
293.357
293.349
292.175
294.948
303.15
295.674
284.942
292.882
297.802
298.036
293.77
292.089
293.351
298.076
293.374
296.181
293.419
292.441
298.675
292.779
294.566
298.117
294.132
296.546
293.867
293.349
293.352
296.996
293.301
293.054
291.939
292.562
293.081
293.302
292.75
291.935
291.516
291.253
293.717
295.863
292.069
283.15
292.532
293.42
291.861
299.686
291.871
294.095
286.321
291.134
290.762
292.062
293.866
292.802
293.495
292.376
293.396
292.744
293.201
283.15
290.828
293.396
296.851
292.612
296.33
294.095
295.965
297.505
295.577
287.433
297.248
294.005
295.383
293.2
294.175
297.505
292.76
292.607
293.416
292.773
290.56
294.811
293.355
293.841
293.57
283.15
290.078
292.47
293.605
293.401
293.169
293.276
292.306
293.099
293.712
293.276
295.598
298.739
292.844
302.763
301.082
303.15
293.804
294.234
293.402
295.416
293.445
295.137
293.736
293.675
292.105
302.514
283.15
298.129
290.015
294.43
292.759
300.335
292.96
288.354
300.867
287.188
290.683
290.296
292.99
283.117
291.998
289.965
282.398
293.565
293.485
293.611
296.769
292.321
284.904
291.391
302.417
292.655
292.301
297.378
303.183
293.036
291.65
294.851
290.935
292.732
293.497
293.225
284.32
293.246
294.576
293.099
293.175
291.424
293.448
293.841
293.039
292.965
293.588
300.292
293.151
293.538
293.597
294.658
300.412
290.235
293.59
292.965
298.931
293.376
292.402
293.477
283.222
283.15
297.222
293.225
285.058
297.045
283.144
291.984
292.086
298.606
293.578
292.452
290.658
293.317
283.15
283.149
292.38
293.225
282.636
291.915
292.099
292.433
303.151
293.611
293.216
293.668
285.991
293.089
292.384
292.093
297.347
286.001
283.74
293.365
284.416
283.287
293.775
293.675
293.806
292.322
284.35
293.846
293.376
289.462
297.41
287.165
291.302
291.967
293.571
295.699
292.823
296.347
293.144
293.339
293.356
296.77
292.733
303.15
287.468
295
285.594
293.84
285.807
292.045
296.628
287.996
293.075
303.15
286.247
292.077
288.237
285.274
285.175
290.772
285.467
288.568
291.907
294.528
295.588
292.6
289.256
294.609
294
293.048
294.637
293.005
293.063
293.932
288.533
299.565
288.968
288.388
287.418
292.953
286.463
302.412
291.906
295.179
292.973
293.45
294.837
291.015
291.254
293.361
293.456
295.851
283.15
292.508
291.779
293.25
283.15
283.15
302.586
296.428
286.879
293.376
293.616
294.454
293.926
303.104
283.15
292.348
293.455
294.411
292.46
292.741
293.443
292.133
284.087
299.056
291.815
293.567
291.556
293.93
290.924
293.928
300.084
292.614
299.594
291.836
299.153
299.227
302.344
302.077
299.498
299.687
299.541
289.055
293.377
292.457
291.828
292.88
288.852
293.548
294.177
290.624
292.554
285.593
292.305
292.824
291.586
290.02
293.517
291.231
301.031
293.608
299.963
301.459
289.118
293.458
293.755
291.982
290.313
299.045
290.776
292.415
293.639
292.126
283.15
292.03
292.1
293.182
293.889
292.968
292.122
290.844
292.779
290.851
292.177
293.902
293.115
292.829
292.119
297.39
293.439
291.736
293.32
292.637
292.185
295.935
283.15
292.866
293.087
292.13
293.626
290.961
293.085
292.853
293.007
301.887
302.253
294.632
293.48
301.101
304.626
292.446
302.21
302.155
293.469
292.457
292.987
293.157
302.347
294.183
292.906
293.12
302.346
293.525
293.691
292.608
292.479
292.781
294.118
293.207
303.08
293.485
296.169
292.787
292.505
292.551
292.544
293.104
292.496
290.52
292.51
293.153
293.048
293.034
294.123
293.049
299.279
292.821
292.67
293.22
287.055
301.445
293.437
301.101
291.151
300.53
293.207
301.545
283.15
298.686
293.283
290.917
290.402
296.69
298.664
297.845
294.224
292.807
293.57
300.208
292.813
291.797
298.937
292.834
283.151
292.944
284.221
299.032
287.916
299.049
291.658
293.103
293.784
295.787
293.199
293.254
292.674
296.741
289.174
295.216
292.976
297.343
292.86
292.881
298.133
297.08
291.273
291.791
297.143
290.27
287.455
297.547
298.819
303.15
292.208
285.567
293.557
304.3
291.274
287.616
296.078
283.15
296.477
283.15
291.654
294.764
297.501
293.028
292.292
293.739
292.175
292.232
293.895
294.095
301.817
283.15
296.486
286.156
297.298
292.653
294.452
292.66
301.912
294.085
295.008
294.9
288.697
295.597
300.135
292.675
292.647
293.462
293.613
299.374
296.641
292.565
292.556
290.75
292.794
294.539
294.228
303.144
295.585
295.694
290.645
299.181
290.291
293.489
303.15
293.353
283.15
293.307
293.317
286.946
294.934
292.374
293.182
292.324
291.102
283.15
293.515
287.951
292.805
294.373
291.289
292.806
289.727
293.408
298.273
295.802
300.582
291.78
293.401
293.017
294.071
284.598
296.43
297.111
292.207
296.632
293.73
296.614
297.104
300.25
295.157
294.382
290.563
292.72
292.736
303.107
303.15
292.878
295.388
290.324
293.447
292.979
303.15
303.15
293.946
294.789
293.442
295.099
295.233
287.265
295.088
294.703
295.179
295.235
295.836
289.764
291.715
292.532
298.639
293.482
293.975
293.037
292.967
302.521
290.592
293.62
292.561
294.034
292.964
283.15
292.828
292.348
292.964
293.99
291.646
293.243
302.715
293.252
293.246
298.256
295.639
303.15
288.096
297.621
300.9
293.645
292.39
295.833
295.99
293.489
294.073
293.255
294.734
292.653
292.947
291.693
296.369
292.356
293.71
297.258
293.395
297.041
293.498
292.401
293.087
293.106
293.451
294.056
295.571
295.033
293.493
300.802
295.225
292.184
292.245
293.244
293.378
293.272
293.099
292.348
289.488
293.281
291.997
303.15
293.493
293.55
294.247
294.707
292.805
293.258
302.458
295.145
297.426
289.871
289.794
293.275
293.464
293.788
293.697
294.154
290.416
293.449
293.29
293.341
292.914
293.004
293.459
293.352
292.958
294.277
295.605
285.175
291.738
291.993
294.498
294.384
293.147
295.974
295.667
295.903
295.668
295.004
295.666
293.419
295.398
295.333
290.223
292.135
291.502
295.213
293.123
294.781
293.028
302.966
294.676
295.689
296.861
285.485
295.172
290.263
285.421
293.311
290.275
293.734
292.034
282.851
293.296
295.033
292.765
292.883
300.07
297.319
283.146
297.869
292.749
300.962
290.298
293.524
293.244
293.579
301.329
296.123
293.604
291.78
295.25
293.153
283.15
294.647
292.584
293.59
293.081
295.619
292.575
293.196
292.315
293.255
293.675
291.947
295.027
292.804
290.91
293.24
293.396
291.12
293.483
290.423
289.478
292.983
296.97
293.222
297.628
286.652
293.322
299.371
290.197
293.372
303.199
293.393
292.771
293.293
294.596
293.039
283.15
289.772
293.35
293.144
294.367
292.628
290.819
291.366
287.3
290.087
297.476
295.796
293.539
297.282
283.594
292.694
288.661
303.15
297.6
293.006
292.282
292.77
294.258
293.11
294.304
292.827
298.151
290.133
303.15
290.131
289.598
287.551
289.974
289.549
291.99
286.343
303.15
292.122
289.718
286.583
292.771
292.837
292.436
293.042
289.994
296.716
293.362
293.244
292.812
293.843
293.767
301.588
292.631
288.661
292.76
293.503
296.617
292.545
294.98
293.391
300.898
292.987
292.829
294.084
293.363
293.877
286.233
295.419
293.769
295.903
293.476
293.826
293.605
302.45
293.041
293.372
295.441
303.115
293.147
294.447
283.15
293.823
296.743
289.412
293.299
291.566
293.658
295.697
293.554
293.88
295.701
294.577
296.615
293.322
293.732
292.996
293.654
303.15
293.604
293.345
293.567
292.847
293.723
293.283
292.981
292.642
287.502
283.186
292.538
293.897
293.072
293.68
290.309
294.442
293.667
293.455
292.83
293.314
293.212
293.271
292.977
292.976
292.976
294.286
293.333
293.403
293.128
294.407
292.364
298.837
290.601
293.749
296.544
293.658
293.778
296.895
297.081
296.913
293.345
292.75
291.795
292.287
293.66
292.91
297.205
287.572
301.634
293.571
292.285
293.775
293.1
292.926
291.73
291.548
293.334
291.698
292.807
293.591
287.03
294.358
288.476
295.19
292.988
292.01
293.542
293.205
293.024
283.15
283.15
292.893
290.048
296.736
293.08
293.184
293.037
292.991
293.206
290.964
296.126
293.56
291.735
283.15
293.705
293.594
291.635
290.997
286.71
287.82
288.537
291.266
291.323
297.694
294.16
294.193
294.442
300.988
285.031
295.929
294.455
285.059
284.939
293.019
293.2
290.69
291.433
296.451
293.161
283.15
291.204
293.436
297.506
285.026
293.646
291.135
295.809
296.934
289.224
292.231
293.934
300.237
293.377
301.682
294.032
292.72
292.561
293.826
293.449
294.119
291.095
293.667
284.091
291.122
293.643
292.663
294.004
293.472
293.004
293.337
293.484
293.718
292.341
293.037
283.712
292.132
293.159
293.942
293.629
284.781
292.07
293.449
283.15
293.385
294.18
294.107
293.484
293.376
293.75
293.202
293.67
301.232
283.575
292.91
288.403
283.15
293.535
288.453
293.535
293.434
293.872
283.15
293.071
293.245
293.303
283.15
293.907
293.236
293.439
292.896
293.818
286.96
293.967
293.467
293.377
293.319
292.784
293.965
292.788
294.095
283.15
293.355
292.961
293.417
293.228
294.245
293.186
293.873
293.721
286.998
293.673
293.443
294.577
294.164
294.018
294.107
294.467
293.463
290.615
294.085
293.623
292.171
294.141
293.776
294.202
293.399
302.497
294.506
295.223
297.197
293.363
295.384
293.392
292.84
283.15
293.666
293.341
295.682
293.322
291.746
296.671
293.53
290.916
298.88
292.078
291.805
290.551
290.809
294.232
292.68
292.628
293.45
283.15
293.318
292.678
292.591
292.607
292.606
292.519
293.395
293.638
293.765
293.342
293.661
293.748
293.478
293.341
293.156
292.219
292.816
293.474
292.424
292.488
293.467
293.088
293.384
295.007
292.968
292.64
294.63
294.112
293.609
294.376
292.64
293.645
293.576
293.72
293.45
284.882
293.721
292.789
292.965
292.902
283.725
293.207
293.32
283.216
284.916
283.15
293.401
293.449
283.744
293.165
293.12
283.15
285
290.1
293.367
293.457
292.738
293.801
294.095
294.193
294.096
294.113
294.164
293.272
293.418
293.35
285.298
293.469
289.572
285.501
285.342
290.977
293.996
293.651
293.29
294.117
294.046
294.463
292.975
290.279
293.521
293.588
293.664
291.619
294.142
293.391
293.61
294.292
293.889
293.502
293.626
294.037
293.478
291.418
293.593
293.366
293.836
294.355
293.049
293.594
283.15
292.661
293.152
293.341
293.492
290.626
293.973
292.307
289.991
293.414
293.607
293.165
292.67
288.735
291.641
289.234
301.695
295.523
289.027
293.264
292.796
296.052
293.459
292.966
290.262
293.127
289.023
293.44
291.681
293.279
296.35
288.94
303.15
293.521
293.384
294.05
288.74
295.603
291.085
293.787
290.806
290.978
300.447
283.21
290.837
295.201
293.573
293.784
293.524
290.602
294.366
293.774
293.093
293.62
291.43
293.563
289.677
291.998
293.975
283.15
284.897
289.155
291.542
293.796
291.372
292.735
292.617
292.635
293.569
285.766
287.988
292.509
293.687
293.701
294.262
303.15
292.611
293.656
296.851
303.15
288.264
293.287
294.028
293.275
290.418
291.73
292.653
288.981
294.027
292.688
285.251
295.336
283.15
293.667
293.239
293.586
293.443
293.551
294.198
293.549
293.765
293.142
293.869
299.044
292.6
292.031
292.15
294.9
292.313
292.775
286.518
293.017
294.089
292.391
303.15
293.625
293.611
283.195
292.35
293.228
293.522
291.238
293.422
293.102
293.055
293.843
293.44
294.737
293.442
292.664
291.902
293.305
291.785
293.436
293.559
293.591
293.422
294.367
293.427
293.968
293.315
294.054
293.955
294.062
293.122
293.08
293.211
292.327
293.729
293.46
288.341