/*--------------------------------*- C++ -*----------------------------------*\
  =========                 |
  \\      /  F ield         | OpenFOAM: The Open Source CFD Toolbox
   \\    /   O peration     | Website:  https://openfoam.org
    \\  /    A nd           | Version:  10
     \\/     M anipulation  |
\*---------------------------------------------------------------------------*/
FoamFile
{
    format      ascii;
    class       surfaceScalarField;
    location    "3.8";
    object      phi;
}
// * * * * * * * * * * * * * * * * * * * * * * * * * * * * * * * * * * * * * //

dimensions      [0 3 -1 0 0 0 0];

internalField   nonuniform List<scalar> 
214403
(
-0.00612183
0.00469386
0.000259577
0.00116839
-0.00295446
-0.00997691
0.000822222
0.0121091
-0.00914577
5.16055e-05
-0.000120855
0.00921502
0.00805766
-0.00541522
-0.0135068
0.0108643
0.0109855
-0.0138825
0.00329125
-0.000394214
-0.00477162
0.00497158
-5.02982e-05
-0.000149657
-0.000766609
-0.00145756
-0.00822846
0.0104526
-0.015162
0.00864674
-0.00228212
0.00879737
-0.0208823
0.0147411
0.0148623
-0.00872109
0.0126707
0.00150115
-0.0141813
9.46957e-06
0.00450854
-0.00891945
0.00184748
0.00256344
-0.00924032
0.00289355
0.00480243
0.00154434
0.000417755
-0.0102356
0.012346
-0.00252823
-0.00888618
0.00892194
-3.57586e-05
0.00172408
0.0106503
-0.0136654
0.00129108
-0.0106977
0.00894007
0.00269522
-0.00093763
-0.0108785
0.0105911
0.000287486
0.00354294
-5.04598e-05
-0.000816677
-0.00267581
0.0140081
-0.00837213
-0.0186297
0.0129937
-6.89731e-05
-0.00282045
8.27245e-05
0.0028067
0.00581698
-0.00567963
-0.000137354
-0.0109513
-0.00378707
0.00376745
0.0109709
-0.00204672
0.0121881
-0.0098162
-0.000325146
0.00600436
0.000621067
0.00208422
-0.00870965
-0.00918449
-0.00443967
0.0118815
0.00174263
0.00836081
-0.0105853
6.01601e-05
0.00216431
0.00287574
-0.00250688
0.00944959
-0.00981844
0.00690222
0.00902366
-0.0108681
-0.00505777
0.00999099
-0.00625962
-0.000283987
-0.00344739
-0.00532775
0.00543222
-0.000104476
0.00217558
-0.00454111
0.0121511
-0.00978558
0.0125822
0.000600004
-0.00217814
-0.0110041
-0.00511061
-0.00524473
0.00537056
0.00498477
-0.00106401
-0.00600117
0.00531562
0.00174956
0.00392167
-0.00262405
-0.00838886
0.00709124
-0.00151822
0.00757516
-0.00273669
-0.00332025
0.0143811
-0.000367471
-0.0140136
-0.00613036
0.0119847
-0.00585432
0.00110698
-0.0131997
0.00765149
0.00444119
0.00218902
-0.000882595
0.00537477
-0.00668119
0.0050636
-5.01099e-05
-0.00501349
0.00917014
-0.000203871
0.00162518
-0.0105915
-0.0116029
0.00145039
0.0123415
0.000784965
0.000793547
0.0077429
-0.00932141
-0.00370355
-0.0241428
0.0234234
0.00442299
0.00519385
0.000938426
0.00117361
-0.00730589
0.00379264
0.00286895
-0.00927158
0.00261
0.0119203
0.00713196
-0.0130479
0.00107983
0.0101474
-0.00205706
0.00165938
-0.00619941
-0.0036524
0.00819243
0.00281952
0.00433582
0.00129312
-0.00844846
0.00164961
-0.00124027
-0.00380222
0.00339289
0.00624067
-0.0112993
0.00787813
0.0106651
-0.0100446
-0.00343641
0.00281581
0.00966617
-0.00176612
-0.00767638
0.0103995
-0.000429881
-0.00229322
0.00788692
-0.0101024
0.000125048
0.00209046
-0.0073578
0.000487905
0.0117568
-0.00488695
-0.013734
-0.0129341
0.0108494
0.0158187
-0.00732987
0.00736942
0.00144759
-0.00148713
0.00114847
-0.00936094
-0.00779112
-0.000162566
0.00405045
0.00390324
-0.0119893
0.00514147
0.00774875
-0.000900916
0.0141173
-0.0113712
0.000721078
-0.00346717
0.000645305
0.00023967
-0.00919833
0.00831335
0.000491557
-0.00259135
0.0127868
-0.010687
-0.031462
0.00334017
0.00354443
0.0245774
-0.00285563
0.00846133
-0.00268488
-0.00292082
0.00418102
-0.00218902
-0.00891463
0.00692263
0.00101199
0.00635963
-0.00806644
0.000694814
-0.000141791
0.00763789
0.002646
-0.0101421
-0.00151162
-0.000247436
-0.00317488
0.00493394
-0.00818308
0.00893965
-0.000337178
-0.00041939
0.00029436
-0.00810264
-0.00578222
0.00512209
0.00155443
-0.000894298
-0.015102
-0.000954137
0.00735382
0.00870235
-0.00454574
-0.00193651
0.00386543
0.00261682
0.00673588
-0.0225967
0.00312521
0.0127357
-0.00349248
0.00702494
-0.00383715
0.000304687
0.00499439
-0.00388225
0.000491565
-0.0016037
0.000117477
-0.00952044
0.00940297
3.20738e-05
0.00771111
-0.00774319
0.0067417
-0.00131732
0.000891877
-0.00631625
-0.00413097
0.00589454
0.00195347
-0.00371704
-0.00287019
0.0122592
-0.00295073
-0.00643831
0.00582814
-0.00995648
-0.000360171
0.00448851
0.00660914
0.00695401
-0.0135631
0.00975977
-0.0109706
0.0028159
-0.00160503
0.000950686
-0.0017631
0.0127545
-0.0119421
0.000377545
-0.00204402
0.00913527
-0.00746879
0.00219533
0.0192006
0.0055193
-0.0269153
-0.0167603
0.0147271
0.00957958
-0.00754637
0.000762081
0.00593756
-0.00796885
0.00126921
0.00792122
0.00877285
-0.00285669
-0.0138374
0.0145414
-0.0088399
-0.00027541
-0.00542606
0.000643977
-0.00188919
-0.00593242
0.00717763
-0.00600254
3.43315e-05
0.00596821
0.00884896
0.000302773
0.000608043
0.0110266
0.000927149
-0.0167968
0.00484302
-0.00885446
0.00194746
0.00157074
0.00533626
-0.00566604
0.0014053
0.000696326
0.00356441
0.00135903
0.00097952
-0.0116063
0.00926774
-0.00236177
-0.013742
0.00876151
0.00734224
0.00555257
-0.00657868
-0.00428359
0.0053097
0.00895389
-7.62093e-05
-0.00894989
7.22099e-05
0.00680975
-0.00962804
-0.00332491
0.00614319
0.0176414
-0.00534012
-0.00274799
-0.00955328
0.0100482
-2.06369e-05
-0.0092209
-0.000806663
-0.00515757
0.00605911
0.0126008
-0.0135024
0.0109416
-0.0038356
-0.0105279
0.00342193
0.00202785
-0.00298479
0.012908
-0.011951
-0.0143888
0.0130993
0.0124369
-0.0111474
0.000652791
-0.0112504
0.0043289
0.0062687
0.0141626
-0.000740623
-0.000305694
-0.0131163
0.0100282
-0.00194813
0.0019461
-0.0100261
-0.0117253
-0.0106954
0.0126498
0.00977091
-0.00220906
0.006337
0.00171818
-0.00584612
-0.00486314
0.00026521
0.00942551
-0.00482758
-0.00108335
0.0123016
-0.011434
0.000215753
-0.0107893
0.010019
0.00195011
-0.00117988
-0.000362882
-0.00629013
0.0150138
0.00195478
-0.00649333
-0.00476091
0.00929947
-0.00514485
6.57796e-05
0.00507907
0.00157816
0.0071762
-0.00663844
-0.00211592
0.0115821
-0.00667447
-0.00177954
-0.00312809
9.74497e-05
-0.0034771
0.00337966
-0.00646868
-0.00174817
0.00243757
0.00577929
0.000686481
0.00378131
-0.00845858
0.00399079
0.0143436
-0.00129619
0.00560414
-0.0186516
0.00101002
-0.00128653
-0.0171226
0.0173991
0.00110479
-0.00492177
-0.00648569
0.0103027
0.000412143
0.00892829
-0.000491477
3.50259e-05
-0.00531994
0.00528491
0.0107982
-0.00401332
-0.00483015
-0.00654179
0.00545809
-0.00538498
0.0119634
-0.00995838
-0.00122196
-0.000783042
0.00119204
-0.00563241
0.00246256
0.0019778
-0.00973319
-0.00295938
0.00198868
0.0107039
0.0081232
-0.0131771
0.00869758
-0.00364368
-0.000351134
0.0119378
-0.0119483
0.000361617
-2.77731e-05
0.0110972
-0.0109901
-7.93095e-05
-0.0151594
0.0121077
-0.00971956
0.0127713
0.0126229
-0.0122276
-0.000395289
-0.0116901
0.0156364
-0.00283358
-0.0011128
-0.0104254
0.0025166
-0.000793349
0.00870214
-0.0170661
0.00129985
0.0109718
0.00479446
0.00301433
-0.00411643
0.00229415
-0.00425647
0.00483772
0.00778395
-0.00836521
-0.00451357
-0.00202589
0.00258315
0.0039563
-0.00618454
0.00403484
-0.0077544
0.0099041
0.00185005
0.000147849
-0.013688
-0.00616621
0.00615203
1.41755e-05
0.00669901
-0.00644349
-0.000255523
-0.0100764
-0.000659516
-0.0026649
0.00246669
-0.0132376
0.0153981
-0.00462722
0.00595045
0.0102052
-0.0129973
-0.00315837
0.01134
-0.0123283
0.000346565
0.000641677
0.00615879
0.00157935
-0.0063442
-0.00139393
-0.00958406
-0.000528752
0.0125795
0.00558736
-0.0004033
-0.0068113
0.00162724
0.0062967
-0.00539127
0.00621041
-0.00711585
-0.0107987
0.00204339
0.0147057
-0.00367293
-0.00509415
0.0168931
-0.00812602
-0.00520942
-0.00575555
0.0013809
0.00154157
0.0041423
-0.0108933
-0.00739198
-0.000636126
0.0118861
-0.00385803
0.00115182
0.00183242
0.00659306
-0.0095773
-0.00348291
0.00852433
-0.00504143
0.00275625
-0.0133562
0.0048444
0.00795688
0.00555844
-0.0119737
-0.0111526
0.000135735
0.0138952
-0.00287827
0.00193011
0.00165409
0.00516855
-0.00875275
0.0077207
-0.00776584
4.51412e-05
0.00282303
-0.00106649
0.0094774
-0.0112339
0.00996696
-0.00314753
0.00478034
-0.0115998
0.0185667
-0.0060022
0.0138539
-0.0264183
0.00298402
0.00555636
-0.00231038
-0.00623
-0.00845127
0.00347608
0.00442749
0.00054771
0.00605177
-0.00455922
-0.000126228
-0.00136632
-0.00384253
-0.00485722
0.01416
-0.00546022
-0.00677614
0.00881084
0.00350288
-0.00553758
0.0102206
-0.000558117
-0.00336582
-0.0156149
0.0103308
-0.000900505
-0.0149028
0.013755
0.00640424
-0.00525648
0.00950454
-0.0107238
-0.00154557
0.00276487
0.0053329
-0.00967686
-0.0050421
-0.00554878
-0.00509174
0.00287884
0.00776168
-0.00789435
0.00245582
0.007808
-0.00236947
0.00922457
-0.00877652
-0.00605575
0.0056077
5.69099e-05
-8.01465e-05
-0.00869877
0.00872201
0.000217103
-0.0075779
-0.000280186
0.00764098
-0.00219847
-0.0130289
0.00205052
-0.00753866
0.00677638
-0.00128824
-0.00504783
-0.00212184
-0.000724683
-0.000145143
0.0126564
0.000159482
-0.0303447
0.0213507
0.0154374
-0.00644344
-0.00903943
0.000622378
0.000310194
0.00810686
-0.00178216
0.0284255
-0.0334777
0.00683433
0.00143719
0.00221625
-0.0049732
0.00131975
-0.0193315
0.0104147
0.00135915
0.0075576
-0.000220013
-0.0127307
-0.00183205
0.0147828
-0.00520425
0.0191993
-0.0133108
-0.000684214
0.00862567
0.0125419
-0.0115935
-0.00957405
-0.0102754
0.00980612
0.0121498
-0.0116805
0.00404257
0.00564814
-0.00703569
-0.00265501
0.00395954
-0.00265951
-0.00634786
-0.0204326
-0.000810211
0.0166794
0.00456337
0.00607207
0.000938417
-0.00353441
0.00617097
0.00827012
-0.00763269
-0.0068084
-0.0102203
0.00227963
0.00995788
-0.00201721
0.00120087
0.00323609
0.0111995
-0.0118214
0.0116535
0.00113239
-0.000964555
0.00741504
0.00582329
-0.00524408
-0.000206162
-0.00147719
0.00692743
-0.00779819
-0.00156737
0.00436011
-0.0150008
0.00638235
0.00425831
0.000451613
0.00814146
-0.00902369
0.000430616
-0.00310356
0.0006007
-0.00288665
0.00538951
0.0125554
-0.00898073
0.000384851
-0.00713489
-0.00558169
0.00750619
0.00521039
0.0269337
-0.0288357
0.00945245
-0.00755036
-0.00525053
0.0065235
0.00262781
-0.00390079
-0.012103
0.00522949
0.0105224
-0.00364882
-0.00513515
0.00745348
0.00958405
-0.0119024
0.0143217
-0.00551018
-0.0094725
0.000660999
0.000247777
-0.00346463
0.00842499
-0.00520814
-0.00146399
0.00144803
-0.0111367
0.0103445
0.00334633
-0.0110759
-0.00261492
0.0130034
-0.0106728
-0.0028593
0.00269518
0.00397588
-0.00943947
0.00276841
-0.00542102
-0.00988122
0.00880042
0.00650183
-0.00162893
-0.0042299
-0.00127605
0.00529626
-0.00564388
0.0121561
-0.0118085
0.00129158
-0.01473
0.0134384
0.00496328
-0.00651229
0.00424419
0.00276511
0.00160296
0.00226413
-0.0066322
-0.000284922
-0.0123337
0.0126186
-0.00681476
0.000904396
-0.00221136
0.00812172
-0.000826395
0.00939905
-0.00854831
-2.4347e-05
-0.00632841
-0.00336578
0.00366569
0.00602849
-0.00234691
-0.00561044
-0.00519037
-0.00763103
0.0063567
0.0064647
0.000289271
-0.00782655
0.0133844
-0.00550226
-0.000712739
-0.00716945
0.00725463
-0.000704163
-0.00528915
-0.00126133
-0.00115013
0.0100264
-0.01251
0.00363371
0.00645279
0.000248912
0.00314123
-0.00984293
-0.000237764
-0.00530535
0.00256413
0.00297899
-0.00371754
0.00483299
0.00931703
-0.0104325
-0.0130972
-0.00336738
-0.00363846
0.0119691
-0.0114802
0.000303184
0.00356413
0.00761285
0.00109182
-0.0039881
-0.00705407
0.00995035
-0.00522614
-0.0102012
0.0025749
0.0128524
-0.00467417
-0.00517503
0.00538945
0.00445974
-0.0121607
0.011706
0.012374
-0.0119193
-0.00166832
-0.00291545
-0.00880005
0.0133838
-0.0120563
0.00119061
0.0122696
-0.00140387
-0.00210328
0.0055837
-0.00348043
-0.00487775
0.00901581
-0.0067864
0.00264835
-0.000191336
0.0159069
-0.00595232
-0.00976326
-0.00571544
-0.00278147
0.0114666
-0.00296971
0.00183709
-0.00481797
0.0109075
-0.00792666
0.000509624
0.00722324
-0.00126542
-2.80154e-05
-0.0116043
0.0116003
3.20293e-05
0.0135156
-0.00239529
-0.0197548
0.00863446
-0.012485
-0.00121868
0.01558
-0.00187637
-0.00677271
0.0102336
0.000838973
-0.00429983
0.00604965
-0.00598366
-6.59904e-05
-0.00712155
0.000695696
-0.0061253
0.0125512
-0.0102184
0.0140826
-0.00291248
-0.000951784
0.00637871
-0.00266659
-0.00768876
0.00397663
-0.0123444
0.0124334
-8.90226e-05
0.0101662
-0.0147617
0.00118349
0.003412
-0.0114835
-0.00315201
0.0196578
-0.00502225
0.00853254
-0.000359519
-0.00179093
-0.00638209
-0.00484509
-0.00822184
0.0183632
-0.000855474
-0.0121045
0.00731609
0.0189382
-0.0211181
-0.00201601
0.00419587
0.00518991
0.0024754
-0.00573519
-0.00548847
0.00571639
-0.000227918
-0.00216949
0.0121517
-0.000782625
-0.0091996
-0.00265311
0.00314824
0.0105947
-0.0110899
0.00696394
0.0163685
-0.00953926
-0.0137931
0.012069
-0.0144779
0.00460379
-0.0021949
0.0107693
0.000136632
-0.0109059
0.000188716
0.0104917
-0.0106804
0.0118289
-0.0143084
0.0126458
0.000108796
-9.57711e-05
0.00943058
-0.0094436
0.000218808
0.0168788
-0.0168182
-0.000279467
-0.00142058
-0.00422619
-0.00858742
0.0142342
-0.00526087
-0.00312213
0.00105273
0.0099894
-0.017351
0.00630891
-0.00831979
-0.00218063
0.00891924
0.00158119
-0.0100275
0.0110681
-0.00295503
0.00191437
0.00154854
0.00806795
-0.00274485
-0.00687164
-0.00386066
0.000936958
0.00659653
-0.00367284
-1.56746e-05
0.00305161
-0.00385137
0.000815437
-0.00422602
0.0103462
-0.00597053
-0.000149679
0.00306952
-0.00973912
-0.00567481
7.81296e-05
-0.00909123
0.0090131
-0.00342685
-0.00328754
0.00152401
0.00519039
0.00503487
-0.00290461
-0.00213026
0.0126479
-0.01257
-0.00255876
0.00248081
-0.00116725
-0.00759305
0.00702005
0.00174026
-3.24854e-05
4.29722e-05
0.00691699
-0.00692748
0.00345048
-0.00283728
-0.0109794
0.0103662
0.00796637
-0.000201844
-0.00776453
-0.0116058
-0.00750957
0.0111862
0.00792916
0.00673104
0.0105088
-0.0180954
0.00638331
-0.00229674
0.00360494
-0.00769151
-0.00257809
0.00258188
-0.0142804
0.0142766
0.00397102
-0.00783504
-0.00761351
0.0114775
-0.000804403
-0.00179325
0.00843348
-0.00583582
0.00587277
-0.00721657
0.00261511
-0.00127131
0.00329148
-0.0054573
-0.00527527
0.0074411
-0.0104284
0.0117329
-0.00310371
0.00179916
0.0120194
0.0154353
-0.0170113
-0.0104434
-0.00928489
0.00925332
3.15695e-05
-0.00103976
0.0108992
-0.0136087
0.00374923
0.000416953
-0.000678685
-0.0105407
0.0108025
0.0101908
0.00042755
-0.0117246
0.00110625
-0.00445536
-0.00752965
0.00946951
0.0025155
-0.0107644
0.0152476
-0.00539932
0.000916065
-0.00433266
-0.00531724
0.00315657
-0.000640585
-0.000115801
-0.00750291
0.0082593
-0.0245199
9.88e-05
0.00216437
0.0222568
0.000964739
-0.00619628
-0.00320712
0.00843866
0.0153134
-0.0012636
-0.00496619
-0.00908363
-0.00269197
-0.00586589
0.00111447
0.00744339
0.00438132
-1.43976e-05
-0.00436692
0.00723354
0.00384289
-0.00240237
-0.00867406
0.00558467
-0.00441823
0.0109754
-0.0121418
0.000345625
0.0114617
-0.00378357
-0.00802379
0.00276939
0.00397546
0.00856856
-0.00543788
0.000398854
0.00503903
-0.00709278
0.00101194
0.00187623
0.00118625
-0.00978211
0.00671963
-0.00930774
0.0136288
0.00411347
0.0140675
-0.00296972
-0.0152112
-0.00899475
0.00881958
-0.0139617
0.0141368
-0.00133355
-0.00668758
0.00233992
0.00568122
-0.00741847
0.0140276
0.00419338
-0.00488618
0.00110458
-0.000411779
-0.00461234
-0.0146523
0.00458374
0.0146809
0.00960228
-0.00957685
-0.000103359
7.79257e-05
0.00779144
-0.0091183
0.00193869
-0.000611833
0.00198488
0.00782178
-0.0139253
0.00411861
3.54148e-05
0.00666736
-0.00670278
0.00435094
-0.0111584
0.00879232
-0.00420352
0.011312
0.00952067
-0.0166292
0.00320752
-0.00328563
-0.0152462
0.0153243
-0.00459559
0.00761302
-0.0152902
0.0122728
-0.010916
0.00868994
0.0113778
-0.00915176
-0.00679668
0.00931093
-0.00601628
0.00350203
-0.00146577
0.00638783
0.00104107
-0.00596313
0.00316435
-0.00461523
0.00475896
-0.00330809
0.00611047
0.00227431
0.00201002
-0.0103948
0.0170983
-0.0115933
-0.000719102
-0.00478589
8.5904e-06
-0.00830174
0.00829315
0.00521997
-0.00762712
-0.0233926
0.0257998
-0.00105911
-0.0113094
-0.00341006
0.0157785
-0.000682209
-0.00516282
0.00584503
0.00158781
0.00750883
-0.00120784
-0.0078888
-0.00208228
-0.00752088
0.00606818
0.00353497
0.00595228
-0.00498829
-0.00875511
0.0149216
-0.0116298
0.00334629
0.00354426
-0.00689055
0.0113573
-0.000133256
-0.00134541
-0.00987866
-0.00220105
-0.00374474
0.00594579
0.00400275
0.00266019
0.0225694
-0.0271646
-0.00956005
0.0141552
0.00343943
0.00732428
-0.00560262
-0.00516108
-0.00787016
0.0151349
0.0100066
-0.0172713
0.00894875
0.00310432
-0.00119145
-0.0108616
0.0146176
-0.00974937
0.00628889
-0.0111571
-0.00825703
0.0037877
-0.0104412
0.0149105
-0.0134568
0.0240665
-0.00941076
-0.00119885
-0.000368333
-0.00569726
-0.00785721
0.0139228
0.0108817
0.00450776
-0.0127636
-0.00262582
0.00590247
-0.0157352
0.00992035
-8.76186e-05
-0.0137376
-0.00052278
0.00897332
0.00528702
-0.00277705
0.00717232
0.00311629
-0.00751155
-0.00174135
0.00698393
0.00563608
-0.0108787
-0.0144612
0.00743229
-0.000673038
0.0077019
0.00129333
-0.00386925
0.00769527
-0.00511934
0.00617588
-0.00310653
0.00220439
-0.00527375
0.00590711
0.00114253
0.000582806
-0.00763245
-0.00863672
0.00926605
0.00343502
-0.00406435
-0.00206542
0.0110313
0.00021166
-0.00917754
0.00892383
-0.00523691
-0.00345494
-0.000231976
0.00763773
5.37512e-05
-0.00769148
0.00558282
0.00432242
-0.000981791
-0.00892344
0.00263988
0.00693895
0.00588917
-0.015468
1.57312e-05
-0.0124714
0.0124557
-0.00650358
0.0251271
-0.00367699
-0.0149465
-0.000102699
0.00937943
-0.00927673
-0.000621467
-0.00671123
0.00120553
0.00612716
-0.0122782
0.00626261
0.00475521
0.00126041
0.00251425
0.0020668
-0.0143445
0.00976344
0.00725676
0.0114649
-0.00428338
-0.0144382
0.0110368
-0.00377817
-0.0105627
0.0033041
-0.0137396
0.00785176
0.0210141
-0.0151262
-3.54081e-05
0.00535346
-0.00535404
3.59808e-05
-0.00553559
0.00547945
5.61473e-05
-0.0139874
0.000206536
0.00591071
0.00158546
0.00337718
0.00925153
-0.0142142
0.00724941
-0.00862363
0.00556345
-0.00418923
-0.00709942
0.00621757
-0.00023501
0.00111686
-0.00145414
-0.0116459
0.0148689
-0.00176887
-0.00522891
0.00251696
0.00827904
-0.00556708
0.00897677
-0.00345753
0.00131226
-0.00683151
-0.00588613
-0.00102533
0.00688954
2.19214e-05
-0.00103432
-5.57322e-05
0.00982912
-0.00873907
0.00121333
-0.00103641
0.00969949
-0.00987641
-0.00874849
0.0122324
-0.0128261
0.00934211
5.5777e-05
-0.0110009
0.0109451
-0.00391462
0.000332642
0.00989448
-0.0063125
-0.00745478
0.0087165
-0.0118892
0.0106274
-0.00765827
0.000581676
0.00231568
-0.00356648
0.00967795
0.000541851
-0.00665332
-0.00256751
0.000355195
-0.00432947
-0.00380411
-0.0123826
0.0124379
0.00374884
-0.00551879
-0.000645844
-0.00139034
0.00755497
-0.018887
0.00637661
0.00188544
0.0106249
-0.00591568
0.0137151
-0.00685638
-0.000943009
0.0041328
0.00163067
-0.00833098
0.00819237
0.00832475
-0.0165171
0.00112037
0.0180774
-0.00418446
-0.0150133
-0.000231277
-0.000326283
-0.00806922
0.00862678
-0.00867595
0.014274
-0.005754
0.000155999
0.00820863
-0.00517176
-0.00744247
0.00440561
0.00207996
-0.000279156
0.00254614
0.0126718
0.00351353
-0.018282
0.00209666
-0.00881737
-0.00112504
0.00288136
0.00706106
0.00327958
-0.00365993
-0.00493689
0.0152041
-0.0102278
0.0079706
-0.0129469
-0.00170198
0.00982885
-0.0169949
0.00886807
0.00586333
-0.007427
-0.000750231
0.0023139
-0.00647577
-0.00225406
-0.00021818
0.00894801
-0.00484845
-0.00456568
0.00941413
0.00122221
-0.0130689
0.0115752
0.000271529
0.00497099
-0.00481117
-0.00500828
-0.00817782
0.0103723
-0.00197786
-0.000216636
0.0116247
0.00319532
-0.0125126
-0.00230744
-0.00451582
-0.00658828
-0.000758839
0.0118629
0.00752834
-0.00229056
0.00872884
-0.0139666
-0.00829232
-0.000456171
-0.00984574
0.00528006
0.001264
-0.0109979
0.00351922
0.00621468
0.00323675
-0.0115854
0.0063622
0.00198645
0.00174395
0.000445114
-0.00871491
0.00652584
0.00131196
0.00563856
-0.000388248
0.00987043
-0.00194952
-0.00753266
-0.00386149
-0.000411541
-0.0036159
0.00788893
-0.00229222
-0.0030876
0.00590329
-0.000523457
-0.00907256
-0.000111923
-0.0152179
0.00547854
0.00799803
0.0217041
-0.000192034
0.00298441
-0.0244965
-0.00956844
0.0148258
0.00302523
-0.00828257
-0.0027199
0.00148076
0.00935439
-0.00811525
0.0011236
0.00318984
-0.00246727
-0.00184617
-0.0163507
-0.00338976
0.0140964
0.00564406
0.000364212
0.00699408
-0.00140601
0.000224778
0.0034648
-0.0108931
0.00720349
-0.00669099
-2.23574e-05
0.00246643
0.00424692
-0.00937859
0.0115924
-0.00184955
0.00529062
-0.00476983
-0.000520793
-0.00775553
0.00109282
-0.00602337
0.0126861
-0.00352693
0.00530822
-0.00409254
0.00231125
-0.00759698
0.00855542
-0.00353482
0.00257638
0.00336712
-0.000560356
-0.00790744
0.00510068
-0.00339909
0.0212997
-0.028665
-0.00302521
-0.00211122
0.00206747
0.00306896
0.00999026
-0.0156053
-0.000703847
0.00631892
-0.00417819
0.00311707
0.00537515
-0.00431403
-0.00125192
0.00661046
-0.00181721
-0.00354134
-0.0074292
0.00164834
0.00173761
0.00404325
-0.00423344
0.00036304
0.0038704
0.00955516
-0.00454868
-0.00484933
-0.000157162
0.000717282
0.00487545
-0.00740137
0.00180863
-0.00511474
-0.00619676
0.00632048
0.00499102
-0.00271018
0.0069431
-0.0059289
0.00169598
0.00247189
-0.00467723
0.00322324
-0.00101789
0.00904745
0.000234673
-0.00928213
0.00778903
-0.00961165
0.00476598
-0.00294335
-0.0122325
-0.000341094
0.0125736
0.00498529
-0.00413566
0.000965871
-0.00181549
-0.000388779
0.00866795
-0.00947204
0.00119288
-0.00430611
0.00539132
0.00138668
-0.0048853
0.0104641
0.00966885
-0.00819353
0.00810441
8.91234e-05
0.000199038
-0.0129282
0.0127291
0.0175164
0.00209657
-0.00370498
-0.015908
0.00367701
-0.0143274
-0.00177275
0.0124231
0.00275882
0.0032547
0.00185825
-0.00787178
-0.00492201
-0.00491068
6.41538e-05
0.00976853
-0.0023497
0.0032178
-0.00579011
-0.0107647
0.00195791
0.014128
-0.00532122
-0.0212439
0.0155679
0.00684674
-0.00117071
0.00936294
5.46069e-05
-0.00941755
-0.00540463
-0.00727591
0.00470381
0.00797673
-0.00534222
-0.00773148
0.00230902
-0.007679
0.00417025
0.00482071
0.00312915
-0.00408129
-0.00747
0.00842214
-0.00523079
2.54659e-06
0.00522825
-0.0122932
0.00500152
0.00508284
0.00220885
0.00307696
-0.0082505
-0.00250546
0.0105258
-0.00335361
-0.000253559
-0.00691859
-0.00711358
0.0117892
0.00697543
-0.0116511
-0.00211972
-0.00443539
0.00166878
0.00488632
-0.00296841
-0.00238735
0.00535576
-0.00522889
-0.0109767
-0.00503828
0.00248453
3.23821e-05
0.00501304
-0.00752996
0.0100582
-0.0073182
-0.0105788
0.00783878
-0.00373224
0.00133757
0.00752488
-0.00513021
0.00701172
-0.00493672
-0.000693621
-0.00138138
-0.00803948
0.00130779
0.00627908
0.000452603
-0.00497462
0.011416
-0.0124015
0.00483613
0.000357373
0.007208
0.0117365
-0.0093888
-0.00738414
0.00503643
-0.00931989
0.00195606
0.0174221
-0.00898522
-0.00593355
0.00967278
0.00524599
-0.00104842
0.00936216
-0.00355328
-0.00476047
0.000541651
-0.00564711
-0.0037448
0.00885026
0.0106609
-0.00703379
-0.000431626
-0.0031955
0.00332347
0.00247331
-0.00814648
-0.0022421
0.00253802
0.00625557
-0.00655148
-0.00187762
0.00978135
-0.012059
0.00415523
-0.00595432
0.00143694
0.00144081
0.00307658
-0.0128898
0.0130931
-0.000203353
0.00905737
-0.00894111
-0.000116256
0.00364044
-0.0139785
-0.00538268
0.0157208
0.00315033
0.00596548
0.00140994
-0.000148902
0.00520895
-0.00506005
0.00860194
0.00766098
-0.0162629
-0.00927605
0.005663
0.004003
-0.000389948
-0.00520853
0.00171675
0.00423459
-0.000742812
-0.0156891
0.00733702
0.00860882
-0.000256691
-0.00504564
-0.0056271
0.00544194
0.00813411
-0.00129302
-0.00522372
-0.00161738
-0.00858761
0.00927388
-0.00566089
0.00152958
-0.00972222
-0.000499411
0.00869204
-1.35747e-05
-0.00483595
0.00484953
0.0234795
0.000162951
0.00252185
-0.0261643
-0.000891479
-0.00175321
-0.0129009
0.0155456
0.00404939
-0.00548363
-0.00254922
0.00398346
0.00159117
0.0121736
-0.00492605
-0.00883877
0.0132099
-0.0132019
-1.12207e-05
3.20043e-06
-0.00743404
-0.0067041
0.0104788
0.00365931
0.00433744
0.0032911
-0.00861935
0.00099081
5.46152e-05
0.00804975
-0.00821635
0.000111986
-0.0110597
0.0035577
0.00896019
-0.00145815
0.00843298
0.00509716
-0.00853685
-0.00499329
0.000193048
-0.00757248
0.00380479
-0.00195676
0.0113618
-0.0060739
-0.000789339
-0.000945901
0.00780914
-0.010252
0.000517679
0.0097343
0.0149865
0.00647519
-0.00485981
-0.0166019
-0.00977185
0.000204993
0.00975991
-0.000886447
-0.00230687
-0.00589147
0.00908479
-0.00112651
-0.00118349
-0.00317222
0.00548221
0.00245349
-0.0124878
0.00942573
0.000608632
0.00782857
-0.0012099
-0.0076294
0.00101073
-0.0095568
0.00197923
0.000743984
0.00683358
-0.00365909
0.00241114
-0.0050167
0.00626466
0.00209062
0.00134934
-0.012354
0.00891407
0.000419418
-0.00837252
-0.000567741
0.00852084
0.00829131
0.00110548
-0.000160875
-0.00923591
-0.00992154
0.00230135
0.00897922
-0.00712136
-0.00943595
0.0165573
0.0137432
-0.00696597
0.0029736
-0.00975079
0.00108361
0.00767722
-0.00471144
-0.0111568
0.0020479
0.00395925
0.00514967
0.0137778
-0.0142094
0.000431612
-0.00842086
-0.00286121
0.00589683
0.00538524
-0.0109218
-0.00847573
0.00568826
0.0137093
0.0111359
-0.0116288
-0.00142479
0.00191773
-0.00161999
0.00541647
-0.00427119
0.000474718
-0.0140556
0.00459973
0.00322408
0.00623175
-0.020724
0.0257528
0.00432413
-0.00935288
0.00927196
-0.0200974
-0.00104351
0.0118689
-0.00823826
0.0105121
-0.0194757
0.0172018
-0.00858968
0.0188953
0.0018808
-0.0121864
0.000763864
0.00900784
-0.00211995
-0.00765176
0.0136835
-0.0102718
-0.000337888
-0.00307389
-0.00238848
-0.00229226
0.00350635
0.00117439
-0.00642823
-0.0134121
0.0114789
0.00836142
-0.00918356
0.0122311
0.010636
0.00757926
-0.00557342
-0.00694182
0.00493599
0.00274048
-0.00354687
-0.00156552
0.0023719
0.00606304
-0.00600516
-0.00797758
0.0079197
-0.00245827
0.00705306
-0.000509861
-0.00408493
-0.00981575
-0.00158841
0.012168
-0.00737133
-0.00181252
0.00911294
7.09056e-05
0.003082
-0.00688407
0.00380207
0.00243415
-0.00321476
0.011968
-0.0111874
0.00952418
-0.0134249
0.00197207
0.0019286
0.00603229
-0.00650664
0.000474357
-0.00942534
0.000241789
0.00838704
-0.00320341
-0.00809883
0.00291521
0.00266061
0.00213354
0.00935324
-0.0141474
0.00590722
-0.00641259
0.000505369
-7.15101e-05
0.00728462
-0.00823525
0.00102214
-0.0103669
-0.000990497
0.0137915
-0.00444128
-0.000757623
0.00102552
0.00417338
0.000613224
-0.00507103
0.00374295
0.000714859
0.00832678
-0.00796231
-0.00198446
0.000970229
0.013976
-0.00882616
-0.00612003
-0.00475816
0.0100349
-0.00527672
-0.0128934
0.00493675
-0.00301249
0.0109691
0.0101372
-0.00917763
-0.0150151
-0.00500853
-0.00599279
0.0205936
-0.0095923
-0.014543
0.00926096
0.0132124
-0.00793037
-0.000297534
-0.0123833
0.0126808
0.0196183
5.09016e-05
-0.0113209
-0.00834828
0.0114003
-0.0073425
-0.00101749
-0.00304031
-0.00831593
0.00589781
-0.00147877
0.0038969
9.76475e-05
-0.00859508
0.00849743
-0.00618793
0.00636973
-0.0001818
-0.0045309
-0.00479022
-0.0122732
0.0215943
-0.0115415
0.00250347
-0.00128195
0.01032
0.00271635
0.00440822
0.0120751
-0.0108796
-0.00900531
0.00780979
-0.00329089
-0.00679346
0.00748955
0.00259481
-0.0068391
-0.00347336
0.010319
-6.5241e-06
0.0022843
-0.00130674
-0.00642167
0.0054441
0.00754531
0.000344368
-0.00963904
0.00174936
0.00232054
-0.00161432
0.00253308
-0.0030568
0.00304503
-0.00252131
0.00619704
0.00604588
-0.00618413
-0.00605879
0.00305191
0.00715484
-0.00739983
-0.00280693
0.00639571
0.00277225
-0.00503516
0.00797997
-0.00965453
0.00201893
-0.0106268
0.00743383
0.00400533
-0.000812349
0.0125444
-0.00416184
-0.0131407
-0.00337656
0.00898898
0.00452477
0.00876464
-0.00425803
-0.00740264
-0.00203196
-0.00119221
-0.01177
0.0109564
0.00104959
-0.000236029
-0.000728273
0.0147207
-0.00152239
-0.01247
-0.0096135
0.00195724
0.00427971
-0.00153188
-0.00965655
0.00271701
0.00847143
0.00880586
0.00122132
-3.53074e-05
-0.00999187
-0.0131696
-8.34383e-05
7.15037e-05
0.0131815
-0.00342472
0.00373147
-0.00610733
0.00580057
-0.00905514
0.0114409
-0.00117522
-0.00121054
0.0118919
-0.011103
-0.00984399
-0.0087689
0.00790943
-0.00250196
0.00336143
0.00704895
-0.000316772
-0.00221685
-0.00451533
-0.0133618
0.0128728
0.00633159
-0.00584256
0.00640416
0.0024391
-0.000813447
-0.00802981
0.00225726
0.00572656
-0.00715946
-0.000824359
-0.004236
0.00426244
-2.64415e-05
-0.0024825
-0.00633497
0.0063592
0.00981062
-0.00974394
-6.66824e-05
-0.00539921
-0.00431891
0.00423449
-0.00057558
-0.00651796
-0.00072177
0.00781531
-0.000749685
-0.00576768
0.00515363
0.00136373
0.00887941
-0.0100917
0.00121226
-0.0114304
0.0117236
0.0107366
-0.0110298
-0.00769393
0.00595423
-0.00404842
0.00578812
-0.00312334
0.00133479
0.00282727
-0.00103872
-0.000319575
0.0139344
-0.00013024
-0.0134846
-0.00712991
0.00345499
0.00351235
0.00407803
0.0051893
-0.00905355
-0.00021378
0.000391622
-0.0112507
-0.000440232
-0.010038
0.0100491
-1.11435e-05
-0.00684507
0.0034533
-0.00753004
0.00227303
-0.00502904
0.000206782
0.00447187
0.00194194
0.00659525
0.000128114
-0.0056395
-0.00108386
0.00552267
-0.0137808
0.0110469
-0.0027888
0.00230383
-0.00314774
0.0116921
-0.0108482
0.0143016
0.00418893
-0.00219836
-0.0162922
-0.00362248
-0.00593338
-0.0019241
0.01148
0.00431849
0.0180514
-0.0162768
-0.006093
0.00208123
0.0131187
-0.0126605
-0.00253943
-0.00446407
0.00058731
0.00914937
-0.00527261
-0.00159262
0.0128388
-0.00692767
0.00929949
-0.00734954
-0.00286433
0.000914374
0.0030538
0.00793891
-0.0109927
0.00738416
0.00163893
-0.000983585
-0.0080395
-0.00678812
0.00542547
0.000544947
0.000817712
-0.000650058
-0.00967425
0.000567223
0.00975708
-0.00710417
-0.000899009
-0.000288375
0.00829156
0.00406702
-0.00901043
9.01537e-05
0.00354229
0.00537798
7.71752e-05
0.00584518
-0.00592235
0.000731847
0.0103657
-0.0264677
0.0153701
0.00296229
-0.00746792
0.00709485
-0.00258922
0.00425219
0.00485362
-0.00336217
-0.00574364
3.7304e-05
-0.0052619
0.00522459
-0.00286355
-0.00204506
0.0116111
-0.00670247
-0.00362485
0.0120669
-0.0104005
0.00195838
0.012852
-0.00893106
-0.0086226
0.00470162
-0.0052652
0.00360228
0.00164129
2.16187e-05
-0.000774993
0.00414878
-0.00219671
-0.00117707
0.0139266
-0.0108728
0.00642218
-0.000743288
-0.010513
0.00483415
-0.00293168
0.00274234
0.00328549
-0.00309615
0.00014624
0.0133064
-7.18618e-05
-0.0133808
-0.00975232
-0.00319385
0.0132031
-0.000256886
-0.00275412
-0.00120704
0.00304149