/*--------------------------------*- C++ -*----------------------------------*\
  =========                 |
  \\      /  F ield         | OpenFOAM: The Open Source CFD Toolbox
   \\    /   O peration     | Website:  https://openfoam.org
    \\  /    A nd           | Version:  10
     \\/     M anipulation  |
\*---------------------------------------------------------------------------*/
FoamFile
{
    format      ascii;
    class       volScalarField;
    location    "3.8";
    object      SgT;
}
// * * * * * * * * * * * * * * * * * * * * * * * * * * * * * * * * * * * * * //

dimensions      [1 -1 -3 -1 0 0 0];

internalField   nonuniform List<scalar> 
111485
(
8.04866e-17
1.04656e-05
2.4108e-05
4.10529e-17
5.5148e-05
1.0861e-17
4.79607e-05
7.25781e-06
1.9346e-05
1.05812e-06
4.71954e-05
1.22496e-05
4.52865e-06
2.00367e-07
6.71234e-06
3.33262e-05
1.92552e-06
0.00291009
1.17211e-05
6.56023e-16
4.56907e-17
3.19819e-17
2.78343e-05
3.74025e-05
1.20982e-05
2.57095e-17
4.82999e-05
2.63853e-06
2.17769e-05
4.57609e-18
5.3845e-05
1.93143e-05
2.06521e-15
8.55799e-18
1.00964e-05
6.54744e-18
1.29159e-05
7.25647e-07
6.48331e-11
2.29388e-05
1.88509e-18
8.49408e-05
1.84085e-05
1.49257e-06
5.32347e-08
1.69359e-16
3.67956e-05
7.85305e-07
5.70771e-05
3.28908e-17
9.251e-17
4.84295e-16
2.87542e-17
5.37662e-05
2.80775e-16
4.91358e-05
4.07827e-06
3.5456e-18
2.70897e-08
5.55323e-06
1.91831e-05
4.02314e-17
4.12152e-06
0.000110816
2.52001e-16
4.44267e-06
0.000371052
0.000119611
8.95499e-07
7.05382e-06
1.01401e-08
6.30165e-06
2.99211e-19
2.52202e-06
2.89806e-16
8.25984e-07
6.00861e-17
4.84508e-05
1.02634e-17
1.5593e-15
2.19935e-08
3.91543e-05
1.15028e-17
4.59579e-17
9.10219e-06
5.02177e-06
5.30612e-13
2.7114e-05
5.92974e-08
7.2732e-06
6.48546e-07
4.23827e-05
1.12554e-05
3.08778e-07
6.76519e-05
2.39391e-16
1.33709e-16
1.82494e-06
1.76105e-11
1.65063e-06
8.01664e-17
2.2764e-05
8.24863e-19
2.5843e-05
4.71338e-06
2.1935e-16
1.09656e-17
9.88212e-06
4.11718e-06
1.17763e-10
7.58061e-07
5.64126e-06
3.56614e-06
3.63669e-06
5.166e-16
2.30454e-08
2.5538e-17
5.53986e-19
1.24969e-05
2.35856e-16
3.00152e-17
9.21059e-16
8.90182e-18
1.36537e-18
2.45738e-06
2.88085e-09
5.55048e-18
2.05516e-06
3.47704e-17
1.06866e-07
1.39132e-06
3.45389e-05
6.61618e-17
2.01647e-15
4.67388e-17
6.06996e-05
2.40178e-17
4.92943e-05
2.66685e-05
2.59614e-06
2.11731e-07
2.40978e-06
2.5933e-05
3.34099e-06
4.83857e-06
7.54057e-06
1.09431e-17
2.01073e-16
8.24686e-17
3.02447e-05
2.29791e-06
1.09878e-16
1.83315e-10
6.2673e-06
5.98362e-10
1.13862e-05
2.017e-05
1.43459e-05
1.2661e-10
2.31542e-17
4.37086e-17
6.32438e-05
2.56365e-05
3.62817e-09
3.26838e-10
4.48605e-06
4.47676e-06
2.80523e-18
8.2423e-09
6.72657e-08
5.58508e-18
2.92191e-17
1.21783e-07
1.30253e-18
5.91224e-06
2.12438e-06
2.08934e-17
3.3092e-16
8.58683e-17
6.60189e-16
2.16823e-17
5.62242e-17
1.42076e-06
7.958e-06
3.26758e-05
1.39906e-06
8.18982e-06
3.52734e-06
1.09746e-07
5.31215e-17
3.97029e-06
1.48291e-17
1.51521e-17
6.21045e-06
1.16125e-05
2.93762e-05
1.41667e-05
1.0703e-06
1.43215e-16
8.05773e-06
8.65843e-07
5.47423e-08
1.48633e-05
2.80925e-06
1.00659e-16
3.73575e-06
2.91853e-05
2.42675e-16
2.48312e-07
8.93596e-06
3.29335e-06
3.74333e-07
3.08446e-17
3.57259e-16
7.26605e-06
7.66712e-15
0.000143515
4.54997e-18
6.54133e-06
2.16604e-05
0.000143787
7.32142e-17
2.59982e-06
1.54588e-05
3.75151e-16
2.74706e-18
2.99106e-17
0.000192709
4.8566e-10
2.399e-16
3.00027e-17
9.69265e-06
1.10092e-05
1.72514e-05
1.94492e-16
2.76747e-16
1.29448e-08
9.99208e-17
2.43174e-06
9.43956e-06
1.70941e-05
1.12949e-05
1.09486e-05
1.97112e-17
3.61922e-10
6.8407e-07
8.57899e-17
1.18961e-17
3.62747e-05
2.50259e-05
1.42263e-16
2.95406e-06
1.08207e-05
1.12646e-16
1.67419e-15
1.75486e-07
6.92964e-17
3.47475e-16
4.65664e-08
6.32229e-17
1.83536e-05
1.35655e-05
3.78245e-06
7.83688e-18
1.24174e-05
3.41107e-17
1.48093e-16
4.52354e-17
3.25301e-11
2.92912e-05
5.94903e-06
5.26246e-06
4.50148e-05
1.20753e-05
2.17062e-06
7.25826e-07
3.79917e-05
1.31892e-05
3.85103e-17
9.72654e-17
3.5815e-10
2.56469e-05
2.76898e-05
1.507e-05
3.81026e-17
7.71501e-06
2.84082e-06
3.15006e-06
1.38437e-08
4.78904e-09
1.48145e-05
2.28516e-06
2.33753e-06
1.20697e-17
9.98488e-07
4.79126e-18
2.92018e-10
2.16184e-16
0.000309357
8.16131e-05
1.67347e-05
2.5686e-16
9.08456e-18
1.01429e-05
2.51362e-06
3.7827e-16
9.36554e-17
4.41329e-16
4.99141e-07
6.3376e-05
3.9481e-06
1.75194e-05
2.34687e-05
2.84828e-16
5.86074e-18
1.20295e-16
4.15431e-06
2.02008e-15
1.32286e-06
0.000226218
5.70785e-10
6.64662e-18
2.04804e-16
9.46059e-17
2.11089e-15
6.78547e-05
1.41506e-05
1.69576e-18
5.71939e-06
1.34992e-15
4.15888e-17
8.1513e-05
6.33783e-06
1.33804e-05
9.44771e-06
1.51454e-15
1.21593e-15
4.16674e-17
1.03466e-05
1.58394e-05
5.73171e-06
2.58934e-17
2.1452e-13
2.43964e-07
1.83739e-06
8.99273e-06
6.14269e-08
3.48426e-05
8.73322e-18
4.46363e-05
3.61803e-06
8.9394e-06
2.88634e-05
1.44808e-05
5.64236e-17
1.90033e-16
2.03176e-18
1.30212e-17
3.67767e-05
1.07633e-05
4.65669e-05
8.14734e-05
7.00061e-18
2.12478e-05
2.05559e-18
1.96055e-16
1.69964e-05
1.67052e-17
5.94525e-05
1.58113e-16
4.79944e-19
2.75824e-05
1.31863e-18
1.25149e-05
7.40735e-07
7.79941e-19
1.26439e-06
1.78416e-05
2.48194e-16
8.6934e-06
1.29563e-05
8.59151e-06
6.14359e-07
2.65735e-06
8.69887e-06
1.76737e-15
9.45723e-17
1.69693e-06
3.57896e-17
5.93663e-06
0.000137844
1.51881e-16
9.3452e-18
3.09691e-05
1.05944e-07
2.65874e-06
2.86626e-05
1.41378e-17
4.99985e-05
2.82803e-05
2.63501e-19
8.36473e-07
2.95484e-06
1.36541e-16
1.5773e-16
1.27206e-05
5.37725e-06
2.01831e-17
2.8011e-18
2.07399e-11
2.56187e-16
1.38303e-05
1.20387e-17
1.35083e-16
2.1791e-05
2.46507e-09
1.65199e-05
2.91319e-05
6.95284e-18
6.31547e-16
1.33712e-06
1.11899e-16
1.51147e-07
1.42493e-05
0.000140187
0.00106612
7.66801e-18
3.52025e-06
3.87561e-07
8.20382e-16
4.24903e-05
4.0794e-05
2.71899e-18
1.1968e-11
1.13592e-07
9.92859e-16
2.73921e-05
3.28993e-05
1.68115e-05
3.78443e-17
1.24533e-06
2.52225e-05
2.29987e-05
8.37242e-10
4.44065e-16
5.4289e-13
3.94706e-17
1.82226e-08
2.64564e-05
1.10035e-18
1.05681e-05
9.33835e-08
5.18911e-16
4.25715e-18
8.44742e-17
3.09645e-16
6.27216e-06
1.51159e-05
6.51987e-06
2.90454e-06
3.79007e-06
3.85948e-17
3.35801e-06
2.00481e-16
4.00159e-05
4.25964e-17
6.65602e-17
1.64948e-16
4.17935e-05
5.72801e-17
1.53085e-16
3.12157e-10
7.71158e-17
2.75923e-18
1.10668e-06
3.25833e-18
1.19924e-15
1.25029e-17
1.71016e-17
1.77867e-16
7.5363e-17
1.11506e-17
8.99653e-06
1.98738e-17
4.55704e-07
2.34154e-06
1.55779e-06
1.30119e-17
7.80766e-07
2.52218e-17
5.5365e-17
2.84346e-06
1.8893e-06
3.11517e-05
2.74842e-05
1.3786e-16
2.41639e-06
8.41688e-05
1.05384e-05
1.31926e-06
3.42726e-06
1.79445e-16
2.23014e-05
1.14098e-15
4.76586e-06
4.74191e-18
8.25246e-05
1.01953e-15
2.34184e-05
4.04917e-07
1.0702e-10
5.88045e-17
2.3626e-06
4.24124e-17
9.5094e-05
5.38644e-05
3.20996e-18
1.24343e-17
7.70227e-16
6.78595e-18
1.38952e-12
6.60529e-05
4.46991e-19
1.82693e-18
3.73561e-06
2.10843e-17
3.58511e-05
1.46997e-17
4.10647e-07
1.94177e-16
6.13185e-07
9.90138e-10
1.50602e-06
1.25117e-05
1.06887e-17
2.60995e-06
6.94842e-17
3.72174e-18
1.6942e-05
3.96865e-18
3.9041e-08
2.40205e-16
1.65541e-06
3.09004e-16
8.00958e-05
8.38637e-17
5.56245e-16
1.79372e-05
3.51325e-06
1.75339e-06
4.4482e-06
6.73488e-06
2.5166e-05
4.40343e-17
2.45358e-05
7.15816e-06
1.70105e-17
9.33475e-11
4.28393e-05
1.47002e-05
7.9416e-16
6.00681e-06
6.62718e-06
1.60136e-06
1.49908e-06
2.40854e-13
1.59344e-05
9.9481e-07
2.07357e-07
2.92836e-05
1.64689e-05
1.04852e-06
4.07518e-16
3.55928e-12
0.000757901
7.9243e-17
5.32299e-07
4.44377e-18
1.45753e-15
8.36719e-06
3.9388e-06
1.95388e-10
1.32689e-08
1.77981e-15
2.00316e-05
1.32611e-05
1.58392e-17
1.41127e-13
3.0772e-06
4.62806e-17
2.89282e-18
1.50407e-17
1.98674e-16
1.77626e-05
1.89894e-17
7.13388e-17
1.10063e-05
3.64011e-06
4.68705e-16
1.13958e-05
3.66217e-16
8.99472e-06
7.37791e-17
2.66659e-17
6.36541e-05
7.73726e-18
1.10486e-16
2.56448e-15
4.26747e-06
1.1345e-16
3.72484e-05
7.8938e-06
1.14103e-16
9.16224e-05
2.81238e-06
3.08533e-05
3.04133e-05
1.07891e-06
8.9951e-08
4.05064e-17
6.86449e-05
4.6002e-05
1.79622e-16
4.56263e-07
4.76079e-05
7.01641e-06
1.01434e-06
3.21741e-05
2.99405e-05
1.9333e-17
1.41216e-05
5.94782e-09
2.63967e-16
3.67937e-05
3.16872e-07
1.05378e-16
1.3016e-05
4.31169e-05
1.78458e-06
2.13783e-05
2.00887e-05
9.48121e-06
1.67793e-15
1.05191e-05
3.48777e-07
8.69244e-15
1.68915e-05
1.71409e-05
4.11784e-05
5.69139e-18
2.64812e-06
1.31799e-17
5.74555e-18
1.91282e-17
7.59335e-18
1.5972e-08
7.09256e-16
2.33045e-13
4.16648e-16
6.24629e-17
4.27541e-08
4.63869e-05
1.65906e-16
4.21829e-05
9.79976e-18
5.79327e-16
2.88982e-16
4.73438e-05
5.82767e-07
1.20507e-15
2.14618e-17
2.06992e-17
2.43635e-17
0.000277151
8.27299e-05
1.39064e-15
2.13961e-06
3.97117e-09
7.72675e-17
4.22361e-05
8.19952e-06
1.81921e-05
9.40112e-19
4.20686e-17
4.00917e-07
1.21089e-06
1.44624e-15
5.05776e-18
3.85686e-16
7.06427e-06
1.46445e-18
5.20277e-16
6.16418e-17
4.7265e-05
2.35276e-06
1.82003e-17
0.00494275
0.000248302
1.39623e-05
6.71084e-18
1.13521e-17
6.68399e-05
3.99507e-07
1.88286e-16
7.38097e-09
0.00017783
3.37549e-06
1.24736e-05
9.74183e-16
6.95989e-05
1.97223e-06
3.05164e-18
6.83197e-17
8.84452e-18
4.92576e-18
1.4466e-17
2.36142e-17
2.37701e-05
2.11627e-16
1.73642e-17
3.55919e-16
1.31854e-05
2.91175e-05
8.45225e-17
1.248e-16
0.000126833
1.45576e-05
9.56206e-06
1.07598e-15
1.47101e-17
3.86048e-05
3.53789e-17
2.74592e-06
2.56918e-06
4.0865e-06
3.41883e-17
1.33387e-16
3.44751e-16
8.26788e-18
1.64039e-05
1.00654e-17
1.87216e-17
1.09768e-06
4.50779e-17
2.56039e-05
1.80676e-06
1.82646e-16
4.30834e-05
0.000628237
2.7084e-06
3.52752e-05
2.38945e-07
5.63048e-05
1.85254e-13
3.09598e-15
2.56809e-05
8.83958e-05
4.21299e-06
6.27049e-17
1.18906e-12
0.000772623
7.76555e-06
1.48545e-17
3.55436e-06
3.37268e-06
1.59109e-06
1.99548e-16
1.01474e-16
2.81989e-17
1.51113e-05
1.09661e-15
3.85385e-06
3.25677e-16
1.17944e-06
1.25292e-06
2.82088e-05
7.81398e-07
2.4489e-17
2.14811e-17
1.61714e-17
2.31107e-05
5.73382e-17
3.78854e-17
6.16571e-08
1.64841e-17
1.0741e-17
1.13174e-17
1.15784e-17
6.99747e-06
2.43633e-17
3.20087e-19
6.47448e-13
5.52562e-16
3.22036e-18
1.57891e-16
3.45206e-17
4.09727e-09
1.74007e-06
3.78934e-17
4.89332e-06
1.08361e-08
3.66818e-10
8.48009e-08
5.01109e-06
2.1991e-17
1.04741e-08
1.15591e-05
4.25664e-07
2.7421e-16
1.0625e-11
1.37014e-06
2.35453e-16
5.42383e-06
2.91164e-07
2.294e-09
2.56644e-05
5.20776e-06
2.67148e-06
3.85543e-06
2.11003e-06
3.02439e-17
9.25199e-17
3.02545e-06
7.43005e-06
3.69894e-17
6.19901e-06
6.56856e-05
3.67527e-05
2.59518e-16
1.77122e-06
3.12552e-18
1.40381e-05
1.76146e-05
3.08077e-17
4.6234e-07
7.49741e-07
1.63332e-09
2.47104e-06
1.65946e-16
6.2688e-05
2.08403e-08
2.09641e-06
4.45509e-08
1.69087e-08
1.44e-17
2.70666e-17
9.55419e-06
2.29501e-18
1.5998e-07
3.59842e-07
9.8261e-08
7.62124e-11
8.42842e-11
1.48429e-09
1.97463e-18
1.13354e-15
2.60664e-05
5.20148e-16
8.33071e-07
2.57664e-06
2.15167e-16
1.22554e-16
6.39372e-10
7.80269e-13
5.69777e-18
4.56681e-09
9.21592e-18
1.27687e-17
7.04854e-17
8.84391e-17
3.12398e-16
5.89133e-17
3.9118e-07
4.52358e-17
2.08789e-17
2.31051e-16
7.34905e-09
6.72038e-08
1.77033e-06
1.05653e-05
2.00013e-18
3.34668e-17
2.36672e-07
3.15117e-17
1.9559e-17
2.41981e-16
2.2767e-05
4.89882e-05
1.0257e-17
3.70247e-17
1.01685e-16
5.48991e-18
6.39386e-19
1.08329e-17
9.22251e-06
8.914e-18
5.16199e-11
2.94596e-05
2.34964e-17
1.23383e-16
4.7101e-17
2.21026e-08
1.47546e-16
6.90488e-17
2.90042e-17
8.28768e-09
1.72007e-17
5.77856e-06
1.29134e-09
4.22266e-12
1.68189e-18
6.3855e-08
2.95149e-06
5.40127e-05
3.08595e-16
7.34044e-09
7.84842e-06
2.62236e-17
3.1477e-17
3.71317e-16
7.0984e-17
8.95086e-06
5.20699e-06
4.36449e-06
2.12991e-10
2.76898e-18
2.9688e-05
8.06641e-17
4.47233e-16
1.48122e-16
2.11364e-17
2.98676e-05
1.45578e-17
7.63722e-17
2.53177e-09
7.09709e-05
4.04835e-17
3.50776e-06
6.58882e-16
1.21867e-06
9.2929e-16
3.49036e-17
4.5295e-18
2.45352e-16
3.47274e-06
7.81654e-07
0.000413363
1.11283e-17
4.5836e-16
2.98887e-06
4.55115e-18
8.10392e-16
9.19559e-17
5.24411e-05
7.84594e-09
3.11557e-05
3.25144e-16
9.42405e-09
4.31279e-08
1.80184e-15
1.03385e-07
1.42951e-16
1.94317e-06
3.05983e-05
2.80184e-05
1.72038e-06
3.29479e-07
6.17993e-17
7.91807e-18
2.63033e-18
1.95047e-08
4.00499e-18
7.22112e-06
6.39593e-18
0.000212874
1.75923e-17
4.85437e-05
3.0813e-06
5.43467e-16
6.2126e-18
2.48702e-16
2.172e-17
4.12475e-05
1.0523e-16
2.2518e-16
1.61272e-05
7.09195e-06
6.81706e-16
9.99478e-16
1.08893e-15
9.80742e-16
4.20578e-18
4.38699e-18
2.66026e-05
4.98258e-07
7.48452e-17
2.77178e-17
4.28889e-10
5.64857e-17
1.74105e-06
9.44392e-08
1.26212e-16
3.40973e-06
9.9262e-17
1.7984e-06
5.35526e-17
9.08291e-07
1.09355e-17
1.27917e-10
2.38446e-09
9.2368e-07
1.87085e-05
3.54663e-05
1.257e-09
3.46503e-17
5.26476e-07
8.80992e-18
5.11829e-06
6.63561e-17
3.53584e-18
2.68809e-16
2.41146e-17
2.89436e-17
2.56567e-17
7.33271e-06
7.99115e-06
1.345e-16
2.94124e-16
6.93343e-17
7.16345e-07
1.87288e-08
4.2584e-16
2.23269e-05
2.46658e-07
2.01952e-17
2.88875e-05
9.44668e-06
3.77737e-06
1.54119e-05
4.47035e-18
1.59213e-17
1.27475e-17
4.07458e-18
4.22492e-05
1.25638e-18
0.000128164
3.10451e-18
2.762e-07
8.15636e-07
1.75956e-17
8.77394e-07
4.42472e-19
4.73603e-18
2.92459e-06
3.1903e-11
8.41204e-06
6.04508e-18
6.29491e-17
9.1172e-18
7.05221e-07
1.00755e-16
2.38514e-17
2.81915e-16
4.83406e-10
4.58882e-16
1.17449e-08
2.19619e-16
1.66194e-16
2.56296e-17
2.38456e-05
1.68378e-06
2.29595e-05
4.00341e-05
1.74202e-17
1.1822e-08
2.14108e-18
3.22905e-17
1.34014e-05
8.41558e-17
3.17037e-09
3.20734e-07
6.94213e-06
3.41341e-07
9.62775e-13
3.14252e-06
1.44753e-17
9.36558e-13
9.10902e-13
1.12657e-07
1.24444e-06
1.73396e-05
8.01705e-11
6.79013e-17
3.32377e-05
3.38845e-17
4.02781e-17
2.60833e-08
9.33148e-05
9.33186e-11
2.17258e-17
3.73793e-18
5.0946e-10
1.06262e-16
2.82944e-17
1.44302e-08
7.19816e-17
3.84656e-16
4.48793e-05
1.93913e-07
1.50266e-07
2.66434e-05
8.80911e-06
1.03e-17
9.90863e-18
9.30863e-09
5.22441e-06
2.82752e-18
3.49474e-17
1.38499e-05
3.72072e-16
2.8359e-16
4.21991e-16
7.64218e-16
4.43218e-16
0.00308687
4.28814e-18
2.98269e-07
1.03512e-16
2.11181e-05
2.93934e-18
1.84812e-15
8.21599e-16
3.69608e-16
1.63205e-17
3.51814e-17
4.68795e-06
9.80599e-18
1.15074e-17
3.70032e-16
1.36991e-17
4.51561e-17
3.31121e-17
1.142e-05
5.87497e-17
1.54401e-05
3.06043e-06
1.29181e-17
2.5979e-06
1.66861e-18
4.74164e-07
2.05687e-09
5.27483e-06
2.00475e-05
3.58505e-17
1.23387e-07
1.16468e-05
7.73797e-09
2.10423e-16
2.01806e-09
2.13484e-05
3.43705e-06
9.08506e-16
2.67361e-05
3.45455e-16
4.64905e-17
1.04934e-17
7.42134e-18
7.30673e-06
1.39792e-17
1.62363e-17
7.44035e-06
1.13553e-10
1.65973e-06
6.73595e-18
4.28588e-17
8.97697e-07
9.75467e-18
1.32157e-07
5.0369e-17
2.01199e-05
5.70163e-17
7.4554e-17
8.20918e-08
2.74952e-17
1.35024e-07
1.68132e-16
4.49885e-17
7.96564e-06
5.00213e-07
6.47421e-06
2.20352e-05
0.000263506
2.35968e-05
1.1511e-18
3.75456e-15
2.45871e-06
8.04153e-06
4.14933e-05
1.4789e-05
4.57292e-19
1.36336e-05
3.67868e-18
4.00854e-17
8.73303e-06
1.20763e-05
1.72302e-17
1.61563e-05
2.30666e-17
4.59519e-06
9.80442e-06
9.89692e-17
1.34274e-17
1.72312e-17
2.74794e-06
1.17404e-17
1.16304e-17
3.99381e-06
2.64609e-05
4.73604e-09
8.32373e-06
1.62654e-17
3.04626e-17
7.90047e-08
8.75253e-07
3.91265e-18
9.87406e-06
1.89508e-15
2.37223e-06
5.63797e-17
8.9623e-17
1.23661e-05
3.83105e-19
4.53955e-08
3.26616e-06
5.57375e-17
4.00945e-18
3.88771e-06
3.58805e-14
5.8391e-05
2.98125e-16
0.000325455
8.32134e-17
2.84914e-16
2.20728e-16
6.98448e-06
8.18796e-16
2.25667e-17
5.77708e-06
3.82284e-16
2.38807e-07
9.39015e-16
1.52597e-16
1.07644e-17
1.71633e-10
7.14084e-07
2.32495e-18
2.67342e-17
3.90971e-05
8.39696e-07
3.5566e-18
6.87952e-07
6.28418e-18
2.05983e-16
1.3434e-09
4.40591e-06
8.76513e-06
5.41045e-18
3.41314e-17
2.08648e-17
1.63761e-18
2.99737e-17
3.26753e-17
1.57698e-17
4.42556e-18
5.68397e-17
7.58399e-19
2.69165e-18
9.50128e-17
7.26683e-17
4.61955e-18
2.34447e-17
4.57093e-17
7.29586e-18
2.22496e-18
4.04802e-17
9.56853e-18
4.1466e-17
2.05887e-05
3.39487e-17
1.51535e-17
3.49518e-18
7.01967e-06
4.51837e-18
4.90537e-17
0.000269887
5.41827e-16
1.13014e-17
2.48826e-05
3.83994e-15
3.61635e-18
6.54464e-06
2.76816e-05
1.46352e-19
1.88473e-06
3.23702e-06
1.08366e-16
1.46413e-05
4.60157e-05
1.85753e-05
2.9973e-06
1.14268e-05
2.13937e-16
2.07732e-17
3.9331e-06
1.41021e-05
2.84411e-06
8.09242e-18
6.20056e-06
1.90051e-06
2.097e-05
1.27075e-05
3.30711e-07
1.49302e-05
3.41502e-08
9.74096e-06
9.78013e-17
3.08555e-05
8.80696e-06
2.43428e-06
1.05476e-06
9.93244e-18
2.28741e-17
1.28729e-17
1.48781e-16
6.16673e-18
1.2939e-05
1.4625e-05
3.94226e-18
2.84238e-18
4.78831e-17
2.89909e-18
1.22382e-16
7.57465e-17
2.24184e-17
9.28429e-17
5.03455e-06
1.41052e-07
2.26823e-05
6.82098e-08
3.66355e-17
1.39503e-15
3.74062e-05
5.08873e-09
7.95494e-18
3.18607e-17
9.6086e-06
6.86106e-17
3.39375e-17
8.44837e-09
8.25782e-06
1.56708e-05
3.25557e-05
3.39405e-05
1.22687e-16
1.22716e-05
3.64789e-07
1.94139e-16
3.92089e-17
1.1558e-05
2.28112e-16
2.28734e-17
2.73997e-05
0.00123241
2.40527e-07
6.33324e-16
1.87868e-17
1.74813e-05
3.09779e-05
1.62526e-05
5.675e-06
3.11216e-06
4.34596e-17
1.16244e-09
2.8502e-12
9.17624e-17
2.22868e-16
2.29392e-05
1.91109e-17
2.25024e-06
2.95227e-05
1.72524e-05
9.80286e-06
3.23141e-16
4.98037e-06
1.04951e-16
2.87709e-16
2.45816e-16
1.41614e-17
3.29504e-06
0.000924603
4.66744e-18
1.24204e-17
7.98285e-09
2.8178e-05
7.45018e-07
7.17196e-06
3.8438e-05
3.62112e-06
1.85327e-05
1.44944e-16
2.34183e-16
4.56315e-16
3.59282e-05
5.92934e-06
2.80272e-11
3.42715e-17
4.84617e-17
1.20827e-16
2.35277e-05
3.9449e-06
5.78707e-18
4.80729e-06
6.0231e-05
1.04764e-05
6.45106e-06
1.22299e-16
1.49742e-16
7.22738e-06
2.68147e-05
1.95841e-17
2.84303e-07
1.49693e-05
1.24195e-06
1.13835e-05
4.87831e-06
8.50891e-06
3.0382e-16
4.13276e-06
2.45929e-05
4.49687e-05
1.06495e-12
2.73656e-05
1.5496e-16
1.78093e-05
1.01354e-07
9.79712e-19
2.23855e-06
6.10599e-06
4.11098e-07
1.22668e-05
4.16659e-10
1.97032e-07
2.19373e-08
3.41784e-05
3.39552e-06
7.21956e-17
4.20895e-05
8.27019e-07
4.77997e-17
3.09603e-18
3.85453e-11
8.69137e-09
1.26217e-06
0.00124251
4.24367e-05
1.07521e-05
2.77501e-10
4.717e-05
4.85179e-17
2.75661e-16
5.35591e-06
8.79154e-18
4.41546e-06
6.18734e-06
1.79444e-06
4.69512e-06
2.06134e-17
2.055e-07
0.000122474
7.19329e-18
4.2046e-05
7.52695e-06
2.20584e-16
2.92373e-06
8.20659e-07
1.74152e-16
3.34786e-12
6.36917e-08
1.7214e-16
3.40584e-18
1.8927e-18
3.22397e-06
4.67719e-06
1.56866e-05
6.68407e-18
6.52816e-06
2.98821e-05
3.06247e-16
7.6809e-06
1.1956e-05
2.7123e-05
1.6337e-06
1.49515e-17
1.04849e-06
3.3845e-06
9.44938e-06
6.2952e-06
4.29986e-05
0.000179438
5.08157e-06
4.06744e-16
3.06679e-06
6.34749e-05
1.35372e-16
3.7238e-07
7.93204e-18
2.16521e-18
1.80434e-16
1.67834e-18
1.48178e-18
3.52589e-06
1.82286e-17
2.67954e-06
1.8748e-06
1.28784e-16
5.2727e-06
2.68961e-15
1.65875e-05
1.3274e-17
1.57343e-08
5.51531e-16
2.26758e-05
1.56393e-07
2.12305e-09
2.01133e-06
3.03009e-05
1.92276e-05
4.06238e-06
2.1186e-05
4.01496e-15
1.44095e-05
6.07635e-05
5.61574e-06
2.97259e-17
1.27449e-06
3.64229e-07
4.03239e-06
1.4069e-05
7.72591e-07
7.29085e-16
8.17689e-16
9.92339e-18
5.08637e-06
9.67972e-17
8.66803e-08
1.52353e-07
8.05177e-07
3.75878e-07
1.15289e-16
1.01972e-16
3.32036e-18
7.96675e-06
2.71285e-05
2.12209e-06
8.80932e-09
1.93645e-06
7.03973e-06
3.26934e-06
1.25117e-06
8.09696e-06
7.41679e-06
2.55978e-06
1.79453e-16
8.47013e-18
2.91712e-17
1.50127e-05
1.08673e-05
4.11883e-16
1.37304e-18
1.13481e-16
9.3826e-06
2.25045e-05
9.99101e-17
2.12189e-06
1.88614e-18
5.91576e-10
6.74405e-06
9.43665e-05
7.61124e-17
4.00688e-17
5.03459e-06
3.14975e-19
9.91579e-08
1.2932e-05
1.31834e-16
1.13113e-05
3.8338e-05
1.88992e-05
8.12294e-18
1.1042e-06
1.99238e-16
8.03036e-08
5.66655e-05
2.8909e-16
2.32115e-16
1.30918e-05
9.86984e-16
5.64104e-17
3.82509e-08
1.45405e-06
9.99102e-17
2.26538e-17
3.44291e-16
9.00108e-08
1.70109e-06
4.57159e-06
2.47474e-05
1.13659e-05
1.85079e-16
5.5123e-10
6.44685e-07
2.99187e-18
2.31707e-17
7.17423e-17
6.87133e-17
1.47629e-16
3.07385e-16
3.01156e-16
1.17889e-16
5.00498e-16
5.99141e-16
1.98777e-12
2.61526e-16
4.83695e-07
5.67528e-16
1.40723e-07
7.68742e-17
7.46175e-08
3.46675e-16
1.62269e-17
2.71068e-05
1.0365e-05
7.55118e-17
0.000103221
1.85732e-12
2.60538e-13
1.33879e-17
1.23396e-06
3.44038e-16
2.62026e-06
6.0539e-09
1.20277e-06
1.73052e-16
1.06346e-16
8.03236e-07
5.09832e-11
8.7777e-18
1.01931e-16
4.41258e-05
4.49611e-16
4.33314e-05
2.4818e-16
2.1331e-18
3.78103e-11
3.1294e-05
9.08333e-06
2.98056e-17
4.5743e-07
1.07228e-15
1.82524e-06
1.71552e-08
1.81509e-06
8.1101e-07
4.24102e-18
2.30961e-05
1.09089e-06
6.54242e-06
1.57624e-17
3.85886e-18
2.83818e-18
8.94429e-06
3.25547e-06
5.16005e-05
5.10459e-17
3.58358e-10
6.98139e-17
1.53752e-17
1.19866e-17
2.23601e-17
2.93606e-06
1.74199e-06
1.96283e-06
0.000349681
1.0895e-17
3.53513e-05
3.94315e-05
1.81052e-05
1.36323e-06
2.53033e-17
7.78456e-06
3.9728e-06
6.11158e-06
7.08317e-10
1.00157e-05
1.67704e-16
2.22903e-06
1.08327e-06
3.75366e-05
9.41257e-10
3.33267e-06
1.30052e-16
2.05404e-05
1.22358e-16
1.69642e-16
1.83884e-06
4.23014e-16
9.13612e-06
1.03359e-16
1.14005e-16
1.33132e-15
4.00511e-17
2.10112e-16
7.05476e-07
1.97645e-17
7.13448e-07
2.03837e-16
5.01747e-17
2.3869e-05
6.65185e-06
1.06578e-05
1.00051e-05
9.60017e-17
0.000637705
5.72592e-17
7.75852e-05
4.28284e-17
2.2886e-05
2.26124e-05
2.22211e-06
6.65351e-05
2.61438e-16
5.02932e-17
2.34519e-17
2.3539e-06
2.10034e-17
3.96981e-18
1.76544e-05
1.00179e-16
7.93844e-17
5.1535e-06
7.11868e-17
1.11513e-05
1.02359e-10
2.65299e-17
6.31478e-17
5.02136e-17
2.11329e-06
6.5899e-06
1.79188e-16
1.45791e-05
2.80949e-07
2.29528e-16
0.000116503
1.01216e-16
1.63142e-05
1.84611e-05
3.82546e-06
4.18085e-16
2.06288e-05
1.07201e-05
8.6388e-07
5.06681e-06
1.55796e-05
7.00685e-17
1.67498e-16
1.88357e-09
9.51001e-17
1.27862e-18
6.90734e-17
2.08161e-05
4.74775e-05
5.25063e-06
1.74827e-06
7.90976e-17
4.78536e-05
5.00832e-05
4.83808e-06
3.67972e-06
8.61687e-06
2.43984e-05
2.38558e-06
1.44043e-18
4.9019e-18
2.55562e-18
6.07554e-06
2.63928e-17
2.97964e-05
4.80813e-16
8.19064e-07
4.03715e-10
2.55457e-06
2.82452e-05
1.22525e-18
2.94558e-16
2.56844e-06
3.7149e-07
7.5696e-17
1.02809e-16
4.85812e-17
5.74262e-08
2.2396e-07
1.17641e-07
7.21488e-07
8.92068e-06
9.55049e-05
9.00379e-17
3.8599e-17
3.9813e-17
2.97298e-06
1.91395e-05
7.87262e-06
3.34682e-05
2.79954e-06
2.49629e-06
5.46167e-17
1.94057e-16
2.81447e-16
9.17472e-18
8.64421e-06
2.33612e-05
3.89096e-17
9.70894e-17
4.91339e-16
6.27653e-17
1.24381e-16
2.14995e-17
1.29506e-05
9.21354e-16
1.34189e-06
0.000403593
1.05601e-16
1.78189e-08
6.72619e-06
3.14197e-07
1.06716e-17
3.58094e-17
4.65706e-06
3.01174e-17
1.52154e-05
1.3026e-09
2.70925e-05
5.38965e-17
1.80326e-15
9.81613e-18
6.35735e-18
1.89002e-16
1.86487e-16
0.000219153
1.0767e-16
5.30643e-06
1.53514e-06
4.73163e-17
6.04598e-16
2.15012e-06
5.85955e-17
5.4047e-18
1.53351e-05
6.6464e-08
2.18944e-16
8.66487e-16
5.07735e-18
1.60936e-05
2.45615e-16
1.58298e-16
3.7701e-07
2.41071e-06
2.98302e-06
1.19857e-16
9.4813e-17
4.67386e-17
3.45417e-06
1.67505e-06
1.17508e-05
3.22014e-06
1.18992e-17
9.99824e-08
1.22346e-05
3.42795e-06
9.74121e-18
4.32905e-16
1.10428e-16
1.26359e-18
2.31034e-16
3.08137e-05
6.93501e-06
5.48017e-06
3.8348e-17
2.29616e-17
1.56623e-16
1.3716e-16
4.2644e-17
9.33805e-10
5.80625e-07
1.6969e-06
1.26215e-17
5.794e-16
2.04761e-16
3.79499e-12
3.54802e-05
0.000122712
6.78331e-18
1.36772e-12
6.70033e-16
2.06753e-16
3.85429e-16
3.19876e-06
7.18072e-06
1.15968e-16
2.00782e-16
3.73684e-06
2.77178e-16
1.05364e-06
8.97209e-07
0.00244142
1.48744e-17
1.66099e-16
1.86135e-05
4.89747e-07
4.60436e-17
0.000769528
2.32306e-06
8.40541e-06
8.6495e-17
4.29928e-17
1.02813e-16
5.55051e-18
6.23161e-06
1.21655e-07
4.2109e-16
2.72356e-05
1.90897e-05
0.00100852
1.7819e-17
5.94236e-18
5.42766e-16
6.59463e-17
6.02331e-06
5.68176e-11
3.48641e-16
1.09668e-16
1.66389e-05
1.40288e-06
6.72356e-06
5.85263e-17
1.69886e-16
3.11453e-05
1.31413e-17
7.60808e-17
1.77238e-17
5.46606e-17
2.80476e-05
1.37786e-16
1.55941e-17
9.86841e-18
2.67574e-05
1.8852e-05
1.67294e-17
9.18105e-17
6.47843e-17
1.72605e-05
1.26207e-10
2.4645e-17
9.22963e-17
8.29081e-17
4.47347e-16
2.66519e-06
1.04898e-05
8.7198e-19
2.22691e-06
8.89693e-07
4.26313e-06
1.21235e-16
6.80011e-17
5.26399e-17
1.40414e-17
3.04012e-18
2.73646e-05
1.0133e-15
1.81182e-05
6.87746e-17
1.4644e-06
4.46763e-16
2.12225e-06
6.74606e-17
3.69315e-17
1.20995e-05
0.000242557
1.06174e-15
3.15215e-06
2.60686e-16
3.37201e-07
1.61208e-18
4.39883e-17
1.6368e-16
1.75791e-10
1.72438e-16
4.30547e-07
2.4964e-16
3.88451e-05
9.47683e-17
9.49275e-16
3.7908e-18
1.32237e-16
7.06501e-09
1.5771e-07
3.39613e-19
5.22539e-06
3.99629e-18
4.10358e-06
2.22744e-05
1.1556e-06
2.24548e-19
4.31495e-09
3.81983e-07
1.90206e-09
6.75378e-06
4.53473e-10
1.40042e-06
6.90831e-16
3.32577e-18
4.30188e-10
4.86946e-06
2.20004e-07
1.41197e-16
1.15659e-16
2.43827e-16
0.000569976
2.81742e-16
1.86229e-17
5.11551e-17
5.88542e-16
1.9682e-16
9.27847e-08
1.65714e-07
1.04352e-06
3.55766e-08
4.07271e-16
1.33766e-06
4.19956e-17
8.03696e-06
2.46889e-16
1.55946e-17
4.92466e-17
4.33417e-17
2.02997e-08
1.09997e-16
2.79978e-18
1.70027e-16
1.61385e-05
3.9819e-16
2.57257e-17
1.22356e-05
4.3892e-16
5.80176e-05
0.000101645
0.000525319
3.16608e-18
0.000240597
0.00145204
0.00184332
0.000795794
1.32611e-17
2.22615e-18
5.00411e-06
6.04818e-06
1.25021e-16
5.25347e-06
2.30641e-17
3.19238e-05
4.34189e-16
1.0173e-16
6.41328e-07
3.44806e-16
5.08135e-16
1.0224e-08
3.58848e-08
4.23421e-17
1.7495e-17
2.20366e-09
6.91028e-16
2.49832e-16
2.50804e-08
8.54428e-06
1.24779e-06
3.71989e-17
7.45096e-06
4.67139e-16
2.99796e-06
4.90038e-10
6.69568e-06
1.9864e-17
4.73694e-12
5.83626e-06
1.77701e-16
1.34145e-12
1.81118e-18
3.50915e-05
1.39926e-17
1.12311e-05
9.7071e-17
1.81559e-10
2.84478e-17
1.81298e-16
1.28977e-18
4.12642e-13
2.90625e-13
2.42307e-16
1.15288e-05
8.43752e-06
6.04464e-17
2.01503e-17
3.9749e-05
1.77507e-05
0.000211638
1.3105e-16
6.48032e-08
2.53755e-05
5.4022e-05
5.24706e-11
2.96043e-17
6.95029e-05
9.1231e-18
0.000258067
2.78112e-16
3.34851e-11
3.46812e-11
2.17098e-16
7.60731e-08
4.42128e-16
2.32356e-05
1.82206e-17
1.73169e-16
8.20683e-18
6.35522e-17
4.92248e-16
5.64849e-17
3.48192e-07
1.75682e-06
0.000159853
3.3712e-17
6.55398e-17
4.78166e-05
2.22089e-17
8.94148e-20
3.35575e-17
6.89107e-17
9.74428e-17
2.35924e-06
1.81685e-17
2.33783e-16
1.59865e-18
1.42019e-06
7.3498e-16
5.67232e-18
1.87062e-16
6.9281e-07
5.62986e-17
7.4876e-07
0.000248077
5.20354e-06
7.4584e-06
6.53912e-06
1.79353e-16
3.59537e-17
1.35673e-16
5.70844e-06
2.24638e-06
1.64621e-17
2.81266e-15
7.88851e-07
8.21242e-16
2.80481e-16
0.000373964
2.3257e-17
2.23176e-05
3.4074e-17
7.50038e-07
4.08736e-06
4.59757e-17
1.4437e-18
5.93628e-18
1.52139e-17
1.81951e-16
2.22875e-05
5.25531e-17
1.92554e-07
2.32626e-16
1.45727e-16
6.46884e-06
2.43841e-17
1.70369e-05
2.29092e-16
3.07321e-17
1.96443e-06
1.26124e-07
0.000153223
4.23582e-16
2.63022e-17
2.1243e-16
5.67762e-06
0.00019948
8.28429e-17
1.49576e-17
4.96358e-16
7.82851e-07
9.81541e-17
2.58735e-05
3.10915e-05
7.60076e-16
2.1348e-17
5.20461e-06
1.67175e-16
3.62269e-16
6.1369e-20
5.0717e-17
1.17872e-17
7.29461e-05
2.06936e-16
7.15232e-16
5.48682e-17
8.46478e-17
7.70672e-17
4.05861e-17
1.37695e-16
4.1788e-18
4.15133e-16
1.18346e-05
5.3304e-16
7.42218e-06
3.40196e-16
1.95147e-16
0.000663178
2.55402e-06
4.78459e-17
1.00382e-16
5.44052e-17
1.94798e-06
3.92975e-16
4.38853e-16
5.1171e-16
2.23674e-16
6.01469e-06
1.53729e-17
3.72838e-06
1.79812e-16
1.27918e-05
9.1098e-17
6.38468e-05
9.28926e-17
1.04381e-16
1.97026e-05
1.60867e-16
9.67811e-17
3.27375e-05
3.19182e-07
6.77368e-17
1.76682e-16
4.45686e-05
1.35484e-05
6.3775e-06
5.33457e-07
1.26489e-06
1.88478e-05
9.49063e-07
6.10019e-06
1.89094e-16
2.75545e-05
1.43132e-16
4.37577e-17
4.80537e-18
2.32321e-16
1.10115e-16
8.9269e-06
2.0908e-16
6.16782e-18
2.19674e-16
1.76867e-09
1.46562e-08
1.19957e-15
3.32568e-06
6.19023e-17
4.8405e-06
2.49467e-17
1.02918e-09
6.45491e-06
8.33144e-16
4.93117e-05
2.56349e-18
4.21111e-17
3.58595e-19
2.75212e-06
1.43796e-06
2.02645e-17
5.28914e-17
2.09719e-06
3.64845e-16
0.000737918
2.14444e-16
0.000102275
1.11783e-16
4.6909e-18
3.65291e-16
8.65768e-19
1.05735e-05
4.25062e-17
5.34525e-08
1.45347e-17
9.32646e-06
4.3809e-17
1.03732e-16
6.76419e-15
7.42848e-16
1.0828e-17
8.4386e-16
4.92011e-16
1.58025e-16
4.45383e-06
0.000238999
1.53784e-16
1.22708e-17
4.79352e-07
1.66653e-18
1.18043e-17
2.10497e-09
2.02003e-05
1.91398e-07
5.1804e-17
1.7535e-07
4.41088e-06
6.04715e-06
1.03848e-05
9.2472e-17
1.86606e-16
5.04073e-17
6.76178e-18
2.49756e-18
8.30148e-18
6.68809e-17
1.59471e-17
1.27015e-17
1.40028e-17
1.38635e-17
3.57199e-18
8.4335e-05
7.80517e-18
2.4824e-17
2.19931e-12
2.63006e-17
1.25991e-16
0.00125359
7.07871e-18
7.54913e-18
1.69143e-06
9.79861e-13
9.78839e-17
2.98081e-16
3.90186e-17
2.25584e-05
6.11853e-17
1.04991e-16
4.21397e-11
5.12352e-18
8.10941e-17
6.59334e-18
4.84954e-17
0.000125129
1.76752e-17
2.3458e-07
4.85051e-17
2.5123e-17
5.81992e-17
2.17181e-16
5.03336e-17
3.57081e-11
6.06039e-11
1.6818e-07
3.3823e-17
1.41786e-16
5.25757e-16
1.24978e-10
2.05141e-17
3.2473e-10
2.33903e-11
3.54813e-18
9.98663e-17
2.12847e-16
1.58128e-11
2.66168e-17
2.07693e-16
1.7815e-12
1.71025e-15
3.60434e-05
2.43756e-17
7.20603e-06
6.55693e-16
2.31294e-09
1.28045e-16
1.68182e-06
2.06432e-17
4.19853e-06
2.4678e-05
1.03966e-17
2.62885e-06
1.21337e-08
5.08011e-18
1.02673e-05
1.73841e-17
1.11022e-16
1.4743e-16
5.3211e-17
3.76333e-17
1.2895e-17
6.99197e-17
2.24857e-16
0.000298598
8.12245e-17
4.19086e-17
5.46785e-17
3.72435e-17
9.08004e-18
3.55484e-05
0.000944447
2.71385e-09
1.62886e-08
8.99286e-19
1.83669e-06
1.24023e-06
3.6653e-16
6.66742e-16
1.22371e-15
9.42658e-18
3.13777e-17
1.38464e-16
7.73662e-17
8.68152e-17
4.42327e-07
1.28609e-15
4.74908e-17
1.48768e-07
2.3525e-09
4.61747e-17
3.22679e-05
1.9935e-17
2.54438e-16
3.14145e-16
0.000192545
1.05059e-16
2.14735e-18
2.85254e-05
2.96877e-18
1.11329e-18
1.09306e-16
1.17808e-16
6.04172e-05
3.30213e-17
1.58277e-16
7.58889e-18
1.05468e-16