/*--------------------------------*- C++ -*----------------------------------*\
  =========                 |
  \\      /  F ield         | OpenFOAM: The Open Source CFD Toolbox
   \\    /   O peration     | Website:  https://openfoam.org
    \\  /    A nd           | Version:  10
     \\/     M anipulation  |
\*---------------------------------------------------------------------------*/
FoamFile
{
    format      ascii;
    class       volScalarField;
    location    "82";
    object      SgP;
}
// * * * * * * * * * * * * * * * * * * * * * * * * * * * * * * * * * * * * * //

dimensions      [1 -1 -3 -1 0 0 0];

internalField   nonuniform List<scalar> 
59698
(
0.00309475
0.00183544
0.00231272
0.00271395
1.14022e-06
0.00145199
0.00249702
1.07732e-07
1.98763e-09
3.90827e-09
0.000586477
1.77296e-09
1.58666e-09
0.00228616
2.7628e-08
4.26466e-07
9.40826e-09
3.81053e-09
1.63026e-09
5.95701e-10
0.000364934
1.55964e-06
0.00049863
8.81903e-08
2.0292e-07
1.19541e-09
1.17854e-09
0.00248185
0.00239486
2.14197e-09
1.35268e-07
0.00060065
6.68811e-08
0.00403487
1.10898e-06
3.81234e-09
0.000464773
5.03559e-07
1.73473e-08
0.00245241
2.97462e-08
2.30472e-07
2.31459e-08
2.46627e-08
0.000402107
1.04921e-07
2.67672e-09
4.88296e-08
0.00290847
3.14723e-08
2.96095e-10
2.33013e-09
0.00172824
0.00272947
0.00216818
2.03272e-09
8.45955e-08
1.55143e-08
1.77314e-08
2.74511e-05
0.00178289
6.29151e-08
1.98465e-07
1.50253e-09
5.01395e-07
4.17926e-08
1.75029e-09
3.24028e-09
4.20517e-09
6.77189e-09
6.14199e-07
2.79806e-08
0.000359832
1.59631e-06
0.000411949
1.07964e-06
2.15139e-08
2.23634e-08
6.39021e-09
1.06432e-08
4.78334e-07
9.9398e-10
3.9612e-09
8.06389e-09
1.69777e-05
3.13682e-08
9.14554e-09
2.22857e-07
2.33503e-06
2.31823e-08
4.52151e-09
6.35937e-08
1.73174e-07
6.52599e-09
6.04851e-08
0.00359102
1.35021e-07
6.19759e-08
5.13044e-08
8.60842e-10
0.00353734
2.07773e-05
2.95357e-07
0.00329223
5.3283e-08
0.000564781
2.33811e-09
2.29172e-09
2.67179e-09
4.39495e-10
3.73499e-08
2.62352e-06
1.35962e-06
1.56282e-07
9.76184e-08
3.45547e-08
3.49087e-07
0.00353382
2.92731e-07
1.15e-08
2.27361e-09
2.98446e-07
2.25744e-07
3.365e-09
1.62776e-09
7.97694e-09
8.37751e-09
7.20486e-09
1.26261e-08
3.86434e-07
0.00335621
3.863e-09
1.10546e-09
1.84351e-07
6.31182e-08
3.23677e-09
4.91694e-07
2.1386e-10
1.73187e-09
5.644e-09
2.08757e-08
0.00231722
0.00252093
1.58488e-09
1.90692e-07
7.93798e-10
5.35055e-07
3.7885e-07
0.00448813
7.06002e-07
0.00025718
0.000434374
2.83015e-08
2.5474e-07
9.19516e-09
1.04624e-07
7.43711e-09
0.00162891
6.72399e-08
5.83545e-10
3.06497e-09
7.7087e-09
2.19355e-08
9.67878e-08
1.87632e-08
0.00222904
1.05734e-09
0.000566682
0.00152528
6.92736e-09
2.5554e-07
1.47561e-06
2.18264e-07
9.27779e-07
5.76542e-07
0.00121901
4.39829e-09
0.00139568
0.000326016
0.00293323
2.25145e-06
7.43132e-07
3.99727e-07
1.12405e-08
2.52435e-07
6.85888e-08
3.70196e-07
0.00238058
1.37674e-10
1.85713e-08
6.42295e-09
7.03275e-09
2.30605e-08
6.05704e-07
1.22238e-07
0.0041675
1.82167e-06
0.00294438
1.27595e-05
9.04997e-08
0.000227096
6.73733e-07
1.47466e-09
2.5522e-09
0.00356811
0.00244688
3.53869e-08
0.0020581
0.00270792
0.00350363
0.00242673
6.1073e-09
0.00262723
1.56816e-08
2.34192e-09
0.00336706
9.84679e-09
4.54571e-08
1.54818e-07
4.64979e-09
1.37291e-05
0.00217452
1.72965e-09
5.09509e-07
8.9635e-09
0.00274722
2.12463e-08
5.50068e-09
4.81952e-08
6.83854e-07
7.58355e-09
1.87211e-08
7.44921e-09
1.13706e-08
9.51018e-09
8.99309e-09
3.06856e-07
1.95557e-08
1.76587e-07
8.18837e-09
0.00261371
1.18858e-07
3.46978e-08
0.000664542
8.7208e-09
2.15185e-07
2.30522e-05
3.46237e-06
5.29606e-09
4.9428e-09
6.12289e-08
6.3643e-09
3.10627e-08
0.000233553
1.93445e-08
0.001699
1.10192e-07
5.42669e-08
0.00314707
2.8785e-09
7.84415e-06
1.7899e-09
7.843e-09
0.00270865
0.003578
8.5388e-07
1.08906e-09
1.07164e-07
1.9833e-08
6.02814e-10
3.11933e-09
1.53179e-06
6.91422e-05
6.63766e-10
1.23677e-07
5.01435e-08
0.0014658
3.97579e-08
2.93226e-09
1.22192e-09
0.000574132
1.7852e-09
1.6678e-09
4.66692e-07
0.00334992
1.02497e-07
5.28269e-09
0.000647392
3.81812e-07
1.00945e-07
2.685e-06
0.00232506
9.27037e-09
1.35395e-09
7.03788e-07
0.00273225
4.73645e-10
1.5242e-07
1.45113e-08
6.42244e-07
3.07382e-09
2.34474e-09
6.8665e-08
5.77254e-10
1.10962e-09
1.17025e-09
3.63621e-07
2.1943e-08
5.35909e-09
5.29587e-10
0.00190123
4.20479e-08
3.84148e-09
2.37986e-08
0.00191499
5.4582e-09
0.000403389
8.31153e-09
0.000829308
8.51947e-08
9.52995e-08
3.03073e-07
1.67425e-08
2.98683e-09
1.41343e-06
2.55313e-07
1.60783e-08
8.69879e-09
4.43473e-10
0.000361922
0.00289933
4.01871e-08
3.59096e-07
2.42099e-06
0.000430957
1.03219e-08
7.76141e-09
4.28704e-09
1.39995e-07
0.00122093
2.1343e-08
0.00206217
0.00250593
4.94997e-09
9.99122e-08
1.35355e-09
2.63932e-10
1.25169e-06
1.35549e-09
0.00203383
9.26023e-10
1.46774e-08
1.25168e-06
7.95054e-10
9.6481e-07
0.00191615
2.68079e-06
1.44149e-08
3.31151e-08
1.82486e-09
2.10003e-08
1.08763e-08
1.10476e-07
3.59593e-09
1.21108e-10
1.04124e-07
0.00279678
0.00201718
2.82271e-08
9.83164e-07
1.13293e-07
0.000533989
0.00366893
0.000651126
2.0845e-08
2.98897e-09
3.6352e-08
2.04206e-09
0.000460567
2.4864e-09
0.000347123
4.46221e-08
4.26526e-08
5.1548e-08
8.55937e-10
6.75976e-06
1.09316e-08
0.000544824
8.26664e-10
3.3663e-08
2.09033e-08
0.000457518
0.00330058
3.32454e-09
5.38045e-05
0.00179766
3.63395e-06
0.00182711
0.00269786
8.15069e-08
0.00243873
0.00236489
0.00257383
5.42146e-09
0.00148346
0.00417847
0.00384038
0.00276306
5.96648e-09
8.23232e-07
1.88145e-07
0.0004043
0.00163745
0.000434523
4.7323e-10
2.05857e-07
2.02157e-09
2.28352e-06
0.00189701
0.00175621
0.00292212
0.00218231
0.00249154
0.0016656
7.8329e-09
2.04764e-09
7.78458e-09
1.7485e-08
0.00138449
5.66203e-10
7.80728e-09
0.00196038
0.00116551
2.34685e-08
3.69334e-08
1.44064e-08
1.40002e-08
0.00126103
3.3401e-09
0.00211828
1.92325e-07
0.00321067
5.12648e-09
4.40023e-08
1.8635e-07
2.02001e-06
8.66695e-08
4.48844e-10
2.13636e-09
1.29397e-07
0.00254333
6.61433e-09
7.31122e-08
1.96885e-06
6.16872e-07
1.15065e-07
3.41147e-07
1.4184e-09
1.15304e-06
1.65056e-07
6.08518e-08
4.61638e-09
0.00320821
6.42578e-09
2.19749e-09
2.02286e-07
3.50557e-07
9.29811e-09
4.47465e-08
6.17127e-09
0.00247462
4.40476e-09
2.04615e-10
6.9084e-09
6.33815e-08
2.03446e-06
8.14594e-07
2.16318e-09
0.00300893
0.00194625
2.34533e-08
2.17826e-07
1.59603e-08
1.93215e-08
2.52011e-07
4.12393e-08
4.45164e-08
1.9666e-08
1.63769e-09
1.64386e-09
2.48687e-07
4.08702e-07
3.79047e-10
4.23508e-08
0.00402043
2.12719e-07
1.53607e-08
0.00236662
3.71731e-08
0.000365619
9.71589e-10
1.18327e-07
2.03904e-07
1.21392e-08
1.71113e-08
1.12116e-09
8.17001e-08
2.17514e-09
5.25005e-09
8.30162e-09
5.76836e-09
7.94175e-09
1.35803e-06
5.41924e-08
1.60383e-08
2.67399e-09
6.89144e-09
1.00385e-08
7.03437e-08
2.48358e-08
1.71166e-08
3.46965e-09
5.0658e-09
3.862e-09
2.18017e-09
6.30938e-06
3.29852e-08
2.80661e-09
0.00339734
0.00370797
2.91403e-09
0.00384849
1.82786e-08
5.46699e-09
0.00145122
3.55184e-10
1.35536e-08
0.00178832
1.87863e-09
0.00038488
4.3268e-08
2.56231e-09
4.50411e-08
2.98982e-06
1.48173e-08
5.14449e-09
8.94117e-06
0.000167011
1.871e-08
7.40436e-06
1.82973e-08
2.27953e-09
3.10198e-08
1.91706e-09
5.03646e-09
1.43671e-08
1.92606e-08
1.61937e-08
2.57867e-09
2.23545e-09
0.000768504
1.73967e-09
1.65532e-08
1.01346e-05
1.50523e-08
1.81102e-09
1.21241e-06
2.25566e-08
8.58949e-09
0.000539255
7.78076e-10
7.61213e-09
1.90929e-07
1.57868e-09
4.40061e-08
1.30678e-09
3.14599e-10
4.30633e-10
0.00200337
2.30738e-09
0.000732637
3.91489e-08
0.0032079
1.49893e-08
3.27203e-09
0.000313349
1.1537e-09
1.36287e-08
1.79582e-08
1.6409e-08
1.98834e-09
0.0031674
8.12114e-09
1.68704e-08
8.53124e-10
4.17446e-08
9.29956e-07
0.00264914
0.000349775
7.27089e-09
7.95549e-09
1.65882e-09
2.7559e-09
0.00337479
1.35309e-08
4.42747e-09
2.4955e-09
0.00108749
0.003856
1.54685e-08
1.2633e-08
1.57068e-09
1.15638e-08
4.29987e-09
4.13139e-09
5.1465e-09
4.87235e-09
3.59448e-08
7.88078e-05
7.31617e-09
5.04053e-09
7.86851e-09
1.818e-08
2.5345e-05
0.00241925
1.09721e-08
0.00266356
1.63285e-09
8.78481e-09
4.32769e-09
0.00269464
0.000211228
9.77712e-10
8.41441e-09
7.153e-10
2.85912e-08
6.32382e-09
2.84599e-09
0.00151548
0.00323673
1.2969e-07
1.62691e-07
0.000607905
1.44939e-09
5.24433e-09
1.60848e-09
4.12133e-07
0.00210694
3.38416e-08
1.75016e-09
0.000439479
7.70811e-09
3.18897e-08
3.3339e-09
2.38001e-09
4.36342e-09
9.28631e-10
7.66577e-06
1.0133e-09
0.00182038
5.06056e-08
1.1203e-07
6.90329e-09
1.54729e-06
3.48078e-06
5.39274e-09
2.0766e-08
0.00230811
0.00311018
7.29047e-08
3.85143e-09
7.58043e-07
1.55843e-09
0.00343751
3.1438e-10
1.95818e-08
0.000428463
0.00255414
4.16411e-09
1.61064e-09
1.96506e-07
5.88373e-07
3.53427e-07
0.000378101
0.00139637
1.13063e-10
6.62429e-09
8.28052e-10
4.6369e-09
0.0027751
2.71751e-08
0.00302938
1.00724e-08
0.00131533
0.00209609
0.00236439
6.17524e-08
4.11682e-09
0.000650627
1.27206e-09
2.28615e-10
9.31332e-10
4.35817e-09
1.81547e-08
4.57858e-09
1.49607e-09
9.19248e-08
6.7303e-08
7.63471e-09
2.72987e-09
0.001864
4.1806e-08
3.52925e-08
0.000362144
1.02118e-08
3.46938e-08
3.82233e-08
1.93263e-09
1.37945e-09
0.000646934
0.00196354
0.00241497
3.85575e-09
1.11329e-08
6.539e-09
1.63843e-07
0.00194602
1.35276e-09
5.69039e-07
2.58795e-08
1.32013e-05
0.000344566
0.00169852
2.25333e-07
1.48137e-07
2.23132e-08
0.00430847
0.000532175
1.89068e-08
8.84906e-07
3.4979e-09
6.82118e-08
3.43944e-06
0.00231955
2.45036e-08
1.20657e-07
1.0107e-07
1.59374e-05
2.51025e-08
0.00185632
2.48704e-09
5.19247e-08
1.16332e-08
0.00213013
7.0125e-10
6.746e-09
2.0811e-07
4.48021e-06
0.000599776
1.09304e-07
7.04742e-08
0.000383642
4.1655e-08
2.54593e-09
0.00190614
0.00219677
5.43034e-09
7.56056e-09
0.000401563
1.00578e-08
1.75632e-08
0.000373923
3.49547e-10
0.00265404
2.52333e-09
1.92952e-08
1.81639e-07
3.99157e-09
3.9443e-08
3.58229e-08
4.98049e-05
3.74988e-09
6.12679e-09
7.07864e-09
1.17283e-08
9.70708e-08
1.50442e-08
0.000326091
6.81118e-09
2.0324e-08
0.00140036
5.70371e-08
9.83762e-08
9.25068e-06
0.00187024
2.40068e-06
0.000541638
6.96392e-09
0.000383166
1.59173e-08
4.19293e-09
1.59718e-09
0.00314076
3.78638e-07
3.25884e-08
7.12949e-05
6.43397e-08
0.00157969
1.69685e-07
9.82278e-06
3.50857e-09
0.00100439
3.16196e-09
0.00130472
5.3782e-05
2.45215e-07
0.000651794
0.00179453
1.23149e-06
1.11044e-05
4.11818e-09
1.13548e-06
2.51548e-08
4.09233e-05
0.000444781
0.000428783
0.00211176
3.53043e-08
3.20564e-08
0.000561236
4.59606e-08
0.00227712
6.8864e-10
0.000401152
2.29081e-09
2.66811e-09
2.94265e-05
0.000503643
0.000206128
0.000108494
7.69526e-09
5.03464e-09
1.9026e-09
0.000487238
2.02246e-09
0.00350807
0.00473703
2.49377e-09
0.000499714
2.07574e-09
8.76409e-10
2.92631e-09
3.18553e-06
0.000469625
2.967e-09
1.29582e-09
1.05759e-06
4.43942e-09
1.12196e-07
3.7897e-09
2.99563e-09
8.89186e-08
2.63813e-07
3.12915e-08
1.04169e-08
0.000532565
8.06997e-10
0.00012763
2.69536e-10
2.47064e-09
0.00124247
1.51411e-09
7.74352e-06
8.98232e-08
7.44671e-09
0.00010882
1.25376e-08
0.00157163
2.72392e-08
4.56721e-10
0.00174584
5.70011e-09
1.13602e-08
0.00030714
1.24938e-09
0.00205969
1.69744e-08
1.42253e-09
0.00422989
3.0589e-09
5.11838e-09
1.49781e-08
1.63203e-08
0.000319936
7.76627e-09
5.60718e-09
1.65015e-07
0.00180904
0.000633466
0.000584054
2.24421e-08
1.78174e-09
0.000379941
0.00237004
6.84279e-09
8.578e-09
5.57931e-08
1.16164e-08
2.85875e-09
2.57572e-08
0.000412227
0.00144847
0.00262297
1.49185e-07
2.03955e-09
0.00267085
0.0040097
0.00520962
5.09635e-08
1.81315e-08
1.58891e-07
4.40003e-07
1.80909e-08
2.84084e-08
7.86645e-07
2.8159e-08
7.50629e-09
8.15275e-09
1.35272e-06
7.28559e-08
7.35815e-09
0.00254233
1.66711e-09
5.9874e-08
1.87607e-08
2.82362e-08
6.50184e-09
3.84809e-10
0.000761133
1.8916e-08
3.1102e-09
0.00193675
1.90457e-08
2.3924e-08
0.00316676
2.94134e-08
3.33084e-07
5.71202e-09
1.99706e-08
2.43433e-08
0.000825759
3.05836e-08
0.0022005
1.82757e-07
1.98615e-07
3.66685e-08
0.00533112
0.00029501
4.59588e-09
5.49261e-09
9.9219e-07
1.44165e-09
1.11286e-08
8.57118e-09
0.00167349
1.17187e-09
2.29073e-09
8.13977e-09
2.47702e-09
3.57809e-08
2.36901e-08
7.51637e-09
0.000429215
0.00219273
0.000466221
6.30057e-08
0.00314143
0.00256275
5.61184e-08
1.76684e-09
0.00183294
6.43384e-06
0.00154625
0.00208208
0.00203123
3.32977e-09
5.88878e-08
0.0023783
1.94766e-07
3.27591e-08
1.89872e-07
2.6439e-08
0.000443717
2.08741e-08
0.00053842
1.70845e-05
2.57448e-08
0.00196225
2.0026e-08
0.000608723
6.88614e-09
1.72804e-08
1.16325e-09
3.99666e-08
0.00153623
0.00364918
1.2536e-09
0.00039562
0.00188714
0.00135367
0.0027825
5.64049e-10
1.01224e-08
1.174e-09
0.00355534
7.62711e-10
1.29603e-07
0.00356084
5.32983e-09
0.0034699
0.00351671
0.00366744
1.54642e-08
5.72066e-08
4.63124e-08
8.79521e-09
1.10873e-08
6.15752e-08
1.26369e-08
4.87642e-09
0.000475221
4.13392e-09
3.70848e-08
2.75985e-07
5.55182e-10
0.00162316
2.92397e-08
4.62977e-09
6.66777e-08
2.68142e-10
7.00633e-08
3.91313e-09
2.03074e-07
0.00306611
3.10068e-05
8.91137e-10
1.56412e-08
0.00210096
0.00314922
1.78484e-07
0.000760452
9.97631e-09
7.85693e-09
0.00257397
2.20598e-08
0.00322068
0.000542244
1.04674e-09
7.30516e-08
0.000765801
1.73266e-08
2.49595e-08
0.00250184
6.33406e-09
1.36947e-08
3.11862e-09
0.000534603
3.14103e-06
0.00193145
1.817e-07
9.37554e-09
0.00175019
1.4367e-07
2.55315e-10
5.95438e-06
2.1899e-09
7.17892e-07
0.00129385
2.7384e-09
9.48795e-10
1.13675e-08
5.91098e-09
1.54796e-08
5.83831e-09
1.26389e-08
1.00023e-06
9.70662e-10
1.24869e-09
0.00169855
4.66097e-09
5.37741e-06
2.95242e-08
4.81066e-06
1.32768e-06
1.17193e-06
5.37064e-06
1.26256e-06
5.3513e-09
1.6587e-08
0.0010031
2.57278e-06
2.48308e-08
2.25602e-08
2.50231e-08
0.00044909
1.36872e-06
7.91454e-08
2.289e-07
3.44907e-09
0.00226322
4.76452e-09
1.2266e-08
2.0864e-08
1.18531e-08
2.99177e-08
0.00212622
5.57535e-08
2.40617e-08
1.86715e-08
4.81461e-09
0.000477735
2.25094e-09
5.18122e-09
3.3638e-08
2.55649e-10
1.4245e-09
6.15705e-09
9.35988e-09
1.37741e-08
0.000332441
1.14171e-08
1.31726e-08
2.50871e-09
2.00047e-08
1.24252e-08
1.01317e-08
5.84704e-08
0.000380629
0.00242474
1.54494e-08
7.87428e-09
0.00284487
1.64267e-09
4.32124e-05
0.00203069
4.96014e-09
7.24027e-07
1.53082e-06
0.00186522
2.20046e-08
3.19369e-08
2.17519e-07
1.74284e-05
8.67515e-07
2.17068e-07
1.40054e-09
3.72565e-09
4.16321e-07
1.08536e-07
5.95571e-09
1.54036e-09
1.28348e-08
7.54262e-09
3.008e-06
0.00129409
6.4131e-08
3.60598e-08
5.10468e-08
0.00264619
0.00244633
9.1708e-07
1.5145e-08
3.27043e-08
4.01457e-08
4.47192e-09
2.89428e-09
1.81465e-07
4.22213e-09
3.45771e-08
2.0322e-09
1.29098e-08
2.26788e-08
3.31722e-09
4.17899e-07
2.80264e-09
0.000434429
9.50308e-08
0.00394821
0.00165208
1.12415e-07
2.1611e-08
0.000579701
0.00034517
2.78228e-08
2.34768e-08
9.37034e-06
2.32371e-09
1.88134e-09
2.35409e-08
1.72675e-08
0.000781457
0.000646971
9.58043e-09
1.17952e-08
7.88554e-09
3.333e-07
5.12795e-08
0.00267069
0.000496416
1.4274e-08
0.000238787
7.05585e-09
0.000315407
0.000227826
0.000223587
2.80741e-08
1.04627e-07
1.76164e-09
1.02075e-07
2.54167e-08
0.00240342
4.88969e-09
4.15514e-08
6.94555e-09
7.69865e-08
2.27654e-05
0.00194507
0.002278
2.20297e-08
2.97629e-08
0.000377615
3.99058e-08
1.03547e-06
1.05099e-08
0.00304788
4.06176e-08
2.26499e-08
8.53317e-06
0.0026232
6.83758e-08
2.29056e-08
0.0013129
2.02183e-08
4.66035e-10
1.39811e-09
4.46942e-09
3.15357e-08
1.33265e-08
6.25785e-10
2.23172e-08
3.70913e-08
1.17061e-08
6.06736e-08
1.84938e-08
5.5179e-07
0.00191146
2.80852e-09
1.60532e-08
5.64971e-08
0.0020008
8.73144e-07
2.02158e-08
0.00037415
2.86157e-09
2.25156e-07
1.465e-07
0.000983776
3.60425e-07
3.22244e-10
1.21936e-07
1.40021e-08
1.2267e-07
5.07605e-08
3.10772e-09
1.52299e-07
6.88411e-09
8.69663e-08
8.0127e-10
0.000584268
5.03839e-08
0.002074
1.36747e-09
6.31815e-08
2.17744e-06
1.07165e-08
4.31402e-06
4.78511e-09
6.57122e-10
2.44843e-07
4.18446e-08
4.84955e-09
1.70933e-05
6.10948e-08
7.41932e-08
0.000547247
3.00462e-09
0.000563698
3.16185e-08
2.26667e-09
7.65658e-09
5.80324e-09
1.98048e-08
3.90254e-07
3.13466e-07
1.50615e-07
0.00237877
2.10355e-07
0.0039321
0.0020952
0.00329193
8.4947e-08
2.18711e-07
0.00143522
3.83813e-09
2.4644e-08
2.98331e-08
0.00236961
9.81548e-09
0.000635585
0.00049221
2.77488e-09
0.00262599
5.09067e-06
0.0026401
1.89006e-08
0.00249647
5.58922e-08
0.000340177
1.6725e-09
3.92683e-09
4.26388e-08
0.000746723
7.75085e-07
4.16804e-10
2.68837e-08
6.35385e-10
0.000532968
0.00031362
5.69968e-08
0.00190917
4.55178e-07
0.000544652
3.19843e-08
5.60268e-10
6.4105e-09
2.60521e-09
8.95382e-08
2.04025e-05
5.69186e-09
1.33488e-06
4.44725e-08
4.23129e-08
4.65903e-09
9.88414e-05
2.23917e-07
1.86726e-09
6.41603e-09
0.00043245
1.09281e-06
7.80938e-08
0.00152075
1.76139e-06
1.487e-06
7.41684e-09
8.57263e-09
3.92356e-09
0.0006815
2.77533e-08
5.47905e-09
1.49466e-08
3.61925e-07
9.97611e-07
2.04423e-07
1.82133e-09
3.18088e-06
6.71286e-07
7.37325e-09
5.98494e-09
5.50115e-06
2.51637e-09
5.36685e-09
0.0023871
0.00220926
6.18218e-08
4.51443e-09
1.14016e-09
3.33912e-08
0.00192994
2.58584e-07
1.35731e-06
5.44266e-10
5.50529e-07
3.25975e-08
0.00111996
0.000444876
6.57862e-07
2.43954e-08
3.45449e-06
5.23831e-07
0.000100687
2.22742e-09
1.83342e-08
0.00118797
2.54729e-08
7.82924e-07
5.89504e-07
2.02437e-06
1.22854e-06
1.16846e-08
0.00162303
1.31036e-05
2.45668e-09
1.21242e-08
4.70913e-09
0.000427673
0.000113555
1.89087e-08
0.000637651
1.23751e-07
7.27359e-05
0.00282735
0.000398952
0.00282002
0.00183696
0.00221777
4.50605e-10
2.80517e-06
8.49322e-08
3.45858e-06
1.50109e-05
2.21324e-06
2.01722e-09
3.98855e-07
1.46718e-08
3.20206e-07
0.000761567
2.85154e-07
8.75582e-10
0.00178397
1.39351e-07
0.000207827
1.83812e-07
4.11188e-07
4.79296e-09
3.87664e-07
2.12161e-07
0.00151227
2.09756e-07
3.58009e-08
1.4953e-07
2.59429e-05
0.00129744
0.0013139
0.00293871
4.88293e-09
0.000502806
0.00149672
0.00175327
0.0014947
2.34592e-07
0.00217389
2.68028e-07
4.7581e-09
5.38898e-09
6.26927e-09
0.00147151
0.00176859
5.64617e-09
1.46615e-08
8.4357e-09
4.08717e-07
0.000298099
0.00368281
0.00135432
8.1956e-08
0.00247911
8.34621e-10
3.61869e-08
0.0010892
0.000804546
5.3923e-09
2.78607e-06
1.22517e-08
6.37319e-09
0.00352015
6.36704e-09
0.000423282
1.16782e-09
0.00037871
0.000405407
0.000581333
0.00190916
3.24531e-07
0.00161681
1.26806e-08
1.18283e-05
0.000460528
0.00124695
0.00220782
0.00109662
7.53257e-09
0.00124436
8.98535e-09
1.59519e-08
0.00292758
1.64018e-07
6.63813e-06
5.64229e-08
5.20745e-08
0.000573404
1.43401e-06
3.32308e-09
1.49222e-07
4.33775e-07
0.000403284
0.00219804
2.7299e-07
7.63418e-09
0.000614674
1.86996e-08
1.5688e-08
5.11567e-08
6.04782e-07
0.00214118
3.81479e-09
0.00241623
8.41486e-10
0.000256113
0.00433596
8.6895e-09
3.03743e-06
0.002429
4.99835e-05
5.16809e-06
2.46178e-09
0.00177845
0.00277878
5.1717e-10
0.000489109
8.27016e-07
0.000618779
1.49148e-08
8.5153e-07
5.13043e-07
3.52732e-08
7.53554e-11
0.000345777
0.00131349
6.64004e-09
1.19868e-09
0.00218105
1.11164e-08
2.20666e-09
3.73668e-08
1.87469e-09
7.87666e-08
0.00354113
0.00209355
2.656e-08
5.46396e-10
0.00221104
1.98974e-07
0.00270355
2.80044e-09
1.90086e-06
4.58583e-08
7.4367e-09
2.75148e-09
1.07921e-08
0.00333555
5.04476e-09
2.7964e-07
0.000274722
0.00237604
0.000453106
1.37776e-08
1.17894e-06
2.56839e-09
0.000229113
0.00228076
8.56562e-10
3.75008e-09
3.97957e-08
3.30853e-08
0.000502526
2.61968e-07
0.000529726
1.92236e-07
6.64437e-09
5.89018e-11
4.9668e-08
0.000221033
0.000394062
5.4322e-09
0.00384296
0.00245683
9.0129e-09
3.17031e-10
3.83692e-09
7.35658e-09
3.79781e-09
1.53486e-08
0.0027513
0.000620036
0.000514077
7.75845e-05
0.000348231
0.000381681
2.75999e-09
4.26906e-08
1.49797e-09
2.99649e-08
1.88601e-08
0.00234619
1.07502e-08
4.91766e-09
0.00111864
1.90205e-08
7.62821e-08
8.74732e-08
1.65282e-09
8.4125e-08
3.51719e-08
0.0021989
5.20053e-09
1.44233e-08
4.21129e-09
1.58477e-08
2.10848e-08
0.00375557
4.52671e-07
1.12046e-07
7.33422e-08
1.06271e-09
4.52772e-05
1.24877e-06
3.17176e-09
5.74701e-07
1.22811e-05
1.01451e-08
1.13377e-08
1.0408e-05
3.10419e-06
2.49137e-07
0.00304092
3.8624e-09
3.97927e-07
1.47356e-06
0.00282698
2.24683e-07
4.2495e-10
1.92559e-06
1.56127e-05
3.46977e-07
1.003e-08
1.69714e-07
4.60781e-08
6.61558e-08
2.00569e-08
3.31357e-08
0.00184219
2.17359e-09
1.18193e-08
1.10994e-08
6.95919e-10
4.60316e-09
9.05445e-10
0.00421343
1.24435e-07
1.96125e-09
3.31893e-09
3.11941e-09
1.08577e-09
5.00086e-08
5.16599e-09
2.81929e-09
5.4076e-08
1.33668e-08
0.00220951
3.05641e-09
0.000384396
3.55058e-08
1.1841e-07
1.79595e-08
1.20276e-06
1.01855e-09
0.00315761
9.46569e-09
0.00178968
2.94317e-07
4.04868e-08
1.36136e-08
1.81433e-06
2.75255e-09
3.61677e-09
2.93819e-09
0.000259151
0.000626656
0.00213668
1.00967e-07
1.57269e-07
0.00227857
1.72422e-06
3.36682e-09
1.37382e-08
2.87272e-07
1.03358e-08
0.0041199
2.77297e-06
0.00307945
2.79893e-08
7.69296e-09
0.00158788
0.00144432
0.00174766
1.65897e-08
1.47525e-06
0.00186865
1.67433e-09
1.2327e-05
1.51512e-07
0.00177475
0.000459314
1.80931e-07
0.00230819
2.04711e-05
6.16921e-07
0.002054
0.00216972
1.91844e-08
0.00237783
0.00300979
0.0018086
2.4936e-08
4.34498e-09
6.09895e-09
7.34575e-10
2.90575e-09
0.00163018
0.00275208
0.00182465
2.61596e-09
0.0030331
2.76139e-09
0.00228051
0.00249135
5.76581e-09
3.665e-08
0.00165387
2.45851e-08
1.33013e-08
3.20369e-07
4.61373e-10
0.00256045
0.0019903
8.30497e-07
0.00163488
4.29355e-09
3.05164e-09
7.10177e-09
3.30995e-08
6.71228e-08
3.13221e-07
1.20837e-09
5.63284e-09
1.41817e-08
8.10907e-09
6.25546e-09
1.04381e-07
3.65739e-10
2.32137e-08
2.11756e-06
1.15504e-08
3.43738e-08
2.78658e-09
1.2031e-07
1.56764e-09
5.22383e-09
2.22466e-07
1.55884e-09
3.08053e-09
0.00188087
3.46305e-08
5.16758e-09
6.5279e-07
3.1234e-09
1.47561e-08
4.80584e-08
0.00185718
9.36909e-08
0.00220808
0.00148589
1.71753e-08
2.07469e-08
5.77589e-08
6.56057e-09
0.00157708
4.93157e-08
2.26226e-07
3.6543e-07
2.90575e-08
0.00235744
0.00149677
1.88215e-09
3.13664e-09
7.04393e-09
6.3755e-08
5.90168e-08
7.41511e-09
4.16128e-07
5.33434e-09
1.48637e-06
2.49275e-09
1.53291e-09
6.32952e-09
1.55395e-08
2.33474e-07
7.98624e-09
1.90606e-08
0.00429577
0.00144844
0.00257014
0.00155372
1.48459e-06
1.21126e-08
0.00201319
6.96003e-07
6.75723e-09
0.000410059
1.3212e-09
1.44667e-07
0.00235104
4.3921e-08
1.26034e-07
2.30296e-08
4.26895e-08
0.0014
8.20182e-09
9.30856e-10
2.03697e-07
2.66146e-09
4.69088e-07
5.97393e-06
6.71656e-08
0.00211105
4.18907e-08
0.000460533
2.65162e-07
0.00209873
3.87612e-10
4.98995e-09
2.68189e-07
3.85575e-09
0.00183884
3.83329e-07
0.000518119
1.493e-07
1.84933e-07
1.33877e-07
2.66364e-08
8.51067e-09
4.99019e-08
3.01673e-06
4.0208e-08
2.60701e-06
0.00324758
5.34768e-08
0.00421549
5.64879e-09
2.43875e-09
4.56055e-06
0.00186416
1.41069e-08
1.36054e-09
9.02875e-07
5.70774e-08
3.38986e-08
0.00233957
1.34789e-08
6.1083e-07
0.00262088
1.35879e-09
8.0948e-09
4.18653e-07
1.005e-09
8.1837e-09
0.00253087
5.31221e-09
0.0027677
2.32002e-08
2.15645e-07
3.90644e-08
0.000894207
6.04792e-08
2.77245e-08
1.48693e-07
0.00253482
1.58913e-06
1.25646e-08
9.34915e-09
1.24364e-07
0.00207294
3.47948e-09
5.17051e-08
6.29885e-08
1.58952e-06
0.00252796
0.00026998
0.00119099
1.74322e-08
0.000358
1.32032e-08
9.01734e-07
0.000790154
1.15857e-08
0.000881387
3.30048e-06
4.8634e-09
2.6439e-09
1.19722e-08
0.00253348
1.52494e-08
2.41753e-09
2.60445e-07
1.12214e-08
5.37883e-09
0.000301444
2.73942e-09
4.48641e-08
0.00242963
1.26397e-06
4.52833e-09
0.00203796
3.25062e-06
6.51657e-09
1.36868e-08
1.2026e-05
4.29946e-08
2.2406e-07
1.67137e-08
4.13497e-08
6.01346e-08
4.73857e-06
0.00109775
4.8431e-08
0.00248244
1.50642e-08
3.80363e-08
0.00271652
3.07995e-08
7.83757e-08
9.54066e-09
1.29787e-07
0.00237013
3.00317e-08
2.12906e-08
0.00163514
5.80461e-09
0.00266886
1.40362e-09
7.40712e-09
1.03839e-09
1.00858e-08
0.00151681
5.37721e-08
1.39159e-09
2.57453e-09
1.43782e-08
5.29038e-08
0.00255049
4.77172e-09
4.62875e-09
1.8884e-09
1.55029e-07
5.27851e-06
5.03739e-09
0.0015697
3.50637e-08
1.03106e-08
6.28345e-09
5.11955e-08
0.000429641
6.49801e-07
1.62425e-10
1.00536e-09
0.00182624
0.00217024
6.14725e-08
3.88137e-09
0.00183577
1.67736e-08
9.01718e-10
0.00355979
9.08741e-09
0.00275307
2.89741e-07
1.75172e-08
2.01702e-08
9.76523e-09
9.53812e-09
4.43232e-09
3.05284e-05
7.41954e-07
2.26825e-09
3.98397e-08
5.54938e-08
5.32545e-09
0.00257872
8.7021e-09
1.33348e-08
0.00197399
2.61707e-08
3.58885e-08
2.89608e-10
0.00228715
2.82498e-08
1.32574e-07
3.27617e-09
3.69983e-08
4.04858e-09
0.00233769
5.92345e-09
6.91239e-09
0.000613677
1.07619e-08
7.11763e-09
0.00233161
6.55354e-08
3.8565e-10
3.13509e-08
5.9348e-09
0.0018836
4.42132e-07
6.04223e-08
3.4713e-09
4.01695e-07
1.41225e-07
8.67705e-09
1.42719e-09
1.032e-09
3.40414e-08
1.04809e-08
8.61205e-10
7.77521e-09
7.3083e-09
1.1325e-08
0.00231616
6.96532e-07
1.48154e-08
2.04598e-09
9.42272e-10
0.00219991
1.94798e-08
0.00327798
9.42791e-07
0.00158579
7.56608e-10
0.0021525
0.0029264
8.7947e-09
9.42524e-09
8.9621e-08
0.00210512
0.00251639
3.06955e-07
7.81723e-09
2.50147e-07
1.05185e-09
2.21822e-07
8.83595e-09
9.41896e-08
1.66208e-08
1.47533e-09
3.92377e-09
8.49515e-10
6.20958e-09
9.05557e-09
3.80985e-09
5.07988e-09
1.52694e-08
9.00763e-08
2.95671e-11
3.36841e-09
7.3319e-10
5.66922e-09
1.52708e-09
1.70991e-07
0.00189957
0.00279692
4.50862e-09
0.00222573
1.39913e-08
3.07346e-09
4.50697e-09
1.63973e-06
1.80749e-07
7.16581e-08
9.93967e-10
1.10362e-08
2.14453e-09
7.96515e-09
1.60212e-09
1.28667e-08
1.41424e-07
0.00158844
2.43429e-09
2.11637e-08
0.00140351
0.00178426
0.00219802
0.00206356
0.00176518
4.65797e-08
3.77842e-08
2.88853e-09
7.87882e-09
7.59725e-09
1.34106e-06
3.94371e-09
2.94087e-08
3.41251e-08
7.19561e-09
2.22736e-09
2.6822e-09
7.4346e-07
3.1551e-06
3.9643e-07
6.0396e-09
1.66982e-09
3.19655e-09
0.00284222
2.5347e-09
0.0018527
1.05476e-07
8.77959e-09
7.52648e-07
0.00105424
6.7576e-08
4.07516e-10
3.79979e-09
3.21337e-08
1.50905e-09
2.38757e-08
8.27475e-10
0.00110408
3.47211e-10
4.18241e-08
0.00284491
3.00234e-09
0.00133034
5.86579e-08
0.00216659
9.83788e-08
0.00121971
3.54904e-10
0.00289501
0.00232085
2.79347e-08
4.11161e-09
0.00158367
1.95575e-08
0.00187012
1.70746e-08
7.78118e-09
5.0769e-10
1.67474e-08
2.04753e-08
1.50836e-08
6.36701e-07
0.00292325
0.00166192
1.21764e-06
3.77131e-09
3.47371e-07
0.0030562
0.00136141
0.00236581
0.00234395
5.33536e-09
6.07641e-08
2.75786e-08
1.24954e-08
0.00303581
6.52833e-09
0.00148773
0.00321497
5.3979e-09
3.10684e-09
0.00160517
0.00302782
2.82722e-08
9.2445e-10
0.00169035
8.49773e-08
2.55711e-09
4.67421e-07
9.7711e-08
0.000406574
7.13812e-08
5.6318e-08
2.47297e-07
2.69322e-07
9.0752e-08
3.85931e-09
4.8436e-09
1.0629e-08
2.03007e-09
2.05103e-08
8.671e-09
1.88768e-10
2.29119e-09
0.0020065
0.00284306
3.43174e-10
2.54423e-08
6.61649e-09
2.79999e-09
4.78966e-07
1.95017e-08
2.36768e-09
0.00270663
0.00150579
0.00144859
0.0016233
4.88765e-08
0.00136348
2.54995e-07
0.00376689
7.26636e-10
0.00227616
2.72953e-08
3.65252e-08
1.55586e-07
6.06397e-10
0.00294104
1.85437e-07
0.00423717
5.91845e-09
9.43001e-10
9.10895e-09
8.96732e-09
0.00133977
0.00286832
1.39685e-10
3.38519e-09
2.43867e-08
0.00167441
3.93961e-09
0.00280301
3.40437e-07
1.92014e-09
5.75835e-09
0.00241512
3.50598e-08
0.00213604
8.21074e-08
0.00383012
0.00319962
7.75601e-08
3.71087e-09
0.00352898
8.61239e-09
8.50749e-07
0.000344637
1.56369e-08
1.41895e-07
2.29117e-08
8.86597e-09
0.00300982
3.94392e-09
7.39549e-08
3.8355e-10
7.03386e-08
4.61443e-09
5.31818e-09
1.5116e-08
1.00952e-08
1.7099e-08
0.00294978
2.13813e-08
2.76809e-08
4.66777e-09
1.43914e-08
8.88484e-09
9.54926e-09
1.16101e-08
0.00217427
8.60943e-09
0.00293681
0.00189537
4.90746e-09
0.000360669
2.94611e-09
3.31833e-09
2.62023e-08
3.49167e-08
3.04517e-08
0.00152605
0.00202697
1.10361e-07
1.05403e-07
8.36532e-08
0.0030549
0.00110992
4.8267e-08
0.00216307
0.00439084
1.246e-06
0.00258996
0.000410462
6.29445e-09
7.83348e-07
2.53481e-08
0.000563894
6.77325e-10
0.00252482
3.31041e-10
2.30508e-09
0.00063656
0.000341711
1.94642e-08
0.000460462
4.2248e-08
1.04477e-07
2.58014e-08
2.67201e-09
3.95232e-07
2.88048e-09
4.79954e-09
0.00243085
1.32407e-08
1.38824e-08
4.17533e-09
1.21993e-07
1.66033e-09
4.56543e-05
2.97538e-08
2.03323e-08
7.95422e-08
1.64149e-07
0.000297091
0.00227306
4.17914e-08
6.91604e-09
0.00236628
0.00234102
3.70106e-08
2.28331e-08
1.23154e-08
3.15648e-09
3.05841e-08
1.10303e-08
0.00200139
0.00433472
6.10783e-09
2.04768e-09
3.84305e-09
6.05732e-09
0.00246895
0.000394481
1.73677e-09
1.81055e-08
1.53238e-08
0.00211902
1.04977e-05
1.09588e-06
0.00194321
2.49439e-08
2.50069e-08
4.85887e-09
4.12143e-08
2.5266e-08
0.00220474
5.28489e-08
0.000310633
5.51838e-09
6.26095e-09
0.00320553
0.00260271
7.56007e-09
0.00306975
1.07462e-09
1.47495e-09
4.53219e-07
4.99218e-09
3.57549e-09
0.00179302
2.67213e-08
1.2383e-07
0.00384934
1.19768e-08
0.00155082
0.00300655
1.50013e-08
0.00319281
1.43803e-08
1.27406e-08
1.79038e-08
1.87123e-07
9.83926e-09
4.63658e-08
5.95712e-09
2.43665e-08
4.81224e-07
1.9479e-08
0.00232335
6.38953e-09
0.00301314
8.2929e-10
1.15374e-08
5.33018e-09
0.00231076
8.44255e-09
0.00223802
0.00192372
0.00309691
1.5702e-08
0.00209367
1.44772e-07
2.1332e-08
3.17917e-09
7.92969e-09
1.2705e-08
7.64362e-08
1.42217e-07
2.84706e-07
3.42486e-09
0.00282191
3.17718e-08
1.16649e-09
9.4997e-10
4.472e-09
7.02557e-10
0.00200404
3.59048e-08
0.00294261
2.69865e-08
0.00062495
3.60112e-09
3.64858e-09
0.00176862
0.00346357
6.65979e-08
3.6767e-09
0.00375519
1.56749e-08
1.04982e-09
3.33028e-09
1.31707e-08
6.33604e-10
1.37402e-08
1.46142e-09
1.41051e-08
2.8554e-09
5.92972e-08
2.70149e-08
0.00246218
5.49224e-07
1.02657e-07
1.12217e-08
4.65039e-09
0.00208837
1.3976e-08
0.00298252
4.13643e-08
2.80187e-08
6.65928e-09
6.16802e-09
7.94628e-08
7.42512e-07
0.00129734
0.00121784
7.99004e-09
0.00369088
2.41764e-08
0.002769
9.04259e-09
1.31011e-08
2.94676e-09
0.00259951
0.00127756
0.000427409
4.4705e-08
2.03231e-09
0.00128972
5.307e-09
3.30449e-09
8.95228e-09
5.34334e-09
0.00237152
0.00202096
1.78882e-08
3.15086e-08
5.16233e-08
3.89875e-09
3.25142e-06
1.81752e-06
6.2261e-09
2.44167e-08
0.00157766
8.78704e-09
3.11564e-08
1.09144e-09
3.00256e-08
4.43521e-09
0.00226812
4.55689e-09
1.69203e-06
0.000526626
1.035e-08
6.69757e-09
1.05327e-07