/*--------------------------------*- C++ -*----------------------------------*\
  =========                 |
  \\      /  F ield         | OpenFOAM: The Open Source CFD Toolbox
   \\    /   O peration     | Website:  https://openfoam.org
    \\  /    A nd           | Version:  10
     \\/     M anipulation  |
\*---------------------------------------------------------------------------*/
FoamFile
{
    format      ascii;
    class       volScalarField;
    location    "25";
    object      p;
}
// * * * * * * * * * * * * * * * * * * * * * * * * * * * * * * * * * * * * * //

dimensions      [0 2 -2 0 0 0 0];

internalField   nonuniform List<scalar> 
111485
(
7.87162
0.026287
0.0167229
7.87268
0.00987623
7.60842
0.0100061
0.0187087
0.0103754
-0.00274065
0.00952391
0.00695621
0.013678
-0.00146959
0.0117349
0.0373544
0.0255356
8.79343
0.0151346
7.87336
7.87354
7.61117
0.0078587
0.0263592
0.00376708
7.84709
0.0128156
0.0458852
0.0154724
7.87261
-0.0860577
0.0160041
7.87525
7.60617
8.57249
7.56611
-0.061054
0.0518661
-0.122332
0.0206907
7.65326
-0.00247112
0.0214068
-0.032887
-0.261619
7.88607
-0.0165978
0.0220163
-0.00754983
7.91522
7.91337
7.36098
7.92184
-0.0481533
7.9268
0.0246199
0.0155553
7.61435
-0.0963123
0.0180802
0.0192656
7.87206
0.0184673
-0.0745228
7.65662
0.0241827
5.09994
0.0168419
0.00420835
0.015739
-0.142707
0.0302302
7.72537
0.00494626
7.87784
0.0313458
7.61074
-0.00577292
7.6096
8.05505
-0.11503
-0.0355523
7.61028
7.87418
0.0222524
0.00852642
1.74161
-0.0540816
-0.10725
0.0377509
-0.215169
0.0103915
0.021802
0.0456114
-0.00216455
7.87388
7.87212
-0.0376789
-0.742887
0.0662305
7.87197
0.00452398
7.59535
-0.0100539
0.010385
7.9118
7.6132
0.0146839
0.00806955
-0.350643
0.02095
0.0325404
0.0160051
0.0055377
7.84369
0.0301037
7.86018
7.60657
0.0106793
7.87434
7.84608
6.66143
7.6111
7.61453
-0.00465783
8.95691
6.62387
0.0182411
7.87472
0.383638
-0.105545
-0.0390974
7.87834
6.50798
6.79717
0.0103774
7.61055
0.0317851
0.00678151
0.0270451
-0.0393976
0.00870877
0.0167547
0.0176623
-0.0237941
0.0327932
7.61053
7.87336
7.61943
0.0166074
0.0134581
7.87121
-0.0740096
0.00927058
-0.668567
0.0182241
0.0141286
0.00888228
-0.525696
7.87939
7.87296
0.0152979
0.00693406
-0.485685
-0.606357
0.0246458
-0.066211
7.64161
-0.448151
-0.414032
7.61415
7.87285
0.00560193
7.61188
0.0291207
0.0172815
7.6665
7.7033
7.86303
7.81048
7.67432
7.87201
0.0233393
0.0186312
0.0258495
0.0701026
0.000542478
0.0275626
-0.0513259
7.87266
0.0152327
7.69844
7.86039
0.0355116
-0.00913335
-0.0496551
0.031442
0.0160057
7.87869
0.0223927
0.0173246
5.29877
-0.0239695
0.0245988
7.86891
0.0313667
-0.0105822
7.69738
-0.0558753
-0.0133684
0.012626
0.0141042
7.66707
7.87164
0.0278693
4.95435
-0.0387375
7.6116
0.0304028
0.033423
-0.00470193
7.87109
0.0195272
-0.0646348
5.98687
7.61162
7.61425
-0.119424
-0.594046
7.72469
7.29415
0.0315373
0.0226729
-0.0826406
7.72274
7.80506
-0.0727332
7.87557
0.00690965
0.0288517
0.0291764
0.0168018
0.0282656
7.61546
-0.112635
0.0179242
7.61823
7.61032
-0.0527918
0.0315531
7.78266
0.0301348
0.0293727
7.87353
6.35184
-0.0290238
7.8873
8.02348
7.18695
7.87322
0.0251233
0.0177788
-0.010557
7.87541
0.0287367
7.87253
7.87079
7.87836
-0.0805274
-0.0123918
0.025132
0.0161056
0.000259962
0.0187736
0.0162295
-0.0834181
0.00972636
0.0204486
7.57056
7.87324
-0.0879812
0.0189684
-0.0946262
0.0252814
7.87386
0.0257402
0.0123203
0.0190823
0.0163854
-0.110605
0.0141699
0.0174754
-0.0260065
7.61087
-0.0139826
7.61197
8.73714
8.09042
-0.12492
-0.0118257
0.00891479
7.86642
7.67509
0.0270283
0.0260973
7.87092
7.86945
7.93046
0.0178426
0.0294461
0.0198062
0.0157259
0.0116658
7.22495
7.61743
7.87469
0.0306444
3.26747
-0.00511992
-0.116175
-0.0898618
7.61111
7.8713
7.87205
6.79116
0.023764
0.0175862
7.60329
0.0267715
7.7788
7.86315
-0.0358137
0.0243101
0.00202142
0.026852
7.98441
6.7552
7.60652
0.0241888
0.0197913
-0.0867058
7.64933
0.442344
-0.154045
0.0174148
0.0285664
1.26513
0.0102821
7.60916
0.00519143
0.0298885
-0.105817
-0.0422013
0.00677045
7.60882
7.87614
7.61176
7.87592
0.0254375
0.0241399
-0.0153947
0.0149777
7.62694
0.0110047
7.61425
7.87913
0.0114362
8.13896
6.94923
7.91528
7.56142
0.0169479
7.61297
0.0173038
0.0159445
7.60939
0.00457243
0.0258444
7.85285
0.0255878
0.01068
0.0315044
-0.0510076
0.0407295
0.0296511
7.99239
7.87398
-0.0218274
7.63112
0.0039623
-0.0486946
7.66503
7.61362
0.0259853
0.00861293
-0.000984676
0.0226828
7.61043
-0.0834303
0.00261867
7.60648
-0.0360522
-0.0123795
7.87067
7.87221
0.0247851
0.00491546
7.59137
7.86414
5.85513
7.87132
0.00957436
7.61174
7.87222
-0.000748588
-0.0993642
-0.010285
0.0179942
7.60951
6.80877
-0.00854608
6.90686
-0.0313588
-0.00442842
0.00356651
5.2736
6.98138
-0.489673
-0.315253
7.87011
-0.052394
0.00963836
7.86918
-0.517396
-0.00358924
6.94565
0.00407021
0.00595733
0.0385951
7.61069
0.268565
0.00285067
0.0489668
-0.138602
6.60014
-0.605471
7.87134
-0.0455731
-0.169179
7.61483
-0.00734139
-0.0116945
6.41803
7.87435
7.4694
7.87253
0.0113383
0.078233
0.0099498
0.0092133
-0.0585268
7.61189
-0.0464962
7.88392
0.0227713
7.59765
7.88129
7.88853
0.000115861
7.87484
7.87162
8.34428
7.87052
7.62269
-0.0207293
7.61236
7.41613
7.60863
7.85909
7.60317
7.88095
7.61146
-0.00210717
7.60717
-0.0241233
0.000821861
-0.0918872
7.61765
-0.0213686
7.61632
7.87133
-0.00580342
-0.00663607
0.0407552
-0.12713
7.32066
-0.0144519
-0.0242814
0.0228463
-0.0143271
-0.00357892
7.87397
-0.00448389
6.42927
0.00366295
7.61137
-0.0196086
6.65364
0.0223511
0.0143233
8.29133
7.67582
-0.0325432
7.87121
-0.0137834
-0.0204172
7.62142
7.62873
7.92056
7.61361
-0.980317
-0.0142425
7.60699
7.61871
0.00787363
7.61111
-0.0170249
7.61001
-0.0198772
7.8716
0.00636241
0.00557783
0.0510637
0.0212415
7.58996
-0.128679
7.60492
7.61139
0.00228931
7.61246
-0.00327881
7.92682
-0.0339289
7.8732
0.0219196
7.87355
6.95325
-0.111865
-0.0487352
-0.0176146
0.00639334
-0.0295682
-0.00541597
7.6185
-0.025059
-0.0289753
7.61108
-0.0550781
-0.0656034
-0.0100601
7.68048
8.03263
0.0307665
-0.0408731
3.67272
7.71879
-0.0016405
0.0191964
0.00295351
-0.000167455
0.155999
2.52054
6.85971
-0.703066
3.13555
7.87285
0.00722656
7.63039
6.98411
0.029616
2.46408
-0.723525
1.41742
6.85769
-0.0146971
0.0144493
7.62609
7.44319
0.0215522
7.87887
7.61115
7.61184
7.61634
-0.00263796
7.6128
7.82951
0.00387582
0.0257074
6.01536
-0.030812
7.3076
0.0269903
7.92071
7.6164
-0.00780398
7.61055
7.61634
6.95089
0.0456899
4.63388
-0.0264116
0.0371648
7.88708
-0.229662
-0.0699566
0.00324485
-0.016558
0.247939
-0.00100623
7.61376
-0.00903416
0.00624048
7.87648
0.0199959
-0.0246813
0.0119901
0.0356441
0.0120469
0.010975
7.88628
-0.00181954
-0.0573098
6.93114
0.0129042
0.012285
4.83363
0.0382994
0.0133264
0.0029016
0.00604681
0.0145674
0.0324211
7.75629
0.00831279
-0.00289648
8.22997
-0.00642042
-0.0205529
0.035909
7.61385
0.0493605
7.89103
7.61091
7.62335
7.61441
0.0156248
7.04401
-1.04876
7.86859
7.55179
0.00303416
-0.00259644
7.8701
-0.0120934
7.86983
7.87345
7.92305
-0.00857617
0.00530494
6.98011
7.82042
7.61279
7.61295
-0.067592
0.0198098
6.79866
0.000840332
-0.416618
7.617
0.00844839
-0.0181775
0.0829561
7.61043
7.61119
0.021641
0.0304687
6.9146
7.61463
7.60269
0.0152625
7.8763
7.86978
7.61295
0.00471242
0.0193197
7.61047
8.47961
8.21323
0.149193
7.61612
7.61018
-0.0234637
-0.0765053
6.89922
5.94405
1.13095
-0.014368
0.00204437
7.5895
-0.0213006
-0.00599563
7.60933
7.92045
7.61001
7.61195
7.61527
7.60976
0.0214835
7.87094
7.61075
7.67105
0.012877
0.0153068
7.87736
7.93372
-0.0253231
0.0247573
0.0341709
7.86907
7.61135
0.0248174
7.87395
-0.00915644
0.0183706
0.0416936
7.84984
7.87205
7.87189
7.61207
0.0344498
7.61123
7.61061
-0.0345252
7.87199
0.0338453
0.00489861
7.635
0.0344413
7.84004
0.0234317
-0.00727796
-0.025462
-0.0177502
-1.28597
7.22802
0.0214931
-0.0134414
0.000943002
7.78566
-2.12099
7.14549
0.0235204
7.61469
-0.0297868
-0.014425
-0.0331246
8.07891
7.87211
7.87451
0.0285199
7.30439
-0.0267474
7.44145
0.0236386
0.0335691
0.00938259
0.0234238
7.60939
7.6375
7.74686
0.0262971
7.61359
7.22539
-0.160187
7.61337
7.6203
7.87352
7.61046
0.00989827
7.60069
7.61221
-1.58425
7.2868
7.63288
7.06364
7.61232
-0.0378888
0.0128848
7.87109
0.0154136
1.00203
-0.0381911
-0.390433
0.0235546
7.61687
-0.00937542
-0.0317376
-0.0372877
7.87357
-2.65548
0.0100269
6.46606
-0.00406398
-0.119398
-0.105127
0.00278433
0.0268786
-0.142076
0.0386376
0.0277847
7.5905
7.62756
0.0110599
-0.000599769
7.61558
0.0135568
0.00519516
0.0220439
7.60937
-0.123325
7.61055
0.0195337
0.0135015
7.6106
-0.0665296
0.0273516
-0.161501
-0.0219577
7.56784
0.0149627
-0.155709
-0.0764954
-0.159412
-0.0410461
7.6011
7.6212
-0.0239637
7.61048
0.02788
-0.0794926
6.71886
-0.473718
-0.827521
-0.304835
7.61037
6.37831
0.0252385
7.87397
9.46297
-0.0489202
7.60612
7.60962
-0.726866
-0.863849
7.61059
-0.124266
7.61196
7.61051
7.87572
7.87061
7.95473
7.87298
-0.0270549
7.61539
7.61452
7.61962
-1.44344
0.0133299
-4.38927e-05
0.026251
7.62485
7.60975
-0.0507751
7.61158
7.61345
5.81029
-0.0551064
0.0241789
7.61031
7.60563
7.62247
7.60993
7.55668
7.60894
-0.0741541
7.6154
-0.204528
0.0121256
7.61267
7.88246
7.9304
-0.126051
7.92256
7.87338
7.62824
-0.213053
7.60932
-0.0670499
-0.071701
-0.182702
7.60802
5.28997
-0.0424493
0.00696433
7.6626
-0.200753
-0.0154353
7.88135
7.58713
6.89947
7.6064
0.0237884
0.0134017
-0.0661498
-0.349571
7.61145
0.0266162
7.56548
6.82503
6.85634
7.61435
0.0195801
7.61146
7.94097
-0.0677969
0.0291774
7.93805
-0.00410749
7.31104
-0.085827
7.97665
7.61119
7.58266
7.8723
0.0252202
0.0216436
0.352565
7.61238
7.6619
0.0152488
7.61073
7.0695
7.87165
-0.00406925
-0.337842
0.0446004
7.86265
-0.0748865
-0.0626365
8.24053
-0.0623984
7.61929
-0.0419239
-0.0263995
0.00609105
-0.0899766
-0.181113
7.61108
7.61193
7.61156
-0.0744829
7.68194
-0.111536
7.8759
0.734963
7.8718
0.0182395
0.0198029
7.94266
7.61022
7.95997
7.62074
-0.113276
7.96807
6.90759
0.00473951
-0.106445
7.91006
7.03524
7.70405
7.05606
7.61231
7.61085
-0.105044
0.00594264
7.87272
7.86562
-0.629633
7.8781
-0.104672
0.0231496
7.69572
-0.035568
7.87224
0.0177367
7.62045
0.0151731
7.61045
-0.589324
-0.30875
-0.149206
-0.0409553
-0.0454052
4.68296
7.54134
-0.0340213
7.91693
0.0134731
7.87057
7.64064
7.62349
7.622
7.64597
7.61558
-0.0557063
-0.0670619
7.87252
6.6537
7.8785
-0.0544607
-0.12636
7.86886
0.0252334
-0.152321
7.93082
0.0258616
0.0266528
0.016428
-0.149061
7.61074
7.61007
7.63964
7.6111
0.0197682
7.54057
-0.0357564
7.61118
-0.0454125
0.0194177
7.6138
-0.0535406
7.60185
7.61047
-0.0467111
-0.0847837
2.13151
7.61183
7.95421
7.60374
0.0210483
7.50362
7.92308
7.52107
0.858018
6.72399
-0.533459
7.0264
7.48458
7.76842
0.0195168
0.00268986
0.0119612
0.0194194
7.85816
-0.0307607
7.61342
7.61391
0.0165968
7.58819
-0.649835
-0.0414046
0.0322772
-0.0473931
-0.963004
-0.0027716
7.6131
-1.42138
-2.98352
-0.00913559
-0.03698
0.0228043
5.54099
7.86745
0.00114603
7.87615
7.60948
-0.247132
-0.00264059
-1.10607
7.59513
7.43925
-0.0765607
7.93044
7.6123
-0.0533405
7.94929
7.93825
0.11205
-0.053455
-0.0937565
0.0475258
0.0264558
7.61515
7.61061
-0.275336
0.0258129
7.61179
7.94352
0.0326039
7.62299
6.61108
6.75839
6.79497
4.35728
6.62577
7.61336
0.0204048
7.59852
-0.0788716
7.6119
3.42479
7.67059
7.63584
7.61345
7.61142
0.0287379
7.61117
7.6109
6.91497
7.60732
7.61412
7.60775
0.0244365
7.62854
0.0211376
-0.0839419
7.63816
0.041303
7.61147
-0.0277016
-0.204933
0.0175327
0.026309
7.84589
0.0231274
0.0245017
-0.153152
7.87508
-0.109347
0.0249158
0.0262995
7.32687
0.0176492
7.68339
7.61181
7.61404
7.61049
0.0233265
7.61175
7.60113
0.0201331
-0.136906
0.008271
7.62287
5.42589
0.0300667
7.61636
-0.373579
7.92762
0.0114859
7.60826
7.61073
-0.00552095
7.6079
-0.0215887
7.87526
7.61148
0.0274956
-0.0394151
0.0243569
0.019778
-0.137574
0.0184005
7.61179
8.01722
0.0137134
0.029047
0.0302759
-0.0960746
7.61066
0.0221845
7.61054
7.79869
0.00423097
-0.0692601
7.62359
0.0232851
7.59927
0.0185958
0.0309748
7.71171
7.61031
7.61217
0.0128674
7.61336
7.61171
0.0161404
0.0191709
-0.0436328
0.0228131
7.63284
7.62284
0.0112877
0.028606
7.61656
0.0109968
7.69977
0.00708774
7.61151
7.6112
-0.00752925
7.61015
-0.0239035
0.0307765
7.61758
7.60966
0.00428791
6.47106
0.0314299
7.87169
-0.0614246
7.88216
6.67955
6.4571
0.0274744
6.96214
6.88779
0.0117354
6.8457
4.25387
6.33111
7.67319
7.87718
-0.181283
0.0250776
7.65161
7.60971
0.00159154
0.0130685
7.62207
0.012934
7.60935
7.88227
0.00431572
-0.0057244
0.126068
7.61037
7.61273
7.61165
7.61063
7.60584
7.60903
7.60466
7.60632
7.61011
7.60867
7.61058
7.87851
7.61407
7.60974
7.61246
7.78498
7.6102
7.61036
7.61072
7.63883
7.8177
0.0191809
7.61235
7.61052
7.6227
0.0271813
7.61472
7.88219
2.94466
7.60063
7.5083
0.0184617
8.24276
7.56438
3.47909
0.0135834
7.61176
6.75961
7.2585
7.60969
-0.0303851
0.0157308
0.0129562
0.0039247
0.0323565
7.90217
7.60459
0.017378
0.0238498
0.00308996
7.60825
0.0221626
-0.0163874
0.0271083
0.0215358
0.0225531
0.00433367
0.025813
0.0163718
7.88634
0.0228444
0.0263218
0.0130968
0.019268
7.61029
7.60997
7.61027
7.87235
7.60789
0.0257272
0.0251869
7.61357
7.61004
7.61064
7.81832
7.61224
7.87406
7.6174
7.87872
0.0301895
-0.226484
0.025789
0.0313528
7.58706
7.62806
-0.034407
-0.266441
7.61043
7.61124
0.00856303
7.8851
7.61078
0.064705
-0.00156967
0.0156243
0.0322058
-0.0304465
7.89852
0.0144535
0.021883
6.90928
7.87593
0.0111338
7.89532
7.62413
2.37918
1.26971
-0.00928292
7.76533
7.84971
-0.0452311
0.022366
0.0328069
0.0248304
3.3902
7.87194
-0.0190578
8.2365
7.87391
7.55714
0.00961583
7.61176
0.0274403
0.00978544
0.0119544
0.013919
7.87954
0.03633
7.8755
7.45271
7.87356
7.86541
0.0218457
4.48691
7.61078
7.87263
8.35849
0.0267379
6.85609
0.0113597
0.0204656
0.0214277
0.0230313
7.82346
7.86767
6.62747
0.0132356
0.0267791
-0.923392
7.91995
7.8717
6.82487
-0.0239013
-0.0250442
7.60941
-0.0333128
2.48709
0.0153692
0.0202218
7.87219
6.64389
0.0124039
0.0254289
7.61204
0.00556138
0.0037284
-0.00313427
-0.00479974
0.0207003
0.0377592
6.91173
0.0312582
0.0239085
0.028966
7.96829
0.0177082
6.99806
0.0323971
0.0206783
7.87428
0.0209801
0.0167033
0.0115754
0.0253574
8.73841
2.0676
-0.0537414
4.27643
0.0184414
7.64694
0.0222229
0.0182244
7.87964
7.61085
-0.368761
-0.11871
0.0203203
8.73068
0.00679009
-0.209451
-1.17446
-0.0845773
7.88027
7.89238
0.0234379
8.34597
0.0248803
-0.219567
0.0178046
0.0328801
7.8722
-0.00212705
0.024878
7.87122
6.92992
0.0356952
7.88703
0.0277779
0.0322638
7.87307
8.78892
0.0228457
7.87228
7.61012
7.61118
0.0292185
0.0340148
0.0131346
7.92649
0.010062
0.0284408
7.67233
0.0312321
0.0193747
0.024588
-0.132442
7.611
0.0189076
0.053671
0.0311378
0.0193915
0.0265144
-0.160961
0.0290655
7.87143
-0.0497568
0.0223236
7.87184
0.0265431
7.61732
7.61194
7.87511
7.62134
7.87396
0.00342626
7.61213
0.0265649
-0.0183641
7.87584
0.014294
7.8036
0.0172862
7.87876
-0.169251
7.65258
0.00749024
0.00233901
-0.18955
0.0403835
0.0236209
0.0174416
0.0286424
0.0407948
2.79599
0.0325316
0.00568923
0.0432716
7.87323
0.0411012
-0.126488
0.0382683
0.0136482
-0.170031
7.87541
6.76824
7.87702
0.0134751
7.87155
6.16653
0.0248269
8.38905
0.0079845
7.86365
7.8405
7.61087
0.0181893
0.0440853
0.0229002
-0.0462577
0.024699
0.0208211
0.0327604
0.00946849
0.0154725
0.030886
0.0221011
7.87877
7.56486
7.86597
0.0176347
0.029029
7.64822
7.61077
6.30617
0.0454956
0.0183183
7.87201
0.0238398
7.8697
-0.438504
0.0173609
-0.0678686
7.87307
7.87131
0.0111219
7.87188
-0.00925008
0.0297979
7.45349
0.0208005
0.016286
0.027312
7.87127
-0.112962
6.98014
-0.0263551
0.0100392
7.87462
7.88422
0.0271686
5.52409
7.90398
0.034069
0.031305
7.87222
7.85478
6.93627
0.0135836
6.28338
0.0167194
-0.0356398
-0.00145754
7.87168
7.03293
-0.0370478
7.87043
7.61725
7.8739
7.87547
7.14384
7.72486
7.57106
7.87271
7.88985
7.29624
8.39814
7.63996
-0.000843334
7.64949
6.75336
6.39226
8.90698
6.89673
7.8718
-0.0350162
7.3891
7.70916
-0.0360658
8.20841
8.57357
7.77091
-0.0446639
8.36754
-0.033519
-0.0868375
0.0113853
7.16444
7.87498
-0.0252029
-0.462372
7.83481
7.86548
0.0214623
7.08546
0.0213711
7.00983
7.59334
7.72855
0.0197659
0.0231733
7.87054
0.00490037
7.89678
7.38807
-0.190116
0.0434336
-0.0330193
7.60784
0.0230015
7.22899
-0.0224618
7.61142
7.87179
7.61039
6.98747
0.0412635
0.0314188
7.87416
-0.771112
7.88131
7.89438
7.88101
7.87315
-0.026024
-0.0405089
0.0332078
-0.020334
7.83299
0.0112946
0.0128256
0.0367693
-0.0322167
7.66077
0.0275727
-0.00101035
-0.00431544
-0.435438
0.0226377
7.92353
-0.0141052
-0.0251355
0.022854
-0.0248264
-0.0486194
7.90231
-0.0415001
7.77847
7.87599
0.0209384
7.87948
0.0258039
7.86955
7.93858
7.55065
7.87924
7.87329
-0.0483091
7.87791
-0.0176727
7.19516
7.61516
0.0190582
-0.0044089
0.0299585
-0.0163261
7.89012
0.695863
7.87427
-0.0200433
7.93987
0.0134792
-0.0284679
-0.0174509
-0.00529554
7.97031
7.97724
7.87944
0.0285355
7.62611
7.86543
0.0241208
7.6034
7.60997
0.000400303
7.97014
0.00879626
-0.44143
7.14558
7.4983
7.43641
0.0116496
0.0129239
7.87224
0.00744835
-0.0123839
6.98764
-0.0232562
7.87046
0.0205153
0.0223992
0.0395049
7.87438
0.011512
0.0200726
-0.029403
-0.00391293
0.00751423
7.87376
7.87208
-0.106977
7.86772
7.6087
7.87001
0.0140038
-0.0195472
0.0185411
-0.0364
6.86788
-0.00368636
0.0153644
0.0120593
-0.0601173
0.0185833
-0.0188366
0.0129132
7.61054
7.61096
7.61071
0.0320327
7.61192
-0.0335164
5.24203
0.00285047
-0.559516
0.00778942
0.0130526
7.60962
7.87281
0.00388345
0.00305931
7.88682
7.60466
7.87384
0.010787
0.00567047
0.00120939
0.00780288
0.0294033
0.0146948
7.87294
7.87327
7.87155
0.0397539
0.0062305
0.00248729
0.0156824
0.0328344
0.00341259
7.84852
7.87179
6.33931
7.65476
0.024187
0.027317
7.86737
7.90575
7.86642
7.87547
7.83651
7.71577
-0.00616021
7.87429
-0.0509183
-0.118911
7.6182
0.000350215
0.0270286
0.0215199
7.91762
7.7624
-0.00578832
7.87247
-0.00746225
-1.2239
0.0190488
7.66587
5.94715
7.6104
7.87649
7.86809
7.60369
2.10367
7.88594
0.00841114
-0.0038636
7.87487
7.87236
-0.00949813
7.87848
7.61189
0.0125805
-0.20425
7.8615
7.86202
7.67231
0.0416983
7.87204
7.87177
1.16332
-0.0247808
-0.0105137
7.87194
7.61757
7.20745
-0.015081
-0.0102735
-0.0124933
0.00594144
7.611
0.0543186
0.0127001
0.000883268
7.55526
7.86918
7.87162
7.82512
7.8722
0.0238406
0.0201982
0.000265004
7.88978
7.87238
7.87177
7.86941
7.68563
-0.0406411
0.10945
0.0190588
7.61492
7.87259
7.92672
-1.01207
-0.042756
-0.0715063
7.60948
-1.94887
8.25653
7.83862
7.87109
0.0228602
0.0348794
7.87456
7.9067
0.0116022
7.87312
0.013726
0.0291343
2.72703
7.87032
7.66112
0.0229711
-0.0621264
7.91062
2.53433
0.0540184
0.0316716
7.87369
7.87643
7.88216
7.88084
0.0258714
0.0263124
7.87676
-0.0519857
-0.0150865
0.202358
7.87245
7.87161
7.87303
7.87702
0.00884291
8.38378
7.87369
7.76756
0.0240193
-0.00983534
0.0292308
7.84514
7.87195
-0.0224378
7.62396
7.87258
7.87461
7.87384
0.0202534
7.69509
7.59602
7.61365
0.0197583
0.0266765
7.86897
7.87405
7.8552
0.0153044
8.15153
7.8779
7.85725
7.87411
7.87358
-0.201882
0.0229332
7.91456
0.0211638
0.0152333
0.0199488
7.87843
7.87492
7.87381
7.83374
7.61096
0.0272598
7.87337
7.37955
7.33225
-0.0173051
7.65039
-0.0252339
7.87199
7.6134
-0.0231482
0.289376
7.03215
-0.00615651
7.8747
-0.0102715
8.12337
7.8913
7.92229
9.10715
7.87981
-0.0383714
7.8703
0.00945506
7.61297
6.93449
7.8793
7.86766
0.0147496
0.0324619
7.61055
2.64303
7.60805
-0.0142747
-0.0418068
0.0099767
7.61268
-0.352063
-0.0239655
-0.0508658
0.0229066
-0.629596
-0.0299409
7.59233
7.61097
-0.75484
0.0219623
-0.0025238
7.90942
7.51425
6.37037
3.25228
7.87437
7.61634
7.87454
7.87501
7.87582
8.30301
0.0343807
-0.0746127
0.030025
6.96839
-0.0953353
7.87413
0.00976382
7.8715
7.88057
7.61171
7.71154
-0.106757
7.69248
7.60466
7.87214
0.0164068
7.8707
7.87219
-0.0563598
7.82737
5.75117
4.92711
4.58897
7.87655
4.80793
4.64568
4.75597
5.45955
7.61052
7.61104
0.0105948
-0.014328
6.95639
7.139
7.60667
0.00554212
8.19085
7.71157
-0.102633
7.87468
7.87247
-0.0377783
-0.0898341
7.83816
7.61229
-0.0339184
7.03312
7.60439
-0.408881
0.00675065
0.0508902
7.8113
0.021584
7.87459
0.0154339
-0.395837
0.0162635
7.87266
-0.389255
0.0208476
7.96727
-1.03851
7.86431
0.0195584
7.53019
0.0266461
7.80408
-0.0491099
7.87359
7.57149
7.61218
-1.46851
-1.47593
7.88562
0.00948595
0.0110909
7.91912
7.87229
-0.00531544
0.0195236
-0.124727
7.88019
0.0149646
0.00922398
-0.0509502
-0.851778
7.87596
-0.172644
7.61987
-0.153083
7.87156
-1.73285
-2.00923
7.85266
0.0221798
7.67416
-0.0457036
7.60975
7.85684
7.8854
7.89018
7.85084
7.85876
-0.00301662
0.0286091
-0.156904
7.88194
6.34269
-0.144795
7.88024
7.82922
7.90541
7.86657
7.90394
0.0228256
7.87274
7.87428
7.61083
0.015896
7.85785
7.61102
7.54056
0.0365821
7.61144
0.00853181
-0.78804
-0.0522898
0.0342419
-0.0153852
8.2209
7.87758
7.87114
0.0694751
0.0305649
7.54161
6.30991
0.0103144
7.8724
7.87545
-0.134691
7.86336
0.015737
7.87475
-0.012387
-0.0568869
7.88093
7.61032
7.8743
7.87483
7.87016
-0.0258581
7.87098
0.0115859
7.9433
7.87503
0.0239137
7.6046
0.00751246
7.77436
7.8721
-0.0132169
0.0311389
-0.120318
7.87385
7.87424
7.87266
0.0297184
-0.0891684
7.95109
7.60987
7.64188
0.0128862
7.8659
0.0141483
-0.136147
7.87174
7.86822
0.0214858
7.86621
7.64376
7.61157
7.95922
7.61158
-0.154297
6.21975
7.63641
7.87314
6.38262
7.86788
6.60367
7.8467
7.86674
7.72842
0.0179191
7.78813
0.0113714
7.86025
7.86712
-0.055387
0.00544695
7.86244
7.82511
7.87429
0.0259524
6.69983
7.87395
7.73285
7.87047
0.019145
7.86374
-0.181424
7.87422
-0.010069
6.91555
-0.0275372
7.88924
7.87011
0.00524652
6.5429
7.87979
0.0287521
-0.00730591
7.89247
7.87488
-0.0194112
-0.0575046
0.0205691
0.0168952
0.0066887
-0.00761804
0.0222635
-0.0394535
7.94855
-0.191237
6.25603
6.14151
7.87342
7.87115
7.87049
0.0349483
7.87473
7.86787
7.87492
-0.123481
-0.0432526
5.9474
-0.0429841
7.87565
-0.0164341
7.60966
-0.0608323
0.0224549
6.32978
0.00244097
7.86605
7.84579
7.6113
0.0412163
-0.0120553
7.87281
7.61124
0.0310772
7.87364
-0.134514
7.91434
-0.0838215
7.87176
7.61182
7.85257
7.61065
0.0244325
7.61091
0.27146
7.61308
-0.0054155
7.87259
7.8689
4.30914
3.98375
7.89073
7.86933
7.87217
7.87294
-0.00739249
-0.143822
5.20972
7.87667
0.000521468
7.6093
7.62085
-0.428629
0.0122825
-0.0691595
7.61191
0.0255005
-0.0215688
0.0256957
0.014498
7.87238
7.87535
7.87957
7.87583
7.61166
7.6106
7.61136
7.84036
7.61223
7.61155
7.87201
7.61127
-0.109808
7.61052
7.87252
8.61501
7.87421
7.87293
2.7026
7.61075
7.87173
-0.00536627
-0.0995179
7.84851
7.85151
7.87263
0.0179911
7.64546
7.86002
-0.111181
7.61209
7.87315
7.86842
7.87643
-0.0485206
7.61051
-0.17529
7.87643
7.85702
7.87134
7.87218
7.86989
-0.110927
-0.143442
0.0211797
7.87446
7.63535
7.90918
-0.126651
7.8722
-0.133182
-0.086529
7.60897
7.84331
5.93753
-0.404479
7.85533
7.01464
-0.391339
6.01602
-0.0107621
7.64356
-0.0402624
5.98308
5.61288
7.87178
-0.000561665
7.61201
-0.0136169
-0.0551043
7.88127
-0.00166713
-0.284259
7.86994
-0.0690808
7.61365
7.85646
7.86539
7.85236
7.86729
7.60918
7.87199
7.87192
-0.154123
7.10475
7.87246
7.8698
7.87101
7.87499
0.0188408
4.03797
-0.132878
-0.309449
7.87138
0.0141963
0.00336981
7.87246
6.99233
7.78625
7.86213
7.89935
7.96261
6.43039
7.1638
-0.0350656
7.87412
7.8778
6.09803
6.63661
7.61037
-0.00670803
7.88028
7.62542
7.87423
-0.0807704
7.87632
7.61068
-0.0164224
7.61111
7.57139
7.76328
7.92012
-0.0166154
7.87345
7.8719
7.87178
7.84277
-0.0154092
-0.0670595
-0.0580628
-0.0029715
-0.0309309
-0.0394522
7.61173
6.54146
-0.166085
-0.0328059
6.53146
-0.150949
7.86821
-1.08635
7.63329
-0.0903766
7.87451
7.61597
-0.0317306
-1.38835
7.87693
-0.0330775
7.87575
7.87586
-0.0967466
-0.0571454
7.87234
7.61112
7.91722
7.61054
7.86927
6.86095
7.87363
7.87156
-0.0333993
7.87318
7.86813
7.87093
-0.0246236
7.88418
6.9026
7.61128
7.6107
7.29764
6.91981
-0.0261677
7.61541
6.92832
0.00528283
7.86613
-0.0427464
-0.0256296
7.87418
1.44295e-05
7.87101
7.4535
7.93457
6.78265
7.61323
7.85141
7.86537
7.87585
0.0201752
7.87475
7.87299
7.8714
7.73346
7.87183
7.78455
-0.120914
7.87196
7.87702
-0.070264
7.87298
7.61155
7.61027
0.0318351
7.8743
-0.164174
6.70135
-0.383616
0.0153725
7.60779
6.53618
0.00763806
6.26562
7.61188
-0.1989
-0.379362
-0.00266731
-0.0576413
-0.25791
-1.1677
7.63542
7.61675
0.00840303
-0.102696
-0.0852203
0.0172298
-0.400828
7.6092
0.0194782
-0.00145864
0.0049411
7.61364
0.00758971
0.0219639
0.0232222
0.00419391
-0.124284
0.0154221
0.0418366
-0.00456002
0.0108239
0.026209
0.0101944
6.91617
0.0918585
0.00629934
-0.00198845
-0.0296008
0.0234684
0.012171
0.0145225
7.07693
-0.115457
7.02588
0.0346913
0.0107171
-0.0367299
0.0026633
7.01412
7.60901
0.0120794
0.0148615
-0.129386
-0.0650776
0.0240996
-0.0008624
4.82655
0.00890747
7.87195
-0.000622911
-0.114195
-0.0486358
0.0304931
-0.142196
-0.177223
-0.00287464
0.00626891
-0.00486007
0.0316045
0.00126189
0.123497
6.13759
5.40403
0.00155662
7.87618
7.87262
0.000992305
0.0216546
0.0231611
7.87347
-0.0733693
-0.0574284
0.0179163
5.58326
7.87143
-0.209135
0.00792065
-0.120997
7.87552
0.0284743
7.87181
0.00779526
-0.00530383
-0.047044
-0.0464524
7.87201
7.87391
-0.0382283
0.0122062
0.0273303
7.86537
0.00766133
0.0271487
-0.0070261
7.61851
0.0340425
0.048659
7.00463
0.0226412
-1.50959
-0.107162
7.57939
-0.0634119
-0.101947
7.87187
0.00238334
0.0176953
1.38772
-0.0136259
0.00864332
0.0224419
0.02125
-0.0351857
-0.0231712
-0.230085
-0.11177
0.0320598
0.021831
-0.0145819
-0.173313
0.0208195
-0.0200547
0.0594867
0.0142568
-0.161927
0.0396198
7.87196
-0.00275265
-0.0127261
-0.107254
0.0381116
-0.0415888
7.63864
-0.0048866
0.024323
7.86738
-0.075497
-0.0114131
-0.00451873
0.00201107
0.0224271
-0.0449173
0.0126524
-0.0172621
-0.0544894
7.87159
7.87215
-0.0502478
7.61504
-0.0470196
-0.00532121
7.70532
0.0220809
-0.0203711
0.0397986
7.87144
0.0261132
0.0113367
-0.0636986
-0.145259
0.0207393
0.0449584
0.00838021
-0.0107185
7.87211
7.85503
-0.0976727
-0.0331683
-0.059623
0.0202747
7.85471
-0.0335102
0.0154282
7.7057
0.000360582
0.0107538
-0.0837266
-0.218676
-0.031286
-0.0384745
0.0380145
-0.00499975
7.62002
0.00298193
0.00323976
-0.00030216
-0.203747
7.85591
-0.0224859
8.0125
7.87293
0.0130621
-0.012552
0.00560764
0.12244
-0.119116
1.4844
7.61338
-0.0316542
0.0255867
0.06629
0.00941008
7.8793
7.61249
7.60199
-0.00166596
0.00330896
-0.230115
0.0252181
7.62624
7.85922
-0.00926762
0.00539025
-0.0433308
0.013659
0.00851567
0.0293662
-0.05226
4.37686
7.61058
-0.004547
0.0232915
7.85872
-0.00422359
0.0246951
-0.0754223
0.0104953
0.00954739
-0.0428013
7.85888
0.0259381
0.00601373
7.61345
7.64283
0.0293733
0.0793968
0.0140472
0.020881
0.0181153
0.0136959
0.0325584
0.0298758
0.0246468
0.0139955
7.85466
7.8471
0.00992427
0.0308946
0.0170499
-0.101064
0.0207593
-0.00319789
-0.00151287
0.0241448
0.0170431
7.61349
7.6212
-0.114902
7.85341
6.8627
0.0130686
0.0199748
0.000886648
-0.0970728
7.16153
-0.0352865
-0.0825493
7.29245
-0.104039
-0.210596
0.020265
0.0223996
0.0199845
0.0288181
-0.14624
0.0207622
7.87245
7.23525
-0.0810952
0.029157
0.00534914
0.0260713
-0.109193
-0.0331289
-0.111608
7.26136
0.0254046
0.0532687
0.0144753
-0.124737
-0.0373227
-0.0967019
-0.203387
0.00292216
0.0223129
7.15323
-0.0040448
0.0267387
2.78405
6.7889
6.23725
0.0380666
6.6335
0.013642
0.0236117
0.00611953
0.0233641
-0.109337
5.04401
3.04084
8.05874
6.72901
-0.0482543
7.6105
7.61022
-1.28894
7.87008
0.0282669
0.0116816
0.0291135
0.0227295
0.023241
0.00568795
6.26741
0.0226554
0.0253839
-0.0314173
0.0147699
0.0349634
0.0135129
7.61059
-0.206999
0.0299215
-0.0963129
7.61063
-0.00924479
-0.00531589
7.61056
7.86415
-0.0813372
0.0192189
7.90805
0.0127196
0.0166079
-0.08471
7.87332
7.61057
0.0205384
-0.209462
0.023024
7.61063
7.59547
7.61067
0.00192221
2.54765
2.32004
-0.00274625
-0.369846
7.88126
0.0267745
-0.347217
0.0185992
0.0235184
0.00703892
0.0182832
-0.50702
0.0282905
7.66036
0.0106293
0.039462
0.0179412
0.0205241
0.0140323
0.0352181
0.0168665
0.00974428
0.030251
-0.0632359
-0.389838
0.0119641
-0.0857541
-0.13428
-0.461119
0.0103864
-0.374048
0.0197976
0.0303492
0.022158
0.0389816
-0.0544621
0.0345105
-0.381659
0.0226328
7.46903
0.010542
3.81445
0.0143084
-0.0063111
7.61414
-0.0166546
7.46847
-0.00415864
7.49648
7.90424
0.0434686
-0.0265436
6.84518
0.0240032
0.0197926
-0.0237614
7.86004
7.87393
0.0141157
0.000708902
-0.181215
0.017687
0.0317989
-0.0245719
-0.0657341
-0.00832387
-0.0173307
6.5092
0.0097803
7.61016
7.80575
0.0310722
0.0299164
-0.0982826
0.0301422
0.0314665
-0.0106366
-0.022387
7.78111
-0.113293
0.0211163
-0.0130416
7.79336
7.88
0.00965091
-0.00124199
6.16211
-0.0435142
0.0292562
0.000547406
-0.135616
0.0325532
0.0229973
7.86349
4.57232
0.0220501
-0.0757888
7.67795
0.0401226
-0.0496627
-0.0136897
-0.124169
0.0169673
-0.153688
0.00941273
-0.0393919
4.83096
-0.0496627
7.87348
-7.59652e-05
-0.0203362
0.0307685
0.00976817
6.5714
0.0145244
-0.0814027
-0.0141834
-0.11048
7.42176
7.61076
0.0296145
-0.0749177
-0.00433221
0.00427476
-0.0433199
0.0213298
-0.00245832
0.00812951
0.0415921
0.0264441
-0.0512361
7.03095
-0.130201
-0.0233636
-0.000837816
-0.0411363
7.22681
7.61049
-2.39325
-0.1175
8.15285
-0.143923
-0.0251087
7.36841
4.99728
5.45637
-0.0444229
0.0240888
0.171614
5.83964
-0.0780809
0.031427
7.61674
0.227052
6.88521
-0.013432
0.0217546
7.64404
-0.0286758
-0.0270076
-0.0308144
0.0269985
7.61023
-0.270828
-0.0411998
-0.0786385
-0.0211617
-0.0209906
-0.0420635
-0.00993068
-0.175933
-0.023372
0.0215253
0.0231112
7.87179
6.44428
6.55483
7.7262
-0.0309303
0.0255747
0.031387
-0.0649599
0.0204503
0.0296405
-0.00622062
-0.020427
-0.0167602
0.0231352
-0.0151513
-0.0869727
0.00265714
0.0261571
7.87268
-0.0432899
-0.0619156
-0.0184631
-0.0105578
7.60904
0.00156096
0.00415328
0.0353903
0.00277718
0.0127128
7.63034
0.0234359
0.0126056
6.87839
0.0238022
-0.00923772
7.72033
-0.00133508
7.71172
7.60827
0.0032078
-0.0620384
-0.00665636
0.0145065
7.6136
0.0345673
-0.0397918
7.61266
0.0321421
0.0121376
0.0185708
-0.0132763
7.75142
-0.0328942
-0.0277286
0.0095653
7.69427
0.0462594
0.0203577
-0.00268804
0.0273498
0.0127677
7.90125
7.45206
7.05827
0.0268025
7.18675
0.0289213
0.0157183
0.0246737
7.83355
0.0212412
7.65469
7.87327
7.80771
0.00965042
-0.0127135
-0.211047
0.00281932
0.0348989
7.5161
6.88227
-0.0416788
-0.0465076
0.037529
-0.167885
0.0249125
-0.403853
7.8755