/*--------------------------------*- C++ -*----------------------------------*\
  =========                 |
  \\      /  F ield         | OpenFOAM: The Open Source CFD Toolbox
   \\    /   O peration     | Website:  https://openfoam.org
    \\  /    A nd           | Version:  10
     \\/     M anipulation  |
\*---------------------------------------------------------------------------*/
FoamFile
{
    format      ascii;
    class       volScalarField;
    location    "25";
    object      SgP;
}
// * * * * * * * * * * * * * * * * * * * * * * * * * * * * * * * * * * * * * //

dimensions      [1 -1 -3 -1 0 0 0];

internalField   nonuniform List<scalar> 
111485
(
1.07195e-09
0.00012163
2.82502e-05
5.4573e-11
8.58896e-06
3.19426e-08
1.52225e-05
2.53833e-07
1.04998e-05
2.96044e-06
2.5723e-05
9.18165e-07
6.88322e-06
0.295507
6.76928e-06
1.61293e-05
0.209109
0.00105562
8.98323e-07
4.80592e-08
0.0372154
3.53702e-09
3.16753e-06
1.13835e-05
4.12968e-05
3.50115e-08
5.81431e-07
1.47304e-05
1.06194e-06
0.0481478
4.20342e-06
5.0426e-07
2.17955e-07
1.44111e-06
0.000738819
9.18307e-05
0.136655
0.20582
0.00245081
9.03245e-07
0.043579
1.22546e-06
3.03619e-06
0.000107818
1.87269e-05
1.58703e-06
6.55906e-06
4.40962e-07
6.1103e-06
4.28483e-07
1.09566e-06
1.72435e-05
4.62546e-07
1.00088e-05
1.50736e-06
1.61296e-07
2.81336e-06
4.44389e-08
5.07082e-05
3.85442e-07
5.83317e-07
2.65262e-07
8.66763e-05
7.06323e-06
6.48231e-06
2.13813e-05
0.000426455
2.42042e-06
7.19348e-05
0.000142855
4.93762e-05
8.75748e-05
1.12584e-05
9.23027e-05
4.65362e-08
1.7825e-06
1.52381e-08
7.151e-07
2.73667e-08
3.12691e-05
0.28104
0.526537
4.73155e-08
5.22314e-09
1.61301e-05
3.81263e-05
0.143751
9.20787e-06
0.000247553
4.50737e-06
1.36794e-06
6.63702e-06
4.65418e-05
4.90953e-07
2.2618e-06
6.66725e-09
0.0270657
1.18581e-05
0.00153573
0.000578205
1.37014e-09
2.63649e-06
1.96733e-06
1.43784e-05
6.14857e-06
1.64534e-05
5.72365e-09
2.85144e-07
1.51663e-05
0.000730605
4.22396e-05
1.37907e-06
1.32635e-05
7.41678e-05
1.036e-07
1.79337e-07
3.05939e-08
6.55921e-06
2.31312e-05
4.94614e-09
9.12658e-08
0.000190004
0.0753507
2.27109e-06
5.79492e-05
0.0280161
0.00010732
1.34171e-05
3.00233e-10
0.000320748
0.00013726
1.74718e-05
0.0472062
0.000175321
7.84902e-05
8.62874e-07
8.9144e-10
3.24582e-07
9.90125e-06
2.45858e-05
7.14417e-05
3.43667e-07
0.180379
9.94911e-05
4.14145e-05
2.4182e-06
1.01292e-09
8.99128e-10
4.76811e-08
5.10167e-07
3.36901e-05
0.0285494
0.115718
1.41748e-05
3.52212e-05
5.53697e-07
5.67545e-06
0.000153974
0.000823084
5.43675e-06
9.67256e-10
7.18146e-07
4.04218e-05
7.41119e-05
6.34541e-05
3.86531e-05
7.38469e-06
0.0271038
0.00156259
0.000127812
1.59254e-09
1.52389e-08
0.197985
1.18715e-10
2.66037e-07
2.86292e-06
5.24745e-07
9.60559e-06
3.55739e-08
5.80951e-06
9.88396e-06
3.71552e-08
2.64828e-06
5.08468e-07
2.39949e-06
2.06104e-05
9.85682e-06
5.54747e-05
0.000387321
1.78858e-07
5.42759e-05
5.75869e-06
7.13672e-06
3.72399e-05
5.11959e-06
1.21188e-05
2.07244e-06
1.39325e-06
8.46218e-07
8.88929e-06
3.06604e-06
0.00164034
8.08393e-05
9.28231e-07
1.82917e-06
4.12731e-06
1.26111e-05
1.18509e-05
1.82139e-05
3.00148e-06
5.6829e-06
9.85523e-06
8.65209e-06
7.79055e-09
7.06077e-05
0.000312341
4.57999e-07
7.53552e-09
1.20431e-05
1.77255e-05
8.73337e-07
8.33199e-08
1.62579e-05
1.66718e-05
0.00027794
6.89254e-09
4.31944e-10
3.15367e-05
0.0041876
2.36049e-05
9.37952e-05
1.39476e-05
2.37633e-06
0.146182
3.88371e-05
2.07762e-05
0.160954
4.6665e-08
6.20199e-05
2.22407e-05
2.7079e-05
3.30194e-05
4.84906e-06
3.90034e-06
0.00195541
1.20483e-06
7.84953e-06
1.23356e-08
5.14226e-06
0.136628
1.83604e-05
1.09528e-05
2.18841e-05
7.89373e-10
0.000193217
4.72115e-07
2.78454e-07
6.66923e-05
0.0997326
1.85361e-08
4.65101e-06
5.50423e-05
2.52012e-06
3.37088e-09
1.16239e-05
6.81802e-11
6.08285e-08
5.1015e-07
0.165038
4.34506e-06
3.23726e-05
1.37565e-06
0.177486
1.97992e-05
1.42063e-06
0.00025407
4.75274e-06
1.18385e-06
4.50813e-07
5.35417e-09
0.111619
4.28587e-07
4.00292e-05
2.10101e-05
1.90448e-09
0.217827
0.266033
1.57377e-06
0.000319563
3.5042e-05
3.2219e-06
8.81858e-06
1.1919e-05
2.01251e-08
7.63478e-06
3.04078e-09
0.000359577
0.0002755
1.54785e-05
1.70864e-06
0.34688
1.77112e-08
0.0860797
1.10984e-06
7.78902e-06
3.00066e-09
1.15009e-07
0.0246268
4.90325e-06
1.51819e-06
5.93673e-06
0.000171654
7.7106e-07
3.04766e-05
3.05332e-08
3.54081e-08
5.72295e-06
0.00435053
0.250436
3.39004e-06
0.000792493
1.77199e-09
8.69771e-09
1.40448e-08
8.48393e-05
5.70444e-07
5.89595e-07
2.17517e-06
8.74297e-07
7.13917e-05
0.060811
5.61714e-06
1.23201e-07
1.89862e-06
2.31019e-06
0.0483768
4.99744e-05
7.37961e-07
7.24514e-07
7.85311e-07
1.34589e-05
7.04267e-08
0.151353
0.000173575
8.56531e-07
3.22509e-06
0.000302667
4.77012e-07
0.0391386
5.36778e-07
1.07696e-05
6.46689e-06
3.90503e-07
2.02103e-05
9.11145e-06
1.96564e-07
5.4708e-07
7.13759e-07
1.7659e-06
0.362339
2.98282e-05
1.70146e-07
0.0530148
1.65566e-05
1.73669e-08
4.07969e-07
3.73418e-07
0.0469192
0.000622229
0.0459025
0.0496897
2.82808e-07
2.50285e-08
2.80268e-06
4.07478e-06
4.05226e-10
7.77046e-06
3.05253e-06
1.57557e-05
2.65736e-05
0.000141559
5.60226e-06
0.000709058
4.77648e-07
8.21574e-06
4.31859e-05
1.16238e-06
0.000673671
3.89742e-07
1.47334e-05
2.84219e-06
0.0303823
1.17552e-07
2.08594e-07
0.15482
4.77886e-06
0.306559
6.6213e-08
4.65776e-06
3.54521e-06
7.73229e-09
5.18708e-06
4.62211e-05
3.80916e-09
0.0320436
3.17044e-06
2.84195e-06
4.58525e-07
2.59684e-08
0.000758147
3.76787e-09
1.04106e-05
3.6315e-06
4.31443e-10
1.10735e-06
3.88208e-05
0.246915
0.000134983
1.99488e-09
7.95198e-05
0.00010288
9.91607e-05
3.91323e-05
0.000632003
2.52451e-06
0.0011275
5.54694e-05
0.204923
0.000199289
4.60442e-08
7.41559e-06
1.07008e-06
2.03823e-07
0.00142099
0.000222873
8.32298e-05
1.49145e-06
1.38039e-06
9.58296e-06
3.67675e-08
0.351672
8.31959e-07
3.36386e-05
0.00438575
9.16579e-05
0.0012739
3.56596e-08
0.253591
0.332519
2.60899e-08
3.56265e-05
0.000262127
0.000103551
4.05703e-09
3.01693e-05
3.59238e-09
0.285143
7.24059e-05
2.13092e-05
0.000108375
2.10956e-05
1.86444e-07
1.76016e-06
4.99836e-07
6.96466e-05
1.5449e-07
5.98382e-07
0.0524058
9.60772e-05
4.03663e-08
1.5634e-09
0.000382963
8.46337e-08
1.60533e-06
3.63006e-06
2.75046e-08
6.16703e-05
6.73201e-08
0.0741603
6.93103e-08
1.65964e-06
3.68243e-08
0.000239016
4.30847e-07
0.224114
1.96905e-05
0.237004
9.07346e-09
6.66407e-05
2.59085e-06
2.67548e-09
0.369881
0.143246
2.63209e-05
3.04544e-06
3.06358e-05
6.14054e-07
1.20347e-05
7.91767e-07
4.60394e-05
0.289943
2.55154e-08
2.42311e-06
0.000108471
1.77788e-05
0.0591106
5.82671e-06
0.000114987
2.46682e-06
1.37718e-06
0.000783595
0.0820372
1.77939e-05
2.15147e-08
1.3745e-06
3.62232e-06
3.55533e-06
1.14502e-06
1.96153e-05
1.75063e-09
0.00170051
1.59863e-07
3.55117e-07
1.78741e-07
9.61913e-05
4.50025e-09
1.02437e-05
2.86588e-08
9.32344e-06
1.94449e-09
0.116292
0.114777
2.0051e-05
1.16553e-06
0.0653105
0.0813871
4.7373e-08
2.84451e-07
1.50957e-05
4.70506e-08
0.000173179
1.78041e-05
1.09729e-05
0.0426539
1.67968e-06
2.39713e-09
4.68367e-05
4.50667e-05
6.22257e-05
1.60403e-06
1.58856e-05
1.02974e-05
1.2023e-06
9.77702e-07
2.12054e-05
3.31778e-05
2.56402e-09
0.126584
6.73988e-05
4.35591e-05
1.34757e-06
0.00115725
3.21084e-05
0.000463864
0.00301957
0.00038649
4.1772e-06
8.6634e-05
1.15334e-05
2.11941e-05
0.115097
0.000212216
7.444e-05
0.00358918
0.0770615
3.16436e-08
6.53927e-05
4.59494e-06
4.07018e-05
3.6576e-07
0.000519957
0.00274684
0.000429452
0.000167285
2.67986e-05
2.36712e-06
5.7307e-08
0.000197984
3.46098e-06
2.90498e-08
5.59994e-10
5.62667e-08
3.19612e-08
9.99157e-06
1.79567e-09
0.0347545
1.27937e-05
2.56341e-05
0.0988855
0.319485
6.04029e-05
3.04145e-06
0.0371517
5.53351e-08
1.87428e-05
1.80699e-07
1.93672e-08
4.77917e-05
2.37102e-05
0.121539
2.65906e-05
1.63106e-07
2.69234e-06
2.88651e-05
0.143875
7.09381e-06
2.75204e-05
7.11003e-05
0.196929
0.0415987
2.83131e-06
1.78088e-05
5.96166e-06
2.4116e-06
5.91299e-06
1.07967e-06
3.1846e-05
4.22165e-06
2.17443e-06
1.1406e-06
4.42801e-06
0.000659852
3.26539e-05
4.24605e-06
5.14882e-06
0.000660444
4.02923e-07
5.11024e-07
1.80337e-05
3.10617e-06
1.66359e-05
3.0865e-06
3.275e-06
3.4059e-06
3.29662e-05
0.000198107
1.26191e-05
1.84567e-05
3.1319e-06
4.61094e-07
4.48167e-05
4.45403e-06
4.04353e-09
0.0778595
1.61246e-08
0.136812
5.88667e-05
0.0118014
8.02506e-08
0.0295296
1.44317e-06
1.14126e-05
1.34193e-09
7.20368e-06
3.00958e-07
1.65219e-08
8.16368e-07
0.282991
0.000130002
2.96215e-05
0.0411882
1.03949e-07
2.87155e-09
3.70461e-06
1.92091e-06
8.36582e-05
5.32181e-07
0.000128514
6.48563e-08
7.37638e-06
0.000125468
0.16838
6.15224e-10
4.73548e-09
3.38892e-06
8.46469e-07
0.000132731
4.34745e-07
0.0631928
1.2135e-06
2.65427e-08
1.22984e-07
0.0456489
6.52915e-06
0.00013964
6.19771e-10
0.00504192
0.00106268
0.182382
1.61214e-08
1.91061e-08
3.56537e-06
2.2704e-05
3.95484e-05
0.00058617
0.000330075
0.000260044
5.03708e-06
0.063653
2.69884e-05
8.16973e-07
6.90316e-08
1.20464e-06
1.34328e-08
9.37199e-09
7.71964e-08
9.41729e-10
3.37721e-06
7.11795e-08
1.95045e-08
3.29548e-07
1.97137e-07
1.68055e-06
1.07145e-07
5.78578e-07
2.69968e-07
1.50276e-05
1.67157e-05
2.69574e-08
7.44539e-09
2.22127e-05
7.96702e-10
9.23681e-05
2.12314e-06
5.24432e-06
1.25696e-07
1.27125e-10
9.54626e-10
1.61119e-09
1.56776e-05
1.81015e-08
6.57827e-08
2.10447e-05
4.7943e-09
1.41297e-05
8.25849e-05
2.3658e-06
1.74237e-06
0.000529159
4.55308e-06
0.252409
0.000110253
8.32939e-06
0.209886
8.25835e-05
6.20196e-06
2.84319e-05
9.70737e-07
2.05087e-05
0.0890445
0.000707513
6.23275e-07
3.68463e-08
1.2808e-05
8.0553e-05
9.97695e-05
9.22619e-05
1.85551e-09
1.56392e-10
1.31277e-06
3.86508e-05
9.34051e-06
3.9105e-06
0.000207077
3.61217e-06
2.99928e-05
1.48029e-07
1.50859e-08
0.0336018
8.20381e-06
3.77905e-07
2.79175e-08
4.98588e-05
0.000131087
1.78721e-06
3.47722e-07
0.0407109
1.58697e-09
2.7524e-05
0.0640488
9.79072e-09
0.0726726
4.30336e-05
0.0372401
0.000610259
9.73371e-08
2.49302e-05
2.21409e-05
0.0458738
5.68854e-05
0.00132277
0.16189
0.000145736
1.15092e-05
1.00067e-06
1.32758e-06
0.487212
0.162245
4.31152e-08
0.242239
1.39073e-05
0.000162677
2.53009e-05
2.21471e-05
0.00121428
3.98732e-05
1.40074e-05
6.81822e-06
1.3332e-07
1.78623e-06
0.0458455
8.17029e-08
5.57669e-05
2.82986e-05
9.79786e-08
3.96928e-06
0.217708
4.48201e-06
2.96493e-07
0.000646587
1.56678e-08
4.05454e-06
0.212712
2.34639e-08
0.178152
0.343011
0.00135414
1.78077e-05
1.07119e-06
3.77095e-06
6.33035e-05
0.000225097
0.00120353
0.000318433
4.29913e-06
0.0455633
0.000112049
9.21884e-10
0.000303963
0.000299665
0.000612748
0.000467405
0.000864149
0.000171418
9.79412e-10
6.88427e-05
1.02752e-06
4.12736e-07
0.00171326
0.350156
1.75682e-07
3.29953e-08
0.00324286
0.00330354
3.26982e-09
0.000604943
8.69169e-08
1.57971e-08
1.25071e-08
4.49374e-07
5.07245e-06
1.65608e-07
7.85582e-05
0.0520973
1.45358e-09
5.03126e-07
0.00451239
0.116196
7.52675e-05
7.86781e-07
0.0327321
1.05807e-08
0.000134315
4.03009e-09
2.25252e-09
0.000575266
0.130195
2.58354e-06
7.50214e-09
6.7103e-08
0.0358813
1.85082e-08
0.023254
4.70379e-08
0.000104139
7.45621e-09
0.00195925
3.19171e-06
2.81602e-09
7.56995e-07
5.60381e-07
0.00140821
6.27036e-07
2.3683e-08
2.09297e-06
0.00444511
0.0543676
7.25946e-05
0.000614701
0.00107051
4.30388e-08
0.00133195
1.03337e-05
3.39669e-07
3.19694e-06
0.000215964
2.24653e-05
1.17736e-07
9.55587e-06
0.000151186
1.00911e-07
1.37805e-06
7.53211e-07
1.65583e-05
0.0734588
1.31844e-09
8.98725e-07
0.0611936
0.000121935
7.7771e-05
5.84085e-09
9.00178e-07
2.55649e-08
1.13937e-06
2.76439e-05
5.3356e-05
5.53577e-07
3.00713e-05
2.76523e-05
8.32097e-05
1.69486e-05
7.08953e-09
3.83488e-06
1.67518e-09
5.02332e-07
6.73011e-05
0.00018719
3.15722e-08
5.09777e-07
4.59124e-06
1.60938e-10
4.79934e-05
4.46774e-07
7.3303e-05
0.000841831
7.55524e-05
1.48943e-08
0.00139401
0.000119425
6.32495e-05
0.000159457
4.66822e-08
0.000164358
2.56871e-06
0.117527
3.51133e-05
9.7849e-05
6.24875e-08
6.57087e-10
2.3335e-08
0.187002
0.0751681
4.47307e-05
6.75654e-10
0.000140621
3.00626e-08
0.173747
0.000161684
7.63679e-07
9.25222e-08
3.41948e-06
6.18075e-07
9.02096e-05
2.12916e-06
0.000123622
0.313586
4.19739e-06
7.22967e-05
3.38825e-05
6.98056e-05
5.22283e-05
3.24438e-08
3.54407e-10
2.84873e-06
3.68183e-05
8.21475e-09
2.01903e-07
0.000610292
4.59389e-07
1.43645e-06
0.423816
1.76568e-06
6.88118e-05
4.0452e-10
3.33874e-06
2.6726e-07
0.331946
3.0232e-09
0.119414
0.00553971
0.000138076
1.72623e-05
1.57974e-05
0.000949122
2.57492e-06
3.35815e-06
2.317e-06
1.03224e-06
6.19924e-08
1.87148e-06
8.60859e-05
2.40392e-06
0.0710378
2.76792e-07
4.35079e-06
0.000308895
2.07487e-09
0.000385598
8.59847e-08
3.97561e-05
0.000832359
6.86223e-08
2.13105e-06
7.06361e-05
5.51147e-07
9.425e-06
0.182671
8.21701e-07
9.94709e-06
1.93175e-10
0.0468622
9.01491e-06
1.93739e-07
1.93697e-07
4.95863e-06
7.31329e-06
9.71781e-09
0.152488
1.493e-06
2.1209e-09
0.000125544
4.14533e-07
2.50118e-09
4.58158e-05
0.00102305
0.000886289
7.82895e-09
1.12295e-06
4.65627e-08
4.91121e-05
5.07453e-05
0.0343502
6.27312e-06
0.000935649
6.79358e-05
0.00117714
3.09474e-05
3.53468e-06
1.08563e-06
4.84254e-07
5.12397e-05
2.09741e-06
7.41919e-06
0.0440788
0.00025254
0.0482266
1.27366e-09
7.96619e-06
1.19436e-07
6.07206e-05
0.000102548
1.1863e-05
4.91849e-05
0.000540941
0.00015158
7.54517e-10
0.00721148
0.00842746
8.69344e-05
4.7551e-05
8.4799e-07
0.000860867
1.68707e-06
2.85796e-06
1.37998e-07
5.59011e-09
0.000253636
9.78837e-06
0.00101037
6.65252e-07
0.0477005
0.000673129
7.22348e-07
1.37365e-07
0.000581223
2.92031e-06
0.0557537
0.282158
0.000131843
0.000237845
1.65769e-06
5.28617e-07
2.09906e-08
1.41663e-08
6.27537e-05
5.04038e-06
0.0351344
0.055174
3.17566e-05
3.20691e-08
0.0003244
0.0419332
2.76835e-05
0.00115993
0.00261465
0.0443784
0.122403
0.0516226
0.000122358
1.15067e-09
0.00204266
6.66119e-07
1.64562e-07
1.95187e-07
7.3881e-09
2.88246e-05
4.1683e-09
2.14098e-09
9.22244e-05
4.94577e-08
6.70242e-09
9.57716e-07
5.55157e-07
0.0603158
6.50751e-06
3.08695e-05
0.0778719
0.263575
5.96834e-09
0.188775
0.000162294
0.392501
3.73515e-07
1.09478e-07
6.83972e-08
4.49217e-05
0.263399
1.72382e-09
0.00118841
7.36085e-08
4.0047e-06
1.63734e-05
7.8033e-06
1.11496e-06
2.42187e-07
0.0792661
9.90075e-09
7.2081e-06
1.21439e-07
9.26222e-07
1.76765e-06
0.000460807
0.000121607
1.16669e-06
0.000391402
2.1762e-05
4.25133e-07
0.000142909
7.52038e-07
2.54284e-05
1.43272e-07
1.2993e-07
0.255755
0.0447574
0.000400164
3.32914e-07
6.50525e-09
4.49721e-06
0.195473
2.50335e-07
1.16762e-05
5.63224e-07
2.95789e-06
2.48741e-09
0.0365482
0.000111989
7.61913e-07
6.2159e-07
1.77812e-05
8.06757e-09
0.181166
1.11272e-09
0.0405947
7.98896e-05
4.96987e-06
1.48087e-08
3.37001e-06
1.33555e-06
1.03202e-06
3.73559e-06
5.16288e-06
3.02334e-10
4.64046e-09
9.64097e-05
0.0822089
2.35689e-09
3.44605e-05
5.21747e-06
9.86963e-05
3.92131e-07
0.0493636
2.34353e-06
5.15983e-05
5.55516e-05
6.1209e-08
5.89924e-05
1.98437e-06
1.72965e-05
2.87499e-08
2.71988e-08
1.0807e-05
6.25409e-09
0.000184552
4.05506e-05
2.95563e-08
8.25409e-08
0.000136628
0.000550417
0.307066
1.18102e-07
4.94659e-06
1.84649e-06
0.000371927
0.000172024
2.73774e-05
8.39248e-05
0.0807948
3.5278e-06
5.51949e-05
0.000837611
0.0682359
7.08305e-07
5.02153e-08
0.000427621
2.93839e-06
0.0424949
1.91403e-07
6.98007e-06
3.52583e-06
1.44863e-08
0.232301
9.52415e-09
1.70648e-07
6.36722e-07
2.75063e-05
0.31092
0.0586715
4.77112e-07
2.45702e-08
1.82308e-09
1.11683e-07
1.09455e-07
6.62043e-07
1.21391e-07
6.63295e-09
6.40692e-08
1.17942e-08
1.84924e-07
0.0643441
0.0381571
2.91339e-09
1.38396e-05
7.92072e-09
7.84196e-08
1.33084e-08
0.0374019
0.0824412
5.66524e-06
3.8928e-08
1.32173e-08
8.38642e-07
1.29308e-06
4.09246e-06
1.37183e-07
0.000333547
2.69205e-07
3.13553e-06
3.5901e-06
0.000189251
5.36445e-06
0.000807599
1.80038e-06
3.15772e-08
0.000494922
0.000450522
1.83985e-08
2.30403e-05
4.05018e-06
1.38456e-05
4.36729e-05
1.05499e-05
3.74685e-06
1.12922e-07
0.332662
5.03251e-07
4.06677e-05
0.064374
0.00012025
1.22344e-05
1.4974e-05
1.68136e-06
2.38371e-06
2.29153e-05
6.73697e-05
5.77571e-05
3.37644e-06
4.56965e-05
7.71354e-06
3.94008e-06
2.23623e-06
5.60115e-09
6.25354e-08
4.76331e-08
6.71106e-10
1.78521e-07
3.3686e-08
7.48653e-06
1.91814e-08
3.1779e-09
1.84226e-07
1.73443e-05
4.48679e-09
9.86058e-09
8.23702e-07
1.12608e-06
1.01569e-06
8.7849e-05
6.57591e-06
0.248177
1.24773e-07
1.15805e-05
1.55578e-05
4.25426e-06
4.33553e-09
1.84429e-08
0.225377
5.62311e-07
5.95925e-09
2.37005e-06
0.226499
1.73687e-06
5.93401e-05
5.91833e-05
1.1007e-06
7.70694e-06
9.02175e-06
0.000389002
1.96549e-08
4.40453e-05
4.97183e-06
1.91674e-07
0.000329184
0.000399215
0.19738
6.79018e-06
1.3776e-06
7.41331e-06
3.86362e-05
1.6205e-05
1.93121e-07
0.00262083
1.19567e-08
0.000641521
0.000416585
0.0611071
1.00548e-05
0.259209
3.13468e-08
1.54825e-07
5.1635e-06
2.51041e-05
7.45507e-05
3.26757e-06
0.000117846
3.6052e-08
9.82816e-06
1.11623e-09
2.02099e-08
1.63532e-06
0.000493752
1.01365e-07
5.16012e-09
0.000423187
2.12193e-07
0.000551548
3.47956e-06
2.03214e-06
1.50361e-06
4.53546e-07
2.00942e-05
4.60042e-06
0.000205857
6.43699e-07
8.29329e-06
0.00331311
1.21977e-06
7.31703e-09
0.000158169
2.23439e-06
4.06383e-05
5.01373e-09
0.144469
0.000117568
7.18282e-05
1.79001e-06
7.32636e-09
0.00019671
4.71574e-06
2.46875e-07
7.86065e-10
6.62316e-05
7.19864e-05
8.06347e-05
0.196825
2.94273e-06
6.11633e-06
0.000247304
1.01373e-05
7.12288e-06
2.71519e-06
8.41303e-05
3.6424e-06
0.000120546
0.184249
1.5077e-05
5.44139e-10
1.7097e-06
5.31454e-05
1.50719e-05
2.72752e-07
0.000460817
0.00087381
0.000486896
0.000880389
1.744e-05
5.28729e-05
7.21272e-06
2.04419e-05
1.11161e-07
1.07326e-08
0.102374
0.000510235
2.84409e-06
0.00166645
5.1509e-06
2.47489e-05
0.000434751
4.32497e-06
2.26018e-06
3.23168e-06
4.0866e-07
4.22852e-05
3.0144e-05
0.00015307
2.86036e-05
5.64934e-07
6.44604e-09
2.82018e-05
9.93649e-07
2.04843e-08
0.00031264
3.03703e-06
8.04897e-06
3.82978e-05
7.54484e-06
4.05824e-08
0.00060073
0.139012
4.79442e-08
5.57872e-09
2.11814e-08
0.144946
0.247365
4.31343e-07
0.0533415
5.39959e-06
2.04232e-05
8.00585e-06
8.39154e-06
1.18541e-05
1.39242e-05
2.99446e-05
0.118378
0.340858
0.39321
1.20352e-05
3.20574e-05
6.78057e-06
7.42885e-06
0.361839
1.40728e-08
0.175543
4.06672e-06
1.10762e-08
7.35611e-07
5.89043e-07
2.93106e-08
3.7516e-08
2.29712e-07
1.7538e-08
0.137291
5.14048e-08
2.91078e-05
0.000196878
2.29728e-08
4.523e-06
7.3436e-06
6.40701e-06
6.52953e-08
0.000587124
6.45489e-06
8.61904e-07
6.91165e-05
4.24694e-06
3.07397e-05
4.67911e-06
1.20011e-06
5.33303e-07
2.01884e-05
0.00333859
4.7688e-05
9.04408e-07
1.35015e-05
8.35231e-07
2.53992e-05
0.000100493
1.19149e-05
2.22711e-06
5.43401e-06
1.15411e-06
5.78853e-05
1.24083e-07
8.17978e-06
0.0412206
0.000426124
0.329237
0.000775538
0.000114674
1.70286e-08
0.0615563
1.19992e-09
4.96395e-05
1.56048e-05
8.25829e-07
8.77311e-05
1.65864e-06
9.16701e-07
4.47953e-05
7.9992e-07
2.08811e-07
1.97611e-05
6.54831e-07
2.25488e-05
0.0790454
3.56121e-07
3.80119e-05
1.38873e-06
8.06976e-07
6.44343e-10
0.000261726
9.1501e-05
3.70881e-06
1.40584e-08
7.00983e-07
0.0443981
0.000212577
9.86429e-06
1.50198e-05
1.69904e-09
8.29996e-11
9.34169e-07
4.17674e-09
4.92546e-05
3.56209e-07
2.17518e-05
1.67257e-06
1.99016e-07
6.025e-07
3.12569e-08
4.80159e-05
9.06047e-05
4.41241e-05
5.15644e-07
2.88502e-08
9.82045e-07
2.30594e-06
0.000536815
9.913e-07
0.162127
2.1882e-05
2.91255e-08
4.13363e-08
0.000231323
1.29032e-05
0.00114419
5.44115e-07
9.89534e-05
0.234515
4.1787e-10
0.000334467
2.70149e-05
0.0425343
1.76537e-06
0.0475025
0.0830837
0.000119985
7.69348e-06
2.0181e-05
1.1305e-08
1.6033e-05
2.71122e-05
0.000379086
1.92601e-05
6.95494e-06
2.61095e-05
0.000431187
0.000346781
0.000515776
0.000130735
1.69283e-08
8.97896e-05
0.000891551
6.28667e-06
3.89676e-06
0.000250497
0.00021448
1.38448e-05
1.87843e-05
0.000266336
1.57673e-05
0.000380411
0.000249844
1.94883e-05
2.48644e-08
3.49497e-05
0.00042067
0.0668824
2.13393e-06
5.20918e-07
4.93134e-05
1.85655e-07
8.53292e-05
8.39183e-07
0.000397728
5.83617e-07
7.04483e-05
2.51178e-08
9.9162e-08
1.10864e-05
0.000923027
0.00120578
0.33915
4.18347e-05
2.04614e-06
2.10816e-07
0.000409861
2.32015e-05
0.033852
0.0704274
4.15978e-10
0.000787321
6.46897e-05
6.78025e-06
5.66397e-09
0.00114792
5.70436e-07
0.0427525
4.97228e-08
4.87224e-09
3.02035e-05
1.14656e-06
1.32313e-06
3.72182e-05
0.0395516
2.04307e-05
2.39307e-07
8.41761e-05
0.219276
0.0432536
6.79559e-06
0.000284894
3.04112e-05
0.000579934
3.03067e-06
0.0374086
3.863e-05
0.00018709
2.43395e-07
8.86783e-07
4.71891e-06
5.22261e-07
2.43257e-05
2.32387e-06
7.69942e-07
2.5393e-06
4.15275e-06
0.000101434
2.46319e-08
3.60634e-07
0.0806257
9.69775e-09
7.73722e-08
4.34031e-05
6.3436e-08
0.000186039
3.56111e-05
0.065907
2.35397e-05
0.26143
1.28642e-05
2.16128e-05
0.0399211
0.000159826
2.53083e-10
1.97719e-06
0.0279841
1.56972e-05
7.89161e-05
1.68956e-05
1.66102e-07
7.06754e-06
7.48682e-06
8.51128e-07
0.127601
1.09616e-06
1.02769e-07
1.77626e-06
6.6089e-07
1.51585e-08
8.72161e-05
2.48266e-06
0.274396
8.19171e-05
3.52117e-05
4.63274e-05
5.86345e-05
1.67617e-05
2.97703e-06
1.41858e-10
8.99161e-07
7.40032e-05
2.15394e-05
6.53664e-06
6.92377e-08
1.13374e-05
1.26688e-06
4.01745e-05
3.21642e-08
1.36908e-07
1.22894e-06
2.8662e-05
2.1966e-05
3.31103e-05
2.92351e-08
2.26316e-08
0.00164895
2.23221e-08
1.44304e-09
2.80747e-09
1.46543e-06
0.308951
9.43662e-07
0.000115945
6.91578e-05
2.10965e-05
1.78716e-07
1.2509e-06
0.000226132
7.38401e-06
3.70397e-07
3.75118e-05
4.05084e-09
2.91656e-09
4.09904e-09
9.91207e-05
1.10517e-07
0.32907
0.000527029
3.54232e-05
0.00183989
6.84019e-07
1.71297e-05
2.48135e-09
0.0592807
8.29333e-06
6.19758e-06
1.55192e-06
4.11733e-07
1.61737e-07
0.481458
1.68333e-05
0.000437057
6.59687e-05
1.38045e-06
0.122494
3.16802e-07
3.20313e-07
4.99548e-07
7.25385e-07
3.51117e-05
5.01901e-07
2.44914e-05
1.81476e-05
0.000502354
3.62342e-06
5.51681e-10
0.000190216
3.82823e-07
0.156845
3.45748e-06
2.40841e-07
1.25421e-06
1.8937e-05
0.0606438
0.0297507
1.83731e-05
4.84509e-05
0.0905563
3.56401e-06
2.55936e-05
0.0473598
1.26504e-05
5.92496e-06
0.173244
0.0186432
1.04662e-05
3.33267e-05
1.53341e-08
3.86902e-05
0.00172855
1.03635e-05
1.13614e-05
0.000380746
1.30228e-09
0.0231239
1.02934e-08
2.88934e-05
0.19432
1.22435e-07
1.22376e-05
4.61934e-06
3.74613e-07
3.92657e-08
4.81961e-05
4.17384e-07
1.15655e-07
3.16757e-05
9.72028e-06
1.40675e-08
0.0232784
0.0440785
5.04584e-06
2.71155e-10
1.91336e-09
0.000143768
1.41455e-05
5.40955e-06
3.34626e-09
1.00062e-07
0.000133114
6.96691e-05
4.75841e-05
8.33785e-05
0.363443
1.45456e-09
0.140828
1.76526e-05
6.46266e-06
0.0562424
1.08566e-06
2.10741e-08
0.0228064
7.42843e-10
6.83001e-06
6.45695e-06
7.30815e-06
1.1018e-06
9.26892e-09
3.93829e-09
1.62413e-08
2.03832e-05
0.134078
0.21235
3.14164e-05
2.55027e-06
1.76003e-10
0.0557447
0.225567
0.000279008
1.04107e-06
1.36899e-07
0.000968257
0.000247458
2.39442e-07
1.32395e-08
2.19199e-06
8.00669e-06
3.70279e-08
1.10733e-05
6.97844e-05
0.0599487
0.204396
5.62178e-05
0.000848057
1.00918e-08
3.73616e-07
3.28945e-05
0.00017976
3.37709e-05
0.000427597
8.26101e-06
1.51538e-05
5.36233e-09
8.64061e-08
1.26563e-05
0.0582429
1.15475e-06
0.177811
1.97856e-08
1.21844e-05
2.44818e-06
1.65207e-05
1.06323e-08
1.26196e-09
1.1025e-07
3.54657e-08
1.21842e-06
0.000328073
1.01806e-08
0.0373098
1.79233e-05
0.15926
1.95332e-06
3.01643e-06
1.65247e-06
2.06351e-06
1.33419e-05
3.06391e-08
2.38325e-08
1.32414e-08
3.34306e-06
9.55856e-06
0.058245
0.056382
5.26952e-06
1.0129e-06
5.95958e-09
2.40802e-09
2.47316e-08
1.72272e-06
0.000250247
2.02546e-07
3.65028e-08
3.57223e-09
0.0219319
2.66518e-05
4.47106e-05
0.0403651
8.74882e-07
0.310793
9.81023e-06
4.39652e-07
4.26046e-10
2.5922e-07
0.0534451
9.74123e-10
2.36765e-05
2.24649e-08
0.000704524
4.50171e-05
8.459e-05
0.000145911
2.93844e-05
4.05044e-09
1.55541e-08
0.359133
3.29611e-05
3.51247e-05
0.000234848
4.22241e-07
8.60547e-05
9.59826e-05
3.01146e-06
3.29881e-06
0.000304361
8.25644e-08
0.000718945
0.0391439
1.42503e-06
2.0625e-07
8.32982e-05
9.06339e-07
0.0340688
0.182113
2.17571e-05
9.03122e-10
0.00411046
3.4315e-07
1.5625e-05
1.56633e-06
0.000125147
1.12309e-08
0.000880504
8.74342e-05
0.000132032
2.14418e-05
0.000123523
3.06332e-05
5.46135e-06
7.40828e-10
0.000155453
4.76059e-05
5.81773e-05
6.65448e-07
9.65694e-06
0.000121703
0.000454533
9.44063e-09
1.81112e-08
3.48729e-08
3.49502e-10
1.27354e-07
0.0216166
0.000404686
0.000144484
4.07845e-05
0.00020633
8.31327e-05
2.79225e-10
1.16438e-05
7.08191e-09
5.38932e-07
7.7419e-09
2.62583e-05
0.00204142
1.54609e-05
1.1157e-07
1.33046e-08
1.50195e-06
1.22427e-07
6.93839e-09
0.146491
9.22865e-06
0.000675156
0.0010306
0.000728603
9.00921e-09
0.000679279
0.000761284
0.00135062
0.000727305
3.83812e-09
3.85772e-10
3.4539e-06
8.61251e-06
6.83035e-05
0.000321373
0.0424873
8.29639e-06
3.29218e-05
4.47554e-06
0.000558776
3.40429e-08
1.23113e-09
0.000114585
0.000371922
0.0260889
6.50853e-09
0.117927
0.000127188
3.37648e-07
9.4351e-05
4.96708e-06
8.97794e-05
2.29182e-06
9.85816e-05
6.73399e-09
9.62279e-06
0.00217275
3.67235e-05
5.79468e-08
0.00176024
4.48727e-05
1.06165e-05
0.00322611
8.75182e-08
7.68461e-06
5.71647e-05
0.000103505
8.65466e-07
0.193115
5.6522e-08
8.77181e-07
2.74169e-08
0.118048
0.121016
2.06812e-06
1.82493e-06
0.000155234
0.0550576
3.32741e-08
1.10024e-05
2.16111e-05
1.3417e-05
1.28008e-06
0.195375
7.21097e-06
1.64861e-05
0.00364201
1.60616e-07
7.23636e-06
1.73226e-06
2.54465e-06
1.82505e-09
0.0024058
0.00397874
1.08812e-07
7.68982e-07
1.26997e-06
0.000102172
7.60743e-09
0.0397955
2.89824e-07
1.00014e-05
1.0991e-06
5.30612e-07
5.01213e-06
3.37934e-05
1.29736e-06
5.06691e-06
0.000247259
1.59224e-06
1.3486e-06
0.0429955
7.73378e-07
3.37967e-06
2.51154e-06
1.99437e-05
1.89091e-10
5.05175e-09
7.10708e-10
6.02019e-06
5.63027e-08
0.0676984
2.23092e-05
1.2137e-05
3.94744e-09
3.28008e-05
0.117531
7.89973e-05
1.38714e-05
6.19714e-05
1.25542e-05
2.00422e-07
7.87833e-08
2.43735e-05
4.40226e-06
2.72476e-06
0.000545697
9.74431e-06
4.6446e-08
2.99062e-08
2.31495e-06
7.65883e-08
7.02179e-06
4.12408e-08
1.20875e-05
1.63361e-05
1.92094e-07
7.65424e-10
0.0456984
7.12681e-09
2.66665e-09
2.51816e-05
0.0564477
2.06999e-05
2.24939e-06
1.42931e-08
1.01144e-05
5.36162e-06
2.23283e-05
6.00953e-06
7.41721e-09
1.76757e-06
1.58427e-06
5.55414e-06
4.03311e-09
4.97754e-09
4.38496e-09
5.27655e-06
1.70997e-05
9.65118e-07
1.65961e-08
7.58388e-06
5.22542e-05
1.94875e-08
2.49393e-05
4.61461e-07
5.25083e-08
4.42206e-09
3.93924e-05
2.3995e-07
2.06392e-05
1.55439e-09
2.55805e-05
1.03945e-08
1.56932e-06
0.000351222
1.34585e-07
5.51251e-09
0.0688066
2.98099e-08
0.0565823
2.49902e-07
4.61859e-08
9.50648e-06
2.58628e-05
0.0470132
5.90653e-05
0.0499246
0.060653
9.05821e-05
1.14446e-05
0.0403688
1.08646e-05
1.67015e-08
4.27672e-05
0.141173
0.0370083
0.0422051
1.19211e-08
1.01988e-05
1.48195e-08
5.55079e-06
9.90018e-07
7.92655e-06
0.000171885
7.04172e-06
5.30613e-07
1.66685e-08
3.73856e-06
0.0002951
2.39028e-08
1.21134e-05
3.84203e-05
1.97701e-06
9.70386e-10
6.35212e-05
2.6155e-05
2.61385e-05
1.78101e-05
1.66939e-05
2.13929e-06
7.63949e-06
0.000153909
8.71876e-06
6.74311e-06
0.000126057
0.000458005
3.83874e-09
6.29418e-07
2.78954e-08
1.99209e-05
9.06193e-08
2.31286e-06
1.02866e-10
0.000397834
0.391901
0.0890459
0.000150317
4.99296e-09
1.13763e-05
0.0553146
0.102912
2.48796e-06
0.000271694
2.09671e-06
5.58824e-07
1.20873e-07
3.03749e-09
9.43509e-06
4.4963e-05
3.89523e-08
4.24744e-09
1.7841e-05
1.65731e-07
0.176352
0.0539143
1.17306e-05
5.27118e-09
1.15625e-08
0.0420783
5.1023e-09
2.56977e-05
9.70048e-09
0.000614476
2.11737e-08
5.20159e-06
5.15007e-08
6.11352e-09
0.00108242
0.154956
0.0646366
1.45241e-08
0.0689809
4.24525e-08
1.37216e-05
1.63761e-06
0.118057
2.39939e-07
0.000162359
3.94289e-09
1.96968e-06
0.000277909
1.72249e-06
0.000165173
1.0333e-08
1.16636e-05
3.29749e-05
2.06838e-05
5.42679e-06
3.66692e-07
3.32593e-07
3.38553e-06
6.1052e-07
1.0127e-08
3.54198e-09
0.0753699
0.0371614
1.45154e-08
0.0845066
3.26961e-10
2.12508e-08
5.27269e-05
4.8963e-09
4.81569e-09
0.0402262
1.82016e-08
7.08209e-10
0.000649811
2.02289e-09
1.29168e-09
5.06789e-05
0.0929475
1.29028e-07
0.0371338
8.44661e-09
4.67339e-06
0.0503763
6.27942e-06
0.000875875
6.01192e-10
7.2705e-08
1.04567e-06
1.77011e-07
0.20981
0.0456451
0.000109556
3.25753e-08
0.0462882
1.02658e-09
2.04963e-08
1.82997e-09
0.10325
0.00175981
9.25161e-06
1.29015e-09
1.30779e-06
0.048148
0.000910893
3.64594e-07
0.000264093
0.109102
0.0862586
3.53373e-05
0.0853611
0.000925985
0.0426806
4.20788e-05
0.065782
0.000345273
4.62899e-06
1.48274e-06
2.32245e-06
0.00045848
0.000931296
6.94159e-10
3.90968e-06
7.15734e-08
4.64049e-05
7.37198e-06
1.00023e-06
8.11084e-06
0.00029765
1.74602e-07
7.96594e-06
9.18109e-08
2.68341e-08
2.74582e-08
4.49365e-08
5.06573e-06
4.4605e-08
4.87942e-08
7.45017e-08
1.06311e-05
4.3275e-05
2.08165e-10
1.81234e-09
5.5283e-08
1.00877e-07
1.07564e-06
0.00129811
0.00209902
0.000130862
9.85215e-09
3.22801e-05
5.7894e-06
0.0463597
3.2045e-05
1.29187e-05
5.65809e-07
1.1148e-06
2.45903e-06
0.00022291
0.000117018
0.179491
0.0671857
8.2368e-08
0.000829914
0.000296507
1.46169e-08
2.68503e-06
4.62033e-06
3.80738e-08
1.73149e-06
3.95065e-06
0.0621658
1.24102e-09
8.35643e-05
1.41183e-08
0.0488029
5.13088e-05
0.0355101
3.35167e-05
5.11358e-09
6.70912e-09
2.3206e-08
2.50467e-05
2.44465e-05
4.22124e-06
7.25479e-06
9.59183e-07
0.000763763
0.000290385
1.11381e-09
0.00011707
4.84245e-05
5.29491e-05
9.54147e-05
0.00296434
4.05207e-06
0.0991864
4.85682e-08
5.89977e-06
0.0383644
1.30665e-08
0.000260804
0.00714643
4.03111e-08
0.000103063
1.39832e-08
1.85994e-07
2.58472e-06
4.00377e-06
5.32855e-08
8.20464e-09
6.9501e-07
2.5507e-09
6.08955e-09
0.000127075
2.45492e-08
5.63289e-10
2.93966e-05
7.66997e-09
9.79043e-08
2.7006e-07
0.000215389
2.19631e-07
0.000169168
1.0735e-07
4.68937e-08
2.26255e-05
6.60435e-05
0.000231889
0.043229
8.07861e-05
4.29912e-05
2.30017e-06
0.320003
0.311173
1.24826e-07
2.9134e-05
1.78689e-08
0.0458921
0.0380328
0.000405827
0.0904617
0.068507
7.16406e-06
1.10314e-09
0.000116156
1.12854e-08
1.22775e-09
3.97632e-07
1.59887e-05