/*--------------------------------*- C++ -*----------------------------------*\
  =========                 |
  \\      /  F ield         | OpenFOAM: The Open Source CFD Toolbox
   \\    /   O peration     | Website:  https://openfoam.org
    \\  /    A nd           | Version:  10
     \\/     M anipulation  |
\*---------------------------------------------------------------------------*/
FoamFile
{
    format      ascii;
    class       volVectorField;
    location    "45";
    object      U;
}
// * * * * * * * * * * * * * * * * * * * * * * * * * * * * * * * * * * * * * //

dimensions      [0 1 -1 0 0 0 0];

internalField   nonuniform List<vector> 
59698
(
(0.584681 0.00602748 -0.00175178)
(0.564676 -0.00114916 -0.000860458)
(0.56653 -0.000674785 0.00169877)
(0.578778 -0.00342306 -0.00127388)
(0.562906 0.000728075 -0.00290013)
(0.197725 0.198051 -0.00634795)
(0.566924 0.000233973 0.000406011)
(0.564031 0.00086119 -0.000301677)
(0.199879 -0.199527 -0.00042449)
(0.201227 -0.200791 -1.49993e-05)
(0.20037 -0.198722 -0.000624196)
(0.567023 -0.000293775 -0.000403042)
(0.199805 0.200486 -0.00057089)
(0.56161 -0.000759376 -0.000197275)
(0.561981 0.00106609 -0.00253526)
(0.203956 -0.197108 0.00176861)
(0.56469 0.000134116 0.000200869)
(0.566074 -0.00125333 0.000380198)
(0.567648 -0.000501555 0.000302481)
(0.567342 -0.000378275 -7.98853e-05)
(0.142917 -0.100028 -0.0248359)
(0.536054 -0.00147677 -0.00272717)
(0.265131 -0.17303 -0.00738846)
(0.198824 -0.199921 -0.00136793)
(0.570356 0.000708459 0.00103201)
(0.566227 -0.00114897 0.000426973)
(0.566468 -0.000343438 -0.000424734)
(0.55726 -0.000206238 -0.00120434)
(0.570297 0.00129881 0.000868887)
(0.572439 -0.000440985 0.000447852)
(0.548151 -0.000340049 -0.000410275)
(0.198551 -0.198574 -0.000166425)
(0.201141 -0.197953 0.00225372)
(0.55979 0.00126854 -0.000873493)
(0.549133 0.0114415 -0.00748677)
(0.566752 -0.00090916 -0.00038128)
(0.275082 0.0660722 -0.0384139)
(0.539385 0.000755624 0.000200164)
(0.561768 0.000135432 0.000568875)
(0.568194 0.00153331 -0.00277773)
(0.56391 0.00043274 -0.000101173)
(0.1949 0.197809 -0.00173739)
(0.562407 0.00059572 -0.00063413)
(0.563702 0.000446697 0.00010509)
(0.196728 0.199572 -0.000252642)
(0.560929 0.00368135 0.00514521)
(0.567073 -0.000851448 0.00037198)
(0.56158 -0.000323723 0.00148662)
(0.562935 0.000329242 0.000875527)
(0.565364 -0.000696296 0.000223869)
(0.567927 0.000158753 -0.000169209)
(0.566912 -0.000859158 0.000348346)
(0.566554 -8.42503e-05 -0.000778515)
(0.560451 -0.000166346 0.000452015)
(0.572373 0.00293334 0.00105498)
(0.567419 -0.000507445 -0.00013941)
(0.562749 -0.000985198 0.0006017)
(0.524723 -0.00188686 -0.0002106)
(0.564639 -0.000789931 -0.000384659)
(0.268086 0.121352 -0.0186439)
(0.559161 0.00459989 -0.00253114)
(0.564603 0.00135673 0.00052596)
(0.577867 0.0147573 0.00650272)
(0.567591 -0.000551392 0.000381039)
(0.561883 0.000214774 0.000745146)
(0.561415 0.000188179 0.00206434)
(0.199519 -0.199946 -1.23985e-05)
(0.567153 -0.000554068 -0.000630006)
(0.566993 -0.000454788 -0.000633315)
(0.199516 -0.19921 -7.79561e-05)
(0.209544 0.182756 -0.00797861)
(0.565286 -0.000726453 1.66252e-05)
(0.166388 0.11851 -0.0343663)
(0.593661 -0.0105019 0.0191496)
(0.202915 0.203539 -0.000369826)
(0.589655 -0.0251473 0.0206256)
(0.56115 0.000253864 0.000991927)
(0.561048 0.00023488 -0.00163186)
(0.56686 0.000818296 -0.000636034)
(0.571461 0.00150402 0.000136041)
(0.552688 -0.00187894 6.95698e-06)
(0.567921 0.000241483 -0.000121241)
(0.201247 -0.20076 -5.99517e-05)
(0.565109 -0.000729901 0.000597126)
(0.400039 -0.103851 0.0151757)
(0.562809 0.000190789 -9.30994e-05)
(0.563151 -0.00122873 0.00162442)
(0.557741 0.000487473 0.00714438)
(0.562062 0.00133183 0.000991883)
(0.560502 -0.000172204 0.00159739)
(0.199534 -0.199175 -0.000162559)
(0.560434 0.000896676 0.000571934)
(0.560678 -0.000341602 0.00166139)
(0.565884 -0.000350924 0.000412842)
(0.561551 0.00116801 0.000990166)
(0.563538 -0.00368114 0.00128396)
(0.55869 0.000663008 0.00126638)
(0.562273 0.000486031 0.000548279)
(0.559316 0.000623416 0.00126756)
(0.199679 0.200038 -3.4387e-06)
(0.556502 0.00150181 0.000866376)
(0.567557 0.00518261 0.00631429)
(0.563084 -3.02226e-05 0.000172097)
(0.563137 -0.00161666 -0.00445469)
(0.567126 -0.000547438 0.000801148)
(0.198838 0.198575 0.000131066)
(0.565435 -0.000999218 0.000598022)
(0.567246 -0.000348558 -0.00041472)
(0.20075 -0.200887 -6.96995e-05)
(0.199793 0.199689 -0.000370504)
(0.566334 -0.000770616 -0.00038144)
(0.570379 -0.0104311 -4.38955e-05)
(0.561804 0.00142752 0.00160428)
(0.200897 0.198779 -0.000337772)
(0.561029 -0.00018016 0.000271936)
(0.567398 -3.61175e-05 0.000155827)
(0.567107 0.00134123 -0.00136239)
(0.565119 0.00305823 0.000757299)
(0.56363 -0.000858949 0.00207807)
(0.200913 -0.20044 0.000441001)
(0.565609 -7.21842e-05 -2.55859e-05)
(0.558257 -0.00636771 -0.00377143)
(0.563079 -0.00503649 0.00579176)
(0.564499 -7.35246e-05 0.000126983)
(0.564034 0.000121075 0.000207058)
(0.565996 -0.000321398 -0.000131081)
(0.56594 -8.71102e-05 -0.000521373)
(0.199564 -0.199511 0.000482775)
(0.562014 -0.000623269 -0.000186097)
(0.567499 0.000316502 -0.00199417)
(0.567298 0.000381149 0.000595863)
(0.56718 -0.000181041 -0.00107721)
(0.201401 -0.200547 -1.33787e-05)
(0.579362 0.00691171 0.000447559)
(0.572749 -0.000118852 0.000177548)
(0.568495 -0.000183448 -0.00018451)
(0.569763 0.00383236 -0.00108972)
(0.201031 -0.200688 0.000298976)
(0.567432 -0.000343679 -0.0002687)
(0.568543 -1.41103e-05 -0.000357798)
(0.565296 -0.000271325 0.000875706)
(0.562627 0.00317368 -0.00101883)
(0.566082 -0.00085005 -0.000466255)
(0.567399 -0.000329782 -0.000306773)
(0.565992 0.00220385 -0.00045409)
(0.567425 -0.000274018 2.16527e-05)
(0.56361 -0.00395888 0.000304892)
(0.566462 -0.00372935 -0.000529871)
(0.562371 0.000378357 0.000905295)
(0.552268 -0.000198363 0.00015331)
(0.408608 0.14414 0.073109)
(0.2002 -0.199654 0.000118819)
(0.562159 -0.000111254 5.17702e-05)
(0.556653 -0.00217659 -0.00379725)
(0.563047 -0.000259076 -0.000140921)
(0.560675 0.000198352 -0.000465383)
(0.56649 -0.00104936 -0.000259037)
(0.55886 -0.000963743 0.00305799)
(0.56353 -0.000298895 -0.00033405)
(0.199709 0.199542 -0.000108009)
(0.564909 9.33712e-05 0.000162679)
(0.562818 -0.000380047 0.000250051)
(0.567881 -0.000581499 -0.000251683)
(0.554679 0.00186172 -0.00109986)
(0.562802 -0.000546729 -0.000186392)
(0.566784 -6.00761e-05 -0.000224524)
(0.567037 -0.000204254 -0.000678448)
(0.412493 0.0871902 0.00638527)
(0.554755 -0.000544749 -0.000366343)
(0.56703 -0.000131716 -0.000503997)
(0.5593 0.00179006 -0.00254117)
(0.210979 0.173702 0.000617328)
(0.553117 0.00140551 -0.00216868)
(0.552626 0.00129312 -0.00206359)
(0.578324 0.00135802 -0.0055028)
(0.562489 0.000266366 0.000357573)
(0.199576 -0.19891 0.000795694)
(0.53841 0.00494444 0.00306587)
(0.198958 -0.197825 -0.00579115)
(0.561926 0.000559666 -0.000468892)
(0.51048 -0.00192141 0.00517106)
(0.548313 -0.00055573 -0.000470568)
(0.562607 0.000371063 -0.000971342)
(0.565427 9.19377e-06 -0.000259814)
(0.564688 0.000611289 -0.000849747)
(0.543609 -0.000259912 -0.000240658)
(0.543465 5.62694e-05 -0.000873607)
(0.55956 0.00373367 0.00123064)
(0.566617 -5.30043e-05 0.000159702)
(0.563912 0.00151686 0.000716305)
(0.561586 0.000224417 0.00071595)
(0.562579 -0.000319278 0.000622784)
(0.562859 0.000570544 0.000519528)
(0.561912 -0.000340786 -0.000475189)
(0.554529 0.000256558 -0.000412766)
(0.557271 0.00326553 0.000781271)
(0.576637 0.00583093 -0.0137785)
(0.575725 0.00367901 -0.00215694)
(0.152196 -0.143962 -0.0194622)
(0.554173 -0.000545562 0.000133044)
(0.20304 0.205888 0.00272385)
(0.545968 0.000565086 0.000882064)
(0.573211 0.000307005 0.000281587)
(0.566604 -0.000367793 -0.000483769)
(0.552807 0.000936064 0.00116125)
(0.566783 0.000158505 0.000160069)
(0.56388 0.000363743 -0.000731684)
(0.557128 -0.00209005 0.00126306)
(0.554551 0.01149 0.000466941)
(0.562264 0.000283629 -0.00015956)
(0.566008 0.000201075 0.000204358)
(0.564898 0.000212158 0.00047183)
(0.55474 0.000455089 0.00224154)
(0.199002 -0.197043 -0.00110203)
(0.565287 -0.000277247 -0.000192686)
(0.56011 0.000612381 -0.000139633)
(0.566191 -0.00077064 5.40278e-05)
(0.560995 -0.00061912 -0.00185825)
(0.561507 -0.000683245 -0.000145439)
(0.564915 0.000505139 -0.000592793)
(0.582165 0.0244016 0.022793)
(0.563813 -0.000268961 0.000350689)
(0.565019 4.46095e-05 0.000105715)
(0.55696 0.000913442 0.00283997)
(0.565111 -0.000389213 -0.000242046)
(0.553644 0.00258301 0.00290849)
(0.564368 5.80307e-05 -7.87145e-05)
(0.566048 0.000581908 -0.000490788)
(0.577951 0.00278492 -0.000863536)
(0.593469 0.0124299 0.00963093)
(0.199023 0.198602 -0.000392163)
(0.563343 1.71437e-05 0.000449146)
(0.565716 0.000397605 8.70486e-05)
(0.564468 0.000130088 -0.000365486)
(0.563566 -0.000545519 0.00048495)
(0.567914 -0.000487526 -2.47482e-05)
(0.564985 0.00158588 0.00151498)
(0.564059 0.000336099 0.000180753)
(0.558601 0.00137084 0.00348369)
(0.562147 -0.000909055 0.000486672)
(0.564797 -0.000221092 -8.02646e-05)
(0.563772 -0.0012139 -0.000492403)
(0.570476 6.80617e-05 -5.95652e-05)
(0.197427 -0.19788 0.00334428)
(0.566673 -0.000286621 -5.67758e-05)
(0.564153 0.000287711 0.00389297)
(0.582509 0.0053148 0.0162028)
(0.591502 -0.00698678 0.0129158)
(0.56626 2.9303e-05 0.000155762)
(0.567026 -0.000812831 0.000427891)
(0.56135 0.00105789 0.00401215)
(0.562572 -0.000458935 0.000417904)
(0.563397 0.0010145 0.000867761)
(0.198218 -0.193517 0.00312068)
(0.566488 -0.00138411 -0.000107594)
(0.56334 0.000336994 0.000428081)
(0.560513 0.00209533 0.000595221)
(0.561255 -0.000669496 0.000598382)
(0.566146 -0.000472987 -0.000123402)
(0.564985 -0.000163166 -3.45831e-05)
(0.201632 -0.109198 -0.00116344)
(0.200407 0.200054 0.000140246)
(0.563534 -0.000937807 0.000581035)
(0.559884 0.0005735 -0.00116728)
(0.558101 -0.00148644 0.00229682)
(0.586931 0.0074893 0.00247696)
(0.565403 4.43707e-05 -4.75187e-05)
(0.196918 -0.198441 -0.00166462)
(0.565464 -0.0011773 0.000408193)
(0.564897 -0.000180127 -0.000147668)
(0.566658 -0.000972327 -9.64836e-05)
(0.563112 -0.00121174 -0.000680732)
(0.54588 -0.118168 0.0771575)
(0.564765 -0.000122379 -0.000240474)
(0.564968 -0.000235403 8.25987e-05)
(0.557602 0.000376627 0.00140931)
(0.564887 -0.00164608 -0.00373938)
(0.564272 -0.0006188 0.00149923)
(0.570072 0.000267143 0.000194354)
(0.200812 -0.200142 0.000138583)
(0.19599 -0.195355 0.00168593)
(0.56749 4.27027e-06 -3.14168e-05)
(0.567046 -0.000886894 0.000492729)
(0.581557 0.00209346 0.00128575)
(0.587026 0.00645906 0.000905619)
(0.577928 -0.00122394 0.00144245)
(0.566051 -0.000288281 -0.000688857)
(0.299263 -0.213273 -0.0187839)
(0.574269 0.00146767 0.000569764)
(0.563448 0.00228372 0.00299789)
(0.586213 0.0176985 0.000933916)
(0.567503 0.000349838 0.000313636)
(0.565285 -0.000872244 0.000547794)
(0.567015 -0.000997009 0.000156149)
(0.569846 -0.00107922 0.000810661)
(0.56056 -0.00148609 0.000699124)
(0.568322 -0.00025845 -0.000622484)
(0.568036 0.00156304 -0.000591188)
(0.565014 -1.25537e-05 -0.00014354)
(0.562968 0.00120165 0.00365912)
(0.566217 0.00163806 -6.31109e-05)
(0.198726 0.198915 -0.000101184)
(0.195968 0.197806 0.00149908)
(0.567161 -0.000165145 -0.00040356)
(0.56726 -0.000469013 -0.000169499)
(0.567057 -0.000201232 -0.000279116)
(0.569094 0.000263436 -0.00144409)
(0.560491 -0.00111519 -0.000320072)
(0.562295 -0.000376833 0.000261082)
(0.567302 -0.000128023 -0.000236645)
(0.565219 7.28965e-05 0.00015209)
(0.563365 -0.00203296 0.000539617)
(0.565978 0.000307738 0.000214395)
(0.200736 0.200934 0.00131612)
(0.561462 -0.00328136 0.0016955)
(0.566939 0.000685219 -0.000107908)
(0.202035 0.202597 -0.000457635)
(0.56674 -0.000207485 0.000183627)
(0.195215 0.197029 -0.00207467)
(0.565275 0.0024921 -0.00204059)
(0.562547 0.00303612 -0.00304889)
(0.594672 -0.00967363 0.0180242)
(0.564568 -0.000554427 8.3015e-05)
(0.199744 -0.1994 0.000617957)
(0.600348 -0.0125956 0.0181734)
(0.555752 -0.000180153 0.000652827)
(0.564256 -6.41284e-06 -0.000331048)
(0.566693 -0.000327894 0.000456053)
(0.567174 0.000540025 -0.000202577)
(0.199172 0.199228 -0.000186407)
(0.548379 -0.000137027 -0.00207516)
(0.56406 -0.000934043 0.000321062)
(0.558939 0.000254782 -0.000684964)
(0.582595 -0.0107135 0.0168419)
(0.199616 -0.199995 -0.000181878)
(0.567463 0.000535309 0.000618787)
(0.562774 -0.000626725 0.000171059)
(0.566406 -6.3505e-05 0.000227736)
(0.557071 -0.00123792 -0.000444784)
(0.567954 0.000261904 -0.000132728)
(0.563846 0.00124818 0.000965855)
(0.566784 0.00258816 -0.00169184)
(0.564936 -0.000401395 0.000211942)
(0.565439 6.96134e-05 3.17327e-05)
(0.557789 0.000824909 -0.00117813)
(0.564916 -0.000176031 -0.00013236)
(0.564366 0.000209339 -7.07253e-05)
(0.541009 0.00128442 -0.00110987)
(0.562786 5.09178e-05 -0.000219484)
(0.56278 0.000132874 0.000268656)
(0.567644 0.000155867 0.000117875)
(0.561991 -0.00102982 0.00066679)
(0.569806 -0.00321887 -0.000952943)
(0.199482 -0.199202 -0.000145715)
(0.590183 0.00288982 0.00631902)
(0.546873 0.000622807 -0.000832048)
(0.554112 0.00248935 -0.00692105)
(0.564789 -0.000157178 0.000127333)
(0.562238 0.000390121 0.000732987)
(0.199411 -0.199035 2.96916e-05)
(0.566519 0.00109335 -0.000558781)
(0.559162 -0.000278542 0.000661046)
(0.203241 -0.194651 0.00034657)
(0.565664 -5.76087e-05 0.000275578)
(0.199993 0.200037 -5.3027e-05)
(0.196477 0.201286 0.000519355)
(0.56325 -4.39826e-05 8.5554e-05)
(0.564627 -0.00068213 0.00118866)
(0.564549 -0.000398294 0.000174789)
(0.490991 -0.00575782 0.00284595)
(0.567831 0.000253417 0.000291297)
(0.197991 0.198557 0.000297445)
(0.566016 0.000188234 -0.000321231)
(0.197308 0.199024 0.00130143)
(0.562913 9.61474e-05 -0.000552761)
(0.200086 -0.200256 -1.28512e-05)
(0.564374 -0.000383912 0.000377739)
(0.565286 0.000222848 6.52159e-06)
(0.198896 0.198358 -1.1822e-05)
(0.199021 -0.199213 0.000129753)
(0.201361 0.198084 -0.00338403)
(0.563051 -7.63244e-05 -0.000268589)
(0.5659 0.00135516 0.000394846)
(0.560207 0.000769412 -0.000373399)
(0.566716 -0.000255215 -3.53983e-06)
(0.277658 0.142112 -0.00519153)
(0.563266 -0.000403676 0.000953316)
(0.199301 0.199501 2.96882e-05)
(0.19958 0.200005 -5.74161e-05)
(0.56499 0.00259975 0.000933924)
(0.560064 -0.000458259 5.35745e-05)
(0.199365 -0.196652 0.000739792)
(0.563766 0.000313893 0.00116749)
(0.574315 0.000293454 4.37167e-06)
(0.379672 -0.147351 0.0156017)
(0.526832 -0.001584 -0.000297435)
(0.551632 0.0162861 -0.0118353)
(0.562482 0.00264145 0.00162689)
(0.561069 -0.000267264 -0.00249566)
(0.563479 -0.00168168 0.00130253)
(0.562487 0.000486517 -0.000513273)
(0.563747 0.00012424 -0.000176955)
(0.564993 -1.78883e-05 -0.000433009)
(0.564696 -0.000537723 -0.000536613)
(0.553189 -0.00289721 -0.000623489)
(0.560772 0.00448627 0.000720648)
(0.575908 0.00417699 -0.00282864)
(0.581582 0.00297829 -0.00078069)
(0.564371 0.000354141 -0.00136013)
(0.5307 0.000394168 -0.0029665)
(0.571561 0.00234715 -0.00161293)
(0.198921 -0.199129 1.68117e-06)
(0.560192 0.000616803 -0.00129651)
(0.199602 -0.199555 0.000197019)
(0.561436 -4.97237e-05 0.000220278)
(0.584033 0.00161538 0.00228815)
(0.56712 1.57441e-05 -0.000125545)
(0.567524 -0.0275043 0.0128263)
(0.532925 -0.00247514 0.000857528)
(0.535151 0.000175788 -0.00645808)
(0.561621 -0.000528882 0.000228215)
(0.563025 -0.000252256 0.000704543)
(0.563948 0.00123521 0.00237129)
(0.588045 0.0131645 0.012164)
(0.563713 -3.31396e-05 8.17532e-05)
(0.564001 -0.000237516 0.000164979)
(0.200006 -0.199862 0.000344482)
(0.561635 -6.05425e-05 -0.000231106)
(0.558118 -0.00163328 1.7302e-05)
(0.199438 0.199209 -4.05109e-05)
(0.564301 -0.00147033 0.000767993)
(0.57547 0.0181582 0.00853358)
(0.572345 -0.00464661 0.00663796)
(0.565002 8.00094e-05 -0.00135466)
(0.561293 -0.000256053 0.00149613)
(0.200489 -0.200427 -0.000909853)
(0.205316 -0.202252 0.000308864)
(0.574089 0.00544922 -0.00227239)
(0.565869 -0.000369989 -0.000495069)
(0.563244 -0.00103033 -0.0040241)
(0.202961 0.200382 -0.00178362)
(0.565229 -0.000609163 -0.000407241)
(0.200616 -0.199906 0.000296717)
(0.562063 -0.000423434 -0.00020387)
(0.563721 -0.000805385 -0.0010092)
(0.51657 -0.0074133 -0.00330304)
(0.58071 -0.00170143 0.00291135)
(0.200022 0.199741 -4.22845e-05)
(0.565383 -0.00104658 0.000613029)
(0.55407 -0.000110921 0.000307429)
(0.562397 -9.31276e-05 -0.00191403)
(0.566127 -0.000697721 -0.000183514)
(0.563982 0.00100528 -0.00092616)
(0.565154 -0.00122535 -0.000130699)
(0.562676 0.00164179 0.000106444)
(0.562262 0.000228491 -8.81864e-06)
(0.580692 0.00132401 0.00229348)
(0.199645 -0.199554 0.000251368)
(0.547047 0.00040193 -0.00034888)
(0.561603 -0.000217659 0.00109387)
(0.577657 -0.00121366 0.00145743)
(0.564679 -0.000138898 -7.20532e-05)
(0.555188 -0.00156448 0.00151888)
(0.576991 0.000109112 0.000602445)
(0.200502 -0.199439 -0.000189234)
(0.560196 0.0051354 0.00197566)
(0.559704 0.00733262 0.00689658)
(0.567509 -0.000217889 -0.000146517)
(0.563845 0.000628811 -0.000597927)
(0.56574 0.000157093 5.19709e-06)
(0.560568 -0.00508245 -5.66515e-05)
(0.198388 0.198595 -0.00030412)
(0.199868 0.199795 9.38667e-07)
(0.198961 0.199804 2.50639e-05)
(0.563799 0.00213848 0.00289794)
(0.554085 -0.00309987 -0.00800918)
(0.504319 -0.00180946 0.000875596)
(0.577127 0.000975574 0.00056183)
(0.566686 -0.00295796 0.000960143)
(0.562935 -0.000507538 0.000676273)
(0.563175 0.000706454 -5.21612e-05)
(0.560051 0.000135614 0.000577453)
(0.563479 -0.000149858 0.000178317)
(0.202964 0.198898 -0.000345936)
(0.555893 -0.00677648 4.76861e-05)
(0.562456 -0.000572627 -0.000106769)
(0.560011 0.00088112 0.00129739)
(0.562516 -0.000577359 0.000592588)
(0.571977 0.000469137 0.000492882)
(0.567418 0.000772504 9.66926e-05)
(0.560588 0.000672224 -0.000731265)
(0.590326 -0.00146266 0.00686479)
(0.574142 0.000898161 0.000253282)
(0.559869 -0.000557061 -0.00130601)
(0.571354 0.000363618 -0.000106574)
(0.55965 0.000798743 0.00146019)
(0.562144 -1.85736e-05 -0.000158325)
(0.556091 0.00348456 0.00266391)
(0.566578 -0.000223109 -0.000475929)
(0.197299 0.196543 0.000418631)
(0.198805 0.198751 -9.42412e-05)
(0.573647 -0.00181793 0.000792981)
(0.557058 0.000341406 0.000314336)
(0.566085 7.51696e-05 0.00048601)
(0.199187 0.200506 0.000238194)
(0.20001 -0.199959 -0.000255584)
(0.56283 -0.000758526 -0.000134608)
(0.200485 -0.200706 -1.08277e-05)
(0.564093 0.000286005 -7.71898e-06)
(0.567289 -2.39134e-05 -2.74244e-05)
(0.565729 -0.000246996 0.000110728)
(0.570645 0.000194933 0.000265938)
(0.560964 -0.00416712 -0.00136233)
(0.197936 0.200093 0.00148548)
(0.568061 -0.000716723 5.32503e-05)
(0.564767 -0.000193554 -1.46405e-05)
(0.198154 0.198359 0.000184498)
(0.563523 0.000321257 0.000482993)
(0.198279 0.2002 0.000328847)
(0.197313 0.196193 9.54076e-05)
(0.56683 0.000222746 -0.000505211)
(0.56747 0.00066193 -0.000130342)
(0.564259 -5.79477e-05 4.58629e-05)
(0.19917 0.198911 -0.000637434)
(0.199053 0.199096 0.000120769)
(0.486569 -0.00040792 -0.00085627)
(0.565742 -0.000496073 0.000990978)
(0.566209 0.000111414 -0.000234041)
(0.567098 -0.000415807 -0.000371745)
(0.564118 0.000503168 -0.00073954)
(0.565917 0.000239777 -0.000457726)
(0.563407 0.0207751 -0.0144238)
(0.199761 -0.200313 -0.000235216)
(0.564142 -0.00050359 2.37646e-05)
(0.560888 2.2356e-05 0.000175209)
(0.19943 0.199453 -4.00075e-05)
(0.200328 0.19868 -0.000271676)
(0.557012 -0.000217064 0.000160748)
(0.563707 -0.000381474 4.74335e-05)
(0.198435 -0.198835 0.000601145)
(0.566648 -0.000292032 -8.35793e-05)
(0.564915 0.000174283 -0.00017584)
(0.564944 -2.77941e-05 -0.00107016)
(0.590652 0.0429631 -0.0158901)
(0.563169 0.000475352 8.67469e-05)
(0.568913 -0.000436545 -1.56147e-05)
(0.559262 0.0241218 -0.0029408)
(0.637608 0.12974 -0.0577434)
(0.566476 1.3352e-05 0.000119651)
(0.255885 0.160135 -0.007338)
(0.561735 0.00057037 -0.000146872)
(0.200367 -0.199998 -5.25329e-06)
(0.55819 9.48217e-05 0.000964573)
(0.199714 -0.199533 0.000632665)
(0.565525 0.000151814 -0.000478807)
(0.5637 0.000441364 -0.00042386)
(0.199497 0.200292 -0.000232742)
(0.560795 0.000598535 0.000716419)
(0.565816 -0.000616584 -0.000276504)
(0.568218 -0.00030245 -0.0002684)
(0.199419 0.199112 4.84658e-05)
(0.198757 -0.199013 -0.000229414)
(0.561748 -0.000552705 0.000777123)
(0.163078 0.11591 0.0439622)
(0.567021 -0.00121484 -0.000650012)
(0.20042 -0.199735 0.000193414)
(0.582386 -0.000939925 0.00734151)
(0.561777 0.00046679 -0.000121983)
(0.567172 9.12483e-05 -0.000292589)
(0.200404 -0.198004 -0.00141031)
(0.568143 -0.000299776 -0.00017263)
(0.565509 -0.000988629 0.00058694)
(0.207256 0.196026 -0.00114189)
(0.568368 0.000180829 -0.000721912)
(0.56634 0.000275861 -0.00122809)
(0.567654 0.000311512 7.13319e-05)
(0.566524 -0.000307593 -0.00010007)
(0.568045 -6.13333e-05 -0.000196175)
(0.566135 -0.000430879 -0.00048427)
(0.200168 -0.20066 -0.000273185)
(0.192469 0.193548 0.000609762)
(0.560529 0.000416645 0.000972738)
(0.565439 0.000859247 0.00224201)
(0.564691 -8.29905e-05 -0.000358516)
(0.568097 0.000100365 -0.000355304)
(0.199527 0.199448 2.09762e-05)
(0.56606 -0.000202913 -4.14351e-05)
(0.565337 0.000107892 -0.00101432)
(0.570963 -0.000264642 0.000418436)
(0.566703 0.000208329 -0.00027194)
(0.568434 -4.58016e-05 -0.000361921)
(0.560426 0.000816914 0.000754567)
(0.565329 0.000508326 -0.00111643)
(0.564989 0.000492092 -0.000816355)
(0.198827 0.198663 -0.000341963)
(0.558744 0.000465049 -0.000113052)
(0.227797 -0.191984 -0.00760244)
(0.55385 -0.00346009 0.000647593)
(0.196659 0.191303 -0.00190575)
(0.198295 0.198715 -4.69095e-05)
(0.565704 -2.57248e-05 0.000146146)
(0.564827 1.25308e-05 0.000232944)
(0.199216 0.198879 -5.38101e-05)
(0.555964 -0.000473797 0.00046282)
(0.565505 -0.000626226 4.6516e-05)
(0.566354 -0.000483249 -0.000125063)
(0.56629 3.89298e-06 -0.000524482)
(0.199198 0.19841 0.000746944)
(0.564952 0.000280647 6.90764e-05)
(0.560024 -4.69653e-05 0.000671312)
(0.560625 5.0408e-05 0.000585764)
(0.567148 0.000214154 -0.000308807)
(0.56249 3.18879e-05 0.00040217)
(0.567027 -0.000101256 -0.000376431)
(0.565625 5.68916e-06 -0.000124303)
(0.565847 0.000167367 -0.000117306)
(0.562436 -8.09657e-05 0.00028108)
(0.573721 -0.000835032 0.0005073)
(0.157304 0.0630039 -0.0719693)
(0.562884 -2.6739e-05 0.00037051)
(0.198256 0.19872 0.000268674)
(0.565513 0.000175686 0.000907559)
(0.566687 -0.000176461 -0.000690073)
(0.562889 0.00232141 -0.000609289)
(0.558051 -0.00216582 0.0038908)
(0.564439 -0.00101831 0.00210245)
(0.568207 0.000396798 6.02502e-05)
(0.567417 -9.7049e-05 -0.000809875)
(0.5669 -0.000262729 -0.000270671)
(0.567043 -0.000810203 -0.000894673)
(0.561141 -0.0011054 0.000854079)
(0.198009 0.199523 -0.00287412)
(0.566724 -0.000223192 0.000241698)
(0.565992 0.000339172 0.000332489)
(0.567897 -0.000283883 0.000102174)
(0.566018 -0.000100384 -0.000395004)
(0.566383 -0.000736651 -0.000625665)
(0.56272 -7.43985e-05 0.000386172)
(0.556497 0.00648267 -0.00108772)
(0.572336 0.000751171 0.000628846)
(0.558228 0.00181312 -0.000925826)
(0.562507 0.00032217 -0.000890634)
(0.19932 0.199326 8.38934e-05)
(0.200509 -0.199733 -3.61708e-06)
(0.56679 0.000169257 0.000194073)
(0.567758 0.000430995 0.000320936)
(0.562593 -0.000521398 0.000428545)
(0.558779 0.000714211 -0.00210343)
(0.56147 -0.000867011 4.82885e-05)
(0.198841 0.199073 -0.00032442)
(0.199095 0.199301 -0.000156829)
(0.566932 -0.000816015 -0.00088212)
(0.564126 -0.000438892 0.000146844)
(0.565599 -0.000279815 -0.000326889)
(0.565708 -1.7278e-05 -0.000194962)
(0.564999 -0.00012206 -0.000746375)
(0.566388 -0.000369797 -0.000195103)
(0.220663 -0.153377 -0.0146053)
(0.568008 0.000179493 -2.65296e-05)
(0.561833 -0.00114686 0.000862625)
(0.559907 0.000517324 -0.000837808)
(0.556672 3.4361e-05 -0.00177839)
(0.568205 -0.000146638 -0.000104514)
(0.541674 0.00349751 -0.0126264)
(0.556937 0.0163671 -0.010729)
(0.568006 0.000105111 3.20888e-05)
(0.562182 -0.000832184 0.000830203)
(0.560604 -0.000278709 0.000384245)
(0.563114 -0.000624372 0.000636577)
(0.573236 0.00030961 -0.00102474)
(0.19932 0.19935 3.8038e-06)
(0.556506 0.00231762 -0.00216315)
(0.56725 -5.23241e-05 1.11168e-05)
(0.550582 -0.00212211 -0.0058509)
(0.566136 0.000101743 -0.000571418)
(0.566915 8.31549e-05 -0.000593252)
(0.19973 0.197602 -0.000812294)
(0.563203 -0.00096237 0.00411553)
(0.573329 -0.000430877 0.000111334)
(0.567126 -9.50845e-06 -0.00058953)
(0.561141 0.000314181 0.000993429)
(0.553618 -0.000179974 -0.0016774)
(0.199309 0.20511 -0.00187081)
(0.19782 0.195524 -0.00103397)
(0.566076 0.000348772 0.000185851)
(0.566523 -0.000223578 -0.000169076)
(0.566537 -0.000107978 4.3591e-05)
(0.567792 -4.02471e-05 4.16793e-05)
(0.56635 0.000153099 2.50081e-06)
(0.56548 0.000553597 0.000443893)
(0.562491 -0.000645403 0.000811565)
(0.566509 0.00156806 -0.00273362)
(0.565634 -0.000235467 -0.00083706)
(0.566164 0.000866468 -0.000280649)
(0.564123 -0.00127558 0.00227489)
(0.561228 0.00117573 -0.000712062)
(0.562843 -0.000650854 0.000145345)
(0.566443 0.000201309 -0.00040493)
(0.198619 0.198618 0.000124236)
(0.566935 3.94756e-05 -0.000281483)
(0.200421 0.200584 -0.000122073)
(0.199606 0.199147 2.40586e-05)
(0.565827 0.000952209 -0.000461974)
(0.562746 8.49703e-05 0.00018215)
(0.566951 -0.000824221 0.000533896)
(0.200416 -0.200246 -3.61432e-05)
(0.564513 8.37255e-06 0.000452036)
(0.56084 0.00107513 -0.00171944)
(0.567612 0.000526703 -0.00109025)
(0.199547 0.199645 9.23048e-05)
(0.565102 -0.000314783 -0.000199831)
(0.197084 0.198847 -0.000605973)
(0.563422 -0.000275089 0.00338256)
(0.19806 0.19698 -0.000147388)
(0.561772 -0.000279262 0.0010497)
(0.558419 -0.00023595 0.00108056)
(0.56369 -0.000145719 2.46746e-05)
(0.565609 0.000784172 -3.17381e-05)
(0.200337 -0.200253 0.000103359)
(0.198374 0.198349 -0.000170721)
(0.566791 0.00264894 -0.00300012)
(0.555285 -0.000242914 0.0018843)
(0.567464 8.71748e-05 -0.000852659)
(0.566212 7.33464e-05 -0.000353662)
(0.565198 4.00972e-05 -0.000755426)
(0.563991 0.00118081 -0.000349262)
(0.574566 0.00319752 -0.00126732)
(0.199739 0.199943 -0.000277313)
(0.581991 0.00714625 -0.000906184)
(0.565169 -0.000522281 -0.000744589)
(0.541808 0.0634427 -0.0393363)
(0.198089 0.196662 0.000529627)
(0.56762 0.00128329 -0.00162478)
(0.546556 0.000441033 0.00145643)
(0.19941 0.197821 0.00170502)
(0.581611 0.00226549 0.00103549)
(0.567744 -0.000243629 -0.000526551)
(0.199677 -0.199563 -6.95845e-05)
(0.558467 9.1845e-06 0.00129825)
(0.596292 0.00841137 0.00135866)
(0.566732 -0.000487953 -0.000169889)
(0.561977 -0.00146176 0.00245709)
(0.576465 0.00517081 0.0274052)
(0.56036 0.0008063 -0.000483613)
(0.563962 -0.000142908 -0.000402826)
(0.560374 0.000105493 -0.00196535)
(0.539735 -0.000108208 3.01011e-05)
(0.567057 -0.0229922 0.0259466)
(0.564242 0.000311912 0.000792662)
(0.555471 -0.00110712 -0.000191256)
(0.566409 1.05167e-05 -0.000173507)
(0.575446 -0.00146656 0.000976188)
(0.567317 -3.57517e-05 7.79456e-05)
(0.567647 0.00217894 -0.00158647)
(0.199415 0.199489 1.80896e-05)
(0.566529 0.000720359 -0.000290206)
(0.58071 0.000390429 0.00146186)
(0.591063 0.00568685 0.00763288)
(0.19974 -0.199759 -7.58684e-05)
(0.562241 -0.00107357 0.00109524)
(0.569031 0.00043319 -0.000191934)
(0.197201 0.195144 0.000400953)
(0.557968 0.000400297 -6.18369e-05)
(0.562276 0.000169909 -0.00047144)
(0.566143 0.000408124 -0.000611855)
(0.56892 0.0003638 9.055e-05)
(0.562034 -0.000542814 -0.00034293)
(0.565395 -0.000241769 0.000197979)
(0.19891 0.199226 -0.00023148)
(0.562288 -0.00027678 -0.00176443)
(0.570685 7.93783e-05 -0.000295532)
(0.198981 0.198968 0.00023719)
(0.200023 0.199453 -0.000105627)
(0.565784 0.000431751 0.000314431)
(0.199433 0.199774 -0.000109758)
(0.564452 -0.000186722 0.000392974)
(0.560261 -0.00405403 -0.000318203)
(0.566232 0.000269217 -0.000307934)
(0.562372 -0.00060361 -0.0022915)
(0.562335 -3.45982e-07 -0.0018232)
(0.284002 -0.0197778 0.0421706)
(0.199424 0.19967 0.000192983)
(0.571494 0.000345739 -1.58025e-05)
(0.566129 5.55785e-05 0.000159731)
(0.56296 0.000578095 -0.000468153)
(0.560645 0.00272988 -0.00192378)
(0.563191 -0.000146155 -0.000785274)
(0.199139 0.199303 -0.000232973)
(0.544427 -2.8044e-05 -0.000760354)
(0.560666 -0.000199602 -0.000884827)
(0.556078 0.00164487 0.00420012)
(0.567076 -0.000225531 0.00109623)
(0.563776 -0.00104831 -0.000331701)
(0.555439 0.0187118 -0.0207003)
(0.566545 -0.00165098 5.72561e-05)
(0.55115 0.00590925 -0.0109458)
(0.1986 0.195229 -0.00124929)
(0.19966 0.199587 0.000180362)
(0.199137 0.199098 -2.60558e-05)
(0.566944 0.000304404 -0.00010416)
(0.565946 -0.000493556 -0.000503233)
(0.199137 0.19857 -0.000111847)
(0.564231 -0.00010876 0.000833517)
(0.557658 0.00381102 0.00295765)
(0.557154 -0.000755758 -0.000611597)
(0.501281 0.0707147 -0.0405297)
(0.559331 -0.000792703 -0.000487947)
(0.565777 0.000201846 0.00012574)
(0.199896 0.204281 0.000295178)
(0.557064 0.0131056 -0.0207061)
(0.199875 0.199843 0.0001558)
(0.198918 0.19838 0.000352195)
(0.566181 -0.000227921 -1.60741e-05)
(0.318033 0.243304 0.0367115)
(0.289974 -0.118009 -0.00400907)
(0.56267 -0.00131013 -0.000148783)
(0.194327 -0.197746 0.000259783)
(0.566256 0.00013143 -5.58616e-05)
(0.560804 -0.00249051 -0.00513278)
(0.57002 0.0194259 -0.0138951)
(0.565771 -0.00019072 0.000372621)
(0.575731 0.0110914 -0.0035396)
(0.563855 0.000406168 0.000192476)
(0.570723 -0.0364562 -0.0106651)
(0.199021 0.198994 4.14814e-05)
(0.198886 0.19802 0.00020866)
(0.564641 -0.000983179 -4.82669e-05)
(0.563568 -0.000706266 0.00107551)
(0.56699 -0.000407035 0.000184512)
(0.19587 0.198987 -0.00154652)
(0.56019 0.00115006 8.37579e-06)
(0.565568 -0.000417405 0.000100335)
(0.565873 -6.74201e-05 -0.000266307)
(0.199252 0.199479 0.000835323)
(0.56563 0.000222396 -0.000591763)
(0.565806 -0.000241482 -0.000264002)
(0.511009 0.0571142 0.0378729)
(0.199119 0.199151 -0.000148276)
(0.645319 0.172813 -0.00638456)
(0.522362 0.0735713 -0.0535022)
(0.2002 -0.199484 4.3611e-05)
(0.199811 0.199083 0.000332428)
(0.198925 0.198527 5.37495e-05)
(0.200484 0.19983 0.000432576)
(0.200042 0.199723 -0.000770086)
(0.565854 0.000579884 -0.000108486)
(0.566289 -0.000142703 0.000215361)
(0.564943 0.000509602 0.000161477)
(0.199452 0.198447 0.000168148)
(0.565024 -0.000323636 -0.000141116)
(0.567481 2.66792e-05 0.000435236)
(0.199646 0.198943 0.000262945)