/*--------------------------------*- C++ -*----------------------------------*\
  =========                 |
  \\      /  F ield         | OpenFOAM: The Open Source CFD Toolbox
   \\    /   O peration     | Website:  https://openfoam.org
    \\  /    A nd           | Version:  10
     \\/     M anipulation  |
\*---------------------------------------------------------------------------*/
FoamFile
{
    format      ascii;
    class       volScalarField;
    location    "81";
    object      SgP;
}
// * * * * * * * * * * * * * * * * * * * * * * * * * * * * * * * * * * * * * //

dimensions      [1 -1 -3 -1 0 0 0];

internalField   nonuniform List<scalar> 
59698
(
0.00309501
0.00183544
0.00231276
0.00271385
1.1483e-06
0.00145199
0.0024969
1.07363e-07
1.98385e-09
3.9261e-09
0.000586479
1.78773e-09
1.59217e-09
0.00228614
2.77795e-08
4.26818e-07
9.40993e-09
3.81268e-09
1.62355e-09
5.96904e-10
0.000365123
1.56313e-06
0.000498956
8.81912e-08
1.98645e-07
1.19967e-09
1.16781e-09
0.00248143
0.00239347
2.12361e-09
1.35416e-07
0.000600644
6.68062e-08
0.00403465
1.1137e-06
3.80827e-09
0.000465008
5.06339e-07
1.73177e-08
0.0024534
2.97282e-08
2.30471e-07
2.3093e-08
2.45859e-08
0.000402109
1.04741e-07
2.70786e-09
4.88668e-08
0.0029084
3.14721e-08
2.9546e-10
2.35816e-09
0.00172824
0.00272944
0.00216798
2.06349e-09
8.45775e-08
1.54767e-08
1.76979e-08
2.76156e-05
0.00178291
6.29657e-08
1.98232e-07
1.57038e-09
4.96826e-07
4.18541e-08
1.75235e-09
3.24644e-09
4.20219e-09
6.77928e-09
6.06192e-07
2.80514e-08
0.000359996
1.72023e-06
0.000411948
1.12683e-06
2.15503e-08
2.18746e-08
6.40543e-09
9.64622e-09
4.78621e-07
9.80629e-10
4.04147e-09
8.03615e-09
1.69839e-05
3.13861e-08
9.17028e-09
2.2336e-07
2.34042e-06
2.31242e-08
4.50548e-09
6.35916e-08
1.71872e-07
6.56153e-09
6.05973e-08
0.00359104
1.37611e-07
6.20049e-08
5.14206e-08
8.60001e-10
0.00353844
2.07961e-05
2.953e-07
0.00329244
5.33527e-08
0.000564778
2.33187e-09
2.27477e-09
2.71682e-09
4.40145e-10
3.5914e-08
2.64641e-06
1.35834e-06
1.56281e-07
9.76055e-08
3.45631e-08
3.49153e-07
0.0035338
2.92663e-07
1.1543e-08
2.26306e-09
2.97757e-07
2.25377e-07
3.41455e-09
1.62285e-09
7.88586e-09
8.36787e-09
7.20823e-09
1.27026e-08
3.86444e-07
0.00335582
3.86402e-09
1.10236e-09
1.87971e-07
6.46434e-08
3.23462e-09
4.91666e-07
2.46961e-10
1.73167e-09
5.66613e-09
2.08439e-08
0.00231723
0.00252092
1.57919e-09
1.90725e-07
7.93146e-10
5.35111e-07
3.7882e-07
0.00448814
7.06358e-07
0.000257352
0.000434379
2.77626e-08
2.54782e-07
9.17902e-09
1.04687e-07
7.43374e-09
0.00162892
6.71919e-08
5.72607e-10
3.12579e-09
7.7166e-09
2.21213e-08
9.69685e-08
1.89707e-08
0.00222846
1.06321e-09
0.000567223
0.00152528
6.91922e-09
2.55699e-07
1.46962e-06
2.17798e-07
9.2676e-07
5.78414e-07
0.00121901
4.37114e-09
0.00139589
0.000326021
0.00293208
2.2544e-06
7.39861e-07
4.00725e-07
1.12395e-08
2.49562e-07
6.77726e-08
3.71215e-07
0.00238057
1.38319e-10
1.79716e-08
6.41824e-09
7.06331e-09
2.30524e-08
6.04867e-07
1.21944e-07
0.00416742
1.7338e-06
0.00294409
1.27287e-05
9.09479e-08
0.000227088
6.75423e-07
1.55709e-09
2.53794e-09
0.00356734
0.00244692
3.60426e-08
0.00205808
0.0027077
0.00350265
0.00242676
6.10218e-09
0.00262742
1.56844e-08
2.34525e-09
0.00336709
9.87737e-09
4.5456e-08
1.55105e-07
4.6597e-09
1.37017e-05
0.00217428
1.72456e-09
5.09808e-07
8.92223e-09
0.0027467
2.11819e-08
5.47639e-09
4.88043e-08
6.79857e-07
7.5788e-09
1.86968e-08
7.42444e-09
1.13701e-08
9.53254e-09
8.97e-09
3.07964e-07
1.95571e-08
1.76556e-07
8.1874e-09
0.00261372
1.19045e-07
3.4307e-08
0.000664542
8.67972e-09
2.14826e-07
2.29367e-05
3.47973e-06
5.28562e-09
4.99056e-09
6.15473e-08
6.22865e-09
3.08509e-08
0.000233555
1.92612e-08
0.00169895
1.10007e-07
5.40746e-08
0.00314717
2.88792e-09
7.68683e-06
1.80782e-09
7.83103e-09
0.00270859
0.00357785
8.57683e-07
1.08561e-09
1.0738e-07
1.97881e-08
6.03896e-10
3.13201e-09
1.53948e-06
6.90691e-05
6.67025e-10
1.25215e-07
5.01535e-08
0.0014658
3.97136e-08
2.94479e-09
1.21935e-09
0.000574133
1.76314e-09
1.67313e-09
4.70584e-07
0.00334904
1.02157e-07
5.27182e-09
0.000647593
3.8351e-07
1.00265e-07
2.62579e-06
0.00232503
9.25709e-09
1.36059e-09
7.03573e-07
0.00273219
4.68315e-10
1.52373e-07
1.44915e-08
6.43314e-07
3.07975e-09
2.26299e-09
6.86693e-08
5.74032e-10
1.0631e-09
1.14718e-09
3.60922e-07
2.19343e-08
5.37869e-09
5.24903e-10
0.00190125
4.11502e-08
2.97676e-09
2.37998e-08
0.00191498
5.60202e-09
0.00040339
8.30212e-09
0.000829308
8.52092e-08
9.53001e-08
2.85751e-07
1.67279e-08
2.90774e-09
1.63742e-06
2.55231e-07
1.60778e-08
8.69777e-09
4.41325e-10
0.000361923
0.00289907
4.02292e-08
3.57696e-07
2.43607e-06
0.000430951
1.03418e-08
7.75594e-09
4.28962e-09
1.39892e-07
0.00122085
2.13421e-08
0.00206205
0.00250599
4.94902e-09
9.99524e-08
1.36867e-09
2.63684e-10
1.24617e-06
1.34814e-09
0.00203388
9.28671e-10
1.2542e-08
1.23524e-06
7.95845e-10
9.1809e-07
0.0019162
2.75924e-06
1.44108e-08
3.31099e-08
1.82232e-09
2.09937e-08
1.08593e-08
1.10366e-07
3.59294e-09
1.2735e-10
1.04127e-07
0.0027968
0.00201716
2.82741e-08
9.81734e-07
1.13167e-07
0.000533997
0.00366892
0.000651131
2.10051e-08
2.98313e-09
3.6347e-08
2.04334e-09
0.000460569
2.49153e-09
0.000347123
4.45955e-08
4.31891e-08
5.15483e-08
8.56453e-10
6.74443e-06
1.09208e-08
0.000544827
7.97018e-10
3.35993e-08
2.09084e-08
0.000457463
0.00330053
3.23057e-09
5.36725e-05
0.00179788
3.76289e-06
0.00182712
0.00269778
8.14812e-08
0.00243862
0.00236495
0.00257382
5.43849e-09
0.00148346
0.0041785
0.00383897
0.00276242
5.96581e-09
8.2902e-07
1.88282e-07
0.000404302
0.00163744
0.000434528
4.70743e-10
2.05611e-07
2.03054e-09
2.23798e-06
0.00189658
0.00175547
0.00292224
0.00218231
0.0024916
0.00166486
7.81412e-09
2.05789e-09
7.8179e-09
1.73301e-08
0.0013845
5.79881e-10
7.79254e-09
0.00195879
0.00116544
2.34676e-08
3.71181e-08
1.42055e-08
1.39689e-08
0.00125865
3.33978e-09
0.00211843
1.92326e-07
0.00321064
5.00599e-09
4.40051e-08
1.86352e-07
2.03563e-06
8.69884e-08
4.50133e-10
2.15463e-09
1.28973e-07
0.00254331
6.6339e-09
7.24887e-08
1.96889e-06
6.16427e-07
1.15042e-07
3.41979e-07
1.41734e-09
1.15248e-06
1.65076e-07
6.12143e-08
4.61116e-09
0.00320827
6.31984e-09
2.19549e-09
2.01965e-07
3.51004e-07
9.26898e-09
4.43297e-08
6.16113e-09
0.00247475
4.39841e-09
2.08795e-10
6.955e-09
6.32645e-08
2.04042e-06
8.18805e-07
2.20125e-09
0.00300903
0.00194621
2.34206e-08
2.11728e-07
1.60179e-08
1.93736e-08
2.53551e-07
4.12584e-08
4.45391e-08
1.96732e-08
1.6368e-09
1.65273e-09
2.49776e-07
4.05927e-07
4.03878e-10
4.23762e-08
0.00402062
2.12825e-07
1.52854e-08
0.0023666
3.71416e-08
0.000365618
9.68871e-10
1.18871e-07
2.04189e-07
1.21113e-08
1.71114e-08
1.11895e-09
8.17455e-08
2.13694e-09
5.27218e-09
8.26882e-09
5.75794e-09
7.85737e-09
1.35275e-06
5.41925e-08
1.60329e-08
2.68809e-09
6.88912e-09
9.88059e-09
7.04639e-08
2.48335e-08
1.71257e-08
3.4707e-09
5.06627e-09
3.87042e-09
2.17998e-09
6.32339e-06
3.29997e-08
2.80545e-09
0.00339746
0.003708
2.9101e-09
0.00385021
1.82754e-08
5.50342e-09
0.00145126
3.56206e-10
1.35534e-08
0.00178826
1.89847e-09
0.000384874
4.28498e-08
2.56066e-09
4.50413e-08
3.00485e-06
1.48539e-08
5.18717e-09
8.93786e-06
0.000167114
1.87711e-08
7.45645e-06
1.83074e-08
2.28901e-09
3.08326e-08
1.90929e-09
5.06045e-09
1.4643e-08
1.93006e-08
1.6196e-08
2.58694e-09
2.22678e-09
0.000768507
1.72296e-09
1.65768e-08
1.01207e-05
1.51227e-08
1.81272e-09
1.21548e-06
2.25775e-08
8.54622e-09
0.000539255
7.78843e-10
7.61903e-09
2.03295e-07
1.57021e-09
4.39738e-08
1.31231e-09
3.18237e-10
4.32366e-10
0.00200341
2.31184e-09
0.000732637
3.8963e-08
0.00320721
1.49542e-08
3.28947e-09
0.00031335
1.17516e-09
1.35599e-08
1.78673e-08
1.6395e-08
1.98225e-09
0.00316743
8.13561e-09
1.68655e-08
8.53562e-10
4.13306e-08
9.2634e-07
0.0026491
0.000349776
7.34568e-09
7.93406e-09
1.65233e-09
2.84105e-09
0.00337492
1.3534e-08
4.42831e-09
2.49145e-09
0.0010875
0.00385605
1.53947e-08
1.26179e-08
1.56522e-09
1.14771e-08
4.29443e-09
4.13036e-09
5.12828e-09
4.90511e-09
3.63592e-08
7.8444e-05
7.315e-09
5.03638e-09
7.88019e-09
1.82406e-08
2.532e-05
0.00241928
1.09736e-08
0.00266349
1.63561e-09
8.78146e-09
4.32798e-09
0.00269467
0.000211221
9.67029e-10
8.4146e-09
6.83778e-10
2.86215e-08
6.31468e-09
2.85717e-09
0.0015155
0.00323679
1.30331e-07
1.62606e-07
0.000607892
1.45252e-09
5.20954e-09
1.60565e-09
4.11819e-07
0.00210697
3.38572e-08
1.7757e-09
0.000439479
7.687e-09
3.18903e-08
3.33594e-09
2.38319e-09
4.35693e-09
9.37912e-10
7.6337e-06
1.0205e-09
0.00182037
5.06214e-08
1.12001e-07
6.79882e-09
1.5484e-06
3.40677e-06
5.37358e-09
2.07881e-08
0.00230811
0.00311019
7.33456e-08
3.85457e-09
7.57897e-07
1.56944e-09
0.00343749
3.08968e-10
1.96244e-08
0.000428464
0.00255395
4.33187e-09
1.59607e-09
1.96465e-07
5.88654e-07
3.53429e-07
0.0003781
0.00139636
1.14469e-10
6.60683e-09
7.95285e-10
4.63305e-09
0.00277498
2.71719e-08
0.00303015
9.97176e-09
0.00131532
0.00209608
0.0023644
6.16873e-08
4.10854e-09
0.000650627
1.27223e-09
2.30676e-10
9.26853e-10
4.35134e-09
1.81611e-08
4.54111e-09
1.48343e-09
9.17925e-08
6.73249e-08
7.62321e-09
2.7295e-09
0.0018639
4.18051e-08
3.55516e-08
0.000362171
9.51813e-09
3.4907e-08
3.81822e-08
1.94222e-09
1.36339e-09
0.000646935
0.0019628
0.00241489
3.87936e-09
1.11335e-08
6.5053e-09
1.63607e-07
0.00194538
1.33372e-09
5.6961e-07
2.58806e-08
1.3258e-05
0.000344566
0.00169863
2.25445e-07
1.48136e-07
2.24237e-08
0.00430845
0.000532165
1.89222e-08
8.96253e-07
3.48324e-09
6.82507e-08
3.4558e-06
0.0023193
2.45257e-08
1.20649e-07
1.01442e-07
1.58672e-05
2.46341e-08
0.00185625
2.48842e-09
5.16058e-08
1.16426e-08
0.0021308
7.34414e-10
6.59056e-09
2.06336e-07
4.46823e-06
0.000599773
1.09247e-07
7.03342e-08
0.000383644
4.14915e-08
2.54302e-09
0.00190616
0.00219651
5.42863e-09
7.56029e-09
0.00040156
1.00058e-08
1.75396e-08
0.000373923
3.49847e-10
0.00265407
2.53009e-09
1.93168e-08
1.81628e-07
4.00053e-09
3.93824e-08
3.57678e-08
4.99515e-05
3.75028e-09
6.13366e-09
7.10903e-09
1.17244e-08
9.70729e-08
1.49317e-08
0.000326092
6.97622e-09
2.03007e-08
0.00140038
5.72363e-08
9.84636e-08
8.43706e-06
0.00187031
2.40657e-06
0.000541745
6.93037e-09
0.000383114
1.58964e-08
4.2e-09
1.62765e-09
0.00314078
3.78873e-07
3.24636e-08
7.11769e-05
6.44087e-08
0.00157968
1.68213e-07
9.86644e-06
3.5026e-09
0.00100438
3.16242e-09
0.00130364
5.35538e-05
2.44049e-07
0.000651794
0.00179454
1.22978e-06
1.10575e-05
4.12031e-09
1.12494e-06
2.52253e-08
4.08194e-05
0.000444778
0.000428767
0.00211175
3.53004e-08
3.20021e-08
0.000561237
4.47674e-08
0.00227712
6.9656e-10
0.000401155
2.28853e-09
2.67015e-09
2.94182e-05
0.000503644
0.00020634
0.000108602
7.69104e-09
5.11352e-09
1.89632e-09
0.000487213
2.01343e-09
0.00350801
0.00473698
2.50362e-09
0.000499723
2.06611e-09
7.82676e-10
2.93281e-09
3.25136e-06
0.000469624
3.0106e-09
1.31297e-09
1.05717e-06
4.45446e-09
1.12221e-07
3.79297e-09
2.97407e-09
8.84326e-08
2.63806e-07
3.12169e-08
1.04131e-08
0.00053257
8.17793e-10
0.000127592
2.71743e-10
2.47153e-09
0.00124247
1.51141e-09
7.76131e-06
8.98231e-08
7.42844e-09
0.000108824
1.24884e-08
0.00157162
2.72446e-08
4.58674e-10
0.00174582
5.66164e-09
1.13161e-08
0.00030713
1.24577e-09
0.00205968
1.68945e-08
1.42081e-09
0.00422986
3.06208e-09
5.4206e-09
1.49496e-08
1.6414e-08
0.000319936
8.15505e-09
5.58395e-09
1.64802e-07
0.00180902
0.000633462
0.00058403
2.24797e-08
1.77292e-09
0.000379941
0.00237003
6.86036e-09
8.57503e-09
5.5725e-08
1.16566e-08
2.86389e-09
2.55606e-08
0.000412254
0.00144847
0.00262296
1.49186e-07
2.03906e-09
0.00267081
0.00400968
0.00520958
5.07736e-08
1.80201e-08
1.66136e-07
4.4007e-07
1.80918e-08
2.77224e-08
7.86243e-07
2.819e-08
7.51839e-09
8.17594e-09
1.35007e-06
7.15106e-08
7.37913e-09
0.00254236
1.61779e-09
6.03532e-08
1.87551e-08
2.823e-08
6.49748e-09
3.8129e-10
0.000761134
1.88692e-08
3.11287e-09
0.00193673
1.91067e-08
2.39446e-08
0.00316677
2.92969e-08
3.34237e-07
5.68531e-09
1.99996e-08
2.43595e-08
0.000826027
3.05801e-08
0.00220047
1.82754e-07
1.98702e-07
3.67444e-08
0.00533112
0.000295099
4.58712e-09
5.50031e-09
9.92129e-07
1.44879e-09
1.12711e-08
8.52127e-09
0.0016735
1.17338e-09
2.28267e-09
8.119e-09
2.46881e-09
3.57735e-08
2.36728e-08
7.52902e-09
0.000429214
0.00219283
0.000466221
6.29903e-08
0.00314138
0.00256266
5.60419e-08
1.76957e-09
0.00183298
6.43834e-06
0.00154631
0.0020822
0.00203132
3.32373e-09
5.88772e-08
0.00237833
1.96651e-07
3.28923e-08
1.88896e-07
2.64457e-08
0.000443737
2.08849e-08
0.000538422
1.70061e-05
2.5748e-08
0.00196163
2.00092e-08
0.000608739
6.88877e-09
1.72391e-08
1.16092e-09
3.99542e-08
0.00153623
0.00364918
1.28562e-09
0.000395621
0.00188712
0.00135368
0.00278175
5.63368e-10
1.0121e-08
1.17616e-09
0.00355383
7.90704e-10
1.29653e-07
0.00355988
5.32405e-09
0.0034699
0.00351571
0.00366745
1.55103e-08
5.72313e-08
4.62975e-08
8.73517e-09
1.10859e-08
6.13411e-08
1.26658e-08
5.115e-09
0.000475259
4.11668e-09
3.70935e-08
2.75999e-07
5.41017e-10
0.00162315
2.92226e-08
4.61927e-09
6.66595e-08
2.68697e-10
7.00527e-08
3.90392e-09
2.03064e-07
0.00306616
3.10195e-05
8.93897e-10
1.56438e-08
0.00210096
0.00314925
1.78503e-07
0.000760497
1.00019e-08
7.7874e-09
0.00257373
2.22017e-08
0.00322076
0.000542247
1.04781e-09
7.469e-08
0.000765797
1.69528e-08
2.49338e-08
0.00250178
6.31984e-09
1.36103e-08
3.11632e-09
0.000534599
3.14162e-06
0.00193138
1.83077e-07
9.37061e-09
0.00175019
1.4289e-07
2.57687e-10
5.96909e-06
2.18697e-09
7.23333e-07
0.00129385
2.71865e-09
9.55205e-10
1.13433e-08
5.85655e-09
1.54748e-08
5.845e-09
1.26174e-08
1.0002e-06
9.51893e-10
1.24841e-09
0.00169857
4.65844e-09
5.4048e-06
2.93814e-08
4.64275e-06
1.32713e-06
1.17226e-06
5.33358e-06
1.25633e-06
5.34636e-09
1.65857e-08
0.00100311
3.08584e-06
2.49474e-08
2.26339e-08
2.49721e-08
0.00044909
1.36853e-06
7.94966e-08
2.28901e-07
3.46813e-09
0.00226282
4.76511e-09
1.2272e-08
2.08597e-08
1.18521e-08
2.99244e-08
0.00212655
5.59162e-08
2.40591e-08
1.86643e-08
4.8116e-09
0.000477735
2.26909e-09
5.19621e-09
3.35026e-08
2.55926e-10
1.42373e-09
6.14101e-09
9.36374e-09
1.3731e-08
0.000334267
1.14454e-08
1.31694e-08
2.51804e-09
2.00627e-08
1.24335e-08
1.00915e-08
5.84588e-08
0.000380629
0.00242472
1.54435e-08
7.8644e-09
0.00284483
1.64617e-09
4.31826e-05
0.00202969
4.95931e-09
7.25291e-07
1.53196e-06
0.00186669
2.20305e-08
3.18481e-08
2.17622e-07
1.73904e-05
8.68297e-07
2.13584e-07
1.40172e-09
3.73259e-09
4.15747e-07
1.08382e-07
5.95331e-09
1.5402e-09
1.28203e-08
7.54813e-09
3.02953e-06
0.00129395
6.41032e-08
3.64169e-08
5.10422e-08
0.00264616
0.00244633
9.12356e-07
1.51438e-08
3.28267e-08
4.01478e-08
4.47115e-09
2.8956e-09
1.81495e-07
4.22468e-09
3.45756e-08
2.01806e-09
1.26137e-08
2.26781e-08
3.32895e-09
4.15071e-07
2.81167e-09
0.000434431
9.50296e-08
0.00394805
0.00165203
1.12386e-07
2.13708e-08
0.000579702
0.000345167
2.7719e-08
2.34252e-08
9.23995e-06
2.30365e-09
1.87985e-09
2.34976e-08
1.73268e-08
0.000781457
0.000646974
9.57786e-09
1.18069e-08
7.72825e-09
3.33329e-07
5.06495e-08
0.00267072
0.000496412
1.49466e-08
0.000238789
7.02103e-09
0.000315426
0.000227778
0.000223578
2.82044e-08
1.05299e-07
1.76082e-09
9.97918e-08
2.53842e-08
0.00240356
4.88598e-09
4.13173e-08
6.86081e-09
7.70285e-08
2.27375e-05
0.00194497
0.002278
2.21277e-08
2.97592e-08
0.000377621
3.99595e-08
1.03888e-06
1.04178e-08
0.00304785
4.07224e-08
2.25306e-08
8.52969e-06
0.00262293
6.84682e-08
2.2818e-08
0.00131291
2.01373e-08
4.64972e-10
1.39704e-09
4.45534e-09
3.16824e-08
1.33205e-08
6.32035e-10
2.24096e-08
3.69838e-08
1.18893e-08
6.06823e-08
1.77143e-08
5.51572e-07
0.0019116
2.86823e-09
1.58198e-08
5.64185e-08
0.0020005
8.71177e-07
2.02074e-08
0.000374243
2.88804e-09
2.25162e-07
1.45989e-07
0.000983775
3.60101e-07
3.20234e-10
1.21802e-07
1.40042e-08
1.22679e-07
5.08559e-08
2.98197e-09
1.48789e-07
6.88508e-09
8.69765e-08
8.32198e-10
0.00058427
4.93692e-08
0.00207399
1.3354e-09
6.3098e-08
2.13953e-06
1.07251e-08
5.2385e-06
4.78837e-09
6.95004e-10
2.46174e-07
4.18551e-08
4.85181e-09
1.73534e-05
6.10872e-08
7.41845e-08
0.000547247
2.98054e-09
0.0005637
3.1604e-08
2.27035e-09
7.71602e-09
5.79011e-09
1.98208e-08
3.89993e-07
3.1347e-07
1.50739e-07
0.00237873
2.18503e-07
0.00393257
0.0020953
0.0032916
8.49712e-08
2.21374e-07
0.00143506
3.80572e-09
2.47706e-08
2.97893e-08
0.00237004
9.80276e-09
0.000635587
0.00049221
2.76972e-09
0.00262593
5.05467e-06
0.00263987
1.88984e-08
0.00249638
5.59516e-08
0.00034019
1.61628e-09
3.92222e-09
4.2739e-08
0.000746771
7.77212e-07
4.16516e-10
2.68634e-08
6.35247e-10
0.000532959
0.000313608
5.70396e-08
0.0019093
4.56246e-07
0.000544676
3.1925e-08
5.57976e-10
6.43469e-09
2.60441e-09
8.93259e-08
2.04294e-05
5.68791e-09
1.33902e-06
4.44443e-08
4.2145e-08
4.65756e-09
9.88379e-05
2.2394e-07
1.87896e-09
6.40809e-09
0.000432449
1.09772e-06
7.79219e-08
0.00152074
1.77192e-06
1.48518e-06
7.42146e-09
8.50599e-09
3.91979e-09
0.000681511
2.64111e-08
5.4441e-09
1.49488e-08
3.63936e-07
9.97033e-07
2.07372e-07
1.82271e-09
3.1597e-06
6.70763e-07
7.49729e-09
5.97658e-09
5.49571e-06
2.51485e-09
5.09639e-09
0.00238712
0.00220922
6.16884e-08
4.4983e-09
1.14974e-09
3.33861e-08
0.00192979
2.58982e-07
1.37192e-06
5.52379e-10
5.49337e-07
3.25774e-08
0.00112028
0.000444878
6.90287e-07
2.49273e-08
3.43697e-06
5.4025e-07
0.000100651
2.23832e-09
1.83089e-08
0.00118818
2.55369e-08
7.77882e-07
5.89213e-07
2.03603e-06
1.2224e-06
1.16809e-08
0.00162275
1.30811e-05
2.47244e-09
1.20995e-08
4.65677e-09
0.000427671
0.000113574
1.85868e-08
0.000637652
1.24168e-07
7.25358e-05
0.00282734
0.000398954
0.00281963
0.001837
0.00221777
4.50781e-10
2.8372e-06
8.42785e-08
3.44172e-06
1.48644e-05
2.21435e-06
2.01804e-09
3.97675e-07
1.4686e-08
3.20221e-07
0.000761567
2.89593e-07
8.86883e-10
0.00178389
1.39278e-07
0.000207822
1.83537e-07
4.11143e-07
4.74701e-09
3.87603e-07
2.12127e-07
0.00151228
2.09561e-07
3.56872e-08
1.49908e-07
2.60071e-05
0.00129742
0.0013139
0.00294006
4.90251e-09
0.000502806
0.00149673
0.00175316
0.00149458
2.33472e-07
0.00217388
2.68271e-07
4.69127e-09
5.42161e-09
6.31089e-09
0.00147152
0.00176859
5.60555e-09
1.46793e-08
8.394e-09
4.08774e-07
0.000298099
0.00368268
0.00135435
8.22686e-08
0.00247918
8.56019e-10
3.61607e-08
0.00108922
0.000804591
5.34431e-09
2.76988e-06
1.21883e-08
6.36099e-09
0.00352
6.34988e-09
0.000423285
1.17758e-09
0.00037871
0.000405408
0.000581334
0.0019092
3.24752e-07
0.00161739
1.26559e-08
1.18045e-05
0.000460531
0.001247
0.00220786
0.00109662
7.53193e-09
0.00124437
9.0197e-09
1.59446e-08
0.00292726
1.64007e-07
6.61532e-06
5.65451e-08
5.18187e-08
0.000573426
1.43491e-06
3.25397e-09
1.49196e-07
4.3683e-07
0.00040328
0.00219835
2.72678e-07
7.60974e-09
0.000614681
1.86563e-08
1.56947e-08
5.11554e-08
6.0411e-07
0.00214186
3.7629e-09
0.00241694
8.4162e-10
0.000256107
0.00433602
8.69334e-09
2.99099e-06
0.00242906
4.98616e-05
5.13313e-06
2.47339e-09
0.00177912
0.00277879
5.08071e-10
0.000489106
8.39141e-07
0.000618779
1.49039e-08
8.51631e-07
5.13592e-07
3.52645e-08
7.775e-11
0.000345762
0.00131468
6.47234e-09
1.18404e-09
0.00218201
1.11158e-08
2.20907e-09
3.73875e-08
1.87638e-09
7.87565e-08
0.00354115
0.00209439
2.6573e-08
5.46128e-10
0.00221204
1.9881e-07
0.00270362
2.7931e-09
1.91415e-06
4.58522e-08
7.42976e-09
2.75204e-09
1.08033e-08
0.00333617
5.03978e-09
2.79329e-07
0.00027472
0.00237603
0.000453094
1.37906e-08
1.17337e-06
2.56799e-09
0.000229148
0.00228075
8.59676e-10
3.75213e-09
3.98044e-08
3.31086e-08
0.000502528
2.62036e-07
0.000529728
1.92291e-07
6.66686e-09
5.8919e-11
4.97852e-08
0.000221043
0.000394063
5.42079e-09
0.00384295
0.00245682
8.67646e-09
2.86423e-10
3.82271e-09
7.36188e-09
3.79682e-09
1.53808e-08
0.00275119
0.00062002
0.000514078
7.76043e-05
0.000348238
0.000381681
2.75213e-09
4.26798e-08
1.50275e-09
3.03872e-08
1.89109e-08
0.00234569
1.0776e-08
4.93394e-09
0.00111864
1.90187e-08
7.65848e-08
8.82528e-08
1.64794e-09
8.13046e-08
3.48377e-08
0.00219888
5.22711e-09
1.44596e-08
4.20926e-09
1.58365e-08
2.1081e-08
0.00375557
4.52673e-07
1.11929e-07
7.32261e-08
1.05895e-09
4.51605e-05
1.11702e-06
3.1329e-09
5.78216e-07
1.26115e-05
1.01222e-08
1.12783e-08
1.0388e-05
1.60008e-06
2.50575e-07
0.00304076
3.85515e-09
3.97013e-07
1.40201e-06
0.00282691
2.24648e-07
4.31275e-10
1.92038e-06
1.54213e-05
3.44556e-07
1.00604e-08
1.69405e-07
4.62031e-08
6.62005e-08
1.99371e-08
3.31474e-08
0.00186255
2.16107e-09
1.18222e-08
1.09632e-08
6.96039e-10
4.60872e-09
1.01893e-09
0.00421492
1.25649e-07
1.94994e-09
3.30546e-09
3.09819e-09
1.08093e-09
4.91723e-08
5.12371e-09
2.82075e-09
5.40517e-08
1.33832e-08
0.00220952
3.05616e-09
0.000384445
3.53656e-08
1.17944e-07
1.77263e-08
1.20991e-06
1.01612e-09
0.00315761
9.46609e-09
0.00178984
2.97621e-07
4.02427e-08
1.34625e-08
1.82873e-06
2.74752e-09
3.61888e-09
2.93756e-09
0.000259154
0.000626649
0.00213652
1.01236e-07
1.5714e-07
0.00227869
1.72353e-06
3.36505e-09
1.37435e-08
2.87359e-07
1.03206e-08
0.00411989
2.75957e-06
0.00307946
2.55653e-08
7.66223e-09
0.00158894
0.00144431
0.00174766
1.66038e-08
1.47005e-06
0.00186862
1.67427e-09
1.23334e-05
1.51496e-07
0.00177476
0.000459327
1.81585e-07
0.00230821
2.04549e-05
6.16749e-07
0.00205374
0.00216973
1.91873e-08
0.00237783
0.00300982
0.00180856
2.49282e-08
4.40364e-09
6.11441e-09
7.34611e-10
2.9066e-09
0.00163005
0.00275211
0.0018247
2.55666e-09
0.00303332
2.74753e-09
0.00228094
0.00249155
5.76711e-09
3.67419e-08
0.00165387
2.45881e-08
1.33628e-08
3.2026e-07
4.39859e-10
0.00256043
0.0019903
8.29029e-07
0.00163465
3.78206e-09
3.04768e-09
7.10325e-09
3.33096e-08
6.71787e-08
3.13229e-07
1.22124e-09
5.61592e-09
1.41879e-08
8.12402e-09
6.21644e-09
1.04399e-07
3.72468e-10
2.31485e-08
2.11814e-06
1.15521e-08
3.43821e-08
2.75737e-09
1.20215e-07
1.56352e-09
5.22751e-09
2.22204e-07
1.55798e-09
3.02444e-09
0.00188087
3.49209e-08
5.18519e-09
6.52795e-07
3.1207e-09
1.47469e-08
4.81237e-08
0.00185693
9.2864e-08
0.00220804
0.00148588
1.72343e-08
2.07319e-08
5.81429e-08
6.57554e-09
0.00157706
4.94866e-08
2.23547e-07
3.66549e-07
2.90634e-08
0.00235743
0.00149677
1.88289e-09
3.14333e-09
7.00795e-09
6.37165e-08
5.89095e-08
7.42828e-09
4.16184e-07
5.31119e-09
1.49337e-06
2.49616e-09
1.53355e-09
6.3075e-09
1.55477e-08
2.32978e-07
7.84242e-09
1.88901e-08
0.00429573
0.00144843
0.00257012
0.00155371
1.4917e-06
1.20907e-08
0.00201319
6.94306e-07
6.725e-09
0.000410059
1.31934e-09
1.4454e-07
0.00235104
4.41109e-08
1.27543e-07
2.30266e-08
4.25458e-08
0.00139989
8.2221e-09
9.57098e-10
2.03707e-07
2.64747e-09
4.68777e-07
5.95859e-06
6.70163e-08
0.00211101
4.19253e-08
0.000460353
2.57175e-07
0.00209882
3.87576e-10
5.0357e-09
2.6817e-07
3.86566e-09
0.00183882
3.83338e-07
0.00051824
1.49308e-07
1.8347e-07
1.33913e-07
2.65946e-08
8.51362e-09
4.92111e-08
3.00971e-06
4.01039e-08
2.5955e-06
0.00324749
5.32727e-08
0.00421533
5.6186e-09
2.47994e-09
4.56696e-06
0.00186429
1.40959e-08
1.34489e-09
9.01197e-07
5.68706e-08
3.36117e-08
0.00233972
1.34662e-08
6.13512e-07
0.00262077
1.35874e-09
8.05114e-09
4.1752e-07
9.70452e-10
8.18886e-09
0.00253087
5.29689e-09
0.00276773
2.31603e-08
2.1532e-07
3.90422e-08
0.000894189
5.96981e-08
2.79641e-08
1.48684e-07
0.00253482
1.58898e-06
1.2594e-08
9.31701e-09
1.24943e-07
0.00207262
3.44852e-09
5.18705e-08
6.30427e-08
1.60061e-06
0.00252796
0.000270094
0.0011906
1.74117e-08
0.000358086
1.32191e-08
8.96913e-07
0.000789944
1.15732e-08
0.000881257
3.29276e-06
4.85032e-09
2.64109e-09
1.20867e-08
0.00253348
1.52855e-08
2.41776e-09
2.6013e-07
1.12469e-08
5.74072e-09
0.000301482
2.70376e-09
4.47153e-08
0.00242955
1.26582e-06
4.52772e-09
0.00203795
3.25622e-06
6.48833e-09
1.38459e-08
1.2005e-05
4.29579e-08
2.23663e-07
1.67629e-08
4.13913e-08
6.06955e-08
4.74408e-06
0.00109778
4.84175e-08
0.00248239
1.51156e-08
3.79132e-08
0.00271655
3.0808e-08
7.83784e-08
9.58827e-09
1.29768e-07
0.00237014
3.02038e-08
2.13333e-08
0.00163505
5.79619e-09
0.00266886
1.40491e-09
8.23407e-09
1.04115e-09
8.40036e-09
0.0015168
5.41758e-08
1.39653e-09
2.57804e-09
1.42938e-08
5.291e-08
0.00255053
4.77025e-09
4.59493e-09
1.88634e-09
1.54995e-07
5.2799e-06
5.03104e-09
0.00156986
3.50684e-08
9.88209e-09
6.27634e-09
5.11722e-08
0.00042964
6.49709e-07
1.62792e-10
1.00572e-09
0.00182627
0.00217014
6.14476e-08
3.8523e-09
0.00183536
1.66252e-08
9.03214e-10
0.00356043
9.05015e-09
0.00275319
2.92197e-07
1.76692e-08
2.01932e-08
9.77443e-09
9.52511e-09
4.39297e-09
3.04551e-05
7.45383e-07
2.26879e-09
4.09816e-08
5.54973e-08
5.32847e-09
0.00257872
8.69629e-09
1.33173e-08
0.00197402
2.61968e-08
3.59168e-08
3.05006e-10
0.00228715
2.81467e-08
1.342e-07
3.26384e-09
3.70091e-08
4.04087e-09
0.00233766
5.9163e-09
7.05971e-09
0.000612363
1.07715e-08
7.11389e-09
0.0023317
6.54219e-08
3.86821e-10
3.13519e-08
5.94524e-09
0.00188357
4.42107e-07
6.00701e-08
3.47358e-09
4.0226e-07
1.41396e-07
8.68656e-09
1.38699e-09
1.03373e-09
3.40531e-08
1.04871e-08
8.13808e-10
7.7638e-09
7.27213e-09
1.13423e-08
0.00231617
6.96404e-07
1.4795e-08
2.04861e-09
9.41031e-10
0.00219982
1.94355e-08
0.00327808
9.41042e-07
0.0015858
7.43682e-10
0.00215252
0.00292639
9.01212e-09
9.42745e-09
8.96581e-08
0.00210517
0.0025164
3.06943e-07
6.96921e-09
2.49751e-07
1.0539e-09
2.21339e-07
8.74867e-09
9.43043e-08
1.66096e-08
1.46386e-09
3.91786e-09
8.47584e-10
6.20638e-09
9.06891e-09
3.80743e-09
5.07727e-09
1.5089e-08
9.02659e-08
3.09245e-11
3.37556e-09
7.46954e-10
5.65557e-09
1.52226e-09
1.76091e-07
0.00189959
0.00279691
4.51406e-09
0.00222559
1.3995e-08
3.06757e-09
4.46728e-09
1.64791e-06
1.8054e-07
7.18067e-08
9.9154e-10
1.10344e-08
2.14197e-09
7.96535e-09
1.59703e-09
1.29433e-08
1.41422e-07
0.00158842
2.44036e-09
2.12201e-08
0.00140346
0.0017843
0.00219802
0.00206392
0.00176511
4.65875e-08
3.77932e-08
2.88643e-09
7.86158e-09
7.59296e-09
1.3411e-06
3.93895e-09
2.94426e-08
3.41095e-08
7.19163e-09
2.2443e-09
2.66054e-09
7.43433e-07
3.15502e-06
3.9767e-07
6.01133e-09
1.68029e-09
3.22196e-09
0.00284199
2.5334e-09
0.00185271
1.05954e-07
8.78361e-09
7.52644e-07
0.00105424
6.75861e-08
4.04529e-10
3.76219e-09
3.20679e-08
1.50768e-09
2.35922e-08
8.26024e-10
0.00110406
3.45825e-10
4.18319e-08
0.00284535
2.98242e-09
0.00133042
5.86718e-08
0.0021666
9.7031e-08
0.00121969
3.55526e-10
0.00289492
0.00232084
2.78329e-08
4.08315e-09
0.00158368
1.99448e-08
0.00186963
1.67946e-08
7.88754e-09
5.03933e-10
1.6615e-08
2.05268e-08
1.4986e-08
6.3668e-07
0.00292332
0.00166187
1.22479e-06
3.78979e-09
3.47723e-07
0.00305617
0.00136138
0.00236576
0.00234398
5.32305e-09
6.04186e-08
2.74687e-08
1.24877e-08
0.00303578
6.51754e-09
0.00148775
0.00321496
5.51375e-09
3.13809e-09
0.00160516
0.00302781
2.83079e-08
9.24086e-10
0.00169035
8.88639e-08
2.56197e-09
4.6742e-07
9.53898e-08
0.000406488
7.13563e-08
5.68176e-08
2.47169e-07
2.69969e-07
9.07621e-08
3.92516e-09
4.85917e-09
1.06345e-08
2.03245e-09
2.05398e-08
8.68152e-09
1.89076e-10
2.18939e-09
0.00200653
0.00284307
3.4192e-10
2.54348e-08
6.66022e-09
2.79941e-09
4.81491e-07
1.94815e-08
2.36113e-09
0.00270667
0.00150581
0.00144867
0.00162335
4.88129e-08
0.00136233
2.5489e-07
0.00376685
7.32384e-10
0.00227615
2.73083e-08
3.64531e-08
1.55435e-07
6.13412e-10
0.00294106
1.85663e-07
0.00423664
5.92029e-09
9.48221e-10
9.11996e-09
8.96129e-09
0.00133979
0.00286832
1.37715e-10
3.30811e-09
2.43474e-08
0.00167431
4.03993e-09
0.00280326
3.40432e-07
1.92081e-09
5.78925e-09
0.00241519
3.51374e-08
0.00213607
8.20403e-08
0.00383029
0.00319961
7.75171e-08
3.67459e-09
0.00352898
8.62367e-09
8.51106e-07
0.000344638
1.56746e-08
1.396e-07
2.29284e-08
8.84057e-09
0.00300982
3.91865e-09
7.38461e-08
3.86793e-10
7.03458e-08
4.44878e-09
5.30165e-09
1.51419e-08
1.00941e-08
1.71267e-08
0.0029498
2.13602e-08
2.75706e-08
4.70415e-09
1.43085e-08
8.91471e-09
9.93448e-09
1.15772e-08
0.00217429
8.57849e-09
0.0029368
0.0018952
4.91003e-09
0.000360671
2.94655e-09
3.31924e-09
2.61971e-08
3.47988e-08
3.03742e-08
0.00152605
0.00202693
1.10357e-07
1.02402e-07
8.37618e-08
0.00305492
0.00110991
4.80801e-08
0.0021632
0.00439035
1.25169e-06
0.00258963
0.000410461
6.44912e-09
7.83141e-07
2.52046e-08
0.000563894
6.74525e-10
0.00252479
3.30281e-10
2.30885e-09
0.00063654
0.000341711
1.58045e-08
0.000460444
4.24045e-08
1.04502e-07
2.57832e-08
2.69095e-09
3.9468e-07
2.86674e-09
4.74011e-09
0.00243084
1.32389e-08
1.38796e-08
4.50103e-09
1.22013e-07
1.66375e-09
4.56908e-05
2.97179e-08
2.03672e-08
7.84044e-08
1.64087e-07
0.000297091
0.0022721
4.17779e-08
6.90758e-09
0.00236629
0.00234086
3.69868e-08
2.28277e-08
1.23673e-08
3.15364e-09
3.05997e-08
1.0922e-08
0.00200159
0.00433488
6.1122e-09
2.04955e-09
3.81794e-09
6.06061e-09
0.00246896
0.000394482
1.72566e-09
1.81212e-08
1.53228e-08
0.00211934
1.05181e-05
1.08969e-06
0.00194332
2.49269e-08
2.49483e-08
4.74749e-09
4.1179e-08
2.52533e-08
0.00220466
5.29368e-08
0.000310632
5.52026e-09
6.25647e-09
0.00320556
0.00260274
7.55878e-09
0.00306982
1.07366e-09
1.47316e-09
4.53027e-07
4.96097e-09
3.56699e-09
0.00179325
2.67035e-08
1.23893e-07
0.00385155
1.45372e-08
0.00155067
0.00300659
1.41845e-08
0.00319279
1.44475e-08
1.27617e-08
1.78708e-08
1.8707e-07
9.8562e-09
4.63594e-08
5.93905e-09
2.43055e-08
4.77761e-07
1.96273e-08
0.00232325
6.4312e-09
0.00301318
8.48336e-10
1.14621e-08
5.35578e-09
0.00231072
8.48309e-09
0.00223805
0.00192339
0.00309696
1.57001e-08
0.00209376
1.44743e-07
2.14898e-08
3.13026e-09
7.90645e-09
1.26943e-08
7.63164e-08
1.42214e-07
2.84706e-07
3.41773e-09
0.00282189
3.18841e-08
1.16579e-09
9.90888e-10
4.48728e-09
7.03766e-10
0.00200404
3.52561e-08
0.00294232
2.70053e-08
0.000624971
3.60053e-09
3.63938e-09
0.00176862
0.00346526
6.65802e-08
3.66762e-09
0.00375529
1.5676e-08
1.08901e-09
3.32655e-09
1.32072e-08
6.37748e-10
1.37457e-08
1.46144e-09
1.40779e-08
2.85498e-09
5.92084e-08
2.70196e-08
0.00246212
5.49224e-07
1.01707e-07
1.12228e-08
4.63623e-09
0.00208835
1.3973e-08
0.00298235
4.13513e-08
2.81085e-08
6.63284e-09
6.22015e-09
7.97759e-08
7.42724e-07
0.00129728
0.00121778
7.99045e-09
0.00369084
2.41368e-08
0.00276902
9.04555e-09
1.49574e-08
2.95083e-09
0.00259908
0.00127758
0.000427464
4.43645e-08
2.02958e-09
0.00128974
5.32069e-09
3.28074e-09
8.94403e-09
5.33814e-09
0.00237153
0.00202098
1.7889e-08
3.15028e-08
5.157e-08
3.88452e-09
3.23299e-06
1.80945e-06
6.22628e-09
2.44917e-08
0.00157764
8.79391e-09
3.11624e-08
1.08817e-09
2.99963e-08
4.45751e-09
0.00226808
4.55449e-09