/*--------------------------------*- C++ -*----------------------------------*\
  =========                 |
  \\      /  F ield         | OpenFOAM: The Open Source CFD Toolbox
   \\    /   O peration     | Website:  https://openfoam.org
    \\  /    A nd           | Version:  10
     \\/     M anipulation  |
\*---------------------------------------------------------------------------*/
FoamFile
{
    format      ascii;
    class       surfaceScalarField;
    location    "7.8";
    object      phi;
}
// * * * * * * * * * * * * * * * * * * * * * * * * * * * * * * * * * * * * * //

dimensions      [0 3 -1 0 0 0 0];

internalField   nonuniform List<scalar> 
214403
(
-0.00678013
0.00519875
0.000286943
0.00129443
-0.00336033
-0.0112972
0.000962301
0.0136952
-0.0103123
6.90065e-05
-0.000140758
0.0103841
0.00892328
-0.00599997
-0.0149564
0.0120331
0.0123666
-0.0156373
0.0037253
-0.000454582
-0.00542406
0.00564935
-5.48622e-05
-0.000170422
-0.000857937
-0.0016311
-0.00928633
0.0117754
-0.0171228
0.0097419
-0.00257232
0.0099532
-0.0234504
0.0165523
0.0167091
-0.00981104
0.0142983
0.00169657
-0.0159763
-1.85837e-05
0.00507016
-0.0100437
0.00206566
0.0029079
-0.0104116
0.0032766
0.0053944
0.00174062
0.000479956
-0.0115199
0.0138732
-0.00283324
-0.0100167
0.0100838
-6.70448e-05
0.00193182
0.0120119
-0.0153968
0.00145311
-0.0121411
0.0101503
0.0030773
-0.00108658
-0.0122059
0.0119103
0.000295644
0.00395249
-8.49102e-06
-0.00101205
-0.00293195
0.0157922
-0.00945178
-0.0209976
0.0146572
-7.62351e-05
-0.00312479
9.16239e-05
0.0031094
0.00644511
-0.00629386
-0.000151248
-0.0124502
-0.00430705
0.00428261
0.0124746
-0.00230131
0.0137338
-0.0110694
-0.000363081
0.00677447
0.000712837
0.00236415
-0.00985146
-0.0103144
-0.00495233
0.0133515
0.00191522
0.00925659
-0.0117255
6.93205e-05
0.00239962
0.00325153
-0.00284618
0.0106483
-0.0110537
0.00768758
0.0100567
-0.0121135
-0.0056307
0.0112556
-0.00705991
-0.00032043
-0.00387523
-0.00590242
0.00601684
-0.00011442
0.00245664
-0.00511434
0.0136338
-0.0109761
0.014235
0.000674652
-0.00248502
-0.0124247
-0.0056619
-0.00581051
0.00595056
0.00552185
-0.00120941
-0.00682196
0.00604334
0.00198803
0.00446011
-0.00310002
-0.00949512
0.00813503
-0.0017264
0.00861217
-0.00311135
-0.00377442
0.0161414
-0.000391038
-0.0157503
-0.00695033
0.0135554
-0.00660505
0.00125733
-0.014879
0.008612
0.00500967
0.00247419
-0.000994499
0.0060557
-0.00753539
0.00575754
-6.08371e-05
-0.00569671
0.0103182
-0.000222301
0.00183002
-0.0119259
-0.0130887
0.00164363
0.0139192
0.000867604
0.000891178
0.00868715
-0.0104459
-0.00414141
-0.0270782
0.0262574
0.00496219
0.00574298
0.00103689
0.00129811
-0.00807798
0.00427113
0.00323201
-0.0104338
0.0029307
0.0134633
0.00806936
-0.0147582
0.00121774
0.0114201
-0.00231968
0.00183214
-0.00686074
-0.00403683
0.00906543
0.00312226
0.00479891
0.00142759
-0.00934877
0.00186812
-0.00140252
-0.00432247
0.00385687
0.00691279
-0.0125123
0.0087218
0.0119909
-0.0112889
-0.00387355
0.0031716
0.0107042
-0.0019593
-0.00866104
0.0117433
-0.000499246
-0.00258298
0.00892057
-0.0114057
0.0001308
0.00235431
-0.00836333
0.000552548
0.0133647
-0.00555392
-0.0154438
-0.0145114
0.0121878
0.0177674
-0.0082592
0.00830935
0.00163475
-0.0016849
0.00130279
-0.0105565
-0.00862806
-0.000179614
0.00448507
0.00432261
-0.0135155
0.00580363
0.00874443
-0.00103253
0.0158539
-0.0127694
0.000816027
-0.00390053
0.000729308
0.000265386
-0.0104543
0.00945964
0.000523391
-0.00287203
0.0142025
-0.0118538
-0.0350794
0.00364949
0.00389893
0.027531
-0.00323972
0.00953804
-0.00302179
-0.00327652
0.00468627
-0.00246769
-0.00999867
0.00778009
0.00112364
0.00698432
-0.00887923
0.000771276
-0.000174255
0.00856804
0.00298142
-0.0113752
-0.00170117
-0.000269611
-0.00354205
0.00551283
-0.00906695
0.00991137
-0.000377203
-0.00046721
0.000317286
-0.00914655
-0.00640508
0.00567315
0.00172207
-0.00099015
-0.0170515
-0.00107634
0.00832174
0.00980611
-0.00516557
-0.00220144
0.00439496
0.00297206
0.00758096
-0.0254246
0.00352528
0.0143183
-0.0039679
0.0079857
-0.00436121
0.00034342
0.00569802
-0.00442313
0.00056396
-0.00183885
0.000129082
-0.0106885
0.0105594
3.27197e-05
0.00867789
-0.00871061
0.00766396
-0.00149987
0.00101624
-0.00718033
-0.00457583
0.00652877
0.00216391
-0.00411684
-0.0032324
0.0137708
-0.00330959
-0.00722885
0.00650003
-0.0110762
-0.000422822
0.00499895
0.00743647
0.00786977
-0.0153062
0.0109705
-0.0123286
0.00315904
-0.00180094
0.00106572
-0.00197931
0.0143223
-0.0134087
0.000410946
-0.00231614
0.010316
-0.00841081
0.00244692
0.0215873
0.00622105
-0.0302552
-0.0188781
0.0166077
0.0107669
-0.00849655
0.000867197
0.00664977
-0.0089412
0.00142423
0.0087976
0.00978088
-0.00320306
-0.0153754
0.0163655
-0.00994159
-0.000327715
-0.00609622
0.000713876
-0.0020928
-0.00657107
0.00795
-0.00665042
3.78779e-05
0.00661254
0.00994146
0.000343618
0.000685384
0.0123541
0.00104096
-0.0187812
0.00538613
-0.00990556
0.00218778
0.00176025
0.00595752
-0.00627566
0.0015562
0.000771626
0.00394783
0.00154156
0.00110236
-0.0130722
0.0104283
-0.00268386
-0.0156195
0.00995835
0.00834503
0.0062517
-0.00739555
-0.00481933
0.00596318
0.010106
-0.000110137
-0.010106
0.000110119
0.00774976
-0.010952
-0.00380285
0.00700509
0.0200536
-0.00606774
-0.00312525
-0.0108606
0.011358
-1.88983e-05
-0.0104474
-0.000891706
-0.00572064
0.00673739
0.0140413
-0.015058
0.0122683
-0.0043088
-0.0117982
0.0038387
0.0022592
-0.00329929
0.0143556
-0.0133155
-0.0162169
0.0147808
0.0140113
-0.0125752
0.000730281
-0.0126263
0.00487326
0.00702275
0.0158003
-0.000837796
-0.000321308
-0.0146412
0.0111243
-0.00216813
0.00215126
-0.0111075
-0.0129085
-0.0117383
0.0138934
0.0107534
-0.00244686
0.00701823
0.0019024
-0.00647377
-0.0055282
0.000301323
0.0107148
-0.00548793
-0.00123193
0.0138744
-0.0129136
0.000271093
-0.0119446
0.0110933
0.00215989
-0.00130862
-0.000400839
-0.00697104
0.0166285
0.00221105
-0.00736978
-0.00538444
0.0105432
-0.00585128
7.69782e-05
0.0057743
0.00179387
0.00815735
-0.00754587
-0.00240536
0.0129943
-0.0074922
-0.0019907
-0.00351138
8.65902e-05
-0.00381722
0.00373063
-0.00733253
-0.00197558
0.00275389
0.00655422
0.000754042
0.00415235
-0.00931766
0.00441127
0.0158812
-0.00143389
0.00620708
-0.0206544
0.00114252
-0.00140151
-0.0192797
0.0195387
0.001244
-0.00551246
-0.00729251
0.011561
0.000466711
0.0100346
-0.000559836
4.02677e-05
-0.00589493
0.00585466
0.0122312
-0.00453585
-0.00548428
-0.00741694
0.00619458
-0.00611016
0.0134921
-0.0112289
-0.00136015
-0.00090304
0.0013533
-0.00639987
0.00279808
0.00224849
-0.011014
-0.00333355
0.00223828
0.0121093
0.00916432
-0.0148915
0.0098116
-0.00408447
-0.000408578
0.0134474
-0.0134667
0.000427881
-4.36008e-05
0.0122466
-0.0121341
-6.89057e-05
-0.0171154
0.0136591
-0.010964
0.0144204
0.0142782
-0.0138181
-0.000460076
-0.0130806
0.0175207
-0.00320348
-0.00123659
-0.0116893
0.00281063
-0.000880303
0.00975898
-0.0192755
0.00148539
0.0123934
0.00539675
0.00342717
-0.00468023
0.00260635
-0.004713
0.00535861
0.00862074
-0.00926635
-0.00513073
-0.00230258
0.00293615
0.00449715
-0.00693942
0.00454074
-0.0087719
0.0111706
0.00208849
0.000167857
-0.0153369
-0.00682996
0.00681582
1.41476e-05
0.00747965
-0.00718999
-0.000289667
-0.0112913
-0.000738154
-0.00300529
0.0027869
-0.0148622
0.0173098
-0.00523453
0.00669464
0.0115206
-0.0146508
-0.00356443
0.0127897
-0.0138916
0.000373033
0.000728837
0.00681194
0.00177073
-0.00704141
-0.00154126
-0.0107678
-0.000598855
0.0141535
0.00618828
-0.000447412
-0.00754377
0.0018029
0.00697324
-0.00597046
0.00687765
-0.00788043
-0.0121778
0.0022872
0.0165853
-0.00411273
-0.00577118
0.019054
-0.00917005
-0.00587285
-0.00646845
0.00157354
0.00175297
0.004642
-0.0122678
-0.00830388
-0.000732222
0.0133432
-0.00430715
0.00129462
0.00204196
0.00742101
-0.0107576
-0.00395859
0.00969018
-0.00573159
0.00313966
-0.0150342
0.00542612
0.00895849
0.00625641
-0.0134619
-0.0126753
0.000152501
0.0157948
-0.00327207
0.00213846
0.00183212
0.00572639
-0.00969697
0.00851024
-0.00857509
6.4849e-05
0.00320861
-0.00121139
0.0107709
-0.0127681
0.0112787
-0.0035759
0.00542341
-0.0131262
0.0207252
-0.00666356
0.015466
-0.0295276
0.00339428
0.00631537
-0.00262345
-0.0070862
-0.0093654
0.00385356
0.00491126
0.000600572
0.00671121
-0.00505594
-0.000137812
-0.00151746
-0.00436184
-0.00553174
0.0161076
-0.00621406
-0.00751955
0.00975628
0.00389666
-0.00613338
0.0113189
-0.000618828
-0.00372686
-0.0176141
0.0116419
-0.000967257
-0.0167978
0.0154975
0.00719719
-0.00589684
0.0107148
-0.0120756
-0.00174239
0.00310324
0.00604909
-0.0109285
-0.00572504
-0.00623338
-0.00571993
0.00323253
0.00872077
-0.00889918
0.00276309
0.00878317
-0.00264708
0.01028
-0.0097801
-0.00673339
0.00623346
6.42176e-05
-8.92101e-05
-0.00963461
0.0096596
0.000232279
-0.00847066
-0.000321806
0.00856018
-0.00243626
-0.0144487
0.002269
-0.0083515
0.00751236
-0.00142985
-0.00569115
-0.00239811
-0.000809919
-0.000192859
0.0142879
0.000203211
-0.0341009
0.0239888
0.0173372
-0.00722507
-0.0100754
0.00068548
0.000365729
0.00902422
-0.00200618
0.031933
-0.0375717
0.00764487
0.0015914
0.0024547
-0.00550838
0.00146228
-0.021572
0.011625
0.00150265
0.00844444
-0.00025547
-0.0143262
-0.00203805
0.0166197
-0.00596848
0.0216075
-0.0149703
-0.000668789
0.00968909
0.0140851
-0.0130188
-0.0107554
-0.0115638
0.0110123
0.0136784
-0.0131269
0.00447733
0.00625643
-0.00779284
-0.00294092
0.00446281
-0.0030104
-0.00714356
-0.0229749
-0.00090358
0.0187706
0.0051079
0.00673893
0.00102983
-0.0039152
0.00693069
0.00927814
-0.00856698
-0.00764185
-0.0114698
0.00255496
0.0111887
-0.00227385
0.00136514
0.00360171
0.0125538
-0.0133141
0.0131474
0.00127442
-0.00110777
0.00822122
0.00644631
-0.00581029
-0.000230136
-0.0016347
0.00767512
-0.00880096
-0.00175002
0.0048948
-0.0169759
0.0072203
0.00486082
0.00051696
0.0091545
-0.0101584
0.000486978
-0.00352827
0.000682412
-0.00328067
0.00612653
0.0141654
-0.0101243
0.000421759
-0.00802309
-0.00627633
0.00844275
0.00585667
0.0303267
-0.0324419
0.010596
-0.00848082
-0.00581509
0.00722561
0.00291065
-0.00432118
-0.0133007
0.00578139
0.0115965
-0.0040772
-0.00576884
0.00837422
0.0107704
-0.0133758
0.016183
-0.00626021
-0.0107132
0.000790359
0.000281768
-0.00393593
0.00957486
-0.0059207
-0.00166439
0.00165085
-0.0126617
0.011616
0.00377661
-0.0124366
-0.002956
0.0145894
-0.0119673
-0.00322101
0.00306873
0.00454056
-0.0107346
0.00312531
-0.00598814
-0.0109861
0.00975788
0.00721631
-0.00183026
-0.00475169
-0.00144114
0.00596073
-0.00636893
0.013724
-0.0133158
0.00144415
-0.0166226
0.0151785
0.00566206
-0.0074052
0.00481187
0.00306745
0.00177031
0.00251498
-0.00735273
-0.000310864
-0.0138436
0.0141544
-0.00754763
0.00100258
-0.00244912
0.00899417
-0.00090573
0.010482
-0.0095542
-2.20399e-05
-0.00711962
-0.00376817
0.00411097
0.00677682
-0.00265452
-0.00629536
-0.00584689
-0.00859412
0.00716834
0.00727268
0.000315724
-0.00881714
0.0152135
-0.0062554
-0.000809886
-0.00814819
0.0080616
-0.00076929
-0.00588145
-0.00141087
-0.00128859
0.0113608
-0.0141881
0.00411585
0.0073341
0.000282153
0.00357032
-0.0111866
-0.000269622
-0.0060293
0.00290959
0.00338933
-0.0041715
0.00542843
0.0104931
-0.01175
-0.0147727
-0.0038293
-0.00413254
0.0136239
-0.0126247
0.000297054
0.00396034
0.0083673
0.00121533
-0.00447763
-0.00797587
0.0112382
-0.00578731
-0.0112971
0.00285053
0.0142339
-0.00528812
-0.00586359
0.00610155
0.00505017
-0.0136718
0.0131591
0.0138869
-0.0133742
-0.0018515
-0.00323187
-0.00973369
0.0148171
-0.013328
0.00135821
0.0135651
-0.00159528
-0.00231541
0.00622163
-0.00390622
-0.0054006
0.00998282
-0.00751524
0.00293301
-0.000234671
0.0179478
-0.00666186
-0.0110513
-0.00642141
-0.00310254
0.0128885
-0.00336454
0.00207149
-0.00543419
0.0123313
-0.00896856
0.000564235
0.00800094
-0.00140171
-3.69725e-05
-0.013138
0.0131281
4.68845e-05
0.0149671
-0.00265051
-0.0218761
0.00955952
-0.0138221
-0.00135456
0.017258
-0.00208134
-0.00750178
0.0113337
0.000930445
-0.00476237
0.00668437
-0.00660162
-8.2754e-05
-0.00799843
0.000771567
-0.00690159
0.0141285
-0.0115441
0.0159089
-0.00331755
-0.00104726
0.00719397
-0.00301739
-0.00867469
0.00449812
-0.0139025
0.0140274
-0.000124966
0.0114554
-0.0166582
0.00134712
0.00385569
-0.0129793
-0.00355312
0.0221956
-0.00566319
0.00957556
-0.000399059
-0.00201152
-0.00716498
-0.00545915
-0.00925832
0.0206782
-0.000973396
-0.0136629
0.00826734
0.0215145
-0.0240024
-0.00227756
0.00476544
0.00575
0.00274141
-0.00635295
-0.00602367
0.00627896
-0.000255282
-0.00245743
0.013729
-0.00087159
-0.0104
-0.00298984
0.00354636
0.0119263
-0.0124828
0.00779077
0.0182839
-0.0106983
-0.0153764
0.0133607
-0.01603
0.00509603
-0.0024267
0.0121582
0.000170312
-0.0123285
0.000225416
0.0118329
-0.0120583
0.0133392
-0.0161474
0.0142635
0.000144387
-0.000122342
0.0103792
-0.0104012
0.00026633
0.0189135
-0.0188421
-0.000337755
-0.00161628
-0.00477928
-0.00967274
0.0160683
-0.00591755
-0.00354666
0.00118828
0.0111946
-0.0194814
0.00709853
-0.00945764
-0.00247992
0.01014
0.00179755
-0.0111514
0.0123143
-0.00328945
0.00212656
0.00175972
0.00916832
-0.00311889
-0.00780915
-0.00444911
0.00110696
0.00754393
-0.00420177
-1.19383e-05
0.00340444
-0.00426829
0.000875782
-0.00475501
0.0116307
-0.00670438
-0.000171268
0.00347712
-0.0109708
-0.00640883
7.73784e-05
-0.0102309
0.0101536
-0.00379513
-0.00364164
0.00168894
0.00574784
0.00572223
-0.00330116
-0.00242107
0.0143126
-0.0142139
-0.00289961
0.00280097
-0.00129928
-0.00845438
0.00779604
0.00195761
-3.54556e-05
4.77685e-05
0.00766224
-0.00767455
0.00382212
-0.00314123
-0.012161
0.0114801
0.00882192
-0.000219398
-0.00860252
-0.0129096
-0.00835968
0.0124581
0.00881119
0.00756733
0.0118577
-0.0203984
0.0071851
-0.0025857
0.00404543
-0.00864482
-0.00287691
0.00285395
-0.0158307
0.0158537
0.00448567
-0.00883363
-0.00859647
0.0129444
-0.000906831
-0.00203211
0.00957138
-0.00663245
0.00667496
-0.00820387
0.00297287
-0.00144396
0.00364706
-0.00604522
-0.00584306
0.00824122
-0.0117687
0.013252
-0.00352963
0.00204634
0.0133836
0.0172218
-0.0189609
-0.0116445
-0.010364
0.0103194
4.45882e-05
-0.00116064
0.0122455
-0.0152969
0.00421202
0.000475522
-0.000777536
-0.0117637
0.0120657
0.0115813
0.000486264
-0.0133258
0.00125832
-0.0049336
-0.00833943
0.0104875
0.00278557
-0.0119222
0.0168916
-0.00598086
0.00101147
-0.00492452
-0.00601695
0.00357169
-0.000731733
-0.000124419
-0.00847371
0.00932987
-0.0276831
0.00011087
0.00248274
0.0250895
0.00109599
-0.00704292
-0.00364523
0.00959217
0.0172873
-0.00142071
-0.00559579
-0.0102708
-0.00308216
-0.00665726
0.00129366
0.00844576
0.00485145
-1.86218e-05
-0.00483283
0.00811985
0.00432707
-0.00269317
-0.00975376
0.00629007
-0.00498151
0.0124086
-0.0137172
0.000407964
0.012908
-0.00426585
-0.00905006
0.00313338
0.00447241
0.00968153
-0.00618939
0.000439628
0.00574976
-0.00803748
0.00113738
0.00213254
0.00134846
-0.0111193
0.0076383
-0.0105119
0.0153812
0.00465832
0.0158935
-0.0033676
-0.0171842
-0.0100911
0.00991032
-0.0156836
0.0158643
-0.00151669
-0.00760579
0.00266041
0.00646207
-0.00838521
0.0158217
0.00469792
-0.00546885
0.0012241
-0.000453174
-0.00518274
-0.0165295
0.00517466
0.0165375
0.0108607
-0.0108391
-9.78715e-05
7.62196e-05
0.00878406
-0.0102518
0.00218531
-0.00071756
0.0022537
0.00881631
-0.0157058
0.00463581
3.76384e-05
0.00758019
-0.00761783
0.00491113
-0.0125866
0.00992921
-0.00474744
0.0127468
0.0107368
-0.0187362
0.00362495
-0.0036892
-0.0171577
0.0172219
-0.00517135
0.00856756
-0.0171848
0.0137886
-0.0123193
0.00980898
0.0128621
-0.0103518
-0.00772783
0.0105874
-0.00684047
0.00398088
-0.00162462
0.00707827
0.00115159
-0.00660525
0.00359803
-0.00524613
0.00541012
-0.00376203
0.00676835
0.00251837
0.00222623
-0.011513
0.0193006
-0.0131051
-0.000788475
-0.00540701
-1.02917e-05
-0.00935921
0.0093695
0.00586178
-0.00857261
-0.0262836
0.0289945
-0.00117718
-0.0127424
-0.0038634
0.017783
-0.000775128
-0.00587044
0.00664557
0.00178604
0.00847109
-0.00133783
-0.0089193
-0.00236833
-0.00854814
0.00689863
0.00401785
0.00659348
-0.00552202
-0.00969952
0.0168427
-0.0131087
0.00370201
0.00392205
-0.00762406
0.012708
-0.000326656
-0.0015256
-0.0108557
-0.00243862
-0.00414775
0.00658637
0.00455063
0.00302368
0.025421
-0.0305736
-0.010801
0.0159536
0.00390875
0.00832726
-0.00636906
-0.00586694
-0.00890148
0.0170324
0.0113253
-0.0194562
0.0100272
0.00348041
-0.00134237
-0.0121652
0.0166132
-0.0110775
0.00714843
-0.0126841
-0.00929426
0.0042496
-0.0116501
0.0166948
-0.0151371
0.0271288
-0.0106335
-0.00135818
-0.000400326
-0.00648852
-0.00894247
0.0158313
0.012291
0.00507748
-0.014423
-0.00294546
0.00657468
-0.0175278
0.011064
-0.0001108
-0.0155046
-0.000590791
0.0101454
0.00595003
-0.00311121
0.00804168
0.00349835
-0.00842882
-0.00197171
0.0079076
0.00636089
-0.0122968
-0.0161502
0.00830805
-0.000787211
0.00862935
0.00148336
-0.00440963
0.00876134
-0.00583506
0.00684134
-0.00344149
0.00244194
-0.0058418
0.00663399
0.00127565
0.000652861
-0.0085625
-0.00981814
0.0105343
0.00390174
-0.00461788
-0.00232136
0.0124273
0.00025227
-0.0103582
0.0100246
-0.00588565
-0.00388754
-0.000251421
0.00868204
6.75691e-05
-0.00874961
0.00634695
0.0049144
-0.00111445
-0.0101469
0.00296184
0.00781678
0.00668957
-0.0174682
-1.69417e-05
-0.0140511
0.014068
-0.00733628
0.0283785
-0.00413545
-0.0169067
-0.000134035
0.0105744
-0.0104404
-0.000707705
-0.0076271
0.00136982
0.00696498
-0.0137984
0.00702999
0.005338
0.00143041
0.00281585
0.00234283
-0.0161346
0.0109759
0.00824831
0.0130293
-0.00486965
-0.016408
0.0124102
-0.00425217
-0.0118786
0.0037206
-0.0155161
0.00884755
0.0236498
-0.0169812
-3.93774e-05
0.00592942
-0.00592964
3.95944e-05
-0.00613478
0.00607082
6.39597e-05
-0.015783
0.000242649
0.00663891
0.00176228
0.00381082
0.0104309
-0.016004
0.00824285
-0.00980403
0.0063233
-0.00476213
-0.0078642
0.00688751
-0.000261254
0.00123794
-0.00164975
-0.0129549
0.0165868
-0.00198216
-0.00579154
0.00278886
0.0091699
-0.00616721
0.0100573
-0.00387675
0.00148408
-0.00766461
-0.00669172
-0.00116659
0.00783353
2.47802e-05
-0.00114591
-6.13694e-05
0.0108847
-0.00967744
0.00139032
-0.00116883
0.0109229
-0.0111444
-0.00982452
0.0137311
-0.0143874
0.0104808
6.70968e-05
-0.0123849
0.0123178
-0.00440933
0.000386931
0.0111165
-0.00709407
-0.00847435
0.00990738
-0.0135113
0.0120783
-0.00868377
0.000657898
0.00264143
-0.00401597
0.0108809
0.000604653
-0.00746958
-0.00290503
0.00040501
-0.00491692
-0.0042828
-0.0139123
0.0139757
0.00421946
-0.00619711
-0.000726297
-0.00155694
0.00848035
-0.0212394
0.0071794
0.00209295
0.0119671
-0.00673061
0.0154011
-0.00765103
-0.00101944
0.00469919
0.00184351
-0.00944773
0.009255
0.00943748
-0.0186925
0.00124085
0.020296
-0.00469774
-0.0168391
-0.000257433
-0.000359554
-0.00893604
0.00955303
-0.0097412
0.0160481
-0.00646914
0.00016221
0.00924828
-0.00584053
-0.0083819
0.00497414
0.00230374
-0.000308927
0.00282
0.014208
0.00397438
-0.0205585
0.00237611
-0.00984006
-0.00128408
0.00322703
0.0078971
0.00373214
-0.00413813
-0.00561096
0.0171249
-0.0115191
0.00894968
-0.0145555
-0.00189426
0.0110561
-0.0191218
0.00996001
0.00664456
-0.0083969
-0.000850959
0.00260329
-0.00735647
-0.0025605
-0.000248486
0.0101655
-0.00547939
-0.00518173
0.0106611
0.00137652
-0.0147012
0.0130386
0.000286165
0.00563926
-0.00543763
-0.00568101
-0.00919498
0.0116692
-0.0022242
-0.000250054
0.0131652
0.00362147
-0.0141837
-0.00260303
-0.00508815
-0.00744157
-0.000854251
0.013384
0.00833629
-0.00253641
0.00966668
-0.0154666
-0.00930144
-0.000523081
-0.0111465
0.00596473
0.00143686
-0.0125008
0.00399978
0.00706414
0.00362856
-0.0129926
0.00715626
0.00220774
0.00194141
0.000510932
-0.00974356
0.00729122
0.0014932
0.0063839
-0.000430204
0.0109342
-0.00216059
-0.0083434
-0.00429156
-0.000437397
-0.00401253
0.00874149
-0.00253839
-0.00341922
0.00653768
-0.000580059
-0.0101697
-0.000144641
-0.0172023
0.00617567
0.0090549
0.0244444
-0.000199084
0.0033321
-0.0275774
-0.01069
0.0166113
0.00336722
-0.00928851
-0.00304776
0.00167092
0.0105237
-0.00914688
0.00127744
0.00362603
-0.00280531
-0.00209816
-0.0183845
-0.0037932
0.0158667
0.00631101
0.000401524
0.00774617
-0.00155422
0.000236916
0.00390996
-0.0122688
0.0081219
-0.00760366
-2.69006e-05
0.00280386
0.0048267
-0.010387
0.0128365
-0.00204795
0.00586146
-0.00528548
-0.000575988
-0.00866623
0.00124916
-0.00673186
0.0141489
-0.00390817
0.00588114
-0.00453295
0.00255998
-0.00841286
0.0094737
-0.003915
0.00285416
0.0037945
-0.000623739
-0.00901214
0.00584138
-0.00376241
0.0235836
-0.0317434
-0.00343972
-0.00240064
0.00235058
0.00348978
0.0112284
-0.0175279
-0.000795513
0.00709504
-0.00475042
0.00354501
0.00610902
-0.00490361
-0.00140833
0.00750369
-0.00206913
-0.00402623
-0.00844476
0.0018735
0.00197379
0.00459747
-0.00468941
0.000402986
0.00428643
0.0108613
-0.00517195
-0.00551076
-0.00017855
0.000792738
0.00540098
-0.00819789
0.00200417
-0.00581483
-0.00704917
0.00718791
0.00567609
-0.00300147
0.0077471
-0.00664474
0.00189911
0.00280884
-0.00531743
0.003665
-0.00115641
0.0101641
0.000276221
-0.0104404
0.00875323
-0.0107772
0.00533304
-0.00330911
-0.0137394
-0.00040394
0.0141434
0.0056695
-0.00470299
0.00109638
-0.00206289
-0.000446924
0.00974342
-0.0106341
0.00133761
-0.00489422
0.00612713
0.00157593
-0.00541017
0.0115914
0.0107103
-0.00924276
0.00916249
8.0274e-05
0.000254443
-0.0146108
0.0143563
0.0197355
0.00238574
-0.00420959
-0.0179116
0.00412037
-0.0160796
-0.0019922
0.0139515
0.0031378
0.00371013
0.00208459
-0.00893252
-0.00553126
-0.00553901
7.46341e-05
0.0109956
-0.0026389
0.00362822
-0.00652058
-0.0121713
0.00219753
0.0159779
-0.0060041
-0.0238885
0.0174948
0.00770017
-0.0013064
0.010565
9.14792e-05
-0.0106565
-0.0059879
-0.00805644
0.0052109
0.00883344
-0.00602884
-0.00875561
0.0026131
-0.00868906
0.00472036
0.0054619
0.00352422
-0.00458284
-0.00841008
0.0094687
-0.00594842
3.94276e-06
0.00594447
-0.0138452
0.00562794
0.00571604
0.00250126
0.00350266
-0.00936495
-0.00282676
0.0118968
-0.00377315
-0.000300412
-0.00782324
-0.00798146
0.0132255
0.00785038
-0.0130944
-0.00233998
-0.00491378
0.0018052
0.00544856
-0.0033752
-0.00271468
0.00608988
-0.00587424
-0.0123474
-0.00566695
0.00275294
3.54501e-05
0.00555464
-0.00834302
0.0113071
-0.00823502
-0.0119082
0.00883614
-0.00419503
0.00149517
0.00847693
-0.00577708
0.00797079
-0.00561136
-0.000790249
-0.00156918
-0.00914006
0.00148373
0.00713939
0.000516934
-0.00566336
0.0130128
-0.0140948
0.00549549
0.000407622
0.00819171
0.0132096
-0.0105505
-0.00831179
0.00565262
-0.0104971
0.00218591
0.0196183
-0.0102186
-0.00673731
0.0109981
0.00595782
-0.00119378
0.0106437
-0.00403763
-0.00541227
0.000603537
-0.0062467
-0.00412035
0.00976352
0.0121173
-0.00799389
-0.000491667
-0.00363179
0.0037374
0.00279202
-0.00916831
-0.00254716
0.00288394
0.00711219
-0.00744897
-0.00210814
0.0110202
-0.0135833
0.0046713
-0.00659498
0.0015906
0.00159657
0.00340781
-0.0144886
0.0147384
-0.000249724
0.00996829
-0.00982465
-0.000143645
0.00401051
-0.0154927
-0.00594845
0.0174306
0.00355585
0.00676371
0.00157724
-0.000170876
0.00592267
-0.0057518
0.0094619
0.00848066
-0.0179426
-0.0105421
0.00643567
0.004549
-0.0004426
-0.00592046
0.00195101
0.00481333
-0.000843877
-0.0176698
0.00824631
0.00969158
-0.000268065
-0.00573801
-0.00639769
0.00618728
0.00906341
-0.00142682
-0.00584201
-0.00179458
-0.00978051
0.0105649
-0.00644775
0.00172418
-0.0109424
-0.000559776
0.009778
-1.2432e-05
-0.00535915
0.00537158
0.0264194
0.00021219
0.00280811
-0.0294397
-0.000990863
-0.00193912
-0.0142847
0.0172147
0.00458946
-0.00621374
-0.00289729
0.00452157
0.00177904
0.0136611
-0.00552511
-0.00991499
0.0149049
-0.0149134
-3.52915e-05
4.3812e-05
-0.00836027
-0.00754372
0.0117907
0.00411324
0.0048814
0.0037368
-0.00972966
0.00111146
6.92347e-05
0.00904679
-0.00924568
0.00012966
-0.0124548
0.00398845
0.010094
-0.00162766
0.00958544
0.00579494
-0.00970405
-0.00567633
0.000226687
-0.00851772
0.00432983
-0.00221904
0.0127941
-0.0069023
-0.000898851
-0.0010773
0.00887846
-0.0114873
0.000603346
0.0108839
0.0168324
0.00727354
-0.00545647
-0.0186495
-0.0109915
0.000236838
0.0109813
-0.00100823
-0.00262468
-0.00670211
0.010335
-0.00134071
-0.00131914
-0.00353565
0.0061955
0.00277061
-0.0140545
0.0105964
0.000687467
0.00872541
-0.00136166
-0.00848982
0.00112607
-0.0108137
0.00226695
0.000880363
0.00766634
-0.00411067
0.00268922
-0.00554463
0.00696608
0.00236667
0.00149949
-0.0139326
0.0100664
0.000487231
-0.00943947
-0.000657904
0.00961014
0.00936658
0.00122548
-0.00015825
-0.0104338
-0.0111755
0.00260416
0.0101129
-0.00802445
-0.0106552
0.0186797
0.0154939
-0.00790004
0.00333426
-0.0109281
0.00121658
0.00871037
-0.00533749
-0.0125176
0.00230442
0.00443475
0.00577839
0.0154475
-0.0159047
0.000457166
-0.00932807
-0.00316705
0.00652938
0.00596573
-0.0121189
-0.00941466
0.00631109
0.0152225
0.0126608
-0.0132231
-0.00161803
0.0021803
-0.00184118
0.00614437
-0.00484289
0.000539704
-0.0158223
0.00515731
0.00363579
0.00702922
-0.02332
0.0290261
0.00481287
-0.010519
0.0103901
-0.0225278
-0.00115296
0.0132907
-0.00924987
0.0117466
-0.0217681
0.0192713
-0.00972128
0.0214209
0.00212806
-0.0138277
0.00085372
0.0101485
-0.00236739
-0.0086348
0.0154284
-0.0115719
-0.000389041
-0.00346747
-0.00271453
-0.00260728
0.00398426
0.00133755
-0.00732096
-0.0152151
0.0129673
0.00956876
-0.0103481
0.0137846
0.0119918
0.00839122
-0.00616862
-0.00768771
0.00546511
0.00311517
-0.00403096
-0.00178041
0.0026962
0.00689248
-0.00681569
-0.00908425
0.00900746
-0.00279557
0.00801965
-0.000580236
-0.00464384
-0.011091
-0.0017675
0.0137123
-0.00837943
-0.00206043
0.0103595
8.03965e-05
0.00341293
-0.00762496
0.00421203
0.00272776
-0.00362308
0.0135014
-0.0126061
0.0105292
-0.0148049
0.00214284
0.00213282
0.00671037
-0.00724039
0.000530019
-0.0106311
0.000283049
0.00952708
-0.00362813
-0.00919139
0.00329245
0.00298637
0.0024247
0.0106295
-0.0160405
0.00654169
-0.00710384
0.000562149
-8.14313e-05
0.00828142
-0.00936223
0.00116223
-0.0116805
-0.00112629
0.0155345
-0.00505
-0.000863148
0.00116671
0.00474644
0.000697658
-0.00576534
0.00425269
0.000814997
0.00944086
-0.00903645
-0.00224559
0.00108107
0.0155671
-0.00980385
-0.00684437
-0.00536285
0.0113423
-0.00597948
-0.0145066
0.00555551
-0.00340475
0.0123559
0.0114323
-0.0103557
-0.0168989
-0.00554604
-0.00663653
0.0228086
-0.010626
-0.0163176
0.0103947
0.0148127
-0.00888984
-0.000365142
-0.0139263
0.0142915
0.0220994
4.48359e-05
-0.0127327
-0.00941148
0.012808
-0.00824926
-0.00113927
-0.00341943
-0.00934484
0.00663566
-0.00167762
0.0043868
0.000127464
-0.00958492
0.00945746
-0.00703765
0.0072438
-0.000206152
-0.00509834
-0.00538714
-0.0138058
0.0242912
-0.0130028
0.00283664
-0.00145448
0.0116206
0.00300836
0.0048819
0.0133363
-0.0120349
-0.00995285
0.00865142
-0.00370571
-0.00763843
0.00842739
0.00291675
-0.0076972
-0.00391505
0.0116232
-1.0941e-05
0.00251391
-0.00144741
-0.00711799
0.0060515
0.00849684
0.000375931
-0.0108603
0.00198753
0.00262116
-0.00182152
0.00280666
-0.0033861
0.00337353
-0.00279409
0.00694487
0.00680267
-0.00694567
-0.00680188
0.00341532
0.00797505
-0.00825227
-0.00313811
0.00725435
0.0031454
-0.00570056
0.0089764
-0.0108849
0.00228445
-0.0119282
0.00833886
0.00448942
-0.000900066
0.0141938
-0.00469859
-0.0148581
-0.0037642
0.0101164
0.00508008
0.00986963
-0.00480828
-0.00831215
-0.0022643
-0.00135176
-0.0132664
0.0124153
0.00116679
-0.000315726
-0.00082515
0.0165806
-0.00171791
-0.0140376
-0.010776
0.00219638
0.00481543
-0.00173946
-0.0109849
0.00308674
0.0096376
0.00990844
0.00137395
-2.39118e-05
-0.0112585
-0.0147948
-0.000125356
0.000102888
0.0148173
-0.00380191
0.00416464
-0.00676081
0.00639808
-0.0101905
0.0128883
-0.00133062
-0.00136723
0.0133891
-0.0125035
-0.0110761
-0.00991012
0.00893354
-0.00283736
0.00381394
0.00801332
-0.000361083
-0.00252055
-0.00513169
-0.0149801
0.0144473
0.00707859
-0.00654573
0.00709106
0.00270081
-0.000900461
-0.00889141
0.00256888
0.00650923
-0.00814182
-0.00093629
-0.00481812
0.0048465
-2.83744e-05
-0.00281966
-0.0072
0.00722409
0.0108347
-0.0107407
-9.39687e-05
-0.00613327
-0.00488007
0.0047996
-0.00063617
-0.00734611
-0.000803142
0.00878542
-0.000830233
-0.00639124
0.00571326
0.00150821
0.0100942
-0.0114734
0.0013792
-0.0128592
0.0132051
0.0120761
-0.0124221
-0.00866675
0.006694
-0.00456076
0.00653351
-0.00345928
0.00147835
0.00313189
-0.00115097
-0.000365912
0.0156486
-0.000136702
-0.015146
-0.00789514
0.00382766
0.00388787
0.00451671
0.00574823
-0.0100293
-0.000235619
0.000435663
-0.0124585
-0.000489473
-0.0113135
0.0113093
4.22447e-06
-0.00758656
0.00381968
-0.00835205
0.00257701
-0.00570297
0.000228673
0.00495328
0.00215081
0.00749708
0.000146199
-0.00641097
-0.00123231
0.00627634
-0.0156598
0.0125552
-0.00317182
0.00259397
-0.00353471
0.0131461
-0.0122054
0.0161123
0.00475004
-0.00247788
-0.0183845
-0.00410475
-0.00672864
-0.00218171
0.0130151
0.00487659
0.0203216
-0.0183509
-0.0068473
0.00234156
0.0147176
-0.0142075
-0.00285161
-0.00507466
0.00066962
0.0104009
-0.00599589
-0.00177869
0.014457
-0.00780176
0.0104542
-0.00825366
-0.0032219
0.0010214
0.00342459
0.00896359
-0.0123882
0.00839512
0.00186281
-0.00111882
-0.00913911
-0.00771922
0.00616869
0.000620692
0.000929842
-0.000752112
-0.0109054
0.000634827
0.0110227
-0.00800798
-0.00101676
-0.000335341
0.00936008
0.00461663
-0.0102376
0.000101621
0.00402449
0.00611151
8.72941e-05
0.00664872
-0.00673602
0.00082249
0.0116521
-0.0297784
0.0173039
0.00328178
-0.00826926
0.00785654
-0.00286906
0.00471023
0.00537687
-0.00372423
-0.00636287
4.87732e-05
-0.00596522
0.00591644
-0.00322856
-0.0022904
0.0130749
-0.00755589
-0.00398827
0.0133232
-0.0115015
0.00216658
0.0146093
-0.0101507
-0.00980402
0.00534543
-0.00600259
0.00406267
0.00185919
8.07391e-05
-0.000802879
0.00459198
-0.00246535
-0.00132375
0.0156838
-0.0122592
0.00730056
-0.000843707
-0.0119505
0.0054936
-0.00333341
0.00311689
0.00373441
-0.0035179
0.000189993
0.0149967
-9.51753e-05
-0.0150915
-0.0109415
-0.00360513
0.0148333
-0.000286676
-0.00311091
-0.00132852
0.0034151
0.00442476
-0.00651133
0.008852
0.00624789
-0.0132443
-0.00185559
-0.00272546
-0.0017754
-0.0118443
0.0163451
0.0155999
-0.012338
-0.0217425
0.0184806
-0.00607675
-4.52008e-05
0.00612195
-0.00735748
-0.00388804
-0.00122718
0.0124727
-0.016224