/*--------------------------------*- C++ -*----------------------------------*\
  =========                 |
  \\      /  F ield         | OpenFOAM: The Open Source CFD Toolbox
   \\    /   O peration     | Website:  https://openfoam.org
    \\  /    A nd           | Version:  10
     \\/     M anipulation  |
\*---------------------------------------------------------------------------*/
FoamFile
{
    format      ascii;
    class       volScalarField;
    location    "7.8";
    object      T;
}
// * * * * * * * * * * * * * * * * * * * * * * * * * * * * * * * * * * * * * //

dimensions      [0 0 0 1 0 0 0];

internalField   nonuniform List<scalar> 
111485
(
303.15
285.114
300.976
303.15
298.414
283.15
298.924
293.395
296.331
286.255
300.517
296.204
300.213
284.577
299.976
286.768
299.302
297.972
294.048
303.15
303.15
283.15
297.243
288.707
301.543
303.15
293.201
300.617
288.865
303.15
300.732
294.314
303.15
283.15
283.45
283.15
302.284
297.597
283.149
296.598
283.15
289.603
297.016
302.883
303.191
303.15
287.385
288.565
289.643
303.15
303.15
283.15
303.15
298.921
303.15
293.5
287.906
283.15
283.322
295.444
295.845
303.15
302.053
300.271
283.15
284.556
300.299
291.535
302.107
302.529
303.163
301.897
303.15
302.104
303.15
295.364
283.15
293.467
283.15
283.15
283.239
293.371
283.15
303.15
300.312
284.212
283.15
301.547
303.118
299.084
283.342
289.586
300.861
300.374
289.779
303.15
303.15
301.547
303.149
283.416
303.15
286.666
283.15
285.172
285.754
283.15
283.15
293.061
301.453
283.146
298.904
288.07
301.291
301.7
303.15
301.977
303.15
283.15
300.125
303.15
303.15
283.15
283.15
283.15
283.4
303.151
283.15
301.81
303.15
283.177
303.085
301.939
303.15
283.15
283.15
292.499
283.15
294.209
298.78
301.085
303.137
296.805
298.96
284.774
302.278
297.793
283.15
303.15
283.15
297.126
284.931
303.15
303.144
287.323
283.156
293.71
295.621
302.523
283.154
303.15
303.15
292.174
286.25
283.153
283.157
301.177
283.686
283.15
283.152
283.152
283.15
303.15
283.206
283.15
291.533
287.175
283.15
303.15
303.15
283.15
303.15
303.15
297.634
293.493
295.779
289.766
301.376
300.415
283.19
303.15
301.441
303.15
303.15
300.149
286.282
301.404
301.326
295.745
303.15
300.88
284.599
283.16
300.774
297.053
303.15
300.407
288.205
303.15
283.226
300.175
284.808
300.678
303.15
303.15
300.693
283.15
292.767
283.15
300.597
298.703
290.371
303.15
301.75
300.529
283.15
283.15
283.15
289.494
283.157
283.15
303.15
298.639
291.371
289.919
283.15
303.15
303.107
303.15
284.333
300.073
299.25
299.498
299.367
283.15
283.144
298.844
283.15
283.15
288.753
288.363
283.15
301.179
298.863
303.15
283.15
301.013
303.15
303.15
303.121
303.15
288.268
285.865
290.786
303.15
298.324
303.15
303.15
303.15
283.148
298.087
300.967
299.408
291.198
299.466
296.224
283.211
290.332
291.579
283.15
303.15
283.149
292.442
298.73
286.461
303.15
297.979
297.242
298.875
302.96
283.166
297.086
299.347
301.997
283.15
283.608
283.15
283.149
303.15
283.89
290.26
286.314
303.15
283.15
297.574
285.246
303.15
303.15
303.15
284.587
290.239
301.055
284.403
293.014
283.15
283.15
303.15
298.335
303.15
283.821
289.499
283.152
283.15
303.15
303.15
283.15
294.338
289.964
283.15
295.695
283.15
303.15
301.068
297.28
293.968
295.803
283.15
283.15
283.15
296.592
291.008
302.362
283.15
283.15
283.15
290.085
296.928
283.213
290.475
283.15
292.784
299.544
284.199
298.678
285.263
283.15
303.15
283.15
303.15
290.671
296.636
287.942
291.937
283.15
286.36
283.15
303.15
293.802
303.15
301.769
303.15
283.15
291.947
283.15
288.781
284.625
283.15
283.985
298.012
283.15
300.134
284.67
298.826
303.023
291.056
286.002
283.15
303.15
303.144
283.15
300.978
300.848
283.15
283.15
294.695
284.368
298.18
296.811
283.15
295.117
296.106
283.15
302.049
283.898
303.15
303.15
288.252
298.576
283.15
303.15
303.15
303.15
300.729
283.15
303.15
293.936
283.171
286.971
299.957
283.15
283.15
302.609
283.15
302.458
301.435
297.847
288.842
283.15
293.907
303.381
303.15
298.628
292.3
303.15
283.15
283.306
283.15
290.034
286.103
291.649
283.15
292.869
296.571
293.062
303.147
283.15
303.15
303.15
283.169
292.727
283.15
284.32
303.133
283.15
303.15
303.15
303.15
301.817
290.522
285.998
284.191
284.315
283.15
285.702
303.15
300.728
283.15
303.15
303.15
300.667
303.15
303.15
283.151
303.15
283.15
300.667
283.15
283.15
283.15
303.15
283.15
303.15
283.15
283.666
283.15
303.126
301.843
283.745
283.15
303.084
283.15
303.15
284.712
284.673
286.121
297.51
283.15
297.473
297.586
292.292
286.815
285.27
303.15
291.76
283.15
299.851
283.15
296.775
283.15
292.079
298.573
303.151
283.15
286.795
303.15
295.491
299.074
283.15
283.15
283.15
283.15
303.15
293.67
283.15
283.15
283.238
283.15
299.805
283.15
284.798
303.15
283.435
303.121
284.638
291.901
283.15
301.451
283.15
283.15
285.695
283.15
283.255
283.15
299.658
303.15
290.661
303.15
283.15
302.377
284.47
300.074
285.659
300.072
289.467
283.15
300.618
284.55
283.15
283.14
300.333
301.583
283.15
282.445
301.055
303.063
283.118
303.15
287.571
302.165
284.406
285.393
288.203
282.551
283.15
303.15
300.599
303.15
283.548
283.15
283.15
291.761
282.674
303.149
303.117
283.15
286.279
299.57
283.15
283.15
299.583
303.15
283.15
283.15
283.15
286.16
283.15
303.15
284.825
284.223
303.15
299.677
283.15
289.248
303.15
283.15
286.157
283.15
283.15
283.15
285.373
283.15
285.448
291.957
303.15
300.36
283.448
298.696
300.934
283.316
283.458
283.15
288.964
298.426
303.15
302.258
296.022
296.861
284.717
297.426
297.177
303.15
300.239
303.136
283.15
297.13
284.83
283.15
292.364
295.707
284.851
298.753
300.617
292.323
283.15
298.893
283.47
303.15
300.576
301.961
294.076
283.15
286.493
303.15
283.15
283.15
283.15
283.301
283.15
303.15
303.15
283.15
300.397
299.235
303.15
285.624
303.15
303.15
303.15
290.018
283.419
283.15
303.15
283.15
283.15
286.811
292.372
283.15
295.124
283.136
283.15
295.299
302.218
287.778
283.15
283.15
300.235
292.079
283.15
283.15
283.15
293.98
303.15
303.15
283.15
296.226
302.377
283.15
282.403
301.755
286.533
283.15
283.15
287.451
302.966
283.15
283.159
287.266
283.755
288.78
283.15
285.692
300.298
283.15
303.15
283.15
283.15
283.15
283.15
295.655
303.15
283.15
283.15
295.27
291.804
303.15
303.15
289.851
298.411
298.309
303.15
283.15
297.984
303.15
283.829
298.812
298.334
303.15
303.15
303.15
283.15
286.06
283.15
283.15
302.701
303.15
297.803
302.274
283.15
294.041
283.256
296.422
291.962
283.418
289.779
283.15
283.15
296.869
288.047
290.828
283.15
283.15
297.835
294.966
283.15
283.908
284.591
283.477
303.15
303.15
303.15
290.734
283.15
300.044
283.15
284.375
297.582
298.5
292.252
283.15
283.15
303.15
295.359
283.15
283.15
303.098
283.15
283.15
303.15
283.15
299.313
283.15
283.15
283.15
283.15
283.15
303.15
283.15
283.172
298.758
303.15
302.53
283.131
283.4
283.095
285.517
283.15
284.453
290.52
283.4
303.15
283.149
299.728
283.15
300.243
283.146
283.143
286.203
297.481
283.206
291.869
297.975
283.15
283.15
299.051
299.793
283.15
297.344
291.266
297.54
283.15
283.244
283.15
297.853
296.974
283.15
300.056
297.621
283.149
299.761
283.15
295.64
283.144
303.124
283.162
283.16
283.15
283.15
284.424
283.15
302.97
283.589
283.064
303.148
303.149
303.147
283.15
283.15
293.783
303.15
303.179
283.872
283.15
283.15
303.154
303.149
283.15
303.165
283.15
283.15
303.15
303.15
303.15
303.15
283.363
283.15
283.15
283.15
303.157
283.305
283.89
293.435
283.15
283.15
283.336
283.15
283.15
283.15
287.235
293.585
283.15
283.15
283.15
283.15
283.15
283.15
284.009
283.15
303.15
291.567
283.15
303.15
303.15
303.153
303.15
303.15
283.15
303.171
283.15
283.697
283.144
303.152
283.15
303.063
284.397
292.075
303.15
303.128
284.448
303.15
283.15
303.15
283.15
294.025
293.472
284.641
303.148
283.15
293.236
283.15
283.15
303.15
283.15
294.835
283.15
303.15
283.163
298.15
303.15
284.377
283.15
283.578
283.15
283.15
283.15
303.15
285.851
283.47
284.261
283.15
283.15
285.638
283.15
283.15
303.15
284.328
303.164
298.544
303.15
303.127
303.128
283.15
303.131
283.15
283.442
289.148
301.007
283.803
283.167
283.15
283.15
283.15
303.183
283.15
302.903
303.15
292.731
303.15
288.728
283.826
303.15
283.15
303.15
283.15
301.791
303.15
303.15
286.411
300.555
283.15
283.15
283.15
283.15
283.15
283.15
300.809
283.58
303.15
303.15
303.157
303.15
300.188
284.42
283.15
302.112
303.15
301.627
283.15
302.568
283.15
283.148
303.152
283.312
302.111
300.227
283.147
283.15
289.35
303.15
293.374
303.15
283.15
303.15
283.15
283.15
283.15
300.808
302.052
303.15
303.15
303.15
302.901
283.15
303.15
292.884
283.084
303.15
297.508
298.296
296.48
283.376
283.15
283.15
283.15
283.15
294.623
283.15
294.877
283.15
303.058
289.845
283.15
302.858
283.15
283.15
302.739
283.148
302.919
283.15
303.15
283.15
302.389
283.15
303.15
283.15
283.148
283.15
283.171
283.15
283.15
303.15
292.984
301.088
296.122
297.016
303.15
303.116
283.15
283.15
285.695
283.15
283.158
302.843
298.772
302.944
303.15
283.359
283.15
303.15
283.15
302.994
283.319
298.291
283.15
303.15
288.099
303.15
283.15
283.125
295.098
283.147
283.15
283.15
283.149
303.15
283.15
303.142
303.15
303.15
289.947
302.988
302.995
289.016
293.25
283.15
283.15
303.09
289.086
283.15
303.15
284.729
283.15
303.15
283.15
283.15
283.15
297.475
283.15
302.941
283.15
300.506
283.15
283.15
283.15
283.15
283.15
283.15
285.015
283.15
283.15
283.15
283.15
283.15
283.15
291.998
283.15
298.358
302.936
283.15
302.323
283.15
302.517
303.145
292.298
288.793
303.15
292.164
284.783
303.109
303.15
303.139
295.053
288.675
283.15
287.895
283.15
283.15
283.15
283.15
287.521
283.15
283.15
291.648
303.136
285.318
283.15
283.15
302.518
283.15
283.184
303.15
299.886
283.15
283.15
302.822
283.15
303.178
303.15
283.15
289.058
297.956
292.709
285.664
292.547
294.128
283.15
283.15
302.289
290.597
292.771
284.41
283.15
294.371
283.15
303.15
300.738
298.722
283.15
297.409
283.15
292.766
297.208
303.15
283.15
283.15
301.778
283.15
283.15
300.505
296.131
283.196
291.227
283.15
283.15
302.799
300.523
283.15
300.642
283.15
300.497
283.15
283.15
300.802
283.15
283.228
301.595
283.15
283.15
302.43
283.15
287.922
303.15
290.418
303.15
303.15
303.15
300.95
283.15
283.15
299.537
283.15
302.992
283.15
283.15
303.15
283.151
288.211
283.15
283.15
288.073
288.253
283.15
283.677
283.15
303.15
302.417
283.726
301.569
283.15
283.15
283.15
283.15
283.15
283.15
283.15
283.15
283.15
283.15
283.15
303.15
283.15
283.15
283.15
283.15
283.15
283.15
283.15
283.15
303.15
286.963
283.15
283.15
283.15
294.701
283.15
303.15
302.903
283.15
283.15
294.707
283.15
283.15
301.827
295.185
283.15
303.651
303.594
283.15
301.508
293.955
297.545
301.471
298.126
303.15
283.15
296.369
291.77
301.413
283.15
302.144
302.414
300.868
288.046
287.323
301.054
301.776
301.78
303.15
285.867
297.533
285.532
297.237
283.15
283.15
283.15
303.15
283.15
291.984
297.905
283.15
283.15
283.15
283.15
283.15
303.15
283.15
303.15
292.134
303.116
299.011
302.84
283.15
283.15
285.413
283.167
283.15
283.15
301.696
303.15
283.15
298.142
299.5
297.513
298.644
300.799
303.15
291.044
302.586
303.15
303.15
300.323
303.15
283.15
282.978
295.549
302.949
283.15
303.15
289.599
286.159
297.131
292.183
302.398
303.15
303.137
303.15
303.15
283.15
298.937
283.15
291.801
290.458
299.686
284.771
303.15
301.923
303.15
283.15
303.15
303.15
291.499
299.573
283.15
303.15
303.133
291.779
303.031
299.339
292.805
288.329
292.909
283.15
303.15
283.15
291.242
298.293
303.151
303.15
303.15
303.15
297.477
302.557
283.15
299.957
301.131
284.864
299.505
303.15
303.15
298.675
292.96
283.15
302.904
299.741
302.607
291.975
297.298
298.243
303.15
286.99
298.165
291.341
283.15
289.061
303.15
288.402
301.058
303.15
288.715
301.28
300.129
293.168
283.149
283.159
283.238
301.648
300.92
303.15
288.825
301.482
303.15
283.15
303.15
303.21
298.754
290.817
296.775
303.253
283.149
297.543
303.15
303.15
292.786
303.15
300.304
283.305
301.319
291.532
303.15
283.663
293.209
303.15
283.05
298.671
303.15
300.688
286.258
303.15
303.15
283.997
303.15
283.15
283.15
285.919
299.247
291.178
303.15
285.225
297.482
283.15
298.838
298.873
288.978
303.099
283.15
301.503
299.618
298.838
300.079
288.666
290.789
302.481
303.15
301.554
288.723
303.15
298.849
283.15
283.15
303.15
283.15
303.15
297.438
283.15
300.52
283.634
303.15
283.792
283.15
289.848
303.15
303.144
303.15
294.163
302.994
303.118
299.873
290.417
289.45
290.593
298.43
303.15
299.4
292.169
298.937
303.15
283.874
283.452
299.257
287.176
283.512
303.15
283.15
303.15
285.331
303.15
303.323
284.691
303.354
302.955
303.15
303.15
283.15
300.55
300.63
285.498
303.087
287.007
295.668
301.876
292.502
288.16
302.08
296.096
283.15
283.15
303.15
285.819
289.71
283.15
283.15
303.15
301.988
288.681
303.15
296.388
303.15
283.156
285.191
301.087
303.15
303.15
292.28
303.15
283.301
290.622
283.15
297.145
294.642
296.083
303.15
302.711
283.15
302.664
293.417
303.15
303.15
288.797
283.15
303.15
301.802
284.442
303.15
303.15
283.15
302.348
303.466
289.501
299.699
298.031
303.15
303.159
302.606
303.15
283.15
303.15
303.15
303.15
303.15
303.15
303.15
303.15
283.15
303.15
303.15
283.341
303.15
303.337
303.15
303.16
303.15
303.15
300.941
303.679
303.15
292.03
303.15
303.15
283.15
302.558
303.15
302.13
303.114
283.29
283.15
303.15
302.924
283.149
303.15
303.15
291.373
283.15
292.594
283.15
283.15
283.153
291.22
284.846
303.15
296.66
283.15
303.74
303.134
284.318
302.593
283.15
292.171
303.084
301.682
283.15
303.15
283.15
304.094
284.825
296.883
303.15
303.15
303.15
303.15
303.15
303.15
302.346
302.807
297.625
292.034
303.15
287.14
292.644
284.981
303.206
283.15
286.921
302.751
284.779
283.148
287.488
303.15
283.382
302.918
292.535
302.844
301.907
303.15
302.225
303.15
303.15
297.933
303.15
284.474
303.15
303.15
283.15
303.15
303.15
302.844
303.15
283.298
283.15
283.15
285.813
284.915
300.902
286.099
303.15
294.723
303.15
290.465
303.15
287.149
300.685
301.484
293.363
303.15
303.15
303.15
289.815
283.15
303.15
289.568
283.15
283.15
301.824
303.15
286.199
283.148
283.15
303.15
303.15
300.658
298.189
303.15
293.434
303.038
283.15
298.567
303.15
286.422
288.243
302.145
303.15
296.29
296.743
302.953
301.882
301.66
303.15
303.15
303.147
303.15
283.15
303.15
289.572
300.064
294.342
302.132
283.15
300.362
291.401
298.222
283.603
298.326
289.606
302.164
283.15
283.15
283.15
302.21
283.15
290.479
283.15
301.266
303.161
289.726
298.049
283.15
303.15
301.254
301.232
303.15
283.15
303.15
286.438
301.443
302.977
302.337
298.014
288.45
303.15
303.15
303.15
294.248
285.969
289.804
295.88
283.96
302.955
303.15
303.15
283.15
283.15
285.427
299.582
303.15
303.15
283.15
303.15
303.15
303.15
300.26
303.15
285.365
292.505
283.15
283.248
293.37
285.703
303.15
303.15
301.888
303.15
299.237
283.146
297.576
303.15
303.15
283.15
303.15
303.15
303.15
305.211
303.15
301.841
301.117
303.15
303.15
301.62
303.15
283.15
287.254
303.105
303.15
303.15
303.15
297.93
303.15
303.15
302.478
302.489
301.78
303.15
283.15
303.15
302.045
302.51
301.527
302.532
283.15
300.652
287.504
297.454
283.15
303.15
303.15
303.15
303.15
294.376
287.574
299.657
303.15
303.15
303.15
303.15
283.15
303.148
284.775
285.152
283.15
303.15
303.15
283.148
299.596
294.959
283.15
303.15
303.15
303.15
303.15
289.62
289.68
303.15
303.15
302.397
303.15
301.446
283.953
291.9
303.15
283.15
301.165
303.124
303.15
303.077
301.323
286.831
303.15
303.15
303.15
303.15
293.294
284.15
303.15
302.697
298.067
289.459
303.15
303.15
303.15
303.15
299.539
303.151
303.15
303.15
298.262
302.585
288.354
303.15
303.15
297.75
303.15
303.15
303.15
303.15
288.821
303.15
283.15
283.15
295.942
291.105
303.15
303.15
303.15
297
303.146
303.15
303.15
303.15
303.15
303.41
300.882
303.15
287.346
302.643
299.39
303.15
303.15
303.15
303.15
283.15
285.663
303.15
302.844
283.15
302.18
303.15
303.134
303.15
283.15
301.922
285.721
283.15
302.827
303.15
302.42
283.15
303.15
303.15
303.151
303.15
283.271
303.15
290.861
283.15
283.15
303.15
303.15
298.833
302.382
283.15
302.417
283.15
284.097
288.004
302.706
283.15
303.155
302.988
303.134
284.397
283.156
302.983
283.15
283.15
283.156
302.077
302.293
303.15
283.15
283.15
295.388
303.15
283.15
303.15
303.15
303.15
303.108
303.046
302.931
302.45
303.15
302.905
303.15
284.823
303.15
303.15
283.15
303.15
303.11
303.15
283.15
303.15
288.329
303.15
303.15
303.167
283.15
302.864
302.106
296.715
303.15
289.364
294.569
283.82
290.002
283.15
283.15
287.224
284.323
283.15
303.81
283.15
286.425
303.15
283.15
303.156
303.15
303.15
303.013
303.155
303.15
283.15
303.138
303.15
283.15
283.105
298.747
302.704
303.15
301.849
303.15
285.716
303.152
301.187
303.15
303.15
301.051
303.15
303.15
303.15
287.705
303.15
285.153
303.15
303.147
303.15
283.15
283.15
303.15
303.15
303.15
288.723
302.551
303.15
303.15
288.595
286.512
291.267
303.15
302.703
287.685
287.541
303.15
303.15
287.713
283.15
291.911
303.15
303.152
303.149
303.15
300.526
283.15
302.303
283.15
303.15
303.15
303.15
303.15
303.15
284.334
302.251
291.05
303.15
303.15
290.583
303.15
303.15
303.15
303.15
303.15
300.156
303.15
303.15
283.15
299.461
303.15
283.15
303.15
301.374
283.15
299.964
290.765
302.687
300.026
299.443
303.15
303.15
303.15
300.832
288.487
283.15
303.15
300.322
303.15
303.15
291.977
303.15
287.492
303.15
297.831
284.32
303.15
283.15
303.15
303.15
303.15
285.255
303.15
300.493
303.15
303.15
299.704
283.15
284.753
303.15
303.15
288.118
301.537
296.423
303.15
303.15
303.15
301.554
292.28
303.15
283.15
303.15
300.67
303.15
284.776
296.303
303.15
303.15
301.139
303.15
303.15
283.15
303.15
283.15
294.567
303.15
283.15
303.15
303.15
303.15
303.15
303.15
303.15
283.15
301.503
283.15
302.08
303.15
303.15
296.071
300.479
303.15
283.15
303.15
300.884
283.15
303.15
303.15
303.15
300.733
303.15
297.679
303.15
285.836
283.15
286.736
303.15
303.15
298.499
283.15
303.15
287.86
283.245
303.15
303.15
285.082
283.848
300.854
301.734
301.188
293.153
301.739
283.848
303.15
297.715
283.15
283.15
303.15
303.15
303.15
301.209
303.15
303.15
303.15
303.13
283.169
283.15
283.558
303.15
302.017
283.15
303.142
296.104
283.15
294.587
303.15
303.15
283.15
299.889
283.929
303.15
283.15
299.915
303.15
297.663
303.15
295.311
303.15
283.15
303.15
283.15
299.422
283.15
283.227
283.15
286.205
303.15
303.15
283.15
283.15
303.15
303.15
303.15
303.15
284.881
284.748
283.15
303.15
283.233
283.15
283.15
303.154
289.868
283.537
283.15
301.5
284.876
300.465
288.177
303.15
303.15
303.15
303.15
283.15
283.15
283.15
303.15
283.15
283.15
303.15
283.15
297.284
283.15
303.15
283.15
303.15
303.15
283.323
283.15
303.15
301.946
303.149
303.15
303.15
303.15
288.73
283.15
303.15
303.149
283.15
303.15
303.15
303.15
295.236
283.15
283.181
303.15
303.15
303.15
303.15
303.15
303.149
303.147
284.103
303.15
283.15
303.15
303.149
303.15
303.148
303.149
283.15
283.15
283.15
303.15
303.15
283.15
303.149
283.15
287.708
283.15
301.815
283.15
303.154
303.15
284.61
283.15
284.453
297.382
303.15
284.694
303.173
303.15
297.389
283.15
303.15
303.15
303.15
303.15
283.15
303.15
303.15
299.156
283.15
303.15
303.15
303.15
303.15
292.325
290.397
303.17
283.165
303.15
301.812
302.314
303.15
283.15
283.15
303.15
303.15
303.15
283.15
283.15
283.822
303.15
303.15
303.196
303.151
283.15
288.857
303.15
283.15
303.15
288.077
303.15
283.15
302.118
283.15
283.15
283.15
303.15
299.68
303.15
303.15
303.15
283.15
284.505
293.6
295.218
289.547
303.12
303.018
283.15
283.15
301.023
283.693
283.15
303.149
303.15
303.15
283.15
294.551
303.15
283.15
302.979
303.15
303.15
283.795
303.15
303.15
288.408
289.552
303.15
283.15
303.15
283.15
303.15
303.15
303.15
303.15
283.947
303.15
303.15
303.15
302.928
303.15
303.15
283.15
283.15
283.15
283.15
302.942
283.15
283.15
300.965
303.15
284.771
284.931
303.15
301.123
303.15
283.15
303.15
283.15
283.15
303.15
303.15
303.15
302.661
303.15
303.15
303.15
283.15
303.15
283.15
286.37
303.15
303.15
291.614
303.15
283.15
283.15
302.417
303.15
303.147
283.15
303.193
286.661
283.15
283.15
299.203
283.15
283.15
303.047
303.161
293.329
303.167
303.151
303.152
283.15
283.15
302.644
283.454
285.833
300.841
283.157
283.15
291.048
301.564
301.461
283.15
300.212
290.699
300.142
302.202
302.746
284.686
295.481
299.206
286.259
293.302
300.098
303.15
297.952
297.568
302.788
283.66
292.36
301.139
287.335
303.15
301.053
303.15
300.718
301.493
283.634
284.978
303.15
283.15
302.278
301.686
283.146
303.173
288.553
302.676
301.838
300.822
303.15
303.231
301.123
295.078
300.424
288.961
302.911
301.628
302.187
302.27
284.213
302.501
301.591
283.178
303.15
302.894
303.15
303.15
302.095
302.001
294.273
303.15
284.668
292.299
292.339
300.924
303.15
284.012
285.192
284.39
303.15
298.774
303.15
296.371
295.381
300.752
303.142
303.15
303.15
301.943
301.259
302.783
303.15
292.619
302.743
289.958
283.15
298.347
293.997
303.15
300.506
283.15
283.203
283.15
302.574
303.098
303.15
302.98
298.387
283.148
300.499
302.22
295.328
283.536
295.855
297.068
283.461
303.133
284.737
296.317
283.319
296.867
300.503
300.247
300.351
302.001
289.837
301.573
303.15
302.717
302.648
302.65
296.495
302.883
283.15
302.013
293.435
303.15
283.434
286.842
301.193
302.598
290.529
284.824
287.708
302.622
296.384
303.15
303.15
295.014
283.15
292.684
283.431
303.15
290.568
290.317
283.913
303.15
297.291
298.492
284.226
301.236
294.178
290.179
300.535
303.107
303.15
303.15
283.53
302.611
283.349
285.794
303.15
303.017
303.037
303.15
285.419
300.791
297.848
283.246
299.568
302.372
300.51
286.901
283.15
303.106
301.818
283.737
283.138
303.15
303.072
303.15
303.15
284.179
302.528
296.372
283.035
283.153
303.15
283.15
302.949
303.043
302.501
301.407
303.15
283.15
283.15
301.816
301.872
283.215
295.876
303.15
303.15
301.614
285.493
283.259
301.676
301.777
301.726
284.408
303.15
283.15
298.459
297.76
303.15
302.702
302.081
284.722
284.974
302.111
303.053
303.15
298.134
284.434
283.15
303.15
300.578
301.215
302.015
289.62
302.073
285.658
300.141
300.272
290.347
297.534
303.15
303.15
300.935
284.463
302.092
283.151
300.504
301.709
283.624
288.308
302.421
283.15
283.15
283.029
303.15
303.15
299.935
298.943
302.287
283.147
283.15
283.937
283.151
283.15
283.152
303.075
300.93
299.175
295.888
283.368
303.097
300.138
303.15
283.15
302.558
289.234
300.78
292.704
283.504
303.061
283.148
283.15
302.836
301.207
302.614
283.156
291.3
284.873
303.15
284.26
301.039
283.15
283.31
284.94
284.177
283.15
283.15
301.634
283.15
289.384
302.528
302.704
301.778
283.481
298.352
290.055
283.15
303.342
292.099
283.15
283.15
283.15
303.15
301.203
302.415
299.175
301.468
299.92
288.861
283.155
290.996
290.166
303.059
291.096
299.985
292.072
283.15
286.297
301.084
301.541
283.15
283.979
299.636
283.15
303.15
283.188
301.28
303.15
284.021
302.258
303.02
303.15
283.15
292.805
303.153
301.692
283.15
283.15
283.15
302.197
297.579
303.143
302.195
303.166
303.15
288.385
303.166
290.449
300.229
300.189
296.593
283.156
301.701
283.15
290.601
301.413
289.467
290.498
298.984
300.695
301.599
287.183
291.149
285.026
283.172
302.218
286.132
283.149
283.144
300.211
283.079
300.303
287.006
296.061
299.436
289.214
299.278
283.121
299.136
283.15
290.005
289.107
298.668
283.33
283.15
300.574
283.15
302.8
283.15
303.15
286.495
286.491
283.15
298.993
298.561
287.055
303.15
303.15
301.734
289.797
303
283.727
301.578
287.1
303.147
284.195
288.212
303.15
301.426
283.15
283.15
287.57
287.033
283.145
285.254
301.497
286.25
301.176
303.15
285.116
301.747
291.201
303.15
303.15
301.618
302.046
303.15
293.041
294.287
283.682
296.403
286.799
290.03
303.15
302.788
297.014
285.024
283.15
287.731
291.927
299.656
283.163
283.75
282.942
301.949
303.117
283.151
303.134
303.15
300.571
293.08
298.817
293.851
283.15
291.947
295.999
285.602
283.211
291.647
283.15
300.267
303.164
292.56
284.1
303.144
291.867
298.619
288.248
300.351
291.336
287.334
283.15
303.142
285.351
289.905
293.493
283.15
283.15
283.15
303.141
283.15
283.137
286.439
303.15
283.15
303.167
283.172
291.118
289.016
303.52
302.912
289.875
303.15
296.984
303.176
302.002
287.273
283.15
292.929
303.145
303.094
286.195
283.15
283.15
283.475
286.031
303.054
303.144
287.519
289.484
283.482
283.162
289.863
293.224
303.15
283.15
303.096
303.15
302.331
285.021
302.338
303.093
284.059
283.773
284.038
302.852
302.182
297.397
293.987
303.07
291.292
291.037
303.15
303.098
302.584
285.442
283.379
303.15
285.949
283.385
302.931
301.666
302.175
283.15
300.332
301.848
303.15
302.155
285.413
303.15
297.898
303.15
283.15
300.679
302.684
286.343
302.488
283.15
285.171
303.011
283.15
302.308
285.379
294.886
284.342
303.15
303.017
302.873
286.512
283.15
287.13
284.254
289.795
285.734
302.25
303.15
283.15
283.15
293.133
283.15
301.047
302.161
290.367
283.15
294.028
283.15
303.15
283.15
300.056
298.561
283.151
285.28
301.723
303.075
303.156
291.852
294.199
301.201
283.21
301.797
283.145
303.15
303.141
299.099
283.15
300.911
294.771
303.15
300.945
287.318
301.948
284.901
288.204
283.15
302.22
287.741
298.413
303.075
283.15
303.15
291.643
302.16
283.076
283.147
286.75
298.342
303.149
284.496
301.027
300.999
301.252
303.153
299.886
287.655
284.927
301.581
299.89
283.727
283.103
303.16
303.149
303.15
297.34
283.163
283.15
303.15
303.149
289.913
298.904
300.272
287.788
302.8
303.15
286.431
301.55
303.15
300.953
283.798
301.452
303.15
284.541
301.378
295.503
302.764
303.15
303.15
285.176
295.052
296.36
287.386
303.15
303.15
283.15
287.215
302.4
296.149
303.15
285.554
303.15
303.15
300.445
288.716
283.15
295.535
295.861
299.06
283.15
303.15
292.669
287.224
303.15
297.937
300.491
300.397
303.15
303.15
303.15
300.205
298.309
302.799
299.874
283.15
292.873
287.671
290.59
300.562
303.15
303.15
300.743
303.097
286.56
296.087
303.15
303.147
283.15
286.436
298.908
285.579
303.15
303.15
283.342
303.122
303.15
303.15
283.15
290.514
303.15
303.15
284.574
299.271
283.15
303.15
284.619
301.317
300.155
286.986
294.927
303.15
283.494
303.15
303.15
283.31
300.52
290.384
300.386
303.15
303.129
302.175
292.641
299.785
301.35
284.449
283.454
300.829
298.371
303.15
302.747
284.129
299.712
301.366
287.685
303.15
297.405
301.395
301.482
301.521
292.874
303.15
283.15
299.174
283.15
283.15
287.745
283.15
284.005
283.15
283.15
283.15
283.15
302.752
288.133
302.7
283.15
295.666
290.926
284.73
283.15
303.15
302.675
301.732
303.164
302.633
283.15
294.787
300.25
290.156
283.15
283.15
299.803
285.93
283.15
283.15
303.149
290.56
283.15
287.133
303.149
303.152
284.312
283.15
288.185
292.462
300.781
294.575
302.956
285.619
302.496
295.23
286.263
283.15
283.536
291.609
303.074
289.114
302.652
283.15
292.355
287.742
301.013
301.246
284.884
303.106
284.898
297.049
302.982
303.147
285.126
303.145
303.003
293.287
302.671
283.15
303.15
303.15
294.744
291.028
283.155
301.091
284.677
284.148
284.611
303.145
288.34
300.444
283.15
283.15
302.502
303.15
294.546
302.899
303.182
299.801
303.222
302.881
283.15
301.275
302.877
283.15
303.15
301.3
303.15
284.302
298.745
283.163
291.512
283.15
287.57
303.012
299.73
283.15
303.023
290.888
301.182
303.126
303.078
283.15
283.15
301.925
301.99
283.797
302.807
302.411
302.365
303.141
283.15
293.691
283.15
302.784
287.853
302.986
303.15
283.15
302.819
285.107
291.461
302.035
283.15
302.579
301.983
301.554
302.479
303.045
303.21
303.009
303.15
283.15
301.503
297.792
303.087
303.15
289.902
284.894
303.15
283.15
285.298
303.184
303.165
302.916
301.123
284.256
303.097
290.641
294.194
303.148
289.025
303.164
283.15
289.811
283.15
299.941
298.104
284.767
288.159
299.597
296.629
295.263
299.148
293.742
303.153
293.794
296.362
283.16
299.36
293.825
303.15
298.878
299.115
303.15
291.152
303.171
301.665
303.15
286.91
285.978
302.797
289.647
283.15
283.15
300.337
301.117
283.715
283.15
303.15
300.207
302.312
300.594
299.842
302.782
292.551
289.614
286.62
292.463
284.3
290.373
283.304
295.668
290.406
293.894
287.067
284.279
303.163
283.271
303.147
285.587
300.701
283.151
300.371
298.358
288.721
302.089
285.39
299.05
283.15
302.951
283.154
283.116
287.661
299.638
303.15
300.33
303.018
299.901
302.757
303.15
301.242
284.947
294.891
302.037
303.149
283.705
283.15
290.271
285.232
285.742
303.13
303.148
283.15
283.15
283.176
303.15
293.422
303.15
303.15
294.301
303.433
303.15
300.399
303.15
303.15
293.626
290.582
303.15
289.809
302.047
289.535
303.15
303.15
285.937
283.333
290.293
303.225
303.15
303.145
285.461
283.246
283.15
288.959
287.58
303.15
284.3
303.15
303.15
303.132
287.312
303.15
303.147
283.276
303.152
302.658
287.895
283.152
283.597
297.294
290.703
303.15
285.9
284.422
301.311
287.093
302.204
290.557
293.828
303.15
303.15
284.006
303.148
302.944
295.838
302.94
302.738
287.155
283.15
285.306
283.218
297.095
302.581
285.364
303.15
283.792
286.699
303.125
283.175
303.15
286.371
283.15
300.096
303.15
299.701
299.874
283.299
283.358
302.319
290.809
301.313
303.15
301.381
301.732
303.15
303.15
298.306
293.385
283.15
288.753
303.15
295.184
283.357
303.15
296.866
298.677
288.963
303.15
302.754
294.173
295.33
284.459
303.161
298.646
296.082
283.976
303.123
302.798
287.353
298.398
289.791
290.771
289.714
283.15
302.942
303.152
303.15
303.174
293.045
296.268
302.974
301.275
303.15
284.444
303.15
303.041
302.855
303.15
293.516
296.198
303.15
285.367
303.095
303.15
303.089
303.158
286.052
293.291
291.086
288.383
293.367
303.15
301.19
291.384
295.326
293.405
303.141
303.15
300.537
303.189
284.237
303.19
303.15
303.15
303.143
303.15
284.933
303.15
284.219
303.146
303.15
290.201
303.144
292.433
295.483
303.133
295.283
285.978
283.445
303.125
302.933
284.67
283.15
297.075
303.15
285.496
302.911
302.027
303.017
298.381
287.043
303.15
298.657
289.877
299.324
283.15
283.612
303.15
303.145
303.19
294.029
303.15
292.402
289.316
303.195
303.15
284.785
298.724
293.182
299.554
302.468
301.575
300.358
303.15
284.711
296.91
302.358
285.575
298.31
292.254
284.462
291.608
303.15
286.637
291.785
290.102
299.408
303.15
286.438
284.084
303.15
302.419
288.12
302.092
283.15
303.15
299.801
301.681
288.971
301.972
301.898
301.797
303.15
289.292
285.123
301.95
302.226
297.11
303.15
283.201
303.15
301.973
303.15
302.796
303.15
291.637
303.15
296.467
283.15
289.419
303.15
283.15
292.159
301.422
300.383
289.176
300.463
303.15
302.487
303.15
302.361
285.197
303.15
300.37
290.372
303.15
300.776
303.15
303.15
293.153
283.15
285.538
293.194
300.895
303.15
291.135
293.822
288.158
289.634
288.092
299.191
300.236
300.767
287.356
287.085