/*--------------------------------*- C++ -*----------------------------------*\
  =========                 |
  \\      /  F ield         | OpenFOAM: The Open Source CFD Toolbox
   \\    /   O peration     | Website:  https://openfoam.org
    \\  /    A nd           | Version:  10
     \\/     M anipulation  |
\*---------------------------------------------------------------------------*/
FoamFile
{
    format      ascii;
    class       volScalarField;
    location    "27";
    object      T;
}
// * * * * * * * * * * * * * * * * * * * * * * * * * * * * * * * * * * * * * //

dimensions      [0 0 0 1 0 0 0];

internalField   nonuniform List<scalar> 
59698
(
286.632
283.15
283.15
283.15
299.934
283.15
283.15
283.15
303.15
303.15
303.15
283.15
283.15
283.15
300.116
303.15
283.15
283.15
283.15
283.779
303.282
302.123
303.148
303.15
295.673
283.15
283.15
298.342
295.689
295.355
300.292
303.15
303.15
298.838
302.361
283.15
283.382
283.467
283.15
297.575
288.807
283.15
288.679
283.15
283.15
296.608
283.15
283.15
283.15
283.15
283.15
283.15
283.15
283.15
294.378
283.15
283.15
302.177
283.15
282.978
283.386
283.15
299.618
283.15
286.782
283.15
303.15
283.15
283.15
303.15
283.15
283.15
283.136
298.582
283.15
297.784
283.15
287.695
283.15
294.14
299.953
283.15
303.15
283.15
303.702
283.15
283.15
283.15
298.886
283.15
303.15
283.15
298.99
283.15
283.15
283.15
299.064
283.15
298.913
283.15
299.116
283.129
285.894
284.499
283.15
283.15
283.15
283.15
303.15
283.15
283.15
283.15
298.868
283.15
283.15
283.15
283.15
283.15
283.15
303.15
283.15
283.15
283.15
283.15
283.15
283.15
294.748
303.15
283.15
283.15
287.528
283.15
303.15
292.772
290.238
283.183
283.15
303.15
283.15
283.15
283.15
283.15
283.15
283.15
283.15
283.15
283.15
283.15
283.15
301.181
283.138
303.15
288.079
283.15
283.15
283.15
283.15
283.15
296.947
283.15
289.665
283.15
290.781
299.547
297.798
296.675
283.15
280.918
299.36
283.15
300.38
283.151
300.945
301.008
285.536
283.15
303.15
283.238
303.15
298.919
302.762
300.404
298.621
283.15
298.728
300.854
300.76
283.15
283.15
283.15
283.15
283.15
296.607
297.474
299.382
283.15
293.94
296.558
303.155
299.38
283.15
284.145
292.417
283.15
299.287
283.15
297.32
283.15
293.585
298.019
283.15
283.15
299.138
303.15
291.589
283.15
283.15
283.15
297.838
292.548
282.053
293.056
283.15
299.28
286.383
299.333
285.726
283.15
295.624
285.014
283.15
285.73
285.582
285.571
283.15
283.15
295.981
283.15
283.15
283.15
283.15
293.991
289.935
303.15
283.15
283.15
282.93
285.62
283.15
283.15
283.15
283.15
283.15
303.15
283.15
283.15
283.15
283.15
283.15
283.15
303.12
283.15
283.15
283.15
283.15
295.323
283.15
303.15
283.15
283.15
283.15
286.648
303.101
283.15
287.338
283.15
283.15
283.15
293.982
303.15
303.15
283.15
283.15
289.096
295.118
290.677
283.15
303.15
286.045
283.15
301.426
283.15
283.15
283.15
283.15
283.15
283.15
283.15
293.208
283.15
283.15
283.15
283.15
283.15
283.15
283.15
287.813
283.15
283.15
283.15
283.15
283.15
283.15
283.15
283.15
283.15
283.15
283.15
283.15
283.15
283.15
293.4
283.15
303.15
298.355
286.249
283.15
283.15
283.15
283.15
300.182
283.154
298.884
281.567
303.15
283.15
283.15
283.15
298.461
290.552
283.15
283.15
283.15
283.15
298.953
283.15
283.15
301.434
283.15
287.42
284.611
283.15
301.348
303.15
284.228
300.741
302.083
283.15
283.15
303.15
283.15
283.15
303.15
283.15
283.15
283.15
283.15
283.15
283.15
282.757
292.687
283.15
283.15
283.15
288.606
303.15
283.15
283.15
283.15
303.15
283.15
283.15
283.15
283.15
283.15
283.148
283.15
283.15
283.15
283.15
283.15
303.15
283.15
290.758
303.133
301.992
301.759
283.15
283.15
283.15
288.515
283.15
283.15
283.15
283.15
283.15
295.929
293.256
283.15
302.25
297.873
303.15
283.15
303.15
283.15
289.841
283.15
283.574
302.296
302.828
283.15
283.15
283.15
281.995
283.15
283.15
303.15
283.15
283.15
283.15
283.349
302.787
285.302
283.15
287.579
303.15
303.15
298.646
283.15
291.945
283.15
283.15
303.15
283.15
283.15
302.912
294.857
283.15
283.15
299.211
283.15
283.15
283.15
286.332
283.15
283.15
290.624
303.15
284.3
283.15
290.045
283.15
283.959
293.931
303.15
283.15
283.15
283.193
283.15
284.365
283.15
283.15
283.15
283.15
283.15
283.15
302.758
292.102
283.15
283.15
283.15
283.15
283.15
283.15
300.928
283.15
283.15
283.15
291.937
283.15
299.029
290.485
291.358
283.15
292.109
283.15
283.15
283.15
289.571
283.15
283.15
295.189
299.058
283.15
283.15
303.15
283.15
303.15
283.15
290.269
283.15
290.682
283.152
283.15
283.172
283.15
283.15
283.15
283.15
283.15
289.543
283.156
283.15
283.15
283.15
302.995
283.162
283.15
289.516
288.383
283.15
301.503
303.15
283.15
283.15
283.15
283.15
286.365
283.15
303.15
289.766
283.15
283.15
281.266
283.91
291.581
282.227
283.132
284.544
283.147
283.15
303.15
283.15
303.15
283.15
283.15
283.15
283.15
283.15
283.15
283.15
303.15
283.15
283.123
283.15
303.15
286.388
283.15
283.15
303.15
283.15
283.15
283.15
283.15
283.15
283.15
283.15
283.15
283.152
303.15
283.15
283.15
285.273
283.15
283.15
283.15
283.15
283.15
289.742
283.15
283.15
283.582
283.15
283.15
283.15
283.15
303.15
282.782
283.15
283.15
283.15
283.15
283.15
283.15
283.15
283.15
283.15
283.15
283.15
283.15
283.15
283.15
283.15
283.15
283.15
283.15
283.15
297.849
285.633
283.15
283.15
283.15
283.15
302.962
283.15
283.15
290.909
283.15
283.15
283.15
283.15
283.15
283.15
283.15
283.15
283.15
283.15
283.15
283.15
286.939
283.15
283.15
283.15
303.15
283.15
283.165
283.15
283.15
283.15
283.15
283.15
283.15
288.551
283.15
283.15
283.15
283.15
303.147
290.524
283.15
283.15
283.15
290.895
283.793
301.829
283.15
283.15
283.15
283.15
288.936
283.15
283.15
283.15
283.15
283.15
283.15
283.15
283.15
293.235
283.15
283.15
283.15
283.15
283.15
283.15
283.15
283.15
283.15
283.15
295.741
283.936
297.16
283.15
283.15
283.15
283.15
283.15
283.15
283.15
283.15
283.15
283.15
283.15
283.15
283.15
303.15
296.53
283.15
283.15
283.15
283.15
283.15
283.15
283.15
283.15
297.632
286.167
283.15
303.15
283.15
297.863
297.929
283.15
283.15
283.15
297.23
295.543
283.15
296.239
283.15
282.859
283.15
290.541
300.335
283.15
291.091
283.15
303.15
297.632
287.946
283.15
283.15
283.273
290.523
283.15
283.15
283.597
283.452
283.15
286.007
283.15
296.877
283.15
298.097
283.15
283.15
290.245
295.066
303.15
283.15
296.908
283.15
298.218
295.929
283.15
293.863
296.74
283.15
283.15
294.942
294.574
283.15
283.15
283.15
283.15
286.373
283.15
283.15
294.549
294.566
297.404
283.15
293.701
284.922
294.888
283.15
295.324
283.15
284.363
298.82
283.15
288.636
297.675
301.109
283.15
302.77
283.15
283.15
283.15
283.15
283.15
283.15
283.15
283.15
298.041
283.164
283.15
283.15
283.15
282.348
283.15
283.15
283.15
283.15
303.102
298.504
303.15
283.15
284.571
288.629
283.15
282.176
283.15
283.229
283.15
283.15
283.15
283.15
296.699
283.15
290.522
283.15
283.15
283.15
283.15
283.15
283.162
283.15
283.132
283.174
303.15
283.15
283.15
283.15
283.15
283.15
283.15
283.15
283.15
290.852
283.15
283.15
285.408
283.15
283.15
283.15
299.437
291.002
283.15
283.15
283.15
295.907
303.15
295.892
283.15
283.15
283.15
283.149
283.15
283.15
283.15
283.15
284.106
283.15
283.15
283.15
283.15
283.15
283.15
283.15
283.15
283.15
283.15
283.15
283.15
283.15
283.15
283.15
283.15
283.15
283.15
296.115
295.65
283.15
283.15
286.945
283.15
296.63
303.15
283.15
295.788
283.15
283.15
283.15
283.15
283.15
295.772
283.15
283.15
293.589
283.15
283.15
283.15
283.15
303.15
283.15
283.15
283.15
295.916
297.561
283.15
296.719
283.15
283.15
295.629
283.15
283.15
283.15
286.594
292.086
283.15
283.162
283.15
296.553
283.151
283.15
283.15
283.15
283.15
297.47
283.15
283.15
296.154
296.683
283.15
283.15
285.344
294.035
283.15
283.15
283.15
283.15
283.15
283.15
283.15
283.15
283.15
303.15
283.15
283.15
294.465
303.15
283.15
296.586
283.15
283.15
283.15
283.15
283.152
283.15
303.15
303.15
283.15
283.151
283.15
283.15
290.742
302.712
298.557
283.15
283.15
302.16
297.482
283.152
283.152
283.153
283.15
283.154
283.15
290.642
287.736
283.15
283.15
283.15
303.15
283.168
283.15
300.382
283.15
303.15
303.15
283.15
283.15
283.15
283.15
283.15
292.586
283.15
283.15
283.15
298.364
283.15
283.15
283.15
302.799
283.15
283.15
302.796
283.15
283.15
302.804
283.15
293.835
294.379
295.915
294.947
294.991
295.23
283.15
283.15
303.15
294.708
283.395
283.15
283.15
283.15
297.118
283.15
283.15
283.15
295.328
283.15
287.749
283.15
290.868
283.15
303.15
283.15
288.101
283.15
303.15
283.15
288.331
283.229
283.15
289.317
303.15
303.15
293.09
283.15
283.15
283.15
283.15
283.15
283.15
303.15
303.15
284.104
283.15
295.125
303.15
283.15
296.116
303.15
282.445
283.15
283.571
283.15
283.15
283.15
283.15
283.15
303.15
283.15
283.15
283.15
283.15
283.15
283.15
283.15
301.062
303.15
297.297
302.918
283.15
301.67
287.095
283.15
283.15
297.731
297.227
289.456
289.154
283.15
283.15
288.107
283.15
303.15
283.15
300.967
283.15
283.15
283.15
283.15
283.15
302.394
289.609
283.15
283.15
283.15
283.15
303.15
283.15
286.772
283.15
283.15
283.15
283.15
283.15
304.952
283.15
283.15
283.15
295.302
283.15
287.086
283.15
303.15
283.15
283.15
283.15
283.15
283.15
300.808
301.117
283.15
283.198
299.132
302.605
283.204
283.15
283.15
302.581
287.721
300.26
283.15
283.15
283.204
283.218
283.15
283.15
283.15
303.15
286.056
298.855
283.15
283.15
283.15
288.507
283.15
299.005
283.15
283.15
283.15
283.15
303.15
283.15
303.15
283.15
283.15
283.15
283.15
283.15
285.386
283.15
303.15
283.15
283.257
285.027
283.15
293.375
303.15
303.15
283.15
283.15
283.15
303.15
283.15
283.15
283.15
283.15
303.15
283.15
283.15
283.15
283.15
285.252
283.15
283.15
284.975
303.15
283.15
283.15
303.143
303.15
297.272
290.574
283.15
297.365
283.355
292.233
303.15
283.15
283.15
296.796
282.33
295.805
283.15
303.15
283.15
303.15
295.563
284.587
283.15
283.15
296.237
283.15
302.763
294.878
295.754
295.086
283.15
296.571
283.15
283.15
294.973
295.092
283.15
303.15
283.15
291.921
283.15
283.15
283.15
283.15
283.15
283.15
283.15
283.15
300.613
285.584
289.142
303.023
283.15
303.15
283.15
283.15
299.956
303.15
303.15
293.48
283.15
300.653
283.15
283.15
303.15
283.15
283.15
303.15
283.15
283.15
283.15
283.15
302.959
303.15
297.493
283.15
283.15
289.052
283.15
283.15
283.096
303.15
283.15
303.15
283.15
303.15
283.15
297.874
297.764
296.929
297.545
283.15
283.15
286.799
283.15
283.15
283.15
298.025
283.261
283.253
283.15
301.152
283.15
303.15
283.15
297.021
295.633
303.15
303.15
283.15
288.937
287.354
283.302
287.425
289.61
303.15
303.15
283.15
283.15
287.785
303.15
299.762
303.15
287.573
303.15
303.15
303.15
283.15
290.771
299.277
303.15
292.604
283.15
303.15
283.15
287.303
282.677
283.15
283.736
294.84
283.253
283.15
283.31
283.186
283.15
303.15
303.15
285.188
288.644
292.411
283.575
283.278
283.15
283.258
283.15
283.15
283.15
291.493
283.15
287.712
285.218
293.966
303.15
292.217
284.064
290.727
293.977
300.942
283.15
292.198
283.15
283.15
298.112
283.15
283.15
283.15
283.903
286.788
283.765
283.15
284.856
283.15
284.219
303.15
294.05
283.15
288.486
292.64
303.112
303.15
283.15
284.405
283.283
300.633
284.975
285.12
298.439
283.15
284.949
282.307
293.74
303.15
287.372
283.15
283.128
285.156
303.15
297.628
283.151
283.15
303.15
284.93
300.028
303.15
283.15
289.245
295.151
296.537
297.871
283.516
303.15
285.252
283.15
283.15
283.15
293.953
283.15
303.125
283.15
303.15
293.98
283.15
291.954
283.15
283.15
283.15
300.136
298.993
285.918
283.138
299.312
283.15
299.445
303.15
283.15
283.15
296.275
285.772
283.15
283.15
288.101
283.15
283.15
283.15
283.15
283.15
296.745
303.15
293.679
283.15
303.15
288.363
283.15
283.15
288.201
303.15
296.118
283.15
303.15
296.847
302.676
290.212
283.15
286.921
288.123
303.15
283.15
303.15
283.15
283.15
283.15
283.15
283.14
291.9
283.209
303.15
288.293
288.641
287.964
294.291
288.251
291.708
286.407
286.221
303.15
287.446
291.787
283.15
303.15
300.566
283.15
289.597
303.228
303.15
299.157
283.15
283.15
303.15
283.15
283.15
283.15
297.733
297.154
283.15
295.056
303.15
303.15
283.15
283.15
283.944
283.15
283.153
283.579
303.15
283.802
283.15
303.15
283.15
283.004
283.15
283.15
299.837
303.15
283.15
303.15
303.15
283.684
283.15
283.15
283.149
303.15
291.583
283.15
303.15
303.15
283.15
283.127
283.15
303.15
283.139
283.15
283.15
283.15
300.699
283.15
283.15
303.15
294.733
294.245
303.15
303.15
303.15
283.15
283.15
283.15
291.872
303.15
283.14
283.15
303.15
303.15
303.15
283.15
283.15
283.15
283.15
283.15
283.15
283.15
294.058
303.15
283.15
283.15
283.15
283.15
294.091
283.15
283.15
283.15
283.15
283.15
283.14
283.15
303.15
283.15
283.15
283.15
283.15
303.15
283.15
294.226
303.15
285.312
283.15
291.053
283.15
283.15
283.15
297.192
283.15
289.478
295.928
283.15
283.15
283.15
283.15
283.15
283.15
283.15
298.968
283.15
287.27
283.15
304.964
284.039
283.15
300.341
283.134
283.15
283.398
303.15
294.382
296.51
290.186
283.15
301.437
296.258
283.15
298.92
292.357
302.822
297.635
300.384
283.15
285.252
294.226
289.338
283.15
283.15
297.419
283.15
296.55
283.15
283.15
293.081
283.15
283.143
299.553
283.15
288.099
283.15
283.15
297.869
293.717
283.15
283.15
290.023
283.15
295.045
283.15
293.107
298.425
283.15
300.327
283.15
283.15
283.15
285.252
298.437
290.874
283.15
284.611
283.15
283.15
283.15
283.15
303.15
292.494
297.14
298.043
301.576
283.455
283.15
283.15
283.15
283.15
283.15
303.151
283.15
283.15
283.15
283.139
283.15
283.15
283.15
301.989
283.15
283.15
303.188
283.15
283.15
283.15
299.008
283.15
302.105
302.826
294.628
283.15
283.15
283.15
283.15
283.15
283.15
283.15
283.15
283.15
295.16
302.942
283.15
288.183
283.15
298.901
293.017
283.158
283.15
283.15
283.15
283.15
283.15
283.15
302.926
283.15
283.15
283.15
298.244
302.943
283.15
292.693
283.15
298.519
283.15
283.15
288.182
289.743
283.15
283.15
289.067
283.277
283.15
289.317
302.813
283.15
283.15
289.437
283.15
283.15
283.15
299.705
283.15
294.6
283.15
283.15
283.15
283.15
283.15
283.15
287.191
298.583
299.52
289.309
283.15
283.15
283.15
295.989
283.15
283.15
283.15
298.702
285.529
283.15
283.15
283.15
283.15
283.15
296.207
287.997
296.568
283.15
283.15
283.15
299.569
303.15
283.15
283.15
283.15
296.968
283.15
299.687
283.15
283.15
283.15
283.15
299.648
283.15
283.15
301.3
283.15
283.15
283.15
283.15
283.15
289.338
283.15
303.15
283.15
301.439
283.15
283.15
283.15
283.15
283.15
301.37
287.26
290.312
283.15
283.15
283.23
295.989
283.15
283.15
298.92
283.15
283.15
283.15
283.15
303.15
298.539
283.15
294.382
283.15
295.024
301.376
283.15
301.185
283.15
293.002
283.189
303.15
283.15
300.075
283.151
283.15
283.15
302.833
286.647
295.391
293.651
292.263
296.243
283.15
283.15
291.138
292.619
295.762
283.15
283.15
283.15
283.15
283.158
296.085
295.183
283.165
294.304
295.772
283.161
283.15
291.997
283.157
295.822
296.788
300.263
295.361
297.445
297.945
301.217
283.15
303.146
283.148
283.323
283.15
283.15
301.779
303.556
283.15
303.009
303.129
283.15
283.15
292.108
283.15
290.827
283.15
300.595
283.15
291.008
303.15
283.15
293.488
283.15
301.071
283.154
283.15
302.012
283.15
289.227
302.279
286.674
295.423
283.15
292.613
294.605
300.546
302.96
283.15
283.15
289.037
283.15
283.15
283.15
283.151
283.15
283.15
283.15
283.15
283.15
295.798
283.15
283.15
283.15
283.15
283.15
283.15
283.153
294.076
283.15
283.15
283.15
283.285
283.15
283.15
283.15
283.15
286.558
302.175
283.271
299.928
283.269
283.15
283.15
283.238
303.15
283.15
283.15
283.15
283.15
283.303
283.15
294.315
298.702
288.327
283.15
283.143
283.15
285.089
284.886
283.15
283.15
283.15
283.15
295.667
297.886
300.892
283.153
283.15
283.15
283.15
283.15
283.15
283.15
283.152
294.701
287.294
283.15
283.15
300.953
296.709
283.15
303.15
292.567
283.15
283.15
294.689
283.15
283.15
283.15
283.15
290.63
283.15
283.15
283.15
288.576
283.15
283.15
283.15
283.15
290.852
283.15
293.604
283.15
283.15
292.268
283.15
283.15
283.15
283.15
283.15
283.15
283.426
283.15
283.15
283.391
283.568
283.15
297.954
283.15
283.15
283.15
283.15
283.15
283.15
283.342
283.15
292.523
283.15
283.15
299.987
283.15
296.172
283.15
296.784
295.655
291.659
283.15
283.15
283.15
283.15
283.15
303.15
283.15
289.35
283.15
283.15
291.679
283.15
283.15
299.279
283.15
283.15
283.15
283.15
283.15
283.15
283.15
300.847
286.335
287.374
283.15
283.15
283.15
283.15
283.15
283.15
283.15
283.15
291.69
283.155
283.15
283.15
283.15
284.192
288.485
283.15
283.153
283.15
283.15
303.15
283.15
283.156
283.15
283.15
283.15
283.15
283.15
283.15
303.15
287.168
283.233
283.15
283.15
283.15
283.15
283.15
283.15
283.439
283.15
283.15
283.156
293.398
283.15
283.156
283.158
291.61
283.15
283.15
283.15
303.15
283.41
283.15
283.15
283.15
283.15
295.848
283.15
283.15
285.188
283.15
289.284
288.745
283.15
283.15
302.018
294.391
283.15
283.15
294.254
293.187
296.886
283.15
300.477
283.29
301.233
283.15
297.611
283.15
283.15
283.15
283.15
283.15
293.922
295.04
292.918
283.15
283.15
283.15
283.15
292.176
283.15
283.15
283.15
283.15
283.15
283.15
299.344
283.15
283.15
283.15
283.15
283.15
283.15
283.15
283.15
283.15
291.624
283.15
283.15
283.15
283.15
283.158
283.15
283.15
283.15
283.15
283.15
283.15
290.951
283.15
302.667
290.509
283.15
296.445
283.15
285.564
283.15
298.649
303.389
283.163
283.15
283.15
283.15
298.416
283.15
290.1
283.15
283.15
286.384
285.985
283.15
283.15
283.15
283.15
283.15
283.15
283.15
283.15
283.15
293.052
283.15
283.15
283.15
283.15
292.244
283.15
283.15
283.15
283.15
283.15
283.15
283.15
283.15
283.15
283.15
303.15
303.15
283.15
292.017
283.15
283.15
283.15
283.15
296.979
283.15
283.15
283.15
283.15
283.15
283.15
283.15
283.15
283.15
283.15
283.15
295.387
283.15
283.15
283.15
283.15
283.15
283.15
303.244
283.15
303.15
283.15
283.15
283.15
286.05
283.15
283.15
283.15
283.15
291.13
283.15
283.15
283.15
303.15
282.891
283.15
301.985
284.04
303.15
283.15
300.867
294.265
283.15
291.75
283.15
283.15
283.15
303.15
303.15
283.15
283.15
296.666
283.15
283.151
283.15
283.15
293.881
283.15
283.562
283.15
283.15
300.78
303.15
303.15
297.777
283.15
294.85
283.15
283.15
283.15
300.958
283.15
283.15
283.15
291.793
303.15
283.15
283.15
283.15
283.15
283.15
300.841
283.15
283.15
283.15
294.421
283.15
283.15
283.15
283.15
283.15
283.15
296.578
301.944
302.712
284.429
283.151
283.15
283.15
283.15
283.15
300.581
283.15
283.15
283.15
283.15
283.15
283.15
283.15
283.15
283.15
303.15
297.139
283.15
283.15
283.15
283.15
297.927
283.146
283.15
283.666
283.15
283.15
283.15
283.15
283.15
283.15
292.191
294.436
303.15
295.663
284.942
292.879
297.795
298.03
283.15
283.15
283.15
298.072
283.15
296.165
283.15
283.15
298.675
283.15
292.139
298.1
294.145
296.539
293.659
283.15
283.15
296.997
283.15
283.15
283.15
283.15
283.15
283.15
283.15
283.15
283.156
283.15
283.15
283.256
283.168
283.15
283.15
283.15
283.15
299.676
283.15
283.15
286.317
283.15
290.733
283.15
283.828
283.15
283.15
283.15
283.15
283.15
283.15
283.15
290.836
283.15
296.828
283.15
283.873
283.15
295.275
296.45
295.571
287.435
295.879
293.98
283.15
283.15
283.15
295.687
283.15
283.15
283.15
283.15
283.15
283.15
283.15
283.15
283.15
283.15
290.099
283.15
283.15
283.15
283.15
283.15
283.15
283.15
283.15
283.15
283.15
298.738
283.15
302.762
301.086
303.15
283.15
283.15
283.15
283.15
283.15
283.913
283.15
283.15
283.15
302.514
283.15
298.016
289.485
294.431
283.15
300.331
283.15
288.335
300.869
287.18
283.15
283.15
283.15
283.118
283.15
289.971
282.399
293.565
283.15
283.15
296.764
283.15
284.918
291.392
302.409
283.15
283.15
297.379
303.181
283.15
283.15
294.856
290.952
283.15
283.15
283.15
284.307
283.15
283.15
283.15
283.15
283.15
283.15
283.15
283.15
283.15
283.15
300.293
283.15
283.15
283.15
293.139
300.431
289.053
283.15
283.15
298.93
283.15
283.15
283.15
283.222
283.15
297.243
283.15
285.049
297.044
283.144
283.15
283.15
298.617
283.15
283.15
290.665
283.15
283.15
283.149
283.15
293.216
282.638
291.916
283.15
283.15
303.151
283.15
283.15
293.679
285.991
283.15
283.15
283.15
297.345
286.009
283.743
283.15
284.421
283.285
283.15
283.15
283.152
283.15
284.35
293.845
283.15
289.466
297.397
287.132
283.15
283.15
283.15
295.701
283.15
296.349
283.15
283.15
293.332
296.774
285.621
303.15
287.464
294.989
285.612
293.856
285.806
283.15
283.194
287.991
293.06
303.15
286.257
283.15
288.223
285.275
285.176
283.15
285.459
288.527
283.15
294.52
283.159
283.15
289.247
283.15
283.15
283.15
283.15
283.15
283.15
283.15
288.53
299.551
288.961
288.39
287.417
283.15
286.46
302.409
283.15
284.683
292.654
283.15
288.244
283.152
283.152
283.15
283.15
295.485
283.15
283.15
283.15
283.15
283.15
283.15
302.579
283.175
286.886
290.411
283.15
294.45
283.15
303.106
283.15
283.15
283.15
283.15
292.453
292.762
283.15
283.15
284.08
299.058
283.15
283.15
283.15
283.15
283.15
283.15
300.079
283.15
299.593
283.15
299.152
299.209
302.34
302.085
299.5
299.683
299.541
289.065
283.15
283.15
283.15
283.15
288.858
293.567
283.15
283.15
283.15
285.592
283.15
283.15
283.15
290.012
283.15
283.15
301.04
283.15
299.977
301.472
288.865
283.15
283.15
283.15
290.322
299.064
283.15
283.15
283.15
283.15
283.15
283.15
283.15
283.15
283.15
283.15
283.15
283.15
283.15
283.15
283.15
283.15
283.15
283.15
292.083
296.65
283.15
283.15
283.15
283.15
283.15
295.944
283.15
283.15
283.15
283.15
283.15
283.15
283.15
283.15
283.15
301.897
302.261
283.15
283.15
301.086
304.626
283.15
302.207
302.152
283.15
283.15
283.15
283.15
302.346
283.15
283.15
283.15
302.343
283.15
283.15
283.15
283.15
283.15
283.15
283.15
303.081
283.15
295.713
283.15
283.15
283.15
283.15
283.15
283.15
284.826
283.15
283.15
283.15
283.15
283.15
283.15
299.27
283.15
283.15
283.15
287.069
301.445
283.15
301.099
291.165
300.528
283.15
301.541
283.15
298.68
283.15
283.15
290.435
296.678
298.67
297.842
294.216
283.15
283.15
300.218
283.15
283.15
298.937
283.15
283.151
283.15
284.224
299.031
287.933
299.047
283.15
283.15
283.15
295.779
283.15
283.15
283.15
283.665
289.177
295.216
283.15
297.339
283.15
283.15
298.129
297.076
283.15
291.777
297.142
290.295
287.471
297.539
298.816
303.15
283.15
285.559
283.15
304.295
283.15
287.633
296.091
283.15
296.474
283.15
283.15
289.307
297.488
283.15
283.15
283.15
283.15
283.15
283.15
283.15
301.828
283.15
296.493
286.165
297.306
283.15
283.15
283.15
301.916
283.15
293.634
294.915
288.695
295.613
300.136
283.15
283.15
283.15
283.15
299.378
296.645
283.15
283.15
283.15
283.15
283.154
283.15
303.144
283.153
283.155
283.59
299.185
283.15
283.15
303.15
283.15
283.15
283.15
283.15
286.966
294.917
283.15
283.15
283.15
283.15
283.15
283.15
287.948
283.15
294.359
283.15
283.155
289.707
283.15
298.276
283.438
300.583
283.155
283.15
284.605
293.92
284.596
296.422
297.11
283.15
296.641
283.15
296.607
297.102
300.251
283.15
283.15
283.735
283.15
283.15
303.107
303.15
283.15
283.15
283.79
283.15
283.15
303.15
303.15
283.54
283.15
283.15
283.15
283.15
287.269
283.15
283.15
283.15
283.15
295.828
289.762
283.15
283.15
298.621
283.15
283.625
283.161
283.15
302.513
283.15
283.15
283.15
283.548
283.15
283.15
283.15
283.15
283.15
283.52
283.887
283.15
302.714
283.15
283.15
298.257
283.174
303.15
288.092
297.61
300.902
283.15
283.15
283.181
283.187
293.048
283.15
283.15
283.202
283.15
283.15
283.15
296.365
283.15
283.237
285.651
283.15
284.789
283.15
283.15
283.15
283.15
283.15
283.15
283.15
283.15
283.15
300.818
285.453
283.15
283.15
283.15
283.15
283.15
283.15
283.15
283.345
283.15
283.15
303.15
283.15
283.15
283.15
283.15
283.15
283.15
302.476
283.15
297.424
289.685
289.783
283.15
283.15
283.15
283.15
293.985
283.904
283.15
283.15
283.15
283.15
283.15
283.15
283.15
283.15
294.242
283.15
285.174
284.385
283.15
283.15
283.15
283.15
283.15
283.15
283.15
283.15
283.15
283.15
283.15
283.15
283.15
290.202
286.026
283.15
283.15
283.15
283.15
283.15
302.969
294.648
283.15
296.889
285.491
283.15
283.15
285.426
283.15
289.697
293.734
283.15
282.85
283.15
295.025
283.15
290.417
300.07
297.315
283.146
297.865
283.15
300.965
283.488
283.15
283.15
293.495
301.328
283.152
283.15
283.352
283.15
283.15
283.15
283.15
283.15
283.15
293.022
295.606
283.15
283.15
283.15
283.15
290.677
283.15
295.031
292.766
290.918
283.15
283.15
283.416
283.15
290.418
289.471
283.15
296.821
283.15
297.63
286.661
283.15
299.375
290.19
283.15
303.201
283.15
283.15
283.15
283.15
283.15
283.15
283.164
283.15
283.15
283.15
283.15
283.161
283.175
287.302
290.104
297.234
295.521
283.15
290.533
283.598
283.15
288.657
303.15
297.465
283.15
283.164
283.15
283.15
283.15
283.15
283.15
297.999
290.126
303.15
286.101
283.965
287.548
283.968
283.911
283.154
286.346
303.15
283.15
289.723
286.574
283.15
283.15
283.15
283.15
283.894
283.733
283.15
283.15
283.153
283.15
283.15
301.587
283.15
288.658
283.15
283.15
283.767
292.531
283.15
283.15
300.901
283.15
283.15
283.15
283.15
283.15
286.224
283.68
283.15
295.879
283.15
283.15
283.15
302.442
283.15
283.15
283.62
303.114
283.15
283.15
283.15
293.8
283.78
285.279
283.15
283.15
283.15
283.15
283.15
283.15
283.15
283.15
296.636
283.15
283.15
283.15
283.15
303.15
283.15
283.15
283.15
283.15
283.15
283.15
283.15
283.15
287.5
283.184
283.15
283.15
283.15
293.676
283.158
283.15
283.15
283.153
283.15
283.15
283.15
283.15
283.15
283.15
283.15
283.15
283.15
283.15
293.13
283.15
292.382
298.847
283.297
283.15
285.749
283.15
283.15
285.441
285.477
285.106
283.15
283.15
283.15
283.15
283.15
283.15
297.224
287.575
301.631
283.15
283.15
283.15
283.15
283.15
283.15
283.15
283.15
283.15
283.15
293.57
287.029
283.15
288.451
283.15
283.15
291.995
283.15
283.15
283.15
283.15
283.15
283.15
283.15
283.193
283.15
283.15
283.15
291.428
283.15
290.955
296.129
283.15
291.755
283.15
283.15
283.15
283.15
291.008
286.698
287.815
288.526
290.192
283.15
297.532
283.15
283.15
283.15
300.989
285.03
295.813
283.15
285.059
284.94
283.15
283.15
283.561
283.15
283.166
283.15
283.15
283.15
283.15
297.502
285.027
283.15
283.15
283.189
296.927
289.208
283.15
293.84
300.245
283.195
301.684
293.907
283.15
283.15
283.15
283.15
283.15
283.15
283.15
284.086
283.15
283.152
283.15
283.15
283.15
283.15
283.15
283.15
283.15
283.15
283.15
283.708
283.15
283.15
283.15
283.15
284.781
283.15
283.15
283.15
283.15
283.15
283.15
283.15
283.15
293.753
283.15
283.15
301.23
283.575
283.15
288.41
283.15
283.15
288.453
283.15
283.15
293.874
283.15
283.15
283.15
283.15
283.15
283.15
283.15
283.15
283.15
283.15
286.961
283.15
283.15
283.15
283.15
283.15
283.582
283.15
283.15
283.15
283.15
283.15
283.15
293.23
283.15
283.151
283.15
283.15
287.008
283.15
283.15
283.15
283.15
283.618
283.15
283.15
283.15
283.15
283.15
283.15
283.15
283.15
283.15
283.672
283.15
302.493
283.15
295.224
297.192
283.15
283.35
283.15
283.15
283.15
283.15
283.15
295.694
283.15
291.691
296.674
283.15
290.839
298.881
283.15
291.744
290.524
290.795
283.15
283.15
283.15
283.15
283.15
283.15
283.15
283.15
283.15
283.15
283.15
283.15
283.15
283.15
283.15
283.15
283.15
283.15
283.15
283.15
283.15
283.15
283.15
283.15
283.15
283.15
283.15
283.15
285.464
283.15
283.15
294.632
283.15
283.15
283.15
283.15
283.15
283.15
283.15
283.15
284.885
283.15
283.15
283.15
283.15
283.724
283.15
283.15
283.216
284.917
283.15
283.15
283.15
283.746
283.15
283.15
283.15
284.996
283.15
283.15
283.15
283.15
283.15
283.15
283.15
283.15
283.15
283.15
283.15
283.15
283.15
285.301
283.15
283.503
285.506
285.346
283.707
283.15
283.15
283.15
283.15
283.15
283.15
283.15
290.282
283.15
283.15
283.15
283.15
283.15
283.15
283.15
283.15
283.669
283.15
283.15
283.15
283.15
283.15
283.15
283.15
283.15
283.15
283.15
283.15
283.15
283.15
283.15
283.15
283.15
285.21
283.15
283.15
286.109
283.15
283.15
283.15
283.15
285.707
283.15
288.432
301.692
283.15
288.186
283.15
283.15
296.051
283.15
283.15
286.158
283.15
285.277
283.15
283.15
283.15
296.343
285.74
303.15
283.15
283.15
283.15
285.701
283.15
286.057
283.15
283.15
283.15
300.435
283.21
283.15
283.15
283.15
283.15
283.15
290.608
283.15
283.15
283.15
283.15
283.15
283.15
289.679
283.15
283.15
283.15
284.912
289.156
283.15
283.15
283.15
283.15
283.15
283.15
283.15
285.764
287.986
283.15
293.693
283.15
283.15
303.15
283.15
283.15
296.821
303.15
288.265
283.15
283.15
283.15
290.395
291.736
283.15
288.979
283.15
283.15
285.253
284.382
283.15
283.15
283.15
283.15
283.15
293.528
284.164
283.15
283.15
283.15
283.15
299.04
292.588
283.15
283.15
283.15
283.15
283.15
286.516
283.15
283.15
283.15
303.15
283.15
283.15
283.195
283.15
283.15
283.15
283.167
283.15
283.15
283.15
283.15
283.15
283.228
283.15
283.15
283.15
283.15
283.15
283.15
283.15
283.15
283.15
283.15
283.15
283.15
283.15
283.15
283.15
283.15
283.15
283.15
283.15
283.15
283.15
283.15
288.344
298.865
283.15
283.15
283.15
283.15
283.15
283.15
283.15
283.15
283.15
283.15
283.15
283.15
283.15
283.15
283.15
283.15
283.15
289.492
283.15
283.15
283.15
283.15
283.15
283.15
283.15
293.881
283.15
302.578
283.15
283.15
283.15
283.15
283.15
283.15
283.15
283.15
283.15
294.118
294.095
283.15
283.15
283.15
283.15
283.15
283.15
283.15
283.15
283.15
283.15
283.15
283.15
283.15
283.15
283.15
283.15
283.15
283.15
283.15
283.15
283.15
290.925
283.15
283.15
283.15
296.245
283.15
283.15
283.15
283.15
283.15
283.15
295.028
283.15
283.15
283.15
283.15
283.15
283.15
283.15
291.929
283.15
283.15
283.15
283.15
290.352
290.547
283.15
283.15
290.511
283.15
283.15
283.15
283.15
283.15
283.15
283.15
283.15
283.15
283.15
283.15
283.15
283.15
285.858
283.15
295.901
283.15
283.15
292.111
283.15
283.15
283.15
283.15
283.15
283.15
283.15
288.178
283.15
289.073
283.15
283.15
283.15
283.15
283.15
283.15
283.15
302.65
283.15
283.15
283.15
284.188
283.15
293.422
283.4
302.755
283.15
302.965
302.576
297.03
283.15
283.15
287.334
283.15
283.15
283.15
286.76
303.15
283.15
283.15
283.15
283.15
283.15
283.15
283.15
283.15
283.15
303.15
283.15
283.15
283.15
283.15
283.658
283.15
283.764
283.15
283.15
283.15
283.613
283.25
293.824
294.368
293.486
283.15
293.756
283.15
283.15
302.726
283.15
283.488
283.15
283.15
283.15
283.15
283.15
283.15
283.15
283.15
284.642
284.74
283.15
297.822
283.15
283.15
283.15
283.15
283.15
288.916
283.15
283.15
283.15
283.15
283.15
283.15
283.15
283.15
283.15
283.15
283.15
283.15
290.2
283.15
283.15
295.418
298.616
283.15
290.13
293.451
283.15
296.326
283.15
283.149
303.15
293.551
283.15
283.15
283.15
283.15
283.15
283.15
283.15
294.75
286.884
299.057
283.15
303.15
283.15
283.15
283.15
283.15
295.864
283.15