/*--------------------------------*- C++ -*----------------------------------*\
  =========                 |
  \\      /  F ield         | OpenFOAM: The Open Source CFD Toolbox
   \\    /   O peration     | Website:  https://openfoam.org
    \\  /    A nd           | Version:  10
     \\/     M anipulation  |
\*---------------------------------------------------------------------------*/
FoamFile
{
    format      ascii;
    class       volVectorField;
    location    "2";
    object      U;
}
// * * * * * * * * * * * * * * * * * * * * * * * * * * * * * * * * * * * * * //

dimensions      [0 1 -1 0 0 0 0];

internalField   nonuniform List<vector> 
111485
(
(0.199768 -0.200564 1.96306e-05)
(0.564755 0.000205449 -0.000568661)
(0.565825 0.00154789 -0.00127534)
(0.199555 -0.200113 -7.6783e-05)
(0.565017 -0.00093672 0.000314831)
(0.199205 0.199932 -0.000529115)
(0.564597 0.000474284 -4.28476e-05)
(0.565006 -7.69843e-05 0.00076982)
(0.56224 0.000554102 9.79502e-05)
(0.565088 -0.000147841 -0.000159314)
(0.564648 0.000220585 0.000449638)
(0.566459 -0.000385914 0.000830199)
(0.564781 0.000499774 0.000563634)
(0.56396 0.000169168 -0.000555745)
(0.564943 -0.00037984 0.000248641)
(0.563155 0.000970543 0.000142716)
(0.565467 0.00054023 -6.73439e-05)
(0.204185 -0.0159666 0.0356112)
(0.564484 0.000517569 0.000151921)
(0.201967 -0.201574 0.000856232)
(0.196745 -0.197218 0.000996776)
(0.199066 0.200667 -0.000725715)
(0.564686 -4.39847e-05 -7.05346e-05)
(0.563858 -0.000462531 -0.000167588)
(0.564217 6.98378e-05 -0.000106678)
(0.201194 -0.199681 -0.0010671)
(0.56634 0.000445162 0.000266298)
(0.564178 -0.000505868 0.000688849)
(0.565492 0.000772178 -0.000135931)
(0.199404 -0.201006 -0.000174158)
(0.565564 0.00191505 -0.000480261)
(0.56559 0.00106589 0.000327199)
(0.199267 -0.199024 0.000387931)
(0.200614 0.200251 -0.000120124)
(0.203421 0.0823763 0.0383456)
(0.200703 0.202132 -0.00314292)
(0.566064 0.00128615 -0.000627762)
(0.56415 -0.000421071 0.00421441)
(0.581813 0.175752 0.0134825)
(0.565016 -0.000484294 -0.000437971)
(0.196682 0.198205 -0.00163285)
(0.565983 -0.000404793 9.92743e-05)
(0.564528 -0.000631848 -0.000593151)
(0.565718 -0.000488065 0.000335103)
(0.585571 -0.00866629 -0.00469502)
(0.20113 -0.200767 -0.000797237)
(0.565101 0.00027839 -0.000530654)
(0.563895 -0.000424892 -0.000100217)
(0.565574 -0.000831078 5.81743e-05)
(0.199373 -0.196676 0.00153181)
(0.19874 -0.196347 0.00165847)
(0.229333 0.191606 0.003139)
(0.19803 -0.196727 0.00103535)
(0.565511 -0.000104106 -0.000254976)
(0.197636 -0.195888 0.000562542)
(0.566779 -0.000235814 -0.000513235)
(0.565086 -0.000200814 -0.000427092)
(0.200072 0.199793 4.04922e-05)
(0.565742 -0.000481133 -0.000534317)
(0.567357 -0.000653461 -0.000743431)
(0.566933 -0.000678463 -0.000627323)
(0.200332 -0.199893 0.000532899)
(0.562207 -2.43458e-06 -8.39748e-05)
(0.566161 0.000393239 -0.000653687)
(0.207282 0.186401 0.00129992)
(0.566743 0.000485417 0.000308773)
(0.411818 -0.0419942 0.00652083)
(0.565489 0.000272072 -0.000471329)
(0.564983 0.000129433 -0.00109666)
(0.565168 -0.000811614 0.000379804)
(0.5634 0.00959599 -0.00768828)
(0.56548 0.000126381 0.000354724)
(0.214853 -0.193844 -0.00397869)
(0.561808 0.000317958 -9.97776e-05)
(0.199894 -0.199766 -3.99634e-05)
(0.566336 0.000169109 0.000633273)
(0.201942 0.201266 0.00109566)
(0.563682 9.78388e-05 0.00021275)
(0.199739 0.199366 -0.000754627)
(0.176454 0.172623 -0.00671636)
(0.559581 -0.00603657 0.00264292)
(0.561481 0.000448852 0.000429914)
(0.199481 0.19933 -5.12773e-05)
(0.199963 -0.19742 -0.00105881)
(0.566823 0.000898837 -0.000359215)
(0.56634 0.000307102 -0.000245147)
(0.455689 0.28857 -0.0785136)
(0.565997 0.000101426 -0.000794226)
(0.543661 0.0157978 0.0133109)
(0.564816 -0.000707113 -0.000607666)
(0.597793 0.00636775 -0.00668587)
(0.564345 0.000257357 -0.000866624)
(0.566411 0.000843977 -0.00036175)
(0.565058 0.000653825 -0.00041355)
(0.565703 -0.000329453 1.69721e-05)
(0.200692 -0.198722 -0.00214285)
(0.199379 -0.200495 -0.000424808)
(0.565921 -0.000216243 -0.000303019)
(0.6059 -0.128492 0.00341351)
(0.564243 -0.000611066 -0.000140382)
(0.199837 -0.199289 0.000539195)
(0.565725 0.00112746 -0.00132734)
(0.200944 0.201305 0.00115748)
(0.56543 0.000546409 0.000170859)
(0.564235 0.000795698 8.93541e-05)
(0.196269 0.172966 -0.00452218)
(0.199514 0.200673 -0.000734686)
(0.563642 0.000609627 0.000395019)
(0.565931 0.000456461 -0.000342016)
(0.515606 -0.0129686 -0.0133394)
(0.5658 -0.000120134 0.000267398)
(0.566464 0.000422527 -0.000958526)
(0.565641 -0.00110895 -0.000424401)
(0.565097 -0.000362444 -0.000431918)
(0.202799 -0.200629 0.000706891)
(0.563905 -0.000114087 -0.000247776)
(0.200284 -0.201194 -0.00117908)
(0.200828 0.199607 0.00117212)
(0.566005 -0.000434253 -0.000513667)
(0.1995 -0.200688 -0.000153866)
(0.2012 -0.199705 -0.00071574)
(0.267071 0.207001 0.0120449)
(0.197706 0.198432 -0.000201353)
(0.199972 0.199467 -0.000719984)
(0.564558 0.000574748 -0.00023718)
(0.161058 -0.116542 -0.0275936)
(0.253097 0.215257 0.00762924)
(0.563673 0.000580958 -0.000528587)
(0.200377 -0.199655 -0.000175379)
(0.585912 0.0376895 -0.0202655)
(0.564196 0.00177525 -0.000905931)
(0.566093 -0.00031596 3.3225e-05)
(0.199158 -0.198744 -0.000653408)
(0.260845 0.225713 0.0230163)
(0.241599 0.214269 0.0106598)
(0.565996 0.000521641 5.64696e-06)
(0.198368 0.19814 -0.00030999)
(0.566768 -0.000222661 0.000148898)
(0.565915 -0.000334092 -0.000599449)
(0.566516 -0.000739829 -0.000693114)
(0.566321 -0.000276152 0.000870213)
(0.565085 -0.00100732 -0.000779622)
(0.564938 -0.000950181 -0.000775699)
(0.565342 -0.000570976 -0.00020754)
(0.566032 -0.000493329 0.000325)
(0.565415 -0.00101022 0.000923878)
(0.198347 0.19974 -6.92801e-05)
(0.2001 -0.198218 -8.81291e-05)
(0.199616 0.199745 0.00038642)
(0.565573 0.000994392 -0.000528718)
(0.565012 -0.000856244 -2.29334e-05)
(0.198602 -0.199336 0.000197272)
(0.559736 0.000433851 0.000682844)
(0.566217 0.00126528 0.00128022)
(0.619008 0.0265854 0.00939152)
(0.564924 0.000820065 -0.00050124)
(0.565338 0.000547264 -0.000454521)
(0.564744 0.000143076 0.000136314)
(0.624892 0.0290218 0.00727198)
(0.198833 -0.200844 0.00103038)
(0.200306 -0.199107 0.000470177)
(0.565227 0.000945172 -0.000249936)
(0.56467 -0.000561878 -5.29464e-05)
(0.629081 0.0323257 0.00842803)
(0.618834 0.0278052 0.0119584)
(0.563202 -0.000705282 -0.000602697)
(0.564022 -0.000167698 -0.00104809)
(0.196864 0.19897 -0.000238549)
(0.637858 0.040042 0.00946827)
(0.607686 0.0312953 0.0122181)
(0.199896 0.200147 -3.66715e-05)
(0.201431 -0.201842 0.000324689)
(0.563211 -0.00035064 -0.000860384)
(0.198134 0.198597 -0.000577499)
(0.566622 0.000135623 0.000208672)
(0.566843 -0.000270279 -0.000692872)
(0.198095 0.195288 -0.000861135)
(0.215487 -0.200582 0.000229821)
(0.200019 -0.199067 -0.000506577)
(0.198803 0.184067 -0.000483697)
(0.215898 -0.20095 0.00231445)
(0.199471 -0.198807 0.000723462)
(0.565758 0.000977101 -0.00049114)
(0.564128 0.00137224 -0.000560813)
(0.564634 0.000876517 -0.000579143)
(0.5617 -0.00383212 0.00202505)
(0.564984 -8.43983e-05 0.000567832)
(0.565373 0.000498619 -0.000549406)
(0.56568 -0.000632023 -0.000155979)
(0.19979 -0.200599 0.000694445)
(0.566202 -0.000546792 -0.000501529)
(0.213903 -0.201693 0.00136893)
(0.201592 -0.200993 -0.000192167)
(0.565085 0.000675598 -0.000629836)
(0.565292 -0.00021749 -0.000130172)
(0.564408 0.00041614 -0.000190781)
(0.565161 0.000151702 0.000300868)
(0.564846 -0.000432279 0.000261562)
(0.199344 -0.198778 0.000518618)
(0.56554 0.000271633 0.000153106)
(0.565477 -0.000265998 -0.000414816)
(0.385031 0.11812 0.018669)
(0.565623 0.000578531 0.000147047)
(0.567727 0.000509494 0.000205431)
(0.200427 -0.199159 -0.000516926)
(0.56492 0.000807752 -0.000767088)
(0.562967 0.000179305 0.000110815)
(0.216431 -0.19803 -0.000920769)
(0.564349 1.52484e-05 -0.000390751)
(0.566155 -0.000205019 0.000267995)
(0.565406 -0.000345805 -0.000361688)
(0.564112 0.000896863 0.000195625)
(0.215938 -0.201745 0.00134381)
(0.199268 -0.19923 -9.1023e-06)
(0.563499 0.000909758 -3.226e-05)
(0.362408 0.221452 -0.0195424)
(0.564692 0.00011776 0.000779109)
(0.201145 0.199584 0.000598914)
(0.564425 4.34716e-05 0.000239676)
(0.56525 -0.000455444 0.000539828)
(0.564109 -0.000123976 0.00032208)
(0.200123 -0.200076 3.24436e-05)
(0.565628 0.0010555 0.000960868)
(0.561329 -0.00027021 0.000402994)
(0.320645 0.21315 -0.0236875)
(0.20126 0.199796 0.000242372)
(0.200051 0.200032 4.38168e-05)
(0.590507 -4.33461e-05 0.0050047)
(0.555643 0.0133213 -0.00150656)
(0.209768 0.178336 -0.00497594)
(0.246374 -0.192313 0.00683604)
(0.565558 -0.000277238 0.000216736)
(0.56496 2.73225e-06 -0.000258716)
(0.566735 0.000652681 0.000912519)
(0.206437 0.180884 -0.00602012)
(0.210655 -0.19389 -0.00105414)
(0.565227 0.000360967 -0.000478877)
(0.199832 -0.199754 1.25956e-05)
(0.565668 -0.00119705 0.000355424)
(0.566422 -0.000562862 0.00067818)
(0.56631 -0.000135658 0.000635206)
(0.565088 0.000143658 0.000258745)
(0.565303 0.000361811 0.000240983)
(0.199232 0.19936 0.000595085)
(0.527346 -0.00308745 -0.00570724)
(0.56636 -0.000365768 7.43337e-05)
(0.198201 0.198822 -4.1289e-05)
(0.200526 0.201442 0.000233752)
(0.564821 -0.00023755 -0.000474509)
(0.565193 0.00219181 -0.00118547)
(0.2045 0.174904 -0.00624111)
(0.566896 -0.000483163 7.41442e-05)
(0.566288 -0.000747906 1.13871e-05)
(0.197979 -0.197371 0.000794251)
(0.25532 0.241693 -0.000334135)
(0.563503 -0.000727671 0.000784823)
(0.202029 -0.197392 -9.86022e-05)
(0.221513 -0.157872 -0.00223061)
(0.298729 -0.10278 -0.0131128)
(0.199882 -0.197217 0.00131046)
(0.566033 0.000261816 -0.000330644)
(0.565088 0.00037678 0.000761615)
(0.56616 -0.000182449 -0.00114373)
(0.199979 -0.200056 -3.95894e-05)
(0.566812 -0.000780596 -0.000111758)
(0.200412 -0.199167 -0.000258661)
(0.201293 -0.200083 3.3345e-05)
(0.199214 -0.198384 0.000416295)
(0.562268 -0.000299265 -0.00212721)
(0.564145 0.000289403 0.000163021)
(0.56523 0.000316859 -0.000306995)
(0.567144 -5.41357e-05 -0.000213649)
(0.565538 -0.000921793 -4.98592e-05)
(0.567339 -6.69835e-05 -0.000703217)
(0.565764 -0.000190089 0.000189069)
(0.575845 -0.0059034 -0.000445768)
(0.564602 0.000147878 -9.50885e-05)
(0.565223 -0.0005095 -4.44837e-05)
(0.204335 0.198933 -0.000394966)
(0.200906 -0.200891 0.000333365)
(0.501573 -0.0022575 -0.00406504)
(0.564786 -6.923e-05 0.000794485)
(0.567607 -0.000805594 0.00271941)
(0.564635 7.29496e-05 -0.000235315)
(0.199567 -0.200565 -0.000203393)
(0.564559 -0.000287969 0.00027058)
(0.566501 0.000275963 -0.000115569)
(0.566719 -0.000303503 -0.000490259)
(0.565744 -0.000135234 -0.000339243)
(0.537768 -0.00868807 -0.00983651)
(0.565804 -0.000238422 -2.42776e-05)
(0.567189 7.41108e-05 -0.000313685)
(0.563987 0.000209126 0.000544599)
(0.2 0.200095 8.8943e-06)
(0.565962 0.000442604 -0.000533256)
(0.200375 0.199826 0.000565658)
(0.160961 0.12014 -0.0268195)
(0.223384 -0.143945 -0.0118108)
(0.594379 -0.00434056 0.0084311)
(0.565464 -0.000676704 -0.00022332)
(0.562946 0.000182524 0.000257885)
(0.201354 -0.199923 0.00150125)
(0.199229 0.200345 0.00171785)
(0.564118 -0.00088279 -0.000646322)
(0.565552 0.000416915 0.000130004)
(0.199547 -0.199737 -0.000540718)
(0.201168 -0.200281 -0.000772648)
(0.194473 -0.19548 0.00149659)
(0.563571 -0.000236585 -0.000830006)
(0.565028 -0.000983639 -7.70206e-05)
(0.566665 -0.00012432 -0.000367228)
(0.565658 -0.000117863 -7.91093e-05)
(0.568609 -0.000464872 2.45896e-05)
(0.23154 0.197582 0.00575216)
(0.200454 0.199573 0.00155042)
(0.200634 -0.200069 -0.000802957)
(0.563709 -0.000585047 -7.56714e-06)
(0.375938 -0.318185 -0.0180942)
(0.564267 0.000238663 -0.000404596)
(0.584909 -0.00106582 0.00828582)
(0.562687 0.000256582 -0.000397466)
(0.200388 0.20006 -0.000719302)
(0.200377 -0.200688 0.000776689)
(0.201406 -0.2009 8.10966e-05)
(0.255837 0.211055 0.0130918)
(0.565211 -0.000208865 -0.000332093)
(0.566266 -0.000967975 8.45381e-05)
(0.199752 0.200771 5.50352e-05)
(0.566266 -0.000563485 -0.000488447)
(0.212014 0.170492 0.0126925)
(0.200701 -0.198883 0.000319009)
(0.565384 0.000308482 0.000305368)
(0.566259 -0.000927325 8.32356e-05)
(0.56524 -0.000574588 2.37343e-05)
(0.566595 -0.00061596 -0.000361825)
(0.193202 0.170013 0.0115099)
(0.252534 0.214351 0.0137716)
(0.199391 0.199626 -0.000388105)
(0.566639 -0.000763841 -0.000175919)
(0.566319 0.000541077 6.68546e-05)
(0.563665 0.00420944 -0.000272541)
(0.198791 0.197799 -0.00011142)
(0.405926 0.356665 -0.0865132)
(0.562892 -0.00586122 0.00120087)
(0.566452 -0.000542816 0.000644842)
(0.565253 -0.000418646 -0.000340016)
(0.549348 0.0529336 -0.00560299)
(0.568132 -0.000337617 0.000735012)
(0.202178 0.201018 0.000142594)
(0.568223 -0.000435714 0.000489471)
(0.564863 -0.0012769 0.000589738)
(0.572031 -0.00984368 -0.000151205)
(0.564074 0.000176524 0.000766149)
(0.56027 -3.82296e-05 -0.000401248)
(0.198829 0.199811 -0.000363075)
(0.19898 -0.2002 -0.00205091)
(0.199877 0.199235 0.0010454)
(0.198059 -0.199026 -0.00168537)
(0.565186 -0.000184044 -0.000266596)
(0.565247 -0.00161986 0.000473177)
(0.564564 0.000409724 0.000417806)
(0.56728 -0.00074646 0.000175711)
(0.198456 0.198182 -0.000644896)
(0.563145 0.000671727 -0.000405424)
(0.198324 0.199091 -0.00148544)
(0.200427 -0.199379 -0.000121253)
(0.567518 -0.000601101 0.000212276)
(0.186747 -0.186319 0.00298564)
(0.327336 -0.0717072 -0.00243998)
(0.196991 -0.196212 -0.000213766)
(0.200342 0.196653 0.00116714)
(0.562754 0.000361345 -0.000667653)
(0.200035 0.199902 2.31542e-05)
(0.564529 0.000362316 -0.000261721)
(0.564795 0.000451326 -0.000222937)
(0.199109 0.199887 -0.000108483)
(0.563778 -0.00014936 0.00104942)
(0.565384 -0.00132325 0.000824388)
(0.201682 0.176452 -0.00687709)
(0.564523 -0.00104771 0.000571721)
(0.565868 -0.000319674 0.000329726)
(0.565647 -0.00152507 0.00123909)
(0.56648 -0.00133532 0.00105028)
(0.565249 0.000653639 0.000523359)
(0.564223 0.000281524 0.00013879)
(0.198073 0.167982 -0.000577108)
(0.200851 -0.200409 0.00135511)
(0.562081 0.000205379 -0.000239126)
(0.198286 0.198928 -0.00117285)
(0.567043 -0.00086086 -0.000545018)
(0.566539 0.00019728 -0.000953974)
(0.20028 0.192078 0.0018951)
(0.19948 0.200389 -2.73731e-05)
(0.565578 0.000360324 -0.000447347)
(0.562945 0.000595854 -0.000550889)
(0.564264 0.00170842 -0.000471302)
(0.564189 0.000601914 -9.76513e-05)
(0.201044 0.199565 -5.96247e-05)
(0.569178 0.0010423 0.00145708)
(0.565377 -0.000526298 0.000871351)
(0.199682 0.199641 0.000470163)
(0.564368 -9.50134e-05 0.0016018)
(0.564063 0.000331731 -5.51769e-05)
(0.1997 -0.200613 -5.71858e-05)
(0.197945 -0.197985 -0.00204443)
(0.56432 0.000661981 -0.000306266)
(0.56468 -0.000136364 0.000428458)
(0.200069 0.200044 -0.000192542)
(0.201611 -0.20081 0.000200603)
(0.343662 -0.190794 0.0413182)
(0.199566 -0.200555 0.000186003)
(0.566638 -0.00105633 0.000417164)
(0.199515 0.20053 0.000344977)
(0.201202 -0.199276 -0.00147847)
(0.564098 -0.000582338 0.000149513)
(0.561694 -0.00117005 -0.000438808)
(0.564893 0.000305908 -0.000358141)
(0.565425 0.00134749 -0.000442952)
(0.19922 0.199451 -0.000823558)
(0.2625 0.201019 0.00955867)
(0.564564 -0.000182041 -0.000214885)
(0.245059 0.21425 0.012085)
(0.565492 -0.000616407 -2.07077e-06)
(0.565499 -0.000390092 -0.000142146)
(0.56459 -1.14449e-05 0.000306912)
(0.410081 0.0091281 0.0176699)
(0.239297 0.206013 0.0114793)
(0.5694 -0.000899443 -0.0056305)
(0.590786 0.0198118 -0.00429485)
(0.202726 -0.199934 -0.000589355)
(0.564874 0.000457307 -0.000649963)
(0.566333 -0.000967892 0.000647493)
(0.200044 -0.199982 0.000184721)
(0.576575 0.0377302 -0.0206377)
(0.565089 -0.00016252 0.00070996)
(0.255717 0.198939 0.00784981)
(0.56322 0.000620656 -0.000947053)
(0.566114 -0.000868309 -0.000618673)
(0.565077 0.000484015 -0.000470575)
(0.200577 0.199421 -4.96466e-06)
(0.562104 -0.00210352 0.00393638)
(0.565796 -0.000325435 0.00054295)
(0.560044 0.00440135 -0.000750637)
(0.407725 -0.0069189 0.00588144)
(0.245597 0.231188 -0.00419179)
(0.351787 -0.00882956 0.0154719)
(0.199764 -0.200275 0.000142447)
(0.561483 -0.0010676 -0.00097862)
(0.562253 -0.00215918 -0.00365074)
(0.200158 0.200174 0.000211055)
(0.565662 -4.71994e-05 -9.99746e-05)
(0.563005 0.000108202 0.000905694)
(0.262508 0.231628 -0.00149976)
(0.200057 -0.199931 -2.35564e-05)
(0.23163 -0.198946 0.00499967)
(0.197714 -0.200791 -0.00176077)
(0.562761 0.000445039 -0.000221271)
(0.564542 0.00211336 -0.000792591)
(0.565027 0.000498812 -0.000807408)
(0.566344 4.72636e-05 8.3081e-06)
(0.565994 0.000533321 -0.000199778)
(0.200475 0.199995 -5.26483e-05)
(0.564878 -0.000344189 -0.000256755)
(0.201437 -0.198603 0.0005699)
(0.565284 0.000852903 -0.000213998)
(0.199708 0.201705 -0.000383118)
(0.201348 -0.199609 0.000210361)
(0.199486 -0.198631 -0.000455738)
(0.564565 -0.000264569 -0.000218423)
(0.200746 -0.200773 0.000730516)
(0.200085 -0.200436 -0.000846071)
(0.196847 0.127481 -0.00996248)
(0.201308 -0.199862 -2.52144e-05)
(0.197564 0.200159 0.00185314)
(0.566262 0.00105408 1.86628e-05)
(0.200044 0.199861 1.33342e-06)
(0.237943 0.173563 0.00135682)
(0.200716 0.200035 -1.73313e-05)
(0.20033 -0.19981 -7.6212e-05)
(0.200547 0.199616 -0.000600961)
(0.1992 -0.197222 -0.00157504)
(0.198868 0.198893 -0.000512018)
(0.566242 0.000154261 0.000116572)
(0.200438 0.199012 0.00133634)
(0.559604 -0.000146162 0.000603198)
(0.564822 0.00137537 0.000800868)
(0.594707 -0.0166506 -0.00301819)
(0.198732 0.198231 0.00119241)
(0.561888 -0.000107335 0.000594629)
(0.200657 0.199287 0.00102069)
(0.201651 -0.200862 4.65129e-05)
(0.562474 -8.06481e-05 -0.000257207)
(0.563646 0.000105154 -3.66124e-05)
(0.564698 2.14212e-05 -0.000650164)
(0.586171 0.00378276 -0.00642305)
(0.230187 0.193368 -0.00432941)
(0.56392 0.000514157 0.000226139)
(0.563912 0.000432331 0.00014548)
(0.565901 -8.75114e-05 -0.000118007)
(0.565603 7.32146e-05 -0.000632188)
(0.561447 -0.000212096 -0.00039935)
(0.201446 -0.200593 0.000988803)
(0.566234 -0.000438659 0.000177452)
(0.264753 0.230618 -0.000243777)
(0.564975 0.000530932 -0.000132225)
(0.199423 0.199334 0.000281641)
(0.564055 0.000681105 -0.000204927)
(0.261142 0.217677 0.00344404)
(0.565589 -0.00076118 -0.000933086)
(0.564482 -1.65978e-05 0.000360751)
(0.22838 -0.119777 -0.0031746)
(0.200377 0.200294 0.00213992)
(0.565522 0.000439352 0.000965033)
(0.199287 -0.199474 0.000280455)
(0.565306 0.000155484 0.000316793)
(0.564895 0.000461567 -9.91881e-05)
(0.199859 0.199225 -0.00167891)
(0.199843 0.199756 0.000372193)
(0.196237 0.173133 -0.00427586)
(0.199678 0.199848 0.000176596)
(0.413498 -0.0219194 0.0118659)
(0.565775 4.41974e-05 0.000332016)
(0.202754 0.196188 0.00123868)
(0.199549 0.199995 0.000360617)
(0.567111 -0.000130334 -0.000517969)
(0.201278 0.200124 -0.000862282)
(0.565163 0.000190529 5.23575e-05)
(0.20148 0.200465 0.00165244)
(0.565156 0.000350021 -0.000556231)
(0.199377 -0.199986 0.000985775)
(0.566282 0.000256987 0.000712787)
(0.566419 -0.000513311 -0.000164686)
(0.566393 0.000335766 -0.000487597)
(0.565801 -0.000443537 -0.00118844)
(0.20391 0.200311 -0.00133602)
(0.565375 0.000507826 -0.00230767)
(0.201552 0.200453 0.000229683)
(0.20041 0.1993 -0.00144271)
(0.565891 0.000818855 -0.000734577)
(0.199445 0.199353 0.000355274)
(0.565572 -0.00024683 -0.000242599)
(0.19144 0.177427 -0.00497106)
(0.565148 0.000640461 -0.000184463)
(0.197084 -0.198353 0.000244053)
(0.562096 0.000200998 -4.50103e-05)
(0.199474 -0.198117 0.000208799)
(0.240074 0.209377 0.00605756)
(0.593082 0.0246594 -0.00326301)
(0.562704 0.000422549 0.000118094)
(0.565458 1.99718e-05 0.00013378)
(0.563994 0.000243986 -0.000772472)
(0.565118 0.000127585 0.000180269)
(0.565795 -0.00134883 -0.000564225)
(0.197861 0.199247 -0.000859203)
(0.565868 3.85056e-05 0.000318889)
(0.563735 0.000494749 -3.45705e-05)
(0.200196 0.200018 0.000154832)
(0.502508 -0.0104212 -0.0204248)
(0.565056 0.000160529 0.00036072)
(0.566085 -0.000290121 4.65426e-05)
(0.197914 0.195549 -0.00170862)
(0.250461 0.0476244 -0.0392921)
(0.5658 0.00133541 -0.000515278)
(0.565384 -0.00028034 0.000888408)
(0.467846 0.106138 -0.00410638)
(0.25506 -0.135967 -0.00845087)
(0.565318 -0.00109249 -0.00152052)
(0.563431 -0.000225836 -0.00154533)
(0.560494 0.000136286 0.000526388)
(0.565974 0.00120558 -0.00120893)
(0.560626 0.00248347 0.00164181)
(0.503279 0.0620274 -0.000165118)
(0.250325 0.208886 0.00150743)
(0.508972 -0.0217606 0.00941872)
(0.502045 -0.0434602 0.0084368)
(0.200809 -0.199986 -0.000696825)
(0.566551 -0.000561793 0.000606762)
(0.201318 0.197448 -0.00103938)
(0.235091 0.215322 0.00314407)
(0.565249 -0.00047403 0.00107565)
(0.510995 0.0806257 0.00284897)
(0.61277 -0.0560999 -0.0076958)
(0.554255 -0.102547 -0.00262925)
(0.23508 0.222713 -0.0147248)
(0.565579 0.00109519 -0.00124168)
(0.563372 -0.00106934 0.000222164)
(0.199747 0.198248 0.000958085)
(0.259724 0.14211 -0.00555402)
(0.562726 -0.000720146 -0.000453259)
(0.201388 -0.198958 -0.00128103)
(0.200939 0.200163 0.000145022)
(0.198528 0.199118 -0.000187723)
(0.200951 0.199438 0.000787815)
(0.565636 0.000222646 -0.00127855)
(0.199779 0.203215 -9.37907e-05)
(0.200314 -0.200505 0.00101478)
(0.565618 0.00139805 -0.000533616)
(0.565346 -0.000239052 0.000237716)
(0.290383 -0.255554 -0.0150121)
(0.562058 -0.000805031 -0.000717216)
(0.233521 0.186656 0.00481156)
(0.564251 -1.35004e-05 -0.000236363)
(0.197026 -0.196805 -0.000178417)
(0.199656 0.200083 -3.01997e-05)
(0.565305 0.00101265 -0.000754004)
(0.200528 0.199617 -0.000389002)
(0.199766 0.199104 0.00123388)
(0.230403 0.220116 0.00761404)
(0.562551 -0.000445835 -0.000126646)
(0.33433 0.277797 -0.0371194)
(0.564608 0.000312275 0.000291258)
(0.565103 -0.000192454 0.000922814)
(0.199175 -0.197142 -0.000780302)
(0.59711 0.00362362 0.0167084)
(0.567439 0.000290377 5.77827e-05)
(0.564493 0.000421829 -0.00043074)
(0.559255 6.49293e-05 -0.00266517)
(0.583192 0.0058158 -0.0145177)
(0.563284 0.000179729 0.00150615)
(0.200864 0.199722 0.00131173)
(0.563605 -0.0011022 -0.000388126)
(0.565343 -0.000856468 -2.92537e-05)
(0.197858 -0.200443 0.000289022)
(0.567911 0.000534149 -0.000486229)
(0.563831 -4.30473e-05 -0.00010162)
(0.566201 -0.00106153 -0.000366691)
(0.562683 -0.00288849 -0.00367689)
(0.566192 -0.00105963 -0.000258639)
(0.566128 -0.00103384 -0.000300827)
(0.200395 -0.196802 0.00133491)
(0.56708 -0.000271468 0.000844562)
(0.566538 0.000449499 -0.000129559)
(0.242687 0.210006 0.013794)
(0.566217 -0.000914868 -0.000404191)
(0.565567 -0.000506496 0.00010483)
(0.323991 0.261478 -0.0395844)
(0.565318 -0.000249039 0.00123202)
(0.566072 -0.000943014 -0.000411241)
(0.565562 -0.000521682 3.07965e-05)
(0.56637 -0.000976846 0.000774541)
(0.564657 -0.000431699 -0.000345304)
(0.565631 -0.000213589 0.00133128)
(0.194594 0.188843 -0.000947349)
(0.566235 -0.000796635 0.000736825)
(0.567009 -8.27952e-05 0.000698281)
(0.222465 -0.137146 0.00415249)
(0.565613 0.00013012 0.000152096)
(0.564758 -0.000312057 7.45421e-05)
(0.567558 -0.000248538 0.000253399)
(0.200789 0.199917 -0.000103472)
(0.561286 0.00330985 -0.00530136)
(0.199861 -0.19872 0.000611384)
(0.200453 0.198673 -0.00179798)
(0.197596 0.198546 -0.000509431)
(0.201559 0.199874 -0.000260435)
(0.565717 -5.83628e-05 -0.000677808)
(0.239638 0.205557 0.00848437)
(0.472395 -0.0251364 0.0291751)
(0.199684 -0.198451 -0.00107998)
(0.199419 0.201121 -0.000970913)
(0.565029 0.000639681 0.000199687)
(0.56607 0.000310547 -0.000485503)
(0.202614 -0.200349 0.000747209)
(0.564573 0.000358909 -0.000479173)
(0.20082 -0.199945 0.000785607)
(0.200229 -0.200086 -4.05921e-05)
(0.197336 -0.197061 0.000943662)
(0.563429 -0.000689306 -0.000270058)
(0.56699 -0.000568108 0.000481657)
(0.238984 0.210711 0.00310736)
(0.199669 -0.197802 0.000756903)
(0.196646 0.199755 0.000901812)
(0.202059 0.201145 0.000796792)
(0.565897 0.000934155 -0.000676964)
(0.565674 0.000121218 0.000352084)
(0.238349 0.222937 0.0122787)
(0.565243 0.00029596 -0.000255089)
(0.548138 -0.00728306 -0.0194031)
(0.199658 0.1998 -0.000112417)
(0.564113 0.000253646 -0.000470345)
(0.565884 0.00125179 -0.000916351)
(0.561194 0.00237031 -0.00347411)
(0.200871 0.201139 0.00196007)
(0.19723 0.198403 -0.00110085)
(0.567416 0.000495433 0.000876435)
(0.567038 1.18446e-05 0.000476359)
(0.238344 0.214591 0.00351601)
(0.198689 0.198467 -0.000211198)
(0.202263 0.196864 -0.000845041)
(0.562441 0.000929389 -0.000834184)
(0.200966 -0.200924 -0.00069101)
(0.199745 -0.199376 4.13655e-05)
(0.19942 0.199496 0.000555865)
(0.565722 0.000224224 -0.00029696)
(0.566154 0.00037894 -0.000112515)
(0.200662 0.199794 -0.000920636)
(0.226886 0.0418913 0.0444685)
(0.24943 -0.0336646 -0.00970929)
(0.562163 0.00252374 0.000478284)
(0.199721 0.199996 -8.46073e-05)
(0.201535 0.199564 0.00188784)
(0.565096 -0.000955103 -0.000157222)
(0.564501 0.00113202 0.000297289)
(0.242807 0.213628 0.0105094)
(0.354013 0.113726 0.00605299)
(0.557776 0.0101305 0.0159059)
(0.565337 -0.000123378 -0.000763234)
(0.56478 -0.000680688 -0.000679139)
(0.209153 0.193395 -0.000859237)
(0.564615 -0.000867173 0.00026321)
(0.566011 0.00031716 0.000540195)
(0.200373 0.199753 -0.000237359)
(0.198603 -0.195281 0.000488004)
(0.197397 0.198398 7.21378e-05)
(0.198813 0.198607 -3.36948e-05)
(0.20069 0.200371 -0.000356307)
(0.199662 0.199923 7.7191e-05)
(0.566527 0.000128541 -0.000196637)
(0.201037 -0.200278 0.000258034)
(0.198524 0.199249 0.00048242)
(0.199674 0.195767 -0.000166595)
(0.566316 0.000222925 -0.000303809)
(0.566953 0.000211506 0.00063797)
(0.200007 -0.199597 0.000117515)
(0.198245 -0.195505 0.000917682)
(0.565049 -4.52753e-05 -0.000565859)
(0.566639 -0.000844727 -0.000296007)
(0.566438 -0.000670043 -0.000123424)
(0.200833 -0.200018 0.00133052)
(0.19873 0.198671 0.000812379)
(0.566274 -0.000667992 -4.98412e-05)
(0.200349 -0.199968 0.000448912)
(0.565898 0.000446351 -0.000336727)
(0.565114 -0.000749738 -0.000210553)
(0.56663 -0.000965507 -0.000246301)
(0.201054 -0.198089 0.00118689)
(0.200233 -0.199902 0.00106212)
(0.199891 -0.199819 0.000753588)
(0.196843 0.196034 -0.000492784)
(0.563893 0.000234624 -0.000653148)
(0.20082 0.20111 0.000270734)
(0.198668 0.199131 -0.000261853)
(0.564061 0.000749536 0.000345556)
(0.199856 -0.200859 0.000669944)
(0.563989 0.00112477 -0.000174116)
(0.56729 0.000559378 6.93306e-05)
(0.201749 0.195376 0.000835414)
(0.567954 -0.000103756 0.000345033)
(0.267061 0.0267926 -0.00132574)
(0.564133 0.0011309 -0.000230109)
(0.567149 -0.000958273 0.000416033)
(0.566303 -6.80424e-05 0.000111864)
(0.564565 -6.03581e-05 -0.000610112)
(0.436737 0.00931273 -0.0108714)
(0.240985 0.191553 0.00509712)
(0.563899 0.00116984 -0.000241655)
(0.562632 0.000304154 -0.000275309)
(0.565568 -0.000755331 -3.00205e-05)
(0.20422 0.178941 -0.00688962)
(0.304574 0.012114 -0.00135554)
(0.311938 -0.0364778 0.00492754)
(0.564326 0.00022449 -0.000184226)
(0.201221 0.202545 -0.000667885)
(0.566646 -0.000987781 0.000265252)
(0.565824 -0.000456458 1.056e-06)
(0.566108 -0.000818149 0.000373657)
(0.21579 -0.157641 -0.0103139)
(0.200241 -0.199953 0.000310054)
(0.2 -0.200001 -3.39109e-06)
(0.56532 -0.000310902 -0.00013956)
(0.232522 0.193664 -0.000553385)
(0.566825 0.000592405 -0.00265234)
(0.218052 0.198804 0.00196638)
(0.564589 0.000816631 0.00151304)
(0.566375 0.000672068 0.000476342)
(0.564867 0.000750328 -0.000153089)
(0.567007 -8.10353e-05 0.000287669)
(0.199343 0.199808 -0.000116799)
(0.195144 0.196276 6.53746e-05)
(0.213619 -0.196215 -0.000318951)
(0.567459 -0.000586112 -0.00020977)
(0.200357 0.199544 -0.000540502)
(0.230879 0.19828 -0.00777125)
(0.589502 0.0153478 -0.0116435)
(0.200126 0.199815 -0.000165051)
(0.198761 0.199687 0.000637197)
(0.200109 -0.200175 0.000343866)
(0.200754 0.200405 0.00118458)
(0.565418 0.00059495 -0.000381811)
(0.20536 0.194701 -1.32251e-05)
(0.200952 0.200274 -8.6533e-05)
(0.46056 0.0670111 -0.0410234)
(0.234163 0.189586 -0.000572616)
(0.197835 0.198245 -0.00184553)
(0.281897 -0.170613 0.00868157)
(0.200799 0.201091 -0.000695524)
(0.56378 7.02783e-05 -0.000521049)
(0.565624 -0.00103218 -0.000455598)
(0.198508 -0.19837 -0.000680549)
(0.566572 3.09732e-05 -0.000281)
(0.554402 0.0876154 -0.0082386)
(0.564063 -0.000371657 -2.91487e-06)
(0.604537 0.0237051 0.00235193)
(0.566574 -0.000461547 0.000628438)
(0.200206 0.198453 0.000724142)
(0.563609 0.000629426 7.75216e-05)
(0.566755 -0.000268221 8.81398e-05)
(0.56332 -4.99112e-05 6.81935e-05)
(0.201907 -0.201322 -0.00139749)
(0.600146 0.155729 0.0366945)
(0.56557 0.00013272 -0.000933512)
(0.268337 0.211898 -0.0130285)
(0.566041 -0.000580725 -0.00116092)
(0.584806 -0.00257855 -0.00197603)
(0.582036 0.00334325 0.00267658)
(0.564623 0.000651723 -0.000398102)
(0.566299 0.000844986 -0.00124501)
(0.593934 0.00267536 -0.00222848)
(0.566362 0.00125504 -0.000577163)
(0.566267 -0.000403775 8.17954e-05)
(0.199271 0.199307 0.000710955)
(0.199799 0.198134 0.00109192)
(0.566583 0.000282372 -0.00129317)
(0.566177 -0.000171959 -0.000185804)
(0.199518 0.200119 -1.33333e-05)
(0.566205 0.000275473 -0.000685407)
(0.565659 -0.00127964 -0.000258443)
(0.566814 -0.000279168 0.000136247)
(0.200191 0.19861 -0.000649088)
(0.57713 0.00133583 0.00417544)
(0.200761 0.200519 0.00157052)
(0.566826 -0.000479306 -9.36488e-05)
(0.567069 0.000103418 4.45643e-05)
(0.200649 0.201616 0.000118576)
(0.561159 0.00195695 -0.0044946)
(0.566169 0.000123503 -0.000341667)
(0.574782 0.00304189 0.00357451)
(0.567298 -0.00144452 0.000883977)
(0.205398 0.198261 -0.000593343)
(0.56608 0.00068509 4.77602e-05)
(0.582035 0.00459162 0.00272766)
(0.600738 -0.0161993 0.0030055)
(0.524366 0.00433476 -0.00104625)
(0.565624 0.000131385 0.000657314)
(0.20043 0.199339 -0.000462269)
(0.197625 0.199388 -0.000803117)
(0.564554 0.000476856 0.000397007)
(0.198363 0.198283 -0.000341739)
(0.564349 -0.00023536 8.07697e-05)
(0.566696 0.000234717 -0.000627356)
(0.338986 0.0381499 -0.00594044)
(0.624017 -0.0410884 0.01708)
(0.551572 -0.0246328 0.00803921)
(0.612361 -0.0231727 0.0064119)
(0.199196 0.198206 -0.000485496)
(0.27436 0.234289 0.00202212)
(0.565866 0.000602256 -7.79681e-05)
(0.199284 -0.200155 -0.000824219)
(0.114182 -0.0806452 0.0322684)
(0.559081 0.00118326 0.000748458)
(0.202842 0.198195 -0.000437356)
(0.200539 0.199349 -0.00139602)
(0.516043 -0.00971708 -2.23333e-05)
(0.419338 -0.028084 0.00389174)
(0.198753 0.198968 2.42482e-05)