/*--------------------------------*- C++ -*----------------------------------*\
  =========                 |
  \\      /  F ield         | OpenFOAM: The Open Source CFD Toolbox
   \\    /   O peration     | Website:  https://openfoam.org
    \\  /    A nd           | Version:  10
     \\/     M anipulation  |
\*---------------------------------------------------------------------------*/
FoamFile
{
    format      ascii;
    class       volScalarField;
    location    "30";
    object      SgRate;
}
// * * * * * * * * * * * * * * * * * * * * * * * * * * * * * * * * * * * * * //

dimensions      [1 -1 -3 -1 0 0 0];

internalField   nonuniform List<scalar> 
111485
(
1.74748e-09
0.0090227
0.0210302
5.60774e-12
0.0450091
2.50183e-09
0.0416604
0.0058767
0.0183807
0.00112929
0.0418552
0.00915469
0.00424733
0.00600663
0.00593084
0.0316596
0.00496734
1.99759
0.0100314
2.52137e-08
0.000692772
2.32438e-10
0.0234241
0.035527
0.00847632
2.17067e-09
0.0400824
0.00174773
0.015943
0.000902609
0.0434615
0.017389
6.31748e-09
2.55522e-08
0.00968404
1.80201e-06
0.0129488
0.00701757
4.27265e-05
0.0215686
0.000722328
0.071999
0.0144368
0.00100106
3.71192e-05
3.90988e-08
0.0328174
0.000721076
0.0475677
1.45431e-08
2.90068e-08
3.57396e-07
1.03333e-08
0.0444873
3.48075e-08
0.0431262
0.00355372
4.18571e-10
2.79139e-05
0.00449302
0.0149411
5.82189e-09
0.00402064
0.0885249
1.50062e-07
0.00359146
0.300864
0.0973047
0.000923213
0.00512355
7.58349e-06
0.00548211
2.15315e-07
0.00244781
5.78118e-09
0.00063645
1.11048e-09
0.0425237
1.98288e-09
4.91079e-07
0.00501913
0.0408187
9.26865e-10
2.18045e-09
0.00813043
0.0044277
0.00249511
0.0225435
5.10313e-05
0.00679457
0.000868516
0.0410763
0.0103462
4.69413e-05
0.0559686
4.24318e-10
0.000505033
0.00145295
2.89328e-05
0.00148736
5.41506e-10
0.0195169
3.54574e-08
0.021464
0.004831
2.60979e-07
1.91543e-10
0.00749049
0.00318476
1.18895e-05
0.00220274
0.0050604
0.00313602
0.00264659
5.62342e-09
2.92861e-05
1.55323e-09
1.64877e-07
0.0113602
1.57113e-10
1.14782e-09
3.3602e-06
0.00124904
4.51686e-08
0.00233817
0.00053328
1.97793e-06
0.0015148
1.75439e-11
0.000178546
0.00098988
0.0280715
0.000884791
3.17101e-06
1.47351e-06
0.0491782
1.99329e-10
0.040995
0.0225408
0.00255805
0.000173275
0.00186974
0.0236277
0.00310777
0.00379326
0.011375
2.29327e-10
8.2805e-10
2.22199e-09
0.0262323
0.0018317
0.000530761
0.00197824
0.00520566
1.66652e-06
0.0106176
0.0154679
0.00943642
1.63383e-05
1.09078e-07
7.81141e-11
0.052687
0.0252339
6.28603e-06
1.57974e-06
0.00518599
0.00369181
0.000451772
3.74243e-05
6.81032e-05
4.09148e-11
2.10878e-09
0.00362207
2.73233e-11
0.00597209
0.00220803
7.92817e-09
1.64135e-07
4.07832e-09
1.017e-07
1.48456e-07
4.98661e-09
0.00134018
0.0067145
0.0277098
0.0040207
0.00641759
0.00356726
0.000101398
5.52499e-09
0.00425265
9.12584e-08
1.31595e-07
0.00581638
0.0110736
0.0228131
0.0103306
0.00435237
2.00858e-08
0.00604936
0.00057419
7.31728e-05
0.0111929
0.0023135
3.05503e-08
0.00324787
0.0275284
2.00968e-07
0.000230388
0.00651882
0.00228219
0.000308491
1.42251e-07
1.18811e-10
0.00728801
5.0608e-06
0.123844
3.19939e-10
0.00602213
0.0189902
0.121878
1.35316e-09
0.00266962
0.0120084
5.04203e-06
1.16609e-10
2.22079e-11
0.16667
7.41956e-05
4.09776e-07
1.72563e-06
0.00910121
0.00857338
0.0185275
6.52006e-07
2.53655e-07
0.00285533
1.38377e-09
0.00272609
0.00832832
0.0149349
0.0108015
0.00917136
7.49338e-08
3.32879e-05
0.000572762
1.44422e-07
1.48803e-09
0.0306727
0.0238229
3.57077e-07
0.00475882
0.0098198
2.51707e-11
3.63691e-06
0.00015326
5.70936e-09
1.20852e-06
0.00184381
1.5617e-09
0.01559
0.0117313
0.003509
6.55547e-11
0.0109313
1.58881e-11
9.67769e-10
1.24518e-08
0.00297154
0.0225633
0.00553338
0.00466246
0.0400843
0.0109697
0.0014987
0.000594488
0.034085
0.00957236
9.40957e-09
1.83742e-09
0.0020354
0.0220576
0.021521
0.0128258
2.63373e-11
0.0101538
0.00662172
0.00276262
1.23841e-05
4.96735e-06
0.0122118
0.00211617
0.00186439
1.64557e-10
0.000779168
3.31635e-10
6.85814e-06
4.94472e-06
0.266629
0.0682644
0.0198955
6.04361e-09
0.00144089
0.00832417
0.00188522
2.27288e-10
2.20285e-09
0.000461977
0.0003802
0.0613963
0.00334116
0.0154489
0.0182924
4.57274e-07
7.73416e-10
3.91512e-09
0.00352314
7.50184e-05
0.00573472
0.186953
1.44371e-05
1.7537e-10
1.02313e-09
4.48909e-10
1.49397e-06
0.0573624
0.0123237
5.71653e-08
0.00485973
1.32027e-06
0.00112862
0.0672869
0.00537648
0.0107254
0.00854949
0.000795775
9.2806e-07
1.0758e-08
0.00872031
0.0197887
0.00467597
2.72842e-09
0.00264772
0.00022946
0.00177433
0.00735165
6.82049e-05
0.0284647
0.000652044
0.0370387
0.00315992
0.00784526
0.023088
0.0147368
1.75632e-07
6.85988e-09
9.12844e-09
2.17924e-08
0.0320855
0.0149032
0.037091
0.0669728
0.000882311
0.0201538
4.19912e-10
8.77541e-09
0.0161153
0.000880176
0.0397956
0.000856222
0.000824261
0.0237401
2.16554e-10
0.0138979
0.000335513
3.44769e-11
0.00112232
0.0150663
2.83252e-07
0.00796973
0.0106773
0.00740557
0.000448101
0.00278558
0.00604508
9.08365e-07
1.2298e-08
0.00137676
5.51639e-09
0.00500344
0.112014
0.000503786
1.99465e-09
0.0256212
0.00284755
0.00652849
0.0278587
7.80692e-09
0.0389872
0.0197515
1.3275e-10
0.000696749
0.00281997
1.68656e-09
0.000596828
0.0115188
0.00487835
1.66366e-08
3.19998e-10
1.31619e-05
3.46306e-10
0.0105535
6.68821e-08
1.45501e-12
0.0177218
3.38781e-06
0.0189672
0.0266944
3.90939e-11
1.44087e-06
0.0010851
1.77762e-06
0.000108485
0.0108343
0.121712
0.905605
9.75746e-07
0.00621647
0.000238569
3.79716e-09
0.0350434
0.0331145
1.94483e-09
2.43447e-05
0.000112494
1.3877e-06
0.0256994
0.0268869
0.0141522
3.64788e-09
0.0068032
0.0206022
0.0218515
8.50045e-05
1.68214e-06
2.47834e-05
1.22998e-09
0.00451399
0.037065
4.11853e-10
0.00957755
7.3351e-05
2.00475e-06
6.19366e-11
4.79751e-07
4.39743e-10
0.00930032
0.0100539
0.00711361
0.0024431
0.00339323
4.63508e-09
0.00228392
1.35144e-08
0.0356422
2.93141e-09
1.79447e-08
0.000977568
0.0317967
1.79211e-09
2.10374e-09
7.6338e-06
1.54175e-09
3.14542e-08
0.00087532
6.7481e-11
1.06025e-06
1.66815e-09
0.00138479
8.49237e-09
4.4709e-08
3.12687e-09
0.00815921
8.87452e-09
0.00436138
0.00166368
0.00679563
5.34499e-10
0.000624716
4.68534e-08
6.07354e-11
0.00957543
0.00456557
0.0293967
0.0222358
5.65243e-07
0.00186985
0.0726642
0.00865092
0.00111479
0.00872888
1.05567e-09
0.0224097
1.94048e-06
0.00428235
0.000986901
0.0691139
2.00532e-06
0.0210302
0.000323861
1.30933e-05
0.00136537
0.00233202
9.68807e-09
0.0759224
0.0443166
6.03233e-08
2.30956e-08
4.05259e-07
2.10329e-11
3.03312e-05
0.054596
6.5341e-09
4.78984e-09
0.00288339
4.99908e-10
0.0304134
4.12164e-09
0.00035143
1.36115e-09
0.0026386
0.00198915
0.00112194
0.0121718
0.00108549
0.00232128
5.80794e-09
4.16383e-09
0.0162686
3.84672e-09
3.84288e-05
2.94447e-07
0.00147622
0.000795449
0.0661571
9.19387e-11
8.25073e-07
0.012173
0.00387742
0.00150466
0.00430664
0.00591074
0.0208938
1.87764e-08
0.0207403
0.00708269
1.63251e-10
0.00225848
0.0314278
0.012555
3.44024e-08
0.00551851
0.00543544
0.00128682
0.00143327
6.14936e-06
0.0137985
0.000985892
0.000167
0.026765
0.0161152
0.00109709
1.31327e-06
6.52203e-05
0.621472
5.91462e-09
0.000419576
8.13619e-08
6.15785e-07
0.00731937
0.00364735
4.93075e-05
1.80046e-05
3.02035e-06
0.0185078
0.00995256
6.35471e-09
3.51058e-06
0.00204252
1.45146e-09
5.32774e-11
9.07047e-09
7.70236e-10
0.0152529
2.99585e-11
0.000651099
0.00987427
0.0024024
0.00181158
0.0149966
1.01776e-06
0.00858576
0.000691466
6.91686e-10
0.0571368
3.28658e-09
9.93823e-09
8.0262e-07
0.00477274
0.00208435
0.0328355
0.00643654
6.43738e-08
0.0726781
0.00536113
0.0261363
0.0235793
0.000931111
0.00354563
0.000696074
0.0569215
0.0415988
1.31935e-07
0.000308581
0.0361999
0.00706901
0.00153934
0.0244401
0.0237596
2.15254e-08
0.0104688
1.64584e-05
5.45758e-07
0.03197
0.000299463
1.23116e-05
0.0109784
0.0387687
0.00158846
0.0185324
0.0168423
0.00708906
7.04885e-08
0.00923196
0.000400702
3.15037e-06
0.0144678
0.0149069
0.0348882
9.51201e-09
0.00213626
9.93212e-08
2.13136e-09
0.00129589
6.38185e-10
0.00243016
1.00948e-06
0.000234314
1.30522e-08
0.000492524
5.10491e-05
0.039683
3.238e-10
0.0366249
5.99976e-09
4.1409e-10
2.01142e-08
0.0446308
0.00049863
5.64554e-07
0.000762504
2.27211e-09
4.16361e-10
0.238692
0.0684773
1.48917e-06
0.00177137
7.07842e-06
6.48491e-10
0.0349185
0.00649668
0.0160472
9.1476e-12
3.68459e-09
0.000393321
0.00107218
2.27531e-06
9.09518e-09
0.00104529
0.00704835
1.12867e-09
4.47732e-09
0.000759283
0.0385063
0.00161527
1.86686e-11
4.12145
0.142962
0.0141838
2.53237e-10
2.56324e-09
0.0567735
0.000304448
7.52051e-07
1.71762e-05
0.170162
0.00291718
0.0125246
0.00105399
0.0578175
0.00152204
1.45572e-09
2.46066e-08
4.94747e-09
3.76902e-09
1.14113e-09
2.6175e-11
0.0193355
1.36245e-09
8.43906e-09
2.00317e-08
0.0119299
0.0234833
4.70836e-09
1.47999e-08
0.105684
0.0133717
0.00889831
8.78379e-09
7.25744e-10
0.0346223
2.15185e-11
0.00227618
0.00240333
0.00353948
2.96321e-09
8.57458e-11
2.23555e-10
4.53764e-11
0.0158561
2.08081e-09
1.18392e-08
0.000816864
2.21874e-10
0.0210521
0.00140772
6.93925e-08
0.0359074
0.599794
0.00235485
0.0338464
0.000202301
0.0480017
0.00376529
1.47838e-06
0.0218676
0.0766268
0.00583605
3.45685e-07
0.00169268
0.5178
0.00941357
3.91648e-09
0.00291526
0.00313765
0.00143608
1.36468e-06
7.6433e-11
4.73289e-13
0.0126226
6.73546e-07
0.00252428
6.94974e-08
0.00145856
0.00107817
0.033492
0.000534784
2.85915e-09
0.000558343
2.03749e-07
0.0197513
2.08527e-09
8.90851e-07
4.5147e-05
3.38362e-08
8.19114e-09
0.000759972
3.63345e-11
0.00807228
0.00106067
6.46599e-10
0.00125281
7.65203e-07
0.000617688
8.86371e-06
5.53678e-09
3.78353e-06
0.00151041
0.000852488
0.00333334
3.4893e-05
0.00285775
8.73974e-05
0.00436912
2.11221e-08
1.00886e-05
0.0178552
0.00323299
3.18707e-09
0.00418717
0.00065357
2.96256e-06
0.00828051
0.000300705
2.27972e-05
0.025316
0.00762864
0.00216125
0.00516075
0.00198381
0.000765769
3.69747e-09
0.0240192
0.021535
9.86711e-10
0.00748276
0.0575218
0.0276345
6.22861e-09
0.00166992
8.16316e-10
0.0102424
0.01715
7.83619e-09
0.00406884
0.00646175
2.43589e-05
0.00238215
1.88661e-08
0.0471506
2.03621e-05
0.00186545
6.07135e-05
1.91581e-05
7.88587e-08
0.000762801
0.00834016
5.97546e-10
9.6017e-05
0.000334015
2.22316e-05
8.44185e-06
1.61809e-05
4.30931e-06
1.06439e-10
1.29486e-06
0.0216647
1.3805e-08
0.00118473
0.00848884
4.34573e-09
5.60424e-09
5.78192e-05
6.24222e-05
4.21835e-11
1.45469e-05
9.88373e-09
2.28681e-10
3.45985e-10
7.70221e-09
1.06326e-07
8.23835e-09
0.000332129
0.000856366
5.604e-11
1.36589e-08
8.37927e-05
0.00212679
0.0020429
0.00908105
0.000544609
6.97503e-11
0.000235272
5.38835e-10
8.50467e-10
1.07637e-05
0.0217834
0.041331
2.00305e-09
3.26913e-09
0.000593827
8.515e-09
0.000388429
4.64521e-09
0.00846
1.38065e-10
3.85938e-05
0.0269263
4.29174e-11
1.79263e-08
9.78537e-09
4.25267e-05
1.62176e-08
3.72709e-09
3.52936e-08
9.09223e-05
0.000907107
0.00530681
1.1545e-05
2.04025e-05
4.01331e-09
6.92762e-05
0.00260373
0.043477
4.95061e-08
9.77704e-06
0.00721796
4.61178e-09
1.56893e-07
2.78453e-06
4.13862e-09
0.00787831
0.00174878
0.00396268
0.00125651
9.59793e-11
0.0223205
0.00101243
2.12124e-06
1.35545e-06
2.92103e-10
0.0252965
2.85826e-09
1.95331e-08
3.08206e-06
0.0488181
1.77809e-08
0.00300209
4.42123e-07
0.00112582
3.91375e-07
9.2737e-11
6.24089e-08
7.954e-11
0.0026677
0.000684737
0.339328
3.63705e-09
8.65291e-09
0.00216633
9.15549e-11
7.79564e-07
9.30335e-09
0.0422378
2.08845e-05
0.0286868
4.78196e-09
3.33974e-05
3.17532e-05
1.32214e-06
7.22574e-05
8.80997e-10
0.00182596
0.0276459
0.0220749
0.00164521
0.000328591
8.94896e-09
1.28188e-11
1.28602e-09
0.00329829
0.00125597
0.00544441
8.16797e-12
0.175956
6.46428e-10
0.0447525
0.0035451
1.52368e-08
2.53265e-09
4.85312e-08
1.55983e-08
0.0313412
4.41057e-08
2.10435e-06
0.0185436
0.00536023
1.29427e-06
5.26672e-07
1.33958e-06
9.25063e-07
7.85334e-09
1.16124e-11
0.0203887
0.000520205
4.74388e-09
3.75605e-09
1.10537e-05
6.8428e-09
0.0013286
0.00749453
2.70916e-08
0.00271316
1.23389e-11
0.000262071
3.78771e-09
0.00673229
3.90433e-10
0.0021496
0.000107446
0.000878887
0.0143944
0.027413
1.88325e-05
4.59941e-08
0.000450253
4.83414e-08
0.00436661
1.29094e-08
3.82993e-08
1.52616e-06
5.6442e-08
0.00118882
4.63507e-09
0.00569766
0.00628162
9.30883e-11
7.27058e-06
4.58282e-09
0.000535924
3.17416e-05
2.35008e-09
0.0184356
0.000214691
9.75512e-09
0.0224111
0.0112506
0.00332018
0.0134621
1.32136e-10
0.000778556
1.59218e-07
1.22199e-08
0.0362705
8.10086e-08
0.103814
1.41546e-09
0.00292183
0.000729269
5.05447e-11
0.000672887
8.18853e-09
1.35729e-10
0.00227283
1.59408e-05
0.00592041
4.41063e-10
3.40931e-08
8.41799e-10
0.000695505
8.68852e-07
0.000643251
1.0652e-07
1.49658e-05
1.2543e-06
3.25265e-05
5.24761e-07
5.39075e-08
2.20335e-08
0.0178373
0.0072533
0.0176852
0.0342954
0.000820171
1.492e-05
0.000801464
4.27005e-11
0.010805
1.79263e-09
4.50983e-06
0.000257216
0.00621964
0.000241452
8.67373e-06
0.00242682
1.54429e-11
0.000113207
0.000144139
9.52687e-05
0.00123666
0.0134843
1.58936e-05
3.69392e-08
0.0311796
7.13295e-09
1.18207e-09
3.40215e-05
0.0745376
1.65672e-05
1.51754e-08
0.000792904
1.19358e-05
1.60478e-08
1.97286e-08
2.13457e-05
5.88601e-08
0.00104032
0.0467979
0.000144075
0.000109963
0.0234195
0.00717591
5.27221e-10
2.90547e-09
5.00812e-06
0.00420127
0.000582785
0.00102662
0.0112359
5.69252e-09
5.6641e-06
0.000704177
4.61573e-07
2.11016e-05
2.52218
0.000739206
0.00233497
0.000859547
0.0153231
1.58067e-10
3.59238e-05
3.18197e-08
3.36117e-09
4.58632e-09
5.47473e-09
0.0033659
1.29474e-09
3.30127e-09
1.56398e-06
2.33638e-09
2.47213e-10
1.71509e-08
0.00996489
0.00100099
0.011027
0.00233877
0.00129168
0.00637706
1.99522e-09
0.00373505
4.67139e-06
0.0108905
0.0139741
1.37375e-09
8.93436e-05
0.00933694
0.00465035
3.77227e-11
2.39303e-05
0.0169539
0.00484093
2.89655e-07
0.026874
2.65365e-08
5.83669e-09
0.00131169
2.59065e-09
0.00832737
4.75614e-09
9.23072e-09
0.00809301
8.98518e-06
0.00291673
1.98463e-08
6.56114e-06
0.000676512
9.89866e-09
0.00014956
2.20559e-08
0.0206355
3.77407e-09
2.32799e-09
0.0045649
0.000743948
0.000109381
6.01126e-09
6.76705e-10
0.00534093
0.00383518
0.00489355
0.0174735
0.21741
0.0197353
5.34407e-10
0.000597887
0.00237025
0.00668379
0.035177
0.0133404
3.14537e-09
0.0144739
3.65756e-10
0.000756226
0.00762691
0.00960363
3.17022e-10
0.0124397
2.49541e-08
0.00283184
0.00828296
7.5151e-08
2.25912e-11
1.2184e-10
0.00232342
0.00136757
2.59204e-10
0.00354541
0.0199335
5.80414e-06
0.00760785
0.000821964
3.21231e-08
5.59608e-05
0.00065587
7.66335e-09
0.0092482
4.43936e-08
0.00244261
3.46674e-09
6.45357e-09
0.0111178
1.36354e-09
4.83393e-05
0.00296583
1.27224e-09
5.76652e-09
0.0036518
9.50743e-06
0.0593935
2.49823e-09
0.285337
3.95433e-08
6.62889e-06
3.54726e-06
0.00642791
1.55803e-06
0.00135967
0.00501485
9.52036e-07
0.000176016
0.00115442
1.5522e-08
9.3336e-10
7.50696e-06
0.000775221
0.000707507
4.90225e-09
0.0359785
0.00094202
4.35007e-09
0.00469603
1.1837e-09
1.08737e-08
1.21806e-06
0.00369028
0.00908576
0.000971275
8.76551e-09
2.44857e-09
7.37236e-11
1.11172e-08
1.06805e-08
1.74661e-08
2.98743e-09
1.34104e-10
3.90652e-09
1.92691e-10
5.39361e-09
0.00106602
0.000635181
2.08611e-10
2.61375e-07
4.08792e-09
8.4086e-09
2.10097e-09
0.000622969
0.0015455
0.0183609
4.363e-09
1.38232e-09
1.65514e-08
0.0061931
8.82732e-08
5.82007e-09
0.194877
4.99303e-09
5.41162e-08
0.0219088
3.19188e-06
9.77469e-08
0.00439081
0.0232892
4.87436e-09
0.00127752
0.00217023
6.11439e-09
0.0110991
0.0373918
0.0165253
0.00287677
0.00977894
7.39188e-08
3.46449e-09
0.00858513
0.0102287
0.00268493
0.00106923
0.00560327
0.00135217
0.0186416
0.0106109
0.000661246
0.0135903
0.000768001
0.00844213
8.03864e-08
0.0265732
0.0075582
0.00181904
0.00117114
1.48105e-10
7.90082e-09
5.61395e-10
1.0188e-11
2.75847e-09
0.00875665
0.0121977
2.37191e-09
3.5108e-11
8.11498e-09
3.0957e-07
6.46258e-09
2.1478e-10
1.46665e-08
4.15458e-08
0.00409843
8.83278e-05
0.0194734
0.00442846
2.24584e-09
2.04624e-07
0.0331682
2.90983e-06
4.04476e-10
1.04879e-08
0.0109726
9.40756e-09
2.9194e-10
3.71576e-06
0.0109958
0.0122269
0.0293574
0.02702
2.9915e-08
0.0139044
0.000260708
6.93427e-06
2.67236e-10
0.0101784
1.05568e-07
3.6022e-09
0.0276498
0.99388
0.00361832
1.359e-07
3.03673e-08
0.0154879
0.0222153
0.0161515
0.00575559
0.00203453
3.96195e-09
1.35708e-05
6.88374e-06
0.00113131
1.42219e-07
0.0215408
4.87762e-09
0.0019484
0.0262487
0.0155081
0.0119815
7.15803e-08
0.00524242
9.62032e-10
1.66048e-07
4.17618e-10
2.17068e-10
0.00252498
0.710001
5.4749e-09
3.69541e-10
1.23888e-05
0.022534
0.000472789
0.00618247
0.0311798
0.00459578
0.0196319
3.66339e-07
9.83287e-08
3.74415e-06
0.03064
0.00512884
6.33152e-05
3.10972e-08
3.12706e-10
2.69166e-06
0.0187055
0.00269058
8.82129e-10
0.00686589
0.0450679
0.00817622
0.00544787
6.30728e-09
3.78469e-06
0.00613918
0.0214991
7.92255e-11
0.000239435
0.0120342
0.000858409
0.0123665
0.00411209
0.00747762
4.71948e-06
0.00345393
0.0186789
0.037028
1.23726e-06
0.0230035
2.2673e-06
0.0191639
0.000147914
3.15453e-13
0.00250618
0.00634782
0.000312704
0.0106618
1.15207e-05
0.000206846
2.5853e-05
0.0246105
0.00311372
8.99594e-07
0.0376549
0.00105865
6.39612e-09
4.23616e-10
0.00187421
1.4502e-05
0.000899627
1.01324
0.032504
0.00778827
9.18525e-06
0.0370753
4.97476e-08
5.96464e-08
0.00383538
7.82477e-07
0.00230967
0.00615967
0.00180497
0.00443204
8.50626e-09
0.00023894
0.102062
5.50443e-10
0.0596258
0.00653059
1.82486e-07
0.00341882
0.000176666
2.8136e-09
9.77647e-06
0.00252456
1.34343e-08
4.15518e-10
1.02652e-10
0.0069063
0.00887938
0.0132453
0.00100116
0.00560355
0.0296046
1.46289e-07
0.0070374
0.0108937
0.0239661
0.00130027
0.00195957
0.00660861
0.0131239
0.00918818
0.00761992
0.036724
0.14639
0.00960371
6.28018e-10
0.00356704
0.0499067
5.82382e-10
0.000375171
1.01536e-08
7.43787e-09
1.44855e-09
3.73063e-09
1.20156e-09
0.00508268
1.22918e-09
0.00583174
0.00144535
4.29668e-10
0.00408472
1.26197e-07
0.0138835
2.05115e-09
1.78222e-05
1.02678e-07
0.0206389
0.000112729
1.37355e-06
0.00345447
0.0276463
0.0165621
0.00364156
0.0238869
6.04266e-05
0.0193989
0.0496949
0.00806077
1.96549e-08
0.00118832
0.000360553
0.00473732
0.0113129
0.000754545
2.22884e-08
1.06003e-06
8.81522e-09
0.00404506
0.000764454
5.51827e-05
0.00600045
0.000550054
0.000273293
2.69247e-10
0.00114893
7.82993e-10
0.00738498
0.0199848
0.00133619
8.95665e-06
0.00185132
0.00611646
0.00196924
0.000721184
0.00619287
0.00530876
0.0023108
4.59734e-07
0.00131566
4.52967e-09
0.0138003
0.010249
2.19392e-08
3.00457e-10
4.28237e-06
0.00708354
0.0183435
7.0986e-09
0.00188641
0.000831513
4.31111e-06
0.00524909
0.0740924
6.46779e-11
3.87443e-12
0.00342109
3.07428e-10
8.56141e-05
0.0109581
3.94235e-07
0.0093841
0.0313471
0.0160336
6.46352e-10
0.000660348
1.53413e-06
5.77725e-05
0.0454407
2.0859e-09
1.99031e-08
0.0106858
9.9299e-06
2.89035e-08
0.00287006
0.00107015
3.97662e-09
6.22832e-09
4.09687e-06
4.65454e-05
0.00125567
0.00305631
0.0201992
0.0136018
3.29829e-10
6.08858e-06
0.00042223
0.000796125
2.88469e-08
0.00088636
0.00154927
2.17984e-06
1.32088e-07
3.27685e-07
8.06818e-10
2.81013e-07
4.66212e-07
6.41059e-06
3.26496e-07
0.000410211
4.46374e-07
9.31291e-05
6.35134e-06
7.15915e-05
2.74566e-06
1.84239e-09
0.0220145
0.00805792
1.14276e-07
0.0867992
4.17472e-06
3.59769e-06
2.8473e-07
0.00104584
4.52302e-06
0.00218983
1.18252e-05
0.000977585
3.84088e-07
6.563e-10
0.000635007
8.12389e-06
0.00123982
4.74007e-08
0.0368701
7.96735e-07
0.0339021
1.41837e-06
1.51297e-08
7.92397e-06
0.0266595
0.00844216
4.50279e-09
0.000398259
2.34339e-07
0.00104672
3.52273e-05
0.00780771
0.000646365
2.95635e-08
0.0190121
0.000766382
0.00481068
0.000562506
0.00131328
1.84078e-11
0.00521828
0.00398801
0.0440757
1.04445e-08
2.2769e-05
2.02487e-08
0.000799702
4.05094e-09
2.71728e-10
0.00237883
0.00156394
0.00236424
0.279425
0.00073695
0.0286906
0.03295
0.0175114
0.00510787
0.000719259
0.00543139
0.00326972
0.0047687
1.09167e-05
0.00960375
0.000698379
0.00172435
0.000893377
0.0303765
8.11534e-07
0.00241359
1.39309e-08
0.0166297
3.31084e-08
1.22149e-08
0.0014259
8.3601e-08
0.00695473
5.50879e-10
1.18929e-08
0.00134084
1.64737e-10
1.63487e-09
0.000590999
8.38843e-09
0.000603697
6.22737e-07
0.00110274
0.0187857
0.0105206
0.00720631
0.00808333
0.000745019
0.55511
9.29928e-12
0.0666646
0.000523473
0.0185445
0.0180509
0.00183077
0.0533829
1.3256e-07
1.49839e-07
1.98793e-08
0.00430123
3.55869e-08
2.29288e-08
0.0167731
1.23548e-08
1.09156e-09
0.0040385
5.95009e-08
0.0173777
1.74262e-06
6.41038e-07
7.871e-07
1.00357e-06
0.00143239
0.00574804
1.13318e-10
0.020677
0.000244038
3.82358e-07
0.0942673
5.63067e-09
0.0153989
0.0170102
0.00295087
6.26373e-09
0.0154882
0.00824613
0.00059925
0.00410505
0.0111111
4.7874e-09
3.4734e-09
3.3788e-05
7.05202e-09
1.502e-09
1.58424e-10
0.0182948
0.041383
0.00400912
0.00175612
1.28733e-06
0.0416557
0.0429759
0.00365969
0.00300157
0.00796458
0.0200865
0.00204096
2.21909e-09
1.67523e-09
5.79314e-10
0.00505158
4.88658e-09
0.0299292
9.27839e-06
0.000629588
3.46282e-05
0.0023846
0.0207078
9.6615e-10
0.00110658
0.00197935
0.000279137
3.35483e-08
2.0981e-08
1.25707e-09
0.0084221
0.000257508
0.000114859
0.000635802
0.00914721
0.0858087
1.57208e-08
6.426e-09
1.05888e-08
0.00348074
0.0188258
0.0171154
0.0309947
0.00191263
0.00212083
5.58993e-08
3.6618e-10
3.21102e-06
9.65556e-09
0.0121919
0.019071
5.86886e-09
2.78007e-08
3.56601e-07
0.00114294
0.000558916
3.01573e-07
0.0109392
0.00167385
0.00108867
0.291584
0.000784297
1.57441e-05
0.0169723
0.00365276
0.000348769
1.73201e-07
0.0036815
1.7057e-09
0.0115993
3.17025e-05
0.021811
1.65494e-07
6.48863e-06
3.37243e-10
0.000430889
2.55628e-09
4.94739e-07
0.177421
2.59914e-09
0.0044113
0.00105969
9.0086e-09
1.01734e-08
0.00146223
1.22257e-08
2.80129e-09
0.0142084
5.06851e-05
8.7857e-10
0.000432128
0.000820525
0.0148255
7.76933e-12
1.37567e-10
0.000244833
0.00196845
0.00224619
5.21701e-09
1.00434e-08
2.49027e-06
0.00295405
0.00140704
0.0103655
0.00933452
1.2217e-10
0.00311018
0.0123906
0.00512849
0.000939761
2.85965e-08
9.86635e-10
0.000426421
7.50801e-11
0.0282386
0.00717308
0.00426527
1.72487e-08
6.45691e-09
1.80637e-10
6.29595e-10
3.69388e-07
0.00231458
0.00402797
0.00237002
6.7512e-08
4.87501e-12
0.00104275
0.0039787
0.0275445
0.0947053
6.391e-09
2.1829e-05
4.05891e-06
3.63359e-09
5.84578e-10
0.00326368
0.00675983
2.39171e-09
1.75725e-07
0.00243645
0.00111286
0.00427544
0.00114916
2.00871
2.26546e-10
1.17642e-08
0.0119826
0.000363844
5.29216e-07
0.634493
0.000907963
0.00672912
2.05826e-09
9.66624e-09
2.76931e-07
0.00108574
0.00707157
0.00322893
7.8256e-10
0.0217528
0.0159794
0.838329
5.96821e-10
3.29501e-11
1.09952e-08
1.17084e-09
0.00536912
6.05906e-06
6.60252e-09
0.000690527
0.016746
0.00386586
0.004778
4.6261e-08
3.04832e-08
0.0256141
2.01914e-07
2.35392e-10
1.01454e-09
8.5229e-10
0.0227448
1.52891e-07
0.000963347
0.000937468
0.0229151
0.0126155
1.06549e-10
5.38607e-11
4.34476e-10
0.0133921
3.6964e-06
7.88786e-09
3.05283e-10
1.05104e-10
0.000407944
0.0021689
0.0086408
0.000756395
0.00205541
0.00633616
0.00392336
1.44546e-08
1.79561e-11
4.83689e-09
0.00100054
1.55582e-11
0.0213822
8.99586e-10
0.0155326
7.73423e-07
0.00115471
2.42254e-06
0.00170079
6.78073e-10
4.44033e-10
0.0165077
0.261358
6.09682e-07
0.00259826
1.62806e-08
0.000287422
1.57675e-06
5.14265e-08
9.24201e-08
5.90554e-06
6.2794e-09
0.000370945
0.000728449
0.0334929
6.96108e-09
1.45713e-06
1.46512e-08
0.000635794
0.00320647
0.000111445
7.65339e-10
0.00383498
5.82851e-09
0.0035173
0.0195511
0.000891359
4.85156e-11
2.03962e-05
0.000307074
3.90276e-06
0.00491094
2.61903e-06
0.00119532
1.17773e-07
2.66909e-11
3.53612e-06
0.00471445
0.000170151
2.07711e-08
1.71534e-07
2.10716e-06
0.431371
1.93309e-10
4.46495e-10
1.62117e-09
1.90994e-11
2.1803e-09
0.000480753
0.000129844
0.000755457
5.29601e-05
3.75129e-06
0.000912435
6.39868e-12
0.0063251
3.84527e-10
9.48065e-09
1.4647e-09
4.18707e-07
6.21076e-05
4.15e-07
2.38975e-09
4.74275e-09
0.0145129
7.51642e-09
2.5995e-09
0.01321
1.95071e-07
0.0364866
0.0656311
0.384399
1.30913e-09
0.204424
1.27426
1.80511
0.66884
6.40302e-10
4.2779e-11
0.00473463
0.00523548
1.18716e-06
0.00293383
0.000705774
0.0310575
5.62848e-07
7.3005e-08
0.000480576
3.92927e-09
9.91353e-11
8.91994e-06
3.49548e-05
0.000488565
2.14718e-10
0.00207905
2.08499e-06
1.43896e-08
2.1647e-05
0.00739212
0.00113243
4.91544e-08
0.00605455
5.77352e-09
0.0033777
4.03386e-05
0.00512057
1.46136e-08
3.23794e-05
0.00465452
1.81601e-07
6.00686e-05
1.35676e-09
0.0317642
9.39278e-07
0.0101957
1.26219e-08
0.00338066
2.70328e-09
2.88831e-08
4.13573e-09
0.00209127
0.00207293
4.50689e-08
0.011948
0.00671659
0.00102865
1.08366e-08
0.0327193
0.0175961
0.173636
2.62814e-08
0.003448
0.0240796
0.0455783
7.76077e-05
1.50095e-09
0.0647072
3.40884e-08
0.21349
5.15861e-10
4.5381e-05
6.55811e-05
1.66832e-09
3.70869e-05
3.15336e-08
0.0198129
3.51669e-10
0.000737165
1.08873e-08
2.26057e-07
1.46255e-08
1.37181e-08
0.000365761
0.00147695
0.137724
9.28659e-08
4.24437e-06
0.0407781
2.60803e-08
0.000800092
2.17053e-08
5.55342e-08
5.90306e-08
0.00161279
3.33265e-11
4.54857e-10
4.47431e-11
0.00166453
1.17412e-08
0.00112138
3.60713e-07
0.0014938
8.87828e-10
0.00368212
0.198097
0.00380801
0.00552078
0.020169
2.05237e-07
6.26373e-09
7.02326e-09
0.00328225
0.00166986
4.74759e-08
8.82007e-06
0.000302935
2.07702e-09
5.84072e-09
0.311686
1.33299e-08
0.0215564
9.53539e-10
0.00195456
0.0036567
5.06305e-09
2.61861e-11
0.000852917
1.42975e-10
1.07123e-10
0.0200297
0.00105457
0.00306621
3.95854e-08
6.21935e-10
0.00568743
1.02622e-07
0.0137731
9.58217e-08
1.906e-09
0.00220232
7.7753e-05
0.123596
1.10642e-09
6.69104e-10
8.23714e-09
0.00358592
0.170986
2.57334e-08
3.60345e-09
1.28835e-07
0.00124881
2.59636e-09
0.0212724
0.0233472
1.71266e-08
5.69103e-10
0.00582143
2.94952e-09
3.66129e-07
5.3123e-11
4.54991e-07
5.31409e-10
0.060127
6.08526e-06
2.38584e-09
1.09609e-09
0.00126325
9.71272e-10
0.00104117
9.95729e-09
1.17286e-08
2.0126e-07
0.0075394
0.000774553
0.00673349
0.000922596
0.00112103
0.542676
0.00216331
0.000752149
1.95303e-07
5.08291e-10
0.00192861
0.00236731
0.000688227
0.000781364
5.6182e-10
0.00574366
1.52958e-10
0.00292638
1.79495e-08
0.0100157
3.14614e-06
0.0551473
1.98159e-08
3.92512e-09
0.01709
5.39814e-06
1.18748e-09
0.0258386
0.000269502
3.95828e-08
1.26462e-11
0.0385906
0.0118362
0.00527146
0.000646431
0.0014504
0.01563
0.000766081
0.00544049
1.57845e-07
0.0199421
2.22407e-06
8.29646e-06
1.41419e-10
1.76783e-08
3.86631e-09
0.00826918
1.86416e-09
4.95833e-08
6.27498e-12
7.90749e-06
0.00694497
0.00150837
0.00280882
3.86561e-10
0.00407948
0.000918471
0.00179302
0.00312966
4.88635e-06
0.0398994
1.07524e-08
7.61651e-09
2.40147e-09
0.00236617
0.00142203
8.34626e-09
8.61877e-10
0.00201674
1.0548e-08
0.625714
0.00100849
0.0800882
2.31317e-10
3.06288e-09
0.000786964
4.72284e-10
0.00836548
1.0041e-08
7.15719e-05
3.2602e-10
0.00934078
8.12979e-09
3.84406e-09
2.00182e-05
0.00268419
0.0012055
2.66212e-08
0.00127927
7.01231e-10
0.00435197
0.22759
0.00200945
7.8157e-09
0.000398775
4.29855e-10
5.40543e-08
6.8012e-06
0.0165612
0.000172906
4.85955e-09
0.000443464
0.00368017
0.00442516
0.00842963
1.08893e-08
7.12514e-09
6.05365e-08
2.41306e-08
4.18717e-09
2.49116e-09
0.00125144
0.000691114
2.80169e-09
0.00139196
1.59831e-10
5.59735e-09
0.0707706
1.18544e-08
1.03652e-10
0.000647916
2.37254e-09
6.90375e-11
1.05423
1.58924e-10
3.02636e-11
0.0013955
0.00156572
3.74224e-09
0.000694135
7.79836e-10
0.0207049
0.00083276
1.24154e-07
1.68569e-05
2.06575e-11
3.01969e-09
2.30388e-08
3.89182e-09
0.104931
0.000756754
0.000250326
8.65521e-10
0.000864221
1.63652e-10
6.53906e-09
8.53775e-10
0.00174624
3.41634e-05
0.000125627
2.4954e-11
1.7214e-08
0.000899341
1.87423e-05
7.58933e-09
4.89713e-06
0.00185245
0.00143097
6.50117e-07
0.0014493
1.81838e-05
0.000795314
7.28332e-07
0.00114106
6.00232e-06
0.0302575
3.51844e-08
0.00546259
7.82355e-06
1.8124e-05
1.16814e-10
0.00156017
1.85508e-09
0.00448234
0.019356
2.78398e-08
0.00264148
1.43832e-05
4.61297e-09
0.00817084
6.8796e-09
4.75796e-10
1.87402e-09
8.91213e-10
8.92137e-08
1.9963e-09
1.33408e-08
2.06044e-09
0.239084
7.61793e-07
7.38461e-11
4.79457e-11
1.06979e-09
2.17995e-09
0.0293238
0.779399
4.20504e-05
1.85663e-05
1.3464e-10
0.00156527
0.00104543
0.00086165
5.26361e-07
3.00083e-07
9.39859e-09
1.67904e-08
5.07701e-08
3.90712e-06
2.01443e-06
0.003568
0.00124968
1.4656e-09
0.000109168
7.05673e-06
8.63548e-10
0.0263864
9.04716e-08
1.90409e-09
3.88455e-08
0.16544
0.00115008
2.69925e-11
0.0215592
3.06599e-09
0.000814037
9.70679e-07
0.000664158
0.0481833
8.59677e-10
1.16187e-09
8.84968e-09
4.87533e-07
0.00644416
0.230556
0.02682
0.0452159
0.00267592
0.000159328
2.58148e-10
2.01546e-06
0.10592
0.00156945
1.70401e-06
5.72091e-05
8.09456e-08
0.00170153
5.80252e-09
0.210737
0.000713294
6.93494e-10
0.000170943
0.000142442
2.11725e-09
0.011643
5.53085e-10
4.40881e-09
0.202207
0.0278644
1.60526e-09
2.34769e-09
2.44925e-08
3.07295e-10
1.78357e-09
1.95246e-06
4.40811e-10
1.94424e-11
0.00344062
9.12227e-11
2.55477e-09
3.55734e-09
1.44023e-05
8.90958e-09
3.02173e-06
1.33657e-08
2.10434e-09
3.95858e-07
1.23418e-06
0.00242547
0.000714576
1.37896e-06
0.00419175
4.42601e-08
0.00603726
0.0105602
6.02994e-09
0.00277047
3.85549e-09
0.000768275
0.000710893
6.92294e-06
0.00150372
0.00127909
9.87355e-08
1.74611e-11
0.00183901
3.05326e-09
3.56509e-10
1.30684e-08
2.9836e-07
3.23497e-09
3.41943e-07
0.0401939
1.82092e-10
8.23014e-10
0.327204
6.01044e-11
0.000287445
1.76292e-07
0.000958131
4.38686e-10
1.12115e-05
2.54313e-06
0.00430478
0.00851568
0.000400358
3.40008e-06
0.0375548
4.55383e-06
0.00126107
8.8111e-05
4.75565e-06
0.010093
0.000989275
5.40195e-06
2.10455e-05
8.55389e-08
2.81886e-09
0.00074354
0.000219425
0.0206315
0.0106428
3.74761e-05
3.39525e-08
0.00535406
0.00412521
0.0159493
2.911e-12
0.0108006
0.015749
0.00239403
0.00111984
0.000410013
0.00451748
0.0180608
0.0356653
0.00513244
0.0107143
0.00716596
1.44038e-06
0.00216959
0.00325175
0.000576861
0.00309875
0.0135379
0.0121496
0.0221597
1.90972e-06
0.00734033
7.791e-06
0.00443054
0.00231798
0.000313668
0.00281487
3.24573e-06
0.00126202
0.00450349
0.00101709
6.37811e-06
1.71184e-05
0.0166834
0.00179849
0.145666
0.00284649
5.22407e-11
0.00411124
0.0372836