/*--------------------------------*- C++ -*----------------------------------*\
  =========                 |
  \\      /  F ield         | OpenFOAM: The Open Source CFD Toolbox
   \\    /   O peration     | Website:  https://openfoam.org
    \\  /    A nd           | Version:  10
     \\/     M anipulation  |
\*---------------------------------------------------------------------------*/
FoamFile
{
    format      ascii;
    class       volScalarField;
    location    "30";
    object      SgT;
}
// * * * * * * * * * * * * * * * * * * * * * * * * * * * * * * * * * * * * * //

dimensions      [1 -1 -3 -1 0 0 0];

internalField   nonuniform List<scalar> 
111485
(
7.31147e-17
0.00902099
0.0210297
4.88885e-18
0.0450089
6.32576e-16
0.0416601
0.00587669
0.0183804
0.00112926
0.0418547
0.00915467
0.0042472
0.000835409
0.00593071
0.0316594
0.00129151
1.99758
0.0100314
9.65213e-16
2.46255e-16
1.34432e-17
0.0234241
0.0355269
0.00847542
1.39641e-16
0.0400824
0.00174741
0.0159429
1.35234e-18
0.0434615
0.017389
1.2201e-16
2.79715e-17
0.00967055
2.49958e-18
0.0105306
0.00338449
6.45596e-08
0.0215685
2.63347e-18
0.071999
0.0144368
0.000999033
3.68293e-05
5.82768e-18
0.0328172
0.000721061
0.0475675
1.38958e-16
7.93471e-17
6.79427e-16
4.34992e-16
0.0444871
5.17935e-16
0.0431262
0.00355369
7.14528e-19
2.7044e-05
0.00449301
0.0149411
4.70085e-17
0.00401877
0.0885247
8.62871e-17
0.00359092
0.300857
0.0973046
0.000921789
0.00512052
6.62286e-06
0.00548009
8.109e-16
0.00244604
8.59864e-17
0.000636447
5.04495e-17
0.0425236
1.2088e-16
2.76782e-16
5.1646e-05
0.0315971
1.18412e-16
1.70191e-17
0.00813009
0.00442695
5.80849e-10
0.0225434
4.66503e-05
0.00679443
0.000868487
0.0410762
0.0103453
4.69336e-05
0.0559686
9.43641e-18
1.15259e-17
0.00145268
8.88198e-09
0.00147906
7.51223e-18
0.0195168
1.80172e-18
0.0214637
0.00483087
1.62791e-15
5.32012e-18
0.00749049
0.00318451
1.50014e-07
0.00220188
0.00506038
0.00313577
0.00264523
9.40094e-17
2.928e-05
1.5713e-16
5.76457e-19
0.0113597
1.91752e-16
3.39066e-16
6.21976e-16
3.27719e-16
1.87459e-19
0.00233734
2.33005e-06
9.3239e-16
0.00151449
9.59291e-18
0.000172982
0.000987044
0.0280711
3.24774e-17
9.76334e-16
1.07372e-15
0.0491782
1.48766e-16
0.0409949
0.0225406
0.00255763
0.000171905
0.00186974
0.0204576
0.00310602
0.00379266
0.011375
1.19871e-16
1.23464e-16
1.21e-17
0.0262323
0.0018311
6.46422e-17
1.33102e-07
0.00520539
4.79738e-07
0.0106176
0.0154679
0.00943342
1.68833e-07
3.76933e-18
1.33682e-17
0.052687
0.0252332
5.16678e-06
2.31637e-07
0.00518504
0.00369169
7.25523e-19
9.9675e-06
6.59027e-05
1.65804e-18
1.24064e-17
0.000148305
3.02363e-18
0.00597209
0.00220797
1.60302e-17
3.70197e-15
1.92492e-16
1.0703e-16
2.84037e-16
4.67118e-17
0.00134015
0.0067145
0.0277098
0.00402029
0.00641739
0.00356643
9.49545e-05
5.54147e-17
0.00425153
7.47287e-16
1.42369e-17
0.005816
0.0110735
0.0228128
0.0103306
0.00435234
4.823e-17
0.00604921
0.000574155
4.51989e-05
0.0111915
0.00231349
9.96678e-19
0.00324777
0.0275281
3.40384e-15
0.000230098
0.00651874
0.0022821
0.000308345
5.90342e-16
5.28283e-17
0.00728642
7.25068e-12
0.123844
4.86904e-17
0.00602191
0.0189898
0.121878
3.26377e-18
0.0026693
0.0120082
1.5247e-13
1.31326e-17
1.14874e-18
0.166669
4.20287e-07
4.31209e-16
3.09973e-15
0.00910093
0.00857336
0.0159716
7.57454e-16
1.33724e-15
9.45052e-06
2.93209e-17
0.00272506
0.00832783
0.0149344
0.0108009
0.00917125
1.30806e-18
3.22083e-07
0.000572755
4.70437e-18
2.93854e-16
0.0306726
0.0214214
2.90627e-16
0.00475849
0.00981942
4.35532e-19
8.98244e-15
0.000153245
4.26993e-17
5.45436e-15
3.92478e-05
8.70883e-17
0.0155899
0.0117302
0.00350898
3.75795e-17
0.0109312
1.23519e-18
4.65146e-17
2.0454e-18
3.71966e-08
0.0225633
0.00553281
0.00466244
0.0369739
0.0109694
0.00149869
0.000590218
0.0340849
0.00957233
7.34371e-17
5.56926e-17
3.36775e-07
0.0220576
0.0215202
0.0128253
1.14836e-17
0.00632805
0.00195255
0.00276259
6.22465e-06
4.40857e-06
0.0122117
0.00211602
0.00186415
4.71903e-20
0.000779035
5.48484e-18
5.26669e-07
3.64207e-13
0.266628
0.0682644
0.013835
3.78079e-16
9.20752e-18
0.00832415
0.00188509
6.51071e-17
2.35604e-17
1.34869e-15
0.000380135
0.0613962
0.00334103
0.0154459
0.0182924
1.75514e-15
1.01019e-17
6.50757e-17
0.00352305
1.78302e-12
0.00132221
0.186953
5.82422e-07
1.796e-17
5.33321e-17
1.04684e-17
2.94559e-16
0.0573624
0.0123237
3.00153e-19
0.00485972
5.05946e-16
3.03062e-15
0.0672868
0.00537647
0.0107253
0.00854945
4.36756e-15
5.70547e-16
5.27477e-18
0.0087203
0.0197887
0.00467573
5.96961e-16
1.93526e-10
0.000225101
0.00177432
0.00735158
6.33472e-05
0.0284647
1.02526e-16
0.0370387
0.00315971
0.00784515
0.023088
0.0147365
3.82502e-17
1.24861e-16
1.4231e-18
8.32432e-17
0.0320855
0.0085587
0.0370904
0.0669728
7.94963e-17
0.0201535
1.57455e-18
1.80901e-16
0.0161153
3.18841e-15
0.0397833
5.78042e-18
1.02467e-18
0.0237401
4.62366e-19
0.0138979
0.000335462
1.53311e-16
0.00112214
0.0150663
5.22912e-16
0.00796923
0.0106748
0.00740548
0.00043554
0.00278555
0.00604499
4.02512e-15
3.08315e-17
0.00136416
3.91511e-18
0.0050032
0.112014
1.65092e-16
4.74935e-18
0.0256212
0.000127396
0.00652837
0.0224705
4.45577e-17
0.0389871
0.0197514
1.28821e-17
0.000696651
0.00281914
2.48717e-17
1.90963e-16
0.0115187
0.0048783
3.07408e-18
2.03711e-16
1.07175e-08
3.42262e-17
0.0105533
1.81605e-17
6.45173e-17
0.0177217
2.47599e-06
0.0146368
0.0266918
9.28015e-18
3.69582e-15
0.00108335
3.54163e-16
0.00010782
0.0108226
0.121712
0.905586
5.39645e-17
0.00262684
0.000234394
1.92109e-16
0.0350433
0.0331145
1.52369e-17
1.13835e-08
0.000108599
1.60162e-16
0.0256993
0.0268868
0.014152
2.44092e-17
0.000652926
0.0206022
0.0218509
6.06035e-07
3.05092e-15
9.85037e-11
5.23661e-19
2.08033e-05
0.031251
1.46254e-17
0.00957689
6.8097e-05
1.84537e-15
3.60298e-18
1.28082e-14
3.49641e-16
0.0042889
0.0100525
0.00711324
0.00244102
0.00339269
8.92338e-17
0.00228384
1.30764e-16
0.0356409
1.59191e-16
7.74879e-18
6.05094e-18
0.031795
1.40149e-17
1.12731e-17
3.36915e-07
4.79374e-17
6.91297e-18
0.000875241
1.95879e-19
8.42162e-15
2.86777e-18
2.27421e-17
1.19766e-15
1.28424e-17
5.95308e-17
0.00815495
3.55536e-17
0.000391776
0.00166329
0.00263447
2.79834e-16
0.000623573
3.09721e-17
1.64682e-17
0.00310796
0.00205079
0.0293962
0.0222358
6.75184e-16
0.00186984
0.0726639
0.00865092
0.00111409
0.00365484
1.87665e-16
0.0224097
6.01063e-15
0.00428202
3.78583e-17
0.0691138
9.657e-16
0.0210301
0.000323833
8.14274e-08
7.34511e-17
0.00233178
1.93831e-17
0.0759224
0.0443165
2.9418e-18
4.65062e-17
6.10367e-15
9.5404e-20
1.89463e-10
0.054596
8.40501e-17
1.33794e-18
0.0028816
6.26078e-17
0.0304132
6.31064e-16
0.000351266
8.1417e-17
0.000586246
7.4944e-07
0.00112149
0.0121718
1.05853e-16
0.0008875
2.7758e-16
5.38156e-18
0.0162683
1.01686e-16
3.57299e-05
3.11849e-15
0.00147599
2.11272e-17
0.0661571
4.97028e-17
8.66608e-16
0.0121723
0.00387628
0.00150464
0.0043063
0.00591048
0.0208938
9.21156e-19
0.0207399
0.00708206
1.03123e-17
5.70588e-08
0.0314265
0.0125541
8.78622e-16
0.0054978
0.0054348
0.00127813
0.00139265
1.49141e-10
0.0137984
0.000984201
0.000166772
0.0267645
0.0140986
0.00109357
1.11054e-15
3.02637e-09
0.620114
5.02864e-18
0.000418428
6.03089e-20
3.50396e-15
0.00731936
0.00363854
1.25915e-07
8.44396e-06
1.0901e-15
0.0185073
0.00995254
1.01301e-15
1.07976e-11
0.00204249
8.09886e-16
1.58223e-16
1.6746e-17
7.78846e-16
0.0152525
5.53336e-19
3.78639e-18
0.009874
0.00240178
2.98365e-14
0.00937736
1.39301e-15
0.00858573
6.29457e-16
1.95186e-17
0.0571364
6.65801e-17
4.27783e-16
4.61947e-16
0.00477228
1.98262e-14
0.032835
0.00643654
1.42176e-16
0.0726775
0.00283108
0.0261362
0.0235788
0.00093007
9.17212e-05
9.22727e-17
0.0569214
0.0415985
3.12288e-17
0.000308537
0.0361998
0.00706899
0.00153867
0.0244401
0.0237596
2.10032e-17
0.0104687
3.68467e-06
8.64221e-16
0.0319699
0.000299389
2.83331e-14
0.0109784
0.0387687
0.00158817
0.0185323
0.016842
0.00708904
1.7037e-15
0.00923192
0.000400158
7.49832e-12
0.0144676
0.0149063
0.0348882
7.71659e-17
0.00213545
4.29314e-18
1.49079e-16
2.81254e-17
9.7061e-17
1.68363e-05
3.9839e-17
1.38967e-10
9.78569e-17
2.9848e-16
5.09666e-05
0.0396828
6.08413e-16
0.0366247
3.36057e-16
3.26187e-17
1.08193e-15
0.0396513
0.000496458
5.7557e-15
1.10832e-17
4.26747e-17
9.43913e-18
0.238692
0.0684773
4.17101e-15
0.00177136
4.67558e-06
3.53532e-18
0.0349184
0.00649437
0.0130984
3.75758e-17
3.56428e-16
0.000393294
0.00107218
9.88886e-16
9.59093e-19
5.61932e-16
0.00704834
4.45117e-18
1.36919e-16
7.63122e-17
0.0385062
0.00161241
7.48298e-17
4.12136
0.142947
0.010996
3.85267e-19
3.96901e-16
0.0567734
0.000303974
1.09405e-16
7.60012e-06
0.170156
0.00291258
0.0125245
3.59284e-15
0.057817
0.00152202
2.51625e-19
8.83707e-16
1.17228e-16
2.53694e-18
1.98395e-17
9.87229e-17
0.0193355
1.76919e-17
8.52393e-17
3.70255e-16
0.0119299
0.0234833
1.546e-16
2.90798e-16
0.105684
0.0133714
0.00889801
2.42373e-16
4.18674e-17
0.0346219
7.15556e-18
0.00227463
0.0024033
0.0035394
2.72458e-16
7.14745e-18
2.85073e-17
1.41938e-17
0.0158557
1.40713e-16
1.81308e-16
0.000816478
3.68267e-17
0.0210518
0.0014063
4.61279e-16
0.0359074
0.599784
0.0023548
0.0294092
0.0002003
0.0480015
2.34224e-10
2.42859e-15
0.0218675
0.0766263
0.00583604
1.0081e-15
1.33639e-09
0.517787
0.00941355
1.03712e-17
0.00291501
0.00313611
0.0014343
1.73758e-14
1.66764e-17
7.26015e-18
0.0126225
8.68886e-16
0.00252421
5.18612e-16
0.00145529
0.00107813
0.0334914
0.000534783
2.16799e-16
3.33296e-16
1.31828e-15
0.0197513
7.25458e-17
2.17058e-16
4.28885e-05
1.27309e-18
2.69306e-19
2.18121e-17
2.48679e-17
0.00807173
5.55334e-15
3.1829e-17
7.36427e-10
6.83033e-16
4.89157e-18
1.94632e-14
2.39276e-17
3.2662e-06
0.00151008
1.20505e-16
0.00333235
1.22816e-05
2.76864e-07
8.53389e-05
0.00436885
2.20562e-17
1.00771e-05
0.00929987
0.000371126
1.99117e-17
1.09193e-08
0.00065329
1.10345e-15
0.00827988
0.000300334
2.00724e-06
0.0253153
0.0076284
0.00216112
0.00516074
0.00198378
4.30815e-17
2.18197e-16
0.0240182
0.0215344
9.20667e-18
0.00748268
0.0536906
0.0276344
3.94578e-16
0.00165927
1.04931e-17
0.0102424
0.0134268
2.68609e-15
0.000932262
0.000472866
1.50014e-06
0.00238178
3.95729e-16
0.0471506
1.93103e-05
0.00186082
4.02861e-05
1.37747e-05
8.81372e-17
2.02956e-17
0.00833817
4.79034e-17
8.96429e-05
0.000328814
1.07038e-05
6.47531e-08
6.14807e-08
1.23389e-06
2.76998e-17
5.02386e-16
0.0216646
2.06207e-18
0.0011581
0.00234716
5.5681e-16
3.94711e-16
6.38308e-07
1.49429e-10
4.1338e-17
3.33313e-06
9.54645e-17
2.68675e-17
2.00815e-19
1.07252e-16
1.64059e-15
8.61435e-17
0.000330764
1.28971e-15
5.38421e-18
8.433e-18
4.7305e-06
7.042e-05
0.00204146
0.00908105
1.54228e-16
9.11495e-17
0.000232807
1.98985e-16
9.60585e-17
7.67666e-14
0.0194916
0.041331
7.1249e-16
8.48029e-16
3.18354e-16
5.18826e-16
2.79507e-18
1.35583e-16
0.00845784
3.21413e-16
7.92659e-08
0.0269263
8.42271e-17
3.15593e-17
6.98709e-16
1.52388e-05
9.39028e-16
5.27211e-18
2.66143e-17
5.90095e-06
1.93249e-17
0.00530548
1.06992e-06
4.34285e-09
6.02158e-16
4.67393e-05
0.00260355
0.043477
6.56194e-16
5.51972e-06
0.00721758
1.52105e-16
5.59162e-17
1.12973e-13
3.22089e-16
0.0078783
0.00174876
0.00396235
1.59448e-07
1.83842e-17
0.0223205
3.67671e-15
8.94877e-16
9.64904e-14
1.58814e-18
0.0252965
8.21888e-17
1.59937e-15
2.63601e-06
0.0488171
7.971e-16
0.00300162
1.28094e-15
0.00112436
8.91733e-16
4.5838e-17
1.94532e-17
1.19527e-16
0.00266769
0.000683109
0.339325
1.24139e-16
7.0271e-16
0.00216631
6.38337e-17
2.04073e-15
2.1598e-16
0.0422365
5.59603e-06
0.0286853
5.00359e-16
6.50077e-06
2.96523e-05
3.53862e-14
6.94661e-05
1.12483e-15
0.00182327
0.0276458
0.0200078
0.00164459
0.000326792
2.31584e-16
6.58946e-18
5.43436e-18
1.39937e-05
6.68609e-19
0.00544343
4.64935e-19
0.175954
1.64056e-17
0.041711
0.00354173
2.69913e-15
4.07609e-17
8.23239e-16
9.4812e-19
0.0313395
1.64588e-15
1.11281e-13
0.0130524
0.00536014
2.50143e-15
6.85745e-15
5.08706e-15
1.45252e-15
2.20271e-15
2.11453e-17
0.0203886
0.000519632
1.45398e-17
2.55385e-17
2.77814e-07
5.02911e-17
0.00132854
0.000114243
1.87404e-16
0.00271195
1.09836e-16
0.000261984
6.39522e-16
0.000890721
1.45314e-15
1.27771e-07
1.80538e-06
0.000876564
0.0143941
0.0274127
1.01209e-06
8.92046e-17
0.000450171
1.36124e-17
0.0043666
2.07476e-16
4.23242e-18
5.39337e-14
4.57598e-17
1.24571e-17
1.89197e-17
0.00569757
0.00627584
2.82982e-17
5.26256e-14
1.03955e-15
0.000535072
1.76412e-05
1.26852e-17
0.0184356
0.000213521
8.39949e-16
0.022411
0.00803947
0.00332017
0.0134619
7.16298e-17
8.5685e-17
3.83193e-18
6.21085e-17
0.0362705
4.55926e-18
0.103814
2.54008e-17
0.000217105
0.000729248
7.26904e-18
0.000670603
1.11855e-18
8.42608e-18
0.00227201
2.591e-08
0.00590576
1.18098e-16
2.1096e-15
3.08849e-16
0.000694521
5.25761e-15
1.3201e-17
3.27075e-16
5.09055e-07
5.69812e-16
1.19011e-05
1.22197e-15
2.78314e-16
1.76093e-16
0.0178373
0.00725198
0.0176851
0.0342952
2.25605e-18
9.69193e-06
1.35061e-18
1.06486e-18
0.0108048
1.26515e-16
3.10445e-06
0.000255528
0.00621952
0.000240565
1.00456e-10
0.00242412
2.95193e-18
1.67316e-10
9.85395e-10
9.33915e-05
0.00123589
0.0134843
6.59081e-08
1.3486e-16
0.0311795
3.10613e-16
5.01316e-16
2.96419e-05
0.0745375
1.0171e-07
6.81742e-17
5.37491e-18
6.02601e-07
1.82841e-16
9.03258e-16
1.01941e-05
1.86993e-15
6.04116e-16
0.0418623
0.000141766
0.000105731
0.0234194
0.00717591
2.27035e-16
1.62992e-16
3.70687e-06
0.00420119
9.54286e-17
1.11638e-15
0.0112354
6.26763e-16
1.36832e-13
1.19662e-15
6.03052e-16
4.03654e-13
2.52214
4.9152e-17
0.000184213
1.44775e-15
0.0153205
1.27797e-16
3.23637e-12
4.25616e-16
2.28079e-16
1.02865e-17
2.68147e-16
0.00336537
2.46217e-16
2.33348e-16
1.30067e-16
2.77287e-16
2.37089e-19
9.77825e-17
0.00996489
1.29511e-16
0.0110269
0.00233815
5.38687e-16
0.00172725
1.30875e-16
0.00039899
1.50054e-06
0.00400937
0.013974
8.73171e-17
8.93417e-05
0.00933614
4.49228e-06
1.49151e-18
1.07407e-06
0.0169539
0.00484085
5.10074e-16
0.0268737
1.01235e-15
1.52011e-17
4.341e-17
6.30334e-16
0.00832723
3.99074e-17
1.42375e-16
0.008093
1.08358e-07
0.00291452
1.19173e-18
9.41659e-14
0.000676118
6.87068e-18
0.000147245
1.07046e-15
0.0206349
8.33102e-16
3.0384e-17
5.54039e-05
3.55187e-16
0.000101522
1.96338e-16
1.687e-16
0.0053409
0.000390634
0.00489355
0.0174733
0.21741
0.0197353
1.2864e-16
2.92807e-15
0.00236784
0.00668379
0.035177
0.0133401
1.12296e-17
0.0112931
9.67204e-17
8.69311e-17
0.00762543
0.00960354
3.2831e-16
0.0124397
4.18271e-18
0.00283183
0.00828291
2.13801e-15
2.28245e-17
2.51235e-18
0.00232165
1.21943e-16
2.30079e-17
0.00354473
0.0199334
3.98908e-06
0.00760784
1.38308e-15
2.28115e-17
5.48563e-05
0.000654805
1.3218e-15
0.00924711
9.84793e-15
0.00244229
1.7688e-16
9.96179e-16
0.0111175
3.0087e-17
4.50543e-05
0.00296494
9.69708e-16
2.44282e-17
0.00364933
2.52419e-11
0.0539429
4.58467e-17
0.285337
1.99149e-17
8.01109e-15
5.04138e-15
0.00642738
4.92688e-15
6.29402e-16
0.00501478
1.30955e-15
0.000161866
5.20133e-16
4.26976e-17
4.66668e-16
1.56838e-07
0.0007752
8.1345e-18
4.22036e-17
0.0359783
0.000941997
2.32209e-16
0.000595742
3.78147e-17
5.80106e-16
1.20294e-06
0.00368981
0.00360026
6.7135e-16
1.23846e-16
3.36533e-17
8.46975e-17
8.70365e-16
7.07136e-16
3.94922e-17
1.15822e-16
1.5855e-16
3.13945e-16
3.47331e-18
7.82331e-17
4.06023e-16
2.95893e-16
9.77249e-18
1.37904e-17
1.68739e-16
2.49194e-16
5.31775e-17
1.65529e-17
1.14729e-17
0.0183607
8.06312e-17
7.24707e-16
2.02583e-18
0.00619306
5.85363e-19
7.07347e-17
0.194871
1.8163e-16
8.36931e-17
0.0219087
3.71377e-12
2.48283e-17
0.0043771
0.0232892
4.19855e-17
0.00126918
0.0021623
3.07688e-15
0.0110986
0.0373918
0.016525
0.00287595
0.00977876
3.5858e-16
6.17112e-16
0.00275283
0.0102287
0.00268396
2.82004e-16
0.00560088
0.0013519
0.0186413
0.0106109
0.000661233
0.0135897
0.000766481
0.00844075
1.01611e-18
0.0265724
0.00755813
0.001819
0.00117113
5.45783e-17
3.42239e-17
1.92154e-17
1.95539e-17
9.99814e-19
0.00875664
0.0121976
5.7256e-19
5.77149e-17
2.47961e-15
9.06603e-17
4.37498e-16
2.95319e-17
1.5979e-16
2.8218e-16
0.00409843
8.64307e-05
0.0194733
4.89377e-05
2.05516e-16
2.09795e-15
0.0331678
2.83051e-06
1.5755e-16
1.41588e-16
0.00700826
2.0566e-18
1.2839e-16
3.65081e-06
0.00701484
0.0122269
0.0293563
0.0270189
2.53533e-16
0.0139042
0.000260499
8.3777e-15
4.79945e-17
0.0101776
1.41006e-16
2.91661e-16
0.0276446
0.993873
0.000149475
3.03152e-15
3.0793e-19
0.0154877
0.0222146
0.0161512
0.00575558
0.00199065
4.26936e-17
6.82237e-07
2.28785e-09
1.99647e-17
4.60571e-15
0.0169737
2.29175e-16
0.00194838
0.0262486
0.0155077
0.0119805
6.87375e-18
0.00523988
1.37435e-18
6.86707e-16
3.18251e-17
5.53166e-17
0.00252495
0.709993
2.79578e-17
3.56652e-17
4.26454e-06
0.022534
0.000463136
0.00618242
0.0311797
0.00459575
0.0196319
1.29409e-16
1.12174e-16
1.16551e-15
0.03064
0.00512872
2.70763e-08
1.75096e-16
6.01942e-17
1.70506e-13
0.0187055
0.00268998
1.36627e-17
0.0043276
0.0450656
0.00817525
0.00544784
5.59421e-17
4.90827e-14
0.00613908
0.0214991
1.97778e-17
0.000238176
0.0120328
0.000856906
0.00893434
0.004112
0.00747747
1.95876e-14
0.00345378
0.0186788
0.037028
1.26426e-09
0.0230034
2.96827e-14
0.015917
0.00014764
1.03792e-18
0.00250613
0.00634675
0.000312437
0.0106618
2.179e-07
0.000191618
1.7279e-05
0.0245931
0.00311337
1.23758e-14
0.0376546
0.00105824
2.67056e-16
3.97346e-17
2.55564e-08
5.02144e-06
0.000899588
1.01322
0.0325039
0.00778775
2.56134e-07
0.0370752
3.03964e-16
1.71938e-17
0.00383538
1.78868e-15
0.00230907
0.00615738
0.00180429
0.00443204
2.01892e-17
0.000238521
0.102062
6.69963e-17
0.0596198
0.0065305
2.02965e-17
0.003418
0.0001766
1.2159e-17
2.10632e-09
9.47809e-05
2.13791e-16
3.75715e-16
7.23846e-19
0.00436648
0.0044941
0.0132453
7.22631e-18
0.00560338
0.0296042
3.01124e-16
0.00703723
0.0108935
0.0239658
0.00129968
3.78946e-16
0.000617914
0.00620596
0.00918797
0.00761933
0.0367237
0.146389
0.00325007
6.9232e-17
0.000469687
0.0499063
2.00735e-17
0.000375164
1.74546e-18
3.03006e-17
3.69105e-17
1.8205e-18
3.06904e-17
0.00265845
1.95045e-18
0.00583103
0.0014417
1.65857e-18
0.00408463
3.76434e-15
0.0138834
3.58193e-16
6.92657e-06
2.69458e-16
0.0206388
0.000111238
1.27145e-06
0.00345383
0.0276462
0.016562
0.00364156
0.0238866
1.54771e-12
0.019398
0.0496949
0.00806045
1.28628e-18
0.00118783
0.000358161
0.00473708
0.0113128
0.000754457
2.49277e-18
3.328e-16
1.99819e-16
0.00404483
1.40832e-16
4.78266e-05
0.000227168
0.000537076
0.000271454
1.21028e-16
3.89349e-16
1.0193e-16
0.00738384
0.0199847
0.00133596
7.32846e-06
0.00185131
0.00611646
0.00196848
0.000721165
0.00619287
0.00530828
0.00231079
3.48648e-16
8.85827e-18
1.01166e-18
0.0137996
0.010249
1.04805e-15
6.81948e-17
2.56193e-14
0.00708177
0.0183434
4.18419e-17
0.00188638
2.02511e-16
3.71319e-07
0.00524887
0.0740921
1.49128e-17
1.97094e-18
0.00342107
1.95334e-17
8.47482e-05
0.0109581
5.58581e-16
0.00938406
0.0313471
0.0160335
6.96564e-17
0.000659247
5.80731e-16
5.69407e-05
0.0454407
8.50839e-17
1.42453e-17
0.0106858
4.45287e-13
3.33445e-17
3.50211e-05
0.00106965
4.87232e-17
9.5381e-17
4.25136e-15
4.62683e-05
0.00123582
0.00305628
0.0201972
0.00947233
5.43272e-17
3.24349e-07
0.000421872
7.727e-17
1.75493e-17
5.77171e-17
3.58136e-16
2.62279e-15
1.08491e-15
2.06606e-15
4.45967e-17
1.43939e-14
7.05226e-16
1.40385e-09
5.18262e-15
0.000410121
1.77103e-15
8.60848e-05
5.17342e-14
6.33792e-05
7.34814e-14
7.85743e-18
0.0220128
0.0080431
6.19168e-16
0.0867992
1.5525e-09
3.09361e-11
8.22662e-16
0.00104552
1.39105e-13
0.00218955
4.76521e-06
0.000973055
6.52176e-16
8.53836e-17
0.000634363
5.84427e-08
2.99197e-17
1.81102e-18
0.0368701
1.73083e-16
0.033902
7.82957e-16
1.07316e-17
1.10268e-06
0.0266595
0.00844054
6.78386e-17
0.000398255
6.73635e-16
0.00103025
1.22277e-05
0.00186477
0.00064612
1.02936e-18
0.0190121
0.000758675
0.00481025
3.47923e-16
2.53703e-16
1.17547e-16
0.00520432
0.00398672
0.0440756
1.00584e-16
2.34801e-07
1.03937e-16
6.30664e-17
8.33802e-16
6.25206e-17
0.0023783
0.00156392
0.00236421
0.279425
4.74505e-18
0.0286902
0.03295
0.0175098
0.00122397
3.63791e-18
0.00543128
0.00326439
0.00476824
8.42145e-07
0.00960366
2.84416e-16
0.00172349
0.000889868
0.0303765
8.03296e-07
0.0024135
6.051e-16
0.0166293
4.8499e-16
1.32469e-16
0.00142585
1.09208e-18
0.00695293
8.50948e-18
4.79706e-16
2.25577e-15
1.99198e-16
4.74492e-18
0.000590194
1.35564e-16
0.000599241
6.30019e-17
6.71202e-17
0.0187853
0.00593184
0.00720602
0.00808297
1.17303e-18
0.555107
1.7573e-18
0.0666645
6.3773e-16
0.0185443
0.0180493
0.00183044
0.0533829
1.39419e-15
5.66285e-16
3.74155e-16
0.00206239
6.84889e-18
3.28987e-16
0.0167731
1.57869e-15
3.98566e-16
0.00403678
7.80505e-16
0.0125737
1.11306e-07
3.31191e-15
4.91884e-15
6.58621e-15
0.00143202
0.00574798
7.94206e-17
0.020677
0.000242289
9.79069e-17
0.0942672
3.97908e-17
0.0153987
0.0170102
0.00294994
1.70699e-16
0.0154882
0.00824611
0.000598666
0.00410463
0.0111105
3.67752e-16
6.48536e-17
1.48822e-06
4.22129e-17
1.55078e-16
1.68312e-17
0.0182947
0.0359384
0.00400912
0.00175288
1.31401e-15
0.0416553
0.0429759
0.00365967
0.00299774
0.00796443
0.0200865
0.00204017
1.60966e-17
1.43373e-16
7.74919e-18
0.00505
1.16582e-17
0.0241628
1.61782e-15
0.000628902
2.93997e-07
0.0023846
0.0207075
7.70101e-17
5.23715e-17
0.00197919
0.000279028
1.36926e-16
5.81342e-16
1.85323e-19
2.67634e-05
0.000257167
0.000105795
0.000634546
0.00914718
0.0836606
4.81983e-16
2.98601e-17
1.2279e-16
0.00348073
0.0188249
0.0171154
0.0309942
0.00191209
0.00211076
5.73042e-16
1.01806e-16
3.08637e-13
3.18007e-15
0.00944415
0.0190709
3.64408e-17
4.31472e-16
6.58173e-16
4.06145e-18
1.91455e-18
1.61734e-15
0.0109383
8.788e-16
0.00108861
0.291584
4.12546e-16
1.55222e-05
0.0169722
0.000617839
1.06048e-17
5.2101e-15
0.00368086
2.27952e-17
0.0115985
1.47271e-06
0.0218108
4.44846e-15
1.77901e-12
7.1012e-18
1.12397e-16
4.51479e-17
1.30258e-15
0.173983
1.83172e-16
0.00441107
0.00105958
7.91122e-17
3.79808e-18
0.00146123
1.20504e-16
5.06013e-18
0.0142077
5.04701e-05
1.16538e-16
3.52783e-16
6.92838e-16
0.0148253
3.17119e-17
7.75131e-17
0.000242197
0.00196816
0.00224609
9.59264e-17
1.60145e-16
7.62884e-17
0.00295266
0.00140616
0.0103638
0.00294819
2.41328e-17
0.000641418
0.0123902
0.00512839
6.02232e-19
1.0349e-17
5.96104e-17
7.36601e-18
4.64094e-17
0.0282385
0.00717298
0.00426521
5.47479e-18
3.78788e-17
9.72679e-18
3.55465e-18
2.15374e-16
6.32351e-07
0.000301039
0.00236926
5.83366e-16
2.2437e-17
1.06784e-18
3.88895e-09
0.0275388
0.0947053
1.61091e-16
5.39151e-11
4.07976e-13
1.40902e-17
1.37722e-17
0.00326366
0.0067597
1.2986e-16
1.30938e-15
0.00243509
2.61046e-16
0.000680609
0.00114816
2.0087
5.08261e-17
2.67262e-15
0.011982
0.000361424
4.67075e-16
0.634485
0.000907804
0.00672887
3.11064e-16
2.29398e-16
6.7434e-18
4.4246e-17
0.00707157
9.76338e-05
6.68257e-16
0.0217526
0.0159793
0.838329
1.542e-16
3.00733e-17
1.46348e-16
1.67134e-16
0.00536907
2.82289e-08
2.01232e-16
9.48553e-16
0.0167456
0.00105669
0.00477798
2.25196e-16
3.36439e-18
0.0256141
2.78987e-15
1.71207e-17
8.51203e-17
3.32525e-17
0.0227448
7.65135e-16
3.56402e-16
2.18092e-16
0.022915
0.0126154
2.31674e-17
1.35526e-18
1.1746e-16
0.0133921
7.41994e-08
5.36947e-16
6.22513e-17
7.42359e-18
8.04772e-17
0.00216814
0.00863989
4.02223e-18
0.00205539
0.000865025
0.00392321
2.082e-17
1.43381e-17
7.4189e-17
1.51009e-18
7.02194e-17
0.0213818
1.50349e-15
0.0155213
7.16858e-16
0.00115309
1.052e-15
0.0017003
1.93142e-17
2.76441e-17
0.0101708
0.261357
1.83693e-15
0.00259387
3.42173e-17
0.000285795
1.37369e-14
3.86764e-16
1.75269e-16
1.66371e-07
1.99769e-16
0.000358972
1.17618e-16
0.0334929
9.21373e-17
1.77236e-15
1.00909e-18
3.30498e-16
7.17958e-06
0.000111002
4.50407e-17
0.00376672
1.09245e-18
0.00351706
0.0195511
0.000889116
1.60887e-19
2.97434e-06
0.000305446
1.37452e-06
0.00491049
4.93895e-07
0.00119481
5.44819e-17
4.57736e-16
3.26491e-07
0.00471332
0.00016905
1.27511e-15
8.01367e-17
1.85591e-16
0.431363
3.98862e-19
2.25478e-16
2.94797e-17
6.04068e-19
4.67451e-18
8.54326e-05
0.000121589
0.000752945
5.19971e-05
6.59118e-13
0.000910784
4.44108e-18
0.00632476
2.23622e-16
1.26561e-18
9.69539e-17
6.78591e-16
2.40067e-05
7.12836e-16
2.84761e-18
5.7304e-17
0.0145129
5.81837e-16
1.77192e-17
0.0106135
1.13251e-15
0.0364749
0.0656134
0.384386
4.21391e-18
0.204414
1.27425
1.80509
0.668828
2.02386e-16
9.1471e-17
0.0047346
0.00523527
1.44728e-15
0.00292748
4.85402e-17
0.0310571
1.9076e-16
6.69479e-17
0.000470356
1.62187e-16
7.59419e-18
6.79225e-06
2.79228e-05
1.29922e-18
2.10011e-16
1.34225e-06
7.7466e-15
2.51151e-15
2.01404e-05
0.00739201
0.0011304
1.59354e-16
0.00605261
2.27357e-17
0.00337755
3.8614e-07
0.00511983
3.78367e-16
1.13875e-09
0.00465362
9.60851e-15
2.23198e-10
2.26243e-16
0.031764
9.47129e-15
0.010194
8.10547e-16
9.61999e-08
2.68749e-16
1.18395e-15
6.66792e-18
7.56331e-11
7.97897e-10
3.04763e-17
0.0119479
0.00671352
1.46286e-17
3.93336e-16
0.0327191
0.0175955
0.173635
1.50999e-18
4.71146e-05
0.0240794
0.0455779
2.93772e-09
3.48379e-18
0.0647071
3.3201e-16
0.21349
2.02397e-17
1.10577e-08
6.84788e-09
9.66451e-17
3.70706e-05
4.19595e-15
0.0198111
3.51604e-18
7.03241e-17
2.54278e-16
3.42448e-16
1.80102e-16
1.55877e-16
0.000365716
0.00147625
0.137724
5.80252e-16
3.63115e-15
0.040778
1.60899e-16
2.52356e-18
3.3556e-16
6.01793e-19
2.40395e-16
0.0016123
1.8389e-16
2.48075e-17
6.11258e-17
0.00166433
1.31619e-17
1.01403e-16
1.46902e-15
0.00149342
8.34865e-17
0.00368157
0.196028
0.00380634
0.00552055
0.020168
1.34835e-15
3.56187e-16
5.42234e-17
0.00328191
0.00166982
1.04304e-16
1.54872e-14
0.000302719
2.37832e-18
2.33354e-17
0.311686
1.29759e-16
0.0215562
7.10808e-16
0.00195442
0.00365642
4.2628e-16
1.7878e-16
9.10293e-16
9.22308e-18
9.90716e-17
0.0200292
9.52933e-16
0.00306565
6.8093e-17
1.61697e-16
0.00568719
2.04793e-17
0.0137726
5.27906e-15
1.9036e-17
0.00220229
7.77378e-05
0.123596
4.40669e-17
3.11527e-18
1.25412e-16
0.00358586
0.170985
9.64881e-17
4.31577e-17
1.53009e-15
0.00124773
2.69525e-16
0.0212718
0.0233471
4.87976e-16
7.39417e-17
0.00582048
1.33176e-16
8.29237e-15
1.18714e-17
7.67566e-16
1.14396e-17
0.060127
5.06808e-14
6.8594e-16
1.406e-17
6.04482e-14
1.01974e-16
1.94882e-14
2.86809e-17
7.65291e-17
6.17093e-16
0.00753898
9.07956e-16
0.00673197
4.28196e-15
1.4203e-16
0.542674
0.00216314
3.16378e-16
1.15977e-15
1.77299e-16
0.00192801
2.99992e-16
6.2555e-17
8.38644e-16
1.92618e-16
0.00574349
1.22135e-16
0.00292626
8.49382e-19
0.0100155
1.64621e-15
0.0551472
1.96895e-15
9.85163e-17
0.0170899
9.47834e-16
2.21016e-17
0.0258384
0.000268877
4.62398e-18
4.25523e-18
0.0385894
0.0118356
0.0052709
0.000645977
0.00145
0.0156299
0.000765839
0.00543768
9.73323e-16
0.019942
8.16673e-15
1.61002e-15
3.33709e-17
7.7001e-16
2.19201e-16
0.00826882
4.3988e-17
6.41443e-19
2.3565e-18
5.15362e-07
1.41799e-05
6.81212e-15
0.00280626
2.3575e-17
0.00407927
6.18876e-17
7.00105e-07
0.00312963
1.81698e-13
0.0398993
1.39281e-16
1.39392e-15
1.93228e-16
0.0023659
0.00142126
3.19663e-17
4.2492e-17
0.00201644
1.16386e-17
0.6226
2.2992e-17
0.080088
3.0919e-17
1.42029e-16
8.02092e-19
2.39649e-16
0.00836498
3.7841e-16
6.06745e-05
1.10346e-17
0.00934065
2.12584e-16
1.37321e-17
7.19496e-12
2.69385e-13
3.3043e-17
6.23073e-16
8.37897e-17
1.83643e-17
0.00435171
0.22759
1.51286e-14
2.26734e-17
0.000395711
1.32841e-16
9.02251e-17
1.84436e-06
0.0165611
0.000170178
1.2573e-16
0.000443214
0.00367957
0.00442486
0.00842956
2.106e-17
1.31501e-18
1.29661e-17
4.56689e-17
1.25563e-16
3.71664e-16
1.9761e-16
1.20667e-15
8.80346e-17
2.35384e-16
2.85731e-17
1.55826e-16
0.0707698
4.71744e-17
2.8924e-17
3.92067e-09
2.66179e-18
3.47579e-17
1.05422
2.03617e-16
6.66908e-17
0.00139447
2.38129e-10
5.84136e-16
1.98374e-17
1.88312e-18
0.0207048
9.40797e-18
7.33538e-17
3.4693e-08
1.60189e-17
6.59557e-16
3.31553e-17
1.2159e-16
0.101235
7.12471e-17
0.000248369
8.32752e-18
3.61187e-17
9.59417e-18
1.13799e-17
1.87147e-17
4.32597e-08
6.49622e-08
0.000125408
8.65717e-19
6.02603e-16
3.10266e-17
1.13139e-07
4.02875e-17
2.42946e-07
3.11105e-08
1.48344e-16
3.47737e-16
9.39797e-16
1.29904e-08
7.1959e-17
6.80129e-16
1.16908e-09
4.96219e-15
0.0302574
3.92707e-17
0.00546254
2.56698e-15
1.75035e-06
1.92212e-17
0.00156006
1.22097e-16
0.00448158
0.0193558
1.82051e-16
0.00264131
8.97506e-06
1.69126e-17
0.00817067
7.07067e-17
6.39235e-17
7.59043e-17
1.62306e-17
1.74097e-15
1.68952e-17
2.88443e-17
3.14321e-18
0.239084
7.19219e-17
2.1626e-17
3.49064e-17
1.48158e-17
1.32691e-16
0.0293238
0.779378
1.9416e-06
1.66548e-05
7.00654e-17
0.0015647
0.00104528
9.10153e-18
6.51764e-16
8.31862e-15
2.09146e-16
5.40244e-16
1.00528e-15
1.3913e-15
6.08604e-16
0.000411447
2.84381e-16
5.52569e-18
9.49323e-05
1.52964e-06
8.41408e-16
0.0263864
2.22701e-15
6.92386e-16
7.16018e-18
0.16544
4.98688e-17
2.46653e-17
0.0215576
3.44625e-17
6.29549e-18
6.83471e-17
1.10479e-17
0.0481827
7.79207e-18
4.09828e-17
8.30375e-17
2.19e-16
0.00644382
0.230556
0.0268198
0.0452158
0.00266145
0.000153962
1.66797e-18
9.35755e-16
0.105919
0.00156861
3.16882e-15
4.66034e-08
2.10107e-17
1.58725e-09
9.38801e-16
0.210737
1.70771e-16
9.39631e-17
0.000165931
6.21247e-11
1.56887e-17
0.011641
2.70223e-18
6.09828e-17
0.202207
0.0278643
2.33361e-17
1.88743e-16
8.88126e-17
1.03243e-16
2.14155e-16
7.98014e-15
1.39899e-17
3.33131e-17
0.00344006
4.88011e-18
1.50538e-17
2.1472e-16
1.01056e-05
4.76787e-17
7.20355e-14
8.75612e-18
7.88169e-18
1.42944e-15
2.61521e-16
0.00242103
7.09863e-17
3.01317e-16
0.00419093
4.58983e-18
0.000415045
0.00509808
3.30093e-16
0.00276988
1.12585e-17
5.51558e-16
2.44646e-17
2.96163e-16
2.76514e-17
1.59862e-18
3.52735e-18
5.21892e-19
0.00183665
6.34868e-17
5.07423e-17
1.20507e-17
1.56872e-15
1.77602e-17
1.64093e-15
0.0401933
4.38187e-17
1.07807e-18
0.327203
3.23829e-17
1.5287e-17
3.49149e-19
0.000956509
6.93487e-17
3.15462e-06
7.09444e-16
5.0717e-05
0.00851546
3.70198e-17
4.04278e-15
0.0375543
3.96604e-15
3.30382e-17
8.77082e-05
3.74072e-07
0.010093
1.30329e-06
3.80321e-07
7.77075e-08
2.94893e-18
2.89994e-16
0.000741331
0.000217369
0.0206314
0.0106425
3.54775e-05
2.89293e-17
0.00535405
0.00412486
0.0159491
1.93877e-18
0.0108004
0.015749
0.00239391
0.00111788
0.000408829
0.00451718
0.0180608
0.035665
0.00513153
0.0107143
0.00716582
2.65408e-14
0.00216942
0.00325167
0.00057213
0.00309779
0.0135379
0.0121495
0.0221595
4.91617e-15
0.00734011
4.59476e-14
0.00443024
0.00231765
0.000312273