/*--------------------------------*- C++ -*----------------------------------*\
  =========                 |
  \\      /  F ield         | OpenFOAM: The Open Source CFD Toolbox
   \\    /   O peration     | Website:  https://openfoam.org
    \\  /    A nd           | Version:  10
     \\/     M anipulation  |
\*---------------------------------------------------------------------------*/
FoamFile
{
    format      ascii;
    class       volScalarField;
    location    "30";
    object      T;
}
// * * * * * * * * * * * * * * * * * * * * * * * * * * * * * * * * * * * * * //

dimensions      [0 0 0 1 0 0 0];

internalField   nonuniform List<scalar> 
111485
(
303.15
285.234
301.178
303.15
298.74
283.15
299.233
293.583
296.718
286.437
300.738
296.447
300.462
284.666
300.213
286.915
299.376
300.895
294.509
303.15
303.15
283.15
297.608
288.889
301.552
303.15
293.485
300.71
289.288
303.15
300.819
294.45
303.15
283.15
283.495
283.15
302.33
297.801
283.149
296.967
283.15
290.081
297.37
302.938
303.181
303.15
287.678
288.744
290.131
303.15
303.15
283.15
303.15
299.323
303.15
293.916
288.089
283.15
283.338
295.859
296.251
303.15
302.155
300.529
283.15
284.662
301.547
291.808
302.213
302.603
303.172
302.023
303.15
302.204
303.15
295.508
283.15
293.872
283.15
283.15
283.255
293.937
283.15
303.15
300.541
284.303
283.15
301.742
303.142
299.337
283.518
289.914
301.067
300.188
290.275
303.15
303.15
301.742
303.15
283.452
303.15
286.904
283.15
285.424
285.873
283.15
283.15
293.2
301.628
283.145
299.098
288.454
301.479
301.866
303.15
302.078
303.15
283.15
300.339
303.15
303.15
283.15
283.15
283.15
283.451
303.153
283.15
301.898
303.15
283.186
303.065
302.137
303.15
283.15
283.15
292.949
283.15
294.594
299.06
301.244
303.142
297.162
299.227
284.891
302.353
297.883
283.15
303.15
283.15
297.483
285.063
303.15
303.145
287.503
283.156
294.16
296.015
302.579
283.153
303.15
303.15
292.623
286.429
283.151
283.156
301.331
283.751
283.15
283.152
283.16
283.15
303.15
283.21
283.15
291.734
287.295
283.15
303.15
303.15
283.15
303.15
303.15
297.974
293.926
296.184
290.071
301.584
300.618
283.195
303.15
301.582
303.15
303.15
300.367
286.465
301.629
301.396
295.873
303.15
300.998
284.705
283.163
301.057
297.202
303.15
300.611
288.58
303.15
283.247
300.352
284.928
300.862
303.15
303.15
300.876
283.15
293.353
283.15
300.785
298.975
290.704
303.15
301.863
300.753
283.15
283.15
283.15
289.966
283.158
283.15
303.15
298.913
291.784
290.342
283.15
303.15
303.112
303.15
284.412
300.302
299.511
299.745
299.621
283.15
283.143
299.103
283.15
283.15
289.001
288.736
283.15
301.142
299.129
303.15
283.15
301.035
303.15
303.15
303.12
303.15
288.461
285.99
291.146
303.15
298.601
303.15
303.15
303.15
283.148
298.41
301.14
299.667
291.414
299.728
296.59
283.217
290.665
292.011
283.15
303.15
283.149
292.642
299.032
286.606
303.15
298.282
297.586
299.16
302.987
283.164
297.432
299.612
302.044
283.15
283.678
283.15
283.148
303.15
284.087
290.473
286.631
303.15
283.15
297.882
285.442
303.15
303.15
303.15
284.74
290.611
301.25
284.51
293.464
283.15
283.15
303.15
298.618
303.15
283.922
290.099
283.151
283.15
303.15
303.15
283.15
294.75
290.167
283.15
296.075
283.15
303.15
301.326
297.611
294.178
296.176
283.15
283.15
283.15
296.946
291.364
302.409
283.15
283.15
283.147
290.305
297.257
283.234
290.918
283.15
293.235
299.787
284.314
299.075
285.392
283.15
303.15
283.15
303.15
290.86
296.686
288.319
292.401
283.15
286.532
283.15
303.15
294.241
303.15
302.2
303.15
283.15
292.368
283.15
289.069
284.734
283.15
284.04
298.322
283.15
300.344
284.798
299.102
303.051
291.411
286.127
283.15
303.15
303.147
283.15
301.179
301.111
283.15
283.15
294.836
284.461
298.394
296.847
283.15
295.625
296.443
283.15
302.167
283.958
303.15
303.15
288.546
298.911
283.15
303.15
303.15
303.15
300.837
283.15
303.15
294.145
283.172
287.425
300.248
283.15
283.15
302.689
283.15
302.557
301.656
298.328
291.037
283.15
294.286
303.393
303.15
299.056
292.572
303.15
283.15
283.317
283.15
290.394
286.416
292.012
283.15
293.226
296.788
293.419
303.147
283.15
303.15
303.15
283.17
293.087
283.15
284.407
303.137
283.15
303.15
303.15
303.15
301.817
290.863
286.183
284.267
284.438
283.15
285.876
303.15
300.967
283.15
303.15
303.15
300.913
303.15
303.15
283.151
303.15
283.15
300.953
283.15
283.15
283.15
303.15
283.15
303.15
283.15
283.699
283.15
303.132
301.873
283.86
283.15
303.095
283.15
303.15
284.824
284.794
286.301
298.068
283.15
297.91
298.011
292.648
287.096
285.409
303.15
292.115
283.15
300.167
283.15
297.223
283.15
292.453
298.922
303.15
283.15
287.075
303.15
296.02
299.437
283.15
283.15
283.15
283.15
303.15
294.191
283.15
283.15
283.249
283.15
300.129
283.15
284.949
303.15
283.461
303.128
284.758
292.296
283.15
299.154
283.15
283.15
285.865
283.15
283.26
283.15
299.99
303.15
291.112
303.15
283.15
302.533
284.575
300.369
285.828
300.374
289.677
283.15
300.871
284.665
283.15
283.138
300.725
301.76
283.15
282.26
301.264
303.078
283.132
303.15
287.778
302.265
284.506
285.564
288.55
282.34
283.15
303.15
301.356
303.15
283.581
283.15
283.15
292.135
282.622
303.15
303.125
283.15
286.501
299.825
283.15
283.15
299.832
303.15
283.15
283.15
283.15
286.367
283.15
303.15
284.963
284.308
303.15
299.911
283.15
289.409
303.15
283.15
286.369
283.15
283.15
283.15
285.51
283.15
285.622
292.327
303.15
300.668
283.482
299.042
301.141
283.415
283.479
283.15
289.336
298.774
303.15
302.318
296.563
297.269
284.767
297.815
297.566
303.15
300.433
303.141
283.15
297.552
284.956
283.15
292.745
296.157
284.973
299.1
300.829
292.713
283.15
299.218
283.501
303.15
300.802
302.071
294.461
283.15
286.709
303.15
283.15
283.15
283.15
283.313
283.15
303.15
303.15
283.15
300.602
299.59
303.15
285.816
303.15
303.15
303.15
290.277
283.432
283.15
303.15
283.15
283.15
287.334
292.758
283.15
295.615
283.13
283.15
295.779
302.338
288.114
283.15
283.15
300.442
292.483
283.15
283.15
283.15
294.319
303.15
303.15
283.15
296.682
302.477
283.15
282.921
301.824
286.813
283.15
283.15
287.666
303.011
283.15
283.161
288.216
283.802
288.989
283.15
285.862
300.57
283.15
303.15
283.15
283.15
283.15
283.15
296.147
303.15
283.15
283.15
295.771
292.199
303.15
303.15
290.245
298.692
298.59
303.15
283.15
298.272
303.15
283.935
299.073
298.613
303.15
303.15
303.15
283.15
286.227
283.15
283.15
302.736
303.15
298.116
302.402
283.15
294.425
283.208
296.776
292.213
283.457
290.191
283.15
283.15
297.216
288.471
291.027
283.15
283.15
299.52
295.222
283.15
283.982
284.724
283.515
303.15
303.15
303.15
290.925
283.15
300.216
283.15
284.457
297.625
298.79
292.654
283.15
283.15
303.15
295.727
283.15
283.15
303.11
283.15
283.15
303.15
283.15
299.533
283.15
283.15
283.15
283.15
283.15
303.15
283.15
283.174
298.904
303.15
302.584
283.125
283.429
283.086
285.668
283.15
284.555
290.862
283.429
303.15
283.15
299.929
283.15
300.377
283.184
283.142
286.377
297.756
283.244
292.044
298.045
283.15
283.15
299.161
299.671
283.15
297.598
291.516
297.61
283.15
283.257
283.15
297.934
297.053
283.15
299.986
297.695
283.148
299.57
283.15
295.975
283.143
303.116
283.163
283.159
283.15
283.15
284.536
283.15
302.997
283.646
283.158
303.147
303.148
303.147
283.15
283.15
294.202
303.15
303.135
283.955
283.15
283.15
303.153
303.15
283.15
303.162
283.15
283.15
303.15
303.15
303.15
303.15
283.382
283.15
283.15
283.15
303.159
283.324
283.942
293.858
283.15
283.15
283.365
283.15
283.15
283.15
287.484
293.963
283.15
283.15
283.15
283.15
283.15
283.15
284.1
283.15
303.151
291.896
283.15
303.15
303.15
303.15
303.15
303.15
283.15
303.166
283.15
283.769
283.143
303.152
283.15
303.071
284.549
292.54
303.15
303.131
284.631
303.15
283.15
303.15
283.15
294.429
293.852
284.827
303.148
283.15
293.632
283.15
283.15
303.15
283.15
295.244
283.15
303.15
283.162
298.358
303.15
284.554
283.15
283.649
283.15
283.15
283.15
303.15
286.094
283.497
285.024
283.15
283.15
285.867
283.15
283.15
303.15
284.476
303.161
298.905
303.15
303.132
303.133
283.15
303.135
283.15
283.489
289.524
301.008
283.915
283.172
283.15
283.15
283.15
303.177
283.15
302.961
303.15
293.861
303.15
288.894
283.873
303.15
283.15
303.15
283.15
302.004
303.15
303.15
286.679
300.89
283.15
283.15
283.15
283.15
283.15
283.15
301.138
283.622
303.15
303.15
303.155
303.15
300.56
284.486
283.15
302.246
303.15
300.803
283.15
302.629
283.15
283.147
303.152
283.345
302.26
300.56
283.147
283.15
289.641
303.15
293.804
303.15
283.15
303.15
283.15
283.15
283.15
301.099
302.189
303.15
303.15
303.15
302.941
283.148
303.15
293.326
283.077
303.15
297.665
298.358
296.843
283.4
283.15
283.15
283.15
283.15
295.047
283.15
295.438
283.15
303.077
290.036
283.15
302.907
283.15
283.15
302.812
283.147
302.896
283.15
303.15
283.15
302.472
283.15
303.15
283.15
283.147
283.15
283.176
283.15
283.15
303.15
293.123
301.112
296.506
297.379
303.15
303.124
283.15
283.15
285.929
283.15
283.159
302.897
298.847
302.986
303.15
283.398
283.15
303.15
283.15
303.018
283.382
298.342
283.15
303.15
288.341
303.15
283.15
283.113
295.497
283.147
283.15
283.15
283.146
303.15
283.15
303.144
303.15
303.15
290.368
303.021
303.03
289.416
293.651
283.15
283.15
303.116
289.488
283.15
303.15
284.935
283.15
303.15
283.15
283.15
283.15
298.452
283.15
302.971
283.15
300.893
283.15
283.15
283.15
283.15
283.15
283.15
285.233
283.15
283.15
283.15
283.15
283.15
283.15
292.433
283.15
298.404
302.989
283.15
302.339
283.15
302.594
303.146
292.441
288.957
303.15
292.305
284.984
303.122
303.15
303.14
295.17
288.866
283.15
288.076
283.15
283.15
283.15
283.15
287.708
283.15
283.15
291.813
303.139
285.415
283.15
283.15
302.547
283.15
283.2
303.15
299.931
283.15
283.15
302.849
283.15
303.175
303.15
283.15
289.311
298.057
292.86
285.927
293.069
294.441
283.15
283.15
302.392
290.769
293.196
284.543
283.15
294.468
283.15
303.15
300.97
298.923
283.15
297.53
283.15
292.946
297.515
303.15
283.15
283.15
301.926
283.15
283.15
300.747
296.275
283.198
291.412
283.15
283.15
302.854
300.764
283.15
300.863
283.15
300.728
283.15
283.15
301.022
283.15
283.233
301.742
283.15
283.15
302.504
283.15
288.112
303.15
290.966
303.15
303.15
303.15
301.154
283.15
283.15
299.806
283.15
303.011
283.15
283.15
303.15
283.149
288.407
283.15
283.15
288.263
288.446
283.15
283.758
283.15
303.15
302.498
283.802
297.815
283.15
283.15
283.15
283.15
283.15
283.15
283.15
283.15
283.15
283.15
283.15
303.15
283.15
283.15
283.15
283.15
283.15
283.15
283.15
283.15
303.15
287.152
283.15
283.15
283.15
295.103
283.15
303.15
303.067
283.15
283.15
295.114
283.15
283.15
302.183
295.583
283.15
303.475
303.521
283.15
301.745
294.376
297.889
301.62
298.412
303.15
283.15
296.417
292.197
301.567
283.15
302.242
302.48
301.054
288.214
287.467
301.232
301.786
301.906
303.15
286.04
297.857
285.797
297.576
283.15
283.15
283.15
303.15
283.15
292.414
298.21
283.15
283.15
283.15
283.15
283.15
303.15
283.15
303.15
292.306
303.157
299.274
302.867
283.15
283.15
285.588
283.172
283.15
283.15
301.699
303.15
283.15
298.436
299.738
297.833
298.998
301.06
303.15
291.229
302.656
303.15
303.15
300.562
303.15
283.15
282.802
296.196
302.978
283.15
303.15
290.288
286.349
297.189
292.61
302.61
303.15
303.141
303.15
303.15
283.15
298.951
283.15
292.227
290.694
299.946
284.871
303.15
302.035
303.15
283.15
303.15
303.15
291.734
300.451
283.15
303.15
303.14
292.207
303.069
299.581
293.237
288.494
293.329
283.15
303.15
283.15
291.726
298.583
303.15
303.15
303.15
303.15
297.937
302.582
283.15
300.173
301.392
285.08
299.74
303.15
303.15
298.947
293.376
283.15
302.942
300.072
302.652
292.393
297.617
298.534
303.15
287.133
298.233
291.706
283.15
289.451
303.15
288.588
301.232
303.15
288.901
301.44
300.319
293.592
283.148
283.158
283.244
302.065
301.103
303.15
288.981
301.625
303.15
283.15
303.15
303.203
299.048
292.303
297.002
303.234
283.149
298.155
303.15
303.15
293.213
303.15
300.424
283.34
301.474
291.683
303.15
283.714
293.635
303.15
282.965
298.948
303.15
300.871
286.409
303.15
303.15
284.049
303.15
283.15
283.15
286.031
299.976
291.664
303.15
285.473
297.792
283.15
299.098
299.132
289.156
303.138
283.15
301.554
299.111
299.099
300.288
288.819
291.506
302.512
303.15
298.52
288.891
303.15
299.109
283.15
283.15
303.15
283.15
303.15
297.866
283.15
300.7
283.681
303.15
283.878
283.15
290.049
303.15
303.147
303.15
294.49
303.012
303.128
300.077
290.585
289.653
290.751
298.718
303.15
299.641
292.603
299.209
303.15
283.922
283.519
299.502
287.402
283.558
303.15
283.15
303.15
285.584
303.15
303.248
284.766
303.266
302.977
303.15
303.15
283.15
300.75
300.656
285.725
303.103
287.146
296.044
301.945
292.929
288.487
302.15
296.457
283.15
283.15
303.15
285.974
289.923
283.15
283.15
303.15
302.063
289.013
303.15
296.733
303.15
283.155
285.432
301.021
303.15
303.15
292.714
303.15
283.335
290.785
283.15
297.481
294.896
296.187
303.15
302.779
283.15
302.723
293.878
303.15
303.15
288.959
283.15
303.15
301.92
284.538
303.15
303.15
283.15
302.425
303.24
289.926
300.062
298.063
303.15
303.157
302.698
303.15
283.15
303.15
303.15
303.15
303.15
303.15
303.15
303.15
283.15
303.15
303.15
283.383
303.15
303.263
303.15
303.162
303.15
303.15
301.225
303.65
303.15
292.495
303.15
303.15
283.15
302.635
303.15
302.239
303.123
283.3
283.15
303.15
302.958
283.149
303.15
303.15
291.816
283.15
293.033
283.15
283.15
283.147
291.656
284.947
303.15
296.902
283.15
303.52
303.136
284.387
302.671
283.15
292.613
303.091
301.844
283.15
303.15
283.15
303.777
284.918
297.018
303.15
303.15
303.15
303.15
303.15
303.15
302.451
302.854
297.876
292.727
303.15
287.459
293.086
285.082
303.201
283.15
287.087
302.804
284.877
283.147
287.642
303.15
283.409
302.951
292.974
302.887
302.102
303.15
302.262
303.15
303.15
298.237
303.15
284.618
303.15
303.15
283.15
303.15
303.15
302.887
303.15
283.307
283.15
283.15
286.068
285.156
300.958
286.32
303.15
295.8
303.15
290.767
303.15
287.484
300.949
301.688
293.724
303.15
303.15
303.15
289.972
283.15
303.15
289.725
283.15
283.15
302.004
303.15
286.334
283.147
283.15
303.15
303.15
300.805
298.519
303.15
293.754
303.058
283.15
298.734
303.15
286.545
288.439
302.222
303.15
296.68
296.847
302.983
302.033
301.778
303.15
303.15
303.147
303.15
283.15
303.15
289.735
300.037
294.603
302.253
283.15
300.594
291.842
298.53
283.678
298.686
290.106
302.279
283.15
283.15
283.15
302.318
283.15
290.955
283.15
301.469
303.158
289.889
298.179
283.15
303.15
301.458
301.44
303.15
283.15
303.15
286.549
301.628
303
302.433
298.142
288.6
303.15
303.15
303.15
294.599
286.197
290.037
296.28
284.011
302.98
303.15
303.15
283.15
283.15
285.529
299.83
303.15
303.15
283.15
303.15
303.15
303.15
300.559
303.15
285.572
294.074
283.15
283.254
293.648
285.809
303.15
303.15
302.034
303.15
299.578
283.145
297.822
303.15
303.15
283.15
303.15
303.15
303.15
305.828
303.15
301.991
301.192
303.15
303.15
301.797
303.15
283.15
287.446
303.139
303.15
303.15
303.15
298.223
303.15
303.15
302.738
302.573
301.943
303.15
283.15
303.15
302.172
302.584
301.695
302.597
283.15
300.828
287.748
297.437
283.15
303.15
303.15
303.15
303.15
294.749
287.722
299.721
303.15
303.15
303.15
303.15
283.15
303.149
284.905
285.196
283.15
303.15
303.15
283.147
299.974
295.634
283.15
303.15
303.15
303.15
303.15
289.784
290.008
303.15
303.15
302.43
303.15
301.497
284.006
292.672
303.15
283.15
301.214
303.133
303.15
303.816
299.92
287.141
303.15
303.15
303.15
303.15
293.498
284.251
303.15
302.766
298.523
291.861
303.15
303.15
303.15
303.15
299.792
303.151
303.15
303.15
298.544
302.6
288.668
303.15
303.15
298.213
303.15
303.15
303.15
303.15
289.049
303.15
283.15
283.15
296.288
291.453
303.15
303.15
303.15
297.356
303.148
303.15
303.15
303.15
303.15
303.498
301.11
303.15
287.571
302.697
299.656
303.15
303.15
303.15
303.15
283.15
285.918
303.15
302.818
283.15
302.3
303.15
303.139
303.15
283.15
301.943
287.008
283.15
302.87
303.15
302.514
283.15
303.15
303.15
303.152
303.15
283.28
303.15
291.105
283.15
283.15
303.15
303.15
299.094
302.489
283.15
302.566
283.15
284.261
288.391
302.771
283.15
303.154
303.015
303.138
284.551
283.157
303.006
283.15
283.15
283.155
302.181
302.4
303.15
283.15
283.15
296.863
303.15
283.15
303.15
303.15
303.15
303.1
303.061
302.977
302.531
303.15
302.973
303.15
285.031
303.15
303.15
283.15
303.15
303.114
303.15
283.15
303.15
288.506
303.15
303.15
303.201
283.15
303.42
302.917
298.511
303.15
291.689
297.435
284.598
292.079
283.15
283.15
287.379
284.497
283.15
303.582
283.15
286.565
303.15
283.15
303.159
303.15
303.15
303.031
303.154
303.15
283.15
303.142
303.15
283.15
283.1
299.098
302.763
303.15
302.002
303.15
285.821
303.15
301.471
303.15
303.15
301.259
303.15
303.15
303.15
287.884
303.15
285.274
303.15
303.148
303.15
283.15
283.15
303.15
303.15
303.15
288.965
302.648
303.15
303.15
288.937
286.649
292.613
303.15
302.764
287.858
287.786
303.15
303.15
288.785
283.15
292.714
303.15
303.151
303.15
303.15
300.733
283.15
302.347
283.15
303.15
303.15
303.15
303.15
303.15
284.513
302.341
291.835
303.15
303.15
291.354
303.15
303.15
303.15
303.15
303.15
299.216
303.15
303.15
283.15
298.775
303.15
283.15
303.15
300.934
283.15
299.983
291.135
302.745
300.004
299.584
303.15
303.15
303.15
300.902
288.811
283.15
303.15
300.254
303.15
303.15
292.79
303.15
287.723
303.15
298.092
284.465
303.15
283.15
303.15
303.15
303.15
285.501
303.15
300.35
303.15
303.15
299.935
283.15
284.955
303.15
303.15
288.487
301.585
297.164
303.15
303.15
303.15
301.603
293.026
303.15
283.15
303.15
300.854
303.15
284.979
297.059
303.15
303.15
301.296
303.15
303.15
283.15
303.15
283.15
295.524
303.15
283.15
303.15
303.15
303.15
303.15
303.15
303.15
283.15
301.549
283.15
302.175
303.15
303.15
296.501
300.674
303.15
283.15
303.15
301.054
283.15
303.15
303.15
303.15
300.869
303.15
298.35
303.15
286.138
283.15
286.958
303.15
303.15
298.833
283.15
303.15
288.185
283.251
303.15
303.15
285.24
283.994
301.026
301.854
301.34
293.402
301.855
283.92
303.15
298.404
283.15
283.15
303.15
303.15
303.15
301.365
303.15
303.15
303.15
303.135
283.173
283.15
283.593
303.15
302.137
283.15
303.144
296.453
283.15
294.991
303.15
303.15
283.15
300.119
283.993
303.15
283.15
300.144
303.15
298.219
303.15
296.074
303.15
283.15
303.15
283.15
299.612
283.15
283.257
283.15
286.396
303.15
303.15
283.15
283.15
303.15
303.15
303.15
303.15
285.007
285.227
283.15
303.15
283.237
283.15
283.15
303.155
290.307
283.588
283.15
301.551
285.014
300.567
288.564
303.15
303.15
303.15
303.15
283.15
283.15
283.15
303.15
283.15
283.15
303.15
283.15
297.827
283.15
303.15
283.15
303.15
303.15
283.965
283.15
303.15
302.086
303.15
303.15
303.15
303.15
288.926
283.15
303.15
303.149
283.15
303.15
303.15
303.15
295.491
283.15
283.21
303.15
303.15
303.15
303.15
303.15
303.15
303.146
284.176
303.15
283.15
303.15
303.15
303.15
303.148
303.15
283.15
283.15
283.15
303.15
303.15
283.15
303.15
283.15
287.935
283.15
301.992
283.15
303.154
303.15
284.717
283.15
284.552
297.919
303.15
284.807
303.169
303.15
297.946
283.15
303.15
303.15
303.15
303.15
283.15
303.15
303.15
299.51
283.15
303.15
303.15
303.15
303.15
292.488
292.055
303.166
283.174
303.15
301.953
302.403
303.15
283.15
283.15
303.15
303.15
303.15
283.15
283.15
283.876
303.15
303.15
303.18
303.15
283.15
289.275
303.15
283.15
303.15
288.667
303.15
283.15
302.264
283.15
283.15
283.15
303.15
299.975
303.15
303.15
303.15
283.15
284.62
294.297
295.932
290.015
303.133
303.044
283.15
283.15
301.371
283.74
283.15
303.149
303.15
303.15
283.15
295.26
303.15
283.15
303.011
303.15
303.15
283.863
303.15
303.15
289.015
290.207
303.15
283.15
303.15
283.15
303.15
303.15
303.15
303.15
284.005
303.15
303.15
303.15
302.97
303.15
303.15
283.15
283.15
283.15
283.15
302.983
283.15
283.15
301.191
303.15
284.91
285.081
303.15
301.327
303.15
283.15
303.15
283.15
283.15
303.15
303.15
303.15
302.716
303.15
303.15
303.15
283.15
303.15
283.15
286.602
303.15
303.15
292.214
303.15
283.15
283.15
302.498
303.15
303.148
283.15
303.206
286.844
283.15
283.15
299.496
283.15
283.15
303.067
303.158
293.535
303.164
303.151
303.152
283.15
283.15
302.719
283.523
286.145
301.023
283.164
283.15
291.234
301.722
301.607
283.15
300.443
290.853
300.244
302.298
302.905
284.903
295.838
299.507
286.378
293.724
300.333
303.15
298.019
297.657
302.844
283.702
292.703
301.301
287.459
303.15
301.371
303.15
300.84
301.666
283.674
285.121
303.15
283.15
302.315
301.837
283.146
303.168
288.719
302.73
302.084
301.051
303.15
303.192
301.376
295.609
300.496
289.74
302.971
301.651
302.229
302.355
284.295
302.577
298.469
283.181
303.15
302.929
303.15
303.15
302.225
302.134
294.52
303.15
284.83
292.887
292.541
301.705
303.15
284.152
285.252
284.459
303.15
299.041
303.15
296.45
295.726
301.009
303.145
303.15
303.15
302.127
301.455
302.835
303.15
292.862
302.79
290.502
283.15
298.417
294.21
303.15
300.572
283.15
283.207
283.15
302.685
303.123
303.15
302.998
298.486
283.147
300.719
302.319
295.49
283.602
296.29
297.198
283.527
303.138
284.939
296.395
283.331
297.4
300.735
300.556
300.558
302.125
290.98
301.659
303.15
302.773
302.711
302.695
296.524
302.915
283.15
302.152
293.612
303.15
283.473
286.952
301.377
302.677
290.729
284.874
287.958
302.702
296.899
303.15
303.15
295.565
283.15
293.252
283.474
303.15
290.736
290.842
283.962
303.15
297.521
298.527
284.337
301.522
294.349
290.341
300.589
303.115
303.15
303.15
283.657
302.692
283.382
285.999
303.15
303.033
303.053
303.15
285.548
300.817
298.071
283.292
299.862
302.488
300.638
287.205
283.15
303.115
301.944
283.842
283.168
303.15
303.088
303.15
303.15
284.264
302.602
296.425
283.083
283.151
303.15
283.15
302.974
303.059
302.57
301.566
303.15
283.15
283.15
301.941
301.992
283.259
295.922
303.15
303.15
301.762
285.709
283.268
301.819
301.905
301.883
284.528
303.15
283.15
298.555
297.808
303.15
302.773
302.208
285.284
285.124
302.231
303.052
303.15
298.445
284.531
283.15
303.15
300.044
300.45
302.115
289.884
302.198
285.872
300.349
300.292
290.533
297.815
303.15
303.15
297.798
284.569
302.218
283.152
300.782
301.861
283.668
288.465
302.51
283.15
283.15
283.02
303.15
303.15
300.188
299.103
302.396
283.145
283.15
284.026
283.149
283.15
283.153
303.09
301.155
299.507
296.093
283.411
303.116
300.167
303.15
283.15
302.658
289.442
300.955
292.844
283.548
303.077
283.147
283.15
302.881
301.283
302.688
283.163
291.79
285.046
303.15
284.403
301.105
283.15
283.324
285.123
284.94
283.15
283.15
301.779
283.15
289.636
302.601
302.766
301.869
283.536
300.008
291.249
283.15
303.269
292.672
283.15
283.15
283.15
303.15
301.27
302.499
299.359
301.616
300.01
289.299
283.154
291.167
290.329
303.074
291.511
300.203
292.271
283.15
286.555
301.256
301.668
283.15
284.089
299.881
283.15
303.15
283.197
301.437
303.15
284.093
302.31
303.044
303.15
283.15
293.038
303.152
301.849
283.15
283.15
283.15
302.328
298.05
303.14
302.273
303.162
303.15
288.73
303.162
290.634
299.762
299.667
296.902
283.158
300.768
283.15
290.827
301.496
289.707
290.694
299.125
300.801
301.429
287.334
291.334
285.26
283.184
302.33
286.33
283.145
283.147
300.233
283.076
300.365
287.209
296.197
299.682
289.691
299.526
283.124
299.164
283.15
290.454
291.09
298.905
283.365
283.15
300.847
283.15
302.854
283.15
303.15
286.636
286.692
283.15
299.256
298.621
287.332
303.15
303.15
301.942
289.96
303.075
283.779
301.655
287.426
303.147
284.357
288.537
303.15
301.61
283.15
283.15
287.76
287.358
283.144
285.401
301.635
286.487
301.183
303.15
285.509
301.866
291.486
303.15
303.15
301.792
302.177
303.15
293.938
294.464
283.797
296.716
287.109
290.359
303.15
303.059
297.358
285.285
283.15
287.919
292.976
299.996
283.176
283.804
282.856
302.083
303.134
283.15
303.138
303.15
300.705
293.498
299.083
294.045
283.15
292.133
296.494
285.802
283.218
294.624
283.15
300.285
303.162
293.042
284.169
303.146
292.068
298.471
288.563
300.144
291.504
287.688
283.15
303.143
285.499
290.17
293.898
283.15
283.15
283.15
303.142
283.15
283.135
286.685
303.15
283.15
303.161
283.172
291.245
290.597
303.198
302.953
290.22
303.15
297.287
303.167
302.121
287.51
283.15
293.317
303.147
303.105
286.485
283.15
283.15
283.511
286.335
303.075
303.145
287.799
289.76
283.574
283.162
290.068
293.417
303.15
283.15
303.117
303.15
302.433
285.126
302.396
303.104
284.128
283.832
284.125
302.872
302.312
297.53
294.205
303.09
291.659
291.199
303.15
303.108
302.673
285.618
283.424
303.15
286.11
283.405
302.959
301.686
302.28
283.15
300.554
301.973
303.15
302.235
285.563
303.15
298.249
303.15
283.15
300.859
302.755
286.567
302.562
283.15
285.309
303.039
283.15
302.401
285.497
295.186
284.446
303.15
303.03
302.888
286.701
283.15
287.331
284.331
290.104
285.971
302.343
303.15
283.15
283.15
293.306
283.15
301.134
302.263
290.533
283.15
294.212
283.15
303.15
283.15
300.075
298.448
283.151
285.438
301.773
303.122
303.155
292.522
294.799
301.365
283.301
301.851
283.145
303.15
303.158
300.295
283.15
302.693
294.965
303.15
301.042
287.533
301.987
284.985
288.589
283.15
302.319
287.991
298.81
303.08
283.15
303.15
291.935
302.261
283.093
283.145
287.227
298.76
303.15
284.882
301.188
299.995
301.4
303.151
300.122
287.91
285.076
301.691
300.118
283.835
283.083
303.158
303.15
303.15
297.653
283.161
283.15
303.15
303.15
290.144
298.921
299.553
288.033
302.849
303.15
286.562
301.695
303.15
301.052
283.841
301.625
303.15
284.669
301.451
295.628
302.797
303.15
303.15
285.329
295.424
296.7
287.614
303.15
303.15
283.15
287.432
302.499
296.492
303.15
285.716
303.15
303.15
300.204
288.91
283.15
295.888
296.21
299.02
283.15
303.15
292.87
287.442
303.15
298.229
300.669
300.575
303.15
303.15
303.15
300.394
298.591
302.866
300.064
283.15
293.023
287.936
291.236
300.852
303.15
303.15
300.852
303.116
286.851
296.484
303.15
303.148
283.15
286.591
299.441
285.739
303.15
303.15
283.373
303.13
303.15
303.15
283.15
290.692
303.15
303.15
284.765
299.377
283.15
303.15
284.72
301.257
300.263
287.197
295.023
303.15
283.515
303.15
303.15
283.191
300.735
290.639
300.45
303.15
303.137
302.284
293.474
300.094
301.575
284.54
283.503
300.862
298.635
303.15
302.795
284.235
299.938
301.523
288.02
303.15
297.61
301.549
301.632
301.666
293.022
303.15
283.15
299.403
283.15
283.15
287.935
283.15
284.06
283.15
283.15
283.15
283.15
302.809
288.268
302.76
283.15
296.014
291.102
284.847
283.15
303.15
302.736
301.872
303.202
302.702
283.15
294.94
300.326
290.35
283.15
283.15
300.007
286.044
283.15
283.15
303.149
290.782
283.15
287.466
303.15
303.152
284.389
283.15
288.585
294.589
300.556
294.739
302.992
285.846
302.574
295.518
286.453
283.15
283.564
291.967
303.12
289.617
302.73
283.15
292.532
287.937
301.108
301.238
285.079
303.13
285.023
297.494
302.991
303.149
285.223
303.146
303.027
293.607
302.691
283.15
303.15
303.15
295.118
291.424
283.156
301.391
284.812
284.222
284.717
303.145
288.531
300.628
283.15
283.15
302.609
303.151
294.894
302.954
303.177
300.222
303.206
302.934
283.15
301.416
302.928
283.15
303.15
299.728
303.15
284.412
299.169
283.171
291.979
283.15
287.754
303.044
299.758
283.15
303.049
291.051
301.355
303.137
303.09
283.15
283.15
301.969
302.119
283.84
302.848
302.503
302.451
303.141
283.15
294.019
283.15
302.827
288.036
303.013
303.15
283.15
302.885
285.27
291.635
302.161
283.15
302.663
302.125
298.81
302.572
303.057
303.183
303.032
303.15
283.15
301.618
298.288
303.096
303.15
290.309
285.457
303.15
283.15
285.465
303.181
303.161
302.952
301.347
284.394
303.108
291.037
294.363
303.148
289.318
303.16
283.15
290.242
283.15
300.252
298.559
284.887
288.453
299.928
296.671
295.546
299.481
294.077
303.151
294.016
296.828
283.152
299.698
293.995
303.15
299.138
299.467
303.15
291.553
303.167
301.841
303.15
287.108
286.129
302.855
289.838
283.15
283.15
300.592
301.135
283.817
283.15
303.15
299.38
302.421
300.793
300.078
302.834
292.777
289.824
286.706
292.668
284.418
290.787
283.314
295.768
290.588
294.452
287.431
284.341
303.16
283.278
303.147
285.718
300.962
283.151
300.384
298.259
288.912
302.155
285.515
299.302
283.15
302.982
283.155
283.102
288.403
299.979
303.15
300.407
303.037
299.982
302.816
303.15
301.468
285.085
295.196
302.182
303.15
283.765
283.15
290.711
285.327
285.927
303.165
303.149
283.15
283.15
283.18
303.15
293.978
303.15
303.164
296.404
303.439
303.15
300.192
303.15
303.15
294.19
290.816
303.15
290.004
302.164
289.731
303.15
303.15
286.371
283.349
290.602
303.205
303.15
303.147
285.647
283.323
283.15
289.224
287.907
303.15
284.369
303.15
303.15
303.133
287.521
303.15
303.147
283.312
303.152
302.734
288.1
283.147
283.736
297.393
291.238
303.15
286.052
284.543
301.479
287.257
302.382
290.722
294.17
303.15
303.15
284.077
303.154
302.976
295.9
302.972
302.793
287.321
283.15
285.364
283.229
297.409
302.662
285.579
303.15
283.887
286.888
303.132
283.181
303.15
286.618
283.15
300.142
303.15
300.063
300.314
283.276
283.399
302.407
291.243
301.319
303.15
301.593
301.911
303.15
303.15
298.271
293.9
283.15
288.949
303.15
295.25
283.398
303.15
297.072
298.994
289.19
303.15
302.82
294.558
295.758
284.563
303.161
298.888
296.598
284.03
303.133
302.85
287.671
298.852
289.973
291.005
289.906
283.15
302.987
303.151
303.15
303.165
293.625
296.771
302.996
301.474
303.15
284.512
303.15
303.064
302.9
303.15
293.933
296.417
303.15
285.577
303.106
303.15
303.106
303.154
286.366
293.733
291.359
288.576
293.534
303.15
301.329
291.992
295.674
293.971
303.142
303.15
300.694
303.179
284.379
303.18
303.15
303.15
303.143
303.15
285.127
303.15
284.387
303.146
303.15
290.58
303.145
292.889
295.973
303.136
295.68
286.092
283.48
303.131
302.955
284.784
283.15
297.213
303.15
285.655
302.956
302.138
303.031
298.464
287.31
303.15
298.74
290.08
299.657
283.15
283.655
303.15
303.144
303.184
294.196
303.15
292.705
289.563
303.188
303.15
285.014
298.448
293.626
299.573
302.575
301.623
297.932
303.15
284.806
296.953
302.419
285.77
298.353
292.523
284.628
292.032
303.15
287.089
292.204
290.252
298.849
303.15
286.577
284.128
303.15
302.5
288.325
302.154
283.15
303.15
300.06
301.806
289.31
302.083
301.911
301.919
303.15
289.678
285.269
302.057
302.318
297.17
303.15
283.209
303.15
302.084
303.15
302.875
303.15
292.098
303.15
296.997
283.15
290.094
303.15
283.15
292.333
301.567
300.592
289.407
300.663
303.15
302.571
303.15
302.418
285.487
303.15
300.578
290.635
303.15
300.963
303.15
303.15
293.313
283.15
285.836
293.456
301.078
303.15
291.534
294.145
288.517
289.8
288.253
299.193
300.268
300.957
287.536
287.28
301.389