/*--------------------------------*- C++ -*----------------------------------*\
  =========                 |
  \\      /  F ield         | OpenFOAM: The Open Source CFD Toolbox
   \\    /   O peration     | Website:  https://openfoam.org
    \\  /    A nd           | Version:  10
     \\/     M anipulation  |
\*---------------------------------------------------------------------------*/
FoamFile
{
    format      ascii;
    class       volScalarField;
    location    "6";
    object      p;
}
// * * * * * * * * * * * * * * * * * * * * * * * * * * * * * * * * * * * * * //

dimensions      [0 2 -2 0 0 0 0];

internalField   nonuniform List<scalar> 
111485
(
8.3139
1.09086
1.26692
8.27574
1.30467
8.13458
1.10879
0.970635
1.11484
1.62384
1.09869
1.40812
1.11894
1.08243
1.12336
1.14679
0.373555
8.79006
1.11599
8.26093
8.25161
8.17222
1.12129
1.13498
1.29875
8.16977
1.56468
0.643094
1.26308
8.33878
2.10304
0.261972
8.28576
8.2746
8.66225
8.32306
2.09178
0.0922211
2.46459
1.16078
8.34867
1.62144
1.16044
1.86805
2.21314
8.43296
1.76736
1.13316
1.61768
8.20931
8.20801
7.84756
8.21354
1.89424
8.21611
0.708258
1.12681
8.35845
1.74311
1.15655
1.16056
8.31311
0.90345
2.05834
8.06821
0.795914
6.13807
1.03138
0.903035
0.972571
2.20229
0.822031
8.03188
0.900026
8.38813
0.479239
8.19636
1.55963
8.17101
8.34707
2.12158
1.81639
8.22325
8.37103
0.89905
1.1908
3.82229
1.90455
2.16537
0.347249
2.25629
1.19664
0.903039
0.156223
1.62171
8.36851
8.31622
1.9071
1.90566
2.05341
8.30034
1.57552
8.3138
1.53292
1.05188
8.24471
8.29662
0.305926
1.21675
2.15732
0.217732
0.822114
1.19677
1.46154
8.16748
0.454352
8.19212
8.35487
0.905774
8.26323
8.16834
7.33604
8.2254
8.35979
1.69492
8.90208
7.31393
0.352463
8.39724
2.75996
2.07288
1.90416
8.38495
7.22586
7.43843
1.08566
8.20469
0.481741
0.986844
1.01119
1.62744
1.00629
1.00894
1.24983
1.71559
0.0624157
8.20309
8.36141
8.32628
1.0576
1.25112
8.25134
2.10908
0.00967562
1.98915
1.05215
1.04187
1.12202
2.08715
8.4194
8.27609
1.04747
1.24949
2.11879
2.03938
0.419432
2.02183
8.37212
2.14893
2.17079
8.3236
8.35493
1.35524
8.25735
0.0907144
0.0162982
8.10556
8.01799
8.18557
8.18628
7.99887
8.27343
1.06225
1.06587
1.05394
0.0555324
1.5598
0.577591
2.09646
8.29662
0.495552
8.01732
8.31366
0.584002
1.61579
2.02164
0.760185
0.0732441
8.38821
1.06634
1.23764
6.32322
1.81279
0.33339
8.39944
0.583998
1.48911
8.01308
2.00661
1.75854
1.24093
0.565997
7.99059
8.32575
0.578283
6.10715
1.90307
8.25202
0.580906
0.502109
1.65055
8.4243
0.637518
1.973
6.84839
8.25575
8.32669
2.21522
2.04007
8.11481
7.69965
0.505941
0.139393
0.743445
8.11083
8.09792
2.05785
8.39429
1.05417
0.500062
0.503468
0.496727
0.502015
8.33208
2.14336
0.394386
8.34419
8.2197
1.90037
0.824209
8.15113
0.253079
0.378056
8.35882
7.12008
1.79049
8.19027
8.23152
7.61545
8.22266
0.441814
0.489164
0.0348098
8.4296
0.385143
8.28088
8.30955
8.40138
2.07138
1.55835
0.864538
0.87588
1.45562
0.862422
0.877125
2.15558
0.132465
0.144312
8.04587
8.35496
2.16849
0.308273
1.59028
0.169389
8.26866
0.878179
1.06351
0.859787
1.49602
2.1492
0.849505
0.867685
1.80713
8.35899
1.54493
8.25814
8.80139
8.27921
2.20965
1.46203
1.14251
8.20442
8.3954
0.679094
0.224258
8.24673
8.32905
8.22187
0.488849
0.151926
1.04255
1.0842
1.17609
7.75187
8.30413
8.37798
0.681754
4.76768
1.14198
2.16828
2.04176
8.22091
8.30955
8.31505
7.43161
0.732081
1.29529
8.35196
0.724824
8.142
8.17755
1.94787
0.727496
1.44745
0.719188
8.28911
7.40845
8.32943
0.725491
0.0471595
2.11957
8.11038
2.90235
2.07189
1.31476
0.651289
3.42076
1.18688
8.19042
1.18793
0.737965
2.15463
1.93762
1.32088
8.2869
8.37942
8.3108
8.27973
1.03255
0.629449
1.4453
1.18714
8.28433
1.38025
8.30388
8.32032
1.18645
8.33578
7.45942
8.44997
8.32762
1.05588
8.35975
0.0400028
1.37146
8.17214
0.949254
0.763301
8.20177
0.747525
1.3929
0.759248
2.01603
0.0844957
0.153559
8.29885
8.36036
1.86594
8.35684
1.43256
1.9647
8.09223
8.341
0.713414
1.41805
0.119869
1.37609
8.19899
2.09341
1.40306
8.12056
1.86514
1.41172
8.32565
8.26821
0.0409764
1.30029
8.33234
8.19656
6.64824
8.29875
1.33401
8.25293
8.29242
1.40764
2.08708
1.72939
1.30826
8.13995
7.44235
1.88022
7.52024
1.86308
1.89401
1.61004
6.26823
7.57391
-0.104124
2.20647
8.33606
1.93639
1.37048
8.42468
2.14665
1.64585
7.54495
1.45099
1.40186
0.0917024
8.15277
0.24251
1.48419
0.0953487
2.23648
7.2998
1.96948
8.38267
2.12106
-0.0561663
8.32056
1.44856
1.79121
7.16676
8.4264
7.833
8.2501
1.31398
0.113852
1.43349
1.44695
2.00186
8.25789
1.42979
8.32323
1.31166
8.10246
8.32106
8.36367
1.44392
8.36633
8.32499
8.52336
8.31583
8.33851
1.7953
8.36018
7.87537
8.30329
8.32033
8.12894
8.38491
8.18135
1.45363
8.3044
1.80802
1.48968
2.3577
8.11335
1.80981
8.30972
8.31156
1.4424
1.42427
1.48245
2.16575
7.81946
1.66249
1.67081
0.105354
0.159496
1.48691
8.35205
0.0921707
7.17373
1.66168
8.26638
1.67974
7.33614
0.201455
1.43452
8.41635
8.34963
0.152261
8.23904
1.6601
1.64978
8.34236
8.31499
8.2484
8.31434
1.71549
1.65416
8.07326
8.35515
1.30664
8.17289
1.66257
8.19025
1.74514
8.31453
1.6314
1.67009
0.75503
0.191415
8.07865
-0.055408
8.09955
8.26917
1.53115
8.26956
1.64238
8.25562
1.70283
8.344
1.54365
8.24779
7.55583
2.33223
1.51666
1.65179
1.53597
1.65641
1.41265
8.32232
1.65901
1.52555
8.24358
2.22667
2.05217
1.66874
8.11548
8.27237
1.30835
1.6896
5.15368
8.00253
1.53025
1.30101
1.56477
1.56949
0.274509
4.31522
7.48639
1.90029
4.73216
8.28182
1.65912
8.35845
7.58068
0.347381
4.28415
1.90172
3.46785
7.48754
1.57285
1.30323
8.11217
7.8792
1.30389
8.21445
8.16839
8.1823
8.10388
1.57899
8.30258
8.37164
1.59617
0.512883
6.76734
1.27098
7.80522
0.504607
8.21163
8.32783
1.58456
8.26392
8.11769
7.55667
0.0707806
5.88418
1.61124
0.350437
8.21305
2.2502
1.5978
1.34427
2.04293
2.64209
1.31018
8.2736
1.6193
1.34265
8.40476
0.772622
1.8218
1.37711
0.0615996
1.38193
1.37801
8.38973
1.66328
2.00686
7.53645
1.38134
1.6762
6.02566
0.349746
1.37782
1.67853
1.45145
1.46913
0.35158
8.15801
1.46406
1.64472
8.37815
1.55223
1.55086
0.372146
8.27255
0.070162
8.42192
8.21057
8.29426
8.10301
1.34203
7.62058
1.66757
8.31968
8.09744
1.56158
1.56321
8.23699
1.663
8.31119
8.3986
8.2167
1.70706
1.66633
7.57721
8.38868
8.26464
8.27898
2.05844
0.371733
7.44464
1.52612
2.13372
8.33962
1.5307
1.76239
0.23674
8.15766
8.25258
0.804742
0.369591
7.52956
8.31994
8.05957
0.594804
8.35916
8.20271
8.24737
1.51298
1.21074
8.17503
8.5754
8.37575
0.285741
8.35185
8.12546
1.70059
2.06043
7.51501
6.78375
3.28494
1.74252
0.0101824
8.02717
1.28067
1.80093
8.35902
8.20873
8.20791
8.25796
8.30894
8.18329
1.52527
8.31069
8.20706
8.11579
1.52517
0.362554
8.18406
8.21778
1.74674
0.3683
0.38263
8.21301
8.21157
0.373308
8.36475
1.52483
0.364862
0.38469
8.16795
8.2989
8.29849
8.28536
1.32138
8.22061
8.19146
1.90152
8.29509
0.63037
1.7995
8.07385
0.356864
8.12669
0.626667
1.58717
1.634
1.73269
1.58069
7.74778
0.621122
1.75128
0.0103218
8.1553
0.986083
7.60678
0.116056
8.29286
1.80185
1.76817
1.79949
8.27173
8.30436
8.42832
0.366493
7.8079
0.226786
7.91959
1.18501
0.10947
0.258144
0.371328
8.18411
8.10702
8.03773
0.376517
8.1154
7.75114
2.25675
8.35007
8.35231
8.29773
8.21088
0.262751
8.0392
8.2515
1.38594
7.79239
8.36658
7.52856
8.24191
1.78965
0.257058
8.25336
1.31707
3.24486
1.80184
2.18325
0.323085
8.31525
1.59844
2.05196
1.80332
8.37506
0.694476
0.26539
7.19835
0.231961
2.1734
2.25834
0.955362
0.185377
2.19186
0.0676311
0.237337
8.27301
8.10331
0.177678
0.171098
8.33504
0.179509
1.43187
0.233627
8.0786
2.23089
8.29081
0.242761
0.227749
8.14836
0.0803388
0.235286
2.21093
0.0410564
8.04176
1.03756
2.22016
2.38763
2.1964
1.93809
8.26946
8.29735
1.9077
8.20715
1.48515
1.94883
7.32379
2.09639
1.83885
2.21654
8.21065
7.13723
0.541357
8.39653
9.26824
1.93579
8.10186
8.13534
1.913
1.79255
8.20888
2.24604
8.25634
8.2634
8.40226
8.31467
8.22754
8.36099
1.97461
8.09524
8.324
8.34102
1.40316
1.97597
1.21711
0.534248
8.16586
8.11414
2.02412
8.23713
8.13687
6.71444
1.97458
0.697765
8.16198
8.12731
8.11225
8.12562
8.27878
8.11604
1.99723
8.11705
2.18985
1.1805
8.2772
8.31273
8.21415
2.24156
8.21015
8.27751
8.29158
2.20026
8.29674
1.99662
2.07984
2.18233
8.17601
6.2497
2.01998
1.13445
7.99745
2.1984
1.68474
8.21247
8.03706
7.4087
8.12665
0.53873
1.02788
2.04998
2.13268
8.15258
0.536475
8.01022
7.4625
7.3788
8.32668
0.935127
8.24499
8.2194
2.12167
0.696565
8.2178
1.64933
7.83074
2.03978
8.30135
8.26701
8.28921
8.29116
0.258475
1.0195
2.70904
8.15999
8.10326
0.252059
8.20927
7.64088
8.31759
1.5091
2.13508
1.32457
8.19938
2.14252
2.13973
8.46475
2.1468
8.10605
1.87041
1.68362
0.990803
2.12101
2.06299
8.22305
8.25917
8.26
2.13794
8.40773
2.14057
8.41159
2.98308
8.19821
1.14513
1.18597
8.22212
8.19581
8.23036
8.3505
2.13805
8.23431
7.41589
0.24764
2.14334
8.23765
7.61744
8.0731
7.63367
8.10313
8.22769
2.15424
1.70055
8.27429
8.17615
1.96973
8.32155
2.15424
0.263193
8.11869
1.90146
8.29519
0.160759
8.09251
1.26594
8.14446
2.03924
2.14097
2.18092
1.91054
1.90748
5.8926
8.00739
1.93095
8.20775
0.927782
8.22434
8.3218
7.94055
8.30911
8.33783
8.33267
1.90114
1.89634
8.2963
7.23016
8.21067
1.93238
2.23499
8.32734
0.939554
2.20684
8.21541
0.33826
0.240277
0.891801
2.18921
8.20762
8.24227
8.29773
8.18709
0.940725
8.25998
1.9548
8.23006
1.96215
1.27325
8.29782
1.94626
8.32379
8.2025
1.96875
2.05129
4.0049
8.23042
8.22393
8.11941
0.971321
7.9544
8.44374
7.99713
3.1451
7.38587
2.06572
7.61277
7.96955
8.08002
0.288593
0.249275
1.4259
1.06617
8.39854
1.96492
8.26909
8.33509
0.251784
8.0764
2.00475
1.9578
0.185806
1.98112
1.73176
1.40213
8.31847
1.3963
0.388025
1.71058
2.02085
0.721705
6.48427
8.30865
1.35746
8.21477
8.13132
2.26606
1.62232
1.7137
8.25838
8.15238
2.11273
8.21459
8.09418
1.99134
8.22404
8.21981
0.900318
1.99303
2.02031
0.853434
0.435997
8.11378
8.22052
2.2233
0.834001
8.18143
8.22116
1.46444
8.10783
7.20051
7.41499
7.44355
5.68387
7.22692
8.18311
1.38506
8.11532
2.01953
8.14535
5.02147
8.11557
8.10014
8.3215
8.20619
1.2917
8.20913
8.20608
7.5308
8.13097
8.31717
8.26279
0.790936
8.22411
0.718845
2.02937
8.10031
1.41855
8.16681
1.73627
2.18905
0.194007
0.205798
8.1674
0.218099
1.29322
2.17055
8.39773
2.05919
0.627695
0.107229
7.84088
0.128728
8.11853
8.3167
8.13834
8.17661
0.129049
8.25642
8.13343
0.105493
2.03459
0.098756
8.34201
6.44784
1.40728
8.29271
2.19692
8.2128
0.211076
8.08189
8.09839
1.38461
8.14215
2.10835
8.32081
8.14503
0.623231
1.77696
0.459839
1.00105
2.25412
0.797987
8.14807
8.31995
1.19672
0.478803
0.785328
2.06157
8.20837
0.724111
8.19754
8.16332
1.20636
2.09734
8.11178
0.485927
8.30994
0.462582
0.434933
8.02817
8.17875
8.28527
1.19626
8.25383
8.25389
1.20375
0.463952
2.00977
0.122326
8.16184
8.31399
1.50004
1.21568
8.15359
1.20029
8.1282
1.19314
8.16835
8.15543
1.18362
8.21189
1.6912
1.10692
8.11325
8.17964
1.09539
7.18033
1.3469
8.31038
2.02439
8.3244
7.24855
7.08912
1.11984
7.56313
7.49948
1.02339
7.47746
5.50857
7.10045
8.10811
8.21424
2.16437
1.3438
8.27729
8.26873
1.31835
1.32741
8.11437
1.20879
8.18583
8.21523
1.52877
1.44917
0.111933
8.16452
8.27176
8.25661
8.20676
8.10109
8.10478
8.27052
8.115
8.12379
8.17976
8.25932
8.21556
8.22932
8.15862
8.12711
8.16102
8.15674
8.17929
8.21733
8.25926
8.35413
1.35221
8.24313
8.15933
8.33797
0.925189
8.36389
8.21462
4.58754
8.06046
7.98885
0.932744
8.45554
8.01269
4.96695
0.936902
8.22906
7.31216
7.67596
8.13362
1.86281
0.940655
0.944843
0.903704
0.574073
8.22395
8.13585
0.699945
0.73593
0.899626
8.19464
0.833377
1.80761
0.90086
0.156519
0.17609
0.906904
0.298202
0.896085
8.40836
1.02037
0.831646
1.26718
0.830934
8.28713
8.2641
8.31236
8.29629
8.28289
0.731421
0.844066
8.2837
8.1263
8.11457
8.17961
8.1418
8.22607
8.08003
8.21593
0.832733
2.17585
0.839803
1.39784
8.07291
8.04459
1.84029
2.20907
8.17601
8.20676
1.33482
8.41907
8.24668
0.849328
0.822054
0.830684
1.32158
1.826
8.23245
0.0190466
0.994801
7.41713
8.21671
0.980633
8.22201
8.09902
4.19262
3.37532
1.39142
8.14792
8.39232
2.07669
1.0126
0.0330699
0.735107
4.90397
8.29948
1.95251
8.38172
8.41176
8.00946
1.30847
8.13858
0.730805
0.0354592
0.969717
1.00486
8.35693
0.641367
8.37467
7.93702
8.35915
8.19264
0.242468
5.69744
8.2098
8.26981
8.46857
0.735036
7.38019
0.655127
0.731597
0.236273
0.733345
8.1825
8.15352
7.3198
1.29647
0.560805
1.76751
8.20955
8.31208
7.35668
1.85915
1.37542
8.20797
0.520786
4.26208
1.00857
0.553658
8.28435
7.22324
0.553383
0.73096
8.26702
1.6278
1.5724
1.38698
0.631329
0.575585
0.602465
7.41752
0.228198
0.597472
0.509403
8.25739
0.968791
7.48091
1.27387
0.620637
8.42795
0.162
0.58931
0.646826
0.771721
8.80075
3.98514
2.04122
5.54257
0.594135
7.96093
0.192893
0.590802
8.19129
8.21909
2.18224
2.20547
0.857061
8.75745
1.42081
2.21553
1.66015
2.08589
8.17602
8.42183
0.727483
8.47451
0.657147
2.17291
0.594555
0.19269
8.25686
1.72703
0.721869
8.20856
7.48111
0.466385
8.3639
0.468087
0.439744
8.31693
8.78198
1.02001
8.23119
8.16001
8.36277
0.193197
2.45697
1.30593
8.44463
1.26853
0.323247
8.08741
0.321408
0.345965
0.210032
2.20836
8.18592
0.647236
0.160467
0.342718
0.332885
0.216202
2.15242
1.1735
8.30982
-0.00163589
0.231608
8.28465
0.343285
8.33742
8.24926
8.38341
8.35831
8.26683
1.86899
8.30882
0.32284
1.51089
8.40571
1.46945
8.18115
0.233152
8.21073
2.12962
7.98523
1.22291
1.9423
2.22312
0.357101
0.231743
1.26436
0.20932
0.366384
4.42629
0.355516
0.80818
0.372237
8.40433
0.735463
2.21952
0.368269
1.1317
2.20234
8.3968
7.41517
8.19167
1.28176
8.26219
6.88766
0.230939
8.49283
1.57381
8.20268
8.36984
8.20861
0.802768
1.34421
0.389161
1.96418
0.196037
0.687775
0.660611
0.817257
0.261947
0.656812
0.678624
8.22566
8.27262
8.4224
1.01514
0.719861
8.09326
8.20786
6.97752
0.67073
0.271486
8.24913
0.678966
8.326
2.14097
1.28849
2.02294
8.28297
8.31516
0.803046
8.29489
1.6949
0.359579
7.91839
0.909152
1.13162
0.155132
8.19284
2.06625
7.56787
1.61283
1.30386
8.28821
8.39659
0.344531
6.51788
8.38355
0.448359
0.182858
8.30809
8.18474
7.52517
0.663106
6.96698
1.02234
1.85105
1.59938
8.31366
7.50759
1.81687
8.31666
8.26425
8.34838
8.26247
7.59221
8.03106
7.91832
8.20723
8.15321
7.81956
8.49498
7.96889
1.70162
7.97254
7.30883
7.04024
8.86726
7.4079
8.315
1.85303
7.77451
8.01625
1.89963
8.35932
8.62556
8.14872
1.85466
8.47725
1.85385
2.02023
1.60466
7.7123
8.24975
1.85604
2.12193
8.14443
8.39925
1.01429
7.64991
1.00887
7.5947
8.25996
8.07079
1.00633
0.998462
8.33644
1.45275
8.23805
7.76977
2.11614
0.5416
1.85243
8.33936
1.01143
7.65151
1.55403
8.18475
8.19716
8.15762
7.47657
0.537568
0.643527
8.36904
1.86973
8.21095
8.21703
8.20918
8.26605
1.74574
1.74046
0.657059
2.40922
8.39823
1.2884
1.0271
0.497066
1.74166
8.3705
0.52067
1.75313
0.905383
2.14442
0.960086
8.21778
1.20375
1.77202
1.01865
1.78249
1.85266
8.20603
1.87357
8.09211
8.32191
0.840003
8.37278
1.28964
8.34368
8.22019
7.99777
8.20027
8.38642
1.76305
8.19077
1.47727
7.73028
8.28394
1.2537
1.72004
0.686988
1.42652
8.39204
2.9511
8.37059
1.56532
8.22068
1.25187
1.74118
1.76984
1.58511
8.2349
8.24008
8.16769
0.561262
8.29217
8.20602
0.559051
8.07554
8.14032
1.77304
8.23416
0.976377
2.12391
7.69878
7.85523
7.80897
0.649138
1.08607
8.26224
0.0247008
1.5249
7.58624
1.79905
8.35322
0.569238
1.26958
0.504435
8.25209
1.33811
0.707266
1.85642
1.73398
1.47659
8.28978
8.30352
2.21312
8.21761
8.18363
8.33073
0.571363
1.808
0.745211
1.1097
7.48838
1.32863
1.01988
1.09308
1.27089
1.34053
1.65689
1.46802
8.20681
8.20259
8.20371
1.47825
8.28428
1.52418
6.32
1.46382
2.02129
0.570625
0.284815
8.14365
8.33722
1.46742
1.46131
8.32891
8.21947
8.41692
0.619703
1.46298
1.50596
1.52143
0.160824
1.02125
8.22083
8.37608
8.3107
0.146152
0.976375
0.0187817
1.117
0.645978
1.53461
8.13117
8.30988
7.09716
8.10783
0.171694
1.31982
8.29608
8.20734
8.2175
8.40399
8.39367
8.01739
1.579
8.24474
1.90804
2.33993
8.12591
1.55172
0.0584908
0.59725
8.38552
8.06443
1.57118
8.29344
1.57781
1.63835
0.655592
7.98584
6.72173
8.19046
8.2459
8.22096
7.93955
3.97423
8.19908
1.59537
0.747336
8.31382
8.30704
1.61467
8.22117
8.25107
0.89445
2.18563
8.19817
8.19563
8.0101
0.348418
8.29656
8.30073
3.2897
1.60932
1.61606
8.25514
8.12393
7.64033
1.61618
1.60309
1.61331
1.15333
8.16723
0.300975
0.0628436
0.0758612
8.29908
8.38284
8.31108
8.36547
8.29684
0.898583
0.914879
0.734194
8.41834
8.34988
8.2936
8.33541
8.08954
1.94929
0.177493
0.0367565
8.10306
8.28614
8.44491
1.75771
1.81862
2.08029
8.26076
1.0195
8.39606
8.16059
8.30125
0.892605
0.98815
8.21212
8.19376
1.20671
8.30386
0.655534
0.818266
4.42439
8.20634
8.11377
0.662287
1.9595
8.16243
4.2842
0.123139
1.31207
8.24601
8.21836
8.40731
8.3155
0.191467
0.464231
8.21989
1.96133
1.70634
2.58825
8.26309
8.22059
8.21368
8.22004
1.33673
8.48867
8.26649
8.08802
0.311942
1.49595
0.384199
8.13839
8.38834
1.704
7.9587
8.30494
8.22549
8.2453
0.946847
8.01749
8.13226
8.14544
0.383817
0.983714
8.21754
8.36419
8.18076
1.14605
8.32038
8.18416
8.18452
8.37201
8.35336
2.25577
1.32378
8.45619
1.05275
1.32258
0.922318
8.4155
8.39778
8.2848
8.37375
8.13796
1.25598
8.2629
7.75814
7.8264
1.70576
7.95812
1.69351
8.29847
8.28359
2.03802
2.6555
7.6192
1.71626
8.26122
1.71019
8.38306
8.20362
8.25048
9.01082
8.2105
1.9323
8.20791
1.1144
8.29974
7.53593
8.35897
8.2175
0.356543
1.59272
8.19985
4.37178
8.35423
1.69959
1.93255
1.57685
8.36292
2.13426
1.55957
1.94039
1.34552
2.01349
1.57408
8.02347
8.1525
1.94526
0.565155
1.57451
8.20288
7.96017
7.1315
4.81182
8.41591
8.11006
8.36747
8.40167
8.42573
8.4302
1.56678
2.03457
0.745819
7.45953
2.13796
8.3675
1.26703
8.31252
8.4239
8.24048
8.01125
2.01432
8.01909
8.35462
8.26019
1.08941
8.26871
8.33675
2.01304
8.18827
6.59787
6.01248
5.77549
8.40475
5.93284
5.81319
5.90023
6.39407
8.15945
8.15953
1.07722
1.63127
7.5551
7.58743
8.1741
1.08799
8.36578
8.12075
1.99937
8.22852
8.29102
1.72722
2.03341
8.39518
8.12277
2.19414
7.51287
8.0778
2.15681
1.16958
1.15872
8.10947
1.16642
8.38518
0.724548
2.10784
1.15488
8.26936
2.11333
1.16133
8.20563
1.67546
8.18371
1.09342
7.8799
1.08585
8.11169
1.92832
8.19783
8.03626
8.29758
1.36053
1.36825
8.39489
1.18714
1.96731
8.45987
8.26605
0.887788
0.050551
2.29063
8.41241
1.22122
1.20379
2.02343
1.81218
8.42437
2.26171
8.15152
2.19291
8.31301
1.19331
0.995757
8.1776
0.760835
8.11125
2.00502
8.20114
8.18102
8.21663
8.32765
8.20345
8.29987
1.63019
0.915103
2.17809
8.20855
7.00428
2.17893
8.21626
8.39496
8.19936
8.40381
8.21539
0.046365
8.26895
8.37916
8.15018
0.0409464
8.1897
8.21465
7.89528
0.193731
8.23926
0.179381
1.86145
1.57096
0.192042
0.172538
8.38864
8.21441
8.2766
0.217653
0.39089
8.0118
6.98227
0.198224
8.33261
8.38664
2.1815
8.18172
1.19754
8.20679
0.179354
1.99363
8.21496
8.15615
8.21046
8.37004
8.32947
2.02047
8.20981
0.199664
8.22128
8.25112
0.439783
8.29843
1.26855
8.07603
8.33582
1.64674
0.764683
2.21344
8.36833
8.37276
8.28134
0.762365
2.15003
8.21948
8.21478
7.97534
0.473817
8.20358
1.28156
2.19974
8.24584
8.22125
0.482084
8.30616
7.96813
8.23931
8.20115
8.26893
2.18731
6.91428
8.10137
8.35484
7.0357
8.22385
7.19647
8.16206
8.1953
8.121
0.76131
8.16276
0.464079
8.1239
8.21299
2.37301
0.470858
8.20017
8.1856
8.21973
0.466421
7.37927
8.2648
8.0563
8.21551
0.517863
8.20126
2.19903
8.41741
1.53437
7.52809
1.83604
8.18843
8.32626
1.46664
7.257
8.20982
0.387729
1.50391
8.4125
8.368
1.63778
1.8611
0.475664
0.465086
0.470387
1.65047
0.47111
1.90371
8.21507
2.19289
7.04068
6.96105
8.25672
8.16267
8.32149
0.465308
8.40731
8.41961
8.39982
2.0934
1.8873
6.81596
1.71278
8.37975
1.76498
8.07056
2.04361
0.523585
7.09161
1.51303
8.16733
8.16729
8.20237
0.526694
1.54192
8.27979
8.25524
0.524907
8.36745
2.26381
8.34371
2.1671
8.30356
8.20168
8.37894
8.19814
0.417955
8.19774
2.65911
8.29972
1.58733
8.25661
8.22634
5.64806
5.42037
8.23213
8.23282
8.3109
8.38178
1.50584
2.24896
6.29147
8.36107
1.54372
8.17213
8.28896
2.11241
1.1752
2.1149
8.20613
0.289997
1.63112
0.8063
1.24711
8.31663
8.42484
8.42799
8.37528
8.21049
8.19865
8.1989
8.15214
8.20611
8.19891
8.29615
8.19336
2.15275
8.20209
8.21868
8.72426
8.37487
8.25874
4.43901
8.16772
8.2355
1.24187
2.23565
8.16596
8.40272
8.29272
1.09348
8.36895
8.30213
2.21179
8.24886
8.20991
8.32855
8.35613
2.03091
8.23148
2.2637
8.35896
8.32158
8.23905
8.26071
8.22489
2.21995
2.21178
0.612122
8.37811
8.07254
8.41254
2.22531
8.20673
2.20867
2.24983
8.24253
8.18437
6.81335
2.09723
8.17506
7.59684
2.10343
6.87849
1.68481
8.3107
1.93074
6.85224
6.47961
8.29749
1.48687
8.25421
1.49462
2.03199
8.19751
1.50845
2.14493
8.30469
2.03736
8.13912
8.18608
8.21009
8.17787
8.1444
8.18686
8.20625
8.40401
2.20236
7.66255
8.2709
8.32714
8.19469
8.18469
1.10169
5.38228
2.24369
2.24975
8.20992
1.42649
1.42591
8.28174
7.58595
8.16198
8.1617
8.18866
8.22485
7.1707
7.69275
1.75989
8.24824
8.4121
6.83417
7.21738
8.21559
1.4788
8.15629
8.11304
8.37028
2.127
8.402
8.17049
1.66366
8.23559
8.32537
8.13537
8.45383
1.67394
8.25382
8.24324
8.22721
8.19188
1.77267
2.13639
2.13715
1.48527
1.87119
1.87258
8.25658
7.25606
2.27775
1.82896
7.25001
2.2766
8.35557
1.65595
8.10967
2.12944
8.27401
8.11894
1.88013
1.42153
8.19512
1.82571
8.26845
8.31917
2.12738
2.04576
8.37601
8.18676
8.20638
8.20737
8.22285
7.38484
8.37888
8.31507
1.81624
8.38165
8.29824
8.25897
1.88979
8.21769
7.41417
8.22571
8.19457
7.81213
7.51784
1.88882
8.10663
7.53258
1.11484
8.36512
1.81749
1.81045
8.22511
1.14329
8.30547
7.93294
8.38679
7.43998
8.30471
8.39767
8.42269
8.41682
1.14141
8.38942
8.33917
8.38725
8.12286
8.26665
8.15459
2.15231
8.29857
8.36375
2.03203
8.28117
8.2152
8.35968
1.14158
8.24656
2.07179
7.36916
2.15029
0.143368
8.20395
7.25416
1.10773
7.05804
8.20281
2.21381
2.11437
0.00600561
1.96343
2.24472
1.59499
8.33491
8.09459
1.39537
2.17197
2.11466
1.35241
2.16483
8.29099
0.258883
1.38082
1.38315
8.36345
1.37978
0.222495
0.801984
1.31225
2.15551
1.43846
0.322142
1.28064
0.0478176
0.601208
1.32024
7.42542
0.0997626
0.0124728
1.48611
1.72218
0.0861094
1.3167
0.0628012
7.5388
2.20417
7.49945
0.722525
1.39531
1.73861
1.04754
7.49528
8.20994
1.28961
1.0599
2.16525
2.13864
0.374546
1.39028
5.93304
1.39873
8.29837
2.44056
2.18271
1.96132
0.810139
2.18015
2.19575
1.59866
0.985703
0.981525
0.736271
1.39778
0.14462
6.91357
6.32183
1.40464
8.2217
8.2964
1.32827
1.35684
0.122322
8.23348
1.97487
2.0428
0.970468
6.47764
8.29754
2.13578
0.0351637
2.18483
8.42537
0.365464
8.33035
1.03924
1.58094
1.90166
1.92187
8.22769
8.30618
2.08427
1.35659
1.36831
8.30326
1.08749
1.35167
1.72039
8.24878
0.984226
0.0963944
7.48614
0.806433
1.44731
2.08685
8.06319
2.01809
2.33988
8.30436
1.67597
0.163905
3.52409
1.69064
1.70732
0.321692
1.49728
1.7009
0.124288
2.1195
2.10763
1.61121
0.288671
1.4254
2.21251
1.05529
1.70113
0.608002
1.33152
2.22264
0.334055
8.31631
1.70196
1.69138
2.1407
0.440628
1.95494
8.10613
1.69961
0.805239
8.31944
1.96569
0.0278847
1.70162
1.6331
0.213223
0.00392384
1.4746
1.64138
2.00526
8.32046
8.29349
2.0174
8.33257
2.02474
1.99818
8.02717
0.216673
1.73304
1.06394
8.38691
0.806651
0.912246
1.97718
2.17139
0.899932
0.400403
1.10204
1.83771
8.29645
8.18391
2.14887
1.82127
1.96079
1.16246
8.18366
1.83061
1.59643
8.02457
1.09051
1.40511
0.0443334
2.25108
1.88612
1.57161
0.355368
1.22127
8.33624
1.70749
0.864696
1.62056
2.25049
8.18578
1.9082
8.25551
8.27838
0.924709
1.57653
1.00026
2.53667
2.0186
3.5022
8.22313
1.57106
1.60842
1.07185
1.02023
8.21177
8.36313
8.35082
1.02353
1.025
2.236
0.797777
7.96393
8.19271
1.01565
1.13883
1.93696
1.0242
1.01704
1.2334
1.86179
5.58171
8.15927
1.55036
0.127454
8.19064
1.4488
1.21352
2.37232
1.55339
1.20959
2.0116
8.19163
1.05531
1.26049
8.32447
7.97887
0.0876037
0.161915
0.434517
0.19201
1.22294
1.23339
0.320638
0.801323
1.1374
0.184443
8.18178
8.17039
0.0115361
0.216341
1.20825
2.27809
1.18588
1.14014
1.60931
1.0023
1.18012
8.18531
8.32962
2.2523
8.17561
7.39023
1.2781
0.815353
1.2384
2.21934
7.69291
1.90383
2.29314
7.79694
2.28496
2.21967
1.18008
1.18761
0.0921682
1.37066
2.15216
0.209002
8.285
7.75577
2.09086
0.398396
1.01003
0.409346
1.95052
1.803
2.14785
7.77647
1.25896
0.307384
1.09087
2.27053
1.89517
2.10305
2.22073
1.25069
0.300641
7.69653
1.75349
1.21179
4.49048
7.42871
7.029
1.10143
7.31575
0.0687243
1.08788
1.01856
1.3679
2.035
6.0983
4.66068
8.32868
7.29182
2.01252
8.20166
8.20178
1.58083
8.2882
0.802692
1.05995
0.971757
0.749661
0.79438
1.39421
7.02041
0.39009
0.181132
1.79298
1.32529
0.753901
1.24603
8.21485
2.22591
0.737369
1.57461
8.20368
1.66333
1.29246
8.2007
8.20759
1.95676
0.71985
8.36585
1.46604
1.31899
1.96547
8.35795
8.19764
0.130396
2.19929
1.38531
8.2076
8.29902
8.20061
1.58773
4.30287
4.12238
0.499212
2.11415
8.41915
0.510968
2.12659
1.12739
0.143296
0.129321
0.546671
2.11941
0.15265
8.39333
0.562388
0.312285
0.0549319
0.907387
0.226329
0.223986
0.228488
0.240376
0.0709258
2.03852
2.18196
1.23852
1.9881
2.17368
2.11796
0.2333
2.18455
0.242286
0.063059
0.664932
0.41995
1.97685
0.412311
2.19949
0.471691
7.9223
1.25999
5.2153
0.937093
1.38786
8.32547
1.70203
7.92522
1.45232
7.94793
8.16906
0.995369
1.7374
7.45847
0.392317
1.02852
1.73153
8.19443
8.37067
2.04946
0.562581
2.209
0.92975
0.326265
1.69058
2.14275
1.62164
1.7067
7.12378
1.24891
8.22128
8.1897
0.71143
0.518453
2.22775
0.682211
0.45978
1.7112
1.76526
8.09503
2.14109
0.441185
1.68626
8.09932
8.40089
1.25221
1.45699
6.87175
1.96506
0.0580583
1.49967
0.0253916
0.379461
0.941385
8.20944
5.75402
0.756772
2.1011
8.40591
0.715233
1.96539
1.56424
2.38165
0.752751
2.35228
1.25139
2.04472
6.01089
2.08466
8.2523
1.4419
1.72837
0.360899
0.0252729
7.27085
0.0353743
2.1008
1.64491
2.0231
7.81613
8.19872
0.794754
2.07704
1.64855
1.42621
1.95313
0.57197
0.122804
1.08222
0.148348
0.0974918
1.97095
7.59816
2.2194
1.62014
0.0111267
1.92528
7.73464
8.14816
0.813422
2.2005
8.40348
2.19058
1.79631
7.76347
6.12851
6.36731
1.75714
0.738132
2.56458
6.65041
1.94794
0.840814
7.94086
0.338542
7.40048
1.56253
0.581279
8.30234
0.143647
1.94564
1.94093
0.518101
8.17383
2.18877
1.85054
2.04587
1.94643
2.02303
2.05976
1.77626
2.27072
1.8281
0.305754
0.749261
8.19404
7.1775
7.16191
8.03273
1.66632
0.870595
0.767217
1.92335
0.447902
0.773742
1.49539
1.73962
1.671
0.562353
1.79344
1.9129
1.5852
0.419937
8.26273
1.92259
1.90934
1.70246
1.80928
7.94346
1.01517
1.03371
1.42607
1.41924
1.13859
8.09755
1.13741
1.13333
7.39708
1.16066
1.60957
8.03234
1.13842
8.0181
8.35922
1.01042
1.7205
1.61972
1.12821
8.14183
0.198943
1.78497
8.35998
0.928552
1.1786
0.968837
1.65036
8.04521
1.74306
1.73744
1.54302
8.09479
0.82266
0.321736
1.56927
0.705681
0.876459
8.40141
7.94073
7.62598
0.0757624
7.72719
0.797827
0.66313
0.227344
8.20331
0.251495
8.05723
8.26394
8.16586
0.981357
0.0137521
2.22107
1.56989
0.862208
7.86083
7.40022
1.95469
1.92079
0.665704
2.14321
0.859656
2.11659
8.26
6.57683
6.67351
8.17983
6.72215
0.0436128
8.29332
0.80368
1.48178
0.862605
0.174164
1.02005
7.088
0.6716
1.48565
1.7275
2.02703
7.12073
8.24789
1.77944
0.67637
2.23055
2.0629
2.15722
2.20892
2.19572
2.23568
0.529084
0.120887
0.527246
1.84251
0.505825
1.4953
1.60301
0.351019
0.507636
2.14576
2.02327
2.05574
1.73374
1.51625
0.357423
2.03785
8.35422
1.65835
0.988358
0.205276
0.127868
0.0412118
1.49897
1.14493
0.851537
0.13603
2.21204
8.23119
0.80417
1.07562
1.2241
8.21107
0.911135
0.511398
0.141536
1.12099
8.41431
8.21287
1.62225
0.332181
0.308528
0.0678493
8.1149
8.32201
8.26255
1.22754
1.47605
0.296936
8.31901
0.815927
8.2119
8.21987
0.142735
0.101947
8.11111
0.300393
0.3076
0.0399946
8.35071
8.36427
0.535724
1.49692
8.21715
0.265307
0.274364
0.199164
8.24647
8.24933
8.23039
0.197549
0.264372
1.9508
0.270245
8.33285
0.229316
1.40269
1.96622
1.80819
8.00003
8.24251
0.254673
2.06457
2.01232
1.04354
8.00224
2.22247
8.21815
0.365588
2.17161
1.41699
8.04436
7.59077
2.08386
2.17066
7.4846
7.51859
8.22676
0.949981
7.9004
7.26604
1.47177
1.44429
8.22477
7.39969
1.26268
0.264445
0.254836
0.974549
0.820607
7.48704
1.50116
7.06206
6.9435
8.16087
1.02325
1.66249
0.252773
6.97441
8.54577
1.45134
2.1613
1.53876
1.67816
1.31747
1.16026
1.31507
0.280393
6.8874
1.41505
1.04506
0.275746
0.963564
1.65643
5.62719
0.943806
0.944186
0.942781
0.942434
0.335091
6.73941
7.68488
1.09534
7.72148
7.78622
1.31394
7.73638
0.799527
7.61274
7.67769
8.07872
7.45242
1.0484
0.354423
1.05691
7.58839
0.517197
0.998943
1.38809
7.67891
8.31632
1.05745
1.11392
2.2139
1.05808
7.43888
0.0147149
0.259727
0.192496
8.14356
8.10978
0.627751
0.531906
8.13384
7.70313
1.90576
0.015672
7.58123
2.08734
1.89408
1.90255
1.15682
7.64377
1.31192
3.18384
0.137796
0.0911013
1.92183
1.88371
1.75759
0.744484
1.34775
7.51071
1.5004
1.34364
2.18575
2.04568
1.90118
7.65784
0.922443
1.37305
0.78085
1.15885
1.3558
2.14137
0.183599
1.99569
1.7791
1.91617
0.559474
1.92284
2.01954
1.33393
1.63309
8.2178
2.09248
8.42199
1.32494
1.38097
1.92086
2.00517
1.88241
1.33999
1.34862
2.10527
1.04779
0.365861
8.12021
6.7012
2.00536
2.01108
1.58751
2.02432
2.20331
2.06816
2.206
2.26234
6.89071
0.350353
2.28107
1.16647
7.04438
0.0333338
6.69878
1.02604
1.33893
2.17183
0.934831
8.35647
1.30165
2.16493
-0.0474183
8.20712
2.18862
0.310663
1.75119
2.17924
2.19288
6.76988
8.1941
0.953814
1.41585
0.754569
1.4142
1.27513
1.42735
2.24063
7.26297
0.0828342
7.08594
1.44845
0.346877
1.52086
8.35199
6.35639
2.06827
1.43436
1.03965
1.53338
8.20228
1.52773
1.53996
0.0899424
1.53734
4.47086
3.3865
1.54662
8.25841
8.15396
0.925539
4.40241
2.04242
8.36906
0.699502
8.15282
1.77381
8.31607
0.442477
1.99049
2.134
1.52835
1.60802
1.38313
1.89131
2.20985
0.138284
2.15704
0.869055
2.1402
7.92826
0.510144
8.13171
1.6156
1.6332
1.28899
1.14561
1.60036
0.126287
1.01848
1.58015
1.56072
2.19475
1.86597
2.09046
8.26245
1.58283
0.374199
1.85023
0.347315
1.59288
1.81081
0.512991
2.18871
1.42734
1.89363
1.44325
0.88387
1.6225
1.31277
8.1518
8.14307
1.37283
1.40928
1.76174
8.23094
1.63727
0.122163
1.34902
1.02153
0.64793
1.07638
0.914765
1.41523
0.00968802
0.813638
1.85552
0.685979
1.22106
1.09852
1.00294
1.8603
1.60302
0.678881
2.27176
1.50138
2.08317
0.594597
1.68566
1.91158
0.77315
0.125051
1.07063
1.40483
0.626348
0.509062
8.09375
1.66231
2.02774
2.08441
4.333
1.66614
7.0818
0.932802
1.6518
0.246973
1.7755
8.18004
1.6192
1.84785
-0.0903399
1.69547
1.78114
1.84883
8.20039
1.11041
0.1825
1.80103
2.21401
2.01021
8.08589
8.21232
2.9649
7.68224
1.85021
8.22333
2.23656
2.95795
7.67182
7.71604
0.158025
7.81356
8.29467
1.85326
1.06799
8.40004
1.27736
0.96335
1.32224