/*--------------------------------*- C++ -*----------------------------------*\
  =========                 |
  \\      /  F ield         | OpenFOAM: The Open Source CFD Toolbox
   \\    /   O peration     | Website:  https://openfoam.org
    \\  /    A nd           | Version:  10
     \\/     M anipulation  |
\*---------------------------------------------------------------------------*/
FoamFile
{
    format      ascii;
    class       surfaceScalarField;
    location    "6";
    object      phi;
}
// * * * * * * * * * * * * * * * * * * * * * * * * * * * * * * * * * * * * * //

dimensions      [0 3 -1 0 0 0 0];

internalField   nonuniform List<scalar> 
214403
(
-0.00292649
0.00224356
0.000124314
0.000558613
-0.00141023
-0.00476439
0.00038956
0.00578507
-0.00436495
2.42843e-05
-5.79483e-05
0.00439862
0.0038488
-0.00258631
-0.00645187
0.00518937
0.005232
-0.00660885
0.00156765
-0.000190807
-0.00227628
0.00237094
-2.29775e-05
-7.16817e-05
-0.000365616
-0.000695335
-0.00391871
0.00497966
-0.00723238
0.00412405
-0.00108553
0.00419386
-0.00994426
0.00701701
0.0070821
-0.00415485
0.00603986
0.00071675
-0.0067667
1.00891e-05
0.00215237
-0.00425597
0.000881944
0.00122166
-0.00439952
0.00137439
0.00228924
0.000735889
0.000197997
-0.00488101
0.00589293
-0.00120992
-0.00424938
0.00426237
-1.29913e-05
0.000822244
0.00508157
-0.00651872
0.000614912
-0.00511228
0.00427094
0.00128607
-0.000444722
-0.00520261
0.00506164
0.000140977
0.0016996
-2.52658e-05
-0.000393263
-0.00128107
0.00665909
-0.00397938
-0.00885937
0.00617965
-3.31082e-05
-0.00135495
3.92408e-05
0.00134881
0.00279153
-0.00272496
-6.65724e-05
-0.00521628
-0.00180435
0.00179418
0.00522646
-0.00097597
0.00580167
-0.00467258
-0.000153115
0.0028655
0.000294709
0.00099391
-0.00415412
-0.0044025
-0.00212041
0.00569113
0.00083179
0.00399361
-0.00505721
3.11976e-05
0.0010324
0.00136794
-0.00119035
0.00450218
-0.00467976
0.00330261
0.00431143
-0.00519699
-0.00241705
0.00475676
-0.00298021
-0.000135725
-0.00164083
-0.00255133
0.00260187
-5.05442e-05
0.00104146
-0.00217181
0.00580666
-0.00467631
0.00598514
0.000285527
-0.00103296
-0.00523771
-0.00244982
-0.00251502
0.00257582
0.00238901
-0.000507427
-0.00286049
0.00253279
0.00083513
0.00187879
-0.00125146
-0.00400469
0.00337735
-0.000723776
0.00361168
-0.00130488
-0.00158303
0.00687296
-0.000173102
-0.00669985
-0.00292508
0.00572361
-0.00279854
0.00052407
-0.00629338
0.00365136
0.00211795
0.00104493
-0.000420531
0.00256295
-0.00318734
0.00241595
-2.20703e-05
-0.00239388
0.00436689
-9.64429e-05
0.000776025
-0.00504647
-0.00554084
0.000690565
0.00589521
0.00038062
0.000377396
0.00369456
-0.00445257
-0.00176701
-0.0115273
0.011178
0.00211633
0.0024832
0.000448017
0.000560788
-0.003492
0.00180339
0.00136672
-0.0044151
0.00124498
0.00568696
0.00340001
-0.00622146
0.000513742
0.00483417
-0.000981027
0.00079443
-0.00295966
-0.00174852
0.00391375
0.00135311
0.00207907
0.000614838
-0.00404701
0.000786912
-0.000591196
-0.00181207
0.00161635
0.00299062
-0.00540898
0.00377147
0.00508191
-0.00478744
-0.00163418
0.00133971
0.00463077
-0.000845725
-0.00364866
0.0049447
-0.000203287
-0.00109275
0.00375902
-0.00481396
5.92943e-05
0.000995643
-0.00350728
0.000232989
0.00560394
-0.00232966
-0.00655222
-0.00618522
0.00517926
0.00755819
-0.00348991
0.0035096
0.000688866
-0.000708552
0.000546159
-0.0044566
-0.00372416
-7.71749e-05
0.00193516
0.00186618
-0.00576849
0.0024711
0.0037272
-0.000429815
0.00673489
-0.00542093
0.000334912
-0.00164886
0.000307553
0.000114625
-0.00439658
0.0039744
0.000235652
-0.0012454
0.00614099
-0.00513124
-0.0150368
0.00160378
0.00168644
0.0117465
-0.00135708
0.00402237
-0.00127635
-0.00138893
0.00201163
-0.00104982
-0.00429248
0.00333066
0.000486477
0.00307566
-0.00389992
0.000337791
-6.95855e-05
0.00364738
0.00126022
-0.00483801
-0.000725465
-0.000118143
-0.0015296
0.00237321
-0.00392258
0.00428346
-0.00016081
-0.000200075
0.000142264
-0.00389912
-0.00276512
0.00244971
0.000742972
-0.000427562
-0.00718087
-0.000455483
0.00349503
0.00414132
-0.00216505
-0.000922049
0.00184098
0.00124612
0.00320555
-0.0107529
0.00148475
0.00606264
-0.0016633
0.00334632
-0.00182807
0.000145048
0.00239471
-0.00186158
0.000236351
-0.000769484
6.03967e-05
-0.004549
0.0044886
1.70789e-05
0.00368713
-0.00370421
0.00321951
-0.000630302
0.000425157
-0.00301437
-0.0019757
0.00281852
0.000934994
-0.00177782
-0.00136971
0.00585567
-0.00140998
-0.00307599
0.00279011
-0.00477442
-0.00017
0.0021543
0.0031522
0.00332103
-0.00647323
0.00465146
-0.00523085
0.00134524
-0.000765845
0.000447932
-0.000841223
0.00609336
-0.00570007
0.000181833
-0.000975056
0.00435889
-0.00356567
0.00105451
0.00916076
0.00262287
-0.0128381
-0.00796817
0.00700031
0.00455345
-0.00358559
0.000365174
0.00284099
-0.00381172
0.000605559
0.00380294
0.00420668
-0.00136762
-0.006642
0.00692288
-0.00421155
-0.000126677
-0.00258466
0.000308356
-0.000903629
-0.002837
0.00343227
-0.00287487
1.61976e-05
0.00285867
0.00421891
0.00014412
0.000288431
0.00527178
0.000444481
-0.00802205
0.00230578
-0.00423597
0.000926021
0.000750368
0.00255958
-0.00270952
0.000672044
0.000332794
0.00170469
0.000644428
0.000467271
-0.00552384
0.00441215
-0.00112657
-0.00655168
0.00417705
0.0035012
0.00264938
-0.00313834
-0.00204257
0.00253152
0.00427899
-3.4827e-05
-0.0042765
3.23343e-05
0.00325363
-0.00458691
-0.00159067
0.00292395
0.00840403
-0.00254406
-0.00130873
-0.00455123
0.0047838
-9.62001e-06
-0.00438804
-0.000386139
-0.00247233
0.00290162
0.00603067
-0.00645996
0.00522777
-0.00182268
-0.00503327
0.00162818
0.00097091
-0.00143137
0.00618712
-0.00572666
-0.0068633
0.00624959
0.00593116
-0.00531745
0.000313321
-0.00538645
0.00207358
0.00299955
0.00677959
-0.000353304
-0.000148848
-0.00627744
0.00479995
-0.000933716
0.000926969
-0.0047932
-0.00569231
-0.00519308
0.00614177
0.00474363
-0.00105574
0.00302962
0.00082217
-0.00279606
-0.00231816
0.000126394
0.00449393
-0.00230216
-0.000515173
0.00587975
-0.0054645
9.99277e-05
-0.00515408
0.00478566
0.000931577
-0.000563154
-0.000170386
-0.00300425
0.00716824
0.000932988
-0.00309648
-0.00226817
0.00443166
-0.00245953
3.19087e-05
0.00242762
0.000752327
0.00342179
-0.00316526
-0.00100886
0.00554242
-0.00319488
-0.000852663
-0.00149488
5.02971e-05
-0.00167656
0.00162626
-0.00308741
-0.000833843
0.00116229
0.00275896
0.000333052
0.00183698
-0.00410486
0.00193482
0.00685978
-0.000619805
0.00268029
-0.00892027
0.000480621
-0.000622232
-0.00816515
0.00830676
0.000526675
-0.00234878
-0.00309958
0.00492169
0.000194592
0.00425633
-0.000232018
1.66471e-05
-0.00254747
0.00253082
0.00515426
-0.00191367
-0.0023076
-0.00312303
0.00260683
-0.00257121
0.00569116
-0.00473925
-0.000580269
-0.000371641
0.00056732
-0.00268136
0.00117253
0.000941507
-0.00463302
-0.00141138
0.000947606
0.00509679
0.00388648
-0.00628975
0.00416617
-0.0017629
-0.000164314
0.00570672
-0.00571239
0.000169988
-9.01777e-06
0.00536839
-0.00532023
-3.91367e-05
-0.00724095
0.00578066
-0.00463676
0.00609705
0.00603772
-0.00584915
-0.000188567
-0.00558875
0.00747147
-0.00135222
-0.000530492
-0.00497558
0.00120456
-0.000380784
0.0041518
-0.00813148
0.000615718
0.00523454
0.00228122
0.00143497
-0.00196053
0.00109288
-0.00203438
0.00231225
0.00372192
-0.0039998
-0.00215036
-0.000965158
0.00123021
0.00188531
-0.00293728
0.00192111
-0.00369808
0.00471424
0.00087879
7.71495e-05
-0.00654469
-0.00295671
0.00294889
7.82154e-06
0.00322973
-0.00311065
-0.000119087
-0.00480612
-0.000313308
-0.00126889
0.00117647
-0.00632237
0.00734745
-0.00220155
0.00283238
0.00485598
-0.00618275
-0.00150561
0.00539214
-0.0058629
0.000166269
0.000304493
0.00295546
0.000758079
-0.00304614
-0.000667405
-0.00457518
-0.00024847
0.00600012
0.00267336
-0.00019321
-0.00325853
0.000778388
0.0030089
-0.00257504
0.00296665
-0.00340051
-0.00513348
0.000974789
0.00699107
-0.0017532
-0.00242563
0.0080487
-0.00386987
-0.0024844
-0.00274437
0.000653585
0.000731
0.0019785
-0.0051939
-0.00356227
-0.000303803
0.00572589
-0.00185981
0.000547327
0.000887997
0.00313832
-0.00457364
-0.00166045
0.0040639
-0.00240345
0.00130689
-0.00637271
0.00232146
0.0037897
0.00265203
-0.00571073
-0.00531463
6.51023e-05
0.00662108
-0.00137155
0.000923866
0.000790889
0.00247451
-0.00418927
0.00375635
-0.00377607
1.97168e-05
0.00134491
-0.000508018
0.00451304
-0.00534993
0.00472766
-0.00149129
0.00226598
-0.00550235
0.00888725
-0.00287567
0.0066181
-0.0126297
0.00142246
0.00264785
-0.00110054
-0.00296976
-0.0040346
0.00165864
0.00211535
0.000260605
0.00290899
-0.00219234
-6.04594e-05
-0.000656186
-0.00182629
-0.00231067
0.00673517
-0.00259821
-0.00324015
0.00421357
0.00167622
-0.00264963
0.00488343
-0.000266121
-0.00160841
-0.00744179
0.00491839
-0.000413883
-0.00708465
0.0065402
0.00304443
-0.00249998
0.00452364
-0.00509563
-0.000732437
0.00130442
0.0025409
-0.00461213
-0.00240222
-0.00264713
-0.00242984
0.00137368
0.00370329
-0.0037757
0.00117776
0.00373484
-0.00113691
0.00442629
-0.00421331
-0.00290528
0.0026923
2.72916e-05
-3.82405e-05
-0.0041642
0.00417515
0.000106507
-0.00365701
-0.000135827
0.00368633
-0.0010504
-0.00622436
0.000980559
-0.0036098
0.00324746
-0.000618218
-0.0024124
-0.00101538
-0.000347918
-6.41081e-05
0.00603316
7.08042e-05
-0.0144568
0.0101726
0.00736334
-0.00307916
-0.00432032
0.00029621
0.000148014
0.0038761
-0.000853042
0.013522
-0.0159257
0.00325679
0.000687091
0.00105936
-0.00237834
0.000631898
-0.00922763
0.00496742
0.0006492
0.00361101
-0.000104154
-0.00608047
-0.000876492
0.00706112
-0.00247223
0.00914954
-0.00633417
-0.000343152
0.00411684
0.00597371
-0.00552796
-0.00456259
-0.00488464
0.00466682
0.00577534
-0.00555752
0.00193467
0.00270331
-0.00336731
-0.00127066
0.00189687
-0.00127324
-0.00303603
-0.00972938
-0.000387052
0.00793932
0.00217711
0.00290151
0.000450176
-0.00169304
0.00294632
0.0039524
-0.00364589
-0.00325282
-0.00486812
0.00108696
0.0047439
-0.000962747
0.000568831
0.0015477
0.00535493
-0.00566342
0.00558015
0.000539774
-0.000456506
0.00354208
0.00278684
-0.00251225
-9.87652e-05
-0.000707825
0.00331884
-0.00373106
-0.000754594
0.0020826
-0.00715052
0.00304044
0.00202748
0.000211646
0.00387906
-0.00429419
0.00020349
-0.00147939
0.00028627
-0.00137513
0.00256825
0.00600914
-0.00429829
0.000186013
-0.00340361
-0.00266473
0.00358468
0.00248366
0.0128163
-0.0137266
0.00450652
-0.00359623
-0.00251164
0.00312055
0.00125684
-0.00186576
-0.00583939
0.00251897
0.00507524
-0.00175482
-0.00245656
0.00356272
0.00458238
-0.00568854
0.00682748
-0.00262499
-0.00451643
0.000313946
0.000117529
-0.00164961
0.00401269
-0.0024806
-0.000697639
0.000689461
-0.00530645
0.00494258
0.00159417
-0.00529407
-0.00124269
0.00621528
-0.0051012
-0.00136254
0.00128639
0.00189316
-0.00449832
0.00131877
-0.00260213
-0.00472829
0.00422238
0.00310805
-0.000777378
-0.00201885
-0.000607383
0.00251824
-0.00268091
0.00576986
-0.00560719
0.000615219
-0.00703461
0.00641939
0.00237277
-0.00311404
0.00202767
0.00132771
0.000770371
0.0010882
-0.00318629
-0.000132948
-0.00589803
0.00603098
-0.00325867
0.000432254
-0.0010576
0.00388401
-0.000398659
0.00451027
-0.00409813
-1.34786e-05
-0.00302235
-0.00161068
0.00175347
0.00287957
-0.00111994
-0.00267979
-0.00247724
-0.00364392
0.0030372
0.00308396
0.000138003
-0.00373518
0.00637993
-0.0026222
-0.000339676
-0.00341806
0.0034892
-0.000345245
-0.0025433
-0.00060066
-0.000543762
0.00478539
-0.00597483
0.0017332
0.00307605
0.000117811
0.00149757
-0.00469143
-0.000112375
-0.00252652
0.00122045
0.00141845
-0.00177946
0.00231234
0.00444715
-0.00498002
-0.00624808
-0.0016088
-0.00173683
0.00571839
-0.00553248
0.000144362
0.00172096
0.00366716
0.000520032
-0.00190498
-0.00336386
0.00474881
-0.0024981
-0.00487703
0.00123063
0.0061445
-0.00222986
-0.00247108
0.00257372
0.00212723
-0.00581419
0.00559508
0.00591456
-0.00569545
-0.000796077
-0.00139166
-0.00420134
0.00638907
-0.00575269
0.00057091
0.00585536
-0.000673585
-0.00101577
0.00267769
-0.00166192
-0.00233089
0.0043066
-0.00324271
0.00126699
-9.39701e-05
0.00757008
-0.00282566
-0.00465045
-0.00273481
-0.00133167
0.00548118
-0.0014147
0.00087152
-0.00228949
0.00518251
-0.00376454
0.000243804
0.00345498
-0.000605248
-8.58218e-06
-0.00554087
0.00553674
1.27204e-05
0.0064562
-0.00114434
-0.00943756
0.00412571
-0.00596633
-0.000583163
0.00744691
-0.000897423
-0.00324066
0.00489627
0.00040163
-0.00205723
0.00291129
-0.00288466
-2.66276e-05
-0.00339201
0.000333411
-0.00291155
0.00597015
-0.0048928
0.00674132
-0.00138936
-0.000459162
0.00304279
-0.00127138
-0.00367098
0.00189957
-0.00590318
0.00594489
-4.17076e-05
0.00484956
-0.00704272
0.000562757
0.0016304
-0.00547566
-0.00150085
0.00937468
-0.00239817
0.00407533
-0.000178025
-0.000851484
-0.00304582
-0.00230233
-0.00390843
0.008729
-0.000406442
-0.00574883
0.00347436
0.0090079
-0.0100446
-0.000959906
0.00199659
0.00248755
0.00118506
-0.00274875
-0.00265083
0.00275933
-0.000108504
-0.0010299
0.0057701
-0.000373844
-0.00436635
-0.00126623
0.00150291
0.00506448
-0.00530116
0.00332702
0.00783228
-0.00455215
-0.00660716
0.00576576
-0.00691552
0.00219896
-0.0010492
0.00514157
6.36425e-05
-0.00520521
8.95018e-05
0.00501476
-0.00510427
0.00563669
-0.00681953
0.0060324
5.15202e-05
-4.3832e-05
0.00454099
-0.00454867
9.82594e-05
0.00805562
-0.00803444
-0.000119443
-0.000676036
-0.00201104
-0.00408914
0.00677621
-0.00251027
-0.00148967
0.000501128
0.00477562
-0.0082926
0.00301586
-0.00396558
-0.00103897
0.00425088
0.00075367
-0.004806
0.00530082
-0.00141451
0.000919685
0.000737783
0.00384382
-0.00130761
-0.003274
-0.00185537
0.000455955
0.00316211
-0.00176269
-6.58314e-06
0.00145841
-0.00184111
0.000389283
-0.00201617
0.00493537
-0.00285128
-6.79248e-05
0.00146519
-0.00465901
-0.00270937
3.54209e-05
-0.00434768
0.00431226
-0.00163952
-0.00157212
0.000729623
0.00248202
0.00240139
-0.00138553
-0.00101587
0.00603622
-0.00600142
-0.00121892
0.00118412
-0.000561187
-0.00364123
0.0033681
0.000834314
-1.55987e-05
2.14333e-05
0.00331626
-0.00332209
0.00165016
-0.00135677
-0.00524818
0.00495479
0.00381852
-9.77145e-05
-0.0037208
-0.00557632
-0.00361
0.00537498
0.00381135
0.00319846
0.00499297
-0.00859788
0.00305316
-0.00109684
0.00172237
-0.0036787
-0.00123903
0.00123141
-0.00684068
0.0068483
0.00189049
-0.00373197
-0.00362213
0.00546362
-0.000382272
-0.000856702
0.00402511
-0.00278613
0.00279746
-0.00343828
0.00124633
-0.00060551
0.00157357
-0.00261048
-0.00252255
0.00355946
-0.00497849
0.00560277
-0.00148197
0.000857681
0.00574532
0.00738023
-0.00813025
-0.00499529
-0.00445152
0.00443412
1.74006e-05
-0.00050099
0.0051975
-0.00649208
0.00179557
0.000191889
-0.000312905
-0.00504572
0.00516673
0.0048521
0.000204622
-0.00558329
0.000526568
-0.00213053
-0.00360004
0.00452735
0.00120322
-0.0051433
0.00728516
-0.00258003
0.000438169
-0.00206664
-0.00253437
0.00150453
-0.000304584
-5.61658e-05
-0.00357304
0.00393379
-0.0116951
5.11009e-05
0.00103083
0.0106132
0.000459979
-0.0029543
-0.00152878
0.0040231
0.00728168
-0.000604049
-0.00235856
-0.00431908
-0.00128287
-0.00279556
0.000531922
0.0035465
0.0021024
-7.08415e-06
-0.00209532
0.00345084
0.00182574
-0.00114857
-0.00412801
0.00265896
-0.00210365
0.00523042
-0.00578572
0.000163947
0.00547139
-0.00180392
-0.00383141
0.00131464
0.00189141
0.00407563
-0.00260296
0.000189138
0.00241383
-0.00338234
0.00048186
0.000895035
0.000565184
-0.00466318
0.00320296
-0.00442999
0.0064849
0.00195312
0.00667988
-0.0014082
-0.0072248
-0.00429753
0.00419352
-0.00666466
0.00676867
-0.000636486
-0.00319686
0.00111672
0.00271663
-0.00354533
0.00669752
0.00200516
-0.00233551
0.000528958
-0.000198615
-0.00219396
-0.00697863
0.00218125
0.00699134
0.00458111
-0.0045683
-5.06449e-05
3.78379e-05
0.00371164
-0.00434981
0.000923563
-0.000285392
0.000944582
0.00372344
-0.00662889
0.00196087
1.63287e-05
0.00318391
-0.00320024
0.0020738
-0.00531512
0.00418591
-0.00200159
0.00539333
0.00454326
-0.007935
0.00152179
-0.00157117
-0.00727089
0.00732026
-0.00218495
0.00361839
-0.00728562
0.00585218
-0.00522014
0.00415503
0.00543386
-0.00436875
-0.00324058
0.00444139
-0.00287013
0.00166933
-0.00070087
0.00305688
0.000496764
-0.00285277
0.00150782
-0.00219956
0.00226855
-0.00157681
0.00292644
0.00108958
0.0009617
-0.00497772
0.00815259
-0.00553054
-0.000344644
-0.00227741
3.85868e-06
-0.0039672
0.00396334
0.00247853
-0.00362656
-0.0111338
0.0122819
-0.000505694
-0.00537865
-0.0016219
0.00750625
-0.000326257
-0.0024653
0.00279156
0.000757259
0.00357773
-0.000579609
-0.00375538
-0.000991514
-0.00358395
0.00289034
0.00168512
0.00284592
-0.00238412
-0.00418597
0.00710266
-0.00553455
0.00160643
0.00170009
-0.00330652
0.00542152
-5.91302e-05
-0.000644908
-0.00471749
-0.00105328
-0.00179214
0.00284542
0.0019082
0.00126849
0.0107312
-0.0129158
-0.00454229
0.00672695
0.00163872
0.00349121
-0.00266997
-0.00245995
-0.0037449
0.0071989
0.00475551
-0.0082095
0.00427693
0.00148373
-0.000568964
-0.00519169
0.00695841
-0.00464132
0.00299381
-0.0053109
-0.00396769
0.00181906
-0.00502688
0.00717551
-0.00640982
0.0114583
-0.00447706
-0.000571382
-0.000179145
-0.00271149
-0.0037373
0.00662793
0.00520398
0.00215496
-0.00609767
-0.00126127
0.00282404
-0.00753168
0.00474611
-3.8478e-05
-0.00655136
-0.000247126
0.0042794
0.00251908
-0.00132375
0.00342262
0.00148226
-0.00358112
-0.000828286
0.00331969
0.00267899
-0.0051704
-0.00692723
0.00355496
-0.000317575
0.00368984
0.000614823
-0.00183787
0.00365395
-0.00243091
0.00295825
-0.00148816
0.00105574
-0.00252584
0.0028242
0.000550189
0.000275576
-0.00364997
-0.00411645
0.00441842
0.00163582
-0.00193779
-0.000984197
0.00526685
0.00010124
-0.0043839
0.00425297
-0.0024952
-0.00164281
-0.000114961
0.00365333
2.59057e-05
-0.00367923
0.00266064
0.00206003
-0.000468122
-0.00425255
0.00125961
0.00330897
0.00280298
-0.00737156
1.27584e-05
-0.00595699
0.00594423
-0.00311339
0.0119997
-0.00175435
-0.00713199
-4.91756e-05
0.00448504
-0.00443586
-0.000296138
-0.00319849
0.000575465
0.00291917
-0.005855
0.00298853
0.0022723
0.000594168
0.0011978
0.000979991
-0.00683241
0.00465462
0.00345384
0.00545412
-0.00203797
-0.00686999
0.00527585
-0.00180148
-0.0050495
0.00157513
-0.00654372
0.00374159
0.010039
-0.00723685
-1.64233e-05
0.00256402
-0.00256392
1.63206e-05
-0.00265322
0.00262612
2.70993e-05
-0.00666029
9.77768e-05
0.00281762
0.000756002
0.00160651
0.00440546
-0.00676798
0.00345724
-0.00411186
0.00265185
-0.00199723
-0.00340428
0.00298128
-0.000111671
0.000534667
-0.000693338
-0.00558087
0.00711265
-0.000838438
-0.00249833
0.00120208
0.0039571
-0.00266084
0.00427867
-0.00164857
0.000626106
-0.00325621
-0.00280889
-0.000488984
0.00328774
1.01343e-05
-0.000494153
-2.60241e-05
0.0046954
-0.00417523
0.000579494
-0.000493929
0.00462679
-0.00471235
-0.00417788
0.00583353
-0.00611698
0.00446132
1.84521e-05
-0.00525464
0.00523619
-0.00186368
0.00015957
0.00471681
-0.00301271
-0.0035469
0.00414715
-0.00565746
0.00505722
-0.00365245
0.000280193
0.00110408
-0.00169692
0.0046162
0.000261078
-0.00318036
-0.00122461
0.000169736
-0.00206816
-0.00181035
-0.00590243
0.00592861
0.00178416
-0.00262801
-0.0003099
-0.000662401
0.00360032
-0.00898778
0.00303087
0.000906133
0.00505077
-0.00282504
0.00655253
-0.00326819
-0.000459295
0.00197372
0.000775233
-0.00397357
0.00390337
0.00396466
-0.00786803
0.00054896
0.0086157
-0.00200258
-0.00716208
-0.000110307
-0.000156176
-0.00385782
0.0041243
-0.00413667
0.0067936
-0.00274051
8.35707e-05
0.00390906
-0.00246005
-0.00354513
0.00209612
0.000995047
-0.00013371
0.00121799
0.00604834
0.00167183
-0.00872798
0.0010078
-0.00423339
-0.000532838
0.00137867
0.00338756
0.00156416
-0.00174374
-0.00235479
0.0072283
-0.00486336
0.0037941
-0.00615904
-0.000813094
0.00468297
-0.00809766
0.00422778
0.00278738
-0.00352923
-0.000357788
0.00109964
-0.00308413
-0.00107455
-0.000103753
0.00426243
-0.00231097
-0.00217519
0.00448616
0.00058059
-0.00622576
0.00551399
0.000131175
0.0023677
-0.00229325
-0.00238542
-0.00393193
0.00498197
-0.000945396
-0.000104645
0.00554555
0.0015261
-0.00597158
-0.00110006
-0.00216083
-0.00316142
-0.000366021
0.00568827
0.00360127
-0.00109688
0.00417379
-0.00667818
-0.00397031
-0.000207564
-0.00469126
0.00251607
0.000602342
-0.00524086
0.00167703
0.00296149
0.0015445
-0.00553507
0.00303694
0.000953636
0.000839702
0.000209973
-0.00418955
0.00313988
0.000623748
0.00269194
-0.000185681
0.00472138
-0.000932645
-0.00360306
-0.00184667
-0.000200143
-0.00172414
0.00377096
-0.0010952
-0.00147467
0.00281967
-0.000249795
-0.00435087
-5.16355e-05
-0.00724769
0.00261048
0.00380892
0.0103443
-9.48662e-05
0.00142145
-0.0116709
-0.00458899
0.00709575
0.00145394
-0.00396069
-0.00130655
0.000705766
0.00446469
-0.00386391
0.000535338
0.00152075
-0.00117587
-0.000880215
-0.00780011
-0.00162131
0.00671781
0.00270361
0.000173987
0.00334336
-0.000671424
0.000107858
0.00165282
-0.00519641
0.00343573
-0.00318647
-1.0176e-05
0.00117434
0.00202231
-0.00448187
0.00554107
-0.000885207
0.00253545
-0.00228594
-0.000249506
-0.00370589
0.000517
-0.0028759
0.00606479
-0.00168838
0.00254247
-0.00196022
0.00110613
-0.00363175
0.00409033
-0.00169015
0.00123157
0.00160499
-0.000271284
-0.00376212
0.00242841
-0.00162387
0.0101793
-0.0136987
-0.00144287
-0.00100675
0.000985571
0.00146405
0.00476106
-0.00743662
-0.000337632
0.00301319
-0.00199136
0.00148582
0.00256173
-0.00205619
-0.000596161
0.00314885
-0.00086615
-0.00168654
-0.0035398
0.000785089
0.000827451
0.00192726
-0.00202955
0.000173931
0.00185562
0.00456155
-0.00217084
-0.00231668
-7.40324e-05
0.000342996
0.00233308
-0.00354199
0.000865923
-0.0024436
-0.00296272
0.00302132
0.002385
-0.00130327
0.00333383
-0.00284246
0.000811901
0.00117813
-0.00222917
0.0015359
-0.000484859
0.00433347
0.000109318
-0.00444279
0.00371504
-0.00458421
0.00227504
-0.00140587
-0.0058477
-0.000156555
0.00600426
0.00237154
-0.0019675
0.000459933
-0.000863977
-0.000182839
0.00414203
-0.0045262
0.000567016
-0.00205224
0.00256896
0.000661409
-0.00233474
0.00499989
0.00462001
-0.00392022
0.00387325
4.69704e-05
7.28224e-05
-0.00619226
0.00611944
0.00834094
0.000997449
-0.00176028
-0.0075781
0.00175727
-0.00683571
-0.000845373
0.00592382
0.00130914
0.00154986
0.000887992
-0.003747
-0.00234591
-0.00233398
2.9864e-05
0.00465003
-0.00112117
0.00153028
-0.00275502
-0.00511612
0.0009311
0.00671328
-0.00252827
-0.0101419
0.0074265
0.00326793
-0.000552501
0.00447373
2.20253e-05
-0.00449576
-0.00258812
-0.00348445
0.00225394
0.00381863
-0.00253837
-0.00367488
0.00109714
-0.00365736
0.00198606
0.00229505
0.00148332
-0.00194765
-0.00354243
0.00400675
-0.00249562
9.50414e-07
0.00249467
-0.00585503
0.00239556
0.002425
0.00103447
0.00146451
-0.00392876
-0.00119311
0.00499933
-0.00159305
-0.000119535
-0.00328675
-0.00338665
0.0056176
0.00331619
-0.00554715
-0.00101366
-0.00211825
0.000797644
0.00233427
-0.00141597
-0.00113988
0.00255586
-0.00249964
-0.00524353
-0.00239876
0.00118834
1.63777e-05
0.00239642
-0.00360114
0.00479269
-0.0034829
-0.00504002
0.00373024
-0.00177776
0.000638903
0.0035819
-0.00244304
0.00334251
-0.0023538
-0.000330448
-0.00065826
-0.00383577
0.000624024
0.00299614
0.000215602
-0.00237923
0.00545372
-0.0059091
0.00230428
0.000170238
0.00343458
0.00560965
-0.00448655
-0.00352881
0.00240571
-0.00443855
0.000935987
0.00829525
-0.00427218
-0.00282391
0.00460036
0.00249574
-0.000501138
0.00446318
-0.0016933
-0.00226874
0.000259414
-0.00272013
-0.0017997
0.00426041
0.00507584
-0.00334888
-0.000205339
-0.00152163
0.00158596
0.00117846
-0.00388559
-0.0010683
0.00121006
0.0029798
-0.00312156
-0.000897143
0.00465836
-0.0057435
0.00198228
-0.00284556
0.000686592
0.000688804
0.00147016
-0.00616193
0.00624828
-8.63497e-05
0.00438913
-0.00433505
-5.40801e-05
0.00174904
-0.00670459
-0.00258357
0.00753912
0.00149655
0.00283224
0.000670543
-7.04841e-05
0.00248911
-0.00241863
0.00418545
0.00372274
-0.00790819
-0.00441841
0.00269783
0.0019059
-0.000185316
-0.0024808
0.000817449
0.00201773
-0.000354381
-0.00747024
0.00349605
0.00409696
-0.000122774
-0.00240792
-0.00268318
0.00259547
0.0039133
-0.000627344
-0.00250603
-0.000779935
-0.00410265
0.00443047
-0.00270706
0.000748214
-0.00469596
-0.00021725
0.004165
-6.09772e-06
-0.00231663
0.00232273
0.0111686
7.09641e-05
0.00120815
-0.0124478
-0.000425449
-0.000837768
-0.00616139
0.0074246
0.00192808
-0.00261191
-0.00121558
0.00189941
0.000756369
0.00581882
-0.00235059
-0.0042246
0.0062996
-0.00629718
2.13702e-06
-4.55321e-06
-0.00353716
-0.00318852
0.00498427
0.00174142
0.00207113
0.00156888
-0.00411365
0.000473637
2.83109e-05
0.00382993
-0.00391475
5.65087e-05
-0.00528621
0.00170156
0.00428156
-0.000696909
0.00401995
0.00243061
-0.00406909
-0.00238148
9.10703e-05
-0.00359992
0.00181086
-0.00093263
0.00542137
-0.00289352
-0.000376557
-0.000451087
0.00372116
-0.00491436
0.000255994
0.00465837
0.00714095
0.00308388
-0.00231233
-0.0079125
-0.00466032
9.46775e-05
0.00465671
-0.000423319
-0.00110193
-0.002812
0.00433725
-0.000537379
-0.000559809
-0.00151508
0.00261227
0.00117288
-0.00596337
0.00450135
0.000289137
0.00377136
-0.000578921
-0.00367849
0.000486051
-0.00455928
0.000942489
0.00035533
0.00326146
-0.00174643
0.00115352
-0.0024009
0.00299381
0.000994898
0.00065595
-0.00590563
0.00425478
0.000199434
-0.00400545
-0.000269564
0.00407558
0.00395717
0.000534228
-8.39807e-05
-0.00440742
-0.00472518
0.00109362
0.00427599
-0.00339557
-0.00450028
0.00789585
0.00655794
-0.00331593
0.0014156
-0.00465762
0.000515436
0.00365785
-0.00224521
-0.00532523
0.000982712
0.00188599
0.00245653
0.00658176
-0.0067948
0.000213049
-0.00402473
-0.00136887
0.00281842
0.00257519
-0.00524641
-0.00407301
0.00273418
0.00658524
0.00530877
-0.00554287
-0.000679391
0.000913493
-0.000772598
0.00258223
-0.00203495
0.000225317
-0.0066727
0.00218636
0.00152859
0.00295775
-0.00987864
0.0122684
0.00206333
-0.0044531
0.00443377
-0.009601
-0.000493385
0.00566062
-0.00393671
0.00501803
-0.00929662
0.0082153
-0.00409486
0.00901756
0.000894668
-0.00581736
0.000363925
0.00428866
-0.00101326
-0.00363933
0.00653505
-0.0049079
-0.00016008
-0.00146707
-0.00113713
-0.00109222
0.00166961
0.000559735
-0.003056
-0.00637998
0.00547054
0.00396545
-0.00438944
0.00584785
0.00507664
0.00362129
-0.0026627
-0.00331759
0.002359
0.00130599
-0.00168982
-0.000745936
0.00112976
0.00289688
-0.00286815
-0.00380944
0.00378071
-0.00117106
0.00335851
-0.000242765
-0.00194468
-0.00467086
-0.000764806
0.00579959
-0.00351151
-0.000863906
0.00434175
3.36674e-05
0.00147487
-0.00329411
0.00181924
0.00116178
-0.00153392
0.00570223
-0.00533009
0.00460057
-0.00648266
0.000953361
0.00092873
0.00288814
-0.00311504
0.000226898
-0.00450385
0.000114412
0.00398702
-0.00152425
-0.00385109
0.00138833
0.00127082
0.00101662
0.00445212
-0.00673957
0.00283497
-0.0030781
0.000243129
-3.33242e-05
0.00347169
-0.00392486
0.000486486
-0.00493533
-0.00046737
0.00656448
-0.00211791
-0.000361177
0.000489222
0.00198987
0.000292209
-0.00241399
0.00178126
0.000340529
0.00397073
-0.00380243
-0.000940894
0.000467123
0.00670781
-0.00423721
-0.00293772
-0.00226931
0.00479046
-0.00252115
-0.00614691
0.00235201
-0.00142986
0.00522476
0.00481103
-0.004355
-0.00712872
-0.00239869
-0.00287021
0.00986125
-0.00459235
-0.00694329
0.00442031
0.00631375
-0.00379076
-0.000132998
-0.00591479
0.00604779
0.00933824
2.20698e-05
-0.0053884
-0.00397191
0.00545497
-0.00351666
-0.000489177
-0.00144912
-0.00397067
0.00281121
-0.000704265
0.00186372
4.38303e-05
-0.00414625
0.00410242
-0.00295349
0.00304019
-8.67035e-05
-0.00215762
-0.00228257
-0.00583917
0.0102794
-0.00549595
0.00119312
-0.000607949
0.00491078
0.00130019
0.00210935
0.00580704
-0.00523171
-0.0043303
0.00375498
-0.00157049
-0.00324786
0.00357669
0.00124166
-0.00325639
-0.00165201
0.00491323
-4.81865e-06
0.00110926
-0.0006317
-0.00311108
0.00263353
0.00358882
0.000164072
-0.00459093
0.000838041
0.00110454
-0.000772114
0.00121258
-0.00146377
0.00145845
-0.00120725
0.00295559
0.00287828
-0.00294703
-0.00288684
0.00146335
0.00344634
-0.0035609
-0.00134878
0.00305499
0.0013226
-0.00240387
0.00379638
-0.00459552
0.000963209
-0.00506799
0.00354921
0.00191098
-0.000392195
0.00598543
-0.00198378
-0.00627097
-0.00160633
0.00426829
0.00214906
0.00417196
-0.00202759
-0.00352965
-0.000974455
-0.00056389
-0.0056108
0.00524549
0.00049116
-0.00012585
-0.000342215
0.00702137
-0.000723554
-0.0059556
-0.00456826
0.00092985
0.00203208
-0.000728587
-0.00460011
0.00129479
0.00403391
0.00419218
0.000579798
-1.15449e-05
-0.00476043
-0.00628822
-3.28733e-05
2.7966e-05
0.00629313
-0.00163459
0.00178117
-0.00291515
0.00276857
-0.00432597
0.00546021
-0.000557648
-0.000576585
0.00568817
-0.00530878
-0.00470537
-0.00416771
0.00375664
-0.00118743
0.0015985
0.00336284
-0.000152088
-0.00105684
-0.00215391
-0.00639107
0.00615497
0.00303017
-0.00279407
0.0030641
0.00116705
-0.000389637
-0.00384151
0.00107424
0.00272917
-0.00341231
-0.000391095
-0.00202317
0.00203548
-1.23179e-05
-0.00118188
-0.00301773
0.00302855
0.00474068
-0.00470852
-3.21581e-05
-0.00257361
-0.00205491
0.00201661
-0.000271285
-0.00312866
-0.000344582
0.00374453
-0.000359754
-0.00276578
0.00247242
0.00065312
0.00423418
-0.00481536
0.000581187
-0.00546745
0.00559908
0.00513883
-0.00527045
-0.00366096
0.00283247
-0.00192272
0.00275122
-0.00149291
0.000637931
0.00135164
-0.000496662
-0.000144186
0.00663021
-6.89071e-05
-0.00641712
-0.00340955
0.00165293
0.00167945
0.00195021
0.00248167
-0.00432945
-0.000102436
0.000187483
-0.00538608
-0.000210383
-0.00479235
0.00480218
-9.8274e-06
-0.00328894
0.00166476
-0.00362222
0.00108227
-0.00239561
9.77494e-05
0.00213994
0.000928958
0.00314115
6.09861e-05
-0.00268652
-0.000515619
0.00263221
-0.00656689
0.00526472
-0.00133004
0.00109967
-0.00150608
0.00557272
-0.00516631
0.00679045
0.00198715
-0.00104487
-0.00773273
-0.00172772
-0.00283058
-0.000920848
0.00547915
0.00205701
0.00859134
-0.00774414
-0.0029042
0.00099043
0.00626515
-0.00604846
-0.00120712
-0.00212712
0.000279109
0.00436062
-0.00251261
-0.000759277
0.00610967
-0.00329339
0.00442666
-0.00350035
-0.00136433
0.000438019
0.00145899
0.00378717
-0.00524616
0.00351331
0.000780072
-0.000467716
-0.00382567
-0.00323706
0.00258855
0.000259716
0.000388796
-0.000307245
-0.0046215
0.000272735
0.00465601
-0.00337462
-0.000427695