/*--------------------------------*- C++ -*----------------------------------*\
  =========                 |
  \\      /  F ield         | OpenFOAM: The Open Source CFD Toolbox
   \\    /   O peration     | Website:  https://openfoam.org
    \\  /    A nd           | Version:  10
     \\/     M anipulation  |
\*---------------------------------------------------------------------------*/
FoamFile
{
    format      ascii;
    class       volScalarField;
    location    "6";
    object      SgP;
}
// * * * * * * * * * * * * * * * * * * * * * * * * * * * * * * * * * * * * * //

dimensions      [1 -1 -3 -1 0 0 0];

internalField   nonuniform List<scalar> 
111485
(
3.86277e-09
5.16133e-05
1.57734e-05
5.12325e-09
4.92249e-06
1.88721e-08
7.98713e-06
9.16101e-08
6.09248e-06
1.43491e-06
1.44066e-05
5.81709e-07
4.09233e-06
0.206462
3.56555e-06
9.85669e-06
0.156416
0.000741553
5.07068e-07
4.61611e-08
0.0274712
2.15688e-09
1.46527e-06
6.09169e-06
1.9728e-05
1.82224e-08
4.56489e-07
6.7901e-06
5.72525e-07
0.0355619
2.48752e-06
1.86014e-07
1.87061e-07
9.72784e-07
0.000532825
6.28337e-05
0.0969851
0.150846
0.00175589
4.42875e-07
0.0298431
5.88184e-07
1.74249e-06
6.31069e-05
1.64521e-05
1.38369e-06
4.10167e-06
5.8501e-07
3.61465e-06
3.08994e-07
8.91942e-07
1.20805e-05
3.86668e-07
6.75818e-06
9.42978e-07
9.3846e-08
1.41453e-06
1.82536e-08
2.66258e-05
3.0575e-07
4.18448e-07
2.02177e-07
4.80877e-05
4.22478e-06
5.0887e-06
6.78218e-06
0.000294717
1.22435e-06
2.84504e-05
5.91969e-05
3.44254e-05
3.35371e-05
8.6147e-06
4.32962e-05
1.80011e-08
1.12884e-07
8.29166e-09
4.63829e-07
2.54168e-08
2.21589e-05
0.199257
0.371086
3.77454e-08
4.47904e-09
8.21791e-06
1.79821e-05
0.100871
5.73533e-06
0.000176709
1.47225e-06
9.79023e-07
4.59729e-06
2.21195e-05
1.28345e-07
9.24575e-07
1.1727e-08
0.0199709
7.22846e-06
0.00110387
0.00032705
3.06733e-09
1.83228e-06
1.41175e-06
7.65779e-06
4.19991e-06
1.12941e-05
2.27803e-08
2.0287e-07
3.04668e-06
0.000485272
1.14504e-05
8.30597e-07
6.28703e-06
4.07128e-05
7.62457e-08
6.20499e-08
1.03153e-08
4.54506e-06
1.31155e-05
1.03925e-08
7.00566e-08
0.00013737
0.0516387
1.44998e-06
3.06235e-05
0.0211084
7.67607e-05
4.76945e-06
6.65461e-09
0.000215712
9.1229e-05
1.09643e-05
0.0348067
0.000126356
5.74386e-05
4.24651e-07
5.67085e-09
1.90968e-07
6.32082e-06
1.4331e-05
4.10769e-05
1.45068e-07
0.126202
4.42788e-05
2.25228e-05
9.88545e-07
7.26027e-08
5.91829e-09
3.76628e-08
1.24652e-07
1.59242e-05
0.0210658
0.0835487
3.58862e-06
2.84437e-05
2.23585e-07
3.24885e-06
6.14836e-05
0.000558254
3.9889e-06
5.77691e-09
2.56219e-07
2.25922e-05
5.25173e-05
4.68108e-05
1.49714e-05
3.15191e-06
0.0185573
0.00105043
8.9843e-05
5.15203e-09
6.50327e-09
0.150006
6.9652e-09
4.38142e-08
6.36305e-07
4.5312e-07
7.882e-06
4.38651e-08
4.17181e-06
6.83504e-06
2.3973e-08
1.06787e-06
2.75362e-07
1.63612e-06
1.48632e-05
5.92659e-06
1.71417e-05
0.00023094
1.13045e-07
1.62648e-05
4.29146e-06
5.3046e-06
1.46978e-05
3.44514e-06
8.72954e-06
6.85375e-07
2.03841e-07
6.30639e-07
3.51995e-06
5.08266e-07
0.00117552
5.50185e-05
2.93475e-07
1.24847e-06
2.12583e-06
5.63192e-06
8.39736e-06
1.06517e-05
1.3605e-06
1.52524e-06
4.54436e-06
5.80452e-06
1.95007e-08
3.30941e-05
0.000221546
3.57893e-07
2.33934e-08
6.26847e-06
7.60315e-06
6.02568e-07
8.17415e-08
2.91714e-06
9.81935e-06
0.000200596
2.43246e-08
3.13812e-09
2.06388e-05
0.00284778
1.69971e-05
6.54004e-05
6.33382e-06
4.11311e-07
0.102617
2.73456e-05
1.2928e-05
0.114633
3.28913e-08
2.22202e-05
8.56115e-06
9.0475e-06
1.22746e-05
2.78569e-06
2.94124e-06
0.00124662
3.23284e-07
5.31239e-06
1.35986e-07
3.47867e-06
0.0961328
1.23948e-05
6.51463e-06
7.23706e-06
1.14315e-09
0.000138938
2.40535e-07
2.07022e-07
4.98059e-05
0.0722479
3.27506e-08
1.8048e-06
1.53001e-05
1.16552e-06
1.1171e-08
4.6087e-06
1.30773e-09
3.38154e-08
3.52155e-07
0.122935
2.10039e-06
1.79949e-05
4.73814e-07
0.124709
1.14475e-05
5.40541e-07
0.000155399
9.22882e-07
4.33177e-07
3.7435e-07
8.67782e-09
0.0838277
3.18571e-07
2.7897e-05
4.91109e-06
6.1039e-09
0.152699
0.185654
7.67103e-07
0.000159519
2.20634e-05
1.82601e-06
4.0216e-06
7.06546e-06
9.82708e-08
4.16019e-06
1.23892e-08
0.00025839
0.000188624
7.67822e-06
1.08957e-06
0.243983
1.80647e-08
0.0589308
5.55989e-07
1.3921e-06
8.47918e-09
9.33774e-08
0.0182296
1.08588e-06
4.41699e-07
3.17226e-06
6.6614e-05
1.12155e-07
2.17093e-05
2.44388e-08
1.15891e-08
2.76044e-06
0.0031295
0.18026
2.21646e-06
0.000487532
9.4744e-09
1.16554e-08
1.8204e-08
6.1543e-05
5.12604e-07
4.17462e-07
1.44448e-06
3.45612e-07
5.20909e-05
0.0448793
3.24726e-06
1.01175e-07
1.15711e-06
1.2443e-06
0.0329703
3.58055e-05
5.68726e-07
4.28343e-07
1.68884e-07
2.30869e-06
1.1344e-08
0.106134
0.000107632
3.21538e-07
1.56284e-06
0.000212489
1.12082e-07
0.0268242
1.0927e-07
5.17018e-06
4.73705e-06
2.789e-07
1.52485e-05
6.73846e-06
8.53557e-08
4.52641e-07
4.66607e-07
1.68298e-06
0.262309
1.41044e-05
8.8759e-08
0.0363033
1.00503e-05
3.51206e-08
3.47668e-07
1.42889e-07
0.0348505
0.000424653
0.0338826
0.0340301
9.55257e-08
1.32292e-08
3.60747e-07
6.21702e-07
8.64242e-09
5.00326e-06
1.5821e-06
1.08188e-05
1.50768e-05
6.84436e-05
2.28462e-06
0.000490338
3.25631e-07
1.378e-06
2.93135e-05
5.07425e-07
0.000439919
3.16617e-07
9.38113e-06
1.77377e-06
0.0208232
8.01664e-08
6.02069e-08
0.108529
2.32273e-06
0.215866
7.69458e-08
3.14223e-06
1.90698e-06
6.91609e-09
3.33679e-06
3.00917e-05
1.04796e-08
0.0236549
7.84352e-07
1.40159e-06
3.42904e-07
2.95751e-08
0.000537979
1.02855e-08
4.08527e-06
1.99085e-06
4.54754e-09
5.93039e-07
2.51603e-05
0.173897
6.92742e-05
3.79722e-09
5.79334e-05
7.00139e-05
7.07144e-05
2.64353e-05
0.000419665
1.99449e-06
0.00079645
3.83185e-05
0.146931
0.00014352
5.1619e-08
4.62823e-06
6.07977e-07
1.26764e-07
0.00100116
0.000111281
6.05235e-05
9.13169e-07
6.24291e-07
6.84128e-06
3.59673e-08
0.250854
7.41387e-07
2.3613e-05
0.00313563
6.4287e-05
0.000912006
4.42291e-08
0.180458
0.237138
4.01543e-08
1.9185e-05
0.000148751
7.34456e-05
4.54398e-09
2.01722e-05
3.60401e-09
0.20284
5.11211e-05
1.07372e-05
5.95802e-05
1.60723e-05
1.33507e-07
1.23782e-06
4.26697e-07
3.95933e-05
1.35784e-07
4.59971e-07
0.0386906
4.56439e-05
3.0139e-08
1.27824e-09
0.000272403
5.84848e-08
9.45269e-07
2.14929e-06
1.8922e-08
4.53023e-05
6.84591e-08
0.0548018
6.67033e-08
1.2377e-06
2.49956e-08
0.000121398
3.13494e-07
0.159249
1.09572e-05
0.167461
1.22643e-08
4.56669e-05
1.65247e-06
6.97353e-09
0.258622
0.100456
1.44008e-05
1.9143e-06
2.27802e-05
6.2538e-07
9.93992e-06
2.02592e-07
2.9566e-05
0.202376
1.81976e-08
1.51852e-06
7.67259e-05
9.21932e-06
0.0404655
2.65539e-06
8.39119e-05
1.2283e-06
8.26299e-07
0.000527687
0.0561264
8.01444e-06
1.29196e-08
1.1163e-06
3.02814e-06
2.72911e-06
8.04128e-07
1.44453e-05
5.86708e-09
0.00124454
7.11893e-08
2.11319e-07
1.8264e-07
5.65219e-05
4.91017e-09
6.04839e-06
3.27806e-08
3.83685e-06
1.7983e-09
0.082085
0.0867938
8.80637e-06
1.83257e-07
0.0447482
0.065555
6.54634e-09
1.95239e-07
7.86039e-06
1.08153e-07
6.8222e-05
1.22036e-05
5.99692e-06
0.0314942
8.97349e-07
1.10549e-08
3.3709e-05
3.20617e-05
4.1011e-05
1.30271e-06
1.0358e-05
8.22138e-06
4.06225e-07
7.39033e-07
1.36759e-05
2.36693e-05
5.04089e-09
0.0912531
4.83106e-05
2.81403e-05
9.09142e-07
0.000850666
2.07763e-05
0.000272601
0.00213516
0.0002754
4.18198e-06
5.77533e-05
7.61328e-06
1.37558e-05
0.0815245
0.000144079
5.33515e-05
0.00260373
0.0549069
3.48517e-08
3.28035e-05
2.9936e-06
2.88165e-05
2.72822e-07
0.000375267
0.00201805
0.000309289
0.000119726
1.70658e-05
1.33978e-06
7.76047e-08
0.000142427
1.96502e-06
6.12712e-08
2.51844e-08
1.13019e-08
4.81476e-08
7.51601e-06
3.17319e-08
0.0256625
8.59085e-06
8.51289e-06
0.0720672
0.223816
4.37247e-05
1.56064e-06
0.0274943
4.7064e-08
1.32376e-05
1.69679e-07
8.7347e-09
3.40303e-05
1.23925e-05
0.0846969
1.73237e-05
1.71747e-08
1.97359e-06
2.0757e-05
0.10121
4.16855e-06
1.883e-05
4.54957e-05
0.144233
0.0284934
1.51356e-06
1.15443e-05
4.17677e-06
1.37834e-06
3.72446e-06
8.64754e-07
1.90422e-05
2.64953e-06
1.50819e-06
7.10494e-07
2.19498e-06
0.0004199
2.37872e-05
3.14009e-06
2.87503e-06
0.000473334
1.37739e-08
4.73435e-07
6.69006e-06
2.20964e-06
9.90429e-06
4.43361e-07
2.47366e-06
2.17657e-06
1.91566e-05
0.000133926
9.17645e-06
1.19114e-05
1.04191e-06
3.82379e-07
1.96946e-05
3.42941e-06
1.7023e-08
0.0533265
4.2632e-08
0.102386
4.06812e-05
0.00849664
7.14646e-08
0.0202002
1.1741e-06
9.68566e-06
3.22569e-09
4.80959e-06
2.58602e-07
1.44172e-08
7.91898e-07
0.199084
6.72502e-05
2.09405e-05
0.0304184
8.06763e-08
1.96804e-09
2.86066e-06
9.90297e-07
6.07878e-05
3.87193e-07
8.80012e-05
4.11642e-08
5.40547e-06
8.79214e-05
0.119283
1.81544e-08
1.89439e-08
1.58892e-06
5.01459e-08
9.55473e-05
2.96944e-07
0.0432668
4.23248e-07
2.02148e-08
2.12129e-07
0.0312541
4.74223e-06
7.30661e-05
5.74976e-09
0.00366862
0.000709211
0.129237
3.98465e-08
1.53022e-08
2.77458e-06
1.7058e-05
2.90123e-05
0.000415217
0.000242546
0.000139229
1.06902e-06
0.0436397
1.48632e-05
4.74124e-07
2.90508e-08
7.95176e-07
3.49271e-08
6.2632e-09
4.57632e-08
2.06299e-08
2.32983e-06
2.86388e-08
1.13118e-08
4.40321e-07
9.18539e-08
3.33789e-07
9.26773e-08
4.8792e-07
2.17037e-07
5.97099e-06
5.9023e-06
3.35928e-08
1.8216e-08
1.01869e-05
4.64665e-09
4.28824e-05
8.24928e-07
1.25517e-06
5.62252e-08
2.35398e-09
1.07486e-08
3.76878e-09
8.06428e-06
3.97121e-08
3.10831e-08
1.2871e-05
6.07161e-09
7.19931e-06
5.29065e-05
1.40074e-06
5.37585e-07
0.000373637
1.15283e-06
0.177521
6.14182e-05
5.50088e-06
0.149874
5.9721e-05
4.03383e-06
1.51029e-05
1.67304e-07
1.36746e-05
0.0647788
0.000492192
2.24025e-07
4.33503e-08
9.07851e-06
5.6617e-05
6.37113e-05
6.62987e-05
8.98459e-09
4.89376e-09
5.44085e-07
2.7924e-05
2.01086e-06
2.83823e-06
9.37687e-05
5.2082e-07
7.98004e-06
4.82195e-08
2.15962e-08
0.0230554
8.41538e-06
3.48719e-07
6.28932e-09
3.70486e-05
9.21922e-05
1.20203e-06
2.14241e-07
0.0300603
9.95138e-09
6.97212e-06
0.0439459
1.75883e-08
0.051721
3.08943e-05
0.0254976
0.00043601
7.75382e-08
2.38804e-05
6.32806e-06
0.0338656
2.42702e-05
0.000936558
0.114351
9.41295e-05
3.40352e-06
6.20978e-07
8.55445e-07
0.344517
0.11442
2.14365e-08
0.17027
3.26031e-06
0.000117974
8.31818e-06
1.4285e-05
0.000793076
1.83797e-05
4.23791e-06
4.73209e-06
3.88907e-07
3.21657e-07
0.0313777
3.97872e-08
1.47488e-05
8.51343e-06
5.43014e-08
9.14033e-07
0.15301
1.05471e-06
2.67885e-07
0.000406838
1.64007e-08
7.7787e-07
0.15504
2.1168e-08
0.133952
0.250992
0.000879698
8.46856e-06
8.90032e-07
8.6423e-07
3.74168e-05
0.000170307
0.00080371
0.000181443
2.99646e-06
0.0312511
7.17147e-05
2.29604e-09
0.000179678
0.000175138
0.000435521
0.000339213
0.000621861
0.00012453
4.52972e-09
4.93993e-05
8.93853e-07
2.9287e-07
0.00112481
0.246349
1.49124e-07
1.81218e-08
0.00233969
0.00238904
3.00101e-09
0.000429384
1.08329e-07
3.6977e-09
2.99132e-08
3.09032e-07
2.98144e-06
1.52763e-07
4.61651e-05
0.0356762
1.359e-08
6.09483e-07
0.0032429
0.0824502
3.68927e-05
1.11068e-07
0.0223957
9.06576e-09
8.87434e-05
4.36103e-09
8.56804e-09
0.000420014
0.0918376
1.36812e-06
1.18266e-08
1.07823e-07
0.0245882
9.11078e-09
0.0159193
4.35645e-08
7.13344e-05
3.01425e-09
0.00140477
1.61739e-06
8.48913e-09
5.47424e-07
4.21729e-07
0.00100345
4.93535e-07
1.74651e-08
1.44554e-06
0.00320641
0.0372437
5.14119e-05
0.000404497
0.000765088
7.71964e-08
0.000932045
6.90447e-06
3.32692e-07
2.32185e-06
0.00015677
1.19285e-05
1.85757e-07
6.18971e-06
0.000105179
4.55953e-08
4.29811e-07
2.38074e-07
1.03186e-05
0.0519074
1.74399e-09
2.37696e-07
0.0420023
8.87485e-05
5.29346e-05
1.57811e-08
7.8907e-07
2.93585e-08
7.04509e-07
1.72778e-05
1.99544e-05
4.56661e-07
1.59449e-05
1.96254e-05
5.55425e-05
1.14324e-05
4.30414e-08
2.8653e-06
4.10317e-09
2.46296e-07
2.92054e-05
0.000126578
2.3603e-08
4.76486e-07
6.40084e-07
1.22066e-08
3.60563e-05
3.00081e-07
3.37923e-05
0.000596458
4.3855e-05
4.12598e-08
0.000955872
8.58655e-05
4.9519e-05
0.000112618
5.06372e-08
9.04477e-05
1.92094e-06
0.083565
2.33976e-05
6.82669e-05
5.22896e-08
1.12941e-09
9.6162e-09
0.132816
0.0514597
3.11189e-05
9.59931e-09
9.94134e-05
3.7171e-08
0.121418
8.27524e-05
4.49868e-07
3.50921e-08
1.8194e-06
4.90022e-07
5.8831e-05
1.46306e-06
8.5638e-05
0.225693
2.45984e-06
5.31525e-05
2.57272e-05
5.16566e-05
3.84316e-05
7.99316e-09
2.08858e-08
1.06844e-06
2.08035e-05
1.71653e-08
1.34918e-07
0.00045416
2.56765e-07
6.72297e-07
0.318259
1.50504e-06
4.55408e-05
4.90315e-09
6.19073e-07
2.41032e-07
0.234245
1.02377e-08
0.0855805
0.00397212
8.66763e-05
1.11091e-05
1.01801e-05
0.000677626
2.017e-06
8.73752e-07
1.42757e-06
4.34294e-07
4.25458e-08
1.44697e-06
5.99579e-05
1.63932e-06
0.0486199
1.93553e-07
2.90596e-06
0.000206372
5.55272e-09
0.000273543
8.31849e-08
2.66505e-05
0.000558908
5.36336e-08
6.40768e-07
4.45604e-05
4.43352e-07
1.76956e-06
0.135269
3.40863e-07
6.67399e-06
3.62314e-08
0.0321055
6.39818e-06
1.94809e-07
1.24611e-07
3.67374e-06
4.57288e-06
2.7469e-09
0.108115
8.16402e-07
3.40938e-09
9.17899e-05
3.70103e-07
9.12374e-09
2.97324e-05
0.000616282
0.000651203
2.02381e-08
9.02855e-07
4.97522e-08
2.08962e-05
3.66649e-05
0.0253663
5.21097e-06
0.000636131
4.91871e-05
0.000787914
2.32548e-05
2.35035e-06
7.16307e-07
3.44405e-07
8.67629e-06
9.2568e-07
3.78776e-06
0.0325404
0.000184641
0.0330323
6.95113e-09
1.47727e-06
8.00164e-08
4.80943e-05
7.46134e-05
2.60268e-06
3.03818e-05
0.000418652
7.25511e-05
5.12447e-09
0.00519867
0.00583713
3.79425e-05
2.88718e-05
2.26496e-07
0.000683237
1.36272e-06
2.07237e-06
9.24337e-08
5.02938e-09
0.000172991
4.87716e-06
0.000702815
4.29428e-07
0.0326804
0.000411303
4.76973e-07
5.41294e-08
0.000391411
1.8579e-06
0.0412178
0.197832
8.91079e-05
0.000166894
2.31101e-06
8.39761e-08
8.7675e-08
6.98662e-08
4.75091e-05
2.96417e-06
0.0240894
0.0408489
1.58666e-05
3.0526e-08
0.000226217
0.0289404
2.02788e-05
0.000830884
0.00178618
0.0303701
0.0916615
0.0353539
8.20237e-05
9.31925e-09
0.00146029
4.35244e-07
8.24108e-08
1.67013e-07
4.21727e-08
1.34541e-05
1.99787e-08
1.17592e-08
6.4068e-05
5.14914e-08
4.53432e-09
7.38647e-07
2.09092e-07
0.0412756
1.78523e-06
2.06054e-05
0.0533194
0.188811
1.59785e-08
0.13337
0.00011635
0.278576
5.52633e-07
8.0245e-08
7.72394e-08
2.07507e-05
0.187252
1.54451e-08
0.000839133
2.55115e-08
1.5426e-06
1.21587e-05
3.26599e-06
7.75906e-07
1.80892e-07
0.0542608
1.41549e-08
1.44324e-06
8.38028e-08
3.73829e-07
4.81897e-07
0.000311601
3.76829e-05
8.34009e-07
0.000283731
9.80595e-06
3.07481e-07
9.65109e-05
5.33421e-07
4.46294e-06
1.07909e-07
8.22913e-08
0.186012
0.0306715
0.000256283
1.75772e-07
1.40798e-08
1.07256e-06
0.138208
2.22477e-07
4.76635e-06
6.76696e-07
9.56227e-07
1.96713e-09
0.0249024
6.1806e-05
3.66009e-07
3.52467e-07
1.09477e-05
1.29403e-08
0.128765
9.8323e-09
0.0299901
3.98128e-05
4.38586e-06
1.24342e-08
7.22566e-07
8.92988e-07
2.82199e-07
2.1821e-06
3.27602e-06
2.23172e-09
2.16068e-09
4.56243e-05
0.0563261
5.3317e-09
1.71741e-05
9.47118e-07
5.92186e-05
2.13328e-07
0.0337896
1.58077e-06
1.8351e-05
2.75771e-05
1.34739e-07
3.264e-05
1.20752e-06
8.29884e-06
2.93246e-08
6.60198e-09
6.51504e-06
1.52693e-08
8.65135e-05
2.83714e-05
1.96779e-08
4.86221e-08
7.60503e-05
0.000398045
0.214458
5.83608e-08
3.86721e-06
1.35185e-06
0.000260798
0.000117652
1.3542e-05
6.08732e-05
0.0557976
2.28918e-06
3.86427e-05
0.000596705
0.0471924
8.41295e-07
1.21493e-08
0.000271859
4.35734e-06
0.0291158
2.03222e-07
6.60079e-06
3.71094e-06
4.18084e-08
0.16757
1.03149e-08
1.19333e-07
6.60618e-07
1.49102e-05
0.252755
0.0401793
3.95962e-07
9.37996e-09
4.46865e-09
8.0876e-08
7.77248e-08
4.09619e-07
6.62137e-08
3.39916e-09
4.02964e-08
3.15893e-09
1.42121e-07
0.0440032
0.0261387
1.58372e-08
9.9939e-06
5.14063e-09
2.32881e-08
1.41745e-08
0.0256043
0.060889
4.78667e-06
3.67323e-08
5.77154e-09
5.54499e-07
7.05063e-07
2.93756e-06
1.09194e-07
0.000240935
2.75058e-07
2.46002e-06
1.18862e-06
0.000139793
3.5717e-06
0.000571489
1.251e-06
1.43214e-08
0.000350554
0.000359318
1.97801e-08
1.39975e-05
2.14281e-06
6.04633e-06
2.08378e-05
6.31176e-06
2.79508e-06
1.33191e-07
0.23863
3.89517e-07
2.50808e-05
0.04408
4.40553e-05
7.41111e-06
9.42938e-06
9.99919e-07
3.66258e-07
1.44074e-05
2.23543e-05
3.62609e-05
2.74259e-06
1.94229e-05
3.49486e-06
1.65071e-06
1.00733e-06
5.13423e-09
4.56919e-08
1.44207e-08
2.2486e-09
1.55245e-07
6.24597e-08
4.29241e-06
2.76588e-08
4.09037e-09
1.31713e-07
1.19015e-05
2.80848e-08
2.66773e-08
6.16816e-07
7.20848e-07
4.02397e-07
5.98465e-05
3.42802e-06
0.181757
1.31089e-07
8.75362e-06
1.07073e-05
2.55632e-06
5.48206e-09
3.14364e-08
0.159886
3.56536e-07
4.42374e-09
1.8999e-06
0.15994
8.75311e-07
3.49332e-05
3.99568e-05
7.56467e-07
5.13186e-06
7.61655e-06
0.000271131
1.63521e-08
2.18602e-05
3.73414e-06
1.13069e-07
0.000234795
0.000271694
0.148172
5.297e-06
1.08791e-06
4.63036e-06
2.15168e-05
7.88155e-06
5.57631e-08
0.00186649
1.89308e-08
0.000401908
0.000296707
0.0450918
6.9883e-06
0.182667
1.24133e-08
1.11139e-07
1.41284e-06
1.22435e-05
3.16209e-05
2.42292e-06
5.05671e-05
3.62013e-08
6.42449e-06
9.69536e-09
1.54426e-09
4.83716e-07
0.000329677
3.50072e-08
4.64911e-09
0.000301436
1.61681e-07
0.000379969
1.70107e-06
1.01461e-06
1.03531e-06
1.20653e-07
1.48121e-05
2.98311e-06
0.000152108
2.27885e-07
3.42448e-06
0.00241424
7.69325e-07
6.58353e-09
0.000111061
2.06726e-06
1.8755e-05
1.19905e-08
0.106528
8.74054e-05
2.82367e-05
1.15883e-06
4.31308e-09
0.000138778
2.88555e-06
1.37642e-07
5.09291e-09
2.3089e-05
4.16537e-05
3.50779e-05
0.139825
1.46727e-06
3.45588e-06
0.000174804
1.34866e-06
1.98614e-06
5.1689e-07
6.16583e-05
1.41066e-06
8.38616e-05
0.128881
4.85804e-06
4.10405e-09
5.09995e-07
1.3929e-05
9.39411e-06
1.62063e-07
0.00034858
0.000610472
0.000300244
0.000635146
6.84163e-06
3.72018e-05
4.12011e-06
3.77814e-06
5.99425e-08
3.99162e-08
0.0730958
0.000359174
9.60858e-07
0.00118185
2.51619e-06
1.72501e-05
0.000301966
2.33225e-06
1.79361e-06
2.24388e-06
9.16353e-08
2.94897e-05
1.0264e-05
0.000105989
6.71549e-06
1.70778e-07
1.55257e-08
1.54621e-05
1.00159e-06
1.47511e-08
0.000227027
1.70467e-06
6.15462e-06
1.54277e-05
4.09351e-07
4.75952e-08
0.000417987
0.0991284
3.60331e-08
9.96127e-09
1.48888e-08
0.103762
0.175793
3.67284e-07
0.0393896
3.10199e-06
8.29689e-06
6.00795e-06
3.79245e-06
7.55254e-06
5.24303e-06
2.05322e-05
0.0810526
0.259311
0.295688
6.52258e-06
9.18156e-06
4.05088e-06
4.72787e-06
0.260414
1.02422e-08
0.142115
3.8117e-06
1.49587e-09
8.71452e-07
3.76534e-07
6.21993e-08
3.8902e-08
1.82698e-07
1.20135e-08
0.0969689
6.7351e-08
1.1878e-05
0.00010928
1.11278e-08
2.59172e-06
5.37426e-06
1.96085e-06
1.46929e-07
0.000401829
4.58564e-06
3.89721e-07
4.13876e-05
3.38873e-06
8.21999e-06
3.31041e-06
8.22111e-07
1.07496e-07
7.48543e-06
0.00240841
1.37759e-05
8.21662e-07
6.01151e-06
6.31075e-07
6.79315e-06
6.77216e-05
4.22124e-06
1.83053e-06
3.47439e-06
1.12239e-06
4.20078e-05
8.55408e-08
4.63424e-06
0.0304482
0.000298545
0.245854
0.000547314
5.24696e-05
4.2707e-08
0.0454644
7.59701e-09
2.32773e-05
4.19223e-06
2.54144e-07
5.33867e-05
3.27427e-07
4.8209e-07
1.45521e-05
5.322e-07
4.96124e-08
6.23983e-06
4.64493e-07
1.59013e-05
0.0541188
2.56806e-07
1.74948e-05
1.18749e-06
5.19118e-07
6.47261e-08
0.000183591
3.79934e-05
7.87448e-07
6.40254e-09
4.33475e-07
0.032822
0.00014355
4.93471e-06
1.02413e-05
7.51283e-09
4.66884e-09
6.0202e-07
4.97477e-09
2.60036e-05
3.40321e-08
1.57028e-05
9.48354e-07
4.47844e-07
2.29806e-07
4.5073e-08
3.41516e-05
6.5743e-05
2.96691e-05
5.66809e-07
2.64359e-08
7.76898e-07
8.95291e-07
0.000389202
8.66305e-07
0.129725
1.05542e-05
2.14447e-08
5.28269e-08
0.000165875
4.92904e-06
0.000808436
3.04065e-07
5.92614e-05
0.165629
2.33103e-09
0.000231203
1.5922e-05
0.0314203
1.22447e-06
0.0350541
0.0613714
8.22978e-05
6.00545e-06
1.44649e-05
1.48169e-08
1.18486e-05
1.95277e-05
0.000264593
1.25343e-05
2.44288e-06
1.85261e-05
0.000301141
0.00024275
0.000344059
9.11925e-05
2.80384e-08
5.61214e-05
0.000621798
5.45106e-06
1.87608e-06
0.000177585
0.000152169
9.77597e-06
1.35109e-05
0.000182144
1.07078e-05
0.00023216
0.000132704
1.46306e-05
5.77839e-09
2.46333e-05
0.000289323
0.0494169
1.45149e-06
3.05057e-07
3.60688e-05
1.48714e-07
6.06785e-05
6.77656e-07
0.000274839
2.38627e-07
4.09132e-05
7.03581e-09
1.16546e-07
8.60243e-06
0.000663699
0.000836932
0.249593
2.92232e-05
1.30626e-06
5.2988e-08
0.000286838
1.16981e-05
0.0231434
0.0520018
2.19032e-08
0.000568732
1.35632e-05
1.83654e-06
2.83052e-08
0.000828999
4.11347e-07
0.0315713
7.51043e-08
1.43576e-08
2.13515e-05
6.57802e-07
4.53035e-07
3.05113e-05
0.0292014
8.38778e-06
1.50105e-07
2.15225e-05
0.15487
0.0296069
2.07024e-06
0.000193483
1.27895e-05
0.000387085
1.61387e-06
0.0276466
1.86104e-05
0.000124903
2.13868e-07
6.19023e-07
2.21579e-06
4.4548e-07
1.65969e-05
1.9273e-06
6.19317e-07
1.73102e-06
3.05343e-06
4.76789e-05
2.16551e-08
2.82975e-07
0.055302
1.45109e-08
1.88198e-08
3.06955e-05
6.13124e-08
0.000112291
2.58362e-05
0.0451985
9.31105e-06
0.184351
4.56946e-06
1.25969e-05
0.0294728
0.000107434
9.42406e-10
1.30092e-06
0.0206723
6.05533e-06
6.03265e-05
9.25089e-06
4.70691e-08
4.23973e-06
5.00261e-06
7.07672e-07
0.0901414
7.57008e-07
7.10938e-08
1.09574e-06
4.43116e-07
1.6891e-08
6.08405e-05
1.96508e-06
0.191256
5.49879e-05
2.53822e-05
3.26841e-05
4.1437e-05
5.25723e-06
1.60793e-06
4.6262e-09
2.67952e-07
4.048e-05
1.50688e-05
3.84655e-06
6.0303e-08
5.84672e-06
1.22414e-06
1.55785e-05
1.09313e-08
2.22116e-07
2.58304e-07
2.00699e-05
1.61834e-05
1.56042e-05
2.97281e-08
9.27158e-09
0.00117916
1.44816e-08
6.95936e-09
3.89291e-09
9.89887e-07
0.218431
3.28814e-07
3.63025e-05
4.9747e-05
1.24779e-05
1.25684e-07
6.98388e-07
0.000103725
4.79643e-06
1.17176e-07
2.34925e-05
5.72953e-09
2.90751e-09
1.67789e-09
6.90924e-05
8.39856e-08
0.231091
0.000379816
1.57923e-05
0.00132753
3.92782e-07
3.36213e-06
2.05607e-08
0.0437197
5.805e-06
3.04331e-06
1.10984e-06
1.75776e-07
4.72839e-08
0.337247
8.85077e-06
0.000234175
4.65512e-05
2.63099e-07
0.0853778
2.18629e-07
2.34528e-07
5.09641e-07
4.00604e-07
6.83863e-06
1.37792e-07
1.15418e-05
1.20192e-05
0.000272823
2.06067e-06
1.56475e-09
0.000136448
3.34783e-07
0.112621
1.99131e-06
1.14984e-07
9.7589e-07
1.5589e-05
0.044763
0.0219592
1.26567e-05
3.04312e-05
0.0668543
1.69802e-06
1.81065e-05
0.0324426
4.77362e-06
1.11011e-06
0.122239
0.0137589
8.72829e-06
2.23559e-05
1.29701e-08
2.51771e-05
0.00118477
3.12986e-06
6.95336e-06
0.000267278
2.75763e-09
0.0170911
1.42252e-08
2.22319e-05
0.138618
9.84049e-08
7.48374e-06
1.11239e-06
3.63753e-07
3.89564e-08
3.12268e-05
3.56174e-07
7.3759e-08
1.41836e-05
1.0489e-05
1.73651e-08
0.0171964
0.0324736
2.0489e-06
7.09299e-09
2.50539e-09
0.000104688
8.96327e-06
4.47447e-06
8.90702e-09
4.79104e-08
9.51891e-05
4.71754e-05
3.28622e-05
5.32055e-05
0.256697
4.78291e-09
0.106495
1.9626e-06
9.39634e-07
0.0385075
7.8719e-07
2.34584e-08
0.0168458
4.96085e-09
2.50251e-06
3.10768e-06
2.48936e-06
7.84329e-07
1.13647e-08
9.41429e-09
1.70599e-08
1.52964e-05
0.0979766
0.157756
1.34605e-05
1.70366e-06
3.99826e-09
0.0411263
0.159948
0.000177121
7.16054e-07
1.10516e-07
0.000695115
0.000169988
2.32128e-07
6.65404e-09
9.45391e-07
4.97304e-06
9.00938e-09
8.2727e-06
2.89356e-05
0.0442778
0.154621
1.55269e-05
0.000600492
1.35162e-08
2.32478e-07
9.73908e-06
0.000122506
2.42512e-05
0.000317041
9.87688e-06
8.42697e-06
1.45949e-08
6.15633e-08
9.6073e-06
0.0429738
3.29081e-07
0.132627
3.13086e-08
7.6335e-06
1.65065e-06
1.21812e-05
1.16291e-08
1.00687e-08
5.58511e-08
3.2932e-08
8.7445e-07
0.00022639
1.15218e-08
0.0275172
6.5936e-06
0.113718
3.61697e-07
1.64857e-06
1.13038e-06
1.28554e-06
9.35495e-06
2.67175e-08
1.88249e-08
4.08077e-08
1.80857e-06
6.347e-06
0.0398724
0.0386007
2.7e-06
7.67125e-07
1.79669e-08
4.92426e-09
2.55631e-08
1.14667e-06
0.000171108
1.49257e-07
3.17275e-08
8.3101e-09
0.0162062
2.07667e-05
3.16942e-05
0.0298029
4.86296e-07
0.219501
4.96799e-06
3.06123e-07
4.99416e-09
1.9346e-07
0.0394637
1.59664e-09
1.01305e-05
2.50824e-08
0.000498297
3.17299e-05
5.87443e-05
0.000103789
2.11204e-05
1.8819e-08
1.47689e-08
0.254609
2.46051e-05
2.49781e-05
0.000156082
3.85273e-07
5.59342e-05
7.53227e-05
2.24049e-06
2.41585e-06
0.000211688
6.77737e-08
0.000404056
0.0289027
1.31899e-06
1.51477e-07
5.9884e-05
6.97183e-07
0.0251655
0.13383
1.50015e-05
8.78406e-09
0.00294588
2.68688e-07
1.21988e-05
1.12223e-06
4.77019e-05
8.356e-09
0.000634267
4.42691e-05
7.59077e-05
1.09295e-05
8.27226e-05
2.16396e-05
4.39009e-06
4.52156e-09
0.000113201
1.7125e-05
3.41751e-05
2.92296e-07
6.91168e-06
8.85374e-05
0.000313224
7.28259e-09
6.28067e-08
5.21105e-08
7.69677e-09
1.11416e-07
0.0158729
0.000224637
0.000101916
2.32397e-05
0.000144804
6.0045e-05
6.10148e-09
5.86177e-06
1.01121e-08
3.81346e-07
1.66273e-08
1.34719e-05
0.00138108
1.33156e-05
1.12749e-07
1.38589e-08
1.09384e-06
1.06818e-07
8.83902e-09
0.103822
6.48284e-06
0.000476763
0.000703911
0.000530192
1.8212e-09
0.000469477
0.00051328
0.000949451
0.000519273
4.06173e-09
9.60171e-09
1.49184e-06
4.45206e-06
4.90156e-05
0.000235341
0.0290961
5.53837e-06
2.20606e-05
3.20454e-06
0.00037203
2.03955e-08
7.74949e-09
6.1533e-05
0.000240585
0.0192655
1.15676e-08
0.0844149
9.06411e-05
2.36807e-07
6.28151e-05
2.82716e-06
3.66382e-05
1.63212e-06
4.00386e-05
5.16857e-09
4.49568e-06
0.00156518
1.84735e-05
7.57838e-08
0.00126913
2.54841e-05
8.19941e-06
0.00233383
5.70748e-08
4.68857e-06
4.04824e-05
4.7271e-05
7.33148e-07
0.142095
3.95824e-08
6.81456e-07
2.89934e-08
0.0839861
0.0862641
1.50686e-06
1.43673e-06
9.73829e-05
0.0406352
1.23959e-08
3.79058e-06
4.93291e-06
8.24672e-06
9.30172e-07
0.144719
5.33278e-06
1.09515e-05
0.00256062
1.10905e-07
4.54854e-06
9.87008e-07
1.72507e-06
5.33061e-09
0.00177054
0.00289577
9.90839e-08
4.62839e-07
1.06466e-06
6.4298e-05
2.54294e-08
0.0293564
1.44217e-07
7.61168e-06
8.46057e-07
3.69553e-07
1.65676e-06
2.14585e-05
7.07443e-07
4.02849e-06
0.00017234
8.02659e-07
9.05711e-07
0.031758
5.44296e-07
2.84808e-06
1.9893e-06
6.71457e-06
2.32628e-09
3.83329e-09
1.15027e-08
2.94805e-06
5.9394e-08
0.0463566
1.64709e-05
3.92177e-06
8.10997e-09
6.10571e-06
0.0833084
4.1688e-05
5.8101e-06
1.8709e-05
8.69395e-06
1.79058e-07
7.09669e-08
1.67838e-05
9.69764e-07
2.41715e-06
0.000391688
3.15454e-06
3.91476e-08
2.49335e-08
1.5547e-06
5.09881e-08
3.01631e-06
1.45485e-08
3.74601e-06
1.19558e-05
1.76264e-07
1.14247e-08
0.033757
3.02404e-09
1.94036e-09
1.46312e-05
0.0416779
5.7638e-06
1.34147e-06
1.60878e-08
4.25001e-06
3.8259e-06
1.12282e-05
4.37594e-06
1.36151e-08
7.98322e-07
6.32083e-07
3.37665e-06
1.87375e-08
1.45471e-08
2.04867e-08
1.48766e-06
1.13225e-05
7.59566e-07
1.76069e-08
5.28419e-06
1.62072e-05
3.73771e-08
1.26076e-05
2.27466e-07
4.90101e-08
3.76581e-08
9.98691e-06
2.20695e-07
1.40172e-05
3.58467e-09
1.77182e-05
2.61282e-09
1.31143e-06
0.000246738
9.93682e-08
1.24953e-08
0.0501924
2.42447e-08
0.0413469
1.38837e-07
2.85586e-08
7.71671e-06
8.21221e-06
0.0320956
1.76687e-05
0.036831
0.0448135
7.49619e-05
3.01121e-06
0.029812
8.07105e-06
1.64395e-08
4.90303e-06
0.0973539
0.0273308
0.0311431
7.36135e-09
3.70969e-06
2.01648e-08
3.56614e-06
7.51999e-07
4.13584e-06
0.000122339
5.08315e-06
3.40844e-07
6.5861e-09
3.27969e-06
0.000211441
1.57983e-08
2.43917e-06
1.96454e-05
1.45839e-06
1.45298e-09
3.71641e-05
1.72417e-05
1.00814e-05
4.11875e-06
4.8752e-06
1.44834e-06
4.18726e-06
0.000100595
6.60359e-06
5.13735e-06
8.78292e-05
0.000330023
7.21871e-09
4.52964e-07
1.12603e-08
4.91535e-06
4.39913e-08
1.80375e-06
2.11735e-09
0.000259743
0.280901
0.0617539
8.0532e-05
1.88803e-09
6.69882e-06
0.0379229
0.0734856
6.70234e-07
0.000193018
1.53489e-06
3.56904e-07
3.77205e-07
7.7723e-09
4.75783e-06
2.6393e-05
7.52748e-08
2.52765e-08
5.5595e-06
1.32781e-07
0.125071
0.0398497
8.4728e-06
2.06373e-08
1.34554e-08
0.0310455
9.95457e-09
8.60046e-06
4.72493e-08
0.000435463
6.34988e-09
3.46122e-06
3.63646e-08
1.87017e-08
0.000771909
0.108396
0.0477145
1.76081e-08
0.0509308
5.11837e-08
8.19117e-06
1.09211e-06
0.0821761
2.19987e-07
8.47068e-05
1.00842e-08
1.36581e-06
0.000198546
8.08452e-07
9.75577e-05
2.97903e-08
1.21522e-06
2.27012e-05
7.54622e-06
2.21658e-06
2.65949e-07
2.33401e-07
2.26487e-06
4.44401e-07
3.05515e-09
3.96921e-09
0.0515873
0.0274619
3.77489e-08
0.057816
5.80287e-09
1.76919e-08
3.07391e-05
8.56219e-09
3.33523e-09
0.0270446
3.51923e-08
6.97746e-09
0.000433554
3.53255e-09
4.40015e-09
2.61497e-05
0.0662177
1.33906e-07
0.027396
2.36322e-08
2.82612e-06
0.0344729
4.25281e-06
0.000601508
2.13746e-09
4.00075e-08
7.73406e-07
7.9817e-08
0.148765
0.0312422
7.82379e-05
3.14565e-08
0.0341745
2.25398e-09
1.18518e-08
1.26712e-08
0.0735333
0.00126473
5.55146e-06
3.75837e-09
8.5861e-07
0.0355525
0.000648098
3.57736e-07
0.000183664
0.0773208
0.0590161
2.55264e-05
0.0591067
0.000663108
0.0315406
3.02032e-05
0.0464041
0.000247476
2.75472e-06
1.10967e-06
1.22489e-06
0.000330349
0.000652068
2.09253e-09
1.98779e-06
8.2517e-08
2.53838e-05
4.92852e-06
9.22024e-07
5.57386e-06
0.000213478
1.35398e-07
6.528e-06
6.40535e-08
1.33817e-08
5.94854e-08
3.28073e-08
3.75276e-06
2.12589e-08
4.90604e-08
5.21394e-08
7.92128e-06
3.09881e-05
3.69982e-09
1.4005e-08
7.11996e-08
1.25976e-07
7.56163e-07
0.000895651
0.0015023
9.03892e-05
3.42578e-08
1.96075e-05
3.87513e-06
0.0342249
2.3313e-05
9.19753e-06
3.34884e-07
7.14294e-07
1.87913e-06
0.000161591
8.47828e-05
0.126205
0.049597
4.6223e-08
0.000589896
0.000212252
1.67492e-08
1.28675e-06
4.78842e-06
3.50482e-08
1.13656e-06
2.71192e-06
0.0459224
2.12637e-09
4.70239e-05
3.47482e-08
0.0333978
3.92087e-05
0.0262187
2.0121e-05
1.92441e-08
4.50703e-09
3.5349e-08
1.82305e-05
1.83145e-05
2.40332e-06
5.03726e-06
4.303e-07
0.00047031
0.000196525
7.05472e-09
8.44743e-05
3.12596e-05
3.09765e-05
6.77595e-05
0.00207539
3.11681e-06
0.070456
5.19533e-08
3.51499e-06
0.0283123
1.62244e-08
0.000149248
0.00523463
2.2521e-08
6.94964e-05
3.7435e-08
1.54596e-07
1.75003e-06
2.08286e-06
3.42956e-08
3.87524e-09
4.96951e-07
8.87502e-09
1.09631e-09
8.97524e-05
1.00522e-08
5.44216e-09
1.91204e-05
1.29051e-08
7.98747e-08
2.02826e-07
0.000147475
1.44116e-07
0.000118167
1.37935e-07
3.72337e-08
1.6295e-05
4.7507e-05
0.000151428
0.0295866
5.75139e-05
2.15703e-05
1.68281e-06
0.224712
0.218469
6.33171e-08
1.6361e-05
2.21138e-08
0.0314992
0.028083
0.000285862
0.0619114
0.0505694
5.14484e-06
4.27273e-09
7.1095e-05
1.91811e-08
2.03881e-08
3.23334e-07