/*--------------------------------*- C++ -*----------------------------------*\
  =========                 |
  \\      /  F ield         | OpenFOAM: The Open Source CFD Toolbox
   \\    /   O peration     | Website:  https://openfoam.org
    \\  /    A nd           | Version:  10
     \\/     M anipulation  |
\*---------------------------------------------------------------------------*/
FoamFile
{
    format      ascii;
    class       volScalarField;
    location    "48";
    object      SgP;
}
// * * * * * * * * * * * * * * * * * * * * * * * * * * * * * * * * * * * * * //

dimensions      [1 -1 -3 -1 0 0 0];

internalField   nonuniform List<scalar> 
111485
(
1.40814e-09
1.70235e-06
5.55239e-07
5.77604e-12
1.40784e-07
2.50317e-09
2.6963e-07
1.06677e-08
2.59104e-07
2.43491e-08
5.08191e-07
2.07071e-08
1.31018e-07
0.00517133
1.33119e-07
2.70225e-07
0.00367624
1.60574e-05
1.67674e-08
2.52052e-08
0.000692771
2.32779e-10
5.0443e-08
1.75722e-07
9.0773e-07
2.15446e-09
2.10423e-08
3.15609e-07
4.87078e-08
0.000902601
6.94704e-08
3.14753e-09
6.32122e-09
2.55537e-08
1.3478e-05
1.80201e-06
0.00241813
0.00362986
4.26219e-05
7.01149e-08
0.000722328
1.63325e-08
5.34974e-08
2.02579e-06
2.89295e-07
3.9099e-08
1.22905e-07
1.51134e-08
1.29301e-07
1.45355e-08
2.91109e-08
3.57431e-07
1.03747e-08
1.77204e-07
3.48094e-08
1.16969e-09
2.80969e-08
4.18571e-10
8.70146e-07
8.5037e-09
1.84378e-08
5.82048e-09
1.8747e-06
1.09808e-07
1.50003e-07
5.3044e-07
6.7919e-06
2.48898e-08
1.42405e-06
3.03293e-06
9.51485e-07
2.01194e-06
2.15963e-07
1.7643e-06
5.78013e-09
2.63713e-09
1.11161e-09
1.47434e-08
1.98204e-09
4.783e-07
0.00496744
0.00922153
9.26884e-10
2.18143e-09
3.3374e-07
7.54436e-07
0.00249493
1.411e-07
4.38475e-06
1.43748e-07
2.87949e-08
1.29295e-07
9.05445e-07
7.6112e-09
3.99426e-08
4.24121e-10
0.000505063
2.7171e-07
3.00144e-05
8.30289e-06
5.19582e-10
5.60352e-08
3.54575e-08
2.2788e-07
1.30398e-07
2.56258e-07
1.91585e-10
3.7817e-09
2.5573e-07
1.17407e-05
8.67986e-07
2.1112e-08
2.45124e-07
1.36316e-06
5.60024e-09
6.35499e-09
1.5599e-09
1.64877e-07
4.71267e-07
1.57964e-10
1.14162e-09
3.36004e-06
0.00124904
4.51686e-08
8.27953e-07
0.00053082
1.97803e-06
3.07862e-07
1.75636e-11
5.55905e-06
2.83842e-06
3.6725e-07
0.000884789
3.1711e-06
1.47216e-06
3.63538e-09
2.00188e-10
1.19401e-08
2.16713e-07
4.21551e-07
1.37077e-06
3.09084e-09
0.00317026
1.74195e-06
6.04292e-07
5.1037e-08
2.30587e-10
8.1552e-10
2.22192e-09
1.95557e-08
6.01748e-07
0.000530798
0.00197828
2.63357e-07
1.18446e-06
1.52142e-09
7.53566e-08
3.00031e-06
1.61724e-05
1.09077e-07
8.05529e-11
5.18255e-09
7.23491e-07
1.11898e-06
1.34739e-06
9.57111e-07
1.19219e-07
0.000451772
2.74767e-05
2.21087e-06
4.09179e-11
2.10664e-09
0.00347447
2.70319e-11
6.35923e-09
6.59614e-08
8.19476e-09
1.61514e-07
4.04863e-09
1.00516e-07
1.49e-07
4.98171e-09
2.6423e-08
7.3637e-09
5.03278e-08
4.05702e-07
1.9581e-07
8.25011e-07
6.44665e-06
5.51995e-09
1.12685e-06
9.13481e-08
1.31596e-07
3.91449e-07
1.11511e-07
2.33427e-07
5.47007e-08
2.77723e-08
2.00856e-08
1.54853e-07
3.51283e-08
2.79598e-05
1.44961e-06
1.05664e-08
3.05503e-08
1.01718e-07
2.17823e-07
2.00347e-07
2.90169e-07
6.88424e-08
8.29342e-08
1.45532e-07
1.42261e-07
1.22351e-10
1.58052e-06
5.0611e-06
6.98577e-09
2.87959e-10
2.23323e-07
3.61494e-07
1.81269e-08
1.35316e-09
3.18965e-07
2.6588e-07
5.04218e-06
1.16246e-10
2.22129e-11
6.61783e-07
7.37836e-05
4.10004e-07
1.72524e-06
2.86004e-07
2.17552e-08
0.00255587
6.52096e-07
2.45414e-07
0.00284562
1.38363e-09
1.03639e-06
4.86824e-07
4.58577e-07
5.87666e-07
1.10582e-07
7.49336e-08
3.30437e-05
6.55928e-09
1.44422e-07
1.48666e-09
1.0894e-07
0.00240156
3.57369e-07
3.37907e-07
3.82978e-07
2.51983e-11
3.63549e-06
1.53815e-08
5.71063e-09
1.20228e-06
0.00180402
1.56104e-09
1.10218e-07
1.06994e-06
1.98265e-08
6.55638e-11
1.13219e-07
1.56746e-11
9.68858e-10
1.24519e-08
0.00297155
6.62039e-08
5.69392e-07
1.85139e-08
0.00311017
3.69006e-07
1.71386e-08
4.25081e-06
7.3726e-08
2.79925e-08
9.40225e-09
1.83079e-09
0.00203561
1.02792e-08
7.75835e-07
4.33208e-07
2.74707e-11
0.00382593
0.00466933
3.48702e-08
6.16606e-06
5.89671e-07
5.8294e-08
1.4516e-07
2.43889e-07
1.64562e-10
1.32199e-07
3.18175e-10
6.32276e-06
4.93593e-06
2.87081e-07
3.60616e-08
0.00606076
6.06002e-09
0.00144089
1.44775e-08
1.28032e-07
2.4078e-10
2.20265e-09
0.000461977
6.44789e-08
3.28139e-08
1.30178e-07
2.96276e-06
7.176e-09
4.5777e-07
7.73379e-10
3.91404e-09
8.69237e-08
7.27226e-05
0.00441251
5.90885e-08
1.38596e-05
1.76402e-10
1.0178e-09
4.48718e-10
1.4951e-06
2.74162e-08
1.48671e-08
5.71653e-08
1.32915e-08
1.32193e-06
0.00112863
9.79174e-08
1.00761e-08
5.65537e-08
3.26797e-08
0.0007958
9.2839e-07
1.0758e-08
1.62984e-08
1.52771e-08
2.42571e-07
2.68858e-09
0.00264772
4.35989e-06
8.57473e-09
6.64777e-08
4.8583e-06
1.18082e-08
0.000652052
2.5321e-09
2.12565e-07
1.06051e-07
8.84788e-09
3.61074e-07
1.75632e-07
6.85749e-09
9.12838e-09
2.08291e-08
5.13718e-08
0.00634455
5.44545e-07
1.35795e-09
0.000882313
3.30307e-07
4.20081e-10
8.77721e-09
2.21397e-09
0.000880195
1.23684e-05
0.000856222
0.000824261
6.27024e-09
2.16554e-10
2.92929e-08
5.08688e-08
3.45961e-11
1.83949e-07
4.71792e-08
2.8385e-07
5.06493e-07
2.54477e-06
8.45857e-08
1.25812e-05
2.61662e-08
9.10553e-08
9.02071e-07
1.22989e-08
1.25825e-05
5.51638e-09
2.35086e-07
5.73699e-08
0.000503781
1.99464e-09
1.29465e-09
0.00272062
1.21811e-07
0.00538823
7.80795e-09
1.12205e-07
6.18336e-08
1.32103e-10
9.7547e-08
8.28092e-07
1.67859e-09
0.00059658
8.33761e-08
4.94729e-08
1.66369e-08
3.17871e-10
1.3146e-05
3.44998e-10
1.62487e-07
6.68808e-08
1.45456e-12
1.7981e-08
9.10897e-07
0.00433049
2.5975e-06
3.90737e-11
1.44094e-06
1.75379e-06
1.78033e-06
6.64365e-07
1.17833e-05
4.4864e-08
1.95746e-05
9.81492e-07
0.00359008
4.18002e-06
3.80074e-09
1.34849e-07
2.55779e-08
1.94483e-09
2.43403e-05
3.89452e-06
1.38757e-06
2.95379e-08
3.11162e-08
2.34533e-07
3.64818e-09
0.00614944
3.80756e-08
6.03315e-07
8.43973e-05
1.68269e-06
2.5049e-05
1.23008e-09
0.00449313
0.00581336
4.11572e-10
6.51565e-07
5.25001e-06
2.00468e-06
6.19436e-11
4.80304e-07
4.33023e-10
0.00501108
1.34655e-06
3.71147e-07
2.08095e-06
5.38994e-07
4.63502e-09
8.49584e-08
1.35144e-08
1.33493e-06
2.93157e-09
1.7945e-08
0.000977567
1.74165e-06
1.79199e-09
1.98994e-09
7.30386e-06
1.54133e-09
3.14541e-08
7.97281e-08
6.74812e-11
1.05701e-06
1.66824e-09
0.00138479
8.49207e-09
4.47079e-08
3.12627e-09
4.26438e-06
8.87454e-09
0.00396976
3.92803e-07
0.00416019
5.66808e-10
1.14125e-06
4.68535e-08
6.0915e-11
0.00646746
0.00251478
5.32054e-07
6.95911e-08
5.65361e-07
1.4961e-08
2.54586e-07
5.99224e-09
6.94825e-07
0.00507372
1.05674e-09
2.03606e-08
1.94328e-06
3.25011e-07
0.000986902
1.04381e-07
2.00621e-06
3.06436e-08
2.80014e-08
1.32124e-05
0.00136537
2.3805e-07
9.69847e-09
2.219e-08
7.69112e-08
6.03234e-08
2.31129e-08
4.05564e-07
2.1063e-11
3.08136e-05
2.05565e-09
6.53012e-09
4.78979e-09
1.78419e-06
4.99757e-10
1.47928e-07
4.12243e-09
1.64204e-07
1.27285e-09
0.00205238
0.00198843
4.46284e-07
6.9282e-09
0.00108549
0.00142056
5.86233e-09
4.16552e-09
2.70096e-07
3.85002e-09
2.69867e-06
2.93531e-07
2.3082e-07
0.000795454
3.85768e-08
9.22889e-11
8.26704e-07
7.23522e-07
1.13156e-06
2.17142e-08
3.4075e-07
2.6029e-07
2.65231e-08
1.87756e-08
4.11809e-07
6.29199e-07
1.60631e-10
0.00225866
1.31696e-06
8.70808e-07
3.44382e-08
2.07201e-05
6.33554e-07
8.70427e-06
4.06097e-05
6.14761e-06
4.61447e-08
1.7011e-06
2.27719e-07
4.27438e-07
0.00201691
3.53103e-06
1.31339e-06
6.52398e-05
0.00135827
5.97121e-09
1.148e-06
8.13619e-08
6.16611e-07
1.09727e-08
8.76727e-06
4.95919e-05
9.32078e-06
3.00694e-06
4.65854e-07
1.95228e-08
6.17067e-09
3.43398e-06
2.89588e-08
1.45118e-09
5.38741e-11
9.07026e-09
7.6545e-10
3.95034e-07
3.00191e-11
0.000651099
2.74661e-07
6.17633e-07
0.00181339
0.00561972
1.01818e-06
3.20998e-08
0.000691463
6.9168e-10
3.93024e-07
3.29165e-09
9.94773e-09
8.02768e-07
4.58258e-07
0.00208426
5.17136e-07
4.02172e-09
6.43742e-08
6.03065e-07
0.00253006
1.40733e-07
5.37159e-07
1.04083e-06
0.00345439
0.000696064
5.43336e-08
3.38863e-07
1.31935e-07
4.36193e-08
1.54064e-07
1.627e-08
6.62081e-07
7.27039e-08
3.50579e-08
2.15239e-08
7.42381e-08
1.27517e-05
5.46102e-07
6.4884e-08
7.47047e-08
1.23101e-05
4.96049e-09
8.95369e-09
2.93918e-07
8.31679e-08
3.00356e-07
2.18306e-08
6.87766e-08
6.89334e-08
5.43998e-07
3.1531e-06
2.87608e-07
5.76012e-07
3.1054e-08
9.51124e-09
8.0083e-07
9.93213e-08
2.12952e-09
0.00129589
6.257e-10
0.00241365
1.00816e-06
0.000233449
1.31472e-08
0.000492524
8.19103e-08
2.20736e-07
3.27326e-10
1.86164e-07
5.99993e-09
4.1396e-10
2.01062e-08
0.00497996
2.1715e-06
5.65672e-07
0.000762504
2.27184e-09
4.17391e-10
1.12145e-07
2.9602e-08
1.48812e-06
9.76819e-09
2.40181e-06
6.48495e-10
1.32608e-07
2.31027e-06
0.00294917
9.21333e-12
3.68882e-09
2.95748e-08
3.67033e-10
2.27403e-06
9.09813e-09
0.00104531
1.33247e-08
1.12878e-09
4.48323e-09
0.000759285
9.06585e-08
2.85546e-06
1.87325e-11
8.43365e-05
1.55876e-05
0.00318821
2.53234e-10
2.56201e-09
8.4131e-08
4.75281e-07
7.52202e-07
9.57238e-06
6.44302e-06
4.59154e-06
1.0811e-07
0.00105399
5.29733e-07
2.00833e-08
1.45571e-09
2.46813e-08
4.93699e-09
3.78814e-09
1.14114e-09
2.63368e-11
3.42718e-08
1.36293e-09
8.4394e-09
2.0017e-08
3.04139e-09
9.40843e-09
4.77857e-09
1.48003e-08
4.25633e-09
3.11067e-07
3.03602e-07
8.78348e-09
7.24748e-10
4.25892e-07
2.14946e-11
1.55394e-06
3.24871e-08
7.95532e-08
2.95473e-09
8.5594e-11
2.24193e-10
4.53585e-11
3.20171e-07
2.09011e-09
1.18422e-08
3.86222e-07
2.21466e-10
2.80769e-07
1.418e-06
6.92408e-08
1.46868e-08
9.50833e-06
5.66239e-08
0.00443727
2.00007e-06
2.06143e-07
0.00376535
1.48013e-06
1.56603e-07
5.35144e-07
1.04343e-08
3.45585e-07
0.00169265
1.233e-05
1.35511e-08
3.91469e-09
2.45959e-07
1.53576e-06
1.77278e-06
1.36714e-06
7.62208e-11
4.74041e-13
1.26772e-08
6.73618e-07
7.18379e-08
6.9489e-08
3.26459e-06
4.64487e-08
5.97855e-07
1.54695e-10
2.85938e-09
0.000558343
2.01847e-07
4.80618e-09
2.0946e-09
8.91151e-07
2.26468e-06
3.38362e-08
8.19114e-09
0.000759966
3.59634e-11
5.51597e-07
0.00106068
6.47053e-10
0.00125275
7.64953e-07
0.000617688
8.86117e-06
5.53646e-09
5.17575e-07
3.36832e-07
0.000852479
9.92821e-07
2.2651e-05
0.00285747
2.06482e-06
2.64995e-07
2.11216e-08
1.12442e-08
0.00855742
0.00286189
3.18699e-09
0.00418703
2.80726e-07
2.95845e-06
6.38928e-07
3.71085e-07
2.07901e-05
7.07165e-07
2.44091e-07
1.28527e-07
1.33641e-08
2.36983e-08
0.00076577
3.6972e-09
1.0238e-06
6.08322e-07
9.86698e-10
7.602e-08
0.00383116
9.07217e-08
6.2901e-09
1.06491e-05
8.16232e-10
1.959e-08
0.0037235
7.83386e-09
0.00312989
0.00598942
2.28597e-05
3.76227e-07
1.87176e-08
6.2688e-08
1.05304e-06
4.63483e-06
2.04252e-05
5.3857e-06
7.88641e-08
0.000762802
1.98083e-06
5.96665e-10
6.37361e-06
5.20372e-06
1.15519e-05
8.35614e-06
1.6054e-05
3.0603e-06
1.0559e-10
1.29702e-06
7.13141e-09
1.38052e-08
2.66413e-05
0.00614144
4.34615e-09
5.60483e-09
5.73052e-05
6.24467e-05
4.20379e-11
1.12114e-05
9.89956e-09
2.28913e-10
3.46019e-10
7.70323e-09
1.06337e-07
8.23733e-09
1.36792e-06
0.000856389
5.60389e-11
1.36611e-08
7.90921e-05
0.00205636
1.4452e-06
1.26537e-09
0.000544609
6.994e-11
2.46831e-06
5.34353e-10
8.53112e-10
1.07777e-05
0.00229206
3.37645e-08
2.00129e-09
3.26753e-09
0.000593826
8.51532e-09
0.000388429
4.64464e-09
2.1586e-06
1.44327e-10
3.85289e-05
4.40635e-08
4.31222e-11
1.79258e-08
9.79651e-09
2.73152e-05
1.61899e-08
3.70704e-09
3.52936e-08
8.50347e-05
0.000907107
1.33038e-06
1.04792e-05
2.03927e-05
4.01353e-09
2.25122e-05
1.80619e-07
3.55987e-09
4.95063e-08
4.27368e-06
3.77611e-07
4.61157e-09
1.56566e-07
2.78838e-06
4.13905e-09
1.17356e-08
1.64835e-08
3.25819e-07
0.00125643
9.58604e-11
1.53119e-09
0.00101244
2.11911e-06
1.36007e-06
2.91966e-10
2.35247e-08
2.85621e-09
1.95705e-08
4.45997e-07
1.04457e-06
1.77691e-08
4.72955e-07
4.42245e-07
1.46854e-06
3.90164e-07
9.29548e-11
6.24093e-08
7.93482e-11
1.32502e-08
1.62569e-06
3.03151e-06
3.6371e-09
8.63851e-09
1.74104e-08
9.05414e-11
7.7799e-07
9.30394e-09
1.25882e-06
1.53085e-05
1.44549e-06
4.79813e-09
2.68948e-05
2.10117e-06
1.32968e-06
2.79253e-06
8.81039e-10
2.69738e-06
6.31761e-08
0.00206714
6.17272e-07
1.7993e-06
8.95153e-09
1.28987e-11
1.28328e-09
0.00328467
0.00125597
9.89305e-07
8.16897e-12
2.43094e-06
6.44824e-10
0.00304147
3.36665e-06
1.52187e-08
2.53375e-09
4.85686e-08
1.55983e-08
1.69288e-06
4.41442e-08
2.10276e-06
0.00549153
9.13823e-08
1.2916e-06
5.284e-07
1.33871e-06
9.26914e-07
7.85831e-09
1.16743e-11
7.96078e-08
5.7341e-07
4.74672e-09
3.7583e-09
1.08324e-05
6.84294e-09
5.63979e-08
0.00738014
2.70236e-08
1.21215e-06
1.22235e-11
8.30903e-08
3.79412e-09
0.00584113
3.90465e-10
0.00214945
0.000105607
2.32408e-06
3.30132e-07
3.03148e-07
1.78308e-05
4.60003e-08
1.0291e-07
4.83269e-08
8.81482e-09
1.29013e-08
3.82994e-08
1.52615e-06
5.64411e-08
0.00118882
4.63508e-09
9.69448e-08
5.78968e-06
9.31147e-11
7.3463e-06
4.58365e-09
8.51166e-07
1.41003e-05
2.34968e-09
3.98844e-09
1.17026e-06
9.75716e-09
1.68028e-07
0.00321136
9.99119e-09
1.82518e-07
1.32912e-10
0.000778552
1.59207e-07
1.2221e-08
1.13405e-08
8.10087e-08
1.32567e-07
1.41607e-09
0.00270455
2.05998e-08
5.05615e-11
2.28642e-06
8.18889e-09
1.35301e-10
8.21388e-07
1.59006e-05
1.46484e-05
4.39628e-10
3.4135e-08
8.41925e-10
9.84063e-07
8.68373e-07
0.000643251
1.06191e-07
1.45358e-05
1.25459e-06
2.06176e-05
5.25981e-07
5.39536e-08
2.20799e-08
1.29425e-08
1.30139e-06
3.97891e-08
1.42138e-07
0.000820171
5.23397e-06
0.000801464
4.27037e-11
1.79433e-07
1.79727e-09
1.40684e-06
1.68199e-06
1.131e-07
8.861e-07
8.91037e-06
2.69856e-06
1.54396e-11
0.000115821
0.00014416
1.87268e-06
7.72127e-07
1.9423e-08
1.54759e-05
3.69396e-08
7.25207e-08
7.13301e-09
1.18473e-09
4.38089e-06
1.53208e-07
1.64657e-05
1.51817e-08
0.000792905
1.13343e-05
1.60533e-08
1.97296e-08
1.11895e-05
5.8843e-08
0.00104031
0.00493556
2.31139e-06
4.22768e-06
1.11876e-07
6.17995e-10
5.01644e-10
2.91332e-09
1.21853e-06
8.54729e-08
0.000582785
0.00102662
5.66544e-07
5.61654e-09
5.66653e-06
0.000704173
4.61293e-07
2.10979e-05
4.41723e-05
0.000739195
0.00215059
0.000859548
2.61769e-06
1.58289e-10
3.59173e-05
3.17969e-08
3.41621e-09
4.58632e-09
5.49134e-09
5.23269e-07
1.3019e-09
3.30142e-09
1.56629e-06
2.33686e-09
2.47126e-10
1.71512e-08
3.35062e-09
0.00100099
1.16598e-07
6.18238e-07
0.00129166
0.0046497
1.99323e-09
0.00333603
3.3042e-06
0.0068811
1.22872e-07
1.36066e-09
1.89528e-09
8.06514e-07
0.00464615
3.77114e-11
2.28389e-05
3.08184e-09
8.72371e-08
2.89711e-07
2.33242e-07
2.649e-08
5.83664e-09
0.00131168
2.59068e-09
1.40937e-07
4.74843e-09
9.23127e-09
9.934e-09
8.87813e-06
2.18869e-06
1.98463e-08
6.56163e-06
3.94985e-07
9.89842e-09
2.31276e-06
2.20631e-08
6.53044e-07
3.76959e-09
2.3293e-09
0.004509
0.000743948
7.8572e-06
6.01228e-09
6.76544e-10
2.99497e-08
0.00344459
6.57931e-09
2.06953e-07
1.49155e-08
4.23478e-08
5.35321e-10
0.000597673
2.40166e-06
3.21557e-09
2.01011e-08
3.20984e-07
3.14413e-09
0.00318091
3.63609e-10
0.000756226
1.47472e-06
9.60903e-08
2.96577e-10
3.90239e-08
2.4954e-08
1.87786e-09
4.77729e-08
7.50018e-08
2.25353e-11
1.21924e-10
1.77371e-06
0.00136758
2.61132e-10
6.75193e-07
9.44908e-08
1.81543e-06
2.77264e-09
0.000821964
3.21222e-08
1.10548e-06
1.0638e-06
7.66491e-09
1.09681e-06
4.53989e-08
3.14057e-07
3.45645e-09
6.45386e-09
2.61727e-07
1.37251e-09
3.28407e-06
8.9406e-07
1.23879e-09
5.7668e-09
2.49369e-06
9.51763e-06
0.00545081
2.49846e-09
1.12102e-07
3.95452e-08
6.64825e-06
3.71353e-06
5.22516e-07
1.55977e-06
0.00135962
7.09453e-08
9.51115e-07
1.40908e-05
0.00115441
1.52673e-08
9.33565e-10
7.35123e-06
2.11625e-08
0.000707508
4.90291e-09
2.09286e-07
2.31681e-08
4.33999e-09
0.00410039
1.1827e-09
1.08679e-08
1.51158e-08
4.67627e-07
0.0054087
0.000971274
8.7657e-09
2.42252e-09
7.46632e-11
1.11158e-08
1.06746e-08
1.74664e-08
2.98649e-09
1.34191e-10
3.9068e-09
1.92778e-10
5.39361e-09
0.00106602
0.000635182
2.08618e-10
2.61007e-07
4.08707e-09
8.41029e-09
2.09703e-09
0.000622969
0.0015455
1.95901e-07
4.37118e-09
1.38132e-09
1.65514e-08
3.41202e-08
8.82732e-08
5.82021e-09
6.43762e-06
5.00021e-09
5.40996e-08
9.07293e-08
3.18559e-06
9.71705e-08
1.36925e-05
4.23354e-08
4.88187e-09
8.35399e-06
7.94943e-06
6.11182e-09
4.87534e-07
6.30374e-08
2.38289e-07
8.18247e-07
1.75106e-07
7.39142e-08
3.46439e-09
0.00583225
2.2137e-08
9.7279e-07
0.00106923
2.44078e-06
2.67793e-07
3.31078e-07
6.03319e-08
1.38428e-08
5.12913e-07
1.52681e-06
1.39089e-06
8.03861e-08
7.93282e-07
7.09707e-08
3.64935e-08
1.41305e-08
1.48018e-10
7.89436e-09
5.61285e-10
1.01416e-11
2.75885e-09
1.65929e-08
1.13676e-07
2.37082e-09
3.56316e-11
8.11486e-09
3.09953e-07
6.46341e-09
2.13999e-10
1.46894e-08
4.15439e-08
2.38963e-09
1.8624e-06
1.30455e-07
0.00437896
2.25099e-09
2.05028e-07
3.67461e-07
7.90959e-08
4.04533e-10
1.04731e-08
0.00396441
9.41119e-09
2.91797e-10
6.49056e-08
0.00398101
1.50397e-08
1.13112e-06
1.11919e-06
2.99171e-08
1.75662e-07
2.12854e-07
6.9131e-06
2.6724e-10
8.27756e-07
1.05569e-07
3.61705e-09
5.23155e-06
7.25023e-06
0.0034685
1.35876e-07
3.03672e-08
1.91794e-07
6.97899e-07
3.56615e-07
1.22877e-08
4.39072e-05
3.95807e-09
1.28767e-05
6.88559e-06
0.00113131
1.43081e-07
0.00456725
4.87463e-09
1.90881e-08
1.02588e-07
3.95231e-07
9.98651e-07
7.15777e-08
2.54567e-06
9.61949e-10
1.66083e-07
4.14176e-10
2.17575e-10
2.57002e-08
7.71504e-06
5.47495e-09
3.71738e-10
8.0627e-06
5.44128e-09
9.65208e-06
4.59566e-08
1.5191e-08
3.02313e-08
2.85969e-09
3.66215e-07
9.82291e-08
3.74363e-06
9.15794e-09
1.26589e-07
6.31422e-05
3.1111e-08
3.17732e-10
2.70178e-06
6.54545e-08
5.99574e-07
8.76793e-10
0.00253828
2.30175e-06
9.71744e-07
3.66976e-08
6.26681e-09
3.76921e-06
1.00411e-07
2.75161e-09
7.93449e-11
1.25776e-06
1.41466e-06
1.50629e-06
0.00343211
8.49875e-08
1.46863e-07
4.71702e-06
1.44986e-07
1.0892e-07
4.13113e-08
1.23718e-06
4.8106e-08
2.26444e-06
0.00324664
2.7409e-07
3.16531e-13
5.54306e-08
1.08599e-06
2.66905e-07
4.83702e-09
1.13045e-05
1.52069e-05
8.57299e-06
1.7381e-05
3.58041e-07
9.0199e-07
2.34264e-07
3.84606e-07
6.38787e-09
4.19679e-10
0.00187512
9.4714e-06
3.8807e-08
2.56679e-05
1.0868e-07
5.257e-07
8.92578e-06
8.55192e-08
4.97401e-08
5.96291e-08
6.6101e-10
7.82554e-07
6.00635e-07
2.28569e-06
7.24866e-07
6.2556e-09
8.50884e-09
4.1909e-07
1.80453e-08
5.5002e-10
5.99002e-06
8.99201e-08
1.82473e-07
8.21463e-07
6.66708e-08
2.81447e-09
9.78366e-06
0.00242984
1.34356e-08
4.14912e-10
1.02653e-10
0.00253899
0.00438567
7.34563e-09
0.00100116
1.64993e-07
4.186e-07
1.46093e-07
1.62885e-07
2.48997e-07
3.08734e-07
6.07653e-07
0.00195957
0.00599032
0.0069104
2.16164e-07
5.95426e-07
2.35923e-07
1.44528e-07
0.00635422
6.2822e-10
0.00306232
4.43263e-07
6.10492e-10
6.98947e-09
1.01638e-08
7.37176e-09
1.44793e-09
3.73062e-09
1.20598e-09
0.00242423
1.22916e-09
7.09943e-07
3.64896e-06
4.29671e-10
8.71865e-08
1.25514e-07
1.05351e-07
2.05175e-09
1.08523e-05
1.02829e-07
2.16454e-08
1.48958e-06
1.04989e-07
6.3639e-07
1.22353e-07
1.95358e-08
3.33583e-09
3.80909e-07
5.67304e-05
9.27891e-07
9.03966e-09
3.17411e-07
1.9655e-08
4.89494e-07
2.39315e-06
2.47708e-07
9.89837e-08
8.85053e-08
2.22806e-08
1.05967e-06
8.84821e-09
2.26197e-07
0.000764476
7.35557e-06
0.00577271
1.2971e-05
1.82394e-06
2.67379e-10
0.00114893
7.8647e-10
1.14554e-06
1.27691e-07
2.3044e-07
1.62927e-06
1.32176e-08
5.79457e-09
7.53257e-07
1.86921e-08
1.6616e-09
4.78251e-07
1.01356e-08
4.60538e-07
0.00131566
4.52957e-09
6.9143e-07
2.55989e-08
2.20095e-08
2.99356e-10
4.27411e-06
1.76863e-06
8.57187e-08
7.09586e-09
2.23031e-08
0.000831514
3.94338e-06
2.19776e-07
3.10828e-07
6.49463e-11
3.49011e-12
1.30103e-08
3.10748e-10
8.68276e-07
5.62354e-09
3.94281e-07
3.22939e-08
6.1623e-09
9.76123e-08
6.46909e-10
1.09958e-06
1.53036e-06
8.32484e-07
8.6241e-09
2.08483e-09
1.9903e-08
3.26075e-08
9.93062e-06
2.89061e-08
0.00283371
5.01655e-07
4.01382e-09
6.24075e-09
4.12854e-06
2.77933e-07
1.98947e-05
3.19005e-08
1.92143e-06
0.00412949
2.8614e-10
5.75331e-06
3.576e-07
0.000796127
2.88466e-08
0.00088637
0.00154928
2.18669e-06
1.35642e-07
3.26642e-07
8.06093e-10
2.82595e-07
4.6629e-07
6.40495e-06
3.26847e-07
9.03136e-08
4.37306e-07
7.04825e-06
6.31051e-06
8.21465e-06
2.74613e-06
1.88043e-09
1.73758e-06
1.47973e-05
1.03424e-07
6.23923e-08
4.22326e-06
3.58362e-06
2.85224e-07
3.1625e-07
4.52483e-06
2.83001e-07
7.05165e-06
4.52938e-06
3.85008e-07
6.58462e-10
6.4463e-07
8.06537e-06
0.00123977
4.73949e-08
2.10402e-08
7.91899e-07
2.65492e-08
1.41993e-06
1.513e-08
6.83591e-06
9.46583e-09
1.62375e-06
4.49823e-09
3.58136e-09
2.34666e-07
1.64512e-05
2.29633e-05
0.00594412
2.44615e-07
2.95642e-08
1.89387e-09
7.69734e-06
4.23399e-07
0.000562506
0.00131328
1.8579e-11
1.40012e-05
1.28714e-06
8.80962e-08
1.04475e-08
2.26923e-05
2.02488e-08
0.000799701
4.05065e-09
2.71441e-10
5.2725e-07
2.02328e-08
3.40098e-08
6.93413e-07
0.00073695
3.57917e-07
1.6164e-08
1.65428e-06
0.0038837
0.00071926
1.04151e-07
5.33149e-06
4.59447e-07
1.00726e-05
8.9787e-08
0.000698376
8.65041e-07
3.4948e-06
3.17364e-09
1.09492e-08
8.67458e-08
1.39191e-08
3.80215e-07
3.24878e-08
1.22161e-08
4.46702e-08
8.36018e-08
1.79989e-06
5.48054e-10
1.18873e-08
0.00134084
1.64775e-10
1.63496e-09
8.03989e-07
8.44626e-09
4.44809e-06
6.22648e-07
0.00110273
3.74072e-07
0.00458799
2.84777e-07
3.63588e-07
0.000745019
3.12947e-06
9.29647e-12
1.6401e-08
0.000523468
2.32535e-07
1.57358e-06
3.22391e-07
1.36963e-09
1.32544e-07
1.49847e-07
1.9896e-08
0.00223869
3.55871e-08
2.29295e-08
4.49142e-08
1.2338e-08
1.09205e-09
1.72021e-06
5.95104e-08
0.00480383
1.63238e-06
6.4234e-07
7.84939e-07
1.00371e-06
3.72833e-07
5.72479e-08
1.13633e-10
7.2196e-09
1.7485e-06
3.82283e-07
7.32524e-08
5.63051e-09
2.50594e-07
1.88445e-08
9.33038e-07
6.25649e-09
1.32518e-08
2.88744e-08
5.83386e-07
4.2416e-07
6.22768e-07
4.78754e-09
4.97827e-09
3.24127e-05
7.00998e-09
1.49191e-09
1.597e-10
1.9748e-08
0.00544438
5.32134e-09
3.24144e-06
1.28642e-06
4.47363e-07
3.19842e-09
1.69313e-08
3.8299e-06
1.45178e-07
4.7923e-09
8.0293e-07
2.21389e-09
1.66973e-09
5.78464e-10
1.57848e-06
4.88684e-09
0.0057664
9.2879e-06
6.94516e-07
3.45501e-05
5.42433e-09
3.07914e-07
9.65289e-10
0.00110659
1.57014e-07
1.11901e-07
3.35479e-08
2.09813e-08
1.25707e-09
0.00839502
3.5786e-07
9.05904e-06
1.25623e-06
2.23e-08
0.00214841
1.57236e-08
6.42291e-09
1.0588e-08
1.03465e-08
8.32455e-07
1.08375e-08
4.70719e-07
5.44285e-07
1.00689e-05
5.5787e-08
3.02049e-10
3.21045e-06
9.62813e-09
0.00274628
5.14026e-08
5.86475e-09
2.77989e-08
3.57087e-07
0.00114294
0.000558916
3.40085e-07
9.54408e-07
0.00167385
6.05293e-08
5.66414e-07
0.000784298
2.2198e-07
1.07835e-07
0.00303503
0.000348768
1.70843e-07
6.39114e-07
1.68874e-09
7.39662e-07
3.01851e-05
1.88224e-07
1.75389e-07
6.50225e-06
3.38097e-10
0.000430889
2.55514e-09
4.96728e-07
0.00343669
2.59918e-09
2.22921e-07
1.12018e-07
9.00572e-09
1.0289e-08
9.94554e-07
1.22251e-08
2.80095e-09
6.17377e-07
2.12902e-07
8.79293e-10
0.000432117
0.000820492
1.82877e-07
7.62375e-12
1.37706e-10
2.55959e-06
2.89596e-07
9.3803e-08
5.21754e-09
1.00178e-08
2.49285e-06
1.3907e-06
8.80699e-07
1.65192e-06
0.00638629
1.21823e-10
0.00246822
3.33395e-07
9.42038e-08
0.000939761
2.85962e-08
9.87214e-10
0.000426421
7.46165e-11
1.25478e-07
1.06759e-07
5.14318e-08
1.72486e-08
6.49953e-09
1.80688e-10
6.2963e-10
3.69388e-07
0.00231344
0.00373102
7.50167e-07
6.75096e-08
4.94882e-12
0.00104275
0.00397856
5.80328e-06
2.40674e-08
6.3956e-09
2.17627e-05
4.03244e-06
3.64904e-09
5.84039e-10
1.75707e-08
1.35119e-07
2.39174e-09
1.75575e-07
1.36127e-06
0.00111283
0.0035946
1.00391e-06
1.30751e-05
2.26399e-10
1.17902e-08
5.31496e-07
2.4305e-06
5.29051e-07
7.73662e-06
1.64697e-07
2.57838e-07
2.05563e-09
9.66601e-09
2.76932e-07
0.00108573
6.16838e-09
0.00313137
7.82619e-10
2.07043e-07
4.51207e-08
3.44576e-07
5.96984e-10
3.29213e-11
1.09939e-08
1.17046e-09
4.7405e-08
6.02935e-06
6.601e-09
0.000690488
3.20791e-07
0.00280935
2.64628e-08
4.63296e-08
3.05009e-08
3.83022e-08
2.02403e-07
2.35109e-10
1.01484e-09
8.54172e-10
6.90652e-08
1.52451e-07
0.000963346
0.000937464
9.83588e-08
1.81902e-08
1.06202e-10
5.38289e-11
4.38425e-10
1.96107e-08
3.62251e-06
7.68239e-09
3.03999e-10
1.05065e-10
0.000407931
7.40619e-07
9.0674e-07
0.000756395
1.45681e-08
0.00547082
1.41921e-07
1.44546e-08
1.79398e-11
4.8357e-09
0.00100054
1.56926e-11
4.68335e-07
9.00818e-10
1.13467e-05
7.72803e-07
1.62365e-06
2.41899e-06
4.96508e-07
6.97758e-10
4.62111e-10
0.00633642
6.91818e-07
6.10298e-07
4.39691e-06
1.6291e-08
1.62995e-06
1.57915e-06
5.1423e-08
9.24141e-08
5.74528e-06
6.27782e-09
1.19847e-05
0.000728447
3.59397e-08
6.96034e-09
1.45723e-06
1.46516e-08
0.000635793
0.00319939
4.43451e-07
7.6205e-10
6.82486e-05
5.82851e-09
2.47841e-07
3.50619e-08
2.24105e-06
4.85155e-11
1.72809e-05
1.62821e-06
2.52938e-06
4.511e-07
2.12457e-06
5.12527e-07
1.17726e-07
2.68845e-11
3.20671e-06
1.14763e-06
1.10063e-06
2.07849e-08
1.71675e-07
2.10732e-06
7.78692e-06
1.93284e-10
4.26995e-10
1.6248e-09
1.9106e-11
2.18037e-09
0.000395358
8.2563e-06
2.51189e-06
9.64221e-07
3.75622e-06
1.65379e-06
6.42543e-12
3.37633e-07
3.73447e-10
9.48066e-09
1.47166e-09
3.99425e-07
3.80903e-05
4.16018e-07
2.38975e-09
4.74394e-09
2.93776e-08
7.51597e-09
2.6039e-09
0.00259637
1.94224e-07
1.16562e-05
1.77168e-05
1.30041e-05
1.30877e-09
1.00235e-05
1.22176e-05
2.2576e-05
1.24043e-05
6.40557e-10
4.24154e-11
3.06582e-08
2.15198e-07
1.1844e-06
6.33559e-06
0.000705789
4.13588e-07
5.62318e-07
7.29519e-08
1.02184e-05
3.92959e-09
9.95261e-11
2.13215e-06
7.0242e-06
0.000488565
2.17747e-10
0.00207839
2.08774e-06
1.43962e-08
1.50728e-06
1.06899e-07
2.03018e-06
4.93722e-08
1.94565e-06
5.76574e-09
1.47528e-07
3.98057e-05
7.43951e-07
1.46295e-08
3.22686e-05
9.04229e-07
1.79923e-07
6.0157e-05
1.35478e-09
1.97761e-07
9.40446e-07
1.69506e-06
1.25518e-08
0.00338153
2.70037e-09
2.88714e-08
4.13537e-09
0.00209062
0.00206766
4.50687e-08
4.61186e-08
3.06585e-06
0.00102865
1.08443e-08
1.73513e-07
5.66826e-07
2.05487e-07
2.62814e-08
0.00340102
1.95014e-07
3.58194e-07
7.70482e-05
1.50094e-09
1.16147e-07
3.40896e-08
4.44917e-08
5.15268e-10
4.55809e-05
6.62838e-05
1.66732e-09
1.62467e-08
3.19749e-08
1.77795e-06
3.51607e-10
0.000737174
1.08869e-08
2.26061e-07
1.46248e-08
1.37181e-08
4.55491e-08
7.0197e-07
2.97923e-08
9.28616e-08
4.24441e-06
2.30707e-08
2.60815e-08
0.000800092
2.17061e-08
5.55339e-08
5.90362e-08
5.03143e-07
3.28117e-11
4.69182e-10
4.48482e-11
1.98046e-07
1.17787e-08
0.00112138
3.60566e-07
3.83793e-07
8.84126e-10
5.5388e-07
0.00206862
1.66419e-06
2.32267e-07
1.0148e-06
2.05282e-07
6.26391e-09
7.03208e-09
3.3517e-07
3.7689e-08
4.72919e-08
8.8519e-06
2.15562e-07
2.0947e-09
5.69802e-09
2.97409e-08
1.33035e-08
1.23907e-07
9.53553e-10
1.44389e-07
2.8037e-07
5.06315e-09
2.62544e-11
0.000852916
1.43039e-10
1.04985e-10
4.79392e-07
0.00105457
5.59169e-07
3.96222e-08
6.24448e-10
2.38548e-07
1.02623e-07
5.16374e-07
9.55325e-08
1.90301e-09
3.26807e-08
1.51361e-08
1.03981e-07
1.10736e-09
6.67865e-10
8.28633e-09
6.84748e-08
3.29112e-07
2.57528e-08
3.60368e-09
1.29083e-07
1.08113e-06
2.55823e-09
5.70173e-07
9.79428e-09
1.71207e-08
5.96617e-10
9.48633e-07
2.94994e-09
3.66155e-07
5.30808e-11
4.54947e-07
5.32116e-10
2.945e-08
6.10198e-06
2.39969e-09
1.09716e-09
0.00126599
9.73215e-10
0.00104165
1.00034e-08
1.17302e-08
2.00813e-07
4.21567e-07
0.000774573
1.53404e-06
0.000922635
0.00112104
1.79504e-06
1.7725e-07
0.000752147
1.94568e-07
5.07803e-10
6.02914e-07
0.00236732
0.00068823
0.000781318
5.61746e-10
1.72881e-07
1.52044e-10
1.18414e-07
1.79495e-08
1.22429e-07
3.14823e-06
1.57023e-07
1.96457e-08
3.93046e-09
8.03807e-08
5.39774e-06
1.18805e-09
2.13312e-07
6.25307e-07
3.95827e-08
1.26093e-11
1.1983e-06
6.27344e-07
5.55526e-07
4.50601e-07
4.08059e-07
9.45503e-08
2.45429e-07
2.81292e-06
1.57828e-07
1.15577e-07
2.22304e-06
8.29282e-06
1.3879e-10
1.77111e-08
3.87591e-09
3.59061e-07
1.86421e-09
4.95834e-08
6.27245e-12
7.39203e-06
0.00693091
0.00150835
2.55938e-06
3.87359e-10
2.06461e-07
0.000918476
0.0017929
2.54889e-08
4.88709e-06
4.90484e-08
1.07603e-08
7.63141e-09
2.40377e-09
2.68974e-07
7.67249e-07
8.58194e-09
8.52042e-10
2.91964e-07
1.05482e-08
0.00311359
0.00100849
2.21103e-07
2.31998e-10
3.06315e-09
0.000786964
4.7238e-10
4.97817e-07
1.00341e-08
1.10001e-05
3.25978e-10
1.29307e-07
8.1355e-09
3.84465e-09
2.00076e-05
0.00268412
0.0012055
2.66563e-08
0.00127909
7.01158e-10
2.55917e-07
2.97595e-08
0.00200934
7.81539e-09
3.06293e-06
4.30855e-10
5.40555e-08
4.94753e-06
2.45637e-08
2.72496e-06
4.86108e-09
2.5078e-07
6.05835e-07
2.94556e-07
6.43599e-08
1.08679e-08
7.12515e-09
6.05366e-08
2.41307e-08
4.19005e-09
2.49443e-09
0.00125145
0.000691121
2.80452e-09
0.00139197
1.94173e-10
5.59868e-09
7.80946e-07
1.18479e-08
1.03482e-10
0.000647969
2.37317e-09
6.9021e-11
1.07432e-05
1.59205e-10
2.99669e-11
1.02857e-06
0.00156524
3.75051e-09
0.000694135
7.76999e-10
3.8079e-08
0.00083276
1.24157e-07
1.66877e-05
2.07315e-11
3.02062e-09
2.30414e-08
3.89369e-09
0.00369618
0.000756753
1.9555e-06
8.6551e-10
0.000864188
1.64932e-10
6.51737e-09
8.52261e-10
0.00174488
3.45534e-05
2.16787e-07
2.50024e-11
1.72129e-08
0.000899341
1.87546e-05
7.58951e-09
4.53247e-06
0.00185376
0.00143098
6.49628e-07
0.00144927
1.8184e-05
0.000795312
7.27254e-07
0.00113877
6.00061e-06
7.77239e-08
3.51843e-08
4.3849e-08
7.82157e-06
1.63757e-05
1.17137e-10
1.05701e-07
1.8554e-09
7.51529e-07
1.57818e-07
2.78406e-08
1.63972e-07
5.41901e-06
4.61208e-09
1.77509e-07
6.88629e-09
4.77091e-10
1.86902e-09
8.86629e-10
8.93952e-08
1.99608e-09
1.33273e-08
2.05998e-09
2.67896e-07
7.61423e-07
7.17912e-11
4.8022e-11
1.06945e-09
2.1805e-09
2.29038e-08
2.10558e-05
4.01436e-05
1.9081e-06
1.34987e-10
5.71376e-07
1.45999e-07
0.000861817
5.26304e-07
3.00137e-07
9.39141e-09
1.67673e-08
5.07844e-08
3.90579e-06
2.00921e-06
0.00315656
0.00124968
1.46562e-09
1.4235e-05
5.52916e-06
8.64015e-10
4.56842e-08
9.04071e-08
1.9639e-09
3.88433e-08
7.97529e-08
0.00115007
2.69828e-11
1.5584e-06
3.06177e-09
0.000814037
9.70521e-07
0.000664158
6.27755e-07
8.53809e-10
1.16266e-09
8.85114e-09
4.87276e-07
3.43151e-07
7.47269e-08
1.62936e-07
1.88882e-08
1.44676e-05
5.35368e-06
2.57951e-10
2.01614e-06
9.61604e-07
8.45305e-07
1.70404e-06
5.72611e-05
8.09446e-08
0.0016986
5.78675e-09
1.14686e-07
0.000713299