/*--------------------------------*- C++ -*----------------------------------*\
  =========                 |
  \\      /  F ield         | OpenFOAM: The Open Source CFD Toolbox
   \\    /   O peration     | Website:  https://openfoam.org
    \\  /    A nd           | Version:  10
     \\/     M anipulation  |
\*---------------------------------------------------------------------------*/
FoamFile
{
    format      ascii;
    class       volVectorField;
    location    "48";
    object      U;
}
// * * * * * * * * * * * * * * * * * * * * * * * * * * * * * * * * * * * * * //

dimensions      [0 1 -1 0 0 0 0];

internalField   nonuniform List<vector> 
111485
(
(0.200111 -0.200227 0.000357957)
(0.567967 -0.00141797 -0.00374478)
(0.561674 0.00129607 0.00175016)
(0.200482 -0.200534 9.94349e-06)
(0.584003 0.00262247 -0.000172829)
(0.199422 0.19938 3.96323e-05)
(0.573808 0.00142683 0.000300983)
(0.588484 -0.00141409 0.000868221)
(0.574405 -0.00029918 0.000388286)
(0.586147 -0.00598838 -0.00249095)
(0.565134 0.00134219 0.00161828)
(0.591923 -0.00115395 0.00283452)
(0.556655 0.000192391 0.00118428)
(0.561142 -0.00147131 -0.00379021)
(0.570245 0.00217157 0.00118044)
(0.580564 -0.0034462 -0.0021785)
(0.572357 -0.000559764 0.000669834)
(0.205451 -0.0240436 0.0333259)
(0.585417 0.00153328 -0.00133216)
(0.197959 -0.197628 -4.3848e-05)
(0.198484 -0.198474 -0.000280184)
(0.2001 0.200029 9.52537e-06)
(0.578812 0.00142138 -0.000303007)
(0.586889 -0.00383598 -0.00111256)
(0.576106 0.00279892 -0.000971635)
(0.201853 -0.201065 -0.000299201)
(0.594146 -0.00250141 0.00316243)
(0.562568 -0.000951936 1.59852e-05)
(0.586634 0.000783067 -0.0015152)
(0.199437 -0.199496 1.70693e-06)
(0.591259 0.0109337 -0.00305048)
(0.583867 -0.00106535 0.000181143)
(0.198126 -0.198602 0.000328145)
(0.199753 0.200124 -0.000504646)
(0.200753 0.082026 0.0345183)
(0.200691 0.201823 -0.00281332)
(0.588844 0.01065 -0.00441142)
(0.56959 0.000828971 0.00506068)
(0.5815 0.174254 0.0113077)
(0.584009 0.00302665 0.000412499)
(0.196574 0.198198 -0.0013955)
(0.590896 0.000545865 -0.00360592)
(0.583175 0.00318608 0.00115044)
(0.562597 -0.00435654 -0.000854249)
(0.589506 -0.0107106 -0.00526205)
(0.199677 -0.198553 0.00122413)
(0.59074 -0.00258378 0.00286244)
(0.586065 -0.0035253 -0.00101751)
(0.590822 0.000108503 -0.00275541)
(0.199137 -0.196931 0.00120031)
(0.197755 -0.195892 0.00126414)
(0.228033 0.191107 0.00312469)
(0.197018 -0.196415 0.00067494)
(0.590697 0.00262954 -0.00537192)
(0.196666 -0.195746 0.000169603)
(0.583412 0.00150017 -0.000609685)
(0.583092 -0.00256713 -0.00104415)
(0.200069 0.199793 4.24329e-05)
(0.531238 -0.00120647 -0.00940925)
(0.586221 0.00240507 -0.000330812)
(0.585962 0.00271101 -0.000223835)
(0.199653 -0.199984 0.000247393)
(0.542309 0.000577845 0.00362431)
(0.593622 -0.00123128 0.00457403)
(0.206087 0.186291 0.000180993)
(0.535865 0.00100571 -0.00135282)
(0.410955 -0.0373562 0.0142013)
(0.587989 -0.00191644 0.00086739)
(0.528879 0.000333734 0.00180109)
(0.499531 -0.00112135 0.000253159)
(0.56547 0.00456567 -0.00348214)
(0.523825 -0.0010017 0.00188133)
(0.214878 -0.194259 -0.00423624)
(0.536234 0.00105407 0.00423665)
(0.199885 -0.199761 7.58153e-05)
(0.585181 -0.00117036 0.000583236)
(0.200003 0.200067 -5.49065e-05)
(0.591028 -0.00123077 0.0031514)
(0.199865 0.19978 -4.90907e-05)
(0.178502 0.17337 -0.00628178)
(0.56849 -0.00881668 0.00591858)
(0.585732 0.00212872 0.000485992)
(0.198946 0.198546 -2.89852e-06)
(0.199828 -0.19979 9.29241e-05)
(0.552881 -0.000143408 0.00103741)
(0.530873 0.00144565 -0.00227206)
(0.453217 0.288774 -0.0804194)
(0.582541 0.00726546 0.00063102)
(0.560449 0.0149945 0.0136758)
(0.567352 0.000869557 0.00165778)
(0.599013 0.0110159 -0.00730252)
(0.584784 -0.000961522 0.00104853)
(0.545893 -0.000991125 0.00195969)
(0.554948 -0.000559339 0.000553169)
(0.591867 0.00171028 -0.00376293)
(0.199881 -0.199861 1.94773e-05)
(0.199184 -0.199066 0.000150955)
(0.582343 0.00677274 0.00202556)
(0.608622 -0.127096 0.00342108)
(0.549748 0.00534061 -0.00164393)
(0.199813 -0.199822 9.0535e-05)
(0.58517 -0.00319793 0.000500115)
(0.200924 0.201225 0.00109942)
(0.580098 2.10736e-05 -0.000309271)
(0.573658 -0.0025864 -0.00326555)
(0.19644 0.174404 -0.00435888)
(0.200198 0.200099 -6.89142e-05)
(0.58413 -0.00131763 -5.80845e-05)
(0.540241 -0.0030286 0.000411852)
(0.518135 -0.0152959 -0.0165552)
(0.553262 -0.000411903 0.00122388)
(0.579961 0.000846087 -0.00024035)
(0.541496 -0.000443456 0.00197158)
(0.532308 -0.00326985 0.000923063)
(0.20179 -0.200744 3.29713e-05)
(0.510898 -0.000470592 0.00148216)
(0.200955 -0.200359 -0.000264238)
(0.20082 0.199604 0.00116241)
(0.570677 0.00217466 0.00165157)
(0.200388 -0.200259 6.05646e-05)
(0.202 -0.201009 -0.000106589)
(0.264553 0.207204 0.0129301)
(0.197212 0.198144 -0.000382971)
(0.199959 0.199459 -0.000716832)
(0.557963 -0.00133694 0.00236848)
(0.160367 -0.1145 -0.0293105)
(0.252348 0.215883 0.00846468)
(0.516088 -0.000178611 0.00248385)
(0.200135 -0.20004 -8.20802e-05)
(0.585465 0.0419662 -0.0154035)
(0.58722 0.0126881 -0.00678483)
(0.581332 0.00696126 0.0020037)
(0.198972 -0.198497 -0.00113865)
(0.258839 0.22454 0.0235745)
(0.24118 0.214636 0.0107602)
(0.586542 0.00167447 -0.00143611)
(0.200326 0.200263 -8.71709e-05)
(0.58176 0.00135817 3.44372e-05)
(0.57794 0.00265682 0.0017776)
(0.568098 0.00266981 0.00267085)
(0.442455 -1.68511e-06 0.00187753)
(0.582335 0.00322567 0.000687906)
(0.577228 0.00292438 0.00186065)
(0.551139 0.000542893 -0.00227419)
(0.577578 -0.000926176 -0.000531802)
(0.56931 -0.000539495 0.00142708)
(0.200424 0.200444 -3.24927e-05)
(0.200036 -0.20007 1.14399e-05)
(0.199729 0.199949 0.000471402)
(0.583598 0.00268661 0.000492743)
(0.551669 0.000922436 -0.00200026)
(0.198538 -0.198489 0.000117402)
(0.375676 -0.00220008 0.00371731)
(0.5692 0.00288126 0.00180545)
(0.62421 0.024527 0.0105872)
(0.586555 0.00167291 -0.00125241)
(0.584116 0.00182677 -0.000565954)
(0.540811 0.000123661 -0.00130034)
(0.626022 0.0339709 0.00583506)
(0.198831 -0.200839 0.00104356)
(0.199935 -0.200085 0.000251855)
(0.58582 0.00157876 -0.00128841)
(0.573363 -0.00189772 -0.0019049)
(0.630247 0.0343597 0.00644981)
(0.620967 0.0311839 0.00840243)
(0.541515 0.000381399 0.00279604)
(0.584104 0.00688044 -0.00266085)
(0.196875 0.198965 -0.000242827)
(0.638777 0.041962 0.00902511)
(0.608846 0.031181 0.00881226)
(0.200026 0.200158 5.20349e-05)
(0.199609 -0.199665 9.61045e-06)
(0.465947 0.000487273 -0.00383287)
(0.200296 0.200389 2.7899e-05)
(0.581556 -0.00105441 -0.00020333)
(0.559981 0.000339401 -0.000977918)
(0.199889 0.194931 -0.00121143)
(0.215577 -0.198771 0.00202102)
(0.19887 -0.19787 -0.000447147)
(0.19727 0.185873 -0.00190367)
(0.216596 -0.200217 0.00320881)
(0.199821 -0.199942 0.000204814)
(0.582035 0.00213227 0.000680274)
(0.583554 0.0014372 -0.0012046)
(0.581292 0.00160195 -0.000756133)
(0.572326 -0.00221644 0.00230556)
(0.552073 -0.00172819 0.000301836)
(0.554222 0.000872116 0.0018069)
(0.494717 0.0063508 0.000780704)
(0.199299 -0.198529 5.02055e-05)
(0.535628 7.86471e-05 0.000780253)
(0.215046 -0.20035 0.0019338)
(0.201308 -0.201491 -3.87524e-05)
(0.558827 0.000914578 0.00189169)
(0.586384 -0.00674939 -0.00237042)
(0.582366 0.000986988 -0.00293111)
(0.559262 -0.000667583 0.000476544)
(0.569311 0.000200948 0.00027826)
(0.199355 -0.199036 0.000483614)
(0.558781 -0.0026586 0.000695738)
(0.556176 -0.0004708 -0.00309975)
(0.384968 0.119406 0.0153227)
(0.570102 -0.00485984 4.94836e-05)
(0.579144 -0.000858595 0.000478473)
(0.200418 -0.199165 -0.000505391)
(0.556285 0.00126422 0.00201589)
(0.58471 0.00128356 -5.03903e-05)
(0.218538 -0.198479 0.000692149)
(0.561457 0.00114547 0.00259438)
(0.589563 -0.00048726 0.00326106)
(0.551091 0.000627259 -0.00230961)
(0.554485 0.00141703 0.00256038)
(0.216385 -0.200779 0.00252785)
(0.198887 -0.198962 -2.52636e-05)
(0.554251 0.00149852 0.00285195)
(0.360274 0.224058 -0.0210276)
(0.595754 0.00246747 -0.00615789)
(0.199879 0.199932 -0.000146417)
(0.557967 0.00110765 0.00233602)
(0.559294 0.000283464 0.000311748)
(0.592655 -0.00195518 0.00386521)
(0.200119 -0.200078 3.04862e-05)
(0.520609 -0.000415975 0.0013428)
(0.585159 0.00898522 0.00440068)
(0.319111 0.213688 -0.0245139)
(0.200293 0.200356 -0.000146918)
(0.200005 0.200154 5.78005e-05)
(0.597531 -0.00292184 0.00595695)
(0.555385 0.0121871 -0.00332571)
(0.210471 0.176886 -0.00428938)
(0.246114 -0.191876 0.00806813)
(0.560833 0.000508392 0.00101829)
(0.579795 0.000784864 -5.0911e-05)
(0.583178 0.00122344 0.000521734)
(0.206976 0.179395 -0.00553799)
(0.209527 -0.19449 -0.00106513)
(0.5625 0.0071822 -0.00852224)
(0.19987 -0.199806 8.75862e-05)
(0.534242 0.000638343 -0.00288287)
(0.554297 0.00038691 0.00233679)
(0.560653 0.000196403 0.00134697)
(0.561241 0.00109138 0.00143253)
(0.563557 0.000538194 0.00188438)
(0.199301 0.199404 0.000611693)
(0.426352 -0.000877102 -0.0160454)
(0.569479 0.0018174 0.0017279)
(0.198214 0.198815 -3.41066e-05)
(0.200133 0.200215 5.00458e-05)
(0.593211 -0.00672506 -0.000532166)
(0.579614 0.00271016 -0.000655184)
(0.204721 0.173266 -0.00563015)
(0.52835 -0.000500541 0.00115515)
(0.568647 0.00161096 0.00147218)
(0.200285 -0.200183 -5.19658e-05)
(0.253935 0.240363 -0.00127987)
(0.584813 0.00623374 -0.0027781)
(0.201122 -0.198606 0.000172761)
(0.221761 -0.15945 -0.00380884)
(0.300884 -0.10725 -0.010703)
(0.2005 -0.199849 -0.000125244)
(0.572811 -0.000882687 -0.00096705)
(0.556221 -0.00101776 -0.000841487)
(0.579298 0.000834727 -0.00150533)
(0.199978 -0.200056 -3.99969e-05)
(0.572457 0.00162831 0.0013839)
(0.20046 -0.200511 4.54619e-06)
(0.200322 -0.200468 0.000137925)
(0.199169 -0.198303 0.000395213)
(0.395924 0.00179566 -0.0053522)
(0.589871 -0.002603 0.00320724)
(0.560026 0.00210568 0.00249409)
(0.570769 0.00191573 0.00137183)
(0.590093 -0.0029933 7.39248e-05)
(0.568528 0.000936612 0.0017287)
(0.582358 0.00221379 0.000790513)
(0.586555 0.0106342 -0.000992019)
(0.575697 0.000485256 -0.000185919)
(0.580116 0.0009272 -0.000288694)
(0.203843 0.200481 -0.00011791)
(0.199011 -0.199083 -0.000271967)
(0.362806 0.00258432 -0.00768131)
(0.582834 -0.00116091 0.000492946)
(0.587071 0.00479771 0.00499075)
(0.555395 -0.000851002 -0.000828409)
(0.200426 -0.200295 4.80222e-05)
(0.578982 0.00191549 0.00118573)
(0.581434 0.00309346 0.00148242)
(0.570567 0.00123436 0.000775158)
(0.501014 -0.000594692 -0.00235999)
(0.527042 -0.00581946 -0.0133928)
(0.579338 0.00174621 0.000505401)
(0.569295 0.00145165 0.00143191)
(0.580708 0.00539917 -0.00334237)
(0.200001 0.200097 1.01499e-05)
(0.533697 0.00296795 -5.89241e-06)
(0.199882 0.199999 -7.37133e-05)
(0.161216 0.119913 -0.0268587)
(0.22626 -0.145946 -0.0120292)
(0.602005 -0.00582043 0.0111318)
(0.590239 -0.00297963 0.000101441)
(0.575704 -0.000298552 0.000228629)
(0.20029 -0.199768 -8.07734e-05)
(0.199229 0.20034 0.0017271)
(0.578345 0.00205147 0.00123023)
(0.554247 0.000829866 -0.000703683)
(0.198676 -0.198647 6.22657e-05)
(0.200233 -0.200112 0.000232441)
(0.195409 -0.196552 0.00126615)
(0.549398 0.000656524 -6.31752e-05)
(0.577422 0.000564301 -0.000626299)
(0.55016 -0.000107696 0.00204626)
(0.530514 0.00111172 -0.0021208)
(0.58799 0.00194006 -0.00138073)
(0.229524 0.196907 0.00582539)
(0.199712 0.200194 0.000382869)
(0.19959 -0.199413 -8.37895e-05)
(0.576171 0.002144 0.00160016)
(0.378982 -0.318993 -0.0167389)
(0.549612 -0.000552247 0.00079966)
(0.59864 -0.00377632 0.0137483)
(0.482912 0.00101798 -0.00973638)
(0.200157 0.200138 -6.85971e-07)
(0.199803 -0.200003 0.000164608)
(0.200386 -0.200496 -8.72714e-05)
(0.253528 0.211952 0.0133845)
(0.583898 0.00189466 -0.000130129)
(0.588391 -0.00292977 0.000520376)
(0.199754 0.200765 5.35258e-05)
(0.580639 0.00150304 -0.000173949)
(0.211855 0.170169 0.0125428)
(0.199683 -0.197291 -0.000302908)
(0.595448 -0.00185243 0.00496215)
(0.578775 0.00198719 0.00106499)
(0.591109 -0.00030965 0.00139955)
(0.580848 0.00156051 -0.00010512)
(0.191873 0.168976 0.010721)
(0.251017 0.215297 0.014555)
(0.199381 0.199641 -0.00038274)
(0.579874 0.00194606 0.000765736)
(0.579016 0.00174559 -8.89792e-05)
(0.589815 0.0115462 -0.00432718)
(0.197101 0.196604 0.000383948)
(0.403876 0.353694 -0.0872605)
(0.551165 0.00205953 0.00480295)
(0.589493 -0.00262179 0.00144771)
(0.579603 0.00204088 0.00134827)
(0.549425 0.0558096 -0.00394865)
(0.588045 0.00126837 -0.00174934)
(0.19897 0.198964 0.000117528)
(0.587753 0.00151355 -0.00140133)
(0.56542 0.000719306 0.00120542)
(0.593874 -0.0135152 5.96798e-05)
(0.59734 -0.00355991 0.00752805)
(0.574639 -0.00487132 -0.00418988)
(0.198775 0.199821 -0.000651694)
(0.199229 -0.199677 -0.000439228)
(0.200197 0.198871 0.000770513)
(0.198121 -0.19868 -4.50616e-05)
(0.587753 -0.0024713 0.000262276)
(0.582199 -0.000466583 7.4962e-05)
(0.584007 0.00266866 -0.00245663)
(0.587997 0.00155396 -0.00180986)
(0.198062 0.198239 -0.000851996)
(0.581045 -0.00375471 -0.00169367)
(0.200003 0.200023 6.13404e-05)
(0.199399 -0.199847 6.69062e-06)
(0.587798 0.00183846 -0.00133125)
(0.18439 -0.184465 0.00272912)
(0.325736 -0.0635087 -0.00356935)
(0.197001 -0.196225 -0.000205977)
(0.200341 0.19666 0.00116487)
(0.582547 0.000658146 -0.000562073)
(0.200041 0.199901 2.18406e-05)
(0.575185 0.00162033 -0.000177682)
(0.547117 0.000417346 -0.00225549)
(0.200588 0.200596 -5.46516e-05)
(0.525686 -0.000203572 -0.00250492)
(0.572855 0.00092327 0.00102998)
(0.201654 0.176194 -0.0065343)
(0.569201 0.00251615 0.00301269)
(0.540919 0.00228437 -0.000566141)
(0.573388 0.00272008 0.000976318)
(0.533686 0.00109292 0.00737786)
(0.57848 0.00155952 0.000490193)
(0.553017 0.000264197 -0.000938855)
(0.197915 0.167916 -0.000823308)
(0.198827 -0.198487 0.00123246)
(0.494661 0.000901924 0.0121913)
(0.198285 0.198926 -0.0011758)
(0.572418 0.00294236 0.00295307)
(0.596127 -0.00327942 0.00587133)
(0.200686 0.19148 0.00175219)
(0.199498 0.200387 -3.28868e-05)
(0.586209 -0.000846171 0.000436008)
(0.563596 -0.00254665 -0.00513677)
(0.566367 0.00291997 0.000297029)
(0.586969 0.00197356 -0.000772479)
(0.199968 0.199611 -7.80947e-05)
(0.597683 -0.000915875 0.0100263)
(0.589327 -0.0020245 0.00302347)
(0.200885 0.200571 2.0807e-06)
(0.576254 0.00953097 0.0078443)
(0.549796 -0.00229131 -0.00629596)
(0.199617 -0.199687 -1.53614e-05)
(0.198888 -0.198904 7.12888e-05)
(0.57398 0.00164851 -0.000520203)
(0.578218 0.000388314 -0.000916895)
(0.200122 0.200048 -0.000310852)
(0.199617 -0.1992 -0.000300092)
(0.345017 -0.189154 0.0417735)
(0.20034 -0.200471 8.14612e-05)
(0.578526 -0.00115878 -0.000192654)
(0.198569 0.199285 0.000422164)
(0.200432 -0.200513 1.03259e-05)
(0.591212 -0.000235655 0.00187423)
(0.536846 -0.00647513 -0.015365)
(0.584113 -0.00370818 0.000838917)
(0.56544 -0.000205943 0.00100918)
(0.200766 0.200632 2.8049e-05)
(0.260993 0.200057 0.0100534)
(0.56527 0.0078673 0.011889)
(0.244133 0.214438 0.012218)
(0.563753 0.00253127 0.00478409)
(0.560231 -0.00491272 0.00015523)
(0.586221 -0.00219168 -0.00174675)
(0.404174 0.00704497 0.0155482)
(0.239653 0.205303 0.0107188)
(0.584105 0.000857103 -0.00560857)
(0.592503 0.0189984 -0.00578336)
(0.199877 -0.200204 0.00026292)
(0.591706 0.00144571 -0.00625703)
(0.592161 -0.00246423 0.00227857)
(0.200044 -0.199982 0.000182669)
(0.574773 0.0326771 -0.0193072)
(0.498404 0.000171558 -0.0064429)
(0.253568 0.19871 0.00802351)
(0.589822 -0.00115125 0.00238892)
(0.582342 0.000786842 -0.000778606)
(0.578465 0.0015617 -0.000406855)
(0.200001 0.199891 -5.59699e-05)
(0.575234 -0.000955669 0.00410954)
(0.592092 6.23864e-05 0.00194559)
(0.573084 0.00567517 -0.000581954)
(0.359075 -0.00578967 0.00663282)
(0.244401 0.229861 -0.0050374)
(0.338765 -0.0108755 0.0125981)
(0.199753 -0.200051 0.000188649)
(0.531204 -0.0187105 -0.0178616)
(0.575361 -0.00106332 -0.00370251)
(0.200076 0.19998 0.000281516)
(0.548728 0.00129151 -0.00389869)
(0.450157 -0.00104646 0.00885877)
(0.261088 0.229632 -0.00244365)
(0.200057 -0.199932 -3.53091e-05)
(0.233032 -0.199335 0.00632078)
(0.200323 -0.200261 -2.96462e-05)
(0.57268 0.00344808 -0.000409985)
(0.577273 0.00329908 -0.00101981)
(0.573257 -0.00167345 -0.00163586)
(0.538216 0.0011501 -0.00298896)
(0.585873 -0.0114948 -0.00233818)
(0.199811 0.198906 -0.000387649)
(0.568175 -0.00058873 -0.00120874)
(0.200774 -0.199048 -5.44372e-05)
(0.563566 0.00204553 0.00140577)
(0.200792 0.200855 -1.91354e-05)
(0.200165 -0.199999 -2.86616e-05)
(0.1974 -0.197984 -0.00031378)
(0.553615 -0.00392869 0.000443253)
(0.199103 -0.199302 -0.00021081)
(0.199942 -0.200002 3.06195e-05)
(0.196981 0.128819 -0.00863045)
(0.200334 -0.20048 9.40526e-05)
(0.197567 0.200157 0.00186555)
(0.567127 -0.00227569 -0.00125012)
(0.200049 0.199861 -3.1314e-06)
(0.237858 0.17489 0.000439299)
(0.200145 0.200264 0.000285063)
(0.199054 -0.198382 7.71235e-06)
(0.199914 0.199072 -0.000339539)
(0.198845 -0.197787 -0.00105022)
(0.198432 0.198609 1.27729e-05)
(0.515828 -4.67314e-05 -0.00402075)
(0.200191 0.19904 0.000861804)
(0.53031 0.00806455 0.0113244)
(0.58043 0.00139305 -0.000814847)
(0.596535 -0.0230857 -0.00338414)
(0.200807 0.199886 -2.35073e-05)
(0.504231 0.00155862 0.00925035)
(0.200261 0.199503 0.000110329)
(0.200405 -0.200502 -8.60355e-05)
(0.569557 -0.00481456 -0.00579712)
(0.570794 -0.0041401 -0.00532945)
(0.574377 -0.00169024 -0.000817095)
(0.600014 0.00111547 -0.0111662)
(0.230742 0.193581 -0.00637515)
(0.587456 0.000685748 -0.00351974)
(0.586982 0.000727066 -0.00319034)
(0.57964 0.0011606 4.81421e-05)
(0.570025 0.00068564 0.000249202)
(0.578777 -0.00589032 -0.00458182)
(0.198628 -0.198703 -0.000127796)
(0.580084 0.00102754 2.30439e-05)
(0.263422 0.227905 -0.00115381)
(0.578578 0.00140889 -0.00073868)
(0.199683 0.199432 -7.11218e-05)
(0.589361 0.00179414 -0.00329781)
(0.260507 0.215694 0.00273694)
(0.581088 0.000359668 -0.000751151)
(0.583249 -0.0030062 0.00198427)
(0.22998 -0.119336 -0.000868241)
(0.199676 0.199854 0.00230174)
(0.570649 0.00107674 0.00112668)
(0.19972 -0.199707 4.6224e-05)
(0.591683 0.0022208 -0.00407796)
(0.587487 0.00239384 -0.00264213)
(0.199863 0.199229 -0.00165247)
(0.199296 0.199312 0.000463784)
(0.195775 0.174206 -0.00404548)
(0.200066 0.200204 7.60557e-05)
(0.409353 -0.0227157 0.00938466)
(0.591965 0.00201562 -0.00390282)
(0.203275 0.19835 -0.000152537)
(0.199551 0.199992 0.000363333)
(0.506087 0.000718355 -0.00110164)
(0.200344 0.200363 2.73289e-05)
(0.582977 0.00167518 -0.00239549)
(0.200204 0.200126 1.49337e-05)
(0.576901 -0.00348508 -0.00162572)
(0.200237 -0.200292 -7.16045e-05)
(0.540605 -0.00248173 -0.00787313)
(0.443978 -0.00195562 0.000508926)
(0.543461 0.00177869 -0.00103984)
(0.581377 0.000661507 -0.000793616)
(0.200418 0.199019 -0.000641057)
(0.524792 0.00069489 -7.511e-06)
(0.200369 0.199652 0.000203116)
(0.200174 0.200177 -0.00054073)
(0.57434 -0.00128826 -0.000689906)
(0.199809 0.199519 -7.93576e-05)
(0.488889 -2.15055e-05 -0.00484936)
(0.192233 0.176458 -0.00601899)
(0.583957 0.00173776 -0.00201938)
(0.198884 -0.199026 6.29137e-06)
(0.588673 0.000731541 -0.00129445)
(0.200563 -0.20036 2.03263e-05)
(0.239366 0.210845 0.00666767)
(0.595418 0.0217561 -0.00215329)
(0.570212 -0.00486302 -0.00589053)
(0.580507 0.00237272 -1.27516e-05)
(0.583682 -0.00619495 -0.00403914)
(0.577725 0.00128493 -0.000577348)
(0.589881 -0.00345998 -0.000305849)
(0.197822 0.199279 -0.000902212)
(0.580344 0.00333793 0.00173979)
(0.57303 -0.00549828 -0.0055669)
(0.199989 0.200073 -9.88172e-05)
(0.488621 -0.00628272 -0.0198719)
(0.593428 -0.00529388 -0.00337036)
(0.569892 0.00259412 0.00223698)
(0.197328 0.194594 -0.00115476)
(0.246642 0.0443278 -0.0398427)
(0.557184 0.00141183 0.00183517)
(0.453095 -0.00202629 0.00488893)
(0.467648 0.10888 -0.00447837)
(0.255969 -0.133846 -0.00991336)
(0.588011 -0.00575787 -0.0010359)
(0.553275 0.00224621 0.00435352)
(0.569627 -0.00529406 -0.00574692)
(0.581796 -0.00310681 -0.0010819)
(0.571635 0.00321262 0.00140852)
(0.504165 0.0629375 -0.0017495)
(0.248772 0.21034 0.00182955)
(0.513439 -0.0224256 0.00579115)
(0.499509 -0.0463612 0.0103565)
(0.199753 -0.199808 0.000127789)
(0.510926 0.00359661 -0.00148758)
(0.201318 0.19744 -0.00105072)
(0.235344 0.213358 0.00205221)
(0.57845 0.000977796 -0.000204132)
(0.508958 0.0831834 -0.00161841)
(0.613769 -0.0572573 -0.00804405)
(0.556497 -0.103656 8.77987e-05)
(0.234828 0.222697 -0.015935)
(0.586944 -0.00357732 -0.000980276)
(0.579325 0.00322132 0.0026225)
(0.199581 0.199024 -3.24575e-05)
(0.25953 0.142272 -0.00541376)
(0.578847 0.00454486 0.0028861)
(0.200014 -0.19925 0.000169642)
(0.2 0.199891 -4.77809e-05)
(0.199237 0.199148 2.05279e-05)
(0.200462 0.199368 0.000221416)
(0.586332 -0.0057061 -0.00243965)
(0.200172 0.200144 0.000117541)
(0.200312 -0.200516 0.00101267)
(0.576114 -0.00358609 -0.00262103)
(0.531048 0.00026265 -0.0013706)
(0.290504 -0.25553 -0.0139661)
(0.578961 0.00441477 0.00273225)
(0.234251 0.188256 0.00447806)
(0.581382 -0.00200954 -0.00110306)
(0.195643 -0.195349 -0.000636545)
(0.1996 0.20002 -7.12021e-05)
(0.58537 -0.00366087 -0.000837769)
(0.199872 0.198703 -0.000797452)
(0.200293 0.199766 8.44304e-05)
(0.229831 0.21938 0.00663775)
(0.550242 -0.000345514 -0.000438549)
(0.332739 0.277716 -0.0369985)
(0.576813 -0.00230309 -0.000987459)
(0.578148 0.000918207 -0.000218897)
(0.197851 -0.19661 -0.00155198)
(0.599021 -0.00114147 0.0191619)
(0.547276 -0.00316067 -0.00809821)
(0.574992 -4.68833e-05 -0.000481144)
(0.582282 0.0111607 0.00126085)
(0.583474 0.00426392 -0.0120727)
(0.501776 0.000247395 -0.00455026)
(0.199815 0.199502 8.71787e-05)
(0.586576 0.000596949 0.00176154)
(0.582253 0.00240122 -0.000392738)
(0.197849 -0.200443 0.000289644)
(0.540541 -0.000405492 -0.000300972)
(0.586202 0.00364814 -0.000899096)
(0.587534 0.00276424 -0.000993585)
(0.53204 -0.00237709 -0.00520193)
(0.587232 0.00264711 -0.0011032)
(0.587603 0.00324972 -0.000287995)
(0.199878 -0.197237 0.00130758)
(0.588837 -0.0010478 0.00259655)
(0.483855 -0.00362953 -0.00114134)
(0.241714 0.209135 0.0133196)
(0.587322 0.00213367 -0.00154508)
(0.559958 0.000903425 -0.00129626)
(0.323326 0.262356 -0.0402449)
(0.578611 0.00092347 -0.000228827)
(0.587523 0.00188185 -0.0018329)
(0.560246 0.000541839 -0.00215656)
(0.583328 0.00241843 -0.000225088)
(0.575278 0.00638705 0.0025934)
(0.579352 0.000893034 -0.000129346)
(0.195493 0.190852 0.000292445)
(0.582965 0.00275048 -0.000356952)
(0.546082 -0.00345683 -0.00746384)
(0.22343 -0.137303 0.00510307)
(0.580146 0.00538878 0.00356322)
(0.572299 0.00514214 0.00525584)
(0.581038 0.00149364 -4.99782e-05)
(0.19936 0.198897 0.00018296)
(0.562033 0.0034564 -0.00543366)
(0.199859 -0.198719 0.000622559)
(0.200039 0.200032 -0.000195478)
(0.198786 0.197431 -0.000116642)
(0.200596 0.199344 4.29595e-05)
(0.487708 0.000261278 -0.00196726)
(0.238952 0.205827 0.0087517)
(0.449152 -0.0287436 0.0299557)
(0.198504 -0.198728 -5.60483e-05)
(0.199423 0.202054 -0.000408004)
(0.579805 0.00620904 0.00322751)
(0.584667 0.00124545 -0.00253936)
(0.199993 -0.199978 1.78917e-05)
(0.584208 -0.00377139 -0.000171198)
(0.200016 -0.199816 0.000662814)
(0.200254 -0.200102 -4.25443e-05)
(0.196507 -0.196624 0.000584902)
(0.59203 -0.00429624 -0.000487543)
(0.495661 0.00318175 -0.00120698)
(0.237859 0.212518 0.00355192)
(0.199643 -0.197802 0.000817303)
(0.199758 0.200449 -0.000298823)
(0.19956 0.199777 2.7432e-05)
(0.596403 0.00105155 -0.00684309)
(0.579892 0.00102805 -0.000245083)
(0.238014 0.223665 0.0104706)
(0.590553 0.00178647 -0.00335196)
(0.549695 -0.009495 -0.02273)
(0.199669 0.199819 -7.20424e-05)
(0.589091 0.00124696 -0.00299595)
(0.538657 0.000250049 0.00288159)
(0.571817 0.00299576 -0.00355911)
(0.200627 0.200555 2.00759e-06)
(0.199339 0.199269 9.69215e-05)
(0.569153 0.00245359 0.00321212)
(0.581781 0.00120687 -0.000295457)
(0.237625 0.215141 0.00348296)
(0.19914 0.199061 6.27449e-05)
(0.201994 0.195449 -0.000576848)
(0.57866 -0.0013024 0.000537685)
(0.199895 -0.199858 -0.000281554)
(0.199022 -0.198294 0.000171067)
(0.19867 0.198632 -4.18282e-05)
(0.588665 0.00171289 -0.00271052)
(0.513929 -0.0026777 0.00058252)
(0.200528 0.200545 2.31053e-05)
(0.224168 0.0368261 0.0424458)
(0.249128 -0.0328986 -0.00949429)
(0.567809 0.00311828 7.51452e-05)
(0.19971 0.199998 -7.95768e-05)
(0.200071 0.199726 -0.000169321)
(0.589705 -0.0068572 -0.000970435)
(0.565259 0.0103085 0.00948605)
(0.24086 0.214881 0.0109902)
(0.352736 0.111067 0.00703644)
(0.555779 0.0104365 0.017139)
(0.533415 0.00170685 -0.00357992)
(0.568665 0.000380801 -0.00034324)
(0.206266 0.193454 -0.000425059)
(0.563895 0.00131178 -0.000409532)
(0.585695 -0.00388045 0.00415995)
(0.200372 0.199754 -0.000232755)
(0.198266 -0.194917 0.000302433)
(0.198557 0.198663 3.54828e-05)
(0.19926 0.199204 -4.82606e-05)
(0.200134 0.200525 -0.000279149)
(0.200578 0.200645 -2.56493e-05)
(0.590074 0.00195945 -0.00299611)
(0.200108 -0.200013 0.000106367)
(0.199003 0.199022 2.76207e-05)
(0.198929 0.19623 -0.000222265)
(0.590633 0.00189017 -0.00335308)
(0.581611 0.00122357 -0.000273137)
(0.200826 -0.198159 -7.0607e-05)
(0.197313 -0.195231 0.000441868)
(0.595092 -0.00282912 0.00530496)
(0.565358 5.80665e-05 0.000805959)
(0.564418 0.000250136 0.000880307)
(0.199895 -0.199439 -9.35921e-05)
(0.198986 0.198957 0.000115746)
(0.564902 0.000161976 0.000803582)
(0.200306 -0.200129 2.00503e-05)
(0.559253 0.00145308 0.000216814)
(0.570054 0.0012335 0.00188467)
(0.571794 0.00164794 0.00107757)
(0.199972 -0.198503 0.000478767)
(0.200285 -0.200384 3.83935e-05)
(0.200204 -0.200378 -3.70253e-05)
(0.20024 0.200278 6.30593e-05)
(0.577839 -0.00288776 -0.00148714)
(0.199929 0.200137 6.86262e-05)
(0.198422 0.198646 6.3895e-05)
(0.576704 0.00199341 -0.0029565)
(0.200291 -0.200342 0.000108488)
(0.567691 0.000359621 0.000735197)
(0.513515 -0.005623 0.00119228)
(0.200976 0.193877 0.0011064)
(0.580634 0.0013833 -0.000223143)
(0.269945 0.0382849 -0.0053777)
(0.573381 0.000422762 0.000458555)
(0.591245 -0.0013882 0.00134554)
(0.522962 0.00204466 0.00104727)
(0.592332 -3.82371e-05 0.00426251)
(0.429916 0.0113859 -0.0160508)
(0.239146 0.190003 0.00401526)
(0.572055 2.73852e-06 0.000445621)
(0.594966 0.00422355 -2.53573e-05)
(0.580546 -0.00132146 -0.000487539)
(0.204912 0.177554 -0.00620607)
(0.26817 0.0179191 -0.00803723)
(0.309077 -0.030383 0.0116804)
(0.572852 0.000577871 0.000237527)
(0.198831 0.199207 0.000245697)
(0.560542 -0.00104681 -0.00384057)
(0.572507 -0.000178787 -0.0010305)
(0.555601 -0.0047335 -0.0088448)
(0.214674 -0.156876 -0.0117618)
(0.200341 -0.20047 8.6412e-05)
(0.2 -0.200002 -4.91948e-06)
(0.582987 -0.00168884 7.51277e-05)
(0.234437 0.193622 -0.00250963)
(0.553535 0.00200951 0.000895261)
(0.217568 0.198073 0.00274013)
(0.549958 -0.00104857 -0.00391276)
(0.567343 -0.00133679 0.000530968)
(0.560492 -0.000834291 0.00150436)
(0.581665 0.00132981 -0.000398111)
(0.199021 0.199009 -5.08014e-05)
(0.198032 0.197418 -0.000450799)
(0.213158 -0.194711 0.000925506)
(0.580297 0.00151527 0.000121604)
(0.20039 0.199793 -1.87553e-05)
(0.231931 0.19864 -0.00904376)
(0.593798 0.012235 -0.0102387)
(0.200118 0.199809 -0.000160044)
(0.198785 0.199721 0.000701731)
(0.198462 -0.197815 -0.000325341)
(0.200418 0.200476 4.97933e-05)
(0.55423 -0.000162778 0.00156692)
(0.203463 0.193114 0.000325416)
(0.200133 0.199973 8.48611e-05)
(0.464076 0.0618104 -0.0456484)
(0.235518 0.189593 -0.00229923)
(0.197836 0.19823 -0.00186981)
(0.284085 -0.171665 0.0114185)
(0.199861 0.199632 -0.000258614)
(0.455047 0.00225411 -0.00301175)
(0.565764 -0.00103443 0.00103422)
(0.198518 -0.198563 -5.64634e-06)
(0.55587 0.000722483 -0.00174394)
(0.553503 0.0889191 -0.00795476)
(0.551544 -0.00528908 -0.00886249)
(0.606034 0.023151 0.000266994)
(0.54697 0.000419774 -0.000785319)
(0.19991 0.198204 0.000832635)
(0.571852 -0.00532913 -0.00599677)
(0.592522 -0.00133817 0.00120077)
(0.551284 -0.00536109 -0.00885085)
(0.199999 -0.200214 1.10668e-05)
(0.598281 0.152877 0.0385744)
(0.552609 0.00104863 0.00108382)
(0.267655 0.213225 -0.0130885)
(0.548921 -2.58524e-06 0.000644371)
(0.598653 0.00710144 -0.00549664)
(0.572141 0.0115932 0.000427985)
(0.567305 -0.00158531 -0.0019691)
(0.567967 0.00178917 0.000163885)
(0.603294 0.00881342 -0.00298124)
(0.582235 -0.000837898 -0.000761202)
(0.576421 -0.00056897 0.000481525)
(0.198235 0.198999 0.000710171)
(0.198969 0.197885 0.000565382)
(0.556818 0.00149986 0.000938155)
(0.547222 0.00086226 0.000743311)
(0.199533 0.20008 -1.67231e-06)
(0.565095 0.000500758 0.000107341)
(0.590946 -0.00182726 0.000578967)
(0.577313 -0.00113941 0.000417775)
(0.199422 0.1973 -8.66614e-05)
(0.569924 0.0114972 0.00236133)
(0.199226 0.199082 -1.08177e-05)
(0.576804 -0.000598136 0.000433944)
(0.57799 -0.000606946 0.000298063)
(0.199898 0.199798 -2.83058e-05)
(0.552266 0.00306989 -0.00175188)
(0.576399 -0.000346123 -4.77379e-05)
(0.567832 0.0104935 0.000584135)
(0.557707 0.00020748 0.00204003)
(0.204428 0.200447 -0.000329096)
(0.584639 -0.00175303 0.00174076)
(0.569687 0.0130463 -6.74827e-05)
(0.602348 -0.0159894 0.00346245)
(0.508083 0.00692066 0.00110806)
(0.453007 0.00143547 -0.00583954)
(0.199833 0.197661 -0.000274502)
(0.199466 0.1993 6.60677e-05)
(0.55987 0.00789972 0.0010334)
(0.200429 0.200425 -9.04226e-05)
(0.487479 -0.00135703 -0.00144824)
(0.562595 -0.00284635 -0.0040848)
(0.339808 0.0441064 -0.0134479)
(0.625528 -0.0423567 0.0167457)
(0.552594 -0.0250759 0.00780049)
(0.614312 -0.0235167 0.00581629)
(0.200347 0.200365 -5.84556e-05)
(0.27344 0.232347 0.00162543)
(0.582686 0.00153128 -0.000347863)
(0.199286 -0.200195 -0.000805125)
(0.114274 -0.0814799 0.0313236)
(0.574683 -0.0107392 -0.00809639)
(0.198568 0.198157 -0.000468161)
(0.200459 0.200211 2.40984e-05)
(0.517207 -0.00989712 -0.000153839)
(0.418472 -0.0299331 0.00101447)
(0.200472 0.200502 -3.11887e-05)
(0.517946 -0.0105679 0.00200398)
(0.198522 0.198276 8.61523e-06)
(0.200031 0.200393 -0.000333485)
(0.200059 -0.200037 -5.102e-05)
(0.200137 -0.199662 0.000477713)
(0.195959 -0.194323 0.000603596)
(0.199488 -0.199077 -4.2475e-06)
(0.520477 0.0047632 -0.00174911)
(0.197577 0.196057 -0.00014984)
(0.199999 0.200131 8.11819e-05)
(0.198319 0.1995 0.000473143)
(0.484829 -0.108433 -0.0278881)
(0.548567 -0.004926 -0.0107405)
(0.530498 -2.41889e-05 -0.00490562)
(0.5827 0.00147053 -0.000397575)
(0.198599 0.197391 5.55391e-05)
(0.201082 0.200335 2.03442e-05)
(0.558202 -0.00955663 -0.0116385)