/*--------------------------------*- C++ -*----------------------------------*\
  =========                 |
  \\      /  F ield         | OpenFOAM: The Open Source CFD Toolbox
   \\    /   O peration     | Website:  https://openfoam.org
    \\  /    A nd           | Version:  10
     \\/     M anipulation  |
\*---------------------------------------------------------------------------*/
FoamFile
{
    format      ascii;
    class       volScalarField;
    location    "4.1";
    object      SgRate;
}
// * * * * * * * * * * * * * * * * * * * * * * * * * * * * * * * * * * * * * //

dimensions      [1 -1 -3 -1 0 0 0];

internalField   nonuniform List<scalar> 
111485
(
6.41428e-17
1.03436e-05
2.61989e-05
2.37953e-17
5.53439e-05
8.56147e-18
5.03618e-05
7.21942e-06
2.09397e-05
1.25139e-06
4.96416e-05
1.12966e-05
4.94109e-06
4.43034e-07
6.89513e-06
3.58105e-05
2.33643e-06
0.00294395
1.19912e-05
6.72207e-16
1.12339e-16
2.35002e-18
2.96678e-05
4.02049e-05
1.07329e-05
1.52622e-17
4.83604e-05
2.49571e-06
1.97708e-05
6.22909e-18
5.3675e-05
1.93014e-05
6.79492e-16
9.46397e-18
9.87465e-06
1.63783e-17
1.29139e-05
4.45558e-06
6.22737e-11
2.54644e-05
3.53012e-18
8.52602e-05
1.82853e-05
1.50511e-06
5.44399e-08
5.39737e-16
3.76696e-05
8.39492e-07
5.69904e-05
3.60249e-17
1.70478e-16
5.13041e-16
2.60442e-17
5.57517e-05
4.13237e-16
5.00057e-05
4.2804e-06
4.69743e-18
2.80554e-08
5.65135e-06
1.89404e-05
1.7677e-16
4.43347e-06
0.000110446
1.82568e-16
4.31098e-06
0.000371449
0.000117263
9.76276e-07
6.97227e-06
1.04368e-08
6.57455e-06
1.20894e-16
2.71017e-06
2.67114e-16
8.48231e-07
2.54714e-17
4.95733e-05
3.54083e-17
6.85657e-16
1.72497e-08
3.9804e-05
3.1077e-17
1.22481e-16
9.53184e-06
5.01291e-06
5.18756e-13
2.81841e-05
6.16813e-08
7.75441e-06
5.97395e-07
4.67799e-05
1.18703e-05
9.60666e-08
6.58097e-05
1.71922e-16
3.22362e-17
1.88698e-06
1.90726e-11
1.60656e-06
3.33339e-17
2.30224e-05
5.72993e-19
2.4316e-05
5.12033e-06
5.45483e-17
9.97668e-19
9.46046e-06
4.29537e-06
1.12777e-10
1.1409e-05
5.83206e-06
3.89167e-06
3.56169e-06
4.55466e-16
4.19322e-08
2.0088e-17
3.36223e-17
1.30446e-05
6.79613e-17
1.50863e-17
3.73326e-16
2.06919e-17
1.4001e-17
2.26371e-06
3.08513e-09
1.72715e-17
2.00432e-06
1.0277e-17
9.36134e-08
1.39075e-06
3.58233e-05
2.58837e-16
1.15705e-15
1.12479e-16
5.98848e-05
5.83663e-18
4.92373e-05
2.71287e-05
2.69555e-06
2.42114e-07
2.36131e-06
2.57991e-05
3.51134e-06
4.53844e-06
1.44586e-05
4.87212e-17
8.79277e-17
2.13227e-17
3.1227e-05
2.18752e-06
6.68921e-17
1.95816e-10
6.31992e-06
5.93142e-10
1.23682e-05
1.94404e-05
1.32102e-05
1.16952e-10
8.31629e-17
1.46753e-17
6.36381e-05
2.81518e-05
3.38425e-09
3.49838e-10
5.50941e-06
4.46177e-06
2.55424e-18
7.84532e-09
6.56312e-08
1.51555e-18
1.2028e-16
1.56284e-07
3.53079e-19
8.68672e-06
2.76242e-06
1.20403e-17
2.32002e-17
4.81198e-17
3.6687e-16
2.09405e-18
2.10608e-17
1.53144e-06
8.01031e-06
3.37379e-05
5.27771e-06
8.42537e-06
3.73915e-06
1.0739e-07
2.08163e-17
4.32442e-06
1.31645e-17
4.47111e-17
6.46064e-06
1.25543e-05
3.00677e-05
1.393e-05
4.28677e-06
2.72208e-16
7.74104e-06
7.65618e-07
5.44806e-08
1.49641e-05
2.69826e-06
1.74716e-16
3.88506e-06
3.15081e-05
8.69362e-17
2.41324e-07
8.79962e-06
2.8796e-06
3.82177e-07
9.36604e-17
1.1794e-16
7.68265e-06
8.28557e-15
0.000144921
1.98944e-17
6.69588e-06
2.21658e-05
0.000144431
1.43403e-16
2.73178e-06
1.59935e-05
3.09428e-16
1.06644e-17
9.72364e-18
0.000191619
4.62221e-10
1.46383e-16
2.06453e-17
1.00767e-05
1.09698e-05
1.79674e-05
8.81799e-17
3.94104e-16
1.29604e-08
1.28543e-16
2.65749e-06
9.7726e-06
1.74826e-05
1.17562e-05
1.10474e-05
4.00422e-18
3.57959e-10
6.64701e-07
2.53945e-18
2.65604e-17
3.6521e-05
2.55289e-05
1.39396e-17
6.58286e-06
1.14042e-05
5.20748e-17
8.78891e-16
1.73056e-07
7.6331e-18
8.31491e-17
4.80388e-08
4.96403e-17
1.81955e-05
1.33374e-05
4.17659e-06
5.84272e-16
1.29998e-05
2.07737e-18
1.13714e-16
7.01485e-17
3.17929e-11
2.7366e-05
6.17263e-06
5.54335e-06
4.47722e-05
1.25896e-05
2.0714e-06
7.17634e-07
4.17988e-05
1.17239e-05
2.38923e-17
8.24827e-17
3.56943e-10
2.57964e-05
2.79845e-05
1.45994e-05
1.21024e-17
7.78556e-06
2.62727e-06
3.23917e-06
5.15297e-09
4.72731e-09
1.50734e-05
2.35367e-06
2.23327e-06
1.02583e-17
9.32109e-07
2.21248e-17
2.26135e-10
3.91995e-16
0.000308399
8.27791e-05
1.61113e-05
7.69383e-17
6.83236e-18
1.0117e-05
2.41947e-06
2.68789e-16
1.68328e-17
4.42197e-16
5.00455e-07
7.82654e-05
4.17632e-06
1.75184e-05
2.29796e-05
1.05614e-16
2.1232e-17
1.79081e-16
4.17173e-06
2.14064e-15
1.37696e-06
0.000225827
5.47472e-10
8.8015e-18
3.1312e-17
2.57694e-17
1.15575e-15
6.86453e-05
1.45774e-05
4.73677e-18
5.8869e-06
7.68333e-16
9.9225e-17
8.05153e-05
6.48379e-06
1.33476e-05
9.7508e-06
1.05075e-15
7.93744e-16
8.60426e-18
1.0517e-05
2.00928e-05
5.70044e-06
5.65918e-18
1.99231e-13
2.34731e-07
2.1343e-06
9.01546e-06
5.78536e-08
3.46543e-05
2.23454e-18
4.52599e-05
3.76197e-06
9.01181e-06
2.86585e-05
1.61822e-05
1.782e-17
6.73128e-16
3.0334e-17
4.6669e-18
3.75323e-05
1.0722e-05
4.34286e-05
8.17432e-05
3.05386e-17
2.30149e-05
3.93205e-18
2.03029e-16
1.8674e-05
4.55609e-17
6.46602e-05
2.50632e-16
5.40508e-18
2.76048e-05
4.09855e-18
1.80242e-05
4.52326e-07
1.53383e-17
1.26587e-06
1.81019e-05
1.24977e-16
8.9969e-06
1.23177e-05
8.76007e-06
6.42163e-07
4.01811e-06
9.4356e-06
9.5116e-16
2.90621e-16
1.82679e-06
1.1588e-19
6.57507e-06
0.000137002
7.73838e-17
1.53685e-17
3.1129e-05
1.32194e-07
8.72061e-06
2.66532e-05
5.62182e-18
5.01727e-05
2.3941e-05
5.06423e-18
8.98882e-07
3.16987e-06
4.243e-17
9.45373e-17
1.5587e-05
5.65554e-06
1.26824e-17
1.65221e-17
2.22061e-11
2.2507e-16
1.4059e-05
3.26488e-17
4.83305e-17
2.09068e-05
2.45822e-09
1.59932e-05
3.23031e-05
1.80847e-18
2.80204e-16
1.44403e-06
1.07384e-16
1.54503e-07
1.47202e-05
0.000144413
0.00106365
1.91858e-17
3.19856e-06
4.19131e-07
4.26144e-16
4.38209e-05
3.96028e-05
3.66715e-16
1.12738e-11
1.20311e-07
3.6345e-16
2.95552e-05
3.11089e-05
1.6573e-05
1.39336e-17
7.09742e-07
2.29886e-05
2.69724e-05
8.8801e-10
2.45754e-16
5.69751e-13
3.70196e-17
1.82581e-08
3.93106e-05
9.32075e-18
1.08865e-05
9.87847e-08
4.75311e-16
3.58265e-17
1.51751e-16
2.24637e-16
5.09958e-06
1.18206e-05
7.77433e-06
2.82787e-06
3.79256e-06
5.93568e-17
2.77507e-06
3.41597e-16
4.4382e-05
2.17316e-17
2.87464e-17
4.73524e-17
4.11494e-05
2.99464e-17
3.42669e-17
3.07539e-10
4.87972e-17
2.077e-17
1.1545e-06
2.17408e-17
4.89695e-16
1.24078e-18
2.48471e-17
2.87578e-16
1.70662e-17
3.84751e-18
9.21447e-06
1.27937e-16
5.08949e-07
2.19052e-06
1.51158e-06
3.2302e-17
8.50891e-07
1.63732e-17
4.03887e-17
3.29396e-06
2.2056e-06
3.3411e-05
2.78647e-05
1.68761e-16
2.38392e-06
9.02453e-05
1.07055e-05
1.3726e-06
3.91193e-06
1.06775e-16
2.81994e-05
3.35177e-16
5.2718e-06
3.48042e-18
8.60517e-05
3.35552e-16
2.64531e-05
3.7755e-07
1.8782e-10
2.84823e-17
2.70877e-06
1.01213e-17
9.50244e-05
5.55892e-05
8.0669e-18
2.72581e-18
4.2299e-16
2.29712e-18
1.48508e-12
6.58767e-05
1.19046e-17
2.33714e-17
3.43965e-06
3.10077e-18
3.77892e-05
1.29073e-17
4.10833e-07
4.49761e-17
6.38198e-07
1.09688e-09
1.44541e-06
1.51955e-05
1.16937e-17
3.12912e-07
7.88157e-17
3.83577e-18
1.84105e-05
6.89175e-18
4.05252e-08
1.50915e-16
1.77441e-06
7.82496e-17
7.84114e-05
2.39234e-17
2.89712e-16
1.82957e-05
4.07729e-06
1.89212e-06
4.81163e-06
7.32718e-06
2.53842e-05
9.47826e-19
2.67028e-05
7.79199e-06
3.84177e-18
9.55881e-11
4.3215e-05
1.59898e-05
3.96657e-16
5.77248e-06
7.25606e-06
1.76224e-06
1.48424e-06
2.45316e-13
1.64564e-05
1.13817e-06
1.97808e-07
3.05405e-05
1.7258e-05
1.00817e-06
1.36968e-16
3.67662e-12
0.00075883
1.52857e-17
5.0141e-07
1.49851e-18
7.07782e-16
8.65742e-06
3.87659e-06
2.07578e-10
1.36377e-08
7.22197e-16
2.08881e-05
1.2683e-05
1.70321e-17
1.20309e-13
2.31128e-06
6.20291e-17
1.32307e-17
3.17131e-18
1.39529e-16
1.76698e-05
1.2317e-17
3.49369e-16
1.12818e-05
3.51254e-06
3.12021e-16
1.15375e-05
1.70895e-16
9.30115e-06
4.66279e-17
1.80103e-17
6.62169e-05
4.58342e-17
5.73575e-17
1.17799e-15
6.16502e-06
1.04004e-16
3.75925e-05
7.9292e-06
6.34693e-17
9.30856e-05
3.07105e-06
3.23368e-05
3.11826e-05
1.00378e-06
9.8832e-08
1.41847e-17
6.65745e-05
5.06241e-05
3.02306e-16
4.34326e-07
4.78969e-05
8.55714e-06
1.88313e-06
3.12721e-05
2.98795e-05
3.68452e-16
1.28015e-05
5.99993e-09
1.44491e-16
3.90809e-05
3.24091e-07
4.32324e-17
1.30348e-05
4.69233e-05
1.75186e-06
2.33644e-05
2.13298e-05
9.335e-06
8.06686e-16
1.11807e-05
4.00389e-07
1.56133e-14
1.84144e-05
1.88801e-05
4.16164e-05
1.36496e-17
2.6956e-06
2.3984e-18
5.08832e-18
7.26347e-18
9.30333e-18
1.79146e-08
4.10344e-16
1.85316e-13
1.06978e-16
1.08602e-17
7.78647e-08
4.86309e-05
1.42803e-16
4.21558e-05
3.30735e-16
6.99769e-17
1.61629e-16
4.76127e-05
5.62698e-07
4.98837e-16
7.25789e-16
2.95522e-17
4.09872e-19
0.000273088
8.37214e-05
4.46308e-16
2.22812e-06
3.77514e-09
1.24666e-17
4.30941e-05
8.7439e-06
1.66198e-05
1.52779e-18
9.64188e-18
4.17887e-07
1.24023e-06
5.85606e-16
2.84714e-17
2.19495e-16
7.32924e-06
1.05528e-17
2.05604e-16
2.31366e-18
4.78542e-05
2.29999e-06
1.15593e-18
0.00492804
0.000259753
1.37662e-05
1.52939e-18
1.91969e-17
6.77286e-05
4.12191e-07
2.2743e-16
7.66295e-09
0.000173253
3.31201e-06
1.46176e-05
6.18386e-16
6.73157e-05
2.02774e-06
6.31818e-18
7.68013e-17
5.5316e-18
6.31027e-18
6.6765e-18
2.17246e-18
2.45348e-05
1.38298e-16
1.151e-17
1.32381e-16
1.39825e-05
2.86535e-05
1.40394e-16
2.25294e-17
0.000126782
1.55373e-05
1.05995e-05
4.51637e-16
1.55203e-17
4.10725e-05
2.16305e-17
2.47041e-06
2.78254e-06
4.26193e-06
5.37235e-17
2.12374e-17
1.14827e-16
3.38765e-18
1.78664e-05
3.03385e-18
4.05296e-17
1.07662e-06
4.27673e-17
2.58385e-05
1.93784e-06
1.49624e-16
4.33697e-05
0.000606104
2.74339e-06
3.55945e-05
2.13871e-07
5.56737e-05
1.61654e-13
1.78703e-15
2.59911e-05
8.74788e-05
8.11483e-06
8.63485e-17
1.19284e-12
0.000784146
1.27756e-05
4.55936e-19
3.48557e-06
3.43694e-06
1.60257e-06
1.36696e-16
5.43764e-17
4.01607e-16
1.52395e-05
5.58119e-16
3.17316e-06
1.79089e-16
1.39439e-06
1.44562e-06
4.10996e-05
7.37347e-07
1.4356e-17
1.03714e-17
7.15385e-18
2.34721e-05
2.91789e-17
6.13973e-17
6.2573e-08
1.71489e-17
8.12281e-18
8.76023e-17
3.77374e-18
1.1046e-05
5.65605e-17
1.58892e-17
6.72991e-13
4.19341e-16
8.08364e-18
1.17788e-16
2.00732e-17
4.00367e-09
2.04355e-06
1.66626e-17
4.60086e-06
1.03391e-08
3.82879e-10
8.30638e-08
4.97904e-06
1.36167e-18
1.12295e-08
1.15717e-05
4.48025e-07
1.28115e-16
8.13995e-12
9.6557e-07
1.5873e-16
1.12518e-05
2.71924e-07
2.23798e-09
2.7412e-05
1.06178e-05
2.67961e-06
8.44206e-06
2.70298e-06
2.98453e-17
5.92307e-17
3.33296e-05
3.01212e-05
2.10723e-17
8.28823e-06
6.59313e-05
3.71585e-05
2.28242e-16
1.73585e-06
1.09192e-18
1.41593e-05
1.79046e-05
1.83832e-16
1.51069e-06
6.93947e-07
1.59939e-09
4.90443e-06
6.20952e-17
5.96526e-05
2.01775e-08
2.06141e-06
4.37789e-08
1.66731e-08
1.09333e-17
1.26122e-17
9.39646e-06
2.29473e-17
1.37857e-07
3.5435e-07
1.35602e-07
6.98901e-11
8.67985e-11
1.37712e-09
8.05138e-18
3.32026e-16
2.62272e-05
4.73563e-16
7.44648e-07
2.60641e-06
1.08002e-16
4.13212e-17
6.16416e-10
8.75384e-13
6.34639e-18
4.70655e-09
2.03221e-18
1.05082e-17
2.1113e-17
2.00919e-16
6.84274e-17
2.43829e-16
3.85364e-07
8.13321e-17
5.26429e-18
2.4682e-17
7.36631e-09
6.90098e-08
2.03829e-06
1.06948e-05
5.41868e-18
9.61558e-18
2.37096e-07
6.42526e-18
1.2877e-17
2.12873e-16
2.27458e-05
4.91888e-05
3.03692e-17
2.63815e-17
1.01838e-16
7.03287e-18
3.04039e-18
2.47016e-18
9.25416e-06
1.09458e-17
4.69134e-11
3.12143e-05
1.18337e-17
1.10613e-16
5.61898e-17
2.36025e-08
2.33743e-16
2.02323e-17
9.57563e-18
8.6389e-09
1.69826e-17
5.78885e-06
1.29881e-09
4.50209e-12
1.22561e-17
6.67866e-08
2.91057e-06
5.31748e-05
3.56758e-16
7.47396e-09
7.46536e-06
6.3228e-17
1.50272e-17
4.07674e-16
6.83757e-17
9.18014e-06
3.47072e-06
4.36962e-06
2.10386e-10
2.749e-18
2.86042e-05
7.08776e-17
2.42812e-16
3.72233e-16
1.9731e-18
3.06601e-05
8.12464e-18
1.71387e-17
2.51823e-09
6.72775e-05
2.03861e-17
3.26531e-06
3.27564e-16
1.21243e-06
1.10004e-15
6.28863e-18
1.12933e-16
2.03924e-16
3.35377e-06
7.75089e-07
0.000409301
1.05722e-17
1.81951e-16
2.65699e-06
4.8352e-18
5.72538e-16
9.79878e-17
4.84665e-05
8.22214e-09
3.37913e-05
3.23976e-16
9.85064e-09
4.50835e-08
6.75652e-16
1.08894e-07
6.7962e-17
1.81802e-06
3.15019e-05
2.60833e-05
1.70107e-06
3.27551e-07
2.92456e-17
2.47419e-17
1.08733e-17
2.05794e-08
4.04814e-18
7.49253e-06
7.37051e-17
0.000212706
1.48442e-17
5.02687e-05
3.55567e-06
1.28319e-16
1.22339e-18
2.86939e-17
1.08135e-17
4.25585e-05
1.0785e-16
3.76663e-16
1.61262e-05
7.2844e-06
5.71508e-16
6.64509e-16
8.54611e-16
4.16716e-16
1.402e-16
5.48156e-19
2.73036e-05
5.38171e-07
1.72779e-17
1.98384e-17
4.59567e-10
6.99631e-17
1.7746e-06
9.88026e-08
7.98115e-17
3.56634e-06
3.95301e-17
3.60685e-07
5.4044e-17
1.02938e-06
5.59575e-17
1.23255e-10
2.41564e-09
8.96316e-07
1.9184e-05
3.63424e-05
1.26935e-09
1.99669e-17
5.26443e-07
1.02555e-16
5.24111e-06
2.95219e-17
2.96421e-17
1.21956e-16
2.29906e-17
4.87997e-18
3.8512e-18
7.57883e-06
8.30023e-06
7.69516e-17
5.60294e-17
1.28171e-16
7.37468e-07
1.83259e-08
2.59833e-17
2.22755e-05
2.42739e-07
1.46684e-16
2.98431e-05
1.106e-05
3.85955e-06
1.5202e-05
1.21806e-18
3.52321e-17
2.7773e-18
1.23799e-18
4.31066e-05
8.73082e-17
0.000129094
9.65603e-18
2.97275e-07
8.614e-07
9.55297e-18
9.23612e-07
4.61777e-18
1.9487e-17
3.07061e-06
3.13553e-11
8.59298e-06
2.12209e-17
8.17012e-17
2.74307e-17
7.73138e-07
8.02652e-17
2.26227e-17
1.3741e-16
4.58016e-10
4.56381e-16
1.1213e-08
1.26258e-16
8.99999e-17
2.31286e-17
2.32568e-05
1.52878e-05
2.1598e-05
4.09562e-05
9.84276e-17
1.34609e-08
1.78419e-17
3.29993e-17
1.33572e-05
4.43133e-17
3.09521e-09
3.46011e-07
8.00795e-06
3.54941e-07
1.01059e-12
2.74892e-06
5.45805e-18
9.99051e-13
9.05369e-13
1.25419e-07
1.185e-06
1.73739e-05
8.09207e-11
3.5635e-16
3.61678e-05
1.47317e-17
7.1248e-17
2.47249e-08
8.92382e-05
9.07111e-11
1.42589e-17
1.59289e-17
4.68089e-10
4.4918e-17
1.00826e-17
1.59369e-08
1.57803e-16
5.27121e-18
4.71173e-05
2.0645e-07
1.58981e-07
2.73474e-05
8.7434e-06
3.92299e-17
5.09722e-18
1.02197e-08
5.1445e-06
1.57692e-19
7.2321e-17
1.27769e-05
1.04384e-16
4.88366e-17
2.67416e-16
4.42411e-16
3.54949e-16
0.00309295
1.13814e-17
2.51374e-07
5.82895e-17
2.15192e-05
7.20934e-18
1.88941e-15
4.65234e-16
1.76435e-16
4.54875e-18
3.11668e-17
4.06456e-06
1.18685e-17
2.3008e-17
2.22573e-16
2.71965e-17
2.08386e-17
4.72772e-18
1.17714e-05
1.90342e-17
1.47659e-05
3.16516e-06
7.86312e-18
1.98133e-06
2.40919e-18
5.08018e-07
2.09423e-09
5.58947e-06
1.9084e-05
1.2497e-17
1.10516e-07
1.08205e-05
7.98864e-09
5.86841e-17
2.03553e-09
2.12771e-05
3.7684e-06
3.31367e-16
2.8637e-05
2.0068e-16
8.3525e-18
3.52921e-18
1.13541e-17
8.55442e-06
1.841e-17
1.3703e-17
8.82869e-06
1.44715e-10
1.95453e-06
7.51607e-19
1.07896e-16
8.09417e-07
1.35181e-17
1.24456e-07
3.15851e-17
2.83387e-05
1.97101e-17
2.49298e-17
6.67941e-08
1.96995e-17
1.39298e-07
2.53382e-16
1.27088e-17
7.50229e-06
4.9075e-07
6.35436e-06
2.10859e-05
0.000262678
2.38111e-05
1.39628e-17
1.46975e-15
2.77042e-06
7.97995e-06
4.20193e-05
1.46544e-05
5.83943e-17
1.38163e-05
6.92366e-18
1.94534e-17
9.49647e-06
1.20141e-05
7.75048e-17
1.59562e-05
2.5747e-18
4.25209e-06
9.92301e-06
1.44634e-16
3.04752e-18
1.34092e-18
2.96881e-06
9.84729e-18
2.20052e-17
4.36301e-06
2.59896e-05
4.75012e-09
9.99784e-06
5.92513e-17
1.10423e-17
8.74338e-08
9.15249e-07
3.56905e-17
1.06118e-05
8.60386e-16
2.60092e-06
5.74926e-17
1.62353e-17
1.31261e-05
2.10703e-17
4.95299e-08
3.58071e-06
3.22482e-17
7.68052e-18
4.30494e-06
3.39976e-14
6.29212e-05
1.75869e-16
0.000325395
2.9509e-17
2.52177e-16
1.27691e-16
7.62131e-06
2.89996e-16
4.70302e-17
6.06777e-06
1.99499e-16
2.46945e-07
5.77411e-16
1.1869e-16
1.71842e-17
1.66795e-10
8.47081e-07
1.20011e-17
2.14302e-17
4.20257e-05
1.02105e-06
1.3125e-17
6.31096e-07
1.83694e-17
1.7093e-16
1.58873e-09
3.72489e-06
1.11797e-06
1.77878e-17
8.84406e-17
1.0353e-17
1.16972e-17
3.32624e-17
2.88719e-17
8.02044e-18
8.85254e-18
3.81776e-17
3.06544e-17
2.60417e-17
2.60129e-17
1.32576e-17
4.08442e-18
8.01892e-18
9.84601e-18
1.81545e-17
1.06865e-17
5.38823e-17
1.20087e-17
2.87848e-17
2.15864e-05
2.16133e-17
5.43571e-17
6.46865e-18
7.31726e-06
1.58818e-17
3.62409e-17
0.000276888
2.60256e-16
1.19455e-17
2.57076e-05
1.28191e-15
3.82973e-18
6.80097e-06
2.81294e-05
8.14177e-19
2.05844e-06
3.44432e-06
2.65487e-16
1.44983e-05
4.61947e-05
1.92458e-05
3.20098e-06
1.1512e-05
1.25282e-16
4.4102e-17
3.80379e-06
1.35214e-05
3.04197e-06
3.09481e-17
6.48414e-06
1.88504e-06
2.18675e-05
1.35381e-05
4.64433e-07
1.56509e-05
2.15883e-06
1.02268e-05
2.72889e-16
3.12367e-05
9.0092e-06
2.20397e-06
1.23415e-06
1.17165e-17
6.47411e-18
5.64013e-18
5.7091e-17
1.02734e-17
1.21196e-05
1.47806e-05
2.16251e-18
4.1945e-18
2.03641e-16
6.31152e-18
2.81965e-17
2.04356e-17
4.1045e-17
4.22006e-17
5.14994e-06
1.46068e-07
2.32616e-05
7.23445e-08
2.31036e-17
7.23099e-16
3.81063e-05
5.50545e-09
1.14423e-18
1.7853e-17
8.6442e-06
6.76237e-17
1.75695e-17
5.54139e-09
8.36795e-06
1.54289e-05
3.54921e-05
3.56593e-05
7.52097e-17
1.6934e-05
3.72948e-07
8.06249e-17
4.12439e-17
1.2181e-05
8.79696e-17
1.36877e-17
2.61258e-05
0.00122337
2.01825e-07
6.15749e-16
4.22495e-17
1.78536e-05
2.82383e-05
2.0191e-05
6.07044e-06
3.26163e-06
3.33294e-18
1.06717e-09
2.93318e-12
9.89382e-17
1.10056e-16
2.07974e-05
3.19366e-18
2.27874e-06
3.05427e-05
1.80485e-05
1.12213e-05
1.70852e-16
5.27109e-06
1.06556e-17
8.06786e-17
1.09023e-16
1.84121e-17
3.08579e-06
0.000938329
2.59381e-18
5.27367e-18
4.90972e-09
2.78452e-05
8.19934e-07
7.28015e-06
3.82226e-05
3.68797e-06
2.01548e-05
1.73507e-16
4.96506e-17
1.6514e-16
3.54825e-05
5.94685e-06
2.8917e-11
1.49454e-17
6.06156e-17
2.14939e-16
2.4399e-05
3.27544e-06
2.44384e-17
4.90883e-06
6.08533e-05
9.87714e-06
6.53583e-06
1.22386e-18
6.01079e-16
7.30435e-06
2.64985e-05
1.22099e-17
3.29923e-07
1.57589e-05
1.12594e-06
1.11394e-05
4.92967e-06
8.6113e-06
1.09819e-16
4.08498e-06
2.43484e-05
4.48734e-05
1.01822e-12
2.7534e-05
4.40936e-17
1.88352e-05
1.09297e-07
8.94466e-17
2.3275e-06
6.49418e-06
3.86626e-07
1.25084e-05
1.47463e-09
1.90064e-07
2.15749e-08
3.53257e-05
3.52793e-06
4.17045e-17
4.1485e-05
9.10106e-07
2.17006e-18
3.59123e-18
4.00402e-11
9.18187e-09
1.2761e-06
0.0012498
4.00481e-05
1.10377e-05
2.71993e-10
4.71994e-05
7.27946e-17
6.85222e-17
5.08528e-06
3.11375e-17
3.86569e-06
6.06257e-06
1.88495e-06
5.57961e-06
3.20912e-17
2.41053e-07
0.000122891
1.77302e-18
3.95252e-05
7.76076e-06
1.54732e-16
3.47643e-06
6.80393e-07
7.19577e-17
4.58232e-12
7.86795e-08
8.45285e-17
2.9285e-17
1.21045e-17
3.27537e-06
4.7522e-06
1.61245e-05
2.92303e-16
6.35984e-06
3.39683e-05
1.15059e-16
8.04359e-06
1.24109e-05
2.71248e-05
1.65189e-06
2.09235e-17
9.6126e-07
1.30735e-05
1.03705e-05
8.58398e-06
4.26489e-05
0.000180035
4.27208e-06
2.12227e-16
4.0987e-09
6.24334e-05
2.75043e-17
3.96428e-07
4.92332e-18
7.01271e-18
1.45627e-16
1.1276e-17
1.88063e-18
3.60093e-06
8.11198e-18
6.45779e-06
1.62685e-06
7.00632e-17
4.89146e-06
9.19144e-16
1.67086e-05
2.43643e-17
1.62924e-08
4.77748e-16
2.40809e-05
1.5272e-07
2.09707e-09
3.62114e-06
2.96681e-05
1.95789e-05
4.21871e-06
2.46347e-05
5.72389e-15
2.10658e-05
6.03665e-05
9.2239e-06
1.31283e-16
1.32507e-06
3.5845e-07
5.6518e-06
1.3605e-05
7.59475e-07
7.51296e-17
5.31236e-16
1.48475e-17
4.72013e-06
3.34247e-17
9.24451e-08
1.60111e-07
8.72961e-07
3.15956e-07
1.10621e-16
2.79239e-16
1.83729e-17
8.33671e-06
2.46899e-05
1.82133e-06
8.64264e-09
2.10617e-06
7.19314e-06
3.06037e-06
1.09179e-06
8.17089e-06
7.29692e-06
2.64773e-06
1.28026e-16
1.84734e-19
3.87865e-16
1.53548e-05
1.12052e-05
3.26584e-16
1.71842e-18
8.07614e-16
9.40684e-06
2.31147e-05
5.19847e-17
2.18164e-06
5.82379e-17
6.10122e-10
6.20306e-06
9.44092e-05
6.73038e-17
2.7383e-18
4.65848e-06
9.12693e-18
8.62334e-08
1.29007e-05
6.90308e-17
1.14751e-05
3.86777e-05
1.88981e-05
2.67167e-17
1.11335e-06
8.86977e-17
8.79017e-08
5.59379e-05
5.40386e-17
6.22289e-17
1.29726e-05
6.23869e-16
4.21986e-16
3.98722e-08
1.51177e-06
1.04201e-16
3.34877e-17
1.35289e-16
7.99723e-08
1.62783e-06
4.19782e-06
2.58313e-05
1.07331e-05
4.77688e-17
6.00608e-10
6.45981e-07
2.54871e-17
9.86157e-18
6.31212e-17
5.02406e-17
1.91445e-17
1.08622e-16
2.11424e-16
8.32798e-17
1.50601e-16
1.91997e-16
2.23027e-12
7.4252e-17
4.43684e-07
1.24986e-16
1.59107e-07
2.83886e-16
7.20646e-08
7.84229e-17
8.24251e-18
2.84223e-05
1.03858e-05
4.99404e-16
0.000103131
3.68323e-12
1.63228e-13
8.6798e-18
1.33706e-06
1.16663e-17
2.78086e-06
6.13558e-09
1.13163e-06
8.76185e-17
9.44193e-17
8.56169e-07
4.73681e-11
3.37257e-17
7.03338e-17
4.44189e-05
4.48124e-16
4.2545e-05
6.64558e-17
9.41207e-18
2.85253e-10
3.17973e-05
9.27758e-06
6.84964e-17
3.87184e-07
5.18619e-16
1.94523e-06
1.73905e-08
1.85558e-06
8.71945e-07
3.20282e-18
2.31607e-05
1.13615e-06
5.84901e-06
1.04414e-17
1.54123e-17
4.43995e-18
1.04821e-05
3.49292e-06
5.22351e-05
1.13141e-17
3.85143e-10
4.89221e-17
6.79338e-17
7.55875e-17
3.88754e-17
3.18844e-06
1.98652e-06
2.16342e-06
0.000350476
8.40103e-16
3.34743e-05
3.98825e-05
1.82036e-05
1.5531e-06
5.22943e-18
7.39006e-06
4.37028e-06
5.76109e-06
6.54431e-10
1.06992e-05
1.66948e-16
2.04611e-06
1.18836e-06
3.75237e-05
1.0623e-09
3.31911e-06
8.08761e-17
2.01121e-05
1.06229e-16
2.0583e-17
1.80897e-06
1.75051e-17
8.17398e-06
1.03323e-16
3.07564e-16
4.72407e-16
3.09412e-17
1.58657e-16
7.66147e-07
7.2823e-17
7.02966e-07
1.47457e-16
7.05133e-18
2.23249e-05
6.47522e-06
1.02409e-05
9.32145e-06
2.96385e-17
0.000639223
3.50585e-17
7.90665e-05
5.78638e-17
2.17586e-05
2.38527e-05
2.36924e-06
6.47265e-05
1.54648e-16
6.46751e-16
3.49067e-18
2.37213e-06
1.08566e-17
5.08972e-18
1.81799e-05
8.3299e-17
1.11082e-17
5.38626e-06
3.65094e-17
1.23379e-05
9.71706e-11
1.52537e-17
4.82795e-17
1.276e-16
2.02219e-06
6.84574e-06
7.35625e-17
2.47755e-05
3.25127e-07
9.13373e-17
0.000115122
1.55811e-16
1.65563e-05
1.98042e-05
3.94349e-06
1.20057e-16
1.98785e-05
1.06788e-05
8.44786e-07
5.36177e-06
1.40721e-05
1.15355e-16
6.68311e-17
1.90226e-09
5.19345e-17
3.37693e-18
2.09843e-17
2.11627e-05
4.83299e-05
5.11589e-06
1.96898e-06
8.79701e-17
5.10122e-05
5.1554e-05
4.6824e-06
3.32059e-06
9.07934e-06
2.40017e-05
2.6843e-06
5.30652e-17
1.11775e-17
4.57125e-18
6.906e-06
1.20031e-18
2.96786e-05
1.71174e-16
8.40608e-07
4.39211e-10
2.65957e-06
2.97495e-05
9.08065e-18
5.16022e-17
2.6473e-06
3.91162e-07
2.36755e-16
6.53741e-18
6.7095e-17
5.11738e-08
2.87792e-07
1.38095e-07
8.00931e-07
9.463e-06
9.76226e-05
9.56675e-17
4.98114e-16
2.06982e-16
4.22539e-06
2.11264e-05
2.13203e-05
3.56395e-05
2.63571e-06
2.85623e-06
5.11945e-17
1.57624e-16
2.43441e-16
1.58564e-17
9.1303e-06
2.30821e-05
2.28482e-17
4.65027e-17
1.81684e-16
2.47676e-16
1.97603e-16
3.21825e-16
1.40037e-05
5.97424e-16
1.31222e-06
0.000410476
2.74447e-17
1.79712e-08
2.39955e-05
3.66427e-07
3.78522e-17
2.21001e-17
5.0518e-06
9.87073e-17
1.53315e-05
1.30772e-09
2.70236e-05
1.79876e-16
1.28881e-15
8.31799e-18
1.12931e-17
6.56716e-17
1.16109e-16
0.000219218
1.90828e-17
5.87032e-06
1.48324e-06
2.5652e-16
1.33842e-16
2.1651e-06
2.20795e-17
1.7583e-17
1.57881e-05
7.33123e-08
9.26542e-17
5.76481e-16
5.2704e-17
1.71141e-05
1.05915e-16
1.61842e-16
3.8694e-07
2.63098e-06
3.17389e-06
5.58127e-17
2.49331e-17
6.85759e-18
3.78302e-06
1.83248e-06
1.29638e-05
3.57257e-06
1.09709e-18
6.77846e-07
1.54738e-05
7.27771e-06
6.83353e-19
3.10436e-16
1.65089e-16
1.8042e-16
1.00098e-16
3.19048e-05
7.47834e-06
5.57112e-06
6.18699e-17
3.39604e-18
4.4575e-17
3.76211e-17
4.13609e-17
9.15701e-10
3.962e-07
2.38173e-06
4.22905e-17
1.41589e-16
2.22216e-16
3.73097e-12
3.60945e-05
0.000123007
9.5881e-19
1.57231e-12
8.97295e-16
1.41024e-16
9.68558e-17
3.46596e-06
7.42313e-06
3.52756e-17
4.95962e-16
3.34625e-06
1.53186e-16
9.93703e-07
1.01941e-06
0.00244978
1.0323e-18
8.38897e-17
1.75855e-05
5.10607e-07
3.12069e-17
0.000770635
5.39281e-07
7.9135e-06
1.07846e-16
9.25362e-17
4.48266e-16
3.05867e-17
6.96481e-06
1.18663e-07
3.36576e-16
2.70134e-05
2.00893e-05
0.00100923
4.6845e-17
4.05635e-18
9.18648e-17
2.40068e-17
6.70328e-06
6.22238e-11
2.02779e-16
3.64726e-17
1.90443e-05
1.10783e-06
6.52482e-06
7.21939e-18
6.58135e-17
3.19255e-05
7.25246e-17
1.01681e-16
3.04392e-17
2.6366e-17
2.74269e-05
1.05723e-16
1.00548e-17
7.75495e-18
2.74278e-05
1.66008e-05
1.3264e-17
4.32843e-17
4.4329e-17
1.70626e-05
1.36208e-10
3.49311e-17
3.04395e-17
2.7693e-16
4.42608e-16
2.66448e-06
1.13485e-05
6.5821e-17
2.32567e-06
1.00998e-06
4.59642e-06
2.62599e-15
3.7073e-16
5.17914e-17
3.32995e-17
1.04123e-17
2.52331e-05
6.21443e-16
1.78853e-05
7.71287e-17
1.55513e-06
1.48381e-15
2.33629e-06
1.44894e-16
1.43116e-18
1.21591e-05
0.000230304
7.18645e-16
3.50179e-06
8.06975e-17
3.74464e-07
4.42947e-17
1.95408e-17
1.05442e-16
2.87218e-10
1.72334e-16
4.23023e-07
8.89686e-17
3.91411e-05
4.5931e-18
3.67823e-16
8.5664e-18
9.03911e-17
7.75347e-09
1.46443e-07
1.58037e-17
5.32281e-06
3.01065e-18
3.77063e-06
2.24511e-05
1.26013e-06
9.21544e-18
4.40606e-09
4.32904e-07
1.97258e-09
5.86256e-06
4.4241e-10
1.59706e-06
6.52713e-16
3.22675e-17
4.39806e-10
5.18664e-06
2.41394e-07
6.39694e-17
2.96414e-17
1.31564e-16
0.000579646
1.1947e-17
1.77489e-17
1.52755e-17
1.05218e-16
1.61893e-17
8.55901e-08
1.80663e-07
1.07547e-06
4.49411e-08
5.98562e-18
1.4138e-06
7.61619e-17
7.4358e-06
3.29623e-16
1.62833e-17
1.47371e-17
7.38586e-17
2.06732e-08
3.06254e-17
4.8947e-17
3.60553e-17
1.70463e-05
3.78229e-16
8.08556e-18
1.22385e-05
2.14065e-16
6.0782e-05
0.000107961
0.000546169
1.5032e-16
0.00023901
0.00144017
0.00175844
0.000788975
1.6144e-17
3.97423e-18
5.31978e-06
5.76156e-06
6.20823e-17
5.79291e-06
4.32936e-18
3.42755e-05
1.40103e-16
2.07096e-17
6.64989e-07
1.32442e-16
1.23741e-16
1.02764e-08
3.74315e-08
9.90497e-18
1.13988e-17
2.22166e-09
8.33196e-17
1.01222e-16
2.49231e-08
8.93207e-06
1.38002e-06
1.10025e-16
7.8101e-06
1.01733e-16
3.21849e-06
4.88059e-10
7.19506e-06
1.73762e-17
5.78099e-12
5.89983e-06
5.20682e-17
1.37696e-12
3.02207e-18
3.5902e-05
5.70595e-17
1.13734e-05
1.79263e-17
1.58453e-10
4.93004e-18
2.94198e-17
1.66649e-17
4.76763e-13
2.76878e-13
1.7343e-16
1.3508e-05
8.77954e-06
2.15614e-16
2.2013e-16
3.91857e-05
2.24382e-05
0.000210014
1.18832e-16
7.0313e-08
2.75414e-05
5.39014e-05
5.62171e-11
1.15054e-16
6.77753e-05
9.89387e-18
0.000257461
5.06497e-17
3.60576e-11
3.71508e-11
1.62134e-16
7.25449e-08
3.68675e-16
2.31405e-05
5.53949e-18
4.24055e-18
6.99598e-17
2.45786e-16
2.0519e-16
6.63214e-17
3.47568e-07
1.83887e-06
0.000158285
7.02877e-17
3.06371e-16
4.74627e-05
2.69906e-17
2.92854e-18
3.39343e-18
8.46919e-18
4.35179e-17
5.49682e-06
1.96221e-17
9.33389e-17
3.02562e-19
3.08465e-06
4.218e-16
1.0166e-17
9.09716e-17
3.14896e-06
1.41997e-18
5.42282e-06
0.000250771
5.2204e-06
6.1177e-06
2.4794e-05
4.15462e-17
2.12778e-17
1.29472e-16
3.46151e-06
2.1975e-06
8.44746e-18
2.25735e-15
5.91218e-07
2.54008e-16
1.1663e-16
0.000374226
2.76853e-17
2.49429e-05
3.22e-17
2.44445e-06
4.08509e-06
1.87568e-17
1.38582e-18
4.66096e-17
4.99822e-17
1.23389e-16
2.24686e-05
1.76364e-17
4.08122e-06
9.74325e-18
1.19362e-16
6.7253e-06
1.17339e-18
1.60724e-05
1.21674e-16
1.28954e-18
2.44376e-06
1.15101e-07
0.000153767
1.88238e-16
3.77176e-17
1.02949e-16
5.21861e-06
0.000198778
3.19452e-17
2.42897e-17
3.39838e-16
1.09219e-06
1.63578e-16
2.46523e-05
3.15593e-05
1.63333e-16
7.98397e-18
6.23772e-06
1.64089e-16
1.73729e-16
2.88717e-18
3.71311e-16
1.53971e-17
7.34499e-05
1.79968e-15
4.40698e-16
2.86841e-17
2.62425e-16
5.8633e-17
1.77842e-16
1.3476e-16
2.88966e-17
3.83249e-16
1.0944e-05
1.64108e-16
7.93686e-06
7.32359e-16
6.98658e-17
0.000659242
2.78588e-06
2.80988e-17
8.46984e-17
4.50142e-17
2.19184e-06
2.08339e-16
7.59934e-17
9.07854e-17
7.29037e-17
6.22608e-06
1.71016e-17
3.96786e-06
7.61808e-17
1.18036e-05
9.1156e-17
6.46434e-05
9.23118e-17
1.52999e-16
2.13977e-05
1.38233e-16
3.41695e-17
3.22745e-05
3.30588e-07
9.98172e-17
1.00941e-17
4.38201e-05
1.27384e-05
6.7036e-06
6.14561e-07
1.46672e-06
1.90111e-05
7.67904e-07
6.11562e-06
6.9887e-17
2.82907e-05
1.02082e-16
6.55775e-17
1.23248e-18
3.90336e-16
1.56452e-16
9.27802e-06
3.10998e-16
9.15583e-18
4.58986e-17
1.87944e-09
1.30863e-08
5.47255e-16
3.02374e-06
4.21461e-16
4.51748e-06
2.0632e-17
1.05779e-09
5.73737e-06
6.94444e-16
4.83538e-05
9.97887e-18
1.54581e-17
2.07198e-17
2.83302e-06
1.53782e-06
1.15298e-17
1.57443e-17
2.24299e-06
6.23521e-17
0.000737293
2.15891e-17
0.000104066
1.94697e-17
3.71467e-18
8.30994e-17
1.48209e-17
1.09861e-05
4.51086e-18
5.20729e-08
1.11441e-17
1.0307e-05
1.27539e-17
3.6424e-17
6.30321e-15
2.49329e-16
6.83648e-18
3.40333e-16
1.03223e-16
3.7898e-17
4.85316e-06
0.000236084
6.6741e-17
4.80855e-17
4.62202e-07
9.92664e-18
4.47577e-17
1.9927e-09
1.99961e-05
1.86167e-07
2.48111e-18
4.27862e-07
4.16298e-06
5.83277e-06
9.88019e-06
1.30272e-16
6.14545e-17
6.95343e-16
1.31565e-16
1.87772e-17
7.48519e-18
5.13494e-18
6.26525e-17
3.07681e-17
4.29142e-18
5.05494e-17
7.58074e-18
8.41081e-05
2.46717e-17
4.38845e-17
1.9623e-12
1.0159e-16
1.1401e-16
0.00125094
1.76489e-17
4.1623e-18
1.85522e-06
1.0207e-12
6.19881e-17
8.90028e-17
7.37886e-18
2.38728e-05
1.89858e-17
8.55568e-17
4.48429e-11
2.84491e-19
5.29481e-17
3.12137e-17
1.52927e-16
0.00012488
3.35576e-18
2.31791e-07
4.95729e-17
9.42861e-17
2.26454e-17
1.06448e-16
2.87215e-17
3.421e-11
5.90806e-11
1.6939e-07
1.11081e-16
1.09721e-16
6.9432e-16
1.23988e-10
5.22736e-18
3.24518e-10
2.23047e-11
7.43273e-18
5.0937e-17
1.0111e-16
1.42566e-11
3.14372e-17
1.68566e-16
1.86775e-12
5.95636e-16
3.62689e-05
1.69677e-17
7.14734e-06
3.75834e-16
2.34402e-09
1.46635e-17
1.73768e-06
1.42275e-17
4.77882e-06
2.54879e-05
9.69995e-19
2.89579e-06
1.24401e-08
2.64954e-17
1.05462e-05
1.8829e-17
5.44317e-17
1.48977e-16
5.00138e-17
1.6739e-16
4.61936e-18
5.51978e-17
4.42691e-17
0.000299072
5.37545e-17
3.10148e-18
3.55696e-17
3.72397e-17
9.42616e-18
3.60611e-05
0.00094324
2.85963e-09
1.5991e-08
1.50114e-18
2.0298e-06
1.41363e-06
1.01137e-16
3.26945e-16
8.62137e-16
6.7667e-18
1.14994e-16
6.92174e-18
6.42427e-17
1.64553e-16
4.68575e-07
5.17527e-16
6.09325e-17
1.61414e-07
2.55662e-09
2.93568e-17
3.09551e-05
5.59973e-17
1.68837e-16
2.11581e-16
0.0001924
6.41676e-16
1.73956e-19
2.74348e-05
1.7543e-17
1.61864e-17
9.75953e-17
4.36035e-16
5.96311e-05
9.36808e-18
9.99063e-17
1.29773e-17