/*--------------------------------*- C++ -*----------------------------------*\
  =========                 |
  \\      /  F ield         | OpenFOAM: The Open Source CFD Toolbox
   \\    /   O peration     | Website:  https://openfoam.org
    \\  /    A nd           | Version:  10
     \\/     M anipulation  |
\*---------------------------------------------------------------------------*/
FoamFile
{
    format      ascii;
    class       volScalarField;
    location    "4.1";
    object      T;
}
// * * * * * * * * * * * * * * * * * * * * * * * * * * * * * * * * * * * * * //

dimensions      [0 0 0 1 0 0 0];

internalField   nonuniform List<scalar> 
111485
(
303.15
285.086
301.173
303.15
298.737
283.15
299.309
293.137
296.697
286.293
300.789
296.275
300.473
284.54
300.286
286.637
298.889
299.409
294.545
303.15
303.15
283.15
297.662
288.555
301.517
303.15
293.284
300.441
289.22
303.15
300.79
293.809
303.15
283.15
283.475
283.15
302.318
298.232
283.149
296.965
283.15
289.873
297.37
302.904
303.187
303.15
287.54
288.416
289.916
303.15
303.15
283.15
303.15
299.172
303.15
294.154
287.792
283.15
283.33
295.863
296.266
303.15
302.237
300.421
283.15
284.678
300.865
291.43
302.265
302.573
303.17
302.029
303.15
302.28
303.15
294.888
283.15
293.662
283.15
283.15
283.247
293.507
283.15
303.15
300.621
284.304
283.15
301.669
303.133
299.62
283.421
289.739
301.129
300.097
290.108
303.15
303.15
301.67
303.149
283.437
303.15
286.765
283.15
285.329
285.615
283.15
283.15
292.491
301.521
283.146
299.033
288.492
301.449
301.77
303.15
302.106
303.15
283.15
300.484
303.15
303.15
283.15
283.15
283.15
283.422
303.153
283.15
301.974
303.15
283.181
303.078
302.062
303.15
283.15
283.15
292.991
283.15
294.865
299.179
301.363
303.139
297.228
299.35
284.829
302.315
298.422
283.15
303.15
283.15
297.583
285.021
303.15
303.145
287.816
283.156
294.218
296.12
302.516
283.154
303.15
303.15
292.69
286.281
283.153
283.157
301.498
283.718
283.15
283.153
283.153
283.15
303.15
283.214
283.15
291.112
287.304
283.15
303.15
303.15
283.15
303.15
303.15
298.057
293.993
296.267
290.412
301.492
300.794
283.193
303.15
301.704
303.15
303.15
300.558
286.32
301.54
301.178
296.196
303.15
300.857
284.629
283.161
300.91
296.665
303.15
300.788
288.45
303.15
283.237
300.267
284.879
301.051
303.15
303.15
301.062
283.15
293.13
283.15
300.976
299.16
290.525
303.15
301.81
300.641
283.15
283.15
283.15
289.683
283.158
283.15
303.15
299.104
292.109
290.363
283.15
303.15
303.111
303.15
284.362
300.487
299.703
299.972
299.85
283.15
283.143
299.39
283.15
283.15
288.852
288.832
283.15
301.26
299.418
303.15
283.15
301.052
303.15
303.15
303.123
303.15
288.187
285.729
291.521
303.15
298.895
303.15
303.15
303.15
283.148
298.223
301.274
299.824
291.243
299.876
296.712
283.217
290.94
292.354
283.15
303.15
283.149
292.065
298.917
286.466
303.15
298.448
297.638
299.323
302.968
283.165
297.609
299.764
302.031
283.15
283.657
283.15
283.149
303.15
283.979
290.301
286.562
303.15
283.15
298.103
285.603
303.15
303.15
303.15
284.851
290.93
301.292
284.517
293.426
283.15
283.15
303.15
298.85
303.15
283.91
289.827
283.152
283.15
303.15
303.15
283.15
294.857
289.921
283.15
296.295
283.15
303.15
301.19
297.836
294.031
296.391
283.15
283.15
283.15
297.17
291.75
302.398
283.15
283.15
283.149
290.067
297.48
283.224
290.878
283.15
293.199
299.95
284.239
298.873
285.261
283.15
303.15
283.15
303.15
290.449
296.135
288.206
292.422
283.15
286.375
283.15
303.15
294.232
303.15
302.014
303.15
283.15
292.354
283.15
289.459
284.689
283.15
283.99
298.493
283.15
300.536
284.781
299.304
303.037
291.767
285.928
283.15
303.15
303.146
283.15
301.148
300.972
283.15
283.15
294.285
284.39
298.772
296.781
283.15
295.399
296.222
283.15
302.129
283.915
303.15
303.15
288.846
298.901
283.15
303.15
303.15
303.15
300.743
283.15
303.15
293.987
283.171
287.09
300.163
283.15
283.15
302.67
283.15
302.523
301.551
298.128
289.879
283.15
294.579
303.388
303.15
298.882
292.338
303.15
283.15
283.314
283.15
290.214
286.311
292.361
283.15
293.564
296.645
293.745
303.147
283.15
303.15
303.15
283.169
293.439
283.15
284.376
303.136
283.15
303.15
303.15
303.15
301.792
291.178
286.085
284.244
284.365
283.15
285.794
303.15
300.882
283.15
303.15
303.15
300.761
303.15
303.15
283.151
303.15
283.15
300.824
283.15
283.15
283.15
303.15
283.15
303.15
283.15
283.693
283.15
303.132
301.861
283.787
283.15
303.092
283.15
303.15
284.727
284.693
286.199
297.83
283.15
297.778
297.88
292.987
287.302
285.283
303.15
292.432
283.15
300.065
283.15
297.082
283.15
292.781
298.711
303.15
283.15
287.281
303.15
295.825
299.324
283.15
283.15
283.15
283.15
303.15
293.982
283.15
283.15
283.25
283.15
300.031
283.15
284.875
303.15
283.443
303.124
284.806
292.6
283.15
301.653
283.15
283.15
285.77
283.15
283.264
283.15
299.885
303.15
290.938
303.15
283.15
302.442
284.493
300.282
285.694
300.275
289.484
283.15
300.799
284.574
283.15
283.139
300.539
301.709
283.15
282.346
301.215
303.07
283.118
303.15
287.597
302.285
284.426
285.451
288.778
282.453
283.15
303.15
300.98
303.15
283.58
283.15
283.15
292.427
282.646
303.15
303.122
283.15
286.361
299.843
283.15
283.15
299.856
303.15
283.15
283.15
283.15
286.227
283.15
303.15
284.874
284.35
303.15
299.947
283.15
288.82
303.15
283.15
286.243
283.15
283.15
283.15
285.715
283.15
285.531
292.6
303.15
300.539
283.457
298.971
301.039
283.384
283.468
283.15
289.189
298.743
303.15
302.195
296.173
297.202
284.695
297.755
297.494
303.15
300.323
303.138
283.15
297.478
284.924
283.15
293.024
296.082
284.936
299.03
300.816
292.998
283.15
299.154
283.477
303.15
300.758
302.068
294.78
283.15
286.97
303.15
283.15
283.15
283.15
283.313
283.15
303.15
303.15
283.15
300.572
299.499
303.15
285.714
303.15
303.15
303.15
290.11
283.436
283.15
303.15
283.15
283.15
287.064
293.042
283.15
295.471
283.134
283.15
295.633
302.29
288.32
283.15
283.15
300.619
292.78
283.15
283.15
283.15
294.158
303.15
303.15
283.15
296.556
302.419
283.15
282.621
302.013
286.993
283.15
283.15
287.51
302.994
283.15
283.16
287.775
283.8
289.147
283.15
285.795
300.429
283.15
303.15
283.15
283.15
283.15
283.15
296.003
303.15
283.15
283.15
295.62
292.492
303.15
303.15
290.051
298.917
298.806
303.15
283.15
298.488
303.15
283.897
299.362
298.889
303.15
303.15
303.15
283.15
286.08
283.15
283.15
302.726
303.15
298.266
302.332
283.15
294.738
283.265
296.988
292.043
283.445
290.019
283.15
283.15
297.408
288.314
290.487
283.15
283.15
298.518
295.488
283.15
283.949
284.677
283.488
303.15
303.15
303.15
290.315
283.15
300.442
283.15
284.366
297.539
298.914
292.961
283.15
283.15
303.15
296.037
283.15
283.15
303.106
283.15
283.15
303.15
283.15
299.691
283.15
283.15
283.15
283.15
283.15
303.15
283.15
283.173
298.587
303.15
302.54
283.129
283.409
283.091
285.74
283.15
284.476
290.673
283.409
303.15
283.15
300.146
283.15
300.632
283.165
283.143
286.242
298.012
283.227
291.259
297.478
283.15
283.15
299.492
300.124
283.15
297.791
291.32
297.004
283.15
283.25
283.15
297.372
296.426
283.15
300.538
297.098
283.149
300.246
283.15
295.625
283.144
303.117
283.162
283.16
283.15
283.15
284.511
283.15
302.98
283.622
283.095
303.148
303.149
303.148
283.15
283.15
294.465
303.15
303.133
283.899
283.15
283.15
303.155
303.15
283.15
303.164
283.15
283.15
303.15
303.15
303.15
303.15
283.38
283.15
283.15
283.15
303.159
283.315
283.902
294.124
283.15
283.15
283.348
283.15
283.15
283.15
287.334
294.198
283.15
283.15
283.15
283.15
283.15
283.15
284.041
283.15
303.151
291.658
283.15
303.15
303.15
303.152
303.15
303.15
283.15
303.168
283.15
283.732
283.144
303.152
283.15
303.068
284.491
292.565
303.15
303.13
284.546
303.15
283.15
303.15
283.15
294.709
293.67
284.737
303.148
283.15
293.886
283.15
283.15
303.15
283.15
295.373
283.15
303.15
283.163
298.04
303.15
284.481
283.15
283.616
283.15
283.15
283.15
303.15
286.263
283.495
284.609
283.15
283.15
286.037
283.15
283.15
303.15
284.436
303.163
298.823
303.15
303.13
303.131
283.15
303.134
283.15
283.471
289.348
300.822
283.858
283.167
283.15
283.15
283.15
303.18
283.15
302.936
303.15
293.396
303.15
288.544
283.84
303.15
283.15
303.15
283.15
301.91
303.15
303.15
286.865
300.74
283.15
283.15
283.15
283.15
283.15
283.15
300.99
283.599
303.15
303.15
303.156
303.15
300.388
284.427
283.15
302.195
303.15
301.759
283.15
302.649
283.15
283.148
303.152
283.328
302.212
300.423
283.147
283.15
289.47
303.15
293.945
303.15
283.15
303.15
283.15
283.15
283.15
300.975
302.14
303.15
303.15
303.15
302.93
283.149
303.15
293.451
283.08
303.15
297.092
297.805
297.005
283.391
283.15
283.15
283.15
283.15
295.137
283.15
295.143
283.15
303.071
289.781
283.15
302.892
283.15
283.15
302.787
283.148
302.919
283.15
303.15
283.15
302.511
283.15
303.15
283.15
283.147
283.15
283.174
283.15
283.15
303.15
292.438
300.944
296.283
297.411
303.15
303.122
283.15
283.15
286.098
283.15
283.158
302.88
298.404
302.967
303.15
283.386
283.15
303.15
283.15
303.006
283.351
297.902
283.15
303.15
288.155
303.15
283.15
283.12
295.284
283.147
283.15
283.15
283.148
303.15
283.15
303.144
303.15
303.15
290.396
303.005
303.022
289.476
293.948
283.15
283.15
303.103
289.552
283.15
303.15
284.854
283.15
303.15
283.15
283.15
283.15
298.057
283.15
302.951
283.15
300.682
283.15
283.15
283.15
283.15
283.15
283.15
285.205
283.15
283.15
283.15
283.15
283.15
283.15
292.565
283.15
297.966
302.968
283.15
302.325
283.15
302.579
303.145
291.674
288.448
303.15
291.549
284.94
303.116
303.15
303.139
294.583
288.521
283.15
287.821
283.15
283.15
283.15
283.15
287.562
283.15
283.15
291.073
303.138
285.206
283.15
283.15
302.526
283.15
283.191
303.15
299.591
283.15
283.15
302.829
283.15
303.177
303.15
283.15
288.874
298.025
292.19
285.968
292.847
294.122
283.15
283.15
302.382
290.146
293.331
284.497
283.15
293.878
283.15
303.15
300.911
298.84
283.15
297.011
283.15
292.346
297.806
303.15
283.15
283.15
301.918
283.15
283.15
300.725
295.714
283.198
290.798
283.15
283.15
302.827
300.741
283.15
300.87
283.15
300.739
283.15
283.15
301.022
283.15
283.23
301.788
283.15
283.15
302.549
283.15
287.918
303.15
290.69
303.15
303.15
303.15
301.151
283.15
283.15
299.874
283.15
302.996
283.15
283.15
303.15
283.15
288.193
283.15
283.15
288.05
288.229
283.15
283.749
283.15
303.15
302.495
283.786
301.743
283.15
283.15
283.15
283.15
283.15
283.15
283.15
283.15
283.15
283.15
283.15
303.15
283.15
283.15
283.15
283.15
283.15
283.15
283.15
283.15
303.15
286.964
283.15
283.15
283.15
295.256
283.15
303.15
303.04
283.15
283.15
295.269
283.15
283.15
302.044
295.727
283.15
303.545
303.563
283.15
301.608
294.513
297.988
301.708
298.672
303.15
283.15
295.907
292.284
301.659
283.15
302.305
302.448
301.159
287.84
286.981
301.333
301.723
301.986
303.15
285.997
298.041
285.74
297.762
283.15
283.15
283.15
303.15
283.15
292.544
298.378
283.15
283.15
283.15
283.15
283.15
303.15
283.15
303.15
291.766
303.139
299.465
302.847
283.15
283.15
285.462
283.169
283.15
283.15
301.675
303.15
283.15
298.613
299.915
297.995
298.916
300.968
303.15
290.571
302.636
303.15
303.15
300.59
303.15
283.15
282.887
295.81
302.959
283.15
303.15
289.891
286.331
296.565
292.744
302.529
303.15
303.138
303.15
303.15
283.15
298.89
283.15
292.317
290.545
300.06
284.725
303.15
302.129
303.15
283.15
303.15
303.15
291.327
300.117
283.15
303.15
303.137
292.295
303.053
299.803
293.48
288.049
293.512
283.15
303.15
283.15
291.647
298.834
303.151
303.15
303.15
303.15
297.716
302.562
283.15
300.422
301.271
285.112
299.986
303.15
303.15
299.191
293.562
283.15
302.924
299.891
302.619
292.514
297.875
298.754
303.15
286.798
297.74
291.916
283.15
289.563
303.15
288.344
301.341
303.15
288.524
301.51
300.201
293.743
283.148
283.16
283.247
301.905
301.202
303.15
288.394
301.671
303.15
283.15
303.15
303.207
299.177
291.564
296.841
303.242
283.149
297.856
303.15
303.15
293.434
303.15
300.165
283.32
301.548
290.941
303.15
283.68
293.879
303.15
283.017
299.208
303.15
301.069
286.224
303.15
303.15
283.983
303.15
283.15
283.15
285.689
299.589
291.583
303.15
285.411
298.041
283.15
299.392
299.42
288.672
303.123
283.15
301.336
299.024
299.39
300.502
288.292
291.061
302.463
303.15
301.708
288.551
303.15
299.4
283.15
283.15
303.15
283.15
303.15
297.601
283.15
300.919
283.676
303.15
283.857
283.15
289.547
303.15
303.146
303.15
294.245
303.007
303.124
300.209
289.941
289.402
290.057
298.939
303.15
299.813
292.716
299.376
303.15
283.866
283.481
299.698
287.221
283.537
303.15
283.15
303.15
285.522
303.15
303.281
284.647
303.266
302.964
303.15
303.15
283.15
300.867
300.613
285.871
303.095
286.688
296.258
301.781
293.065
288.718
302.013
296.676
283.15
283.15
303.15
285.831
289.474
283.15
283.15
303.15
301.925
289.283
303.15
296.927
303.15
283.156
285.373
301.115
303.15
303.15
292.852
303.15
283.318
290.124
283.15
297.618
294.579
295.466
303.15
302.751
283.15
302.719
293.809
303.15
303.15
288.374
283.15
303.15
301.972
284.614
303.15
303.15
283.15
302.364
303.375
289.889
299.916
298.055
303.15
303.158
302.645
303.15
283.15
303.15
303.15
303.15
303.15
303.15
303.15
303.15
283.15
303.15
303.15
283.363
303.15
303.295
303.15
303.161
303.15
303.15
301.091
303.671
303.15
292.27
303.15
303.15
283.15
302.612
303.15
302.206
303.118
283.299
283.15
303.15
302.95
283.149
303.15
303.15
291.836
283.15
293.069
283.15
283.15
283.151
291.698
284.799
303.15
296.739
283.15
303.609
303.135
284.28
302.646
283.15
292.645
303.086
301.747
283.15
303.15
283.15
303.905
284.762
296.514
303.15
303.15
303.15
303.15
303.15
303.15
302.431
302.845
297.597
292.404
303.15
287.415
293.1
284.964
303.203
283.15
286.813
302.795
284.706
283.147
287.273
303.15
283.411
302.944
293.013
302.878
301.987
303.15
302.259
303.15
303.15
298.406
303.15
284.608
303.15
303.15
283.15
303.15
303.15
302.878
303.15
283.306
283.15
283.15
286.059
284.989
300.693
286.264
303.15
295.33
303.15
290.559
303.15
287.455
300.839
301.604
293.532
303.15
303.15
303.15
289.366
283.15
303.15
289.129
283.15
283.15
301.927
303.15
286.026
283.148
283.15
303.15
303.15
300.617
298.592
303.15
294.148
303.047
283.15
298.648
303.15
286.15
288.201
302.125
303.15
296.605
296.351
302.969
301.982
301.702
303.15
303.15
303.147
303.15
283.15
303.15
289.145
300.099
294.112
302.241
283.15
300.584
291.867
298.607
283.656
298.634
289.926
302.248
283.15
283.15
283.15
302.289
283.15
290.726
283.15
301.394
303.16
289.298
297.678
283.15
303.15
301.381
301.359
303.15
283.15
303.15
286.128
301.579
302.998
302.421
297.875
288.203
303.15
303.15
303.15
294.965
286.236
290.352
296.319
283.957
302.981
303.15
303.15
283.15
283.15
285.26
299.852
303.15
303.15
283.15
303.15
303.15
303.15
300.457
303.15
285.479
293.215
283.15
283.254
293.529
285.492
303.15
303.15
301.998
303.15
299.43
283.146
297.534
303.15
303.15
283.15
303.15
303.15
303.15
305.469
303.15
301.95
300.977
303.15
303.15
301.737
303.15
283.15
287.2
303.125
303.15
303.15
303.15
298.531
303.15
303.15
302.606
302.553
301.894
303.15
283.15
303.15
302.138
302.576
301.649
302.635
283.15
301.071
288.018
297.279
283.15
303.15
303.15
303.15
303.15
294.588
287.391
299.38
303.15
303.15
303.15
303.15
283.15
303.149
285.071
285.109
283.15
303.15
303.15
283.147
299.773
295.294
283.15
303.15
303.15
303.15
303.15
289.29
289.854
303.15
303.15
302.384
303.15
301.277
283.956
292.154
303.15
283.15
300.964
303.129
303.15
303.38
301.529
287.09
303.15
303.15
303.15
303.15
292.907
284.323
303.15
302.733
298.364
290.306
303.15
303.15
303.15
303.15
299.804
303.151
303.15
303.15
298.834
302.595
288.881
303.15
303.15
298.06
303.15
303.15
303.15
303.15
288.709
303.15
283.15
283.15
296.601
291.215
303.15
303.15
303.15
297.361
303.147
303.15
303.15
303.15
303.15
303.458
301.046
303.15
287.358
302.709
299.79
303.15
303.15
303.15
303.15
283.15
285.9
303.15
302.831
283.15
302.26
303.15
303.139
303.15
283.15
301.96
286.23
283.15
302.867
303.15
302.48
283.15
303.15
303.15
303.151
303.15
283.281
303.15
290.719
283.15
283.15
303.15
303.15
299.382
302.432
283.15
302.507
283.15
284.187
288.19
302.733
283.15
303.154
303.002
303.137
284.524
283.156
303.003
283.15
283.15
283.156
302.262
302.37
303.15
283.15
283.15
296.233
303.15
283.15
303.15
303.15
303.15
303.102
303.06
302.958
302.528
303.15
302.939
303.15
284.974
303.15
303.15
283.15
303.15
303.113
303.15
283.15
303.15
288.159
303.15
303.15
303.19
283.15
303.224
302.542
297.671
303.15
290.575
296.029
284.203
291.082
283.15
283.15
287.067
284.417
283.15
303.674
283.15
286.291
303.15
283.15
303.156
303.15
303.15
303.023
303.155
303.15
283.15
303.141
303.15
283.15
283.101
298.998
302.755
303.15
301.936
303.15
285.5
303.151
301.328
303.15
303.15
301.172
303.15
303.15
303.15
287.585
303.15
285.119
303.15
303.147
303.15
283.15
283.15
303.15
303.15
303.15
288.713
302.603
303.15
303.15
289.037
286.56
291.761
303.15
302.747
287.604
287.639
303.15
303.15
288.159
283.15
292.265
303.15
303.152
303.149
303.15
300.858
283.15
302.343
283.15
303.15
303.15
303.15
303.15
303.15
284.424
302.269
291.414
303.15
303.15
290.937
303.15
303.15
303.15
303.15
303.15
300.54
303.15
303.15
283.15
299.917
303.15
283.15
303.15
301.554
283.15
300.343
290.817
302.708
300.398
299.888
303.15
303.15
303.15
301.23
289.035
283.15
303.15
300.657
303.15
303.15
292.36
303.15
287.548
303.15
298.388
284.413
303.15
283.15
303.15
303.15
303.15
285.407
303.15
300.795
303.15
303.15
300.11
283.15
284.899
303.15
303.15
288.351
301.39
296.774
303.15
303.15
303.15
301.408
292.534
303.15
283.15
303.15
301.033
303.15
284.921
296.66
303.15
303.15
301.402
303.15
303.15
283.15
303.15
283.15
294.998
303.15
283.15
303.15
303.15
303.15
303.15
303.15
303.15
283.15
301.352
283.15
302.19
303.15
303.15
296.302
300.799
303.15
283.15
303.15
301.172
283.15
303.15
303.15
303.15
300.697
303.15
297.989
303.15
286.037
283.15
286.811
303.15
303.15
298.761
283.15
303.15
288.382
283.251
303.15
303.15
285.197
283.912
301.105
301.905
301.432
293.251
301.881
283.887
303.15
298.062
283.15
283.15
303.15
303.15
303.15
301.488
303.15
303.15
303.15
303.133
283.171
283.15
283.59
303.15
302.076
283.15
303.144
296.598
283.15
294.762
303.15
303.15
283.15
300.226
283.959
303.15
283.15
300.28
303.15
297.938
303.15
295.576
303.15
283.15
303.15
283.15
299.444
283.15
283.238
283.15
286.249
303.15
303.15
283.15
283.15
303.15
303.15
303.15
303.15
284.905
284.962
283.15
303.15
283.237
283.15
283.15
303.155
290.302
283.567
283.15
301.714
284.979
300.354
288.526
303.15
303.15
303.15
303.15
283.15
283.15
283.15
303.15
283.15
283.15
303.15
283.15
297.446
283.15
303.15
283.15
303.15
303.15
283.553
283.15
303.15
302.063
303.15
303.15
303.15
303.15
288.593
283.15
303.15
303.149
283.15
303.15
303.15
303.15
295.364
283.15
283.193
303.15
303.15
303.15
303.15
303.15
303.15
303.147
284.189
303.15
283.15
303.15
303.15
303.15
303.148
303.15
283.15
283.15
283.15
303.15
303.15
283.15
303.15
283.15
287.766
283.15
301.9
283.15
303.154
303.15
284.632
283.15
284.479
297.649
303.15
284.713
303.17
303.15
297.664
283.15
303.15
303.15
303.15
303.15
283.15
303.15
303.15
299.366
283.15
303.15
303.15
303.15
303.15
292.134
291.325
303.168
283.168
303.15
301.934
302.409
303.15
283.15
283.15
303.15
303.15
303.15
283.15
283.15
283.838
303.15
303.15
303.19
303.151
283.15
289.144
303.15
283.15
303.15
288.299
303.15
283.15
302.177
283.15
283.15
283.15
303.15
299.81
303.15
303.15
303.15
283.15
284.545
293.843
295.525
289.873
303.127
303.033
283.15
283.15
301.171
283.71
283.15
303.149
303.15
303.15
283.15
294.821
303.15
283.15
302.997
303.15
303.15
283.823
303.15
303.15
288.642
289.865
303.15
283.15
303.15
283.15
303.15
303.15
303.15
303.15
283.971
303.15
303.15
303.15
302.952
303.15
303.15
283.15
283.15
283.15
283.15
302.963
283.15
283.15
301.13
303.15
284.814
284.976
303.15
301.312
303.15
283.15
303.15
283.15
283.15
303.15
303.15
303.15
302.746
303.15
303.15
303.15
283.15
303.15
283.15
286.48
303.15
303.15
291.836
303.15
283.15
283.15
302.517
303.15
303.148
283.15
303.201
286.842
283.15
283.15
299.46
283.15
283.15
303.059
303.159
293.03
303.165
303.151
303.152
283.15
283.15
302.686
283.483
286.002
301.054
283.161
283.15
290.644
301.702
301.634
283.15
300.43
290.141
299.989
302.315
302.828
284.826
296.161
299.506
286.076
293.991
300.338
303.15
297.391
298.211
302.813
283.699
293.07
301.335
287.113
303.15
301.191
303.15
300.631
301.62
283.667
285.129
303.15
283.15
302.273
301.825
283.145
303.171
288.146
302.732
301.986
300.984
303.15
303.216
301.273
295.342
300.241
289.351
302.948
301.652
302.12
302.417
284.308
302.56
301.737
283.178
303.15
302.921
303.15
303.15
302.176
302.227
294.854
303.15
284.777
292.499
292.077
301.281
303.15
284.091
285.22
284.44
303.15
299.332
303.15
296.145
295.527
300.874
303.144
303.15
303.15
302.051
301.399
302.818
303.15
292.494
302.794
290.292
283.15
298.132
293.851
303.15
300.315
283.15
283.207
283.15
302.63
303.111
303.15
302.99
298.804
283.148
300.656
302.303
294.954
283.572
296.08
297.356
283.492
303.135
284.87
295.68
283.327
297.182
300.681
300.42
300.722
302.042
290.376
301.765
303.15
302.766
302.704
302.684
295.889
302.905
283.15
302.108
293.062
303.15
283.448
286.51
301.334
302.632
290.216
284.795
287.799
302.661
296.593
303.15
303.15
295.21
283.15
292.862
283.445
303.15
290.08
290.463
283.913
303.15
297.122
298.195
284.304
301.392
293.864
289.703
300.455
303.114
303.15
303.15
283.59
302.668
283.36
285.99
303.15
303.027
303.049
303.15
285.397
300.79
298.461
283.264
299.707
302.429
300.635
287.195
283.15
303.11
301.871
283.798
283.148
303.15
303.085
303.15
303.15
284.269
302.596
296.089
283.054
283.152
303.15
283.15
302.976
303.056
302.613
301.63
303.15
283.15
283.15
302.001
302.056
283.232
295.434
303.15
303.15
301.821
285.73
283.267
301.879
301.968
301.865
284.446
303.15
283.15
298.486
297.762
303.15
302.741
302.172
285.025
285.084
302.22
303.057
303.15
298.539
284.438
283.15
303.15
300.342
301.51
302.152
289.723
302.174
285.86
300.606
299.991
290.184
298.147
303.15
303.15
301.164
284.656
302.182
283.151
300.715
301.831
283.661
288.075
302.488
283.15
283.15
283.026
303.15
303.15
300.207
298.707
302.343
283.146
283.15
284.003
283.15
283.15
283.152
303.084
301.111
299.423
296.476
283.396
303.107
300.484
303.15
283.15
302.613
288.916
301.073
292.187
283.532
303.067
283.148
283.15
302.857
301.493
302.659
283.158
291.541
284.978
303.15
284.373
301.063
283.15
283.316
285.124
284.523
283.15
283.15
301.825
283.15
289.795
302.613
302.751
301.797
283.502
299.149
290.714
283.15
303.299
292.296
283.15
283.15
283.15
303.15
301.073
302.512
299.149
301.618
299.722
289.188
283.155
290.521
289.694
303.067
291.345
300.408
292.025
283.15
286.4
301.239
301.661
283.15
284.056
299.904
283.15
303.15
283.192
301.4
303.15
284.039
302.265
303.033
303.15
283.15
292.569
303.153
301.818
283.15
283.15
283.15
302.251
297.863
303.141
302.199
303.164
303.15
288.941
303.164
290.285
300.481
300.452
297.175
283.158
301.852
283.15
290.315
301.663
289.962
290.207
299.337
301.088
301.792
287.004
290.621
285.15
283.177
302.293
286.202
283.148
283.145
300.421
283.076
300.609
287.397
295.682
299.891
289.485
299.753
283.121
298.663
283.15
290.331
290.072
298.666
283.353
283.15
300.706
283.15
302.815
283.15
303.15
286.294
286.549
283.15
299.473
298.365
287.198
303.15
303.15
301.823
289.359
303.041
283.783
301.769
287.328
303.147
284.28
288.374
303.15
301.58
283.15
283.15
287.446
287.52
283.145
285.415
301.712
286.381
301.211
303.15
285.305
301.922
291.311
303.15
303.15
301.761
302.13
303.15
293.223
293.83
283.741
297.071
287.312
290.183
303.15
302.94
297.563
285.162
283.15
287.598
292.048
299.811
283.168
283.815
282.902
302.074
303.132
283.15
303.137
303.15
300.618
293.279
299.368
294.386
283.15
291.43
296.275
285.678
283.215
292.884
283.15
299.979
303.164
292.835
284.143
303.145
291.474
298.972
288.54
300.073
290.757
287.544
283.15
303.142
285.383
290.482
293.693
283.15
283.15
283.15
303.142
283.15
283.136
286.549
303.15
283.15
303.164
283.174
290.636
289.732
303.364
302.935
290.141
303.15
297.625
303.171
302.108
287.578
283.15
293.62
303.147
303.1
286.624
283.15
283.15
283.487
286.21
303.065
303.145
287.618
289.588
283.52
283.163
289.623
292.855
303.15
283.15
303.109
303.15
302.403
284.928
302.28
303.099
284.147
283.852
284.114
302.865
302.239
297.017
294.082
303.081
291.46
290.535
303.15
303.104
302.645
285.551
283.402
303.15
285.966
283.403
302.956
301.672
302.288
283.15
300.611
302.012
303.15
302.25
285.444
303.15
298.248
303.15
283.15
300.979
302.714
286.434
302.589
283.15
285.395
303.022
283.15
302.36
285.312
294.866
284.378
303.15
303.026
302.884
286.546
283.15
287.133
284.357
289.896
286.093
302.394
303.15
283.15
283.15
292.582
283.15
300.93
302.31
289.88
283.15
293.625
283.15
303.15
283.15
299.835
299.14
283.151
285.363
301.62
303.105
303.156
292.233
294.553
301.458
283.239
301.689
283.145
303.15
303.15
299.696
283.15
301.906
295.414
303.15
300.83
287.363
301.826
284.82
288.593
283.15
302.361
287.818
298.64
303.081
283.15
303.15
291.761
302.31
283.076
283.147
286.999
298.583
303.15
284.675
301.263
301.184
301.457
303.152
300.273
287.741
284.984
301.824
300.229
283.772
283.094
303.158
303.149
303.15
297.955
283.162
283.15
303.15
303.149
289.867
298.636
300.05
287.863
302.828
303.15
286.176
301.619
303.15
300.845
283.807
301.624
303.15
284.709
301.22
294.915
302.757
303.15
303.15
285.264
295.73
297.015
287.807
303.15
303.15
283.15
287.236
302.452
296.794
303.15
285.72
303.15
303.15
300.109
288.621
283.15
296.16
296.51
298.653
283.15
303.15
292.289
287.277
303.15
298.531
300.924
300.831
303.15
303.15
303.15
300.66
298.889
302.825
300.341
283.15
292.323
287.795
290.937
300.73
303.15
303.15
301.135
303.105
286.729
296.535
303.15
303.148
283.15
286.382
299.159
285.644
303.15
303.15
283.361
303.128
303.15
303.15
283.15
290.224
303.15
303.15
284.699
299.312
283.15
303.15
284.624
301.58
300.508
287.074
294.526
303.15
283.515
303.15
303.15
283.295
300.815
290.467
300.708
303.15
303.135
302.215
293.097
299.917
301.445
284.461
283.502
300.811
298.941
303.15
302.797
284.256
300.226
301.609
287.895
303.15
297.27
301.634
301.712
301.752
292.351
303.15
283.15
299.252
283.15
283.15
287.717
283.15
284.006
283.15
283.15
283.15
283.15
302.791
287.683
302.749
283.15
296.287
290.671
284.799
283.15
303.15
302.729
301.748
303.184
302.688
283.15
295.433
300.614
289.803
283.15
283.15
299.932
285.687
283.15
283.15
303.149
290.575
283.15
287.285
303.15
303.152
284.301
283.15
288.51
293.422
300.541
293.941
302.97
285.769
302.557
295.15
286.326
283.15
283.562
291.736
303.097
289.355
302.688
283.15
292.052
287.741
300.904
301.158
285.051
303.118
285.175
297.295
302.991
303.148
284.968
303.146
303.018
293.366
302.684
283.15
303.15
303.15
294.904
291.208
283.155
301.222
284.717
284.164
284.668
303.145
288.218
300.794
283.15
283.15
302.548
303.151
294.689
302.92
303.179
299.992
303.214
302.911
283.15
301.592
302.906
283.15
303.15
301.19
303.15
284.438
298.974
283.166
291.925
283.15
287.549
303.031
300.211
283.15
303.038
290.384
301.308
303.134
303.083
283.15
283.15
301.836
302.089
283.81
302.853
302.475
302.454
303.141
283.15
294.404
283.15
302.83
287.792
303
303.15
283.15
302.859
285.238
291.226
302.139
283.15
302.623
302.081
301.713
302.532
303.055
303.197
303.022
303.15
283.15
301.478
298.039
303.093
303.15
290.42
285.21
303.15
283.15
285.555
303.183
303.163
302.934
301.239
284.358
303.103
290.833
293.729
303.148
289.109
303.162
283.15
290.361
283.15
300.13
298.381
284.86
288.235
299.75
296.056
295.177
299.33
293.858
303.152
293.908
296.616
283.157
299.53
293.355
303.15
299.428
299.304
303.15
291.843
303.17
301.735
303.15
286.945
285.982
302.814
289.612
283.15
283.15
300.429
301.118
283.771
283.15
303.15
300.338
302.396
300.898
300.248
302.818
292.281
289.62
286.659
292.1
284.336
290.87
283.313
295.491
290.159
294.06
287.317
284.263
303.162
283.279
303.147
285.922
300.828
283.151
300.073
297.86
288.571
302.109
285.38
299.31
283.15
302.967
283.156
283.109
288.078
299.789
303.15
300.188
303.032
299.899
302.787
303.15
301.375
284.991
295.607
302.114
303.149
283.721
283.15
290.754
285.078
285.799
303.157
303.149
283.15
283.15
283.178
303.15
293.554
303.15
303.156
295.267
303.431
303.15
300.119
303.15
303.15
293.752
290.447
303.15
289.752
302.187
289.506
303.15
303.15
286.157
283.348
290.419
303.215
303.15
303.146
285.518
283.274
283.15
288.952
287.734
303.15
284.299
303.15
303.15
303.132
287.371
303.15
303.147
283.289
303.152
302.693
287.919
283.151
283.644
297.348
290.905
303.15
285.924
284.64
301.519
287.08
302.266
290.069
293.797
303.15
303.15
284.026
303.153
302.968
295.472
302.965
302.774
287.142
283.15
285.543
283.224
297.724
302.636
285.694
303.15
283.848
286.731
303.129
283.177
303.15
286.715
283.15
299.713
303.15
299.87
300.092
283.32
283.385
302.354
291.568
301.345
303.15
301.488
301.827
303.15
303.15
298.453
293.735
283.15
289.088
303.15
294.678
283.378
303.15
296.972
298.969
289.005
303.15
302.783
294.88
295.741
284.48
303.161
299.211
296.396
283.982
303.128
302.824
287.517
298.677
289.408
290.535
289.653
283.15
302.971
303.151
303.15
303.168
293.41
296.578
302.981
301.398
303.15
284.358
303.15
303.054
302.875
303.15
293.927
296.115
303.15
285.47
303.101
303.15
303.099
303.155
286.218
293.753
290.876
288.353
292.813
303.15
301.49
291.752
295.484
293.535
303.141
303.15
300.631
303.184
284.412
303.185
303.15
303.15
303.143
303.15
285.033
303.15
284.298
303.147
303.15
290.385
303.145
292.833
295.551
303.135
295.824
285.736
283.444
303.129
302.943
284.752
283.15
297.05
303.15
285.571
302.928
302.187
303.023
298.444
287.18
303.15
298.438
289.838
299.469
283.15
283.651
303.15
303.144
303.188
293.595
303.15
292.491
289.217
303.192
303.15
284.902
299.248
293.656
299.991
302.524
301.441
300.636
303.15
284.677
296.706
302.378
285.723
297.852
292.115
284.543
292.161
303.15
286.875
292.322
289.588
299.732
303.15
286.308
284.053
303.15
302.537
288.129
302.012
283.15
303.15
300.14
301.841
289.589
302.121
301.923
302.001
303.15
289.801
285.163
302.078
302.329
297.371
303.15
283.204
303.15
302.121
303.15
302.856
303.15
292.033
303.15
296.774
283.15
289.782
303.15
283.15
291.512
301.708
300.74
289.214
300.82
303.15
302.539
303.15
302.296
285.528
303.15
300.725
290.251
303.15
301.085
303.15
303.15
292.697
283.15
285.651
293.27
301.191
303.15
291.803
294.282
288.163
289.325
287.887
299.155
300.049
301.073
287.437
287.095
301.518
283.15
303.15
303.15