/*--------------------------------*- C++ -*----------------------------------*\
  =========                 |
  \\      /  F ield         | OpenFOAM: The Open Source CFD Toolbox
   \\    /   O peration     | Website:  https://openfoam.org
    \\  /    A nd           | Version:  10
     \\/     M anipulation  |
\*---------------------------------------------------------------------------*/
FoamFile
{
    format      ascii;
    class       surfaceScalarField;
    location    "100";
    object      phi;
}
// * * * * * * * * * * * * * * * * * * * * * * * * * * * * * * * * * * * * * //

dimensions      [0 3 -1 0 0 0 0];

internalField   nonuniform List<scalar> 
109758
(
-3.39766e-06
0.00121999
-0.00121659
-0.00125268
0.00128852
-3.58395e-05
0.000104108
-0.00114987
0.00104576
-0.00144001
8.78682e-05
0.00135214
0.00146218
-0.000168274
-0.00125759
-3.63135e-05
-0.000405294
0.000396327
8.96714e-06
-0.00110845
-6.47688e-06
0.00111492
0.00202382
-0.000255907
-0.00038488
-0.00138304
-2.37293e-05
0.000849319
1.44625e-05
-0.000840052
0.000466412
-7.21915e-05
0.000596545
-0.000990765
-3.94201e-06
0.00058648
-0.000582538
0.00187435
-0.00152688
-0.00143887
0.00109139
0.000320901
0.00125914
-0.0014378
-0.000142238
0.00118864
-0.00121937
3.07337e-05
-0.000973847
0.00110809
0.00132794
0.000691366
-0.000946078
-0.000684584
0.000939296
0.000819588
-0.00157363
0.00140328
-0.000649229
0.00148429
0.000242365
-0.00110138
-0.000625271
0.00150007
0.00022795
-0.00121147
-0.000516544
-0.00144003
0.000171265
-0.000108844
0.00137761
0.000215763
-0.000290408
7.46441e-05
-2.64493e-05
-0.00119623
0.000285686
0.000936991
-0.000275489
0.000847431
-0.000571942
0.000251248
-0.000301533
0.00102946
0.00116204
0.000420125
-0.000405252
-0.00117691
1.77032e-05
0.000563463
0.00090312
0.00124141
0.00151639
-0.00194186
-0.000815936
-0.00109119
0.00108137
9.821e-06
3.43164e-05
0.00112773
0.00149197
-0.00102643
0.000795182
-0.00126072
-0.00146098
0.00152965
-8.42919e-05
1.56197e-05
-4.9914e-05
0.000604451
-0.000554537
-1.45966e-05
0.000898704
-3.46967e-05
-0.000849411
-0.000827281
0.000824184
3.09704e-06
-0.000123811
-0.00131758
0.00110497
0.000336419
-0.00115981
0.00212097
-0.000718803
0.000577792
0.000170406
-0.000748199
0.000198021
0.0010395
-0.00147397
0.000236443
-0.000252273
-0.00111668
8.16314e-06
0.00136079
0.00114055
5.23551e-06
-0.00114578
0.00167387
-0.00110247
0.000734942
-0.00130634
-0.000392233
-0.000504919
0.000676483
0.000220669
-3.41423e-05
3.3307e-05
0.00167471
-0.0014472
0.00142462
1.32295e-05
9.35119e-06
0.000796995
-0.00079802
1.02559e-06
0.000330608
-0.00214989
-0.000329126
0.00214841
0.000997929
-0.000282626
-0.000251213
-0.00046409
-0.00111255
0.00138815
-0.000195404
-8.01933e-05
1.65572e-05
0.00102434
-0.00104089
-0.00224761
0.000142313
0.000187785
0.00191751
0.00107968
-0.000522353
0.000520001
-0.00107733
0.000398918
0.000616715
1.43355e-05
0.00140049
-0.00141482
-0.00105837
0.0010619
-3.52969e-06
-0.00121991
0.00125423
-0.000329723
-0.00175406
-0.000430746
0.00251453
-0.00228282
0.00318361
-0.000667397
-0.000233393
-0.00111412
0.000982998
0.00117057
-0.00103945
-0.00180372
0.000708473
-5.92482e-05
0.0011545
-0.000718963
0.00026459
0.000646573
-0.0001922
-0.00149365
0.00142215
7.14979e-05
-0.00323419
0.000189566
0.00163171
0.00141291
-0.000314059
0.00130135
-0.00124956
0.000262263
0.00156926
0.00151361
-0.00189107
-0.00113804
0.0015155
-0.00190101
0.000921688
0.000514716
0.000464611
0.00139261
-0.00153986
-0.000857907
0.00100516
-0.00147634
9.85674e-05
0.000349153
0.00102862
-0.00112267
-0.000798873
0.000445208
0.00107496
-7.64978e-05
-9.37149e-05
-0.000904749
0.00100613
-0.00059177
0.000373462
-0.000787817
0.00141972
5.18727e-05
0.000602385
-0.00207398
-0.00052086
0.000192569
0.000328291
-0.00211837
0.00134743
0.00158088
-0.00080994
0.00080301
-0.000759552
-4.34581e-05
-0.000628185
0.000201792
-0.00169198
0.000106497
-0.00088122
-0.000283649
-0.000270567
5.59804e-05
-0.000860597
0.00107518
0.00174249
-0.0015831
-0.000333487
0.000174098
-0.00170469
0.00153667
-0.00105189
0.00119818
-0.000811002
-0.00100331
0.00061614
-0.00065074
0.00269959
-0.00135003
-0.00069882
-0.000152319
8.23261e-05
0.00152944
-0.00145944
3.64048e-05
0.00216823
0.000227607
-0.00243224
0.000866469
-0.00157367
-0.000131709
0.000838914
0.00123807
-0.000233154
-0.000898421
0.000128778
0.000991271
-0.00135853
0.000238477
0.00054338
0.0020482
0.000129549
-0.00272113
0.000961938
-0.00113414
0.000180312
-8.1095e-06
0.000655174
0.000735441
-0.00276357
0.00137295
0.000933334
-0.000103682
6.1614e-05
-0.000891266
0.00199179
-0.0014935
-0.00296907
0.00247077
0.00169109
-0.0019039
0.000844335
-0.000631533
2.05966e-05
-0.00159272
0.00146395
0.000108171
0.00164641
-0.00115281
-0.000363117
-0.000130491
0.000889518
2.08716e-05
-0.000910389
-0.00170053
0.000294086
0.00118718
0.000219259
0.001115
0.000743624
0.000571252
-0.00242988
0.000919035
-0.00165762
0.00114788
0.00249095
-0.00144436
-0.00219448
0.000917381
1.65428e-06
-0.000367504
0.00119358
0.00119898
-0.00202505
0.00105175
0.000300483
-0.000148961
-0.00120327
8.11434e-05
0.000922245
-0.00100339
0.00141394
-0.00011676
5.53071e-05
-0.00135249
-0.000577879
-1.89541e-06
0.000579775
-0.00132411
0.00102149
-0.00079876
-0.000237702
0.00179639
-0.00188908
0.000330385
0.000431857
-0.000362757
-0.00145274
0.00138364
0.000287592
-0.000293293
-0.000681617
0.000687318
-0.000368705
-0.000989333
0.00123682
0.000121219
0.000447824
-0.00121931
0.00126875
-0.000497263
0.000927832
0.000283635
-9.27814e-06
-0.00054947
-9.87634e-05
0.000657512
0.000179566
0.000352963
-0.00203725
0.00150472
-0.00131194
0.00016644
0.00134822
-0.000202722
0.00097362
0.000158179
9.90376e-05
-0.00123084
0.000205014
0.000768605
0.00143166
0.000288442
-0.00156192
-0.000766613
-0.000873109
0.00130305
0.000336667
0.00135803
0.000183634
0.000199571
-0.00174123
-0.00146799
0.00125525
-0.000411801
0.000624546
0.00134627
0.000290398
-0.00104609
0.00117848
-0.00108769
0.000955307
0.00146318
-0.000211206
-0.000286437
-0.00096554
4.01833e-05
-0.0016066
0.001742
-0.000175582
-0.00152932
-3.75709e-05
-0.000422807
0.0019897
0.000938752
0.000505943
-0.00148562
4.09262e-05
-0.00101894
9.45226e-05
0.000894843
2.95766e-05
0.000184212
5.68989e-05
-0.00188305
0.00164194
-0.000930487
-6.08752e-06
0.000936574
0.000193161
0.0013321
-0.00134105
-0.00106141
0.00142123
-0.000773871
0.000414049
-0.00121257
-0.00077797
0.00157839
0.000412153
0.00127427
0.000244265
-0.000722715
-0.000795819
-0.00201022
-2.81404e-05
-0.000282956
0.00232131
-0.00129462
-0.000777599
0.000565875
0.00150635
0.00177652
-0.0017408
-0.000112097
7.63809e-05
-0.000263762
-0.000789093
-0.00070121
0.00146082
0.00108165
0.000271136
-0.00281361
0.00211354
0.000267155
-0.00234429
0.000214718
0.00110499
-0.0013197
3.51868e-05
-0.00108862
0.00105344
-0.00103479
-0.000214741
0.000197576
0.00105196
9.21867e-05
0.00134678
-0.00128485
-0.000154111
-0.00221981
-0.000254857
0.000576582
0.00189809
0.00122521
-0.00129639
0.00110861
-0.00103743
0.000159163
0.000143143
0.000922906
-0.000874121
0.000847544
2.65769e-05
-0.000919693
3.01819e-05
0.00133329
-0.00044378
0.000264626
-0.000672076
-0.000493024
0.000900474
0.000674459
-0.000702073
2.76136e-05
-0.00096184
0.00091003
-0.000218758
-5.0847e-05
-0.00101116
-1.05845e-05
0.00107259
0.00171111
-0.000192228
-0.00108591
-0.000432973
-0.00040818
-0.00186734
0.00250692
-0.000231405
-0.00162341
0.000562172
-0.00135662
0.00151467
-0.000158058
-0.00073165
0.000659118
-0.00102719
0.00109972
0.000547794
-0.000670693
-0.000497653
0.000620552
-0.000920579
-0.00126234
0.00100166
0.00118126
5.03311e-05
0.00141135
-0.00013999
-0.00132169
-0.000358634
0.00170978
-0.000286502
-0.00106464
-0.00159258
0.00134668
-9.64773e-05
0.000342375
-0.00116996
0.000933141
-0.00100748
0.0012443
0.00121541
6.66357e-06
-0.00122207
-0.00180188
0.000389462
0.00176157
-0.000345519
0.00142222
-0.0010767
8.7893e-05
0.00143503
-0.00152292
0.00019794
0.00123675
-0.00189563
0.000460947
-0.000951329
-0.00098912
0.00106162
0.000878825
0.000695159
-0.000200644
0.000511609
-0.00142011
0.00148321
-3.80071e-05
-2.50904e-05
-0.00141765
1.41456e-05
-1.66007e-05
0.000752132
-0.000450847
0.00184931
-0.0021506
-6.86157e-05
0.00180465
-0.00173603
-0.00118324
0.000849678
-6.59488e-06
0.00034016
-0.000902417
-0.00109798
0.00200039
-0.000674708
-0.000253287
0.000927995
0.00100454
1.25236e-05
-0.00101707
-0.00159608
-2.56908e-05
0.00131281
0.000308967
-0.000461561
0.000638472
0.000838989
-0.0010159
-0.00176737
0.000484048
0.000821764
0.00172074
-0.00271127
0.000575301
0.000415227
-0.00144948
0.00146293
-3.99041e-05
2.64507e-05
0.00193036
-0.00192967
-1.55251e-05
1.48305e-05
-0.00109043
1.54024e-05
0.000269048
0.000805982
7.65371e-05
-0.00113689
0.00106035
-0.00123426
-0.00175227
0.00118841
0.00179812
0.000148954
0.00161165
-0.000746201
-0.00101441
2.03114e-05
-0.00155707
-2.33044e-05
0.00156006
0.000256086
0.00139848
0.000329895
-0.00198446
0.000203766
0.00139804
-0.00147303
-0.000128783
-7.46595e-05
-0.00109374
0.00137216
-0.000894653
-0.000757639
0.000384961
0.00126733
0.000841601
4.83132e-05
-0.000889914
0.00135864
0.00130393
-0.00157435
-0.00108822
1.70283e-05
-0.00108197
0.00106494
0.000302685
0.000132679
5.88248e-05
-0.000494189
-0.00142034
-2.28056e-05
0.000469833
0.000973309
-0.00104625
-0.000536715
0.00158296
0.000845579
-0.00111024
0.000393686
-0.000129029
-0.00146885
0.000185094
0.00134025
-5.64863e-05
-0.00147997
0.00179846
-0.00141291
0.00109442
-5.87868e-06
-0.000888774
-0.00114271
0.00111068
3.20331e-05
-0.00147855
-0.000770721
0.000145997
0.00210327
-0.000136577
0.0013004
-0.00116382
0.00103751
-0.000815766
-0.000221746
0.000924987
-0.000930866
-0.00111198
-1.81632e-07
0.00111216
0.000508605
0.00138602
-1.33959e-05
-0.00188123
-0.00113552
0.000173034
0.000962488
-0.0012633
-0.000444589
0.00131581
0.000392082
-0.00190956
0.000262482
0.00186419
-0.000217114
0.000944203
-0.000916801
-2.74012e-05
-0.000726219
-0.00101909
0.00390905
-0.00216374
-0.00148232
0.000543019
-0.000373408
0.00131271
-0.00075076
-0.000179461
-0.00117524
0.00210546
-4.27407e-06
2.69947e-06
0.0013069
-0.00130533
0.000707681
-0.00209652
0.00285926
-0.00147042
-0.00121625
0.00121198
0.00155709
0.00040107
-0.00190737
-5.07948e-05
0.0010853
0.00014854
-0.00136321
0.000129365
0.000950368
0.000445372
-0.00159419
0.000198448
0.000903567
0.000181734
-0.000541835
0.00169144
-8.92242e-05
-0.00106038
0.000326687
-0.00148646
0.0019008
-0.000741027
-0.00167249
0.000121897
-4.33006e-07
0.00155102
0.000972251
0.00374459
-0.000593748
-0.0041231
0.000450125
0.000343072
-0.000596687
-0.00019651
0.00031016
0.00112362
-0.000508284
-0.000925495
-0.000905628
0.000884295
-0.000520503
-5.04958e-06
0.00169153
4.95359e-06
0.0013353
-0.00135025
0.000213997
-0.000199053
0.000316197
-0.000105667
0.000806869
-0.0010174
-0.00130088
0.00126671
0.000182712
0.000392563
-0.000768649
-0.000879931
0.00125602
0.000542004
0.00150815
-0.00150677
0.00112912
-0.00147853
0.000199695
0.000149717
0.00111297
2.05799e-07
-0.00111317
0.00242811
-0.00249724
0.00202064
-0.00195151
0.000370274
-0.000955465
-0.00047658
0.00106177
0.000384902
0.000204412
-0.00163415
0.000974103
-0.000580777
0.00124082
-0.00200266
0.000452144
0.00168511
-0.000134599
-0.00156196
-0.000862575
0.00313221
-0.000159411
0.0019185
-0.000633702
-0.00112538
0.000924592
-0.000466559
0.00171247
-0.0021705
0.000184423
-0.000870257
0.000741009
-5.51761e-05
-0.000382643
-0.00125567
0.00144248
0.000195834
0.00108108
-0.0006118
-0.000439666
-2.96188e-05
0.00054804
0.000229704
0.000290562
-0.00106831
-0.000776211
0.000995618
-0.000219407
0.000889416
-0.000828524
0.000123532
3.05185e-05
-0.00135779
0.00132727
0.00104324
-0.00121553
-0.000210355
0.000264626
0.0011815
-0.000265125
-0.001181
-3.99815e-06
-0.000963849
0.000967847
0.000524877
0.00161286
-0.000883501
-0.00125424
-8.68083e-05
-0.000626627
-0.000425055
0.00113849
-0.000294717
-0.00162194
1.07756e-05
0.00190588
-0.00102995
0.000416974
0.00125933
-0.000646359
7.62457e-05
0.000966995
-0.00085767
0.000933916
0.000926172
0.000247594
9.96838e-05
-0.00127345
-0.00048927
0.00218877
-0.000142403
-8.91761e-05
-0.000621681
0.000566721
0.000144136
-0.000206141
0.00243519
-0.000115507
0.00197588
-0.0010262
-0.000424805
0.00225369
-0.000275419
-0.00120943
0.00180747
-0.000322617
-0.00228024
0.00191539
0.000936569
-0.000571717
5.7717e-05
0.00104784
0.000870327
-0.00100391
-0.00131883
0.00139226
-0.000716494
-0.000988295
0.0019098
-0.000205008
0.000740359
0.000843269
-0.00158363
2.62042e-05
0.000168858
0.00222426
-0.00241932
-0.00117463
0.000992971
0.00144025
-0.00125859
0.00135765
-0.00214587
0.00172482
-0.000936607
0.000449864
-2.28604e-05
-0.000427003
-0.000923921
-0.000517185
0.000171925
0.00126918
-0.000473726
-0.000679157
8.94619e-05
0.00117075
-0.0009689
-0.00029131
0.000984287
-0.00102496
4.06769e-05
0.000109593
-0.00130639
0.00137844
-0.000181647
0.00114614
-0.00282832
0.00139765
0.000284528
0.000655414
-0.000874257
0.000218844
0.000867499
-0.000110945
-0.000859794
0.000103241
-0.000174017
-0.00286962
0.00259045
0.000453196
-0.00113339
0.00019515
0.00132094
-0.000382693
-0.00118631
3.81996e-05
0.00114811
0.00118295
0.00020005
0.000785231
-0.000590189
-4.9027e-05
0.00152863
0.000102842
-0.00168146
0.0014046
-6.40037e-05
0.00116671
-0.00110271
-0.000816951
0.0005059
0.00135506
-0.00104401
-0.000186017
0.00155272
-4.38962e-05
-0.00132281
-0.000187246
0.00144231
-0.000975395
-0.000279673
-0.00100246
-2.22405e-05
0.00118138
-0.000156677
0.000832426
-0.0017401
0.00094997
-4.22936e-05
-0.000891561
0.000696977
-0.000716467
0.000911051
0.000863738
3.41365e-05
-0.000100879
0.000132405
-0.00125904
-0.000303377
0.00143001
-0.000258135
-0.00138332
0.000618348
0.00102311
0.000493547
-2.10406e-05
0.0011343
0.00027505
-0.00138831
0.000581734
-0.000410087
0.00117228
-0.00134393
-0.000751427
0.000930938
0.00124243
-0.00142194
0.00203439
0.0005107
-0.00205154
1.52675e-07
-0.00121047
0.00121032
7.48898e-06
-0.00122642
0.00127535
-5.64116e-05
2.39022e-05
0.00131061
-0.00117887
-0.000155634
0.00039434
-0.00198937
-6.49569e-05
0.00165999
-0.00110096
0.00132102
-0.000220062
0.000202257
-9.24157e-05
0.00132591
-0.00143575
-0.00102586
0.000227835
-0.000709006
0.00107355
-0.00143077
0.00106623
-0.000327225
-8.10689e-05
0.000408294
0.00324053
-0.00158162
-0.000703459
-0.000955451
0.00130479
0.00334327
-0.00140753
0.00216027
-0.00199884
0.000188994
0.00110084
-0.000852254
0.00121911
-0.000386534
1.96755e-05
-0.000258918
5.09754e-05
0.00178882
-0.00125105
0.000470978
0.00096073
-0.000180655
-0.00105227
0.00174108
0.000130785
0.00122123
-0.00139806
0.000708614
-0.000531783
0.000181386
0.0024566
-0.00243573
0.000735105
6.38453e-07
-0.000735744
-3.95729e-07
-0.000956661
0.000957057
0.00170507
0.000137888
-0.000381589
-0.00146137
0.00221028
-0.000712141
-0.000935343
-0.000562799
-0.000139742
-0.00280391
0.000847132
-8.60889e-06
-0.000679291
0.0006879
0.00147047
-0.00134925
-0.00133356
0.00121235
0.00106482
0.000444018
-0.00125275
0.000864082
-0.000532505
-0.00131813
0.000986549
-0.00104284
-9.47053e-06
-0.000803453
0.00185576
-0.00159305
-6.81263e-06
0.00159986
0.000993013
9.37598e-05
-0.00105662
-3.01477e-05
-0.00127231
-2.08144e-05
0.00129313
6.42957e-05
0.00107032
-0.00113462
-0.000782618
0.00173422
-0.000125976
-0.000825623
-0.00187849
0.0022624
0.00142709
-0.00181099
0.000901206
0.000769376
-0.000208419
0.00133807
-0.000865033
-0.000264621
-0.000229912
-7.7967e-05
-0.00115532
0.0014632
0.0013045
-0.00114735
0.000912638
-0.00106978
-0.00123774
0.00128824
-5.05058e-05
-0.00151432
0.000253323
0.00130058
-3.95815e-05
-0.00264251
0.000528736
0.00201042
0.000103353
0.000260884
-0.000334625
-0.00130896
0.0013827
0.00190152
0.000181185
-0.00109221
-0.000990487
0.00103448
-0.000786632
-0.0010419
0.000794052
0.0011911
1.19235e-05
-0.00120302
0.000109459
-0.00202569
0.00148254
0.000433688
0.000752766
0.000448904
-0.000300464
0.000273719
-0.000881889
0.00128584
-0.000677669
-0.000545331
0.000529511
-0.000121953
0.000137774
-0.00362618
0.00437318
0.00141029
-0.00215728
0.00181972
-1.19011e-05
-0.00181891
1.10966e-05
9.12296e-06
0.00146348
-0.00157281
0.000100214
-0.00219281
0.00192113
-0.000510931
0.000974385
0.00121973
-0.0011039
-0.00109021
-0.000967717
-6.94978e-05
-0.000105247
0.00114246
0.00101054
5.27142e-05
-0.00106325
0.00128826
-7.10698e-05
-0.00121719
-0.0022776
0.00214629
8.45017e-05
4.68105e-05
7.04078e-05
0.00146815
-7.17036e-05
-0.00146686
0.00090946
0.000458542
-0.00297749
0.00160948
-0.000630634
0.000630641
-6.60202e-09
0.000924176
2.11606e-06
-0.000926293
-4.68662e-07
-0.000556875
0.000557344
-0.000530758
0.00108031
0.0007259
-0.00127545
3.53955e-06
-0.00114344
0.000897094
0.000242809
-0.0012832
-0.000526048
-0.000468351
3.25653e-06
-0.000888552
-0.000132239
0.00101753
-0.000687382
1.28553e-05
0.000674527
0.00023501
0.000729256
-0.000237594
-0.000726672
0.00050284
-0.000895073
0.000392233
-0.00024304
-0.000833084
-0.000310437
0.00138656
0.000709513
0.000940571
0.00013861
-0.00178869
0.00185642
-0.000675184
-0.000601583
-0.000579655
-6.8068e-05
-0.00153316
0.0017869
-0.000185671
0.000736217
0.000387828
0.000211806
-0.00133585
0.00232029
0.00103346
-0.00217624
-0.00117751
-2.84196e-06
0.00058758
-0.000584738
-0.00137318
4.08982e-05
0.000317749
0.00101453
-0.00134582
-0.000149414
0.0015311
-3.58624e-05
0.000374584
-0.000468994
0.00191413
-0.000476421
0.000629237
-0.000152816
0.000937425
2.69495e-05
-0.000964375
0.000194379
0.000122385
-0.00123665
0.00091989
0.0013179
-0.00012958
-0.00122631
3.7993e-05
-0.00111343
-6.87468e-07
0.00023748
0.000322067
-0.00146054
0.000900995
-0.00135677
9.78276e-05
0.00125894
-5.32518e-05
-0.000949213
-0.000123769
0.00208953
0.000147247
-0.00211301
0.00111651
-0.0011825
6.59947e-05
-0.00119419
0.0011814
1.27882e-05
0.00095959
-0.00108336
0.000262539
0.000876305
0.0010891
-0.00222794
-0.00117263
-0.000640141
0.00181277
-9.07389e-06
0.000836217
-0.000827143
-1.95946e-05
-0.000909547
0.000929142
0.0011145
-0.00110766
-6.84399e-06
-0.00123532
4.73789e-05
0.00124199
-5.40499e-05
0.000302116
-0.00139066
0.00106209
0.000693698
0.000583371
-0.00233815
0.00106108
0.000721229
4.94255e-06
-0.000726172
4.73481e-05
0.00136519
-0.00141254
0.000672031
2.42848e-06
-0.00153956
0.00137049
0.0012989
-0.00112982
-0.000969553
0.000122865
0.00124342
-0.000396732
0.00169647
-0.00244432
0.000590922
0.000156925
-0.00218976
0.000488061
-0.00104566
0.0011559
-0.000110246
2.544e-05
-0.00115962
0.00113418
-0.0010032
-1.97847e-05
0.00102298
-0.00117457
6.30423e-06
0.00116826
0.00112363
-0.00123201
0.000108384
1.46434e-05
0.00173363
-0.00174827
-0.000256877
-0.000234224
0.00124387
0.00123783
-0.00129279
-0.000883982
0.000938936
-0.000698678
0.000127304
0.00135655
-0.000785179
0.00066692
-0.0015687
-0.00010142
-7.2935e-05
0.00153346
-0.00146052
0.000454906
0.000424169
-0.000580049
-0.000299025
-0.000706416
0.0011582
-0.00139177
0.00093999
-0.00112378
-0.000427569
0.00155135
0.00227576
-0.0014033
-0.000872458
-0.000432103
0.00163507
0.00107133
-0.0022743
-0.00118641
0.00143895
-0.00143579
0.00118324
0.000508891
-0.000382381
-0.000584532
0.000458022
2.12471e-05
-1.36297e-05
-0.00127995
0.00127233
-0.000118973
-0.00180121
0.00192019
0.000404991
5.33164e-05
-0.00152678
0.00106847
-0.00150306
0.00116644
0.000336617
-0.000702811
-0.000351916
0.00101383
4.08982e-05
-0.000991029
0.000985994
5.03462e-06
0.00096345
-0.000814842
0.00120905
-1.03591e-05
-0.00157775
0.00158066
7.45049e-06
0.00304722
-0.000787985
-0.00152945
-0.00072979
-0.000471094
0.00166281
8.01637e-06
-0.00119973
-0.000550198
0.000819088
0.000457425
-0.000726315
-0.00132476
0.000778044
0.00137623
-0.000829507
0.000727337
-0.000868492
-0.000339448
0.00150751
3.97686e-05
-0.00120783
0.000906338
-0.000999644
0.000103572
-0.00213751
2.41385e-05
-2.11246e-05
0.0021345
-0.00029719
-8.38441e-05
-0.000799637
0.00118067
-0.0010844
0.00139484
-0.00110856
0.000798119
-0.00247904
-0.000334646
0.00260754
-0.0016075
2.28522e-05
0.0016092
-2.45452e-05
0.00100648
0.000162809
-0.000678797
-0.000490492
-0.000317511
-0.00123366
0.000655567
0.000895607
0.00106764
-0.00041862
-0.0014072
0.000758179
-0.00138749
-0.000357582
-3.10329e-05
0.00177611
0.00111012
-0.000136197
-0.00101856
4.46341e-05
0.000940083
-0.000944134
4.05086e-06
-0.000745463
0.00242681
-0.00201613
0.000334788
0.000156325
0.00143142
-0.0023035
0.000715752
-0.000945301
-0.00030778
0.000993434
0.000259647
0.000330131
-0.000316911
-0.000958521
0.000822378
3.3159e-05
0.000161056
-0.00101659
-8.80216e-05
0.000615752
-0.00266524
-0.00138856
2.84879e-05
0.00178203
-0.000421955
-0.000995179
0.00116129
-0.000166112
0.000489791
-0.000459338
-0.000649097
0.000618644
-0.000700635
-0.00128678
0.000808944
0.00117847
-0.000577187
0.00179593
-0.00066147
-0.000557272
-0.0014802
1.02601e-05
-0.00129568
0.00161555
-3.92941e-05
3.46492e-05
-0.00128144
0.00128609
0.00123742
0.00132698
-0.00141026
-0.00115414
0.000982104
-0.00101301
3.09023e-05
0.00125366
-7.85375e-06
-0.00124581
0.00106974
-0.00124165
0.000351286
-0.000179379
-0.000312041
-0.000915239
0.00222071
-0.00164465
0.00141174
-0.000212789
0.000445706
0.000547112
-0.000744486
0.0017675
-0.00157013
-0.00157594
-0.00114977
0.00187383
0.000851886
-8.45359e-05
-0.00173661
0.000176487
0.000274851
-0.00144881
-1.18836e-05
0.00118585
0.00133499
0.000351594
0.00180881
-0.00158398
-0.000594389
0.000369555
-0.00133912
0.00132917
0.00108383
-0.00107389
0.00101463
0.000503135
-0.00115179
-0.000365975
0.000508581
-0.00111707
0.000927741
-0.000319252
0.00139174
-0.00114096
-0.00181293
0.00156215
0.00145933
-0.00162442
8.05492e-05
-0.000901039
0.000905041
-4.00213e-06
0.00011262
-0.000102102
0.00151071
-0.00180489
0.00170269
-0.00140852
0.00111973
-0.00100711
0.00113742
-0.00122999
-3.76013e-05
0.000130165
-2.44466e-05
-0.000519487
0.000543933
-0.000123569
-0.00103694
0.00124388
-8.33731e-05
0.00191011
-0.00171907
0.000135764
-0.000326801
0.000204293
-0.0022669
0.000184114
0.00169608
-0.001736
-0.000187504
0.000227434
0.000371552
0.000279054
0.000461247
-0.00111185
-0.000100996
0.000948678
0.000923881
-0.00177156
-8.04575e-05
-0.00117137
-0.000325269
0.00157709
-0.000570289
0.00170889
-0.00046465
-0.000673952
-0.00106834
0.000453081
0.00168499
0.00104583
-0.00211867
0.000232272
0.000840572
-0.000305326
7.13948e-05
0.00193001
0.000313037
0.00142704
-0.00048861
-0.00125146
-5.14909e-05
5.37883e-05
-0.00123873
0.00123644
0.00185861
0.00010445
-1.30837e-05
-0.00194998
0.00103639
0.000454099
-0.00041205
-0.00107844
-0.00112278
-0.000479898
0.000534342
9.19298e-05
0.000648199
-0.000657839
-8.22901e-05
0.000189501
1.63501e-05
-0.0014475
0.00100858
-0.000527318
-0.000136939
-0.000344326
0.000148166
0.000701587
-9.81235e-05
-0.00075163
-0.00112209
0.000962967
0.00120495
0.000743306
-0.00323126
0.000629968
0.00185799
0.000176842
-2.98049e-05
3.30019e-05
0.00127208
-0.00127528
0.00220461
-0.00070803
-0.000732174
-0.000764409
-0.00107604
1.36422e-05
0.00147792
-0.000415519
-0.000136303
-0.00103831
0.0012523
-7.76858e-05
0.00104301
-0.00142212
-0.000694693
0.0010738
-0.000986762
0.000958608
2.81539e-05
-2.94853e-05
0.000952364
-0.000922879
-0.000466134
-0.00109054
-0.000402454
0.00195913
-0.000809363
0.000906127
-9.67636e-05
-0.000152964
-0.00132768
-0.000334601
0.00181524
-0.0023432
0.000863868
-0.00127881
0.00275814
-0.00160394
3.71665e-05
0.00156677
0.000757879
0.000839144
-0.000810991
-0.000786032
0.000976153
-0.00055923
-0.000184669
-0.000232254
0.00130378
2.84159e-05
-0.0013322
0.00124571
-0.00372525
0.000136335
0.000845565
-3.1374e-05
-0.000814191
-0.00144436
-0.000573067
0.00194082
7.661e-05
-0.000876883
0.00452866
-0.00277259
-0.000879183
-0.00263805
0.00317648
-0.000465199
-7.3234e-05
0.00157658
-0.000908868
0.00219155
-0.000771821
-0.00168096
0.00248287
-3.00909e-05
-4.83813e-06
-0.000121755
-0.000680355
0.000806948
0.00148835
0.00190673
-0.00216873
-0.00122636
-0.00152944
0.00180817
0.000496178
-0.000774908
0.00169574
-0.000310942
-0.000663191
-0.000721608
0.000145216
-0.00108527
-0.00018847
0.00112852
-0.00322225
9.9745e-05
0.00164922
0.00147329
-0.000591309
0.00225045
-0.000872467
-0.000786679
0.000382037
-0.000937506
0.00178659
-0.00123112
-0.00019315
-0.000553035
0.00104585
-0.000299662
-0.000918773
0.000977621
-6.24401e-05
3.59281e-06
0.0016006
-0.00180674
-8.6673e-05
0.000292817
-4.87212e-05
-0.00159581
0.00160843
3.61025e-05
0.000130408
-0.000116281
-0.00152643
0.0015123
0.0022087
-0.000362556
9.40419e-05
-0.00194019
-0.00145324
-0.000305386
0.000372923
0.00138571
0.000491614
-0.000491627
1.24418e-08
0.0010893
-0.000741141
0.000726798
0.000226327
0.0020868
-0.00012477
-0.00218836
-0.000332913
0.000223281
0.000277789
-0.000168157
-0.00162884
-0.00202538
0.002928
-0.00115807
0.00132611
0.00126298
-0.00143103
-6.50227e-05
0.00129214
-0.00163004
0.000402918
-0.00123961
-0.00129809
-8.23625e-05
-0.000334376
0.00171482
-7.02281e-06
-0.000660542
0.000667565
-7.59783e-06
-0.000952225
0.00221979
-0.00125996
0.000650552
0.000916145
0.00163429
-0.00081865
7.64718e-05
-0.000892108
0.00071787
-0.000199442
-0.00119857
0.000680144
0.000901558
4.29125e-05
-0.00137384
0.000429367
-0.000648999
0.000537513
0.00203442
-0.00192293
0.00174325
0.00124582
0.000163174
-0.00315224
-0.00155846
-9.83764e-05
0.000315747
0.00134108
-0.00130656
0.00139168
-8.51172e-05
-9.11257e-05
0.000865384
-0.000129782
-0.000644477
-0.00026796
0.000551179
-0.000283219
0.00109026
0.00154933
-0.000695671
-0.00194392
0.000933141
-0.000934004
8.63068e-07
-0.00264368
0.000617083
0.00147718
0.000549415
0.000107166
-4.72201e-05
0.00128425
-0.0013442
0.000822264
3.38977e-06
-0.000825654
0.0016888
-0.0018753
-0.00120429
0.00139078
-0.00148673
-0.00287189
0.00171494
-0.000290493
0.000187634
0.00119565
-0.00109279
-0.000512319
0.00155843
-0.000164334
-0.000881779
0.000320284
-0.000846602
0.00124419
0.0009739
4.67252e-05
-0.00102063
0.00289243
-0.000699384
0.000171913
-0.00236496
0.00109292
0.000312781
0.000699757
-0.00167179
0.00080347
0.000168562
-0.00175983
4.97769e-05
0.00131949
0.000390566
-0.000328061
-0.00072408
0.000766965
0.000285176
0.0010313
-0.00132781
0.000296514
-0.000365138
-0.000709917
0.00107506
0.00091056
-0.000589656
-0.00103368
0.00071278
-0.000390016
-0.000216999
0.00156008
-0.000953065
-0.000766338
-0.00122496
0.000947763
0.00104354
-0.00150529
0.0013746
-2.53599e-05
0.00015605
-8.77979e-06
-0.000928727
-0.000225012
-0.000820704
0.00103525
1.04687e-05
0.00156999
-0.00147642
0.000428703
-0.000522274
0.00238294
-0.00237116
0.00108114
-0.000415483
0.000456079
-4.05967e-05
-0.000871
0.000859696
1.13044e-05
-7.87024e-05
0.00109046
0.000372536
-0.00138429
-0.000691265
-0.00108919
-0.000429698
0.00221015
-0.000645513
-0.000496066
0.00224166
-0.00110008
0.00110986
0.000297606
-0.00148617
-0.000214389
0.00165447
-0.000752243
-0.000687836
0.000235187
-0.00109263
-0.000478897
0.00133634
-0.000304484
0.000187164
-0.00152328
0.0016406
0.00151747
-0.00109888
-0.000839929
-0.000626552
-0.000186876
0.00165336
0.000452989
-0.000229738
-0.000227034
3.78312e-06
-0.00177938
0.00207583
-0.000211448
-8.50052e-05
0.000581184
0.000641817
-0.00061088
-0.000612121
-0.000244572
0.0012686
2.66664e-05
-0.00105069
0.00141763
6.04668e-05
-0.00126686
-0.000211236
-0.000174764
-0.00174073
-0.000431241
0.00234674
-0.000150279
0.00125957
-0.00110929
0.00152473
0.00129502
-0.00173588
-0.00108387
0.00101109
7.62439e-07
-0.00101185
0.000111313
-0.00133188
-0.00033324
0.00155381
0.00238337
-0.000340054
-0.00112024
-0.000923074
3.39285e-05
0.00239626
-4.68227e-05
0.00117146
-0.00111949
-5.19658e-05
-0.000421765
-0.000821491
0.00124326
0.00217767
-0.000581111
-0.00136861
-0.00101851
-0.000995938
0.0016744
9.48091e-05
0.000402996
-0.00157213
0.00107433
5.65018e-05
-0.00135669
0.000848713
0.000451476
-6.6301e-06
0.00118251
6.85872e-06
-0.00118274
-0.000230256
-3.16471e-05
-0.00111781
-0.000294172
0.00141199
-1.89934e-05
-0.000970259
0.000989252
0.00207637
0.000157699
-0.00013321
-0.00210086
0.000869584
-0.00161069
0.000388203
0.000352904
0.000548522
1.34631e-06
-0.000549868
-0.00158317
0.00025833
-6.39409e-05
0.00138878
0.000567004
4.18582e-05
0.00123646
-0.00184532
-0.000582827
0.000629057
-0.00174774
0.00170151
0.000174475
-0.000229337
-0.00163485
0.00168971
0.00116279
-0.00108625
-0.00249664
0.000284754
0.000736537
-0.000751324
-0.000762019
0.000776806
-0.000672315
0.000675194
-2.87869e-06
-0.00159847
-0.000564558
0.00239538
-0.000343227
-0.0014876
-0.00093159
-0.000283281
0.00126393
-4.90572e-05
0.000268459
0.00151826
-0.000581402
-0.00120532
-0.00300911
-0.00252846
0.000197108
0.00242341
-9.20594e-05
0.000180045
0.000129699
-0.00104305
0.000733308
0.00166676
-0.00153987
-0.00171993
0.0012151
0.000348061
-0.00156316
0.00173167
-0.000320204
-0.00123914
-0.000172331
-0.00103542
-5.73697e-05
-0.000699102
0.00179189
0.00170073
-0.00143859
-0.000506289
0.000244145
7.49919e-05
0.000527047
-0.00162521
0.00102317
5.63476e-06
0.000885058
0.000135817
-0.00102651
-0.000824992
0.00105043
0.000296725
-0.000522166
1.23387e-05
0.00145331
-1.14929e-05
-0.00145416
-0.00109796
0.0011103
-0.00102338
-2.28724e-06
0.00102567
-0.00167012
-0.000154215
0.000417881
0.00140646
0.00117466
-0.00114862
0.000687409
-0.000713446
0.000289868
0.00102036
-0.00110173
-0.0002085
-0.00141381
0.00206931
-0.000238198
-0.000417305
0.000823409
-0.000786828
-3.65816e-05
1.60515e-05
0.000652592
0.00171429
-0.00138145
0.00117765
0.000507074
-0.000303269
-0.000340573
0.000758879
-0.000418306
-3.54424e-05
0.00118654
-0.0011511
-0.00185957
0.000705335
0.000361749
0.00079249
-0.00333999
0.00243422
0.000921821
0.00247912
-0.000296435
-0.000424097
-0.00175859
0.000991659
0.000121619
0.000634621
-2.94359e-05
-0.000665032
5.98475e-05
0.000686736
-0.00053857
2.68033e-05
-0.00159544
0.00156863
-0.00275521
0.00197
-0.000875202
0.00211122
-0.00142882
0.000192811
0.00144122
-0.00194933
0.000602927
0.00110791
-0.00202365
0.000390124
0.000525615
-0.00102913
0.00123604
-0.000206912
0.00214738
0.000449573
-5.27559e-06
-0.00259167
-0.00103169
0.00104053
-8.84434e-06
0.00280671
-0.00251563
0.000324669
0.00166339
-5.4286e-05
-0.0016091
0.00119367
-0.00121683
2.31586e-05
-0.00119335
0.000134079
0.00105927
-0.000459944
-0.0011292