/*--------------------------------*- C++ -*----------------------------------*\
  =========                 |
  \\      /  F ield         | OpenFOAM: The Open Source CFD Toolbox
   \\    /   O peration     | Website:  https://openfoam.org
    \\  /    A nd           | Version:  10
     \\/     M anipulation  |
\*---------------------------------------------------------------------------*/
FoamFile
{
    format      ascii;
    class       volScalarField;
    location    "100";
    object      SgP;
}
// * * * * * * * * * * * * * * * * * * * * * * * * * * * * * * * * * * * * * //

dimensions      [1 -1 -3 -1 0 0 0];

internalField   nonuniform List<scalar> 
59698
(
0.00309519
0.00183545
0.00231272
0.00271391
1.14823e-06
0.00145199
0.00249692
1.07363e-07
1.98978e-09
3.93418e-09
0.00058648
1.78716e-09
1.58366e-09
0.00228617
2.77491e-08
4.27128e-07
9.40989e-09
3.82253e-09
1.64142e-09
5.97907e-10
0.000365921
1.56295e-06
0.00049988
8.81923e-08
1.98392e-07
1.2086e-09
1.19953e-09
0.0024814
0.00239323
2.12171e-09
1.35394e-07
0.000600633
6.68489e-08
0.00403477
1.11676e-06
3.81435e-09
0.000465077
5.07239e-07
1.73337e-08
0.00245352
2.95469e-08
2.30474e-07
2.30954e-08
2.45767e-08
0.000402108
1.04698e-07
2.6807e-09
4.88644e-08
0.00290841
3.14547e-08
2.96608e-10
2.34936e-09
0.00172825
0.00272945
0.00216803
2.06161e-09
8.45806e-08
1.55355e-08
1.77426e-08
2.76282e-05
0.00178293
6.2957e-08
1.9892e-07
1.557e-09
4.97194e-07
4.1677e-08
1.75125e-09
3.24356e-09
4.19279e-09
6.77111e-09
6.14731e-07
2.80489e-08
0.000360147
1.53101e-06
0.000411945
1.00484e-06
2.15443e-08
2.19077e-08
6.40579e-09
9.42754e-09
4.78725e-07
9.92206e-10
4.0163e-09
8.02788e-09
1.69159e-05
3.13794e-08
9.15183e-09
2.2293e-07
2.34063e-06
2.32039e-08
4.51298e-09
6.3568e-08
1.7176e-07
6.56887e-09
6.06807e-08
0.00359107
1.37405e-07
6.19635e-08
5.15965e-08
8.59625e-10
0.00353822
2.07938e-05
2.95284e-07
0.00329215
5.2847e-08
0.000564778
2.32987e-09
2.28389e-09
2.66828e-09
4.40916e-10
3.6027e-08
2.64744e-06
1.35782e-06
1.5628e-07
9.75754e-08
3.45539e-08
3.4919e-07
0.00353381
2.92635e-07
1.15258e-08
2.26911e-09
2.98576e-07
2.25606e-07
3.42724e-09
1.63469e-09
7.63709e-09
8.40131e-09
7.20742e-09
1.3005e-08
3.86424e-07
0.00335581
3.86245e-09
1.10441e-09
1.84953e-07
6.36947e-08
3.23908e-09
4.91673e-07
2.61343e-10
1.72812e-09
5.69658e-09
2.08277e-08
0.0023172
0.00252087
1.58031e-09
1.90704e-07
7.92836e-10
5.35002e-07
3.78932e-07
0.00448819
7.07004e-07
0.000257413
0.000434379
2.78314e-08
2.54839e-07
9.20274e-09
1.04662e-07
7.44681e-09
0.00162893
6.71513e-08
6.03965e-10
3.11793e-09
7.72544e-09
2.21867e-08
9.70382e-08
1.89546e-08
0.00222845
1.06598e-09
0.000567551
0.00152527
6.92159e-09
2.55884e-07
1.49057e-06
2.17717e-07
9.26027e-07
5.77319e-07
0.00121906
4.36871e-09
0.00139537
0.000326016
0.00293196
2.2561e-06
7.4012e-07
4.00909e-07
1.12329e-08
2.48924e-07
6.79506e-08
3.71518e-07
0.00238055
1.37494e-10
1.86525e-08
6.41918e-09
7.05078e-09
2.30403e-08
6.05168e-07
1.21944e-07
0.00416748
1.81053e-06
0.00294395
1.26386e-05
9.09709e-08
0.000227111
6.7538e-07
1.56555e-09
2.54331e-09
0.0035673
0.0024469
3.60503e-08
0.00205807
0.0027077
0.00350264
0.00242677
6.10669e-09
0.0026274
1.56813e-08
2.34582e-09
0.00336711
9.86616e-09
4.54697e-08
1.55128e-07
4.66268e-09
1.37082e-05
0.00217429
1.72623e-09
5.09655e-07
8.90113e-09
0.0027467
2.1177e-08
5.4772e-09
4.86519e-08
6.96195e-07
7.57162e-09
1.87045e-08
7.43077e-09
1.13675e-08
9.55672e-09
8.94946e-09
3.07641e-07
1.95757e-08
1.76469e-07
8.1918e-09
0.00261369
1.19039e-07
3.42618e-08
0.000664542
8.59655e-09
2.14892e-07
2.29197e-05
3.46274e-06
5.28687e-09
4.94771e-09
6.15218e-08
6.07196e-09
3.08448e-08
0.000233555
1.91798e-08
0.00169891
1.1002e-07
5.45716e-08
0.0031472
2.87813e-09
7.0484e-06
1.7854e-09
7.83432e-09
0.00270859
0.00357785
8.53355e-07
1.08543e-09
1.0709e-07
1.97895e-08
6.038e-10
3.13043e-09
1.54148e-06
6.89636e-05
6.62369e-10
1.25264e-07
5.01588e-08
0.00146581
3.97472e-08
2.94986e-09
1.22201e-09
0.000574131
1.7641e-09
1.6614e-09
4.7149e-07
0.00334883
1.02135e-07
5.27559e-09
0.00064737
3.81986e-07
1.0028e-07
2.65001e-06
0.00232503
9.26517e-09
1.35781e-09
7.03553e-07
0.00273228
4.69379e-10
1.52329e-07
1.44969e-08
6.42262e-07
3.07939e-09
2.36145e-09
6.86693e-08
5.76981e-10
1.10401e-09
1.15405e-09
3.61123e-07
2.19321e-08
5.37718e-09
5.32699e-10
0.00190121
4.17762e-08
3.80624e-09
2.38003e-08
0.00191502
5.62976e-09
0.000403389
8.31053e-09
0.000829308
8.51952e-08
9.52989e-08
3.10325e-07
1.67314e-08
2.95012e-09
1.5575e-06
2.55575e-07
1.60784e-08
8.69954e-09
4.35383e-10
0.000361923
0.00289914
4.02396e-08
3.57682e-07
2.45423e-06
0.000430953
1.03577e-08
7.75938e-09
4.28799e-09
1.39823e-07
0.00122086
2.13421e-08
0.00206206
0.00250593
4.9501e-09
9.98153e-08
1.36214e-09
2.65851e-10
1.24542e-06
1.34735e-09
0.00203389
9.30666e-10
1.30713e-08
1.25822e-06
7.96055e-10
9.54142e-07
0.00191606
2.6877e-06
1.43971e-08
3.29451e-08
1.82443e-09
2.09958e-08
1.08326e-08
1.10562e-07
3.59673e-09
1.43128e-10
1.04125e-07
0.00279687
0.00201716
2.82878e-08
9.78352e-07
1.13255e-07
0.000533994
0.00366891
0.000651139
2.08573e-08
2.97583e-09
3.63339e-08
2.04554e-09
0.000460524
2.48797e-09
0.000347123
4.46398e-08
4.3464e-08
5.15515e-08
8.5424e-10
6.76179e-06
1.0951e-08
0.000544827
8.32141e-10
3.3881e-08
2.10532e-08
0.000457488
0.00330054
3.23818e-09
5.36476e-05
0.00179779
3.58455e-06
0.0018271
0.00269784
8.14827e-08
0.00243868
0.00236496
0.00257383
5.43652e-09
0.00148346
0.00417847
0.00383898
0.00276245
5.89297e-09
8.26065e-07
1.88445e-07
0.0004043
0.00163745
0.000434529
4.70884e-10
2.03925e-07
2.02105e-09
2.29273e-06
0.0018967
0.001756
0.00292219
0.00218232
0.00249159
0.00166406
7.80952e-09
2.03988e-09
7.84935e-09
1.74906e-08
0.00138448
5.65338e-10
7.78984e-09
0.00196076
0.00116515
2.34703e-08
3.71275e-08
1.40711e-08
1.3887e-08
0.00126546
3.34127e-09
0.00211842
1.92324e-07
0.00321067
5.01867e-09
4.39911e-08
1.86336e-07
2.03201e-06
8.69454e-08
4.51273e-10
2.14948e-09
1.2888e-07
0.00254332
6.61892e-09
7.22743e-08
1.9678e-06
6.10631e-07
1.15097e-07
3.41065e-07
1.42271e-09
1.15205e-06
1.64959e-07
6.12961e-08
4.61656e-09
0.00320822
6.53578e-09
2.19442e-09
2.02458e-07
3.51096e-07
9.27025e-09
4.36554e-08
6.16207e-09
0.00247477
4.42034e-09
2.00666e-10
6.87942e-09
6.29059e-08
2.04105e-06
8.22216e-07
2.2034e-09
0.00300903
0.00194622
2.34333e-08
2.10488e-07
1.59407e-08
1.95008e-08
2.53176e-07
4.11721e-08
4.43891e-08
1.97061e-08
1.61162e-09
1.65283e-09
2.50622e-07
4.06084e-07
3.92573e-10
4.23562e-08
0.00402065
2.12797e-07
1.53116e-08
0.0023666
3.71115e-08
0.000365619
9.72052e-10
1.18732e-07
2.04057e-07
1.21043e-08
1.71061e-08
1.12121e-09
8.17267e-08
2.18123e-09
5.25149e-09
8.25687e-09
5.7567e-09
7.84906e-09
1.34277e-06
5.41926e-08
1.60358e-08
2.67905e-09
6.872e-09
1.00281e-08
7.03871e-08
2.48228e-08
1.71365e-08
3.46914e-09
5.06962e-09
3.86804e-09
2.1861e-09
6.3238e-06
3.30033e-08
2.81212e-09
0.00339749
0.00370803
2.90979e-09
0.00382894
1.8277e-08
5.52194e-09
0.00145131
3.56456e-10
1.35536e-08
0.00178825
1.89901e-09
0.00038488
4.28392e-08
2.57689e-09
4.50139e-08
2.98079e-06
1.48579e-08
5.19538e-09
8.92747e-06
0.0001671
1.87716e-08
7.46235e-06
1.82569e-08
2.2853e-09
3.10143e-08
1.90888e-09
5.0586e-09
1.4467e-08
1.92661e-08
1.61966e-08
2.58358e-09
2.22822e-09
0.0007685
1.74277e-09
1.65568e-08
1.01889e-05
1.51124e-08
1.8094e-09
1.21905e-06
2.25882e-08
8.5527e-09
0.000539256
7.78772e-10
7.61633e-09
2.03631e-07
1.57723e-09
4.42258e-08
1.3116e-09
3.18144e-10
4.3886e-10
0.00200341
2.31066e-09
0.000732636
3.894e-08
0.00320714
1.49288e-08
3.29129e-09
0.000313339
1.17486e-09
1.35537e-08
1.788e-08
1.63902e-08
1.98804e-09
0.00316744
8.12535e-09
1.68188e-08
8.51729e-10
4.19061e-08
9.24031e-07
0.00264913
0.000349775
7.22231e-09
7.93385e-09
1.64634e-09
2.7166e-09
0.00337481
1.35269e-08
4.42585e-09
2.48221e-09
0.00108743
0.00385603
1.532e-08
1.26062e-08
1.56607e-09
1.13948e-08
4.29337e-09
4.1277e-09
5.12294e-09
4.92031e-09
3.63763e-08
7.82435e-05
7.31384e-09
5.03607e-09
7.86933e-09
1.82187e-08
2.54331e-05
0.00241929
1.08702e-08
0.00266348
1.63672e-09
8.77724e-09
4.32732e-09
0.00269466
0.000211186
9.5438e-10
8.411e-09
7.05039e-10
2.85999e-08
6.31683e-09
2.85531e-09
0.00151548
0.00323682
1.31473e-07
1.62442e-07
0.0006079
1.45089e-09
5.10677e-09
1.60416e-09
4.12153e-07
0.0021071
3.38492e-08
1.74818e-09
0.000439476
7.67996e-09
3.18382e-08
3.32999e-09
2.382e-09
4.35333e-09
9.34979e-10
7.5826e-06
1.02044e-09
0.00182037
5.0835e-08
1.12003e-07
6.79954e-09
1.55729e-06
3.43241e-06
5.37483e-09
2.07895e-08
0.00230812
0.00311019
7.32891e-08
3.86616e-09
7.58398e-07
1.56101e-09
0.00343721
3.09463e-10
1.9618e-08
0.000428463
0.00255397
4.33701e-09
1.59794e-09
1.96438e-07
5.88825e-07
3.53427e-07
0.000378101
0.00139636
1.13225e-10
6.62648e-09
7.75013e-10
4.63572e-09
0.00277491
2.71906e-08
0.00303001
1.00005e-08
0.00131534
0.00209607
0.00236426
6.15547e-08
4.11057e-09
0.000650602
1.27264e-09
2.29145e-10
9.7492e-10
4.35304e-09
1.81584e-08
4.52452e-09
1.49726e-09
9.20745e-08
6.73142e-08
7.49322e-09
2.72193e-09
0.00186391
4.18178e-08
3.55959e-08
0.000362122
9.82564e-09
3.48456e-08
3.81873e-08
1.9388e-09
1.38582e-09
0.00064694
0.0019628
0.00241488
3.87254e-09
1.11378e-08
6.89009e-09
1.63468e-07
0.00194539
1.36573e-09
5.68193e-07
2.58661e-08
1.32234e-05
0.000344566
0.00169868
2.25384e-07
1.48151e-07
2.23839e-08
0.00430835
0.000532166
1.88831e-08
8.87431e-07
3.52456e-09
6.83099e-08
3.45721e-06
0.00231956
2.451e-08
1.20644e-07
1.0167e-07
1.58745e-05
2.49985e-08
0.00185629
2.48129e-09
5.1612e-08
1.16362e-08
0.00213062
6.94941e-10
6.59183e-09
2.0602e-07
4.46282e-06
0.000599782
1.09249e-07
7.01902e-08
0.000383644
4.15451e-08
2.57278e-09
0.00190614
0.00219651
5.49259e-09
7.57039e-09
0.000401561
1.00844e-08
1.74906e-08
0.000373922
3.51162e-10
0.00265404
2.50271e-09
1.93315e-08
1.81619e-07
4.01159e-09
3.941e-08
3.59548e-08
5.01054e-05
3.75457e-09
6.12784e-09
7.11099e-09
1.17621e-08
9.70779e-08
1.51256e-08
0.000326091
7.00669e-09
2.03572e-08
0.00140037
5.72658e-08
9.85021e-08
9.29839e-06
0.00187033
2.37701e-06
0.000541601
6.89963e-09
0.000383173
1.59356e-08
4.19691e-09
1.59033e-09
0.00314075
3.78743e-07
3.2446e-08
7.11433e-05
6.43789e-08
0.00157969
1.70095e-07
9.8264e-06
3.53525e-09
0.00100439
3.15979e-09
0.00130485
5.37129e-05
2.4396e-07
0.000651794
0.00179453
1.21819e-06
1.1058e-05
4.11019e-09
1.13083e-06
2.5229e-08
4.08816e-05
0.000444767
0.000428771
0.00211176
3.5298e-08
3.19722e-08
0.000561237
4.57625e-08
0.00227711
6.94334e-10
0.000401154
2.27118e-09
2.66691e-09
2.94021e-05
0.000503634
0.000206212
0.000108648
7.69402e-09
5.1596e-09
1.95804e-09
0.000487231
2.01795e-09
0.00350802
0.00473697
2.50061e-09
0.000499713
2.07792e-09
1.00227e-09
2.93495e-09
3.21802e-06
0.000469636
3.0044e-09
1.29581e-09
1.05756e-06
4.44845e-09
1.12222e-07
3.78371e-09
2.9816e-09
8.82504e-08
2.63801e-07
3.11672e-08
1.04066e-08
0.000532565
8.08801e-10
0.00012765
2.70016e-10
2.46914e-09
0.00124248
1.50789e-09
7.75452e-06
8.98228e-08
7.42487e-09
0.000108821
1.24762e-08
0.00157162
2.72423e-08
4.58606e-10
0.00174582
5.68252e-09
1.13375e-08
0.000307138
1.2438e-09
0.00205967
1.67963e-08
1.42164e-09
0.00422999
3.05464e-09
5.43845e-09
1.49704e-08
1.6411e-08
0.000319937
8.13623e-09
5.58758e-09
1.64834e-07
0.00180903
0.000633467
0.000584062
2.24528e-08
1.77396e-09
0.000379941
0.00237003
6.8488e-09
8.57906e-09
5.57358e-08
1.16222e-08
2.83982e-09
2.54888e-08
0.000412243
0.00144847
0.00262294
1.49194e-07
2.03975e-09
0.00267081
0.00400967
0.00520957
5.06667e-08
1.80302e-08
1.58748e-07
4.38616e-07
1.80944e-08
2.76219e-08
7.86789e-07
2.81561e-08
7.51611e-09
8.16833e-09
1.35394e-06
7.1419e-08
7.37794e-09
0.00254235
1.66589e-09
6.03646e-08
1.87606e-08
2.82319e-08
6.47025e-09
3.92434e-10
0.000761136
1.88356e-08
3.11229e-09
0.00193673
1.91174e-08
2.3964e-08
0.00316678
2.94894e-08
3.34393e-07
5.67653e-09
1.99742e-08
2.43367e-08
0.000825815
3.07439e-08
0.00220049
1.82755e-07
1.98621e-07
3.66591e-08
0.00533115
0.000295127
4.58859e-09
5.43476e-09
9.92189e-07
1.44619e-09
1.12405e-08
8.50075e-09
0.00167349
1.17352e-09
2.28298e-09
8.1209e-09
2.46841e-09
3.57656e-08
2.36394e-08
7.528e-09
0.000429221
0.00219283
0.000466221
6.29734e-08
0.00314138
0.00256311
5.59669e-08
1.75489e-09
0.00183298
6.4399e-06
0.0015463
0.00208222
0.00203133
3.32425e-09
5.88677e-08
0.00237834
1.94879e-07
3.27732e-08
1.88576e-07
2.64417e-08
0.000443702
2.08736e-08
0.000538421
1.69212e-05
2.57371e-08
0.00196151
2.00174e-08
0.000608721
6.8685e-09
1.68236e-08
1.16963e-09
3.99759e-08
0.00153623
0.00364919
1.2894e-09
0.000395622
0.00188713
0.00135368
0.00278188
5.67184e-10
1.01138e-08
1.17491e-09
0.00355326
8.08968e-10
1.29676e-07
0.00355975
5.33509e-09
0.00346992
0.0035149
0.00366743
1.55332e-08
5.72489e-08
4.62752e-08
8.77118e-09
1.10977e-08
6.13165e-08
1.26491e-08
4.75811e-09
0.000475245
4.10468e-09
3.70988e-08
2.75995e-07
5.18429e-10
0.0016232
2.92346e-08
4.61867e-09
6.66897e-08
2.6876e-10
7.00902e-08
3.90176e-09
2.03072e-07
0.00306617
3.12953e-05
8.89727e-10
1.56501e-08
0.00210096
0.00314932
1.78707e-07
0.000760508
1.00318e-08
7.80025e-09
0.00257371
2.22012e-08
0.00322076
0.000542245
1.04741e-09
7.23542e-08
0.000765799
1.68573e-08
2.49396e-08
0.00250177
6.36354e-09
1.36056e-08
3.12284e-09
0.000534601
3.15018e-06
0.00193134
1.83548e-07
9.39416e-09
0.00175019
1.40091e-07
2.57167e-10
5.95778e-06
2.18593e-09
7.22881e-07
0.00129386
2.70688e-09
9.40355e-10
1.13443e-08
5.82808e-09
1.54784e-08
5.84699e-09
1.26282e-08
1.00026e-06
9.48721e-10
1.24811e-09
0.00169858
4.65758e-09
5.22802e-06
2.93202e-08
5.12589e-06
1.29256e-06
1.1716e-06
5.36875e-06
1.25604e-06
5.3488e-09
1.6583e-08
0.0010031
2.92797e-06
2.48701e-08
2.25958e-08
2.47907e-08
0.00044909
1.36957e-06
7.78179e-08
2.28854e-07
3.47306e-09
0.00226266
4.69163e-09
1.2271e-08
2.08623e-08
1.18551e-08
2.99173e-08
0.00212648
5.59219e-08
2.40606e-08
1.8668e-08
4.68553e-09
0.000477735
2.25136e-09
5.16626e-09
3.3384e-08
2.51405e-10
1.42015e-09
6.12536e-09
9.36379e-09
1.36555e-08
0.000334032
1.14267e-08
1.31696e-08
2.38104e-09
2.00785e-08
1.24428e-08
1.00863e-08
5.84629e-08
0.000380629
0.00242459
1.5468e-08
7.84738e-09
0.00284483
1.65583e-09
4.30166e-05
0.00202961
4.96019e-09
7.12303e-07
1.52658e-06
0.00186573
2.20294e-08
3.17896e-08
2.17482e-07
1.7372e-05
8.68215e-07
2.13726e-07
1.40149e-09
3.73889e-09
4.27254e-07
1.09182e-07
5.57692e-09
1.53151e-09
1.24953e-08
7.53178e-09
3.04148e-06
0.00129388
6.41407e-08
3.5915e-08
5.10751e-08
0.00264617
0.00244625
9.1429e-07
1.51427e-08
3.26414e-08
4.01471e-08
4.47071e-09
2.8955e-09
1.81488e-07
4.22387e-09
3.45812e-08
2.02426e-09
1.2647e-08
2.26792e-08
3.332e-09
4.14374e-07
2.79795e-09
0.000434431
9.50317e-08
0.00394802
0.00165203
1.1239e-07
2.13878e-08
0.000579702
0.000345169
2.77482e-08
2.341e-08
9.31112e-06
2.28283e-09
1.87995e-09
2.36436e-08
1.74482e-08
0.000781455
0.000646981
9.5734e-09
1.18072e-08
7.75175e-09
3.33329e-07
5.0572e-08
0.00267068
0.000496408
1.48859e-08
0.000238787
7.04291e-09
0.000315431
0.000227594
0.000223585
2.82079e-08
1.05278e-07
1.77449e-09
9.95505e-08
2.53823e-08
0.00240355
4.88357e-09
4.13595e-08
6.93885e-09
7.7023e-08
2.27236e-05
0.00194493
0.00227798
2.2292e-08
2.97382e-08
0.000377614
3.9968e-08
1.04014e-06
1.0482e-08
0.00304784
4.07257e-08
2.25513e-08
8.52823e-06
0.00262292
6.85323e-08
2.28067e-08
0.00131291
2.0122e-08
4.65264e-10
1.39135e-09
4.45459e-09
3.16983e-08
1.3296e-08
6.30964e-10
2.23059e-08
3.71947e-08
1.13435e-08
6.06571e-08
1.71678e-08
5.52041e-07
0.00191154
2.82517e-09
1.60801e-08
5.63131e-08
0.00200056
8.70973e-07
2.00925e-08
0.000375004
2.88478e-09
2.25158e-07
1.46046e-07
0.000983775
3.59899e-07
3.20605e-10
1.22009e-07
1.40281e-08
1.22675e-07
5.07045e-08
2.87503e-09
1.49478e-07
6.88504e-09
8.69757e-08
7.92232e-10
0.00058427
4.91104e-08
0.00207399
1.31748e-09
6.33031e-08
2.15653e-06
1.07209e-08
4.42882e-06
4.78592e-09
6.61456e-10
2.46422e-07
4.1851e-08
4.8481e-09
1.73971e-05
6.10929e-08
7.41946e-08
0.000547245
2.98044e-09
0.000563699
3.15983e-08
2.2673e-09
7.73504e-09
5.78654e-09
1.98404e-08
3.90275e-07
3.13446e-07
1.50446e-07
0.00237863
2.1858e-07
0.00393262
0.00209531
0.00329155
8.49696e-08
2.19518e-07
0.0014351
3.80904e-09
2.50211e-08
2.97578e-08
0.00237003
9.79514e-09
0.000635585
0.000492211
2.76682e-09
0.00262591
4.95754e-06
0.00263983
1.88991e-08
0.0024964
5.58883e-08
0.000340215
1.62646e-09
3.88501e-09
4.27189e-08
0.000746779
7.67655e-07
4.16269e-10
2.68937e-08
6.3426e-10
0.000532961
0.000313651
5.70103e-08
0.00190928
4.56263e-07
0.0005447
3.19252e-08
5.58312e-10
6.42891e-09
2.60691e-09
8.93479e-08
2.03904e-05
5.68521e-09
1.33312e-06
4.44326e-08
4.21302e-08
4.65685e-09
9.87818e-05
2.24323e-07
1.87932e-09
6.38553e-09
0.000432449
1.0923e-06
7.79053e-08
0.00152075
1.77018e-06
1.48682e-06
7.41981e-09
8.39586e-09
3.91383e-09
0.000681619
2.75644e-08
5.46121e-09
1.49385e-08
3.64431e-07
9.96538e-07
2.07188e-07
1.82241e-09
3.22931e-06
6.71832e-07
7.51746e-09
5.97496e-09
5.51215e-06
2.5162e-09
5.06952e-09
0.0023871
0.00220925
6.16767e-08
4.50717e-09
1.14569e-09
3.33777e-08
0.00192959
2.59117e-07
1.37688e-06
5.37141e-10
5.49619e-07
3.25771e-08
0.0011203
0.000444878
7.18871e-07
2.45713e-08
3.50289e-06
5.30438e-07
0.000100622
2.23258e-09
1.83612e-08
0.00118821
2.55421e-08
7.78033e-07
5.8938e-07
2.02267e-06
1.2219e-06
1.16774e-08
0.00162284
1.30886e-05
2.46214e-09
1.21087e-08
4.66725e-09
0.000427673
0.000113486
1.86004e-08
0.000637651
1.22367e-07
7.26011e-05
0.00282739
0.000398955
0.00281961
0.00183703
0.00221777
4.57134e-10
2.78369e-06
8.42131e-08
3.51723e-06
1.4902e-05
2.21057e-06
2.01866e-09
3.97403e-07
1.46995e-08
3.20202e-07
0.000761567
2.88325e-07
9.13139e-10
0.00178469
1.3926e-07
0.000207825
1.83499e-07
4.11105e-07
4.74098e-09
3.87608e-07
2.1213e-07
0.00151228
2.09567e-07
3.56714e-08
1.49979e-07
2.60212e-05
0.00129743
0.00131391
0.00294022
4.92739e-09
0.000502803
0.00149672
0.00175313
0.00149456
2.30945e-07
0.00217389
2.68333e-07
4.73903e-09
5.37175e-09
6.35488e-09
0.00147153
0.0017686
5.59665e-09
1.47092e-08
8.38653e-09
4.08459e-07
0.000298095
0.00368272
0.00135433
8.21438e-08
0.0024792
8.63902e-10
3.61671e-08
0.00108921
0.000804564
5.33704e-09
2.72234e-06
1.21991e-08
6.38359e-09
0.00351999
6.37111e-09
0.000423295
1.17192e-09
0.00037871
0.000405409
0.000581335
0.00190932
3.24904e-07
0.00161722
1.26413e-08
1.1757e-05
0.000460524
0.00124702
0.00220787
0.00109664
7.52728e-09
0.00124439
9.02872e-09
1.59518e-08
0.00292726
1.64013e-07
6.62529e-06
5.66102e-08
5.19076e-08
0.000573428
1.4354e-06
3.30749e-09
1.49234e-07
4.39011e-07
0.000403275
0.00219843
2.7266e-07
7.6128e-09
0.000614705
1.86588e-08
1.56949e-08
5.11443e-08
6.03939e-07
0.0021408
3.69205e-09
0.002417
8.40043e-10
0.000256111
0.00433602
8.6955e-09
3.01495e-06
0.00242907
4.9701e-05
5.20365e-06
2.47112e-09
0.00177852
0.00277879
5.21354e-10
0.000489097
8.32018e-07
0.000618778
1.49035e-08
8.51612e-07
5.12444e-07
3.52645e-08
7.74339e-11
0.000345776
0.00131505
6.48752e-09
1.17885e-09
0.00218193
1.11168e-08
2.20792e-09
3.73737e-08
1.87619e-09
7.87723e-08
0.00354115
0.00209434
2.66017e-08
5.46161e-10
0.00221224
1.98924e-07
0.00270361
2.78367e-09
1.91389e-06
4.59023e-08
7.42758e-09
2.75128e-09
1.07878e-08
0.00333617
5.03867e-09
2.79654e-07
0.000274721
0.00237604
0.000453091
1.37976e-08
1.17339e-06
2.56697e-09
0.000229292
0.00228075
8.83679e-10
3.76248e-09
3.97992e-08
3.30994e-08
0.00050253
2.62038e-07
0.000529726
1.92213e-07
6.58656e-09
5.87107e-11
4.98115e-08
0.000221057
0.000394062
5.42363e-09
0.00384295
0.00245682
8.69684e-09
2.993e-10
3.7645e-09
7.33551e-09
3.80947e-09
1.54852e-08
0.00275244
0.000620055
0.000514079
7.76425e-05
0.000348235
0.000381682
2.74868e-09
4.27178e-08
1.48762e-09
3.01337e-08
1.89325e-08
0.00234573
1.0816e-08
4.93744e-09
0.00111864
1.90185e-08
7.6671e-08
8.82257e-08
1.64266e-09
8.3454e-08
3.47512e-08
0.00219886
5.20371e-09
1.44397e-08
4.14231e-09
1.58453e-08
2.10144e-08
0.00375565
4.52608e-07
1.12779e-07
7.32294e-08
1.05977e-09
4.50371e-05
1.16773e-06
3.24473e-09
5.78257e-07
1.26216e-05
1.01691e-08
1.12619e-08
1.03099e-05
3.71372e-06
2.50345e-07
0.00304077
3.88169e-09
3.96921e-07
1.46711e-06
0.00282685
2.2453e-07
4.32695e-10
1.91776e-06
1.65776e-05
3.42588e-07
1.00183e-08
1.68965e-07
4.62108e-08
6.61522e-08
2.00105e-08
3.31396e-08
0.00184731
2.18096e-09
1.18188e-08
1.09827e-08
6.89958e-10
4.61084e-09
9.27284e-10
0.00421567
1.25587e-07
1.94258e-09
3.31325e-09
3.11533e-09
1.08193e-09
4.98422e-08
5.12418e-09
2.81816e-09
5.37038e-08
1.33841e-08
0.0022095
3.06051e-09
0.000384355
3.51702e-08
1.1753e-07
1.78294e-08
1.21187e-06
1.01663e-09
0.0031576
9.46844e-09
0.00178984
2.97387e-07
4.02153e-08
1.35105e-08
1.82711e-06
2.74718e-09
3.62489e-09
2.93819e-09
0.000259142
0.000626663
0.00213651
1.01058e-07
1.57483e-07
0.00227884
1.72391e-06
3.37062e-09
1.37515e-08
2.87382e-07
1.03349e-08
0.00411988
2.78969e-06
0.00307947
2.31373e-08
7.66738e-09
0.00158878
0.00144431
0.00174766
1.66049e-08
1.47033e-06
0.00186859
1.67379e-09
1.23047e-05
1.51492e-07
0.0017748
0.000459339
1.81492e-07
0.0023082
2.04261e-05
6.20603e-07
0.00205373
0.00216972
1.91646e-08
0.00237785
0.00300984
0.00180862
2.49283e-08
4.38998e-09
6.1098e-09
7.34632e-10
2.86758e-09
0.00163008
0.00275219
0.00182472
2.55319e-09
0.00303316
2.74537e-09
0.00228112
0.00249144
5.76802e-09
3.66814e-08
0.00165387
2.45876e-08
1.31973e-08
3.21356e-07
4.34167e-10
0.00256047
0.00199029
8.28685e-07
0.0016347
3.74007e-09
3.04484e-09
7.10861e-09
3.32849e-08
6.71686e-08
3.13257e-07
1.22196e-09
5.59725e-09
1.41851e-08
8.13239e-09
6.20093e-09
1.04386e-07
3.69505e-10
2.30881e-08
2.11727e-06
1.15517e-08
3.43951e-08
2.75746e-09
1.18938e-07
1.56246e-09
5.20366e-09
2.22394e-07
1.55643e-09
3.02475e-09
0.00188087
3.45886e-08
5.18213e-09
6.52791e-07
3.1226e-09
1.47398e-08
4.82149e-08
0.00185702
9.3025e-08
0.00220806
0.00148585
1.72378e-08
2.07192e-08
5.80306e-08
6.55237e-09
0.00157707
4.93372e-08
2.23378e-07
3.67025e-07
2.90411e-08
0.00235744
0.00149677
1.88276e-09
3.12852e-09
6.99382e-09
6.37149e-08
5.89309e-08
7.36459e-09
4.16187e-07
5.3179e-09
1.49302e-06
2.49574e-09
1.53038e-09
6.31083e-09
1.55629e-08
2.33092e-07
7.85156e-09
1.88733e-08
0.00429573
0.00144841
0.00257012
0.00155371
1.49118e-06
1.20179e-08
0.00201318
6.94059e-07
6.75072e-09
0.000410058
1.31727e-09
1.44423e-07
0.00235106
4.4114e-08
1.25032e-07
2.30269e-08
4.29889e-08
0.00139993
8.22016e-09
9.3495e-10
2.03713e-07
2.66471e-09
4.68748e-07
5.95689e-06
6.70286e-08
0.00211099
4.19295e-08
0.000460351
2.59302e-07
0.00209881
3.86173e-10
5.05187e-09
2.68076e-07
3.92501e-09
0.00183882
3.83349e-07
0.000518372
1.49304e-07
1.83411e-07
1.33907e-07
2.65819e-08
8.55881e-09
4.92559e-08
3.00881e-06
4.0026e-08
2.59402e-06
0.0032475
5.31847e-08
0.00421532
5.65918e-09
2.51949e-09
4.56372e-06
0.0018643
1.40359e-08
1.34919e-09
9.00164e-07
5.67296e-08
3.36366e-08
0.00233969
1.34687e-08
6.13005e-07
0.00262079
1.35917e-09
8.04742e-09
4.17828e-07
9.57818e-10
8.17595e-09
0.00253087
5.28096e-09
0.0027677
2.31573e-08
2.15208e-07
3.90235e-08
0.000894192
5.97451e-08
2.80297e-08
1.48705e-07
0.00253482
1.58868e-06
1.25937e-08
9.32167e-09
1.24953e-07
0.00207267
3.44623e-09
5.1945e-08
6.30985e-08
1.60057e-06
0.00252797
0.000270069
0.0011904
1.74642e-08
0.000358101
1.31691e-08
9.00322e-07
0.0007894
1.15582e-08
0.000880841
3.2854e-06
4.85182e-09
2.64054e-09
1.20799e-08
0.00253348
1.52399e-08
2.42824e-09
2.5999e-07
1.12172e-08
5.72583e-09
0.000301429
2.736e-09
4.46876e-08
0.0024296
1.26652e-06
4.52789e-09
0.00203792
3.25951e-06
6.49696e-09
1.38578e-08
1.20084e-05
4.30077e-08
2.23806e-07
1.6771e-08
4.14527e-08
6.06961e-08
4.74485e-06
0.00109775
4.84108e-08
0.0024824
1.51329e-08
3.79184e-08
0.00271656
3.04639e-08
7.83738e-08
9.5549e-09
1.29851e-07
0.00237012
3.02041e-08
2.13305e-08
0.00163502
5.79434e-09
0.00266886
1.40255e-09
8.44834e-09
1.03132e-09
8.70771e-09
0.0015168
5.4163e-08
1.39835e-09
2.58096e-09
1.43792e-08
5.28799e-08
0.00255052
4.77937e-09
4.61914e-09
1.88206e-09
1.54857e-07
5.31617e-06
5.03447e-09
0.00156987
3.50666e-08
9.44656e-09
6.2763e-09
5.11793e-08
0.000429642
6.49607e-07
1.62072e-10
1.00466e-09
0.00182619
0.00217012
6.14442e-08
3.86872e-09
0.00183549
1.6594e-08
9.05069e-10
0.00356057
9.06187e-09
0.00275319
2.89677e-07
1.753e-08
2.01777e-08
9.77503e-09
9.52704e-09
4.41749e-09
3.04112e-05
7.46043e-07
2.27092e-09
4.10703e-08
5.54819e-08
5.33036e-09
0.00257876
8.69542e-09
1.33206e-08
0.00197402
2.62067e-08
3.59319e-08
2.91902e-10
0.00228715
2.81598e-08
1.34349e-07
3.27434e-09
3.70032e-08
4.04971e-09
0.00233765
5.91443e-09
7.02425e-09
0.000612916
1.08357e-08
7.13059e-09
0.00233165
6.54068e-08
3.87629e-10
3.14963e-08
5.90886e-09
0.00188359
4.41468e-07
6.01142e-08
3.46764e-09
4.0228e-07
1.41363e-07
8.68657e-09
1.41424e-09
1.0295e-09
3.41036e-08
1.04913e-08
8.49441e-10
7.78384e-09
6.96657e-09
1.04507e-08
0.00231615
6.96389e-07
1.47883e-08
2.05122e-09
9.40589e-10
0.0021998
1.94279e-08
0.00327808
9.35539e-07
0.00158579
7.52359e-10
0.00215252
0.00292639
8.45227e-09
9.38999e-09
8.96806e-08
0.00210515
0.00251637
3.0692e-07
7.0019e-09
2.49657e-07
1.05318e-09
2.21175e-07
8.73985e-09
9.42746e-08
1.66259e-08
1.46521e-09
3.93148e-09
8.46104e-10
6.19412e-09
9.15479e-09
3.80913e-09
5.08174e-09
1.5107e-08
9.02322e-08
2.97133e-11
3.36461e-09
7.47371e-10
5.65447e-09
1.52821e-09
1.78299e-07
0.00189958
0.00279692
4.50945e-09
0.00222558
1.39925e-08
3.06544e-09
4.44505e-09
1.6474e-06
1.80161e-07
7.17373e-08
9.9225e-10
1.10296e-08
2.14105e-09
7.96131e-09
1.59838e-09
1.29343e-08
1.41447e-07
0.00158842
2.44733e-09
2.12352e-08
0.00140321
0.00178425
0.00219801
0.00206385
0.00176514
4.66142e-08
3.77823e-08
2.89003e-09
7.84267e-09
7.60025e-09
1.34111e-06
3.94005e-09
2.92551e-08
3.41322e-08
7.18688e-09
2.22196e-09
2.65111e-09
7.43356e-07
3.15506e-06
3.97779e-07
5.99584e-09
1.68062e-09
3.25329e-09
0.00284218
2.53425e-09
0.00185271
1.08914e-07
8.78402e-09
7.52676e-07
0.00105424
6.75871e-08
4.02565e-10
3.77254e-09
3.20783e-08
1.50788e-09
2.36392e-08
8.1914e-10
0.00110408
3.38784e-10
4.18312e-08
0.0028442
2.98196e-09
0.00133042
5.86731e-08
0.00216661
9.71985e-08
0.0012197
3.55474e-10
0.00289499
0.00232083
2.77964e-08
4.22629e-09
0.00158365
1.99365e-08
0.00186966
1.67698e-08
7.88572e-09
5.10997e-10
1.66387e-08
2.05101e-08
1.49771e-08
6.36787e-07
0.00292327
0.00166186
1.22474e-06
3.80174e-09
3.47643e-07
0.00305632
0.00136138
0.00236579
0.00234398
5.32673e-09
6.0474e-08
2.74726e-08
1.25043e-08
0.00303578
6.50443e-09
0.00148776
0.00321499
5.52388e-09
3.11362e-09
0.00160517
0.00302783
2.82672e-08
9.1357e-10
0.00169036
8.89947e-08
2.55758e-09
4.67372e-07
9.56879e-08
0.000406608
7.14231e-08
5.63566e-08
2.4715e-07
2.69959e-07
9.07733e-08
3.92946e-09
4.90689e-09
1.06309e-08
2.02937e-09
2.05397e-08
8.68449e-09
1.80776e-10
2.21479e-09
0.00200654
0.00284307
3.42377e-10
2.54392e-08
6.67035e-09
2.77868e-09
4.81695e-07
1.94733e-08
2.36862e-09
0.00270667
0.00150582
0.00144875
0.00162328
4.87829e-08
0.00136154
2.54838e-07
0.00376671
7.33846e-10
0.00227613
2.711e-08
3.65602e-08
1.55425e-07
6.12334e-10
0.00294106
1.85608e-07
0.0042365
5.92302e-09
9.45352e-10
9.0902e-09
8.96686e-09
0.00133979
0.00286834
1.39381e-10
3.33672e-09
2.43692e-08
0.00167431
3.94646e-09
0.00280324
3.40386e-07
1.91545e-09
5.76629e-09
0.00241516
3.51185e-08
0.00213604
8.2042e-08
0.00382999
0.00319962
7.76029e-08
3.66264e-09
0.003529
8.63117e-09
8.51916e-07
0.000344637
1.55117e-08
1.39715e-07
2.28415e-08
8.87719e-09
0.00300983
3.92369e-09
7.38431e-08
3.88692e-10
7.03787e-08
4.00656e-09
5.31786e-09
1.52028e-08
9.87328e-09
1.71127e-08
0.00294984
2.14185e-08
2.75237e-08
4.68053e-09
1.43067e-08
8.97966e-09
9.73132e-09
1.15799e-08
0.0021743
8.55826e-09
0.00293681
0.00189514
4.91205e-09
0.000360669
2.94673e-09
3.32556e-09
2.61157e-08
3.4764e-08
3.00436e-08
0.00152606
0.00202693
1.10248e-07
1.02009e-07
8.36836e-08
0.00305493
0.00110992
4.81588e-08
0.00216316
0.00439025
1.25168e-06
0.00258975
0.000410465
6.46695e-09
7.82712e-07
2.51818e-08
0.000563894
6.73622e-10
0.00252478
3.31388e-10
2.31108e-09
0.00063651
0.00034171
1.52724e-08
0.000460445
4.24041e-08
1.04497e-07
2.57927e-08
2.69011e-09
3.94692e-07
2.85637e-09
4.78849e-09
0.00243082
1.32381e-08
1.3867e-08
4.55019e-09
1.22002e-07
1.65035e-09
4.58846e-05
2.96362e-08
2.04092e-08
7.80861e-08
1.64137e-07
0.000297091
0.00227205
4.17846e-08
6.92123e-09
0.00236628
0.00234087
3.70134e-08
2.28685e-08
1.24391e-08
3.15164e-09
3.06106e-08
1.09285e-08
0.00200159
0.00433485
6.11227e-09
2.05255e-09
3.82498e-09
6.05432e-09
0.00246894
0.000394486
1.73564e-09
1.8103e-08
1.53248e-08
0.00211933
1.05126e-05
1.08756e-06
0.00194331
2.49458e-08
2.50185e-08
4.78237e-09
4.1156e-08
2.52735e-08
0.00220467
5.26195e-08
0.000310652
5.52141e-09
6.26027e-09
0.00320555
0.00260273
7.55865e-09
0.00306981
1.08129e-09
1.47146e-09
4.52974e-07
4.99385e-09
3.55578e-09
0.00179326
2.67002e-08
1.23899e-07
0.00385311
1.3883e-08
0.00155051
0.00300656
1.46809e-08
0.00319269
1.43763e-08
1.27844e-08
1.78872e-08
1.87068e-07
9.86651e-09
4.63604e-08
5.97018e-09
2.47528e-08
4.77513e-07
1.9591e-08
0.00232322
6.47941e-09
0.0030132
8.53173e-10
1.14761e-08
5.33054e-09
0.0023103
8.46198e-09
0.00223805
0.00192336
0.00309696
1.57097e-08
0.00209377
1.44542e-07
2.1534e-08
3.13412e-09
7.90362e-09
1.27135e-08
7.63075e-08
1.42151e-07
2.8475e-07
3.42666e-09
0.00282194
3.20657e-08
1.16701e-09
9.57347e-10
4.50249e-09
7.04193e-10
0.00200402
3.58659e-08
0.00294228
2.70118e-08
0.000624959
3.60309e-09
3.64387e-09
0.00176861
0.00346543
6.65771e-08
3.71333e-09
0.00375532
1.56917e-08
1.05823e-09
3.32584e-09
1.32295e-08
6.3686e-10
1.37384e-08
1.48489e-09
1.40706e-08
2.85713e-09
5.91904e-08
2.70137e-08
0.0024621
5.49199e-07
1.01746e-07
1.12176e-08
4.63854e-09
0.00208838
1.39765e-08
0.00298231
4.1355e-08
2.81097e-08
6.63271e-09
6.22855e-09
7.91966e-08
7.42906e-07
0.00129732
0.00121777
7.99389e-09
0.00369085
2.41211e-08
0.00276917
9.03985e-09
1.47815e-08
2.95428e-09
0.00259944
0.00127756
0.000427436
4.43853e-08
2.02835e-09
0.00128972
5.29481e-09
3.31499e-09
8.99588e-09
5.33799e-09
0.00237151
0.00202098
1.78786e-08
3.15193e-08
5.15905e-08
3.90267e-09
3.2348e-06
1.80794e-06
6.20561e-09
2.45253e-08
0.00157765
8.7379e-09
3.11646e-08
1.08852e-09
2.99961e-08
4.55424e-09
0.00226812
4.55076e-09