/*--------------------------------*- C++ -*----------------------------------*\
  =========                 |
  \\      /  F ield         | OpenFOAM: The Open Source CFD Toolbox
   \\    /   O peration     | Website:  https://openfoam.org
    \\  /    A nd           | Version:  10
     \\/     M anipulation  |
\*---------------------------------------------------------------------------*/
FoamFile
{
    format      ascii;
    class       volScalarField;
    location    "19.5";
    object      p;
}
// * * * * * * * * * * * * * * * * * * * * * * * * * * * * * * * * * * * * * //

dimensions      [0 2 -2 0 0 0 0];

internalField   nonuniform List<scalar> 
111485
(
7.87124
0.0297645
0.0203268
7.87242
0.0136452
7.61281
0.0135672
0.0216152
0.0140636
0.0029338
0.0129138
0.0109127
0.017176
0.00204824
0.0152191
0.040973
0.0280762
8.79293
0.0188437
7.87313
7.87335
7.61592
0.0113068
0.0298366
0.00848743
7.8471
0.0176205
0.0465798
0.0191117
7.87217
-0.0777513
0.0176975
7.87496
7.612
8.57574
7.57281
-0.0542706
0.0521456
-0.111194
0.0242442
7.6592
0.00286313
0.0249283
-0.0265972
-0.253888
7.88532
-0.0108023
0.0255504
-0.00228342
7.91515
7.91331
7.3641
7.92179
-0.0413511
7.92678
0.0261975
0.0189983
7.62094
-0.0905376
0.021629
0.0228225
7.87168
0.0212438
-0.067614
7.66006
0.0264491
5.10201
0.0198604
0.00754143
0.0189388
-0.135411
0.0327441
7.72532
0.00783258
7.87723
0.0322361
7.61572
-0.000958609
7.61435
8.05861
-0.107182
-0.0293178
7.61556
7.87362
0.0254199
0.0121783
1.75287
-0.0477699
-0.0991743
0.0399936
-0.206934
0.0140657
0.024587
0.0468087
0.00271198
7.87333
7.87174
-0.0311634
-0.73828
0.0729071
7.87164
0.00976274
7.60166
-0.00512806
0.0134508
7.9145
7.61916
0.0170405
0.0117261
-0.341557
0.0223227
0.0348838
0.0196586
0.0100463
7.84371
0.0333847
7.86013
7.6132
0.0133461
7.87405
7.84608
6.66432
7.61633
7.62114
0.00204984
8.95586
6.62697
0.0207506
7.87406
0.396096
-0.0979442
-0.0325859
7.87775
6.511
6.79989
0.0145737
7.61562
0.0343087
0.0103085
0.030064
-0.0341305
0.0116473
0.0209291
0.0212985
-0.0179915
0.0330302
7.61556
7.87283
7.62566
0.0199252
0.0171821
7.87101
-0.0664
0.00923588
-0.657532
0.0218448
0.0174359
0.0121629
-0.514748
7.87866
7.87271
0.0190863
0.0103875
-0.474641
-0.594994
0.0271164
-0.0591572
7.64808
-0.436679
-0.403272
7.6204
7.87235
0.0096313
7.61745
0.0294231
0.0172543
7.67013
7.70392
7.8629
7.81379
7.67501
7.87176
0.0266774
0.0220894
0.0296176
0.0700109
0.00536697
0.029315
-0.0440051
7.87239
0.017383
7.69908
7.85999
0.0372942
-0.00406123
-0.0429987
0.0336275
0.016327
7.87808
0.0255059
0.0210138
5.29512
-0.0174157
0.026878
7.86823
0.0331382
-0.00605995
7.69799
-0.048813
-0.0194515
0.0165475
0.0158198
7.66777
7.87123
0.0296156
4.96015
-0.0320955
7.61715
0.0321581
0.0359682
0.000648899
7.87032
0.0213888
-0.0581639
5.99158
7.61717
7.62053
-0.110214
-0.582828
7.72742
7.29653
0.0341715
0.0237596
-0.0800202
7.72545
7.80517
-0.065661
7.87493
0.0105293
0.0314768
0.0317793
0.0191785
0.0307473
7.62176
-0.0975409
0.0176226
7.62465
7.61567
-0.0453893
0.0339387
7.78505
0.031926
0.0310352
7.87301
6.35616
-0.0217114
7.88732
8.02316
7.18584
7.87312
0.0272843
0.0203623
-0.010464
7.87463
0.031619
7.87225
7.87043
7.8777
-0.0730651
-0.00738191
0.0276858
0.0188729
0.00462089
0.0214116
0.0189407
-0.0750804
0.0107341
0.021688
7.57443
7.87274
-0.0816853
0.0211427
-0.089248
0.0265415
7.8736
0.0284918
0.0155705
0.0217411
0.0209707
-0.10545
0.0167954
0.0202095
-0.0194416
7.6175
-0.00921017
7.61751
8.73733
8.08991
-0.118371
-0.00774486
0.0121779
7.86635
7.68147
0.028544
0.0278999
7.87074
7.86902
7.93036
0.0201869
0.0309284
0.0229967
0.0199353
0.0152759
7.22777
7.62344
7.87411
0.0308016
3.24978
-0.00320119
-0.108133
-0.0825461
7.61635
7.87092
7.87167
6.79366
0.0255504
0.0215783
7.60993
0.0283857
7.7822
7.86311
-0.028834
0.0260627
0.0062188
0.0285082
7.98685
6.75786
7.6129
0.0258107
0.019863
-0.0789559
7.65316
0.455603
-0.146067
0.0213097
0.0305307
1.27294
0.0141999
7.61407
0.00893365
0.0318739
-0.0984817
-0.0352434
0.0107494
7.61475
7.87556
7.6179
7.87566
0.0283711
0.0257502
-0.00980316
0.0188108
7.63274
0.0149476
7.62027
7.87876
0.0151789
8.13837
6.94994
7.91455
7.56821
0.0208553
7.61959
0.017284
0.0198862
7.61415
0.00777508
0.0278984
7.85538
0.0275059
0.0148897
0.0334917
-0.0450688
0.0408261
0.0306035
7.99537
7.87346
-0.0153802
7.63754
0.00843582
-0.0418961
7.66869
7.62005
0.0279996
0.0122908
3.84289e-05
0.0269512
7.61544
-0.0750939
0.00682036
7.61074
-0.0292781
-0.00798143
7.87024
7.87198
0.0248447
0.00861881
7.59812
7.86405
5.85733
7.87098
0.014372
7.61727
7.87191
0.00308357
-0.091604
-0.00434476
0.0217413
7.61396
6.81159
-0.00206499
6.90869
-0.0248325
0.0022368
0.00868247
5.27749
6.97967
-0.487479
-0.310517
7.86967
-0.0456146
0.013474
7.8684
-0.506432
0.00209705
6.94782
0.00854878
0.00983646
0.0387814
7.61524
0.268461
0.0070662
0.0492034
-0.131322
6.60417
-0.597929
7.87073
-0.0379833
-0.168704
7.62101
-0.00220871
-0.0052546
6.42221
7.87359
7.47092
7.87232
0.0154577
0.0783265
0.0141748
0.0140925
-0.0514729
7.61746
-0.0417322
7.88355
0.0265414
7.6018
7.88091
7.88804
0.00444958
7.8743
7.87117
8.34542
7.87013
7.629
-0.0143585
7.61899
7.41905
7.61475
7.85874
7.60754
7.88036
7.61629
0.00230782
7.61329
-0.017767
0.00470854
-0.0840663
7.62215
-0.0149586
7.6224
7.87097
-0.00123857
0.000604623
0.0451758
-0.11864
7.32424
-0.00909014
-0.0187903
0.0233184
-0.0117437
0.00112169
7.87347
-0.00389186
6.43348
0.00831771
7.61702
-0.0154826
6.65768
0.0240975
0.0188069
8.29065
7.68175
-0.0301985
7.87108
-0.00842934
-0.0156895
7.62779
7.63478
7.92303
7.61977
-0.972704
-0.00862742
7.61083
7.62523
0.0114892
7.61587
-0.01104
7.61493
-0.0143313
7.87126
0.0121592
0.0109031
0.0528622
0.0229511
7.59403
-0.12821
7.60898
7.6171
0.00700853
7.61815
0.00229086
7.92921
-0.0294065
7.87273
0.0264212
7.87337
6.95675
-0.10011
-0.0436437
-0.0124211
0.0111558
-0.0240607
-0.00184178
7.6247
-0.0195304
-0.0239479
7.61655
-0.0467714
-0.0588218
-0.00463689
7.68409
8.03572
0.0343888
-0.0354008
3.68061
7.71928
0.0033302
0.0228376
0.00777687
0.00496167
0.157945
2.52929
6.86307
-0.696074
3.14203
7.87258
0.0130725
7.63683
6.98775
0.0318521
2.48276
-0.716682
1.42352
6.86171
-0.00956249
0.01811
7.63017
7.44637
0.0251852
7.87878
7.61585
7.61666
7.62044
0.00294491
7.61884
7.82881
0.0092622
0.0279176
6.01499
-0.0272111
7.31083
0.0285919
7.92065
7.62267
-0.00245024
7.61625
7.62053
6.95463
0.0459569
4.64067
-0.0212037
0.0393451
7.887
-0.220804
-0.0643102
0.00744824
-0.0097662
0.259968
0.00298214
7.6195
-0.003722
0.0102727
7.8758
0.0222164
-0.0181328
0.0159305
0.0359159
0.015973
0.0149648
7.88569
0.00335933
-0.0502429
6.93239
0.016769
0.0172862
4.84
0.0405266
0.0171746
0.00819921
0.0105007
0.0191063
0.0348222
7.75986
0.0129644
0.00258417
8.22938
-0.00161346
-0.0157218
0.0381424
7.6197
0.0493458
7.89033
7.61602
7.62919
7.61852
0.0195238
7.04752
-1.04221
7.8682
7.55636
0.00790121
0.00218391
7.86994
-0.00641742
7.86946
7.87278
7.923
-0.00304568
0.0108226
6.98421
7.81962
7.6185
7.61874
-0.0598429
0.0222327
6.80237
0.00576467
-0.407068
7.62338
0.0132731
-0.0123892
0.0848882
7.61504
7.6167
0.0239874
0.0328877
6.91824
7.62099
7.60625
0.0181002
7.87578
7.86969
7.6184
0.00987933
0.0229918
7.61525
8.48016
8.21225
0.151039
7.62264
7.61448
-0.0179045
-0.0686753
6.90196
5.94753
1.1423
-0.00749489
0.00240175
7.59352
-0.0172279
0.000893296
7.61598
7.92038
7.61511
7.6175
7.62135
7.61461
0.026748
7.87056
7.61585
7.67483
0.0177756
0.0178912
7.87728
7.93371
-0.0200402
0.0268959
0.0364634
7.86898
7.61648
0.027179
7.8734
-0.00433732
0.0210256
0.0433762
7.84975
7.87172
7.87157
7.61793
0.0382245
7.61652
7.61557
-0.027825
7.87167
0.035783
0.0106647
7.63866
0.0365839
7.84069
0.0254914
-0.00282737
-0.0198439
-0.0127281
-1.27498
7.23118
0.0235154
-0.0144235
0.00095465
7.78818
-2.1078
7.14633
0.0242369
7.62065
-0.023746
-0.0089617
-0.0271121
8.07952
7.87176
7.87374
0.0306142
7.30794
-0.0248836
7.44514
0.0280239
0.034647
0.011129
0.0258757
7.61425
7.64142
7.74742
0.0285778
7.61774
7.229
-0.152538
7.61989
7.62678
7.87323
7.6156
0.0117299
7.604
7.6177
-1.56967
7.29034
7.6394
7.0665
7.61774
-0.0322036
0.0149592
7.87089
0.0191576
1.00801
-0.032007
-0.380137
0.0257181
7.62302
-0.00564664
-0.0268466
-0.0311048
7.873
-2.64187
0.0117881
6.47044
-0.00242048
-0.111175
-0.0970975
0.00592111
0.0281478
-0.133724
0.0387789
0.0290647
7.59646
7.63155
0.0123778
0.000774292
7.62192
0.0150105
0.00969119
0.0233521
7.61312
-0.114892
7.6166
0.0210121
0.0148809
7.61509
-0.0654942
0.0286602
-0.153246
-0.0214608
7.57173
0.0182163
-0.147553
-0.0712827
-0.151083
-0.0341875
7.60709
7.62709
-0.0180845
7.61558
0.0324337
-0.0726514
6.72155
-0.469316
-0.823044
-0.29993
7.61552
6.38263
0.0268036
7.87333
9.46123
-0.0418986
7.61025
7.61405
-0.722259
-0.856338
7.61567
-0.116408
7.6175
7.61616
7.87504
7.87023
7.95466
7.87246
-0.0204529
7.61929
7.62077
7.62669
-1.4407
0.0193867
0.0036292
0.0276133
7.62938
7.61394
-0.0437057
7.61697
7.61782
5.813
-0.0487855
0.0260723
7.61523
7.60996
7.62651
7.61421
7.56305
7.61316
-0.0670491
7.61955
-0.196791
0.0157014
7.61842
7.88211
7.93031
-0.118341
7.9225
7.87312
7.63403
-0.205632
7.61555
-0.0601094
-0.0642342
-0.174199
7.61283
5.28973
-0.0354227
0.0108272
7.66199
-0.193029
-0.00931049
7.88126
7.59074
6.89975
7.61072
0.0253009
0.0165484
-0.0582253
-0.342295
7.616
0.0279703
7.56923
6.82868
6.85668
7.62062
0.0224888
7.61693
7.94087
-0.0599585
0.0311553
7.93795
0.0038464
7.31473
-0.0786699
7.97994
7.61687
7.58887
7.87199
0.0270221
0.024912
0.36242
7.61695
7.66565
0.0170796
7.61585
7.07272
7.87126
0.000412408
-0.33074
0.0483391
7.86258
-0.0669025
-0.0548682
8.24319
-0.0546426
7.62337
-0.0350121
-0.0206351
0.0134586
-0.081878
-0.173061
7.61633
7.61752
7.61716
-0.0667066
7.68839
-0.103576
7.87519
0.739924
7.87174
0.0222181
0.02412
7.9426
7.61521
7.95986
7.6272
-0.105262
7.96802
6.90786
0.00657503
-0.0983763
7.91315
7.03844
7.70774
7.05934
7.61641
7.61611
-0.0969025
0.0113655
7.87246
7.8656
-0.622295
7.87771
-0.0966032
0.0249509
7.69937
-0.0288763
7.87193
0.0188624
7.62442
0.0189003
7.61491
-0.578219
-0.301177
-0.140884
-0.0343689
-0.038759
4.68827
7.54502
-0.0265142
7.91686
0.0163963
7.87046
7.64662
7.62334
7.62802
7.65206
7.62191
-0.0490614
-0.0604548
7.87219
6.65421
7.8784
-0.0478027
-0.118245
7.86844
0.028023
-0.144036
7.93077
0.0282213
0.0276654
0.0192732
-0.140617
7.61583
7.61549
7.64564
7.61598
0.0227466
7.54689
-0.0290097
7.61649
-0.0385
0.0230466
7.6198
-0.0466402
7.60818
7.61554
-0.0397284
-0.0774499
2.13826
7.61709
7.95403
7.60803
0.0244441
7.50693
7.92241
7.52479
0.866479
6.72726
-0.522658
7.02987
7.48838
7.76843
0.021041
0.0070406
0.0163069
0.0228373
7.85745
-0.02373
7.61751
7.62028
0.0185465
7.59209
-0.638534
-0.0345624
0.0335472
-0.0405766
-0.955502
0.00136117
7.61929
-1.41334
-2.96929
-0.00357815
-0.0299747
0.0225196
5.5397
7.86708
0.00498459
7.87605
7.61384
-0.237127
0.002367
-1.08766
7.60118
7.44552
-0.068886
7.93036
7.61635
-0.0459238
7.94918
7.93818
0.114318
-0.0465747
-0.0865213
0.0499901
0.0288862
7.61928
7.61592
-0.269482
0.0282355
7.61662
7.94342
0.0371755
7.62702
6.61159
6.76216
6.79878
4.36422
6.62747
7.61814
0.0245929
7.6028
-0.0723284
7.61636
3.43334
7.67436
7.6397
7.61969
7.61649
0.0322398
7.61627
7.61596
6.91891
7.61167
7.62031
7.61343
0.0266832
7.63365
0.0226487
-0.0766562
7.64206
0.0457754
7.61615
-0.0223083
-0.197677
0.0188359
0.0272931
7.8459
0.0246512
0.0280199
-0.144658
7.87442
-0.102006
0.0267578
0.0267678
7.33055
0.0184935
7.6868
7.61802
7.61842
7.61523
0.0240544
7.61735
7.60558
0.0205841
-0.129361
0.00887739
7.62921
5.4313
0.0346662
7.62227
-0.362886
7.92754
0.0143941
7.61221
7.61469
-0.00091164
7.61237
-0.0143146
7.87487
7.61594
0.0295795
-0.0330318
0.0258812
0.0228712
-0.130167
0.0205361
7.61629
8.02062
0.0173241
0.0307595
0.032527
-0.0882843
7.61576
0.0242836
7.61556
7.79854
0.00791261
-0.0625867
7.62774
0.0251944
7.60552
0.020557
0.0334626
7.71225
7.61509
7.61803
0.0164669
7.61856
7.6172
0.0198266
0.0201875
-0.0368406
0.0235572
7.63726
7.6289
0.0156426
0.0323363
7.62106
0.0147762
7.70344
0.0108052
7.61621
7.61588
-0.00372716
7.61531
-0.0183822
0.0342353
7.62172
7.61447
0.00772425
6.47435
0.0354676
7.87132
-0.0542919
7.88178
6.68
6.45752
0.0311347
6.96682
6.8905
0.0149236
6.84962
4.25797
6.33516
7.67685
7.87709
-0.172553
0.0291275
7.65699
7.61544
0.0055133
0.0170756
7.6261
0.0180502
7.61425
7.88226
0.0090514
-0.00117032
0.125963
7.61504
7.61845
7.61721
7.61568
7.60996
7.61316
7.61056
7.61053
7.61436
7.6135
7.61616
7.87842
7.61934
7.61433
7.61673
7.78783
7.61482
7.61518
7.61591
7.64416
7.81702
0.0234343
7.61776
7.61514
7.62901
0.030003
7.62136
7.8821
2.95112
7.6044
7.51196
0.0212788
8.24454
7.56787
3.4846
0.0163527
7.61705
6.75922
7.25965
7.6141
-0.0237432
0.0184406
0.0154171
0.00709333
0.0340059
7.90209
7.60902
0.0194949
0.0257414
0.00600809
7.61325
0.0247236
-0.0097235
0.0299212
0.022588
0.0237836
0.00749843
0.02796
0.019195
7.88568
0.0261807
0.0287612
0.0166959
0.0217226
7.61627
7.61559
7.61644
7.87202
7.61387
0.0272956
0.0277198
7.61935
7.61433
7.61483
7.82091
7.61668
7.87395
7.6212
7.87863
0.0323238
-0.221032
0.0283207
0.0356266
7.5909
7.63129
-0.0275966
-0.257668
7.61518
7.61631
0.0127308
7.8844
7.61627
0.0670478
0.00108123
0.0181132
0.036029
-0.0238218
7.89842
0.0145002
0.0252939
6.90958
7.87583
0.0141793
7.89523
7.62802
2.38742
1.2751
-0.0049308
7.7682
7.84899
-0.0380195
0.025621
0.0328316
0.0266134
3.39588
7.87162
-0.0122317
8.23563
7.8732
7.56078
0.0107121
7.61618
0.0282966
0.0095847
0.0149138
0.01677
7.87905
0.0381099
7.87494
7.45637
7.87304
7.86533
0.0234576
4.49153
7.61592
7.87242
8.35795
0.028999
6.85642
0.0128808
0.0221841
0.023067
0.0248255
7.82618
7.86775
6.63134
0.016911
0.0284916
-0.917986
7.91984
7.87133
6.82523
-0.0169074
-0.0206077
7.61453
-0.0316516
2.49326
0.0183956
0.0219334
7.8719
6.64421
0.0141024
0.0271314
7.61765
0.0105409
0.00923956
0.00144529
-0.00295053
0.0223686
0.0397776
6.91209
0.0329388
0.0260357
0.0319994
7.97523
0.0206803
6.99833
0.036143
0.0225612
7.8735
0.0220476
0.0185182
0.0133073
0.0275152
8.74001
2.08553
-0.0466682
4.2812
0.0203055
7.64734
0.0234623
0.0201294
7.87945
7.61618
-0.360847
-0.110249
0.0229975
8.73062
0.0111049
-0.201816
-1.16094
-0.0766509
7.88031
7.89167
0.02515
8.34511
0.026348
-0.212065
0.0196279
0.0341717
7.87199
0.00344486
0.0265763
7.87116
6.93294
0.0382707
7.88654
0.030304
0.0344651
7.8727
8.78771
0.0260245
7.87215
7.61472
7.61784
0.0305725
0.0316332
0.0168131
7.92582
0.0136788
0.03052
7.67565
0.033496
0.0214741
0.026196
-0.123802
7.61596
0.0205074
0.0547114
0.0332501
0.0217893
0.0276149
-0.152441
0.0326122
7.87107
-0.0495109
0.023918
7.87156
0.0287047
7.62371
7.61742
7.87451
7.62787
7.87373
0.00830811
7.61821
0.0288879
-0.013568
7.87516
0.0188932
7.80679
0.0189059
7.87868
-0.161161
7.65311
0.0110795
0.00907632
-0.181724
0.0439287
0.0251642
0.0210655
0.0298648
0.042101
2.78432
0.0360028
0.00811262
0.0447674
7.87254
0.0431177
-0.119596
0.0398654
0.0174243
-0.161777
7.87476
6.77152
7.87638
0.0170913
7.87132
6.16697
0.026479
8.38864
0.0140304
7.86356
7.83984
7.61595
0.0205657
0.0488582
0.0251431
-0.0389214
0.0260997
0.0253021
0.0344111
0.0119422
0.017361
0.0325192
0.0229552
7.88261
7.57107
7.8652
0.0205531
0.0310644
7.65194
7.61583
6.30699
0.0471248
0.0203607
7.87181
0.0248944
7.86928
-0.428258
0.0209145
-0.0603875
7.87279
7.87093
0.0134911
7.87157
-0.00260534
0.0320527
7.45697
0.0236502
0.0198029
0.0282441
7.87129
-0.105403
6.98386
-0.0211271
0.0138475
7.87433
7.88359
0.0290035
5.52936
7.90353
0.0373259
0.0329213
7.87186
7.85476
6.93994
0.0153256
6.28394
0.0192391
-0.0291946
0.00360652
7.87129
7.03407
-0.0305282
7.87003
7.62285
7.87342
7.87525
7.14681
7.72546
7.57201
7.87262
7.89004
7.29999
8.3973
7.64085
0.00695356
7.65045
6.75439
6.39255
8.9058
6.897
7.87142
-0.028582
7.38966
7.70988
-0.0291987
8.20799
8.57241
7.77373
-0.0379742
8.36699
-0.0269421
-0.079838
0.0167189
7.16804
7.87481
-0.0187509
-0.459505
7.83507
7.86478
0.0240669
7.08842
0.0239158
7.01321
7.59915
7.73138
0.0225962
0.0262683
7.87009
0.00924213
7.89974
7.38847
-0.181939
0.0454152
-0.0265564
7.61433
0.0253226
7.22963
-0.0191553
7.61631
7.87172
7.61499
6.98709
0.043176
0.0331456
7.87361
-0.763919
7.88122
7.8943
7.88092
7.87291
-0.0203938
-0.034626
0.034925
-0.0133358
7.83219
0.0148486
0.0163656
0.0390304
-0.0262974
7.66705
0.029527
0.00480221
-0.00148675
-0.427276
0.0256026
7.92348
-0.0102239
-0.0191013
0.0262301
-0.0185977
-0.0420844
7.90226
-0.0347918
7.77899
7.8756
0.023479
7.87893
0.0292581
7.86908
7.93863
7.55407
7.87914
7.87267
-0.0421053
7.87783
-0.00834134
7.19877
7.62098
0.0232826
0.00198262
0.0319294
-0.0121572
7.88954
0.702005
7.87371
-0.0157297
7.93982
0.0180558
-0.0248903
-0.011649
-0.000122883
7.97015
7.9771
7.87952
0.0305688
7.63191
7.86536
0.0261717
7.60723
7.61442
0.00636394
7.97
0.0119616
-0.43753
7.14881
7.49951
7.43802
0.0131707
0.0163581
7.87203
0.00750257
-0.00759616
6.99136
-0.0156998
7.86996
0.0225745
0.0260648
0.0415017
7.8742
0.0156734
0.0224342
-0.0230779
0.00171758
0.0119344
7.87346
7.87173
-0.102006
7.86761
7.61358
7.86957
0.0161992
-0.0129015
0.0209127
-0.0326406
6.8708
0.000378844
0.0195166
0.0155875
-0.0567808
0.0225038
-0.013312
0.0173491
7.61563
7.61601
7.61579
0.0367042
7.61772
-0.0285687
5.24791
0.00723781
-0.553229
0.00995754
0.0151128
7.61408
7.87236
0.00826649
0.00756654
7.88644
7.60992
7.87311
0.0129047
0.00990611
0.00589272
0.0125493
0.0304632
0.0177625
7.87284
7.8727
7.87119
0.0407039
0.00921134
0.00254873
0.0193465
0.0349072
0.00815503
7.8486
7.87142
6.34245
7.6586
0.0253898
0.0310723
7.86703
7.9057
7.86967
7.87479
7.83574
7.71661
-0.00165849
7.87412
-0.0443649
-0.112101
7.62244
0.00336421
0.0273555
0.0235813
7.91714
7.76278
-0.000663266
7.87215
-0.00256335
-1.20652
0.0208048
7.66664
5.95453
7.61534
7.87632
7.86798
7.6047
2.10795
7.88592
0.0131165
-0.00158934
7.87451
7.87201
-0.00447493
7.87837
7.61743
0.0154027
-0.196777
7.8614
7.86191
7.67101
0.0440689
7.8717
7.87143
1.16915
-0.0195886
-0.00549924
7.87174
7.62181
7.20766
-0.00998045
-0.00530517
-0.00744773
0.0106429
7.61567
0.0549103
0.0127738
-0.000175774
7.56183
7.86856
7.87125
7.82443
7.87188
0.0265886
0.0229585
0.00222124
7.8891
7.87188
7.87146
7.86896
7.68895
-0.0338161
0.108481
0.0197638
7.61887
7.8723
7.92605
-0.999344
-0.0364362
-0.0643764
7.61514
-1.94575
8.25612
7.83863
7.87075
0.0257142
0.0377193
7.87447
7.90659
0.0151867
7.87279
0.0153914
0.0312038
2.73325
7.87026
7.66492
0.0246391
-0.0551218
7.91058
2.54182
0.0546313
0.0351758
7.87346
7.87632
7.88149
7.88049
0.0273785
0.0286264
7.87666
-0.0443505
-0.00864831
0.209314
7.87223
7.8715
7.87293
7.87691
0.0129332
8.38302
7.87345
7.76777
0.0261138
-0.00409688
0.0314957
7.84522
7.87133
-0.0148596
7.62479
7.87223
7.87449
7.87366
0.0231966
7.69557
7.6005
7.6181
0.0221518
0.0294741
7.86887
7.87352
7.85522
0.0186023
8.15103
7.87781
7.85723
7.87354
7.87307
-0.194771
0.026776
7.9138
0.0243937
0.0190225
0.0229593
7.87772
7.87426
7.87353
7.83305
7.61539
0.0324032
7.87313
7.37981
7.33577
-0.0119023
7.65241
-0.0197306
7.87161
7.61922
-0.0156732
0.296252
7.03571
-0.000607322
7.87448
-0.00489741
8.12671
7.89125
7.9222
9.10552
7.87984
-0.0317799
7.87021
0.0127935
7.61899
6.93695
7.8788
7.86756
0.0172789
0.0384423
7.61558
2.64955
7.61466
-0.0697604
-0.0352009
0.0214262
7.61932
-0.344992
-0.0191109
-0.0440453
0.0258265
-0.618492
-0.0251876
7.59564
7.61552
-0.74239
0.0236421
0.00286018
7.90936
7.51776
6.37437
3.25854
7.87364
7.62046
7.874
7.87434
7.87506
8.30252
0.0392442
-0.0675608
0.0320432
6.96873
-0.0874887
7.87359
0.0133857
7.87112
7.87982
7.6171
7.71245
-0.0998123
7.69294
7.61132
7.87191
0.0196405
7.87045
7.87174
-0.0497571
7.83003
5.75186
4.92762
4.58828
7.87587
4.80799
4.64668
4.75542
5.45941
7.61531
7.61565
0.0137172
-0.00864702
6.96025
7.13881
7.61148
0.00900606
8.19031
7.71494
-0.095523
7.87455
7.87217
-0.0321216
-0.0836854
7.83739
7.61654
-0.0258453
7.03371
7.60836
-0.398735
0.0104517
0.0549449
7.81158
0.0251835
7.87398
0.0175148
-0.388824
0.0198409
7.87242
-0.381764
0.0244435
7.96696
-1.03276
7.86427
0.0231792
7.53083
0.0304242
7.80419
-0.0422996
7.87351
7.57518
7.61819
-1.46026
-1.46879
7.88501
0.0130253
0.0176658
7.91837
7.87206
-0.00243046
0.0212261
-0.1169
7.8795
0.0185965
0.0129694
-0.0418775
-0.839224
7.87521
-0.16462
7.62432
-0.14472
7.87118
-1.72733
-2.00401
7.85272
0.0242534
7.67793
-0.0387792
7.6148
7.8569
7.88531
7.88981
7.85071
7.85839
0.00271549
0.0315311
-0.148571
7.88185
6.34882
-0.136589
7.88014
7.82842
7.90529
7.86586
7.90377
0.0230794
7.87252
7.8737
7.61535
0.0161259
7.85784
7.6162
7.54104
0.0379238
7.61682
0.0099361
-0.776446
-0.0475044
0.0355503
-0.0139083
8.2203
7.87748
7.87087
0.0707537
0.0328121
7.54528
6.31169
0.0118009
7.87198
7.87484
-0.126384
7.86334
0.0194353
7.87466
-0.010938
-0.0498208
7.88084
7.61492
7.87419
7.87427
7.86976
-0.0190354
7.87088
0.0130518
7.9432
7.87484
0.0265429
7.61073
0.0111215
7.7747
7.87166
-0.00758668
0.0333461
-0.112136
7.87329
7.87367
7.87238
0.0319272
-0.0811438
7.95071
7.61505
7.6426
0.0154296
7.86586
0.0177512
-0.127609
7.87155
7.8681
0.0242105
7.86585
7.64498
7.61696
7.95897
7.61725
-0.145767
6.22053
7.64031
7.87264
6.3831
7.86776
6.60404
7.84674
7.86677
7.7314
0.0201369
7.7909
0.0132921
7.86067
7.86703
-0.0489251
0.00788748
7.86236
7.82773
7.87419
0.0286546
6.70406
7.87372
7.733
7.87037
0.0204116
7.86362
-0.173478
7.87349
-0.00525555
6.92001
-0.021136
7.88912
7.86972
0.00968419
6.54675
7.87968
0.0309334
-0.00354458
7.89182
7.87433
-0.0130204
-0.0508898
0.0224554
0.0192401
0.00930215
-0.00194794
0.0243367
-0.0330563
7.94803
-0.183252
6.26044
6.14614
7.87322
7.87103
7.87007
0.0375132
7.87403
7.8671
7.87425
-0.115633
-0.0370898
5.952
-0.0331127
7.87506
-0.0127847
7.61347
-0.0530903
0.0254132
6.334
0.00700959
7.86608
7.84589
7.61633
0.044114
-0.00690813
7.87254
7.6168
0.0338393
7.87309
-0.126687
7.91399
-0.0757607
7.87141
7.61683
7.85191
7.61567
0.0271245
7.61589
0.281391
7.61912
-0.00010175
7.87238
7.86877
4.31613
3.99152
7.89062
7.86918
7.87181
7.87234
-0.00261609
-0.13589
5.21543
7.87615
0.00511665
7.61402
7.62669
-0.424802
0.0157964
-0.0614269
7.61697
0.0275753
-0.0159599
0.0279161
0.0175258
7.872
7.87459
7.87881
7.87527
7.61678
7.6156
7.61635
7.84053
7.61729
7.61654
7.87167
7.61622
-0.101636
7.61556
7.87242
8.61746
7.87365
7.87271
2.71051
7.61545
7.87159
-0.00176778
-0.0862158
7.84848
7.8508
7.87232
0.0211918
7.65188
7.85966
-0.102906
7.61756
7.87305
7.868
7.87592
-0.0413777
7.61582
-0.167262
7.87591
7.85549
7.87119
7.87196
7.86977
-0.098322
-0.138488
0.0230794
7.87387
7.63895
7.90857
-0.116035
7.8721
-0.138195
-0.0719383
7.61442
7.84504
5.94238
-0.397245
7.85527
7.01846
-0.384246
6.02053
-0.00498641
7.64939
-0.0333385
5.98758
5.61479
7.87146
0.00412237
7.6175
-0.00912514
-0.0473804
7.8812
0.00297651
-0.276555
7.8696
-0.0621899
7.61803
7.85645
7.8653
7.85234
7.86742
7.61408
7.87194
7.87122
-0.145916
7.10849
7.87222
7.8694
7.87093
7.87501
0.0220897
4.04399
-0.125146
-0.298574
7.8713
0.0184741
0.00769626
7.87217
6.99603
7.79051
7.86213
7.89928
7.96157
6.43478
7.16708
-0.0291681
7.87394
7.8771
6.09803
6.63825
7.61559
-0.00225619
7.88033
7.62947
7.87367
-0.0730182
7.87565
7.61539
-0.0108796
7.61648
7.57808
7.76606
7.91939
-0.0108244
7.87327
7.87172
7.87166
7.84518
-0.00962917
-0.0592812
-0.0503155
0.00143673
-0.0242766
-0.0327877
7.61731
6.54526
-0.157541
-0.0265388
6.53544
-0.14416
7.86769
-1.08052
7.63744
-0.0825084
7.87426
7.62012
-0.0250888
-1.38908
7.87685
-0.0268456
7.8755
7.87548
-0.0888201
-0.0495308
7.87176
7.616
7.91712
7.61565
7.86916
6.86136
7.87304
7.87117
-0.0271727
7.87258
7.86781
7.87071
-0.0179522
7.88416
6.90301
7.61662
7.61567
7.30129
6.92341
-0.0195103
7.61946
6.93217
0.0084574
7.86557
-0.0362692
-0.0194457
7.87406
0.00368078
7.87065
7.45701
7.93413
6.78676
7.6195
7.85067
7.86459
7.87512
0.023504
7.87412
7.87253
7.87078
7.73642
7.8716
7.78703
-0.111972
7.87163
7.87649
-0.0629871
7.8727
7.61672
7.61692
0.0350338
7.87412
-0.156081
6.7055
-0.377933
0.0164853
7.61288
6.54023
0.0113043
6.26995
7.61691
-0.191175
-0.372233
-0.0026588
-0.0506392
-0.251908
-1.16245
7.64157
7.62076
0.0126082
-0.0948733
-0.077234
0.0211661
-0.390793
7.6152
0.0212317
0.00266858
0.00907159
7.62029
0.0116342
0.0236901
0.0254686
0.00805212
-0.116195
0.0193379
0.0439104
-0.000924891
0.0143514
0.028179
0.0146392
6.91662
0.09201
0.00629171
0.0026182
-0.0194164
0.0237898
0.0163121
0.0152968
7.0772
-0.107327
7.02611
0.0366572
0.014756
-0.0445628
0.00662858
7.01448
7.61417
0.0158632
0.0181757
-0.121078
-0.0571881
0.0269557
0.00337899
4.83018
0.0130054
7.87162
0.00521407
-0.105996
-0.0420194
0.0327641
-0.133765
-0.169387
0.00144118
0.00985548
0.00148332
0.0336499
0.00574218
0.123555
6.14007
5.40326
0.00594577
7.87607
7.8723
0.00503411
0.025704
0.0239621
7.87334
-0.066483
-0.0499764
0.0208828
5.58422
7.8711
-0.204051
0.00836037
-0.112786
7.87477
0.0308895
7.87153
0.010897
-0.000525971
-0.0403325
-0.0396856
7.87189
7.87357
-0.03128
0.0162937
0.0311956
7.86502
0.0108703
0.0312818
-0.0212015
7.62166
0.0288844
0.0491212
7.00626
0.0249541
-1.497
-0.0995459
7.58332
-0.0561081
-0.0967949
7.87152
0.00807362
0.0189144
1.39664
-0.00831564
0.0140248
0.0246806
0.0259123
-0.0291462
-0.0223917
-0.226511
-0.103812
0.0371111
0.0240106
-0.0103812
-0.165592
0.0240409
-0.014811
0.0618412
0.018243
-0.153721
0.0419624
7.87158
0.00271598
-0.00726901
-0.0992945
0.0403748
-0.0341019
7.64251
0.000529261
0.026882
7.86698
-0.068565
-0.00857646
0.000454479
0.00728727
0.0239467
-0.0443511
0.0170387
-0.0121279
-0.0471591
7.87119
7.87184
-0.0431187
7.62137
-0.0399045
0.00135743
7.70577
0.0238025
-0.0145945
0.0432209
7.87081
0.028367
0.014288
-0.0567212
-0.13663
0.0235847
0.0466143
0.0118187
-0.00367425
7.87179
7.85501
-0.0896622
-0.0264883
-0.0527523
0.0242543
7.85469
-0.0272544
0.0203921
7.70624
0.00381973
0.0150913
-0.0828329
-0.208436
-0.024659
-0.0337664
0.0403631
-0.00298255
7.62632
0.0085094
0.00598864
0.0049916
-0.195754
7.8559
-0.0158253
8.01273
7.87264
0.0152032
-0.00752781
0.00813638
0.131738
-0.11183
1.49506
7.61857
-0.0264767
0.0305196
0.0691569
0.0125991
7.87923
7.61915
7.60863
0.00155153
0.00647013
-0.221212
0.0275165
7.62689
7.85921
-0.00608141
0.00828802
-0.036876
0.0169584
0.0118833
0.0329605
-0.0417212
4.38042
7.61514
2.18129e-05
0.0238512
7.85869
0.000489441
0.0285389
-0.0688171
0.015252
0.0132376
-0.0356924
7.85885
0.0291954
0.00962425
7.61972
7.64333
0.029699
0.0801098
0.0176277
0.0223113
0.0217809
0.016987
0.0352648
0.0321019
0.0272607
0.0154193
7.85466
7.84712
0.00996678
0.0327797
0.0209225
-0.0932694
0.0245119
0.000459245
0.00309582
0.02702
0.0207199
7.61848
7.62682
-0.106774
7.8534
6.86323
0.0167368
0.022409
0.00438574
-0.0886954
7.16486
-0.0287912
-0.0747531
7.29586
-0.0962066
-0.203039
0.0239175
0.0261067
0.0204623
0.0308208
-0.138139
0.0222613
7.87216
7.23888
-0.073421
0.0293773
0.00840303
0.0284311
-0.102118
-0.0267471
-0.103737
7.26497
0.0290554
0.0545654
0.0176535
-0.116734
-0.0308391
-0.0888227
-0.195988
0.00662759
0.0244592
7.15648
0.00131732
0.0310173
2.79249
6.7919
6.24041
0.0412973
6.63638
0.0137702
0.0267722
0.00886571
0.0273565
-0.101357
5.04524
3.04737
8.06336
6.72915
-0.0410973
7.61554
7.61529
-1.27741
7.86977
0.0306077
0.0149661
0.0288062
0.0247678
0.0257038
0.0097582
6.27059
0.0263669
0.0265395
-0.0250217
0.018803
0.036836
0.0172827
7.61576
-0.198753
0.0320145
-0.0909514
7.61569
-0.00353621
-0.00163554
7.61557
7.86406
-0.0743754
0.0212314
7.90761
0.01709
0.0202771
-0.0774608
7.8728
7.61558
0.0212555
-0.201818
0.027031
7.61573
7.60166
7.61568
0.0040107
2.55364
2.3255
-0.0016397
-0.362255
7.88054
0.0288587
-0.339538
0.0220005
0.0245173
0.0080406
0.0218568
-0.495456
0.0293228
7.66687
0.0130854
0.0416644
0.0180657
0.023404
0.0156945
0.0367196
0.0189691
0.0114658
0.0302157
-0.0564029
-0.379279
0.0155468
-0.0790572
-0.126037
-0.450429
0.0112444
-0.364629
0.021119
0.0303756
0.0240089
0.0415697
-0.0476288
0.0368093
-0.370902
0.0245476
7.47243
0.0141349
3.81715
0.0169379
-0.0019358
7.62041
-0.0110415
7.47191
0.00028284
7.49996
7.904
0.0465938
-0.0201922
6.84895
0.0254632
0.0230535
-0.0182847
7.85997
7.87337
0.0207612
0.00284046
-0.173958
0.0188518
0.0341245
-0.0190834
-0.0578803
-0.00297509
-0.0118257
6.50998
0.0133852
7.6154
7.80922
0.0330707
0.0316928
-0.0900649
0.0324168
0.034201
-0.00418237
-0.0164661
7.78133
-0.105241
0.0245345
-0.00682546
7.79369
7.87935
0.0135014
0.00323461
6.16273
-0.0363658
0.0294172
0.0052753
-0.134441
0.0347961
0.02588
7.8634
4.57633
0.0240042
-0.0680112
7.68441
0.0420857
-0.0426994
-0.00812954
-0.11345
0.0189875
-0.143009
0.0132406
-0.0324085
4.83622
-0.0424956
7.87329
0.00430169
-0.0149749
0.0333609
0.00973549
6.57564
0.0146633
-0.0734415
-0.00864804
-0.103142
7.42332
7.61578
0.0318667
-0.0673025
0.00101672
0.00859792
-0.0365145
0.023596
-0.00167791
0.0118467
0.0423874
0.0266899
-0.0443822
7.03454
-0.12149
-0.0180716
-0.000737609
-0.0340668
7.22957
7.61498
-2.37884
-0.109867
8.15577
-0.13566
-0.0188741
7.3702
5.00199
5.457
-0.0390196
0.0261214
0.180163
5.84058
-0.0711287
0.0336459
7.61666
0.228315
6.88612
-0.00855793
0.0237091
7.64979
-0.0269599
-0.0201602
-0.0239926
0.0289163
7.61494
-0.262202
-0.0346333
-0.0714503
-0.0144425
-0.0141101
-0.0329555
-0.00427154
-0.167535
-0.0175267
0.0234964
0.0253008
7.87193
6.44851
6.55619
7.72682
-0.0256807
0.0284673
0.0335882
-0.058121
0.023188
0.0317873
-0.00184777
-0.0147761
-0.0113113
0.0258607
-0.0087667
-0.0798876
0.00792209
0.028097
7.87245
-0.0366087
-0.0552237
-0.0118065
-0.00483092
7.60986
0.0047248
0.00756931
0.0398255
0.00708603
0.0163287
7.63422
0.026877
0.0149494
6.87883
0.0274905
-0.00718793
7.72076
0.0022396
7.71217
7.61492
0.00628724
-0.0562914
-0.00159011
0.0172485
7.61801
0.0363951
-0.0333166
7.61928
0.0322019
0.015777
0.0213675
-0.00767081
7.7519
-0.0271679
-0.0220084
0.0143913
7.69741
0.0481772
0.0221915
0.00270721
0.0289166
0.0156922
7.90066
7.45573
7.06136
0.0269694
7.19468
0.0311873
0.0175581
0.0262801
7.83697
0.0229174
7.65757
7.87304
7.80997
0.0243044
-0.0124865
-0.202725
0.00777436
0.037128
7.516
6.8837
-0.0352247
-0.0396442
0.0383034
-0.159459
0.0272456
-0.394904
7.87529
5.73632
5.84986
7.61438
5.92494
0.0182621
7.87199
0.0398436
-0.00386535
0.0302164
0.0156626
0.0236154
6.31633
0.00436509