/*--------------------------------*- C++ -*----------------------------------*\
  =========                 |
  \\      /  F ield         | OpenFOAM: The Open Source CFD Toolbox
   \\    /   O peration     | Website:  https://openfoam.org
    \\  /    A nd           | Version:  10
     \\/     M anipulation  |
\*---------------------------------------------------------------------------*/
FoamFile
{
    format      ascii;
    class       volScalarField;
    location    "19.5";
    object      SgP;
}
// * * * * * * * * * * * * * * * * * * * * * * * * * * * * * * * * * * * * * //

dimensions      [1 -1 -3 -1 0 0 0];

internalField   nonuniform List<scalar> 
111485
(
1.58016e-09
0.000120898
2.81302e-05
5.79555e-11
8.54333e-06
3.19597e-08
1.51567e-05
2.489e-07
1.06367e-05
2.98177e-06
2.56097e-05
9.2358e-07
6.85105e-06
0.2951
6.73795e-06
1.60896e-05
0.208832
0.00105203
9.02004e-07
4.80148e-08
0.0372293
3.4059e-09
3.16587e-06
1.13189e-05
4.15371e-05
3.47649e-08
5.25101e-07
1.45933e-05
1.05881e-06
0.0481657
4.09881e-06
5.0441e-07
2.18054e-07
1.43639e-06
0.000745276
9.15669e-05
0.136492
0.205566
0.00245726
8.90964e-07
0.0434588
1.24736e-06
2.97388e-06
0.000107982
1.87717e-05
1.58755e-06
6.56572e-06
4.41368e-07
6.16094e-06
4.28681e-07
1.09482e-06
1.7211e-05
4.62493e-07
9.93732e-06
1.5072e-06
1.79868e-07
2.78474e-06
4.41568e-08
5.04327e-05
3.86965e-07
5.77935e-07
2.65284e-07
8.59862e-05
6.95665e-06
6.4935e-06
2.14478e-05
0.000426534
2.3838e-06
7.18515e-05
0.000142461
4.94051e-05
8.73877e-05
1.12463e-05
9.21622e-05
4.6527e-08
1.76742e-06
1.54915e-08
7.23373e-07
2.74355e-08
3.12834e-05
0.280672
0.525867
4.40307e-08
5.21979e-09
1.59442e-05
3.8076e-05
0.143486
9.12665e-06
0.000247277
4.45964e-06
1.35864e-06
6.61161e-06
4.65035e-05
4.79047e-07
2.30959e-06
6.66546e-09
0.0270754
1.18904e-05
0.00153679
0.000576019
1.46629e-09
2.59549e-06
1.9621e-06
1.44023e-05
6.12141e-06
1.64499e-05
5.91643e-09
2.79851e-07
1.51723e-05
0.000727917
4.2105e-05
1.37924e-06
1.32887e-05
7.41858e-05
1.04209e-07
1.80855e-07
3.06511e-08
6.54206e-06
2.30209e-05
4.3659e-09
9.08573e-08
0.000189883
0.075139
2.26424e-06
5.81886e-05
0.0279608
0.000106997
1.34158e-05
2.91811e-10
0.000323699
0.000137391
1.75248e-05
0.0472236
0.000175315
7.81713e-05
7.95164e-07
1.03705e-09
3.18737e-07
9.72059e-06
2.45359e-05
7.13517e-05
3.46518e-07
0.180163
9.91198e-05
4.12946e-05
2.40104e-06
1.68373e-09
8.97358e-10
4.7614e-08
5.11206e-07
3.34286e-05
0.0285599
0.115486
1.41164e-05
3.54475e-05
5.69953e-07
5.6763e-06
0.000154135
0.000820399
5.43886e-06
9.58664e-10
7.34881e-07
4.02518e-05
7.41596e-05
6.37368e-05
3.85803e-05
7.32695e-06
0.027028
0.00155799
0.000127078
1.56989e-09
1.52324e-08
0.197875
1.00205e-10
2.6694e-07
2.8206e-06
5.24999e-07
9.50381e-06
3.56206e-08
5.80495e-06
9.93386e-06
3.71914e-08
2.65425e-06
5.11002e-07
2.35249e-06
2.05917e-05
9.86523e-06
5.56074e-05
0.000386111
1.78708e-07
5.44217e-05
5.78519e-06
7.13878e-06
3.74975e-05
5.07919e-06
1.20458e-05
2.09755e-06
1.39675e-06
8.46632e-07
8.89705e-06
3.01957e-06
0.0016626
8.07459e-05
9.30029e-07
1.82971e-06
4.10625e-06
1.24948e-05
1.18435e-05
1.81956e-05
2.61361e-06
5.63733e-06
9.86559e-06
8.62363e-06
7.80481e-09
7.03914e-05
0.000311664
4.52064e-07
7.14015e-09
1.19961e-05
1.77716e-05
8.72772e-07
8.33491e-08
1.62525e-05
1.67293e-05
0.000277895
6.83131e-09
4.19306e-10
3.12822e-05
0.00417454
2.3586e-05
9.3594e-05
1.39853e-05
2.36824e-06
0.145985
3.86218e-05
2.03708e-05
0.160764
4.66622e-08
6.17324e-05
2.20581e-05
2.70286e-05
3.2976e-05
4.82465e-06
3.89252e-06
0.00194083
1.26315e-06
7.82585e-06
1.15896e-08
4.77753e-06
0.136437
1.82403e-05
1.08891e-05
2.1915e-05
7.85706e-10
0.0001931
4.605e-07
2.79292e-07
6.56145e-05
0.0996752
1.85346e-08
4.63799e-06
5.46488e-05
2.51502e-06
3.3677e-09
1.16848e-05
6.46488e-11
6.08441e-08
5.10309e-07
0.165006
4.34468e-06
3.22572e-05
1.37354e-06
0.177241
1.97102e-05
1.41507e-06
0.000254319
4.71318e-06
1.18847e-06
4.52281e-07
5.36321e-09
0.111651
4.26239e-07
4.00486e-05
2.08508e-05
1.81143e-09
0.21758
0.265711
1.56987e-06
0.000319695
3.12375e-05
3.20645e-06
8.8452e-06
1.19602e-05
2.03288e-08
7.44727e-06
2.73808e-09
0.00036074
0.000277146
1.43804e-05
1.67055e-06
0.346472
1.76728e-08
0.0858389
9.95737e-07
7.75091e-06
3.0497e-09
1.15067e-07
0.0246351
4.81613e-06
1.52257e-06
5.94414e-06
0.00017126
7.63944e-07
3.04025e-05
3.04569e-08
3.54208e-08
5.43975e-06
0.00439796
0.249987
3.35296e-06
0.000789224
1.73915e-09
8.68753e-09
1.40213e-08
8.44974e-05
5.63965e-07
5.87268e-07
2.1689e-06
8.76195e-07
7.15892e-05
0.0608329
5.50982e-06
1.24427e-07
1.89024e-06
2.29416e-06
0.0481708
4.99862e-05
7.36647e-07
7.24375e-07
7.95801e-07
1.34711e-05
6.98156e-08
0.151084
0.000173033
8.3942e-07
3.17714e-06
0.000303797
4.74783e-07
0.0390288
5.35889e-07
1.07517e-05
6.50452e-06
3.8876e-07
2.01773e-05
9.09132e-06
1.96254e-07
5.45664e-07
7.13519e-07
1.76636e-06
0.361857
2.96275e-05
1.71407e-07
0.0528659
1.65019e-05
1.73945e-08
4.08256e-07
3.77032e-07
0.0469479
0.000622844
0.0459194
0.0495508
2.81764e-07
2.48468e-08
2.80083e-06
4.01111e-06
4.26292e-10
7.74098e-06
3.04221e-06
1.58134e-05
2.64966e-05
0.000141164
5.59034e-06
0.000706753
4.7702e-07
8.15055e-06
4.32032e-05
1.16256e-06
0.000672699
3.88715e-07
1.47328e-05
2.77064e-06
0.0302943
1.17091e-07
2.10765e-07
0.15462
4.75594e-06
0.306184
6.60402e-08
4.68646e-06
3.54893e-06
7.5018e-09
5.16967e-06
4.60221e-05
3.77446e-09
0.0320555
3.19935e-06
2.84344e-06
4.58339e-07
2.62037e-08
0.000757251
3.76004e-09
1.0206e-05
3.61761e-06
4.41805e-10
1.15827e-06
3.87418e-05
0.246558
0.000135116
1.9558e-09
7.95649e-05
0.000102588
9.85278e-05
3.90553e-05
0.000631283
2.45748e-06
0.00112373
5.48583e-05
0.204646
0.000201699
4.58689e-08
7.40026e-06
1.05328e-06
2.0385e-07
0.00141842
0.000221605
8.3188e-05
1.4993e-06
1.39985e-06
9.58068e-06
3.7022e-08
0.351191
8.35971e-07
3.36157e-05
0.00438825
9.15726e-05
0.00127651
3.56886e-08
0.253302
0.332058
2.5335e-08
3.53723e-05
0.00026213
0.000103441
4.05957e-09
3.00937e-05
3.51273e-09
0.284767
7.23123e-05
2.11834e-05
0.000108038
2.11334e-05
1.75792e-07
1.75639e-06
4.99919e-07
6.94652e-05
1.54726e-07
5.98851e-07
0.0524252
9.6097e-05
4.03571e-08
1.53391e-09
0.000383187
8.46205e-08
1.59952e-06
3.63139e-06
2.73997e-08
6.16649e-05
6.70865e-08
0.0741881
6.93927e-08
1.66034e-06
3.68923e-08
0.000238741
4.29031e-07
0.223886
1.96709e-05
0.236703
1.20415e-08
6.67325e-05
2.58313e-06
2.67559e-09
0.369354
0.143041
2.62291e-05
3.03318e-06
3.0636e-05
6.58139e-07
1.20295e-05
7.89136e-07
4.596e-05
0.289531
2.59581e-08
2.40363e-06
0.000108365
1.77041e-05
0.0589458
5.65788e-06
0.000114975
2.46164e-06
1.38378e-06
0.00078026
0.0818073
1.77482e-05
2.17924e-08
1.34014e-06
3.50745e-06
3.54769e-06
1.14205e-06
1.96498e-05
1.75731e-09
0.00170158
1.5786e-07
3.48707e-07
1.78829e-07
9.53444e-05
4.64621e-09
1.00838e-05
2.85749e-08
9.25581e-06
2.09687e-09
0.116158
0.114597
1.9874e-05
1.17211e-06
0.065128
0.081291
4.78369e-08
2.87001e-07
1.50865e-05
4.62486e-08
0.000172985
1.78494e-05
1.09664e-05
0.0426698
1.67617e-06
2.41328e-09
4.68749e-05
4.51234e-05
6.29661e-05
1.65981e-06
1.57942e-05
1.03827e-05
1.20611e-06
9.72845e-07
2.11963e-05
3.33178e-05
2.57951e-09
0.126471
6.72348e-05
4.33798e-05
1.34374e-06
0.00117714
3.19465e-05
0.00046355
0.00301864
0.000385335
4.15573e-06
8.63357e-05
1.1528e-05
2.10976e-05
0.114932
0.000211147
7.42916e-05
0.00359119
0.0769833
3.16489e-08
6.5904e-05
4.58144e-06
4.06806e-05
3.64103e-07
0.000515993
0.00274968
0.000433641
0.000167145
2.66108e-05
2.35821e-06
5.37519e-08
0.000198806
3.459e-06
2.90722e-08
5.7534e-10
5.45291e-08
3.23924e-08
9.97103e-06
1.88398e-09
0.0347674
1.2771e-05
2.54467e-05
0.0988641
0.319116
6.03719e-05
3.02242e-06
0.0371666
5.50906e-08
1.87124e-05
1.59636e-07
1.98135e-08
4.77617e-05
2.36748e-05
0.121281
2.64234e-05
1.59833e-07
2.6938e-06
2.90074e-05
0.143685
7.08326e-06
2.75833e-05
7.03859e-05
0.196774
0.0414826
2.83878e-06
1.76727e-05
5.96404e-06
2.40619e-06
6.00627e-06
1.07427e-06
3.178e-05
4.20183e-06
2.17766e-06
1.14085e-06
4.39495e-06
0.000659991
3.2312e-05
4.23713e-06
5.03327e-06
0.000659592
3.95993e-07
5.17739e-07
1.80628e-05
3.06949e-06
1.65433e-05
2.99644e-06
3.27219e-06
3.43866e-06
3.27252e-05
0.000197563
1.25693e-05
1.83678e-05
3.11654e-06
4.6028e-07
4.47109e-05
4.45586e-06
4.11843e-09
0.0776419
1.63698e-08
0.136712
5.87712e-05
0.0118207
8.03577e-08
0.0294468
1.43459e-06
1.13485e-05
1.33927e-09
7.21308e-06
3.00797e-07
1.65107e-08
8.16903e-07
0.282592
0.000130425
2.94819e-05
0.0412035
1.02228e-07
2.5964e-09
3.68903e-06
1.90102e-06
8.36212e-05
5.34841e-07
0.000128294
6.46496e-08
7.34768e-06
0.000125124
0.168134
6.71628e-10
4.65902e-09
3.40162e-06
8.42958e-07
0.0001327
4.14218e-07
0.0630164
1.18574e-06
2.65932e-08
1.23071e-07
0.045521
6.51051e-06
0.000139515
6.07121e-10
0.00503906
0.00105427
0.182112
1.61568e-08
1.91738e-08
3.63185e-06
2.29651e-05
3.9626e-05
0.000586137
0.00033393
0.000259474
4.9953e-06
0.0634716
2.68135e-05
8.13405e-07
6.86397e-08
1.20095e-06
1.40775e-08
9.30678e-09
7.68711e-08
9.39436e-10
3.28919e-06
7.08816e-08
1.93621e-08
3.28122e-07
1.96351e-07
1.6554e-06
1.06717e-07
5.83302e-07
2.71048e-07
1.50166e-05
1.67885e-05
2.69427e-08
7.35486e-09
2.21938e-05
8.02862e-10
9.15344e-05
2.12347e-06
5.18313e-06
1.23785e-07
1.31709e-10
9.48111e-10
1.59251e-09
1.56344e-05
1.81725e-08
6.5963e-08
2.10228e-05
4.79797e-09
1.40367e-05
8.21234e-05
2.34939e-06
1.71811e-06
0.000528242
4.6003e-06
0.252081
0.000111077
8.30925e-06
0.209616
8.24594e-05
6.1391e-06
2.86179e-05
9.64757e-07
2.04767e-05
0.0889917
0.000706367
6.20499e-07
3.8891e-08
1.27727e-05
7.98706e-05
9.94485e-05
9.18988e-05
1.84044e-09
1.56259e-10
1.30349e-06
3.8646e-05
9.35022e-06
3.91373e-06
0.000206998
3.41315e-06
2.99444e-05
1.38455e-07
1.53374e-08
0.0335069
8.04595e-06
3.73612e-07
2.73548e-08
4.98163e-05
0.000131301
1.78247e-06
3.46388e-07
0.0407259
1.56631e-09
2.74045e-05
0.0638663
9.81109e-09
0.0725807
4.30392e-05
0.0371358
0.000609733
9.66876e-08
2.47788e-05
2.20771e-05
0.0458908
5.71433e-05
0.00131592
0.161687
0.000145357
1.14628e-05
9.97634e-07
1.41694e-06
0.486734
0.162041
4.31193e-08
0.241839
1.39285e-05
0.000162598
2.52543e-05
2.20797e-05
0.00121064
3.98052e-05
1.3981e-05
6.80974e-06
1.35374e-07
1.79107e-06
0.0457172
8.15875e-08
5.56322e-05
2.81641e-05
9.76152e-08
3.9651e-06
0.217411
4.45609e-06
2.95241e-07
0.000644219
1.57414e-08
4.03405e-06
0.212428
2.27943e-08
0.177954
0.342559
0.00134967
1.77525e-05
1.088e-06
3.77283e-06
6.30145e-05
0.000225469
0.00119979
0.000317094
4.29094e-06
0.0454361
0.00011168
8.95809e-10
0.000304428
0.000298316
0.000612932
0.000466994
0.000864557
0.000171559
1.06436e-09
6.88212e-05
1.01501e-06
4.12627e-07
0.00170202
0.349635
1.75203e-07
3.27941e-08
0.00324264
0.00330452
3.12611e-09
0.000606048
8.66362e-08
1.57372e-08
1.25228e-08
4.4981e-07
5.05958e-06
1.65644e-07
7.82395e-05
0.0519513
1.47938e-09
4.97451e-07
0.00450994
0.116056
7.49655e-05
7.86275e-07
0.0326403
1.03468e-08
0.000134003
4.0642e-09
2.30264e-09
0.000573875
0.130001
2.5502e-06
5.8352e-09
6.72842e-08
0.0357805
1.81191e-08
0.0231889
4.72492e-08
0.000104094
7.41791e-09
0.00196205
3.18135e-06
2.81191e-09
7.57289e-07
5.59692e-07
0.00140856
6.26124e-07
2.36672e-08
2.08753e-06
0.00444698
0.0542243
7.24822e-05
0.000612405
0.00107231
4.30116e-08
0.00132633
1.02853e-05
3.69639e-07
2.96152e-06
0.000216005
2.26302e-05
1.17776e-07
9.54286e-06
0.000150881
1.00502e-07
1.35748e-06
7.50839e-07
1.67193e-05
0.0733254
1.28997e-09
8.88461e-07
0.0610119
0.000121839
7.75985e-05
5.52934e-09
8.65778e-07
2.5193e-08
1.13544e-06
2.74154e-05
5.33929e-05
5.5319e-07
3.01808e-05
2.76249e-05
8.28667e-05
1.69352e-05
7.206e-09
3.82508e-06
1.67693e-09
5.05606e-07
6.69745e-05
0.000185822
3.17413e-08
5.09485e-07
4.50648e-06
1.87661e-10
4.79471e-05
4.47351e-07
7.2912e-05
0.000841218
7.54076e-05
1.46454e-08
0.00139588
0.000119189
6.32186e-05
0.000159242
4.82066e-08
0.000163996
2.57461e-06
0.117328
3.49668e-05
9.78176e-05
6.25735e-08
6.70672e-10
2.26448e-08
0.186763
0.0749579
4.46953e-05
6.79751e-10
0.000143852
2.97602e-08
0.173502
0.000160281
7.61715e-07
9.17434e-08
3.40813e-06
6.16947e-07
8.99965e-05
2.12065e-06
0.000123385
0.313108
4.17831e-06
7.22357e-05
3.3539e-05
6.98301e-05
5.15117e-05
3.223e-08
3.66085e-10
2.83108e-06
3.66379e-05
8.2383e-09
2.02088e-07
0.00061086
4.59635e-07
1.42894e-06
0.423505
1.76466e-06
6.85666e-05
4.04185e-10
3.33673e-06
2.66174e-07
0.331624
2.71822e-09
0.119306
0.00554274
0.000137551
1.72129e-05
1.57652e-05
0.000947273
2.57471e-06
4.25491e-06
2.31549e-06
1.01984e-06
6.18473e-08
1.8675e-06
8.5865e-05
2.39665e-06
0.0708391
2.76053e-07
4.36665e-06
0.000308612
2.07242e-09
0.000384767
8.61241e-08
3.97472e-05
0.00082958
6.86569e-08
2.10864e-06
7.03693e-05
5.52237e-07
9.42453e-06
0.182442
8.28405e-07
9.93609e-06
3.2212e-10
0.0467318
8.97331e-06
1.93798e-07
1.97414e-07
4.94674e-06
7.30989e-06
9.1372e-09
0.152316
1.50203e-06
2.06846e-09
0.000125338
4.05249e-07
2.75647e-09
4.5855e-05
0.00101933
0.000885688
7.84436e-09
1.11777e-06
4.63454e-08
4.88949e-05
5.0675e-05
0.034363
6.26881e-06
0.000923339
6.78175e-05
0.00117492
3.09507e-05
3.53211e-06
1.08648e-06
4.73232e-07
5.18293e-05
2.10315e-06
7.38597e-06
0.0440951
0.000252309
0.0480913
1.25587e-09
7.96422e-06
1.21516e-07
6.07992e-05
0.000102543
1.191e-05
4.91376e-05
0.000542453
0.000151426
8.72039e-10
0.0072187
0.00841014
8.72703e-05
4.73373e-05
8.23529e-07
0.00095746
1.68787e-06
2.90873e-06
1.38125e-07
5.99413e-09
0.000252962
9.84289e-06
0.00101392
6.41869e-07
0.0475673
0.000670876
7.20936e-07
1.37395e-07
0.000581947
2.91547e-06
0.0557768
0.28178
0.000132874
0.000237089
1.63382e-06
5.25566e-07
2.21696e-08
1.2584e-08
6.24607e-05
5.03747e-06
0.0350362
0.0551982
3.16077e-05
3.14915e-08
0.000323861
0.0418307
2.76683e-05
0.00115804
0.00261048
0.0442542
0.12222
0.0514781
0.000122586
1.16799e-09
0.00203999
6.67353e-07
1.62989e-07
1.94386e-07
7.37706e-09
2.87329e-05
4.07348e-09
2.16109e-09
9.20835e-05
4.9347e-08
6.68764e-09
9.55698e-07
5.58734e-07
0.0601466
6.41957e-06
3.08899e-05
0.0776521
0.263283
5.86069e-09
0.188567
0.000161776
0.391948
3.90223e-07
1.09765e-07
6.86154e-08
4.48568e-05
0.263067
1.73998e-09
0.00118586
7.37506e-08
3.96372e-06
1.63754e-05
7.72115e-06
1.10217e-06
2.41272e-07
0.0790449
1.01235e-08
7.13479e-06
1.08561e-07
9.175e-07
1.74589e-06
0.000460939
0.00012127
1.16327e-06
0.000391018
2.17727e-05
4.24067e-07
0.000142851
7.50209e-07
2.52598e-05
1.44258e-07
1.33649e-07
0.255438
0.0446322
0.000401
3.33028e-07
6.34006e-09
4.44119e-06
0.195231
2.54566e-07
1.16899e-05
5.74896e-07
2.95962e-06
2.43624e-09
0.0364077
0.000111405
7.57441e-07
6.16438e-07
1.77538e-05
7.86227e-09
0.180921
1.1003e-09
0.0406101
7.97368e-05
4.94406e-06
1.50669e-08
3.35534e-06
1.33164e-06
1.02111e-06
3.63601e-06
5.15445e-06
2.94502e-10
4.65042e-09
9.6606e-05
0.0819845
2.32357e-09
3.44317e-05
5.15939e-06
9.79737e-05
3.91989e-07
0.0492254
2.3377e-06
5.19729e-05
5.56846e-05
6.1144e-08
5.89249e-05
1.98223e-06
1.73102e-05
2.86118e-08
2.64072e-08
1.07507e-05
6.16451e-09
0.000184303
4.01677e-05
3.14735e-08
8.19383e-08
0.000135553
0.000548891
0.306644
1.18219e-07
4.98206e-06
1.84757e-06
0.0003711
0.000171758
2.73288e-05
8.33056e-05
0.0805998
3.52052e-06
5.52578e-05
0.000836056
0.0680755
7.10482e-07
5.02413e-08
0.000425904
2.93406e-06
0.0423762
1.91375e-07
7.00026e-06
3.51912e-06
1.49614e-08
0.231976
9.89019e-09
1.71254e-07
6.34101e-07
2.74561e-05
0.310558
0.0585073
4.7501e-07
2.42963e-08
1.66974e-09
1.11656e-07
1.09358e-07
6.59995e-07
1.20929e-07
6.35019e-09
6.39959e-08
1.16546e-08
1.84927e-07
0.0641645
0.0380501
2.77982e-09
1.38203e-05
8.21343e-09
7.8132e-08
1.29372e-08
0.0372975
0.0824717
5.65241e-06
3.86105e-08
1.21038e-08
8.3599e-07
1.29136e-06
4.08097e-06
1.36732e-07
0.000334387
2.69673e-07
3.12867e-06
3.57277e-06
0.000189886
5.35977e-06
0.000806426
1.78654e-06
3.15887e-08
0.000494195
0.000450622
1.80639e-08
2.31194e-05
3.9636e-06
1.37933e-05
4.37516e-05
1.04713e-05
3.75683e-06
1.12557e-07
0.332216
5.07093e-07
4.03235e-05
0.0641936
0.000120241
1.2202e-05
1.48058e-05
1.66757e-06
2.36145e-06
2.27611e-05
6.71778e-05
5.71831e-05
3.37787e-06
4.55678e-05
7.6857e-06
3.93303e-06
2.22938e-06
5.58447e-09
6.22186e-08
4.70634e-08
6.92498e-10
1.78281e-07
3.3588e-08
7.42971e-06
1.92157e-08
3.24545e-09
1.82923e-07
1.7332e-05
4.52703e-09
9.67382e-09
8.25349e-07
1.12714e-06
1.00845e-06
8.69143e-05
6.53915e-06
0.247846
1.18751e-07
1.16027e-05
1.5666e-05
4.25107e-06
4.07305e-09
1.81863e-08
0.225103
5.62524e-07
5.75813e-09
2.36875e-06
0.226256
1.72453e-06
5.91681e-05
5.89007e-05
1.10082e-06
7.68424e-06
9.27285e-06
0.000388271
1.96385e-08
4.3944e-05
4.97169e-06
1.88846e-07
0.000322835
0.000396975
0.197091
6.7955e-06
1.37818e-06
7.36429e-06
3.84719e-05
1.61526e-05
2.01005e-07
0.00261694
1.19673e-08
0.000641708
0.000416198
0.0611298
1.00782e-05
0.258982
3.11808e-08
1.26684e-07
5.142e-06
2.52283e-05
7.41526e-05
3.26877e-06
0.000117476
3.60621e-08
9.81523e-06
1.11363e-09
2.01743e-08
1.61855e-06
0.000491561
1.00727e-07
5.52765e-09
0.000420496
2.23667e-07
0.000550505
3.46398e-06
1.99954e-06
1.486e-06
4.54778e-07
2.00647e-05
4.54339e-06
0.000205764
6.42859e-07
8.26748e-06
0.00331426
1.22142e-06
7.26319e-09
0.000157725
2.39775e-06
4.07495e-05
4.88525e-09
0.144309
0.00011688
7.25148e-05
1.78179e-06
7.39298e-09
0.000196508
4.70273e-06
2.45388e-07
7.8954e-10
6.61905e-05
7.24374e-05
8.08597e-05
0.196554
2.93006e-06
6.06495e-06
0.00024699
1.00799e-05
7.22404e-06
2.70938e-06
8.46643e-05
3.61154e-06
0.000120295
0.18399
1.5086e-05
5.33376e-10
1.69538e-06
5.31223e-05
1.50568e-05
2.69769e-07
0.000462095
0.000883967
0.000484703
0.000880226
1.73468e-05
5.27668e-05
7.12988e-06
2.04647e-05
1.25707e-07
1.06545e-08
0.10223
0.000507788
2.85483e-06
0.00166423
5.17026e-06
2.46651e-05
0.000435325
4.35548e-06
2.27755e-06
3.23342e-06
4.07694e-07
4.22248e-05
3.02089e-05
0.000152469
2.86154e-05
5.60165e-07
6.41964e-09
2.80618e-05
9.78783e-07
1.97363e-08
0.000313634
3.00819e-06
8.052e-06
3.81525e-05
7.52284e-06
4.06301e-08
0.000598989
0.138871
4.78394e-08
5.49247e-09
2.11551e-08
0.144802
0.247112
4.26749e-07
0.0533613
5.40199e-06
2.038e-05
8.00458e-06
8.3916e-06
1.17562e-05
1.38098e-05
3.05039e-05
0.118043
0.340449
0.392694
1.19768e-05
3.1897e-05
6.61224e-06
7.39535e-06
0.361403
1.398e-08
0.175332
4.06117e-06
1.10387e-08
7.36052e-07
5.93541e-07
2.95443e-08
3.75077e-08
2.29216e-07
1.75637e-08
0.137186
4.79064e-08
2.90718e-05
0.000197474
2.29625e-08
4.57257e-06
7.3482e-06
6.34968e-06
6.51491e-08
0.000587735
6.42121e-06
8.5717e-07
6.89571e-05
4.26443e-06
3.1017e-05
4.61756e-06
1.20413e-06
5.27103e-07
2.0129e-05
0.00332184
4.76603e-05
8.91726e-07
1.36651e-05
8.35517e-07
2.53332e-05
0.000100767
1.19006e-05
2.22606e-06
5.45912e-06
1.15456e-06
5.80003e-05
1.359e-07
8.17202e-06
0.041236
0.000424938
0.328999
0.000773923
0.00011497
1.6413e-08
0.0615791
1.17358e-09
4.97007e-05
1.54661e-05
8.25499e-07
8.75626e-05
1.64886e-06
9.88921e-07
4.49226e-05
7.92252e-07
2.01116e-07
1.97088e-05
6.50088e-07
2.2468e-05
0.0788241
3.56229e-07
3.77931e-05
1.38691e-06
8.03301e-07
8.08181e-10
0.000261308
9.16659e-05
3.71821e-06
1.40358e-08
7.30023e-07
0.0444146
0.000211754
9.85523e-06
1.49354e-05
1.70341e-09
8.05218e-11
9.29804e-07
4.12998e-09
4.89465e-05
3.50996e-07
2.17591e-05
1.64544e-06
2.00094e-07
6.03163e-07
3.04149e-08
4.81766e-05
9.04357e-05
4.4154e-05
5.10392e-07
2.88449e-08
9.8241e-07
2.26691e-06
0.000536412
1.0012e-06
0.161934
2.17763e-05
2.88989e-08
4.13222e-08
0.000230722
1.27982e-05
0.00114359
5.22294e-07
9.88795e-05
0.234237
4.16571e-10
0.000333575
2.69908e-05
0.04255
1.75986e-06
0.0475201
0.0831148
0.000119765
7.53359e-06
2.01736e-05
1.13053e-08
1.59783e-05
2.70842e-05
0.000377583
1.91988e-05
6.79981e-06
2.61196e-05
0.000430835
0.000345474
0.000512558
0.000130421
1.67161e-08
8.97365e-05
0.000890344
6.27016e-06
3.98298e-06
0.000249054
0.00021412
1.38512e-05
1.87447e-05
0.000265648
1.5708e-05
0.000380689
0.00024959
1.94617e-05
2.48708e-08
3.48012e-05
0.000422979
0.0669012
2.13458e-06
5.31612e-07
4.92485e-05
2.00264e-07
8.52838e-05
8.37118e-07
0.000396988
6.05044e-07
7.01214e-05
2.51603e-08
9.84639e-08
1.10807e-05
0.000919934
0.00120574
0.338924
4.16062e-05
2.0387e-06
1.88714e-07
0.000411798
2.35527e-05
0.033759
0.0704534
4.86659e-10
0.000791135
6.43212e-05
6.85003e-06
5.69177e-09
0.00114637
5.70033e-07
0.0427688
4.97381e-08
4.88136e-09
3.00991e-05
1.14157e-06
1.31605e-06
3.71682e-05
0.0395662
2.03429e-05
2.27266e-07
8.34159e-05
0.219047
0.0431325
6.73082e-06
0.000284256
3.01605e-05
0.000578162
3.01267e-06
0.0374233
3.86358e-05
0.000186571
2.30401e-07
8.83041e-07
4.73529e-06
5.20051e-07
2.41597e-05
2.29162e-06
7.70173e-07
2.53465e-06
4.15432e-06
0.000101059
2.46581e-08
3.66757e-07
0.0804052
9.73432e-09
7.73373e-08
4.33073e-05
6.32515e-08
0.000182714
3.56049e-05
0.0657232
2.33172e-05
0.261039
1.28474e-05
2.15473e-05
0.0399359
0.000158452
2.49967e-10
2.17178e-06
0.0279954
1.55259e-05
7.88947e-05
1.69458e-05
1.64935e-07
7.03697e-06
7.46608e-06
8.54483e-07
0.127422
1.09406e-06
1.02734e-07
1.76372e-06
6.6474e-07
1.48862e-08
8.6927e-05
2.493e-06
0.274016
8.32265e-05
3.54572e-05
4.62467e-05
5.85081e-05
1.67945e-05
2.96229e-06
1.27037e-10
8.92275e-07
7.41134e-05
2.14886e-05
6.57469e-06
6.92642e-08
1.12589e-05
1.26801e-06
4.02417e-05
3.22081e-08
1.38281e-07
1.23672e-06
2.85899e-05
2.19461e-05
3.31191e-05
2.92314e-08
2.25844e-08
0.00166584
2.23868e-08
1.4934e-09
2.92359e-09
1.45837e-06
0.308566
9.28776e-07
0.000116055
6.91451e-05
2.09294e-05
1.6702e-07
1.23968e-06
0.000226038
7.37323e-06
3.7124e-07
3.75446e-05
3.99306e-09
2.56955e-09
4.06748e-09
9.8832e-05
1.11487e-07
0.328639
0.000526527
3.55255e-05
0.00184072
6.80546e-07
1.70832e-05
2.54097e-09
0.0593026
8.24357e-06
6.24904e-06
1.5528e-06
4.13066e-07
1.61761e-07
0.48084
1.69033e-05
0.000437805
6.60045e-05
1.38248e-06
0.122321
3.17062e-07
3.20548e-07
4.9995e-07
7.21086e-07
3.57318e-05
5.01761e-07
2.45054e-05
1.79775e-05
0.000502753
3.60256e-06
4.62286e-10
0.000190286
3.84323e-07
0.156689
3.44525e-06
2.40801e-07
1.25216e-06
1.89313e-05
0.0606662
0.0297617
1.8455e-05
4.85448e-05
0.0905898
3.53796e-06
2.54518e-05
0.0472261
1.25114e-05
5.9263e-06
0.173043
0.0186501
1.04085e-05
3.34421e-05
1.53417e-08
3.84983e-05
0.00172726
1.03683e-05
1.14792e-05
0.000379536
1.22952e-09
0.0231325
1.03087e-08
2.86767e-05
0.194188
1.21505e-07
1.22048e-05
4.60586e-06
3.7448e-07
4.09042e-08
4.82151e-05
4.17484e-07
1.12034e-07
3.14746e-05
9.74855e-06
1.38335e-08
0.0232875
0.0441142
5.01405e-06
3.0378e-10
1.91119e-09
0.000143241
1.41217e-05
5.38871e-06
3.364e-09
9.84576e-08
0.000132916
6.95897e-05
4.75289e-05
8.34063e-05
0.363111
1.31573e-09
0.140683
1.76706e-05
6.82885e-06
0.0560852
1.08612e-06
2.10983e-08
0.0228148
7.5299e-10
6.84927e-06
6.41436e-06
7.46593e-06
1.10219e-06
9.26701e-09
3.96892e-09
1.61419e-08
2.03768e-05
0.133813
0.21205
3.14271e-05
2.54242e-06
1.70074e-10
0.0557653
0.225262
0.000279741
1.03216e-06
1.37236e-07
0.000968205
0.000246214
2.40031e-07
1.32042e-08
2.16495e-06
7.98967e-06
3.6989e-08
1.10736e-05
6.99157e-05
0.0599709
0.204151
5.59576e-05
0.000857747
9.8418e-09
3.75391e-07
3.28365e-05
0.00018013
3.36751e-05
0.000430208
8.2263e-06
1.49999e-05
7.66729e-09
8.65279e-08
1.26609e-05
0.0582645
1.14288e-06
0.17755
1.97373e-08
1.2175e-05
2.37315e-06
1.66382e-05
1.08877e-08
1.29535e-09
1.10194e-07
3.52393e-08
1.22064e-06
0.000326545
1.02359e-08
0.0373224
1.78458e-05
0.159073
1.938e-06
3.00873e-06
1.65304e-06
1.98085e-06
1.32843e-05
3.03688e-08
2.4109e-08
1.32854e-08
3.31001e-06
9.62661e-06
0.0580821
0.0562243
5.22279e-06
1.00303e-06
6.05663e-09
2.40833e-09
2.52208e-08
1.72652e-06
0.000249793
2.02031e-07
3.60846e-08
3.57446e-09
0.02194
2.68523e-05
4.45044e-05
0.0403801
8.81922e-07
0.310484
9.86346e-06
4.39939e-07
4.26891e-10
2.59366e-07
0.0534649
9.53963e-10
2.36277e-05
2.24598e-08
0.000702341
4.50131e-05
8.45459e-05
0.000145673
2.92044e-05
3.99741e-09
1.54512e-08
0.35875
3.29441e-05
3.51204e-05
0.000234251
4.22514e-07
8.59334e-05
9.62893e-05
3.01031e-06
3.29907e-06
0.000303645
8.41085e-08
0.000716305
0.0391583
1.42565e-06
2.05848e-07
8.32686e-05
9.06712e-07
0.0340812
0.181896
2.17147e-05
9.26039e-10
0.00410738
3.42448e-07
2.22021e-05
1.53504e-06
0.000125188
1.12163e-08
0.000881574
8.74931e-05
0.000132285
2.1461e-05
0.000122699
3.05612e-05
5.34341e-06
7.84638e-10
0.000155655
4.74964e-05
5.8405e-05
6.6339e-07
9.65622e-06
0.000121692
0.000453837
9.44242e-09
1.89932e-08
3.49075e-08
3.52995e-10
1.2741e-07
0.0216187
0.000405331
0.000144172
4.05493e-05
0.00020606
8.31346e-05
2.77902e-10
1.16245e-05
6.66567e-09
5.39088e-07
7.61987e-09
2.64467e-05
0.00204022
1.54385e-05
1.1147e-07
1.33014e-08
1.49939e-06
1.22624e-07
6.94967e-09
0.146312
9.24762e-06
0.000675044
0.00102811
0.000731841
8.99788e-09
0.000676543
0.000753828
0.00135204
0.000731307
2.59231e-09
3.64384e-10
3.4132e-06
8.67279e-06
6.82699e-05
0.000323199
0.0423686
8.332e-06
3.28585e-05
4.47224e-06
0.000558163
3.39092e-08
1.24607e-09
0.000114411
0.000372093
0.0260986
7.08644e-09
0.117768
0.000127066
3.37249e-07
9.34695e-05
4.96905e-06
8.99008e-05
2.28216e-06
9.8569e-05
6.72484e-09
9.53653e-06
0.00217331
3.66214e-05
5.76592e-08
0.00176274
4.48046e-05
1.06336e-05
0.00322033
8.72216e-08
7.75144e-06
5.706e-05
0.00010258
8.60079e-07
0.192864
5.63747e-08
8.51758e-07
2.69723e-08
0.117901
0.120892
2.06892e-06
1.80587e-06
0.000155522
0.055078
3.32949e-08
1.09916e-05
2.12493e-05
1.33266e-05
1.28052e-06
0.195119
7.2038e-06
1.70069e-05
0.0036414
1.6068e-07
7.21423e-06
1.72579e-06
2.53299e-06
1.79034e-09
0.00240663
0.00397732
1.12083e-07
7.65876e-07
1.26611e-06
0.000101951
7.73102e-09
0.0398084
2.89703e-07
1.00059e-05
1.10004e-06
5.30921e-07
4.97706e-06
3.35247e-05
1.28974e-06
5.08058e-06
0.000246697
1.57978e-06
1.35029e-06
0.0430114
7.69445e-07
3.38129e-06
2.50376e-06
1.98647e-05
1.81469e-10
5.04041e-09
7.54026e-10
5.95973e-06
5.58084e-08
0.0675083
2.22506e-05
1.2103e-05
3.99824e-09
3.28496e-05
0.117355
7.93352e-05
1.39022e-05
6.18743e-05
1.25758e-05
2.0056e-07
7.88257e-08
2.44083e-05
4.37116e-06
2.72044e-06
0.000545162
9.71926e-06
4.6673e-08
2.98788e-08
2.31143e-06
8.07288e-08
6.98004e-06
4.12049e-08
1.21002e-05
1.62811e-05
1.91546e-07
8.34941e-10
0.0457159
7.12202e-09
2.75301e-09
2.51012e-05
0.056469
2.06347e-05
2.24392e-06
1.41156e-08
1.0063e-05
5.34898e-06
2.2319e-05
6.02128e-06
7.42117e-09
1.79131e-06
1.5769e-06
5.50724e-06
4.05217e-09
5.01391e-09
4.40478e-09
5.35029e-06
1.71227e-05
9.61874e-07
1.65658e-08
7.58055e-06
5.22179e-05
1.93861e-08
2.49215e-05
4.57162e-07
5.24772e-08
4.41838e-09
3.93417e-05
2.40076e-07
2.05617e-05
1.55605e-09
2.55338e-05
9.98881e-09
1.55044e-06
0.000350562
1.34546e-07
5.51659e-09
0.0687894
2.98416e-08
0.0565735
2.44437e-07
4.53334e-08
9.57644e-06
2.58006e-05
0.0468789
5.92142e-05
0.0499392
0.0606753
9.00744e-05
1.14312e-05
0.0403836
1.08866e-05
1.66189e-08
4.32325e-05
0.140818
0.037022
0.0422178
1.18946e-08
1.01707e-05
1.55959e-08
5.54595e-06
9.90364e-07
7.90815e-06
0.000170782
7.07097e-06
5.30295e-07
1.67301e-08
3.77417e-06
0.000294616
2.37063e-08
1.21304e-05
3.85047e-05
1.97773e-06
9.78483e-10
6.34991e-05
2.61974e-05
2.60406e-05
1.79705e-05
1.66553e-05
2.14526e-06
7.60843e-06
0.000153373
8.70302e-06
6.75908e-06
0.000125906
0.00045769
3.94804e-09
6.27855e-07
2.78994e-08
2.00794e-05
9.05967e-08
2.31383e-06
1.0241e-10
0.000397869
0.39135
0.0888437
0.000149373
4.9697e-09
1.17573e-05
0.0551611
0.102778
2.47566e-06
0.000271453
2.11723e-06
5.57061e-07
1.17615e-07
2.8605e-09
9.43493e-06
4.45814e-05
3.92348e-08
4.34437e-09
1.78023e-05
1.65763e-07
0.17612
0.0539343
1.17283e-05
5.2848e-09
1.13692e-08
0.0420939
4.74626e-09
2.57012e-05
9.39488e-09
0.000613401
2.25402e-08
4.93495e-06
5.16545e-08
6.0755e-09
0.00108121
0.154651
0.0646608
1.44859e-08
0.0690058
4.24972e-08
1.36491e-05
1.64086e-06
0.117803
2.40034e-07
0.000162164
3.84864e-09
1.96374e-06
0.000278465
1.70218e-06
0.000164659
1.03065e-08
1.16941e-05
3.28371e-05
2.08032e-05
5.34935e-06
3.66553e-07
3.32694e-07
3.38636e-06
6.10734e-07
9.91043e-09
3.40796e-09
0.075161
0.0371776
1.44171e-08
0.08427
2.94212e-10
2.11709e-08
5.26667e-05
4.97909e-09
4.80937e-09
0.0400887
1.82969e-08
7.53143e-10
0.00064868
1.98883e-09
1.28588e-09
5.06649e-05
0.0928217
1.28794e-07
0.0371474
8.48249e-09
4.64649e-06
0.0502352
6.28206e-06
0.000864278
5.77575e-10
7.2701e-08
1.04591e-06
1.79727e-07
0.209542
0.0455171
0.000109387
3.29448e-08
0.0462992
1.03369e-09
2.04515e-08
1.82157e-09
0.102923
0.00179234
9.02399e-06
1.27883e-09
1.28394e-06
0.0481658
0.000909579
3.64892e-07
0.000257177
0.108821
0.0860168
3.46096e-05
0.0851666
0.000928497
0.0426947
4.20804e-05
0.0656617
0.000344902
4.63611e-06
1.47928e-06
2.32638e-06
0.000458309
0.000930153
6.90334e-10
3.89727e-06
7.05781e-08
4.6237e-05
7.38941e-06
1.00143e-06
8.06892e-06
0.000297838
1.74736e-07
8.0855e-06
9.19773e-08
2.70628e-08
2.74304e-08
4.50508e-08
5.05705e-06
4.46862e-08
4.90872e-08
7.45478e-08
1.04729e-05
4.32213e-05
2.47431e-10
1.70432e-09
5.49346e-08
1.00125e-07
1.08489e-06
0.00129424
0.00209811
0.000130669
9.40358e-09
3.22546e-05
5.76038e-06
0.046377
3.20317e-05
1.29501e-05
5.64605e-07
1.09956e-06
2.45146e-06
0.000222814
0.000116997
0.179255
0.067211
8.23872e-08
0.000826922
0.000296145
1.3235e-08
2.7056e-06
4.61408e-06
3.77907e-08
1.73155e-06
3.94275e-06
0.0621889
1.38058e-09
8.37115e-05
1.39936e-08
0.0486662
5.12678e-05
0.0355232
3.33484e-05
4.76647e-09
6.65521e-09
2.32031e-08
2.51158e-05
2.43591e-05
4.22671e-06
7.26119e-06
9.66663e-07
0.000764315
0.000289771
9.70927e-10
0.000117031
4.832e-05
5.2726e-05
9.53595e-05
0.00296201
4.05371e-06
0.0990744
4.88445e-08
5.8992e-06
0.0383787
1.30478e-08
0.000261572
0.00718539
4.02252e-08
0.000102736
1.4015e-08
1.86064e-07
2.58087e-06
3.91824e-06
5.33267e-08
8.23969e-09
6.94814e-07
2.56042e-09
6.0857e-09
0.000126655
2.45479e-08
5.76716e-10
2.92742e-05
7.70672e-09
9.75183e-08
2.70288e-07
0.000215257
2.19696e-07
0.00016886
1.07817e-07
4.68955e-08
2.25968e-05
6.61155e-05
0.000231621
0.0431084
8.072e-05
4.29273e-05
2.30108e-06
0.319558
0.310728
1.24686e-07
2.91031e-05
1.784e-08
0.0457689
0.0380469
0.000405217
0.0901992
0.0685324
7.16643e-06
1.1045e-09
0.000115873
1.12953e-08
1.23311e-09
3.97767e-07
1.58611e-05
7.30069e-09
1.73194e-05