/*--------------------------------*- C++ -*----------------------------------*\
  =========                 |
  \\      /  F ield         | OpenFOAM: The Open Source CFD Toolbox
   \\    /   O peration     | Website:  https://openfoam.org
    \\  /    A nd           | Version:  10
     \\/     M anipulation  |
\*---------------------------------------------------------------------------*/
FoamFile
{
    format      ascii;
    class       volScalarField;
    location    "19.5";
    object      SgRate;
}
// * * * * * * * * * * * * * * * * * * * * * * * * * * * * * * * * * * * * * //

dimensions      [1 -1 -3 -1 0 0 0];

internalField   nonuniform List<scalar> 
111485
(
1.5802e-09
0.00789486
0.0242585
5.79558e-11
0.0490982
3.19597e-08
0.0464229
0.00616236
0.0190644
0.00124098
0.0468346
0.00943659
0.00481747
0.295893
0.00652572
0.0303541
0.210261
2.62335
0.0103486
4.80148e-08
0.0372293
3.4059e-09
0.0268101
0.0346195
0.00873008
3.47649e-08
0.0394655
0.00178655
0.0153514
0.0481657
0.044606
0.019527
2.18054e-07
1.43639e-06
0.00716302
9.15669e-05
0.14713
0.209788
0.0024573
0.024213
0.0434588
0.0709019
0.0158471
0.00165713
8.17001e-05
1.58755e-06
0.0295877
0.000712585
0.0475046
4.28681e-07
1.09482e-06
1.7211e-05
4.62493e-07
0.0513676
1.5072e-06
0.0437255
0.0030639
4.41568e-08
7.07153e-05
0.0047962
0.0160692
2.65284e-07
0.00488878
0.0978947
6.4935e-06
0.0031444
0.315995
0.0944135
0.00118518
0.00627176
6.78874e-05
0.00671488
1.12463e-05
0.00300199
4.65271e-08
0.000715214
1.54915e-08
0.0411861
2.74355e-08
3.12834e-05
0.280674
0.559828
4.40307e-08
5.21981e-09
0.0093693
0.00387005
0.143486
0.0253657
0.000307373
0.00744853
0.000263517
0.0403894
0.0119724
5.82107e-05
0.0521763
6.66547e-09
0.0270754
0.00182828
0.00153682
0.00170675
1.46633e-09
0.0177933
1.9621e-06
0.0180067
0.00460091
1.64499e-05
5.91643e-09
0.007586
0.00417586
0.000727973
0.00551605
0.00472935
0.00380223
0.00331438
1.04209e-07
3.4107e-05
3.06511e-08
6.54206e-06
0.012892
4.3659e-09
9.08573e-08
0.000189883
0.075139
2.26424e-06
0.00159207
0.0279638
0.000106997
0.00172393
2.91811e-10
0.000348227
0.00163792
0.0327849
0.0472236
0.000175315
7.81713e-05
0.0482985
1.03705e-09
0.0425483
0.0253943
0.00274323
0.000321802
0.00200393
0.202689
0.00273841
0.00408007
0.0130659
1.68373e-09
8.97433e-10
4.7614e-08
0.0281087
0.00157368
0.0285599
0.115486
0.00472816
3.58809e-05
0.0108293
0.0162667
0.0109222
0.000820461
5.43886e-06
9.58665e-10
0.0522199
0.0226725
7.58481e-05
6.40506e-05
0.00588777
0.00341442
0.027028
0.00156208
0.000170848
1.56989e-09
1.52324e-08
0.197999
1.00205e-10
0.00550017
0.00207335
5.24999e-07
9.50381e-06
3.56206e-08
5.80495e-06
9.93386e-06
3.71914e-08
0.00151265
0.00678068
0.0298533
0.00414708
0.0076764
0.00408694
0.000464028
1.78708e-07
0.00490521
5.78519e-06
7.13878e-06
0.00657891
0.0103927
0.0286186
0.0114057
0.00504165
8.46632e-07
0.00676781
0.000507169
0.00170399
0.0144332
0.00233204
1.82971e-06
0.00382671
0.025136
1.18435e-05
0.000178509
0.00788777
0.00201306
0.00037789
8.62363e-06
7.80482e-09
0.00839891
0.000311664
0.119421
7.14016e-09
0.00670047
0.0205719
0.11923
8.33491e-08
0.0032991
0.0138331
0.000277895
6.83131e-09
4.19306e-10
0.150693
0.00417478
2.3586e-05
9.3594e-05
0.00947053
0.00779597
0.160829
3.86218e-05
2.03708e-05
0.160777
4.66622e-08
0.00244721
0.00956888
0.0166653
0.0116826
0.00965326
3.89252e-06
0.00194108
0.000627233
7.82585e-06
1.15896e-08
0.0309345
0.156978
1.82403e-05
0.00654007
0.0107998
7.85715e-10
0.0001931
0.000114308
2.79292e-07
6.56145e-05
0.0997196
1.85346e-08
0.0148166
0.0107287
0.00367827
3.36778e-09
0.0118819
6.4649e-11
6.08441e-08
5.10309e-07
0.165006
0.0229767
0.00621343
0.00548503
0.213557
0.012387
0.00157155
0.000819965
0.0323464
0.0087666
4.52281e-07
5.36323e-09
0.111651
0.0226934
0.0245453
0.0118472
1.81143e-09
0.224597
0.267754
0.00302882
0.000321657
3.48106e-05
0.0138251
0.00219687
0.0019766
2.03288e-08
0.000655009
2.73808e-09
0.000360945
0.000277146
0.235676
0.0679139
0.358286
1.76728e-08
0.0858389
0.00899019
0.00172056
3.0497e-09
1.15067e-07
0.0246351
0.000299748
0.0569647
0.0040057
0.0135471
0.0192118
3.04025e-05
3.04569e-08
3.54208e-08
0.00378621
0.00439796
0.250844
0.184473
0.000789515
1.73915e-09
8.68753e-09
1.40213e-08
8.44974e-05
0.0600515
0.0118554
2.1689e-06
0.0052725
7.15892e-05
0.0608329
0.0670803
0.0059603
0.011443
0.00931945
0.0481708
4.99862e-05
7.36647e-07
0.00947796
0.0187502
0.00486569
6.98156e-08
0.151084
0.000329641
0.00226676
0.00805602
0.000336575
0.0284682
0.0390288
0.0375112
0.00357944
0.00775748
0.0255669
0.0132471
9.09132e-06
1.96254e-07
5.45664e-07
7.13519e-07
0.0312169
0.371628
0.0327855
0.0673094
0.0528659
0.0184029
1.73945e-08
4.08257e-07
0.016684
0.0469479
0.0807328
0.0459194
0.0495508
0.0228571
2.48468e-08
0.0135462
0.000289576
4.26293e-10
0.00098896
0.0165974
1.58134e-05
0.00895614
0.00920457
0.00817546
0.00140425
0.00268894
0.00549929
4.32032e-05
1.16256e-06
0.00266894
3.88715e-07
0.00630924
0.117526
0.0302943
1.17091e-07
0.0276201
0.15473
0.00830005
0.326692
6.60402e-08
0.0474336
0.0188436
7.5018e-09
0.000841319
0.00242548
3.77447e-09
0.0320555
0.0109312
0.0052103
4.58339e-07
2.62037e-08
0.00075729
3.76005e-09
0.0124161
3.61761e-06
4.41806e-10
0.0167769
4.0316e-05
0.258832
0.0300462
1.9558e-09
7.95649e-05
0.00162734
9.85278e-05
0.000202728
0.0151305
0.121827
0.834361
5.48583e-05
0.207403
0.000749215
4.58689e-08
0.0389453
0.0310476
2.03851e-07
0.00141842
0.000308965
8.3188e-05
0.0238182
0.0240077
0.013895
3.7022e-08
0.351853
0.0168706
0.0229006
0.00438907
9.15726e-05
0.00127651
3.56886e-08
0.253314
0.363308
2.5335e-08
0.00827111
0.000363359
0.000103441
4.05957e-09
3.00937e-05
3.51274e-09
0.288482
0.00964366
0.00635735
0.0021614
0.00263316
1.75792e-07
0.00196016
4.99919e-07
0.0411539
1.54726e-07
5.98851e-07
0.0524252
0.0373391
4.03572e-08
1.53392e-09
0.000383335
8.46205e-08
1.59952e-06
0.00107003
2.73997e-08
6.16649e-05
6.70865e-08
0.0741881
6.93927e-08
1.66034e-06
3.68923e-08
0.0071005
4.29031e-07
0.224422
0.00198168
0.237557
1.20415e-08
0.000965183
2.58313e-06
2.67559e-09
0.372096
0.144807
0.0269214
0.0249955
3.0636e-05
0.00203277
0.0822093
0.00849314
0.00105711
0.292744
2.59581e-08
0.0233108
0.000108365
0.00504273
0.0589458
0.0762123
0.000114975
0.0210835
0.000246783
0.000780751
0.0818073
0.00202497
2.17924e-08
0.0798977
0.0488107
3.54769e-06
1.14205e-06
1.96498e-05
1.75731e-09
0.00170158
0.054704
3.48707e-07
1.78829e-07
0.00252905
4.64621e-09
0.0339326
2.85749e-08
0.000324569
2.09693e-09
0.116629
0.114598
0.00100932
0.0126828
0.065128
0.081708
4.78369e-08
2.87001e-07
0.0148213
4.62486e-08
0.000201906
1.78494e-05
0.001648
0.0426698
0.0644094
2.41328e-09
4.68749e-05
0.0175938
0.00328501
0.00173985
0.0038818
0.00687918
0.0207067
9.72845e-07
0.0253851
0.00602287
2.57951e-09
0.126471
0.0411281
0.0154382
1.34374e-06
0.0048312
0.00690093
0.0022545
0.0040014
0.000385336
0.0136922
0.00131533
0.000133279
0.0230823
0.128656
0.000793178
7.42916e-05
0.0035912
0.726926
3.1649e-08
0.000413563
4.58144e-06
4.06806e-05
0.00732111
0.00319829
0.00274991
0.000451168
0.000167145
0.0160583
0.0110711
5.37519e-08
0.000198806
0.00132433
2.90722e-08
5.75343e-10
5.45291e-08
3.23924e-08
0.0127633
1.88398e-09
0.0347674
0.0085421
0.00193114
0.0988641
0.329686
6.03719e-05
0.00849672
0.0371666
5.50906e-08
0.0520366
1.59636e-07
1.98135e-08
4.77617e-05
0.00422455
0.121281
0.0282947
0.00624008
2.6938e-06
0.0896893
0.146027
0.0286552
0.0282
0.000494256
0.196849
0.0414826
0.0538783
0.0466263
5.96404e-06
0.000320255
0.0405395
0.00799878
0.00142627
0.0276279
0.0261026
1.14085e-06
0.0108882
0.000666644
3.2312e-05
0.0348072
0.000255659
0.000659592
0.0109124
0.0406546
0.00133591
0.0215025
0.0196423
0.0072092
3.27219e-06
0.0104168
0.000336236
0.000197563
0.0171585
0.0179796
0.0357618
4.6028e-07
0.00188348
4.45586e-06
4.11843e-09
0.0776419
1.63698e-08
0.136726
5.87712e-05
0.0118207
8.03577e-08
0.0294468
8.28336e-05
0.0428272
1.33927e-09
0.030733
3.00797e-07
1.65108e-08
8.16903e-07
0.321178
0.000525934
2.94819e-05
0.0412035
1.02228e-07
2.5964e-09
0.20639
0.0695749
8.36212e-05
0.00199372
0.000130146
6.46496e-08
0.0373634
0.00865945
0.179628
6.71629e-10
4.65902e-09
0.000414668
0.00106775
0.0001327
4.14218e-07
0.0630164
0.00723388
2.65932e-08
1.23071e-07
0.045521
0.0420983
0.00225158
6.07121e-10
3.85098
0.362085
0.191805
1.61568e-08
1.91738e-08
0.0551587
0.000450844
3.9626e-05
0.000591074
0.11086
0.00265731
0.011241
0.0634716
0.052294
0.00190529
6.86397e-08
1.20095e-06
1.40775e-08
9.30679e-09
7.68711e-08
9.39438e-10
0.0223688
7.08816e-08
1.93621e-08
3.28122e-07
0.0113541
0.0236341
1.06717e-07
5.83302e-07
0.105564
0.0143386
0.00990923
2.69427e-08
7.35486e-09
0.0371454
8.02864e-10
0.0017826
0.00264783
0.00396974
1.23785e-07
1.31715e-10
9.4812e-10
1.59251e-09
0.0146907
1.81725e-08
6.5963e-08
0.00106974
4.79797e-09
0.0232024
0.00199371
2.34939e-06
0.0368882
0.345145
0.00253301
0.28112
0.000251773
0.0436037
0.209616
8.24594e-05
0.023643
0.0678951
0.00599612
2.04767e-05
0.0889917
0.777338
0.00998678
3.8891e-08
0.00245131
0.00251763
0.00124013
9.18988e-05
1.84044e-09
1.56304e-10
0.0134633
3.8646e-05
0.00271234
3.91373e-06
0.00140676
0.00142687
0.0366746
0.000574221
1.53374e-08
0.0335069
8.04595e-06
0.0205133
2.73548e-08
4.98163e-05
0.000205167
1.78247e-06
3.46388e-07
0.0407259
1.56631e-09
0.0101493
0.0638663
9.81109e-09
0.0725807
4.30392e-05
0.0371358
0.000609733
9.66876e-08
2.77259e-05
0.00163127
0.0458908
0.00407762
0.00132211
0.161687
0.000203971
0.00399134
9.97634e-07
1.07212e-05
0.496817
0.162435
4.31193e-08
0.241839
0.000867974
0.000162598
0.00993049
0.000209769
0.00121225
0.0231018
0.00943047
0.00224741
0.00486079
0.00197657
0.0457172
8.15875e-08
0.0330123
0.0264394
9.76152e-08
0.00843719
0.271459
0.0283639
2.95241e-07
0.00190095
1.57414e-08
0.0101753
0.226356
2.27943e-08
0.179543
0.343006
0.00135085
0.00497021
1.088e-06
0.0485613
7.7799e-05
0.00164691
0.00122949
0.000329206
4.29094e-06
0.0454361
0.00698768
8.95809e-10
0.000427132
0.000542565
0.000913146
0.000467053
0.000864627
0.000171757
1.06436e-09
6.88212e-05
0.0226277
4.12627e-07
0.00185645
0.35161
1.75203e-07
3.27941e-08
0.0032433
0.00330452
3.12611e-09
0.000611204
8.66362e-08
1.57372e-08
1.25229e-08
4.4981e-07
5.05958e-06
1.65644e-07
0.000350504
0.0519513
1.47938e-09
4.97451e-07
0.00451646
0.116105
0.00177616
0.00916288
0.0326403
1.03468e-08
0.000291455
4.0642e-09
2.30264e-09
0.000573875
0.148447
0.0421115
5.83521e-09
6.72842e-08
0.0357805
1.81191e-08
0.0231889
4.72492e-08
0.00679599
7.41791e-09
0.0019621
0.0263727
2.81192e-09
7.57289e-07
5.59692e-07
0.00143745
6.26124e-07
2.36672e-08
2.08753e-06
0.00445665
0.0542243
0.00425625
0.000613301
0.00107232
4.30116e-08
0.00140315
0.00191537
0.0440012
2.96152e-06
0.000224477
0.00539772
1.17776e-07
9.54286e-06
0.000150881
1.00502e-07
0.00816545
0.0016187
0.00319664
0.0733256
1.28997e-09
0.023071
0.0610119
0.000121839
7.75985e-05
5.52934e-09
0.0263836
2.5193e-08
1.13544e-06
2.89914e-05
0.051895
5.5319e-07
0.00235899
2.76249e-05
0.000863858
1.69352e-05
7.206e-09
3.82508e-06
1.67694e-09
0.00247124
0.000651885
0.303434
3.17413e-08
5.09485e-07
0.00210472
1.87663e-10
4.79471e-05
4.47351e-07
0.0360662
0.00085103
0.0320129
1.46454e-08
0.00140703
0.000170207
6.32186e-05
0.000291432
4.82066e-08
0.00135276
0.0246409
0.137521
0.00117989
0.000320958
6.25735e-08
6.70673e-10
2.26448e-08
0.186786
0.0749579
0.00763996
6.79764e-10
0.174193
2.97602e-08
0.214594
0.00312154
7.61715e-07
9.17434e-08
3.40813e-06
6.16947e-07
0.0418325
2.12065e-06
0.000123385
0.324768
0.00684602
7.22357e-05
3.3539e-05
6.98301e-05
5.15117e-05
3.223e-08
3.66085e-10
0.0258793
0.00043247
8.2383e-09
2.02088e-07
0.000611412
4.59635e-07
0.00154179
0.423609
1.76466e-06
0.00360304
4.0419e-10
0.000389092
2.66174e-07
0.332731
2.71822e-09
0.119306
0.00554489
0.0007496
0.0183793
0.0344486
0.00094843
2.57471e-06
0.00055956
2.31549e-06
0.00464103
6.18473e-08
1.8675e-06
8.5865e-05
2.39665e-06
0.0708391
2.76053e-07
0.00728439
0.00852091
2.07242e-09
0.000384767
8.61241e-08
0.00083929
0.000842015
6.86569e-08
0.0180128
0.000239971
5.52237e-07
0.0234185
0.19054
0.00370312
0.0110975
3.22123e-10
0.0467318
8.97331e-06
1.93798e-07
0.036955
4.94674e-06
0.114385
9.1372e-09
0.152639
0.000729295
2.06846e-09
0.00111013
4.05249e-07
2.75647e-09
0.00314499
0.00101935
0.0104633
7.84436e-09
1.11777e-06
4.63454e-08
0.000890517
5.0675e-05
0.034363
6.26881e-06
0.000923608
6.78175e-05
0.00118131
3.09507e-05
3.53211e-06
1.08648e-06
0.0183253
0.00979495
0.0182346
0.0359021
0.0440951
0.000268564
0.0480913
1.25587e-09
0.00956531
1.21516e-07
6.29383e-05
0.000464041
0.00672141
0.000426845
0.000542454
0.00201253
8.7204e-10
0.0072187
0.00841014
0.00021658
0.000809427
0.015219
0.000957524
1.68787e-06
0.0301242
1.38125e-07
5.99413e-09
0.000265257
0.0747403
0.00101398
6.41869e-07
0.0475673
0.000671183
7.20936e-07
1.37395e-07
0.000600455
2.91547e-06
0.0557768
0.321448
0.000370017
0.000423327
0.0223095
0.00721239
2.21696e-08
1.2584e-08
8.71736e-05
0.00404795
0.0350362
0.0551982
0.00963769
3.14915e-08
0.000323861
0.0418307
2.76683e-05
0.00115804
2.56936
0.0442542
0.122437
0.0514781
0.0217203
1.16799e-09
0.00203999
6.67353e-07
1.62989e-07
1.94386e-07
7.37706e-09
0.00283702
4.07348e-09
2.16109e-09
9.20835e-05
4.9347e-08
6.68764e-09
9.55698e-07
0.0096875
0.0601466
0.0109037
0.00318019
0.0776521
0.264797
5.8607e-09
0.189082
0.000163847
0.395784
0.0129567
1.09765e-07
9.29939e-05
0.00758789
0.263077
1.73998e-09
0.00118899
0.0191687
0.0046726
1.63754e-05
0.0257824
1.10217e-06
2.41272e-07
0.0790449
1.01235e-08
0.00808777
1.08561e-07
9.175e-07
0.00830056
0.000461334
0.00276477
1.16327e-06
0.000391018
0.00066662
4.24067e-07
0.000204165
7.50209e-07
0.023397
1.44258e-07
1.33649e-07
0.255491
0.0446322
0.000540274
3.33028e-07
6.34006e-09
0.00470456
0.195676
0.00468405
0.0151324
0.217898
0.0202531
2.43624e-09
0.0364077
0.00313031
0.00672314
0.0368447
0.0103782
7.86227e-09
0.193405
1.10031e-09
0.0406101
0.00930975
0.0111291
1.50669e-08
0.013276
1.33164e-06
0.00273142
0.00900427
5.15445e-06
2.94502e-10
4.65042e-09
0.00295196
0.0819845
2.32357e-09
0.00425717
0.0215423
0.000101583
0.0073542
0.0492254
2.3377e-06
0.000140812
0.000842124
6.1144e-08
0.0102988
1.98223e-06
0.00257414
2.86118e-08
2.64072e-08
0.0122635
6.16451e-09
0.000220456
0.00371021
3.14735e-08
8.19383e-08
0.0045837
0.000548891
0.358651
1.18219e-07
0.250214
1.84757e-06
0.0003711
0.000171758
0.00755447
8.33056e-05
0.0805998
0.0055841
5.52578e-05
0.00108991
0.0680755
7.10482e-07
5.02413e-08
0.000426
0.000785907
0.0423762
1.91375e-07
0.0347932
0.000947723
1.49614e-08
0.232381
9.8902e-09
1.71254e-07
2.35895e-06
0.00290751
0.311866
0.0585073
4.7501e-07
2.42963e-08
1.66974e-09
1.11656e-07
1.09358e-07
6.59995e-07
1.20929e-07
6.35019e-09
6.39959e-08
1.16546e-08
1.84927e-07
0.0641645
0.0380501
2.77982e-09
1.38203e-05
8.21343e-09
7.8132e-08
1.29372e-08
0.0372975
0.0824717
0.0170641
3.86105e-08
1.21038e-08
8.3599e-07
0.00660916
4.08097e-06
1.36732e-07
0.295917
2.69673e-07
3.12867e-06
0.0228644
0.000189886
5.35977e-06
0.00873878
0.0243782
3.15887e-08
0.00337027
0.00471143
1.80639e-08
0.0134191
0.0391137
0.0177166
0.0034118
0.0106579
3.75683e-06
1.12557e-07
0.335213
0.0105219
0.00325628
0.0641936
0.00689005
0.00179526
0.0213928
0.00999341
0.000698513
0.0155861
0.00106705
0.0103112
3.37787e-06
0.0242223
0.00843095
0.0016312
0.00142113
5.58448e-09
6.22186e-08
4.70634e-08
6.925e-10
1.78281e-07
0.00915988
0.0135036
1.92157e-08
3.24545e-09
1.82923e-07
1.7332e-05
4.52703e-09
9.67382e-09
8.25349e-07
1.12714e-06
0.00465136
0.000291538
0.0216788
0.247918
1.18751e-07
1.16027e-05
0.0299828
1.16923e-05
4.07305e-09
1.81863e-08
0.232182
5.62524e-07
5.75813e-09
4.77048e-06
0.233985
0.0135224
0.0333953
0.0343611
1.10082e-06
0.0139162
0.000352489
0.000388271
1.96385e-08
0.0118827
4.97169e-06
1.88846e-07
0.0159415
1.03815
0.197261
6.7955e-06
1.37818e-06
0.0172117
0.0197219
0.0177863
0.00553696
0.0069571
1.19673e-08
0.000642747
0.0004162
0.0611298
1.00782e-05
0.275759
3.11808e-08
0.00197162
0.0246803
0.017454
0.0111293
3.26877e-06
0.00606391
3.60621e-08
9.81523e-06
1.11365e-09
2.01743e-08
0.0024544
0.880787
1.00727e-07
5.52765e-09
0.000424977
0.0229334
0.00174748
0.00681666
0.0321898
0.00468046
0.0202135
2.00647e-05
4.54339e-06
0.000205764
0.029062
0.0055498
0.00331429
1.22142e-06
7.26319e-09
0.000157725
0.0217247
0.00264192
4.88525e-09
0.149119
0.0573166
0.00630619
0.00608116
7.39299e-09
0.000196508
0.00676399
0.0222832
7.89542e-10
0.00041284
0.0147169
0.00103842
0.205612
0.00460806
0.00776205
0.00024699
0.00321836
0.0204619
0.0350956
8.46647e-05
0.0220076
0.000120295
0.199941
0.000165963
5.33387e-10
0.00247638
0.00746407
0.000421412
0.0112952
0.000462342
0.00100609
0.000498598
0.0421222
0.00361071
5.27668e-05
0.0371242
0.00128346
1.25707e-07
1.06545e-08
0.10223
0.000521162
0.00103138
1.06155
0.0343919
0.0119231
0.000435515
0.0441098
2.27755e-06
3.23342e-06
0.00380056
4.22248e-05
0.00198728
0.00397577
0.00216264
0.00450853
6.41964e-09
0.000215005
0.104203
1.97363e-08
0.0144753
0.0073429
8.052e-06
0.00390955
0.000136577
4.06301e-08
0.000598995
0.138954
4.78394e-08
5.49248e-09
2.11551e-08
0.148943
0.251865
0.0135833
0.0533613
0.00457793
0.0317417
8.00458e-06
0.00776937
0.0120218
0.0230346
0.00149512
0.118043
0.34095
0.401522
0.0100981
0.00879167
0.0355525
0.155879
0.364536
1.398e-08
0.17534
0.0478038
1.10387e-08
0.000405766
5.93541e-07
2.95443e-08
3.75077e-08
2.29216e-07
1.75637e-08
0.140306
4.79064e-08
0.00692067
0.00128991
2.29625e-08
0.00363761
7.3482e-06
0.0133311
6.51491e-08
0.00061321
6.42121e-06
0.0207316
0.000220926
6.63307e-06
0.00411507
0.0272054
0.0158442
0.00375387
0.0260688
0.00332184
0.0222434
0.0519893
0.00939025
8.35517e-07
0.00106039
0.000336017
0.00540618
0.00976317
0.000592265
1.15456e-06
5.80003e-05
1.359e-07
0.0033522
0.041236
0.000760191
0.329205
0.00246511
0.000360835
1.6413e-08
0.0615791
1.17358e-09
0.00839928
0.0202594
0.00113575
9.66068e-05
0.00177508
0.00659733
0.00177658
0.000798123
0.00633324
0.00593769
0.00257475
2.2468e-05
0.0788241
3.56229e-07
0.0123347
0.0103623
8.03301e-07
8.08185e-10
0.000261308
0.00816838
0.0173918
1.40358e-08
0.00213822
0.0444146
0.000212354
0.00440434
0.0857609
1.70342e-09
8.05234e-11
0.0034847
4.12999e-09
0.000104689
0.0114585
2.17591e-05
0.0103424
0.0310416
0.0181256
3.04149e-08
0.00149678
9.04357e-05
0.000132509
0.0460701
2.88449e-08
9.8241e-07
0.0101512
0.000536412
1.0012e-06
0.161975
0.000923785
2.88989e-08
4.13222e-08
0.000230722
8.33249e-05
0.00233238
0.00299661
0.0244674
0.242397
4.16579e-10
0.000334257
0.000707571
0.04255
1.75986e-06
0.0475201
0.0831148
0.000119765
7.53359e-06
2.01736e-05
1.13053e-08
1.59783e-05
2.70842e-05
0.000377586
1.91988e-05
0.000320298
2.61196e-05
0.000675163
0.000345474
0.000599512
0.000130421
1.67161e-08
0.0271891
0.00943453
6.27016e-06
0.0818365
0.000249064
0.000214121
1.38512e-05
0.00115489
0.000265648
0.00262093
0.000386643
0.00104598
1.94617e-05
2.48708e-08
0.00118306
0.000423
0.0669012
2.13458e-06
0.0365482
4.92485e-05
0.0350619
8.52838e-05
8.37118e-07
0.000398701
0.0263417
0.00745848
2.51603e-08
0.000299514
1.10807e-05
0.00423586
0.00122405
0.340584
4.62641e-05
2.0387e-06
0.0191637
0.00155652
0.00493974
0.033759
0.0704534
4.86659e-10
0.0201193
0.00367206
0.0496734
5.69178e-09
0.00114683
5.70033e-07
0.0427688
4.97381e-08
4.88136e-09
0.00320842
0.00210363
0.00290208
0.298177
0.0395662
0.0251947
0.0338288
0.0160639
0.220692
0.0431325
0.00489799
0.00466949
0.0046532
0.000578447
0.00949693
0.0374233
0.00144343
0.00141288
0.0307736
1.9265e-06
0.0032703
5.20051e-07
0.017372
2.29162e-06
7.70173e-07
0.00157082
4.15432e-06
0.00573711
2.46581e-08
3.66757e-07
0.0804052
9.73432e-09
7.73374e-08
0.000835631
6.32515e-08
0.000689159
3.56049e-05
0.0657232
0.0165401
0.266056
0.00749049
0.00690899
0.0399359
0.549668
2.49972e-10
0.0643526
0.0279954
0.0163535
0.0229069
0.0022643
0.0526631
7.03697e-06
7.46608e-06
8.54483e-07
0.129457
1.09406e-06
1.02734e-07
0.0166345
6.6474e-07
1.48862e-08
0.00526994
2.493e-06
0.285663
8.32907e-05
3.54572e-05
4.62467e-05
5.85081e-05
0.00144379
0.00637964
1.27041e-10
0.021764
0.00040946
2.14886e-05
0.0949719
6.92642e-08
0.0146312
0.0169616
0.00357375
3.22081e-08
0.0169814
0.00956549
0.000877327
0.00514418
0.0116454
2.92314e-08
2.25844e-08
0.00166759
2.23868e-08
1.4934e-09
2.9236e-09
0.0185586
0.354967
0.00428126
0.00219748
6.91451e-05
0.0475115
0.0431514
0.00399589
0.00238207
0.00885621
0.0196545
0.00264908
3.99306e-09
2.56956e-09
4.06748e-09
0.00694786
1.11487e-07
0.352062
0.000526527
0.000763749
0.00184128
0.00248953
0.0207063
2.54098e-09
0.0593026
0.00243825
0.000371639
1.5528e-06
4.13066e-07
1.61761e-07
0.480876
0.000310029
0.000581056
0.000866754
0.00967272
0.204226
3.17062e-07
3.20548e-07
4.9995e-07
0.00363475
0.0165894
0.0189856
0.0331457
0.00167399
0.0034087
3.60256e-06
4.623e-10
0.000190286
3.84323e-07
0.165464
0.0212577
2.40801e-07
1.25216e-06
1.89313e-05
0.0606662
0.0297617
1.8455e-05
0.0132736
0.0905898
0.000908278
0.402588
0.0472261
2.54518e-05
0.0216881
0.173757
0.0186501
1.04085e-05
0.00491014
1.53417e-08
0.013874
0.00172817
0.0233705
1.14792e-05
0.000379536
1.22953e-09
0.0231325
1.03087e-08
2.86767e-05
0.383986
1.21505e-07
0.00584985
0.00119688
3.7448e-07
4.09042e-08
0.00201193
4.17484e-07
1.12034e-07
0.0121102
0.000147973
1.38335e-08
0.0232875
0.0441142
0.0162609
3.03783e-10
1.9112e-09
0.000588983
0.00261336
0.00307594
3.364e-09
9.84576e-08
0.000132916
0.00380328
0.0018827
0.0126022
0.366728
1.31573e-09
0.141438
0.0111223
0.0062264
0.0560852
1.08612e-06
2.10983e-08
0.0228148
7.52994e-10
0.029662
0.00492885
0.00569915
1.10219e-06
9.26701e-09
3.96892e-09
1.61419e-08
2.03768e-05
0.133814
0.212259
0.00213452
2.54242e-06
1.70074e-10
0.0557653
0.225262
0.0339841
0.1114
1.37236e-07
0.000968206
0.000246214
2.40031e-07
1.32042e-08
0.00365951
0.006199
3.6989e-08
1.10736e-05
0.00283082
0.0599709
0.20482
0.00106301
2.01158
9.8418e-09
3.75391e-07
0.0113717
0.000707069
3.36751e-05
0.641196
0.000588653
0.00602559
7.66729e-09
8.65279e-08
1.26609e-05
0.0582645
0.00816452
0.177638
1.97373e-08
0.0243016
0.0184478
0.826336
1.08877e-08
1.29535e-09
1.10194e-07
3.52393e-08
0.00653973
0.000326624
1.02359e-08
0.0373224
0.0179794
0.159861
0.00460423
3.00873e-06
1.65304e-06
0.0276525
1.32843e-05
3.03688e-08
2.4109e-08
1.32854e-08
0.0204788
9.62661e-06
0.0580821
0.0562243
0.0247881
0.0114958
6.05664e-09
2.40833e-09
2.52208e-08
0.0146849
0.000249986
2.02031e-07
3.60846e-08
3.57446e-09
0.02194
0.00234172
0.0108417
0.0403801
0.00191972
0.311558
0.00472296
4.3994e-07
4.26955e-10
2.59366e-07
0.0534649
9.53964e-10
0.0183292
2.24598e-08
0.0144651
4.50131e-05
0.0015912
0.000145673
0.00240732
3.99741e-09
1.54512e-08
0.368581
0.154153
3.51204e-05
0.00376936
4.22514e-07
0.000461951
9.62893e-05
3.01031e-06
3.29907e-06
0.000303697
8.41085e-08
0.00100849
0.0391583
0.0337911
2.05848e-07
8.32686e-05
9.06712e-07
0.0340812
0.181903
0.000152554
9.2604e-10
0.00959266
3.42448e-07
0.00266013
0.0174391
0.00139103
1.12163e-08
0.000886273
0.000528343
0.000134452
0.00410285
0.000123003
0.00168471
5.34341e-06
7.84638e-10
0.000156077
0.00555266
0.000296792
6.6339e-07
9.65622e-06
0.000121692
0.559723
9.44243e-09
1.89932e-08
3.49075e-08
3.52996e-10
1.2741e-07
0.0216459
0.000585084
0.0011185
0.000106939
0.00020606
0.00149265
2.77905e-10
0.00522283
6.66567e-09
5.39088e-07
7.61987e-09
2.64467e-05
0.00205424
1.54385e-05
1.1147e-07
1.33014e-08
0.0137213
1.22624e-07
6.94968e-09
0.156303
9.24762e-06
0.0757938
0.122121
0.543363
8.99789e-09
0.193127
1.08172
1.06568
0.610102
2.59231e-09
3.64385e-10
0.00457964
0.00431624
6.82699e-05
0.0101612
0.0423686
0.0301308
3.28585e-05
4.47224e-06
0.0012527
3.39092e-08
1.24607e-09
0.000124652
0.000410685
0.0260986
7.08644e-09
0.117771
0.000127066
3.37249e-07
0.000111289
0.00779355
0.00155238
2.28216e-06
0.00759232
6.72486e-09
0.00326853
0.00217372
0.00703721
5.76592e-08
0.00176275
0.00546486
1.06336e-05
0.00322033
8.72216e-08
0.029979
5.706e-05
0.0089838
8.60079e-07
0.192864
5.63747e-08
8.51758e-07
2.69723e-08
0.117901
0.120892
2.06892e-06
0.0111854
0.00880717
0.055078
3.32949e-08
0.0301831
0.0159323
0.170929
1.28052e-06
0.195185
0.0232622
0.0426733
0.00364145
1.6068e-07
0.0528548
1.72579e-06
0.211948
1.79034e-09
0.00240668
0.00397736
1.12083e-07
5.57851e-05
1.26611e-06
0.0193209
7.73102e-09
0.0398084
2.89703e-07
1.00059e-05
1.10004e-06
5.30921e-07
0.000259878
0.00187981
0.124898
5.08058e-06
0.000246697
0.0380788
1.35029e-06
0.0430114
7.69445e-07
3.38129e-06
2.50376e-06
0.00549896
1.81475e-10
5.04042e-09
7.54027e-10
0.0030462
5.58084e-08
0.0675083
2.22506e-05
0.00305647
3.99825e-09
0.00567779
0.334905
0.00513982
0.00520887
0.024704
1.25758e-05
2.0056e-07
7.88257e-08
0.00296335
0.00161073
2.72044e-06
0.000545162
0.000571025
4.6673e-08
2.98788e-08
0.310262
8.07288e-08
0.0199697
4.12049e-08
0.00218504
0.00298092
1.91546e-07
8.34943e-10
0.0457159
7.12202e-09
2.75301e-09
0.0166188
0.056469
0.00435386
2.24392e-06
1.41156e-08
0.00640825
5.34898e-06
0.0115665
6.02128e-06
7.42119e-09
0.00215497
6.73986e-05
0.129412
4.05218e-09
5.01391e-09
4.4048e-09
0.00312034
0.163428
9.61874e-07
1.65658e-08
7.58055e-06
0.00143319
1.93861e-08
0.0177283
0.0285145
5.24772e-08
4.41838e-09
0.00668907
2.40076e-07
2.05617e-05
1.55605e-09
2.55338e-05
9.98882e-09
0.063088
0.000350562
1.34546e-07
5.51661e-09
0.0687894
2.98416e-08
0.0565735
2.44437e-07
4.53334e-08
9.57644e-06
0.00691351
0.0468789
0.00796826
0.0499392
0.0606753
0.531853
0.00252997
0.0403836
1.08866e-05
1.66189e-08
0.00227062
0.140818
0.037022
0.0422178
1.18946e-08
0.00681091
1.55959e-08
0.00433182
9.90364e-07
0.00874436
0.000170782
0.0519474
5.30295e-07
1.67301e-08
0.0198721
0.000294616
2.37063e-08
0.0244239
0.000287524
1.97773e-06
9.78484e-10
0.0328003
0.00912478
0.00596659
0.000789725
0.00168678
0.0159269
0.000948817
0.00448575
8.70302e-06
0.02655
0.000125906
0.00045769
3.94804e-09
6.27855e-07
2.78994e-08
0.00960657
9.05967e-08
2.31383e-06
1.02424e-10
0.000402
0.391357
0.0888437
0.00223917
4.96971e-09
0.00394718
0.0551611
0.102779
0.00288683
0.000271453
0.0414163
5.57061e-07
1.17615e-07
2.8605e-09
0.0027266
0.00118904
3.92348e-08
4.34437e-09
0.00229523
1.65763e-07
0.785116
0.0539343
0.0929314
5.28481e-09
1.13692e-08
0.0420939
4.74626e-09
0.00914659
9.39488e-09
0.000647434
2.25402e-08
0.00893386
5.16545e-08
6.0755e-09
0.00108121
0.154651
0.0646608
1.44859e-08
0.0690058
4.24972e-08
0.00384335
0.17181
0.117803
2.40034e-07
0.000490183
3.84864e-09
1.96374e-06
0.000279492
0.0156491
0.000301468
1.03065e-08
0.000634315
0.00302205
0.00490413
0.00756652
3.66553e-07
3.32694e-07
3.38636e-06
6.10735e-07
9.91043e-09
3.40796e-09
0.075161
0.0371776
1.44171e-08
0.08427
2.94217e-10
2.11709e-08
0.0685642
4.97909e-09
4.80938e-09
0.0400887
1.82969e-08
7.53144e-10
1.0106
1.98883e-09
1.28589e-09
0.00192497
0.0928217
1.28794e-07
0.0371474
8.48249e-09
0.0209769
0.0502352
6.28206e-06
0.000864327
5.77575e-10
7.2701e-08
1.04591e-06
1.79727e-07
0.319289
0.0455171
0.000259064
3.29448e-08
0.0462992
1.03369e-09
2.04515e-08
1.82157e-09
0.102923
0.00179237
0.000111117
1.27883e-09
1.28394e-06
0.0481658
0.000909665
3.64892e-07
0.000257455
0.108821
0.0860168
3.46096e-05
0.0851666
0.000928502
0.0426947
4.20804e-05
0.0656617
0.000344902
0.028915
1.47928e-06
0.00666548
0.000458309
0.000932291
6.90338e-10
0.00131462
7.05781e-08
0.00381014
0.024312
1.00143e-06
0.00235187
0.000311371
1.74736e-07
0.0101919
9.19773e-08
2.70628e-08
2.74304e-08
4.50508e-08
5.05705e-06
4.46862e-08
4.90873e-08
7.45478e-08
0.267013
4.32213e-05
2.47434e-10
1.70432e-09
5.49346e-08
1.00125e-07
0.029962
0.768334
0.00210111
0.000140612
9.40358e-09
0.00201236
0.00138714
0.046377
3.20317e-05
1.29501e-05
5.64605e-07
1.09956e-06
2.45146e-06
0.000222814
0.000116997
0.179621
0.067211
8.23873e-08
0.00105876
0.000299781
1.3235e-08
0.0242925
4.61408e-06
3.77907e-08
1.73155e-06
0.161978
0.0621889
1.38058e-09
0.0249323
1.39936e-08
0.0486662
5.12678e-05
0.0355232
0.0529231
4.76648e-09
6.65521e-09
2.32031e-08
2.51158e-05
0.00566166
0.225613
0.0277344
0.0417964
0.00445622
0.000538622
9.70933e-10
0.000117031
0.137721
0.00128822
9.53595e-05
0.0029621
4.05371e-06
0.0990744
4.88445e-08
0.205669
0.0383787
1.30478e-08
0.000487364
0.00718539
4.02252e-08
0.00972508
1.4015e-08
1.86064e-07
0.197753
0.029779
5.33267e-08
8.2397e-09
6.94814e-07
2.56042e-09
6.0857e-09
0.000126655
2.45479e-08
5.76719e-10
0.00310208
7.70672e-09
9.75183e-08
2.70288e-07
0.000229069
2.19696e-07
0.00016886
1.07817e-07
4.68955e-08
2.25968e-05
6.61155e-05
0.00355984
0.0431084
8.072e-05
0.00501883
2.30108e-06
0.319918
0.315215
1.24686e-07
0.00342726
1.784e-08
0.0457689
0.0380469
0.000405217
0.0901992
0.0685324
7.16643e-06
1.1045e-09
0.0024516
1.12953e-08
1.23322e-09
3.97767e-07
1.58611e-05
7.3007e-09
1.73194e-05
0.0356735
5.14179e-09
2.41003e-08
0.337332
1.52001e-09
0.0172373
8.27432e-06
0.00132194
9.78037e-09
0.000443316
0.000145706
0.239497
0.00795479
0.0239203
0.000182809
0.0403041
0.000271033
0.0752373
0.000152606
0.000226727
0.0098304
0.0580004
0.000324542
0.00127589
4.31091e-06
1.7851e-07
0.0011056
0.000226114
0.0159525
0.0120897
0.000148299
1.90156e-06
0.00549194
0.00520165
0.0184957
2.19076e-09
0.0122796
0.0166556
0.00274294
0.00149181
0.00129032
0.00328067
0.0190076
0.0407248
0.0071556
0.0110319
0.00801306
9.06256e-05
0.00289867
0.00363433
0.00107464
0.0026312
0.0142064
0.0137858
0.019436
0.000121926
0.0113364
0.000422322
0.00506932
0.00284522
0.000359085
0.00235528
0.00020395
0.0756208
0.00398543
0.00122485
0.000141823
0.00072902
0.0159227
0.00244942
0.21432
0.00352944
6.92074e-10
0.231573
0.0456639
0.0218689
0.00711235
0.0202315
0.000405217
0.00867597
0.462892
0.002132
0.00138334
0.00249923
0.174906
0.00118556
0.0744159
7.54123e-05
7.75271e-08
1.31053e-08
0.00222213
0.00615938
0.0118368
0.0709744
0.00683539
0.0611747
0.054999
0.0702496
2.89582e-08
0.00712874
0.00265205
0.0253331
1.059e-06
0.00634671
9.16788e-08
0.225239
0.0115951
0.00749337
0.221177
5.1543e-09
9.00219e-08
0.00220952
0.000110428
0.000763433
1.55952e-07
0.00656776
0.000968862
0.0784378
9.37506e-07
0.0222427
0.00309083
0.000350916
0.000126642
0.00238125
0.00132633
2.41187e-07
0.00186277
5.28879e-05
9.75871e-09
0.269018
0.00378795
0.00255468