/*--------------------------------*- C++ -*----------------------------------*\
  =========                 |
  \\      /  F ield         | OpenFOAM: The Open Source CFD Toolbox
   \\    /   O peration     | Website:  https://openfoam.org
    \\  /    A nd           | Version:  10
     \\/     M anipulation  |
\*---------------------------------------------------------------------------*/
FoamFile
{
    format      ascii;
    class       volScalarField;
    location    "19.5";
    object      SgT;
}
// * * * * * * * * * * * * * * * * * * * * * * * * * * * * * * * * * * * * * //

dimensions      [1 -1 -3 -1 0 0 0];

internalField   nonuniform List<scalar> 
111485
(
4.02115e-14
0.00777396
0.0242303
2.67374e-16
0.0490896
3.27599e-15
0.0464077
0.00616211
0.0190538
0.001238
0.046809
0.00943566
0.00481062
0.000793509
0.00651898
0.030338
0.00142888
2.6223
0.0103477
1.4202e-14
3.85599e-15
2.32176e-16
0.026807
0.0346082
0.00868855
1.83044e-15
0.039465
0.00177196
0.0153503
9.83763e-15
0.0446019
0.0195265
1.44426e-14
5.08524e-15
0.00641775
7.71283e-16
0.0106377
0.00422219
3.86628e-08
0.0242121
2.20043e-16
0.0709006
0.0158442
0.00154914
6.29284e-05
4.23349e-14
0.0295811
0.000712144
0.0474985
3.22253e-15
2.65579e-15
2.59607e-14
9.35104e-15
0.0513577
1.52509e-14
0.0437253
0.00306112
2.49473e-17
2.02827e-05
0.00479581
0.0160686
1.77873e-14
0.00480279
0.0978877
2.93066e-15
0.00312295
0.315569
0.0944111
0.00111333
0.0061293
1.84823e-05
0.00662749
2.03706e-15
0.00290983
1.1987e-14
0.000713446
2.84027e-15
0.0411854
9.19867e-16
1.47969e-15
1.27373e-06
0.0339609
2.02419e-15
1.30905e-14
0.00935336
0.00383198
3.40635e-10
0.0253566
6.00954e-05
0.00744407
0.000262158
0.0403828
0.0119259
5.77316e-05
0.0521739
7.97495e-15
5.33107e-15
0.00181639
3.03114e-08
0.00113074
3.88413e-14
0.0177907
1.64356e-15
0.0179923
0.00459479
1.22872e-14
2.02e-16
0.00758572
0.00416069
5.60623e-08
0.00547394
0.00472797
0.00378894
0.0032402
4.05519e-15
3.39261e-05
1.09638e-15
3.62464e-16
0.012869
1.06343e-15
8.1135e-15
3.01958e-14
5.81224e-16
4.10102e-17
0.00153388
3.00598e-06
1.10254e-14
0.00171052
8.62333e-17
2.45278e-05
0.00150053
0.0327673
2.3453e-14
4.43352e-14
4.99363e-14
0.0482977
2.2857e-15
0.042548
0.0253846
0.00271869
0.00025045
0.00200358
0.0225259
0.00263929
0.00403877
0.0130635
4.08054e-15
7.58685e-14
1.27687e-15
0.0281082
0.00154025
1.9388e-15
2.35394e-07
0.00471404
4.33485e-07
0.0108288
0.016261
0.0107681
6.1778e-08
4.87633e-15
1.55014e-16
0.0522192
0.0226322
1.68848e-06
3.13744e-07
0.00584919
0.00340709
2.24988e-16
4.09794e-06
4.37705e-05
2.36364e-15
7.55927e-15
0.000124038
2.33856e-16
0.0054999
0.00207053
2.16332e-16
7.60353e-15
1.12604e-14
2.41985e-14
1.93399e-14
3.22955e-16
0.00151
0.00678017
0.029851
0.00412649
0.00766653
0.00403133
7.79168e-05
7.12607e-15
0.00485079
6.02168e-15
1.19238e-14
0.00654141
0.0103876
0.0286065
0.0114036
0.00504025
4.48807e-14
0.00675892
0.000504149
4.13888e-05
0.0143525
0.00233111
2.63383e-14
0.0038226
0.0251235
8.23917e-14
0.000160314
0.00788516
0.00200742
0.000368025
6.12685e-14
3.02393e-15
0.00832852
1.06112e-11
0.119421
2.70151e-15
0.00668847
0.0205541
0.119229
7.31815e-15
0.00328285
0.0138164
2.04499e-13
2.4663e-15
4.96907e-16
0.150661
2.40509e-07
1.09515e-14
1.19763e-14
0.00945655
0.00779361
0.0148438
2.38422e-15
1.59167e-14
1.30981e-05
3.46302e-14
0.00238547
0.00954682
0.0166383
0.0116496
0.00964844
3.61115e-16
2.44983e-07
0.00062597
1.44611e-16
3.54492e-15
0.0309297
0.0205413
2.08212e-14
0.00652918
0.0107779
8.96607e-15
1.04172e-14
0.000113848
3.39692e-15
2.26004e-15
4.44363e-05
1.0176e-15
0.014812
0.010674
0.00367576
7.80482e-14
0.0118702
1.44335e-16
5.81621e-16
1.53673e-14
1.78463e-08
0.0229724
0.00618117
0.00548365
0.0363164
0.0123673
0.00157014
0.000565645
0.0323417
0.00876541
1.06504e-15
1.9674e-14
2.36752e-07
0.022693
0.0245052
0.0118263
5.74139e-16
0.00701699
0.00204224
0.00302725
1.96231e-06
3.57312e-06
0.0138219
0.00218803
0.00196464
2.99307e-16
0.000647562
2.81918e-15
2.05851e-07
5.89282e-13
0.235662
0.0679123
0.0118141
1.32258e-15
7.30717e-17
0.00898919
0.00171281
1.55833e-15
5.54414e-15
1.74231e-14
0.000294931
0.0569632
0.00399976
0.0133759
0.019211
1.12482e-14
1.30397e-15
2.31213e-14
0.00378077
1.94619e-12
0.000856694
0.184469
2.91328e-07
1.18856e-16
3.25362e-15
8.84958e-16
6.72608e-15
0.0600509
0.0118548
3.78852e-17
0.00527162
8.88644e-15
2.85371e-14
0.0670748
0.00596018
0.0114411
0.00931715
1.09261e-14
2.75671e-14
8.40128e-16
0.00947724
0.0187494
0.00485222
6.08473e-16
3.19717e-10
0.000156608
0.00226592
0.00805284
3.27786e-05
0.0284677
2.91102e-16
0.0375107
0.00356869
0.00775098
0.0255665
0.0132269
9.91282e-15
1.1437e-14
5.80778e-15
7.04765e-15
0.0312151
0.00977051
0.0327559
0.0673092
3.59325e-15
0.0183864
1.32474e-15
2.02128e-14
0.0166836
5.9379e-16
0.08011
2.80138e-14
4.9925e-17
0.0228568
1.45458e-17
0.0135434
0.000285565
1.30263e-15
0.000981219
0.0165943
1.33156e-14
0.00892964
0.00906341
0.00816987
0.000697498
0.00268846
0.00549114
9.76867e-15
6.77519e-16
0.00199624
7.38284e-16
0.00629451
0.117523
2.62122e-15
2.65402e-15
0.0276199
0.000109868
0.00829529
0.0205075
6.03291e-16
0.0474289
0.0188401
3.76866e-16
0.000836149
0.00237946
8.3311e-15
3.91439e-15
0.010928
0.00520746
2.29936e-17
1.39842e-15
3.91171e-08
2.24457e-15
0.0124059
4.9017e-15
6.46567e-16
0.0167757
1.57423e-06
0.012274
0.0299111
1.23763e-15
2.92484e-14
0.00152475
1.84074e-14
0.000163673
0.0144992
0.121824
0.833237
3.84804e-14
0.00275665
0.000547516
1.39204e-14
0.0389379
0.0310466
4.14393e-14
7.03937e-09
8.73599e-05
1.5227e-14
0.0238167
0.0240063
0.0138854
3.22576e-15
0.000661806
0.0168697
0.022867
8.24089e-07
2.8066e-15
6.66411e-10
4.25611e-15
1.15325e-05
0.0312498
8.12715e-17
0.00823574
0.000101229
1.33678e-14
7.03273e-15
4.08208e-14
2.78426e-15
0.00371522
0.00957135
0.00633617
0.00205336
0.00261203
2.26251e-15
0.0019584
1.55508e-14
0.0410845
1.44052e-16
1.17926e-15
1.96305e-15
0.037243
7.53709e-14
1.91924e-15
1.48324e-07
6.00331e-15
6.26576e-15
0.0010664
3.82185e-16
6.00458e-14
2.54645e-16
5.94448e-15
1.50518e-14
5.38858e-15
3.79685e-15
0.00686176
2.00778e-15
0.000536527
0.00196201
0.000854204
1.54716e-15
0.00089845
5.90184e-15
3.02093e-15
0.00274181
0.00176641
0.0268952
0.0249925
1.8134e-14
0.00203211
0.0821972
0.00849235
0.00101115
0.0032128
5.59053e-14
0.0233084
1.55123e-14
0.00502503
1.78092e-16
0.0762067
6.0909e-15
0.021081
0.000245399
4.91035e-07
2.82245e-15
0.00200723
5.06451e-15
0.0798963
0.0488072
4.10147e-16
1.36646e-15
1.60134e-14
2.73439e-16
1.33714e-09
0.0547038
2.73418e-15
1.19162e-16
0.00243371
1.56921e-16
0.0339226
2.41393e-15
0.000315314
5.97598e-14
0.00047115
1.17546e-06
0.000989444
0.0126816
4.8255e-15
0.000417039
1.8876e-15
9.85138e-16
0.0148063
9.15574e-16
2.89211e-05
4.61155e-15
0.00163703
7.40363e-15
0.0644077
1.8364e-17
3.28704e-15
0.0175487
0.00322205
0.00173819
0.003866
0.0068688
0.0207055
3.29076e-15
0.0253639
0.00598955
6.28511e-16
7.50553e-08
0.0410609
0.0153949
1.88684e-14
0.00365407
0.00686898
0.00179095
0.000982768
2.20551e-10
0.0136881
0.001229
0.000121751
0.0230612
0.0137239
0.000582032
9.15867e-15
3.04718e-09
0.649942
1.68376e-15
0.000347659
2.33586e-17
1.80318e-14
0.00732075
0.0026823
2.32249e-07
1.75273e-05
9.77512e-15
0.0160317
0.0110687
1.5003e-15
2.03507e-10
0.00132087
7.71457e-15
2.89811e-15
6.54354e-16
1.18411e-15
0.0127533
2.18542e-15
2.26354e-14
0.00852933
0.00190569
2.44813e-13
0.0105704
4.07826e-14
0.0084937
5.85266e-15
4.63507e-16
0.0520179
1.32521e-15
2.28209e-15
3.14754e-14
0.00420087
5.52585e-16
0.0282683
0.00623992
8.02205e-16
0.0896603
0.00234174
0.0286481
0.0281724
0.00042387
7.423e-05
3.79203e-16
0.0538755
0.0466086
1.45614e-14
0.000317849
0.0405335
0.0079977
0.00139449
0.0276237
0.0261005
3.63129e-14
0.0108838
6.6532e-06
4.68174e-14
0.0348029
0.000250626
7.66565e-15
0.010912
0.0406541
0.00131784
0.0214994
0.0196257
0.0072062
1.48371e-14
0.0104134
0.00030351
3.74215e-12
0.0171459
0.0179613
0.0357587
1.03129e-15
0.00183877
1.61162e-16
4.1279e-16
6.60824e-15
6.95744e-15
1.33707e-05
6.11259e-15
3.37786e-10
4.81419e-15
5.24804e-16
8.1399e-05
0.0428159
8.25349e-16
0.0307258
3.72272e-14
3.67474e-14
2.05266e-14
0.0385855
0.000395509
4.16593e-14
6.69059e-14
3.42201e-16
1.77269e-16
0.206387
0.069573
6.63979e-15
0.00199318
1.85241e-06
7.54919e-16
0.0373561
0.00853432
0.011494
1.25089e-15
1.14199e-15
0.000411266
0.00106691
1.40414e-14
2.16461e-15
1.28164e-14
0.00723269
4.34586e-15
1.22971e-16
7.02155e-15
0.0420918
0.00211207
5.22568e-16
3.84594
0.361031
0.00969221
3.5027e-17
6.35772e-15
0.0551551
0.000427879
3.82542e-14
4.93675e-06
0.110526
0.00239784
0.011236
5.20167e-16
0.0522672
0.00190448
7.2078e-17
2.14786e-14
1.04331e-15
1.60926e-15
1.45899e-16
1.5751e-15
0.0223655
7.20628e-16
2.91805e-15
6.84636e-15
0.0113539
0.0236325
6.79793e-16
2.19093e-15
0.105563
0.0143236
0.00989244
2.09678e-15
7.78508e-16
0.0371232
2.22483e-15
0.00169107
0.00264571
0.00396456
6.85219e-15
6.0387e-15
9.01111e-15
6.43035e-16
0.0146751
8.17474e-16
2.03559e-15
0.00104871
1.17677e-15
0.0231884
0.00191158
6.05898e-16
0.0368865
0.344616
0.00252841
0.0290385
0.000140695
0.0435954
7.64932e-11
1.37442e-13
0.0236369
0.0678665
0.00599516
5.65115e-15
4.64631e-10
0.776632
0.00998616
5.94709e-16
0.00243854
0.00243776
0.00114068
1.40985e-14
1.09438e-15
4.49947e-14
0.013462
3.17229e-14
0.00270299
1.02314e-15
0.00119976
0.00142346
0.0366447
0.000574083
1.10859e-15
5.27393e-15
2.03478e-14
0.020513
1.18179e-15
1.45992e-14
7.38657e-05
9.96514e-16
5.69458e-16
7.49152e-15
5.5541e-17
0.0101219
3.33275e-15
7.51804e-16
4.22178e-10
1.76418e-14
1.82539e-17
8.47127e-14
2.08983e-15
2.94709e-06
0.00160919
2.01764e-15
0.00402047
6.18789e-06
2.94035e-07
5.86144e-05
0.00397988
8.50127e-16
9.30424e-06
0.0100822
0.000394122
8.68132e-15
3.77014e-09
0.000854045
1.24355e-14
0.00990523
0.000187689
1.60332e-06
0.023062
0.00941649
0.0022406
0.00486066
0.00197478
9.39348e-15
1.17012e-15
0.0329566
0.0264112
2.18841e-15
0.00843322
0.054048
0.0283595
3.77197e-15
0.00125673
1.08108e-16
0.0101713
0.0139282
1.44461e-15
0.00158867
0.000447106
1.18534e-06
0.00495246
3.19097e-15
0.0485576
1.47845e-05
0.00142145
2.96978e-05
1.21117e-05
2.91948e-15
4.44925e-16
0.006876
3.92754e-16
0.000122704
0.000244249
0.000300214
5.85855e-08
7.03738e-08
1.9816e-07
5.6851e-16
2.93785e-14
0.0226267
5.96708e-14
0.000154433
0.00197475
2.22399e-14
3.55645e-15
6.56487e-07
9.02987e-10
1.13797e-15
5.15625e-06
8.68022e-15
2.83897e-15
1.56602e-14
3.03507e-14
1.00748e-13
2.94296e-14
0.000272264
3.58491e-15
3.57176e-15
4.27946e-16
6.51525e-06
4.86644e-05
0.00170119
0.00916209
3.1962e-16
5.06255e-16
0.000157452
1.8995e-15
7.76683e-16
5.31387e-14
0.0184456
0.042109
2.91484e-15
1.86329e-15
3.58532e-15
3.72941e-15
9.67031e-16
2.80658e-15
0.00669189
7.96204e-16
5.35904e-08
0.0263695
4.18192e-15
8.05624e-16
3.09211e-15
2.88827e-05
1.49435e-14
7.59677e-16
3.64526e-15
9.66775e-06
6.08258e-15
0.00418377
8.96298e-07
6.19201e-09
1.39857e-16
7.68202e-05
0.00190509
0.0440008
5.21452e-14
8.47163e-06
0.00537509
6.73919e-15
2.02055e-15
3.19386e-13
1.08031e-15
0.0081641
0.00161795
0.00317992
1.80341e-07
1.14144e-16
0.0230701
2.80454e-15
3.16317e-15
1.02595e-13
7.86807e-16
0.0263828
2.2005e-15
5.61649e-14
1.57602e-06
0.0518416
3.98682e-14
0.00232881
4.80111e-15
0.000780991
1.41283e-14
1.91825e-15
3.11642e-15
6.01912e-15
0.00247074
0.00058491
0.303248
1.29307e-15
5.06557e-15
0.00210021
1.25146e-15
2.44619e-14
3.23733e-14
0.0359933
9.81199e-06
0.0319375
7.16967e-15
1.11514e-05
5.10182e-05
1.84223e-14
0.00013219
3.28664e-15
0.00118876
0.0246383
0.0201922
0.00114492
0.000223141
3.72298e-16
1.71588e-15
5.26095e-15
2.26738e-05
5.32152e-17
0.00759527
1.36743e-14
0.174049
4.68178e-16
0.041091
0.00296126
1.8764e-14
2.7841e-15
9.30084e-15
1.76272e-15
0.0417425
6.01614e-14
6.63429e-14
0.0116599
0.00684184
7.78439e-15
2.4687e-14
6.89401e-14
6.84079e-14
6.48665e-15
3.91354e-16
0.0258764
0.000395832
1.57659e-15
6.21903e-16
5.52452e-07
7.74319e-15
0.00154036
0.00010409
4.26412e-15
0.00353448
5.15904e-15
0.000385755
7.47429e-16
0.00110735
1.19775e-15
6.85114e-08
2.15683e-06
0.000612049
0.0183621
0.0344328
1.15738e-06
2.79388e-15
0.000555305
1.27123e-14
0.00464001
3.66021e-15
7.7309e-15
1.74415e-13
3.57438e-16
1.10493e-15
5.6022e-16
0.00728002
0.0082123
3.40798e-15
1.75964e-14
2.24131e-14
0.000799543
1.24343e-05
2.47282e-15
0.0180107
0.000169602
2.31545e-14
0.0234091
0.00809782
0.00370229
0.0110876
2.48902e-15
9.52734e-16
6.16896e-17
3.01798e-15
0.0369548
5.55308e-15
0.114377
6.99875e-16
0.000322995
0.000727793
1.73466e-15
0.00098479
3.60492e-16
2.26959e-16
0.00309914
2.22018e-08
0.00957762
2.76603e-16
2.62281e-14
5.88398e-16
0.000841622
1.35531e-14
2.392e-15
6.34635e-15
2.69469e-07
3.61045e-15
6.39076e-06
3.29089e-14
8.77423e-15
1.55045e-15
0.0183248
0.00974312
0.0182325
0.0358947
3.7475e-15
1.62547e-05
9.64826e-16
3.33326e-16
0.00955735
1.53858e-15
2.13915e-06
0.000361498
0.0067095
0.000377707
1.07746e-09
0.0018611
4.6764e-16
1.34026e-09
3.01946e-10
0.00012931
0.00076209
0.0152182
6.4404e-08
3.03903e-14
0.0301213
1.46948e-15
3.0538e-16
1.2295e-05
0.0747305
5.18552e-08
3.54581e-15
3.52492e-15
3.0769e-07
5.91057e-15
7.6332e-15
1.85083e-05
8.62969e-14
2.13539e-14
0.0396681
0.000237143
0.000186239
0.0223079
0.00721186
5.15783e-16
7.94606e-16
2.47129e-05
0.00404291
2.22105e-15
7.96845e-14
0.00960608
7.51147e-15
3.23067e-14
5.89548e-15
6.4297e-15
5.00105e-14
2.56675
6.73321e-16
0.000216522
6.20136e-16
0.0215977
9.96523e-16
7.24479e-13
1.01933e-14
9.62926e-15
3.26541e-15
6.42213e-16
0.00280828
4.06027e-16
2.90481e-15
2.31966e-15
2.02028e-15
6.46737e-16
5.87729e-15
0.00968694
3.58436e-15
0.0108973
0.0031493
1.54698e-16
0.00151425
3.47287e-15
0.000515424
2.071e-06
0.00383575
0.0129563
1.27273e-15
9.29253e-05
0.00754304
1.01347e-05
2.58077e-16
3.13109e-06
0.0191686
0.00466864
8.67188e-15
0.0257747
5.30746e-15
1.59548e-15
1.2306e-15
1.02767e-15
0.00808064
5.16994e-15
9.82749e-16
0.00829881
3.94888e-07
0.0026435
3.85362e-16
1.14073e-13
0.000644847
4.19828e-16
6.13145e-05
2.5128e-14
0.0233718
2.80652e-15
2.19281e-15
5.29185e-05
4.11047e-15
0.000139274
3.6298e-14
3.67761e-15
0.00470012
0.000445388
0.0046838
0.0151207
0.217898
0.0202501
4.22564e-18
3.2095e-14
0.0030189
0.00672238
0.0368441
0.0103605
2.16047e-15
0.0124838
4.08421e-16
1.04758e-16
0.00923002
0.0111241
3.33731e-15
0.0132727
7.67851e-16
0.0027304
0.00900064
2.67336e-14
3.02453e-16
5.07426e-16
0.00285535
4.89978e-16
1.21482e-15
0.00422274
0.0215372
3.60975e-06
0.0073538
5.90648e-16
9.21406e-15
8.8839e-05
0.000786439
1.55431e-17
0.0102399
1.48071e-14
0.00255683
2.08109e-15
6.09576e-16
0.0122527
1.72187e-15
3.61538e-05
0.00367004
4.53736e-16
1.2331e-15
0.00444814
5.55428e-11
0.0520072
1.15527e-14
0.250209
7.79535e-15
2.91017e-14
3.1411e-14
0.00752714
2.26356e-14
1.82669e-14
0.00558058
7.78604e-15
0.000253852
3.03885e-14
1.1221e-14
1.85228e-15
9.58425e-08
0.000782973
2.92081e-16
2.80806e-15
0.0347862
0.000944204
4.81521e-15
0.000405006
2.46106e-15
9.94108e-15
1.72485e-06
0.00288005
0.00130808
3.85628e-15
4.79438e-16
9.55996e-16
1.19432e-15
1.35679e-14
7.73891e-15
8.15219e-15
3.33713e-16
2.51961e-15
9.4089e-15
1.59737e-16
2.59001e-15
5.06868e-15
2.06744e-15
5.39035e-16
3.72192e-15
3.62248e-15
6.1084e-15
1.04505e-15
7.29661e-16
3.0174e-15
0.0170584
3.68987e-15
1.04015e-15
9.29056e-16
0.00660787
2.07416e-16
2.76536e-15
0.295582
3.50716e-16
4.09273e-16
0.0228609
4.44489e-12
3.93636e-15
0.00793235
0.0243764
2.55934e-16
0.00287608
0.00426081
1.27268e-15
0.0133959
0.0391097
0.0177028
0.00336805
0.0106474
5.84499e-15
3.55942e-15
0.00299721
0.0105214
0.00321596
7.51931e-16
0.00676981
0.00178306
0.0213779
0.00999174
0.000696152
0.0155633
0.000999877
0.010254
3.2792e-14
0.0241767
0.00842327
0.00162727
0.00141891
7.71456e-15
2.84629e-15
3.61741e-16
1.74296e-15
3.42511e-15
0.00915985
0.0134961
8.32405e-16
1.21246e-16
2.29486e-14
3.93211e-15
1.27356e-15
5.23452e-15
8.9118e-16
5.36809e-15
0.00465036
0.000204624
0.0216723
7.21607e-05
4.585e-16
1.64879e-14
0.0299671
7.44127e-06
2.18441e-15
3.06644e-16
0.00707877
1.64103e-14
1.7376e-15
2.40172e-06
0.00772928
0.0135207
0.0333361
0.0343022
2.90069e-15
0.0139085
0.000343216
8.17067e-15
1.48797e-15
0.0118387
8.2847e-15
5.06581e-16
0.0156187
1.03776
0.000170406
3.27565e-14
3.87203e-15
0.0172043
0.0196835
0.0177702
0.00553676
0.00434016
7.88335e-15
1.03819e-06
2.64186e-09
1.22364e-14
6.24932e-15
0.0167769
2.79832e-16
0.0019715
0.0246752
0.0174288
0.0110551
3.9361e-15
0.00594644
6.46445e-15
6.53425e-15
2.31781e-14
3.96037e-16
0.00245278
0.880296
2.74145e-16
2.30828e-15
4.4814e-06
0.0229331
0.00119698
0.0068132
0.0321878
0.00467898
0.020213
1.03134e-15
4.24482e-14
3.91874e-15
0.0290614
0.00554154
2.96681e-08
1.51629e-14
1.67804e-15
2.40341e-13
0.0217223
0.00260117
7.64822e-16
0.00481064
0.0571997
0.00623368
0.00607938
7.00939e-15
1.91562e-13
0.00675929
0.022283
2.44578e-15
0.000346649
0.0146444
0.000957563
0.00905805
0.00460513
0.00775598
7.7462e-14
0.00320828
0.0204546
0.0350929
4.51138e-10
0.022004
4.7606e-13
0.0159506
0.000150877
1.07488e-14
0.00247469
0.00741095
0.000406356
0.0112949
2.46889e-07
0.000122127
1.38957e-05
0.041242
0.00359337
1.49033e-14
0.037117
0.00126299
2.96528e-15
1.76643e-15
4.23456e-08
1.33746e-05
0.00102853
1.05989
0.0343867
0.0118985
1.90584e-07
0.0441054
7.53105e-16
8.23332e-15
0.00380015
2.77544e-14
0.00195707
0.0038233
0.00213403
0.00450797
1.85165e-15
0.000186943
0.104202
1.00158e-15
0.0141617
0.00733989
1.4402e-14
0.0038714
0.000129054
2.94975e-15
5.96778e-09
8.26528e-05
3.7494e-15
1.63837e-15
3.60191e-17
0.00414115
0.00475291
0.0135829
4.25556e-14
0.00457253
0.0317213
5.31879e-16
0.00776098
0.0120101
0.0230208
0.00146462
4.46752e-16
0.000500777
0.0088281
0.0100861
0.00875977
0.0355459
0.155872
0.00313207
1.09329e-14
7.34603e-06
0.0477997
1.80959e-15
0.00040503
4.78253e-16
1.00986e-15
7.14917e-15
1.56434e-16
6.89611e-16
0.00312025
6.07334e-16
0.0068916
0.00109244
6.17375e-15
0.00363304
2.69405e-14
0.0133248
6.46553e-15
2.54754e-05
7.18513e-16
0.0207307
0.000151969
2.36865e-06
0.00408405
0.0272008
0.015843
0.00375335
0.0260487
7.05713e-12
0.0221958
0.0519885
0.00937658
2.62749e-15
0.00103506
0.000235251
0.00539427
0.00976094
0.000586806
6.28608e-15
1.32479e-14
1.79434e-15
0.00334403
7.02917e-15
0.000335253
0.000205081
0.00169118
0.000245865
3.33137e-15
3.31781e-14
2.98404e-16
0.00834958
0.0202439
0.00113493
9.04419e-06
0.00177344
0.00659634
0.00173166
0.000797331
0.00633304
0.00591798
0.0025741
1.40265e-15
1.83185e-15
3.49635e-14
0.0122969
0.0103609
6.91298e-16
3.82437e-15
1.10042e-13
0.00807671
0.0173881
5.56841e-16
0.00213749
5.21371e-14
5.99627e-07
0.00439449
0.085746
1.44048e-15
1.51827e-15
0.00348377
7.60565e-15
5.57425e-05
0.0114581
8.81519e-15
0.0103407
0.0310414
0.018125
4.72563e-16
0.0014486
7.64325e-15
8.8355e-05
0.0460696
3.53455e-15
5.53972e-15
0.010149
2.26221e-13
2.5402e-14
4.16956e-05
0.000902008
3.9443e-15
8.73551e-16
3.55351e-14
7.05267e-05
0.00118879
0.00299608
0.0243686
0.00816028
7.87826e-15
6.81448e-07
0.00068058
3.2669e-15
2.86596e-16
1.8594e-14
1.31486e-14
5.07941e-15
1.33465e-14
8.21398e-15
5.13514e-15
2.4685e-14
8.33859e-15
2.59376e-09
2.61093e-14
0.000313498
5.18733e-14
0.000244328
6.07124e-14
8.69541e-05
8.69496e-14
7.34341e-15
0.0270994
0.00854419
4.85665e-14
0.0818326
9.6085e-09
5.84509e-10
7.39036e-16
0.00113614
1.46368e-11
0.00260522
5.9543e-06
0.000796387
4.71202e-15
1.32214e-15
0.00114826
2.08713e-08
3.30239e-15
1.0604e-14
0.0365477
8.26579e-15
0.0350617
3.52429e-15
1.5184e-15
1.71264e-06
0.0263411
0.00738836
1.25439e-15
0.000299416
2.50414e-14
0.00331593
1.83142e-05
0.00165974
4.65781e-06
3.25618e-16
0.0191635
0.00114472
0.00491619
5.1042e-16
4.95494e-15
1.51414e-16
0.0193282
0.00360774
0.0496665
1.08709e-14
4.58512e-07
2.14643e-15
1.0206e-15
1.32433e-14
4.16297e-15
0.00317832
0.00210249
0.00290077
0.29814
9.12301e-14
0.0251743
0.0338285
0.0159805
0.00164512
2.84768e-16
0.00489126
0.00438524
0.00462304
2.84667e-07
0.00949392
3.32388e-15
0.0014048
0.00122631
0.0307734
1.04346e-06
0.00326556
4.44172e-15
0.0173478
1.02254e-15
5.66763e-15
0.00156828
1.25952e-14
0.00563605
1.24234e-14
1.24806e-15
2.37567e-14
3.99757e-15
1.06311e-14
0.000792324
4.36434e-15
0.000506445
9.82998e-15
6.06106e-16
0.0165168
0.00501699
0.00747764
0.00688744
8.90329e-15
0.54951
4.61322e-15
0.0643504
3.20747e-14
0.0163379
0.022828
0.00224735
0.0526629
8.96833e-14
2.70382e-13
2.62745e-15
0.00203502
8.94814e-16
5.63647e-15
0.0166328
1.30744e-15
3.0644e-15
0.00518301
2.92507e-14
0.0116473
6.41481e-08
2.26704e-14
1.35519e-14
1.54189e-14
0.00142699
0.00637667
4.63544e-15
0.0217631
0.000335347
1.85259e-15
0.0949654
2.55653e-14
0.01462
0.0169603
0.00353351
9.97588e-16
0.0169813
0.00956426
0.000848737
0.00512223
0.0116122
2.15226e-14
1.97754e-14
1.74863e-06
1.12736e-15
9.89024e-16
3.60474e-15
0.0185572
0.046401
0.00428033
0.00208142
1.57785e-14
0.0474906
0.0431512
0.00399465
0.00215603
0.00884883
0.0196541
0.00261153
5.7371e-16
3.21531e-15
1.01687e-15
0.00684903
8.09819e-15
0.0234225
2.02559e-15
0.000728224
5.58581e-07
0.00248885
0.0206892
8.57158e-15
4.72637e-14
0.00243
0.00036539
2.08755e-14
3.58303e-15
8.33878e-15
3.64686e-05
0.000293125
0.000143251
0.00080075
0.00967134
0.0819047
2.10852e-14
1.9417e-14
1.60174e-14
0.00363403
0.0165536
0.0189851
0.0331212
0.00165602
0.00290595
5.82287e-15
1.46079e-14
3.11872e-13
8.98584e-16
0.00877535
0.0212543
3.51644e-15
1.04572e-14
1.22635e-14
6.22385e-14
1.93921e-14
7.19779e-14
0.013225
1.84092e-15
0.00090474
0.402563
3.6952e-15
1.29404e-05
0.0216822
0.000713831
5.47339e-15
1.27053e-14
0.0048767
1.71068e-15
0.0138355
9.17627e-07
0.0233601
5.25617e-14
2.72029e-12
1.48203e-15
1.03156e-15
1.35167e-15
7.04752e-14
0.189798
4.9572e-15
0.00583764
0.00119228
1.32823e-14
1.08571e-14
0.00196372
3.60521e-16
1.47231e-15
0.0120788
0.000138224
3.44693e-15
5.16526e-15
1.84833e-14
0.0162559
3.3759e-15
2.47068e-15
0.000445742
0.00259924
0.00307055
2.00738e-15
3.64615e-15
8.06025e-15
0.00373369
0.00183518
0.0125188
0.00361753
5.41776e-15
0.000754995
0.0111047
0.00621957
8.31661e-17
1.48539e-14
4.84368e-15
7.01606e-14
3.78884e-15
0.0296551
0.00492244
0.00569169
1.92797e-16
4.93224e-15
2.06716e-16
2.33641e-15
3.63806e-15
1.01926e-06
0.000209342
0.0021031
2.18321e-15
3.56066e-17
4.54912e-14
2.08203e-09
0.0337043
0.111399
3.39391e-15
8.63258e-10
2.94564e-11
5.16334e-15
8.44628e-16
0.00365735
0.00619101
8.13316e-16
4.19817e-14
0.00276091
2.19919e-14
0.000668391
0.00100706
2.01072
9.71635e-16
1.4981e-15
0.0113389
0.000526939
1.56876e-14
0.640766
0.000580427
0.00601059
6.12473e-15
4.16897e-15
3.5129e-14
8.76429e-15
0.00816337
8.82662e-05
1.71956e-14
0.0242894
0.0184455
0.826319
7.62477e-16
1.64009e-16
1.80819e-15
2.10103e-15
0.00653851
7.81704e-08
9.11584e-16
3.37495e-14
0.0179616
0.000787969
0.0046023
1.64775e-15
2.22003e-15
0.0276506
5.43708e-14
3.40947e-16
2.76097e-15
4.02813e-15
0.0204754
4.18591e-14
1.18037e-15
4.26279e-15
0.0247829
0.0114948
2.36733e-15
1.6803e-15
1.79933e-15
0.0146832
1.93592e-07
1.93396e-14
2.14792e-15
4.89351e-15
1.7129e-14
0.00231487
0.0107972
7.83625e-15
0.00191883
0.00107434
0.00471309
2.98001e-13
6.3681e-14
6.56069e-15
1.48675e-15
1.49526e-16
0.0183055
9.37052e-15
0.0137627
2.93534e-15
0.00150665
3.23894e-14
0.00237812
1.32334e-15
3.14709e-15
0.00983098
0.15412
2.36281e-14
0.00353511
5.17976e-16
0.000376018
4.78877e-14
1.05015e-14
3.1473e-15
5.1712e-08
1.82197e-15
0.000292185
4.44081e-16
0.0337897
9.23485e-16
7.54318e-14
5.76633e-15
6.12674e-15
7.45603e-06
0.000130839
1.10762e-15
0.00548528
2.97276e-17
0.00263792
0.0174376
0.00126584
6.52546e-17
4.69849e-06
0.00044085
2.1672e-06
0.00408139
3.04359e-07
0.00165415
1.09903e-14
1.65853e-16
4.22729e-07
0.00550516
0.000238387
2.45515e-14
3.1814e-15
8.45992e-15
0.559269
7.93017e-15
2.18371e-15
1.56334e-14
7.54024e-16
3.11252e-14
2.72768e-05
0.000179753
0.000974324
6.63894e-05
1.35551e-12
0.00140952
2.80349e-15
0.0052112
8.01537e-16
3.6756e-15
1.88949e-15
8.45439e-14
1.40282e-05
5.67143e-15
2.06853e-16
1.954e-15
0.0137198
7.36643e-16
9.00463e-15
0.00999135
1.27749e-14
0.0751188
0.121093
0.542631
1.58554e-14
0.19245
1.08096
1.06433
0.60937
1.21496e-15
4.46368e-16
0.00457623
0.00430757
4.06152e-15
0.00983801
2.45973e-15
0.0301225
1.05585e-15
4.10279e-15
0.000694537
3.10407e-15
2.56585e-16
1.02416e-05
3.85921e-05
9.62907e-15
1.7905e-16
2.73191e-06
8.98968e-14
2.19089e-15
1.78193e-05
0.00778858
0.00146248
6.85315e-14
0.00749375
1.50484e-14
0.00325899
4.18988e-07
0.00700059
3.06143e-15
1.46549e-08
0.00542005
1.3145e-14
1.59859e-09
4.66004e-15
0.0299712
1.73407e-14
0.00888122
3.98093e-16
2.23521e-07
2.99424e-15
1.85889e-16
4.81591e-15
8.30831e-10
4.99603e-10
9.45428e-15
0.0111836
0.00865165
2.17218e-14
2.56822e-15
0.0301721
0.0159111
0.170915
1.01543e-14
6.64185e-05
0.023255
0.0426563
5.56719e-08
8.17742e-15
0.0528475
7.00643e-16
0.211946
2.20787e-15
4.08461e-08
3.65335e-08
7.30365e-16
5.50192e-05
9.95259e-15
0.019219
6.22888e-16
4.44314e-15
9.58539e-15
5.39616e-14
7.57913e-16
9.22787e-15
0.000254901
0.00184629
0.124897
1.88799e-14
4.50342e-14
0.0380772
1.86461e-15
3.0551e-16
2.27871e-14
5.6755e-15
1.07971e-14
0.00547909
5.47634e-15
2.99021e-15
7.80439e-16
0.00304024
5.3633e-15
2.6656e-15
8.86168e-15
0.00304436
2.77171e-15
0.00564494
0.21755
0.00506048
0.00519497
0.0246422
2.24442e-15
8.92312e-15
8.25895e-15
0.00293894
0.00160636
1.46861e-16
4.08435e-13
0.000561306
8.63689e-15
1.29402e-14
0.31026
9.209e-15
0.0199627
5.44882e-15
0.00217294
0.00296463
1.86015e-14
1.89687e-15
8.12084e-15
2.09967e-15
2.88303e-16
0.0165937
2.0164e-14
0.00433322
1.60874e-15
4.51331e-15
0.00639818
5.22628e-15
0.0115442
2.85169e-14
2.21218e-14
0.00215318
6.58217e-05
0.129407
4.9833e-15
8.9723e-17
1.91883e-14
0.00311499
0.163411
4.82184e-15
3.0873e-16
3.16207e-14
0.00138097
7.91248e-16
0.0177034
0.028514
1.00467e-14
4.07319e-15
0.00664973
7.80644e-15
3.53514e-14
2.18068e-16
5.53267e-14
3.33251e-15
0.0630864
5.29849e-14
7.63017e-15
1.23124e-14
6.36427e-14
4.85884e-15
1.6749e-14
4.30607e-15
8.20189e-15
2.90341e-14
0.00688771
2.95776e-14
0.00790904
8.56293e-14
1.34522e-15
0.531763
0.00251854
1.38239e-14
7.98938e-15
6.2133e-15
0.00222739
2.60495e-15
2.58074e-15
2.29432e-14
3.64651e-15
0.00680074
1.71871e-15
0.00432628
1.82202e-15
0.00873645
4.94071e-14
0.0519403
5.78714e-14
3.53989e-15
0.0198683
2.90016e-14
5.67719e-16
0.0244117
0.00024902
3.31753e-14
1.17065e-15
0.0327368
0.00909858
0.00594055
0.000771754
0.00167013
0.0159247
0.000941209
0.00433237
4.47208e-14
0.0265432
1.43191e-15
6.30535e-15
1.59599e-15
4.41637e-14
4.7197e-14
0.00958649
1.62461e-14
3.08095e-16
1.41892e-14
4.13082e-06
7.51553e-06
5.30751e-14
0.0020898
1.59396e-14
0.00393543
4.03173e-15
1.20659e-06
0.00288435
2.97904e-13
0.0414142
3.90677e-15
1.19723e-14
2.70518e-15
0.00271716
0.00114446
2.79218e-15
9.41696e-16
0.00227743
3.33767e-14
0.608996
5.71977e-15
0.0929197
5.10651e-15
9.16991e-16
1.37508e-14
4.35149e-16
0.00912089
1.38023e-15
3.40328e-05
2.38924e-15
0.00892893
2.7734e-15
9.10852e-16
4.77333e-12
4.43009e-14
4.96801e-16
2.34305e-16
4.56173e-15
2.19171e-14
0.0038297
0.171808
4.96279e-14
7.8124e-15
0.00032802
2.73627e-15
1.64313e-15
1.02696e-06
0.0156474
0.000136809
1.51185e-15
0.000622621
0.00298921
0.00488333
0.00756117
8.46712e-18
1.01703e-14
5.43176e-14
7.02106e-14
5.28499e-16
1.17236e-15
3.87645e-15
1.08691e-14
2.88878e-15
1.30347e-15
5.20504e-15
1.63199e-16
0.0685116
1.14478e-15
2.02856e-15
2.91113e-10
1.26001e-15
5.25791e-16
1.00995
1.36004e-16
1.94634e-15
0.0018743
2.33616e-09
3.72745e-15
1.51803e-14
2.45845e-16
0.0209723
8.52803e-18
1.49138e-14
4.86023e-08
7.99501e-16
4.21128e-15
4.20627e-16
7.20326e-14
0.109747
6.64008e-16
0.000149677
1.12337e-15
4.69817e-15
7.04462e-16
2.75639e-16
2.51307e-15
1.5634e-08
2.98149e-08
0.000102093
2.28236e-15
1.76004e-15
7.32635e-14
8.61074e-08
2.45092e-15
2.77708e-07
8.80937e-09
6.68451e-15
3.41325e-15
4.45069e-15
4.8363e-09
2.68561e-15
6.70273e-15
2.15397e-09
2.39497e-14
0.0289103
2.7331e-15
0.00666315
1.37603e-14
2.13787e-06
4.33069e-15
0.00131072
1.79572e-15
0.0037639
0.0243046
6.70997e-15
0.00234381
1.35333e-05
2.54185e-15
0.0101838
1.14361e-15
6.44998e-15
3.864e-15
1.41607e-15
2.57637e-14
9.04137e-17
1.39092e-14
1.36591e-15
0.267002
1.5764e-16
3.4528e-15
5.54767e-15
4.04239e-16
2.28996e-15
0.0299609
0.767039
2.99897e-06
9.94325e-06
8.45915e-16
0.0019801
0.00138137
3.17254e-15
3.25199e-15
1.234e-15
1.75599e-15
3.75137e-15
5.06844e-15
3.48628e-15
2.26387e-14
0.000365885
2.80494e-16
1.32573e-14
0.000231836
3.6358e-06
5.25505e-15
0.0242898
6.41708e-15
4.48812e-15
1.37606e-15
0.161974
4.80811e-14
1.74323e-17
0.0248486
1.21429e-16
2.77861e-17
7.43692e-15
3.1704e-14
0.0528897
4.41003e-16
1.81327e-15
1.17588e-15
4.49658e-15
0.0056373
0.225609
0.0277272
0.0417954
0.00369191
0.000248851
5.76583e-15
2.32973e-15
0.137673
0.00123549
1.74025e-14
8.85433e-08
3.47601e-14
7.30306e-11
1.19618e-14
0.205663
4.89202e-15
1.66468e-15
0.000225792
2.31109e-10
6.05353e-16
0.00962235
8.78465e-16
4.92135e-15
0.19775
0.0297751
9.39013e-15
1.91671e-15
5.6316e-15
4.01603e-16
1.91821e-15
6.87729e-15
5.97436e-15
2.36474e-15
0.00307281
7.62858e-15
4.48268e-15
2.53721e-15
1.38116e-05
1.64775e-14
1.13953e-13
2.25279e-15
1.30667e-17
2.61157e-14
8.8201e-15
0.00332822
7.98353e-16
1.66203e-15
0.0049759
1.3e-15
0.000360235
0.00448755
6.9607e-15
0.00339816
1.2462e-14
7.45569e-15
9.99401e-15
4.40197e-15
6.13309e-15
6.90529e-14
1.77388e-13
2.39326e-15
0.00233573
1.08831e-14
1.09305e-13
1.79557e-14
1.11698e-14
9.91243e-15
3.42684e-14
0.0356399
8.24726e-16
6.60414e-15
0.337323
3.50461e-15
2.43052e-16
2.62338e-16
0.00124681
5.10317e-16
5.91064e-06
1.68148e-15
4.93077e-05
0.00794393
1.04614e-15
1.34802e-14
0.0402836
1.03323e-14
1.07306e-15
0.000125933
7.05582e-07
0.00982896
2.26832e-06
8.89542e-07
1.33353e-07
1.46711e-14
4.59182e-15
0.00100938
0.000121179
0.0159454
0.0120762
2.90716e-05
2.32658e-16
0.00549051
0.00518369
0.0184956
1.11871e-15
0.0122669
0.0166536
0.00273296
0.00138618
0.00122922
0.00324545
0.0190038
0.0407091
0.00709868
0.0110299
0.00800184
7.5261e-14
0.00289145
0.00362942
0.000845595
0.00257909
0.0142047
0.0137821
0.0194312
2.8395e-14
0.0113278
2.26339e-14
0.00504104
0.0028292
0.000273788