/*--------------------------------*- C++ -*----------------------------------*\
  =========                 |
  \\      /  F ield         | OpenFOAM: The Open Source CFD Toolbox
   \\    /   O peration     | Website:  https://openfoam.org
    \\  /    A nd           | Version:  10
     \\/     M anipulation  |
\*---------------------------------------------------------------------------*/
FoamFile
{
    format      ascii;
    class       volVectorField;
    location    "19.5";
    object      U;
}
// * * * * * * * * * * * * * * * * * * * * * * * * * * * * * * * * * * * * * //

dimensions      [0 1 -1 0 0 0 0];

internalField   nonuniform List<vector> 
111485
(
(1.45921 -1.45906 0.000373158)
(4.28211 -0.0101349 -0.0257634)
(4.21514 0.011112 0.0127161)
(1.45863 -1.4589 0.000133173)
(4.37883 0.0207229 0.000255112)
(1.54117 1.54002 -0.000171188)
(4.30144 0.012999 0.00120446)
(4.43182 -0.0131944 0.00539214)
(4.29867 -0.00209714 0.00348422)
(4.41344 -0.0483181 -0.0198316)
(4.23895 0.0102106 0.0127315)
(4.43498 -0.011995 0.0204403)
(4.1755 0.00395106 0.00946905)
(4.23728 -0.00900172 -0.0296126)
(4.27764 0.0172812 0.00860318)
(4.38154 -0.0299794 -0.0229766)
(4.31843 -0.00511028 0.00707378)
(1.51261 -0.0980515 0.217365)
(4.38542 0.0133643 -0.0095592)
(1.45548 -1.45384 5.83909e-05)
(1.45714 -1.45676 -0.00137562)
(1.54259 1.54232 -0.000206992)
(4.33896 0.0164048 -0.00387731)
(4.42077 -0.0291138 -0.00999561)
(4.33823 0.0129539 -0.00319286)
(1.46909 -1.46359 -0.00218852)
(4.45266 -0.0215362 0.0214684)
(4.22094 -0.00811805 0.001707)
(4.40162 0.00652145 -0.0113149)
(1.457 -1.45694 -7.13392e-05)
(4.44604 0.0687447 -0.0177056)
(4.3958 -0.0099369 0.00128191)
(1.45208 -1.45468 0.00202346)
(1.54198 1.54542 -0.00356086)
(1.54516 0.653153 0.243431)
(1.55177 1.56241 -0.022603)
(4.42323 0.0690094 -0.0273347)
(4.28664 0.00989695 0.0394187)
(4.4014 1.33406 0.0744184)
(4.39319 0.0210652 0.00117586)
(1.52458 1.53858 -0.0108394)
(4.43234 0.00689149 -0.0272631)
(4.39295 0.0217096 0.0073834)
(4.22199 -0.0256661 0.00180576)
(4.4185 -0.0750966 -0.038565)
(1.45979 -1.4479 0.00534475)
(4.42844 -0.0187876 0.0180339)
(4.414 -0.0277459 -0.00907506)
(4.43473 0.000472543 -0.0225935)
(1.44884 -1.42999 0.00796088)
(1.44561 -1.4322 0.00835117)
(1.75109 1.47444 0.0265046)
(1.44061 -1.43574 0.0048193)
(4.42491 0.0203418 -0.0357672)
(1.43732 -1.43207 0.000820705)
(4.37379 0.0116922 -0.00494356)
(4.38007 -0.0192866 -0.0104967)
(1.54393 1.54088 0.0009702)
(3.99705 -0.00801961 -0.0700162)
(4.39905 0.0182949 -0.00257837)
(4.39726 0.0202186 -0.000863044)
(1.45425 -1.45737 0.00215075)
(4.09641 0.00420153 0.0268699)
(4.44813 -0.0115139 0.0339777)
(1.59604 1.44781 0.00376663)
(4.01193 0.00917654 -0.00858747)
(3.08741 -0.239508 0.104436)
(4.41066 -0.0158661 0.00604186)
(3.98471 0.00160724 0.0153971)
(3.77059 -0.00578817 0.00319071)
(4.25123 0.0352634 -0.0136638)
(3.94336 -0.0106957 0.0215156)
(1.57929 -1.42294 -0.0316359)
(4.05028 0.00660242 0.0316108)
(1.45857 -1.45777 -0.000140504)
(4.39454 -0.0101645 0.00804013)
(1.54237 1.54276 4.89671e-05)
(4.42426 -0.00905326 0.0229252)
(1.54217 1.54108 4.64566e-05)
(1.3978 1.36651 -0.0447713)
(4.2738 -0.0643468 0.0431885)
(4.42349 0.015446 0.001724)
(1.53982 1.53739 -8.15097e-05)
(1.45857 -1.45827 0.000757706)
(4.15031 -0.000288518 0.00922212)
(3.97901 0.0110916 -0.0176571)
(3.42321 2.22464 -0.594601)
(4.37033 0.053162 0.00446434)
(4.21096 0.106524 0.0909473)
(4.2734 0.00637866 0.0144861)
(4.50803 0.0886775 -0.0562119)
(4.37668 -0.00757451 0.00692333)
(4.09988 -0.00688476 0.0139554)
(4.18178 -0.0048671 0.00509275)
(4.43498 0.0145017 -0.0250293)
(1.45874 -1.45826 -0.00026454)
(1.45823 -1.45793 0.000707111)
(4.3678 0.0492972 0.0154694)
(4.49615 -0.88537 0.0623954)
(4.09036 0.0140787 0.026518)
(1.45879 -1.45851 0.000471281)
(4.38763 -0.0232152 0.00196226)
(1.55039 1.55316 0.00858095)
(4.3551 0.000541908 -0.00250933)
(4.33058 -0.0236688 -0.0285736)
(1.51347 1.35604 -0.0312851)
(1.54262 1.5423 -0.000216223)
(4.40288 -0.01339 -0.00135559)
(4.05403 -0.0222093 0.00482572)
(3.88811 -0.11496 -0.120448)
(4.14565 -0.00388838 0.00904447)
(4.36783 0.00622368 -0.00273553)
(4.06796 -0.00209372 0.0155457)
(4.00313 -0.0200138 0.00916037)
(1.4721 -1.46458 0.000505542)
(3.86213 -0.0051091 0.0119698)
(1.46401 -1.45909 -0.00220697)
(1.55065 1.5442 0.00627464)
(4.29471 0.0182089 0.0135999)
(1.45821 -1.4573 0.00052053)
(1.47018 -1.46402 -0.00161475)
(2.02666 1.59715 0.0958691)
(1.53352 1.5383 -0.00302672)
(1.54711 1.54335 -0.00355694)
(4.19679 -0.00977895 0.019316)
(1.16578 -0.822398 -0.217247)
(1.93373 1.66497 0.0582509)
(3.90072 -0.00111159 0.0187573)
(1.45836 -1.4577 -0.000453287)
(4.41067 0.331808 -0.11959)
(4.4062 0.0806959 -0.0425611)
(4.35989 0.0501806 0.0162968)
(1.45463 -1.45109 -0.00698466)
(1.98515 1.72942 0.173485)
(1.85575 1.65666 0.0776264)
(4.4009 0.0139368 -0.00722304)
(1.54307 1.54331 -0.0004138)
(4.37652 0.0108272 0.000849693)
(4.34455 0.0162283 0.00746509)
(4.27898 0.0185068 0.0156958)
(3.3594 0.000403419 0.0147376)
(4.38919 0.0230972 0.00435904)
(4.35053 0.027313 0.0158619)
(4.13414 0.00356207 -0.0176884)
(4.32033 -0.00885727 0.00415736)
(4.27582 -0.000635857 0.00821497)
(1.54344 1.54359 -0.000372938)
(1.45834 -1.45843 0.00010876)
(1.54024 1.54097 0.00285602)
(4.37676 0.0175441 0.0022323)
(4.13595 0.00688688 -0.016446)
(1.45712 -1.4561 0.000540992)
(2.87332 -0.0165654 0.0284923)
(4.26994 0.0204599 0.00992626)
(4.67882 0.18773 0.0836075)
(4.40019 0.0125668 -0.0088313)
(4.37699 0.0136746 -0.00327754)
(4.06419 0.000317263 -0.00547214)
(4.72125 0.229974 0.0581786)
(1.45089 -1.46445 0.00580544)
(1.45659 -1.45795 0.0012333)
(4.3892 0.0124486 -0.00956886)
(4.30209 -0.0148438 -0.0154241)
(4.75172 0.259205 0.063229)
(4.68579 0.227569 0.0868327)
(4.09269 0.0076128 0.0215744)
(4.3833 0.0534107 -0.0195948)
(1.5248 1.53746 0.000348471)
(4.80904 0.321443 0.0776765)
(4.58468 0.230468 0.0716282)
(1.5421 1.54286 0.000371893)
(1.45691 -1.45663 -0.000205523)
(3.51717 0.00402009 -0.02605)
(1.54291 1.54369 0.000104507)
(4.35749 -0.00968387 -0.00168293)
(4.18863 0.00281 -0.00996822)
(1.54309 1.50757 -0.00712063)
(1.57499 -1.44467 0.0132697)
(1.4619 -1.45419 -0.00245593)
(1.51937 1.43571 -0.014165)
(1.58558 -1.45935 0.0248711)
(1.45666 -1.45767 0.000939111)
(4.36992 0.0172958 0.00450466)
(4.36745 0.0109445 -0.00827415)
(4.35237 0.0143833 -0.00384091)
(4.31779 -0.0101984 0.0156529)
(4.14758 -0.00929372 0.00320871)
(4.16481 0.00878317 0.0139809)
(3.69334 0.0465927 0.00517291)
(1.45773 -1.45251 -0.000151263)
(4.0453 0.0010741 0.00417171)
(1.57131 -1.45864 0.0146184)
(1.47055 -1.47302 -0.000839715)
(4.20457 0.00965155 0.0145478)
(4.41535 -0.0542768 -0.019003)
(4.36525 0.0090016 -0.0201622)
(4.19484 -0.00426219 0.00661793)
(4.26041 -0.0022344 0.00517988)
(1.45587 -1.4532 0.00321811)
(4.18358 -0.0197726 0.003782)
(4.17881 -0.00544039 -0.025941)
(2.92556 0.937093 0.120857)
(4.2807 -0.0332411 0.00257745)
(4.341 -0.00750151 0.0040382)
(1.46368 -1.45559 -0.00217919)
(4.18724 0.0121716 0.0149455)
(4.38228 0.0094431 -0.00333378)
(1.59767 -1.44287 0.00586423)
(4.21046 0.0100763 0.0153085)
(4.41691 -0.00567163 0.0237057)
(4.13414 0.00376666 -0.0187482)
(4.17659 0.0106887 0.0190511)
(1.58312 -1.46365 0.0196896)
(1.45736 -1.45785 -0.0002128)
(4.17742 0.0106443 0.0189419)
(2.73751 1.7208 -0.168921)
(4.46678 0.0193893 -0.0426355)
(1.54243 1.54324 -0.000881272)
(4.20177 0.00789039 0.0160797)
(4.1928 0.00666183 0.00483066)
(4.44077 -0.0142713 0.0274527)
(1.45995 -1.45923 0.000595805)
(3.91806 -0.000229366 0.0110595)
(4.39696 0.0616268 0.0305254)
(2.42001 1.62905 -0.176766)
(1.54311 1.5432 -0.00118865)
(1.54204 1.54281 0.000350675)
(4.49593 -0.0289031 0.0410359)
(4.19721 0.0994543 -0.00993784)
(1.62372 1.37294 -0.0307468)
(1.81284 -1.40308 0.0554338)
(4.2078 0.00326878 0.00566254)
(4.33644 0.00836749 0.000669159)
(4.40525 0.0110163 0.00243294)
(1.60152 1.39763 -0.0404633)
(1.54234 -1.42486 -0.00528946)
(4.23079 0.0483659 -0.0561792)
(1.45837 -1.45797 0.000874547)
(4.004 0.00456085 -0.0239327)
(4.158 0.00467806 0.0135516)
(4.2051 0.00170417 0.0074545)
(4.21296 0.0106505 0.00897046)
(4.22883 0.00859946 0.0120581)
(1.53844 1.53848 0.00487469)
(3.1859 -0.00983596 -0.121262)
(4.29131 0.0102044 0.0168051)
(1.53557 1.53862 -0.00201529)
(1.54204 1.54282 -0.000210807)
(4.4659 -0.0540195 -0.00406217)
(4.36695 0.0182991 -0.00734836)
(1.58098 1.35096 -0.0412684)
(3.97157 -0.00242256 0.0120828)
(4.27504 0.012091 0.0126999)
(1.45895 -1.45811 -0.000500748)
(1.95062 1.83776 -0.012131)
(4.39703 0.0379937 -0.0168414)
(1.46239 -1.44355 0.000688324)
(1.61839 -1.1454 -0.0278403)
(2.23931 -0.781791 -0.0795882)
(1.45936 -1.45542 -0.000212674)
(4.29324 -0.00770203 -0.00774172)
(4.17587 -0.00762775 -0.0102829)
(4.3559 0.00700259 -0.0126264)
(1.45783 -1.45805 -7.76022e-05)
(4.31429 0.0131441 0.0110172)
(1.45867 -1.45895 0.000146043)
(1.45864 -1.45932 0.000255513)
(1.45624 -1.4508 0.00250679)
(2.94509 0.0110296 -0.0447705)
(4.41823 -0.0206969 0.0245359)
(4.22107 0.0151008 0.0197248)
(4.28903 0.0139773 0.0106634)
(4.4515 -0.0288935 -0.000813835)
(4.26524 0.00965455 0.00946053)
(4.38336 0.0159171 0.00563753)
(4.40658 0.0734576 -0.00790979)
(4.30436 0.00952623 0.000592486)
(4.34747 0.0101682 0.000619709)
(1.56751 1.54201 -0.000828877)
(1.45666 -1.4565 -0.00163)
(2.6875 0.0160599 -0.0645141)
(4.37049 -0.010213 0.00136482)
(4.42079 0.0336283 0.0373843)
(4.15825 -0.00520989 -0.0074413)
(1.45843 -1.45759 0.00036628)
(4.36317 0.0131879 0.00831046)
(4.38586 0.0215803 0.0104013)
(4.27845 0.00833159 0.00709964)
(3.77013 -0.0039163 -0.0180273)
(3.94952 -0.0456159 -0.0980154)
(4.34427 0.0149869 0.00248053)
(4.26974 0.0112406 0.00952326)
(4.35895 0.0321821 -0.019461)
(1.54362 1.54364 0.000156672)
(3.99296 0.0209208 -0.000527387)
(1.54217 1.54262 -0.000552204)
(1.26026 0.965995 -0.19625)
(1.64462 -1.04943 -0.106346)
(4.5257 -0.0401371 0.0572931)
(4.4538 -0.0288897 -0.000861723)
(4.3488 -0.0021248 0.000312869)
(1.46075 -1.45716 -0.000534577)
(1.53776 1.54647 0.0125118)
(4.35452 0.0144317 0.00810837)
(4.16757 0.00753614 -0.00661863)
(1.45778 -1.45682 0.000125391)
(1.45907 -1.45827 0.00131718)
(1.42824 -1.43556 0.0112232)
(4.14267 0.00593084 -0.00326059)
(4.32856 0.00599616 -0.00517171)
(4.1326 0.000790913 0.01475)
(3.99221 0.00695713 -0.0230188)
(4.41364 0.0102553 -0.0102719)
(1.76666 1.52029 0.0395449)
(1.53975 1.54338 0.00303372)
(1.45864 -1.45648 -0.000867486)
(4.33965 0.0143679 0.0118241)
(2.80294 -2.37278 -0.166155)
(4.13633 -0.00491479 0.00405444)
(4.49424 -0.0314643 0.0956124)
(3.61755 0.00249376 -0.07393)
(1.54274 1.54273 -0.000219109)
(1.45708 -1.45846 0.000790322)
(1.45868 -1.45955 -0.000803418)
(1.94233 1.63213 0.098639)
(4.38902 0.0141559 -0.000385786)
(4.4303 -0.0253423 0.00155225)
(1.54657 1.55038 0.000555092)
(4.35123 0.011847 -0.00108327)
(1.62969 1.32363 0.0922352)
(1.46591 -1.4495 -0.0021964)
(4.46053 -0.0158028 0.0365159)
(4.34476 0.0153876 0.0067458)
(4.4479 -0.00686057 0.0109339)
(4.35447 0.0123159 -0.000739068)
(1.48843 1.32328 0.0790255)
(1.92336 1.65633 0.105103)
(1.54001 1.5421 -0.00237385)
(4.34807 0.0149939 0.00575402)
(4.34436 0.0129741 -0.000290145)
(4.42909 0.0747159 -0.0243564)
(1.52972 1.52665 0.00335482)
(3.04095 2.69655 -0.641789)
(4.14927 0.0404449 0.0367808)
(4.42727 -0.0209696 0.0107561)
(4.36594 0.0162855 0.0104305)
(4.14546 0.430021 -0.0351315)
(4.4118 0.0105132 -0.0102878)
(1.53969 1.53967 0.000319825)
(4.41508 0.0121184 -0.00867629)
(4.23704 0.00555839 0.00856697)
(4.47025 -0.103498 -0.000436319)
(4.47355 -0.0263929 0.0532514)
(4.33705 -0.0331302 -0.0299023)
(1.538 1.54448 -0.00603028)
(1.45718 -1.459 -0.00272268)
(1.54615 1.53782 0.00564177)
(1.44925 -1.45336 -0.00053835)
(4.424 -0.0214202 -0.000117852)
(4.3979 -0.00799323 0.00278409)
(4.3725 0.0205501 -0.0144416)
(4.40813 0.0122889 -0.0130835)
(1.53342 1.5351 -0.0063685)
(4.3695 -0.0287457 -0.00950639)
(1.54117 1.54189 0.000584842)
(1.45222 -1.45655 0.00024564)
(4.41003 0.0124144 -0.00954371)
(1.34555 -1.34726 0.0196416)
(2.4237 -0.422702 -0.0356461)
(1.44254 -1.43711 0.00128673)
(1.55685 1.53612 0.012264)
(4.36207 0.00841283 -0.00581732)
(1.54302 1.54219 0.000606537)
(4.32017 0.010952 -0.00314833)
(4.10336 0.00250815 -0.0190595)
(1.54396 1.54384 -0.000332725)
(3.96261 -0.00175417 -0.0194999)
(4.29067 0.00702883 0.00806428)
(1.55319 1.36477 -0.0503368)
(4.28514 0.0187804 0.0193694)
(4.04115 0.020627 -0.00302246)
(4.30857 0.0244727 0.00629879)
(4.0097 0.0148289 0.0491841)
(4.35164 0.0128196 0.00204937)
(4.14728 0.000616296 -0.0094637)
(1.5221 1.30484 -0.00570515)
(1.45761 -1.4522 0.0054769)
(3.72469 0.00826808 0.0880521)
(1.53296 1.53823 -0.00889063)
(4.30018 0.0224228 0.0198431)
(4.46264 -0.0227028 0.0436118)
(1.5543 1.4868 0.0124337)
(1.53982 1.5462 -0.000284589)
(4.4129 -0.00919628 0.00314217)
(4.24788 -0.0193777 -0.0391194)
(4.26533 0.0223436 0.0024419)
(4.42854 0.00884884 -0.00208241)
(1.54264 1.54097 -0.000421797)
(4.48242 -0.0129622 0.0706144)
(4.41081 -0.0150232 0.0219416)
(1.54589 1.54308 1.6319e-05)
(4.33337 0.0655799 0.0534561)
(4.1305 -0.0169566 -0.0427506)
(1.45758 -1.4565 -0.000254295)
(1.45754 -1.45734 0.000275804)
(4.31667 0.0138328 -0.00378213)
(4.33335 0.0041462 -0.00608321)
(1.54988 1.55018 -0.00199158)
(1.4608 -1.45612 -0.00152919)
(2.58311 -1.3888 0.315821)
(1.45829 -1.45924 0.000529661)
(4.33435 -0.00240079 0.00923652)
(1.53495 1.53995 0.00366418)
(1.45874 -1.45911 9.77879e-05)
(4.44948 -0.00512129 0.0144629)
(4.02601 -0.0473698 -0.114708)
(4.40231 -0.0247299 0.0064012)
(4.24091 0.000211103 0.00801648)
(1.54445 1.5434 4.70753e-05)
(1.99885 1.54409 0.0747619)
(4.24632 0.0538555 0.0793742)
(1.87473 1.65588 0.0872783)
(4.22997 0.0183281 0.0329858)
(4.21386 -0.0347721 0.00341883)
(4.39289 -0.012011 -0.0103137)
(3.06463 0.104522 0.107093)
(1.84276 1.58821 0.0785991)
(4.40676 0.00771167 -0.0414407)
(4.45265 0.13445 -0.0464741)
(1.45669 -1.45947 0.00245674)
(4.43356 0.0113436 -0.0431764)
(4.44247 -0.0213406 0.0159603)
(1.46048 -1.46014 0.00153132)
(4.28204 0.245373 -0.13577)
(3.74681 -0.0006915 -0.0526554)
(1.9443 1.53159 0.0627258)
(4.41732 -0.00862072 0.0187207)
(4.36703 0.00607202 -0.00616734)
(4.35518 0.0119587 -0.00225103)
(1.54224 1.54111 -0.000420834)
(4.34378 -0.00699413 0.0298658)
(4.44048 -0.00393764 0.0145597)
(4.32702 0.0417393 -0.00453448)
(2.73409 -0.0364141 0.0456281)
(1.87412 1.77018 -0.0370618)
(2.57597 -0.0646626 0.0860953)
(1.45696 -1.45874 0.00102181)
(3.9993 -0.130174 -0.129129)
(4.34484 -0.0076089 -0.0285361)
(1.54353 1.54249 0.00214472)
(4.11717 0.0098258 -0.0306929)
(3.4025 -0.00846031 0.0605726)
(1.99743 1.76756 -0.0185768)
(1.45872 -1.45774 0.000160234)
(1.70999 -1.44941 0.045841)
(1.45832 -1.45775 0.000106134)
(4.32045 0.0222733 -0.000331273)
(4.35345 0.0226539 -0.0076084)
(4.2971 -0.0131578 -0.0123225)
(4.04078 0.0102678 -0.0223564)
(4.40641 -0.0900622 -0.0180882)
(1.54237 1.53629 -0.00307038)
(4.27273 0.000338027 -0.00945909)
(1.46209 -1.45134 0.000494627)
(4.2277 0.0163224 0.00969469)
(1.54756 1.5472 -0.000896051)
(1.45768 -1.45656 -2.60822e-05)
(1.44672 -1.45076 -0.00204773)
(4.1545 -0.0284035 0.00611572)
(1.45522 -1.45575 -0.000962682)
(1.45911 -1.45869 0.000494619)
(1.52029 1.0151 -0.0630349)
(1.45853 -1.45968 0.000454982)
(1.52788 1.549 0.0143977)
(4.25879 -0.0148232 -0.00657107)
(1.54412 1.5419 0.000640363)
(1.82626 1.35056 0.0023644)
(1.54429 1.54433 0.0016456)
(1.45636 -1.45227 -0.00100323)
(1.54376 1.53995 -0.00105416)
(1.45439 -1.44698 -0.00762298)
(1.53858 1.5384 -0.000220399)
(3.87983 0.000187883 -0.0326303)
(1.54627 1.53789 0.00630454)
(3.9834 0.0554957 0.0783314)
(4.35202 0.00415778 0.000696122)
(4.49768 -0.167344 -0.0241831)
(1.54434 1.53753 -0.0004021)
(3.7929 0.0116791 0.0612434)
(1.54609 1.5405 0.00178736)
(1.45872 -1.45959 -0.000709825)
(4.30706 -0.0415145 -0.0460768)
(4.3038 -0.0345403 -0.0354786)
(4.30054 -0.00924044 -0.0121689)
(4.4961 0.0119557 -0.0751991)
(1.77057 1.49127 -0.0481505)
(4.40064 0.00366686 -0.0232002)
(4.39952 0.00176308 -0.0213495)
(4.35868 0.00954824 3.07654e-05)
(4.29083 0.00486404 0.000876053)
(4.37573 -0.0447145 -0.0292145)
(1.45548 -1.45573 -0.000541778)
(4.36498 0.00779012 -0.00139224)
(2.01433 1.75453 -0.0117397)
(4.33843 0.00796657 -0.00917209)
(1.54312 1.54198 0.00024083)
(4.42258 0.015752 -0.0241532)
(1.99273 1.65557 0.01553)
(4.3625 0.00428346 -0.00609968)
(4.36826 -0.0201222 0.015884)
(1.68499 -0.842101 -0.0099354)
(1.54549 1.54725 0.0169772)
(4.29781 0.00775387 0.00689357)
(1.45847 -1.45736 0.00016897)
(4.43692 0.0181406 -0.0257703)
(4.40185 0.0218628 -0.01803)
(1.54273 1.53851 -0.0125923)
(1.54076 1.54001 0.00372988)
(1.51093 1.35424 -0.0384932)
(1.54215 1.54315 0.000915859)
(3.086 -0.163344 0.0831379)
(4.43909 0.0158065 -0.0260475)
(1.56243 1.52596 -0.0011496)
(1.54031 1.54307 0.00179238)
(3.7987 0.00210975 -0.0109429)
(1.54313 1.54296 -7.15534e-05)
(4.37098 0.014998 -0.0175475)
(1.54296 1.54224 0.000141405)
(4.33111 -0.0265271 -0.0182538)
(1.45949 -1.45869 0.000398267)
(4.06962 -0.021651 -0.0601892)
(3.36843 -0.0127304 0.0048392)
(4.06839 0.0123794 -0.00959763)
(4.36473 0.00581044 -0.00746821)
(1.55226 1.54073 -0.00465514)
(3.9684 0.00381731 -0.000452544)
(1.54576 1.54043 0.00132452)
(1.54293 1.54424 -0.00390249)
(4.3053 -0.0166871 -0.0102921)
(1.54336 1.54195 -0.000174583)
(3.67625 0.000213497 -0.0376761)
(1.4934 1.37491 -0.0433748)
(4.38178 0.0234298 -0.0141252)
(1.45756 -1.45804 -0.000286293)
(4.40964 0.0104727 -0.00940102)
(1.45884 -1.45766 0.000181977)
(1.82757 1.6194 0.045854)
(4.46703 0.159145 -0.00900867)
(4.30174 -0.0353149 -0.0466918)
(4.34903 0.0164551 0.000380891)
(4.40012 -0.0525729 -0.0328078)
(4.32905 0.00904242 -0.00534508)
(4.44582 -0.0301671 -0.00410094)
(1.53317 1.54505 -0.00681274)
(4.34673 0.0221704 0.0144252)
(4.31364 -0.0396505 -0.0461809)
(1.5424 1.54306 -0.00070222)
(3.65194 -0.0461988 -0.157351)
(4.44799 -0.0309138 -0.0222306)
(4.2731 0.0193673 0.0158626)
(1.52959 1.50824 -0.00888521)
(1.89683 0.38826 -0.297262)
(4.18183 0.0112867 0.012845)
(3.43303 -0.0136269 0.0344419)
(3.55121 0.9184 -0.00699556)
(1.89414 -0.958849 -0.079936)
(4.43196 -0.0476881 -0.00682732)
(4.16059 0.0161319 0.0294343)
(4.29826 -0.0414621 -0.044518)
(4.36747 -0.0243585 -0.00951691)
(4.31209 0.0257971 0.0104749)
(3.81904 0.498538 -0.0248671)
(1.90417 1.61768 0.0133151)
(3.88112 -0.141814 0.0316436)
(3.75059 -0.327232 0.0774285)
(1.45672 -1.45731 0.000844982)
(3.82355 0.0257662 -0.0112148)
(1.55171 1.52293 -0.00776454)
(1.81005 1.64595 0.0151268)
(4.32378 0.00510173 -0.00222786)
(3.84431 0.651325 -0.0212641)
(4.62469 -0.389587 -0.0726581)
(4.16474 -0.714026 0.0162747)
(1.80495 1.7162 -0.124035)
(4.40568 -0.025816 -0.00741038)
(4.35874 0.024927 0.0187685)
(1.53946 1.53504 -0.00043982)
(1.98074 1.10472 -0.0444498)
(4.36099 0.031659 0.0186205)
(1.45712 -1.45187 0.000957994)
(1.54279 1.54252 -0.000135164)
(1.5411 1.54065 0.000227068)
(1.54405 1.53608 0.00161796)
(4.40933 -0.0455329 -0.020565)
(1.54319 1.54293 0.000894536)
(1.46447 -1.46441 0.00786362)
(4.32714 -0.0267036 -0.0222981)
(3.98852 -0.000538676 -0.0126041)
(2.15228 -1.88378 -0.0994198)
(4.36179 0.0309727 0.0181037)
(1.79067 1.44927 0.0323387)
(4.38351 -0.0173562 -0.00893931)
(1.43415 -1.43308 -0.00641594)
(1.53989 1.54294 -0.000688504)
(4.39227 -0.0271511 -0.00793288)
(1.54315 1.53465 -0.00592426)
(1.54253 1.5391 0.00105122)
(1.76728 1.69319 0.0495232)
(4.14047 -0.00306529 -0.0029575)
(2.53625 2.12606 -0.279707)
(4.32841 -0.0186046 -0.0093903)
(4.32056 0.00464536 -0.00292765)
(1.4478 -1.43846 -0.01172)
(4.49476 -0.0131387 0.140321)
(4.12399 -0.0241469 -0.0600566)
(4.30938 0.0014236 -0.00226139)
(4.37736 0.0776139 0.00996424)
(4.39241 0.0453948 -0.0943352)
(3.7877 0.00187133 -0.0358631)
(1.54125 1.54051 0.000549316)
(4.39486 0.0045993 0.0111609)
(4.36447 0.0176899 5.69335e-05)
(1.44528 -1.46426 0.00296785)
(4.07468 -0.00276439 0.000386752)
(4.41415 0.0256309 -0.00854824)
(4.40452 0.020325 -0.00695191)
(4.01743 -0.0173573 -0.0406559)
(4.40113 0.0214651 -0.00559249)
(4.40646 0.0218807 -0.00426476)
(1.46285 -1.44354 0.00866553)
(4.40191 -0.00940042 0.0218383)
(3.65675 -0.0220021 -0.00555739)
(1.85945 1.61633 0.100266)
(4.39936 0.0178082 -0.00940207)
(4.20051 0.0050665 -0.00977205)
(2.46706 2.01193 -0.301017)
(4.3243 0.00592985 -0.00153236)
(4.40206 0.0151967 -0.0133196)
(4.20245 0.00151713 -0.0172042)
(4.37055 0.0217454 0.000104499)
(4.32132 0.0467049 0.0178569)
(4.33057 0.00564601 0.000392077)
(1.50951 1.47663 0.00191406)
(4.36997 0.0223249 -0.000866875)
(4.10513 -0.0250347 -0.0542919)
(1.6323 -0.974716 0.038651)
(4.3499 0.0340436 0.0223286)
(4.30239 0.0350634 0.034819)
(4.35575 0.01414 -0.00237429)
(1.54163 1.5388 0.00150355)
(4.23831 0.0253579 -0.0405832)
(1.45865 -1.45228 0.00377324)
(1.54291 1.54336 -0.000796924)
(1.53826 1.52618 -9.41466e-05)
(1.54464 1.53646 0.000841639)
(3.67038 0.00201523 -0.0175321)
(1.83402 1.58251 0.0629188)
(3.32824 -0.228461 0.273207)
(1.45482 -1.45478 0.000249849)
(1.54219 1.5609 9.29938e-07)
(4.36513 0.0420707 0.0234968)
(4.37552 0.0105483 -0.0172476)
(1.4593 -1.45913 4.01147e-05)
(4.38488 -0.0272247 -0.00386379)
(1.45834 -1.45702 0.00483433)
(1.45953 -1.4584 -0.00074133)
(1.43671 -1.43703 0.00444945)
(4.45707 -0.0372133 -0.00773929)
(3.70767 0.0195042 -0.0104294)
(1.81565 1.63739 0.0203291)
(1.4738 -1.45742 0.00390387)
(1.54092 1.54554 -0.00197372)
(1.54186 1.54305 -0.000284305)
(4.47673 0.00864097 -0.0486964)
(4.34076 0.00750479 -0.00318907)
(1.83409 1.72529 0.079405)
(4.42502 0.0142542 -0.0229688)
(4.12283 -0.0574341 -0.167617)
(1.54046 1.54101 -0.000851567)
(4.41316 0.0121988 -0.0199406)
(4.04995 0.00362593 0.021477)
(4.31604 0.0238102 -0.0285388)
(1.54409 1.54311 -0.000217868)
(1.54158 1.54097 -4.15722e-05)
(4.27833 0.0190437 0.0227129)
(4.36139 0.00870144 -0.00139424)
(1.82137 1.65778 0.025885)
(1.53734 1.53775 3.25287e-05)
(1.56571 1.51997 -0.00309883)
(4.32308 -0.00849114 0.0050679)
(1.45686 -1.45702 -0.00195906)
(1.45886 -1.45412 0.00126574)
(1.53827 1.53897 0.000766187)
(4.41093 0.0136109 -0.0169189)
(3.86549 -0.0184709 0.00660858)
(1.5435 1.5436 0.000223426)
(1.71062 0.352749 0.295681)
(1.85758 -0.18779 -0.067308)
(4.29073 0.0226916 -0.00218046)
(1.54058 1.54319 -0.00074092)
(1.54294 1.54003 -0.00077267)
(4.44187 -0.0450878 -0.0101222)
(4.24565 0.0721988 0.0651003)
(1.84777 1.65269 0.0770807)
(2.68504 0.882192 0.0626383)
(4.18543 0.100433 0.117465)
(4.00408 0.0116242 -0.0286157)
(4.24694 0.00351341 -0.00336972)
(1.60032 1.50224 -0.00256762)
(4.2295 0.0112502 0.000433777)
(4.38399 -0.0292464 0.030318)
(1.54668 1.54266 -0.00178078)
(1.44878 -1.42562 0.00191608)
(1.53852 1.53941 -0.000208065)
(1.54121 1.54159 -0.000543842)
(1.5433 1.54549 -0.00168529)
(1.54392 1.54424 -0.000124231)
(4.42118 0.0149482 -0.0183303)
(1.45746 -1.45737 0.00105904)
(1.54141 1.54175 -5.09508e-05)
(1.53395 1.51386 -0.00019257)
(4.42466 0.0147715 -0.0237777)
(4.35702 0.00958658 -0.00319431)
(1.46464 -1.44546 -0.000542297)
(1.44173 -1.42697 0.00222849)
(4.45985 -0.0211801 0.0379626)
(4.23992 0.00370121 0.00559434)
(4.23317 0.00519685 0.00711647)
(1.45938 -1.45533 -0.000780786)
(1.54056 1.54115 0.000820443)
(4.23677 0.00312262 0.00669435)
(1.45891 -1.45786 -1.21162e-05)
(4.18589 0.0111524 0.000981828)
(4.29603 0.00753543 0.0148475)
(4.30504 0.0148376 0.00731377)
(1.46834 -1.45769 0.0045996)
(1.45823 -1.45879 0.000437687)
(1.45803 -1.45893 0.00045048)
(1.54302 1.54327 0.000405189)
(4.34579 -0.0188036 -0.0122534)
(1.54136 1.54242 0.000167319)
(1.54039 1.54079 0.000388855)
(4.32219 0.0114927 -0.015619)
(1.45807 -1.45877 0.000631326)
(4.25258 -0.00154448 0.00534007)
(3.8915 -0.0322426 0.0129403)
(1.55585 1.50587 0.00745047)
(4.3556 0.0140244 -0.00274692)
(2.05954 0.313219 -0.0535801)
(4.29172 0.003269 0.00400131)
(4.45465 -0.0164658 0.00887284)
(3.92207 0.0158132 0.00469876)
(4.43993 -0.000472703 0.0284347)
(3.21077 0.0710808 -0.120361)
(1.83387 1.47059 0.0298708)
(4.28212 0.000157424 0.00245864)
(4.4574 0.0345006 0.00558843)
(4.35405 -0.0125698 -0.00517215)
(1.57992 1.37652 -0.0465881)
(1.95101 0.193704 -0.0982925)
(2.32673 -0.150517 0.0752505)
(4.28228 0.00677218 0.00383202)
(1.54064 1.5429 0.00198619)
(4.21027 -0.00963595 -0.0311786)
(4.29861 -0.00376021 -0.0105067)
(4.17709 -0.0376265 -0.0668254)
(1.59534 -1.12646 -0.0844701)
(1.45864 -1.45878 0.00078102)
(1.45818 -1.45819 -1.7795e-05)
(4.38051 -0.014325 -0.00265308)
(1.79522 1.4902 -0.0184189)
(4.15255 0.0140932 0.00671049)
(1.67197 1.52438 0.020606)
(4.13655 -0.00791048 -0.0278217)
(4.24176 -0.00648261 0.00525661)
(4.20192 -0.00346337 0.015622)
(4.35793 0.0110495 -0.00404043)
(1.54193 1.54085 -0.00046871)
(1.5335 1.52926 -0.00227659)
(1.55976 -1.42123 0.00653548)
(4.35283 0.0162205 0.000882444)
(1.54356 1.5394 -0.000237415)
(1.7767 1.53164 -0.0662843)
(4.45219 0.0784643 -0.0678362)
(1.54893 1.54712 -0.000783534)
(1.53666 1.54403 0.0045242)
(1.45547 -1.44963 -0.00377763)
(1.54319 1.54374 0.000406191)
(4.15655 -0.00237182 0.0149727)
(1.58053 1.49835 0.00498592)
(1.54314 1.54139 0.0001711)
(3.53692 0.498725 -0.365199)
(1.80089 1.45887 -0.0198394)
(1.5372 1.53805 -0.0128402)
(2.10463 -1.24476 0.0763867)
(1.54277 1.5406 -0.00139166)
(3.40418 0.0129526 -0.0299779)
(4.23894 -0.00527297 0.0118422)
(1.45743 -1.45723 -0.000559163)
(4.16818 0.00473603 -0.00967843)
(4.21511 0.683838 -0.0953235)
(4.14958 -0.0406522 -0.0651695)
(4.55941 0.170297 0.0044793)
(4.09375 0.00480886 -0.00743782)
(1.54306 1.5323 0.00486505)
(4.31162 -0.0400217 -0.0459138)
(4.46843 -0.0175147 0.0110447)
(4.14878 -0.0408265 -0.0657699)
(1.45795 -1.45844 -2.11977e-05)
(4.52512 1.19765 0.314352)
(4.14702 0.00578692 0.00808496)
(2.0499 1.64025 -0.0959676)
(4.12006 0.00195838 0.00603919)
(4.49837 0.0553858 -0.0421956)
(4.29483 0.0849059 0.00485689)
(4.25709 -0.0138029 -0.0177499)
(4.25834 0.0137332 0.00103027)
(4.53325 0.064849 -0.0241643)
(4.37858 -0.00707138 -0.0074512)
(4.34222 -0.0076533 0.00491108)
(1.53278 1.53777 0.00608273)
(1.53862 1.53123 0.00481806)
(4.17591 0.011073 0.00560763)
(4.10727 0.00432367 0.00577324)
(1.53993 1.54363 -0.000288446)
(4.23214 0.0056675 0.000411472)
(4.45 -0.0179794 0.00542976)
(4.36585 -0.0120365 0.0045933)
(1.5473 1.53205 9.35845e-05)
(4.27978 0.0846204 0.019436)
(1.54066 1.53928 0.000316035)
(4.34584 -0.00676411 0.00354412)
(4.37063 -0.0083218 0.0032978)
(1.54177 1.54103 -0.000190635)
(4.16333 0.0188918 -0.014714)
(4.36073 -0.00597153 0.00134994)
(4.26271 0.0792394 0.00666271)
(4.20512 0.00143901 0.0139479)
(1.57127 1.54185 -0.00232939)
(4.3754 -0.0132173 0.0146239)
(4.2758 0.0965605 0.00120441)
(4.50732 -0.104813 0.0266027)
(3.79557 0.0488973 0.0149056)
(3.38812 0.010196 -0.0474191)
(1.54471 1.52881 -0.00277895)
(1.53945 1.53818 0.00147816)
(4.20328 0.0563996 0.00741881)
(1.543 1.54337 -0.00043935)
(3.67914 -0.0105029 -0.00980245)
(4.22192 -0.0213674 -0.032285)
(2.57886 0.364824 -0.090537)
(4.67638 -0.296835 0.112106)
(4.12861 -0.183511 0.0526434)
(4.59666 -0.163373 0.0437296)
(1.54303 1.54334 -0.000423413)
(2.09037 1.77514 0.0150438)
(4.36954 0.0126366 -0.003599)
(1.45249 -1.4577 -0.00442487)
(0.798804 -0.554841 0.242891)
(4.33706 -0.0814216 -0.0656449)
(1.54299 1.53895 -0.00286762)
(1.54343 1.54177 -2.42936e-05)
(3.86451 -0.0760034 -0.004161)
(3.16317 -0.202371 0.040736)
(1.54355 1.54353 -0.00024619)
(3.91646 -0.0713992 0.0114863)
(1.54185 1.54034 0.000216048)
(1.54205 1.54423 -0.00256289)
(1.45773 -1.45792 -0.000263248)
(1.45961 -1.45602 0.0035271)
(1.4311 -1.42024 0.00518251)
(1.45767 -1.45504 2.09581e-06)
(3.90306 0.0309763 -0.0144132)
(1.54057 1.53175 -0.00126465)
(1.54198 1.54256 0.000460185)
(1.53441 1.54287 0.00273662)
(3.6353 -0.80341 -0.210775)
(4.12404 -0.0345967 -0.0759896)
(3.99362 -0.000878216 -0.0398603)
(4.36971 0.012857 -0.0039517)
(1.53741 1.52735 0.000283834)
(1.54629 1.54077 -4.008e-05)
(4.18983 -0.071087 -0.0862852)
(1.54278 1.54367 -0.00138076)
(1.54228 1.541 0.000671549)
(2.44624 1.41129 0.0514433)
(4.46352 -0.0598946 -0.00531187)
(4.35571 0.0108 -0.00328872)
(1.54116 1.54119 -0.000169514)
(1.54296 1.5399 0.00178251)
(1.53878 1.53482 -0.00203978)
(1.54107 1.53855 -0.000322068)
(1.54502 1.54482 -0.00168062)
(1.54561 1.54152 0.000179958)
(4.37406 -0.100855 -0.0632557)
(1.54378 1.53951 -0.000314047)
(3.03306 0.0438477 0.0999441)
(4.3951 -0.00995437 0.0112362)
(1.54175 1.5439 -0.000318846)
(1.44913 -1.45505 -0.00395198)
(1.43912 -1.42564 0.00163615)
(3.69335 0.0425157 0.197524)
(1.43182 -1.43008 -0.00571974)
(1.45653 -1.45751 0.00143833)
(1.53508 1.53738 -0.00965472)
(3.96128 -0.0603954 0.00240929)
(1.53995 1.5398 -0.00022945)
(4.33808 -0.0562543 -0.035606)
(3.45963 0.0551305 -0.0175677)
(2.85923 0.00409984 0.112478)
(1.5402 1.54054 0.000479341)
(2.96662 -0.756164 0.060242)
(4.37181 -0.00854884 0.000742253)
(4.40205 0.0101618 -0.0118394)
(1.56461 -1.49217 -0.0182524)
(4.24075 -0.067767 -0.011882)
(4.32562 -0.00873186 -0.00675659)
(1.45852 -1.44849 0.00145615)
(1.59105 1.5097 0.00749932)
(2.06412 -1.58845 -0.130109)
(1.53826 1.53724 0.000214829)
(4.38058 0.00972951 -0.00195876)
(4.36236 -0.00591362 0.0066394)
(4.44417 -0.0522719 0.0217072)
(2.93183 -0.0018698 0.159438)
(1.54331 1.54269 -0.000174471)
(4.38291 0.00994595 -0.00299453)
(1.58805 1.51123 -0.00184045)
(1.92448 1.6299 -0.0075343)
(1.96292 -1.52534 -0.0618164)
(1.54218 1.54265 0.000581691)
(4.38414 0.0126409 -0.00358722)
(1.5398 1.53658 0.00132026)
(1.44335 -1.41925 0.00039999)
(3.99943 -0.0548595 -0.0987184)
(4.28444 -0.00982419 0.00552315)
(1.44341 -1.42015 -0.0044547)
(4.3107 0.0075422 -0.00222363)
(1.64458 1.60742 -0.0102604)
(4.37763 -0.0371516 -0.0191366)
(1.45504 1.39272 0.0158615)
(1.54346 1.54426 -0.000724419)
(1.55144 1.54618 0.00519391)
(1.45879 -1.45902 0.000438364)
(4.25682 0.00891584 -0.00751969)
(3.8075 0.00631542 -0.016434)
(4.41308 -0.00272433 0.0798103)
(1.53809 1.53844 0.000933867)
(1.53873 1.50997 0.00986639)
(4.23753 0.00957086 -0.00714068)
(1.54312 1.54347 -0.000506475)
(1.7861 1.62061 0.0221971)
(1.45795 -1.45682 0.000659887)
(4.19096 0.0263115 -0.00274253)
(4.46037 -0.112942 -0.0316533)
(4.36914 0.0114891 -0.00436406)
(1.46103 -1.45744 0.00237348)
(3.46663 -0.00441564 0.0952341)
(3.61769 0.00382705 0.091408)