/*--------------------------------*- C++ -*----------------------------------*\
  =========                 |
  \\      /  F ield         | OpenFOAM: The Open Source CFD Toolbox
   \\    /   O peration     | Website:  https://openfoam.org
    \\  /    A nd           | Version:  10
     \\/     M anipulation  |
\*---------------------------------------------------------------------------*/
FoamFile
{
    format      ascii;
    class       surfaceScalarField;
    location    "5.2";
    object      phi;
}
// * * * * * * * * * * * * * * * * * * * * * * * * * * * * * * * * * * * * * //

dimensions      [0 3 -1 0 0 0 0];

internalField   nonuniform List<scalar> 
214403
(
-0.00659773
0.00505946
0.00027932
0.00125895
-0.00324509
-0.0109133
0.000928105
0.0132303
-0.00997023
6.61958e-05
-0.000135748
0.0100398
0.00868418
-0.00583829
-0.0145563
0.0117104
0.011954
-0.0151138
0.00359872
-0.000438937
-0.00521435
0.00543116
-5.29999e-05
-0.000163805
-0.000835356
-0.00157674
-0.00897047
0.0113826
-0.0165354
0.00941128
-0.00248457
0.00960864
-0.0226773
0.0160169
0.0161575
-0.00949705
0.0138062
0.0016393
-0.0154321
-1.34236e-05
0.00490313
-0.00971084
0.00199726
0.00281045
-0.0100604
0.00316322
0.0052142
0.00168301
0.000464289
-0.0111426
0.0134208
-0.00274252
-0.0096753
0.0097344
-5.91039e-05
0.00186645
0.0116103
-0.0148831
0.00140635
-0.0117207
0.00979746
0.00296851
-0.00104523
-0.0118018
0.0115121
0.000289718
0.00382825
-3.11574e-05
-0.000934986
-0.00286211
0.015255
-0.00912946
-0.0202833
0.0141578
-7.41878e-05
-0.00304096
8.9405e-05
0.00302575
0.00627158
-0.00612426
-0.000147319
-0.01197
-0.00414113
0.00411736
0.0119937
-0.00221931
0.0132699
-0.010703
-0.000347593
0.00654288
0.000686533
0.00228206
-0.00951148
-0.00997013
-0.00479338
0.0129077
0.00185577
0.00900971
-0.0114106
6.72951e-05
0.0023336
0.00314134
-0.00274744
0.010287
-0.0106809
0.00744234
0.0097341
-0.011727
-0.0054494
0.0108729
-0.00681848
-0.000309581
-0.00374484
-0.00574365
0.00585489
-0.000111239
0.00237106
-0.00494155
0.013188
-0.0106175
0.0137417
0.000651321
-0.00239632
-0.0119967
-0.0055093
-0.00565431
0.00579044
0.00537317
-0.00116282
-0.00655827
0.0058096
0.00191149
0.0042878
-0.00292573
-0.00913901
0.00777695
-0.00165949
0.00827893
-0.00299095
-0.0036285
0.0156143
-0.00038401
-0.0152303
-0.00671106
0.0130898
-0.00637872
0.0012074
-0.0143613
0.00832046
0.0048334
0.00239076
-0.000961263
0.00585022
-0.00727972
0.00553451
-5.81903e-05
-0.00547632
0.00997132
-0.00021477
0.00176677
-0.0115233
-0.0126469
0.00158875
0.0134489
0.000842221
0.000860998
0.00839997
-0.0101032
-0.00401423
-0.0261979
0.0254123
0.00479983
0.00559279
0.00100984
0.00126441
-0.00786705
0.00412773
0.00312203
-0.0100839
0.00283417
0.0130014
0.00779041
-0.014249
0.00117713
0.0110359
-0.0022417
0.00178415
-0.00667712
-0.00393343
0.00882641
0.00303833
0.00467075
0.00138992
-0.009099
0.00179853
-0.00135154
-0.00415471
0.00370771
0.00672724
-0.0121783
0.00848936
0.0115915
-0.0109144
-0.00374285
0.00306571
0.0104173
-0.00190589
-0.0083659
0.0113422
-0.00048112
-0.00249519
0.00861464
-0.0110167
0.000127455
0.00227463
-0.00804032
0.000531888
0.0128481
-0.00533966
-0.0149346
-0.0140503
0.0117919
0.017193
-0.00797843
0.00802963
0.00157781
-0.001629
0.00125939
-0.0101991
-0.00839694
-0.000174852
0.00436501
0.00420678
-0.0130709
0.00561167
0.00845688
-0.000997669
0.0153332
-0.0123504
0.000786832
-0.00376959
0.000703037
0.000258005
-0.0100515
0.00909045
0.000508335
-0.00278604
0.0137747
-0.011497
-0.0340324
0.00357546
0.0038062
0.0266507
-0.00312772
0.00921248
-0.00291689
-0.00316787
0.00453418
-0.00238429
-0.00968156
0.00753167
0.00108989
0.00678341
-0.00862137
0.000748069
-0.000166255
0.00828859
0.0028814
-0.0110037
-0.00164653
-0.000261679
-0.00343386
0.00534207
-0.00882298
0.00964073
-0.000364153
-0.000453591
0.000308427
-0.00884513
-0.00623322
0.00552126
0.00167565
-0.000963685
-0.0164658
-0.00104055
0.00803332
0.00947298
-0.00496622
-0.00211689
0.00422542
0.00285769
0.00732816
-0.0245747
0.00340609
0.0138405
-0.00381487
0.00767706
-0.0041933
0.000331112
0.00546916
-0.0042475
0.00054039
-0.00176206
0.000126603
-0.0103337
0.0102071
3.46671e-05
0.00838489
-0.00841956
0.00736751
-0.00144026
0.000975683
-0.00690293
-0.00445266
0.00635288
0.00210567
-0.00400589
-0.00312747
0.0133265
-0.00320444
-0.00699459
0.00629997
-0.0107401
-0.000406148
0.00484628
0.00718192
0.00758228
-0.0147642
0.0106079
-0.0119215
0.00305438
-0.00174078
0.00103295
-0.00191351
0.0138475
-0.0129669
0.000398956
-0.0022293
0.00997268
-0.00814234
0.00237165
0.0208582
0.00600773
-0.0292376
-0.0182424
0.0160471
0.0104056
-0.00821026
0.000836841
0.00644337
-0.00865848
0.00137827
0.00852588
0.00947363
-0.00310062
-0.0148989
0.0158154
-0.00961037
-0.000311785
-0.0058932
0.000694851
-0.00203637
-0.00639453
0.00773605
-0.00647155
3.68127e-05
0.00643473
0.0096127
0.000331924
0.00066329
0.0119605
0.00100792
-0.0182001
0.00523169
-0.00958935
0.00211472
0.00170529
0.00576935
-0.0061067
0.00151411
0.000750678
0.00384191
0.00148838
0.00106535
-0.0126321
0.0100784
-0.00258015
-0.0150163
0.00957366
0.00802279
0.00604112
-0.00714772
-0.00465687
0.00576348
0.00976262
-0.000102925
-0.00976053
0.00010084
0.00744675
-0.010525
-0.00364617
0.00672445
0.0192825
-0.00583671
-0.00300522
-0.0104405
0.0109651
-1.90761e-05
-0.0100828
-0.000863208
-0.00554283
0.00652552
0.013597
-0.0145797
0.0118696
-0.0041669
-0.0114169
0.00371415
0.00218959
-0.00319805
0.0139088
-0.0129003
-0.0156607
0.0142726
0.0135313
-0.0121433
0.000706808
-0.0122178
0.00471466
0.00679631
0.0152952
-0.000805227
-0.000314432
-0.0141755
0.0108254
-0.00210883
0.00209349
-0.0108101
-0.0125379
-0.0114053
0.013498
0.0104453
-0.00238058
0.00683049
0.0018515
-0.00630141
-0.00531457
0.000289746
0.0103006
-0.00527577
-0.00118931
0.013412
-0.0124826
0.000259885
-0.0116255
0.0107963
0.00210161
-0.00127244
-0.000390525
-0.00678222
0.0161825
0.00213062
-0.00708996
-0.00518826
0.0101476
-0.00562423
7.34319e-05
0.0055508
0.0017246
0.0078421
-0.0072543
-0.0023124
0.0125638
-0.00724529
-0.00192648
-0.00339202
9.92015e-05
-0.00373762
0.00363842
-0.00705772
-0.00190387
0.00265445
0.00630714
0.000733196
0.00403425
-0.00904949
0.00428204
0.0154571
-0.00139607
0.00604062
-0.0201016
0.00110318
-0.00137272
-0.0186173
0.0188869
0.00120032
-0.00533643
-0.00704783
0.0111839
0.000450851
0.00970327
-0.000541419
3.89823e-05
-0.00573632
0.00569734
0.0117767
-0.00437136
-0.00527473
-0.00713767
0.0059593
-0.00587935
0.0130331
-0.0108456
-0.00131686
-0.000870645
0.00130116
-0.00615272
0.00268999
0.00216158
-0.0106299
-0.00322138
0.00216191
0.0116894
0.00885451
-0.0143868
0.00948057
-0.00394829
-0.000395114
0.0130007
-0.0130175
0.000411926
-3.97671e-05
0.0118802
-0.0117711
-6.92912e-05
-0.0165333
0.0131944
-0.010591
0.01393
0.0137859
-0.0133418
-0.000444115
-0.0126651
0.0169579
-0.00309539
-0.00119743
-0.0113075
0.00272024
-0.000853485
0.00944077
-0.018621
0.00143135
0.0119726
0.00521707
0.0032939
-0.00449891
0.00250616
-0.00458734
0.00521523
0.00839037
-0.00901826
-0.00493245
-0.00221347
0.00282257
0.00432335
-0.00671196
0.00438877
-0.00847328
0.0107965
0.00201575
0.000165003
-0.0148458
-0.00664675
0.00663232
1.44292e-05
0.00722893
-0.00695075
-0.000278179
-0.0109187
-0.00071424
-0.00290398
0.00268824
-0.0143692
0.0167272
-0.00504621
0.00646797
0.011128
-0.0141535
-0.00344245
0.0123569
-0.0134217
0.000361063
0.000703651
0.006603
0.00171365
-0.00682312
-0.00149353
-0.0104083
-0.000576673
0.0136733
0.00602236
-0.000435245
-0.0073415
0.00175439
0.00678548
-0.00581055
0.00669365
-0.00766858
-0.0117663
0.00221178
0.0160225
-0.00397901
-0.00557255
0.0184131
-0.0088615
-0.0056695
-0.00625071
0.00151186
0.00168611
0.0044913
-0.0118469
-0.00803699
-0.000709878
0.0129162
-0.00416936
0.0012513
0.00197855
0.00717007
-0.0103999
-0.00380601
0.00931594
-0.00550994
0.00301837
-0.0145213
0.00525226
0.0086517
0.00604293
-0.0130085
-0.012186
0.000147387
0.0151845
-0.00314588
0.00208131
0.00178348
0.00557105
-0.00943584
0.00827601
-0.00833959
6.35736e-05
0.0030848
-0.00116501
0.0103557
-0.0122754
0.0108885
-0.00345069
0.00523359
-0.0126714
0.0200737
-0.00646042
0.0149787
-0.028592
0.00326175
0.00607127
-0.00252267
-0.00681035
-0.00911233
0.00374926
0.00477469
0.000588384
0.00652945
-0.00491854
-0.00013516
-0.00147575
-0.00419507
-0.00531257
0.0154786
-0.00597097
-0.00731414
0.00949636
0.00378522
-0.00596743
0.0110163
-0.000602299
-0.00362854
-0.0170202
0.0112529
-0.000944598
-0.0162314
0.0149765
0.00695509
-0.0057002
0.0103556
-0.0116702
-0.00168486
0.00299947
0.00583601
-0.010551
-0.00552199
-0.00602915
-0.00553161
0.0031265
0.00843426
-0.00860319
0.00267123
0.00849576
-0.0025638
0.00996283
-0.0094804
-0.00653446
0.00605203
6.16546e-05
-8.74315e-05
-0.0093766
0.00940238
0.000226777
-0.0082052
-0.000311549
0.00828997
-0.00237211
-0.0140544
0.00220867
-0.00812765
0.00731023
-0.00139125
-0.00550482
-0.00231847
-0.000779899
-0.000181173
0.0137944
0.000192968
-0.0329733
0.0231948
0.0167672
-0.0069886
-0.00975533
0.000663543
0.000351891
0.00873989
-0.00193363
0.0308796
-0.0363521
0.00740615
0.00154869
0.00238885
-0.00536056
0.00142302
-0.0208788
0.0112491
0.00145554
0.0081742
-0.000245681
-0.0138537
-0.00197476
0.0160741
-0.00571864
0.0208679
-0.0144525
-0.000696844
0.00936643
0.01362
-0.0125885
-0.010398
-0.011176
0.0106465
0.0132185
-0.0126891
0.00435732
0.00608849
-0.00758371
-0.0028621
0.00431363
-0.00290874
-0.00690971
-0.0222076
-0.000879176
0.0181313
0.00495542
0.00655128
0.00100663
-0.00380866
0.00670157
0.00897175
-0.00828393
-0.00738939
-0.0110909
0.00247187
0.0108185
-0.00219949
0.00131525
0.00349022
0.0121524
-0.0128748
0.01271
0.00123388
-0.00106914
0.00799628
0.00627476
-0.00565388
-0.000223426
-0.00159099
0.0074683
-0.0085093
-0.00169425
0.00473135
-0.0163543
0.00695819
0.00466475
0.000497929
0.00884878
-0.00981689
0.000470187
-0.0033897
0.00065619
-0.00315542
0.00588893
0.0136943
-0.00978958
0.000408869
-0.00776068
-0.00607317
0.00816856
0.00566529
0.0293167
-0.0313554
0.0102358
-0.00819709
-0.00565914
0.0070317
0.00283247
-0.00420503
-0.0129134
0.00560923
0.0112561
-0.00395186
-0.00557554
0.00809462
0.0104134
-0.0129325
0.0156015
-0.00602044
-0.0103235
0.000742497
0.00027045
-0.0037846
0.00920545
-0.0056913
-0.00160003
0.00158557
-0.0121716
0.0112323
0.00364508
-0.0120251
-0.00285231
0.0141128
-0.0115785
-0.0031109
0.0029488
0.0043562
-0.0103211
0.00301613
-0.00583454
-0.0106724
0.00949035
0.00701657
-0.00177132
-0.00459724
-0.00139212
0.00575929
-0.00615173
0.013257
-0.0128645
0.00139516
-0.0160502
0.014655
0.00543437
-0.00711734
0.00463176
0.00298366
0.00172366
0.00244732
-0.00715465
-0.000303976
-0.0133893
0.0136933
-0.00734505
0.000975801
-0.00238375
0.008753
-0.000878367
0.0101666
-0.00926086
-2.74062e-05
-0.0068869
-0.00364585
0.0039765
0.00655626
-0.00256738
-0.00609084
-0.00565261
-0.00831067
0.00693197
0.0070313
0.000305664
-0.00852566
0.0146259
-0.00601338
-0.000778828
-0.00783372
0.00782659
-0.000750318
-0.00570852
-0.00136775
-0.00126613
0.0109625
-0.0136617
0.00396537
0.00705075
0.000271172
0.00343243
-0.0107544
-0.000258465
-0.0057963
0.00280083
0.00325393
-0.00403462
0.00524892
0.0101394
-0.0113537
-0.0142655
-0.00368065
-0.00397561
0.0130906
-0.012268
0.000293452
0.00383776
0.00813679
0.00118224
-0.00433497
-0.00770525
0.010858
-0.00563255
-0.0109941
0.00277443
0.0138522
-0.00508914
-0.00564791
0.00586908
0.00486798
-0.0132187
0.0127234
0.0134323
-0.012937
-0.0018013
-0.00314441
-0.009479
0.0144247
-0.0129837
0.00130322
0.0132124
-0.00153194
-0.00226092
0.00603902
-0.0037781
-0.00525608
0.00971621
-0.00731374
0.00285361
-0.000219428
0.0173445
-0.006452
-0.010673
-0.00621869
-0.00300338
0.0124667
-0.00324466
0.00200083
-0.0052471
0.0119056
-0.00865937
0.000549103
0.00778616
-0.00136405
-4.38434e-05
-0.0126775
0.0126717
4.9658e-05
0.0145663
-0.00258034
-0.0212899
0.00930398
-0.0134531
-0.00131797
0.016797
-0.00202596
-0.00730044
0.0110299
0.000905301
-0.00463475
0.00649816
-0.00642308
-7.50789e-05
-0.00773247
0.000748544
-0.00667012
0.013654
-0.0111579
0.0153779
-0.00320457
-0.00101545
0.00695354
-0.00291572
-0.00838432
0.00434649
-0.0134335
0.0135515
-0.000117954
0.0110736
-0.016101
0.00130054
0.00372683
-0.012536
-0.00343183
0.0214377
-0.0054699
0.00926135
-0.000389493
-0.00194428
-0.00692758
-0.00527481
-0.00894761
0.0199817
-0.000937742
-0.0131979
0.00798393
0.0206885
-0.0230747
-0.00219592
0.00458214
0.00559603
0.00266765
-0.00618238
-0.00588047
0.00612606
-0.00024559
-0.00237163
0.0132584
-0.000841821
-0.0100449
-0.00289142
0.00342981
0.0115289
-0.0120673
0.00753861
0.0177085
-0.0103523
-0.0148949
0.0130042
-0.0156023
0.00496087
-0.00236277
0.011745
0.000163654
-0.0119086
0.000217313
0.0114315
-0.0116488
0.0128944
-0.0156063
0.0137856
0.000138733
-0.000116921
0.01007
-0.0100918
0.000247042
0.0183064
-0.0182338
-0.000319653
-0.00156161
-0.00461669
-0.00934701
0.0155253
-0.00572095
-0.00342649
0.00114802
0.0108318
-0.0188412
0.00686143
-0.00909208
-0.00238439
0.00974849
0.00172798
-0.0108084
0.0119343
-0.00318868
0.00206272
0.00169225
0.0088138
-0.00299902
-0.00750704
-0.00425253
0.00104619
0.0072365
-0.00403016
-1.45313e-05
0.00330081
-0.00415247
0.000866184
-0.00459494
0.0112381
-0.00647907
-0.000164131
0.00335715
-0.0105998
-0.00619087
7.55047e-05
-0.00988322
0.00980772
-0.00369312
-0.00354378
0.00164331
0.00559359
0.00550132
-0.00317373
-0.00232759
0.0138124
-0.0137141
-0.0028024
0.00270402
-0.00126026
-0.0081881
0.00755188
0.00189648
-3.48583e-05
4.6796e-05
0.00745501
-0.00746695
0.00371971
-0.00305741
-0.0118348
0.0111725
0.00858851
-0.000219691
-0.00836882
-0.012499
-0.00809529
0.0120612
0.00853302
0.00731453
0.0114527
-0.019705
0.00694933
-0.00250114
0.00391409
-0.00836228
-0.00278459
0.002771
-0.0153578
0.0153714
0.00433383
-0.00853804
-0.00829604
0.0125002
-0.000874685
-0.00195404
0.00920629
-0.00637756
0.00641717
-0.00788645
0.00285773
-0.00138846
0.00354863
-0.00588255
-0.00568632
0.00802024
-0.0113768
0.0128028
-0.00340031
0.00197431
0.0129959
0.016691
-0.0183906
-0.0112964
-0.0100296
0.00998599
4.36063e-05
-0.00112563
0.0118403
-0.0147852
0.0040706
0.000457896
-0.000747491
-0.0114004
0.01169
0.0111336
0.000467006
-0.0128101
0.00120951
-0.0048017
-0.00811587
0.0102061
0.00271145
-0.0116003
0.0164372
-0.00582085
0.000983927
-0.00473379
-0.00579645
0.00344028
-0.000705933
-0.000120625
-0.00818298
0.00900954
-0.0267345
0.000105295
0.00239261
0.0242365
0.00105393
-0.00677099
-0.0035047
0.00922176
0.0166988
-0.00137349
-0.00540532
-0.00991996
-0.00295361
-0.00640584
0.00123334
0.00812611
0.00472326
-1.69891e-05
-0.00470627
0.00785376
0.00418239
-0.00260599
-0.00943016
0.00607827
-0.00481148
0.0119842
-0.013251
0.000390961
0.0124721
-0.00412093
-0.00874213
0.00302488
0.00432157
0.00935233
-0.00594746
0.000430382
0.00551708
-0.00773643
0.00109878
0.00205027
0.00129619
-0.0106895
0.00734307
-0.0101539
0.0148587
0.00449834
0.0153465
-0.00325007
-0.0165947
-0.00976346
0.00958223
-0.0151653
0.0153466
-0.0014576
-0.00731147
0.00255727
0.0062118
-0.00808243
0.0152644
0.00454631
-0.00529168
0.00118498
-0.000439606
-0.00500926
-0.0159654
0.00499847
0.0159762
0.0104867
-0.0104644
-9.69106e-05
7.46413e-05
0.00848022
-0.00990636
0.00210883
-0.000682681
0.00217479
0.0085144
-0.0151715
0.00448233
3.70659e-05
0.00728701
-0.00732408
0.00474385
-0.0121506
0.0095815
-0.00458957
0.0123228
0.0103825
-0.0181157
0.00349747
-0.00356779
-0.0165774
0.0166477
-0.00499835
0.00828128
-0.0166156
0.0133326
-0.0118994
0.00947368
0.0124202
-0.00999452
-0.00742849
0.0101771
-0.00657609
0.0038275
-0.00158103
0.00688753
0.00112151
-0.006428
0.00345865
-0.00504348
0.00520085
-0.00361601
0.00658677
0.00245085
0.0021666
-0.0112042
0.0186398
-0.0126535
-0.000764403
-0.00522194
-7.56447e-06
-0.00904086
0.00904842
0.00566646
-0.00828657
-0.025408
0.0280281
-0.001139
-0.0123098
-0.00373092
0.0171797
-0.000745243
-0.00564305
0.0063883
0.00172653
0.00818267
-0.00129647
-0.00861273
-0.00227639
-0.008218
0.00663198
0.00386241
0.00641644
-0.00537452
-0.00943886
0.0162655
-0.0126607
0.0036048
0.00381872
-0.00742351
0.0123111
-0.000236975
-0.00146733
-0.0106067
-0.00237299
-0.00403649
0.00640948
0.00437459
0.00290689
0.0245618
-0.0295434
-0.0104281
0.0154097
0.00375822
0.00800426
-0.00612245
-0.00564003
-0.00859176
0.0164538
0.0109332
-0.0187953
0.00970637
0.00336951
-0.00129741
-0.0117785
0.0159718
-0.0106506
0.00687213
-0.0121933
-0.00900467
0.00411714
-0.0112921
0.0161797
-0.0146328
0.0262182
-0.0102733
-0.00131209
-0.000392206
-0.00623238
-0.00859255
0.0152171
0.0118755
0.00490994
-0.0139352
-0.00285033
0.00637326
-0.016985
0.0107165
-0.000104748
-0.0149855
-0.000567471
0.0098029
0.00575011
-0.00300694
0.00777715
0.00338258
-0.00815278
-0.00190303
0.00763219
0.00614288
-0.011872
-0.0156416
0.00804327
-0.000754579
0.00835287
0.00141939
-0.00423457
0.00842061
-0.00560542
0.00665756
-0.003349
0.00237632
-0.00568489
0.00641799
0.00123415
0.000632067
-0.00828421
-0.0094401
0.0101267
0.0037541
-0.00444072
-0.00224382
0.0120132
0.000241199
-0.0100106
0.00969479
-0.00569102
-0.00375819
-0.000245588
0.00834697
6.18133e-05
-0.00840878
0.00610215
0.00472383
-0.00107214
-0.00975384
0.00286452
0.00754998
0.00645311
-0.0168676
-1.19977e-05
-0.0135778
0.0135898
-0.00707712
0.027411
-0.00400531
-0.0163286
-0.000126261
0.0102163
-0.0100901
-0.000679883
-0.00733329
0.00131687
0.0066963
-0.0133411
0.00679821
0.00516331
0.00137959
0.0027235
0.00226217
-0.0155905
0.0106048
0.00792867
0.0125282
-0.00468155
-0.0157753
0.0120015
-0.00411221
-0.0114879
0.0035986
-0.0149967
0.00855479
0.0228764
-0.0164345
-3.90317e-05
0.00577031
-0.00577042
3.91361e-05
-0.00596919
0.00590722
6.19739e-05
-0.0152398
0.000234002
0.00641409
0.00170545
0.00368124
0.0100826
-0.0154693
0.00792366
-0.00942469
0.00607929
-0.00457826
-0.00765335
0.0067021
-0.000253422
0.00120467
-0.00158958
-0.012583
0.0160878
-0.00191526
-0.0056365
0.00271433
0.00892339
-0.00600123
0.0097288
-0.00375039
0.00143355
-0.00741196
-0.0064325
-0.00112112
0.00752993
2.36964e-05
-0.00111514
-5.99282e-05
0.0105931
-0.00941807
0.00133935
-0.00112948
0.0105541
-0.010764
-0.00950048
0.013281
-0.0139195
0.010139
6.10746e-05
-0.011964
0.0119029
-0.00426368
0.000372873
0.0107507
-0.00685993
-0.00814645
0.00952412
-0.0129896
0.011612
-0.00835794
0.000634034
0.00253564
-0.00388408
0.0105213
0.000587648
-0.00722491
-0.00279436
0.000388339
-0.00473164
-0.00414133
-0.0134538
0.0135147
0.00408043
-0.00599253
-0.000699771
-0.00150821
0.00820052
-0.0205307
0.00693657
0.00202701
0.0115671
-0.00646885
0.01489
-0.00741711
-0.00100402
0.00451389
0.0017732
-0.00908145
0.00893393
0.00910854
-0.0180425
0.0012111
0.0196195
-0.00453963
-0.0162909
-0.000250739
-0.000349734
-0.00869656
0.00929703
-0.00942068
0.0155143
-0.00625489
0.00016131
0.00893514
-0.00564175
-0.00809872
0.00480533
0.00224193
-0.000300686
0.00274433
0.0137403
0.00383016
-0.0198584
0.002288
-0.00954002
-0.00123849
0.00312565
0.00765286
0.00358605
-0.0039892
-0.00539331
0.0165462
-0.0111372
0.00866698
-0.014076
-0.00183295
0.0106843
-0.018477
0.0096257
0.00641256
-0.00810675
-0.000821066
0.00251525
-0.00707335
-0.00246204
-0.000239109
0.0097745
-0.00528959
-0.00499913
0.0102887
0.00132886
-0.0142103
0.0126006
0.000280846
0.00544112
-0.00524941
-0.0054813
-0.00886839
0.0112547
-0.00214679
-0.000239516
0.0126748
0.00348823
-0.0136544
-0.00250864
-0.00490855
-0.00716496
-0.000822486
0.012896
0.00811328
-0.00246846
0.00940783
-0.0150526
-0.00899843
-0.000502051
-0.0107575
0.00575836
0.00138117
-0.012018
0.00384541
0.00679147
0.00351018
-0.0125758
0.00692476
0.00214087
0.00188023
0.000492765
-0.00943297
0.00705997
0.00143387
0.00615176
-0.000418767
0.0106403
-0.00210207
-0.00811941
-0.00416865
-0.000434592
-0.00390185
0.00850509
-0.00247044
-0.00332768
0.00636264
-0.000564518
-0.00983255
-0.000137578
-0.0166063
0.00596414
0.00873913
0.0236292
-0.000198682
0.00322818
-0.0266587
-0.0103558
0.0160831
0.00326444
-0.00899177
-0.00294825
0.00161434
0.0101698
-0.00883591
0.00122793
0.00348601
-0.00269667
-0.00201727
-0.0177767
-0.00368282
0.015341
0.00611856
0.000390804
0.00753861
-0.00151297
0.000230874
0.00378086
-0.0118624
0.00785068
-0.00731057
-2.56118e-05
0.00269455
0.00464164
-0.010109
0.0124927
-0.00199291
0.0057038
-0.005143
-0.000560804
-0.00838567
0.00120441
-0.00651442
0.0136957
-0.00380272
0.00572282
-0.00441104
0.00249094
-0.00818712
0.00921967
-0.00380967
0.00277712
0.00366706
-0.000605618
-0.0086554
0.00559396
-0.00366129
0.0229534
-0.0308924
-0.00330652
-0.00230767
0.00225965
0.00335453
0.0108549
-0.0169484
-0.000766787
0.00686035
-0.00456652
0.00340729
0.0058733
-0.00471407
-0.00136046
0.00721829
-0.00198756
-0.00387027
-0.0081183
0.00180119
0.00189779
0.00441933
-0.00456337
0.000391928
0.00417144
0.0104415
-0.00497213
-0.00529791
-0.000171477
0.000771794
0.00525593
-0.00797793
0.00195021
-0.00559005
-0.00677541
0.00690946
0.005456
-0.00291353
0.00751055
-0.00643453
0.0018375
0.00270087
-0.0051117
0.00352273
-0.0011119
0.00983048
0.000265678
-0.0100962
0.00846447
-0.0104248
0.00515965
-0.00319933
-0.0132821
-0.000381972
0.0136641
0.00544952
-0.00451995
0.00105447
-0.00198403
-0.0004309
0.00942397
-0.0102875
0.00129443
-0.0047053
0.00589084
0.00151534
-0.00526521
0.0112801
0.0104224
-0.00892781
0.00884892
7.88913e-05
0.000242603
-0.0141121
0.0138695
0.0190721
0.00229686
-0.00405297
-0.0173159
0.00398775
-0.0155519
-0.00192552
0.0134897
0.0030171
0.00356214
0.00201565
-0.00859489
-0.00534789
-0.00535269
7.18987e-05
0.0106287
-0.00255184
0.00350592
-0.00630197
-0.0117501
0.00212368
0.0154241
-0.00579769
-0.0230821
0.0169034
0.00744163
-0.00126299
0.010205
8.36593e-05
-0.0102886
-0.00582589
-0.00784087
0.00506964
0.00859712
-0.00582179
-0.00845057
0.00252225
-0.00836826
0.00454427
0.00525786
0.00340595
-0.00443036
-0.00813223
0.00915665
-0.00571762
2.83336e-06
0.00571479
-0.0133792
0.00543874
0.00552519
0.00241523
0.00336607
-0.00901049
-0.00272384
0.0114865
-0.0036458
-0.000287898
-0.00755279
-0.00771808
0.012788
0.00758832
-0.0126582
-0.00228093
-0.00478114
0.00177802
0.00528406
-0.0032445
-0.0026096
0.00585409
-0.00567497
-0.0119314
-0.0054757
0.00267847
3.4997e-05
0.00540501
-0.00811847
0.0109294
-0.00795957
-0.0115091
0.00853935
-0.0040561
0.00144645
0.00819286
-0.00558321
0.00766275
-0.00539432
-0.000759436
-0.00150899
-0.00878642
0.00142688
0.00686306
0.000496481
-0.00544094
0.0124955
-0.0135507
0.00528334
0.000391538
0.00787585
0.0127516
-0.0101959
-0.00802225
0.00546651
-0.010145
0.00211433
0.01896
-0.00982317
-0.00647898
0.0105734
0.00572875
-0.00114739
0.0102322
-0.00388236
-0.00520246
0.00058535
-0.0060676
-0.00399993
0.00948218
0.0116493
-0.00768518
-0.000472813
-0.00349129
0.00361195
0.00269874
-0.00886253
-0.00244958
0.00277271
0.00683722
-0.00716035
-0.00204054
0.0106478
-0.0131223
0.00451503
-0.00641782
0.00154847
0.00155292
0.00331644
-0.0140128
0.0142524
-0.000239624
0.00967463
-0.0095377
-0.000136929
0.00389276
-0.0150239
-0.00576962
0.0169008
0.00343434
0.00652691
0.00152524
-0.000163862
0.00569302
-0.00552916
0.00918849
0.00823312
-0.0174216
-0.0101354
0.00618755
0.0043735
-0.000425625
-0.00569141
0.00187574
0.00462709
-0.00081143
-0.017078
0.007971
0.00936822
-0.00026125
-0.00551547
-0.00615148
0.00594933
0.00879265
-0.00138694
-0.0056601
-0.00174561
-0.00939495
0.0101464
-0.00619244
0.001666
-0.0105778
-0.000540958
0.00945272
-1.29261e-05
-0.00521478
0.00522771
0.0255314
0.000193432
0.00272403
-0.0284488
-0.000961936
-0.00188803
-0.0139034
0.0167533
0.00441795
-0.00598211
-0.00278553
0.00434969
0.0017234
0.0132135
-0.005345
-0.0095919
0.0143976
-0.0144045
-3.11521e-05
3.80338e-05
-0.00808162
-0.0072929
0.0113985
0.00397598
0.00471622
0.00360557
-0.00939636
0.00107458
6.6574e-05
0.00874807
-0.00893916
0.000124523
-0.0120323
0.00385582
0.00975074
-0.00157426
0.00921519
0.00557075
-0.00932923
-0.00545671
0.000218981
-0.00823403
0.00417829
-0.00214404
0.0123633
-0.00663635
-0.000862854
-0.00103311
0.00853232
-0.0111203
0.000578788
0.0105415
0.0162752
0.00703056
-0.00527194
-0.0180338
-0.010629
0.000229237
0.0106187
-0.000969315
-0.00252245
-0.00644111
0.00993288
-0.00125473
-0.00127859
-0.00343231
0.00596563
0.00267857
-0.0135911
0.0102476
0.000664914
0.00845272
-0.00131817
-0.0082252
0.00109065
-0.010421
0.00217392
0.00083274
0.00741436
-0.00397541
0.00261058
-0.00540046
0.00676529
0.00228355
0.00144595
-0.0134467
0.00971717
0.000469866
-0.00912779
-0.000634601
0.00929252
0.00904571
0.00118639
-0.000156097
-0.010076
-0.0107985
0.00251557
0.00977128
-0.00774976
-0.0102867
0.0180365
0.0149543
-0.00760467
0.00322534
-0.010575
0.00117598
0.00838133
-0.00513936
-0.0121085
0.002223
0.00429606
0.00558941
0.0149432
-0.0154014
0.000458193
-0.00907769
-0.0030822
0.00635476
0.00580513
-0.0117615
-0.00913261
0.00612476
0.0147693
0.0121725
-0.0127126
-0.00155601
0.0020961
-0.0017693
0.00591249
-0.0046608
0.000517621
-0.0152949
0.00498632
0.0035144
0.00679416
-0.0225346
0.028022
0.00467345
-0.0101609
0.0100581
-0.0218014
-0.00112505
0.0128683
-0.00894621
0.0113847
-0.0210967
0.0186583
-0.00936389
0.0206188
0.00205025
-0.0133052
0.000825632
0.00980516
-0.00229029
-0.0083405
0.0149111
-0.0111847
-0.000375937
-0.00335046
-0.00260973
-0.00250548
0.00383047
0.00128474
-0.007033
-0.014641
0.0125039
0.0091701
-0.0100016
0.0133216
0.011591
0.00816707
-0.00600383
-0.00748301
0.00531977
0.00299468
-0.00387527
-0.00171106
0.00259165
0.0066262
-0.00655511
-0.00872885
0.00865777
-0.00268687
0.00770902
-0.000557919
-0.00446422
-0.0107084
-0.00171119
0.0132452
-0.00805532
-0.00198063
0.0099585
7.74455e-05
0.00332149
-0.00742035
0.00409886
0.00263768
-0.00350209
0.0130455
-0.0121811
0.0102207
-0.0143779
0.00208561
0.00207154
0.0065161
-0.00702967
0.00051357
-0.0102747
0.000273149
0.00916192
-0.00349321
-0.00884333
0.00317462
0.00288688
0.00233802
0.0102544
-0.0154793
0.00636778
-0.00691397
0.000546184
-7.88016e-05
0.00796132
-0.00899962
0.0011171
-0.0112847
-0.0010868
0.0150092
-0.0048543
-0.00082945
0.00112143
0.00456233
0.000670835
-0.00554173
0.00408806
0.000782835
0.00908495
-0.0086953
-0.00215896
0.00104875
0.0150741
-0.00949627
-0.00662659
-0.00517515
0.0109322
-0.00575708
-0.0140237
0.00537049
-0.00328826
0.0119415
0.0110403
-0.0100053
-0.0163299
-0.00539925
-0.00645881
0.0221978
-0.0103398
-0.0157871
0.0100534
0.0143357
-0.008602
-0.000348553
-0.0134644
0.0138129
0.0213596
4.25495e-05
-0.0123095
-0.00909269
0.0123847
-0.00797651
-0.00109992
-0.0033083
-0.00903208
0.00641118
-0.00161587
0.00423677
0.000122227
-0.00929893
0.00917671
-0.0067652
0.00696331
-0.000198115
-0.00492716
-0.00521081
-0.0133441
0.023482
-0.0125674
0.00274044
-0.00140412
0.0112311
0.00292762
0.00475119
0.0129325
-0.0116686
-0.00965002
0.00838607
-0.00358043
-0.00738424
0.00814223
0.00282244
-0.00743776
-0.00378282
0.0112318
-1.11939e-05
0.00244214
-0.00140542
-0.00690694
0.00587021
0.00820933
0.000365729
-0.0104959
0.00192082
0.00253298
-0.00176141
0.00273126
-0.00329508
0.00328276
-0.00271893
0.00671774
0.0065759
-0.00671658
-0.00657706
0.00330368
0.00771921
-0.00798749
-0.0030354
0.00697973
0.00302598
-0.00549182
0.00867515
-0.0105182
0.00220874
-0.0115397
0.00806781
0.0043445
-0.000872584
0.0136747
-0.00453131
-0.0143185
-0.00364499
0.00977654
0.00490875
0.0095381
-0.00464577
-0.00804045
-0.00219355
-0.00130573
-0.0128214
0.011989
0.00113229
-0.000299941
-0.000799529
0.0160315
-0.00166093
-0.0135711
-0.0104109
0.00211633
0.00464963
-0.00167148
-0.0105569
0.00296672
0.00926161
0.00958054
0.00133034
-2.79649e-05
-0.0108829
-0.0143081
-0.000117393
9.5566e-05
0.0143299
-0.00369547
0.00403819
-0.00657973
0.00623701
-0.00984801
0.0124575
-0.0012893
-0.00132016
0.0129434
-0.0120873
-0.0107041
-0.00956988
0.00863107
-0.00273754
0.00367636
0.00770436
-0.000347201
-0.00242366
-0.0049335
-0.0144818
0.0139631
0.00684679
-0.00632807
0.00690137
0.00262849
-0.000876388
-0.00865347
0.0024679
0.00625776
-0.0078239
-0.000901759
-0.0046316
0.00465902
-2.74215e-05
-0.00271122
-0.00692157
0.00694592
0.0105304
-0.0104403
-9.00814e-05
-0.00589839
-0.00470406
0.00462035
-0.000625385
-0.00708309
-0.000775947
0.00848443
-0.000807667
-0.00621918
0.00555926
0.00146759
0.00970338
-0.011029
0.00132562
-0.0124316
0.012762
0.0116791
-0.0120095
-0.00837657
0.00647079
-0.00440721
0.00631299
-0.00336571
0.00143823
0.00304784
-0.00112036
-0.000354017
0.0151217
-0.000133162
-0.0146345
-0.0076837
0.003725
0.00378385
0.00439562
0.00559422
-0.00975968
-0.000230162
0.000423264
-0.0121264
-0.000475168
-0.0109298
0.0109303
-5.9274e-07
-0.00736562
0.00370851
-0.00810436
0.00248047
-0.0054884
0.000222403
0.0048204
0.0020931
0.00720757
0.000140399
-0.00616367
-0.00118429
0.00603371
-0.0150602
0.0120738
-0.00304724
0.00250523
-0.00341597
0.0127052
-0.0117945
0.0155689
0.00458435
-0.00239647
-0.0177568
-0.00395291
-0.00647325
-0.00210053
0.0125267
0.00471213
0.0196387
-0.017731
-0.00661986
0.00226267
0.0142362
-0.013741
-0.00275788
-0.00487826
0.000643849
0.00999858
-0.00576416
-0.001721
0.0139718
-0.00753865
0.0101103
-0.00798328
-0.00311435
0.00098731
0.00330912
0.00865356
-0.0119627
0.00806954
0.0017913
-0.00107485
-0.00878599
-0.00742002
0.00593008
0.000596459
0.000893478
-0.000723104
-0.0105437
0.000616173
0.0106506
-0.00773574
-0.00098189
-0.000321951
0.00903958
0.00444005
-0.00984316
9.78778e-05
0.00386948
0.0058758
8.37648e-05
0.00638831
-0.00647207
0.000794603
0.0112647
-0.0287811
0.0167218
0.00319316
-0.0080479
0.00764646
-0.00279172
0.00458339
0.00523189
-0.00362347
-0.00619181
4.36253e-05
-0.00574475
0.00570113
-0.00311889
-0.00221507
0.0126356
-0.0073016
-0.00386949
0.0129251
-0.0111542
0.00209863
0.0140447
-0.00975889
-0.00942436
0.00513856
-0.00576447
0.00392086
0.00179237
5.12378e-05
-0.000803241
0.00446963
-0.00238896
-0.00127743
0.0151467
-0.0118375
0.0070183
-0.000811972
-0.0114878
0.00528148
-0.003204
0.0029965
0.00358984
-0.00338234
0.000179937
0.0144876
-8.74363e-05
-0.0145801
-0.0105811
-0.00348459
0.0143426
-0.000276923
-0.00299841
-0.00129242
0.00329846
0.00427045
-0.00627649
0.00855867
0.00602406
-0.0127995
-0.00178318
-0.00263566
-0.00172247
-0.0114733
0.0158315
0.0150922
-0.0119371
-0.0210281
0.017873
-0.00584187
-4.49888e-05
0.00588686