/*--------------------------------*- C++ -*----------------------------------*\
  =========                 |
  \\      /  F ield         | OpenFOAM: The Open Source CFD Toolbox
   \\    /   O peration     | Website:  https://openfoam.org
    \\  /    A nd           | Version:  10
     \\/     M anipulation  |
\*---------------------------------------------------------------------------*/
FoamFile
{
    format      ascii;
    class       volScalarField;
    location    "5.2";
    object      SgRate;
}
// * * * * * * * * * * * * * * * * * * * * * * * * * * * * * * * * * * * * * //

dimensions      [1 -1 -3 -1 0 0 0];

internalField   nonuniform List<scalar> 
111485
(
4.14292e-17
9.97593e-06
2.74658e-05
7.9062e-19
5.79567e-05
4.89915e-19
5.35173e-05
7.20979e-06
2.24106e-05
1.40254e-06
5.3809e-05
1.1166e-05
5.46233e-06
9.65275e-07
7.62545e-06
3.71938e-05
1.62383e-06
0.0030392
1.24175e-05
9.83503e-17
6.49117e-18
1.53067e-18
3.04311e-05
4.20807e-05
1.03592e-05
5.17785e-18
4.80434e-05
2.13341e-06
1.90998e-05
5.44522e-19
5.38319e-05
2.21932e-05
2.95873e-17
8.11536e-19
9.0877e-06
4.25753e-18
1.2899e-05
4.87223e-06
5.57153e-11
2.7281e-05
8.49082e-18
8.49981e-05
1.8791e-05
1.59765e-06
6.07904e-08
1.16182e-16
3.71509e-05
8.61991e-07
5.67786e-05
6.71785e-18
4.50164e-18
1.47863e-16
1.79724e-18
5.83016e-05
2.43215e-17
5.17711e-05
3.94878e-06
7.64106e-18
2.72313e-08
5.69312e-06
1.92009e-05
9.76941e-18
5.30752e-06
0.000113049
3.13951e-17
4.06183e-06
0.000374936
0.000114046
1.22025e-06
6.843e-06
1.23116e-08
7.28486e-06
2.24468e-17
3.2212e-06
1.40203e-16
8.2163e-07
2.42019e-17
5.00906e-05
3.88524e-18
5.09689e-17
9.05754e-09
3.99298e-05
1.11498e-18
1.41409e-17
1.05127e-05
4.94711e-06
5.19228e-13
2.93263e-05
6.55635e-08
8.51865e-06
4.57076e-07
4.90918e-05
1.33773e-05
7.24093e-08
6.43073e-05
7.13383e-18
1.81614e-18
1.98647e-06
2.4441e-11
1.50059e-06
9.09726e-18
2.24521e-05
4.49992e-19
2.30376e-05
5.65395e-06
6.40341e-18
3.57876e-19
9.10532e-06
4.52415e-06
9.46503e-11
7.09358e-06
5.78776e-06
4.20408e-06
3.60122e-06
3.44821e-17
3.88418e-08
8.58846e-18
2.96434e-18
1.46324e-05
1.20483e-17
1.88819e-18
5.03147e-17
2.12698e-19
2.29136e-18
2.10657e-06
3.25243e-09
3.24284e-18
1.91525e-06
9.95342e-19
6.50127e-08
1.51335e-06
3.73512e-05
5.50899e-17
3.93777e-16
1.91452e-17
5.87112e-05
2.63498e-18
5.03804e-05
2.93515e-05
3.16778e-06
2.601e-07
2.38348e-06
2.64904e-05
3.43596e-06
4.59573e-06
1.51161e-05
1.50997e-18
6.15877e-17
1.07249e-17
3.285e-05
2.0231e-06
3.39264e-18
2.23935e-10
5.92649e-06
5.55713e-10
1.26089e-05
1.97758e-05
1.23608e-05
9.58159e-11
8.69774e-18
1.49691e-18
6.28297e-05
2.86859e-05
2.74086e-09
4.08198e-10
6.60539e-06
4.32074e-06
3.1323e-18
6.62768e-09
5.9752e-08
5.99456e-18
2.36064e-17
1.65816e-07
1.4864e-18
7.06009e-06
2.61231e-06
2.35781e-18
9.59048e-18
1.52724e-17
3.83409e-17
3.05078e-18
1.56214e-17
1.69886e-06
8.16401e-06
3.48259e-05
5.03185e-06
8.6241e-06
4.54918e-06
1.00309e-07
1.15551e-17
5.40979e-06
3.42117e-18
4.44137e-18
7.43148e-06
1.28321e-05
3.15087e-05
1.30171e-05
5.68447e-06
7.51626e-17
7.68539e-06
6.48316e-07
5.35641e-08
1.56943e-05
2.77457e-06
1.08037e-16
4.2618e-06
3.16354e-05
4.70428e-18
2.21177e-07
8.99199e-06
2.57895e-06
4.05136e-07
2.89594e-17
2.39472e-17
9.32464e-06
9.79711e-15
0.000145144
6.48931e-18
7.63586e-06
2.36703e-05
0.000144923
1.32754e-17
3.54873e-06
1.6284e-05
2.3607e-16
2.52617e-18
2.38574e-18
0.000187695
3.86228e-10
7.93569e-18
5.44464e-18
1.11984e-05
9.58075e-06
1.81131e-05
1.64034e-17
2.75401e-17
1.39831e-08
3.38645e-17
3.06847e-06
1.06195e-05
1.85422e-05
1.34735e-05
1.15467e-05
2.55363e-18
3.35056e-10
7.22605e-07
8.26126e-18
1.17521e-18
3.67705e-05
2.51068e-05
6.18291e-18
7.16295e-06
1.23496e-05
4.52093e-18
3.07493e-16
1.6704e-07
9.96874e-19
2.49701e-17
4.89917e-08
6.41185e-18
1.82342e-05
1.33672e-05
4.10213e-06
2.06617e-16
1.37487e-05
2.52531e-18
9.18634e-18
7.75204e-17
2.84936e-11
2.7185e-05
7.10566e-06
6.08562e-06
4.43068e-05
1.41108e-05
1.96089e-06
6.95813e-07
4.01465e-05
1.10225e-05
3.74317e-18
8.17606e-18
3.33108e-10
2.67449e-05
2.87728e-05
1.4804e-05
2.05945e-18
8.22541e-06
2.53187e-06
3.50267e-06
4.10719e-09
4.44405e-09
1.57928e-05
2.6129e-06
2.27195e-06
1.98507e-17
8.60377e-07
1.70448e-18
1.21542e-10
2.1207e-16
0.000302324
8.21319e-05
1.49619e-05
2.80688e-18
2.14054e-18
1.05678e-05
2.06292e-06
1.30995e-19
1.1193e-17
4.66804e-17
3.89686e-07
7.22481e-05
4.5098e-06
1.73387e-05
2.2871e-05
8.02703e-18
3.1634e-18
6.13461e-18
4.48485e-06
1.68415e-15
1.18814e-06
0.000225001
4.63574e-10
3.12148e-19
9.56409e-18
2.17962e-17
2.60828e-16
7.07643e-05
1.45363e-05
6.74335e-18
6.10365e-06
5.45929e-17
1.36169e-18
8.1161e-05
6.81165e-06
1.33084e-05
1.08697e-05
1.7869e-16
1.56024e-16
7.67949e-18
1.09847e-05
2.25889e-05
5.87442e-06
8.08583e-18
2.88433e-13
2.14091e-07
2.46942e-06
9.41143e-06
5.06564e-08
3.40427e-05
1.8336e-19
4.48733e-05
4.07167e-06
9.30103e-06
2.91913e-05
1.6687e-05
8.3693e-18
1.12141e-16
2.02256e-18
7.53299e-19
3.81173e-05
1.11743e-05
4.1695e-05
8.06644e-05
3.2154e-18
2.31136e-05
7.43177e-19
2.74621e-17
1.93143e-05
2.83832e-18
7.45709e-05
1.37779e-16
1.95768e-19
2.79345e-05
7.22389e-19
1.69076e-05
3.70321e-07
2.06857e-19
1.26722e-06
1.91128e-05
7.17824e-18
1.02019e-05
1.18076e-05
9.43695e-06
6.9306e-07
3.66659e-06
7.13531e-06
7.99848e-17
1.68441e-17
1.99617e-06
1.00349e-18
6.91406e-06
0.000138597
2.98729e-17
4.35431e-18
3.20847e-05
1.40287e-07
9.54988e-06
2.59115e-05
8.48285e-20
5.20012e-05
2.31162e-05
4.61807e-19
9.45482e-07
3.10179e-06
2.53182e-18
8.49351e-18
1.3738e-05
6.19901e-06
2.327e-17
8.87034e-19
2.97227e-11
2.22233e-17
1.39215e-05
2.94528e-19
1.87793e-17
2.05988e-05
2.26969e-09
1.54421e-05
3.41975e-05
1.1438e-18
9.75518e-17
1.58339e-06
2.59869e-17
1.63061e-07
1.55919e-05
0.00014636
0.00104501
6.57776e-18
3.24496e-06
4.91299e-07
3.58307e-17
4.52583e-05
3.85831e-05
1.57623e-16
1.00531e-11
1.16433e-07
5.79359e-17
2.98576e-05
3.00455e-05
1.54244e-05
3.20484e-18
7.24428e-07
2.225e-05
2.66888e-05
9.89254e-10
1.0921e-16
6.68642e-13
1.32367e-17
1.74935e-08
3.83576e-05
5.29502e-18
1.06463e-05
1.04095e-07
2.72348e-16
3.11543e-17
2.91716e-17
1.70356e-17
4.73405e-06
1.15825e-05
8.00634e-06
2.69277e-06
3.5272e-06
1.37969e-18
2.50812e-06
2.5472e-17
4.65119e-05
1.33595e-18
3.49566e-18
1.36946e-17
4.19291e-05
7.56516e-17
2.53345e-17
2.82334e-10
1.21092e-17
4.2197e-18
1.19537e-06
8.22988e-18
1.27262e-16
1.0285e-19
4.30423e-18
2.82026e-17
5.88414e-17
1.01165e-17
8.9656e-06
8.54213e-20
5.65586e-07
2.19133e-06
1.3532e-06
4.24115e-18
9.18172e-07
1.24147e-18
2.8031e-18
3.42922e-06
2.25664e-06
3.35242e-05
2.88138e-05
3.31352e-17
2.4345e-06
9.4203e-05
1.01138e-05
1.26857e-06
4.0303e-06
9.53774e-17
2.80155e-05
1.35645e-16
5.63917e-06
1.50934e-18
8.84994e-05
1.44356e-17
2.56971e-05
2.82816e-07
2.91053e-10
6.00061e-18
2.48156e-06
5.36155e-18
9.57587e-05
5.7086e-05
1.37475e-17
4.87955e-18
5.49977e-17
6.80084e-20
1.66768e-12
6.56126e-05
3.92295e-18
4.67408e-18
3.18153e-06
1.7318e-18
3.90428e-05
2.55387e-18
3.93302e-07
3.33695e-17
6.24353e-07
1.1689e-09
1.28292e-06
1.54061e-05
2.16804e-17
4.55867e-07
6.78536e-18
2.32129e-18
1.86563e-05
2.21976e-18
3.90289e-08
2.04202e-17
1.85757e-06
4.28672e-17
7.80267e-05
1.29596e-18
4.81168e-17
1.95592e-05
4.21651e-06
2.00485e-06
4.84096e-06
7.79394e-06
2.51446e-05
3.46174e-18
2.81395e-05
7.77176e-06
5.28358e-18
9.58381e-11
4.51494e-05
1.70015e-05
5.99195e-17
5.23008e-06
7.50303e-06
1.88384e-06
1.40074e-06
2.72163e-13
1.64813e-05
1.33289e-06
1.76747e-07
2.97807e-05
1.66628e-05
8.69178e-07
6.71836e-17
3.76198e-12
0.00076884
1.36346e-17
4.60163e-07
3.5509e-18
2.44079e-16
8.81363e-06
3.66946e-06
2.34336e-10
1.54621e-08
9.56946e-17
2.05667e-05
1.31714e-05
2.14769e-18
9.61991e-14
2.4833e-06
1.05297e-17
4.27903e-19
1.96826e-19
2.41003e-17
1.67854e-05
3.45187e-18
6.54427e-17
1.09868e-05
2.49748e-06
2.30732e-17
1.23402e-05
1.54024e-17
1.02393e-05
5.20534e-18
5.27476e-18
6.53724e-05
3.85401e-18
1.31263e-17
1.10093e-16
5.51372e-06
4.16309e-17
3.64803e-05
7.53235e-06
1.0599e-17
9.87027e-05
3.08603e-06
3.32345e-05
3.23602e-05
7.83922e-07
9.99101e-08
4.43253e-18
6.5996e-05
5.35565e-05
2.30545e-17
3.73661e-07
4.7872e-05
8.74095e-06
1.79831e-06
3.26679e-05
3.08706e-05
2.34304e-17
1.26211e-05
5.9075e-09
1.52538e-17
4.04136e-05
3.22013e-07
8.54492e-17
1.31391e-05
4.73874e-05
1.70107e-06
2.45355e-05
2.25032e-05
8.53053e-06
9.99954e-17
1.18487e-05
4.10691e-07
2.9592e-14
1.95033e-05
2.01284e-05
4.28145e-05
1.38757e-18
2.36005e-06
2.82436e-17
4.05326e-19
4.66955e-18
1.58077e-17
1.81277e-08
5.84777e-17
2.53244e-13
5.82295e-18
3.53759e-18
8.21903e-08
5.05776e-05
2.07594e-17
4.02502e-05
3.17145e-17
1.42143e-16
3.45202e-17
4.73009e-05
5.26056e-07
9.84448e-17
2.4341e-16
3.63887e-18
1.35463e-18
0.000262868
8.28505e-05
6.76277e-17
2.27846e-06
3.14537e-09
9.34956e-18
4.38995e-05
9.25152e-06
1.51068e-05
8.42301e-19
1.5749e-18
4.82512e-07
1.28438e-06
1.70391e-16
2.21528e-17
2.92536e-17
8.57354e-06
3.53926e-18
2.85601e-17
4.58894e-18
4.88519e-05
2.27341e-06
2.35975e-19
0.00481294
0.000314483
1.25927e-05
8.4915e-19
1.15915e-17
6.71846e-05
4.44587e-07
8.63507e-18
8.98072e-09
0.000156714
3.1413e-06
1.38471e-05
4.88709e-17
6.57575e-05
2.12181e-06
1.74679e-18
8.77971e-18
1.01808e-18
2.75186e-18
2.3812e-18
1.00533e-18
2.53876e-05
3.68384e-17
4.64085e-18
2.52355e-17
1.40022e-05
2.81478e-05
7.98763e-18
8.91666e-18
0.000126979
1.67215e-05
1.12583e-05
3.50023e-17
5.17948e-18
4.33594e-05
1.42273e-18
2.26491e-06
3.04974e-06
4.50295e-06
2.47989e-19
1.21027e-17
9.32664e-18
1.73105e-19
1.83222e-05
3.34748e-18
3.42625e-18
1.12709e-06
5.09313e-18
2.6683e-05
2.05436e-06
4.41736e-17
4.42163e-05
0.000538662
2.94744e-06
3.5218e-05
1.91745e-07
5.44909e-05
1.57777e-13
2.12204e-16
2.74439e-05
8.55581e-05
7.33464e-06
2.19319e-17
1.03666e-12
0.000830985
1.21185e-05
6.27117e-18
3.25171e-06
3.30746e-06
1.51197e-06
2.25843e-17
2.00069e-17
9.95813e-17
1.55425e-05
1.5503e-17
3.01224e-06
1.94879e-17
1.56082e-06
1.60825e-06
4.27688e-05
6.83493e-07
3.08788e-18
1.40648e-18
4.90553e-18
2.43807e-05
6.45613e-18
1.51471e-17
6.77984e-08
1.00013e-17
1.47076e-18
3.26258e-19
7.68067e-19
1.12603e-05
2.70989e-17
1.40324e-18
6.06507e-13
8.23222e-17
3.52776e-18
2.88993e-17
3.6047e-18
3.66349e-09
1.9044e-06
7.93303e-18
4.52061e-06
9.20254e-09
3.95666e-10
7.70788e-08
5.03374e-06
9.47472e-19
1.13469e-08
1.16614e-05
4.8193e-07
8.47029e-18
1.7694e-12
9.46976e-07
6.20945e-17
1.12268e-05
2.43096e-07
2.10639e-09
2.89403e-05
1.08677e-05
2.69022e-06
6.29944e-06
2.40206e-06
3.87346e-18
8.41762e-18
3.77248e-05
3.05146e-05
1.07915e-17
9.61541e-06
6.49833e-05
3.38171e-05
7.29142e-17
1.64143e-06
7.98503e-18
1.2335e-05
1.65125e-05
3.95912e-18
1.79634e-06
5.57651e-07
1.52137e-09
5.63925e-06
6.27921e-18
5.7845e-05
1.89953e-08
1.95739e-06
4.10463e-08
1.54676e-08
9.9234e-19
2.12903e-18
8.92936e-06
1.94537e-18
1.32541e-07
3.29945e-07
2.28453e-07
5.94665e-11
9.58954e-11
1.10378e-09
3.40422e-19
4.77017e-17
2.73184e-05
8.10597e-17
3.40107e-07
2.54734e-06
1.1346e-19
8.7804e-18
6.35104e-10
1.01098e-12
1.92711e-18
5.1966e-09
7.39349e-19
3.19771e-18
1.5693e-16
4.42384e-17
1.73723e-17
3.49731e-17
3.5892e-07
1.99625e-17
2.8053e-18
9.75262e-18
7.74595e-09
6.72553e-08
2.19524e-06
1.10404e-05
1.05018e-18
4.52949e-18
2.2246e-07
3.75583e-18
2.32825e-18
2.3283e-17
2.26431e-05
5.0328e-05
3.90587e-18
1.47033e-17
6.97094e-18
6.74608e-18
1.13448e-18
7.02745e-19
8.8845e-06
3.08839e-18
5.03015e-11
3.21015e-05
4.39175e-18
1.40379e-17
1.83503e-18
2.73806e-08
1.86993e-17
1.42213e-17
6.19572e-18
9.62171e-09
3.77763e-19
5.55692e-06
1.21776e-09
6.00925e-12
3.21636e-19
7.55887e-08
2.65428e-06
5.29568e-05
1.17158e-16
8.05305e-09
7.1132e-06
3.98497e-18
3.0593e-18
5.81556e-17
6.75985e-18
9.80371e-06
2.09918e-06
4.17469e-06
2.08682e-10
1.70576e-19
2.69871e-05
8.75002e-18
3.21919e-17
7.68269e-17
1.30554e-18
3.10642e-05
1.52202e-18
1.52136e-17
2.32189e-09
6.058e-05
7.49446e-18
3.06121e-06
4.25619e-17
1.11251e-06
1.05799e-16
1.12366e-17
1.75029e-18
7.71662e-18
3.04678e-06
7.62979e-07
0.00038737
3.48068e-18
4.91204e-17
2.55203e-06
4.64212e-20
1.37322e-16
7.72849e-18
4.59807e-05
9.31492e-09
3.686e-05
3.02595e-17
1.07791e-08
5.01199e-08
1.3139e-16
1.23374e-07
1.13266e-17
1.63945e-06
3.11633e-05
2.39927e-05
1.57928e-06
3.09905e-07
3.04093e-18
1.60054e-18
3.08998e-19
2.27334e-08
1.67863e-18
8.01053e-06
3.22335e-17
0.000212062
3.09501e-18
4.97226e-05
3.86011e-06
2.31322e-17
9.4739e-19
7.70306e-17
2.53211e-18
4.51144e-05
2.27199e-17
1.56875e-16
1.46912e-05
7.62595e-06
1.18911e-16
2.63451e-16
1.81492e-16
9.34389e-17
2.77758e-17
3.28134e-19
2.86659e-05
5.36448e-07
3.48771e-18
3.97033e-18
5.34839e-10
8.82358e-18
1.81905e-06
1.33557e-07
6.55095e-18
3.82075e-06
1.2647e-17
4.22552e-07
2.12817e-18
1.20415e-06
5.83415e-18
1.0747e-10
2.46372e-09
8.34069e-07
2.01428e-05
3.80736e-05
1.34461e-09
1.89174e-18
5.58723e-07
6.8686e-18
5.34275e-06
1.60393e-17
8.76884e-18
2.78664e-17
2.85232e-18
7.21977e-18
6.98438e-18
7.9954e-06
8.86892e-06
5.22608e-18
3.19762e-17
3.78751e-17
8.06594e-07
1.70944e-08
1.93407e-17
2.19214e-05
2.30466e-07
3.40931e-18
2.76184e-05
9.76078e-06
4.11836e-06
1.45317e-05
3.20969e-19
3.58885e-18
1.12937e-17
4.20185e-19
4.38745e-05
3.08621e-18
0.00013228
7.96285e-21
3.29237e-07
8.74086e-07
6.55485e-20
1.01084e-06
2.2398e-18
2.09517e-18
3.31142e-06
2.89552e-11
9.64581e-06
3.06167e-19
5.9783e-18
4.88323e-19
9.21579e-07
5.79636e-18
6.87755e-17
1.93104e-17
4.03447e-10
6.76822e-17
9.8449e-09
5.83851e-17
1.68786e-17
2.28259e-18
2.17436e-05
1.17761e-05
2.16648e-05
4.24174e-05
2.513e-17
1.58858e-08
1.23832e-18
4.90648e-19
1.22119e-05
7.05304e-18
2.84819e-09
3.80001e-07
7.81704e-06
3.8185e-07
1.13735e-12
2.47495e-06
2.15685e-18
1.27175e-12
7.31808e-13
1.35048e-07
1.07068e-06
1.73003e-05
8.35172e-11
4.0435e-18
3.67044e-05
9.4221e-18
2.5826e-18
2.0711e-08
8.89637e-05
8.04563e-11
4.69091e-19
3.40199e-19
4.16255e-10
4.38929e-18
9.55301e-18
1.78393e-08
9.11181e-18
1.59707e-17
4.80909e-05
2.28686e-07
1.76586e-07
2.71879e-05
8.69006e-06
6.68148e-18
7.68957e-19
1.40176e-08
4.94916e-06
5.44244e-18
6.50802e-18
1.21684e-05
2.40241e-17
5.6425e-18
5.61135e-17
1.24596e-16
3.7824e-16
0.00308703
1.50131e-18
2.42936e-07
1.32725e-17
2.29819e-05
3.6091e-19
1.80193e-15
9.04298e-17
2.65832e-17
7.89736e-18
1.43788e-18
3.67025e-06
9.10601e-19
1.12167e-18
1.01212e-16
4.88491e-18
1.11114e-17
1.40388e-18
1.17382e-05
9.04502e-18
1.31734e-05
3.33972e-06
4.76522e-18
1.89444e-06
7.39074e-18
5.46039e-07
2.21533e-09
4.75174e-06
1.64779e-05
5.49849e-18
1.09208e-07
9.88158e-06
8.86191e-09
1.62366e-17
2.2904e-09
2.1895e-05
5.55867e-06
4.0897e-17
3.12615e-05
1.38841e-17
5.52253e-19
1.84999e-17
4.19122e-18
9.70894e-06
7.98553e-18
6.3842e-18
9.7933e-06
2.12446e-10
3.15751e-06
9.2499e-19
1.00532e-16
7.75752e-07
8.38049e-19
1.0222e-07
5.76214e-18
2.7223e-05
4.21504e-18
3.69821e-18
6.48977e-08
6.16979e-18
1.49742e-07
4.32084e-17
3.76074e-18
6.0214e-06
4.95573e-07
5.81935e-06
1.92803e-05
0.000263168
2.40707e-05
8.74532e-19
1.84033e-16
3.26972e-06
8.06293e-06
4.31938e-05
1.38223e-05
4.34882e-20
1.43172e-05
8.13386e-19
1.40874e-18
1.02526e-05
1.25395e-05
5.81497e-18
1.54602e-05
6.00408e-18
3.30699e-06
1.03438e-05
2.04605e-17
2.20232e-18
3.63883e-18
3.15396e-06
3.95241e-18
1.72686e-18
4.71546e-06
2.48526e-05
4.57431e-09
9.05327e-06
1.38815e-18
2.31891e-18
8.95571e-08
8.8217e-07
3.85041e-18
1.18206e-05
1.44141e-16
2.99762e-06
5.65478e-19
1.45701e-17
1.41365e-05
3.27634e-19
4.85812e-08
4.02284e-06
8.48021e-18
1.63308e-19
4.8979e-06
4.73529e-14
6.35898e-05
2.13334e-17
0.000317535
2.81056e-17
7.62331e-17
5.71764e-18
8.44918e-06
2.27057e-17
1.20997e-17
6.41546e-06
5.51542e-17
2.71326e-07
2.56397e-16
1.41967e-17
1.32769e-18
1.46144e-10
9.10528e-07
1.23007e-18
1.22253e-17
4.25349e-05
1.10525e-06
6.58241e-18
5.47125e-07
1.38299e-18
2.24345e-17
1.75855e-09
3.39209e-06
1.46105e-06
4.31562e-18
4.20804e-18
2.5102e-19
1.85173e-19
1.87399e-17
4.15579e-18
7.10234e-19
6.29808e-19
4.19033e-18
1.50053e-18
1.2027e-18
1.15313e-17
3.43625e-18
1.30461e-18
9.68606e-19
1.50351e-17
5.50486e-18
1.31293e-18
1.36224e-17
6.11519e-19
7.58956e-18
2.13889e-05
9.23902e-19
1.03231e-17
1.52173e-18
7.6245e-06
5.24395e-18
6.66635e-18
0.000305835
2.08898e-17
4.82017e-18
2.70982e-05
6.36799e-16
4.60751e-18
7.74029e-06
2.86417e-05
4.85751e-19
2.47924e-06
3.93277e-06
1.54184e-17
1.50214e-05
4.64609e-05
2.05996e-05
3.76799e-06
1.24337e-05
7.66042e-17
4.7829e-18
3.44638e-06
1.26291e-05
3.56635e-06
4.82674e-18
7.32635e-06
1.96433e-06
2.42012e-05
1.25395e-05
7.7388e-07
1.76304e-05
1.29244e-06
1.13429e-05
7.59743e-17
3.06273e-05
9.74311e-06
2.05228e-06
1.50057e-06
6.31951e-19
1.18785e-18
2.42235e-18
2.03328e-17
5.21506e-19
1.10472e-05
1.57744e-05
1.2808e-18
7.91198e-19
3.46977e-17
4.76666e-18
1.15774e-17
3.63776e-18
1.19714e-17
2.26026e-17
5.31445e-06
1.71832e-07
2.50351e-05
7.43797e-08
1.18057e-18
1.24308e-16
3.78208e-05
6.4113e-09
9.552e-19
1.27583e-17
8.41276e-06
4.8088e-17
7.92387e-18
4.6732e-09
9.07828e-06
1.57873e-05
3.80473e-05
3.77342e-05
1.08281e-17
1.67896e-05
3.6799e-07
2.3548e-17
7.98111e-19
1.33134e-05
3.94598e-17
9.06194e-18
2.33267e-05
0.00122612
1.94339e-07
1.53436e-16
8.34764e-18
1.94686e-05
2.50938e-05
2.03775e-05
6.63381e-06
3.91445e-06
9.05831e-18
1.15213e-09
3.0076e-12
1.03626e-16
1.43197e-17
2.00609e-05
1.38343e-18
2.35497e-06
3.01182e-05
1.97804e-05
1.37558e-05
7.80061e-18
6.69513e-06
1.78114e-17
1.03623e-17
6.33789e-18
1.5109e-19
2.9462e-06
0.000985296
1.29677e-18
2.92351e-18
5.00828e-09
2.74573e-05
1.00615e-06
7.90891e-06
3.84683e-05
5.46637e-06
2.314e-05
3.80911e-17
2.31351e-17
5.92534e-17
3.60194e-05
6.50381e-06
3.07449e-11
4.13817e-18
3.12963e-18
1.81156e-17
2.52581e-05
3.17353e-06
7.22998e-19
5.50806e-06
6.41392e-05
8.26874e-06
6.95579e-06
2.39269e-17
1.64114e-17
7.89537e-06
2.65346e-05
3.15734e-18
3.58848e-07
1.63269e-05
1.116e-06
1.08582e-05
5.28458e-06
9.2347e-06
7.74586e-17
3.99702e-06
2.35944e-05
4.30841e-05
6.36834e-13
2.67638e-05
6.02062e-17
1.92038e-05
1.67721e-07
3.70051e-17
2.93515e-06
8.21658e-06
4.12062e-07
1.30414e-05
9.10139e-10
1.73573e-07
1.95037e-08
4.06017e-05
4.03316e-06
6.25921e-18
4.51077e-05
1.37293e-06
3.24479e-18
1.58472e-19
4.42518e-11
9.87762e-09
1.17056e-06
0.00126728
3.99402e-05
1.215e-05
2.57643e-10
4.91034e-05
1.21869e-18
8.02618e-17
4.68408e-06
3.72995e-18
2.45949e-06
5.52219e-06
2.34772e-06
5.38216e-06
7.49192e-18
2.49345e-07
0.000124607
1.58774e-18
3.1642e-05
8.32797e-06
2.75804e-17
4.35132e-06
2.14344e-07
1.08756e-16
6.37868e-12
1.04993e-07
1.25028e-17
3.61305e-18
1.11764e-18
4.9859e-06
5.02758e-06
1.62503e-05
1.12879e-16
5.91223e-06
3.71566e-05
1.43406e-17
8.86439e-06
1.37444e-05
2.83703e-05
1.68818e-06
6.2684e-19
6.79951e-07
1.08177e-05
1.15971e-05
9.88728e-06
4.36331e-05
0.000183975
3.79551e-06
4.76146e-17
7.19365e-09
5.91502e-05
4.82549e-18
4.56678e-07
5.78672e-19
1.44621e-18
2.48064e-17
3.72688e-18
2.71418e-18
3.64313e-06
4.99294e-18
7.73676e-06
1.46317e-06
3.32018e-17
4.67321e-06
2.74193e-17
1.64299e-05
1.09183e-18
2.00485e-08
1.40044e-16
2.49149e-05
1.62248e-07
2.25663e-09
4.48102e-06
3.30686e-05
1.94498e-05
4.4245e-06
2.99229e-05
5.95408e-15
2.46131e-05
6.16094e-05
1.02234e-05
6.32785e-17
1.3401e-06
3.31467e-07
6.1761e-06
1.2565e-05
7.29309e-07
1.24068e-17
1.05501e-16
3.0625e-18
4.32696e-06
4.49614e-17
1.43851e-07
2.54636e-07
1.24676e-06
3.09574e-07
5.00073e-18
4.09292e-17
4.78519e-19
9.4721e-06
2.41054e-05
1.49232e-06
9.33919e-09
2.16439e-06
7.65004e-06
2.24257e-06
9.54844e-07
8.03308e-06
6.59591e-06
2.89049e-06
1.9817e-17
1.53407e-18
8.77365e-17
1.55547e-05
1.23273e-05
6.27607e-17
7.28716e-19
2.73097e-16
9.14741e-06
2.19146e-05
1.97863e-18
2.3853e-06
1.64818e-17
6.4984e-10
5.67892e-06
9.69812e-05
4.34575e-18
3.53107e-18
4.2855e-06
5.36489e-18
7.69197e-08
1.34466e-05
3.02688e-17
1.20188e-05
3.74337e-05
2.04898e-05
3.98315e-18
1.29219e-06
1.84109e-17
8.9632e-08
5.53424e-05
2.43638e-17
4.24581e-17
1.25819e-05
4.80806e-16
6.56614e-18
4.52808e-08
1.1826e-06
9.86735e-18
1.20515e-18
2.93701e-18
6.6656e-08
1.46754e-06
3.69903e-06
2.73551e-05
1.04541e-05
4.3213e-18
7.07044e-10
6.87592e-07
2.12121e-17
3.86029e-19
1.49353e-17
1.76678e-17
6.48881e-19
3.38532e-17
6.75401e-17
8.40094e-18
1.40009e-17
1.72449e-17
2.61536e-12
1.15456e-17
4.15277e-07
3.46777e-17
1.98434e-07
3.23239e-17
6.59175e-08
4.11183e-18
1.18142e-17
3.01009e-05
1.03461e-05
2.69058e-17
0.00010187
5.41304e-12
2.0147e-13
1.14904e-18
1.41235e-06
6.9756e-15
2.92642e-06
6.42302e-09
1.05129e-06
1.93273e-17
5.20389e-18
9.27321e-07
3.81967e-11
5.39571e-18
1.48801e-16
4.40923e-05
1.12037e-16
4.18699e-05
3.50937e-17
2.77055e-19
1.57331e-09
3.16692e-05
9.43489e-06
2.42332e-18
3.68641e-07
6.07756e-17
2.48862e-06
1.86133e-08
2.10198e-06
9.53223e-07
7.27114e-18
2.29589e-05
1.21685e-06
5.71631e-06
1.20341e-18
1.8264e-18
1.44226e-18
1.42531e-05
4.51591e-06
5.72065e-05
3.89738e-18
4.37176e-10
8.32159e-18
1.06833e-17
2.63492e-17
6.44003e-18
3.39183e-06
2.21594e-06
3.17269e-06
0.00035258
2.60213e-16
3.1897e-05
4.00987e-05
1.99425e-05
1.73347e-06
5.8754e-18
6.23745e-06
4.6781e-06
5.48447e-06
5.24913e-10
1.14864e-05
1.45202e-17
1.85485e-06
1.28377e-06
3.68322e-05
1.1655e-09
3.49293e-06
1.09464e-17
2.04133e-05
2.09284e-17
8.12765e-18
1.83944e-06
6.84631e-18
7.42655e-06
3.69749e-17
2.09084e-17
6.9079e-17
7.79417e-19
1.1228e-16
8.27532e-07
1.51349e-17
6.68217e-07
1.10439e-17
1.68495e-18
2.1043e-05
6.2445e-06
8.70251e-06
8.87818e-06
8.97792e-18
0.000652205
3.66812e-18
7.91947e-05
9.75146e-18
2.07413e-05
2.50704e-05
2.5079e-06
6.40617e-05
1.44239e-17
3.64494e-17
3.41538e-18
2.45787e-06
2.52204e-18
1.83077e-18
2.00297e-05
1.42043e-17
6.70129e-18
5.65602e-06
1.34652e-17
1.45024e-05
8.54869e-11
1.85779e-17
2.57019e-18
5.57561e-18
1.78225e-06
7.39569e-06
5.4774e-18
2.57482e-05
3.5444e-07
6.91136e-18
0.000114816
4.02232e-17
1.80346e-05
2.04034e-05
3.75446e-06
1.03276e-17
2.01483e-05
1.06777e-05
8.91815e-07
5.63833e-06
1.38295e-05
5.13387e-17
1.7926e-17
1.91359e-09
1.40324e-18
2.83195e-19
1.15834e-17
2.2169e-05
4.94636e-05
4.95921e-06
2.27656e-06
2.89333e-17
5.44022e-05
5.16232e-05
4.78479e-06
2.91968e-06
1.01397e-05
2.36845e-05
2.82796e-06
5.15172e-19
5.70039e-19
8.81497e-19
7.30445e-06
3.70821e-18
2.86828e-05
4.15171e-17
8.41453e-07
5.2145e-10
2.92703e-06
2.50895e-05
7.54676e-19
3.63357e-17
2.69451e-06
3.96566e-07
3.8334e-17
6.04174e-20
5.1681e-17
3.63149e-08
3.2458e-07
1.50642e-07
8.62183e-07
1.09756e-05
9.96005e-05
3.14131e-17
3.88968e-17
3.49422e-17
4.3109e-06
2.12514e-05
2.25319e-05
3.86772e-05
2.16287e-06
3.06507e-06
5.10771e-18
2.15585e-17
1.92306e-16
2.81863e-18
1.08402e-05
2.49137e-05
4.04554e-17
9.78385e-18
4.89338e-18
3.601e-16
1.01681e-16
3.82292e-17
1.48081e-05
9.73444e-17
1.20215e-06
0.000433864
1.75507e-17
1.72135e-08
2.55123e-05
7.59232e-07
2.52227e-18
9.83364e-18
5.27596e-06
1.35655e-17
1.56085e-05
1.26131e-09
2.71636e-05
1.21059e-17
2.48995e-15
1.9857e-18
1.52744e-18
9.38131e-18
4.23714e-17
0.000223049
6.20137e-18
6.25644e-06
1.33716e-06
4.93628e-18
4.90911e-17
2.13863e-06
1.23037e-17
9.98969e-19
1.57851e-05
1.08596e-07
8.34746e-18
4.64387e-17
3.11088e-18
1.85995e-05
1.10981e-17
8.96291e-17
4.21339e-07
2.78277e-06
3.28962e-06
1.27978e-17
1.68209e-17
5.48583e-18
4.044e-06
1.96318e-06
1.39695e-05
3.9783e-06
8.64795e-19
8.68178e-07
1.42629e-05
7.21179e-06
2.35425e-19
5.47172e-17
8.49613e-18
2.28809e-16
9.79616e-18
3.47809e-05
6.81792e-06
5.95977e-06
1.42166e-17
1.75496e-17
2.94786e-17
1.69709e-17
6.18966e-18
9.91559e-10
2.8866e-07
2.60746e-06
4.02466e-18
9.94863e-18
2.89596e-16
3.25135e-12
3.7821e-05
0.000126674
4.79547e-19
2.14974e-12
4.7354e-15
1.79454e-17
1.35744e-18
4.22043e-06
7.73441e-06
3.7672e-18
8.64105e-17
3.19252e-06
6.1571e-17
7.95616e-07
1.28468e-06
0.00244564
1.89087e-18
1.27494e-17
1.38879e-05
5.48395e-07
9.32853e-18
0.000773552
6.38411e-07
7.66039e-06
1.73473e-17
1.60211e-17
1.90836e-16
2.53496e-18
8.77384e-06
1.13558e-07
1.9486e-17
2.77987e-05
2.10139e-05
0.00100671
1.0543e-17
1.84853e-18
1.25091e-18
3.92677e-18
7.0938e-06
6.75231e-11
1.27656e-17
6.12606e-17
2.09742e-05
1.06205e-06
5.84629e-06
8.6893e-19
1.93883e-17
3.24469e-05
3.18622e-18
4.12864e-18
7.13123e-18
1.52463e-18
2.56927e-05
2.57266e-17
1.04347e-18
5.02555e-18
2.87738e-05
1.44187e-05
6.76496e-18
7.53409e-18
1.15178e-18
1.74384e-05
1.69886e-10
1.57305e-18
1.52561e-18
9.72254e-17
1.21398e-17
2.69284e-06
1.18727e-05
2.57767e-17
2.38707e-06
1.16872e-06
5.15115e-06
9.8394e-16
1.56489e-16
5.07491e-18
7.01398e-17
2.13631e-19
2.36907e-05
1.41124e-16
1.73912e-05
6.9648e-18
1.63245e-06
3.149e-17
2.49181e-06
1.86391e-17
1.38091e-17
1.21429e-05
0.000212204
2.02203e-16
3.74852e-06
1.72297e-18
4.0484e-07
1.90102e-17
1.73842e-17
1.92143e-17
4.75844e-10
1.50417e-17
3.89749e-07
1.59137e-17
4.04757e-05
6.11831e-18
6.00291e-17
2.84725e-19
4.30213e-18
8.73577e-09
1.47196e-07
1.74184e-18
5.7441e-06
5.77673e-18
3.48242e-06
2.20123e-05
1.3245e-06
1.78753e-19
4.77784e-09
4.57636e-07
2.14408e-09
5.32226e-06
4.03782e-10
1.73123e-06
1.98962e-16
1.06781e-18
4.58761e-10
6.12727e-06
2.50892e-07
5.73016e-18
1.55734e-17
5.51048e-17
0.000616073
6.60693e-17
8.32302e-18
2.32233e-17
1.24941e-17
2.06405e-16
5.94462e-08
1.86102e-07
1.07522e-06
6.95859e-08
3.13778e-16
1.52439e-06
1.8495e-17
6.7679e-06
4.22866e-17
2.1482e-17
1.10583e-17
9.8961e-19
2.24734e-08
1.3079e-17
3.45851e-18
9.61838e-18
1.68766e-05
2.0472e-18
2.53112e-17
1.22556e-05
3.31049e-17
6.82964e-05
0.000122344
0.000585001
9.90735e-17
0.00023484
0.00139793
0.00158206
0.000774108
1.19018e-17
2.80535e-19
5.57983e-06
5.49565e-06
2.21834e-17
7.44192e-06
4.55144e-19
3.68e-05
1.63022e-17
5.60791e-18
7.17062e-07
2.43406e-17
6.35579e-18
1.07259e-08
4.07884e-08
7.70822e-17
2.66398e-18
2.48314e-09
2.16885e-17
1.86455e-17
2.3947e-08
9.17142e-06
1.5761e-06
1.19131e-17
8.26639e-06
6.08806e-17
3.95066e-06
4.62005e-10
7.77512e-06
1.49323e-17
1.13579e-11
6.05348e-06
1.73091e-17
1.66636e-12
2.09665e-18
3.7023e-05
7.61718e-18
1.1342e-05
1.07896e-17
1.75551e-10
6.76317e-19
2.37471e-17
1.81608e-18
5.18546e-13
2.5152e-13
7.95404e-17
1.38358e-05
9.36829e-06
7.16788e-17
1.2677e-17
3.75522e-05
2.05495e-05
0.00020809
1.21603e-16
7.10844e-08
2.83998e-05
5.26143e-05
6.03194e-11
3.13842e-17
6.47489e-05
1.21394e-18
0.000255438
4.12189e-18
4.35885e-11
4.44209e-11
3.85886e-18
5.76152e-08
6.61945e-17
2.33246e-05
2.61715e-18
1.38853e-17
2.3499e-18
5.31298e-17
4.27704e-17
5.40402e-17
3.36901e-07
2.00703e-06
0.000154707
1.72547e-17
1.14656e-17
4.66509e-05
2.13024e-17
1.13164e-18
2.03881e-18
8.25716e-17
1.53518e-17
6.23965e-06
6.02897e-18
1.22324e-17
1.04427e-18
3.46772e-06
6.64701e-17
2.05963e-19
1.88802e-17
3.4077e-06
5.40011e-18
6.40268e-06
0.000253908
5.44039e-06
5.81326e-06
2.83282e-05
1.33888e-17
1.61876e-17
3.21124e-17
3.29809e-06
2.01889e-06
1.20914e-18
2.72097e-16
6.10637e-07
4.51444e-17
8.68536e-18
0.000371846
1.05751e-18
2.48682e-05
9.31295e-18
2.54901e-06
3.89962e-06
7.96562e-18
5.64934e-19
1.41046e-17
2.77112e-17
6.03638e-18
2.16423e-05
3.05947e-17
4.8385e-06
1.10239e-17
4.70128e-18
7.20207e-06
3.38779e-18
1.48526e-05
1.83472e-17
9.95017e-18
2.62209e-06
8.55711e-08
0.000154492
2.27857e-18
4.56224e-18
3.01642e-18
4.03157e-06
0.00019735
1.01105e-17
3.45125e-18
1.0157e-16
1.55194e-06
4.48793e-18
2.28046e-05
3.29432e-05
6.51219e-17
3.39819e-18
7.44666e-06
8.89986e-17
3.24084e-17
8.38394e-19
2.3858e-17
4.97116e-18
7.38988e-05
2.04728e-16
5.64755e-17
2.02496e-17
4.71303e-18
3.6972e-18
2.50502e-17
1.48724e-17
5.45889e-18
9.72721e-17
8.55888e-06
2.08728e-17
8.67248e-06
4.07382e-17
1.23906e-17
0.000650215
2.81365e-06
3.64928e-18
3.24051e-17
2.39326e-18
2.47199e-06
7.89166e-17
3.29775e-18
7.72226e-17
1.23689e-17
7.48768e-06
2.06292e-19
4.76902e-06
4.4291e-18
1.11607e-05
1.10215e-17
6.42048e-05
4.06252e-17
2.10545e-18
2.23243e-05
1.94151e-17
9.67407e-18
3.0454e-05
3.23089e-07
5.81184e-17
4.36696e-18
4.22646e-05
1.19113e-05
6.72337e-06
8.36273e-07
1.84048e-06
1.89161e-05
1.00314e-06
5.78254e-06
1.82653e-17
3.01373e-05
2.9669e-17
2.18993e-17
1.10337e-17
3.94391e-17
9.81953e-18
1.06223e-05
3.29344e-17
2.3332e-18
6.68041e-17
2.10236e-09
1.18079e-08
2.21987e-16
2.77824e-06
1.03789e-16
4.54014e-06
2.06198e-17
1.1352e-09
4.11478e-06
3.30232e-16
4.88008e-05
3.09883e-18
3.45454e-18
1.80186e-18
3.07215e-06
1.52162e-06
1.13591e-17
1.18939e-17
2.58738e-06
8.42253e-18
0.000731014
3.35468e-17
0.000107274
6.19984e-19
1.56858e-18
1.93061e-17
3.61453e-19
1.05823e-05
2.9556e-18
4.78405e-08
1.67354e-18
1.08682e-05
1.01604e-17
3.25525e-18
7.55286e-15
2.22214e-16
2.23738e-18
7.95371e-17
2.98986e-17
4.30584e-17
4.86193e-06
0.000223365
7.23686e-17
2.44254e-17
4.3517e-07
7.25996e-19
2.29749e-18
1.75078e-09
1.91566e-05
1.7485e-07
1.38476e-17
6.79311e-07
3.909e-06
5.48983e-06
9.45525e-06
2.89698e-17
1.29152e-16
1.74076e-16
5.69127e-17
1.12306e-18
1.14289e-19
2.15099e-17
3.76775e-18
8.73122e-18
1.16141e-17
8.04947e-18
3.24398e-18
8.34133e-05
2.99964e-18
9.72862e-19
1.01356e-12
1.19895e-17
1.01394e-17
0.00123456
1.10674e-20
1.25676e-18
2.00773e-06
1.84099e-12
8.56317e-18
1.05912e-16
1.43894e-18
2.50679e-05
3.22547e-18
2.80077e-17
5.08423e-11
7.3295e-19
1.09866e-17
4.41694e-18
2.79542e-18
0.00012569
5.1828e-18
2.11939e-07
2.30655e-18
2.15503e-17
2.9933e-18
3.85624e-18
2.06034e-18
2.74795e-11
4.94224e-11
1.35585e-07
3.10248e-17
9.79438e-18
1.24702e-16
1.1275e-10
9.01127e-19
3.15812e-10
1.72749e-11
5.95904e-19
8.47079e-18
1.5699e-16
8.62015e-12
3.09494e-18
3.16462e-17
2.19956e-12
1.57827e-16
3.56814e-05
2.91334e-18
7.39071e-06
4.23636e-17
2.49638e-09
5.70636e-18
1.71852e-06
1.92112e-18
4.89903e-06
2.67297e-05
5.74925e-18
2.93116e-06
1.34522e-08
1.71565e-17
1.11378e-05
6.52225e-18
2.1356e-18
1.63696e-17
1.15097e-17
1.41604e-17
6.37112e-19
5.9785e-19
2.17544e-17
0.000308019
3.14759e-17
1.22191e-18
5.87412e-18
3.15378e-18
5.7514e-18
3.57703e-05
0.000933594
3.22018e-09
1.45882e-08
2.22716e-18
2.16421e-06
1.47846e-06
1.59438e-17
2.37988e-17
1.26147e-16
1.85222e-18
5.18146e-18
1.34067e-17
3.74669e-18
5.74767e-18
4.78967e-07
6.26847e-17
2.14173e-17
2.01181e-07
3.06551e-09
2.5612e-18
3.04035e-05
5.50715e-18
3.49878e-17
7.86595e-18
0.000193732
2.40489e-16
4.01349e-19
2.79396e-05
2.09181e-19
3.38037e-17
1.55085e-17
1.46335e-16
6.06776e-05
2.48037e-18
6.02838e-18