/*--------------------------------*- C++ -*----------------------------------*\
  =========                 |
  \\      /  F ield         | OpenFOAM: The Open Source CFD Toolbox
   \\    /   O peration     | Website:  https://openfoam.org
    \\  /    A nd           | Version:  10
     \\/     M anipulation  |
\*---------------------------------------------------------------------------*/
FoamFile
{
    format      ascii;
    class       volScalarField;
    location    "5.2";
    object      T;
}
// * * * * * * * * * * * * * * * * * * * * * * * * * * * * * * * * * * * * * //

dimensions      [0 0 0 1 0 0 0];

internalField   nonuniform List<scalar> 
111485
(
303.15
285.153
301.056
303.15
298.532
283.15
299.041
293.462
296.471
286.307
300.605
296.289
300.304
284.605
300.075
286.811
299.334
298.732
294.213
303.15
303.15
283.15
297.378
288.764
301.565
303.15
293.297
300.653
288.985
303.15
300.775
294.357
303.15
283.15
283.465
283.15
302.306
297.755
283.149
296.704
283.15
289.722
297.117
302.896
303.188
303.15
287.475
288.622
289.764
303.15
303.15
283.15
303.15
299.057
303.15
293.661
287.964
283.15
283.327
295.568
295.97
303.15
302.103
300.353
283.15
284.606
300.616
291.626
302.152
302.552
303.166
301.943
303.15
302.152
303.15
295.416
283.15
293.591
283.15
283.15
283.243
293.444
283.15
303.15
300.404
284.254
283.15
301.613
303.127
299.217
283.383
289.703
300.943
300.401
289.933
303.15
303.15
301.613
303.149
283.427
303.15
286.737
283.15
285.242
285.785
283.15
283.15
293.108
301.501
283.146
298.993
288.168
301.354
301.745
303.15
302.022
303.15
283.15
300.222
303.15
303.15
283.15
283.15
283.15
283.41
303.152
283.15
301.864
303.15
283.179
303.084
302.007
303.15
283.15
283.15
292.644
283.15
294.365
298.892
301.161
303.138
296.924
299.068
284.82
302.304
297.954
283.15
303.15
283.15
297.257
284.989
303.15
303.144
287.451
283.156
293.859
295.763
302.539
283.154
303.15
303.15
292.332
286.31
283.153
283.157
301.259
283.703
283.15
283.153
283.152
283.15
303.15
283.209
283.15
291.586
287.267
283.15
303.15
303.15
283.15
303.15
303.15
297.758
293.652
295.935
289.927
301.442
300.514
283.191
303.15
301.511
303.15
303.15
300.255
286.334
301.481
301.353
295.898
303.15
300.925
284.637
283.161
300.851
297.105
303.15
300.507
288.34
303.15
283.232
300.236
284.859
300.772
303.15
303.15
300.785
283.15
292.961
283.15
300.692
298.83
290.474
303.15
301.79
300.582
283.15
283.15
283.15
289.606
283.158
283.15
303.15
298.767
291.564
290.026
283.15
303.15
303.11
303.15
284.364
300.18
299.37
299.618
299.489
283.15
283.143
298.975
283.15
283.15
288.831
288.478
283.15
301.24
299.002
303.15
283.15
301.047
303.15
303.15
303.123
303.15
288.337
285.903
290.992
303.15
298.459
303.15
303.15
303.15
283.148
298.18
301.049
299.521
291.276
299.579
296.346
283.214
290.502
291.777
283.15
303.15
283.149
292.511
298.803
286.528
303.15
298.096
297.356
298.997
302.968
283.165
297.221
299.461
302.023
283.15
283.631
283.15
283.149
303.15
283.941
290.334
286.378
303.15
283.15
297.701
285.33
303.15
303.15
303.15
284.642
290.413
301.131
284.449
293.132
283.15
283.15
303.15
298.46
303.15
283.846
289.686
283.152
283.15
303.15
303.15
283.15
294.469
290.029
283.15
295.851
283.15
303.15
301.136
297.42
294.051
295.957
283.15
283.15
283.15
296.739
291.214
302.386
283.15
283.15
283.15
290.154
297.058
283.219
290.595
283.15
292.903
299.654
284.226
298.789
285.299
283.15
303.15
283.15
303.15
290.735
296.671
288.067
292.095
283.15
286.409
283.15
303.15
293.931
303.15
301.91
303.15
283.15
292.103
283.15
288.942
284.669
283.15
284.009
298.146
283.15
300.236
284.728
298.95
303.033
291.262
286.053
283.15
303.15
303.145
283.15
301.053
300.919
283.15
283.15
294.748
284.396
298.329
296.861
283.15
295.275
296.209
283.15
302.09
283.916
303.15
303.15
288.403
298.7
283.15
303.15
303.15
303.15
300.771
283.15
303.15
294.018
283.171
287.015
300.06
283.15
283.15
302.641
283.15
302.493
301.501
297.996
289.372
283.15
294.069
303.384
303.15
298.766
292.384
303.15
283.15
283.311
283.15
290.166
286.18
291.829
283.15
293.036
296.653
293.219
303.147
283.15
303.15
303.15
283.169
292.909
283.15
284.356
303.135
283.15
303.15
303.15
303.15
301.836
290.687
286.063
284.224
284.347
283.15
285.766
303.15
300.814
283.15
303.15
303.15
300.73
303.15
303.15
283.151
303.15
283.15
300.755
283.15
283.15
283.15
303.15
283.15
303.15
283.15
283.683
283.15
303.129
301.87
283.768
283.15
303.089
283.15
303.15
284.743
284.705
286.182
297.698
283.15
297.626
297.734
292.446
286.926
285.305
303.15
291.922
283.15
299.962
283.15
296.928
283.15
292.248
298.67
303.151
283.15
286.907
303.15
295.651
299.197
283.15
283.15
283.15
283.15
303.15
293.815
283.15
283.15
283.243
283.15
299.917
283.15
284.845
303.15
283.441
303.123
284.693
292.073
283.15
301.521
283.15
283.15
285.753
283.15
283.259
283.15
299.772
303.15
290.816
303.15
283.15
302.415
284.499
300.179
285.704
300.178
289.533
283.15
300.71
284.584
283.15
283.14
300.453
301.648
283.15
282.395
301.131
303.067
283.117
303.15
287.631
302.211
284.435
285.442
288.336
282.5
283.15
303.15
300.808
303.15
283.564
283.15
283.15
291.929
282.659
303.15
303.12
283.15
286.345
299.666
283.15
283.15
299.677
303.15
283.15
283.15
283.15
286.22
283.15
303.15
284.866
284.266
303.15
299.765
283.15
289.295
303.15
283.15
286.221
283.15
283.15
283.15
285.461
283.15
285.503
292.123
303.15
300.451
283.456
298.82
300.987
283.353
283.467
283.15
289.088
298.551
303.15
302.277
296.102
296.982
284.753
297.546
297.28
303.15
300.302
303.137
283.15
297.261
284.882
283.15
292.533
295.855
284.899
298.875
300.7
292.491
283.15
299.003
283.477
303.15
300.66
302.009
294.251
283.15
286.605
303.15
283.15
283.15
283.15
283.308
283.15
303.15
303.15
283.15
300.472
299.366
303.15
285.682
303.15
303.15
303.15
290.103
283.428
283.15
303.15
283.15
283.15
286.945
292.543
283.15
295.284
283.135
283.15
295.458
302.258
287.902
283.15
283.15
300.334
292.247
283.15
283.15
283.15
294.106
303.15
303.15
283.15
296.376
302.404
283.15
282.512
301.934
286.633
283.15
283.15
287.514
302.982
283.15
283.161
287.522
283.778
288.912
283.15
285.762
300.374
283.15
303.15
283.15
283.15
283.15
283.15
295.814
303.15
283.15
283.15
295.428
291.969
303.15
303.15
289.968
298.545
298.441
303.15
283.15
298.115
303.15
283.86
298.945
298.47
303.15
303.15
303.15
283.15
286.111
283.15
283.15
302.718
303.15
297.937
302.308
283.15
294.212
283.258
296.572
292.053
283.432
289.91
283.15
283.15
297.018
288.189
290.889
283.15
283.15
298.207
295.128
283.15
283.929
284.637
283.481
303.15
303.15
303.15
290.8
283.15
300.154
283.15
284.401
297.663
298.64
292.422
283.15
283.15
303.15
295.528
283.15
283.15
303.105
283.15
283.15
303.15
283.15
299.432
283.15
283.15
283.15
283.15
283.15
303.15
283.15
283.172
298.815
303.15
302.548
283.13
283.406
283.093
285.598
283.15
284.482
290.626
283.408
303.15
283.149
299.843
283.15
300.347
283.157
283.143
286.266
297.63
283.216
291.899
298.002
283.15
283.15
299.177
299.894
283.15
297.486
291.353
297.567
283.15
283.247
283.15
297.883
297.003
283.15
300.179
297.649
283.149
299.888
283.15
295.738
283.144
303.118
283.162
283.16
283.15
283.15
284.468
283.15
302.977
283.606
283.077
303.148
303.149
303.147
283.15
283.15
293.945
303.15
303.141
283.89
283.15
283.15
303.155
303.15
283.15
303.164
283.15
283.15
303.15
303.15
303.15
303.15
283.372
283.15
283.15
283.15
303.159
283.311
283.908
293.6
283.15
283.15
283.343
283.15
283.15
283.15
287.307
293.748
283.15
283.15
283.15
283.15
283.15
283.15
284.031
283.15
303.15
291.681
283.15
303.15
303.15
303.153
303.15
303.15
283.15
303.169
283.15
283.716
283.144
303.152
283.15
303.066
284.446
292.227
303.15
303.13
284.495
303.15
283.15
303.15
283.15
294.189
293.598
284.695
303.148
283.15
293.39
283.15
283.15
303.15
283.15
294.977
283.15
303.15
283.163
298.225
303.15
284.427
283.15
283.598
283.15
283.15
283.15
303.15
285.94
283.483
284.429
283.15
283.15
285.725
283.15
283.15
303.15
284.379
303.163
298.677
303.15
303.129
303.13
283.15
303.133
283.15
283.456
289.266
301.027
283.831
283.168
283.15
283.15
283.15
303.181
283.15
302.923
303.15
293.072
303.15
288.782
283.846
303.15
283.15
303.15
283.15
301.862
303.15
303.15
286.512
300.664
283.15
283.15
283.15
283.15
283.15
283.15
300.917
283.592
303.15
303.15
303.157
303.15
300.306
284.453
283.15
302.159
303.15
301.683
283.15
302.598
283.15
283.148
303.152
283.32
302.166
300.336
283.147
283.15
289.435
303.15
293.533
303.15
283.15
303.15
283.15
283.15
283.15
300.903
302.102
303.15
303.15
303.15
302.916
283.149
303.15
293.043
283.082
303.15
297.557
298.322
296.615
283.384
283.15
283.15
283.15
283.15
294.755
283.15
295.019
283.15
303.065
289.907
283.15
302.877
283.15
283.15
302.766
283.148
302.924
283.15
303.15
283.15
302.426
283.15
303.15
283.15
283.147
283.15
283.172
283.15
283.15
303.15
293.028
301.121
296.239
297.15
303.15
303.119
283.15
283.15
285.782
283.15
283.158
302.863
298.808
302.958
303.15
283.371
283.15
303.15
283.15
303.001
283.336
298.327
283.15
303.15
288.172
303.15
283.15
283.123
295.212
283.147
283.15
283.15
283.149
303.15
283.15
303.143
303.15
303.15
290.054
302.999
303.008
289.126
293.416
283.15
283.15
303.097
289.198
283.15
303.15
284.78
283.15
303.15
283.15
283.15
283.15
297.782
283.15
302.949
283.15
300.605
283.15
283.15
283.15
283.15
283.15
283.15
285.084
283.15
283.15
283.15
283.15
283.15
283.15
292.142
283.15
298.393
302.955
283.15
302.339
283.15
302.548
303.145
292.335
288.839
303.15
292.201
284.836
303.113
303.15
303.139
295.101
288.742
283.15
287.965
283.15
283.15
283.15
283.15
287.606
283.15
283.15
291.683
303.137
285.357
283.15
283.15
302.533
283.15
283.187
303.15
299.919
283.15
283.15
302.832
283.15
303.178
303.15
283.15
289.153
298.019
292.759
285.744
292.72
294.233
283.15
283.15
302.325
290.651
292.913
284.454
283.15
294.419
283.15
303.15
300.813
298.796
283.15
297.455
283.15
292.828
297.349
303.15
283.15
283.15
301.83
283.15
283.15
300.591
296.183
283.197
291.275
283.15
283.15
302.816
300.609
283.15
300.726
283.15
300.585
283.15
283.15
300.885
283.15
283.229
301.657
283.15
283.15
302.466
283.15
287.981
303.15
290.562
303.15
303.15
303.15
301.022
283.15
283.15
299.641
283.15
302.995
283.15
283.15
303.15
283.151
288.269
283.15
283.15
288.13
288.311
283.15
283.7
283.15
303.15
302.452
283.75
301.636
283.15
283.15
283.15
283.15
283.15
283.15
283.15
283.15
283.15
283.15
283.15
303.15
283.15
283.15
283.15
283.15
283.15
283.15
283.15
283.15
303.15
287.017
283.15
283.15
283.15
294.853
283.15
303.15
302.989
283.15
283.15
294.863
283.15
283.15
301.949
295.338
283.15
303.589
303.577
283.15
301.565
294.11
297.679
301.536
298.255
303.15
283.15
296.409
291.899
301.481
283.15
302.189
302.436
300.948
288.097
287.356
301.131
301.806
301.837
303.15
285.941
297.662
285.599
297.37
283.15
283.15
283.15
303.15
283.15
292.123
298.023
283.15
283.15
283.15
283.15
283.15
303.15
283.15
303.15
292.193
303.129
299.128
302.85
283.15
283.15
285.455
283.168
283.15
283.15
301.717
303.15
283.15
298.26
299.608
297.634
298.774
300.888
303.15
291.086
302.609
303.15
303.15
300.409
303.15
283.15
282.927
295.694
302.957
283.15
303.15
289.755
286.241
297.153
292.322
302.478
303.15
303.138
303.15
303.15
283.15
298.98
283.15
291.93
290.563
299.797
284.803
303.15
301.976
303.15
283.15
303.15
303.15
291.583
299.864
283.15
303.15
303.135
291.909
303.044
299.452
292.974
288.379
293.061
283.15
303.15
283.15
291.413
298.429
303.151
303.15
303.15
303.15
297.597
302.57
283.15
300.068
301.21
284.926
299.622
303.15
303.15
298.804
293.108
283.15
302.915
299.829
302.622
292.103
297.435
298.377
303.15
287.035
298.201
291.502
283.15
289.204
303.15
288.458
301.136
303.15
288.779
301.349
300.195
293.314
283.149
283.16
283.243
301.793
300.999
303.15
288.861
301.541
303.15
283.15
303.15
303.208
298.877
291.161
296.858
303.247
283.149
297.709
303.15
303.15
292.948
303.15
300.349
283.313
301.385
291.568
303.15
283.676
293.374
303.15
283.034
298.806
303.15
300.784
286.318
303.15
303.15
284.018
303.15
283.15
283.15
285.945
299.443
291.35
303.15
285.284
297.625
283.15
298.973
299.006
289.033
303.111
283.15
301.524
299.63
298.973
300.188
288.702
290.94
302.497
303.15
301.618
288.777
303.15
298.983
283.15
283.15
303.15
283.15
303.15
297.52
283.15
300.623
283.655
303.15
283.823
283.15
289.914
303.15
303.145
303.15
294.271
303.002
303.122
299.976
290.463
289.515
290.632
298.575
303.15
299.523
292.305
299.061
303.15
283.898
283.468
299.384
287.255
283.525
303.15
283.15
303.15
285.393
303.15
303.305
284.726
303.306
302.963
303.15
303.15
283.15
300.637
300.662
285.574
303.092
287.041
295.814
301.899
292.642
288.298
302.103
296.237
283.15
283.15
303.15
285.875
289.781
283.15
283.15
303.15
302.013
288.828
303.15
296.517
303.15
283.156
285.251
301.115
303.15
303.15
292.424
303.15
283.31
290.669
283.15
297.266
294.73
296.111
303.15
302.735
283.15
302.691
293.584
303.15
303.15
288.847
283.15
303.15
301.857
284.495
303.15
303.15
283.15
302.376
303.424
289.607
299.815
298.086
303.15
303.158
302.629
303.15
283.15
303.15
303.15
303.15
303.15
303.15
303.15
303.15
283.15
303.15
303.15
283.352
303.15
303.313
303.15
303.161
303.15
303.15
301.026
303.676
303.15
292.175
303.15
303.15
283.15
302.587
303.15
302.169
303.117
283.295
283.15
303.15
302.938
283.149
303.15
303.15
291.503
283.15
292.726
283.15
283.15
283.153
291.354
284.878
303.15
296.745
283.15
303.661
303.134
284.349
302.622
283.15
292.302
303.085
301.726
283.15
303.15
283.15
303.982
284.863
296.938
303.15
303.15
303.15
303.15
303.15
303.15
302.39
302.827
297.71
292.234
303.15
287.256
292.774
285.025
303.205
283.15
286.979
302.774
284.813
283.148
287.533
303.15
283.393
302.932
292.669
302.862
301.952
303.15
302.249
303.15
303.15
298.052
303.15
284.523
303.15
303.15
283.15
303.15
303.15
302.862
303.15
283.303
283.15
283.15
285.904
284.941
300.93
286.193
303.15
295.042
303.15
290.56
303.15
287.262
300.772
301.551
293.475
303.15
303.15
303.15
289.861
283.15
303.15
289.614
283.15
283.15
301.882
303.15
286.236
283.148
283.15
303.15
303.15
300.701
298.314
303.15
293.604
303.044
283.15
298.632
303.15
286.455
288.303
302.172
303.15
296.39
296.79
302.963
301.936
301.697
303.15
303.15
303.147
303.15
283.15
303.15
289.62
300.108
294.427
302.172
283.15
300.452
291.533
298.333
283.62
298.453
289.763
302.205
283.15
283.15
283.15
302.249
283.15
290.583
283.15
301.334
303.161
289.774
298.092
283.15
303.15
301.321
301.3
303.15
283.15
303.15
286.465
301.513
302.987
302.378
298.078
288.494
303.15
303.15
303.15
294.429
286.058
289.965
296.028
283.986
302.967
303.15
303.15
283.15
283.15
285.458
299.673
303.15
303.15
283.15
303.15
303.15
303.15
300.36
303.15
285.427
292.872
283.15
283.252
293.504
285.733
303.15
303.15
301.944
303.15
299.341
283.146
297.66
303.15
303.15
283.15
303.15
303.15
303.15
305.378
303.15
301.897
301.148
303.15
303.15
301.682
303.15
283.15
287.32
303.116
303.15
303.15
303.15
298.079
303.15
303.15
302.549
302.522
301.839
303.15
283.15
303.15
302.093
302.542
301.59
302.564
283.15
300.758
287.638
297.516
283.15
303.15
303.15
303.15
303.15
294.504
287.619
299.7
303.15
303.15
303.15
303.15
283.15
303.148
284.847
285.191
283.15
303.15
303.15
283.147
299.689
295.135
283.15
303.15
303.15
303.15
303.15
289.676
289.803
303.15
303.15
302.415
303.15
301.468
283.977
292.021
303.15
283.15
301.188
303.127
303.15
303.272
301.393
286.954
303.15
303.15
303.15
303.15
293.365
284.193
303.15
302.72
298.222
289.901
303.15
303.15
303.15
303.15
299.63
303.151
303.15
303.15
298.41
302.599
288.49
303.15
303.15
297.913
303.15
303.15
303.15
303.15
288.899
303.15
283.15
283.15
296.1
291.229
303.15
303.15
303.15
297.102
303.147
303.15
303.15
303.15
303.15
303.436
300.958
303.15
287.426
302.67
299.503
303.15
303.15
303.15
303.15
283.15
285.749
303.15
302.835
283.15
302.223
303.15
303.137
303.15
283.15
301.95
285.994
283.15
302.847
303.15
302.453
283.15
303.15
303.15
303.151
303.15
283.276
303.15
290.933
283.15
283.15
303.15
303.15
298.966
302.411
283.15
302.471
283.15
284.143
288.109
302.723
283.15
303.155
302.996
303.136
284.447
283.156
302.993
283.15
283.15
283.156
302.128
302.333
303.15
283.15
283.15
295.833
303.15
283.15
303.15
303.15
303.15
303.105
303.053
302.944
302.479
303.15
302.924
303.15
284.868
303.15
303.15
283.15
303.15
303.112
303.15
283.15
303.15
288.383
303.15
303.15
303.181
283.15
303.088
302.357
297.262
303.15
290.047
295.404
284.03
290.613
283.15
283.15
287.269
284.366
283.15
303.729
283.15
286.464
303.15
283.15
303.157
303.15
303.15
303.02
303.155
303.15
283.15
303.14
303.15
283.15
283.103
298.858
302.724
303.15
301.893
303.15
285.744
303.151
301.248
303.15
303.15
301.113
303.15
303.15
303.15
287.762
303.15
285.192
303.15
303.147
303.15
283.15
283.15
303.15
303.15
303.15
288.8
302.582
303.15
303.15
288.731
286.587
291.498
303.15
302.723
287.738
287.616
303.15
303.15
287.941
283.15
292.093
303.15
303.153
303.149
303.15
300.616
283.15
302.33
283.15
303.15
303.15
303.15
303.15
303.15
284.375
302.278
291.247
303.15
303.15
290.775
303.15
303.15
303.15
303.15
303.15
300.265
303.15
303.15
283.15
299.587
303.15
283.15
303.15
301.441
283.15
300.074
290.81
302.703
300.134
299.566
303.15
303.15
303.15
300.935
288.623
283.15
303.15
300.418
303.15
303.15
292.188
303.15
287.572
303.15
297.981
284.368
303.15
283.15
303.15
303.15
303.15
285.333
303.15
300.579
303.15
303.15
299.815
283.15
284.796
303.15
303.15
288.241
301.559
296.602
303.15
303.15
303.15
301.577
292.396
303.15
283.15
303.15
300.763
303.15
284.819
296.489
303.15
303.15
301.214
303.15
303.15
283.15
303.15
283.15
294.792
303.15
283.15
303.15
303.15
303.15
303.15
303.15
303.15
283.15
301.525
283.15
302.122
303.15
303.15
296.217
300.57
303.15
283.15
303.15
300.965
283.15
303.15
303.15
303.15
300.781
303.15
297.838
303.15
285.923
283.15
286.797
303.15
303.15
298.602
283.15
303.15
287.983
283.249
303.15
303.15
285.144
283.881
300.932
301.787
301.258
293.246
301.791
283.87
303.15
297.905
283.15
283.15
303.15
303.15
303.15
301.284
303.15
303.15
303.15
303.132
283.17
283.15
283.574
303.15
302.054
283.15
303.143
296.256
283.15
294.71
303.15
303.15
283.15
299.99
283.95
303.15
283.15
300.017
303.15
297.813
303.15
295.436
303.15
283.15
303.15
283.15
299.492
283.15
283.232
283.15
286.26
303.15
303.15
283.15
283.15
303.15
303.15
303.15
303.15
284.917
284.861
283.15
303.15
283.235
283.15
283.15
303.155
290.021
283.553
283.15
301.566
284.931
300.508
288.311
303.15
303.15
303.15
303.15
283.15
283.15
283.15
303.15
283.15
283.15
303.15
283.15
297.35
283.15
303.15
283.15
303.15
303.15
283.442
283.15
303.15
301.994
303.149
303.15
303.15
303.15
288.792
283.15
303.15
303.149
283.15
303.15
303.15
303.15
295.331
283.15
283.187
303.15
303.15
303.15
303.15
303.15
303.149
303.147
284.139
303.15
283.15
303.15
303.15
303.15
303.148
303.149
283.15
283.15
283.15
303.15
303.15
283.15
303.15
283.15
287.774
283.15
301.863
283.15
303.154
303.15
284.641
283.15
284.482
297.53
303.15
284.726
303.172
303.15
297.54
283.15
303.15
303.15
303.15
303.15
283.15
303.15
303.15
299.269
283.15
303.15
303.15
303.15
303.15
292.392
290.873
303.169
283.167
303.15
301.867
302.353
303.15
283.15
283.15
303.15
303.15
303.15
283.15
283.15
283.839
303.15
303.15
303.194
303.151
283.15
288.998
303.15
283.15
303.15
288.181
303.15
283.15
302.155
283.15
283.15
283.15
303.15
299.759
303.15
303.15
303.15
283.15
284.537
293.717
295.379
289.7
303.125
303.027
283.15
283.15
301.107
283.71
283.15
303.149
303.15
303.15
283.15
294.683
303.15
283.15
302.989
303.15
303.15
283.818
303.15
303.15
288.529
289.718
303.15
283.15
303.15
283.15
303.15
303.15
303.15
303.15
283.966
303.15
303.15
303.15
302.942
303.15
303.15
283.15
283.15
283.15
283.15
302.954
283.15
283.15
301.033
303.15
284.804
284.967
303.15
301.194
303.15
283.15
303.15
283.15
283.15
303.15
303.15
303.15
302.688
303.15
303.15
303.15
283.15
303.15
283.15
286.438
303.15
303.15
291.736
303.15
283.15
283.15
302.45
303.15
303.148
283.15
303.197
286.752
283.15
283.15
299.304
283.15
283.15
303.055
303.16
293.397
303.166
303.151
303.152
283.15
283.15
302.666
283.47
285.924
300.92
283.159
283.15
291.108
301.625
301.527
283.15
300.296
290.737
300.185
302.246
302.79
284.737
295.645
299.322
286.292
293.47
300.185
303.15
297.971
297.731
302.803
283.68
292.521
301.211
287.377
303.15
301.13
303.15
300.759
301.554
283.651
285.043
303.15
283.15
302.296
301.737
283.145
303.172
288.604
302.7
301.928
300.902
303.15
303.224
301.207
295.229
300.459
289.168
302.933
301.658
302.205
302.312
284.252
302.529
301.653
283.183
303.15
302.908
303.15
303.15
302.136
302.047
294.411
303.15
284.725
292.412
292.405
301.128
303.15
284.053
285.244
284.417
303.15
298.913
303.15
296.424
295.49
300.821
303.143
303.15
303.15
302.004
301.325
302.801
303.15
292.698
302.765
290.13
283.15
298.397
294.085
303.15
300.54
283.15
283.205
283.15
302.606
303.105
303.15
302.987
298.515
283.148
300.571
302.26
295.383
283.551
295.982
297.195
283.478
303.134
284.798
296.347
283.325
297.038
300.576
300.345
300.448
302.035
290.108
301.635
303.15
302.742
302.676
302.67
296.52
302.896
283.15
302.063
293.496
303.15
283.443
286.871
301.261
302.618
290.595
284.861
287.785
302.644
296.496
303.15
303.15
295.119
283.15
292.777
283.441
303.15
290.613
290.378
283.934
303.15
297.367
298.53
284.267
301.328
294.24
290.227
300.581
303.111
303.15
303.15
283.566
302.642
283.356
285.877
303.15
303.024
303.043
303.15
285.462
300.827
298.002
283.255
299.648
302.403
300.579
287.019
283.15
303.108
301.856
283.765
283.143
303.15
303.079
303.15
303.15
284.217
302.561
296.417
283.044
283.152
303.15
283.15
302.962
303.05
302.534
301.473
303.15
283.15
283.15
301.872
301.927
283.224
295.916
303.15
303.15
301.678
285.574
283.263
301.738
301.835
301.78
284.436
303.15
283.15
298.515
297.841
303.15
302.724
302.122
284.885
285.035
302.153
303.057
303.15
298.25
284.464
283.15
303.15
300.607
301.3
302.061
289.736
302.115
285.74
300.254
300.298
290.41
297.691
303.15
303.15
301.012
284.518
302.132
283.151
300.593
301.759
283.643
288.353
302.45
283.15
283.15
283.027
303.15
303.15
300.035
298.997
302.318
283.147
283.15
283.97
283.151
283.15
283.152
303.082
301.003
299.284
296.052
283.378
303.103
300.24
303.15
283.15
302.589
289.315
300.864
292.75
283.519
303.065
283.148
283.15
302.849
301.287
302.636
283.157
291.429
284.928
303.15
284.296
301.089
283.15
283.313
285.005
284.342
283.15
283.15
301.696
283.15
289.527
302.556
302.723
301.809
283.494
298.774
290.391
283.15
303.309
292.201
283.15
283.15
283.15
303.15
301.231
302.447
299.243
301.522
299.96
288.988
283.155
291.051
290.206
303.064
291.266
300.092
292.145
283.15
286.356
301.145
301.593
283.15
284.017
299.727
283.15
303.15
283.191
301.334
303.15
284.042
302.28
303.028
303.15
283.15
292.891
303.153
301.751
283.15
283.15
283.15
302.23
297.734
303.142
302.223
303.165
303.15
288.518
303.165
290.513
300.318
300.279
296.73
283.157
301.757
283.15
290.679
301.484
289.622
290.558
299.098
300.797
301.661
287.233
291.186
285.093
283.174
302.253
286.188
283.149
283.145
300.295
283.077
300.396
287.122
296.114
299.556
289.359
299.4
283.121
299.159
283.15
290.106
289.646
298.745
283.338
283.15
300.647
283.15
302.813
283.15
303.15
286.533
286.548
283.15
299.121
298.607
287.14
303.15
303.15
301.783
289.845
303.023
283.751
301.64
287.217
303.147
284.234
288.312
303.15
301.492
283.15
283.15
287.635
287.142
283.145
285.32
301.561
286.327
301.208
303.15
285.224
301.802
291.296
303.15
303.15
301.68
302.091
303.15
293.12
294.336
283.704
296.568
286.91
290.146
303.15
302.873
297.155
285.094
283.15
287.797
291.966
299.746
283.166
283.775
282.922
301.998
303.127
283.151
303.135
303.15
300.622
293.201
298.956
294.021
283.15
291.989
296.154
285.659
283.213
292.369
283.15
300.292
303.164
292.71
284.128
303.145
291.929
298.737
288.373
300.378
291.37
287.445
283.15
303.142
285.39
290.067
293.615
283.15
283.15
283.15
303.141
283.15
283.136
286.51
303.15
283.15
303.165
283.173
291.163
289.375
303.42
302.926
290.006
303.15
297.143
303.173
302.052
287.382
283.15
293.098
303.146
303.098
286.289
283.15
283.15
283.484
286.121
303.061
303.145
287.589
289.571
283.502
283.162
289.934
293.288
303.15
283.15
303.104
303.15
302.369
285.055
302.356
303.097
284.096
283.799
284.077
302.862
302.217
297.448
294.073
303.077
291.408
291.091
303.15
303.101
302.617
285.504
283.391
303.15
286.007
283.395
302.943
301.689
302.215
283.15
300.422
301.903
303.15
302.194
285.452
303.15
298.026
303.15
283.15
300.766
302.702
286.41
302.521
283.15
285.244
303.017
283.15
302.336
285.412
294.986
284.373
303.15
303.024
302.882
286.565
283.15
287.204
284.295
289.89
285.818
302.291
303.15
283.15
283.15
293.171
283.15
301.081
302.205
290.412
283.15
294.085
283.15
303.15
283.15
300.084
298.71
283.151
285.335
301.744
303.093
303.156
292.059
294.391
301.273
283.225
301.819
283.145
303.15
303.145
299.446
283.15
301.514
294.929
303.15
300.98
287.382
301.966
284.935
288.309
283.15
302.262
287.82
298.524
303.08
283.15
303.15
291.74
302.204
283.075
283.147
286.891
298.47
303.149
284.588
301.099
301.069
301.317
303.152
299.992
287.737
284.972
301.647
299.99
283.754
283.099
303.159
303.149
303.15
297.495
283.162
283.15
303.15
303.149
290.003
298.942
300.305
287.866
302.814
303.15
286.465
301.591
303.15
300.989
283.817
301.52
303.15
284.595
301.403
295.534
302.776
303.15
303.15
285.229
295.225
296.525
287.51
303.15
303.15
283.15
287.288
302.43
296.315
303.15
285.628
303.15
303.15
300.464
288.791
283.15
295.7
296.027
299.085
283.15
303.15
292.739
287.291
303.15
298.088
300.6
300.507
303.15
303.15
303.15
300.319
298.458
302.814
299.991
283.15
292.918
287.76
290.774
300.654
303.15
303.15
300.845
303.102
286.646
296.236
303.15
303.148
283.15
286.499
299.052
285.633
303.15
303.15
283.351
303.126
303.15
303.15
283.15
290.574
303.15
303.15
284.628
299.328
283.15
303.15
284.651
301.392
300.257
287.062
294.974
303.15
283.507
303.15
303.15
283.301
300.61
290.471
300.478
303.15
303.133
302.206
292.896
299.868
301.407
284.477
283.468
300.861
298.515
303.15
302.769
284.168
299.84
301.435
287.798
303.15
297.471
301.462
301.547
301.586
292.923
303.15
283.15
299.247
283.15
283.15
287.801
283.15
284.03
283.15
283.15
283.15
283.15
302.77
288.166
302.719
283.15
295.814
290.986
284.776
283.15
303.15
302.695
301.767
303.175
302.655
283.15
294.931
300.352
290.215
283.15
283.15
299.877
285.961
283.15
283.15
303.149
290.664
283.15
287.227
303.15
303.152
284.337
283.15
288.321
292.96
300.809
294.601
302.965
285.695
302.528
295.324
286.326
283.15
283.551
291.727
303.087
289.244
302.673
283.15
292.416
287.798
301.048
301.269
284.952
303.111
284.97
297.187
302.989
303.148
285.16
303.146
303.012
293.39
302.684
283.15
303.15
303.15
294.867
291.167
283.155
301.164
284.709
284.172
284.653
303.145
288.399
300.54
283.15
283.15
302.53
303.151
294.654
302.911
303.181
299.903
303.217
302.899
283.15
301.356
302.894
283.15
303.15
301.334
303.15
284.349
298.868
283.165
291.611
283.15
287.626
303.023
299.854
283.15
303.032
290.936
301.245
303.131
303.081
283.15
283.15
301.945
302.037
283.818
302.827
302.441
302.403
303.141
283.15
293.861
283.15
302.805
287.92
302.994
303.15
283.15
302.842
285.179
291.521
302.085
283.15
302.604
302.034
301.618
302.508
303.054
303.205
303.016
303.15
283.15
301.539
297.926
303.09
303.15
290.025
285.061
303.15
283.15
285.374
303.183
303.164
302.927
301.189
284.296
303.101
290.743
294.24
303.148
289.133
303.163
283.15
289.937
283.15
300.042
298.249
284.82
288.263
299.686
296.654
295.353
299.25
293.849
303.153
293.885
296.504
283.158
299.457
293.883
303.15
299.014
299.221
303.15
291.317
303.171
301.712
303.15
286.968
286.031
302.811
289.709
283.15
283.15
300.405
301.145
283.744
283.15
303.15
300.282
302.349
300.69
299.949
302.798
292.623
289.68
286.695
292.527
284.327
290.489
283.31
295.729
290.466
293.973
287.187
284.308
303.162
283.276
303.147
285.654
300.771
283.151
300.395
298.379
288.781
302.114
285.445
299.152
283.15
302.96
283.155
283.113
287.88
299.728
303.15
300.367
303.026
299.963
302.775
303.15
301.315
284.982
295.073
302.08
303.149
283.717
283.15
290.42
285.262
285.792
303.143
303.149
283.15
283.15
283.177
303.15
293.483
303.15
303.153
294.8
303.435
303.15
300.425
303.15
303.15
293.686
290.661
303.15
289.872
302.092
289.596
303.15
303.15
286.051
283.34
290.389
303.22
303.15
303.146
285.508
283.261
283.15
289.054
287.675
303.15
284.329
303.15
303.15
303.132
287.373
303.15
303.147
283.284
303.152
302.679
287.955
283.151
283.621
297.36
290.803
303.15
285.958
284.475
301.375
287.166
302.237
290.604
293.935
303.15
303.15
284.028
303.151
302.957
295.881
302.953
302.754
287.227
283.15
285.383
283.221
297.246
302.611
285.431
303.15
283.821
286.753
303.127
283.176
303.15
286.473
283.15
300.117
303.15
299.789
299.99
283.312
283.368
302.345
291.011
301.344
303.15
301.441
301.785
303.15
303.15
298.407
293.557
283.15
288.882
303.15
295.227
283.368
303.15
296.973
298.784
289.034
303.15
302.771
294.346
295.466
284.489
303.161
298.788
296.247
284.004
303.126
302.813
287.453
298.544
289.841
290.849
289.777
283.15
302.959
303.151
303.15
303.171
293.234
296.431
302.981
301.334
303.15
284.468
303.15
303.048
302.868
303.15
293.67
296.272
303.15
285.428
303.099
303.15
303.095
303.156
286.117
293.423
291.173
288.439
293.407
303.15
301.271
291.578
295.437
293.472
303.141
303.15
300.6
303.187
284.275
303.188
303.15
303.15
303.143
303.15
284.989
303.15
284.262
303.146
303.15
290.326
303.145
292.545
295.592
303.135
295.428
286.01
283.441
303.127
302.941
284.72
283.15
297.159
303.15
285.552
302.922
302.075
303.022
298.442
287.126
303.15
298.707
289.942
299.412
283.15
283.632
303.15
303.145
303.189
294.08
303.15
292.5
289.396
303.194
303.15
284.845
298.868
293.317
299.675
302.501
301.597
300.451
303.15
284.742
296.955
302.38
285.656
298.34
292.347
284.503
291.761
303.15
286.756
291.915
290.141
299.515
303.15
286.477
284.104
303.15
302.454
288.178
302.113
283.15
303.15
299.902
301.733
289.122
302.019
301.924
301.854
303.15
289.438
285.167
301.994
302.263
297.232
303.15
283.203
303.15
302.019
303.15
302.834
303.15
291.761
303.15
296.65
283.15
289.623
303.15
283.15
292.185
301.494
300.478
289.247
300.557
303.15
302.512
303.15
302.378
285.266
303.15
300.464
290.471
303.15
300.861
303.15
303.15
293.207
283.15
285.582
293.314
300.974
303.15
291.294
293.981
288.278
289.687
288.139
299.249
300.263