/*--------------------------------*- C++ -*----------------------------------*\
  =========                 |
  \\      /  F ield         | OpenFOAM: The Open Source CFD Toolbox
   \\    /   O peration     | Website:  https://openfoam.org
    \\  /    A nd           | Version:  10
     \\/     M anipulation  |
\*---------------------------------------------------------------------------*/
FoamFile
{
    format      ascii;
    class       volVectorField;
    location    "26";
    object      U;
}
// * * * * * * * * * * * * * * * * * * * * * * * * * * * * * * * * * * * * * //

dimensions      [0 1 -1 0 0 0 0];

internalField   nonuniform List<vector> 
111485
(
(0.200085 -0.20022 0.00035553)
(0.567955 -0.0014177 -0.0037286)
(0.561706 0.00130787 0.00175436)
(0.200482 -0.200531 7.16153e-06)
(0.583986 0.00262834 -0.000161524)
(0.199421 0.19938 3.99174e-05)
(0.573812 0.00143418 0.00029791)
(0.58851 -0.001403 0.000869675)
(0.574402 -0.000288729 0.000387691)
(0.586116 -0.00601218 -0.0025189)
(0.565139 0.00136236 0.0016165)
(0.59191 -0.00114558 0.00283423)
(0.556677 0.000190755 0.00117402)
(0.561126 -0.00146241 -0.00378225)
(0.570261 0.0021829 0.00118041)
(0.580578 -0.00345031 -0.00217606)
(0.571839 -0.000732985 0.00081243)
(0.205449 -0.024028 0.033345)
(0.585411 0.00153828 -0.00133103)
(0.197959 -0.197628 -4.35216e-05)
(0.198485 -0.198475 -0.000279654)
(0.2001 0.200029 9.74448e-06)
(0.578809 0.00142504 -0.000303394)
(0.586891 -0.00384257 -0.00111821)
(0.576116 0.00280576 -0.000987814)
(0.201853 -0.201065 -0.000300189)
(0.594133 -0.00254269 0.00316003)
(0.562108 -0.000983708 3.38529e-05)
(0.586633 0.000791486 -0.00151637)
(0.199436 -0.199496 2.20105e-06)
(0.591244 0.010899 -0.00303338)
(0.583825 -0.00112887 0.000176758)
(0.198128 -0.198603 0.000328565)
(0.199753 0.200124 -0.000504659)
(0.200753 0.0820223 0.0345199)
(0.200691 0.201823 -0.00281333)
(0.588815 0.0106508 -0.00441482)
(0.569348 0.000829721 0.00506341)
(0.581556 0.174239 0.0113008)
(0.583992 0.00303526 0.000416315)
(0.196574 0.198197 -0.00139499)
(0.590896 0.000546466 -0.00360351)
(0.583162 0.00318851 0.0011525)
(0.562577 -0.0043643 -0.000872035)
(0.5895 -0.0107184 -0.00523524)
(0.199677 -0.198553 0.00122414)
(0.59074 -0.00258684 0.00286551)
(0.586067 -0.00353265 -0.00102308)
(0.590823 0.000110319 -0.00275393)
(0.199137 -0.196931 0.00119988)
(0.197748 -0.195894 0.00126128)
(0.228035 0.191106 0.00311917)
(0.197021 -0.196414 0.000674923)
(0.590698 0.00264006 -0.00537289)
(0.196666 -0.195744 0.000169973)
(0.583399 0.00153268 -0.000609851)
(0.583093 -0.00256892 -0.00105404)
(0.200069 0.199793 4.2432e-05)
(0.531243 -0.00120321 -0.00940425)
(0.586214 0.00241183 -0.000332053)
(0.58595 0.00272234 -0.000223992)
(0.199653 -0.199985 0.000247083)
(0.542327 0.000576149 0.00361377)
(0.593618 -0.00121581 0.00457725)
(0.206085 0.186289 0.00018007)
(0.535717 0.000998527 -0.00127963)
(0.410927 -0.0373365 0.0142372)
(0.587841 -0.00190846 0.000838432)
(0.528982 0.000318205 0.00180813)
(0.499704 -0.00111166 0.00024835)
(0.565626 0.00454819 -0.00353243)
(0.524086 -0.00102099 0.00185385)
(0.214913 -0.194242 -0.00422816)
(0.53629 0.00105362 0.00422444)
(0.199885 -0.199761 7.5823e-05)
(0.58511 -0.00135051 0.00059267)
(0.200003 0.200066 -5.49738e-05)
(0.591028 -0.0012313 0.00315112)
(0.199865 0.19978 -4.91781e-05)
(0.178175 0.173611 -0.00659217)
(0.568495 -0.00881251 0.00591603)
(0.585712 0.00207361 0.000469609)
(0.198946 0.198547 -2.7452e-06)
(0.199828 -0.19979 9.27686e-05)
(0.552918 -0.000146284 0.00101741)
(0.530874 0.00144954 -0.00227842)
(0.453207 0.288762 -0.080402)
(0.582547 0.00727315 0.000639993)
(0.560417 0.0149795 0.0136579)
(0.567282 0.000805098 0.00163408)
(0.599019 0.0109945 -0.00729462)
(0.584759 -0.000953136 0.00104589)
(0.545938 -0.000992073 0.0019362)
(0.554453 -0.000627038 0.000604183)
(0.591868 0.00170956 -0.00376177)
(0.199881 -0.199861 1.95289e-05)
(0.199182 -0.199057 0.000148406)
(0.582343 0.00678537 0.0020343)
(0.608858 -0.127517 0.00345815)
(0.549751 0.00533864 -0.00164131)
(0.199814 -0.199827 0.000104532)
(0.585192 -0.00318022 0.000496564)
(0.200924 0.201225 0.00109942)
(0.580096 2.30766e-05 -0.000310882)
(0.573651 -0.0025854 -0.00326085)
(0.196491 0.17438 -0.00439924)
(0.200199 0.200099 -6.88985e-05)
(0.584128 -0.00141529 -7.01209e-05)
(0.540226 -0.00303384 0.000408547)
(0.518127 -0.0152928 -0.0165509)
(0.553304 -0.000485521 0.00118439)
(0.579941 0.000844536 -0.000237226)
(0.541521 -0.000443784 0.00196248)
(0.532306 -0.00327403 0.000931217)
(0.20179 -0.200745 3.23221e-05)
(0.511019 -0.000476726 0.0017116)
(0.200954 -0.20036 -0.000263235)
(0.20082 0.199604 0.00116241)
(0.570657 0.00215477 0.00162904)
(0.200388 -0.200259 6.03779e-05)
(0.202 -0.201009 -0.000107315)
(0.264544 0.207205 0.0129349)
(0.197213 0.198144 -0.000382734)
(0.199959 0.199459 -0.000716833)
(0.557956 -0.00134844 0.00238843)
(0.160354 -0.114493 -0.0293259)
(0.252346 0.215884 0.00847017)
(0.516012 -0.000193682 0.00258034)
(0.200135 -0.20004 -8.20601e-05)
(0.58547 0.0419483 -0.0154116)
(0.587263 0.0126601 -0.00678458)
(0.581331 0.00697292 0.00200584)
(0.198972 -0.198498 -0.00113885)
(0.258837 0.22454 0.023575)
(0.241183 0.214632 0.0107579)
(0.586539 0.00168177 -0.00144202)
(0.200324 0.200265 -8.81753e-05)
(0.581808 0.00141187 3.97108e-05)
(0.577925 0.00264878 0.00177915)
(0.568097 0.00266845 0.00269253)
(0.442452 -9.28994e-07 0.00188517)
(0.582333 0.00322959 0.000679784)
(0.577222 0.00291951 0.00187528)
(0.551139 0.000541751 -0.00226925)
(0.577584 -0.000924436 -0.000562765)
(0.568936 -0.000612995 0.0014602)
(0.200424 0.200444 -3.19652e-05)
(0.200035 -0.200069 1.21869e-05)
(0.199729 0.199949 0.000471424)
(0.583599 0.00269044 0.000497724)
(0.551673 0.000916972 -0.00199743)
(0.198523 -0.198479 0.00011646)
(0.375733 -0.00219794 0.00378748)
(0.569467 0.00280626 0.00179046)
(0.624212 0.0245303 0.0105803)
(0.586551 0.00167885 -0.00125408)
(0.584119 0.0018311 -0.000566255)
(0.540826 0.000132363 -0.00130497)
(0.626028 0.0339526 0.00584423)
(0.198831 -0.200839 0.00104357)
(0.199926 -0.200087 0.000240268)
(0.585816 0.00158861 -0.00128621)
(0.57337 -0.00189138 -0.00189512)
(0.630251 0.0343576 0.00645324)
(0.620962 0.031191 0.00839584)
(0.541625 0.000381607 0.00288816)
(0.584098 0.00687846 -0.00265823)
(0.196875 0.198965 -0.000242827)
(0.638777 0.041941 0.0090265)
(0.608878 0.03117 0.00880698)
(0.200026 0.200158 5.20416e-05)
(0.199609 -0.199665 9.60479e-06)
(0.465924 0.000485345 -0.00382949)
(0.200297 0.200389 2.84228e-05)
(0.581594 -0.0010915 -0.000153488)
(0.56047 0.000411985 -0.00122739)
(0.199886 0.194939 -0.00120237)
(0.215604 -0.198778 0.00200576)
(0.198869 -0.197869 -0.000446139)
(0.197175 0.185815 -0.00194971)
(0.216587 -0.200239 0.00320203)
(0.199823 -0.199951 0.000201032)
(0.582027 0.0021378 0.000677655)
(0.58355 0.00144176 -0.00120383)
(0.58129 0.00160584 -0.000757723)
(0.57234 -0.00237048 0.00230643)
(0.552072 -0.00172762 0.000300469)
(0.554791 0.000925871 0.00188966)
(0.494719 0.00634732 0.000770485)
(0.199304 -0.198536 5.0891e-05)
(0.536161 0.000127056 0.00093489)
(0.215055 -0.200346 0.00193497)
(0.201309 -0.201491 -3.89167e-05)
(0.559328 0.000953815 0.00193869)
(0.586372 -0.00671822 -0.00238377)
(0.582361 0.000973857 -0.00292098)
(0.559116 -0.000699909 0.000454122)
(0.569061 0.000229513 0.000326034)
(0.199355 -0.199036 0.000483641)
(0.558784 -0.00266252 0.000694527)
(0.556169 -0.000468864 -0.00309457)
(0.384925 0.119411 0.0153934)
(0.570111 -0.00486374 4.45277e-05)
(0.57904 -0.000909432 0.000536995)
(0.200418 -0.199165 -0.00050539)
(0.556776 0.0013012 0.00208591)
(0.584711 0.001284 -5.26203e-05)
(0.218556 -0.198473 0.000662063)
(0.561452 0.00114658 0.00259642)
(0.589555 -0.000495302 0.00322797)
(0.551088 0.000626362 -0.00230543)
(0.555 0.00146534 0.00262428)
(0.21638 -0.200803 0.00252936)
(0.198886 -0.198961 -2.32674e-05)
(0.554771 0.00153526 0.00289637)
(0.360272 0.224022 -0.0210398)
(0.595752 0.0024724 -0.00615639)
(0.199879 0.199932 -0.000140157)
(0.558433 0.00117421 0.00241879)
(0.559719 0.000352992 0.000359764)
(0.592653 -0.00193294 0.00384734)
(0.200119 -0.200078 3.04909e-05)
(0.52038 -0.000339737 0.00137258)
(0.585166 0.00898545 0.00440303)
(0.319119 0.213769 -0.0245156)
(0.200293 0.200356 -0.000146875)
(0.200005 0.200154 5.78073e-05)
(0.597538 -0.00292901 0.00595395)
(0.555381 0.0121824 -0.00331419)
(0.210475 0.176875 -0.00428847)
(0.246109 -0.191888 0.00807123)
(0.561206 0.000564818 0.00109507)
(0.579838 0.000773717 -7.39237e-05)
(0.583161 0.00121979 0.000521865)
(0.206979 0.179395 -0.00553759)
(0.209613 -0.19478 -0.00122296)
(0.562493 0.00717493 -0.00852832)
(0.19987 -0.199806 8.76746e-05)
(0.534214 0.00063824 -0.00289751)
(0.554887 0.000444138 0.00248872)
(0.561123 0.000298186 0.00147613)
(0.561709 0.00120024 0.00154549)
(0.564001 0.000634515 0.00198402)
(0.199301 0.199404 0.00061169)
(0.426369 -0.000873531 -0.0159625)
(0.569528 0.00179249 0.00174409)
(0.198214 0.198815 -3.41017e-05)
(0.200133 0.200215 5.02151e-05)
(0.592943 -0.00689854 -0.000409034)
(0.579594 0.00270666 -0.000656404)
(0.204725 0.173257 -0.0056337)
(0.528324 -0.000668914 0.000995361)
(0.568667 0.00158859 0.00148938)
(0.200285 -0.200183 -5.18931e-05)
(0.253941 0.240343 -0.00128071)
(0.584805 0.00622366 -0.00276879)
(0.201121 -0.198606 0.000172478)
(0.221712 -0.159447 -0.0038274)
(0.300907 -0.107203 -0.0107431)
(0.2005 -0.19985 -0.000125155)
(0.572997 -0.000945562 -0.00108255)
(0.556565 -0.000951936 -0.00105784)
(0.579257 0.000806489 -0.0015219)
(0.199978 -0.200056 -3.99941e-05)
(0.572503 0.00160316 0.00137306)
(0.200461 -0.200511 3.57527e-06)
(0.200322 -0.200469 0.00013783)
(0.199169 -0.198303 0.000395221)
(0.395867 0.00180746 -0.00535841)
(0.589866 -0.00259863 0.00321509)
(0.560027 0.00210536 0.00249501)
(0.570839 0.00192361 0.00127535)
(0.590095 -0.00299455 7.3108e-05)
(0.568537 0.000890729 0.00169491)
(0.582337 0.00221454 0.000790788)
(0.586567 0.0106315 -0.000985478)
(0.575755 0.000461833 -0.000226553)
(0.580122 0.000873667 -0.000306434)
(0.203841 0.20048 -0.00011813)
(0.199011 -0.199083 -0.000271995)
(0.362811 0.00258252 -0.0077232)
(0.582859 -0.00118977 0.000461615)
(0.587069 0.00479729 0.00499283)
(0.555888 -0.000782942 -0.00087762)
(0.200426 -0.200296 4.82641e-05)
(0.578961 0.0019037 0.00117757)
(0.581425 0.00309963 0.00148361)
(0.570577 0.00125948 0.000767362)
(0.500984 -0.000597625 -0.00235674)
(0.527032 -0.00583881 -0.0133723)
(0.579327 0.0017556 0.00051588)
(0.569381 0.00147226 0.00140245)
(0.5807 0.00539331 -0.00333749)
(0.200001 0.200097 1.01486e-05)
(0.533712 0.00296485 -9.14075e-06)
(0.199877 0.200009 -7.78904e-05)
(0.161187 0.119865 -0.0269169)
(0.226201 -0.146011 -0.01204)
(0.602012 -0.00582499 0.0111318)
(0.590241 -0.00298468 0.000101087)
(0.575682 -0.000291304 0.000228613)
(0.200289 -0.199769 -8.0697e-05)
(0.199229 0.20034 0.0017271)
(0.578438 0.00211343 0.0012061)
(0.554481 0.00079674 -0.000626064)
(0.198663 -0.198631 5.23941e-05)
(0.200233 -0.200113 0.000232096)
(0.195409 -0.196552 0.00126633)
(0.548903 0.000735929 -0.000141691)
(0.577483 0.000510414 -0.000631285)
(0.550189 -0.000102352 0.00205638)
(0.530471 0.00111403 -0.0021162)
(0.587988 0.00195263 -0.0013789)
(0.229521 0.196902 0.00583148)
(0.199712 0.200194 0.000382846)
(0.19959 -0.199413 -8.37054e-05)
(0.576239 0.0021885 0.00162929)
(0.378086 -0.320556 -0.0166041)
(0.549594 -0.000547792 0.000787696)
(0.598641 -0.00376246 0.0137586)
(0.482889 0.00101984 -0.0097343)
(0.200157 0.200137 -2.43495e-07)
(0.199805 -0.200002 0.000165548)
(0.200386 -0.200496 -8.70555e-05)
(0.253531 0.211951 0.0133907)
(0.583884 0.00191661 -0.000126171)
(0.588409 -0.00294614 0.000560408)
(0.199754 0.200765 5.3525e-05)
(0.580659 0.00152222 -0.000179652)
(0.211851 0.170169 0.0125463)
(0.199682 -0.197291 -0.000303678)
(0.595445 -0.00186202 0.00498189)
(0.578816 0.00200233 0.0010538)
(0.591102 -0.000316553 0.00139528)
(0.580885 0.00158671 -0.000120024)
(0.191852 0.168976 0.0107081)
(0.251022 0.215298 0.0145606)
(0.199381 0.199641 -0.000382738)
(0.579905 0.00197168 0.00076066)
(0.579078 0.00182696 -7.43012e-05)
(0.589831 0.0115136 -0.00431176)
(0.1971 0.196602 0.000376996)
(0.403873 0.353695 -0.0872638)
(0.55116 0.00205971 0.00479411)
(0.589493 -0.00262916 0.00144605)
(0.57966 0.00209792 0.00136359)
(0.549453 0.0558276 -0.00391852)
(0.58804 0.00127407 -0.00174664)
(0.198969 0.198963 0.000117602)
(0.587744 0.00151962 -0.00139802)
(0.565528 0.000735084 0.00118015)
(0.593868 -0.0135171 5.64175e-05)
(0.597341 -0.00357131 0.00753998)
(0.574649 -0.00487168 -0.00418844)
(0.198775 0.199821 -0.000651708)
(0.199229 -0.199677 -0.000439225)
(0.200197 0.198871 0.000770379)
(0.198135 -0.198714 -2.63205e-05)
(0.58772 -0.00242533 0.000257008)
(0.582096 -0.000600395 0.000107659)
(0.584014 0.00265731 -0.00245546)
(0.587992 0.00155903 -0.00180541)
(0.198062 0.198239 -0.000851913)
(0.581037 -0.00379082 -0.00166942)
(0.200003 0.200023 6.12735e-05)
(0.199399 -0.199848 6.4765e-06)
(0.587786 0.00184864 -0.00133179)
(0.18439 -0.184462 0.00273004)
(0.325937 -0.0635219 -0.00353181)
(0.197001 -0.196225 -0.000205977)
(0.200341 0.19666 0.00116487)
(0.582545 0.000677659 -0.000572042)
(0.200041 0.199901 2.18397e-05)
(0.575318 0.0014775 -0.000376768)
(0.547121 0.000416402 -0.00226036)
(0.200588 0.200596 -5.461e-05)
(0.525576 -0.000243718 -0.00258994)
(0.572905 0.000928779 0.00101796)
(0.201665 0.176173 -0.00653568)
(0.569273 0.00253158 0.00302491)
(0.540924 0.00228234 -0.0005717)
(0.573418 0.00273077 0.000980794)
(0.533655 0.00107491 0.00736489)
(0.578457 0.00152117 0.000467056)
(0.553518 0.000258158 -0.000951364)
(0.197985 0.167952 -0.000852023)
(0.198827 -0.198487 0.00123253)
(0.494705 0.00090955 0.0121961)
(0.198285 0.198926 -0.0011758)
(0.572615 0.00298828 0.00286426)
(0.596135 -0.00328678 0.00587248)
(0.20069 0.191472 0.00175626)
(0.199498 0.200387 -3.28857e-05)
(0.586175 -0.000905449 0.000449315)
(0.563588 -0.00253426 -0.00511718)
(0.56616 0.00291607 0.000277359)
(0.586972 0.00196366 -0.00076684)
(0.199968 0.199611 -7.81469e-05)
(0.597681 -0.000961081 0.0100367)
(0.589327 -0.00202958 0.00302903)
(0.200885 0.200571 2.09777e-06)
(0.576256 0.00953387 0.00784819)
(0.549799 -0.00229069 -0.00629482)
(0.199618 -0.199688 -1.33453e-05)
(0.198938 -0.198953 8.01539e-05)
(0.573959 0.00152003 -0.000355026)
(0.578221 0.000401006 -0.000917671)
(0.200122 0.200048 -0.000310833)
(0.199616 -0.1992 -0.000298991)
(0.345015 -0.189142 0.0417683)
(0.200335 -0.20047 7.91068e-05)
(0.578516 -0.00115849 -0.000201915)
(0.198569 0.199285 0.000422122)
(0.200432 -0.20051 1.25264e-05)
(0.591181 -0.00019912 0.0018504)
(0.536846 -0.00647471 -0.0153627)
(0.584115 -0.00370207 0.000840204)
(0.565444 -0.000204714 0.00100519)
(0.200765 0.200632 2.81645e-05)
(0.260985 0.200056 0.0100555)
(0.565279 0.00786678 0.0118966)
(0.244133 0.21444 0.0122157)
(0.563737 0.00251503 0.00477118)
(0.560227 -0.00491515 0.000173452)
(0.586217 -0.00218889 -0.00174992)
(0.404143 0.00703661 0.015542)
(0.239638 0.205297 0.0107176)
(0.584066 0.000727221 -0.00562414)
(0.592496 0.0190111 -0.00575448)
(0.199875 -0.200205 0.000261937)
(0.591709 0.00144185 -0.00625923)
(0.592153 -0.00246031 0.00227214)
(0.200044 -0.199982 0.00018267)
(0.57479 0.0326963 -0.0193129)
(0.498354 0.000172821 -0.00643994)
(0.253574 0.1987 0.00802101)
(0.589815 -0.00115576 0.00238508)
(0.582337 0.000786725 -0.000779604)
(0.578426 0.00151877 -0.000415763)
(0.200001 0.199891 -5.58008e-05)
(0.575154 -0.00100994 0.00410441)
(0.592067 8.66636e-05 0.00193612)
(0.572995 0.0056308 -0.000588774)
(0.358855 -0.00575451 0.0065691)
(0.244396 0.229862 -0.00503801)
(0.339041 -0.0107321 0.0128955)
(0.199753 -0.200051 0.000188636)
(0.531212 -0.0187085 -0.0178597)
(0.57531 -0.0011207 -0.0037052)
(0.200075 0.19998 0.000280836)
(0.548731 0.00129322 -0.00389954)
(0.450123 -0.00105023 0.00887001)
(0.261077 0.2296 -0.00242514)
(0.200057 -0.199932 -3.5302e-05)
(0.233051 -0.199344 0.00631155)
(0.200323 -0.200261 -3.01735e-05)
(0.572676 0.00345378 -0.00041721)
(0.577303 0.00324482 -0.00100044)
(0.573259 -0.00167515 -0.00163317)
(0.538216 0.00115098 -0.00299015)
(0.585874 -0.0114873 -0.00233849)
(0.199811 0.198906 -0.000387662)
(0.568178 -0.000588294 -0.00120993)
(0.200774 -0.199049 -5.47458e-05)
(0.563595 0.00204867 0.00141155)
(0.200792 0.200854 -1.87549e-05)
(0.200165 -0.2 -2.89061e-05)
(0.1974 -0.197984 -0.000313862)
(0.553607 -0.003936 0.000448099)
(0.199103 -0.199302 -0.000210746)
(0.199922 -0.199985 1.78147e-05)
(0.19703 0.128794 -0.00859917)
(0.200334 -0.20048 9.33308e-05)
(0.197567 0.200157 0.00186556)
(0.567142 -0.0022796 -0.00125026)
(0.200049 0.199861 -3.13211e-06)
(0.23784 0.174888 0.000420798)
(0.200145 0.200264 0.00028508)
(0.199051 -0.198385 1.2366e-05)
(0.199913 0.199071 -0.000339556)
(0.198845 -0.197787 -0.00105017)
(0.198432 0.198609 1.27987e-05)
(0.515821 -4.69198e-05 -0.00402044)
(0.200191 0.199039 0.000861788)
(0.530339 0.00806811 0.0113214)
(0.580422 0.00137973 -0.000838194)
(0.596508 -0.0234267 -0.00356524)
(0.200816 0.199857 -2.64765e-05)
(0.504265 0.00155722 0.00925983)
(0.200261 0.199503 0.000110306)
(0.200404 -0.200501 -8.58656e-05)
(0.569563 -0.00482799 -0.00575773)
(0.570783 -0.00411321 -0.00524874)
(0.574379 -0.00169099 -0.00081607)
(0.600035 0.00112932 -0.0111516)
(0.230744 0.193581 -0.00637642)
(0.587458 0.000682568 -0.00351777)
(0.586984 0.000724105 -0.00318598)
(0.57963 0.00112475 4.06411e-05)
(0.570133 0.000641058 0.000266604)
(0.578778 -0.00589173 -0.00458156)
(0.198628 -0.198703 -0.000127814)
(0.580085 0.000991936 1.94945e-05)
(0.263382 0.227896 -0.00113948)
(0.57858 0.00140681 -0.000735341)
(0.199683 0.199432 -7.13124e-05)
(0.589365 0.00178901 -0.00329783)
(0.260513 0.215792 0.00271584)
(0.581084 0.000267388 -0.000755189)
(0.583242 -0.00301003 0.00198613)
(0.230049 -0.119374 -0.000715168)
(0.199676 0.199854 0.00230176)
(0.570725 0.00102399 0.00115999)
(0.199718 -0.199706 4.69705e-05)
(0.591694 0.00221972 -0.0040857)
(0.587501 0.00238642 -0.00264119)
(0.199863 0.199229 -0.00165247)
(0.199296 0.199312 0.000463735)
(0.195828 0.174128 -0.00407024)
(0.200066 0.200204 7.60133e-05)
(0.409351 -0.0227074 0.00947018)
(0.591968 0.00201926 -0.00390497)
(0.203275 0.198349 -0.000153783)
(0.199551 0.199992 0.000363334)
(0.506094 0.000718832 -0.00110205)
(0.200344 0.200363 2.75204e-05)
(0.582979 0.00167384 -0.00238872)
(0.200204 0.200126 1.48238e-05)
(0.576901 -0.00348298 -0.00162807)
(0.20024 -0.200296 -7.30554e-05)
(0.540628 -0.00248036 -0.00787062)
(0.443969 -0.00195536 0.000517978)
(0.543268 0.0018098 -0.000974358)
(0.581375 0.000575594 -0.000787567)
(0.200418 0.199019 -0.000640702)
(0.524169 0.000712679 0.000121379)
(0.200374 0.199646 0.000199067)
(0.200174 0.200177 -0.000540727)
(0.57434 -0.00128804 -0.000689925)
(0.199809 0.199519 -7.92183e-05)
(0.488831 -2.42889e-05 -0.00483955)
(0.19238 0.17635 -0.00620548)
(0.583961 0.00173434 -0.00201961)
(0.198884 -0.199026 5.94856e-06)
(0.588669 0.000730425 -0.00129503)
(0.200563 -0.20036 2.0087e-05)
(0.239377 0.210822 0.00666624)
(0.595259 0.0220605 -0.00209905)
(0.570213 -0.00486375 -0.00589346)
(0.580508 0.00237234 -9.64992e-06)
(0.583679 -0.00619677 -0.00403642)
(0.577726 0.001284 -0.000573872)
(0.589874 -0.0034695 -0.000304618)
(0.197822 0.199279 -0.000902148)
(0.580347 0.00333754 0.00174535)
(0.57303 -0.00549763 -0.00557067)
(0.199987 0.200074 -9.89379e-05)
(0.488661 -0.00634156 -0.0197542)
(0.593422 -0.00529793 -0.00336538)
(0.569891 0.00259421 0.00223856)
(0.19733 0.194597 -0.00115337)
(0.246642 0.0443237 -0.0398496)
(0.557203 0.00141839 0.0018376)
(0.453089 -0.00202105 0.0048798)
(0.467632 0.108919 -0.00447449)
(0.255963 -0.133862 -0.00991613)
(0.587993 -0.00574738 -0.00103225)
(0.553269 0.00226997 0.00437135)
(0.569632 -0.00529152 -0.00575327)
(0.581826 -0.00309418 -0.00108017)
(0.571649 0.00314388 0.00143466)
(0.504165 0.0629543 -0.00175817)
(0.248772 0.210321 0.00184268)
(0.513456 -0.022468 0.00563857)
(0.499478 -0.046298 0.0103735)
(0.199757 -0.199811 0.000132096)
(0.510919 0.00358939 -0.00149188)
(0.201318 0.19744 -0.00105071)
(0.235321 0.213353 0.00203761)
(0.578492 0.000957776 -0.000204978)
(0.509098 0.0831278 -0.00167974)
(0.613715 -0.0573457 -0.00797624)
(0.556381 -0.10372 3.72538e-05)
(0.235141 0.22245 -0.0152565)
(0.586985 -0.0035514 -0.000992816)
(0.579305 0.00321016 0.00261443)
(0.199576 0.199013 -5.14423e-05)
(0.259531 0.142262 -0.0054167)
(0.578805 0.00454761 0.00288648)
(0.200014 -0.19925 0.000169666)
(0.2 0.199891 -4.81305e-05)
(0.199237 0.199147 2.12081e-05)
(0.200461 0.199368 0.000220884)
(0.586352 -0.00570268 -0.00245855)
(0.200172 0.200144 0.000117585)
(0.200312 -0.200516 0.00101267)
(0.576124 -0.00357868 -0.00260832)
(0.530477 0.000231386 -0.00141727)
(0.290377 -0.255489 -0.0138176)
(0.578927 0.00442331 0.00273356)
(0.234251 0.188256 0.00447344)
(0.581568 -0.0021848 -0.00118578)
(0.195642 -0.19535 -0.000636571)
(0.1996 0.20002 -7.12024e-05)
(0.585403 -0.00364475 -0.000842076)
(0.199872 0.198703 -0.000797551)
(0.200296 0.199769 8.6636e-05)
(0.229829 0.219376 0.00664361)
(0.550759 -0.000411419 -0.000521279)
(0.332751 0.2777 -0.0370212)
(0.576816 -0.0023007 -0.000996291)
(0.578182 0.000903198 -0.000213547)
(0.197851 -0.196611 -0.00155194)
(0.599023 -0.00105826 0.01917)
(0.547272 -0.00316353 -0.00809791)
(0.574985 -5.564e-05 -0.00048811)
(0.582289 0.0111562 0.00126011)
(0.583466 0.00426672 -0.0120693)
(0.50177 0.000249704 -0.00455047)
(0.199816 0.199502 8.66823e-05)
(0.586577 0.000594263 0.00176206)
(0.582248 0.00242607 -0.000375339)
(0.197849 -0.200443 0.000289645)
(0.540352 -0.000419113 -0.000314322)
(0.586206 0.00364629 -0.000923562)
(0.587508 0.00277944 -0.00099563)
(0.532778 -0.00244759 -0.00527413)
(0.587204 0.00266211 -0.00109532)
(0.58758 0.00326829 -0.000274537)
(0.199878 -0.197237 0.0013076)
(0.58882 -0.00104294 0.00260409)
(0.48389 -0.00361855 -0.00112788)
(0.241715 0.209132 0.0133216)
(0.587305 0.00215898 -0.00156522)
(0.559965 0.000903584 -0.00129949)
(0.323287 0.262329 -0.0402887)
(0.578667 0.000895761 -0.000215799)
(0.5875 0.00187874 -0.00186187)
(0.560256 0.000542197 -0.00215898)
(0.58337 0.00260675 -0.000317417)
(0.575501 0.00589485 0.00244525)
(0.579388 0.000881248 -0.00012448)
(0.195504 0.190844 0.000273261)
(0.582813 0.00308346 0.000224614)
(0.546089 -0.00345462 -0.00746118)
(0.223439 -0.137302 0.00512119)
(0.58015 0.00538981 0.00356559)
(0.572288 0.00514328 0.00526042)
(0.581067 0.00144999 -3.46858e-05)
(0.19936 0.198897 0.000183023)
(0.562203 0.00345348 -0.0054329)
(0.199859 -0.198719 0.00062257)
(0.200035 0.20003 -0.000199012)
(0.198786 0.197431 -0.000116672)
(0.200593 0.19934 4.30201e-05)
(0.487701 0.000261298 -0.0019663)
(0.238983 0.205859 0.00873128)
(0.450947 -0.029044 0.0295292)
(0.198506 -0.198728 -5.4221e-05)
(0.199423 0.202054 -0.000407951)
(0.579811 0.00625899 0.00324592)
(0.584665 0.00124909 -0.00253795)
(0.199987 -0.199976 1.66388e-05)
(0.584193 -0.00378636 -0.000163915)
(0.200016 -0.199816 0.000662706)
(0.200254 -0.200102 -4.25314e-05)
(0.196512 -0.196624 0.00058644)
(0.592007 -0.00429076 -0.000458339)
(0.495648 0.00317454 -0.0012102)
(0.237868 0.212494 0.00356857)
(0.199643 -0.197802 0.000817306)
(0.199758 0.200449 -0.000298937)
(0.199561 0.199777 2.75823e-05)
(0.596401 0.00104472 -0.00684184)
(0.579922 0.00101853 -0.000238026)
(0.238014 0.223661 0.0104732)
(0.590552 0.00178899 -0.00335152)
(0.549689 -0.00949092 -0.0227232)
(0.199669 0.199819 -7.20406e-05)
(0.589089 0.00124917 -0.00299738)
(0.538661 0.000236925 0.00290897)
(0.571831 0.00290706 -0.00351653)
(0.200627 0.200556 2.01676e-06)
(0.199339 0.199269 9.6667e-05)
(0.569174 0.00253448 0.00327566)
(0.581779 0.00114618 -0.000284891)
(0.237617 0.215129 0.00348704)
(0.199142 0.199062 6.33775e-05)
(0.201989 0.195456 -0.000577594)
(0.578722 -0.00129882 0.000536601)
(0.199896 -0.199858 -0.000281545)
(0.199022 -0.198294 0.00017134)
(0.198669 0.19863 -4.05276e-05)
(0.588665 0.00171552 -0.0027047)
(0.513886 -0.00267228 0.000622634)
(0.200528 0.200545 2.30959e-05)
(0.224169 0.0368217 0.0424394)
(0.24916 -0.0328821 -0.00946746)
(0.567848 0.00302557 0.000156427)
(0.19971 0.199998 -7.95864e-05)
(0.20007 0.199727 -0.000169119)
(0.589719 -0.0068549 -0.000963367)
(0.565273 0.0103127 0.00949154)
(0.240869 0.214874 0.0109816)
(0.35274 0.111069 0.00703749)
(0.555939 0.0103718 0.0170631)
(0.533416 0.00170388 -0.00358116)
(0.568883 0.000404401 -0.000360455)
(0.206263 0.193454 -0.000425331)
(0.563896 0.00131493 -0.000416891)
(0.585689 -0.0038845 0.00415174)
(0.200372 0.199754 -0.000232755)
(0.198262 -0.19492 0.000301278)
(0.198557 0.198663 3.54247e-05)
(0.199255 0.199202 -5.02583e-05)
(0.200134 0.200525 -0.000279166)
(0.200578 0.200645 -2.56346e-05)
(0.590069 0.00196473 -0.00299948)
(0.200107 -0.200013 0.000106074)
(0.199003 0.199022 2.77537e-05)
(0.198921 0.196236 -0.000231167)
(0.590632 0.00189265 -0.00335366)
(0.581597 0.00117404 -0.000268009)
(0.200826 -0.198156 -7.27963e-05)
(0.197315 -0.19523 0.000442361)
(0.595096 -0.00282966 0.0053097)
(0.565595 3.75305e-05 0.000812638)
(0.564649 0.000250985 0.000918869)
(0.199895 -0.199439 -9.39331e-05)
(0.198987 0.198957 0.000115746)
(0.565127 0.000151526 0.000834878)
(0.200306 -0.200129 2.03207e-05)
(0.559261 0.00145431 0.000212722)
(0.57004 0.00120331 0.00183959)
(0.571863 0.00158832 0.00107315)
(0.199969 -0.198503 0.000479383)
(0.200283 -0.200383 3.65005e-05)
(0.200204 -0.200379 -3.63656e-05)
(0.20024 0.200278 6.32746e-05)
(0.577855 -0.00288974 -0.00149426)
(0.199929 0.200137 6.81688e-05)
(0.198422 0.198646 6.40069e-05)
(0.576711 0.00200179 -0.0029797)
(0.200288 -0.200345 0.000104657)
(0.567897 0.000427489 0.000709183)
(0.513542 -0.00563106 0.00120787)
(0.200981 0.193868 0.00110539)
(0.580652 0.00131713 -0.000213437)
(0.269936 0.0383094 -0.00539589)
(0.573474 0.000485372 0.000451151)
(0.59122 -0.00145058 0.00132708)
(0.522978 0.00203777 0.00104904)
(0.592341 -3.59186e-05 0.00425781)
(0.429935 0.0113912 -0.0160423)
(0.239144 0.189997 0.00401868)
(0.572171 4.55059e-05 0.000435848)
(0.594969 0.00421931 -2.59721e-05)
(0.580533 -0.00134196 -0.00052585)
(0.204915 0.177542 -0.00621116)
(0.268174 0.0179125 -0.00802891)
(0.309106 -0.0303513 0.0116727)
(0.572718 0.000402277 0.000113388)
(0.198831 0.199207 0.000246289)
(0.56054 -0.00104558 -0.0038404)
(0.572512 -0.000181298 -0.00103122)
(0.555588 -0.00472949 -0.00884155)
(0.214678 -0.156862 -0.0117366)
(0.20034 -0.20047 8.83146e-05)
(0.2 -0.200002 -4.9157e-06)
(0.583073 -0.00178299 2.05365e-08)
(0.234436 0.193623 -0.00251133)
(0.55329 0.0019248 0.000848689)
(0.217568 0.198072 0.00274)
(0.549934 -0.00107683 -0.00393215)
(0.567221 -0.00121008 0.000410389)
(0.560391 -0.000711113 0.00130851)
(0.58166 0.00129766 -0.000391637)
(0.199021 0.199009 -5.06487e-05)
(0.198033 0.197417 -0.000447255)
(0.213152 -0.194687 0.000908775)
(0.580353 0.00148017 0.000132242)
(0.200389 0.199793 -1.87387e-05)
(0.231933 0.198633 -0.0090468)
(0.593792 0.0122829 -0.0102527)
(0.200118 0.199809 -0.000160044)
(0.198785 0.199721 0.00070173)
(0.198465 -0.197816 -0.000324918)
(0.200418 0.200477 5.0001e-05)
(0.554189 -0.000152213 0.00150423)
(0.203462 0.193114 0.000325022)
(0.200133 0.199972 8.49089e-05)
(0.464073 0.061814 -0.0456467)
(0.235516 0.18959 -0.00229985)
(0.197836 0.19823 -0.00186981)
(0.28408 -0.171656 0.0114184)
(0.199862 0.199632 -0.00025871)
(0.455 0.00225978 -0.00300208)
(0.565697 -0.000977101 0.0010313)
(0.198524 -0.198567 3.62027e-08)
(0.555872 0.000727794 -0.00174352)
(0.553446 0.0889354 -0.00790036)
(0.551531 -0.0052861 -0.00885904)
(0.606022 0.0231766 0.000278404)
(0.547028 0.000448129 -0.000827015)
(0.19991 0.198204 0.000832616)
(0.571856 -0.0053256 -0.00598815)
(0.592325 -0.00146489 0.00116421)
(0.551269 -0.00535753 -0.00884643)
(0.199999 -0.200214 1.11102e-05)
(0.598282 0.152875 0.0385773)
(0.552483 0.00093143 0.00109588)
(0.267601 0.213167 -0.0130468)
(0.54869 -1.72189e-05 0.000623248)
(0.59865 0.0070996 -0.00549561)
(0.57214 0.0115889 0.000422492)
(0.567218 -0.00141807 -0.00198189)
(0.567783 0.00177938 7.79932e-05)
(0.603294 0.00880684 -0.0029828)
(0.582215 -0.000881853 -0.000798481)
(0.57626 -0.000658576 0.000528559)
(0.198235 0.198999 0.000710142)
(0.19897 0.197846 0.000580889)
(0.556655 0.00151432 0.0008485)
(0.547059 0.000871074 0.000669397)
(0.199533 0.20008 -1.6717e-06)
(0.564942 0.000492761 1.43906e-05)
(0.590957 -0.00184033 0.000574992)
(0.577156 -0.00123542 0.000448819)
(0.199417 0.197291 -8.71648e-05)
(0.56992 0.0114945 0.0023559)
(0.199226 0.199082 -1.07428e-05)
(0.576644 -0.000680608 0.000480136)
(0.577837 -0.000696013 0.00032205)
(0.199898 0.199798 -2.81261e-05)
(0.551884 0.00308072 -0.00174476)
(0.576238 -0.000427758 -2.07004e-05)
(0.567826 0.0104916 0.000581262)
(0.557213 0.000235155 0.00211223)
(0.204427 0.200447 -0.000329051)
(0.584633 -0.00174 0.00173643)
(0.569681 0.0130397 -7.89255e-05)
(0.602343 -0.0159799 0.00346412)
(0.508085 0.00692146 0.0010984)
(0.45294 0.00143977 -0.0058195)
(0.199833 0.197661 -0.000274556)
(0.199466 0.1993 6.5994e-05)
(0.559901 0.00787081 0.00104065)
(0.200429 0.200427 -9.0573e-05)
(0.487461 -0.00136104 -0.00143359)
(0.562589 -0.00284653 -0.00409093)
(0.339794 0.0441228 -0.0134462)
(0.625572 -0.0423293 0.0167212)
(0.55264 -0.025052 0.00784083)
(0.614295 -0.0235062 0.00580499)
(0.200349 0.200366 -5.86978e-05)
(0.273457 0.232353 0.0015484)
(0.582715 0.00161545 -0.000328498)
(0.199286 -0.200195 -0.000805126)
(0.114276 -0.0814912 0.0313266)
(0.574687 -0.0107313 -0.00809522)
(0.198567 0.198157 -0.000467867)
(0.200459 0.20021 2.3574e-05)
(0.517208 -0.00989407 -0.000149982)
(0.418504 -0.0300456 0.000842244)
(0.200472 0.200502 -3.11745e-05)
(0.517965 -0.0105614 0.00199682)
(0.198523 0.198274 7.104e-06)
(0.20003 0.200393 -0.000333545)
(0.200059 -0.200037 -5.10185e-05)
(0.200138 -0.199663 0.000477605)
(0.195961 -0.194324 0.000603358)
(0.199488 -0.199077 -4.22888e-06)
(0.520464 0.00478049 -0.00176053)
(0.197575 0.196052 -0.000148001)
(0.199999 0.200131 8.11917e-05)
(0.198319 0.1995 0.000473266)
(0.484843 -0.108425 -0.0278814)
(0.548568 -0.00492607 -0.0107361)
(0.530499 -2.36181e-05 -0.00490003)
(0.582714 0.00156934 -0.000369991)
(0.198599 0.197391 5.56055e-05)
(0.201083 0.200334 2.05179e-05)
(0.558199 -0.00955126 -0.0116325)
(0.2 0.200034 -0.000300437)