/*--------------------------------*- C++ -*----------------------------------*\
  =========                 |
  \\      /  F ield         | OpenFOAM: The Open Source CFD Toolbox
   \\    /   O peration     | Website:  https://openfoam.org
    \\  /    A nd           | Version:  10
     \\/     M anipulation  |
\*---------------------------------------------------------------------------*/
FoamFile
{
    format      ascii;
    class       volScalarField;
    location    "37";
    object      SgRate;
}
// * * * * * * * * * * * * * * * * * * * * * * * * * * * * * * * * * * * * * //

dimensions      [1 -1 -3 -1 0 0 0];

internalField   nonuniform List<scalar> 
59698
(
0.0162681
0.00189747
0.00239457
0.00281317
0.0302744
0.00145199
0.00462675
1.10856e-07
1.98802e-09
3.93689e-09
0.000586478
1.69486e-09
1.57862e-09
0.00237235
0.000353539
4.27619e-07
9.81496e-09
3.87468e-09
1.70004e-09
0.000267696
0.00172447
0.0139531
0.000499998
8.81911e-08
0.042271
1.11565e-09
1.1775e-09
0.0100165
0.00913124
0.00743624
0.00478053
0.000600617
6.69209e-08
0.0164493
0.00243125
3.8699e-09
0.0191433
0.0205666
1.76509e-08
0.0250504
0.00865946
2.3046e-07
0.00374305
4.0641e-08
0.000402107
0.0321783
2.32434e-09
0.000721236
0.00314611
3.32577e-08
0.00151358
2.05667e-09
0.00178328
0.00283909
0.0113938
2.04199e-09
0.000183091
0.000212684
3.78056e-05
0.00282561
0.00523503
0.000194053
0.122207
1.52047e-09
0.0125634
4.3236e-08
1.75069e-09
3.14231e-09
4.23693e-09
6.77586e-09
6.28464e-07
0.000292731
0.000363142
0.0405364
0.000411957
0.0390386
3.85517e-08
0.00925624
0.000357963
0.00616603
0.00890883
3.22446e-05
3.96849e-09
8.30108e-09
0.00842526
4.53395e-08
9.50852e-09
2.30764e-07
0.0637591
2.3642e-08
4.52004e-09
0.00206115
0.0148532
6.76393e-09
6.27291e-08
0.00372124
0.00538354
6.05896e-08
0.000269271
8.59843e-10
0.0770726
0.00180839
0.0162922
0.0154026
5.42778e-08
0.000564776
2.43641e-09
2.25378e-09
2.65722e-09
4.40033e-10
3.78446e-08
2.72611e-06
0.0381164
1.56285e-07
1.00796e-07
3.53702e-08
3.60251e-07
0.00366072
3.09024e-07
1.14682e-08
2.31568e-09
3.08875e-07
2.23684e-07
3.36343e-09
1.73024e-09
7.98322e-09
0.0108125
7.21095e-09
1.3139e-08
3.99127e-07
0.0445415
3.95028e-09
1.10494e-09
0.100045
0.00424616
0.00440706
5.08147e-07
2.47492e-10
1.74063e-09
5.92171e-09
2.10987e-08
0.00240487
0.00269476
0.00263414
1.96605e-07
8.30998e-10
5.53105e-07
3.9381e-07
0.00465129
0.0293467
0.000299629
0.000434378
0.00152311
2.63479e-07
0.0016507
2.76942e-05
7.24649e-09
0.00168885
0.0124243
6.03462e-10
0.000858591
7.84587e-09
0.0164443
0.00164303
0.00336625
0.0344917
1.02593e-09
0.0722387
0.00203051
5.33632e-06
0.0119841
1.52428e-06
0.0107979
0.0146603
0.0793234
0.00126057
4.37474e-09
0.00144576
0.000326015
0.00920541
0.0094486
0.0180167
0.0147203
1.16191e-08
0.0461133
0.000236599
0.011448
0.00247165
1.14378e-10
0.00117861
7.02812e-09
7.11335e-09
0.00268115
0.038829
0.00401054
0.00432309
0.00984652
0.0579793
2.67496e-05
0.00771183
0.000227093
0.00620008
0.0211694
2.57649e-09
0.0103575
0.00276139
0.00612503
0.00286988
0.00783278
0.0113612
0.00251073
6.37028e-09
0.00279303
1.568e-08
0.00408756
0.00348985
9.9168e-09
4.72046e-08
0.0127438
0.00659149
0.00561768
0.00268754
1.7554e-09
0.0660598
0.000808949
0.0264062
0.00735407
0.00325266
0.00684634
0.159019
7.5546e-09
0.00475043
0.00290694
0.0032474
9.73315e-09
0.00969578
0.0828905
1.99497e-08
1.82508e-07
0.000441933
0.00270582
0.00146926
0.0135537
0.000664542
0.00614025
2.20334e-07
0.00378515
0.229022
0.00124443
4.97763e-09
0.000416602
0.00165344
0.000631827
0.000233555
1.87653e-08
0.00237744
0.00103748
0.00128417
0.00325319
2.70472e-09
1.38184e-05
1.83728e-09
0.000236071
0.00347946
0.00479151
0.0474554
1.15652e-09
1.06672e-07
2.02857e-08
6.24777e-10
3.07034e-09
0.0439979
0.00022393
6.6729e-10
0.0179761
5.22457e-08
0.00151618
4.17521e-08
0.00207343
1.22856e-09
0.000574131
2.07498e-09
1.52599e-09
0.104652
0.0488186
0.0201693
0.000290719
0.000647259
0.0729682
0.000385289
0.0917025
0.00234035
9.12508e-09
1.39448e-09
0.000317551
0.00283338
4.95112e-10
0.000320782
0.00424463
6.60806e-07
0.00272429
2.35443e-09
6.86637e-08
8.19756e-10
1.01285e-09
1.17868e-09
0.0520966
7.33745e-07
8.12886e-07
4.39203e-10
0.0019673
4.42368e-08
4.15062e-09
2.37983e-08
0.00198623
0.00511049
0.000403389
8.58972e-09
0.000829308
8.82624e-08
9.87381e-08
0.322936
1.72733e-08
2.90716e-09
0.0492183
0.0105232
1.66499e-08
8.89716e-09
0.000433671
0.000361922
0.00939787
0.004162
0.0202883
0.206033
0.000430955
1.93563e-05
7.85815e-09
4.4361e-09
0.00909553
0.00448628
0.0102082
0.00206585
0.00258972
0.00147592
9.67968e-05
1.30949e-09
9.89549e-05
0.0395203
1.54456e-09
0.00204894
0.00797853
1.32012e-08
0.0399433
7.95611e-10
0.244068
0.00217424
0.014039
1.46039e-08
3.23187e-08
1.82355e-09
2.21668e-08
1.10974e-08
1.10573e-07
0.000884802
1.43559e-10
1.04125e-07
0.00289923
0.00203129
2.93169e-08
0.00164491
0.00190894
0.000533995
0.00379159
0.00065113
0.00618463
2.97811e-09
3.75725e-08
2.16265e-09
0.000460537
2.487e-09
0.000347124
4.63579e-08
4.43353e-08
0.000537376
8.11637e-10
1.98767e-05
1.14242e-08
0.000544818
8.46314e-10
3.63265e-08
2.17485e-08
0.000457463
0.00452457
0.00264275
0.00134214
0.00228145
0.0486556
0.00189298
0.00278836
8.33985e-08
0.00284892
0.002387
0.0026612
5.23282e-09
0.00153833
0.00433022
0.0850883
0.0280951
2.28088e-05
0.00537998
0.0313934
0.000404299
0.00176725
0.000434527
4.84052e-10
0.0595943
2.01152e-09
0.0103228
0.00240974
0.00183642
0.00303784
0.00226117
0.00252787
0.310579
8.23418e-09
2.32276e-09
7.84873e-09
1.45997e-08
0.0014347
5.60157e-10
0.000265614
0.00214784
0.0163037
0.00302673
0.00211237
1.41304e-08
1.38803e-08
0.213128
3.5213e-09
0.00317579
1.9233e-07
0.00331125
5.13275e-09
4.5398e-08
1.92553e-07
0.00239593
0.0698976
4.51409e-10
2.121e-09
0.00909196
0.0026296
6.76862e-09
7.53549e-08
0.0329249
6.33612e-07
1.17368e-07
0.108518
1.40223e-09
0.00975496
1.7143e-07
0.0541905
4.49018e-09
0.015939
0.0133353
2.18988e-09
2.1107e-07
3.63516e-07
0.00849137
4.57328e-08
0.00807613
0.00293229
4.42191e-09
2.0313e-10
6.94855e-09
6.54457e-08
2.10513e-06
0.00113298
0.0689426
0.00619943
0.00202088
2.44296e-08
2.25776e-07
1.55024e-08
1.93929e-08
0.00541853
4.12635e-08
4.51623e-08
2.018e-08
0.0657711
0.00178479
0.0230188
0.0658005
0.00113587
4.32608e-08
0.0589298
2.20895e-07
1.58698e-08
0.00245473
0.00952786
0.000365619
9.73309e-10
0.0639961
0.00715818
0.00459536
1.71107e-08
1.12019e-09
8.43019e-08
2.17569e-09
5.15113e-09
0.00316312
0.000577316
0.0747745
0.00721044
5.41921e-08
0.00913524
2.58674e-09
6.87751e-09
9.56179e-09
7.03521e-08
2.48654e-08
0.00547094
0.00377963
4.94071e-09
3.82954e-09
2.19002e-09
0.00126772
0.00948237
2.55614e-09
0.0106964
0.00390415
3.01565e-09
0.0432955
1.82751e-08
5.45712e-09
0.0015051
3.54356e-10
1.35528e-08
0.00185638
2.05507e-09
0.00038488
0.00970086
2.44387e-09
4.54517e-08
0.0676627
0.00817693
0.0135181
0.00998856
0.000173387
0.0116851
7.86736e-06
1.87182e-08
2.28082e-09
3.18686e-08
1.90934e-09
5.28494e-09
1.4593e-08
1.92059e-08
0.00116305
0.00690249
0.000447806
0.000768502
1.73211e-09
1.59775e-08
9.29474e-05
1.5235e-08
1.81159e-09
0.0736293
2.30913e-08
0.00552733
0.000539255
0.00287712
7.75199e-09
2.04927e-07
0.00261249
0.00281034
0.00315576
2.9741e-10
0.00398528
0.00211462
2.31242e-09
0.000732638
4.08477e-08
0.00515822
1.50999e-08
0.00393612
0.000313345
0.000772632
1.29966e-08
0.00414643
0.00272337
0.00215994
0.0033248
7.98596e-09
1.6608e-08
8.51552e-10
4.22804e-08
9.23852e-07
0.00433362
0.000349776
7.35681e-09
0.00515565
0.00023073
2.92931e-09
0.00349915
0.00124726
0.000719856
2.38148e-09
0.00108762
0.00445816
1.52452e-08
1.26788e-08
0.00021432
1.11226e-08
0.000326661
0.000682778
0.000185022
4.88801e-09
0.224727
1.87776
7.24503e-09
5.03445e-09
0.000240061
2.38516e-06
0.000927998
0.00247795
1.1382e-08
0.00713775
1.27142e-06
7.47213e-06
3.82376e-06
0.00276792
0.000211186
1.18567e-09
2.15028e-06
8.15448e-10
3.48591e-08
7.42219e-09
2.88989e-09
0.00156992
0.109684
1.34303e-07
1.66997e-07
0.000607914
1.44913e-09
0.00224584
0.00382016
4.25572e-07
0.00218674
3.50265e-08
1.75901e-09
0.00043948
7.51348e-09
0.0082956
3.4894e-09
2.45938e-09
4.49593e-09
9.3457e-10
7.86556e-06
0.000327214
0.00188104
5.10408e-08
1.23296e-07
0.000895619
0.0199485
0.0909262
0.00136342
2.26671e-08
0.00239464
0.0032051
0.0415746
3.86171e-09
7.84188e-07
1.89144e-09
0.00356588
3.27109e-10
2.01451e-08
0.000428464
0.0107812
0.0473279
1.59737e-09
5.10477e-07
6.10116e-07
3.53431e-07
0.000378103
0.00143938
1.25228e-10
6.79943e-09
1.05324e-09
4.82281e-09
0.0114594
0.00440051
0.0394554
1.04561e-08
0.0013552
0.00212592
0.00245336
6.4077e-08
2.96215e-08
0.000650615
1.28806e-09
2.32095e-10
1.01232e-09
0.00659091
4.22229e-05
4.89986e-09
1.49161e-09
0.00643345
6.94334e-08
7.87948e-09
2.72898e-09
0.00264877
4.17916e-08
3.71122e-08
0.000362107
9.87526e-09
0.00198044
0.00917238
1.93753e-09
1.37124e-09
0.000646941
0.0617273
0.00323489
3.83004e-09
1.15042e-08
0.00144823
0.0257827
0.00882402
1.39898e-09
0.0552675
2.64279e-08
0.00255922
0.000344565
0.00942342
6.57247e-05
1.48089e-07
0.0112473
0.00445222
0.000532174
0.00307622
0.0604259
3.82684e-09
7.1122e-08
0.245123
0.00232588
0.000732667
0.00211664
0.00190659
0.00170915
2.55416e-08
0.0152434
2.33328e-09
0.0599912
0.00316985
0.0247068
6.99401e-10
6.61778e-09
0.105176
0.236392
0.000599772
1.13571e-07
0.049721
0.000383644
0.00224501
0.0052067
0.00196714
0.00832704
0.00411241
8.10725e-09
0.000401558
0.00196626
0.0141752
0.000373921
3.50279e-10
0.00273958
2.60135e-09
0.00434859
1.87984e-07
4.234e-09
0.0060961
0.00522267
1.23108
3.75249e-09
0.0245146
0.0096911
0.0210687
0.00106416
0.00473093
0.000326091
0.000963975
0.00164387
0.00145231
0.00670486
0.0111315
0.105863
0.00193866
0.00547136
0.00054132
6.93143e-09
0.000382964
1.31532e-08
2.82186e-09
1.53047e-09
0.00324309
3.95412e-07
0.00943948
0.00021439
0.00117424
0.00162755
1.67174e-07
0.00686476
3.56196e-09
0.00100439
3.34676e-09
0.00130385
0.00011361
0.0136945
0.000651795
0.00185325
0.0200371
0.209564
4.05791e-09
0.00871116
2.58123e-08
0.000695551
0.000444789
0.000428774
0.00361154
0.000797401
0.00742249
0.000561236
0.00627477
0.0023527
6.3661e-10
0.000401152
2.36263e-09
2.82635e-09
3.32799e-05
0.000503637
0.000276783
0.000316052
7.69441e-09
5.07654e-09
1.87065e-09
0.000487222
2.07742e-09
0.00556167
0.00489842
0.00062271
0.000499716
0.0040615
1.05417e-09
2.94101e-09
0.0155218
0.000469624
3.07434e-09
1.30368e-09
0.0359103
0.00489371
0.000743471
3.88806e-09
3.09712e-09
0.0106073
2.63808e-07
0.00981124
1.07118e-08
0.000532567
1.17112e-09
0.000128474
2.74819e-10
2.48971e-09
0.00128145
1.50679e-09
0.00888434
8.98257e-08
0.00207644
0.000108819
1.26462e-08
0.00165655
0.00165191
6.97906e-10
0.00183644
5.96214e-09
1.23046e-08
0.000307139
1.24671e-09
0.00212869
1.72928e-08
1.6231e-09
0.00438296
3.06097e-09
0.000849836
0.0037301
0.0183082
0.000319935
0.000836918
0.00299852
1.69242e-07
0.00460276
0.000633468
0.000584057
0.00449538
3.82819e-07
0.000379941
0.00245111
0.00121962
8.57914e-09
0.00260847
1.19084e-08
3.06443e-09
0.0651758
0.000412232
0.00149989
0.00271674
1.49192e-07
2.03983e-09
0.00276314
0.0041473
0.00538726
0.0202427
0.00397954
1.60638e-07
0.0409394
9.56818e-05
0.000927149
0.115386
2.83093e-08
0.00459201
0.00449958
0.0327903
0.0584107
7.38054e-09
0.00254337
1.69191e-09
0.0246859
0.000269923
2.91308e-08
0.0014141
3.8246e-10
0.000761134
0.00245526
9.63561e-05
0.00195344
0.00679816
0.00283701
0.00328151
8.6008e-05
0.0249921
0.000731682
2.00089e-08
2.49659e-08
0.000826084
2.96713e-08
0.00227516
2.01587e-07
2.05216e-07
3.68823e-08
0.00552402
0.00029511
4.7011e-09
5.2573e-09
0.00539368
1.44598e-09
1.21811e-08
0.00958356
0.00272587
5.07806e-09
3.69565e-09
8.74161e-09
0.000125094
3.70378e-08
2.36552e-08
7.51445e-09
0.000429221
0.00233897
0.000466222
6.52257e-08
0.0141519
0.0190308
0.0178241
1.98925e-09
0.00204645
0.00292146
0.00270929
0.00484938
0.00600026
0.000396623
6.01843e-08
0.00255908
2.0178e-07
0.0110227
0.0565275
0.000763584
0.000443755
2.18911e-08
0.000538422
0.000103711
0.0011497
0.0022666
0.00216836
0.000608723
6.88877e-09
1.72061e-08
0.000887008
0.0021229
0.0015881
0.00377482
0.047215
0.000395618
0.00195839
0.0014024
0.022784
5.68098e-10
0.000209674
2.2442e-05
0.0046027
8.76624e-10
0.00124742
0.00468495
5.85609e-09
0.00359781
0.00356434
0.0037903
0.00549396
0.00948638
0.0100874
0.00817821
0.00523845
0.00576749
1.3067e-08
5.43529e-09
0.000475258
0.00598925
0.00473613
3.19403e-07
5.21957e-10
0.00168081
0.00391648
4.54342e-09
6.89425e-08
2.74455e-10
0.0145921
3.8175e-09
0.0405642
0.00318894
0.739091
8.77914e-10
1.565e-08
0.00217831
0.00317223
1.78398e-07
0.000760456
0.00403185
0.00700727
0.0043075
3.66732e-07
0.00684159
0.000542247
1.04787e-09
0.0196975
0.000765798
0.00093435
1.50577e-07
0.00260039
0.000320698
3.63178e-07
3.11741e-09
0.000534608
0.00817119
0.00269199
0.092596
9.3997e-09
0.00181829
0.0820554
2.5617e-10
0.00878311
1.21865e-06
0.0252588
0.00133414
0.00363626
9.25287e-10
1.18254e-08
0.00130433
1.54742e-08
9.87514e-06
1.33698e-08
1.0367e-06
9.58803e-10
1.33336e-09
0.00176171
0.00321461
0.00976542
2.93675e-08
0.0025686
0.00052013
1.21251e-06
0.0364242
0.0545869
0.00503979
0.000371166
0.00427281
0.455935
0.0241099
0.0263087
2.47751e-08
0.000449091
0.102654
7.99072e-08
2.28765e-07
3.71858e-09
0.0165016
5.31266e-09
0.00170171
1.18796e-06
0.00174127
2.99203e-08
0.00463079
0.00900271
0.00287692
0.000644192
5.00475e-09
0.000477736
2.27178e-09
4.87575e-09
0.00365502
2.48163e-10
1.48293e-09
6.52942e-09
0.00775779
1.35867e-08
0.114834
1.18714e-08
0.00118407
2.55596e-09
0.00564332
1.22953e-08
0.00110038
0.00255923
0.00038063
0.00250611
1.57703e-08
8.24271e-09
0.00285984
1.73153e-09
0.0187018
0.0121402
4.94661e-09
0.00150383
0.0834516
0.00296406
0.00400812
3.19966e-08
2.25449e-07
0.00375121
0.0362471
0.00877399
0.00263598
3.89761e-09
0.00193195
0.00336494
0.0030104
0.00371702
0.00537609
7.55064e-09
0.116498
0.0512805
0.000494745
3.74181e-08
5.33185e-08
0.00313266
0.00253905
0.0262674
0.00112851
3.42322e-08
0.00231397
4.63193e-09
2.89434e-09
0.00353697
4.22339e-09
0.00267742
1.99195e-09
0.000992625
0.00374807
3.21968e-09
0.0197821
2.84904e-09
0.000434431
0.00364662
0.00413445
0.00204448
0.00207846
0.0119213
0.000579701
0.000345167
2.87893e-08
2.42317e-08
9.24242e-06
2.30589e-09
1.96856e-09
2.39652e-08
1.79775e-08
0.000781454
0.000646989
9.26351e-09
1.21644e-08
7.88517e-09
3.44682e-07
0.000309672
0.00275931
0.000496423
4.32756e-05
0.000238787
7.34408e-09
0.000315452
0.000231971
0.000223594
0.00392565
0.103577
1.85688e-09
0.00477818
0.00166259
0.00412728
4.88906e-09
4.27558e-08
7.0714e-09
0.00845139
0.019797
0.00479145
0.00235653
2.25409e-08
3.08126e-08
0.000377618
0.00474655
0.00955976
1.05123e-08
0.00501046
0.00281571
2.35056e-08
0.00354025
0.00263929
0.0145575
0.00186172
0.00383639
9.34391e-05
4.64963e-10
1.39962e-09
5.2907e-05
0.00560865
1.38252e-08
6.19019e-10
2.22198e-08
0.00502381
1.17639e-08
6.30513e-08
1.79756e-08
5.73809e-07
0.00198587
3.04494e-09
0.00051853
5.66312e-08
0.00208545
0.0285159
0.00211388
0.00120843
2.9995e-09
2.25162e-07
0.000161148
0.000983778
0.0145984
3.22294e-10
1.22004e-07
0.00127196
1.22671e-07
0.000864145
3.20147e-09
1.48866e-07
6.88499e-09
6.42331e-05
8.33145e-10
0.00058427
5.10888e-08
0.00213712
1.3025e-09
5.9759e-08
2.54473e-05
1.07374e-08
0.00549262
3.26111e-06
6.66601e-10
0.0470163
4.53068e-05
4.85687e-09
0.000280684
6.10868e-08
7.64591e-08
0.00054725
3.10162e-09
0.0005637
3.17592e-08
0.000947604
0.00033949
0.00276179
0.00428742
0.00129546
3.23393e-07
0.0632469
0.00246863
2.17711e-07
0.0060505
0.00288906
0.00668147
1.19952e-05
2.21256e-07
0.351804
3.9886e-09
2.48303e-08
2.96984e-08
0.0255704
0.00305271
0.000635586
0.000492206
2.81437e-09
0.00322273
0.0361621
0.00482269
0.00870927
0.0142587
5.59639e-08
0.000340264
1.62027e-09
4.12927e-09
0.00831137
0.000746715
0.0748635
4.15357e-10
0.000485248
6.35816e-10
0.000532966
0.000313625
0.000371865
0.0105474
0.0181577
0.000544715
0.00183515
0.0036893
6.33915e-09
0.000107486
0.000993822
0.00201528
0.000532401
0.000790547
0.00750651
0.0106962
6.04042e-09
0.00169581
0.00266822
3.42911e-09
6.41491e-09
0.000432447
0.0138893
0.0116365
0.00504277
0.0476813
0.00272085
7.66367e-09
0.00524262
3.95732e-09
0.00068161
0.00105738
0.0222672
1.12194e-05
0.0203698
0.0114944
0.0344654
1.82249e-09
0.101604
0.00875282
0.00173813
0.00462653
0.0646102
2.65886e-09
0.00281475
0.00246548
0.00229142
0.00809723
5.99349e-09
1.13369e-09
3.35019e-08
0.00203059
0.02493
0.295272
6.18846e-10
0.0090971
3.65478e-08
0.00125554
0.000444878
0.189216
0.000616867
0.286173
0.779141
0.00010393
2.22788e-09
1.88493e-08
0.00136242
0.0106289
0.00567488
0.0101972
0.0628076
0.034229
0.00133857
0.00163812
0.0103484
0.0113597
1.21198e-08
0.000525623
0.000427672
0.000353772
0.00041972
0.000637652
0.139151
0.000272776
0.00292429
0.000398953
0.0030773
0.00201978
0.00221777
4.54084e-10
0.477349
0.0314946
0.184689
0.148232
0.00215697
2.01925e-09
0.00651388
1.55392e-08
3.30395e-07
0.000761567
0.0855812
8.99266e-10
0.00178819
1.45856e-07
0.000207822
0.01665
4.23764e-07
0.00854074
4.01492e-07
2.1994e-07
0.00156857
0.000625023
0.00113927
0.0129686
2.93645e-05
0.00243699
0.00136282
0.0180402
4.95068e-09
0.000502803
0.00155103
0.015245
0.00164897
2.43253e-07
0.00224619
0.0313559
4.8869e-09
5.45536e-09
6.91863e-09
0.00152603
0.00183413
0.00302925
1.4686e-08
2.94069e-05
4.23342e-07
0.000298094
0.00380795
0.00140453
8.23943e-08
0.00269357
8.1809e-10
0.0107221
0.00112945
0.000804528
0.00191825
0.00175509
0.00953942
6.65832e-09
0.0137764
0.000305405
0.000423315
1.16923e-09
0.00037871
0.000405401
0.000581333
0.00198362
3.38956e-07
0.00163268
0.00947309
0.00173163
0.000460548
0.0188891
0.00225162
0.00130895
0.0145262
0.00750078
0.0122603
0.0131013
0.00624605
1.64006e-07
0.322644
0.0622447
5.38247e-08
0.000573423
0.0147338
3.42829e-09
0.0242329
0.000102307
0.000403272
0.014333
2.81587e-07
0.00678277
0.000614673
1.82685e-08
0.00757199
5.23806e-08
0.0312541
0.357363
0.00114399
0.0576079
8.4126e-10
0.000256111
0.00435163
1.70507e-06
0.102768
0.00268491
0.00164558
0.000462264
2.47077e-09
0.00340373
0.00279633
5.12723e-10
0.000489099
0.0260966
0.000618779
5.75054e-05
0.0618097
5.12223e-07
0.00272414
7.88848e-11
0.000345775
0.00240366
6.56596e-09
1.20999e-09
0.00218551
1.11111e-08
0.00250852
3.86371e-08
1.87792e-09
7.87522e-08
0.00480411
0.00210022
0.00119591
5.44593e-10
0.00221582
2.03641e-07
0.0030458
0.000248962
0.0316128
4.55526e-08
0.000497811
2.75237e-09
0.00163522
0.0372405
5.05095e-09
2.79673e-07
0.00027472
0.00245454
0.000453092
0.000960067
0.296044
2.56887e-09
0.000231705
0.00238796
9.09914e-10
3.75269e-09
3.97936e-08
3.41676e-08
0.000502523
2.71851e-07
0.000529732
1.99467e-07
1.52058e-07
5.87001e-11
0.011419
0.00022109
0.000394061
1.51952e-08
0.00395557
0.00252864
0.0445634
3.11588e-10
3.53138e-09
7.54637e-09
3.94611e-09
1.56521e-08
0.00277975
0.000619946
0.00051408
0.000120229
0.000348207
0.000381681
2.94391e-09
4.27044e-08
1.42378e-09
0.0225967
1.88447e-08
0.00848388
1.09318e-08
0.0155159
0.00115977
2.10046e-08
7.99474e-08
0.00432526
1.83373e-09
0.00409032
0.0192921
0.00227126
5.19473e-09
1.48108e-08
4.41859e-09
1.64768e-08
2.14258e-08
0.00387452
0.0164542
1.16721e-07
0.0103824
1.05666e-09
0.878013
0.440409
3.52124e-09
0.0414646
9.67013e-05
9.92915e-09
0.00939023
1.03052e-05
0.599698
0.0441708
0.00755211
4.12025e-09
0.0283422
0.393335
0.00291561
0.0249858
0.00436955
0.00222241
0.12672
0.0440166
1.04717e-08
0.000949815
0.0260508
0.0486454
0.0040995
0.000308981
0.033819
2.05869e-09
0.0141171
1.06716e-08
6.73164e-10
0.00661205
8.41691e-10
0.00421644
0.00393099
2.32389e-09
0.000129812
3.29233e-09
1.08548e-09
0.00780823
0.00606059
2.82676e-09
5.59161e-08
0.00171377
0.00228536
0.00405306
0.000384446
0.0115689
0.0631818
1.808e-08
0.0332533
0.000565024
0.00430609
9.46675e-09
0.00223905
0.0303152
0.00413588
1.22597e-08
0.0273299
2.74858e-09
3.77252e-09
6.35237e-09
0.00025916
0.000626653
0.00756228
0.0258314
0.0147298
0.0073815
0.00549589
0.00102679
1.35863e-08
2.97706e-07
1.07315e-08
0.00425418
2.8071e-06
0.00317219
2.91531e-08
7.6715e-09
0.00159399
0.00149219
0.00180507
1.71013e-08
0.0103446
0.00194035
1.70428e-09
0.00339665
4.44765e-07
0.00183805
0.000459346
0.00679959
0.00238551
0.00506002
0.000437114
0.00635208
0.00224204
1.91001e-08
0.00245249
0.00311776
0.00186901
0.00150551
4.38386e-09
6.35212e-09
8.23446e-10
0.0346434
0.00179581
0.00284826
0.0018395
2.94445e-09
0.00334433
0.00838018
0.00228149
0.00258047
1.66795e-08
3.78212e-08
0.00170914
0.0018863
1.33621e-08
4.21889e-05
0.00128924
0.00264553
0.00779676
0.0288949
0.00167111
4.82758e-09
0.00300829
7.42052e-09
0.00425128
6.99893e-08
0.00581678
0.000349628
0.00278343
1.49486e-08
0.000716896
0.000930261
0.00721318
3.58055e-10
0.0199298
0.00613452
1.20278e-08
3.55784e-08
0.00158887
1.24517e-07
1.54881e-09
0.00252185
0.0218988
1.66982e-09
0.0378025
0.00194085
3.50054e-08
5.34252e-09
0.00263603
3.03361e-09
0.000862124
0.0137707
0.0230934
0.00208691
0.0117735
0.00153842
1.75447e-08
0.00439693
0.0145721
6.27288e-09
0.00163039
4.9687e-08
0.0829747
0.0419079
2.90487e-08
0.00243791
0.00154752
1.94758e-09
3.22126e-09
0.033745
0.00857044
0.0158706
7.55604e-09
9.02827e-07
5.11645e-09
0.019299
2.4948e-09
0.00325639
6.48858e-09
1.62177e-08
0.020227
7.78404e-09
0.000397377
0.00444207
0.0015003
0.00265774
0.00160669
0.0234549
1.22441e-08
0.0020823
0.0199962
6.97961e-09
0.000410059
0.000145131
1.50255e-07
0.00242433
0.013435
1.2922e-07
2.3027e-08
4.46647e-08
0.00141084
8.513e-09
1.02256e-09
2.11513e-07
2.651e-09
4.86542e-07
3.66843e-05
0.0116893
0.00500218
4.44014e-05
0.000460411
0.000296475
0.0621841
4.04e-10
5.04472e-09
0.0180783
0.0030856
0.00186007
0.00331698
0.000518404
1.49308e-07
0.0184537
0.00015796
0.0229708
0.000771102
0.0496432
0.0141855
4.16022e-08
0.0257268
0.00326674
0.0895046
0.00748361
5.64775e-09
2.59094e-09
0.256346
0.00674741
0.000993157
0.00307163
0.000163089
0.00331448
0.0308692
0.0108645
0.00292127
0.144743
0.00609887
1.35743e-09
0.0178375
0.0640099
0.0347319
0.00102843
0.00261868
5.12507e-09
0.00285924
0.000674866
0.0189765
0.0197192
0.000894221
0.052216
0.0229741
0.000621296
0.00262176
0.0136692
0.003249
0.000701966
0.0504223
0.0026133
0.000111217
0.0108359
0.0108192
0.0217655
0.00261566
0.000270536
0.00281045
0.0163092
0.000358073
1.15584e-08
0.172963
0.00332868
0.00112614
0.00159288
4.63708e-05
0.00434534
2.65633e-09
0.0185874
0.00261779
0.0140842
2.69282e-09
0.00552734
1.12181e-08
0.0164587
0.000301431
2.90041e-09
0.00869328
0.00251965
0.00664858
0.00772344
0.00210909
0.0159141
0.000672101
0.0156175
0.00668769
0.00925536
0.0563626
0.00557296
0.0290478
0.0344765
0.0170007
0.00114083
0.00455969
0.00265276
0.000985565
2.61267e-05
0.00397807
6.13243e-05
0.000647984
9.90284e-09
1.3382e-07
0.00244787
7.31327e-05
4.69865e-05
0.0535945
0.000358697
0.00276013
1.40912e-09
7.94743e-09
1.01593e-09
9.34492e-09
0.00258819
0.0298112
5.10771e-05
3.98492e-05
1.42226e-08
0.0170431
0.00266067
4.77096e-09
4.53738e-09
1.91722e-09
0.0347601
0.00671887
0.000518009
0.00230411
0.0044733
0.000221914
6.60239e-09
0.0048839
0.000429642
6.7252e-07
1.58888e-10
9.7445e-10
0.00187908
0.00221641
0.00104363
0.00862033
0.102799
0.000243774
8.45119e-10
0.00356806
9.5154e-09
0.0111055
0.00241199
1.82078e-08
1.94748e-08
0.00319639
9.63274e-09
0.0101116
0.0726593
0.0453751
0.000171362
0.000791886
5.63356e-08
5.61969e-09
0.00267657
0.00392532
2.44501e-08
0.00273564
0.0142951
0.00194072
3.00736e-10
0.00231005
0.000433577
0.0298013
3.54261e-09
3.70096e-08
0.0109912
0.0023437
2.19196e-08
0.00463747
0.000614008
1.12213e-08
7.26481e-09
0.0024161
0.0226874
3.85525e-10
3.16208e-08
5.85788e-09
0.0070249
4.57024e-07
0.000693634
3.48586e-09
0.00127872
0.00963793
9.2365e-09
0.0285783
1.02611e-09
3.50443e-08
0.00237123
8.9851e-10
7.24826e-09
0.00345412
0.00118848
0.002397
7.20011e-07
0.00181079
2.14676e-09
8.9419e-10
0.00226721
0.00331281
0.00339878
0.301442
0.0016397
0.00107626
0.00222944
0.00302006
8.73444e-09
9.60185e-09
0.00372065
0.00239577
0.00309035
6.9953e-05
0.00133013
0.0139891
0.00278603
0.11195
0.00182054
0.0101557
0.0102699
0.0124233
4.02324e-09
1.03882e-09
6.49947e-09
9.4961e-09
3.88303e-09
5.07672e-09
0.00082509
0.0116569
3.29345e-11
3.36177e-09
0.00375785
6.0356e-09
1.43447e-09
0.0149426
0.00196483
0.00289179
0.00127488
0.00230945
1.46659e-08
6.41332e-08
4.84704e-09
0.0242259
0.0134607
0.0101456
0.00176991
1.14805e-08
0.0018814
8.2889e-09
1.66607e-09
1.34775e-08
1.41343e-07
0.00164274
0.0110618
0.00697421
0.00145439
0.00184821
0.00227159
0.00232411
0.00176684
4.81888e-08
0.00412189
3.00039e-09
8.35823e-09
7.60585e-09
1.39147e-06
0.00276937
3.03357e-08
3.53674e-08
0.00195454
2.41511e-09
2.63454e-09
7.63293e-07
3.15501e-06
0.0532524
0.000487472
5.48315e-07
3.64125e-09
0.00294831
0.00219947
0.0019212
0.00344491
3.86527e-05
7.52388e-07
0.00105424
2.75651e-05
0.0194763
0.00321105
0.0242013
0.00159472
0.0511948
1.10253e-09
0.00114514
3.61869e-10
4.18313e-08
0.00373381
2.89941e-09
0.00137989
0.00010452
0.0022381
0.0193586
0.00126227
0.00232497
0.00878469
0.00260821
0.0108326
0.00358503
0.00175485
0.00025002
0.00502998
0.0296439
0.000216767
5.11787e-10
0.0632758
0.00891591
0.00651027
6.60551e-07
0.0651714
0.00193413
0.0150933
3.82718e-09
0.0172154
0.00315861
0.00142382
0.00245258
0.00243229
5.41131e-09
0.040394
0.0144692
0.0145901
0.00314715
0.00147719
0.00153849
0.00333248
0.000925024
3.26084e-09
0.00166382
0.00313805
2.9591e-08
7.60603e-10
0.00174345
0.0361622
0.00308562
4.8513e-07
9.59819e-08
0.000406411
0.00146649
5.83592e-08
0.000491015
0.000114948
9.39566e-08
0.0140919
4.83461e-09
1.08985e-08
5.29731e-07
5.85371e-07
0.000128579
1.67416e-10
2.27024e-09
0.00207003
0.00293925
3.35461e-10
2.63996e-08
0.000672669
3.08978e-09
1.18428e-06
0.0167163
2.47053e-09
0.00328661
0.0015609
0.00150474
0.00168203
0.00695103
0.00422307
0.000590345
0.00390889
6.34042e-10
0.00235479
0.00434017
3.64524e-08
0.00748931
5.78012e-10
0.00305318
0.00187018
0.0999367
6.12727e-09
1.30267e-09
9.79157e-09
9.13509e-09
0.0013913
0.00297232
1.45836e-10
2.88499e-09
0.00134856
0.00539684
0.000572203
0.00368465
3.52134e-07
1.95032e-09
0.00952347
0.00321667
3.56688e-08
0.00221659
8.47228e-08
0.00395636
0.00330778
7.9831e-08
2.16108e-09
0.00365678
8.86195e-09
8.51899e-07
0.000344638
1.58815e-08
0.120315
6.78664e-06
2.33961e-05
0.00311067
5.11361e-09
0.0118038
3.51306e-10
0.00270555
6.99472e-09
4.78732e-09
0.000495167
2.21805e-05
1.77602e-08
0.00295225
2.19865e-08
2.51705e-08
4.8785e-09
0.0184955
0.000600892
8.89622e-09
1.23306e-08
0.00226137
8.11467e-09
0.00303385
0.00453345
4.94817e-09
0.000360671
2.93007e-09
3.45658e-09
2.70999e-08
0.0125033
3.10243e-08
0.00158137
0.00209722
1.13101e-07
0.0844235
8.58531e-08
0.00317737
0.0011098
4.80842e-08
0.00237019
0.00453557
0.0267242
0.0112441
0.000410462
6.48645e-09
0.0376396
0.0398848
0.000563895
0.0179769
0.00261312
3.34018e-10
2.46836e-09
0.000636455
0.00034171
1.6977e-08
0.000460447
0.00433022
1.08173e-07
0.0001627
3.12011e-06
0.000264931
0.00603584
5.17999e-09
0.00247013
1.33646e-08
1.39043e-08
0.000193858
1.22014e-07
1.65802e-09
1.00171
3.19777e-05
0.0194018
0.00304497
1.68654e-07
0.000297091
0.0177014
0.00182457
7.05054e-09
0.00244575
0.00566515
3.7022e-08
2.33504e-08
1.25919e-08
3.13437e-09
0.000926204
1.11556e-08
0.00247921
0.00447854
6.45506e-09
2.20897e-09
0.0197235
0.00194316
0.00255044
0.000394484
0.0013856
1.87611e-08
1.63278e-08
0.00237133
0.00925656
0.0125558
0.0060357
0.000756902
2.47151e-08
0.00057938
0.000850826
0.00107116
0.00266941
5.41847e-08
0.000310602
0.00365302
0.00169197
0.00333107
0.00270992
0.000748123
0.00464368
1.08257e-09
1.47278e-09
0.0227481
5.0758e-09
3.60708e-09
0.00243594
0.00329923
0.0098179
0.00385218
1.26518e-08
0.00715864
0.00311482
1.57991e-08
0.00330181
1.43848e-08
1.31524e-08
1.83268e-08
0.00361043
0.0129667
4.63603e-08
0.00604293
0.00159118
0.150684
0.000168421
0.00373001
6.70138e-09
0.0122716
8.15486e-10
8.49357e-05
5.54114e-09
0.0221197
8.17169e-09
0.00231142
0.00260922
0.00320252
0.00674597
0.00215728
0.00220402
0.0168435
0.00688215
8.01448e-09
1.29583e-08
0.0123109
1.47428e-07
2.94452e-07
0.00187726
0.00291565
3.3583e-08
1.18687e-09
9.63344e-10
0.00468426
0.00327092
0.00225248
3.48096e-08
0.00320005
0.00189619
0.000624945
6.85163e-08
3.46044e-09
0.00182293
0.0186486
0.00165067
0.0015382
0.00708133
0.000983654
0.031391
0.00131202
0.00746317
5.44403e-10
1.35807e-08
0.000357864
1.40805e-08
2.94767e-09
6.06378e-08
2.70138e-08
0.00365584
5.70563e-07
0.0373419
1.15338e-08
0.00784081
0.00212535
0.00742803
0.00331483
0.0149219
0.0174518
0.00140951
0.00973705
9.89096e-06
7.65727e-07
0.00134793
0.00182244
8.20138e-09
0.0038142
2.35661e-08
0.00286444
0.000102667
0.000815136
2.87564e-09
0.00269771
0.00132532
0.000427446
0.0266294
4.378e-08
0.00133808
5.32384e-09
3.8719e-09
9.05519e-09
3.51056e-07
0.00245385
0.00209699
1.80965e-08
0.00159611
0.00312666
3.95912e-09
0.015687
0.0132407
6.19373e-09
2.49531e-08
0.00163946
8.94513e-09
0.000285135
1.42002e-06
0.00045127
4.45419e-09
0.00235246
4.62245e-09
0.00530114
0.00052662
0.00115865
0.000541557
0.00837943
0.00526298
0.00881018
2.47279e-08
0.0544168
0.0219563
0.096915
0.00186385
0.00014617
1.64418e-09
0.000292809
6.28963e-09
0.010099
0.0301077
0.0246752
2.27106e-08
1.17413e-08
0.00776348
8.03268e-09
0.017476
0.301168
0.0177703
1.57224e-08
9.02206e-09
0.0159535
0.00162371
2.82411e-07
9.83341e-09
0.162696
1.37342
4.78924e-09
5.52868e-08
2.07215e-08
0.00485252
5.1819e-07
0.00030647
7.7345e-08
9.88783e-09
0.00232573
1.20019e-05
0.0023026
5.06755e-09
0.00243437
0.00273792
0.00256432
1.23155e-09
9.5448e-09
7.0848e-09
0.00469619
0.014589
0.00403321
0.00258574
2.36442e-08
0.00159746
0.00137056
1.54257e-08
2.08795e-09
0.00879373
5.2288e-09
0.0313114
9.52316e-10
0.0488009
0.0149716
0.000247003
0.00494278
9.84619e-08
0.00235956
6.30964e-08
3.03105e-07
0.0839558
2.13706e-07
3.11093e-08
8.29168e-06
0.00396286
0.00341918
0.00151443
0.000996572
1.51792e-08
0.00123198
0.00104045
0.00291376
1.52657e-07
0.0680421
0.0265221
3.35811e-08
9.97418e-09
0.00243874
0.0669325
0.012021
0.00409619
1.27024e-05
0.00724098
0.00268119
2.29533e-08
1.3034e-07
0.00482003
3.3236e-05
0.0171956
0.00521817