/*--------------------------------*- C++ -*----------------------------------*\
  =========                 |
  \\      /  F ield         | OpenFOAM: The Open Source CFD Toolbox
   \\    /   O peration     | Website:  https://openfoam.org
    \\  /    A nd           | Version:  10
     \\/     M anipulation  |
\*---------------------------------------------------------------------------*/
FoamFile
{
    format      ascii;
    class       volScalarField;
    location    "37";
    object      T;
}
// * * * * * * * * * * * * * * * * * * * * * * * * * * * * * * * * * * * * * //

dimensions      [0 0 0 1 0 0 0];

internalField   nonuniform List<scalar> 
59698
(
286.605
283.15
283.15
283.15
299.958
283.15
292.534
283.15
303.15
303.15
303.15
283.15
283.15
283.15
300.138
303.15
283.15
283.15
283.15
293.804
303.28
302.131
303.148
303.15
295.681
283.15
283.15
298.353
295.701
295.346
300.291
303.15
303.15
298.825
302.371
283.15
283.379
283.464
283.15
297.534
296.22
283.15
296.563
283.156
283.15
296.588
283.15
295.141
294.485
283.15
293.017
283.15
283.15
283.155
294.389
283.15
284.285
302.176
283.562
282.977
291.244
284.208
299.62
283.15
286.796
283.15
303.15
283.15
283.15
303.15
283.15
284.399
283.135
298.521
283.15
297.769
283.155
287.694
291.649
294.146
299.955
283.653
303.15
283.15
303.699
283.155
283.15
283.15
298.875
283.15
303.15
294.74
298.977
283.15
283.15
283.15
299.054
283.15
298.902
283.15
299.105
283.128
285.917
284.499
283.15
283.15
283.15
283.15
303.15
283.15
283.15
283.15
298.861
283.15
283.15
283.15
283.15
283.15
283.15
303.15
283.15
283.15
283.15
283.15
283.15
283.15
295.479
303.15
283.15
283.15
287.508
283.15
303.15
292.764
290.223
291.66
283.15
303.15
283.15
283.15
283.15
283.15
290.848
292.123
283.15
283.15
283.15
283.15
283.15
301.183
283.138
303.15
288.085
283.15
289.454
283.613
283.15
283.15
296.967
283.15
289.679
283.15
290.76
299.553
297.821
296.703
283.15
280.911
299.36
283.322
300.379
283.151
300.946
301.013
285.533
283.15
303.15
283.237
303.15
298.943
302.766
300.419
298.652
283.15
298.701
300.855
300.768
283.15
283.15
294.714
283.151
283.15
296.59
297.45
299.393
283.15
293.924
296.598
303.155
299.388
283.15
284.147
292.453
283.15
299.301
290.943
297.345
295.414
293.595
298.046
283.15
283.15
299.128
303.15
294.872
283.15
283.15
283.15
297.846
296.019
282.055
296.326
283.15
299.289
295.267
299.342
295.825
291.351
295.66
284.994
283.15
296.154
295.169
295.828
283.15
294.814
295.992
283.15
283.15
295.003
283.15
293.986
289.94
303.15
294.635
283.15
282.928
285.591
292.962
283.15
287.363
294.929
295.136
303.15
283.15
294.727
287.657
295.296
283.15
283.15
303.12
283.15
293.584
287.298
287.454
295.345
283.15
303.15
283.15
283.15
283.15
286.646
303.101
283.15
287.32
283.151
283.15
283.151
293.967
303.15
303.15
283.15
283.15
289.066
295.132
290.701
284.945
303.15
286.01
284.813
301.406
291.291
283.15
283.15
284.851
283.15
283.15
285.366
295.101
283.15
291.445
283.15
283.15
283.15
283.15
283.15
287.832
283.203
283.192
283.15
283.15
283.15
283.15
283.15
283.15
292.668
283.15
283.15
283.15
283.15
283.15
293.376
283.15
303.15
298.303
286.252
283.15
283.15
292.427
283.15
300.179
290.667
298.879
281.569
303.15
293.801
283.15
283.15
298.463
293.845
295.125
295.545
283.15
294.982
298.952
283.15
295.601
301.428
283.15
289.168
292.817
283.15
301.356
303.15
284.199
300.75
302.089
283.15
283.15
303.15
283.15
283.15
303.15
295.006
283.15
283.15
283.15
290.472
283.15
282.756
292.666
283.15
283.15
283.15
296.426
303.15
283.15
283.15
283.15
303.15
283.15
283.15
283.15
293.512
283.15
283.148
283.15
283.15
283.15
283.15
283.15
303.15
294.418
290.721
303.133
301.991
301.762
283.15
283.15
283.15
288.505
295.72
283.15
283.15
283.15
283.15
295.968
293.293
295.671
302.254
297.905
303.15
295.071
303.15
283.15
289.809
283.15
283.575
302.298
302.833
283.15
283.15
290.796
281.991
283.15
283.15
303.15
283.15
283.15
283.15
295.499
302.787
285.303
291.845
287.575
303.15
303.15
298.659
283.15
291.934
283.15
283.15
303.15
283.15
283.15
302.913
294.863
283.15
283.15
299.203
283.15
283.15
283.15
286.32
283.15
283.15
290.662
303.15
284.31
283.15
290.075
283.15
283.965
293.924
303.15
283.15
283.15
291.897
283.15
294.983
295.096
283.15
283.15
283.15
283.15
283.15
302.758
292.139
293.695
283.151
283.15
283.15
283.15
283.15
300.934
283.15
283.15
283.15
291.949
292.868
299.058
290.514
291.377
283.15
292.088
283.15
283.15
283.15
289.593
283.15
283.15
295.188
299.057
294.675
283.15
303.15
283.15
303.15
283.15
290.287
294.701
290.695
283.148
283.15
291.631
283.15
283.15
283.15
283.15
283.15
289.563
293.96
283.15
283.15
283.15
302.995
294.938
283.15
289.845
288.754
283.15
301.441
303.15
283.15
283.15
283.15
283.15
286.365
283.15
303.15
290.007
283.15
283.15
281.272
289.378
291.836
282.236
283.132
290.837
283.147
283.15
303.15
283.15
303.15
283.15
283.15
283.15
295.584
291.514
291.834
283.15
303.15
283.15
283.123
283.15
303.15
286.364
283.15
291.212
303.15
292.075
283.15
283.15
291.883
290.934
293.525
283.15
292.276
295.523
303.15
283.15
283.15
285.259
283.15
292.323
283.15
286.78
283.15
289.713
291.625
291.934
296.415
283.15
283.15
283.15
283.15
303.15
282.782
283.15
283.15
290.93
288.228
283.15
283.15
289.784
290.542
283.15
283.15
288.584
283.15
283.15
284.918
283.15
285.55
286.246
285.092
283.15
297.854
285.617
283.15
283.15
284.848
283.22
302.961
295.261
283.15
290.922
283.233
283.294
283.273
295.602
283.15
283.15
283.275
283.15
283.152
283.152
283.15
283.15
286.959
283.15
283.15
283.15
303.15
291.393
294.048
283.15
283.15
283.15
283.15
283.15
283.15
288.567
283.15
283.15
283.15
283.15
303.147
293.601
283.229
283.15
283.154
290.992
283.799
301.825
291.641
283.15
283.15
283.15
288.918
283.15
283.15
283.15
283.15
283.15
283.15
283.15
295.32
293.212
283.15
283.185
283.15
283.15
283.15
283.15
283.15
283.15
283.15
283.15
295.751
290.798
297.165
283.15
283.15
290.612
283.15
283.15
283.16
283.15
283.15
283.15
283.15
292.552
283.79
283.15
303.15
296.514
283.15
283.15
283.15
288.108
283.15
283.15
283.15
283.15
297.639
289.343
283.15
303.15
283.15
297.88
297.944
283.15
283.15
295.603
297.214
295.563
283.15
296.22
283.15
282.864
283.15
290.525
300.328
283.15
291.119
283.15
303.15
297.634
287.94
283.15
283.15
283.268
297.043
294.592
294.371
283.596
283.448
283.15
286.007
283.15
296.884
293.738
298.109
283.15
283.15
290.279
295.045
303.15
283.15
296.892
283.15
298.221
295.934
283.15
293.862
296.739
283.15
283.15
294.932
294.563
283.15
283.15
283.15
283.15
289.443
283.15
283.15
294.534
294.553
297.434
283.15
293.686
290.455
294.877
295.289
295.321
283.15
284.363
298.847
283.15
288.638
297.669
301.039
283.15
302.767
283.15
283.15
283.15
283.15
283.15
283.15
283.15
283.15
298.051
283.164
288.669
283.15
283.15
282.35
283.15
283.15
283.15
283.15
303.103
298.493
303.15
283.15
284.568
288.608
283.15
282.179
283.15
283.227
283.15
283.15
291.145
294.699
296.694
283.15
295.8
283.15
283.15
283.15
283.15
283.15
283.162
283.15
283.132
283.173
303.15
283.15
283.15
283.15
283.15
291.19
283.15
288.294
283.15
294.639
283.15
283.15
285.389
283.15
283.15
283.15
299.431
295.184
291.853
283.15
283.15
295.888
303.15
295.878
283.15
283.15
283.151
283.149
283.15
283.15
283.15
283.15
284.113
283.15
290.388
283.15
283.15
283.738
294.916
283.151
283.747
283.15
283.151
283.15
283.15
283.15
283.15
283.15
283.15
283.15
288.434
296.327
296.013
283.15
288.599
295.069
283.15
296.75
303.15
283.15
295.897
283.189
283.15
283.15
288.183
283.15
295.893
283.15
283.15
293.586
283.15
283.15
283.15
283.15
303.15
283.15
283.15
283.15
295.9
297.651
283.15
296.683
290.215
288.055
295.62
283.15
291.43
290.735
286.602
292.126
283.15
289.767
283.15
296.57
295.751
283.15
290.298
283.15
283.15
297.546
283.852
290.051
296.132
296.761
283.15
295.383
285.342
294.018
283.15
283.15
283.15
283.15
283.15
283.155
283.15
283.15
283.15
303.15
283.15
283.15
294.492
303.15
283.15
296.663
293.02
283.152
283.151
283.151
295.681
283.15
303.15
303.15
283.15
295.551
283.15
283.15
291.469
302.708
298.556
283.15
293.655
302.158
297.86
294.927
295.848
293.717
283.15
295.689
283.15
290.649
287.764
292.627
283.15
283.15
303.15
283.168
293.671
300.402
294.436
303.15
303.15
283.15
287.781
294.578
283.15
283.15
292.626
283.15
283.223
283.15
298.38
283.15
294.302
295.018
302.804
283.15
290.591
302.799
283.15
283.15
302.808
283.15
294.56
295.189
296.448
295.368
295.999
295.215
283.15
283.15
303.15
295.489
296.539
283.159
283.15
283.15
297.705
283.15
283.15
283.15
295.364
283.15
287.745
283.151
290.948
283.15
303.15
283.15
288.107
283.15
303.15
294.032
294.205
295.989
283.175
289.343
303.15
303.15
293.102
283.15
295.009
283.168
283.175
294.417
283.176
303.15
303.15
284.105
294.301
295.136
303.15
283.211
296.138
303.15
282.447
283.213
283.568
283.15
294.351
283.15
283.15
294.102
303.15
283.341
283.151
283.15
283.15
283.15
283.15
294.39
301.054
303.15
297.216
302.913
283.15
301.67
287.118
291.095
295.275
297.73
297.074
289.464
289.151
283.15
283.15
288.121
283.15
303.15
283.15
300.983
283.15
294.508
283.21
294.938
283.15
302.392
289.603
294.813
294.646
283.15
283.15
303.15
283.15
286.77
283.15
283.15
283.15
294.664
283.15
304.936
283.15
295.044
283.15
295.301
283.15
287.086
294.942
303.15
283.15
283.15
283.15
290.192
283.15
300.81
301.126
283.15
295.894
299.143
302.604
293.685
283.15
283.15
302.574
287.717
300.264
291.918
283.15
295.941
295.795
295.385
293.305
295.257
303.15
286.069
298.858
295.793
283.15
283.15
297.238
283.15
298.99
293.77
283.15
293.662
283.15
303.15
293.357
303.15
292.586
283.15
288.327
292.089
283.15
285.408
283.15
303.15
294.481
291.967
288.947
292.439
293.372
303.15
303.15
283.15
283.15
283.15
303.15
283.15
283.15
283.15
283.15
303.15
283.15
283.15
283.15
283.15
285.237
283.15
283.15
284.974
303.15
283.15
283.15
303.143
303.15
297.274
290.547
283.15
297.348
296.699
292.32
303.15
283.15
283.15
296.903
282.327
296.656
283.15
303.15
283.15
303.15
296.781
284.586
283.15
291.149
297.604
283.15
302.761
297.495
295.761
297.461
291.402
297.625
283.15
283.15
297.493
297.425
283.15
303.15
283.15
291.912
283.15
283.15
283.15
283.15
283.15
283.15
285.1
283.15
300.615
285.605
297.023
303.023
283.15
303.15
285.257
283.15
299.956
303.15
303.15
293.502
283.15
300.656
283.15
283.15
303.15
283.866
283.15
303.15
283.15
283.15
283.15
283.15
302.96
303.15
297.445
283.276
283.15
289.034
283.804
283.15
283.097
303.15
283.15
303.15
283.15
303.15
283.15
297.882
297.779
296.96
297.555
294.275
283.15
286.811
283.15
283.15
292.013
298.047
294.839
296.661
283.15
301.152
283.15
303.15
283.15
297.002
296.293
303.15
303.15
283.15
288.943
287.35
294.317
289.22
289.609
303.15
303.15
283.15
283.15
287.791
303.15
299.768
303.15
287.57
303.15
303.15
303.15
291.701
290.741
299.279
303.15
292.602
292.153
303.15
283.82
287.297
282.682
292.241
283.729
295.845
291.704
283.152
283.314
293.657
283.152
303.15
303.15
285.19
288.654
292.716
283.578
283.285
283.15
289.887
283.15
283.15
295.275
291.708
283.342
287.692
285.211
293.928
303.15
292.222
284.061
290.957
294.005
300.932
283.15
292.384
283.15
283.15
298.089
283.151
283.15
283.15
283.899
286.79
283.771
283.15
284.864
283.152
284.223
303.15
294.025
290.561
288.481
292.605
303.112
303.15
283.15
284.408
294.785
300.622
284.978
285.118
298.425
292.598
284.944
282.313
294.006
303.15
287.372
283.15
283.131
285.152
303.15
297.592
283.151
283.15
303.15
284.927
300.028
303.15
283.15
289.248
295.115
296.498
297.828
283.512
303.15
285.245
283.151
283.15
283.15
293.903
283.15
303.125
283.15
303.15
294.347
283.15
292.611
283.15
283.15
283.15
300.122
298.994
285.916
283.138
299.322
283.15
299.416
303.15
283.15
283.15
296.295
285.769
283.15
283.15
288.097
283.15
283.15
283.15
283.15
283.15
296.753
303.15
293.695
283.15
303.15
288.563
283.15
283.15
288.197
303.15
296.127
283.15
303.15
296.85
302.676
290.225
283.15
286.899
288.129
303.15
283.15
303.15
283.15
283.15
283.15
283.15
283.14
291.909
283.208
303.15
288.306
288.775
287.967
294.285
288.262
294.901
289.064
286.218
303.15
287.422
291.768
283.15
303.15
300.563
283.15
289.594
303.228
303.15
299.147
283.15
290.463
303.15
283.15
290.513
283.15
297.733
297.137
290.169
295.023
303.15
303.15
290.273
290.297
283.924
293.683
283.154
283.571
303.15
283.793
290.228
303.15
283.15
283.003
283.15
290.354
299.837
303.15
290.328
303.15
303.15
283.668
283.15
283.15
283.149
303.15
293.272
283.15
303.15
303.15
290.13
283.127
288.784
303.15
283.139
283.15
287.683
287.987
300.72
283.15
287.85
303.15
294.704
294.209
303.15
303.15
303.15
283.15
283.15
287.99
291.886
303.15
283.14
283.8
303.15
303.15
303.15
283.15
283.15
283.15
283.15
283.15
283.164
283.15
296.145
303.15
283.15
283.155
283.155
283.156
294.057
283.15
283.15
283.15
283.15
283.15
283.14
283.15
303.15
283.15
283.15
283.15
283.15
303.15
283.15
294.225
303.15
285.302
283.15
293.206
283.15
283.151
283.15
297.219
283.15
296.723
295.911
283.15
283.15
283.15
283.15
283.15
283.15
283.15
298.952
283.15
287.273
283.15
304.956
284.02
283.15
300.338
283.134
283.15
291.737
303.15
294.37
296.506
295.239
283.15
301.433
296.214
283.15
298.947
293.106
302.825
297.669
300.385
283.15
285.248
294.207
289.313
294.337
295.909
297.461
283.15
296.646
283.15
283.15
294.764
283.15
283.143
299.574
283.15
288.105
283.15
283.15
297.89
293.735
283.15
283.15
292.505
283.15
295.059
283.15
293.102
298.396
283.15
300.331
291.876
294.442
283.15
293.601
298.437
291.7
283.15
284.621
283.15
283.15
283.153
283.15
303.15
292.51
297.144
298.056
301.568
283.456
292.426
283.15
283.15
283.15
283.15
303.151
283.15
283.15
283.15
283.139
283.15
283.15
283.15
301.99
283.15
283.15
303.187
283.176
283.15
283.15
299.01
283.15
302.104
302.829
294.67
283.15
283.15
283.15
283.15
283.15
293.511
283.15
283.15
283.15
295.154
302.942
283.15
288.184
283.15
298.906
293.009
283.158
283.15
283.155
283.15
283.15
295.253
283.15
302.926
287.262
283.15
291.107
298.247
302.943
283.15
292.708
283.15
298.521
283.15
294.283
288.188
289.744
283.15
294.424
289.063
294.12
283.15
289.32
302.813
283.15
283.15
289.436
283.15
283.15
294.008
299.713
283.15
294.616
283.15
283.15
283.15
291.656
283.15
295.052
287.184
298.581
299.534
289.316
283.15
283.15
294.785
295.986
283.15
283.15
283.15
298.672
285.527
283.15
283.15
283.15
283.15
283.15
296.225
287.988
296.566
283.15
283.197
283.15
299.581
303.15
293.227
283.15
283.15
296.97
283.15
299.696
283.15
283.15
283.15
283.15
299.657
283.15
283.15
301.303
283.15
283.15
292.72
283.15
283.15
289.326
283.15
303.15
283.15
301.439
283.15
283.15
283.15
283.15
283.15
301.372
287.262
290.356
283.755
283.15
283.23
295.967
283.15
283.15
298.927
291.415
290.406
290.573
283.15
303.15
298.529
284.35
294.394
295.699
295.007
301.378
283.15
301.194
295.172
292.996
292.097
303.15
283.15
300.067
295.444
295.685
291.921
302.832
286.645
295.635
293.869
292.386
296.208
295.312
283.15
291.141
292.622
295.758
291.365
283.15
283.15
283.15
296.434
296.078
295.199
296.198
294.29
295.797
294.786
283.15
291.978
295.614
295.817
296.78
300.265
297.34
297.455
297.951
301.245
283.15
303.146
283.149
290.488
283.15
283.15
301.797
303.55
295.152
303.01
303.129
291.148
283.15
292.091
283.15
290.837
283.15
300.603
283.15
291.098
303.15
283.15
293.485
283.15
301.068
295.238
283.15
302.012
290.538
289.214
302.269
286.672
295.417
291.734
292.615
294.641
300.553
302.959
293.229
289.818
289.044
283.624
295.286
283.514
295.879
283.15
283.15
283.15
283.826
283.794
295.799
286.677
283.15
283.15
283.15
283.15
283.15
290.954
294.096
283.622
283.676
283.15
293.396
283.329
283.15
283.15
283.15
286.563
302.174
291.966
299.927
296.663
294.694
283.15
295.979
303.15
283.15
283.15
283.15
295.271
296.777
295.481
294.318
298.707
288.436
283.15
283.142
283.15
291.34
291.612
283.15
283.15
292.658
283.15
296.163
297.926
300.886
295.6
286.691
283.15
283.15
283.15
295.388
283.156
295.507
294.703
289.673
283.15
295.691
300.952
296.728
283.15
303.15
292.585
295.696
283.155
294.7
283.15
283.15
283.15
283.15
290.625
283.15
283.15
283.15
292.924
283.15
295.191
283.15
295.378
290.845
283.15
293.603
283.15
283.15
292.25
283.15
283.15
295.097
295.177
283.15
283.15
295.48
283.15
283.15
296.655
296.183
283.15
297.936
283.15
290.219
283.15
293.501
283.15
283.15
296.019
289.147
296.423
295.422
290.37
299.986
292.907
296.168
290.442
296.779
295.667
293.659
283.15
283.15
283.15
283.15
283.15
303.15
290.175
289.368
283.15
283.15
292.522
283.15
283.15
299.291
283.15
283.15
291.719
283.15
283.15
283.163
283.15
300.856
286.353
287.365
291.696
283.15
292.239
283.15
283.15
283.15
283.15
283.15
291.718
295.917
283.15
283.15
283.15
284.191
288.496
283.15
294.621
283.15
283.15
303.15
283.15
293.609
283.15
283.15
291.211
283.15
283.15
283.15
303.15
287.15
291.366
283.193
283.15
283.15
292.017
283.15
291.376
290.505
283.15
283.15
294.588
293.428
291.657
294.159
293.51
291.593
283.15
283.15
283.15
303.15
283.411
283.15
283.15
290.631
283.15
295.834
283.15
292.075
285.209
291.459
289.29
295.575
288.855
285.131
302.028
294.376
284.865
283.15
294.247
293.219
296.88
283.15
300.5
291.97
301.26
283.15
297.62
283.15
283.368
283.15
283.15
283.15
293.899
295.039
292.926
283.15
292.608
283.15
283.15
292.158
283.15
283.15
283.15
283.15
283.15
283.15
299.356
293.962
283.15
283.15
283.15
290.007
283.15
284.595
284.459
283.15
291.644
283.15
283.15
283.194
283.196
289.773
283.15
283.15
283.15
283.15
283.15
283.15
290.945
283.15
302.663
290.508
283.15
296.799
283.15
285.565
283.15
298.649
303.387
296.196
283.15
283.15
283.15
298.424
283.15
290.078
283.15
283.15
286.381
285.95
283.15
283.15
283.15
283.15
283.15
283.15
283.15
283.15
293.552
293.061
294.72
290.347
283.15
283.15
292.249
289.038
283.15
283.15
283.15
283.15
283.15
283.15
283.15
283.15
283.15
303.15
303.15
283.15
292.022
295.679
283.546
283.15
283.15
296.999
283.15
291.953
283.15
283.15
291.22
290.799
283.15
290.856
283.15
283.15
283.15
295.395
295.464
283.15
283.151
283.151
283.15
283.15
303.243
283.15
303.15
283.15
283.15
283.15
296.085
283.15
283.15
283.15
283.15
291.16
283.15
283.151
283.15
303.15
282.891
283.15
301.981
284.044
303.15
283.15
300.874
294.267
283.15
291.749
283.17
283.15
283.15
303.15
303.15
283.15
283.15
296.676
283.15
295.553
283.294
284.868
293.892
283.15
296.773
283.15
283.15
300.788
303.15
303.15
297.787
283.664
294.85
294.721
283.15
283.15
300.976
292.017
283.15
283.479
291.806
303.15
283.15
283.15
283.15
288.359
283.15
300.84
283.15
283.15
283.15
294.435
288.398
283.15
283.15
288.206
283.15
283.15
296.681
301.949
302.712
293.559
295.793
283.15
289.45
288.085
288.577
300.577
283.15
283.15
291.823
290.473
290.347
290.52
291.803
290.479
283.15
303.15
297.113
283.15
283.15
288.308
291.549
297.951
283.146
283.15
283.671
283.15
283.15
283.15
283.15
283.15
283.15
292.181
294.945
303.15
295.683
284.938
292.883
297.802
298.037
283.15
291.894
283.15
298.077
283.15
296.164
283.15
283.15
298.682
283.15
294.559
298.114
294.138
296.559
293.849
283.15
283.15
297.009
283.15
283.15
291.935
283.15
283.15
283.15
283.15
291.936
291.516
289.683
283.15
295.878
292.07
283.15
283.164
283.15
283.15
299.655
289.728
294.087
286.317
289.685
290.736
292.065
293.86
283.15
283.15
289.77
283.15
283.15
283.15
283.15
290.851
283.15
296.818
283.15
296.331
293.953
295.97
297.509
295.566
287.429
297.25
294.015
295.376
283.15
283.15
297.509
283.15
283.15
283.15
283.15
290.561
288.577
283.15
283.15
283.15
283.15
290.11
283.16
283.15
283.15
283.15
283.15
283.181
283.15
283.15
283.15
295.596
298.737
283.15
302.766
301.084
303.15
283.15
283.15
283.15
295.41
283.203
295.14
283.15
283.15
283.15
302.512
283.15
298.123
290.022
294.395
292.771
300.302
283.15
288.352
300.868
287.189
290.684
290.3
283.15
283.116
283.15
289.934
282.402
293.562
283.15
283.15
296.773
283.15
284.915
291.406
302.406
283.15
283.15
297.405
303.181
283.15
283.15
294.832
290.939
283.15
283.15
283.15
284.321
283.15
284.97
283.163
283.15
283.16
283.386
283.15
283.15
283.15
283.15
300.294
283.15
283.15
283.15
294.647
300.453
290.229
283.15
283.15
298.924
283.15
283.15
283.15
283.222
283.15
297.211
283.15
285.066
297.045
283.144
291.987
283.165
298.596
283.15
283.183
290.658
283.15
283.15
283.149
283.16
293.213
282.638
291.896
283.15
292.419
303.151
291.855
283.15
293.636
286.009
283.158
283.154
283.152
297.335
286.001
283.743
283.381
284.42
283.288
283.15
283.15
293.796
283.532
284.346
293.854
283.15
289.458
297.391
287.155
283.328
285.298
283.15
295.709
283.15
296.339
283.15
283.15
293.342
296.754
292.711
303.15
287.449
294.975
285.611
293.847
285.811
283.15
296.631
287.972
293.032
303.15
286.261
283.15
288.231
285.271
285.173
290.771
285.466
288.557
291.899
294.503
295.587
283.15
289.249
283.196
283.15
290.485
283.205
286.231
287.417
283.206
288.532
299.558
288.964
288.38
287.414
286.494
286.463
302.407
283.15
295.185
292.966
283.15
294.824
291.006
291.247
283.15
283.15
295.857
283.15
292.505
286.705
283.15
283.15
283.15
302.587
296.431
286.902
293.385
283.15
294.451
283.15
303.101
283.15
287.395
283.15
283.15
292.481
292.758
283.15
283.15
284.08
299.072
283.15
283.15
283.151
292.933
289.989
293.93
300.072
286.72
299.603
287.205
299.155
299.184
302.341
302.084
299.49
299.693
299.54
289.061
293.3
283.153
283.413
292.836
288.848
293.566
292.524
290.593
291.711
285.597
291.248
283.15
290.647
289.985
283.15
284.1
301.037
283.15
299.974
301.472
289.117
283.15
283.15
283.15
290.277
299.044
290.772
283.15
283.15
283.15
283.15
283.15
283.15
284.547
283.15
283.15
283.15
290.847
283.15
290.85
283.15
283.15
283.15
283.15
292.128
297.391
283.15
291.723
283.15
283.15
283.15
295.922
283.15
283.15
283.15
283.15
283.15
290.961
283.15
283.15
283.15
301.895
302.257
283.176
283.15
301.127
304.618
283.15
302.214
302.158
283.15
283.15
283.15
283.15
302.351
293.542
283.15
283.15
302.349
283.15
283.15
283.15
283.15
283.15
283.15
283.15
303.081
283.15
296.168
283.15
283.15
283.15
283.15
283.15
283.15
290.506
283.15
291.941
283.15
283.15
283.151
283.15
299.247
283.15
283.15
283.15
287.054
301.439
283.15
301.091
291.195
300.508
283.15
301.53
283.15
298.681
283.15
290.92
290.446
296.678
298.688
297.845
294.201
283.15
293.563
300.207
283.15
291.799
298.929
283.15
283.151
283.15
284.222
299.024
287.912
299.039
291.658
283.188
283.15
295.765
283.15
283.15
283.15
296.741
289.165
295.188
283.15
297.32
283.15
283.15
298.134
297.056
291.266
291.811
297.13
290.319
287.454
297.549
298.819
303.15
283.15
285.563
283.15
304.281
291.265
287.618
296.083
283.15
296.477
283.15
283.15
294.763
297.509
283.15
292.298
283.15
283.15
292.234
283.15
283.152
301.828
283.15
296.491
286.156
297.302
283.15
283.15
283.15
301.926
283.15
295.022
294.917
288.687
295.61
300.128
283.15
283.15
283.15
283.15
299.361
296.607
283.15
283.15
290.736
283.15
294.54
283.156
303.144
295.582
295.69
290.644
299.164
290.29
293.484
303.15
293.358
283.15
283.15
283.15
286.953
294.896
292.368
283.678
283.15
291.09
283.15
283.15
287.956
283.15
294.349
291.284
292.801
289.742
283.15
298.282
295.802
300.58
291.774
283.15
293.028
294.06
284.598
296.421
297.131
292.192
296.644
293.737
296.628
297.122
300.245
294.568
293.137
290.557
283.15
283.15
303.108
303.15
283.15
295.382
290.317
283.15
283.15
303.15
303.15
293.949
294.4
283.15
294.982
294.631
287.265
294.487
294.216
294.336
294.52
295.844
289.75
283.23
283.15
298.631
283.15
293.977
293.043
283.15
302.505
290.591
283.15
283.15
294.038
283.15
283.15
283.15
292.348
283.15
293.994
291.639
283.15
302.703
283.15
283.15
298.269
295.648
303.15
288.105
297.619
300.901
283.15
283.15
295.844
296.001
293.488
283.154
283.15
294.75
292.659
283.15
291.225
296.361
292.347
293.724
297.254
293.382
297.035
293.153
292.413
283.15
283.15
283.15
283.15
295.573
295.032
293.182
300.818
295.228
283.15
283.15
283.15
293.366
292.39
283.15
283.318
289.49
283.15
283.15
303.15
283.15
293.55
294.254
294.52
283.15
283.15
302.433
295.148
297.406
289.861
289.761
283.15
283.15
283.15
283.15
294.146
290.408
283.15
293.022
293.012
292.705
292.749
283.15
293.021
283.15
294.269
295.594
285.18
291.72
283.15
283.157
283.154
283.15
295.972
295.659
295.901
295.664
294.998
295.658
287.16
295.379
295.331
290.233
292.113
291.507
295.208
283.15
294.779
283.15
302.967
294.66
295.678
296.862
285.485
295.17
290.262
285.43
283.15
290.284
293.758
283.15
282.849
283.15
294.99
283.15
292.902
300.07
297.292
283.146
297.863
283.15
300.966
290.297
293.525
283.15
293.564
301.323
296.122
283.15
291.782
294.542
293.156
283.15
283.323
283.15
293.592
293.07
295.583
292.576
283.15
283.15
283.15
293.663
291.948
294.992
292.782
290.915
283.15
283.15
291.119
283.15
290.436
289.493
292.986
296.962
283.15
297.623
286.678
283.15
299.376
290.226
283.15
303.201
283.15
283.15
283.15
283.671
283.15
283.15
289.776
283.15
283.15
283.151
292.619
290.823
291.372
287.294
290.087
297.476
295.796
283.15
297.284
283.602
283.15
288.683
303.15
297.598
283.15
292.288
283.593
293.923
286.668
283.151
283.15
298.145
290.163
303.15
290.135
289.596
287.53
289.976
289.547
291.99
286.328
303.15
283.15
289.703
286.594
283.15
283.15
283.15
283.15
289.996
296.716
283.15
283.15
292.804
283.15
283.15
301.588
283.15
288.683
283.15
293.499
296.617
292.575
292.91
283.15
300.899
283.15
283.15
283.21
283.15
283.15
286.245
295.42
293.765
295.902
283.15
283.15
283.15
302.451
283.15
283.15
295.441
303.114
283.15
294.44
283.15
293.821
296.743
289.414
283.15
283.15
283.15
295.698
283.15
293.875
295.701
283.183
296.604
283.15
283.15
283.15
283.15
303.15
283.15
283.15
283.15
283.15
283.151
283.15
283.15
283.15
287.478
283.186
283.15
283.151
283.15
293.66
290.31
283.151
283.15
293.454
283.15
283.15
283.15
283.15
283.15
283.15
283.15
283.151
283.15
283.15
293.118
283.15
292.387
298.825
290.61
283.15
296.531
283.15
283.15
296.886
297.075
296.904
283.15
283.15
283.15
283.703
283.15
283.15
297.214
287.571
301.62
283.15
283.15
292.655
285.805
283.15
283.15
283.15
283.15
283.15
283.15
293.596
287.045
294.34
288.496
295.179
283.15
291.965
283.15
283.15
283.15
283.15
283.15
283.15
290.044
296.741
283.15
283.15
283.15
293.007
283.15
290.989
296.136
283.156
291.736
283.15
283.15
283.15
291.627
290.994
286.737
287.811
288.536
291.265
291.32
297.691
283.15
283.15
285.176
300.989
285.012
295.94
285.031
285.041
284.923
287.758
283.15
290.689
284.494
296.453
283.15
283.15
283.653
284.046
297.484
285.009
283.15
284.684
295.808
296.934
289.187
283.191
293.92
300.249
293.382
301.697
294.022
283.15
283.15
288.385
283.15
283.295
288.899
283.15
284.099
288.79
293.632
291.027
283.258
283.15
283.15
283.15
283.15
283.15
283.15
283.15
283.72
283.15
283.15
283.15
283.15
284.775
283.15
283.15
283.15
283.245
283.274
283.15
283.15
283.15
293.737
284.101
283.15
301.233
283.571
283.15
288.407
283.15
283.15
288.447
283.15
283.15
293.868
283.15
283.15
283.15
283.15
283.15
283.265
283.15
283.15
283.15
283.15
286.956
283.15
283.15
283.251
283.15
283.15
293.967
283.15
286.585
283.15
283.15
283.15
283.15
293.238
283.15
293.171
293.21
283.15
287.002
283.15
283.15
294.581
283.15
294.019
283.15
290.916
283.15
290.613
283.15
283.15
292.174
293.933
283.92
294.205
283.15
302.49
283.15
295.199
297.192
283.15
295.384
283.15
283.15
283.15
283.15
283.15
295.683
283.15
291.758
296.681
283.15
290.914
298.885
292.075
291.784
290.552
290.806
283.151
283.15
283.15
283.15
283.15
283.15
283.15
283.15
283.15
283.15
283.15
283.15
283.15
283.15
283.15
283.15
283.15
283.15
283.15
283.176
283.15
283.15
283.15
292.426
283.15
283.15
283.15
283.15
295.013
283.15
283.15
294.619
293.378
283.15
283.15
283.15
283.15
283.15
283.15
283.15
284.895
283.15
283.15
283.15
283.15
283.728
283.15
283.15
283.215
284.929
283.15
283.15
283.15
283.749
283.15
283.15
283.15
284.992
290.097
283.15
283.15
283.15
283.239
283.15
283.155
283.15
283.15
283.15
283.15
283.15
283.15
285.297
283.15
289.572
285.501
285.342
290.979
283.15
283.15
283.15
292.567
294.01
293.131
283.15
290.265
283.15
283.15
283.15
283.15
292.909
293.4
283.15
294.281
293.889
283.15
283.15
292.879
283.15
283.161
283.15
283.15
283.15
294.352
283.15
283.15
283.15
283.15
283.15
283.15
283.15
290.619
292.672
283.15
289.994
283.15
283.15
283.15
283.15
288.736
283.15
289.236
301.693
295.53
289.024
283.15
283.15
296.054
283.15
285.854
290.267
283.15
289.021
283.15
287.407
283.15
296.324
288.94
303.15
283.15
283.15
283.187
288.741
295.595
291.085
283.15
290.775
290.93
300.426
283.21
290.804
295.172
283.15
283.15
283.15
290.599
294.357
283.15
283.172
283.15
283.825
283.15
289.67
283.68
292.059
283.15
284.928
289.141
283.926
283.15
284.14
283.15
283.15
283.15
283.15
285.766
287.997
283.15
293.68
283.15
283.15
303.15
283.15
283.15
296.847
303.15
288.245
283.15
286.94
283.15
290.417
291.748
283.15
288.963
283.15
283.15
285.25
295.329
283.15
283.15
291.255
283.15
283.15
293.55
294.195
283.15
283.273
283.15
291.71
299.045
292.569
290.042
283.15
293.208
283.15
283.15
286.515
283.15
283.15
283.15
303.15
283.15
283.15
283.195
283.15
283.15
283.15
291.235
283.15
283.15
283.15
283.15
283.15
294.736
283.15
283.15
283.15
283.15
291.786
283.15
286.473
283.15
283.15
283.918
283.15
292.06
283.15
283.15
283.15
283.15
283.15
283.15
283.15
291.514
283.15
283.15
288.342
298.839
283.15
283.15
283.15
283.15
283.15
283.15
283.15
295.018
283.15
283.15
283.15
283.15
283.15
283.15
283.15
283.15
283.15
289.492
283.15
283.15
283.15
283.15
283.15
283.15
283.15
294.025
283.15
302.572
292.001
283.15
283.15
292.08
283.15
283.15
283.15
283.15
283.154
294.119
294.114
283.15
283.157
283.15
283.15
283.15
283.15
283.15
283.15
294.033
283.15
283.15
283.15
294.74
283.156
283.15
283.15
290.497
290.56
287.246
283.15
283.164
290.916
283.15
283.15
283.15
296.214
283.15
292.067
287.647
283.15
283.15
283.15
295.066
293.528
283.15
283.15
283.15
283.15
283.15
283.15
295.669
283.15
283.15
283.15
287.471
294.858
295.611
283.15
283.15
295.666
283.15
283.15
295.02
287.514
283.151
284.779
293.52
288.95
294.21
294.223
294.994
283.15
293.771
291.801
283.15
295.984
284.973
283.804
296.327
283.37
283.15
293.426
283.15
294.585
283.15
295.057
289.501
295.534
290.579
295.278
283.15
283.15
283.15
295.581
283.15
295.346
302.649
295.32
295.14
283.15
291.588
293.689
293.583
294.928
302.756
283.154
302.965
302.572
297.016
290.286
283.15
296.286
295.068
290.562
290.321
286.761
303.15
290.976
295.16
283.15
283.15
290.29
283.15
283.15
295.639
283.15
303.15
283.15
283.15