/*--------------------------------*- C++ -*----------------------------------*\
  =========                 |
  \\      /  F ield         | OpenFOAM: The Open Source CFD Toolbox
   \\    /   O peration     | Website:  https://openfoam.org
    \\  /    A nd           | Version:  10
     \\/     M anipulation  |
\*---------------------------------------------------------------------------*/
FoamFile
{
    format      ascii;
    class       volVectorField;
    location    "37";
    object      U;
}
// * * * * * * * * * * * * * * * * * * * * * * * * * * * * * * * * * * * * * //

dimensions      [0 1 -1 0 0 0 0];

internalField   nonuniform List<vector> 
59698
(
(0.584689 0.00603088 -0.00174928)
(0.56464 -0.00114969 -0.000860967)
(0.566396 -0.000686044 0.00169884)
(0.578744 -0.00343009 -0.00125993)
(0.562908 0.000719526 -0.00289498)
(0.197726 0.198051 -0.00634846)
(0.566923 0.000234628 0.00040624)
(0.563993 0.000849747 -0.00029232)
(0.199879 -0.199527 -0.000424721)
(0.201227 -0.200787 -1.72093e-05)
(0.200369 -0.198722 -0.000624897)
(0.566984 -0.000283299 -0.000397938)
(0.199805 0.200486 -0.000571276)
(0.561667 -0.000771149 -0.000176303)
(0.561984 0.00105871 -0.00253031)
(0.203972 -0.197102 0.00182856)
(0.56469 0.000138003 0.000166328)
(0.566128 -0.00125266 0.000391245)
(0.567565 -0.000538645 0.000313709)
(0.567343 -0.000375898 -7.99023e-05)
(0.142919 -0.100084 -0.025014)
(0.536043 -0.00147916 -0.00272356)
(0.265177 -0.172797 -0.00749603)
(0.198823 -0.199921 -0.00136797)
(0.570288 0.000498116 0.00111267)
(0.566281 -0.00114793 0.000439191)
(0.5664 -0.000351055 -0.000422603)
(0.557259 -0.000206277 -0.00120372)
(0.570229 0.00135695 0.000927213)
(0.572436 -0.000448598 0.000447445)
(0.548145 -0.000340312 -0.000406632)
(0.198521 -0.198564 -0.000181783)
(0.201159 -0.197939 0.00229486)
(0.559774 0.00124999 -0.000861495)
(0.54914 0.0114403 -0.00749891)
(0.56675 -0.000893721 -0.000389037)
(0.275037 0.0659618 -0.0384597)
(0.539371 0.000745305 0.000201671)
(0.561732 0.000130428 0.000574591)
(0.568198 0.00154734 -0.00278434)
(0.563915 0.000433599 -0.000111429)
(0.1949 0.197809 -0.00173748)
(0.562409 0.00059338 -0.000619031)
(0.563691 0.000443135 0.000102924)
(0.196728 0.199572 -0.000252671)
(0.560927 0.00367649 0.00514216)
(0.567013 -0.000875497 0.000373879)
(0.561592 -0.000322531 0.00148227)
(0.56294 0.000332617 0.000874632)
(0.565432 -0.000672914 0.000218674)
(0.567924 0.000160834 -0.000168638)
(0.566868 -0.000878648 0.000349771)
(0.566403 -9.83642e-05 -0.000785551)
(0.560441 -0.000176535 0.000447682)
(0.572377 0.00284417 0.00101339)
(0.567364 -0.000508299 -0.0001359)
(0.562771 -0.000992572 0.000604585)
(0.524727 -0.00189093 -0.000235136)
(0.564647 -0.000788362 -0.000391389)
(0.268368 0.12144 -0.0193542)
(0.55916 0.00459804 -0.00252934)
(0.564632 0.00134877 0.00052766)
(0.577847 0.0147484 0.00651215)
(0.567513 -0.000583284 0.000388743)
(0.561881 0.000223606 0.00073284)
(0.561399 0.000194381 0.00205512)
(0.199519 -0.199945 -1.33201e-05)
(0.567111 -0.000534535 -0.000622319)
(0.566962 -0.000441576 -0.000624672)
(0.199516 -0.19921 -7.80886e-05)
(0.209528 0.18281 -0.00795116)
(0.565298 -0.000732706 1.87925e-05)
(0.166419 0.118592 -0.0344449)
(0.59394 -0.0104226 0.0192771)
(0.202915 0.20354 -0.00037005)
(0.589723 -0.0251913 0.020413)
(0.561137 0.000239 0.000987928)
(0.561047 0.000235369 -0.00162788)
(0.56686 0.000817938 -0.000635238)
(0.571449 0.00154239 0.000120762)
(0.552703 -0.00186756 3.47644e-06)
(0.567921 0.000240762 -0.00012064)
(0.20125 -0.200755 -6.42365e-05)
(0.565164 -0.00071615 0.000600956)
(0.399961 -0.103801 0.015253)
(0.562801 0.000184295 -9.8787e-05)
(0.563162 -0.00122234 0.00161242)
(0.557735 0.000484204 0.00715245)
(0.562068 0.00126831 0.000996398)
(0.560638 -0.000137947 0.00161289)
(0.199535 -0.199174 -0.000163581)
(0.560434 0.000895308 0.000571171)
(0.560678 -0.000346625 0.00167826)
(0.565866 -0.000342382 0.000421674)
(0.561608 0.00116612 0.00099666)
(0.563452 -0.00368046 0.00131768)
(0.558698 0.000594546 0.00127919)
(0.56223 0.000478959 0.000549334)
(0.55934 0.000557073 0.00127659)
(0.199679 0.200038 -3.42789e-06)
(0.556508 0.00144159 0.000867213)
(0.567533 0.00518079 0.00627645)
(0.563082 -3.68608e-05 0.000170133)
(0.563095 -0.00167833 -0.00444598)
(0.567103 -0.000588435 0.000849818)
(0.198837 0.198575 0.000131295)
(0.5655 -0.000996794 0.000595301)
(0.567226 -0.000357273 -0.000413585)
(0.200744 -0.200892 -6.60474e-05)
(0.199793 0.199689 -0.000370719)
(0.566299 -0.000781691 -0.000357427)
(0.570475 -0.0104399 -8.46694e-05)
(0.561774 0.00139834 0.00158794)
(0.200897 0.198779 -0.000337833)
(0.561012 -0.000190237 0.000282116)
(0.567381 -3.28582e-05 0.000153871)
(0.567074 0.00133662 -0.0013589)
(0.565084 0.00305528 0.000754087)
(0.563592 -0.000866077 0.0020889)
(0.200894 -0.200447 0.000440498)
(0.565579 -7.46763e-05 -1.99749e-05)
(0.558237 -0.00637546 -0.00375527)
(0.563051 -0.00505061 0.00580965)
(0.56448 -7.30439e-05 0.000131487)
(0.56402 0.000120502 0.000205028)
(0.565986 -0.00031897 -0.000126572)
(0.565951 -9.00334e-05 -0.000518536)
(0.199563 -0.199512 0.000486584)
(0.561995 -0.000624119 -0.000186058)
(0.56749 0.000315207 -0.00199619)
(0.567297 0.000379892 0.000593689)
(0.567171 -0.000182921 -0.00107919)
(0.201402 -0.200546 -1.40533e-05)
(0.579341 0.00691644 0.000488024)
(0.572751 -9.56055e-05 0.00016046)
(0.568495 -0.000183538 -0.000183296)
(0.569756 0.00383175 -0.00109226)
(0.201045 -0.200694 0.000305025)
(0.567365 -0.00033784 -0.000264611)
(0.568549 -2.13196e-05 -0.000375184)
(0.56536 -0.000261644 0.000882266)
(0.56271 0.00316991 -0.00101776)
(0.56608 -0.00084975 -0.000464054)
(0.567398 -0.000328983 -0.000306382)
(0.565991 0.00220368 -0.000456885)
(0.567435 -0.000276593 1.17859e-05)
(0.563598 -0.00395842 0.000302957)
(0.566452 -0.0037301 -0.000530884)
(0.562334 0.000372998 0.000915611)
(0.552241 -0.000224779 5.61917e-05)
(0.408596 0.144136 0.0731482)
(0.200199 -0.199654 0.000118981)
(0.562156 -0.000110583 5.67127e-05)
(0.556677 -0.00217624 -0.0037978)
(0.563128 -0.0002836 -0.000191523)
(0.560667 0.00019665 -0.000465201)
(0.566515 -0.00103539 -0.00026564)
(0.55887 -0.000961888 0.00306251)
(0.563531 -0.000299651 -0.000336554)
(0.199704 0.199542 -0.000115752)
(0.564907 9.27462e-05 0.000163161)
(0.562782 -0.000383209 0.000252513)
(0.567876 -0.000582771 -0.000252285)
(0.554686 0.00186058 -0.00110489)
(0.562797 -0.000550386 -0.000186184)
(0.56678 -6.43578e-05 -0.000223494)
(0.566994 -0.000191747 -0.000676618)
(0.412435 0.0871461 0.006371)
(0.554752 -0.000544628 -0.000365332)
(0.567034 -0.000130709 -0.000501878)
(0.559275 0.00177995 -0.00253346)
(0.211043 0.173759 0.000653676)
(0.553091 0.0013925 -0.00216255)
(0.552596 0.00128173 -0.00205945)
(0.578307 0.00139195 -0.00549815)
(0.562487 0.000261144 0.000355777)
(0.199574 -0.198905 0.000798454)
(0.538391 0.00494799 0.00304934)
(0.198958 -0.197824 -0.00579142)
(0.561911 0.000563302 -0.000459119)
(0.510469 -0.0019246 0.00521667)
(0.548314 -0.000549201 -0.000470648)
(0.562585 0.000360768 -0.000947179)
(0.565433 9.54389e-06 -0.000264997)
(0.564702 0.000621287 -0.000850571)
(0.543592 -0.00032464 -0.000323631)
(0.543475 5.0242e-05 -0.00085714)
(0.559699 0.0037492 0.00123982)
(0.566607 -5.49372e-05 0.000159821)
(0.563918 0.00151602 0.000720678)
(0.561571 0.000224549 0.00071663)
(0.562546 -0.000336374 0.000621017)
(0.562862 0.000572196 0.000520446)
(0.561914 -0.000341343 -0.000476828)
(0.55453 0.000256356 -0.000417065)
(0.557376 0.00327403 0.000808857)
(0.576609 0.0058232 -0.0136582)
(0.575741 0.00368436 -0.00216352)
(0.152134 -0.143995 -0.0194326)
(0.554168 -0.000546496 0.000132662)
(0.203034 0.205887 0.00271611)
(0.545945 0.000575923 0.00090385)
(0.573214 0.00029101 0.000277348)
(0.566601 -0.000341378 -0.000493859)
(0.55281 0.000937341 0.00115296)
(0.566779 0.000157469 0.000159958)
(0.563879 0.000362823 -0.000733356)
(0.557128 -0.00209092 0.00126172)
(0.55455 0.0114899 0.00046662)
(0.562271 0.000283906 -0.000164872)
(0.565867 0.000175677 0.000193222)
(0.564894 0.000203163 0.00045594)
(0.55474 0.000454667 0.0022397)
(0.199003 -0.197043 -0.00110234)
(0.565282 -0.000281501 -0.000195726)
(0.560077 0.000606228 -0.000127956)
(0.566195 -0.000766655 5.58174e-05)
(0.56099 -0.000617073 -0.00189132)
(0.561503 -0.0006855 -0.000146945)
(0.564915 0.000504477 -0.000591973)
(0.582132 0.0243668 0.0227489)
(0.563813 -0.000269504 0.000351146)
(0.564977 4.93282e-05 8.58696e-05)
(0.556951 0.000912793 0.00283805)
(0.565114 -0.000387513 -0.000243674)
(0.553635 0.0025821 0.00290611)
(0.564372 5.97158e-05 -8.17073e-05)
(0.566048 0.000581153 -0.000490959)
(0.577953 0.00276853 -0.000861374)
(0.593525 0.0123216 0.0096149)
(0.199024 0.198601 -0.000392072)
(0.563348 1.93834e-05 0.000447324)
(0.565718 0.00039778 8.39712e-05)
(0.564474 0.000129446 -0.000367631)
(0.563535 -0.000552153 0.000490736)
(0.567916 -0.00047854 -2.30713e-05)
(0.564981 0.001586 0.00150922)
(0.564075 0.000312292 0.000196518)
(0.558602 0.00137261 0.00348846)
(0.562147 -0.000909819 0.000484993)
(0.564768 -0.000224516 -7.97891e-05)
(0.563774 -0.00121249 -0.000491395)
(0.570482 6.24264e-05 -6.29678e-05)
(0.197427 -0.19788 0.00334431)
(0.566671 -0.000286759 -5.56129e-05)
(0.56414 0.000288147 0.00389947)
(0.58247 0.00528943 0.0161484)
(0.591504 -0.00705668 0.0131032)
(0.566263 3.42473e-05 0.000157751)
(0.566949 -0.000823616 0.000430677)
(0.561346 0.00108438 0.00401469)
(0.562558 -0.000461709 0.00043339)
(0.563385 0.00100922 0.000875098)
(0.198218 -0.193516 0.00312052)
(0.5665 -0.0013817 -8.55086e-05)
(0.563346 0.000347805 0.000425372)
(0.560524 0.00210761 0.000596763)
(0.561264 -0.000669146 0.000597391)
(0.565963 -0.00049383 -0.000128342)
(0.56496 -0.000165613 -3.19218e-05)
(0.200759 -0.109562 -0.00130339)
(0.200412 0.200052 0.000135468)
(0.563545 -0.000933585 0.000577135)
(0.55989 0.000582342 -0.00116672)
(0.558119 -0.00144291 0.00230581)
(0.586931 0.00746554 0.0024694)
(0.56534 5.66597e-05 -6.62953e-05)
(0.196924 -0.198419 -0.00162929)
(0.565533 -0.00116934 0.000408925)
(0.564888 -0.000180407 -0.000149727)
(0.566672 -0.000964777 -9.21587e-05)
(0.563139 -0.00122495 -0.00068879)
(0.545963 -0.118168 0.0772524)
(0.564748 -0.000122245 -0.000240622)
(0.564971 -0.000237789 8.17048e-05)
(0.557589 0.00037771 0.00141016)
(0.564886 -0.00164579 -0.00374152)
(0.56426 -0.000619575 0.00150081)
(0.570072 0.000274367 0.0001939)
(0.200812 -0.200142 0.000133308)
(0.195989 -0.195354 0.00168545)
(0.567455 5.48778e-06 -2.92254e-05)
(0.566974 -0.000900174 0.000497477)
(0.581547 0.0021376 0.0012913)
(0.587031 0.00642337 0.000906346)
(0.57792 -0.0012074 0.00144726)
(0.56605 -0.00029065 -0.000689115)
(0.29922 -0.213267 -0.0187858)
(0.574286 0.00145524 0.000550861)
(0.563428 0.002298 0.0030151)
(0.586193 0.0177575 0.000906238)
(0.567502 0.000350685 0.000314539)
(0.565349 -0.000871493 0.000552227)
(0.566977 -0.00101185 0.000175636)
(0.569818 -0.00107421 0.000843485)
(0.560552 -0.00149442 0.000712116)
(0.568308 -0.000251579 -0.000621116)
(0.568049 0.00157205 -0.000593389)
(0.565002 -1.4667e-05 -0.000148187)
(0.562966 0.00120971 0.00365162)
(0.566217 0.00163711 -6.246e-05)
(0.198722 0.198918 -0.000102846)
(0.195968 0.197806 0.0014991)
(0.566994 -0.000167196 -0.000419359)
(0.567208 -0.00048334 -0.000168731)
(0.567016 -0.000189762 -0.000280982)
(0.569087 0.000273024 -0.00144926)
(0.560484 -0.00112464 -0.000324649)
(0.562305 -0.00037776 0.000254425)
(0.567242 -0.000112293 -0.000235572)
(0.565184 7.08682e-05 0.000158274)
(0.563324 -0.00204089 0.000539573)
(0.565947 0.000314414 0.000161861)
(0.200736 0.200934 0.00131617)
(0.561432 -0.00327989 0.00170725)
(0.56694 0.000692885 -0.000103173)
(0.202035 0.202597 -0.000457759)
(0.566747 -0.000192055 0.000164979)
(0.195215 0.197028 -0.00207486)
(0.565288 0.00251509 -0.00205579)
(0.562555 0.00305879 -0.00307102)
(0.594657 -0.00980486 0.0184029)
(0.564576 -0.000532129 5.94904e-05)
(0.199743 -0.199395 0.000604755)
(0.600359 -0.013225 0.0187005)
(0.555733 -0.000174049 0.000665112)
(0.564257 4.13464e-06 -0.000364137)
(0.566702 -0.000312571 0.000438256)
(0.567176 0.00054694 -0.000199097)
(0.199172 0.199228 -0.000186433)
(0.548349 -0.000131372 -0.00206508)
(0.564062 -0.000933504 0.000320658)
(0.558924 0.000243356 -0.000677348)
(0.582558 -0.0107832 0.0168085)
(0.199616 -0.199995 -0.000182296)
(0.567464 0.000535203 0.000618193)
(0.562751 -0.000641305 0.000181554)
(0.566402 -5.87724e-05 0.000233628)
(0.557068 -0.00123673 -0.000442663)
(0.567953 0.000260747 -0.000132211)
(0.563848 0.00124969 0.00096544)
(0.566783 0.00258836 -0.00169274)
(0.564922 -0.000392649 0.000193126)
(0.56544 7.01752e-05 3.06086e-05)
(0.557789 0.000823491 -0.001172)
(0.56489 -0.000178475 -0.000133981)
(0.564368 0.000209737 -7.30661e-05)
(0.541008 0.0012847 -0.00110477)
(0.562829 6.79207e-05 -0.00022554)
(0.562777 0.000133403 0.000266935)
(0.567646 0.000158377 0.000118579)
(0.562034 -0.00101586 0.000620128)
(0.569831 -0.00323316 -0.000949173)
(0.199481 -0.199204 -0.000145967)
(0.590161 0.0029058 0.00637701)
(0.546889 0.000621097 -0.000829692)
(0.554113 0.00245712 -0.00691232)
(0.564769 -0.000157872 0.000132954)
(0.562156 0.000369423 0.000762316)
(0.199411 -0.199035 3.04807e-05)
(0.566519 0.00109565 -0.000553505)
(0.559272 -0.000210389 0.000649526)
(0.203242 -0.194649 0.000345099)
(0.565665 -5.66435e-05 0.000274763)
(0.199992 0.200041 -5.02925e-05)
(0.196477 0.201287 0.00051938)
(0.563195 -6.4992e-05 9.01399e-05)
(0.564626 -0.000681742 0.00119015)
(0.564518 -0.000410705 0.000178527)
(0.49102 -0.00575146 0.00283657)
(0.567832 0.000248355 0.000291142)
(0.19799 0.198557 0.000298349)
(0.566001 0.000185227 -0.00032592)
(0.197307 0.199023 0.00130084)
(0.562904 9.61392e-05 -0.000553886)
(0.200085 -0.200252 -1.45387e-05)
(0.564343 -0.000394992 0.000388951)
(0.565279 0.000222885 5.66849e-06)
(0.198908 0.198354 -8.97916e-06)
(0.199021 -0.199212 0.000129387)
(0.201361 0.198084 -0.003384)
(0.56308 -6.81121e-05 -0.000272424)
(0.565763 0.00134656 0.000400505)
(0.560206 0.00076801 -0.000373875)
(0.566735 -0.000265303 -3.66156e-07)
(0.277642 0.142126 -0.0051554)
(0.563377 -0.000393523 0.000962336)
(0.199301 0.199499 3.07447e-05)
(0.199581 0.200007 -5.35434e-05)
(0.564868 0.00258497 0.000942406)
(0.560123 -0.000561373 0.00013882)
(0.199361 -0.196652 0.000734837)
(0.563771 0.000316008 0.00116704)
(0.574305 0.000299572 2.68582e-06)
(0.379545 -0.147377 0.0156367)
(0.526838 -0.00158666 -0.000321169)
(0.551664 0.0163581 -0.0118856)
(0.562443 0.00263551 0.00162935)
(0.561067 -0.000249522 -0.0025014)
(0.563534 -0.00168235 0.00131215)
(0.562485 0.000484668 -0.00050893)
(0.563751 0.000124568 -0.000178212)
(0.565025 -1.11068e-05 -0.000431536)
(0.56469 -0.000535005 -0.000541984)
(0.553197 -0.00289357 -0.00061982)
(0.560748 0.0044837 0.000742739)
(0.575909 0.00416821 -0.0028267)
(0.581587 0.00295796 -0.000778316)
(0.564367 0.00035793 -0.00136185)
(0.530693 0.000392903 -0.00296323)
(0.571568 0.00234237 -0.00161439)
(0.198921 -0.199129 1.59974e-06)
(0.560207 0.000618365 -0.00129918)
(0.199602 -0.199555 0.000197208)
(0.561402 -4.99597e-05 0.000226667)
(0.584021 0.00165199 0.00227429)
(0.567111 1.18249e-05 -0.000121343)
(0.567538 -0.0274837 0.0128441)
(0.532882 -0.00250561 0.000846616)
(0.535111 0.000169267 -0.00641681)
(0.561616 -0.000523484 0.000207093)
(0.562998 -0.000258144 0.000703861)
(0.563946 0.00123327 0.00238146)
(0.587809 0.0133661 0.0120191)
(0.563683 -3.40702e-05 8.22947e-05)
(0.564009 -0.000241264 0.000163587)
(0.199998 -0.199861 0.000342252)
(0.561573 -9.69629e-05 -0.00022725)
(0.558155 -0.00162382 1.07071e-05)
(0.199438 0.199208 -3.89904e-05)
(0.564302 -0.00147051 0.000765678)
(0.575322 0.0180039 0.00854012)
(0.572351 -0.0047173 0.00680247)
(0.565002 7.89958e-05 -0.00135439)
(0.561274 -0.000247637 0.00149076)
(0.200471 -0.200416 -0.000939725)
(0.205316 -0.202252 0.000310042)
(0.57479 0.00463572 -0.00103154)
(0.56584 -0.000372551 -0.000497191)
(0.563245 -0.00102772 -0.00402382)
(0.202961 0.200382 -0.00178362)
(0.565065 -0.000604792 -0.000395096)
(0.200614 -0.199901 0.00029816)
(0.562076 -0.000446569 -0.000174449)
(0.563767 -0.000802929 -0.00100786)
(0.516543 -0.00740221 -0.00329563)
(0.580702 -0.00168797 0.00290686)
(0.200022 0.19974 -4.24475e-05)
(0.565456 -0.00103715 0.000611851)
(0.554071 -0.000109537 0.00030715)
(0.562428 -8.65683e-05 -0.00191302)
(0.56614 -0.00068861 -0.000183195)
(0.563934 0.00101564 -0.000963944)
(0.56516 -0.00124343 -0.000160751)
(0.562675 0.00166036 9.81496e-05)
(0.562359 0.000224494 -1.88975e-06)
(0.580695 0.0013336 0.00229557)
(0.199644 -0.199554 0.000248996)
(0.547023 0.000409775 -0.000337207)
(0.561621 -0.000217888 0.00109405)
(0.577649 -0.00120585 0.00145807)
(0.564669 -0.000140255 -7.46208e-05)
(0.555177 -0.00158188 0.00151429)
(0.576993 8.98665e-05 0.000617268)
(0.200504 -0.199437 -0.000179379)
(0.560194 0.0051366 0.00195226)
(0.559698 0.00733955 0.00687836)
(0.567509 -0.000219117 -0.000146586)
(0.563809 0.000649632 -0.000633952)
(0.565743 0.000158157 3.5866e-06)
(0.56057 -0.00508053 -5.70784e-05)
(0.198389 0.198595 -0.000304458)
(0.199874 0.199798 3.11009e-06)
(0.198961 0.199804 2.50899e-05)
(0.563779 0.00215269 0.00285573)
(0.554091 -0.00311553 -0.00800867)
(0.504336 -0.00179877 0.000904004)
(0.577119 0.000977798 0.000559441)
(0.566687 -0.00295614 0.00095918)
(0.562929 -0.000508751 0.000679847)
(0.563181 0.000708291 -4.2503e-05)
(0.560062 0.000135422 0.000577963)
(0.563578 -0.000171867 0.000186459)
(0.202955 0.198892 -0.00034425)
(0.555895 -0.00676471 5.43954e-05)
(0.562595 -0.000559668 -0.000107767)
(0.5602 0.000894009 0.00130014)
(0.562677 -0.000550352 0.000556788)
(0.571974 0.000469466 0.00048355)
(0.567418 0.000774885 9.76684e-05)
(0.560625 0.000733868 -0.000902821)
(0.590325 -0.00144922 0.00684497)
(0.57414 0.000888466 0.000250213)
(0.560043 -0.000553118 -0.00130281)
(0.571356 0.000363333 -0.000105822)
(0.559831 0.000806929 0.00145989)
(0.562208 -1.67646e-05 -0.000151452)
(0.55626 0.00348625 0.00266493)
(0.566578 -0.000224357 -0.000476354)
(0.197299 0.196543 0.000418622)
(0.198799 0.198748 -9.84734e-05)
(0.573644 -0.00181859 0.000793888)
(0.557053 0.000341147 0.000319436)
(0.566085 7.64724e-05 0.000485026)
(0.199187 0.200507 0.000238518)
(0.20001 -0.199959 -0.000256098)
(0.562855 -0.000757054 -0.000132162)
(0.200482 -0.200704 -9.19942e-06)
(0.564089 0.000287252 -4.11692e-06)
(0.56729 -2.54016e-05 -2.83011e-05)
(0.565729 -0.000246034 0.000109651)
(0.570643 0.000195596 0.000267698)
(0.560982 -0.00410333 -0.00135413)
(0.197936 0.200093 0.00148547)
(0.568062 -0.00071767 5.28643e-05)
(0.564753 -0.000192759 -1.28454e-05)
(0.198155 0.198359 0.000184573)
(0.563521 0.000324324 0.000489275)
(0.198279 0.2002 0.000328784)
(0.197313 0.196194 9.56982e-05)
(0.566832 0.000221203 -0.00050643)
(0.567468 0.000662633 -0.000130243)
(0.564253 -5.85475e-05 4.89285e-05)
(0.199173 0.198924 -0.000635877)
(0.199054 0.199095 0.000119898)
(0.486581 -0.000402184 -0.000867996)
(0.565741 -0.000497014 0.000991639)
(0.566064 8.61015e-05 -0.000240953)
(0.567089 -0.000414407 -0.000370029)
(0.564114 0.000501452 -0.000738532)
(0.565901 0.000240312 -0.000461857)
(0.563315 0.0205278 -0.0143774)
(0.199761 -0.200313 -0.000235296)
(0.564298 -0.0004924 -4.47252e-05)
(0.56093 2.44487e-05 0.000185164)
(0.199429 0.199453 -4.04003e-05)
(0.200328 0.19868 -0.000271684)
(0.557002 -0.000216814 0.000170953)
(0.563786 -0.000378931 2.03103e-05)
(0.198437 -0.198836 0.000601543)
(0.566662 -0.000292249 -0.000101915)
(0.564937 0.000187184 -0.00014014)
(0.564965 -2.68926e-05 -0.00106292)
(0.590607 0.0429422 -0.0159768)
(0.563169 0.000475943 8.95883e-05)
(0.568914 -0.000419861 -2.69323e-05)
(0.559228 0.0242026 -0.00302211)
(0.637608 0.129739 -0.0577656)
(0.566475 1.35427e-05 0.000121351)
(0.255731 0.160055 -0.00746494)
(0.561756 0.000572032 -0.00014416)
(0.200367 -0.199998 -6.67717e-06)
(0.558206 9.56238e-05 0.000977224)
(0.199713 -0.19953 0.000633286)
(0.565347 0.000132961 -0.000487019)
(0.563729 0.000443896 -0.000431321)
(0.199494 0.200298 -0.000233418)
(0.560795 0.000597818 0.00071486)
(0.565815 -0.000616728 -0.000275711)
(0.568217 -0.000302121 -0.000268121)
(0.199419 0.199113 4.96503e-05)
(0.198756 -0.199014 -0.00022998)
(0.561727 -0.000554044 0.000780219)
(0.163023 0.115943 0.0438887)
(0.567014 -0.00121383 -0.000645453)
(0.200421 -0.199736 0.000193764)
(0.582352 -0.000876179 0.00734333)
(0.5618 0.000468278 -0.000118863)
(0.567173 9.10969e-05 -0.00029214)
(0.200404 -0.198004 -0.00141025)
(0.568142 -0.00029956 -0.000172449)
(0.565578 -0.000980971 0.000587445)
(0.207161 0.196081 -0.00115004)
(0.568363 0.000181469 -0.000722016)
(0.566332 0.000270626 -0.00121806)
(0.567652 0.000312127 7.09996e-05)
(0.566522 -0.000304955 -9.71607e-05)
(0.568044 -6.09257e-05 -0.000195734)
(0.566136 -0.000430489 -0.000484751)
(0.200167 -0.200659 -0.000272317)
(0.19247 0.193548 0.000609734)
(0.560574 0.000418839 0.000987057)
(0.565426 0.000883831 0.00226935)
(0.564757 -7.43819e-05 -0.000369689)
(0.568092 0.00010194 -0.000357496)
(0.199522 0.199448 2.34525e-05)
(0.566051 -0.000206023 -3.94183e-05)
(0.565391 0.000120142 -0.0010061)
(0.570959 -0.000264566 0.000421209)
(0.566697 0.000209677 -0.000269631)
(0.568429 -4.69244e-05 -0.000361286)
(0.560427 0.000814929 0.000751929)
(0.565375 0.000514413 -0.00110336)
(0.56507 0.000513003 -0.000802491)
(0.198827 0.198662 -0.000341932)
(0.558734 0.000474429 -0.000122704)
(0.227799 -0.191984 -0.00760044)
(0.553887 -0.00347129 0.000669933)
(0.196659 0.191303 -0.00190576)
(0.198299 0.198717 -4.89667e-05)
(0.565704 -2.47734e-05 0.000146395)
(0.564794 1.05791e-05 0.00023468)
(0.199255 0.198912 -5.35529e-05)
(0.555977 -0.000491601 0.000471948)
(0.565473 -0.000622151 4.88565e-05)
(0.566329 -0.000478866 -0.000121213)
(0.566284 2.75704e-05 -0.00053015)
(0.199196 0.198413 0.000748986)
(0.564925 0.00027998 6.93711e-05)
(0.560099 -4.77978e-05 0.000668531)
(0.560664 6.0433e-05 0.000587151)
(0.567145 0.000207287 -0.00030979)
(0.562516 3.68021e-05 0.000405044)
(0.567018 -0.000104501 -0.000371996)
(0.565603 3.74656e-06 -0.000121811)
(0.565826 0.000167098 -0.000117339)
(0.562453 -7.49165e-05 0.000287162)
(0.573724 -0.00084219 0.0005058)
(0.157223 0.0630125 -0.0718646)
(0.562886 -2.28181e-05 0.000376027)
(0.198256 0.198722 0.000268559)
(0.565492 0.000174889 0.000907551)
(0.566691 -0.000171971 -0.000688439)
(0.562892 0.00234258 -0.000662534)
(0.558053 -0.00216642 0.00388895)
(0.564456 -0.000997414 0.00208329)
(0.56821 0.000391361 5.98455e-05)
(0.567421 -9.64224e-05 -0.000807447)
(0.566902 -0.0002627 -0.000269248)
(0.567044 -0.000809302 -0.000892911)
(0.561142 -0.00110634 0.000852129)
(0.19798 0.199504 -0.00289371)
(0.566602 -0.000255016 0.000254225)
(0.565986 0.00033861 0.000334486)
(0.567815 -0.000316771 9.11321e-05)
(0.566038 -0.000101295 -0.000396131)
(0.566405 -0.000736022 -0.000625233)
(0.562732 -6.96044e-05 0.000390046)
(0.556555 0.00649292 -0.00107715)
(0.572356 0.000724633 0.000618388)
(0.558387 0.00184739 -0.000914463)
(0.562568 0.000328897 -0.000890209)
(0.199327 0.199332 8.33709e-05)
(0.200509 -0.199734 -2.18469e-06)
(0.56678 0.000170378 0.000188745)
(0.567757 0.000430212 0.000320993)
(0.562635 -0.000519605 0.000430338)
(0.558951 0.000735669 -0.00211682)
(0.561581 -0.000861127 5.84632e-05)
(0.198838 0.199071 -0.000326773)
(0.199095 0.199302 -0.000154451)
(0.566904 -0.000798919 -0.000869591)
(0.56412 -0.000437884 0.000152101)
(0.565591 -0.000273007 -0.000325019)
(0.565712 -6.95408e-06 -0.000159927)
(0.565045 -0.000138982 -0.000733909)
(0.566392 -0.00036786 -0.000192096)
(0.220606 -0.15338 -0.0145812)
(0.568007 0.00017812 -2.60305e-05)
(0.561818 -0.00115343 0.00086553)
(0.560065 0.000516653 -0.000832618)
(0.55666 3.16495e-05 -0.00177954)
(0.568199 -0.000138537 -0.000103016)
(0.541722 0.00343966 -0.0125994)
(0.557009 0.0163436 -0.010648)
(0.568005 0.000105837 3.27057e-05)
(0.56215 -0.000876803 0.000842463)
(0.560612 -0.000287254 0.000360915)
(0.563105 -0.000623722 0.000638816)
(0.573237 0.000307212 -0.00101965)
(0.199319 0.199349 3.40924e-06)
(0.556697 0.0023204 -0.00215719)
(0.567132 -5.54503e-05 2.6997e-05)
(0.55079 -0.0021135 -0.00586068)
(0.566131 0.00012259 -0.000575763)
(0.566926 8.3036e-05 -0.000593991)
(0.19973 0.197602 -0.00081227)
(0.563203 -0.000961889 0.00411463)
(0.573326 -0.000433009 0.000108884)
(0.567086 2.77245e-06 -0.00057479)
(0.561131 0.000309235 0.000996376)
(0.553816 -0.000168822 -0.001678)
(0.199309 0.20511 -0.00187082)
(0.197821 0.195524 -0.00103382)
(0.566065 0.000353425 0.000207205)
(0.566518 -0.00022041 -0.0001648)
(0.566542 -0.000104523 4.2098e-05)
(0.567685 -3.23368e-05 5.24448e-05)
(0.56634 0.000149956 2.04215e-05)
(0.565481 0.000548466 0.000441001)
(0.562494 -0.000646833 0.000813001)
(0.566539 0.00158072 -0.00273929)
(0.565639 -0.000216365 -0.000861872)
(0.566173 0.000869304 -0.000281275)
(0.564104 -0.00127638 0.00227745)
(0.561418 0.00117851 -0.000709144)
(0.563032 -0.000648436 0.000147929)
(0.566448 0.000199261 -0.000404609)
(0.198619 0.198617 0.00012711)
(0.566895 5.23483e-05 -0.000284809)
(0.200429 0.20058 -0.000125446)
(0.199605 0.19915 2.05652e-05)
(0.565826 0.000951656 -0.000461728)
(0.562728 8.36649e-05 0.000183603)
(0.566865 -0.000833205 0.000525433)
(0.200416 -0.200247 -3.50234e-05)
(0.564531 8.73273e-06 0.000451487)
(0.560891 0.00107616 -0.00171697)
(0.567572 0.000535131 -0.00109129)
(0.199547 0.199647 9.24422e-05)
(0.565103 -0.000314617 -0.000178074)
(0.197085 0.198847 -0.00060585)
(0.56347 -0.000314753 0.00335363)
(0.198063 0.196975 -0.000142509)
(0.561755 -0.000267647 0.00104409)
(0.558424 -0.000234761 0.00108065)
(0.563691 -0.000147099 2.23759e-05)
(0.56563 0.000782158 -3.11086e-05)
(0.200337 -0.200251 0.000103133)
(0.198374 0.198349 -0.000171015)
(0.566771 0.00263197 -0.00298677)
(0.555285 -0.000242436 0.001885)
(0.567454 8.17362e-05 -0.000849901)
(0.566217 0.00010359 -0.000316727)
(0.565202 3.02232e-05 -0.000761091)
(0.563984 0.00118033 -0.000347109)
(0.574551 0.00318029 -0.00126049)
(0.199743 0.199933 -0.000287317)
(0.581961 0.00711715 -0.00090553)
(0.565185 -0.000521148 -0.00073975)
(0.541784 0.0634415 -0.0393667)
(0.198089 0.196662 0.000529573)
(0.567619 0.00129631 -0.00162787)
(0.546549 0.000440306 0.00146089)
(0.19941 0.197821 0.00170516)
(0.581617 0.0022418 0.00103078)
(0.567552 -0.000267283 -0.000532129)
(0.199677 -0.199565 -7.11026e-05)
(0.558466 1.14763e-05 0.00129557)
(0.596323 0.00833157 0.00137148)
(0.566531 -0.000501524 -0.000166554)
(0.562043 -0.00146862 0.00246592)
(0.576407 0.00519495 0.0273865)
(0.560319 0.000781955 -0.000514938)
(0.563963 -0.000143839 -0.000402317)
(0.560383 0.000105528 -0.00196545)
(0.539747 -0.000105551 4.39175e-05)
(0.567042 -0.0230321 0.0259187)
(0.56426 0.000324105 0.000786022)
(0.555451 -0.00110004 -0.000174554)
(0.566401 4.03514e-06 -0.00017699)
(0.575442 -0.00145457 0.000972203)
(0.567316 -3.54164e-05 7.80148e-05)
(0.567671 0.00220257 -0.00159802)
(0.199414 0.199488 1.8808e-05)
(0.566496 0.000730488 -0.00032103)
(0.580714 0.000376439 0.00146203)
(0.591093 0.00557832 0.00759255)
(0.199738 -0.199758 -7.63428e-05)
(0.562267 -0.00107343 0.0010995)
(0.56903 0.000433506 -0.000192109)
(0.197201 0.195144 0.00040116)
(0.557967 0.000400713 -5.76197e-05)
(0.562275 0.000168633 -0.00047075)
(0.566002 0.000382067 -0.000664474)
(0.568919 0.000358918 9.31751e-05)
(0.562032 -0.000543464 -0.000342913)
(0.56538 -0.000241978 0.000195678)
(0.198909 0.199226 -0.000232823)
(0.562275 -0.000275111 -0.00175328)
(0.570683 7.91817e-05 -0.000295027)
(0.198979 0.198969 0.000237759)
(0.200022 0.199452 -0.000105426)
(0.565744 0.00046235 0.000234663)
(0.199432 0.199779 -0.00011195)
(0.564453 -0.000188155 0.000391128)
(0.560277 -0.00405372 -0.000314461)
(0.566067 0.000257045 -0.000319463)
(0.562375 -0.000608066 -0.00228594)
(0.56234 -1.23731e-05 -0.00184317)
(0.284075 -0.0199245 0.0421922)
(0.199424 0.199669 0.000193021)
(0.571493 0.000343618 -1.56711e-05)
(0.566128 5.64596e-05 0.000160531)
(0.562954 0.000570926 -0.000472315)
(0.560645 0.00272891 -0.00192543)
(0.563167 -0.000138574 -0.000781912)
(0.199139 0.199303 -0.000233016)
(0.544419 -2.97491e-05 -0.000745709)
(0.560653 -0.000214115 -0.000870061)
(0.556074 0.00164657 0.00420619)
(0.567071 -0.000219108 0.001099)
(0.563767 -0.0010513 -0.000323106)
(0.555304 0.0181753 -0.0206169)
(0.566532 -0.00163644 5.06318e-05)
(0.551112 0.00593736 -0.0109317)
(0.198615 0.195234 -0.00117146)
(0.199634 0.199568 0.000187551)
(0.199088 0.199099 -6.32095e-05)
(0.566623 0.000229256 -0.000257637)
(0.566034 -0.000215927 -0.000535818)
(0.199143 0.19857 -0.000104235)
(0.564069 -0.000133819 0.000803389)
(0.557644 0.00380954 0.00296458)
(0.557151 -0.000754757 -0.000610402)
(0.501335 0.0707062 -0.0405492)
(0.559329 -0.000792257 -0.000485071)
(0.565796 0.000201831 0.000123869)
(0.199901 0.204316 0.000277952)
(0.557108 0.0130964 -0.0206976)
(0.199877 0.199843 0.00016148)
(0.198919 0.198379 0.000352168)
(0.56607 -0.000229024 -4.42771e-05)
(0.317971 0.243261 0.0366881)
(0.290025 -0.118135 -0.00397669)
(0.562659 -0.00130902 -0.000138073)
(0.194326 -0.197747 0.000260353)
(0.566124 0.0001181 -8.21882e-05)
(0.560779 -0.00254093 -0.00512497)
(0.570021 0.019537 -0.0138495)
(0.565635 -0.000202271 0.00033846)
(0.575758 0.0110791 -0.00350892)
(0.56383 0.000410523 0.000193249)
(0.570742 -0.0365046 -0.0106963)
(0.199028 0.198991 6.40852e-05)
(0.198888 0.198029 0.000202394)
(0.564628 -0.000979062 -4.51213e-05)
(0.563574 -0.000708426 0.00107675)
(0.566984 -0.000406959 0.000192537)
(0.19587 0.198988 -0.0015467)
(0.56023 0.00112992 2.74617e-06)
(0.56548 -0.000413311 7.2455e-05)
(0.565786 -7.1344e-05 -0.000278587)
(0.199253 0.199479 0.000834918)
(0.565526 0.000214277 -0.000612412)
(0.565715 -0.000239256 -0.000286306)
(0.511016 0.0571535 0.0378688)
(0.199118 0.199149 -0.000148706)
(0.645335 0.172809 -0.0063977)
(0.522366 0.0735689 -0.0535052)
(0.2002 -0.199484 4.35809e-05)
(0.199808 0.199089 0.000333276)
(0.198925 0.198533 5.407e-05)
(0.200474 0.199851 0.00042278)
(0.200027 0.199727 -0.000778779)
(0.565854 0.000580458 -0.00010763)
(0.566223 -0.000147925 0.000217288)
(0.564915 0.000509496 0.000160796)
(0.199455 0.198444 0.000167488)
(0.565024 -0.00032114 -0.000139737)
(0.567435 2.52924e-05 0.000442828)
(0.199651 0.198943 0.000263724)