/*--------------------------------*- C++ -*----------------------------------*\
  =========                 |
  \\      /  F ield         | OpenFOAM: The Open Source CFD Toolbox
   \\    /   O peration     | Website:  https://openfoam.org
    \\  /    A nd           | Version:  10
     \\/     M anipulation  |
\*---------------------------------------------------------------------------*/
FoamFile
{
    format      ascii;
    class       volScalarField;
    location    "36";
    object      SgP;
}
// * * * * * * * * * * * * * * * * * * * * * * * * * * * * * * * * * * * * * //

dimensions      [1 -1 -3 -1 0 0 0];

internalField   nonuniform List<scalar> 
111485
(
1.38773e-09
1.70301e-06
5.5434e-07
4.38452e-12
1.41005e-07
2.50125e-09
2.69402e-07
1.08129e-08
2.59043e-07
2.46074e-08
5.08485e-07
2.06313e-08
1.31331e-07
0.00517138
1.32878e-07
2.70421e-07
0.00367619
1.6069e-05
1.67752e-08
2.5222e-08
0.000692771
2.32683e-10
5.04575e-08
1.76615e-07
9.09128e-07
2.16326e-09
2.10542e-08
3.15679e-07
4.86587e-08
0.000902604
6.52276e-08
3.21129e-09
6.32428e-09
2.5554e-08
1.34736e-05
1.80201e-06
0.00241819
0.00362989
4.25933e-05
7.00785e-08
0.000722329
1.63142e-08
5.36214e-08
2.02773e-06
2.87932e-07
3.90991e-08
1.23141e-07
1.50739e-08
1.29352e-07
1.45401e-08
2.90798e-08
3.58877e-07
1.03637e-08
1.76869e-07
3.48155e-08
1.17228e-09
2.81939e-08
4.18566e-10
8.70079e-07
8.53557e-09
1.85572e-08
5.82381e-09
1.87013e-06
1.09268e-07
1.50051e-07
5.33519e-07
6.79851e-06
2.54196e-08
1.42301e-06
3.03299e-06
9.65772e-07
2.01751e-06
2.14101e-07
1.76182e-06
5.7803e-09
2.67113e-09
1.10878e-09
1.47152e-08
1.98197e-09
4.8994e-07
0.00496744
0.00922155
9.27167e-10
2.18182e-09
3.32599e-07
7.54316e-07
0.00249486
1.4101e-07
4.40538e-06
1.43563e-07
2.89287e-08
1.2978e-07
9.04152e-07
7.59417e-09
3.99708e-08
4.23906e-10
0.000505069
2.71802e-07
3.00722e-05
8.30273e-06
7.02194e-10
5.63457e-08
3.54574e-08
2.2774e-07
1.3029e-07
2.55196e-07
1.91563e-10
3.80709e-09
2.56483e-07
1.17393e-05
8.68582e-07
2.11283e-08
2.45284e-07
1.36284e-06
5.60526e-09
6.31976e-09
1.56165e-09
1.64877e-07
4.69009e-07
1.57257e-10
1.14163e-09
3.35984e-06
0.00124904
4.51686e-08
8.32282e-07
0.000530909
1.97928e-06
3.07643e-07
1.75362e-11
5.55594e-06
2.83966e-06
3.6733e-07
0.00088479
3.16994e-06
1.47414e-06
3.6296e-09
2.01885e-10
1.19454e-08
2.15826e-07
4.24168e-07
1.36943e-06
3.28449e-09
0.00317019
1.74156e-06
5.94294e-07
5.10143e-08
2.32464e-10
8.1499e-10
2.22173e-09
1.95942e-08
6.01389e-07
0.000530882
0.00197829
2.63535e-07
1.18536e-06
1.5226e-09
7.48481e-08
2.99971e-06
1.61638e-05
1.09077e-07
7.93029e-11
5.1894e-09
7.24276e-07
1.11966e-06
1.3435e-06
9.55866e-07
1.19662e-07
0.000451772
2.74755e-05
2.20092e-06
4.09127e-11
2.10604e-09
0.00347449
2.74001e-11
6.43041e-09
6.5937e-08
7.91706e-09
1.63648e-07
4.08685e-09
9.6705e-08
1.49162e-07
4.98453e-09
2.64669e-08
7.35717e-09
5.03691e-08
4.05688e-07
1.95846e-07
8.24978e-07
6.44355e-06
5.5244e-09
1.12715e-06
9.05141e-08
1.31594e-07
3.91323e-07
1.09614e-07
2.33613e-07
5.44246e-08
2.77747e-08
2.00859e-08
1.54791e-07
3.52094e-08
2.79819e-05
1.44801e-06
1.06204e-08
3.05502e-08
1.01542e-07
2.17773e-07
2.00126e-07
2.90265e-07
6.8181e-08
8.30749e-08
1.455e-07
1.41699e-07
1.222e-10
1.57871e-06
5.05512e-06
7.01909e-09
2.88799e-10
2.2291e-07
3.6132e-07
1.89195e-08
1.35317e-09
3.19423e-07
2.65788e-07
5.06352e-06
1.16546e-10
2.22109e-11
6.61844e-07
7.37772e-05
4.109e-07
1.72728e-06
2.86021e-07
2.17239e-08
0.0025559
6.53212e-07
2.22117e-07
0.0028457
1.38318e-09
1.03619e-06
4.86666e-07
4.58543e-07
5.86959e-07
1.10411e-07
7.49336e-08
3.28438e-05
6.57718e-09
1.44423e-07
1.49063e-09
1.0759e-07
0.00240158
3.58277e-07
3.37251e-07
3.82752e-07
2.51185e-11
3.63347e-06
1.52341e-08
5.7119e-09
1.20348e-06
0.00180451
1.56579e-09
1.10273e-07
1.0696e-06
1.98218e-08
6.55566e-11
1.1316e-07
1.60299e-11
9.67817e-10
1.24519e-08
0.00297149
6.63985e-08
5.6841e-07
1.82965e-08
0.00311021
3.68038e-07
1.69203e-08
4.26872e-06
7.35374e-08
2.80285e-08
9.40977e-09
1.83154e-09
0.00203509
1.02902e-08
7.75963e-07
4.33827e-07
2.70212e-11
0.00382586
0.00466926
3.46401e-08
6.15833e-06
5.38148e-07
5.82927e-08
1.44285e-07
2.44194e-07
1.64564e-10
1.32142e-07
3.15167e-10
6.30485e-06
4.94417e-06
2.86576e-07
3.59118e-08
0.0060607
6.04964e-09
0.00144089
1.44715e-08
1.27817e-07
2.20832e-10
2.20246e-09
0.000461977
6.43685e-08
3.28893e-08
1.30112e-07
2.96247e-06
7.6865e-09
4.57992e-07
7.73347e-10
3.91401e-09
8.70208e-08
7.55358e-05
0.00441245
5.88444e-08
1.3852e-05
1.75636e-10
1.02814e-09
4.47915e-10
1.49723e-06
2.74747e-08
1.49322e-08
5.71653e-08
1.32893e-08
1.32238e-06
0.00112862
9.75904e-08
1.00815e-08
5.61675e-08
3.26623e-08
0.000795784
9.30544e-07
1.07582e-08
1.63247e-08
1.54983e-08
2.34942e-07
2.69658e-09
0.00264734
4.35948e-06
8.50821e-09
6.65304e-08
4.8533e-06
1.18988e-08
0.000652046
2.60368e-09
2.12453e-07
1.05462e-07
8.8915e-09
3.61357e-07
1.75631e-07
6.85781e-09
9.12863e-09
2.16317e-08
4.94659e-08
0.00634446
5.44333e-07
1.46601e-09
0.000882312
3.30225e-07
4.19984e-10
8.77734e-09
2.17218e-09
0.000880164
1.23116e-05
0.000856222
0.000824261
6.27621e-09
2.16557e-10
2.92467e-08
5.11339e-08
3.45189e-11
1.7616e-07
4.68699e-08
2.83492e-07
5.0589e-07
2.54448e-06
8.44821e-08
1.25915e-05
2.62554e-08
9.07548e-08
8.82603e-07
1.23041e-08
1.25911e-05
5.51639e-09
2.34571e-07
5.79656e-08
0.000503797
1.99465e-09
1.2485e-09
0.00272014
1.21489e-07
0.00538807
7.80691e-09
1.13711e-07
6.18194e-08
1.32329e-10
9.76568e-08
8.28809e-07
1.68918e-09
0.000596542
8.33585e-08
4.95201e-08
1.6637e-08
3.26068e-10
1.31603e-05
3.45207e-10
1.61869e-07
6.68811e-08
1.69739e-12
1.79702e-08
9.11968e-07
0.00433056
2.59777e-06
3.90696e-11
1.43923e-06
1.75286e-06
1.78455e-06
6.63529e-07
1.17768e-05
4.48874e-08
1.9511e-05
9.78542e-07
0.00359003
4.17144e-06
3.80535e-09
1.34651e-07
2.61179e-08
1.94481e-09
2.43406e-05
3.89484e-06
1.39209e-06
2.9504e-08
3.1109e-08
2.34422e-07
3.64649e-09
0.00614944
3.8201e-08
6.03289e-07
8.44821e-05
1.69188e-06
2.48772e-05
1.23015e-09
0.00449319
0.00581336
4.13468e-10
6.51617e-07
5.24956e-06
1.99705e-06
6.19429e-11
4.75852e-07
4.15618e-10
0.00501127
1.34669e-06
3.70456e-07
2.08157e-06
5.38682e-07
4.64919e-09
8.48957e-08
1.35143e-08
1.33424e-06
2.93114e-09
1.79449e-08
0.000977569
1.74058e-06
1.79535e-09
2.08305e-09
7.29829e-06
1.53986e-09
3.14538e-08
7.95725e-08
6.7482e-11
1.06326e-06
1.66787e-09
0.00138474
8.49182e-09
4.47087e-08
3.12658e-09
4.2637e-06
8.87443e-09
0.00396966
3.93458e-07
0.00415906
5.35214e-10
1.14423e-06
4.68535e-08
6.08684e-11
0.00646775
0.00251362
5.3204e-07
7.02072e-08
5.64975e-07
1.50274e-08
2.54837e-07
6.05937e-09
6.94542e-07
0.00507391
1.05603e-09
2.03158e-08
1.95779e-06
3.25474e-07
0.0009869
1.04738e-07
2.01933e-06
3.0628e-08
2.7864e-08
1.30505e-05
0.00136538
2.37988e-07
9.6148e-09
2.2109e-08
7.72682e-08
6.03232e-08
2.31133e-08
4.04727e-07
2.10235e-11
3.02245e-05
2.04746e-09
6.5177e-09
4.78968e-09
1.78365e-06
4.99727e-10
1.48232e-07
4.12259e-09
1.6415e-07
1.29616e-09
0.00205238
0.00198848
4.47622e-07
6.92599e-09
0.00108549
0.00142063
5.7024e-09
4.16555e-09
2.70083e-07
3.84384e-09
2.69915e-06
2.8913e-07
2.31176e-07
0.000795455
3.85801e-08
9.12712e-11
8.20614e-07
8.12948e-07
1.13212e-06
2.17889e-08
3.41312e-07
2.60555e-07
2.67809e-08
1.87731e-08
4.11489e-07
6.29457e-07
1.52235e-10
0.00225867
1.31078e-06
8.70976e-07
3.44591e-08
2.073e-05
6.3252e-07
8.70092e-06
4.06137e-05
6.15529e-06
4.59687e-08
1.69499e-06
2.28517e-07
4.29391e-07
0.00201691
3.51626e-06
1.31109e-06
6.49544e-05
0.00135819
5.93569e-09
1.14804e-06
8.13619e-08
6.13034e-07
1.09778e-08
8.75497e-06
4.95268e-05
9.60429e-06
2.9204e-06
4.66456e-07
1.96881e-08
6.64063e-09
3.54732e-06
2.90958e-08
1.45111e-09
5.36239e-11
9.06799e-09
7.65583e-10
3.94854e-07
3.00029e-11
0.000651099
2.75791e-07
6.18367e-07
0.00181218
0.00561951
1.02036e-06
3.20227e-08
0.000691464
6.91672e-10
3.92586e-07
3.29838e-09
9.88681e-09
8.02146e-07
4.57824e-07
0.00208423
5.16836e-07
4.01871e-09
6.43727e-08
6.02742e-07
0.00253007
1.40786e-07
5.37278e-07
1.04041e-06
0.00345447
0.000696065
5.41779e-08
3.39131e-07
1.31935e-07
4.36603e-08
1.54018e-07
1.60792e-08
6.62155e-07
7.27843e-08
3.51034e-08
2.1525e-08
7.44129e-08
1.27742e-05
5.48385e-07
6.49758e-08
7.47249e-08
1.22757e-05
4.94798e-09
8.99086e-09
2.93695e-07
8.35949e-08
3.00149e-07
2.18194e-08
6.89101e-08
6.83053e-08
5.44121e-07
3.15179e-06
2.87736e-07
5.76048e-07
3.10915e-08
9.51248e-09
8.00302e-07
9.93212e-08
2.14137e-09
0.00129589
6.34853e-10
0.00241366
1.02176e-06
0.000231115
1.3041e-08
0.000492524
8.24574e-08
2.20672e-07
3.22101e-10
1.8632e-07
6.0004e-09
4.14052e-10
2.01101e-08
0.00497991
2.17169e-06
5.67852e-07
0.000762504
2.28104e-09
4.16431e-10
1.12053e-07
2.96276e-08
1.48883e-06
9.76978e-09
2.4023e-06
6.4851e-10
1.3243e-07
2.31178e-06
0.00294917
9.19025e-12
3.68299e-09
2.78342e-08
3.67613e-10
2.26752e-06
9.11492e-09
0.00104514
1.32667e-08
1.12971e-09
4.47705e-09
0.000759287
9.05503e-08
2.85407e-06
1.87253e-11
8.43331e-05
1.5532e-05
0.00318822
2.53237e-10
2.56241e-09
8.32981e-08
4.75154e-07
7.54209e-07
9.57091e-06
6.53887e-06
4.59157e-06
1.07939e-07
0.00105398
5.30624e-07
1.99395e-08
1.45572e-09
2.46575e-08
4.93988e-09
3.77197e-09
1.14107e-09
2.6272e-11
3.42548e-08
1.36244e-09
8.44018e-09
1.97453e-08
3.04624e-09
9.40802e-09
4.72294e-09
1.48025e-08
4.36534e-09
3.1088e-07
3.03628e-07
8.78369e-09
7.23477e-10
4.25778e-07
2.15076e-11
1.55373e-06
3.2375e-08
7.95097e-08
2.9731e-09
8.56437e-11
2.2356e-10
4.53693e-11
3.20935e-07
2.09103e-09
1.18389e-08
3.86827e-07
2.19466e-10
2.80708e-07
1.42014e-06
6.94875e-08
1.46904e-08
9.46935e-06
5.66115e-08
0.0044373
2.00067e-06
2.06195e-07
0.00376555
1.48053e-06
1.5662e-07
5.35088e-07
1.04453e-08
3.45047e-07
0.00169278
1.23292e-05
1.35326e-08
3.91564e-09
2.46082e-07
1.53567e-06
1.77301e-06
1.36471e-06
7.61267e-11
4.73551e-13
1.28011e-08
6.72885e-07
7.1533e-08
6.93252e-08
3.2637e-06
4.54092e-08
5.97478e-07
1.54392e-10
2.85901e-09
0.000558349
2.01207e-07
4.80533e-09
2.08115e-09
8.88483e-07
2.26204e-06
3.38362e-08
8.19116e-09
0.000759967
3.61626e-11
5.54858e-07
0.00106067
6.4664e-10
0.00125273
7.6512e-07
0.000617688
8.86179e-06
5.5355e-09
5.17502e-07
3.37337e-07
0.000852471
9.91763e-07
2.26567e-05
0.00285741
2.06305e-06
2.64933e-07
2.11221e-08
1.14207e-08
0.00855418
0.00286181
3.18645e-09
0.00418716
2.83603e-07
2.95057e-06
6.3694e-07
3.71154e-07
2.07871e-05
7.09021e-07
2.43424e-07
1.28563e-07
1.33844e-08
2.37507e-08
0.000765769
3.70147e-09
1.02223e-06
6.06785e-07
9.8668e-10
7.61156e-08
0.00383115
9.07802e-08
6.22833e-09
1.06538e-05
8.16429e-10
1.95276e-08
0.00372346
7.82428e-09
0.00313006
0.00598936
2.28634e-05
3.76045e-07
1.88146e-08
6.28245e-08
1.05233e-06
4.63336e-06
2.04264e-05
5.38303e-06
7.88607e-08
0.000762802
1.98109e-06
6.03991e-10
6.37311e-06
5.20204e-06
1.15352e-05
8.35257e-06
1.6136e-05
3.07261e-06
1.03784e-10
1.31406e-06
7.13733e-09
1.38051e-08
2.66453e-05
0.00614149
4.34715e-09
5.60997e-09
5.72447e-05
6.19049e-05
4.19909e-11
1.12207e-05
9.88239e-09
2.28848e-10
3.46086e-10
7.70177e-09
1.06344e-07
8.23826e-09
1.37239e-06
0.000856362
5.60404e-11
1.36582e-08
7.90572e-05
0.00205639
1.44487e-06
1.26225e-09
0.000544609
6.94283e-11
2.46619e-06
5.29092e-10
8.47998e-10
1.07778e-05
0.00229239
3.37619e-08
2.0021e-09
3.26897e-09
0.00059383
8.51869e-09
0.000388429
4.64322e-09
2.15932e-06
1.40855e-10
3.85674e-05
4.4303e-08
4.30766e-11
1.79265e-08
9.79863e-09
2.73211e-05
1.61999e-08
3.72134e-09
3.52937e-08
8.50226e-05
0.000907105
1.331e-06
1.04776e-05
2.04085e-05
4.01345e-09
2.25251e-05
1.8036e-07
3.56032e-09
4.96054e-08
4.27819e-06
3.77915e-07
4.61164e-09
1.56538e-07
2.79009e-06
4.13893e-09
1.17374e-08
1.60854e-08
3.2644e-07
0.00125625
9.56513e-11
1.53202e-09
0.00101242
2.12005e-06
1.3496e-06
2.91888e-10
2.34202e-08
2.85826e-09
1.95485e-08
4.46772e-07
1.046e-06
1.77747e-08
4.7283e-07
4.42459e-07
1.46868e-06
3.95003e-07
9.30189e-11
6.24094e-08
7.96175e-11
1.32611e-08
1.62682e-06
3.01569e-06
3.63699e-09
8.64494e-09
1.74237e-08
8.2838e-11
7.79041e-07
9.30236e-09
1.25878e-06
1.52701e-05
1.44465e-06
4.70629e-09
2.69013e-05
2.10575e-06
1.32617e-06
2.79254e-06
8.8213e-10
2.69774e-06
6.32297e-08
0.00206704
6.20044e-07
1.80309e-06
8.95069e-09
1.28879e-11
1.28221e-09
0.00328443
0.00125597
9.88559e-07
8.16865e-12
2.41728e-06
6.46488e-10
0.00304155
3.36606e-06
1.52296e-08
2.53335e-09
4.85721e-08
1.55982e-08
1.69246e-06
4.41241e-08
2.10235e-06
0.0054916
9.24184e-08
1.29014e-06
5.34336e-07
1.33751e-06
9.25585e-07
7.86536e-09
1.16378e-11
8.05993e-08
5.73825e-07
4.74735e-09
3.75639e-09
1.08412e-05
6.84145e-09
5.70943e-08
0.00738003
2.7058e-08
1.21209e-06
1.2348e-11
8.30981e-08
3.79315e-09
0.00584211
3.89781e-10
0.00214951
0.000105604
2.32372e-06
3.30176e-07
3.03429e-07
1.7836e-05
4.60085e-08
8.62004e-08
4.83377e-08
8.66086e-09
1.29011e-08
3.82991e-08
1.5265e-06
5.64419e-08
0.00118882
4.63507e-09
9.7065e-08
5.78325e-06
9.3012e-11
7.27466e-06
4.58407e-09
8.51879e-07
1.41003e-05
2.35011e-09
4.08662e-09
1.17001e-06
9.75726e-09
1.68043e-07
0.00321138
1.00199e-08
1.82586e-07
1.32353e-10
0.000778555
1.5909e-07
1.22211e-08
1.12995e-08
8.10081e-08
1.32899e-07
1.41584e-09
0.00270464
2.04844e-08
5.05304e-11
2.2845e-06
8.18916e-09
1.35451e-10
8.20829e-07
1.59073e-05
1.46548e-05
4.41151e-10
3.41378e-08
8.41854e-10
9.83608e-07
8.688e-07
0.000643251
1.06142e-07
1.45877e-05
1.25685e-06
2.06123e-05
5.24687e-07
5.3966e-08
2.21035e-08
1.3046e-08
1.30425e-06
3.97435e-08
1.42033e-07
0.000820171
5.20956e-06
0.000801462
4.27031e-11
1.79287e-07
1.79602e-09
1.40558e-06
1.68302e-06
1.13288e-07
8.82406e-07
8.90897e-06
2.69909e-06
1.54392e-11
0.000112636
0.000144114
1.87124e-06
7.71374e-07
1.95284e-08
1.53303e-05
3.69384e-08
7.32375e-08
7.13416e-09
1.18486e-09
4.38778e-06
1.55364e-07
1.63429e-05
1.51692e-08
0.000792904
1.13324e-05
1.60524e-08
1.97372e-08
1.11168e-05
5.88571e-08
0.00104031
0.00493558
2.31255e-06
4.23295e-06
1.1193e-07
6.17301e-10
5.11139e-10
2.91058e-09
1.27768e-06
8.5453e-08
0.000582786
0.00102662
5.66526e-07
5.62292e-09
5.66133e-06
0.000704141
4.61495e-07
2.11038e-05
4.41727e-05
0.000739199
0.00215092
0.000859548
2.62643e-06
1.57948e-10
3.58919e-05
3.17615e-08
3.42332e-09
4.58643e-09
5.53151e-09
5.22174e-07
1.29549e-09
3.30609e-09
1.58734e-06
2.33625e-09
2.47123e-10
1.71503e-08
3.36084e-09
0.00100099
1.16143e-07
6.19094e-07
0.00129167
0.00464972
1.99258e-09
0.00333605
3.33791e-06
0.00688122
1.2298e-07
1.35567e-09
1.89571e-09
8.07534e-07
0.00464592
3.77194e-11
2.28987e-05
3.15881e-09
8.70075e-08
2.90067e-07
2.3224e-07
2.65423e-08
5.83674e-09
0.0013117
2.59065e-09
1.40344e-07
4.75102e-09
9.23154e-09
1.00872e-08
8.88757e-06
2.18806e-06
1.98462e-08
6.55991e-06
3.9473e-07
9.89856e-09
2.30523e-06
2.20588e-08
6.52418e-07
3.76699e-09
2.28825e-09
0.0045093
0.000743948
7.85899e-06
6.01036e-09
6.75767e-10
2.97977e-08
0.0034444
6.54283e-09
2.07088e-07
1.5166e-08
4.22849e-08
5.33867e-10
0.000597953
2.4046e-06
3.22566e-09
2.00943e-08
3.20856e-07
3.15973e-09
0.00318086
3.63284e-10
0.000756227
1.47516e-06
9.45711e-08
3.4744e-10
3.89113e-08
2.49542e-08
1.98871e-09
4.7726e-08
7.51858e-08
2.25727e-11
1.21872e-10
1.77577e-06
0.00136757
2.60627e-10
6.7486e-07
9.4479e-08
1.81616e-06
2.78051e-09
0.000821964
3.21231e-08
1.10374e-06
1.06434e-06
7.66465e-09
1.0954e-06
4.69393e-08
3.13832e-07
3.45624e-09
6.45398e-09
2.61607e-07
1.39923e-09
3.2848e-06
8.99802e-07
1.25014e-09
5.76646e-09
2.51357e-06
9.49774e-06
0.00545066
2.4978e-09
1.11685e-07
3.95412e-08
6.63415e-06
3.52904e-06
5.2318e-07
1.56955e-06
0.00135964
7.09994e-08
9.49008e-07
1.4179e-05
0.0011544
1.52602e-08
9.33997e-10
7.34298e-06
2.12563e-08
0.000707508
4.90259e-09
2.09147e-07
2.2975e-08
4.33866e-09
0.00410034
1.1834e-09
1.08671e-08
1.51303e-08
4.67719e-07
0.0054091
0.000971274
8.76983e-09
2.43287e-09
7.34258e-11
1.11152e-08
1.06758e-08
1.74644e-08
2.98705e-09
1.34632e-10
3.90662e-09
1.92667e-10
5.39387e-09
0.00106599
0.000635182
2.12109e-10
2.61382e-07
4.08798e-09
8.40905e-09
2.09732e-09
0.000622969
0.0015455
1.95067e-07
4.36566e-09
1.38169e-09
1.65514e-08
3.41128e-08
8.82732e-08
5.82051e-09
6.46248e-06
5.01392e-09
5.42141e-08
9.0681e-08
3.1835e-06
9.77274e-08
1.37175e-05
4.2266e-08
4.87689e-09
8.34526e-06
7.93732e-06
6.1057e-09
4.87409e-07
6.29388e-08
2.38131e-07
8.175e-07
1.74954e-07
7.39155e-08
3.46453e-09
0.0058325
2.21292e-08
9.69425e-07
0.00106923
2.41709e-06
2.68446e-07
3.30513e-07
6.06539e-08
1.40447e-08
5.11573e-07
1.53051e-06
1.3875e-06
8.0386e-08
7.92165e-07
7.0643e-08
3.65118e-08
1.41263e-08
1.49115e-10
7.88512e-09
5.61182e-10
9.95117e-12
2.75801e-09
1.65961e-08
1.13645e-07
2.37148e-09
3.55025e-11
8.11372e-09
3.09649e-07
6.46243e-09
2.15302e-10
1.47763e-08
4.15446e-08
2.38426e-09
1.89433e-06
1.30243e-07
0.00437939
2.25111e-09
2.04687e-07
3.68076e-07
7.90271e-08
4.04767e-10
1.04641e-08
0.00396445
9.40855e-09
2.91466e-10
6.48901e-08
0.00398102
1.50604e-08
1.13036e-06
1.11937e-06
2.99185e-08
1.76349e-07
2.12389e-07
6.93218e-06
2.67361e-10
8.26847e-07
1.0557e-07
3.60706e-09
5.22729e-06
7.23954e-06
0.00346902
1.35784e-07
3.03671e-08
1.90468e-07
6.99687e-07
3.56633e-07
1.2292e-08
4.38771e-05
3.96121e-09
1.29227e-05
6.88075e-06
0.00113131
1.42244e-07
0.00456705
4.87422e-09
1.91001e-08
1.02371e-07
3.94826e-07
9.94954e-07
7.1581e-08
2.54287e-06
9.6236e-10
1.66156e-07
4.1533e-10
2.17528e-10
2.56623e-08
7.71451e-06
5.47491e-09
3.76206e-10
8.09673e-06
5.44895e-09
9.64857e-06
4.59568e-08
1.52034e-08
3.01791e-08
2.87643e-09
3.67801e-07
9.82544e-08
3.74828e-06
9.16641e-09
1.26483e-07
6.31716e-05
3.11096e-08
3.11525e-10
2.69353e-06
6.5416e-08
5.9993e-07
8.99321e-10
0.00253831
2.30037e-06
9.7181e-07
3.66636e-08
6.14138e-09
3.78509e-06
1.00338e-07
2.75862e-09
7.94887e-11
1.25962e-06
1.41449e-06
1.50264e-06
0.00343214
8.49989e-08
1.4671e-07
4.72428e-06
1.45141e-07
1.08895e-07
4.12209e-08
1.23779e-06
4.8047e-08
2.27243e-06
0.003247
2.73978e-07
3.16263e-13
5.44051e-08
1.08596e-06
2.66853e-07
4.837e-09
1.13026e-05
1.51754e-05
8.57242e-06
1.73729e-05
3.57612e-07
9.0076e-07
2.34398e-07
3.84872e-07
6.40602e-09
4.20833e-10
0.00187824
9.43095e-06
3.90313e-08
2.56684e-05
1.0844e-07
5.19486e-07
8.92324e-06
8.6292e-08
4.97401e-08
5.96381e-08
6.61832e-10
7.82641e-07
6.00478e-07
2.28534e-06
7.24854e-07
6.24325e-09
8.5101e-09
4.19209e-07
1.80693e-08
5.49832e-10
6.00965e-06
8.97345e-08
1.82489e-07
8.21957e-07
6.6088e-08
2.81328e-09
9.77925e-06
0.00242982
1.34351e-08
4.15131e-10
1.02646e-10
0.00253889
0.00438398
7.37375e-09
0.00100116
1.64981e-07
4.18281e-07
1.46075e-07
1.62793e-07
2.48874e-07
3.08718e-07
6.01636e-07
0.00195957
0.00599053
0.00691037
2.16095e-07
5.95515e-07
2.37141e-07
1.44574e-07
0.00635369
6.28196e-10
0.00306245
4.45176e-07
6.32172e-10
6.9832e-09
1.01557e-08
7.33096e-09
1.44835e-09
3.7306e-09
1.20194e-09
0.00242425
1.22908e-09
7.09595e-07
3.64901e-06
4.29676e-10
8.72117e-08
1.24113e-07
1.05597e-07
2.05167e-09
1.09003e-05
1.02563e-07
2.17202e-08
1.49039e-06
1.01645e-07
6.37277e-07
1.21806e-07
2.04491e-08
3.37971e-09
3.80767e-07
6.17752e-05
9.29252e-07
9.06425e-09
3.17094e-07
1.9655e-08
4.887e-07
2.39216e-06
2.47598e-07
9.89011e-08
8.84661e-08
2.2287e-08
1.05807e-06
8.82911e-09
2.26248e-07
0.000764452
7.35514e-06
0.00577266
1.29736e-05
1.8259e-06
2.72224e-10
0.00114893
7.85048e-10
1.14429e-06
1.276e-07
2.30602e-07
1.62597e-06
1.33482e-08
5.79864e-09
7.52713e-07
1.86978e-08
1.66559e-09
4.77941e-07
1.01383e-08
4.58228e-07
0.00131566
4.52964e-09
6.94265e-07
2.50793e-08
2.20014e-08
3.01249e-10
4.28135e-06
1.76847e-06
8.56486e-08
7.07834e-09
2.2297e-08
0.000831517
3.94043e-06
2.19879e-07
3.1372e-07
6.45009e-11
3.76475e-12
1.30088e-08
3.0334e-10
8.65658e-07
5.75745e-09
3.93899e-07
3.23222e-08
6.05848e-09
9.76107e-08
6.47745e-10
1.10055e-06
1.53256e-06
8.3185e-07
8.6664e-09
2.08307e-09
1.99022e-08
3.25384e-08
9.91337e-06
2.89074e-08
0.00283367
5.01881e-07
3.99221e-09
6.2327e-09
4.09369e-06
2.77554e-07
1.98624e-05
3.18933e-08
1.91888e-06
0.00412955
2.60394e-10
5.76144e-06
3.57854e-07
0.000796126
2.88466e-08
0.000886364
0.00154927
2.18938e-06
1.32235e-07
3.27488e-07
8.06616e-10
2.74553e-07
4.66428e-07
6.44925e-06
3.25217e-07
9.03581e-08
4.50592e-07
7.04602e-06
6.34396e-06
8.21157e-06
2.75918e-06
1.88411e-09
1.73558e-06
1.48184e-05
1.14323e-07
6.22556e-08
4.1764e-06
3.6017e-06
2.86849e-07
3.16873e-07
4.52356e-06
2.81097e-07
7.04368e-06
4.5303e-06
3.79233e-07
6.57002e-10
6.44417e-07
8.05856e-06
0.00123984
4.73993e-08
2.10615e-08
7.99274e-07
2.65955e-08
1.41752e-06
1.513e-08
6.82253e-06
9.45452e-09
1.621e-06
4.49837e-09
3.54901e-09
2.38794e-07
1.64694e-05
2.29425e-05
0.00594381
2.44689e-07
2.95629e-08
1.91088e-09
7.69877e-06
4.24759e-07
0.000562509
0.00131328
1.84835e-11
1.39617e-05
1.28625e-06
8.79421e-08
1.04436e-08
2.25506e-05
2.02492e-08
0.000799702
4.05053e-09
2.68141e-10
5.28841e-07
2.0068e-08
3.39338e-08
6.91343e-07
0.00073695
3.5801e-07
1.61706e-08
1.65607e-06
0.00388382
0.000719259
1.0418e-07
5.33353e-06
4.58544e-07
1.007e-05
8.94807e-08
0.000698377
8.65703e-07
3.50748e-06
3.16483e-09
8.32209e-09
8.65413e-08
1.39228e-08
3.84318e-07
3.24537e-08
1.22135e-08
4.46595e-08
8.35968e-08
1.80042e-06
5.43761e-10
1.18926e-08
0.00134083
1.64657e-10
1.63476e-09
8.06015e-07
8.35737e-09
4.4482e-06
6.23909e-07
0.00110274
3.75376e-07
0.00458875
2.85641e-07
3.63533e-07
0.000745019
3.09962e-06
9.3072e-12
1.62365e-08
0.000523469
2.34048e-07
1.57388e-06
3.25047e-07
1.3996e-09
1.32569e-07
1.4988e-07
1.98543e-08
0.00223898
3.55882e-08
2.28812e-08
4.65664e-08
1.2252e-08
1.09151e-09
1.72548e-06
5.95263e-08
0.00480367
1.63117e-06
6.44997e-07
7.89338e-07
1.00338e-06
3.72854e-07
5.72417e-08
1.13745e-10
7.21575e-09
1.74865e-06
3.82823e-07
7.31744e-08
5.63063e-09
2.50408e-07
1.89394e-08
9.3304e-07
6.25917e-09
1.31401e-08
2.86985e-08
5.84979e-07
4.24761e-07
6.23834e-07
4.79219e-09
4.96553e-09
3.24246e-05
7.08318e-09
1.49942e-09
1.59513e-10
2.03015e-08
0.00544415
5.35205e-09
3.24293e-06
1.28606e-06
4.47486e-07
3.2001e-09
1.69899e-08
3.83076e-06
1.45147e-07
4.88417e-09
8.02816e-07
2.1896e-09
1.67267e-09
5.78118e-10
1.58501e-06
4.88594e-09
0.00576634
9.33236e-06
6.94451e-07
3.43322e-05
4.80653e-09
3.06839e-07
9.65717e-10
0.00110659
1.57213e-07
1.117e-07
3.3546e-08
2.09825e-08
1.25707e-09
0.00839474
3.58138e-07
9.06693e-06
1.25581e-06
2.18756e-08
0.00214822
1.57138e-08
6.42372e-09
1.05885e-08
1.03464e-08
8.32994e-07
1.07079e-08
4.70517e-07
5.43989e-07
1.00747e-05
5.58408e-08
3.43393e-10
3.20927e-06
9.62234e-09
0.00274623
5.15038e-08
5.86272e-09
2.77976e-08
3.57521e-07
0.00114294
0.000558916
3.12019e-07
9.53589e-07
0.00167385
6.05459e-08
5.79344e-07
0.000784303
2.22012e-07
1.07225e-07
0.00303494
0.000348768
1.73311e-07
6.38763e-07
1.68509e-09
7.38538e-07
3.02854e-05
1.87982e-07
1.6737e-07
6.49826e-06
3.37668e-10
0.000430889
2.53068e-09
4.94255e-07
0.00344064
2.60032e-09
2.22535e-07
1.0816e-07
9.00857e-09
1.00912e-08
9.94298e-07
1.22263e-08
2.79965e-09
6.18355e-07
2.15431e-07
8.78317e-10
0.000432181
0.000820514
1.8279e-07
6.69654e-12
1.37763e-10
2.62387e-06
2.89564e-07
9.35715e-08
5.22615e-09
1.00011e-08
2.49323e-06
1.38903e-06
8.79943e-07
1.65067e-06
0.00638653
1.21984e-10
0.00246822
3.33766e-07
9.26645e-08
0.000939761
2.85965e-08
9.86056e-10
0.000426421
7.52166e-11
1.25663e-07
1.07282e-07
5.67928e-08
1.72487e-08
6.47493e-09
1.80402e-10
6.27262e-10
3.68904e-07
0.00231364
0.00373117
7.50165e-07
6.75081e-08
4.99645e-12
0.00104275
0.00397826
5.78596e-06
2.4476e-08
6.3875e-09
2.16229e-05
4.05581e-06
3.6483e-09
5.84332e-10
1.74507e-08
1.34142e-07
2.39202e-09
1.75741e-07
1.36356e-06
0.00111283
0.00359479
9.97422e-07
1.35596e-05
2.26616e-10
1.18286e-08
5.31223e-07
2.41507e-06
5.29162e-07
7.08233e-06
1.64588e-07
2.5767e-07
2.0584e-09
9.66761e-09
2.76932e-07
0.00108573
6.20347e-09
0.0031314
7.82621e-10
2.07695e-07
4.51164e-08
3.45849e-07
5.95488e-10
3.29986e-11
1.09956e-08
1.17072e-09
4.74933e-08
6.02984e-06
6.59309e-09
0.000690446
3.20574e-07
0.00280917
2.64544e-08
4.61948e-08
3.04811e-08
3.83169e-08
2.0214e-07
2.3499e-10
1.01535e-09
8.56364e-10
6.84837e-08
1.53215e-07
0.000963347
0.000937467
9.83441e-08
1.85447e-08
1.07319e-10
5.3813e-11
4.38239e-10
1.96708e-08
3.62289e-06
7.70602e-09
3.03719e-10
1.05095e-10
0.000407938
7.65929e-07
9.06235e-07
0.000756395
1.46349e-08
0.00547134
1.41968e-07
1.44547e-08
1.79496e-11
4.83868e-09
0.00100054
1.55609e-11
4.6419e-07
9.02753e-10
1.13591e-05
7.73552e-07
1.62351e-06
2.4165e-06
4.96343e-07
6.77002e-10
4.46098e-10
0.00633579
6.92226e-07
6.11564e-07
4.39757e-06
1.62836e-08
1.62973e-06
1.58685e-06
5.14248e-08
9.24139e-08
5.73986e-06
6.27987e-09
1.1986e-05
0.00072845
3.57389e-08
6.96083e-09
1.45718e-06
1.46526e-08
0.000635793
0.00319938
4.42515e-07
7.58137e-10
6.82689e-05
5.82856e-09
2.47586e-07
3.51523e-08
2.24541e-06
4.85199e-11
1.74426e-05
1.62687e-06
2.52277e-06
4.51204e-07
2.12771e-06
5.11195e-07
1.17682e-07
2.68106e-11
3.20617e-06
1.14746e-06
1.10005e-06
2.07785e-08
1.71423e-07
2.10716e-06
7.81041e-06
1.93299e-10
4.46531e-10
1.62418e-09
1.90987e-11
2.18034e-09
0.000395319
8.2561e-06
2.51877e-06
9.64345e-07
3.75603e-06
1.65508e-06
6.3982e-12
3.3755e-07
3.71379e-10
9.48066e-09
1.46588e-09
4.32256e-07
3.81418e-05
4.16288e-07
2.38975e-09
4.74372e-09
2.94465e-08
7.51673e-09
2.59225e-09
0.00259594
1.93811e-07
1.16601e-05
1.77122e-05
1.29733e-05
1.30762e-09
1.00228e-05
1.22246e-05
2.25834e-05
1.24195e-05
6.40399e-10
4.26131e-11
3.06023e-08
2.14798e-07
1.18053e-06
6.3376e-06
0.000705786
4.12911e-07
5.63301e-07
7.35759e-08
1.02226e-05
3.92994e-09
9.92029e-11
2.13031e-06
7.03226e-06
0.000488565
1.98056e-10
0.00207713
2.08938e-06
1.4395e-08
1.51011e-06
1.06925e-07
2.03218e-06
4.92698e-08
1.94669e-06
5.78504e-09
1.4758e-07
4.00146e-05
7.44533e-07
1.46248e-08
3.24075e-05
9.04105e-07
1.8399e-07
6.06201e-05
1.35696e-09
1.97466e-07
9.41016e-07
1.69506e-06
1.25185e-08
0.00338006
2.70463e-09
2.88734e-08
4.13473e-09
0.00208859
0.00207401
4.5069e-08
4.60114e-08
3.06834e-06
0.00102865
1.08449e-08
1.7369e-07
5.68037e-07
2.05619e-07
2.62812e-08
0.00340125
1.95232e-07
3.57729e-07
7.73425e-05
1.50094e-09
1.16162e-07
3.40913e-08
4.42865e-08
5.15972e-10
4.53238e-05
6.59006e-05
1.66315e-09
1.62925e-08
3.19384e-08
1.75773e-06
3.51577e-10
0.000737173
1.08869e-08
2.26059e-07
1.46249e-08
1.37184e-08
4.59488e-08
7.01436e-07
2.9556e-08
9.28604e-08
4.24833e-06
2.30607e-08
2.60811e-08
0.000800092
2.17039e-08
5.55338e-08
5.9035e-08
5.03189e-07
3.33103e-11
4.62184e-10
4.47606e-11
1.98547e-07
1.1585e-08
0.00112138
3.60177e-07
3.83647e-07
8.8814e-10
5.54226e-07
0.00206862
1.66705e-06
2.32502e-07
1.0132e-06
2.0544e-07
6.26418e-09
7.03211e-09
3.35471e-07
3.76845e-08
4.72117e-08
8.8316e-06
2.15683e-07
2.09169e-09
5.73746e-09
2.95902e-08
1.3321e-08
1.24117e-07
9.53133e-10
1.44706e-07
2.79965e-07
5.06296e-09
2.6218e-11
0.000852916
1.43029e-10
1.20465e-10
4.79253e-07
0.00105457
5.60635e-07
3.96128e-08
6.23416e-10
2.38812e-07
1.02621e-07
5.16509e-07
9.44014e-08
1.90185e-09
3.2681e-08
1.53176e-08
1.0558e-07
1.10621e-09
6.68764e-10
8.27999e-09
6.78699e-08
3.2203e-07
2.57547e-08
3.60364e-09
1.28957e-07
1.08204e-06
2.5823e-09
5.70384e-07
9.73549e-09
1.71242e-08
5.81085e-10
9.49018e-07
2.94943e-09
3.65555e-07
5.29007e-11
4.52516e-07
5.31937e-10
2.94217e-08
6.08322e-06
2.3971e-09
1.0973e-09
0.00126331
9.71108e-10
0.00104122
1.00063e-08
1.17224e-08
2.01128e-07
4.21123e-07
0.000774588
1.534e-06
0.000922623
0.00112103
1.8117e-06
1.77354e-07
0.000752149
1.92016e-07
5.08672e-10
6.0373e-07
0.00236726
0.000688228
0.000781391
5.61359e-10
1.73009e-07
1.54219e-10
1.20084e-07
1.79495e-08
1.22379e-07
3.16285e-06
1.54109e-07
1.97388e-08
3.91033e-09
8.08711e-08
5.39833e-06
1.188e-09
2.13161e-07
6.25259e-07
3.95826e-08
1.26186e-11
1.19883e-06
6.27457e-07
5.5588e-07
4.51003e-07
4.0814e-07
9.48483e-08
2.45048e-07
2.81375e-06
1.57865e-07
1.15809e-07
2.22255e-06
8.29686e-06
1.42197e-10
1.78815e-08
3.8751e-09
3.59855e-07
1.86417e-09
4.95833e-08
6.27283e-12
7.4102e-06
0.00693079
0.00150823
2.55956e-06
3.87159e-10
2.06072e-07
0.000918472
0.00179191
2.55654e-08
4.88439e-06
4.90696e-08
1.07635e-08
7.6154e-09
2.39986e-09
2.68841e-07
7.67277e-07
8.4429e-09
8.57141e-10
2.91929e-07
1.05491e-08
0.00311379
0.00100849
2.25563e-07
2.31964e-10
3.06257e-09
0.000786964
4.76961e-10
4.97682e-07
1.00966e-08
1.0885e-05
3.25766e-10
1.25651e-07
8.10362e-09
3.83811e-09
2.00007e-05
0.00268433
0.0012055
2.48204e-08
0.00127918
7.01118e-10
2.56186e-07
2.96894e-08
0.00201
7.81581e-09
3.06296e-06
4.30402e-10
5.4056e-08
4.96761e-06
2.4583e-08
2.72918e-06
4.84257e-09
2.50206e-07
6.05752e-07
2.946e-07
6.52259e-08
1.08763e-08
7.12517e-09
6.05366e-08
2.41302e-08
4.18179e-09
2.48938e-09
0.0012514
0.000691131
2.8193e-09
0.00139195
1.73305e-10
5.59903e-09
7.96015e-07
1.18448e-08
1.03272e-10
0.000647902
2.37243e-09
7.94706e-11
1.0745e-05
1.59199e-10
3.0469e-11
1.02814e-06
0.00156503
3.72953e-09
0.000694135
7.8016e-10
3.80364e-08
0.00083276
1.24154e-07
1.6699e-05
2.05787e-11
3.01969e-09
2.30383e-08
3.89198e-09
0.00369619
0.000756755
1.95283e-06
8.65192e-10
0.000864195
1.65096e-10
6.54316e-09
8.54562e-10
0.00174619
3.4711e-05
2.18269e-07
2.50671e-11
1.72254e-08
0.000899341
1.86544e-05
7.58803e-09
4.57061e-06
0.00185228
0.00143098
6.49357e-07
0.00144912
1.81955e-05
0.000795305
7.26231e-07
0.00114209
6.00222e-06
7.79644e-08
3.51843e-08
4.34061e-08
7.82081e-06
1.63804e-05
1.15872e-10
1.05806e-07
1.85384e-09
7.52238e-07
1.58006e-07
2.78421e-08
1.64166e-07
5.4083e-06
4.61241e-09
1.77445e-07
6.88583e-09
4.76349e-10
1.90376e-09
8.84901e-10
8.92549e-08
1.99616e-09
1.3334e-08
2.06021e-09
2.66077e-07
7.61223e-07
7.4648e-11
4.77503e-11
1.07026e-09
2.18327e-09
2.29804e-08
2.10748e-05
4.00716e-05
1.9208e-06
1.34358e-10
5.71378e-07
1.45987e-07
0.000861738
5.28097e-07
2.99952e-07
9.41544e-09
1.67828e-08
5.07938e-08
3.92682e-06
2.01567e-06
0.00315658
0.00124968
1.46562e-09
1.42387e-05
5.52994e-06
8.63957e-10
4.57025e-08
9.07018e-08
2.13375e-09
3.88436e-08
7.99114e-08
0.00115007
2.69424e-11
1.56676e-06
3.06299e-09
0.000814037
9.74612e-07
0.000664158
6.26154e-07
8.52745e-10
1.16001e-09
8.851e-09
4.84668e-07
3.43674e-07
7.40911e-08
1.6285e-07
1.88982e-08
1.44641e-05
5.35848e-06
2.59253e-10
2.01526e-06
9.39975e-07
8.42608e-07
1.70642e-06
5.72041e-05
8.09683e-08
0.00170129
5.68341e-09
1.15296e-07
0.00071329