/*--------------------------------*- C++ -*----------------------------------*\
  =========                 |
  \\      /  F ield         | OpenFOAM: The Open Source CFD Toolbox
   \\    /   O peration     | Website:  https://openfoam.org
    \\  /    A nd           | Version:  10
     \\/     M anipulation  |
\*---------------------------------------------------------------------------*/
FoamFile
{
    format      ascii;
    class       volScalarField;
    location    "89";
    object      SgRate;
}
// * * * * * * * * * * * * * * * * * * * * * * * * * * * * * * * * * * * * * //

dimensions      [1 -1 -3 -1 0 0 0];

internalField   nonuniform List<scalar> 
59698
(
0.0163158
0.00198803
0.00252385
0.00271584
0.0302435
0.00145199
0.00462718
3.03091e-05
1.98833e-09
3.93176e-09
0.000586478
0.000299145
1.58172e-09
0.00229243
0.000353258
4.26896e-07
7.01915e-06
0.000145856
4.51214e-05
0.000265915
0.00175309
0.0139425
0.000498731
8.81914e-08
0.0422415
6.75128e-05
0.00034257
0.0100115
0.00912093
0.00744508
0.00478689
0.00060069
6.67672e-08
0.0164265
0.00242481
0.00016371
0.0193155
0.0205078
3.08495e-05
0.0250373
0.00865794
2.30472e-07
0.00373711
0.000645125
0.000402108
0.0321482
7.41616e-05
0.000730011
0.0031547
0.000173852
0.00151708
0.000119543
0.0020667
0.00273464
0.0113703
7.69383e-05
0.00132675
0.0002123
0.000806096
0.00276476
0.0052343
0.000500513
0.122034
7.04388e-05
0.0125476
0.00160794
1.75064e-09
0.00039973
5.57449e-05
6.77371e-09
6.19905e-07
0.00025359
0.000363678
0.0406785
0.000411947
0.0390941
0.000116999
0.00925695
0.000357103
0.0061672
0.00890946
0.000475301
3.96239e-09
1.5962e-05
0.00854356
0.000550718
3.61278e-06
4.21649e-05
0.0638221
0.000129403
4.51828e-09
0.00205905
0.0148946
9.83319e-06
7.34721e-05
0.00375145
0.00541217
6.10425e-05
0.00027029
8.59054e-10
0.0772089
0.00181169
0.0162967
0.0154541
0.00012137
0.000564777
4.36253e-05
3.66886e-05
2.69308e-09
4.40506e-10
0.000249954
7.24235e-06
0.038171
1.56281e-07
2.62588e-05
4.50845e-05
4.00889e-05
0.00353824
2.3621e-05
1.13819e-08
3.64143e-05
0.000707371
1.14464e-06
6.17218e-06
2.12522e-05
3.3504e-05
0.0108191
7.20124e-09
2.77468e-05
2.97111e-05
0.044661
3.72902e-05
1.10673e-09
0.100186
0.00425889
0.00440977
2.11336e-06
2.46227e-10
0.000255305
0.000131003
0.000109467
0.0023188
0.00269685
0.00265095
9.98073e-06
0.000695173
6.37201e-06
2.21059e-05
0.00448987
0.0293219
0.000299559
0.000434376
0.00152541
7.59857e-06
0.000162904
0.000342497
4.7846e-05
0.00162924
0.0124324
6.03072e-10
0.00085906
5.13192e-05
0.0164342
0.00164058
0.00336726
0.0344942
0.000237859
0.0720677
0.00203073
0.000413441
0.0119722
1.51129e-06
0.0107949
0.0146655
0.0794977
0.00194775
4.40092e-09
0.00144654
0.000326018
0.00920393
0.0094134
0.0180112
0.014712
1.98214e-05
0.0461197
0.000237637
0.0114438
0.00247855
6.46297e-06
0.00118227
0.00040509
6.70173e-05
0.00267473
0.0387903
0.00401584
0.00417134
0.00985771
0.0580274
2.69919e-05
0.00772229
0.000227109
0.00618722
0.0211797
6.63861e-05
0.010367
0.00276562
0.00612501
0.00286959
0.00783347
0.0113706
0.00256114
2.36614e-05
0.00279333
1.56746e-08
0.00408723
0.00336757
3.73631e-05
3.62657e-05
0.0127542
0.00659444
0.00562169
0.00268758
2.98232e-05
0.0660357
0.000810381
0.026383
0.00735369
0.00324542
0.00683351
0.159359
7.56744e-09
0.00474972
0.00291063
0.00324302
1.38519e-05
0.00969731
0.0828724
1.91505e-05
8.61772e-07
0.000442629
0.00262488
0.00147041
0.0135456
0.000664542
0.0061385
0.000120272
0.0037796
0.231063
0.00122202
0.000426817
0.000702063
0.00163241
0.000629079
0.000233554
0.000618088
0.00238899
0.00601645
0.00128455
0.00364436
4.10292e-05
1.47752e-05
1.81241e-09
0.000394339
0.0059281
0.00473052
0.0474819
2.32739e-05
1.07275e-07
0.000164985
1.6329e-05
0.000141669
0.0439373
0.000224273
1.85173e-05
0.0179583
0.000206521
0.00146597
0.000510606
0.00207523
1.22735e-09
0.000574139
0.000193433
0.000211998
0.104676
0.0488712
0.0201694
0.000134884
0.000647317
0.0729249
0.000444298
0.0919104
0.00234035
0.000188081
0.000164541
0.000321799
0.00273542
0.000356508
0.000803498
0.00424198
1.16966e-05
0.00272365
2.23496e-09
6.86691e-08
0.000823505
6.46699e-05
5.26594e-05
0.0520623
0.00101407
2.01876e-06
0.000267352
0.00197971
7.09208e-05
3.83211e-05
2.37982e-08
0.00193978
0.00514351
0.000403389
0.000392476
0.000829308
0.000806795
0.00034254
0.323618
0.000320948
2.9889e-09
0.0487878
0.0104944
0.000328073
0.000353457
0.000441827
0.000361923
0.00937652
0.00416565
0.0202757
0.206845
0.000430957
1.93129e-05
1.00405e-05
0.000664773
0.00909913
0.00448752
0.0102178
0.00206576
0.00253488
0.00147784
9.67952e-05
6.73891e-06
9.97102e-05
0.0395206
4.77765e-05
0.00204894
0.00798187
9.1671e-05
0.0399827
7.94769e-10
0.24314
0.00217469
0.0140415
0.000126233
3.79056e-05
1.82928e-09
2.76369e-05
8.75006e-06
1.10443e-07
0.00088732
1.40552e-10
1.04127e-07
0.00281327
0.00203108
0.000156553
0.00165133
0.00190954
0.000533989
0.00367394
0.000651126
0.00618738
2.98523e-09
0.000153419
2.45506e-05
0.000460527
2.48643e-09
0.000347123
0.000103095
5.63163e-05
0.000527956
0.000140099
1.98371e-05
0.000211859
0.000544825
8.21652e-10
0.000143783
8.77351e-05
0.00045752
0.0045645
0.00262654
0.00134905
0.00228135
0.0484521
0.00184027
0.00272058
0.000145414
0.00284898
0.00238696
0.00258651
3.98629e-05
0.00148702
0.00420616
0.0850578
0.0281169
2.27544e-05
0.00537459
0.0313917
0.000404302
0.00178418
0.000434524
4.63868e-08
0.0597827
2.72469e-06
0.0103521
0.00241198
0.00183821
0.00303735
0.00218731
0.00252705
0.311253
3.76848e-05
1.31481e-05
7.83264e-09
0.000219274
0.00143128
5.63868e-10
0.000266506
0.00214691
0.0163288
0.00303049
0.00211255
1.43331e-08
1.40047e-08
0.213577
0.000123779
0.00317572
1.92326e-07
0.00325742
5.15042e-09
2.1918e-05
4.03464e-05
0.00238709
0.0699389
4.52692e-10
6.44754e-05
0.00908938
0.00256139
0.000124725
5.87517e-05
0.0330926
0.000283845
9.72713e-05
0.108423
1.39748e-09
0.00973143
2.88726e-05
0.0541602
8.68322e-06
0.0159189
0.0133383
2.20024e-09
0.000976109
0.000447719
0.00849539
3.31911e-05
0.00807612
0.00292923
4.416e-09
1.9986e-10
6.93965e-09
0.000385389
0.000817069
0.00112985
0.0689552
0.00621666
0.00220148
3.50726e-05
0.000497428
3.9785e-05
1.94796e-08
0.00543676
4.58351e-05
5.55388e-05
9.37417e-05
0.0657999
0.00178675
0.0230254
0.0656015
0.00113621
0.000163498
0.05891
6.18766e-05
5.62468e-07
0.00237022
0.00953146
0.000365618
9.71187e-10
0.063969
0.00715145
0.0046055
1.71122e-08
1.12129e-09
3.83794e-05
2.17271e-09
1.24516e-05
0.00316385
0.000581437
0.0747794
0.00721777
5.41925e-08
0.00914225
5.58436e-05
6.87849e-09
3.8559e-05
7.04459e-08
2.48283e-08
0.00547274
0.0037784
1.17058e-05
3.85391e-09
2.18814e-09
0.0012595
0.00947806
1.03157e-05
0.0106913
0.00390349
3.88552e-05
0.0426529
1.82784e-08
2.22953e-05
0.00145199
3.56181e-10
1.35535e-08
0.00185678
0.000138891
0.000384874
0.0096957
0.000357461
0.000148129
0.0680204
0.00817761
0.0135183
0.0100581
0.000173431
0.0116871
7.87044e-06
4.19799e-05
2.27962e-09
3.93423e-05
1.9198e-09
0.000283248
3.00762e-06
1.92634e-08
0.00116264
0.00689805
0.000443373
0.000768503
1.73682e-09
3.30568e-05
9.43578e-05
5.56504e-05
1.81268e-09
0.0739464
5.2766e-05
0.00553654
0.000539255
0.00287688
6.41735e-05
2.04143e-07
0.00259449
0.00287676
0.00338055
6.79751e-05
0.00399169
0.00211552
2.31283e-09
0.000732636
7.58287e-05
0.00516454
5.43709e-05
0.00409123
0.000313354
0.00242539
1.78329e-05
0.00416202
0.00269301
0.00215889
0.00332515
0.000372079
0.000167728
8.51812e-10
1.90146e-05
9.28464e-07
0.00431635
0.000349775
7.36397e-09
0.00517498
3.36543e-05
2.81217e-09
0.00340522
0.00147012
0.00216422
0.000164953
0.00108747
0.00393224
6.62817e-07
8.10083e-06
0.000546918
1.01392e-05
0.00434037
0.00142328
0.00279204
2.20921e-05
0.224712
1.87851
2.05995e-05
5.03776e-09
0.000595471
0.00213469
0.00092734
0.00247879
4.83731e-05
0.00713854
0.00247066
0.00317954
0.00155739
0.00276852
0.000211229
9.19953e-05
0.00113908
0.000107651
0.00134392
0.000237575
2.43054e-05
0.00156782
0.109653
0.000237953
5.07045e-06
0.000607907
1.44908e-09
0.00243058
0.00382746
4.15328e-05
0.00244226
0.000120878
1.75955e-09
0.000439478
0.000176598
0.00829584
0.000799427
0.000585129
0.000114019
4.0659e-05
7.95886e-06
0.00032716
0.00202962
0.000307399
0.000816013
0.000896734
0.0197142
0.0915906
0.00136107
3.37028e-05
0.00233343
0.00319768
0.0415973
3.86947e-09
2.15502e-05
0.000460607
0.00354663
0.000143946
0.00167341
0.000428463
0.0108001
0.0473222
0.000145204
0.000422768
8.02511e-05
3.53429e-07
0.0003781
0.00140691
1.56467e-05
0.00215018
0.00019497
0.00019139
0.0114749
0.00439948
0.0394673
0.000807101
0.00138573
0.00211574
0.00244241
0.000243203
0.00118306
0.000650638
0.000158921
2.278e-10
9.47809e-10
0.0066052
0.000821466
4.47603e-05
1.49613e-09
0.00643197
2.88363e-05
4.4271e-06
2.72488e-09
0.00343091
4.18095e-08
0.000505425
0.000362122
2.82356e-05
0.00198059
0.00917659
3.43266e-05
1.37909e-09
0.000646938
0.0617285
0.00323482
3.84114e-05
0.000951754
0.00145104
0.0257738
0.00883448
1.34599e-09
0.0551965
5.19046e-05
0.00256556
0.000344565
0.00942421
6.72095e-05
1.48142e-07
0.0112561
0.00449389
0.000532174
0.00307565
0.0603071
0.000584475
6.96435e-05
0.246639
0.0023261
0.000732598
0.00240355
0.0019196
0.00174468
5.20331e-06
0.0152147
1.91169e-05
0.0600675
0.00317032
0.0247097
6.87588e-10
0.000212044
0.105178
0.237557
0.00059978
6.86336e-05
0.0497369
0.000383648
0.00224396
0.00520832
0.00194309
0.00832882
0.00411393
5.96096e-05
0.000401561
0.0019672
0.0141732
0.000373921
3.51155e-10
0.00269268
2.57165e-09
0.00434953
3.83311e-05
0.000223976
0.0060965
0.00522413
1.22877
3.75497e-09
0.0245367
0.00969394
0.0210678
0.00106354
0.0047332
0.00032609
0.000967212
0.00164152
0.00140189
0.00671835
0.0111301
0.106989
0.00218993
0.00551013
0.000541509
6.9236e-09
0.000383169
0.000368822
0.000234036
1.58575e-09
0.00320267
2.15887e-06
0.00944006
0.000213331
0.000719022
0.00158243
1.66806e-07
0.00686103
3.51652e-09
0.00100438
6.10908e-05
0.00130484
0.000114064
0.013701
0.000651796
0.00179574
0.0200599
0.21043
8.06918e-05
0.00878011
0.000128876
0.000707565
0.000444791
0.000428763
0.00379712
0.000844732
0.00744116
0.000561237
0.00627452
0.00227906
2.04277e-06
0.000401155
7.37291e-05
8.3216e-05
3.33414e-05
0.000503635
0.000275368
0.000318093
7.69414e-09
5.11435e-09
1.95896e-09
0.000487239
2.11959e-09
0.00558041
0.00492892
0.00153828
0.000499707
0.00406114
1.65655e-05
2.93957e-09
0.015521
0.000469631
0.000152974
1.28987e-09
0.0359159
0.00489257
0.000878518
8.98968e-06
2.45648e-05
0.0105995
2.63816e-07
0.00980764
0.000131722
0.000532568
0.000486422
0.000128416
3.32051e-05
2.49764e-09
0.00134198
1.52054e-09
0.00881563
8.98229e-08
0.00209776
0.000108823
6.99999e-05
0.00163723
0.00165132
0.000597982
0.00192488
5.99541e-06
0.00202662
0.000307131
1.24346e-09
0.00206031
6.30787e-05
3.30867e-05
0.00423794
3.05718e-09
0.000267972
0.0037315
0.0183066
0.000319935
0.0010582
0.00299756
9.1722e-05
0.00460089
0.000633466
0.000584027
0.00449539
0.000149018
0.000379941
0.00255435
0.00162959
8.57545e-09
0.00260735
0.000106036
1.22311e-05
0.0651806
0.000412258
0.00145648
0.00262428
1.49203e-07
2.03697e-09
0.00272525
0.00403409
0.00521602
0.0202351
0.00397879
6.93097e-07
0.0408988
9.54151e-05
0.00132622
0.114957
0.000230865
0.00459172
0.00450304
0.0325919
0.0584164
7.36576e-09
0.0025434
1.70494e-09
0.0246929
0.00027053
0.0003463
0.00141379
3.8261e-10
0.000761136
0.00245685
0.000577968
0.00195322
0.00679239
0.00283952
0.00316836
8.33123e-05
0.025004
0.000731135
0.000141699
4.71187e-05
0.000825841
5.7081e-05
0.00238163
0.00106939
2.0562e-05
4.80822e-05
0.00533129
0.000294999
0.000163892
0.000106922
0.00539349
1.45231e-09
0.000141171
0.00958208
0.0035754
0.000293824
0.000415028
0.000265571
0.000126305
0.000424939
2.39269e-08
7.54073e-09
0.000429221
0.0023401
0.000466221
0.000397901
0.0141481
0.0189905
0.0178118
7.68746e-06
0.00184145
0.00290669
0.00270778
0.00483986
0.00598638
0.000399889
4.63925e-05
0.00255948
4.41007e-05
0.0110092
0.0564861
0.00197666
0.000443769
7.11892e-07
0.00053842
0.000104096
0.00114485
0.00226478
0.00234398
0.000608721
6.88479e-09
0.000123084
0.00237455
0.00235627
0.00232079
0.00365573
0.0472269
0.00039562
0.00190294
0.00135656
0.0227318
5.67273e-10
0.000397046
1.42159e-05
0.00460719
0.000454261
0.00160103
0.00468156
3.42287e-05
0.00347791
0.00356453
0.00366878
0.00549075
0.00948328
0.0100886
0.00817689
0.00524203
0.00576638
1.53405e-07
0.000148843
0.000475219
0.0059774
0.00473844
0.00222629
5.18163e-10
0.00174217
0.00392032
0.000245609
0.00161826
6.36211e-05
0.0145843
0.000127005
0.0405709
0.00314975
0.738246
7.64622e-06
1.5604e-08
0.00211445
0.00317223
1.78073e-07
0.000760329
0.00399228
0.00700679
0.00430101
0.000633624
0.00684476
0.000542244
1.0469e-09
0.0197902
0.000765802
0.000926649
0.00115756
0.00267856
0.000322972
0.00112727
3.12098e-09
0.0005346
0.00821708
0.00271183
0.0924783
9.39074e-09
0.00240992
0.0821874
2.53686e-10
0.00881076
0.00276953
0.0251943
0.0013096
0.00362707
3.49033e-05
6.78839e-06
0.00132847
1.54795e-08
0.00124138
4.22645e-05
0.000118419
0.000125804
9.15015e-06
0.00171746
0.00322537
0.00968595
2.95308e-08
0.00244536
0.000530324
0.000161494
0.0361188
0.0546547
0.00506936
0.000371043
0.00427499
0.454952
0.0241146
0.0263051
0.00045998
0.00044909
0.102402
0.000137001
2.28856e-07
1.49695e-06
0.0165278
0.000214175
0.00170502
0.000329383
0.00174635
2.99227e-08
0.00462491
0.00900113
0.0028843
0.000646091
0.000737309
0.000477735
2.25489e-09
0.000130925
0.00365353
2.52781e-10
0.00114445
0.000584665
0.0077806
0.000354298
0.114515
4.48015e-05
0.00118496
3.42047e-07
0.00564086
9.28512e-05
0.00109945
0.00257476
0.000380628
0.00242489
1.23896e-05
0.00013739
0.00285967
3.82905e-05
0.0187823
0.0121393
1.04556e-05
0.00150412
0.0836396
0.00298481
0.00401005
0.000114224
1.82616e-05
0.00371196
0.0361443
0.00876919
0.00264246
0.000182175
0.00193488
0.00336503
0.00300726
0.00371911
0.00537731
7.54607e-09
0.116138
0.0513278
0.000493694
1.04621e-06
3.04058e-05
0.00313192
0.00244974
0.0262734
0.00113207
7.30122e-07
0.00230108
0.000371765
2.90079e-09
0.00355269
4.221e-09
0.00268595
2.6662e-05
0.00147789
0.00375453
9.25667e-05
0.0197772
0.000151156
0.00043443
0.0036438
0.00413476
0.002045
0.00210066
0.0119273
0.000579701
0.00034517
0.000375785
0.000265
9.31005e-06
2.30923e-09
0.00019041
7.30585e-05
9.72715e-05
0.000781453
0.000646974
0.000853955
5.19715e-06
1.8395e-05
1.8622e-05
0.000312316
0.00267074
0.0004964
4.38912e-05
0.000238787
2.93275e-05
0.000315443
0.000232192
0.000223591
0.00392606
0.103607
5.2849e-05
0.00477632
0.00166012
0.00412777
4.90546e-09
3.55337e-06
4.39979e-05
0.00845958
0.0195397
0.00479445
0.00232808
2.2115e-08
8.48519e-05
0.000377621
0.00474951
0.00956835
1.04264e-08
0.00516302
0.00281875
0.00107521
0.00348326
0.0026396
0.0145535
0.00186345
0.00383931
9.39666e-05
4.66498e-10
1.3949e-09
5.29785e-05
0.00561186
8.38031e-06
6.26892e-10
3.50125e-05
0.00502463
0.00021073
0.00100883
0.00101755
6.00479e-05
0.00191179
4.81971e-05
0.00388656
9.73041e-05
0.00208556
0.0284895
0.00211006
0.00122072
6.09886e-05
2.25156e-07
0.001017
0.000983775
0.0145915
3.22147e-10
1.21912e-07
0.00127073
1.22681e-07
0.000863497
0.000217057
1.48917e-07
6.88408e-09
0.000214938
0.000283532
0.000584263
0.0021965
0.00208092
0.000277253
0.000575558
2.50086e-05
1.07297e-08
0.00548843
0.000205432
6.5113e-10
0.0471277
6.56853e-05
3.26926e-05
0.00028336
6.10945e-08
1.63324e-05
0.000547247
8.78834e-05
0.000563698
9.61678e-06
0.000947463
0.000339216
0.00276313
0.0042875
0.00129632
1.55341e-05
0.0632814
0.0023829
2.18411e-07
0.0060689
0.00288921
0.00667979
1.21354e-05
2.18554e-07
0.351676
1.68623e-06
2.47084e-08
3.48457e-05
0.0255774
0.00304867
0.000635587
0.000492194
2.07422e-05
0.00322278
0.035898
0.00482225
0.00870804
0.0142557
5.58953e-08
0.000340323
1.64153e-09
3.61839e-05
0.00831102
0.00074673
0.0747687
4.15267e-10
0.000485489
6.35642e-10
0.000532967
0.000313617
0.00037715
0.010512
0.0181446
0.000544605
0.00183414
0.00450129
6.06071e-09
0.000235966
0.000993096
0.00203004
0.000399287
0.000809753
0.00750493
0.0107044
0.000592466
0.00170456
0.00267082
3.71293e-05
6.42586e-09
0.000432451
0.0137948
0.0116112
0.00504211
0.0474098
0.00272885
0.000171793
0.00523948
0.000184795
0.000681614
0.00106811
0.0222798
0.000286267
0.020399
0.0115075
0.0342734
1.82131e-09
0.101837
0.00876731
0.00174013
0.00462524
0.0645196
0.000400095
0.00281822
0.00239126
0.00228829
0.00807303
0.00112547
3.14247e-05
1.80919e-06
0.00203021
0.0249113
0.295366
0.000156695
0.00909318
0.000292052
0.00125536
0.000444877
0.188909
0.000620396
0.286533
0.78238
0.000103957
2.22386e-09
7.60454e-06
0.00136187
0.010624
0.00567294
0.0101788
0.0636758
0.0341904
0.00183854
0.00163842
0.010452
0.0113619
1.22026e-08
0.000528002
0.000427672
0.00035587
0.000419497
0.000637651
0.138543
0.000273265
0.00289635
0.000398953
0.00307719
0.00201979
0.00221777
4.55685e-10
0.479035
0.0314885
0.184886
0.148168
0.00217139
2.01765e-09
0.0065127
0.00125199
2.83884e-05
0.000761567
0.0854594
9.18534e-10
0.00178709
6.98679e-05
0.000207827
0.0166464
4.75984e-05
0.00854126
5.34538e-05
6.48628e-05
0.00164977
0.000621662
0.0011383
0.0129617
2.93788e-05
0.00244191
0.00138419
0.0180423
4.81911e-09
0.000502802
0.00149892
0.0152402
0.00164902
0.000166106
0.0022656
0.0313308
0.000499978
0.00019646
3.08396e-05
0.00148123
0.00177412
0.00303798
1.44852e-08
2.92745e-05
2.45917e-05
0.000298098
0.00380767
0.00135493
8.21904e-08
0.00269372
8.5209e-10
0.0107296
0.00108926
0.000804562
0.00191725
0.00173058
0.00953962
0.000579427
0.0137632
0.000305602
0.0004233
1.17625e-09
0.000378709
0.000405404
0.000581334
0.00196211
5.0621e-07
0.00163229
0.00947308
0.00172598
0.000460525
0.018892
0.00225151
0.00130936
0.0145338
0.00750226
0.012261
0.0131032
0.00624357
1.64018e-07
0.32259
0.0622817
0.000811893
0.000573402
0.0147721
0.000911629
0.0242325
0.000103676
0.000403307
0.0143229
5.67369e-06
0.00678267
0.000614674
0.000132032
0.00756985
1.66487e-05
0.0312462
0.35666
0.00114708
0.0575757
8.4163e-10
0.000256112
0.00435172
1.67699e-06
0.103807
0.00244213
0.00167724
0.000472371
2.46463e-09
0.0033933
0.00279619
5.19011e-10
0.000489102
0.0259485
0.000618779
5.75966e-05
0.0619287
5.13106e-07
0.00273548
7.68813e-11
0.000345773
0.00240566
0.000153094
1.17758e-09
0.00218535
1.11165e-08
0.00250849
0.000524005
1.87613e-09
7.87784e-08
0.00438782
0.0020994
0.00279717
5.47705e-10
0.0022154
0.000628639
0.00279793
5.06658e-05
0.0316224
4.58802e-08
5.71813e-05
2.74823e-09
0.00164416
0.037213
5.04056e-09
2.79704e-07
0.000274721
0.00254562
0.000453093
0.00197176
0.295914
2.56818e-09
0.000231869
0.00232253
9.24468e-10
3.74732e-09
3.97686e-08
0.000176086
0.000502528
0.000849125
0.000529724
0.000105958
0.000197036
5.86285e-11
0.0114219
0.000221105
0.000394063
0.00148043
0.0039482
0.00385788
0.0445436
3.10845e-10
0.000172447
0.000122949
8.52598e-05
0.000107121
0.00277852
0.000620039
0.000514076
0.00012018
0.000348221
0.000381678
1.11662e-05
4.26957e-08
8.38587e-05
0.0226528
1.88496e-08
0.00849659
0.000123492
0.0155176
0.00113899
0.000118512
4.68611e-05
0.00432967
2.80883e-05
0.00409057
0.019288
0.00222073
6.13154e-05
2.55124e-05
0.000149675
0.000861587
0.000348689
0.00386242
0.0164231
7.17507e-05
0.0103875
4.65251e-06
0.878078
0.442165
0.000109
0.0414986
9.71553e-05
0.000391341
0.00939525
1.04031e-05
0.600423
0.0442433
0.0075546
0.000622646
0.0283345
0.393983
0.00291627
0.0250152
0.00437144
0.00222865
0.127079
0.0441107
0.000577176
0.000949064
0.0260799
0.0486719
0.00413857
0.000309159
0.0328771
0.000205852
0.0141265
1.09957e-08
1.11598e-05
0.00660971
0.000213988
0.00421588
0.00392952
0.00012521
0.000130019
0.000295657
1.08418e-09
0.00781755
0.00605984
2.80185e-09
0.000442532
0.00171379
0.00222387
0.00405174
0.000384407
0.0115689
0.0630884
4.58965e-07
0.0332255
0.000139983
0.00431277
0.000144068
0.00223932
0.0302878
0.00413547
0.000222498
0.0271087
0.000305768
7.61887e-05
0.000365968
0.000259125
0.000626657
0.00757085
0.0258084
0.0147364
0.0073731
0.00550781
0.00105388
0.000133067
8.06869e-05
0.000136465
0.00413615
2.78697e-06
0.00482127
3.51543e-07
3.58112e-06
0.00159395
0.00144803
0.00175697
5.68578e-05
0.0103011
0.00187362
2.21643e-06
0.0033709
0.000276118
0.00180007
0.000459335
0.00679596
0.00231247
0.00503535
0.000440376
0.00635237
0.00229023
4.34755e-05
0.00238885
0.00312699
0.00180928
0.00153634
4.4201e-09
4.71631e-05
8.89585e-05
0.0346437
0.0017957
0.00703148
0.0018399
0.000176769
0.0033445
0.00837805
0.002281
0.00250686
0.00362039
1.24399e-06
0.00165492
0.00189364
0.000365526
4.1906e-05
0.00300291
0.00262019
0.00798565
0.0288944
0.00167168
8.12307e-05
0.00300953
0.000330035
0.00425858
7.57528e-05
0.00615854
0.000349118
0.00278281
2.8505e-05
0.000732885
0.000930211
0.00721397
6.17339e-05
0.0199227
0.0061619
0.00023798
0.0013904
0.00158899
0.000252466
2.91183e-05
0.00248609
0.0219114
3.37129e-06
0.0378169
0.00208456
7.2492e-08
0.000109187
0.00188556
1.01723e-05
0.000870676
0.013796
0.0230848
0.00208918
0.0117718
0.00155156
7.64236e-05
0.00439863
0.0145407
0.000447281
0.00157785
2.4855e-05
0.0829146
0.041934
0.000104408
0.0024077
0.00149692
7.79627e-06
0.000113586
0.0337623
0.00856907
0.0158569
3.87529e-05
0.00100564
2.86145e-05
0.0192875
2.49243e-09
0.00338264
2.54048e-05
0.00104614
0.0202135
7.42463e-05
0.00039974
0.00433185
0.00147501
0.00257612
0.0015554
0.0234558
0.000228244
0.00201341
0.020006
2.05325e-05
0.000410058
0.000432859
0.000365556
0.0023694
0.0134328
0.000465894
2.30299e-08
5.23621e-05
0.00141095
1.45947e-06
5.67138e-06
2.09252e-05
2.64714e-09
2.64083e-05
3.66973e-05
0.0116973
0.0050037
0.000370626
0.000460461
0.000294196
0.0622465
3.79782e-05
4.9965e-09
0.0180909
0.00279808
0.00186031
0.00331674
0.000518434
1.49299e-07
0.0184647
0.0021667
0.0229624
0.000773856
0.0495814
0.0142049
0.000125486
0.0257278
0.00326283
0.0894892
0.00748646
5.65126e-09
3.55997e-05
0.25669
0.00673036
0.000996278
0.00309966
0.000160985
0.00332178
0.0308685
0.0108598
0.00292104
0.14439
0.00634964
1.35892e-09
0.0178088
0.0638932
0.0347365
0.00132732
0.00256381
0.000211051
0.00282883
0.00067221
0.018988
0.019729
0.000894214
0.0521939
0.0229749
0.000624336
0.00253889
0.0136698
0.00324551
0.000703402
0.0503854
0.00261396
0.000111421
0.0108427
0.0108184
0.0217846
0.00258701
0.000270633
0.00280529
0.0163079
0.000358076
9.39814e-05
0.173176
0.00335485
0.00122716
0.00160023
4.66456e-05
0.00435279
2.65214e-09
0.018597
0.00253517
0.0140842
3.28789e-05
0.00552829
1.12524e-08
0.0164561
0.000301484
0.000118476
0.00868825
0.00244245
0.00668513
0.00772213
0.00207116
0.0158553
0.00013432
0.0156203
0.00663928
0.00924505
0.0564606
0.00557491
0.0290787
0.0344868
0.0169715
0.00114016
0.00453315
0.00265294
0.000985199
0.000917316
0.00397789
0.00222146
0.000645555
8.95832e-06
3.31357e-05
0.00237296
0.00133869
0.00127898
0.0536391
0.0032516
0.00269893
0.000110394
2.36644e-05
0.000451813
8.85034e-06
0.00258616
0.0298223
0.00254047
0.00192693
5.24079e-05
0.0170508
0.00255103
3.28814e-05
1.90795e-06
0.000216648
0.0347445
0.00679647
0.000515805
0.00230392
0.00447497
0.000219453
8.83098e-05
0.00487771
0.000429645
1.55053e-05
8.47594e-05
2.55909e-05
0.00187305
0.00221627
0.00104366
0.00861928
0.102804
0.000243309
1.81622e-05
0.00356688
0.000327901
0.0111094
0.00241132
5.35074e-05
5.163e-05
0.00319915
4.84757e-05
0.0101102
0.0730305
0.0454089
0.00017217
0.000524899
8.90686e-06
0.000115247
0.00263452
0.00392846
0.000451037
0.00273327
0.0142696
0.00194165
0.000277016
0.0023099
0.000433073
0.0298236
9.25709e-07
3.6998e-08
0.0109932
0.00234369
0.000565668
0.00462602
0.000613202
0.000106177
0.000513564
0.0024778
0.0227037
4.00514e-05
0.000114408
0.000300535
0.00702398
7.85148e-05
0.000696757
0.000108713
0.00128487
0.00965012
3.65549e-05
0.0285778
1.03028e-09
5.10353e-05
0.00236818
7.5318e-05
0.000338677
0.00345542
0.00119089
0.00237169
9.32984e-06
0.0018107
3.6458e-05
7.5858e-05
0.00226727
0.00330867
0.00329089
0.29997
0.00173058
0.00095263
0.00223776
0.00295719
0.000283951
0.000246355
0.00372416
0.0021546
0.00309042
7.05107e-05
0.000904709
0.0139877
0.00279201
0.111971
0.000864451
0.0101652
0.0102688
0.0124199
0.00126104
3.17899e-05
8.0181e-05
9.50745e-05
0.000101402
5.0699e-09
0.000257473
0.0116629
2.68547e-11
3.36269e-09
0.00375839
2.30533e-05
3.23293e-05
0.0148779
0.00192444
0.00290922
0.00190821
0.00227806
5.07801e-05
0.00159277
4.25098e-05
0.0241944
0.0134486
0.0101518
0.00191563
0.000139853
0.00158534
0.000292832
5.83414e-06
4.1896e-05
1.41433e-07
0.0016894
0.0110623
0.00694646
0.00145656
0.00179173
0.00219807
0.00232458
0.0017668
0.000342105
0.00412037
8.39865e-06
4.07078e-05
7.59642e-09
5.03243e-05
0.00276764
6.73586e-05
0.000334382
0.00227722
5.32607e-05
9.9977e-05
7.1316e-06
3.1551e-06
0.0532873
0.000489617
0.000678734
3.6348e-05
0.00284267
0.0022121
0.00185485
0.00343718
3.87548e-05
7.52664e-07
0.00105424
2.76034e-05
0.0194734
0.0032124
0.0241845
0.00159117
0.0511788
0.000104909
0.00110645
0.00023646
4.18234e-08
0.00373427
7.5958e-05
0.00133676
0.000103774
0.00221768
0.0193212
0.00166101
0.00232907
0.00878252
0.00239367
0.0108372
0.00359096
0.00163511
0.000932979
0.00504257
0.0296435
0.000303032
5.12919e-10
0.0632969
0.00891147
0.00651181
4.24251e-05
0.0652158
0.00193559
0.0151392
3.2332e-05
0.0172185
0.0032542
0.00136145
0.0023717
0.00235334
5.49554e-06
0.0403906
0.0144701
0.0145862
0.00303726
0.00232124
0.00159473
0.00321598
0.000929112
0.000103779
0.00160693
0.00303406
3.76408e-07
0.000130807
0.00169066
0.0363353
0.00308202
0.000347414
9.56142e-08
0.000406626
0.00169281
0.000456554
0.00151493
0.000732301
1.45605e-06
0.0140913
0.000252097
0.000667589
0.0020599
0.00125188
0.000130539
7.50623e-05
0.000176143
0.0020508
0.0028449
1.35066e-05
0.000108594
0.000672759
0.000103132
1.25943e-06
0.0167125
0.000217309
0.00328482
0.00152992
0.00150467
0.00211244
0.00695218
0.00424859
0.000592596
0.00398124
7.15525e-05
0.0022817
0.00434266
9.49175e-06
0.00748306
0.000392123
0.00296585
0.00187072
0.0998806
5.45144e-05
0.000193481
0.000518506
3.77654e-05
0.00137832
0.00287015
0.00019947
1.63221e-05
0.00137644
0.00539468
0.000582951
0.00287194
1.10476e-06
0.000464531
0.00952569
0.00241575
0.000140938
0.00214476
2.48059e-05
0.0041986
0.00338216
2.16696e-05
0.000292256
0.00352903
0.000101456
8.51042e-07
0.000344637
0.000199434
0.12027
6.99896e-06
0.000565123
0.00323542
0.00010564
0.0118077
8.43113e-06
0.00274194
0.000120931
7.96647e-05
0.000525093
1.84858e-05
0.000206396
0.00295146
3.85992e-06
0.000108813
0.000122694
0.0184895
0.000601844
0.000357396
0.000356623
0.00217769
4.47819e-05
0.00311725
0.00457132
3.06574e-05
0.00036067
3.0094e-06
0.00116761
1.47519e-05
0.0124874
0.000291034
0.00152613
0.00218922
0.000127265
0.0847247
0.000379452
0.00306167
0.00110992
4.82793e-08
0.00236976
0.00498813
0.0267394
0.0112136
0.000410461
3.08588e-05
0.0380919
0.039873
0.000563894
0.0179768
0.00842884
0.000393502
0.000130037
0.00063651
0.000341714
0.000317716
0.000460459
0.00432628
1.51286e-05
0.000162659
2.69167e-05
5.76402e-05
0.00603559
7.74474e-05
0.00247014
3.91619e-05
1.38743e-08
0.00019337
1.21993e-07
1.66185e-09
1.00138
0.00018394
0.0194018
0.00305761
1.10681e-05
0.00029709
0.0176857
0.00188649
1.99191e-05
0.00238245
0.00566661
3.69987e-08
5.40849e-06
0.000396468
1.69765e-05
0.00222803
0.000555209
0.00247724
0.00486923
5.81561e-06
6.96214e-05
0.0196868
0.00283457
0.00306297
0.000394486
0.00355625
9.62678e-05
9.35209e-05
0.00237165
0.00931025
0.0126524
0.00603835
0.000757177
0.000178567
0.00252929
0.00190401
0.0020202
0.00266824
0.000229056
0.000310639
0.00366732
0.00169083
0.00332985
0.0027087
0.000751791
0.00464371
1.08504e-09
1.47346e-09
0.0227213
1.10985e-05
0.000908737
0.00209642
0.00329953
0.00983173
0.0038522
8.86365e-05
0.00715018
0.00316027
0.000125234
0.00326534
4.38193e-06
1.27134e-05
1.75419e-05
0.00361062
0.0129755
4.63665e-08
0.00604106
0.00159077
0.150731
0.000168144
0.00373096
3.06386e-05
0.0121088
1.14547e-05
8.48254e-05
2.58402e-05
0.0221448
1.20364e-05
0.00275012
0.00260825
0.00311649
0.00675035
0.00215726
0.00220364
0.0168425
0.00687903
5.47676e-05
3.78602e-05
0.0123094
0.000136111
4.45341e-05
0.00189963
0.00359493
0.00188932
2.10339e-05
0.000111467
0.00467568
0.00326838
0.00206844
2.78737e-05
0.00320012
0.00189152
0.00062497
7.56052e-05
2.53866e-06
0.00269708
0.0186494
0.00284644
0.00155784
0.00707384
0.000491092
0.0313899
0.00131926
0.00746312
0.000253003
1.0419e-05
0.000235918
2.74774e-05
0.000447562
5.94831e-06
2.70323e-08
0.003656
0.000153704
0.037387
0.000767359
0.00784518
0.0021405
0.00743567
0.00331561
0.0149205
0.0174461
0.0014086
0.00973577
1.05272e-05
0.000373809
0.00130015
0.00182191
0.000217971
0.00404256
6.17421e-05
0.00307677
0.000101405
0.00264465
2.11279e-05
0.00265536
0.00133716
0.000427421
0.026627
0.00016144
0.00130572
3.39744e-05
3.10988e-05
0.000138478
0.00542171
0.0024578
0.00202133
3.44603e-05
0.00159775
0.00312947
0.000252641
0.015692
0.0132445
6.17052e-09
0.000209095
0.00174113
0.000100126
0.000287258
0.000471622
0.00045131
2.37978e-05
0.00320115
0.000451704
0.00531182
0.000526653
0.0011577
0.000541527
0.00838118
0.00526539
0.00879434
2.06697e-05
0.0540056
0.0219527
0.0971649
0.00186408
0.000146105
3.703e-05
0.000298078
0.00673968
0.0100753
0.0299868
0.0246756
9.17868e-06
1.57128e-05
0.00776092
0.00040085
0.017453
0.301643
0.0176995
0.000345832
0.000448396
0.0159649
0.00160539
0.000242961
0.000724965
0.162505
1.3688
6.94535e-05
1.06771e-06
6.39722e-05
0.004835
0.00104712
0.00185432
0.00268959
0.00197078
0.00439252
0.000882041
0.00222063
3.11304e-05
0.00255971
0.00263984
0.00256357
0.000444746
2.80106e-05
9.1277e-07
0.00469365
0.0145687
0.0040329
0.00249347
1.09165e-05
0.00159757
0.00132265
6.60343e-05
3.00557e-05
0.00866521
5.21162e-09
0.0312655
0.000107236
0.0486273
0.0149661
0.00024619
0.0049573
1.00842e-05
0.00235843
0.000137151
0.000871166
0.0836965
1.12519e-05
3.11016e-08
8.25864e-06
0.00388109
0.00341792
0.00150645
0.0010046
0.000977144
0.00126303
0.00104044
0.0018214
6.39446e-05
0.0680915
0.0265357
0.00284835
0.00150489
0.00287904
0.0669501
0.0119853
0.0041146
0.000287149
0.00723616
0.0026835
8.17705e-05
5.18653e-05
0.00481901
0.00681565
0.0172367
0.00521606
5.87187e-05
0.00456296
0.0374541
0.0243392
0.00323967
7.66259e-05
2.89905e-05
0.0397844