/*--------------------------------*- C++ -*----------------------------------*\
  =========                 |
  \\      /  F ield         | OpenFOAM: The Open Source CFD Toolbox
   \\    /   O peration     | Website:  https://openfoam.org
    \\  /    A nd           | Version:  10
     \\/     M anipulation  |
\*---------------------------------------------------------------------------*/
FoamFile
{
    format      ascii;
    class       volScalarField;
    location    "3.6";
    object      p;
}
// * * * * * * * * * * * * * * * * * * * * * * * * * * * * * * * * * * * * * //

dimensions      [0 2 -2 0 0 0 0];

internalField   nonuniform List<scalar> 
111485
(
33.0062
3.82997
4.4496
32.8736
4.58855
32.3103
3.89512
3.41048
3.91367
5.69233
3.8571
4.93591
3.93284
3.8131
3.94482
4.01511
1.32579
35.1422
3.91722
32.8236
32.7907
32.4419
3.93405
4.01565
4.59728
32.4934
5.48885
2.29707
4.44417
33.0944
7.31811
0.926124
32.9114
32.8031
34.6122
32.9549
7.30466
0.354866
8.6071
4.07305
33.0869
5.68156
4.07415
6.52862
7.62088
33.4313
6.18071
4.0009
5.67674
32.6648
32.6549
31.1798
32.6803
6.62485
32.6952
2.49051
3.96548
33.1015
6.04842
4.05884
4.06968
33.0048
3.183
7.13895
32.1023
2.79908
24.049
3.61327
3.16168
3.42307
7.64694
2.87761
31.953
3.15008
33.2681
1.69141
32.5282
5.46011
32.4372
33.2755
7.38342
6.33469
32.6267
33.2066
3.15909
4.18071
14.2912
6.64762
7.53371
1.23577
7.79579
4.19558
3.17968
0.580183
5.67524
33.1975
33.0124
6.66948
6.29458
7.22773
32.9584
5.5282
32.936
5.37779
3.6844
32.8477
32.8836
1.08494
4.27
7.3888
0.775498
2.89237
4.20114
5.12323
32.4881
1.61657
32.5784
33.0851
3.17718
32.8306
32.4877
29.0364
32.6317
33.1066
5.93486
35.6108
28.9303
1.24414
33.2979
9.86809
7.21285
6.65836
33.2592
28.5786
29.4601
3.80824
32.5555
1.70299
3.47473
3.55032
5.68433
3.51476
3.50882
4.38519
6.00002
0.24362
32.5523
33.1728
32.9912
3.68108
4.39492
32.7885
7.35992
0.0378519
6.64113
3.68395
3.65769
3.94771
7.0571
33.3784
32.8764
3.67632
4.37857
7.18432
6.85033
1.47323
7.04991
33.1616
7.3066
7.40546
32.9788
33.1491
4.75098
32.7442
0.343766
0.0697904
32.2392
31.889
32.5575
32.593
31.8094
32.8657
3.70659
3.74062
3.63098
0.225724
5.46417
2.03153
7.32336
32.9459
1.7425
31.8848
33.0041
2.0599
5.66084
7.0566
2.67994
0.251009
33.2693
3.75707
4.34832
24.7947
6.34148
1.18446
33.302
2.06774
5.2222
31.871
7.00273
6.15841
4.35087
1.99376
31.7811
33.0479
2.03011
23.881
6.65896
32.7256
2.06002
1.76956
5.77058
33.3903
2.25481
6.88425
26.9881
32.7384
32.9897
7.69715
6.85695
32.3032
30.5781
1.78915
0.508873
2.56575
32.2883
32.2188
7.17006
33.2883
3.68831
1.76866
1.78141
1.75366
1.77519
33.0091
7.44376
1.38192
33.0561
32.6096
6.61615
2.90258
32.4541
0.8766
1.33502
33.1637
28.127
6.26384
32.5863
32.7989
30.228
32.6915
1.56646
1.71849
0.116245
33.4104
1.3588
32.8915
32.9897
33.3137
7.22276
5.46659
3.03154
3.08797
5.11636
3.03132
3.0829
7.50571
0.486577
0.527855
31.9751
33.1477
7.55762
1.08906
5.50307
0.596346
32.8499
3.09571
3.74424
3.02478
5.24838
7.48922
2.98624
3.04789
6.31559
33.1007
5.40522
32.7472
35.1936
32.9971
7.68307
5.12671
4.0037
32.6223
33.262
2.41613
0.803187
32.7732
33.0577
32.7136
1.72431
0.550697
3.65418
3.80429
4.12841
30.774
32.9114
33.2306
2.39953
18.2646
4.00853
7.54849
7.10801
32.6152
32.9909
33.0102
29.4338
2.57684
4.55475
33.0726
2.55104
32.4217
32.5215
6.80872
2.56947
5.08325
2.53082
33.0409
29.3341
32.9959
2.55316
0.166513
7.37314
32.2467
10.4284
7.20578
4.60824
2.30232
12.6331
4.15845
32.5044
4.16501
2.60149
7.50065
6.77089
4.63339
32.8462
33.2369
32.9321
32.8873
3.61762
2.22284
5.0517
4.16787
32.8491
4.84043
32.9097
33.0328
4.16171
33.2215
29.588
33.5037
32.9697
3.70802
33.1054
0.144421
4.80802
32.4432
3.32881
2.68078
32.6657
2.62773
4.887
2.65047
7.03535
0.311643
0.548577
33.0756
33.1699
6.52198
33.1039
5.04347
6.85948
32.1913
33.0389
2.50543
4.92163
0.416358
4.84198
32.536
7.29363
4.91568
32.26
6.5197
4.92789
33.0486
32.8479
0.151749
4.56525
32.9993
32.59
26.1732
32.9521
4.67805
32.7281
32.9317
4.93525
7.25819
6.05098
4.59578
32.3296
29.4868
6.58166
29.8056
6.51509
6.63975
5.64685
24.5836
30.0449
-0.590019
7.48592
33.0838
6.75258
4.81756
33.3908
7.28224
5.76598
29.9101
5.08616
4.91355
0.345336
32.3768
0.980324
5.17965
0.356505
7.76954
28.8769
6.5854
33.2448
7.39889
-0.278986
32.9692
5.0791
6.27341
28.3208
33.3988
31.1297
32.7841
4.61578
0.435125
5.02367
5.07944
6.98374
32.7456
5.02252
33.0448
4.61211
32.1917
33.0344
33.1873
5.06251
33.1898
33.0442
34.0349
33.0119
33.0348
6.28198
33.1059
31.3026
32.9048
33.0232
32.2838
33.2579
32.4766
5.09748
32.9075
6.32976
5.2143
8.20229
32.2412
6.33775
32.9309
32.9979
5.08644
5.07971
5.20447
7.52776
31.0628
5.82592
5.82389
0.371567
0.553359
5.22523
33.1408
0.31467
28.3522
5.96315
32.7734
5.88264
29.0319
0.714569
5.03497
33.5858
33.0991
0.519935
32.7438
5.81207
5.82585
33.0441
32.956
32.8703
32.9457
5.51237
5.78624
32.0939
33.0911
4.58607
32.4474
5.81025
32.5075
6.10191
33.0084
5.72657
5.85749
2.67805
0.679672
32.1026
-0.247605
32.183
32.7847
5.34256
32.7869
5.75743
32.896
5.92047
33.1131
5.43742
32.7769
29.9507
8.10741
5.31704
5.77768
5.38828
5.75067
4.95043
32.9789
5.77004
5.36475
32.6969
7.7523
7.16217
5.82336
32.2772
32.9704
4.60852
5.90159
19.9084
31.8519
5.33412
4.57306
5.48526
5.50369
1.04302
16.3966
29.6646
6.29886
18.1394
32.8944
5.81484
33.1097
30.0526
1.23734
16.2704
6.28932
12.8483
29.6644
5.50377
4.57055
32.2405
31.3214
4.5614
32.6621
32.4293
32.4788
32.2054
5.53428
32.9039
33.1847
5.59562
1.81918
26.6642
4.46435
31.004
1.77279
32.6737
32.9949
5.54716
32.7664
32.2535
29.9506
0.25506
22.9459
5.62896
1.24105
32.6612
7.76659
5.55792
4.71063
7.16013
9.38337
4.59587
32.8022
5.67314
4.70839
33.324
2.72698
6.3683
4.82673
0.233149
4.82949
4.82473
33.2779
5.8246
7.00755
29.8731
4.82286
5.87732
23.5407
1.23766
4.82481
5.88455
5.13885
5.14249
1.23999
32.4723
5.14204
5.75982
33.4139
5.44568
5.4313
1.31228
32.8
0.265309
33.3937
32.5791
32.8769
32.2016
4.71076
30.2224
5.29934
33.0257
32.1307
5.478
5.47609
32.7369
5.80005
32.9984
33.3018
32.6945
5.9293
5.84301
30.033
33.2428
32.7702
32.8178
7.1764
1.31405
29.4823
5.34818
7.27244
33.036
5.36925
6.16709
0.863827
32.3925
32.7268
2.82243
1.30184
29.8368
32.9668
32.0471
2.09539
33.1674
32.6207
32.7105
5.30649
4.25309
32.4528
34.2343
33.4127
1.05263
33.0788
32.2779
5.99601
7.18991
29.7813
26.7428
11.99
6.10285
0.035268
31.9247
4.493
6.30715
33.1028
32.6652
32.5696
32.746
32.9275
32.4824
5.35404
32.9953
32.5664
32.273
5.35081
1.28806
32.5574
32.7079
6.10938
1.29721
1.35873
32.6542
32.5832
1.31959
33.1847
5.3422
1.28821
1.36862
32.4922
32.9546
32.9529
32.8434
4.63099
32.613
32.4928
6.65018
32.9404
2.2274
6.30854
32.1103
1.26172
32.3797
2.20808
5.56546
5.7152
6.06242
4.94859
30.7633
2.1884
6.12806
0.0504064
32.4683
2.44291
30.2105
0.41515
32.8707
6.31095
6.18006
6.29778
32.9778
32.974
33.4047
1.29617
31.0101
0.77725
31.4756
4.15361
0.399681
0.907877
1.31289
32.4974
32.2256
31.9811
1.31871
32.2456
30.7686
7.82717
33.0719
33.0833
32.9522
32.5784
0.92538
31.9668
32.7236
4.10388
30.9469
33.1404
29.8746
32.689
6.25352
0.899384
32.7963
4.62173
11.8911
6.28692
7.46354
1.14938
32.9503
5.59422
7.20958
6.28599
33.2203
1.20327
0.930327
28.4565
0.773621
7.54544
7.86202
3.35551
0.669058
7.60885
0.253037
0.831761
32.7902
32.2085
0.630314
0.605665
33.0204
0.645692
5.01892
0.827056
32.1179
7.75522
32.8623
0.84923
0.803567
32.361
0.207071
0.834096
7.66713
0.127087
31.9666
3.65483
7.70241
8.31411
7.61699
6.78998
32.7812
32.8891
6.67956
32.5677
5.21493
6.77233
29.016
7.07636
6.01073
7.6073
32.5831
28.2001
1.91395
33.2944
37.131
6.7619
32.1922
32.3131
6.32338
5.8384
32.5724
7.81251
32.7407
32.7651
33.3162
33.0093
32.7485
33.1739
6.88191
32.1745
32.9804
33.0498
4.17024
6.92107
4.26788
1.88949
32.4304
32.2388
7.06058
32.672
32.3206
26.43
6.90954
2.44888
32.4071
32.2797
32.2425
32.28
32.7941
32.245
6.96017
32.2516
7.57526
4.14062
32.8143
33.0091
32.6933
7.79186
32.6722
32.8818
32.8725
7.59652
32.882
6.95974
7.25022
7.55371
32.4571
24.5074
7.05393
3.98451
31.7922
7.60327
5.89335
32.6561
31.9574
29.3594
32.2823
1.90911
3.61301
7.14758
7.29469
32.3755
1.89468
31.846
29.5645
29.2311
32.9894
3.29031
32.7027
32.7158
7.41273
2.44534
32.7102
5.77776
31.0929
7.10275
33.0533
32.7782
32.8439
32.9277
0.926351
3.59673
9.7457
32.4003
32.2282
0.892551
32.5723
30.3065
33.0191
5.28696
7.29233
4.67007
32.6002
7.47417
7.46195
33.7962
7.48964
32.2147
6.53581
5.89195
3.47661
7.39136
7.15348
32.6224
32.7509
32.7517
7.45019
33.3061
7.44713
33.3489
10.7303
32.6031
4.02232
4.15848
32.7268
32.5317
32.7626
33.0833
7.43535
32.7774
29.3849
0.879329
7.45769
32.8251
30.2003
32.1372
30.2632
32.1988
32.6395
7.49746
5.97489
32.8701
32.5236
6.58132
33.0377
7.49816
0.933339
32.2993
6.66658
32.9412
0.566424
32.1677
4.44361
32.3446
6.85904
7.34469
7.56701
6.68003
6.66642
22.9828
31.8314
6.76883
32.6613
3.27259
32.6924
32.9848
31.5786
32.9312
33.0438
33.0118
6.636
6.60752
32.9452
28.6113
32.6489
6.74098
7.77135
33.0514
3.30184
7.65586
32.6958
1.19921
0.842504
3.12825
7.59451
32.5676
32.6905
32.9012
32.4972
3.3097
32.7191
6.83399
32.6485
6.85689
4.47031
32.8877
6.7927
32.975
32.5434
6.87088
7.14125
15.0869
32.651
32.7371
32.2536
3.41226
31.625
33.4858
31.7832
11.4775
29.2445
6.98335
30.1889
31.6704
32.1356
1.02278
0.876423
5.00351
3.73995
33.2947
6.86084
32.7878
33.0188
0.89048
32.0951
6.71203
6.83888
0.70602
6.94017
5.57567
4.9048
32.96
4.15901
-0.0670905
5.99237
7.06536
2.53483
25.4516
32.9906
4.76205
32.6627
32.3
7.81544
5.67474
5.41679
32.7395
32.3029
7.36543
32.6928
32.1729
6.94714
32.7386
32.7171
3.17809
6.95861
7.03024
3.02423
1.54251
32.2375
32.6121
7.64974
2.92801
32.475
32.7237
5.12793
32.2261
28.4824
29.3504
29.4792
22.1051
28.6013
32.4814
4.85856
32.2385
7.03596
32.3499
19.3262
32.2723
32.2041
32.971
32.5644
4.54653
32.5744
32.5639
29.8552
32.2927
32.956
32.7599
2.78129
32.6347
2.52523
7.07021
32.2098
4.99803
32.4256
6.06717
7.61589
0.686931
0.726109
32.4859
0.77264
4.54777
7.54175
33.3
7.16172
2.2145
0.382814
31.1352
0.463446
32.2903
32.9534
32.3292
32.4578
0.464857
32.7411
32.3001
0.373459
7.07712
0.344872
33.0479
25.3077
4.94637
32.8708
7.50897
32.6852
0.734611
32.1245
32.1831
4.85563
32.3348
7.38011
33.0333
32.3479
2.19764
6.20494
1.62538
3.51831
7.82724
2.80818
32.3594
33.1597
4.22427
1.67239
2.76416
7.17181
32.5722
2.54375
32.5319
32.4443
4.19964
7.30596
32.2376
1.71524
32.9238
1.64073
1.52076
31.9299
32.4659
32.843
4.20258
32.7304
32.7332
4.21977
1.62925
7.03013
0.446265
32.4146
32.947
5.27491
4.27305
32.3822
4.19885
32.3309
4.17583
32.4316
32.386
4.13323
32.5842
5.91977
3.88971
32.2421
32.4701
3.8356
28.3886
4.71399
32.994
7.06287
33.0509
28.6899
28.0156
3.93569
29.9729
29.7167
3.59227
29.6206
21.4014
28.0537
32.2494
32.6614
7.4748
4.6968
32.8347
32.7829
4.57745
4.65532
32.2457
4.2526
32.4903
32.6697
5.36132
5.09935
0.442312
32.4168
32.7952
32.7397
32.5651
32.1912
32.2066
32.786
32.2387
32.2731
32.4672
32.7503
32.6643
32.6436
32.3948
32.286
32.4903
32.3904
32.4689
32.6026
32.7618
33.1247
4.75384
32.6929
32.3979
33.0308
3.25691
33.1233
32.6626
17.5426
32.0458
31.7511
3.2806
33.7384
31.8595
19.1312
3.29338
32.6451
28.9691
30.4877
32.3077
6.51078
3.30161
3.32309
3.16568
1.9916
32.7058
32.3115
2.46311
2.58699
3.15021
32.5201
2.93475
6.32612
3.17206
0.55336
0.617941
3.17749
1.06411
3.15042
33.3381
3.58311
2.93504
4.44723
2.93112
32.8486
32.7655
32.9372
32.9451
32.8328
2.56268
2.97212
32.8344
32.2818
32.2411
32.5716
32.3365
32.7013
32.1225
32.6645
2.93117
7.7654
2.96287
4.9152
32.0813
32.0035
6.42701
7.6095
32.4565
32.5673
4.65579
33.3787
32.7053
3.00466
2.87398
2.92445
4.65235
6.39118
32.7397
0.0833806
3.50024
29.3914
32.6706
3.43917
32.7001
32.1932
15.8875
12.45
4.90377
32.4315
33.2649
7.25287
3.55056
0.133744
2.58137
18.8524
32.9544
6.83662
33.4256
33.3452
31.8421
4.57407
32.3241
2.56538
0.13529
3.40047
3.52907
33.1588
2.25981
33.2197
31.5375
33.1647
32.5795
0.856274
22.1952
32.5759
32.8524
33.8049
2.58208
29.2511
2.31559
2.58087
0.841514
2.58646
32.5846
32.4473
28.9592
4.55176
1.97088
5.71604
32.666
32.9993
29.137
6.52547
4.81382
32.568
1.83923
16.1737
3.54896
1.94248
32.9035
28.5874
1.95106
2.56493
32.7781
5.70963
5.51494
4.86118
2.221
2.03416
2.13707
29.394
0.804415
2.08992
1.79843
32.911
3.40508
29.6555
4.47529
2.18315
33.4034
0.585316
2.076
2.26742
2.73659
35.1903
15.0177
7.12511
21.5484
2.08848
31.6629
0.684986
2.08283
32.5809
32.6084
7.45213
7.67304
3.00721
35.0113
4.9899
7.65469
5.24262
7.25858
32.5356
33.393
2.55179
33.8093
2.31396
7.49329
2.09804
0.689925
32.8072
6.0522
2.53151
32.6386
29.6753
1.64824
33.1883
1.65756
1.5526
33.0181
35.1094
3.57164
32.7194
32.401
33.1145
0.684403
8.60102
4.58427
33.4899
4.45045
1.14478
32.176
1.14241
1.21079
0.739978
7.64589
32.4926
2.28053
0.601838
1.19318
1.17183
0.760658
7.45678
4.12598
32.9922
-0.0290677
0.826578
32.9064
1.19185
33.028
32.7174
33.25
33.1045
32.8442
6.54883
32.9256
1.14781
5.28812
33.3283
5.16786
32.5658
0.829637
32.6491
7.37124
31.7544
4.29254
6.79773
7.69564
1.28404
0.824074
4.44
0.74494
1.30978
16.8453
1.27167
2.84325
1.30584
33.3223
2.60751
7.72021
1.29103
3.96887
7.6288
33.2958
29.3677
32.5819
4.50473
32.824
27.1823
0.817992
33.9059
5.53131
32.612
33.186
32.5729
2.81706
4.76815
1.38407
6.86521
0.700744
2.41212
2.33557
2.88294
0.927445
2.31334
2.39302
32.7666
32.7757
33.381
3.56109
2.54563
32.1867
32.5693
27.557
2.38358
0.961774
32.7812
2.39398
33.0495
7.29098
4.53079
7.06477
32.8989
33.0104
2.81796
32.9407
5.93281
1.26724
31.4684
3.19089
3.98122
0.55898
32.5846
7.17912
30.0087
5.63659
4.57318
32.9177
33.3021
1.22276
25.6031
33.2648
1.62029
0.648736
32.9874
32.5454
29.8316
2.32928
27.5146
3.57985
6.46453
5.60856
33.0049
29.7798
6.34472
33.0117
32.7702
33.1284
32.8315
30.1165
31.9439
31.4765
32.6347
32.4542
31.0471
33.9113
31.6894
5.95903
31.7073
28.9545
27.8242
35.4638
29.3468
33.0098
6.47057
30.8949
31.8886
6.63595
33.3419
34.456
32.439
6.48188
33.8359
6.48409
7.03632
5.62713
30.6085
32.7846
6.49888
7.29079
32.401
33.3013
3.55881
30.3474
3.5327
30.1155
32.7424
32.1354
3.53238
3.5091
33.0849
5.0813
32.8201
30.8558
7.31679
1.91273
6.47022
33.0313
3.54119
30.3874
5.43898
32.4855
32.5992
32.392
29.6585
1.88982
2.27114
33.2003
6.1615
32.6486
32.6815
32.6445
32.8408
6.09965
6.07391
2.31012
8.41266
33.2811
4.52288
3.62144
1.75793
6.08503
33.1651
1.8405
6.14594
3.16195
7.38732
3.37503
32.697
4.20698
6.19379
3.56028
6.23804
6.46595
32.6489
6.5488
32.1837
33.037
2.96085
33.2149
4.53311
33.1091
32.7193
31.7955
32.6138
33.2594
6.15642
32.5818
5.16117
30.685
32.8441
4.38082
6.02922
2.41505
4.98953
33.2885
10.7112
33.2049
5.4775
32.7206
4.39292
6.07531
6.19625
5.54949
32.7834
32.8045
32.5041
1.97642
32.8739
32.6259
1.97342
32.0991
32.3319
6.21987
32.7792
3.39953
7.34053
30.5494
31.2186
31.0292
2.28654
3.81717
32.8255
0.0898414
5.33892
30.0712
6.29443
33.1428
2.00632
4.46253
1.79804
32.7931
4.69714
2.47843
6.49062
6.06974
5.183
32.9228
32.9702
7.71418
32.6688
32.4828
33.0644
2.02374
6.32473
2.61549
3.90175
29.6716
4.66717
3.57976
3.8379
4.41817
4.70646
5.79976
5.14305
32.5667
32.5508
32.5523
5.19058
32.8385
5.33128
24.7746
5.1236
6.79914
2.01593
1.01717
32.3431
33.0877
5.13808
5.11187
33.0689
32.607
33.3664
2.18242
5.09657
5.27875
5.33483
0.584606
3.5783
32.6858
33.2235
32.998
0.550849
3.42695
0.0668374
3.92494
2.26891
5.38042
32.3603
32.9921
28.0405
32.2386
0.616982
4.62061
32.9426
32.652
32.7228
33.3233
33.2644
31.8979
5.53268
32.767
6.66825
8.13561
32.2853
5.43802
0.223193
2.10026
33.2787
32.0811
5.50011
32.9343
5.52486
5.10187
2.30946
31.7605
26.4873
32.5078
32.7693
32.6798
31.5599
14.9574
32.6147
5.60649
2.58122
33.0079
32.9829
5.65526
32.6903
32.7227
3.14356
7.52932
32.5974
32.5908
31.8519
1.23659
32.9461
32.9592
12.093
5.6269
5.66661
32.8023
32.2768
30.3163
5.65863
5.61426
5.64629
4.03883
32.4248
1.06525
0.222459
0.280563
32.8661
33.2428
32.9958
33.1618
32.9469
3.14254
3.2214
2.58106
33.3833
33.1325
32.9355
33.0808
32.1838
6.81628
0.669231
0.139332
32.2001
32.9101
33.4925
5.6507
6.34976
7.25291
32.7541
2.56463
33.4982
32.4576
32.9624
3.13843
3.4744
32.6511
32.6058
4.2313
32.9731
2.29863
2.88338
16.8306
32.6303
32.2629
2.33026
6.81114
32.4998
16.2445
0.465969
4.62138
32.7703
32.677
33.339
33.0269
0.672646
1.63502
32.6825
6.84862
5.95611
9.1585
32.8283
32.6813
32.6553
32.6835
4.70591
33.8854
32.8417
32.1723
1.09885
5.22843
1.35828
32.3811
33.2642
5.9729
31.6456
32.9787
32.7013
32.7686
3.33706
31.8866
32.3044
32.3498
1.35444
3.44659
32.6682
33.1829
32.5344
4.02085
33.1782
32.5598
32.5478
33.2102
33.1461
7.79038
4.65046
33.5243
3.69943
4.64817
3.24745
33.364
33.3002
32.9129
33.1939
32.3231
4.3806
32.8304
30.835
31.093
5.95679
31.6605
5.91909
32.9521
32.8374
7.13335
9.44014
30.2136
6.00562
32.823
5.98742
33.4483
32.6368
32.8122
36.0628
32.6494
6.77086
32.6237
3.8978
32.8949
29.8756
33.1661
32.6657
1.26293
5.60164
32.5378
16.6131
33.0836
5.92084
6.7513
5.53844
33.1155
7.29242
5.45586
6.78586
4.73056
6.74841
5.51432
31.91
32.3747
6.44872
1.97955
5.50909
32.6336
31.6472
28.1752
18.4903
33.363
32.2288
33.1943
33.3136
33.3978
33.6385
5.49892
7.09169
2.61944
29.5704
7.4515
33.1943
4.44501
33.0019
33.3942
32.6866
31.8727
7.00515
31.8825
33.0835
32.8199
3.82261
32.8476
33.0869
7.02759
32.6119
25.9734
23.5194
22.5268
33.3244
23.1875
22.6892
23.047
25.1213
32.398
32.3987
3.77715
5.71902
29.9524
30.1154
32.4528
3.82253
33.3546
32.3155
6.95646
32.7103
32.9272
6.03643
7.08314
33.2714
32.2692
7.67627
29.7655
32.107
7.36073
4.10248
4.06444
32.2659
4.10083
33.2568
2.54676
7.17669
4.05757
32.8516
7.19323
4.08013
32.6824
5.3372
32.5496
3.84907
31.3209
3.80132
32.2677
6.72954
32.6016
31.9459
32.8844
4.01312
4.04398
33.2966
4.16503
6.90125
33.5404
32.8406
3.1065
0.181341
7.96696
33.3542
4.31106
4.22978
7.07227
5.93158
33.393
7.84018
32.381
7.60772
33.0033
3.29412
2.47258
32.5232
2.67938
32.2598
6.99681
32.5445
32.5369
32.6732
33.0674
32.6136
32.9523
5.70518
3.21147
7.55487
32.6412
27.6658
7.56182
32.6691
33.2682
32.6239
33.3176
32.6823
0.173545
32.8498
33.2353
32.3669
0.14584
32.5696
32.5997
31.3794
0.694525
32.6809
0.631611
6.12526
5.47537
0.682024
0.597528
33.4479
32.6595
32.8758
0.774596
1.38946
31.8438
27.5649
0.698701
33.0726
33.2644
7.5726
32.5435
4.20097
32.6353
0.619784
6.95786
32.6618
32.3871
32.6396
33.2027
33.0597
7.06949
32.6395
0.711078
32.7254
32.7882
1.52917
32.8854
4.44742
32.1298
33.0831
5.76061
2.67731
7.69773
33.1965
33.2122
32.8937
2.68019
7.48184
32.7213
32.5929
31.7102
1.67732
32.6186
4.50108
7.64148
32.7718
32.6828
1.68265
32.9744
31.6977
32.6802
32.6597
32.7842
7.59174
27.291
32.2078
33.1494
27.796
32.6914
28.4699
32.4584
32.5917
32.3178
2.67468
32.4976
1.63951
32.3411
32.6531
8.25074
1.70014
32.6063
32.5994
32.6804
1.65326
29.2114
32.8349
32.0315
32.6632
1.8198
32.6099
7.6192
33.3685
5.38646
29.8248
6.41897
32.5791
33.0485
5.14145
28.6835
32.6469
1.38057
5.26909
33.361
33.1965
5.7209
6.49473
1.68831
1.63219
1.64156
5.77655
1.65052
6.64424
32.7046
7.58376
27.7965
27.4633
32.8071
32.4809
33.0312
1.64014
33.3331
33.3717
33.3071
7.27151
6.59623
26.858
5.98037
33.2388
6.19101
32.0866
7.13876
1.85203
28.0108
5.30161
32.4938
32.4749
32.5497
1.87416
5.39718
32.8882
32.7359
1.85545
33.1925
7.86989
33.1346
7.54799
32.9704
32.5452
33.2261
32.5329
1.47394
32.5313
9.45746
32.8943
5.55773
32.8028
32.7013
21.9568
20.9996
32.7356
32.7231
32.9979
33.244
5.27951
7.80686
24.6584
33.1734
5.40002
32.443
32.8578
7.16738
4.11644
7.37895
32.5642
1.02005
5.70375
2.83902
4.37759
33.0159
33.3945
33.4077
33.2218
32.5786
32.5362
32.5354
32.4457
32.5641
32.5362
32.9441
32.517
7.47354
32.5482
32.6749
34.8683
33.2194
32.8152
16.9023
32.4287
32.7334
4.34414
7.77745
32.4767
33.3049
32.9348
3.83778
33.1533
32.9599
7.69645
32.7145
32.6436
33.0569
33.1539
7.14128
32.6516
7.83642
33.166
33.0264
32.7451
32.8187
32.6944
7.71658
7.6863
2.15107
33.231
32.1082
33.3704
7.73568
32.6311
7.68594
7.83036
32.6847
32.5995
26.8421
7.12372
32.5094
30.1234
7.15306
27.1143
5.90396
32.9483
6.74511
27.0049
25.4734
32.9488
5.23229
32.7336
5.23851
7.09178
32.6058
5.26424
7.37184
32.9717
7.0966
32.3291
32.5519
32.6417
32.5221
32.4155
32.5014
32.6321
33.3198
7.63847
30.3984
32.8571
33.0517
32.5906
32.5588
3.86727
20.8847
7.80069
7.73094
32.6438
5.01496
4.99605
32.8965
30.0787
32.4906
32.4722
32.5847
32.7432
28.3393
30.5339
6.13565
32.7832
33.3515
26.9566
28.5657
32.5968
5.17851
32.4651
32.2433
33.204
7.40475
33.3169
32.4377
5.82132
32.6691
32.9644
32.3867
33.5198
5.85893
32.7986
32.7591
32.7087
32.6225
6.20923
7.46134
7.47026
5.20426
6.54514
6.54437
32.742
28.6942
7.89596
6.43057
28.6642
7.88832
33.1493
5.25156
32.2351
7.42086
32.8655
32.2586
6.57744
4.25696
32.5953
6.41347
32.8509
33.0269
7.40239
7.13753
33.2227
32.4953
32.6548
32.5673
32.6887
29.2464
33.2333
33.0101
6.35622
33.2431
32.9499
32.8141
6.60985
32.6804
29.3553
32.632
32.5033
31.0236
29.8009
6.60757
32.2163
29.8561
3.90613
33.1824
6.34668
6.34215
32.6969
4.01179
32.9756
31.5211
33.2945
29.4759
32.9132
33.2882
33.3825
33.3662
3.99882
33.2716
33.0954
33.2609
32.3301
32.8414
32.4674
7.47869
32.9529
33.1836
7.09067
32.893
32.5979
33.1048
4.02174
32.7725
7.15123
29.1723
7.33145
0.51082
32.5543
28.6812
3.88793
27.867
32.5508
7.64789
7.21424
0.0262758
6.84769
7.72524
4.98416
33.0298
32.1754
4.88896
7.5603
7.36637
4.73911
7.3916
32.8622
0.919355
4.82546
4.83604
33.1174
4.82763
0.789639
2.83228
4.61013
7.48922
5.02321
1.14978
4.48665
0.180736
2.11608
4.6283
29.397
0.394772
0.0577857
5.20321
6.028
0.311053
4.61288
0.191616
29.896
7.66108
29.734
2.55239
4.89608
6.06786
3.67
29.7014
32.5765
4.51626
3.71007
7.5001
7.45156
1.32418
4.8691
23.1834
4.91675
32.9522
8.54262
7.59729
6.84411
2.85716
7.56581
7.60265
5.597
3.47151
3.41052
2.58847
4.905
0.56563
27.285
24.7985
4.92522
32.6891
32.9439
4.65486
4.77194
0.444859
32.7257
6.88458
7.14595
3.39879
25.4732
32.9467
7.38653
0.126212
7.59898
33.3968
1.29558
33.0633
3.64676
5.54651
6.64383
6.71138
32.7032
32.9811
7.28598
4.7659
4.81645
32.967
3.82579
4.7373
6.01525
32.7186
3.47897
0.335995
29.693
2.85814
4.34125
7.25387
32.0444
7.04395
8.14208
32.9739
5.8789
0.58163
13.0554
5.91492
5.98121
1.13412
5.25461
5.93922
0.426973
7.3209
7.29584
5.65952
1.02615
4.98728
7.66177
3.70321
5.9865
2.1544
4.6745
7.70512
1.19341
33.015
5.96299
5.91818
7.43728
1.5251
6.83244
32.2264
5.92668
2.8319
33.0239
6.82284
0.0644836
5.96729
5.71258
0.76816
-0.0153425
5.16879
5.74811
6.98894
33.0291
32.9347
7.04791
33.01
7.07333
6.99385
31.9262
0.770462
6.08274
3.70947
33.2603
2.84632
3.21774
6.89686
7.53755
3.15079
1.41552
3.86486
6.42433
32.9455
32.5435
7.49684
6.35657
6.79654
4.07796
32.5436
6.41281
5.59053
31.9147
3.83721
4.92019
0.119587
7.76938
6.59371
5.49606
1.24884
4.30286
33.0274
5.98661
3.06793
5.67498
7.78409
32.5514
6.67501
32.8763
32.884
3.24204
5.51019
3.55168
8.93979
7.01545
12.9629
32.624
5.48055
5.6499
3.79963
3.59049
32.653
33.116
33.0694
3.57379
3.59433
7.71293
2.80224
31.6724
32.5774
3.55674
3.989
6.75892
3.60182
3.5747
4.3664
6.51345
21.7066
32.3998
5.44462
0.444041
32.5691
5.06151
4.2475
8.27676
5.44757
4.23144
7.03239
32.573
3.68117
4.41537
32.9805
31.7327
0.342906
0.566299
1.54634
0.67582
4.29402
4.34313
1.15807
2.8215
4.01225
0.645775
32.5384
32.4994
0.0497483
0.778784
4.22392
7.9257
4.16417
4.01128
5.63811
3.51993
4.14487
32.4858
33.0015
7.85058
32.5163
29.2686
4.47979
2.85051
4.33147
7.71795
30.5332
6.66274
7.99761
30.971
7.95717
7.66599
4.14413
4.17245
0.330691
4.81686
7.47223
0.724755
32.9068
30.8015
7.28313
1.40154
3.57957
1.44249
6.77976
6.28729
7.46865
30.8838
4.42448
1.09849
3.83205
7.8853
6.62389
7.3174
7.67743
4.39053
1.06847
30.5472
6.13991
4.25753
17.1405
29.4302
27.7663
3.88374
28.9564
0.253671
3.82831
3.56344
4.80598
7.07689
23.881
17.8581
33.2119
28.8835
7.02566
32.5456
32.5395
4.93892
32.9148
2.82579
3.69229
3.39954
2.6337
2.79174
4.88708
27.7286
1.3753
0.630711
6.25612
4.61504
2.64766
4.37233
32.5962
7.68586
2.59685
5.45991
32.5548
5.82771
4.52985
32.5449
32.6303
6.82162
2.55442
33.2127
5.14013
4.63568
6.81128
33.1605
32.5333
0.468552
7.60688
4.85025
32.5674
32.8832
32.5447
5.56335
16.3379
15.5879
1.74605
7.21147
33.3782
1.79608
7.26662
3.96706
0.514732
0.445712
1.93128
7.18442
0.549801
33.2468
1.97488
1.10751
0.197772
3.18473
0.797664
0.785808
0.759391
0.854279
0.260513
7.1158
7.45134
4.35934
6.91969
7.55112
7.19904
0.805038
7.47426
0.878218
0.22077
2.34703
1.48533
6.90046
1.45618
7.52522
1.65905
31.4936
4.4238
20.1748
3.29035
4.85219
32.9851
5.95404
31.5043
5.0852
31.5969
32.5191
3.52911
6.06581
29.5527
1.37632
3.61925
6.05479
32.5845
33.2059
7.19058
1.98341
7.71654
3.25919
1.16061
5.91436
7.48568
5.67492
5.97882
28.1681
4.38351
32.6155
32.6137
2.4986
1.83293
7.75884
2.41268
1.60772
5.99342
6.18286
32.1965
7.44736
1.59091
5.91441
32.2233
33.3169
4.3889
5.09992
27.1109
6.87026
0.219202
5.25829
0.0220423
1.33534
3.30815
32.6398
22.4335
2.64926
7.32273
33.2992
2.51512
6.86352
5.47277
8.28501
2.64013
8.16733
4.3816
7.14723
23.4815
7.28259
32.7916
5.04948
6.05397
1.28316
0.105902
28.7617
0.131869
7.31714
5.773
7.03156
31.0694
32.5376
2.79914
7.25228
5.77401
4.99715
6.82363
2.01456
0.427036
3.79988
0.545151
0.354178
6.88238
30.135
7.68451
5.6794
0.0368151
6.73284
30.712
32.359
1.70851
7.65437
33.5271
7.59893
6.27768
30.8326
23.9769
25.0028
6.13858
2.59401
9.04469
26.1913
6.74726
2.96161
31.5796
1.3133
29.333
5.46648
2.04364
32.9184
0.485681
6.79458
6.78514
1.83545
32.4487
7.54091
6.46418
7.13508
6.80511
7.08031
7.19119
6.22249
7.86635
6.38762
1.07539
2.63066
32.5889
28.3735
28.3336
31.9505
5.82432
3.05943
2.69484
6.71298
1.56287
2.72366
5.24115
6.08789
5.84838
1.97811
6.27995
6.65262
5.55807
1.47903
32.8317
6.71851
6.65557
5.96491
6.34841
31.5795
3.56056
3.62752
4.99937
4.97469
3.98552
32.1919
3.99678
3.96408
29.2898
4.06917
5.63594
31.9503
3.98266
31.8922
33.1013
3.55053
5.99977
5.67801
3.94283
32.3376
0.714187
6.2348
33.1056
3.27226
4.12651
3.40308
5.78243
32.0145
6.09431
6.07564
5.40003
32.2114
2.91811
1.14003
5.49491
2.47607
3.07397
33.3263
31.5513
30.2519
0.280103
30.6883
2.81283
2.32552
0.802888
32.6547
0.890978
32.0606
32.8334
32.5145
3.40495
0.0351696
7.67895
5.50961
3.03185
31.2325
29.333
6.82694
6.69325
2.35247
7.39655
3.02612
7.21536
32.8181
25.8814
26.2893
32.4678
26.4966
0.159052
32.9349
2.84424
5.19319
3.05178
0.612055
3.57706
27.9918
2.35234
5.21547
6.05532
7.08147
28.1274
32.7776
6.21753
2.37816
7.669
6.96067
7.50642
7.63005
7.54259
7.72738
1.8893
0.425336
1.87334
6.05068
1.78131
5.24015
5.61816
1.2626
1.78806
7.46127
6.77038
6.93759
5.58509
4.66744
1.26237
7.11188
33.0851
5.2658
2.43595
0.728434
0.45542
0.143731
5.25269
4.02196
1.86695
0.495957
7.68862
32.7376
2.83906
3.85656
4.29144
32.6486
3.18875
1.79951
0.512373
3.94457
33.3599
32.6791
5.68291
1.18232
1.09415
0.236483
32.298
33.0349
32.763
4.31048
5.18918
1.03987
33.0249
2.86159
32.6756
32.7185
0.518746
0.365279
32.2275
1.0595
1.08564
0.13708
33.0693
33.1832
1.88481
5.24152
32.7007
0.925038
1.0053
0.685572
32.83
32.8473
32.7588
0.678846
0.92856
6.81392
0.988059
33.0036
0.812294
4.90974
6.86933
6.32599
31.8163
32.757
0.909538
7.20157
7.02097
3.68917
31.8252
7.6884
32.6063
1.29171
7.55285
4.96316
31.9899
30.1108
7.26013
7.57505
29.6757
29.8145
32.6369
3.3326
31.4054
28.7481
5.16174
5.05941
32.6289
29.3255
4.42806
0.952623
0.964819
3.41492
2.88826
29.6911
5.2707
27.9097
27.4122
32.5211
3.59519
5.82828
0.942498
27.5471
34.121
5.09696
7.52775
5.41905
5.88091
4.63743
4.06482
4.57736
1.025
27.1704
4.9651
3.6482
1.0055
3.38809
5.79921
21.8842
3.3029
3.31075
3.31307
3.30779
1.18169
26.5659
30.5023
3.84544
30.6506
30.9479
4.65274
30.7141
2.81585
30.1793
30.4654
32.1362
29.5256
3.67844
1.25101
3.70767
30.0902
1.79522
3.50192
4.85376
30.4695
33.0132
3.71704
3.90562
7.60275
3.71997
29.4712
0.0591369
0.938572
0.692976
32.3427
32.2786
2.22726
1.85463
32.3762
30.5905
6.65672
0.0665928
30.065
7.28973
6.60673
6.6434
4.0637
30.3424
4.60392
11.6318
0.504143
0.368142
6.72254
6.56876
6.15054
2.59564
4.72003
29.7706
5.2737
4.72678
7.57639
7.12291
6.6483
30.3859
3.24295
4.82103
2.75161
4.08187
4.7537
7.42939
0.700582
6.94919
6.23253
6.69882
1.97511
6.72405
7.06
4.68371
5.72535
32.739
7.11185
33.3821
4.62626
4.84464
6.71804
6.99349
6.5832
4.68398
4.71221
7.28619
3.67924
1.29114
32.2595
26.3754
6.99388
7.01774
5.55954
7.07245
7.65844
7.20103
7.67295
7.91603
27.1661
1.24905
7.99225
3.14685
27.8364
0.121121
26.3897
3.5911
4.69236
7.4417
3.28996
33.0935
4.56522
7.50184
-0.331806
32.5659
7.59988
1.10418
6.13101
7.57197
7.62287
26.7072
32.5212
3.3518
4.969
2.66553
4.96405
4.47001
5.01544
7.79164
28.7283
0.325036
27.9818
5.10915
1.22095
5.33384
33.1376
24.9253
7.20005
5.03049
3.64313
5.36964
32.5514
5.36096
5.39719
0.335827
5.38614
17.0484
12.5078
5.44147
32.8151
32.389
3.26399
16.7528
7.10649
33.1999
2.46738
32.487
5.76816
32.9516
1.56482
6.93825
7.29518
5.34871
5.63438
4.85093
6.59584
7.6464
0.498034
7.37868
3.05891
7.33265
31.5088
1.8067
32.2988
5.66684
5.71488
4.52861
4.02494
5.60579
0.496964
3.56391
5.52507
5.47065
7.51045
6.52853
7.3112
32.9222
5.53995
1.31979
6.09365
1.25079
5.57805
5.91102
1.80378
7.62632
5.00614
6.25942
5.03287
3.1127
5.69084
4.57608
32.377
32.342
4.81116
4.96035
6.1652
32.6533
5.18947
0.453929
4.73593
3.58626
2.28396
3.77546
3.21482
4.96091
0.0490187
2.85395
6.48763
2.41014
4.27785
3.8588
3.52747
6.50753
5.61684
2.38878
7.84671
5.26825
7.0434
2.10815
5.89726
6.30711
2.72074
0.567756
3.75906
4.92116
2.21547
1.81528
32.1676
5.81832
6.79752
7.03345
16.4618
5.8324
27.9861
3.30319
5.7669
0.86969
6.20678
32.5305
5.67704
6.43014
-0.407632
5.93663
5.75993
6.45345
32.5419
3.87944
0.674861
6.32104
7.66713
6.73601
32.1325
32.5822
10.7198
30.4966
6.49889
32.6873
7.71211
10.6996
30.4692
30.6623
0.585859
31.0448
32.9406
6.46676
3.74494
33.3272
4.4926
3.37254
4.62117
3.46405
32.9428
7.33772
6.50729
6.23152
8.88705
32.9486
7.71765
6.35352
7.03617
32.5241
3.86334
6.32677
32.5213
3.32836
32.8463
32.6691
7.56741
6.26389
33.0497
8.02948
7.6238
7.71197
7.5591
5.45464
7.46215
7.38617
5.69884
6.4869
33.3392
3.11166
1.13434
2.33251
0.355833
7.58345
1.08091
3.32259
33.0353
32.6822
5.06231
7.52358
6.51213
3.14258
6.54107
3.55562
0.374531
32.6133
0.028764
7.49664
0.922667
6.48404
2.1293
33.0451
7.46039
5.72216
7.33709
9.66861
33.0378
2.91616
33.0642