/*--------------------------------*- C++ -*----------------------------------*\
  =========                 |
  \\      /  F ield         | OpenFOAM: The Open Source CFD Toolbox
   \\    /   O peration     | Website:  https://openfoam.org
    \\  /    A nd           | Version:  10
     \\/     M anipulation  |
\*---------------------------------------------------------------------------*/
FoamFile
{
    format      ascii;
    class       volScalarField;
    location    "3.6";
    object      SgT;
}
// * * * * * * * * * * * * * * * * * * * * * * * * * * * * * * * * * * * * * //

dimensions      [1 -1 -3 -1 0 0 0];

internalField   nonuniform List<scalar> 
111485
(
1.27693e-16
1.06786e-05
2.3417e-05
8.81983e-17
5.51194e-05
6.56722e-18
4.73038e-05
7.30967e-06
1.88241e-05
9.57753e-07
4.65425e-05
1.24855e-05
4.40124e-06
1.22458e-07
6.70578e-06
3.26757e-05
1.69306e-06
0.00288375
1.16933e-05
1.01935e-15
1.82797e-16
1.63192e-17
2.72128e-05
3.63925e-05
1.25963e-05
4.98919e-17
4.8027e-05
1.79261e-06
2.28596e-05
7.01169e-18
5.45919e-05
4.64898e-06
2.92394e-15
1.99622e-18
1.02142e-05
5.57011e-17
1.33224e-05
1.66505e-07
6.6816e-11
2.2311e-05
4.75809e-17
8.46284e-05
1.85164e-05
1.48783e-06
5.16275e-08
9.93853e-16
3.49871e-05
7.61916e-07
5.75106e-05
4.59164e-17
5.36851e-17
9.45461e-16
7.16418e-17
5.10182e-05
2.9353e-16
4.8822e-05
4.0471e-06
3.85544e-17
2.5489e-08
5.51658e-06
1.93437e-05
8.00037e-18
3.90332e-06
0.000114533
2.95283e-16
4.52601e-06
0.000370751
0.000120322
8.42961e-07
7.02188e-06
1.00798e-08
4.94572e-06
3.665e-18
2.41778e-06
3.87107e-16
2.14151e-06
2.59977e-17
4.77365e-05
4.15857e-17
2.81963e-15
2.92763e-08
3.63721e-05
1.13937e-16
1.08543e-16
8.97085e-06
5.01628e-06
5.30055e-13
2.62388e-05
5.56007e-08
2.68743e-06
7.13428e-07
4.06954e-05
1.09611e-05
1.1897e-06
6.91575e-05
7.88216e-16
9.62887e-17
1.70243e-06
1.66207e-11
1.80979e-06
4.83166e-16
2.24062e-05
2.98562e-18
2.65909e-05
4.58444e-06
3.97326e-16
3.653e-19
6.85663e-06
4.04881e-06
1.20371e-10
3.37065e-06
5.55457e-06
3.47074e-06
3.65599e-06
4.49175e-16
1.69707e-06
5.78318e-17
2.4885e-17
1.2306e-05
2.812e-16
1.08684e-17
1.10162e-15
5.39252e-17
1.05811e-17
2.52845e-06
2.83467e-09
1.4128e-17
1.82672e-06
5.44616e-17
1.26581e-07
1.45604e-06
3.3115e-05
5.09872e-17
2.91404e-15
8.54262e-17
6.09393e-05
4.87943e-18
4.21229e-05
2.64409e-05
2.53939e-06
1.86364e-07
2.42921e-06
2.6001e-05
3.32189e-06
5.19849e-06
2.12283e-08
2.10677e-17
3.61049e-16
3.70976e-18
2.99089e-05
2.32853e-06
6.53018e-17
1.57474e-10
2.64777e-08
6.03147e-10
1.09135e-05
2.06915e-05
1.4639e-05
1.29852e-10
7.42539e-17
9.51874e-17
6.28463e-05
2.4693e-05
3.64353e-09
3.33104e-10
7.07099e-06
4.71743e-06
1.47795e-17
8.33967e-09
6.77531e-08
3.31848e-17
1.04305e-16
1.11527e-07
2.3246e-18
9.10904e-08
6.24332e-09
1.79692e-17
4.03169e-16
1.0228e-16
8.73887e-16
1.05746e-16
1.46146e-16
1.3949e-06
7.99461e-06
3.22623e-05
2.50151e-09
8.03262e-06
1.28017e-06
1.14867e-07
2.76103e-18
1.16887e-05
3.73847e-17
1.33497e-17
1.00427e-06
1.09737e-05
2.73789e-05
1.36951e-05
7.43188e-08
3.75929e-16
8.08385e-06
9.28638e-07
5.44701e-08
1.44539e-05
9.88499e-07
2.45097e-16
1.93574e-06
2.82333e-05
1.94537e-16
2.71651e-07
9.35363e-06
3.43364e-06
8.08169e-07
3.54208e-17
2.22309e-16
1.87491e-06
7.68575e-15
0.000143952
2.29255e-17
3.48619e-06
1.06721e-05
0.000142288
3.3976e-16
1.10041e-06
1.60035e-05
3.98769e-16
1.61029e-17
3.2091e-18
0.000191762
5.01926e-10
2.66387e-16
6.45953e-17
1.43746e-05
8.71708e-07
1.6794e-05
9.60802e-17
1.7566e-16
1.41024e-08
1.63961e-16
2.40288e-06
4.18224e-06
3.53288e-06
1.26619e-07
4.03475e-06
5.49908e-18
3.61432e-10
4.6903e-06
1.23435e-16
1.27401e-17
3.53932e-05
2.47464e-05
6.76846e-17
4.14167e-06
4.3783e-06
3.80275e-16
2.68971e-15
1.82876e-07
1.50361e-17
5.5827e-16
4.59382e-08
9.12401e-17
1.37662e-05
1.22866e-05
5.16589e-08
7.62637e-17
3.16232e-06
2.94868e-17
1.58954e-16
1.30661e-16
2.94372e-11
3.07703e-05
5.80568e-06
5.2405e-06
4.49975e-05
1.20355e-05
2.19969e-06
7.32322e-07
1.52069e-06
1.61677e-06
6.55958e-17
1.00278e-16
3.53606e-10
1.08697e-05
2.8487e-05
9.7141e-07
1.89275e-17
7.66824e-06
2.92592e-06
3.12478e-06
2.04045e-08
4.78152e-09
1.48446e-05
2.31954e-06
2.58117e-06
6.27226e-17
1.03921e-06
9.57432e-18
3.32438e-10
2.36465e-16
0.000308986
8.08914e-05
1.69745e-05
1.26385e-16
1.78529e-18
1.02683e-05
6.54397e-07
3.42798e-16
1.33807e-16
1.11754e-15
5.69003e-07
2.06092e-06
3.87637e-06
1.77239e-05
2.3779e-05
3.48289e-16
2.01212e-17
2.93475e-16
3.80529e-06
1.86325e-15
1.22255e-06
0.000226358
5.43644e-10
1.07256e-18
1.9233e-16
1.12995e-16
3.10175e-15
6.75208e-05
1.40505e-05
2.65163e-17
5.65517e-06
1.79516e-15
1.29773e-16
8.64174e-05
6.40004e-06
1.34081e-05
8.91602e-06
1.72289e-15
1.95167e-15
9.19135e-17
1.03066e-05
4.99474e-08
5.96118e-06
2.20942e-17
2.31448e-13
2.5614e-07
1.6999e-06
8.88641e-06
6.40246e-08
3.51409e-05
1.39643e-17
4.4512e-05
3.03699e-06
8.72308e-06
3.07655e-05
1.38739e-05
2.89456e-18
2.00218e-16
1.44703e-17
8.87499e-17
3.6757e-05
1.23689e-05
4.83089e-05
8.14338e-05
1.46232e-17
2.04786e-05
9.05286e-18
1.7196e-16
1.64828e-05
8.38063e-19
5.6707e-05
4.81125e-16
8.35033e-20
2.75748e-05
5.92924e-18
4.79445e-08
9.07277e-07
3.60967e-18
1.27903e-06
1.89299e-05
3.38735e-16
8.20612e-06
1.32401e-05
8.57564e-06
5.30975e-07
3.88406e-08
3.06459e-07
2.78255e-15
1.69272e-16
1.45357e-06
5.07631e-18
5.5875e-06
0.000145239
1.7035e-16
1.42343e-17
3.07965e-05
9.47562e-08
1.18769e-06
2.95108e-05
2.46463e-17
5.04404e-05
3.03615e-05
8.22399e-19
8.50304e-07
2.80176e-06
1.28945e-16
9.22665e-17
7.30906e-08
5.27734e-06
3.11774e-16
7.08715e-18
1.92768e-11
1.40344e-16
1.35953e-05
1.31009e-17
2.44427e-16
2.20236e-05
2.37581e-09
1.67746e-05
2.7809e-05
1.21201e-17
1.04874e-15
1.17644e-06
2.26985e-16
1.37844e-07
1.27868e-05
0.000137446
0.00106757
1.58294e-17
1.88707e-06
3.69909e-07
1.07168e-15
4.10708e-05
4.1194e-05
5.73713e-17
1.22244e-11
1.06704e-07
1.43241e-15
2.65119e-05
3.39896e-05
1.92968e-07
2.57473e-17
8.57461e-08
2.58111e-05
1.31049e-07
8.0887e-10
7.22382e-16
2.92937e-13
3.22893e-17
1.66943e-08
8.38363e-08
3.8241e-17
1.03767e-05
8.49355e-08
7.83956e-16
4.20545e-17
3.21476e-16
5.01566e-16
6.64835e-06
1.79097e-07
5.95177e-06
2.96817e-06
3.71589e-06
7.50489e-18
3.60619e-06
2.58706e-16
3.83826e-05
5.3716e-17
8.32926e-17
1.96842e-16
4.21118e-05
1.32857e-16
1.63125e-16
3.37629e-10
5.90467e-17
5.82601e-17
9.90402e-07
4.34961e-17
1.07139e-15
2.58916e-18
1.04154e-17
6.70485e-16
2.97857e-17
5.5046e-17
8.86286e-06
1.05956e-17
3.91128e-07
2.44184e-06
1.68193e-06
3.53464e-17
6.71821e-07
5.58173e-18
3.64493e-17
2.66495e-06
1.74943e-06
3.00891e-05
2.73053e-05
1.34103e-16
2.48736e-06
7.84836e-05
4.66422e-07
5.55194e-08
3.20391e-06
6.32295e-17
3.03022e-07
1.55775e-15
4.17191e-06
3.01123e-17
7.9195e-05
1.43478e-15
1.62317e-06
5.44309e-07
3.96067e-11
7.87706e-18
1.70241e-07
5.39372e-17
9.62055e-05
5.23848e-05
7.8423e-17
4.65123e-17
1.23607e-15
1.78533e-18
4.04162e-13
6.55688e-05
2.15811e-18
1.68111e-17
3.88155e-06
1.26905e-17
3.42454e-05
1.16469e-16
4.15643e-07
1.56525e-16
5.94434e-07
8.61437e-10
1.54242e-06
8.79548e-07
1.31471e-16
9.67985e-09
2.42051e-16
7.79367e-18
1.62144e-05
5.19876e-18
3.70529e-08
4.36548e-16
1.60759e-06
6.82911e-16
8.04392e-05
6.96623e-17
7.45472e-16
1.74567e-05
3.20084e-06
1.63583e-06
4.20389e-06
6.08985e-06
2.50941e-05
4.48678e-17
2.19265e-05
6.75535e-06
9.49203e-18
9.18722e-11
4.16951e-05
1.34785e-05
1.41626e-15
5.76511e-06
6.40587e-06
1.43816e-06
1.49404e-06
2.35461e-13
1.55152e-05
9.45103e-07
2.09072e-07
2.80359e-05
1.63749e-06
1.05976e-06
4.2406e-16
3.47216e-12
0.000757369
2.21668e-16
5.43372e-07
2.82642e-17
1.90421e-15
1.76144e-06
3.94626e-06
1.84565e-10
1.30649e-08
2.81135e-15
1.90916e-05
1.35487e-05
3.37953e-17
1.49e-13
3.3316e-06
1.04369e-16
4.51659e-17
1.68665e-17
2.88025e-16
1.74796e-05
2.81014e-18
2.15152e-16
1.06979e-05
3.04139e-06
2.7742e-16
1.13905e-05
5.41582e-16
1.00056e-05
7.69587e-17
1.34572e-16
6.13126e-05
8.60151e-19
2.29441e-16
3.61519e-15
1.11191e-08
3.32652e-16
3.65507e-05
4.51313e-06
9.66291e-17
9.18192e-05
2.59461e-06
3.03568e-05
2.96938e-05
1.15664e-06
8.41356e-08
5.0259e-18
7.08656e-05
4.40101e-05
7.05962e-16
3.69498e-07
4.94266e-05
6.39906e-06
1.69606e-09
3.29486e-05
3.01674e-05
1.46327e-16
1.56282e-05
4.85541e-09
3.18186e-16
3.58463e-05
3.09202e-07
1.25295e-16
8.78851e-06
4.09982e-05
1.86883e-06
2.02225e-05
1.95643e-05
2.84081e-06
2.60999e-15
1.03465e-05
3.14864e-07
6.01314e-15
1.62884e-05
1.62708e-05
1.36455e-05
1.82173e-17
1.87507e-08
7.46172e-17
3.94586e-17
4.33331e-17
3.29414e-17
1.55015e-08
1.32235e-15
2.12758e-13
5.87847e-16
1.1743e-16
3.08404e-08
4.48512e-05
1.80538e-16
4.16148e-05
1.36474e-16
1.00735e-15
4.96955e-16
4.64753e-05
5.7547e-07
1.49573e-15
2.5625e-16
2.38139e-17
1.42099e-18
0.000286909
3.78308e-05
1.68113e-15
2.03292e-06
4.05769e-09
3.99089e-17
4.13188e-05
7.47044e-06
1.58591e-06
7.82429e-18
1.14127e-17
4.04921e-07
5.38708e-07
1.77069e-15
6.67059e-17
7.10789e-16
8.30301e-06
9.82368e-18
6.44621e-16
1.28611e-17
4.72125e-05
2.3546e-06
1.40965e-17
0.00494723
0.000227885
9.71322e-07
1.38989e-17
9.76245e-17
6.48837e-05
3.57654e-07
3.9934e-16
7.7022e-09
0.000180064
3.40756e-06
5.48365e-08
1.33884e-15
7.05664e-05
1.91855e-06
9.72725e-18
7.07347e-17
4.72183e-17
2.2792e-17
3.31019e-17
1.08053e-17
2.37669e-05
1.74248e-16
7.1967e-17
2.88225e-16
1.07913e-05
1.68634e-05
1.97562e-16
1.02733e-16
0.000126778
8.79577e-06
1.35845e-05
1.29566e-15
8.06518e-18
2.87613e-06
1.41045e-16
2.90546e-06
2.35115e-06
2.52464e-06
9.02388e-18
1.80781e-16
6.12134e-16
1.37083e-18
1.59151e-05
6.24221e-18
3.82095e-17
1.18084e-06
2.31966e-17
2.30521e-05
1.60333e-06
2.93216e-16
1.9769e-05
0.000634911
2.69385e-06
3.48469e-05
2.70279e-07
5.74521e-05
1.74897e-13
4.30925e-15
2.08364e-05
9.08912e-05
8.44665e-09
7.00448e-17
1.21311e-12
0.000772331
1.41402e-07
5.21662e-18
3.58726e-06
3.24858e-06
1.55259e-06
1.2763e-16
6.33987e-17
1.64762e-16
7.27812e-06
2.09242e-15
7.12036e-07
5.54289e-16
1.10972e-06
1.09832e-07
1.62487e-06
5.34699e-06
1.24021e-16
4.98949e-17
2.52992e-17
1.62496e-05
7.57279e-17
4.93116e-17
6.06488e-08
1.11889e-16
8.47078e-18
1.582e-18
1.96103e-17
1.89782e-06
7.87613e-17
9.70987e-19
6.81191e-13
6.22674e-16
2.66784e-17
1.04373e-15
6.17501e-18
4.44723e-09
6.40993e-06
1.03903e-16
5.01499e-06
1.10021e-08
4.867e-10
8.5147e-08
1.64751e-06
6.19102e-18
9.8116e-09
1.1381e-05
3.72797e-07
4.98285e-16
1.13301e-11
2.8493e-06
4.65732e-16
7.56838e-06
3.1931e-07
2.33507e-09
2.50185e-05
2.42177e-06
2.63635e-06
6.38933e-08
9.37282e-07
3.34576e-18
1.86413e-16
4.60602e-06
1.01773e-06
1.23006e-16
3.42144e-07
6.54465e-05
5.53282e-06
5.40189e-16
1.78914e-06
4.10175e-17
2.00718e-06
5.95885e-06
1.32861e-16
5.24955e-07
9.53106e-07
1.65381e-09
2.66042e-07
2.54654e-16
6.28119e-05
2.15652e-08
2.15028e-06
4.39675e-08
1.80932e-08
1.12729e-18
4.25617e-18
1.02291e-05
3.52784e-19
1.6917e-07
3.35555e-07
7.3304e-08
7.644e-11
8.15171e-11
1.53286e-09
3.81884e-18
1.88147e-15
2.82234e-05
1.02091e-15
8.46871e-07
2.41273e-06
1.85083e-16
1.51571e-16
6.49909e-10
3.5425e-13
3.99704e-18
4.50757e-09
9.13926e-19
5.34287e-18
1.79089e-16
8.62917e-17
3.02453e-17
1.08638e-16
4.16797e-07
1.21534e-16
9.35967e-18
1.56642e-16
7.11283e-09
6.01015e-08
1.70993e-06
1.02601e-05
4.96289e-18
4.80491e-17
2.17683e-07
9.18151e-18
5.65168e-17
2.45868e-16
2.18604e-05
4.93298e-05
6.41364e-17
1.46398e-16
2.07319e-16
4.73679e-17
5.25853e-18
1.99527e-17
8.73955e-06
2.60294e-17
5.58858e-11
2.88695e-05
3.30558e-19
6.19523e-16
3.1952e-17
2.09516e-08
8.92904e-17
2.22998e-16
2.25012e-18
8.07351e-09
1.01567e-16
5.49971e-06
1.28457e-09
4.47778e-12
3.18598e-17
6.2927e-08
2.99043e-06
5.45468e-05
6.87976e-16
7.08407e-09
8.10462e-06
7.71311e-17
4.37451e-17
5.22048e-16
1.88249e-16
8.16607e-06
5.61946e-06
4.23849e-06
2.1849e-10
1.04287e-17
2.85323e-05
2.48009e-16
5.72496e-16
1.12166e-16
7.85028e-18
2.96032e-05
4.98094e-18
1.58893e-16
2.49271e-09
4.71057e-05
6.21556e-17
3.66688e-06
1.03072e-15
1.19315e-06
2.11734e-15
1.12686e-17
3.77321e-18
3.19875e-16
6.38972e-07
7.92735e-07
0.000417964
1.08672e-17
5.29482e-16
6.55398e-07
7.622e-19
1.22557e-15
1.7067e-16
5.46243e-05
7.5432e-09
3.01697e-05
2.68705e-16
8.74668e-09
4.03125e-08
3.11975e-15
9.63533e-08
1.62466e-16
2.26096e-06
2.95442e-05
2.8594e-05
1.71613e-06
3.20675e-07
1.31674e-17
5.18678e-18
3.01196e-17
1.79625e-08
4.2787e-18
6.75935e-06
3.3366e-17
0.000212554
4.6776e-17
4.82575e-05
2.98712e-06
2.10502e-16
6.28819e-18
2.92167e-16
3.72738e-17
3.94625e-05
2.15267e-16
1.82147e-16
1.62964e-06
6.94128e-06
1.73135e-15
1.29542e-15
1.28347e-15
1.42729e-15
3.97769e-17
5.16901e-20
2.5709e-05
4.6774e-07
6.10537e-17
5.07163e-17
4.22742e-10
5.67432e-18
1.78427e-06
1.16959e-08
1.63687e-16
3.05377e-06
5.04817e-17
1.59971e-07
9.34915e-17
8.68215e-07
1.44843e-16
1.30498e-10
2.37959e-09
9.48896e-07
1.72398e-05
3.31199e-05
1.23668e-09
7.31096e-17
5.38074e-07
1.62631e-19
5.09531e-06
8.19735e-17
1.37643e-17
3.61639e-16
2.78931e-17
1.87933e-18
1.36829e-16
6.82879e-06
7.24324e-06
2.03362e-16
1.62216e-16
5.46518e-16
5.96631e-07
1.85001e-08
5.92142e-16
2.23904e-05
2.44775e-07
4.09264e-17
5.78528e-06
1.21841e-06
3.80874e-06
1.53736e-05
8.9108e-18
1.4715e-17
9.00201e-18
1.51237e-18
4.21601e-05
1.0996e-17
0.000125961
1.31641e-17
2.46438e-07
7.97775e-07
3.86271e-17
7.67498e-07
1.12207e-17
1.12793e-17
2.62447e-06
3.35313e-11
8.26312e-06
1.19187e-17
5.46302e-17
2.04298e-17
6.82133e-07
2.59119e-16
5.29986e-17
3.84484e-16
4.9289e-10
6.08783e-16
1.18496e-08
2.99812e-16
2.41163e-16
1.25147e-17
8.31379e-06
7.20577e-06
2.36834e-05
3.96514e-05
5.85668e-17
9.3739e-09
1.31716e-17
3.37339e-18
1.33539e-06
1.95832e-16
3.19377e-09
2.91905e-07
2.76205e-06
2.96574e-07
2.89901e-13
3.32099e-06
6.84446e-18
7.08858e-13
9.23174e-13
1.00061e-07
1.39617e-06
1.75579e-05
8.09593e-11
3.76978e-16
3.21497e-05
3.99963e-17
1.27598e-16
2.65302e-08
9.76313e-05
9.48441e-11
4.2279e-18
5.73009e-18
5.59223e-10
9.00885e-17
1.07221e-16
1.13872e-08
7.7702e-17
2.30739e-16
4.37405e-05
1.65019e-07
1.31198e-07
2.62385e-05
7.43945e-06
6.76193e-17
5.45121e-18
9.26312e-09
5.30784e-06
1.05189e-17
2.00018e-16
1.44586e-05
3.0332e-16
3.55153e-16
6.35309e-16
8.8773e-16
6.87325e-16
0.00308395
7.25262e-18
3.1417e-07
2.46614e-16
1.98711e-05
3.95337e-18
1.25979e-15
1.33268e-15
5.56299e-16
5.55515e-17
1.16006e-16
4.98519e-06
2.11665e-17
7.47044e-17
5.53253e-16
4.27354e-17
5.52275e-17
3.37486e-18
1.13322e-05
1.35787e-18
1.55286e-05
2.78465e-06
3.65611e-17
2.81226e-06
1.30629e-17
4.52226e-07
2.06087e-09
7.59124e-07
3.16051e-06
4.57182e-17
6.99372e-07
1.19438e-05
7.83489e-09
4.28047e-16
1.82138e-09
2.12744e-05
9.29497e-08
1.41917e-15
5.35293e-07
4.29412e-16
2.31691e-17
5.95435e-17
1.59542e-17
1.46875e-07
2.21415e-17
6.52813e-17
1.75377e-07
8.03288e-11
2.28979e-08
5.65879e-18
7.12861e-17
9.4691e-07
1.72658e-17
1.34794e-07
2.42424e-17
1.00777e-06
7.21751e-17
8.75203e-17
8.84003e-08
1.50982e-16
1.24587e-07
2.33501e-16
9.13521e-17
8.35645e-06
5.25289e-07
7.46147e-06
2.23111e-05
0.000263908
2.34688e-05
1.02606e-17
6.02112e-15
2.37676e-06
7.73429e-06
4.16282e-05
1.50292e-05
7.01443e-18
1.36221e-05
8.66717e-18
6.07823e-17
8.50146e-06
1.24452e-05
5.06698e-17
1.46809e-05
5.69953e-17
4.132e-06
4.68125e-06
6.61149e-17
8.61397e-18
5.07532e-18
2.67514e-06
1.17041e-17
1.0464e-17
3.8851e-06
2.12506e-05
4.99106e-09
2.0078e-07
8.17766e-17
4.40995e-18
7.422e-08
8.62055e-07
4.95185e-17
9.64723e-06
2.9206e-15
2.29964e-06
2.15327e-16
1.97859e-16
1.20879e-05
2.89341e-17
4.15237e-08
3.17736e-06
7.38266e-17
1.14204e-17
3.76683e-06
3.75646e-14
5.66466e-05
6.14908e-16
0.000321941
8.5071e-17
4.44253e-16
7.73645e-17
6.79349e-06
1.16835e-15
6.06288e-17
5.67952e-06
3.76583e-16
2.36941e-07
1.55818e-15
2.9474e-16
2.00655e-17
1.7381e-10
6.56087e-07
1.84632e-17
9.80322e-18
3.80144e-05
7.63631e-07
3.50505e-17
6.94235e-07
2.69341e-17
2.81609e-16
1.27099e-09
4.72531e-06
9.6531e-09
1.2185e-16
3.57407e-19
9.08249e-18
9.16549e-18
5.43747e-17
1.29316e-16
1.27209e-17
1.04151e-17
8.40776e-17
3.032e-18
3.57656e-18
1.13271e-16
1.94325e-17
1.98721e-17
1.25836e-17
2.48319e-17
1.62125e-17
1.30398e-17
5.44664e-17
1.54127e-17
4.27133e-17
2.01928e-05
1.39871e-17
2.75736e-17
3.66425e-18
6.93778e-06
1.60322e-17
6.22326e-17
0.000265271
7.65739e-16
2.68321e-17
2.46832e-05
4.60168e-15
1.30311e-17
6.40127e-06
2.75198e-05
2.46047e-17
1.77762e-06
3.0941e-06
5.3583e-16
1.46575e-05
4.59213e-05
1.83726e-05
2.87844e-06
8.49257e-06
5.97717e-16
1.16689e-16
4.10633e-06
1.45779e-05
2.76099e-06
9.80384e-18
6.19564e-06
1.96034e-06
2.06833e-05
4.60699e-07
3.61974e-08
1.46453e-05
4.0941e-05
9.53533e-06
2.08174e-16
3.09991e-05
8.72849e-06
2.56536e-06
1.01671e-06
3.7238e-17
1.64964e-17
4.14199e-17
1.56521e-16
1.41694e-17
1.32875e-05
1.45453e-05
2.58623e-18
1.83797e-17
3.06127e-16
5.42915e-18
1.9498e-16
7.85848e-17
4.30771e-17
3.3377e-16
5.00551e-06
1.40891e-07
2.25374e-05
6.63453e-08
7.24142e-17
1.97791e-15
3.5201e-05
5.34307e-09
1.85196e-17
4.18946e-17
1.00104e-05
7.89005e-17
7.19288e-18
8.34689e-09
8.16042e-06
1.57263e-05
3.14688e-05
3.09519e-05
1.00977e-16
2.86553e-08
3.61312e-07
1.59035e-16
4.18758e-17
1.13647e-05
5.2377e-16
4.83048e-17
2.82186e-05
0.00122308
2.54169e-07
4.84795e-16
3.83616e-17
1.51063e-05
3.19057e-05
3.62325e-08
5.53242e-06
3.0017e-06
1.66755e-16
1.60091e-09
2.86641e-12
8.91507e-17
2.79638e-16
2.37115e-05
3.2277e-17
2.31115e-06
9.18759e-08
1.70253e-05
9.20045e-06
3.08098e-16
4.20022e-07
8.39196e-17
4.90893e-16
2.20362e-16
1.38125e-18
2.49314e-06
0.000916639
1.23226e-17
2.20702e-17
1.00186e-08
2.89495e-05
6.99007e-07
6.79364e-06
3.81814e-05
5.44659e-07
1.82708e-05
1.82984e-16
6.65217e-16
5.46656e-16
3.61941e-05
4.02253e-06
2.73186e-11
5.13919e-17
7.13097e-17
3.54282e-16
2.29396e-05
4.24011e-06
8.6279e-18
2.17882e-06
5.97141e-05
1.04763e-05
5.83106e-06
3.32732e-17
3.14673e-16
5.60082e-06
2.70507e-05
5.07091e-18
2.52344e-07
1.43803e-05
1.32984e-06
1.19392e-05
5.29139e-06
6.78774e-06
1.83547e-16
6.51451e-07
2.40384e-05
4.08029e-05
1.16482e-12
2.73371e-05
8.04372e-17
1.74932e-05
1.37264e-06
1.68479e-17
2.75237e-07
8.9804e-07
4.70587e-07
1.23091e-05
4.21375e-10
2.0285e-07
2.2767e-08
3.33527e-05
7.581e-07
8.28598e-17
5.05343e-06
2.42149e-07
3.92839e-17
4.93949e-18
3.78384e-11
8.95389e-09
1.26104e-06
0.00123766
4.35533e-05
1.06405e-05
2.7648e-10
4.80351e-05
6.33385e-17
6.63021e-16
5.53054e-06
4.49225e-17
3.76078e-06
6.20924e-06
3.49447e-07
2.47328e-07
6.73309e-17
1.73092e-07
0.000121568
4.71414e-17
4.34239e-05
3.88421e-06
5.3879e-16
1.14188e-05
7.55369e-07
2.82101e-16
3.03893e-12
5.98136e-08
4.09117e-16
4.3738e-18
1.22128e-18
2.15436e-07
4.68483e-06
1.55095e-05
4.53265e-17
6.5606e-06
1.73301e-06
3.66108e-16
3.76784e-06
2.52792e-06
3.84097e-06
1.64853e-06
6.78216e-18
5.45621e-07
9.64851e-07
2.35277e-06
1.8931e-05
7.08327e-06
0.000177715
5.3114e-06
7.611e-16
7.55473e-09
1.04076e-05
1.68728e-16
2.0508e-06
1.25113e-17
1.9531e-18
1.97058e-16
2.14101e-17
1.13522e-17
3.57953e-06
4.36326e-17
1.5563e-05
2.02948e-06
1.79657e-16
5.51842e-06
3.49434e-15
3.79073e-06
9.13253e-18
1.58687e-08
8.00262e-16
2.19575e-05
1.7029e-07
2.12976e-09
8.89624e-06
7.50967e-06
1.93244e-05
7.26859e-07
2.02601e-06
4.26707e-15
4.49904e-06
6.12014e-05
3.11386e-06
8.60643e-17
1.258e-06
3.61063e-07
6.57246e-06
1.4434e-05
7.89088e-07
9.70421e-16
1.22578e-15
5.36664e-18
5.23958e-06
1.86337e-16
7.92212e-08
1.90147e-08
7.66023e-07
4.23094e-07
4.20267e-17
2.44676e-16
4.70157e-17
6.60147e-06
2.80557e-05
1.69027e-06
9.76003e-09
1.00633e-07
6.83983e-06
1.22143e-06
1.31714e-06
2.13191e-06
5.97495e-06
2.57595e-06
3.73479e-16
5.49565e-19
1.93076e-16
1.50147e-05
1.08846e-05
7.44015e-16
4.99599e-17
2.30552e-16
7.05658e-06
6.95923e-06
9.08144e-17
2.14109e-06
1.03394e-17
5.88587e-10
6.96844e-06
9.78171e-05
1.11235e-16
3.7646e-17
5.21022e-06
1.36799e-18
1.13226e-07
9.17909e-07
1.97548e-16
1.12889e-05
3.83229e-05
1.61295e-06
4.65875e-17
1.11982e-06
2.05501e-16
7.19444e-08
5.68358e-05
3.71726e-16
4.21819e-16
6.44682e-06
1.49703e-15
1.45849e-16
1.59437e-06
6.12509e-08
1.1549e-16
1.08148e-16
4.88928e-16
7.93656e-07
1.80349e-06
4.47283e-06
2.29489e-05
1.18399e-05
2.0432e-16
5.2418e-10
6.43442e-07
1.40935e-17
7.45276e-19
2.00627e-16
2.47111e-16
1.29181e-16
1.78357e-16
4.23605e-16
1.20732e-16
4.56233e-16
1.00231e-15
2.82355e-12
2.24773e-16
5.15091e-07
5.54351e-16
1.31048e-07
3.47907e-17
7.56846e-08
1.54389e-16
1.50729e-17
2.49788e-05
1.03502e-05
2.60937e-17
0.000102645
6.59487e-13
3.30316e-13
1.40516e-17
1.25408e-06
2.96481e-16
2.64579e-06
6.60285e-09
1.24081e-06
2.66788e-16
1.72599e-16
6.89494e-07
5.18694e-11
2.20351e-17
1.81876e-16
4.49827e-05
1.0947e-15
4.3771e-05
8.73304e-17
2.46326e-18
1.66627e-11
3.15009e-05
9.07341e-06
4.97717e-17
4.84225e-07
1.74216e-15
1.65319e-06
1.7033e-08
1.61792e-06
7.00914e-07
8.44708e-17
2.32973e-05
1.05916e-06
7.19134e-06
8.48209e-18
8.89787e-19
2.30105e-17
8.09131e-06
2.7593e-06
5.18587e-05
4.41464e-16
3.28945e-10
4.49231e-17
1.53895e-17
2.3406e-16
9.31261e-18
2.64979e-06
1.53312e-06
1.92284e-06
0.000347413
1.75306e-16
3.60047e-05
3.93667e-05
1.59233e-05
1.19666e-06
2.5111e-17
8.09039e-06
3.53821e-06
6.36551e-06
7.28007e-10
9.76779e-06
1.63426e-16
2.3026e-06
9.52576e-07
3.76587e-05
7.86648e-10
3.28518e-06
1.77705e-16
2.24125e-05
1.88241e-16
1.47363e-16
1.85742e-06
6.63422e-16
9.52782e-06
2.82458e-16
1.17852e-16
1.8806e-15
2.16531e-17
5.1107e-16
6.49183e-07
1.20796e-16
7.15005e-07
2.35269e-16
1.27826e-17
2.45131e-05
6.78873e-06
1.0189e-05
1.05454e-05
1.48243e-17
0.000632721
9.35385e-17
7.6039e-05
1.76083e-17
2.33123e-05
2.09888e-05
2.0045e-06
6.66393e-05
2.12505e-16
1.76326e-16
6.30567e-18
2.43289e-06
7.75269e-18
2.36784e-17
1.7765e-05
1.88422e-16
1.06396e-16
4.75836e-06
2.38095e-16
1.0669e-05
1.03442e-10
5.178e-17
8.00862e-17
8.45078e-17
1.65695e-06
6.53301e-06
2.08214e-16
5.80948e-08
2.59047e-07
3.49462e-16
0.000122232
1.43965e-16
1.56878e-05
1.80236e-05
1.63483e-05
4.62638e-16
2.11719e-05
1.08528e-05
9.07095e-07
4.719e-06
1.63569e-05
1.08852e-16
3.57111e-16
1.87469e-09
1.07829e-16
1.81214e-17
8.82974e-17
2.00767e-05
4.87104e-05
5.40321e-06
1.6864e-06
1.6504e-16
4.6746e-05
4.92187e-05
4.93165e-06
3.77734e-06
8.38407e-06
2.43558e-05
2.24067e-06
4.86529e-18
2.8858e-18
9.62557e-18
5.68184e-06
4.56576e-17
2.9529e-05
6.65032e-16
8.13112e-07
3.7863e-10
2.46524e-06
3.47088e-07
9.35213e-18
4.10537e-16
2.49531e-06
3.5889e-07
1.02127e-16
7.25748e-17
2.05338e-16
7.56394e-08
2.01829e-07
1.07897e-07
6.77882e-07
1.04411e-06
9.51925e-05
1.60352e-16
3.87339e-17
1.04098e-16
3.75619e-07
1.79706e-05
3.02701e-08
3.28522e-05
2.8255e-06
2.29443e-06
1.09623e-16
7.59474e-17
4.69736e-16
5.46866e-17
3.39608e-07
2.35258e-05
1.27997e-16
2.21513e-16
7.90584e-16
1.3059e-16
5.58087e-16
1.72121e-16
1.22729e-05
1.20911e-15
1.40655e-06
0.000401773
3.03383e-16
1.76283e-08
4.92834e-08
3.00885e-07
4.39178e-17
1.19995e-16
4.3576e-06
5.39056e-17
1.49794e-05
1.32772e-09
2.71217e-05
2.0478e-17
3.65868e-15
1.85499e-17
2.37172e-17
2.1042e-16
7.43132e-16
0.000222165
1.04452e-16
4.85607e-06
1.241e-06
1.27836e-17
1.04586e-15
2.13365e-06
1.90112e-16
1.88677e-17
1.53247e-05
6.12358e-08
6.31914e-17
8.55098e-16
2.75728e-17
2.11932e-06
4.19432e-16
1.32701e-16
3.77646e-07
2.21994e-06
2.80186e-06
1.28836e-16
2.58726e-16
1.61613e-16
3.19964e-06
1.56843e-06
1.07942e-05
3.11725e-06
7.95989e-18
1.04908e-05
3.7281e-08
2.12336e-07
1.61521e-17
4.87743e-16
5.6593e-16
1.00025e-17
3.33135e-16
3.05104e-05
6.77062e-06
5.70256e-06
1.31412e-16
3.28978e-17
1.81581e-16
8.14163e-17
2.35655e-17
9.76851e-10
1.54114e-08
5.5258e-09
1.05119e-17
7.70264e-16
3.16266e-16
3.83123e-12
3.37623e-05
0.000122982
1.11976e-18
1.06844e-12
1.04816e-15
2.36156e-16
7.45254e-16
3.07197e-06
7.13473e-06
6.78071e-17
6.58187e-16
3.85461e-06
2.808e-16
9.07924e-07
8.52467e-07
0.00245761
3.26153e-17
3.05533e-16
1.72533e-05
4.23454e-07
6.26456e-17
0.000780035
6.72146e-08
8.64391e-06
1.19971e-16
1.11877e-16
1.34418e-16
2.45267e-17
9.58187e-07
7.98816e-08
4.6884e-16
2.91253e-05
1.85747e-05
0.0010023
3.7239e-17
1.94761e-17
2.05114e-16
7.74842e-17
5.75851e-06
5.28931e-11
3.99502e-16
2.71816e-16
4.61909e-06
1.55582e-06
5.01039e-06
9.86828e-17
2.55247e-16
3.06987e-05
6.37828e-17
1.38696e-16
1.50799e-18
6.99309e-17
2.79152e-05
3.3343e-16
1.13341e-17
3.60335e-17
4.71462e-06
1.92374e-05
4.99365e-17
9.42586e-17
6.26803e-18
1.74134e-05
1.20271e-10
4.50734e-17
2.72033e-17
1.64895e-16
9.10293e-16
2.66143e-06
1.01615e-05
1.15836e-17
2.219e-06
8.46722e-07
4.21166e-06
3.99621e-16
6.22117e-17
3.16208e-17
2.21528e-17
1.06072e-17
2.81048e-05
1.58574e-15
1.81137e-05
4.69518e-17
1.34784e-06
4.87358e-16
1.92569e-06
1.55009e-16
1.20925e-18
1.28384e-05
0.000250261
1.45931e-15
2.81218e-06
2.16384e-16
3.01471e-07
1.85888e-17
2.11625e-16
1.53608e-16
1.54568e-10
2.09232e-16
4.4826e-07
3.16206e-16
3.86352e-05
6.2397e-18
1.57387e-15
2.62428e-18
1.68153e-16
1.5083e-06
1.71857e-07
1.17137e-17
5.16587e-06
3.729e-17
4.56498e-06
2.13253e-05
1.08383e-06
2.78816e-18
4.28802e-09
3.48731e-07
1.61196e-09
7.1661e-06
4.59655e-10
1.26804e-06
9.93347e-16
4.55479e-17
4.27332e-10
1.75358e-06
1.98403e-07
1.05141e-16
8.74634e-17
3.00717e-16
0.000564523
7.0638e-16
3.34502e-17
9.37533e-17
1.09857e-15
7.61934e-16
9.63122e-08
1.55828e-07
9.65316e-07
2.03425e-07
1.69113e-16
1.26717e-06
7.87367e-17
8.2595e-06
2.65206e-16
4.16879e-17
2.01484e-18
1.01913e-16
2.13067e-08
1.27888e-16
3.09904e-17
2.30499e-16
1.60091e-05
5.76197e-16
1.27824e-17
1.32791e-05
5.12291e-16
5.56194e-05
9.7213e-05
0.000509515
4.28965e-17
0.000241911
0.00146057
0.00190708
0.000801137
9.66719e-17
3.26704e-18
4.94133e-06
6.3487e-06
2.63306e-16
4.7721e-06
4.1158e-17
3.13128e-05
3.96202e-16
1.18953e-16
5.74992e-07
4.045e-16
6.25058e-16
1.01029e-08
3.21843e-08
8.93792e-17
3.20961e-17
2.25778e-09
1.56557e-15
4.23471e-16
2.51491e-08
8.41784e-06
1.21162e-06
4.0272e-16
7.30858e-06
7.72101e-16
2.88814e-06
4.91365e-10
6.54889e-06
6.80535e-17
4.41213e-12
5.79024e-06
2.78644e-16
8.54974e-13
5.08878e-18
3.52768e-05
3.94204e-17
1.12247e-05
1.08003e-16
3.65747e-10
1.84419e-17
2.99878e-16
2.17422e-17
2.10318e-13
2.79522e-13
5.53162e-16
1.13701e-05
7.52521e-06
2.56632e-16
3.00004e-17
3.99353e-05
8.33687e-08
0.000212326
3.54735e-16
6.29575e-08
2.47251e-05
5.31977e-05
1.12345e-11
2.16754e-16
7.02473e-05
2.72834e-17
0.000258084
4.0236e-16
3.06042e-11
3.20862e-11
8.51412e-17
1.09945e-07
7.57075e-16
2.51411e-05
1.02614e-17
1.35583e-16
4.11558e-17
8.60915e-17
3.5916e-16
3.32767e-16
3.28665e-07
1.77052e-06
0.00016163
3.37427e-16
7.91523e-17
4.83012e-05
1.13194e-16
1.68839e-18
8.86055e-17
2.29813e-16
3.59623e-16
2.88647e-08
1.73203e-17
3.20124e-16
6.92225e-18
3.65086e-08
9.29897e-16
3.91094e-17
2.96843e-16
1.23278e-06
2.26228e-19
1.7102e-06
0.000247639
5.22546e-06
1.2045e-06
7.90039e-07
2.8059e-16
1.24305e-16
1.02877e-16
3.6471e-07
1.69061e-06
2.89463e-17
5.99346e-15
8.92654e-07
1.05317e-15
5.38386e-16
0.000374799
8.13878e-17
2.26377e-05
9.69685e-17
1.13134e-06
3.95836e-06
1.96348e-16
1.97247e-18
3.31763e-17
5.43138e-17
2.73092e-16
2.14895e-05
3.18302e-16
1.54252e-06
1.09519e-16
1.36903e-16
8.48968e-07
1.84274e-17
1.73941e-05
2.38451e-16
1.27014e-17
1.83189e-06
9.72858e-08
0.000151996
9.56594e-16
1.59828e-16
1.16151e-17
5.39146e-06
0.000198836
1.05407e-16
2.9834e-17
9.99515e-16
2.05373e-05
2.96101e-16
2.62405e-05
3.03565e-05
9.7489e-16
1.3504e-17
7.20464e-06
4.81341e-16
1.13854e-15
2.98867e-18
6.75028e-17
4.66388e-17
7.28188e-05
1.5541e-16
1.19563e-15
1.14702e-16
1.22248e-16
1.03964e-16
5.53724e-17
1.00672e-16
4.79957e-17
5.61964e-16
1.18081e-05
3.71802e-16
6.71556e-06
1.41115e-15
1.6014e-16
0.000663075
4.95665e-06
2.5982e-17
1.1382e-16
9.70771e-17
3.86384e-05
3.34269e-16
5.14378e-16
8.09977e-16
3.24782e-16
9.56344e-06
3.40376e-18
3.6565e-06
5.45337e-16
1.36821e-05
1.04552e-16
6.11975e-05
2.91148e-16
2.36177e-16
1.84868e-05
1.8476e-16
1.05977e-16
2.24754e-05
3.11917e-07
1.26772e-16
2.34606e-16
4.44264e-05
1.46556e-05
2.92822e-06
4.36611e-06
3.67196e-06
1.85227e-05
2.0726e-06
5.81417e-06
5.13146e-16
2.66325e-05
2.46987e-16
1.27968e-16
3.97068e-18
7.20991e-16
6.05142e-17
9.99012e-06
2.413e-16
3.66632e-17
3.85231e-16
1.5495e-09
1.60405e-08
2.07802e-15
3.73107e-06
1.09541e-16
5.57012e-06
9.07554e-17
9.27719e-10
7.05776e-06
9.28407e-16
5.00135e-05
2.4234e-17
3.31522e-17
2.14945e-18
1.5776e-06
1.37332e-06
1.12574e-16
1.26772e-18
1.14266e-06
5.73185e-16
0.000739895
2.01883e-16
9.9907e-05
1.11733e-16
3.32167e-17
4.11289e-16
1.25632e-16
2.57051e-06
1.4993e-17
5.42808e-08
7.7436e-18
8.79691e-06
6.8055e-17
3.89581e-17
6.14971e-15
6.19989e-16
7.35761e-17
1.4228e-15
1.23805e-16
3.15255e-16
4.23189e-06
0.000245818
7.32122e-16
3.08682e-17
4.88476e-07
4.65682e-18
3.00855e-17
2.15066e-09
2.0179e-05
2.01998e-07
1.36495e-17
2.86613e-06
4.60929e-06
6.11868e-06
1.0549e-05
1.30944e-16
7.35638e-16
5.61496e-16
1.30991e-17
1.94073e-17
1.0732e-16
9.28833e-18
1.62548e-17
3.27336e-17
2.06999e-17
4.15129e-17
2.25378e-18
8.45407e-05
3.95817e-17
3.18655e-17
2.33511e-12
6.75268e-17
2.81738e-16
0.00125512
3.4405e-17
1.13652e-17
1.63841e-06
8.43258e-13
1.1211e-16
7.08978e-16
3.2405e-17
2.1964e-05
2.73956e-17
2.98251e-16
4.11115e-11
6.53372e-19
1.20286e-16
1.2988e-17
5.3079e-17
0.000125066
6.06403e-19
2.35932e-07
4.51459e-17
9.89575e-18
6.80865e-17
1.84345e-16
3.07654e-17
3.5843e-11
6.15226e-11
1.63082e-07
4.6415e-17
2.6633e-16
1.05754e-15
1.22289e-10
4.73086e-17
3.24991e-10
2.35897e-11
8.18489e-18
1.78904e-17
5.23261e-16
1.63468e-11
4.45462e-17
3.354e-16
1.8019e-12
2.77908e-15
3.55015e-05
6.56821e-17
7.56349e-06
1.14271e-15
2.28309e-09
8.91428e-17
1.65529e-06
7.28494e-18
3.9313e-06
2.3447e-05
9.66706e-17
2.49173e-06
1.18791e-08
6.20075e-17
9.79338e-06
4.73374e-17
5.74828e-17
2.21525e-16
1.06555e-16
1.03058e-16
1.02877e-17
1.0452e-16
3.37519e-16
0.000298836
6.25814e-17
1.28927e-16
5.12001e-17
5.17958e-17
9.37409e-18
3.55056e-05
0.00094679
2.63153e-09
1.63492e-08
2.4883e-17
1.7334e-06
1.16931e-06
8.29603e-16
7.67063e-16
2.50799e-15
4.05506e-17
1.9536e-17
4.19189e-16
3.52011e-16
1.2069e-16
3.9335e-07
1.5706e-15
1.48739e-16
1.39248e-07
2.22714e-09
6.54539e-17
3.29569e-05
6.18557e-17
4.76367e-16
2.86219e-16
0.000189775
9.1227e-17
5.74116e-18
2.9815e-05
4.51788e-17
2.84441e-16
1.04256e-16
5.19517e-16
6.20834e-05
3.93771e-17
1.82329e-16
8.55476e-17