/*--------------------------------*- C++ -*----------------------------------*\
  =========                 |
  \\      /  F ield         | OpenFOAM: The Open Source CFD Toolbox
   \\    /   O peration     | Website:  https://openfoam.org
    \\  /    A nd           | Version:  10
     \\/     M anipulation  |
\*---------------------------------------------------------------------------*/
FoamFile
{
    format      ascii;
    class       volScalarField;
    location    "3.6";
    object      T;
}
// * * * * * * * * * * * * * * * * * * * * * * * * * * * * * * * * * * * * * //

dimensions      [0 0 0 1 0 0 0];

internalField   nonuniform List<scalar> 
111485
(
303.15
284.983
301.346
303.15
298.951
283.15
299.513
292.824
296.942
286.056
300.94
295.901
300.635
284.444
300.456
286.365
295.059
299.75
294.856
303.15
303.15
283.15
297.904
288.211
301.31
303.15
292.842
300.149
289.459
303.15
300.755
287.925
303.15
283.15
283.48
283.15
302.291
283.938
283.149
297.106
283.15
290.12
297.497
302.906
303.186
303.15
287.381
288.078
290.125
303.15
303.15
283.15
303.15
299.405
303.15
294.317
287.495
283.15
283.317
296.071
296.475
303.15
302.299
300.361
283.15
284.729
300.981
291.203
302.306
302.579
303.17
302.077
303.15
302.334
303.15
293.82
283.15
293.589
283.15
283.15
283.251
293.575
283.15
303.15
300.728
284.354
283.15
301.782
303.139
293.267
283.444
289.733
301.226
285.192
290.515
303.15
303.15
301.784
303.149
283.453
303.15
286.562
283.15
285.51
285.421
283.15
283.15
288.424
301.533
283.146
286.156
288.546
301.56
301.825
303.15
293.654
303.15
283.15
300.602
303.15
303.15
283.15
283.15
283.15
283.444
303.153
283.15
289.056
303.15
283.183
303.071
302.187
303.15
283.15
283.15
293.225
283.15
293.997
299.323
301.471
303.14
297.353
299.485
284.785
302.25
283.701
283.15
303.15
283.15
297.775
284.997
303.15
303.144
283.255
283.156
294.433
296.329
302.479
283.154
303.15
303.15
292.961
286.106
283.153
283.157
294.723
283.739
283.15
283.154
283.154
283.15
303.15
283.224
283.15
283.836
283.262
283.15
303.15
303.15
283.15
303.15
303.15
298.23
294.284
296.526
283.335
301.617
299.678
283.195
303.15
297.443
303.15
303.15
299.848
286.081
301.647
301.094
283.765
303.15
300.777
284.568
283.162
301.045
291.98
303.15
299.833
288.613
303.15
283.245
300.091
284.846
299.901
303.15
303.15
300.043
283.15
293.482
283.15
300.176
296.774
290.259
303.15
300.467
300.725
283.15
283.15
283.15
289.656
283.159
283.15
303.15
297.33
284.602
290.382
283.15
303.15
303.108
303.15
284.349
297.827
297.833
297.769
297.869
283.15
283.143
295.825
283.15
283.15
288.656
288.931
283.15
286.468
294.183
303.15
283.15
300.893
303.15
303.15
303.122
303.15
287.379
285.36
283.514
303.15
295.038
303.15
303.15
303.15
283.148
298.088
301.37
299.955
290.783
300.009
296.831
283.218
284.224
284.691
283.15
303.15
283.149
288.335
299.016
283.695
303.15
298.576
297.757
299.461
302.962
283.165
297.768
299.894
301.947
283.15
283.724
283.15
283.149
303.15
283.984
289.839
286.652
303.15
283.15
298.198
283.757
303.15
303.15
303.15
284.622
284.297
301.403
284.576
293.601
283.15
283.15
303.15
298.947
303.15
283.96
289.845
283.153
283.15
303.15
303.15
283.15
294.956
289.494
283.15
296.429
283.15
303.15
301.103
297.956
293.569
296.518
283.15
283.15
283.15
297.295
283.554
302.388
283.15
283.15
283.149
289.652
297.534
283.229
291.12
283.15
293.383
300.028
284.233
298.777
285.081
283.15
303.15
283.15
303.15
290.125
295.866
288.54
292.769
283.15
286.126
283.15
303.15
294.45
303.15
302.094
303.15
283.15
292.592
283.15
283.409
284.657
283.15
283.977
298.642
283.15
300.605
284.883
299.408
303.051
283.695
283.478
283.15
303.15
303.15
283.15
301.323
300.901
283.15
283.15
294.078
284.284
284.9
296.298
283.15
295.336
296.042
283.15
302.192
283.861
303.15
303.15
283.346
299.167
283.15
303.15
303.15
303.15
300.554
283.15
303.15
293.518
283.171
287.175
300.408
283.15
283.15
302.73
283.15
302.589
301.671
298.433
290.106
283.15
287.957
303.391
303.15
299.11
291.898
303.15
283.15
283.306
283.15
290.007
286.529
283.831
283.15
283.767
296.24
283.84
303.147
283.15
303.15
303.15
283.168
283.768
283.15
284.362
303.14
283.15
303.15
303.15
303.15
301.605
283.669
285.973
284.243
284.322
283.15
285.713
303.15
301.086
283.15
303.15
303.15
300.861
303.15
303.15
283.151
303.15
283.15
301.001
283.15
283.15
283.15
303.15
283.15
303.15
283.15
283.689
283.15
303.139
301.695
283.794
283.15
303.103
283.15
303.15
284.571
284.549
286.067
297.977
283.15
298.167
298.251
284.126
283.962
285.079
303.15
284.106
283.15
300.342
283.15
297.442
283.15
285.846
298.664
303.15
283.15
284.028
303.15
296.178
299.618
283.15
283.15
283.15
283.15
303.15
294.313
283.15
283.15
283.26
283.15
300.296
283.15
284.796
303.15
283.417
303.127
284.864
285.676
283.15
283.317
283.15
283.15
285.628
283.15
283.27
283.15
300.161
303.15
291.206
303.15
283.15
302.464
284.371
300.539
285.489
300.548
289.032
283.15
301.016
284.438
283.15
283.139
300.681
301.854
283.15
282.33
301.382
303.08
283.119
303.15
287.262
302.38
284.307
285.297
284.399
282.436
283.15
303.15
301.042
303.15
283.595
283.15
283.15
289.269
282.643
303.15
303.123
283.15
286.168
300.004
283.15
283.15
300.002
303.15
283.15
283.15
283.15
286.029
283.15
303.15
284.757
284.194
303.15
300.073
283.15
288.264
303.15
283.15
286.073
283.15
283.15
283.15
283.23
283.15
285.43
289.529
303.15
300.564
283.428
299.267
301.107
283.402
283.455
283.15
289.227
299.022
303.15
302.117
296.157
297.427
283.186
297.993
297.634
303.15
300.132
303.139
283.15
297.749
284.916
283.15
289.637
296.454
284.91
299.309
301.003
289.591
283.15
299.411
283.447
303.15
300.952
302.161
291.571
283.15
283.296
303.15
283.15
283.15
283.15
283.319
283.15
303.15
303.15
283.15
300.688
299.837
303.15
285.581
303.15
303.15
303.15
289.784
283.437
283.15
303.15
283.15
283.15
287.263
290.638
283.15
295.879
283.133
283.15
296.048
302.378
284.32
283.15
283.15
300.723
290.039
283.15
283.15
283.15
294.006
303.15
303.15
283.15
296.893
302.438
283.15
282.68
301.969
283.925
283.15
283.15
287.232
303.01
283.15
283.16
287.875
283.814
283.331
283.15
285.807
300.355
283.15
303.15
283.15
283.15
283.15
283.15
296.314
303.15
283.15
283.15
295.959
289.811
303.15
303.15
289.817
292.818
293.027
303.15
283.15
292.743
303.15
283.986
294.407
294.577
303.15
303.15
303.15
283.15
285.88
283.15
283.15
302.693
303.15
298.152
302.395
283.15
291.008
283.259
296.942
291.644
283.475
290.022
283.15
283.15
297.335
288.561
283.397
283.15
283.15
298.632
284.348
283.15
283.926
284.649
283.467
303.15
303.15
303.15
288.266
283.15
287.829
283.15
284.287
284.305
287.995
290.46
283.15
283.15
303.15
292.631
283.15
283.15
303.105
283.15
283.15
303.15
283.15
288.125
283.15
283.15
283.15
283.15
283.15
303.15
283.15
283.175
288.916
303.15
302.478
283.128
283.387
283.09
284.414
283.15
284.361
290.547
283.387
303.15
283.15
288.243
283.15
287.33
283.173
283.142
286.245
285.989
283.229
283.617
288.52
283.15
283.15
285.37
285.058
283.15
285.655
290.856
288.356
283.15
283.251
283.15
288.946
288.413
283.15
284.345
288.256
283.149
283.766
283.15
295.462
283.144
303.117
283.162
283.16
283.15
283.15
284.559
283.15
302.98
283.617
283.121
303.148
303.149
303.148
283.15
283.15
294.276
303.15
303.135
283.856
283.15
283.15
303.154
303.15
283.15
303.163
283.15
283.15
303.15
303.15
303.15
303.15
283.384
283.15
283.15
283.15
303.159
283.31
283.871
293.928
283.15
283.15
283.34
283.15
283.15
283.15
287.208
294.361
283.15
283.15
283.15
283.15
283.15
283.15
284.006
283.15
303.151
291.514
283.15
303.15
303.15
303.152
303.15
303.15
283.15
303.167
283.15
283.716
283.144
303.152
283.15
303.069
284.486
292.861
303.15
303.131
284.664
303.15
283.15
303.15
283.15
294.451
293.767
284.708
303.148
283.15
293.631
283.15
283.15
303.15
283.15
295.551
283.15
303.15
283.163
297.885
303.15
284.609
283.15
283.61
283.15
283.15
283.15
303.15
284.28
283.505
284.676
283.15
283.15
284.14
283.15
283.15
303.15
284.578
303.163
299.157
303.15
303.131
303.132
283.15
303.136
283.15
283.5
289.212
300.646
283.856
283.166
283.15
283.15
283.15
303.178
283.15
302.948
303.15
293.527
303.15
288.187
283.811
303.15
283.15
303.15
283.15
301.973
303.15
303.15
284.477
300.833
283.15
283.15
283.15
283.15
283.15
283.15
301.084
283.573
303.15
303.15
303.156
303.15
300.482
283.448
283.15
302.277
303.15
283.988
283.15
302.71
283.15
283.147
303.152
283.331
302.306
300.601
283.147
283.15
289.268
303.15
294.17
303.15
283.15
303.15
283.15
283.15
283.15
301.133
302.223
303.15
303.15
303.15
302.952
283.149
303.15
293.669
283.08
303.15
292.269
288.774
297.159
283.393
283.15
283.15
283.15
283.15
295.271
283.15
295.097
283.15
303.083
289.35
283.15
302.919
283.15
283.15
302.826
283.148
302.916
283.15
303.15
283.15
302.551
283.15
303.15
283.15
283.147
283.15
283.174
283.15
283.15
303.15
287.833
288.295
296.184
297.631
303.15
303.127
283.15
283.15
284.181
283.15
283.158
302.909
286.423
302.989
303.15
283.418
283.15
303.15
283.15
303.022
283.375
297.719
283.15
303.15
287.875
303.15
283.15
283.119
295.205
283.147
283.15
283.15
283.147
303.15
283.15
303.145
303.15
303.15
290.433
303.022
303.036
289.546
292.608
283.15
283.15
303.105
289.624
283.15
303.15
285.003
283.15
303.15
283.15
283.15
283.15
298.166
283.15
302.949
283.15
300.754
283.15
283.15
283.15
283.15
283.15
283.15
285.379
283.15
283.15
283.15
283.15
283.15
283.15
292.687
283.15
297.781
302.989
283.15
302.214
283.15
302.64
303.145
285.375
284.499
303.15
285.906
285.06
303.116
303.15
303.139
294.324
283.624
283.15
283.675
283.15
283.15
283.15
283.15
283.705
283.15
283.15
283.98
303.138
283.261
283.15
283.15
302.452
283.15
283.192
303.15
287.197
283.15
283.15
302.791
283.15
303.177
303.15
283.15
288.719
297.753
291.151
286.096
292.895
294.067
283.15
283.15
302.443
289.388
293.453
284.511
283.15
293.61
283.15
303.15
301.043
298.776
283.15
296.105
283.15
291.573
295.862
303.15
283.15
283.15
302.012
283.15
283.15
300.896
294.453
283.199
284.156
283.15
283.15
302.866
300.912
283.15
301.035
283.15
300.913
283.15
283.15
301.181
283.15
283.225
301.893
283.15
283.15
302.608
283.15
287.592
303.15
290.605
303.15
303.15
303.15
301.269
283.15
283.15
300.037
283.15
302.996
283.15
283.15
303.15
283.15
287.819
283.15
283.15
287.686
287.855
283.15
283.801
283.15
303.15
302.58
283.851
283.204
283.15
283.15
283.15
283.15
283.15
283.15
283.15
283.15
283.15
283.15
283.15
303.15
283.15
283.15
283.15
283.15
283.15
283.15
283.15
283.15
303.15
286.67
283.15
283.15
283.15
295.469
283.15
303.15
303.06
283.15
283.15
295.492
283.15
283.15
302.083
295.944
283.15
303.514
303.549
283.15
301.605
294.731
298.172
301.786
298.479
303.15
283.15
295.683
292.344
301.742
283.15
302.289
302.404
301.258
283.849
283.794
301.43
288.641
302.044
303.15
286.01
298.181
285.875
297.911
283.15
283.15
283.15
303.15
283.15
292.645
298.503
283.15
283.15
283.15
283.15
283.15
303.15
283.15
303.15
291.499
303.142
299.592
302.811
283.15
283.15
285.319
283.169
283.15
283.15
301.477
303.15
283.15
298.736
300.032
298.116
299.242
301.147
303.15
283.355
302.647
303.15
303.15
300.703
303.15
283.15
282.855
295.901
302.958
283.15
303.15
290.073
286.416
283.578
292.843
302.547
303.15
303.138
303.15
303.15
283.15
298.5
283.15
292.376
283.445
300.204
284.643
303.15
301.14
303.15
283.15
303.15
303.15
286.265
300.221
283.15
303.15
303.141
292.355
303.06
299.823
293.67
284.8
293.645
283.15
303.15
283.15
292.075
298.457
303.151
303.15
303.15
303.15
297.923
302.494
283.15
299.932
301.29
285.219
299.473
303.15
303.15
298.694
293.694
283.15
302.948
299.989
302.564
292.554
297.717
298.443
303.15
284.17
297.469
291.471
283.15
289.798
303.15
287.961
300.381
303.15
284.041
299.612
299.782
293.876
283.147
283.161
283.25
301.952
299.795
303.15
284.316
299.529
303.15
283.15
303.15
303.207
299.322
291.779
296.427
303.239
283.149
297.818
303.15
303.15
293.601
303.15
299.963
283.32
299.479
285.043
303.15
283.638
294.058
303.15
283.009
296.954
303.15
297.508
285.587
303.15
303.15
283.948
303.15
283.15
283.15
283.536
299.672
292.013
303.15
285.525
290.678
283.15
292.059
292.89
284.638
303.121
283.15
301.111
284.924
292.483
291.21
284.44
291.235
302.386
303.15
283.266
284.639
303.15
292.588
283.15
283.15
303.15
283.15
303.15
297.686
283.15
290.804
283.716
303.15
283.935
283.15
285.321
303.15
303.146
303.15
294.068
302.995
303.124
291.21
285.443
289.003
285.096
292.158
303.15
291.787
292.834
292.386
303.15
283.859
283.482
292.502
287.1
283.541
303.15
283.15
303.15
285.645
303.15
303.266
283.435
303.263
302.943
303.15
303.15
283.15
300.936
300.347
285.017
303.091
283.838
296.371
301.495
293.194
285.592
301.535
296.777
283.15
283.15
303.15
285.781
289.33
283.15
283.15
303.15
301.448
286.069
303.15
297.007
303.15
283.156
285.494
301.035
303.15
303.15
292.987
303.15
283.337
287.751
283.15
297.756
294.232
285.405
303.15
302.74
283.15
302.779
294.199
303.15
303.15
286.244
283.15
303.15
293.312
283.322
303.15
303.15
283.15
301.354
303.341
289.958
300.15
297.675
303.15
303.157
302.636
303.15
283.15
303.15
303.15
303.15
303.15
303.15
303.15
303.15
283.15
303.15
303.15
283.389
303.15
303.282
303.15
303.162
303.15
303.15
301.257
303.669
303.15
291.965
303.15
303.15
283.15
302.661
303.15
302.266
303.117
283.305
283.15
303.15
302.978
283.149
303.15
303.15
291.969
283.15
293.211
283.15
283.15
283.15
291.855
284.723
303.15
296.336
283.15
303.578
303.135
284.092
302.705
283.15
292.787
303.088
301.706
283.15
303.15
283.15
303.848
284.55
296.307
303.15
303.15
303.15
303.15
303.15
303.15
302.524
302.888
297.394
292.472
303.15
287.689
293.231
284.616
303.202
283.15
286.535
302.843
284.613
283.147
287.069
303.15
283.432
302.974
293.168
302.916
301.973
303.15
302.197
303.15
303.15
298.532
303.15
284.735
303.15
303.15
283.15
303.15
303.15
302.916
303.15
283.306
283.15
283.15
286.292
285.061
300.501
286.333
303.15
295.441
303.15
290.175
303.15
287.734
301.015
301.748
293.227
303.15
303.15
303.15
289.039
283.15
303.15
288.788
283.15
283.15
302.057
303.15
285.839
283.147
283.15
303.15
303.15
300.41
298.802
303.15
283.547
303.057
283.15
298.398
303.15
285.905
287.839
297.765
303.15
296.715
296.156
302.96
302.102
301.617
303.15
303.15
303.147
303.15
283.15
303.15
288.859
299.856
293.946
302.308
283.15
300.78
292.026
298.76
283.695
298.927
290.326
302.348
283.15
283.15
283.15
302.383
283.15
290.817
283.15
301.555
303.159
289.017
290.389
283.15
303.15
301.542
301.519
303.15
283.15
303.15
285.951
301.749
303.025
302.514
285.571
287.899
303.15
303.15
303.15
284.707
286.378
283.401
296.602
283.928
303.011
303.15
303.15
283.15
283.15
283.394
299.995
303.15
303.15
283.15
303.15
303.15
303.15
300.686
303.15
285.414
293.345
283.15
283.253
283.671
285.333
303.15
303.15
302.125
303.15
299.667
283.146
297.331
303.15
303.15
283.15
303.15
303.15
303.15
305.587
303.15
302.079
300.888
303.15
303.15
301.874
303.15
283.15
287.13
303.128
303.15
303.15
303.15
292.988
303.15
303.15
302.624
302.629
302.027
303.15
283.15
303.15
302.246
302.648
301.792
302.692
283.15
289.103
283.409
283.995
283.15
303.15
303.15
303.15
303.15
294.618
287.227
299.235
303.15
303.15
303.15
303.15
283.15
303.15
283.274
283.189
283.15
303.15
303.15
283.147
299.877
295.24
283.15
303.15
303.15
303.15
303.15
289.017
289.884
303.15
303.15
302.297
303.15
301.09
283.95
292.23
303.15
283.15
300.786
303.133
303.15
303.501
283.525
287.357
303.15
303.15
303.15
303.15
285.862
284.087
303.15
302.69
298.743
290.722
303.15
303.15
303.15
303.15
299.954
303.151
303.15
303.15
291.27
302.512
287.411
303.15
303.15
298.419
303.15
303.15
303.15
303.15
288.563
303.15
283.15
283.15
293.483
291.179
303.15
303.15
303.15
297.485
303.147
303.15
303.15
303.15
303.15
303.464
301.21
303.15
287.257
302.768
299.933
303.15
303.15
303.15
303.15
283.15
286.125
303.15
302.828
283.15
302.359
303.15
303.146
303.15
283.15
301.901
286.443
283.15
302.911
303.15
302.555
283.15
303.15
303.15
303.152
303.15
283.284
303.15
290.357
283.15
283.15
303.15
303.15
294.199
302.481
283.15
302.52
283.15
284.304
288.042
302.753
283.15
303.154
303.022
303.139
284.663
283.156
303.03
283.15
283.15
283.156
299.303
302.465
303.15
283.15
283.15
296.397
303.15
283.15
303.15
303.15
303.15
303.101
303.079
302.975
302.116
303.15
302.958
303.15
285.057
303.15
303.15
283.15
303.15
303.115
303.15
283.15
303.15
287.843
303.15
303.15
303.186
283.15
303.325
302.671
298.001
303.15
291.079
296.502
284.383
291.54
283.15
283.15
286.81
284.523
283.15
303.64
283.15
286.067
303.15
283.15
303.158
303.15
303.15
303.009
303.155
303.15
283.15
303.141
303.15
283.15
283.101
299.153
302.783
303.15
301.98
303.15
285.386
303.151
301.415
303.15
303.15
301.234
303.15
303.15
303.15
287.381
303.15
285.014
303.15
303.147
303.15
283.15
283.15
303.15
303.15
303.15
288.439
302.66
303.15
303.15
289.223
283.3
291.986
303.15
302.78
287.28
287.525
303.15
303.15
288.344
283.15
292.442
303.15
303.152
303.149
303.15
300.89
283.15
302.304
283.15
303.15
303.15
303.15
303.15
303.15
284.521
302.253
291.593
303.15
303.15
291.112
303.15
303.15
303.15
303.15
303.15
283.395
303.15
303.15
283.15
283.418
303.15
283.15
303.15
284.347
283.15
285.34
290.845
302.679
285.107
285.604
303.15
303.15
303.15
285.176
287.649
283.15
303.15
285.211
303.15
303.15
292.553
303.15
287.436
303.15
286.494
284.426
303.15
283.15
303.15
303.15
303.15
285.452
303.15
285.135
303.15
303.15
295.306
283.15
284.976
303.15
303.15
288.401
301.298
296.936
303.15
303.15
303.15
301.313
292.692
303.15
283.15
303.15
296.873
303.15
284.998
296.828
303.15
303.15
296.089
303.15
303.15
283.15
303.15
283.15
295.209
303.15
283.15
303.15
303.15
303.15
303.15
303.15
303.15
283.15
301.256
283.15
294.565
303.15
303.15
296.351
296.63
303.15
283.15
303.15
295.519
283.15
303.15
303.15
303.15
298.498
303.15
298.123
303.15
286.305
283.15
286.624
303.15
303.15
298.978
283.15
303.15
287.095
283.255
303.15
303.15
285.217
283.975
295.368
294.894
295.821
292.863
294.553
283.86
303.15
298.201
283.15
283.15
303.15
303.15
303.15
296.416
303.15
303.15
303.15
303.132
283.173
283.15
283.605
303.15
302.02
283.15
303.145
295.66
283.15
294.572
303.15
303.15
283.15
297.875
283.918
303.15
283.15
298.134
303.15
297.956
303.15
295.747
303.15
283.15
303.15
283.15
295.09
283.15
283.24
283.15
286.018
303.15
303.15
283.15
283.15
303.15
303.15
303.15
303.15
284.743
285.05
283.15
303.15
283.236
283.15
283.15
303.155
290.636
283.584
283.15
287.15
284.999
300.269
288.843
303.15
303.15
303.15
303.15
283.15
283.15
283.15
303.15
283.15
283.15
303.15
283.15
297.563
283.15
303.15
283.15
303.15
303.15
283.59
283.15
303.15
302.154
303.149
303.15
303.15
303.15
288.279
283.15
303.15
303.149
283.15
303.15
303.15
303.15
295.23
283.15
283.195
303.15
303.15
303.15
303.15
303.15
303.15
303.146
284.164
303.15
283.15
303.15
303.15
303.15
303.148
303.149
283.15
283.15
283.15
303.15
303.15
283.15
303.15
283.15
287.458
283.15
301.851
283.15
303.154
303.15
284.491
283.15
284.374
297.82
303.15
284.565
303.17
303.15
297.827
283.15
303.15
303.15
303.15
303.15
283.15
303.15
303.15
299.375
283.15
303.15
303.15
303.15
303.15
291.735
291.52
303.167
283.169
303.15
302.064
302.499
303.15
283.15
283.15
303.15
303.15
303.15
283.15
283.15
283.779
303.15
303.15
303.186
303.151
283.15
289.502
303.15
283.15
303.15
288.46
303.15
283.15
302.157
283.15
283.15
283.15
303.15
299.752
303.15
303.15
303.15
283.15
284.456
293.989
295.699
290.315
303.14
303.051
283.15
283.15
301.215
283.669
283.15
303.149
303.15
303.15
283.15
294.978
303.15
283.15
303.018
303.15
303.15
283.774
303.15
303.15
288.794
290.067
303.15
283.15
303.15
283.15
303.15
303.15
303.15
303.15
283.927
303.15
303.15
303.15
302.981
303.15
303.15
283.15
283.15
283.15
283.15
302.989
283.15
283.15
301.223
303.15
284.712
284.859
303.15
301.435
303.15
283.15
303.15
283.15
283.15
303.15
303.15
303.15
302.791
303.15
303.15
303.15
283.15
303.15
283.15
286.458
303.15
303.15
291.949
303.15
283.15
283.15
302.57
303.15
303.148
283.15
303.204
283.694
283.15
283.15
299.604
283.15
283.15
303.058
303.159
283.467
303.165
303.151
303.151
283.15
283.15
302.729
283.483
285.977
301.223
283.161
283.15
286.485
301.836
301.777
283.15
300.604
285.419
299.884
302.407
302.831
284.972
290.397
299.749
283.233
294.009
300.495
303.15
283.732
283.543
302.838
283.713
283.919
301.476
283.37
303.15
301.212
303.15
300.53
301.761
283.687
285.219
303.15
283.15
302.173
301.888
283.145
303.17
286.516
302.789
302.011
301.18
303.15
303.212
301.266
295.142
300.128
289.426
302.961
301.492
302.049
302.475
284.342
302.63
283.25
283.178
303.15
302.952
303.15
303.15
302.259
302.341
284.542
303.15
284.841
292.584
291.775
301.351
303.15
284.1
283.195
284.45
303.15
293.739
303.15
295.798
295.242
300.817
303.146
303.15
303.15
302.123
301.548
302.856
303.15
292.166
302.845
290.709
283.15
297.877
284.114
303.15
300.199
283.15
283.207
283.15
302.619
303.114
303.15
302.971
284.954
283.147
300.81
302.383
290.381
283.61
296.099
284.428
283.493
303.135
285.048
289.686
283.321
297.219
300.769
300.591
300.137
302.023
290.467
288.367
303.15
302.817
302.77
302.679
294.166
302.885
283.15
302.216
292.801
303.15
283.434
283.256
301.483
302.657
285.218
283.188
287.556
302.704
296.722
303.15
303.15
295.325
283.15
292.965
283.427
303.15
285.273
290.57
283.878
303.15
296.97
297.956
284.351
301.462
293.577
288.054
300.294
303.122
303.15
303.15
283.624
302.727
283.347
286.127
303.15
303.015
303.067
303.15
285.3
300.492
284.717
283.267
299.583
302.497
290.942
287.45
283.15
303.112
301.859
283.877
283.151
303.15
303.097
303.15
303.15
284.307
302.671
295.767
283.058
283.151
303.15
283.15
303.006
303.074
302.657
301.73
303.15
283.15
283.15
302.086
302.138
283.234
295.171
303.15
303.15
301.921
285.888
283.264
301.975
302.054
301.968
284.369
303.15
283.15
298.086
284.585
303.15
302.796
302.238
285.073
285.091
302.301
303.045
303.15
298.69
284.336
283.15
303.15
283.868
283.693
293.114
284.756
302.249
286.025
291.659
299.842
289.809
286.288
303.15
303.15
283.236
283.417
302.248
283.151
300.839
301.909
283.687
287.795
302.529
283.15
283.15
283.03
303.15
303.15
300.402
298.537
302.385
283.146
283.15
283.989
283.15
283.15
283.152
303.084
301.233
299.576
284.061
283.421
303.107
285.816
303.15
283.15
302.601
287.303
301.192
290.528
283.553
303.066
283.148
283.15
302.865
286.974
302.674
283.158
291.349
285.032
303.15
284.447
289.122
283.15
283.301
285.276
284.595
283.15
283.15
301.93
283.15
283.574
302.652
302.766
301.672
283.491
299.429
290.853
283.15
303.293
292.418
283.15
283.15
283.15
303.15
300.989
302.556
299.045
301.417
299.603
289.501
283.155
288.665
284.563
303.06
291.335
300.514
291.577
283.15
286.398
301.024
301.742
283.15
284.137
300.048
283.15
303.15
283.197
301.107
303.15
283.96
302.165
303.044
303.15
283.15
284.468
303.153
301.94
283.15
283.15
283.15
302.272
297.911
303.141
297.918
303.164
303.15
288.624
303.164
289.91
284.086
284.067
296.907
283.159
283.849
283.15
290.118
287.825
283.478
289.928
286.57
285.637
285.215
284.407
283.615
285.121
283.178
302.352
286.099
283.148
283.146
286.253
283.075
286.436
283.369
295.54
294.859
289.623
294.779
283.121
297.32
283.15
290.415
290.356
298.6
283.375
283.15
300.741
283.15
302.8
283.15
303.15
286.091
286.316
283.15
293.968
298.092
287.034
303.15
303.15
301.838
289.049
303.046
283.807
288.046
287.406
303.147
284.375
288.162
303.15
301.707
283.15
283.15
287.366
287.317
283.145
285.445
294.8
286.302
301.041
303.15
285.413
293.898
290.948
303.15
303.15
301.876
302.239
303.15
293.453
283.731
283.805
284.97
286.089
290.186
303.15
302.974
297.707
285.157
283.15
287.497
292.261
299.914
283.169
283.84
282.893
302.17
303.139
283.15
303.138
303.15
300.422
293.05
293.486
283.538
283.15
283.502
296.222
285.512
283.218
293.581
283.15
299.832
303.164
292.941
284.219
303.147
291.208
284.144
288.694
285.002
283.864
287.639
283.15
303.142
285.202
283.391
293.457
283.15
283.15
283.15
303.142
283.15
283.136
286.374
303.15
283.15
303.163
283.176
290.383
289.872
303.332
302.957
290.213
303.15
286.441
303.169
302.213
287.531
283.15
285.568
303.148
303.107
286.455
283.15
283.15
283.463
286.238
303.078
303.147
287.521
289.312
283.526
283.166
286.591
292.616
303.15
283.15
303.112
303.15
302.488
284.846
302.178
303.106
283.839
283.883
284.167
302.835
302.289
296.625
293.771
303.092
291.276
289.257
303.15
303.11
302.697
285.5
283.43
303.15
285.91
283.408
302.984
301.483
302.353
283.15
300.769
302.109
303.15
302.306
285.256
303.15
298.5
303.15
283.15
301.1
302.703
286.253
302.641
283.15
283.557
303.027
283.15
302.363
285.134
294.691
284.286
303.15
303.01
302.854
286.28
283.15
287.102
283.613
289.543
286.18
302.408
303.15
283.15
283.15
283.773
283.15
300.852
301.248
285.392
283.15
287.62
283.15
303.15
283.15
299.634
283.53
283.151
285.282
301.546
303.11
303.156
292.56
294.907
300.8
283.257
301.615
283.145
303.15
303.153
299.893
283.15
302.194
283.638
303.15
300.765
287.046
301.746
283.344
288.727
283.15
301.267
287.511
298.867
303.075
283.15
303.15
291.465
301.408
283.076
283.146
287.132
298.598
303.15
284.713
297.109
283.733
297.078
303.151
297.861
287.447
284.866
289.653
297.036
283.77
283.092
303.158
303.15
303.15
293.222
283.162
283.15
303.15
303.149
284.715
284.69
283.612
287.553
302.839
303.15
283.46
301.62
303.15
300.777
283.787
301.762
303.15
284.788
299.494
285.044
302.723
303.15
303.15
285.2
291.194
291.011
283.417
303.15
303.15
283.15
286.999
302.517
290.358
303.15
285.783
303.15
303.15
284.616
283.592
283.15
290.072
290.606
283.972
283.15
303.15
291.92
286.972
303.15
288.927
287.448
287.723
303.15
303.15
303.15
288.235
289.788
302.832
287.328
283.15
286.38
287.683
291.246
300.92
303.15
303.15
286.16
303.106
286.72
296.775
303.15
303.148
283.15
285.156
299.295
285.542
303.15
303.15
283.361
303.127
303.15
303.15
283.15
289.929
303.15
303.15
284.856
298.973
283.15
303.15
284.512
285.509
286.701
286.983
294.256
303.15
283.52
303.15
303.15
283.271
300.948
290.111
286.437
303.15
303.136
302.174
293.266
299.959
301.439
284.366
283.533
300.562
287.748
303.15
302.851
284.333
287.989
301.7
287.929
303.15
297.091
301.724
301.794
301.836
289.078
303.15
283.15
299.246
283.15
283.15
287.352
283.15
284
283.15
283.15
283.15
283.15
302.804
285.868
302.769
283.15
295.795
290.342
284.709
283.15
303.15
302.751
301.721
303.185
302.713
283.15
283.484
286.318
284.823
283.15
283.15
299.302
285.397
283.15
283.15
303.149
283.386
283.15
287.218
303.15
303.152
284.227
283.15
288.851
293.599
284.731
283.618
302.97
285.754
302.617
295.037
286.157
283.15
283.571
291.475
303.106
289.298
302.722
283.15
291.756
287.386
300.828
300.924
285.245
303.119
283.271
297.152
302.97
303.15
284.767
303.148
303.029
293.046
302.629
283.15
303.15
303.15
294.816
290.998
283.156
301.261
284.623
284.092
284.597
303.145
287.977
291.778
283.15
283.15
302.578
303.152
294.352
302.925
303.178
300.053
303.211
302.92
283.15
291.258
302.915
283.15
303.15
283.468
303.15
284.514
299.217
283.167
291.944
283.15
287.227
303.037
285.513
283.15
303.042
287.169
301.429
303.135
303.084
283.15
283.15
301.757
302.201
283.814
302.901
302.531
302.543
303.14
283.15
283.615
283.15
302.879
286.12
303.019
303.15
283.15
302.881
285.32
290.873
302.257
283.15
302.685
302.205
283.289
302.606
303.054
303.192
303.036
303.15
283.15
301.439
298.074
303.097
303.15
290.477
285.271
303.15
283.15
285.102
303.183
303.163
302.961
301.378
284.473
303.11
290.772
284.857
303.148
289.099
303.162
283.15
289.928
283.15
300.352
298.687
284.923
288.119
299.887
283.732
294.931
299.535
293.456
303.152
293.634
296.541
283.155
299.691
290.823
303.15
293.384
299.51
303.15
291.473
303.169
301.781
303.15
286.648
285.967
302.804
289.193
283.15
283.15
300.442
300.89
283.839
283.15
303.15
283.847
302.464
301.023
300.057
302.833
292.009
289.158
283.224
291.855
284.26
290.885
283.317
295.108
289.838
294.111
287.655
284.23
303.161
283.282
303.146
285.758
300.872
283.151
299.932
283.491
288.277
301.995
285.324
297.058
283.15
302.987
283.156
283.108
288.157
299.8
303.15
300.058
303.053
287.569
302.821
303.15
301.534
284.892
283.81
302.211
303.149
283.681
283.15
291.046
283.33
285.629
303.163
303.149
283.15
283.15
283.178
303.15
293.631
303.15
303.157
295.442
303.444
303.15
284.914
303.15
303.15
293.822
290.162
303.15
289.326
302.238
289.068
303.15
303.15
286.131
283.353
290.128
303.213
303.15
303.146
285.369
283.294
283.15
288.766
287.487
303.15
284.28
303.15
303.15
303.132
287.15
303.15
303.147
283.289
303.152
302.701
287.567
283.151
283.679
296.971
291.033
303.15
285.923
283.812
300.718
283.482
302.274
286.806
293.665
303.15
303.15
283.955
303.155
302.993
295.189
302.991
302.781
283.541
283.15
283.186
283.224
289.814
302.697
285.634
303.15
283.849
286.46
303.128
283.177
303.15
286.85
283.15
293.821
303.15
299.972
300.071
283.334
283.409
302.305
283.87
301.172
303.15
301.602
301.929
303.15
303.15
284.351
294.17
283.15
283.314
303.15
294.376
283.377
303.15
286.247
299.179
288.627
303.15
302.803
290.816
295.997
284.355
303.162
286.223
296.739
283.942
303.128
302.85
287.421
298.979
283.313
283.506
289.228
283.15
302.99
303.151
303.15
303.167
293.799
296.919
302.962
301.47
303.15
284.302
303.15
303.059
302.905
303.15
294.13
295.789
303.15
285.423
303.104
303.15
303.103
303.155
286.367
293.941
290.697
287.959
283.952
303.15
289.099
292.135
295.163
293.605
303.141
303.15
293.097
303.184
284.457
303.184
303.15
303.15
303.143
303.15
285.004
303.15
284.281
303.147
303.15
290.176
303.145
292.91
295.384
303.136
296.014
285.434
283.428
303.13
302.92
284.746
283.15
285.151
303.15
285.457
302.929
302.247
303.005
298.144
287.012
303.15
285.143
289.414
299.394
283.15
283.668
303.15
303.145
303.187
286.631
303.15
292.049
288.999
303.192
303.15
284.894
283.47
293.855
284.647
302.556
301.356
283.252
303.15
284.598
296.341
302.263
285.845
297.5
291.928
284.541
292.381
303.15
286.874
292.379
287.899
283.824
303.15
286.078
283.705
303.15
302.579
287.725
301.729
283.15
303.15
300.277
297.967
283.891
298.053
301.782
298.828
303.15
290
285.016
297.783
297.739
283.828
303.15
283.202
303.15
298.156
303.15
302.877
303.15
292.219
303.15
296.834
283.15
289.99
303.15
283.15
283.435
301.655
300.737
288.797
300.811
303.15
302.572
303.15
302.168
285.543
303.15
300.736
290.183
303.15
300.983
303.15
303.15
292.428
283.15
285.759
284.285
300.885
303.15
286.854
285.456
288.018
289.028
287.603
298.899
299.868
300.885
283.511
286.762