/*--------------------------------*- C++ -*----------------------------------*\
  =========                 |
  \\      /  F ield         | OpenFOAM: The Open Source CFD Toolbox
   \\    /   O peration     | Website:  https://openfoam.org
    \\  /    A nd           | Version:  10
     \\/     M anipulation  |
\*---------------------------------------------------------------------------*/
FoamFile
{
    format      ascii;
    class       volVectorField;
    location    "3.6";
    object      U;
}
// * * * * * * * * * * * * * * * * * * * * * * * * * * * * * * * * * * * * * //

dimensions      [0 1 -1 0 0 0 0];

internalField   nonuniform List<vector> 
111485
(
(2.57016 -2.56978 0.00163035)
(7.33783 -0.0132166 -0.0338622)
(7.25908 0.0124832 0.0185326)
(2.57023 -2.57183 5.44105e-05)
(7.53404 0.0244795 -0.00234185)
(2.61785 2.61649 0.000648784)
(7.40815 0.0131867 0.0012336)
(7.5927 -0.00726718 0.0129155)
(7.43374 -0.0092634 0.00350408)
(7.57743 -0.0667074 -0.0238794)
(7.30509 0.00973691 0.0165818)
(7.64423 -0.00603717 0.0337704)
(7.21657 0.000900652 0.013229)
(7.24604 -0.0171222 -0.0347715)
(7.36263 0.0209531 0.0133976)
(7.4914 -0.025304 -0.0304132)
(7.42074 0.00674724 0.00270411)
(2.6349 -0.249704 0.424356)
(7.55268 0.011963 -0.0154936)
(2.55104 -2.54777 -0.00129998)
(2.55538 -2.55473 -0.00190153)
(2.62466 2.62387 0.00142006)
(7.47264 0.0139691 -0.00445194)
(7.56417 -0.0401113 -0.0100815)
(7.46258 0.0440366 -0.0154195)
(2.58899 -2.57966 -0.00188962)
(7.67616 -0.0205562 0.039606)
(7.3372 0.00361798 -0.00889423)
(7.57939 0.0018721 -0.0170942)
(2.56183 -2.56251 0.00139596)
(7.67035 0.136797 -0.0386283)
(7.50647 -0.00504484 0.0025966)
(2.54972 -2.55545 0.00367096)
(2.62215 2.62564 -0.00483383)
(2.64382 1.06633 0.43165)
(2.63703 2.65434 -0.0393912)
(7.63176 0.135708 -0.055037)
(7.32569 0.0107525 0.0608411)
(7.5769 2.28765 0.131266)
(7.53896 0.0300556 0.00682097)
(2.58745 2.6118 -0.0247147)
(7.64323 0.00440497 -0.0433683)
(7.53133 0.0339849 0.013285)
(7.32981 -0.0362165 -0.0071597)
(7.65001 -0.138272 -0.0710347)
(2.58371 -2.56339 0.0110791)
(7.64367 -0.0274854 0.0399586)
(7.55471 -0.03521 -0.00904932)
(7.64196 -0.00199869 -0.0344689)
(2.55624 -2.52938 0.0122677)
(2.54781 -2.52131 0.0181411)
(2.98728 2.50635 0.0434573)
(2.53497 -2.52559 0.00892244)
(7.63776 0.0272167 -0.0616618)
(2.52949 -2.51858 0.00192758)
(7.51676 0.010679 -0.00837999)
(7.5159 -0.0220178 -0.00724658)
(2.62215 2.61984 0.00210994)
(6.88407 -0.0206269 -0.11399)
(7.56169 0.023611 -0.00383787)
(7.56057 0.0267196 -0.00251258)
(2.56247 -2.5675 0.00241239)
(7.0086 0.00874801 0.0365252)
(7.68906 -0.0103647 0.0575466)
(2.70693 2.44934 0.00355885)
(7.03107 0.0076479 -0.00479635)
(5.35153 -0.462166 0.192712)
(7.57848 -0.0112657 0.0125814)
(6.89686 -0.000759508 0.0154499)
(6.68541 -0.0135393 -0.00754949)
(7.36261 0.0555145 -0.0503563)
(6.86539 -0.0112121 0.0125848)
(2.76784 -2.49754 -0.0557149)
(6.94576 0.0109284 0.0400489)
(2.56643 -2.56642 -0.000517928)
(7.53535 -0.004601 0.00612537)
(2.62352 2.62255 -0.00193722)
(7.63644 -0.0140017 0.0370322)
(2.62127 2.62198 0.000215475)
(2.35813 2.29301 -0.0807929)
(7.37755 -0.114309 0.0767892)
(7.5983 0.0318297 0.00588018)
(2.6134 2.60901 -0.000844196)
(2.5675 -2.56784 0.000853522)
(7.17965 -0.00681129 0.009359)
(6.95849 0.0135319 -0.0147934)
(5.88535 3.80791 -1.03001)
(7.53906 0.0818039 0.00756638)
(7.27182 0.187749 0.159393)
(7.32301 0.00641936 0.00924557)
(7.77694 0.14606 -0.0963489)
(7.5506 -0.00844627 0.0117008)
(7.10511 -0.0135451 0.0098381)
(7.27633 0.00215305 -0.000850569)
(7.65372 0.0134529 -0.0411463)
(2.56773 -2.56717 -0.000119635)
(2.56141 -2.56184 0.00165511)
(7.53582 0.0777375 0.0243852)
(7.80635 -1.55895 0.107495)
(7.11355 0.0213067 0.0468663)
(2.5682 -2.56803 0.00263166)
(7.55852 -0.0303574 0.00692804)
(2.63451 2.64012 0.0140121)
(7.51645 -0.0054119 -0.00105521)
(7.40366 -0.020617 -0.0316965)
(2.57258 2.29257 -0.0554955)
(2.62297 2.62191 -0.000934582)
(7.50756 -0.00743389 -0.000938347)
(7.07665 -0.036293 0.00138611)
(6.72748 -0.199292 -0.208773)
(7.24659 0.0060456 0.000521639)
(7.49617 0.00670879 -0.00146097)
(7.03499 -0.00848136 0.0184219)
(6.97599 -0.0321696 0.00526951)
(2.59233 -2.57907 0.00216855)
(6.83379 -0.00199125 0.00349202)
(2.57721 -2.56934 -0.00377598)
(2.63449 2.62338 0.0112021)
(7.36466 0.0162922 0.0129716)
(2.57071 -2.56995 0.000276737)
(2.58956 -2.5785 -0.0012272)
(3.46644 2.71709 0.163944)
(2.59111 2.60573 -0.00397465)
(2.62843 2.62185 -0.00635688)
(7.25235 -0.0220013 0.0360959)
(2.06 -1.47014 -0.371401)
(3.30333 2.83516 0.102592)
(6.87882 -0.00372514 0.0174156)
(2.56828 -2.56662 -0.00189586)
(7.61158 0.551038 -0.204969)
(7.60834 0.153264 -0.0849229)
(7.52165 0.0793589 0.0230028)
(2.55518 -2.54546 -0.0129238)
(3.39123 2.94398 0.309145)
(3.16156 2.81861 0.134975)
(7.56943 0.0128418 -0.0141697)
(2.62574 2.62598 -0.00258818)
(7.48538 0.00923992 0.000830532)
(7.45775 0.0251336 0.0151104)
(7.33564 0.023396 0.0253182)
(5.92555 -0.00121275 0.0136437)
(7.51782 0.031482 0.00767711)
(7.4535 0.0289483 0.0188834)
(7.16575 0.00607087 -0.0198108)
(7.48729 -0.00546907 -0.000474264)
(7.34064 -0.0114011 0.0057272)
(2.62499 2.62657 -0.00112491)
(2.56759 -2.56943 0.00092212)
(2.61811 2.61967 0.00576939)
(7.52893 0.0279767 0.00521668)
(7.17651 0.00993793 -0.0170824)
(2.55678 -2.55641 4.76034e-05)
(4.97427 -0.0247279 0.045195)
(7.37854 0.0238295 0.0230907)
(8.07419 0.310595 0.142221)
(7.56841 0.0141357 -0.0131533)
(7.53382 0.0161226 -0.00537662)
(7.11292 0.0140266 -0.0265827)
(8.13695 0.385419 0.0955126)
(2.55365 -2.57727 0.0104348)
(2.56608 -2.56905 0.00243853)
(7.55965 0.0118828 -0.0151799)
(7.40586 -0.016723 -0.017814)
(8.18967 0.437882 0.10481)
(8.07485 0.383145 0.145245)
(7.04699 0.00254441 0.0234844)
(7.57352 0.0843601 -0.0305442)
(2.58974 2.61174 0.000699354)
(8.28925 0.540508 0.128385)
(7.90479 0.382351 0.118852)
(2.6216 2.62163 0.00201987)
(2.56223 -2.56209 0.000814171)
(6.2274 0.0110941 -0.031351)
(2.62466 2.62578 0.00086454)
(7.46962 -0.00771832 -0.000461248)
(7.30049 0.00222939 -0.00800201)
(2.62312 2.55899 -0.0154063)
(2.77237 -2.54951 0.0251766)
(2.56038 -2.54705 -0.00466196)
(2.58573 2.43701 -0.0263112)
(2.7864 -2.57112 0.044696)
(2.56401 -2.56815 0.00275576)
(7.51399 0.0166566 -0.00736485)
(7.53125 0.00826613 -0.0126888)
(7.50598 0.0141134 -0.00428062)
(7.3767 -0.0424861 0.0282007)
(7.16367 -0.0221405 0.00381811)
(7.18258 0.00417578 0.014335)
(6.45512 0.0704959 0.00228126)
(2.56388 -2.55351 0.000993766)
(6.99841 -0.00532169 0.000371664)
(2.76815 -2.56906 0.0263743)
(2.58533 -2.58875 0.000525975)
(7.2298 0.00327087 0.0159249)
(7.58168 -0.0747311 -0.0235672)
(7.54062 0.00749543 -0.0352567)
(7.31172 0.00276054 -0.00441119)
(7.37721 0.00548221 0.00643528)
(2.56237 -2.55741 0.00799341)
(7.29488 -0.024125 0.00461717)
(7.20419 -0.00379749 -0.0289772)
(5.03656 1.57761 0.207674)
(7.39049 -0.0644302 -0.000665543)
(7.4794 -0.00141269 0.00327281)
(2.57466 -2.56233 -0.00487671)
(7.20045 0.00627454 0.0161851)
(7.57023 0.0175976 -0.00086687)
(2.8097 -2.54161 0.00927217)
(7.28437 0.0122915 0.0298819)
(7.63359 0.000981318 0.0291027)
(7.16549 0.00640123 -0.0197064)
(7.17816 0.0115066 0.0221441)
(2.78383 -2.57912 0.0347428)
(2.55983 -2.56125 -0.00155738)
(7.17566 0.011907 0.0264277)
(4.69887 2.93494 -0.290419)
(7.70845 0.0238603 -0.0721101)
(2.62246 2.62282 -0.00182553)
(7.21414 0.00865387 0.021545)
(7.24463 -0.000336829 0.00324921)
(7.66179 -0.010295 0.0428137)
(2.56976 -2.5679 0.00192995)
(6.92781 -0.00527596 0.000936168)
(7.58103 0.107772 0.0570967)
(4.1465 2.76906 -0.304222)
(2.62467 2.62423 -0.00127011)
(2.62141 2.62192 0.00145259)
(7.75477 -0.0360392 0.0751631)
(7.24879 0.163227 -0.0198619)
(2.75972 2.32374 -0.0563879)
(3.17411 -2.46701 0.0975644)
(7.27109 0.00345563 0.00832122)
(7.45929 0.00730256 0.000730289)
(7.5325 0.0104931 0.00998291)
(2.71829 2.35865 -0.0689788)
(2.70214 -2.4949 -0.00855556)
(7.31189 0.0919472 -0.110244)
(2.56657 -2.56687 0.0024701)
(6.97472 0.0045897 -0.0301905)
(7.19232 0.00268716 0.0181457)
(7.26084 0.000928416 0.0110674)
(7.25769 0.00678531 0.0111908)
(7.28158 0.00484146 0.0135632)
(2.61413 2.61472 0.00951555)
(5.56774 -0.0124154 -0.204495)
(7.34524 0.0174467 0.0156043)
(2.60993 2.61642 -0.00504928)
(2.62332 2.62583 -0.00026641)
(7.68581 -0.0799819 -0.00432697)
(7.49147 0.0298522 -0.00550103)
(2.68597 2.28405 -0.0740215)
(7.04262 -0.0116264 -0.0103152)
(7.33303 0.00988955 0.0155227)
(2.5687 -2.56818 -0.000860452)
(3.32718 3.13571 -0.0206141)
(7.57913 0.0823368 -0.0368977)
(2.57869 -2.54646 -0.000602868)
(2.84472 -2.03833 -0.050633)
(3.89092 -1.37878 -0.133984)
(2.57166 -2.56554 -0.00153278)
(7.38743 -0.00658866 -0.00691502)
(7.22065 -0.0107815 -0.00857092)
(7.44922 0.00275077 -0.016036)
(2.5657 -2.56596 -0.000814509)
(7.37025 0.0133227 0.0132797)
(2.57128 -2.57187 -0.00104663)
(2.56953 -2.57168 0.00180427)
(2.56245 -2.5528 0.00433241)
(5.18279 0.020138 -0.0711833)
(7.63277 -0.0226846 0.0355026)
(7.23613 0.0216753 0.0245436)
(7.36345 0.0178745 0.0153613)
(7.63188 -0.0305269 0.000988324)
(7.34436 0.0109204 0.0135297)
(7.50904 0.0211798 0.00767838)
(7.61556 0.123546 -0.00865046)
(7.42791 0.00190082 -0.00369993)
(7.46461 0.00562263 0.001038)
(2.67024 2.62731 -0.00144553)
(2.55883 -2.56004 -0.00310888)
(4.74839 0.0318926 -0.112416)
(7.49894 -0.00749063 0.00356189)
(7.59761 0.05582 0.0630892)
(7.25175 -0.00400072 -0.00394238)
(2.57026 -2.56945 0.00227011)
(7.46723 0.0178674 0.00824607)
(7.50637 0.031912 0.0138493)
(7.36588 0.00630423 0.00788816)
(6.65657 0.000686647 -0.0443921)
(6.83567 -0.0723311 -0.160998)
(7.46929 0.0165864 0.00181629)
(7.34859 0.0106934 0.0138363)
(7.52814 0.0695656 -0.0435189)
(2.62252 2.62463 0.00349543)
(6.98668 0.030696 0.00348919)
(2.62271 2.62305 -0.000226207)
(2.11877 1.59487 -0.347631)
(2.88379 -1.87142 -0.183142)
(7.81003 -0.0643094 0.110347)
(7.63415 -0.0306649 0.000806624)
(7.4622 -0.00883272 0.00343835)
(2.57027 -2.56494 -0.00134907)
(2.61184 2.62674 0.0205329)
(7.44722 0.0183651 0.0125142)
(7.2615 0.00256029 -0.00318307)
(2.55979 -2.55864 -0.000315317)
(2.56997 -2.56813 0.00286681)
(2.51253 -2.52956 0.0144046)
(7.20905 0.000624228 0.00405359)
(7.44645 -0.00181027 -0.00642422)
(7.1383 -0.00185445 0.0172995)
(6.98582 0.0120414 -0.0206505)
(7.58997 0.0167293 -0.0148378)
(3.00914 2.58105 0.0696126)
(2.61822 2.62399 0.00449373)
(2.56727 -2.56386 -0.000382993)
(7.42463 0.0175658 0.0117431)
(4.88224 -4.14655 -0.295187)
(7.17644 -0.0104427 0.0141928)
(7.76085 -0.0491954 0.168741)
(6.29235 0.00655202 -0.118763)
(2.62315 2.62663 0.000241288)
(2.56646 -2.56838 0.00161738)
(2.56865 -2.57005 -0.000825246)
(3.31831 2.7761 0.174791)
(7.51967 0.0164023 0.00016517)
(7.59923 -0.0313354 0.0112009)
(2.62755 2.63464 0.000860413)
(7.4807 0.0112938 -0.00526988)
(2.77243 2.23459 0.162446)
(2.57206 -2.53885 -0.00171744)
(7.70556 -0.0154131 0.0579529)
(7.45501 0.0165128 0.010104)
(7.64031 0.00201624 0.0173216)
(7.47886 0.0143755 -0.00749213)
(2.51932 2.22462 0.13891)
(3.28558 2.82081 0.185895)
(2.61783 2.6196 -0.00402162)
(7.46932 0.0165926 0.0080911)
(7.45245 0.0131537 0.000796432)
(7.64642 0.144788 -0.0518014)
(2.59317 2.58496 0.00445063)
(5.22328 4.61745 -1.11453)
(7.18113 0.0690877 0.0659831)
(7.60765 -0.0229073 0.0180936)
(7.46371 0.0207192 0.0134843)
(7.14434 0.719324 -0.0573151)
(7.59166 0.0102458 -0.0188142)
(2.61536 2.61257 0.0025084)
(7.58854 0.0134189 -0.0117503)
(7.308 0.00403838 0.00890708)
(7.70449 -0.170505 0.000724157)
(7.72866 -0.0379773 0.0919185)
(7.41997 -0.0453675 -0.042124)
(2.61063 2.62382 -0.00910178)
(2.56161 -2.56566 -0.00342844)
(2.62808 2.61119 0.0104535)
(2.54777 -2.55491 -0.00127133)
(7.57747 -0.0224411 0.00432464)
(7.5125 0.00272019 -0.000667504)
(7.56193 0.0245555 -0.0278424)
(7.5905 0.0101646 -0.0198884)
(2.60015 2.6043 -0.0108736)
(7.50156 -0.0414845 -0.0130677)
(2.62059 2.62102 0.00284048)
(2.55954 -2.56629 -0.000922468)
(7.58642 0.0149573 -0.0150281)
(2.36657 -2.36883 0.033342)
(4.21066 -0.802051 -0.0539183)
(2.53721 -2.52775 0.00101423)
(2.64417 2.61019 0.0211156)
(7.52857 0.00522868 -0.00925615)
(2.62148 2.61972 0.000962676)
(7.42223 0.00840503 -0.00428362)
(7.11445 0.00803787 -0.0215914)
(2.62815 2.62813 -0.000710739)
(6.87572 0.00154639 -0.0209856)
(7.39479 0.00477909 0.00767234)
(2.64361 2.31411 -0.0877826)
(7.34266 0.0250447 0.0335523)
(7.07752 0.02762 0.00609219)
(7.39124 0.0235594 0.0107204)
(6.92462 0.0249054 0.0850951)
(7.4389 0.0124667 0.00581317)
(7.21368 0.00262145 -0.00329615)
(2.59147 2.20818 -0.0103588)
(2.55898 -2.55317 0.014588)
(6.42005 0.00779982 0.139951)
(2.60473 2.61223 -0.0144119)
(7.39405 0.0259609 0.0322643)
(7.71309 -0.0296849 0.0717095)
(2.6354 2.51589 0.021503)
(2.61631 2.62763 -0.00254658)
(7.55417 -0.00184878 0.0044816)
(7.29293 -0.0264946 -0.0602645)
(7.30781 0.0309691 -0.00166217)
(7.59218 0.0318182 -0.0130721)
(2.62393 2.62123 0.0011192)
(7.74786 -0.013213 0.12055)
(7.61807 -0.0161905 0.032721)
(2.63183 2.62746 -0.000387527)
(7.46141 0.11359 0.0947983)
(7.12175 -0.0196476 -0.0620403)
(2.56415 -2.56254 -0.000516229)
(2.55967 -2.55861 -0.00121137)
(7.39928 0.00877399 -0.00504048)
(7.46771 -0.000961058 -0.0115678)
(2.63306 2.6328 -0.00358311)
(2.56562 -2.56145 -0.00449267)
(4.49091 -2.43656 0.55099)
(2.56949 -2.57085 0.000708476)
(7.50138 0.00483976 0.00865143)
(2.60553 2.61408 0.00508792)
(2.56954 -2.57123 0.000581463)
(7.64285 0.00318411 0.0239516)
(6.95958 -0.0765473 -0.192459)
(7.56972 -0.0430351 0.00803251)
(7.32131 -0.00983183 0.0083411)
(2.62993 2.62724 0.000837425)
(3.41333 2.62316 0.131105)
(7.32004 0.0901286 0.139644)
(3.19657 2.81383 0.152325)
(7.29953 0.025405 0.0515878)
(7.27127 -0.0595772 0.00264902)
(7.57959 -0.0327064 -0.0198013)
(5.29019 0.132605 0.204579)
(3.13873 2.70021 0.139782)
(7.515 0.00215639 -0.0733242)
(7.70319 0.241699 -0.0728654)
(2.56664 -2.56939 0.00326254)
(7.65315 0.0134521 -0.0728599)
(7.64114 -0.0228142 0.0277958)
(2.57042 -2.56915 0.00330498)
(7.38983 0.406719 -0.217742)
(6.50307 0.000487472 -0.0741651)
(3.32087 2.60303 0.108764)
(7.61659 -0.00824483 0.0283644)
(7.5426 0.00309064 -0.00699743)
(7.43578 0.0110076 -0.00709603)
(2.62466 2.6195 -0.000451927)
(7.39698 -0.0213607 0.0499586)
(7.65326 0.00864693 0.0218446)
(7.36835 0.0623682 -0.00861822)
(4.69334 -0.066409 0.0731123)
(3.19969 3.01251 -0.0607931)
(4.41738 -0.112017 0.148548)
(2.56575 -2.569 0.00253264)
(6.89615 -0.231361 -0.217395)
(7.39998 -0.0227668 -0.0498895)
(2.62423 2.62174 0.00390442)
(7.11848 0.0160657 -0.0409914)
(5.90156 -0.0141118 0.0955561)
(3.41336 3.01383 -0.0304839)
(2.56686 -2.56562 0.000181839)
(3.00166 -2.55641 0.0832406)
(2.56962 -2.56893 0.000510493)
(7.42327 0.0493063 -0.018705)
(7.43149 0.0312176 -0.0108446)
(7.41226 -0.0119158 -0.0123963)
(6.9994 0.0112154 -0.0217009)
(7.58973 -0.139774 -0.0272549)
(2.62099 2.6101 -0.00436923)
(7.37295 0.00424794 -0.00699683)
(2.57635 -2.55462 -0.000247714)
(7.28008 0.0183858 0.0131283)
(2.63095 2.63141 0.000439257)
(2.56842 -2.5657 -0.000235329)
(2.53964 -2.54639 -0.00440355)
(7.23305 -0.0375674 0.00593258)
(2.55622 -2.56112 -0.0013668)
(2.56923 -2.57003 0.00159198)
(2.59137 1.70302 -0.110227)
(2.57075 -2.57143 0.00103566)
(2.59341 2.62951 0.0242637)
(7.35146 -0.0335594 -0.0157517)
(2.62261 2.61909 -0.000276376)
(3.11302 2.29543 0.0020143)
(2.6254 2.62504 0.00361695)
(2.5593 -2.55068 -0.000629408)
(2.62414 2.61345 -0.00513624)
(2.5586 -2.54479 -0.0124155)
(2.60715 2.60988 -0.000503437)
(6.7531 -0.0107556 -0.0325435)
(2.62783 2.61486 0.0103421)
(6.85828 0.0916372 0.135759)
(7.52298 0.0240523 -0.0102353)
(7.73998 -0.305151 -0.0492395)
(2.62639 2.61748 4.6399e-05)
(6.53488 0.0149808 0.100837)
(2.6276 2.61908 0.00246229)
(2.57012 -2.57058 -0.000731735)
(7.35378 -0.0556837 -0.065105)
(7.37324 -0.0461988 -0.0602848)
(7.41292 -0.00733804 -0.013028)
(7.77235 0.0128826 -0.128887)
(3.02432 2.53531 -0.0822504)
(7.59049 -0.00137891 -0.0403528)
(7.58446 -0.000118049 -0.0397394)
(7.45247 0.00439514 -0.000112376)
(7.3885 0.00206572 0.00365304)
(7.47815 -0.0614104 -0.0393741)
(2.55937 -2.56019 -0.000139812)
(7.46012 0.00345456 0.000538595)
(3.44889 3.00119 -0.0214547)
(7.48211 0.0106351 -0.0127486)
(2.61876 2.61655 -0.00193984)
(7.61593 0.0126278 -0.030438)
(3.40688 2.82427 0.0271391)
(7.47355 -0.00324082 -0.00898157)
(7.55446 -0.0288319 0.0249737)
(2.95724 -1.51663 -0.0139082)
(2.62306 2.62522 0.0284593)
(7.39322 0.00583291 0.0176683)
(2.56715 -2.56599 -0.000482637)
(7.64729 0.0221736 -0.0501858)
(7.58975 0.0195238 -0.0291315)
(2.62045 2.61395 -0.0212698)
(2.61461 2.61544 0.00561674)
(2.56616 2.29345 -0.0518193)
(2.62128 2.62418 0.00053503)
(5.31229 -0.287831 0.148389)
(7.65227 0.0183128 -0.0438312)
(2.6626 2.59918 -0.00304995)
(2.6182 2.62068 0.00158107)
(6.6795 0.00388866 -0.00529707)
(2.62477 2.62607 -0.00130837)
(7.53236 0.0112645 -0.0250526)
(2.62276 2.62335 0.00230961)
(7.46183 -0.033184 -0.0303362)
(2.57008 -2.56992 0.00106748)
(6.99731 -0.0318171 -0.086237)
(5.95559 -0.0214944 -0.00771605)
(7.13435 0.0131763 -0.0068743)
(7.47503 -0.000890098 -0.0109167)
(2.63461 2.61265 -0.00739845)
(6.99191 0.0108597 -0.0153592)
(2.62907 2.61976 0.0026546)
(2.62534 2.6248 -0.00828008)
(7.42615 -0.00928582 0.000449954)
(2.6211 2.61778 -0.00189736)
(6.39761 -0.00286875 -0.0595064)
(2.53099 2.32643 -0.0758912)
(7.54393 0.0107307 -0.0224983)
(2.55989 -2.56043 0.000464341)
(7.6146 0.0094559 -0.0150997)
(2.57213 -2.56878 -0.000779199)
(3.12619 2.75865 0.0836366)
(7.72641 0.279705 -0.0223982)
(7.37133 -0.0543231 -0.0635712)
(7.50457 0.0226999 -0.00160468)
(7.54296 -0.0674854 -0.0442134)
(7.47345 0.00619559 -0.0118675)
(7.6246 -0.0370627 -0.00312289)
(2.60497 2.6264 -0.0127046)
(7.49912 0.0370253 0.0258861)
(7.4003 -0.0619753 -0.0605182)
(2.62417 2.62401 -0.00178559)
(6.35415 -0.0952732 -0.222757)
(7.68696 -0.0617794 -0.0405736)
(7.36551 0.0229569 0.0260104)
(2.59216 2.55729 -0.014275)
(3.23571 0.6122 -0.528442)
(7.2141 0.0127174 0.0195876)
(5.97328 -0.0252849 0.0510442)
(6.11555 1.55249 -0.00944413)
(3.31528 -1.70753 -0.133926)
(7.61069 -0.0708423 -0.0138358)
(7.14896 0.0198846 0.0449748)
(7.36265 -0.0574719 -0.0634907)
(7.51963 -0.0312192 -0.0125946)
(7.38155 0.0360612 0.0205221)
(6.57545 0.830038 -0.0366121)
(3.25401 2.75267 0.0244544)
(6.70928 -0.25868 0.0653435)
(6.49097 -0.581603 0.126851)
(2.56434 -2.56683 0.000967564)
(6.6969 0.0390689 -0.0132295)
(2.63614 2.58729 -0.0143223)
(3.08283 2.80228 0.026066)
(7.46149 0.00582218 -0.0002689)
(6.62291 1.09927 -0.0327052)
(8.00739 -0.691474 -0.129183)
(7.23083 -1.26329 0.0252774)
(3.07679 2.92229 -0.221061)
(7.58309 -0.0356024 -0.0108925)
(7.48072 0.0359608 0.031485)
(2.61895 2.61054 -0.000601694)
(3.39161 1.86321 -0.0803273)
(7.47896 0.0490861 0.0337968)
(2.56877 -2.55994 0.00220352)
(2.62177 2.62021 -0.000582315)
(2.61476 2.61369 0.000510239)
(2.62747 2.61033 0.00185017)
(7.57554 -0.0652882 -0.0250344)
(2.62311 2.62233 0.00124187)
(2.57655 -2.5759 0.0127435)
(7.44267 -0.0329157 -0.0305303)
(7.01624 -0.00169177 -0.00492937)
(3.75718 -3.29545 -0.173851)
(7.47852 0.046148 0.0326277)
(3.0622 2.46442 0.0575703)
(7.47447 -0.0146737 -0.0105724)
(2.51717 -2.51654 -0.010897)
(2.6172 2.62262 -0.00265928)
(7.5652 -0.0375777 -0.0109446)
(2.62286 2.60704 -0.00924851)
(2.62423 2.61798 0.000526352)
(3.01279 2.88137 0.0801355)
(7.22027 -0.00925955 0.0040319)
(4.34448 3.6326 -0.485864)
(7.45668 -0.0202275 -0.0094035)
(7.45959 0.00552585 -0.00094548)
(2.54447 -2.52786 -0.0202233)
(7.77703 -0.0226001 0.244294)
(7.09188 -0.0349245 -0.0904293)
(7.43157 -0.00591649 -0.00771534)
(7.53963 0.133506 0.0152887)
(7.57806 0.068026 -0.162494)
(6.58797 0.00131709 -0.0417637)
(2.61841 2.61593 0.00192473)
(7.58674 0.00566887 0.0244637)
(7.51444 0.0243732 -0.00706416)
(2.54297 -2.57604 0.00400999)
(7.13959 0.00532716 -0.0135569)
(7.5949 0.0498232 -0.00658688)
(7.58482 0.0269565 -0.0123477)
(7.04155 -0.0319088 -0.0566123)
(7.58276 0.0258225 -0.0143291)
(7.58524 0.0354366 -0.00390358)
(2.57099 -2.53769 0.0159413)
(7.6112 -0.00199382 0.032128)
(6.35934 -0.0387194 -0.0172075)
(3.16861 2.7485 0.175315)
(7.58169 0.0183887 -0.0197654)
(7.27001 0.00810667 -0.010217)
(4.2338 3.43754 -0.524441)
(7.45933 0.00526183 -0.000481753)
(7.5887 0.0127039 -0.0250547)
(7.27291 0.00420445 -0.0204149)
(7.52476 0.0273983 0.00255458)
(7.4354 0.0734042 0.0329527)
(7.46331 0.00502665 0.000471034)
(2.56393 2.50555 0.00300644)
(7.52503 0.0327222 0.00028699)
(7.07177 -0.0410108 -0.0783376)
(2.87085 -1.74386 0.063642)
(7.48783 0.0642687 0.0397872)
(7.39665 0.0624152 0.0612653)
(7.47568 0.0103788 -0.00367581)
(2.61923 2.61226 0.00152351)
(7.30028 0.0350066 -0.0617504)
(2.56848 -2.55633 0.00774762)
(2.62232 2.62259 -0.0015848)
(2.60852 2.59083 -0.000871494)
(2.62918 2.61432 0.00214506)
(6.45357 0.00168581 -0.0143245)
(3.13516 2.69233 0.112401)
(5.66822 -0.407825 0.466626)
(2.55276 -2.55554 -0.000978699)
(2.6166 2.65369 -0.00512867)
(7.50096 0.0701117 0.0397082)
(7.54261 0.0105323 -0.0345332)
(2.56901 -2.56935 0.000721512)
(7.5706 -0.0402769 -0.00343263)
(2.56895 -2.56559 0.00845643)
(2.56922 -2.56726 -0.000526826)
(2.52422 -2.52873 0.00727773)
(7.66303 -0.049319 -0.00568601)
(6.51292 0.0329992 -0.00972783)
(3.10275 2.7891 0.0361679)
(2.59293 -2.5643 0.00637898)
(2.61944 2.62846 -0.00358939)
(2.62191 2.62439 -0.00130634)
(7.72789 0.0113584 -0.0856407)
(7.47185 0.00499743 0.00105461)
(3.12414 2.936 0.134995)
(7.62892 0.0129096 -0.0413016)
(7.12451 -0.100178 -0.293262)
(2.61725 2.6195 0.000768963)
(7.60961 0.00993501 -0.0366049)
(6.98284 -0.000225377 0.0335316)
(7.38578 0.0305994 -0.0397499)
(2.62633 2.62598 0.000547036)
(2.61946 2.6163 0.000154225)
(7.3443 0.0250652 0.0338721)
(7.48845 0.00862023 -0.00245174)
(3.10865 2.82326 0.045213)
(2.61313 2.61439 0.000522923)
(2.65113 2.57108 -0.00883661)
(7.47776 -0.0150553 0.00266722)
(2.56671 -2.5669 -0.00288696)
(2.55995 -2.552 0.00219597)
(2.60794 2.60727 0.00140559)
(7.60577 0.013044 -0.0314138)
(6.8036 -0.0322198 0.00249443)
(2.62599 2.62639 9.54139e-05)
(2.93387 0.552347 0.536673)
(3.23952 -0.389724 -0.10977)
(7.35055 0.032621 0.00443513)
(2.61979 2.6247 -0.00118305)
(2.62406 2.6192 -0.00178422)
(7.62409 -0.0827486 -0.0100693)
(7.3329 0.123423 0.106335)
(3.15245 2.81422 0.137067)
(4.60951 1.47247 0.105571)
(7.23777 0.142919 0.215672)
(6.93827 0.0220722 -0.0338695)
(7.3792 0.00210929 4.62684e-05)
(2.71331 2.5444 -0.00531418)
(7.31732 0.0226328 -0.00280926)
(7.58568 -0.0410551 0.048371)
(2.62715 2.62019 -0.00361926)
(2.55042 -2.50567 0.00432366)
(2.60834 2.61021 -0.000325271)
(2.61809 2.61827 -0.000388585)
(2.62288 2.62796 -0.00256137)
(2.62742 2.6267 -0.000575003)
(7.62303 0.0116615 -0.0309742)
(2.56705 -2.56699 0.00235732)
(2.6161 2.61641 0.00106517)
(2.61063 2.57613 0.00117475)
(7.6302 0.0145346 -0.0397139)
(7.4862 0.00766128 -0.000908601)
(2.57895 -2.54533 2.82327e-05)
(2.53704 -2.51002 0.00419949)
(7.69063 -0.0246221 0.0647807)
(7.31718 -0.000574045 0.0084424)
(7.30541 0.00363278 0.00991237)
(2.5669 -2.56008 -0.00117013)
(2.61303 2.61719 0.00117201)
(7.31453 0.00164706 0.00838669)
(2.56926 -2.56665 0.000715672)
(7.27291 0.0116322 0.00604757)
(7.34711 0.0118711 0.0195555)
(7.36421 0.0127419 0.0106913)
(2.57672 -2.55732 0.00604474)
(2.5684 -2.57103 0.00178968)
(2.56858 -2.56996 0.000272733)
(2.62385 2.62606 0.00130684)
(7.45898 -0.0224366 -0.0115579)
(2.62239 2.62497 0.00329228)
(2.61698 2.61574 0.00170722)
(7.4771 0.0302478 -0.034983)
(2.56897 -2.56955 0.00151865)
(7.33994 -0.00743354 0.00699195)
(6.75257 -0.0644913 0.0189352)
(2.63929 2.54886 0.0137611)
(7.47076 0.00782687 -0.00194971)
(3.534 0.507857 -0.0749739)
(7.40695 0.0033041 -0.0001206)
(7.65052 -0.0138685 0.0156597)
(6.86214 0.0203078 0.0146278)
(7.66588 0.00241987 0.048566)
(5.57021 0.107061 -0.218751)
(3.12985 2.49634 0.0531453)
(7.39325 -0.000437075 0.000844677)
(7.69485 0.0507925 0.00981922)
(7.46042 -0.012378 -0.00330253)
(2.68733 2.33177 -0.081615)
(3.42224 0.3266 -0.180646)
(4.02634 -0.325606 0.143529)
(7.40415 0.00112146 -0.00459738)
(2.61549 2.6186 0.00367773)
(7.26809 -0.0117571 -0.0464066)
(7.42667 -0.00397815 -0.0112308)
(7.1988 -0.0519354 -0.105573)
(2.79893 -1.99569 -0.146233)
(2.56947 -2.57094 0.00122245)
(2.56606 -2.56661 -0.000642737)
(7.49245 -0.0118162 0.00320334)
(3.06126 2.53053 -0.0343279)
(7.19745 0.0166507 0.00831139)
(2.84776 2.59532 0.0339281)
(7.11894 -0.0100316 -0.0348765)
(7.37838 -0.0034323 -0.000641734)
(7.27169 -0.000549421 0.00683921)
(7.48856 0.00954559 -0.00304545)
(2.6124 2.61494 -0.000701531)
(2.60272 2.59695 -0.00440403)
(2.75458 -2.50655 0.0123129)
(7.46488 0.00785643 -0.00289533)
(2.62756 2.62044 -0.000938904)
(3.0359 2.60504 -0.118805)
(7.69908 0.150794 -0.125318)
(2.63145 2.62763 -0.00261915)
(2.60978 2.62145 0.00843009)
(2.55323 -2.54633 -0.00516442)
(2.62649 2.62567 0.00311627)
(7.22193 -0.00141422 0.0112971)
(2.67666 2.54066 0.0035079)
(2.62471 2.62161 0.000653948)
(6.11533 0.856779 -0.605062)
(3.07774 2.48125 -0.0325622)
(2.61073 2.61262 -0.0213257)
(3.67828 -2.17879 0.130369)
(2.62192 2.62028 -0.00204113)
(6.00591 0.0158165 -0.0377295)
(7.37429 -0.00586482 0.00290108)
(2.5574 -2.55738 -0.00136555)
(7.26745 0.0148034 -0.0338024)
(7.25708 1.15784 -0.157437)
(7.14921 -0.0569632 -0.104704)
(7.863 0.280464 0.00254273)
(7.17423 0.000651251 -0.0027199)
(2.6205 2.60373 0.00681287)
(7.3924 -0.0557549 -0.0666242)
(7.68559 -0.0113117 0.0176238)
(7.14345 -0.0576916 -0.103736)
(2.56698 -2.56552 -0.00164128)
(7.78505 2.0267 0.548899)
(7.201 0.00357488 0.012281)
(3.50906 2.78848 -0.168018)
(7.16312 -0.011149 0.00282319)
(7.76421 0.0896055 -0.0677163)
(7.43334 0.144248 0.00970274)
(7.33684 -0.0167226 -0.0179654)
(7.33761 0.0200847 -0.00350891)
(7.8238 0.1114 -0.0362233)
(7.47008 -0.00219987 -0.0093941)
(7.44845 0.00107547 0.00316699)
(2.60123 2.61 0.0102904)
(2.61006 2.59542 0.00821654)
(7.23821 0.0127472 -0.000492021)
(7.15663 0.00485025 0.00313459)
(2.61686 2.62344 -0.001654)
(7.31807 0.00311683 -0.0016971)
(7.64061 -0.0194559 0.00922141)
(7.45089 -0.00482123 0.0028134)
(2.62149 2.59403 -0.00144993)
(7.40388 0.145793 0.0331079)
(2.61604 2.61321 -0.000231774)
(7.4525 0.00101667 0.00362609)
(7.4574 0.00158783 0.00209796)
(2.62203 2.62055 -0.000641232)
(7.15655 0.0272865 -0.0360954)
(7.44122 0.0040385 -0.00065909)
(7.37728 0.132247 0.0139105)
(7.22871 -0.00478441 0.0195495)
(2.6796 2.62686 -0.00402876)
(7.55329 -0.0094584 0.0186781)
(7.40213 0.165625 0.00388096)
(7.80547 -0.191807 0.0502979)
(6.59587 0.0795742 0.0240511)
(5.93124 0.0214513 -0.0751939)
(2.62398 2.59736 -0.00464056)
(2.61572 2.61328 0.00452993)
(7.28461 0.0902849 0.0154136)
(2.62431 2.62705 -0.00160645)
(6.50813 -0.0128298 -0.0398269)
(7.29104 -0.0288183 -0.0456902)
(4.43467 0.594909 -0.16422)
(8.10646 -0.526862 0.192636)
(7.14808 -0.327104 0.0916724)
(7.95801 -0.294489 0.0770063)
(2.62379 2.62454 0.000306235)
(3.56931 3.02849 0.0278441)
(7.50199 0.0093683 -0.00826354)
(2.55548 -2.56477 -0.00927964)
(1.43715 -1.01626 0.402804)
(7.4396 -0.127551 -0.0998336)
(2.6126 2.60541 -0.0049679)
(2.6278 2.62277 -0.000510825)
(6.68582 -0.134574 -0.00749678)
(5.4459 -0.353144 0.0783097)
(2.6247 2.62585 0.000603561)
(6.76239 -0.126237 0.0162862)
(2.61393 2.61043 0.0026398)
(2.62211 2.62718 -0.00482009)
(2.56622 -2.56852 0.00032937)
(2.5704 -2.56431 0.0054951)
(2.51968 -2.49832 0.00625914)
(2.56485 -2.55888 -0.000784838)
(6.78528 0.0533306 -0.0183465)
(2.60121 2.58458 -0.00167287)
(2.6217 2.622 0.00134176)
(2.60505 2.62084 0.00389639)
(6.29464 -1.40093 -0.369494)
(7.10049 -0.0514452 -0.120549)
(6.90002 0.00222326 -0.0493838)
(7.50362 0.00684822 -0.00786064)
(2.60718 2.58999 -0.000764116)
(2.63479 2.62291 -0.000537686)
(7.22225 -0.115876 -0.140365)
(2.62286 2.62378 -0.00339913)
(2.62211 2.61804 -0.000894557)
(4.20789 2.39605 0.086485)
(7.68596 -0.0927767 0.00111992)
(7.50061 0.0113263 -0.00482828)
(2.62029 2.619 -0.000813144)
(2.61964 2.61328 0.00491511)
(2.60853 2.59974 -0.00504845)
(2.61337 2.60741 0.000226875)
(2.62486 2.62241 -0.00239402)
(2.63073 2.62512 0.00129346)
(7.51645 -0.163963 -0.101228)
(2.62787 2.6199 -0.000991314)
(5.23086 0.0725851 0.173782)
(7.58262 -0.010521 0.0205532)
(2.62188 2.62647 -0.000937451)
(2.54808 -2.56055 -0.00669732)
(2.53309 -2.5054 0.00154962)
(6.3803 0.0750286 0.34675)
(2.51311 -2.51087 -0.00933745)
(2.56503 -2.56765 0.00148714)
(2.60761 2.61042 -0.0171967)
(6.84279 -0.104101 -0.000290171)
(2.61327 2.61299 -0.000674391)
(7.48494 -0.0874707 -0.0541398)
(6.05891 0.0875492 -0.0286089)
(4.92736 0.00483105 0.197607)
(2.61305 2.61523 0.000873377)
(5.15811 -1.34762 0.109667)
(7.55053 -0.00932602 0.0104642)
(7.5801 0.0103497 -0.0167708)
(2.75369 -2.62898 -0.0313483)
(7.32672 -0.127413 -0.018993)
(7.4701 -0.0181777 -0.00430064)
(2.57008 -2.55014 0.00261819)
(2.71579 2.57126 0.0101787)
(3.60482 -2.78578 -0.23453)
(2.60424 2.60754 -0.00108332)
(7.50039 0.00562259 -0.00320986)
(7.53272 -0.00355078 0.0108395)
(7.66508 -0.0863633 0.0392033)
(5.04063 -0.00422813 0.276967)
(2.6271 2.62541 -0.000818818)
(7.50189 0.00586241 -0.00264342)
(2.69367 2.55904 -0.00646334)
(3.28885 2.77688 -0.0102374)
(3.44202 -2.68309 -0.113417)
(2.62242 2.622 0.000842219)
(7.53806 0.0139846 -0.00584902)
(2.61173 2.60785 0.000707737)
(2.54044 -2.49503 0.00135636)
(6.91985 -0.0886652 -0.167106)
(7.43519 -0.00793429 0.00109952)
(2.54145 -2.50031 -0.00593401)
(7.45832 0.00403654 -0.00214787)
(2.79584 2.73349 -0.0146909)
(7.55619 -0.0577046 -0.0277347)
(2.46154 2.34561 0.0259128)
(2.6236 2.62377 -8.98794e-05)
(2.63578 2.62739 0.00978131)
(2.56936 -2.57111 0.00145688)
(7.33285 0.00265199 -0.00578218)
(6.6813 0.010754 -0.017469)
(7.58699 -0.0303338 0.165761)
(2.61169 2.61454 0.000527279)
(2.60427 2.55506 0.0171234)
(7.31708 0.00215614 -0.00355448)
(2.62607 2.62609 -0.00157891)
(3.05853 2.76003 0.0418336)
(2.5676 -2.56631 0.00199496)
(7.28915 0.0354916 -0.00151291)
(7.72794 -0.189117 -0.0557786)
(7.51994 0.00966831 -0.00889145)
(2.56221 -2.55766 0.00680259)
(5.98903 -0.0114676 0.163551)
(6.2498 0.00438947 0.159206)
(2.35913 2.07197 0.0161968)
(6.75475 0.0875358 0.135238)
(2.62703 2.61305 0.00401227)
(7.178 0.0557579 -0.00159887)
(7.64227 -0.00903966 0.0478792)
(7.43025 0.0164859 -0.0190944)
(7.66022 -0.0895192 0.0117218)