/*--------------------------------*- C++ -*----------------------------------*\
  =========                 |
  \\      /  F ield         | OpenFOAM: The Open Source CFD Toolbox
   \\    /   O peration     | Website:  https://openfoam.org
    \\  /    A nd           | Version:  10
     \\/     M anipulation  |
\*---------------------------------------------------------------------------*/
FoamFile
{
    format      ascii;
    class       volScalarField;
    location    "90";
    object      SgRate;
}
// * * * * * * * * * * * * * * * * * * * * * * * * * * * * * * * * * * * * * //

dimensions      [1 -1 -3 -1 0 0 0];

internalField   nonuniform List<scalar> 
59698
(
0.0162855
0.00198842
0.0025228
0.00271595
0.0305456
0.00145199
0.00463397
3.05036e-05
1.98484e-09
3.94866e-09
0.000586479
0.000299127
1.5773e-09
0.00229233
0.000357364
4.28033e-07
6.93832e-06
0.000146011
4.51995e-05
0.000264566
0.00176485
0.0142071
0.000498979
8.81919e-08
0.0422334
6.78865e-05
0.000342919
0.0100936
0.00914989
0.00749578
0.00481904
0.000600692
6.67446e-08
0.0163885
0.00250588
0.000163004
0.0194043
0.0205322
3.09438e-05
0.0249999
0.00863162
2.30473e-07
0.00368891
0.000641894
0.000402107
0.0322023
7.32794e-05
0.000731494
0.00315602
0.000173968
0.00151719
0.00011924
0.00206477
0.00273443
0.0113691
7.67819e-05
0.0013234
0.000212886
0.000806208
0.00281625
0.00524879
0.000498797
0.122365
7.03572e-05
0.0124586
0.00161162
1.75272e-09
0.000399329
5.56057e-05
6.76875e-09
6.09597e-07
0.000251288
0.000363944
0.0420175
0.000411947
0.0392555
0.000119381
0.00922502
0.000359841
0.0061702
0.00880262
0.000479045
4.05528e-09
1.62189e-05
0.00863526
0.00055265
3.75208e-06
4.22303e-05
0.0631484
0.000129495
4.50823e-09
0.00206374
0.0146989
9.71817e-06
7.33032e-05
0.00375151
0.00528668
6.11743e-05
0.000264352
8.59612e-10
0.0766279
0.00182186
0.0162236
0.0154842
0.000121615
0.000564777
4.42907e-05
3.67558e-05
2.68123e-09
4.40473e-10
0.000250439
7.32449e-06
0.0379563
1.56281e-07
2.63057e-05
4.49207e-05
4.01602e-05
0.00353825
2.36275e-05
1.13713e-08
3.63299e-05
0.00070837
1.15811e-06
6.17434e-06
2.12266e-05
3.34447e-05
0.0108214
7.20297e-09
2.79807e-05
2.96776e-05
0.0453135
3.72063e-05
1.1047e-09
0.100164
0.00433973
0.00439495
2.1452e-06
2.49721e-10
0.000255297
0.000131238
0.00010933
0.00231882
0.00269705
0.00267532
9.98738e-06
0.000692962
6.32529e-06
2.21526e-05
0.00448989
0.0292498
0.00029914
0.000434377
0.00145512
7.61342e-06
0.00016091
0.000343241
4.72934e-05
0.00162924
0.0124368
5.31513e-10
0.000863148
5.11177e-05
0.0163535
0.00162432
0.00342025
0.0345766
0.000238295
0.0719526
0.00200816
0.000411896
0.0119189
1.49121e-06
0.0108232
0.0147389
0.079014
0.00194711
4.38547e-09
0.00144655
0.00032601
0.00929052
0.0094356
0.0183819
0.0148561
1.98331e-05
0.0456287
0.000234807
0.0114817
0.00248001
6.51041e-06
0.00118109
0.00040533
6.75425e-05
0.00265684
0.0385542
0.00410945
0.00417147
0.00984631
0.0588732
2.70925e-05
0.00774348
0.000227076
0.00616941
0.0211446
6.63547e-05
0.0105156
0.00277175
0.00613246
0.00285754
0.00782023
0.0115276
0.00256083
2.36425e-05
0.00278975
1.56751e-08
0.00407897
0.00336756
3.72312e-05
3.60385e-05
0.0128171
0.00665212
0.00563724
0.00268274
2.99062e-05
0.066449
0.000825885
0.0264105
0.00732256
0.00324009
0.00693768
0.159245
7.57551e-09
0.00469295
0.00293532
0.0032112
1.38785e-05
0.00961649
0.0832239
1.91219e-05
8.8466e-07
0.000445989
0.00262478
0.00147728
0.013481
0.000664542
0.00609323
0.000120953
0.00379634
0.230649
0.00122118
0.000426372
0.000705495
0.00165184
0.000629209
0.000233553
0.000618279
0.00239439
0.00601394
0.00128864
0.0036442
4.09004e-05
1.48027e-05
1.81307e-09
0.000390558
0.00592101
0.00471771
0.0480568
2.32958e-05
1.06423e-07
0.000165181
1.63158e-05
0.000141327
0.0441785
0.000221754
1.84538e-05
0.0179826
0.000206215
0.00146597
0.000510951
0.00211082
1.22501e-09
0.000574139
0.000193103
0.000212536
0.105222
0.0494088
0.0201989
0.000134729
0.000647201
0.07333
0.000445591
0.0905489
0.00234037
0.000187922
0.000164669
0.000321561
0.00273549
0.000356349
0.000804958
0.00420952
1.17564e-05
0.00272328
2.36009e-09
6.86661e-08
0.000825341
6.47803e-05
5.26181e-05
0.0519767
0.00101079
2.01767e-06
0.000267427
0.00197975
7.09183e-05
3.84572e-05
2.3799e-08
0.00193952
0.00513133
0.000403389
0.000392569
0.000829308
0.00080505
0.000340718
0.324332
0.000320327
2.91875e-09
0.0477533
0.0103991
0.000328067
0.000352924
0.000438177
0.000361923
0.00932428
0.00416825
0.0203071
0.207229
0.000430954
1.88217e-05
9.96107e-06
0.000663269
0.00911396
0.004501
0.0102599
0.00206615
0.00253474
0.00147547
9.68283e-05
6.7342e-06
0.000100323
0.0393517
4.79937e-05
0.00204847
0.00800152
9.16983e-05
0.0402171
7.95213e-10
0.244964
0.00216937
0.0141442
0.000126156
3.81034e-05
1.83065e-09
2.7585e-05
8.85424e-06
1.10653e-07
0.000885051
1.11328e-10
1.04124e-07
0.00281318
0.00203033
0.00015615
0.00166053
0.00188876
0.000533992
0.00367392
0.000651132
0.00619555
2.97985e-09
0.000153461
2.45869e-05
0.000460526
2.48696e-09
0.000347123
0.000103326
5.66165e-05
0.000523183
0.000139967
1.95961e-05
0.0002113
0.000544825
8.94307e-10
0.000143396
8.76049e-05
0.000457468
0.00456678
0.00257027
0.0013457
0.00227116
0.0482687
0.00184033
0.00272064
0.000145504
0.00284674
0.00238745
0.00258643
3.99728e-05
0.00148702
0.00420653
0.0859061
0.0280432
2.22167e-05
0.00541885
0.0317274
0.000404301
0.00178472
0.000434525
4.68695e-08
0.0593157
2.73245e-06
0.0104332
0.00240216
0.00183914
0.00303804
0.00218727
0.00252779
0.311241
3.76242e-05
1.30571e-05
7.89409e-09
0.000220926
0.00143129
5.66543e-10
0.000259066
0.00214645
0.0163551
0.00303116
0.00213094
1.43634e-08
1.39898e-08
0.213423
0.000123651
0.00317782
1.92325e-07
0.0032576
5.04801e-09
2.17462e-05
4.04256e-05
0.00239793
0.0701008
4.51291e-10
6.47874e-05
0.00906567
0.00256153
0.000125306
5.87758e-05
0.0329993
0.000283309
9.70134e-05
0.108387
1.37925e-09
0.009579
2.89408e-05
0.05428
8.64076e-06
0.015666
0.0133359
2.19804e-09
0.000974902
0.00044712
0.00846609
3.33405e-05
0.00804322
0.00292239
4.4058e-09
2.12816e-10
6.9319e-09
0.00038512
0.000816942
0.00112488
0.0691122
0.00621318
0.00220117
3.50091e-05
0.000497682
3.9286e-05
1.92565e-08
0.00539994
4.56806e-05
5.5772e-05
9.39327e-05
0.0658967
0.00178802
0.0232402
0.0659685
0.00109786
0.000163645
0.0585013
6.17321e-05
5.63099e-07
0.00237023
0.00943289
0.000365619
9.72793e-10
0.064371
0.00713191
0.00459858
1.71096e-08
1.12102e-09
3.84219e-05
2.16814e-09
1.24633e-05
0.00314953
0.000585182
0.0748169
0.00732474
5.41924e-08
0.0091032
5.59389e-05
6.87321e-09
3.8551e-05
7.03631e-08
2.48303e-08
0.00543968
0.00378056
1.1683e-05
3.85479e-09
2.18708e-09
0.00125915
0.00951562
1.03435e-05
0.0106429
0.00389911
3.8833e-05
0.0429602
1.8275e-08
2.22537e-05
0.00145199
3.56191e-10
1.35536e-08
0.00185654
0.000138842
0.00038488
0.00967566
0.000357533
0.000148149
0.0682458
0.00819278
0.0135436
0.0101443
0.000173436
0.0117188
7.78771e-06
4.20309e-05
2.28667e-09
3.93605e-05
1.91393e-09
0.000283477
3.02485e-06
1.92634e-08
0.00114613
0.00688632
0.000447316
0.000768502
1.75202e-09
3.30047e-05
9.30098e-05
5.5691e-05
1.81179e-09
0.0747068
5.28513e-05
0.00552871
0.000539254
0.002886
6.44377e-05
1.947e-07
0.00260108
0.00287399
0.00338533
6.78531e-05
0.00402417
0.00211884
2.31815e-09
0.000732636
7.62362e-05
0.00519488
5.44189e-05
0.0040658
0.00031336
0.00242648
1.77156e-05
0.0042045
0.0026847
0.00216452
0.00332317
0.000371603
0.000167828
8.51178e-10
1.90552e-05
9.30382e-07
0.00433134
0.000349775
7.33209e-09
0.00518375
3.36638e-05
2.86242e-09
0.00340521
0.00147584
0.00216155
0.000165302
0.00108747
0.00393031
6.49443e-07
8.09317e-06
0.000547246
1.01542e-05
0.0043396
0.00141244
0.00279332
2.21156e-05
0.225297
1.87971
2.06414e-05
5.02791e-09
0.000595703
0.00213335
0.000920081
0.00248049
4.87053e-05
0.00711491
0.00245849
0.00319048
0.00155798
0.0027684
0.000211254
9.21356e-05
0.00114016
0.000107651
0.00133588
0.000239352
2.42323e-05
0.00156774
0.109354
0.00023825
5.11688e-06
0.000607893
1.45199e-09
0.00242955
0.00381982
4.15272e-05
0.00244429
0.000120804
1.78179e-09
0.000439477
0.000175993
0.00827266
0.000802494
0.000584865
0.000114239
4.0612e-05
7.98709e-06
0.000326869
0.00202978
0.000308892
0.00081517
0.000886953
0.0197325
0.0900919
0.00136979
3.35894e-05
0.00233361
0.00319778
0.0415054
3.867e-09
2.15654e-05
0.000460673
0.00354659
0.000144054
0.00169008
0.000428463
0.0108126
0.0472918
0.000145138
0.00042211
8.03854e-05
3.53427e-07
0.000378101
0.00140698
1.5621e-05
0.00215043
0.000194951
0.000191676
0.0114326
0.00440419
0.0393645
0.000806772
0.00138498
0.0021164
0.00244232
0.000242687
0.0011799
0.00065061
0.000159377
2.35674e-10
9.51539e-10
0.00660743
0.000819746
4.51408e-05
1.50662e-09
0.00634701
2.876e-05
4.3998e-06
2.72388e-09
0.00343263
4.18108e-08
0.000505374
0.000362178
2.81121e-05
0.00196998
0.00923651
3.42934e-05
1.38407e-09
0.000646934
0.0621664
0.00322693
3.83771e-05
0.000951449
0.00146517
0.0256687
0.00891044
1.34394e-09
0.0556349
5.17679e-05
0.00259281
0.000344566
0.00939774
7.34995e-05
1.48144e-07
0.0112201
0.00449467
0.000532163
0.00308059
0.0601423
0.000585504
6.927e-05
0.246035
0.00232619
0.000736575
0.00240378
0.0019111
0.00180275
5.28501e-06
0.0151156
1.89639e-05
0.0600323
0.00317192
0.024673
7.49519e-10
0.000212562
0.10493
0.237887
0.000599776
6.8678e-05
0.0500782
0.000383649
0.00225819
0.00517691
0.00194292
0.00830642
0.00407656
5.96164e-05
0.000401554
0.00196106
0.0142324
0.000373921
3.51356e-10
0.00269236
2.56167e-09
0.0043732
3.86282e-05
0.000223554
0.0060899
0.00520587
1.23254
3.75455e-09
0.0247212
0.00973999
0.0210575
0.0010417
0.00472222
0.00032609
0.00098708
0.00159013
0.00140191
0.00663009
0.0111151
0.104092
0.00219151
0.00542448
0.000541502
6.92566e-09
0.000383004
0.000366688
0.000233235
1.57473e-09
0.00320321
2.1398e-06
0.00951515
0.000213758
0.000727523
0.00158241
1.68183e-07
0.00690895
3.51922e-09
0.00100438
6.10249e-05
0.00130355
0.000117621
0.0137101
0.000651796
0.00179571
0.0201072
0.210278
8.09919e-05
0.00883806
0.000129099
0.000729125
0.000444758
0.000428773
0.00379627
0.000846943
0.00752764
0.000561236
0.0062783
0.00227909
2.02655e-06
0.000401151
7.33961e-05
8.31376e-05
3.34795e-05
0.000503642
0.000273506
0.000323078
7.69648e-09
5.15235e-09
1.91403e-09
0.000487274
1.99099e-09
0.00556183
0.00492849
0.0015322
0.000499724
0.00405922
1.65085e-05
2.92376e-09
0.015929
0.000469635
0.000153215
1.31673e-09
0.0357178
0.00489345
0.000876129
8.92093e-06
2.48438e-05
0.0105777
2.63814e-07
0.0098125
0.000132012
0.000532566
0.000488661
0.000128374
3.31194e-05
2.47723e-09
0.00134179
1.48359e-09
0.0088628
8.98231e-08
0.00206629
0.00010882
7.04697e-05
0.00163667
0.00164718
0.000597658
0.00192329
6.0846e-06
0.00202401
0.000307139
1.24454e-09
0.00206033
6.2826e-05
3.3133e-05
0.00423795
3.05915e-09
0.000268045
0.00373068
0.0182959
0.000319936
0.00105963
0.00297028
9.17849e-05
0.00461357
0.000633468
0.000584059
0.00449213
0.000149153
0.000379941
0.00255511
0.00162208
8.57884e-09
0.00262637
0.000106359
1.22451e-05
0.065436
0.000412245
0.00145649
0.00262428
1.49184e-07
2.03697e-09
0.0027253
0.00403395
0.00521601
0.0202079
0.0039898
6.44101e-07
0.0407581
9.28344e-05
0.00133007
0.115145
0.000230008
0.00458054
0.00453188
0.0323985
0.0584544
7.37379e-09
0.00254335
1.61473e-09
0.0247295
0.000271573
0.000344703
0.00141872
3.93129e-10
0.000761136
0.00244137
0.000575225
0.00195209
0.00677668
0.00280539
0.00316836
8.18861e-05
0.0251218
0.000734951
0.000141536
4.69818e-05
0.000825952
5.68124e-05
0.0023815
0.00107127
2.06349e-05
4.84631e-05
0.00533127
0.000294943
0.000163636
0.000107223
0.00543915
1.45824e-09
0.000141274
0.00961973
0.00358114
0.000294898
0.000415237
0.00026586
0.000130466
0.000425114
2.39277e-08
7.53468e-09
0.000429222
0.00234396
0.000466221
0.000396325
0.0140885
0.0186529
0.0177754
7.53717e-06
0.00184143
0.00294525
0.00270675
0.00481056
0.00593654
0.000405583
4.62533e-05
0.00255896
4.42091e-05
0.0110331
0.0564986
0.00198272
0.000443745
6.93585e-07
0.000538422
0.000105391
0.00114858
0.00228539
0.00233697
0.000608725
6.86694e-09
0.000123093
0.00236995
0.00235639
0.00232021
0.00365569
0.0472995
0.000395621
0.00190291
0.00135654
0.0229713
5.67543e-10
0.000396487
1.41138e-05
0.00461139
0.000454047
0.00160109
0.00469518
3.4325e-05
0.00347777
0.00356619
0.00366877
0.0054626
0.00950016
0.0100963
0.00816708
0.00529369
0.00580844
1.52597e-07
0.000149842
0.000475254
0.00591812
0.00474777
0.00222936
5.63459e-10
0.00174206
0.00394962
0.000245535
0.00161303
6.35465e-05
0.0149389
0.000126821
0.0407309
0.00314965
0.735864
7.53305e-06
1.56006e-08
0.00211445
0.00317344
1.78078e-07
0.000760398
0.00398964
0.0069957
0.00433019
0.000637939
0.00677643
0.000542247
1.04825e-09
0.0197866
0.000765801
0.000935295
0.00115893
0.00267957
0.000324317
0.00112584
3.12441e-09
0.000534598
0.00819708
0.00271488
0.0920512
9.37521e-09
0.00240845
0.0820533
2.55561e-10
0.00881728
0.00277581
0.0251896
0.00130939
0.00362103
3.50141e-05
6.74987e-06
0.00132218
1.54741e-08
0.0012425
4.23341e-05
0.000118232
0.00012581
9.164e-06
0.00171749
0.00323956
0.00968285
2.93288e-08
0.0022459
0.000528452
0.000161613
0.0361445
0.0542848
0.00500865
0.000370062
0.00427224
0.458043
0.0239404
0.0262523
0.000459177
0.00044909
0.102303
0.00013673
2.28918e-07
1.50185e-06
0.0167075
0.00021476
0.0017049
0.000328029
0.00174787
2.99175e-08
0.00461113
0.00903256
0.00288272
0.000645938
0.00074107
0.000477735
2.27557e-09
0.000130969
0.00363338
2.52136e-10
0.00114663
0.000584981
0.00777923
0.000354429
0.119552
4.51784e-05
0.00118686
3.39828e-07
0.00564893
9.29598e-05
0.00110423
0.00257917
0.000380629
0.00242487
1.23363e-05
0.000137781
0.00285808
3.82388e-05
0.0186882
0.0122218
1.04743e-05
0.00150579
0.0840202
0.00295079
0.00399992
0.000114655
1.82995e-05
0.00370267
0.0363424
0.00886665
0.002651
0.000183585
0.0019155
0.00336475
0.00298367
0.00372418
0.00537132
7.5516e-09
0.115805
0.0514128
0.000486868
1.02416e-06
3.04967e-05
0.00312702
0.0024498
0.0260391
0.00113448
7.51445e-07
0.00229631
0.000371923
2.89925e-09
0.00356285
4.22232e-09
0.00269397
2.67992e-05
0.00148544
0.00377729
9.24064e-05
0.0193619
0.000150708
0.000434431
0.00363232
0.00413091
0.00205188
0.00211636
0.0118801
0.000579701
0.000345167
0.000373674
0.000265592
9.2959e-06
2.27328e-09
0.00019019
7.31014e-05
9.69936e-05
0.000781454
0.000646975
0.000855767
5.19945e-06
1.8384e-05
1.86097e-05
0.000318872
0.00267074
0.000496405
4.46349e-05
0.000238786
2.93055e-05
0.000315412
0.000232134
0.000223589
0.00388643
0.103323
5.31105e-05
0.00478558
0.00168803
0.00414182
4.90008e-09
3.53305e-06
4.41038e-05
0.00834177
0.0198237
0.00482732
0.00232818
2.22095e-08
8.51373e-05
0.000377613
0.00477626
0.0094451
1.05108e-08
0.00515348
0.00285941
0.00107677
0.00353789
0.00264057
0.0145256
0.00191957
0.00384425
9.81824e-05
4.65406e-10
1.39362e-09
5.25341e-05
0.00563226
8.20373e-06
6.40162e-10
3.49305e-05
0.00502494
0.000211855
0.00100896
0.00101896
6.04326e-05
0.00191194
4.84665e-05
0.00389047
9.70889e-05
0.00208877
0.0283574
0.00207659
0.0012305
6.13373e-05
2.25163e-07
0.00101899
0.000983776
0.0146137
3.20249e-10
1.22112e-07
0.00121185
1.22672e-07
0.00087764
0.000216906
1.49906e-07
6.88476e-09
0.000215742
0.000283469
0.000584266
0.00219895
0.00208101
0.000277524
0.000574466
2.59058e-05
1.0741e-08
0.00563261
0.000202947
6.81965e-10
0.0476887
6.50233e-05
3.27097e-05
0.000287047
6.10863e-08
1.63187e-05
0.00054725
8.77727e-05
0.000563699
9.57698e-06
0.000953045
0.000349266
0.00272949
0.00429605
0.00128993
1.55857e-05
0.0626395
0.00238282
2.10964e-07
0.00607726
0.00289714
0.00672278
1.08633e-05
2.142e-07
0.351864
1.64163e-06
2.49862e-08
3.47397e-05
0.0253837
0.00302595
0.000635584
0.000492188
2.06336e-05
0.00321437
0.036323
0.00481909
0.00869475
0.0142317
5.59737e-08
0.000340339
1.62415e-09
3.64818e-05
0.00828985
0.000746794
0.0748413
4.16594e-10
0.000476648
6.3397e-10
0.000532957
0.000313621
0.000377515
0.0104893
0.018062
0.000544613
0.00185542
0.00451214
6.03013e-09
0.000243687
0.000989323
0.002034
0.000395844
0.000813931
0.00749263
0.010677
0.000591095
0.00172222
0.00266182
3.69412e-05
6.42959e-09
0.00043245
0.0137297
0.0115583
0.00502334
0.0471722
0.00264566
0.000172
0.00523375
0.00018516
0.000681456
0.00106305
0.0223473
0.000286183
0.0205748
0.0116096
0.0340577
1.82231e-09
0.101788
0.0088402
0.00175063
0.00466351
0.0643637
0.000403059
0.00282852
0.00239125
0.00228832
0.00797834
0.00112806
3.13942e-05
1.86592e-06
0.00203437
0.0248775
0.295153
0.000156802
0.00896981
0.000291246
0.00126024
0.000444879
0.190306
0.000615315
0.287014
0.78059
0.000103968
2.23845e-09
7.60621e-06
0.00136618
0.0106849
0.00560893
0.0101467
0.0632979
0.0341452
0.00184073
0.00163704
0.010406
0.0113557
1.21711e-08
0.000527645
0.000427673
0.000360832
0.000424943
0.000637652
0.137833
0.000273924
0.00289628
0.000398954
0.0030801
0.00201857
0.00221777
4.50796e-10
0.479894
0.0313653
0.184627
0.148053
0.00218181
2.0163e-09
0.00660596
0.00125224
2.83845e-05
0.000761567
0.0850303
9.01721e-10
0.00178751
6.99191e-05
0.000207822
0.016512
4.77461e-05
0.00854886
5.34017e-05
6.49973e-05
0.00164992
0.000608666
0.00112404
0.0130116
2.9269e-05
0.00245639
0.00138446
0.0178042
4.83071e-09
0.000502802
0.00149892
0.015192
0.0016462
0.000166035
0.002266
0.0314526
0.000504417
0.000196473
3.06015e-05
0.00148124
0.00177416
0.00308099
1.44829e-08
3.03338e-05
2.46412e-05
0.000298094
0.0038056
0.00135493
8.20125e-08
0.00268769
8.80407e-10
0.0107485
0.00108924
0.000804589
0.00190254
0.00169323
0.00952034
0.000578466
0.0137773
0.000300995
0.000423314
1.17037e-09
0.00037871
0.000405411
0.000581334
0.00196229
4.92693e-07
0.00163318
0.00947291
0.0017513
0.000460539
0.0187277
0.00225153
0.00130057
0.0145521
0.0074346
0.0123313
0.0131257
0.00626244
1.64007e-07
0.322676
0.0623207
0.000812736
0.000573414
0.014858
0.000913546
0.0242525
0.000104229
0.000403303
0.014186
5.66016e-06
0.00677235
0.000614703
0.000132019
0.00755878
1.65932e-05
0.031284
0.357666
0.00113354
0.0573087
8.36891e-10
0.000256109
0.00435146
1.68806e-06
0.103676
0.00244202
0.00173078
0.000496558
2.47154e-09
0.00343182
0.00279669
5.16944e-10
0.000489111
0.0265856
0.000618779
5.72528e-05
0.0619015
5.12382e-07
0.00269803
7.77677e-11
0.000345792
0.0024162
0.000153384
1.20111e-09
0.00218458
1.11137e-08
0.0025035
0.000524502
1.8742e-09
7.87539e-08
0.00439494
0.00209922
0.0027932
5.47129e-10
0.0022152
0.000627115
0.00279507
5.11326e-05
0.0320787
4.58852e-08
5.54413e-05
2.74594e-09
0.00167635
0.0371113
5.04789e-09
2.80257e-07
0.00027472
0.00254604
0.000453101
0.00195027
0.297062
2.56581e-09
0.000232305
0.0023218
9.09435e-10
3.7674e-09
3.97761e-08
0.000176222
0.000502529
0.000846661
0.000529725
0.00010561
0.000200133
5.86701e-11
0.0115166
0.000221117
0.000394062
0.00147885
0.0039493
0.00385633
0.044514
3.0697e-10
0.000172902
0.000123391
8.53177e-05
0.000106857
0.0027785
0.000620077
0.000514077
0.000120129
0.000348212
0.000381679
1.1266e-05
4.27059e-08
8.50452e-05
0.0226584
1.89253e-08
0.0085741
0.000123653
0.0155934
0.001139
0.000118762
4.64916e-05
0.00439091
2.78829e-05
0.00410746
0.0192585
0.00222092
6.18724e-05
2.54274e-05
0.000149816
0.000857078
0.000348224
0.00386303
0.0162795
7.17901e-05
0.0104092
4.64454e-06
0.877235
0.442869
0.000110075
0.0411935
9.50992e-05
0.000391711
0.00938076
1.03846e-05
0.603165
0.0439566
0.00757011
0.000621203
0.0283139
0.393305
0.00291672
0.025051
0.00439453
0.00222857
0.124165
0.0438966
0.000576686
0.000955085
0.0259486
0.0487606
0.00411668
0.000310285
0.0328284
0.000205577
0.0139975
1.10978e-08
1.11419e-05
0.00661473
0.000214471
0.00421453
0.00391676
0.000125432
0.000127076
0.000294734
1.08013e-09
0.00786871
0.0060295
2.83501e-09
0.000444954
0.00170313
0.00222382
0.00409847
0.000384375
0.0115525
0.0637153
4.40231e-07
0.0332894
0.000141081
0.00431253
0.000143818
0.0022312
0.0303311
0.00413812
0.000222838
0.0271248
0.000303775
7.64502e-05
0.000365644
0.000259107
0.000626659
0.00755323
0.0259154
0.0146623
0.0073505
0.00547996
0.00104896
0.0001329
8.11291e-05
0.000136639
0.00413629
2.81522e-06
0.00483374
3.51345e-07
3.63458e-06
0.00159247
0.00144798
0.00175692
5.67865e-05
0.0102206
0.00187374
2.20981e-06
0.00340168
0.000275527
0.00180015
0.000459319
0.00680773
0.00231244
0.00509566
0.000440658
0.00632496
0.00228959
4.33578e-05
0.00238881
0.00312675
0.00180934
0.00153232
4.38715e-09
4.7172e-05
8.93912e-05
0.0347075
0.00179705
0.00702407
0.00184214
0.000176818
0.0033423
0.00843218
0.00228062
0.00250686
0.00362678
1.22489e-06
0.0016549
0.00190432
0.000365766
4.16857e-05
0.00299762
0.00262055
0.00798188
0.028988
0.00167298
8.11018e-05
0.00298866
0.000327765
0.00426599
7.65484e-05
0.00615172
0.000360062
0.00279552
2.84827e-05
0.000732345
0.000921035
0.00721516
6.16284e-05
0.0199481
0.0061696
0.000238042
0.00138755
0.00159601
0.000251858
2.91584e-05
0.00247278
0.0219246
3.41434e-06
0.0377084
0.00208328
7.12075e-08
0.000109721
0.00188516
9.99444e-06
0.000882858
0.0138395
0.0231393
0.00207484
0.0117492
0.00155167
7.63211e-05
0.00436918
0.014393
0.000447844
0.00157783
2.48298e-05
0.0824038
0.0419645
0.00010398
0.00240762
0.00149692
7.83065e-06
0.000113819
0.0338098
0.00866847
0.0158417
3.87999e-05
0.00100354
2.85329e-05
0.0194248
2.49518e-09
0.00337779
2.53507e-05
0.00104445
0.0202208
7.46676e-05
0.000397039
0.00433188
0.00147504
0.00257611
0.00155541
0.0236533
0.000226867
0.00201343
0.0199815
2.04981e-05
0.000410057
0.000428311
0.000362688
0.00236895
0.0133962
0.000466665
2.30277e-08
5.26596e-05
0.0014121
1.46665e-06
5.65537e-06
2.10262e-05
2.64297e-09
2.64504e-05
3.80679e-05
0.011611
0.0050019
0.000369917
0.000460529
0.000294552
0.0623963
3.80657e-05
5.04716e-09
0.0180711
0.00281363
0.00186108
0.00332216
0.000518178
1.49307e-07
0.0181948
0.00216999
0.0228798
0.000775637
0.0500465
0.0142542
0.000125429
0.0256682
0.00326281
0.0893834
0.00746955
5.65591e-09
3.54053e-05
0.256396
0.00665821
0.00100929
0.00309069
0.000159422
0.00336398
0.0308524
0.0108501
0.00286613
0.143888
0.00637184
1.35898e-09
0.0177115
0.0640545
0.0347379
0.0013274
0.00256402
0.000210675
0.00282853
0.000669879
0.0189312
0.0197524
0.000894211
0.0524035
0.0230195
0.000626196
0.00253888
0.0136951
0.00324076
0.000706723
0.0503013
0.00261005
0.000114377
0.0107061
0.010876
0.0218857
0.00258693
0.000270629
0.00277868
0.0162859
0.000358011
9.41814e-05
0.173083
0.00338855
0.00123208
0.00161155
4.68525e-05
0.00436319
2.64626e-09
0.0186626
0.0025352
0.0141088
3.29716e-05
0.00565035
1.12192e-08
0.0164852
0.000301413
0.000118528
0.00874241
0.00244267
0.00662642
0.00770685
0.00207134
0.0158801
0.000134102
0.0156965
0.00658213
0.00929539
0.0563428
0.00558885
0.0293853
0.0346454
0.0170702
0.00114186
0.00453089
0.00265598
0.000965194
0.000915909
0.0039808
0.00222013
0.000635145
8.92765e-06
3.31115e-05
0.00237291
0.00133697
0.00127826
0.0538525
0.00324285
0.00269896
0.000110877
2.36663e-05
0.000452676
8.83011e-06
0.00258335
0.0299827
0.00254074
0.00192955
5.2347e-05
0.0170104
0.00255099
3.27722e-05
1.88532e-06
0.000217691
0.0346033
0.006837
0.000516987
0.00229491
0.0044778
0.000221125
8.82612e-05
0.00493672
0.000429647
1.56582e-05
8.4783e-05
2.56043e-05
0.00187124
0.0022177
0.00104547
0.00863144
0.103171
0.000240665
1.81561e-05
0.00356711
0.000327428
0.0110977
0.00240147
5.34691e-05
5.17395e-05
0.0031935
4.86176e-05
0.0101125
0.0745956
0.0447686
0.000175627
0.000526686
8.94401e-06
0.000115456
0.00263423
0.0039166
0.000451131
0.00272494
0.0141658
0.00194425
0.000279633
0.00231012
0.000424078
0.0298771
9.53549e-07
3.70089e-08
0.0110577
0.00234379
0.000562744
0.00462995
0.000612898
0.000106042
0.000510857
0.00247742
0.022713
3.9998e-05
0.000114408
0.000300672
0.0070067
7.85294e-05
0.000699393
0.000108613
0.00128812
0.00956029
3.57052e-05
0.0286009
1.0286e-09
5.11196e-05
0.00239409
7.41768e-05
0.000338751
0.00347327
0.00120083
0.00237185
9.30333e-06
0.00180472
3.64946e-05
7.5937e-05
0.00226703
0.00335734
0.00329089
0.300284
0.00173094
0.000953978
0.0022377
0.00295758
0.000283112
0.000244312
0.00369675
0.0021542
0.00309037
7.40645e-05
0.000906281
0.0140188
0.00278873
0.111913
0.000860797
0.0101073
0.0103986
0.0123581
0.00126091
3.1801e-05
8.00278e-05
9.4705e-05
0.000101489
5.06247e-09
0.000257965
0.0114931
3.45015e-11
3.36055e-09
0.00377414
2.30046e-05
3.19093e-05
0.0149665
0.00192449
0.00290955
0.00191008
0.00227778
5.11565e-05
0.00158969
4.27703e-05
0.0243199
0.0131634
0.0102758
0.00190924
0.000139374
0.00158936
0.000292414
5.91575e-06
4.16909e-05
1.41435e-07
0.00168982
0.0110019
0.00688197
0.00145656
0.00179171
0.00219807
0.00232164
0.00176655
0.000341846
0.00411348
8.37847e-06
4.07142e-05
7.5988e-09
5.03071e-05
0.00276158
6.67508e-05
0.000335122
0.00227801
5.33159e-05
9.99305e-05
7.07805e-06
3.15502e-06
0.0537625
0.000483609
0.000672287
3.64331e-05
0.00284249
0.00221382
0.00185483
0.0034369
3.87814e-05
7.52665e-07
0.00105424
2.85092e-05
0.0194702
0.00321459
0.0241393
0.00159057
0.0511865
0.00010424
0.00110645
0.00023688
4.18293e-08
0.00373032
7.52258e-05
0.00133685
0.000102559
0.00221687
0.0192204
0.00166099
0.0023236
0.00861809
0.00239328
0.0108872
0.00361469
0.001635
0.000934541
0.00507852
0.0297257
0.00030257
4.99446e-10
0.0636168
0.00886778
0.00645278
4.23173e-05
0.0655669
0.00193039
0.0152773
3.23666e-05
0.0172712
0.00325427
0.00136152
0.00237177
0.00235319
5.50902e-06
0.0402369
0.0146046
0.0145506
0.00303734
0.00231787
0.00159502
0.00321598
0.000970614
0.000104045
0.00160694
0.00303403
3.84746e-07
0.000130899
0.00169067
0.0363454
0.00308085
0.000346113
9.75822e-08
0.000406091
0.00169006
0.000455761
0.00151735
0.000734058
1.50583e-06
0.0140763
0.000252402
0.000666619
0.00205248
0.00126131
0.000132826
7.53929e-05
0.000176425
0.00205095
0.00284488
1.35242e-05
0.000108556
0.000668606
0.000102725
1.44714e-06
0.0167855
0.000216279
0.00328014
0.00152995
0.00150343
0.00211431
0.00695649
0.00430324
0.000590873
0.00398113
7.13089e-05
0.00228177
0.00436429
9.29887e-06
0.00754538
0.000392664
0.00296592
0.00188062
0.100191
5.46761e-05
0.000193861
0.000518191
3.76374e-05
0.00137848
0.00287015
0.000200013
1.61557e-05
0.00137916
0.00538995
0.000583137
0.00287034
1.10512e-06
0.00046225
0.00946727
0.00241569
0.000140968
0.00214482
2.46737e-05
0.00420009
0.003382
2.16488e-05
0.000292897
0.00352902
0.00010116
8.51683e-07
0.000344637
0.000198241
0.120015
8.30402e-06
0.00056576
0.00323622
0.000105316
0.0116978
8.39855e-06
0.00275289
0.000121452
7.94892e-05
0.000516485
1.9074e-05
0.000205461
0.00295157
3.93312e-06
0.000108714
0.000122879
0.0185665
0.00060289
0.000357048
0.00035593
0.00217767
4.4409e-05
0.00311631
0.00454418
3.06535e-05
0.000360672
2.99059e-06
0.00116579
1.48605e-05
0.0123217
0.000292334
0.00152613
0.00218877
0.00012721
0.0848118
0.000383631
0.00306155
0.00110992
4.81009e-08
0.00237421
0.00498937
0.0264801
0.0111553
0.000410462
3.06667e-05
0.0378188
0.0399365
0.000563894
0.0179508
0.00845317
0.000396495
0.000129861
0.000636479
0.000341714
0.000317049
0.000460448
0.004333
1.51773e-05
0.000162224
2.61122e-05
5.68434e-05
0.0060013
7.75394e-05
0.00247009
3.90589e-05
1.38762e-08
0.000201272
1.22014e-07
1.65591e-09
1.00009
0.000185374
0.0194081
0.00306875
1.10584e-05
0.000297091
0.0179103
0.00188639
1.98925e-05
0.00238256
0.00562212
3.70408e-08
5.41841e-06
0.000397347
1.6972e-05
0.00222277
0.000557007
0.00246922
0.00486828
5.67956e-06
6.92838e-05
0.0196951
0.00282787
0.00306088
0.000394486
0.00355109
9.60612e-05
9.3448e-05
0.00236323
0.00932206
0.0126197
0.0060715
0.000755817
0.000179118
0.00253547
0.00190008
0.00204069
0.00266575
0.000229136
0.000310641
0.00366604
0.00169213
0.00333134
0.00271026
0.000751586
0.00465546
1.08005e-09
1.47291e-09
0.0225761
1.10885e-05
0.000907528
0.00209037
0.00331072
0.00991689
0.00385026
8.87137e-05
0.00708
0.00316074
0.000125448
0.00326576
4.36202e-06
1.275e-05
1.75429e-05
0.0036149
0.012957
4.63618e-08
0.00606072
0.00160651
0.152167
0.000166912
0.00370567
3.06187e-05
0.012072
1.14365e-05
8.61558e-05
2.58691e-05
0.0221631
1.20497e-05
0.00275071
0.00261492
0.00311665
0.00679812
0.0021596
0.00220744
0.0168515
0.00696418
5.47727e-05
3.79383e-05
0.0122342
0.000135986
4.46084e-05
0.00190063
0.00359447
0.0018874
2.10389e-05
0.000111246
0.00464203
0.00326498
0.00206808
2.79613e-05
0.00319975
0.00190967
0.000624952
7.63743e-05
2.53099e-06
0.00269306
0.0184051
0.00284738
0.00155974
0.00710712
0.000489929
0.0314122
0.00132617
0.0074024
0.000252454
1.03885e-05
0.000236238
2.74733e-05
0.000449376
5.92234e-06
2.70287e-08
0.00365973
0.000153439
0.0374133
0.00076529
0.00783834
0.00214209
0.00747395
0.00332638
0.0148275
0.0174381
0.00139366
0.00974353
1.0934e-05
0.000373827
0.00130015
0.00181272
0.000218598
0.00404076
6.18806e-05
0.00307646
9.81843e-05
0.00265512
2.10708e-05
0.00265526
0.00133723
0.000427446
0.02654
0.000161842
0.00130584
3.38841e-05
3.11903e-05
0.000138055
0.00541244
0.00245778
0.00202132
3.44325e-05
0.00159539
0.00312365
0.000253055
0.0156818
0.0132582
6.17796e-09
0.000207923
0.00174181
9.98807e-05
0.000293085
0.000473262
0.000451131
2.37652e-05
0.00320012
0.000450441
0.00531829
0.00052666
0.00117294
0.000536148
0.00836694
0.00527254
0.0086622
2.06431e-05
0.0535285
0.0219745
0.0975734
0.00186398
0.000145596
3.70416e-05
0.000287061
0.00676128
0.0101077
0.0300634
0.0247191
9.25194e-06
1.59269e-05
0.00775187
0.000403115
0.0174416
0.301839
0.0176752
0.000342462
0.00044872
0.0161448
0.00159137
0.00024258
0.000728645
0.16166
1.37105
6.9522e-05
1.07767e-06
6.37512e-05
0.0048258
0.00105262
0.00185667
0.00270124
0.00196228
0.0043779
0.000883998
0.00222076
3.12018e-05
0.00255966
0.00263984
0.00255785
0.000445296
2.80455e-05
9.18407e-07
0.00466982
0.0147609
0.004026
0.00249345
1.08262e-05
0.0016002
0.00132266
6.57786e-05
3.00791e-05
0.00876616
5.23577e-09
0.0311334
0.000108109
0.048263
0.0150232
0.000250025
0.00496838
1.0138e-05
0.00236444
0.000137031
0.000872829
0.0835246
1.12374e-05
3.11021e-08
8.28216e-06
0.00388044
0.00347094
0.00151852
0.00100642
0.00098286
0.00124968
0.00104034
0.00182494
6.41255e-05
0.0682364
0.0265178
0.00286208
0.00150236
0.00287861
0.0668515
0.0119838
0.00410869
0.000289223
0.00723475
0.00268171
8.2523e-05
5.17548e-05
0.00480189
0.00681435
0.017317
0.00527851
5.86984e-05
0.00450843
0.0372453
0.024199
0.0032397
7.66825e-05
2.88024e-05
0.0397538