/*--------------------------------*- C++ -*----------------------------------*\
  =========                 |
  \\      /  F ield         | OpenFOAM: The Open Source CFD Toolbox
   \\    /   O peration     | Website:  https://openfoam.org
    \\  /    A nd           | Version:  10
     \\/     M anipulation  |
\*---------------------------------------------------------------------------*/
FoamFile
{
    format      ascii;
    class       volScalarField;
    location    "90";
    object      SgT;
}
// * * * * * * * * * * * * * * * * * * * * * * * * * * * * * * * * * * * * * //

dimensions      [1 -1 -3 -1 0 0 0];

internalField   nonuniform List<scalar> 
59698
(
0.0131908
0.000152994
0.000210081
1.97751e-06
0.0305444
4.92681e-18
0.00213698
3.0396e-05
6.29294e-16
5.3406e-17
3.40883e-15
0.000299126
2.23547e-17
6.18517e-06
0.000357336
1.49361e-16
6.92891e-06
0.000146007
4.51979e-05
0.000264566
0.00139974
0.0142055
1.21108e-07
1.38463e-18
0.0422332
6.78853e-05
0.000342918
0.00761183
0.00675642
0.00749578
0.00481891
1.07779e-16
2.75747e-16
0.0123541
0.00250477
0.000163
0.0189394
0.0205317
3.09264e-05
0.0225475
0.00863159
8.42679e-19
0.00368889
0.00064187
5.28019e-18
0.0322022
7.32768e-05
0.000731445
0.000247574
0.000173936
0.00151719
0.000119238
0.000336524
4.979e-06
0.00920067
7.67798e-05
0.00132332
0.000212871
0.000806191
0.00278878
0.00346591
0.000498734
0.122364
7.03557e-05
0.0124581
0.00161158
6.52448e-17
0.000399325
5.56015e-05
7.78492e-16
7.8722e-10
0.00025126
4.16241e-06
0.0420159
7.85896e-18
0.0392545
0.000119359
0.009225
0.000359835
0.00617019
0.00880214
0.000479044
1.43707e-16
1.62109e-05
0.00861829
0.000552619
3.74292e-06
4.20074e-05
0.0631461
0.000129472
3.1541e-17
0.00206368
0.0146987
9.71163e-06
7.32427e-05
0.000160439
0.00528655
6.11123e-05
0.000264302
7.5057e-18
0.0730915
0.0018011
0.0162233
0.0121921
0.000121562
3.88855e-16
4.42884e-05
3.67535e-05
1.43903e-16
1.13319e-16
0.000250403
4.6799e-06
0.037955
2.65396e-18
2.62081e-05
4.48862e-05
3.98112e-05
4.43164e-06
2.33349e-05
7.71961e-17
3.63276e-05
0.000708073
9.32265e-07
6.17088e-06
2.12249e-05
3.3437e-05
0.0108214
4.77872e-17
2.79678e-05
2.92911e-05
0.0419572
3.72024e-05
2.55591e-16
0.100164
0.00433966
0.00439495
1.65351e-06
7.1727e-17
0.000255295
0.000131233
0.000109309
1.58318e-06
0.000176153
0.00267532
9.79669e-06
0.000692962
5.79026e-06
2.17737e-05
1.72269e-06
0.0292491
4.18262e-05
1.41754e-15
0.0014551
7.3586e-06
0.000160901
0.000343136
4.7286e-05
3.22675e-07
0.0124367
1.39999e-16
0.000863145
5.111e-05
0.0163535
0.00162422
0.00342023
0.0323477
0.000238294
0.0713858
0.000482859
0.000411889
0.0119186
2.34022e-08
0.010823
0.014738
0.0790134
0.000728084
2.26082e-17
5.08935e-05
1.71236e-14
0.00635757
0.00943335
0.0183811
0.0148557
1.98219e-05
0.0456284
0.000234738
0.0114814
9.96417e-05
6.51027e-06
0.00118107
0.000405324
6.75354e-05
0.00265681
0.0385535
0.00410932
3.89296e-06
0.00984446
0.0559286
1.43477e-05
0.00774339
6.8795e-16
0.00616874
0.0211446
6.63522e-05
0.00694751
0.000324869
0.00613242
0.000799445
0.00511234
0.008024
0.000134097
2.36364e-05
0.000162477
5.66892e-17
0.00407896
4.89215e-07
3.72213e-05
3.59931e-05
0.012817
0.00665212
0.00562354
0.000508264
2.99045e-05
0.0664485
0.000825876
0.0236633
0.00732254
0.00324008
0.00693764
0.159244
4.62072e-16
0.00469293
0.00293531
0.00321119
1.3869e-05
0.00961648
0.0832236
1.91024e-05
7.08144e-07
0.000445981
1.10708e-05
0.00147716
0.0134809
2.52915e-19
0.00609322
0.000120737
0.0037733
0.230646
0.00122117
0.000426367
0.000705434
0.00165183
0.000629178
1.6398e-16
0.00061826
0.000695377
0.00601383
0.00128858
0.000497081
4.08975e-05
7.07561e-06
2.87962e-17
0.00039055
0.00321235
0.00113971
0.0480559
2.32947e-05
8.6707e-15
0.000165161
1.63152e-05
0.000141324
0.044177
0.000152634
1.84531e-05
0.0179825
0.000206165
1.63855e-07
0.000510911
0.00211081
6.82473e-16
1.72026e-16
0.000193101
0.000212535
0.105222
0.0460589
0.0201988
0.000134724
3.37858e-10
0.0733296
0.00044549
0.0905462
1.53014e-05
0.000187912
0.000164668
0.000320857
3.2108e-06
0.000356348
0.000804806
0.0042095
1.1113e-05
0.00272328
1.53273e-17
1.3057e-18
0.000825341
6.47792e-05
5.2617e-05
0.0519763
0.00101076
2.01232e-06
0.000267426
7.85144e-05
7.08764e-05
3.84533e-05
2.10588e-18
2.45351e-05
0.00513132
7.61851e-18
0.000392561
1.99244e-18
0.000804965
0.000340622
0.324332
0.000320311
5.31721e-17
0.0477519
0.0103988
0.000328051
0.000352916
0.000438176
4.23586e-16
0.00642531
0.00416821
0.0203067
0.207226
1.27631e-15
1.88114e-05
9.95331e-06
0.000663264
0.00911382
0.00328008
0.0102599
3.99418e-06
2.88094e-05
0.00147547
9.67281e-05
6.73284e-06
0.000100323
0.0393505
4.79924e-05
1.46343e-05
0.00800152
9.16836e-05
0.0402158
1.85976e-18
0.244963
0.000253097
0.0141415
0.000126141
3.80707e-05
5.12614e-16
2.75639e-05
8.84337e-06
1.05223e-15
0.000885047
5.65184e-17
1.63648e-17
1.63518e-05
1.31579e-05
0.000156122
0.00165955
0.00188864
1.71925e-15
4.99525e-06
2.37681e-17
0.00619553
1.29401e-17
0.000153425
2.45849e-05
2.92761e-16
3.38788e-15
3.90134e-19
0.000103281
5.65732e-05
0.000523131
0.000139966
1.28368e-05
0.000211289
1.18384e-16
4.61901e-16
0.000143362
8.75841e-05
2.16815e-17
0.00126626
0.00257026
0.00129178
0.000473463
0.0482652
1.32449e-05
2.28625e-05
0.000145423
0.000408033
2.25311e-05
1.26241e-05
3.99674e-05
3.55576e-06
2.81102e-05
0.0820659
0.0252802
2.22107e-05
0.00541803
0.0317272
1.91807e-15
0.000147286
4.44572e-16
4.63965e-08
0.0593155
2.73044e-06
0.0104309
0.000505213
8.1842e-05
0.000116043
4.96342e-06
3.62129e-05
0.309576
3.76163e-05
1.3055e-05
6.54019e-15
0.00022091
4.67627e-05
3.89652e-16
0.000259058
0.000186161
0.0151897
0.00303114
0.00213091
7.13259e-17
7.35022e-16
0.212161
0.000123647
0.00105951
2.21403e-18
4.69085e-05
5.60417e-17
2.17022e-05
4.02393e-05
0.00239591
0.0701007
6.14366e-17
6.47853e-05
0.00906554
1.82284e-05
0.000125299
5.87036e-05
0.0329974
0.000282698
9.68984e-05
0.108386
2.06534e-16
0.00957785
2.87758e-05
0.0542799
8.63615e-06
0.0124578
0.0133359
1.66146e-17
0.000974699
0.000446769
0.00846608
3.32969e-05
0.00804321
0.00044774
5.85456e-16
9.15816e-17
1.20532e-16
0.000385057
0.000814909
0.00112406
0.0691122
0.00320429
0.000254927
3.49856e-05
0.000497464
3.92701e-05
1.85467e-16
0.00539969
4.56394e-05
5.57275e-05
9.39129e-05
0.0658967
0.00178802
0.0232399
0.0659681
0.00109786
0.000163603
0.0544809
6.15192e-05
5.47749e-07
3.60613e-06
0.00943286
8.75077e-17
3.85089e-16
0.0643709
0.00713171
0.00459857
4.84997e-17
1.06262e-16
3.83403e-05
2.10385e-16
1.2458e-05
0.00314952
0.000585176
0.0748169
0.00732338
2.81723e-18
0.00910319
5.59363e-05
1.10757e-17
3.8541e-05
8.43368e-18
2.31662e-17
0.00543966
0.00378056
1.16779e-05
9.8416e-17
1.19579e-16
0.00125284
0.00951558
1.03407e-05
0.00724543
0.000191172
3.88301e-05
0.0391198
2.39141e-19
2.22481e-05
7.26418e-07
1.58494e-16
5.15176e-19
6.82239e-05
0.00013884
4.92967e-16
0.00967562
0.000357531
0.000148104
0.0682428
0.00819276
0.0135436
0.0101354
6.39976e-06
0.0117188
3.8217e-07
4.20126e-05
7.70266e-16
3.93296e-05
7.07569e-17
0.000283472
3.01034e-06
5.29066e-16
0.00114611
0.00688632
0.000447314
2.99249e-17
1.57248e-16
3.29882e-05
8.29408e-05
5.56759e-05
1.40229e-17
0.0747056
5.28288e-05
0.0055287
4.052e-15
0.002886
6.44301e-05
4.37533e-16
0.00260108
0.00287395
0.00338533
6.78528e-05
0.00402417
0.000115485
2.3739e-17
2.96077e-18
7.61972e-05
0.00198707
5.4404e-05
0.0040658
5.72322e-17
0.00242648
1.7702e-05
0.00420449
0.00268468
0.00216452
0.000155748
0.000371595
0.000167811
4.16478e-17
1.90139e-05
1.24086e-12
0.00168153
5.28664e-19
2.89581e-18
0.00518375
3.36622e-05
8.20477e-16
3.02839e-05
0.00147582
0.00216155
0.0001653
5.17977e-18
7.43109e-05
6.34034e-07
8.08059e-06
0.000547244
1.01427e-05
0.00433959
0.00141243
0.00279331
2.21106e-05
0.225297
1.87963
2.06341e-05
9.22808e-16
0.000595695
0.00213334
0.000894708
6.12399e-05
4.86944e-05
0.00445137
0.00245849
0.00319047
0.00155797
7.37571e-05
3.83558e-16
9.21346e-05
0.00114015
0.000107651
0.00133585
0.000239345
2.42295e-05
5.22643e-05
0.106117
0.000238122
4.95431e-06
1.39108e-16
5.43605e-16
0.00242955
0.00381982
4.11153e-05
0.000337582
0.00012077
1.34918e-16
3.31365e-16
0.000175986
0.00827262
0.00080249
0.000584862
0.000114235
4.06111e-05
2.83869e-07
0.000326868
0.000209403
0.000308842
0.000815058
0.000886946
0.019731
0.0900884
0.00136978
3.35686e-05
2.54899e-05
8.76069e-05
0.0415053
1.53612e-17
2.08066e-05
0.000460671
0.000109204
0.000144054
0.00169006
9.77297e-18
0.00825844
0.0472918
0.000145136
0.000421913
7.97951e-05
7.91516e-18
3.28558e-17
1.06132e-05
1.56209e-05
0.00215042
0.00019495
0.000191672
0.00865726
0.00440417
0.0363349
0.000806762
6.96487e-05
2.03064e-05
7.79685e-05
0.000242625
0.0011799
1.88697e-17
0.000159376
2.39148e-17
5.23154e-16
0.00660743
0.000819728
4.51362e-05
2.95991e-15
0.00634692
2.86927e-05
4.39224e-06
3.38428e-17
0.00156865
2.45885e-18
0.000505338
3.18007e-16
2.81019e-05
0.00196995
0.00923648
3.42915e-05
1.61988e-14
6.29922e-17
0.060203
0.000811967
3.83732e-05
0.000951438
0.00146516
0.0256686
0.00696461
1.82391e-16
0.0556343
5.1742e-05
0.00257961
8.36037e-17
0.0076992
7.3274e-05
1.59722e-17
0.0112201
0.00018624
8.30658e-16
0.00308057
0.0601414
0.000585501
6.92018e-05
0.246032
6.6809e-06
0.00073655
0.00240366
0.001911
0.00178688
5.26023e-06
0.0132593
1.89614e-05
0.0600322
0.00317191
0.0225426
2.59847e-16
0.000212556
0.10493
0.237882
5.15418e-15
6.85688e-05
0.0500782
3.55035e-17
0.00225815
0.00517691
3.67923e-05
0.0061097
0.00407655
5.96089e-05
6.38512e-16
0.00196105
0.0142324
1.59108e-16
1.04381e-16
3.83486e-05
1.27979e-16
0.00437318
3.84467e-05
0.00022355
0.00608986
0.00520584
1.23249
6.22888e-17
0.0247212
0.00973998
0.0210575
0.0010416
0.00472221
3.32153e-17
0.000987073
0.00159011
1.54838e-06
0.00663003
0.011115
0.104083
0.000321176
0.0054221
1.0025e-15
8.13754e-16
5.08257e-16
0.000366672
0.000233231
1.37556e-15
6.24627e-05
1.7611e-06
0.00951512
0.000142498
0.000727458
2.7305e-06
4.12835e-17
0.00689913
2.38584e-16
6.51326e-17
6.10217e-05
8.01991e-11
6.36588e-05
0.0137098
8.24951e-17
1.18268e-06
0.020106
0.210267
8.09877e-05
0.00883693
0.000129074
0.000688241
2.67386e-15
4.94291e-17
0.00168452
0.000846908
0.00752761
3.48655e-17
0.00627826
1.97481e-06
2.02585e-06
8.66024e-17
7.33938e-05
8.31349e-05
4.04698e-06
3.15542e-15
6.73363e-05
0.000214538
1.48859e-15
2.52954e-16
1.8523e-16
4.73998e-16
9.01345e-18
0.00205377
0.000191375
0.00153219
2.19654e-17
0.00405922
1.65075e-05
1.0148e-16
0.0159258
2.52648e-17
0.000153212
2.6722e-16
0.0357168
0.00489344
0.000876017
8.91714e-06
2.48408e-05
0.0105776
7.24853e-18
0.00981247
0.000132002
2.63689e-16
0.00048866
7.86071e-07
3.31192e-05
2.59269e-15
9.93047e-05
1.10102e-17
0.00885505
5.88573e-19
0.00206628
1.88796e-18
7.04572e-05
6.50414e-05
0.00164715
0.000597658
0.000177459
6.0789e-06
0.002024
3.33498e-17
6.01469e-16
6.47859e-07
6.28091e-05
3.31315e-05
8.03328e-06
3.94568e-16
0.00026804
0.00373066
0.0182959
8.50338e-17
0.00105962
0.00297028
9.16198e-05
0.00280455
6.51387e-16
4.27808e-17
0.0044921
0.000149152
1.97067e-17
0.000185092
0.00162207
2.25838e-17
0.00262631
0.000106347
1.22423e-05
0.065436
1.83581e-16
8.0088e-06
1.33376e-06
1.42126e-17
7.63093e-17
5.44514e-05
2.42273e-05
6.39759e-06
0.0202079
0.00398979
4.86384e-07
0.0407577
9.28163e-05
0.00133004
0.115144
0.00022998
0.00458053
0.00453187
0.0323972
0.0584544
2.31691e-16
1.01032e-06
5.83816e-17
0.0247295
0.000271554
0.000344675
0.00141871
3.13917e-17
5.76262e-16
0.00244136
0.000575222
1.53439e-05
0.00677666
0.00280537
1.60962e-06
8.18567e-05
0.0251214
0.000734946
0.000141516
4.69574e-05
5.07929e-14
5.6782e-05
0.000181018
0.00107108
2.04363e-05
4.84265e-05
1.68895e-07
2.41781e-15
0.000163632
0.000107217
0.00543816
5.39539e-17
0.000141263
0.00961972
0.00190765
0.000294897
0.000415235
0.000265852
0.000130464
0.000425078
1.53247e-16
1.94362e-16
2.49029e-16
0.000151234
9.07696e-18
0.000396262
0.0109471
0.0160904
0.0177754
7.53542e-06
8.49212e-06
0.0029388
0.00116048
0.00272848
0.00390532
0.00040558
4.61945e-05
0.000180684
4.40125e-05
0.0110331
0.0564984
0.00198269
5.7871e-16
6.72689e-07
1.75448e-19
8.83331e-05
0.00114855
0.000323231
0.00233695
4.1066e-15
1.77734e-15
0.000123075
0.00236995
0.00235635
0.000783981
6.45377e-06
0.0472995
4.22632e-19
1.57679e-05
2.8685e-06
0.0201891
2.60651e-17
0.000396477
1.41126e-05
0.00105694
0.000454046
0.00160096
0.00113464
3.43197e-05
7.88667e-06
5.00659e-05
1.33481e-06
0.00546258
0.0095001
0.0100963
0.00816707
0.00529368
0.00580838
1.39944e-07
0.000149837
7.99796e-18
0.00591812
0.00474773
0.00222908
2.50473e-16
0.000118874
0.00394959
0.00024553
0.00161296
6.35462e-05
0.0149388
0.000126817
0.0407307
8.35452e-05
0.735832
7.53216e-06
2.81044e-17
1.34891e-05
2.42627e-05
1.15066e-15
2.27442e-10
0.00398963
0.00699569
0.00175627
0.000637917
0.00355572
1.86255e-17
1.53193e-17
0.0197866
2.19562e-16
0.000935278
0.00115891
0.000177742
0.000324311
0.00112582
1.96441e-17
2.30708e-16
0.00819393
0.000783496
0.092051
1.27612e-16
0.000658244
0.0820532
7.18514e-17
0.00881133
0.0027758
0.0251889
1.55342e-05
0.00362103
3.50131e-05
6.7385e-06
0.00132218
4.93914e-19
0.0012425
4.23215e-05
0.000117231
0.000125809
9.16275e-06
1.8926e-05
0.00323955
0.00967746
2.47038e-16
0.00224176
0.000527119
0.000160441
0.0361391
0.0542835
0.00500865
0.000370046
0.00326913
0.45804
0.0239404
0.0262523
0.000459153
1.41076e-17
0.102302
0.000136651
1.53639e-18
1.4984e-06
0.0144441
0.000214755
0.00170489
0.000328008
0.00174785
2.50534e-18
0.0024846
0.00903251
0.00288269
0.00064592
0.000741066
7.79446e-18
8.76448e-17
0.000130964
0.00363334
2.25379e-16
0.00114662
0.000584975
0.00777922
0.000354415
0.11922
4.51669e-05
0.00118684
3.37427e-07
0.00564891
9.29474e-05
0.00110422
0.00257911
7.1882e-18
1.57408e-07
1.23208e-05
0.000137773
1.32084e-05
3.82372e-05
0.0186451
0.0101911
1.04694e-05
0.00150507
0.0840187
0.00108529
0.0039999
0.000114623
1.8082e-05
0.00368524
0.0363415
0.00886644
0.002651
0.000183581
0.00191508
0.00336464
0.00298366
0.00372417
0.00537131
7.76288e-19
0.115802
0.0501189
0.000486804
9.88067e-07
3.04456e-05
0.000480926
3.49924e-06
0.0260382
0.00113447
7.18835e-07
0.00229627
0.000371918
3.11955e-16
0.00356267
2.56358e-17
0.00269393
2.67972e-05
0.00148542
0.00377727
9.24031e-05
0.0193615
0.000150705
3.86072e-18
0.00363223
0.00018272
0.000399801
0.00211625
0.0118801
1.26418e-17
2.62846e-18
0.000373646
0.000265569
3.36233e-10
1.25975e-15
0.000190188
7.30779e-05
9.69762e-05
4.84305e-17
3.19802e-16
0.000855757
5.18766e-06
1.83762e-05
1.82763e-05
0.000318821
6.04843e-08
3.63995e-17
4.46212e-05
1.09817e-15
2.92984e-05
2.51296e-15
4.33508e-06
4.50707e-16
0.00388641
0.103323
5.31087e-05
0.00478548
0.00168801
0.00173836
4.18936e-17
3.49153e-06
4.40969e-05
0.00834169
0.0198009
0.00288222
5.01973e-05
6.37573e-16
8.51075e-05
1.93056e-15
0.00477622
0.00944406
4.25395e-17
0.0021056
0.00285937
0.00107674
0.00352935
1.73984e-05
0.0145255
0.00191955
0.00253134
9.81622e-05
4.13048e-17
1.33379e-17
5.25296e-05
0.00563223
8.19044e-06
7.81425e-18
3.49081e-05
0.00502491
0.000211843
0.00100889
0.00101894
5.98807e-05
3.35339e-07
4.84637e-05
0.00389046
9.70325e-05
8.80557e-05
0.0283565
0.00207657
0.000856193
6.13344e-05
6.87961e-19
0.00101884
3.07261e-17
0.0146133
1.48164e-15
6.66825e-16
0.00121184
1.9819e-17
0.000877589
0.000216903
1.0237e-11
1.60344e-18
0.000215655
0.000283468
2.2422e-17
0.0021989
7.0089e-06
0.000277522
0.000574403
2.373e-05
1.53442e-17
0.00562838
0.000202942
1.33061e-16
0.0476885
6.49815e-05
3.27049e-05
0.00026986
2.93272e-18
1.62445e-05
2.54466e-17
8.77697e-05
1.10515e-17
9.54536e-06
0.000953043
0.000349259
0.00272948
0.00429603
0.00128954
1.52722e-05
0.0626393
4.16757e-06
2.29318e-14
0.00214487
0.000801948
0.0034309
1.07783e-05
3.74453e-15
0.350429
1.63779e-06
7.03595e-15
3.47099e-05
0.023014
0.00302594
1.00229e-15
6.77439e-17
2.06309e-05
0.000588386
0.0363179
0.00217901
0.00869473
0.0117353
3.01302e-17
9.77765e-17
2.49262e-16
3.6478e-05
0.00828981
2.7435e-17
0.0748406
3.14492e-18
0.000476621
3.16673e-16
7.59576e-16
3.34491e-16
0.000377458
0.0085801
0.0180615
7.45721e-17
0.00185539
0.00451214
1.8235e-17
0.000243684
0.000989233
0.00201362
0.000395838
0.000812591
0.00749259
0.0106769
0.00059109
0.00162339
0.00266159
3.69393e-05
1.35116e-16
1.02458e-16
0.0137286
0.0115582
0.00350262
0.0471704
0.00264417
0.000171992
0.00523374
0.000185156
4.72176e-15
0.00106302
0.0223473
0.000286168
0.0205745
0.0116086
0.0340575
8.2577e-20
0.101785
0.00883953
0.00175062
0.0046635
0.0643582
0.000403057
0.00282851
4.15952e-06
7.90324e-05
0.00797828
0.00112806
3.1393e-05
1.83253e-06
0.000104383
0.0248772
0.295151
0.000156801
0.00896926
0.000291214
0.000140197
3.2834e-16
0.190306
0.000615291
0.287011
0.78059
3.26809e-06
3.68727e-16
7.58782e-06
0.000178175
0.0106849
0.00560815
0.0101461
0.0632959
0.0341439
0.00184072
1.39908e-05
0.0103929
0.0113557
2.1931e-17
0.00052764
1.3141e-17
0.000247348
0.000424924
4.52598e-19
0.137833
0.000201241
6.89858e-05
1.61858e-16
0.000260162
0.000181642
7.68963e-18
6.74254e-16
0.479891
0.0313652
0.184624
0.148038
0.0021796
1.13965e-14
0.00660556
0.00125222
2.80642e-05
3.79816e-18
0.08503
1.24684e-17
3.27749e-06
6.97798e-05
1.05183e-17
0.0165118
4.73349e-05
0.00854886
5.30141e-05
6.47852e-05
0.000137642
0.000608456
0.001124
0.0130115
3.32617e-06
0.00115894
7.05576e-05
0.0148655
1.55033e-16
8.22467e-17
2.19628e-06
0.0134387
0.000151495
0.000165798
9.21137e-05
0.0314523
0.000504412
0.000196468
3.05952e-05
9.71764e-06
5.54157e-06
0.00308098
3.45107e-16
3.03254e-05
2.42324e-05
4.1056e-15
0.000123109
6.11726e-07
8.46227e-16
0.000208547
3.13899e-17
0.0107485
3.80613e-08
1.14795e-16
0.00190253
0.00169048
0.00952033
0.00057846
0.010257
0.000300989
2.23188e-17
1.02085e-17
4.60682e-18
2.35475e-16
1.2501e-16
5.29679e-05
1.68143e-07
1.59426e-05
0.0094729
0.00173947
7.18408e-16
0.0174808
4.36757e-05
0.000203967
0.0145521
0.00619026
0.0123313
0.0131256
0.00333507
7.20616e-18
0.322669
0.0623207
0.000812684
3.85426e-19
0.0148565
0.000913543
0.0242523
0.000103793
2.60311e-17
0.011988
5.38731e-06
0.00677234
1.51141e-15
0.000132001
0.00755876
1.65421e-05
0.0312834
0.355526
0.00113354
0.0548923
1.74256e-15
2.56798e-15
1.54999e-05
1.67937e-06
0.103673
1.30174e-05
0.00168097
0.000491333
1.10475e-16
0.00165372
1.79137e-05
9.56263e-16
1.92088e-16
0.0265847
1.23954e-18
5.72379e-05
0.0619006
1.06103e-13
0.00269799
4.31339e-17
2.46072e-15
0.00110187
0.000153378
6.76327e-17
3.42775e-06
1.11557e-15
0.0025035
0.000524464
7.32995e-15
2.50714e-16
0.000853798
5.49054e-06
0.00279318
3.04575e-16
3.66847e-06
0.000626916
9.15243e-05
5.11298e-05
0.0320768
9.99541e-18
5.54339e-05
7.43089e-16
0.00167634
0.0337756
9.11803e-16
3.49822e-14
5.42408e-17
0.000170009
1.25802e-16
0.00195026
0.297061
5.87925e-16
3.09101e-06
4.10436e-05
5.88894e-17
2.83821e-15
4.20891e-17
0.000176189
5.59994e-17
0.000846399
2.13803e-17
0.000105418
0.000200126
7.5687e-17
0.0115166
5.02649e-17
2.78728e-17
0.00147884
0.000106342
0.0013995
0.044514
4.84246e-16
0.000172898
0.000123384
8.53139e-05
0.000106842
2.72928e-05
2.15867e-17
2.95854e-15
4.25395e-05
5.35355e-16
7.81115e-17
1.12632e-05
1.74384e-16
8.50437e-05
0.0226584
6.30738e-16
0.00622797
0.000123642
0.0155934
2.0364e-05
0.000118743
4.64148e-05
0.00439082
2.78812e-05
0.00410738
0.0192584
2.20578e-05
6.18671e-05
2.54129e-05
0.000149812
0.000857062
0.000348203
0.000107479
0.016279
7.1678e-05
0.0104091
4.64348e-06
0.877189
0.442868
0.000110072
0.0411929
8.27284e-05
0.000391701
0.00938075
8.71768e-10
0.603161
0.0439563
0.0045294
0.000621199
0.0283135
0.393304
8.98423e-05
0.0250508
0.00439453
0.00222665
0.12415
0.0438963
0.000576676
0.000954915
0.0259486
0.0487605
0.00411666
0.000310252
0.0309879
0.000205575
0.0139975
4.44439e-16
1.11413e-05
0.00661472
0.00021447
9.48434e-07
0.00391664
0.00012543
0.000127073
0.00029473
3.43445e-16
0.00786866
0.0060295
1.43453e-16
0.0004449
0.00170312
1.43065e-05
0.00409846
4.52826e-16
0.0115525
0.0637151
4.22329e-07
0.0332881
0.00014108
0.00115492
0.000143809
0.000441475
0.0303308
0.00413808
0.000222824
0.027123
0.000303772
7.64466e-05
0.000365641
1.24435e-16
4.10936e-16
0.00541656
0.0259153
0.0146622
0.00507214
0.00547824
0.00104896
0.000132887
8.08417e-05
0.000136629
1.6377e-05
1.34041e-08
0.00175427
3.27807e-07
3.62691e-06
4.77396e-06
3.67605e-06
9.26907e-06
5.67699e-05
0.0102191
5.13842e-06
2.20814e-06
0.00338936
0.000275376
2.53631e-05
7.80055e-16
0.00680754
4.23559e-06
0.0050752
0.000440037
0.00427111
0.000119854
4.33386e-05
1.09773e-05
0.000116952
7.81976e-07
0.00153229
9.21203e-16
4.71659e-05
8.93905e-05
0.0347075
0.000166831
0.00427195
1.7489e-05
0.000176815
0.000309077
0.00843218
1.83241e-07
1.54671e-05
0.00362677
1.18825e-06
1.02206e-06
0.0019043
0.000365753
4.13657e-05
0.00299762
6.01851e-05
0.00599157
0.0289871
3.80883e-05
8.1098e-05
0.00298866
0.000327758
0.00426596
7.64812e-05
0.0061514
0.000360061
0.00279552
2.84685e-05
0.000732337
0.000921028
0.00721506
6.16281e-05
0.0199481
0.00616748
0.000238031
0.00138751
0.00159601
0.000251737
2.91568e-05
0.00247277
0.0219243
3.41277e-06
0.0377084
0.000202397
3.65699e-08
0.000109716
0.00188451
9.9913e-06
0.000882844
0.0138394
0.0212823
0.00207475
0.0095412
6.57655e-05
7.63039e-05
0.00436916
0.014393
0.000447838
7.57976e-07
2.47804e-05
0.0824035
0.0419642
0.000103951
5.01942e-05
1.4454e-07
7.82877e-06
0.000113816
0.0338098
0.00866841
0.0158416
3.87925e-05
0.00100313
2.85276e-05
0.0194234
3.40846e-18
0.00337779
2.53444e-05
0.00104443
0.0202206
7.46598e-05
0.00039702
3.61054e-05
2.65993e-05
5.96825e-06
1.68597e-06
0.0236518
0.000226855
2.30406e-07
0.0199808
2.04913e-05
6.37732e-17
0.000428309
0.000362544
1.79235e-05
0.0133962
0.000466539
6.6404e-19
5.26167e-05
1.22141e-05
1.45845e-06
5.65442e-06
2.08225e-05
1.25877e-16
2.59815e-05
3.2095e-05
0.011611
0.00289086
0.000369875
9.53491e-10
0.00029429
0.0602977
3.80653e-05
1.69114e-16
0.0180709
0.00281363
2.22412e-05
0.00332178
6.88182e-15
5.38447e-18
0.0181946
0.00216986
0.0228798
0.000775629
0.0500465
0.0142512
0.000125389
0.0256656
1.52874e-05
0.0893833
0.0032541
2.28052e-15
3.54028e-05
0.256391
0.00479405
0.00100928
0.00309068
0.000158518
0.00336393
0.0308523
0.00851048
0.00286612
0.143887
0.00375097
2.34169e-19
0.0177115
0.0640541
0.0347379
0.0013274
3.31333e-05
0.00021067
6.08306e-05
0.000669856
0.0189309
0.0197523
1.22068e-08
0.0524034
0.0230195
0.000626047
4.03875e-06
0.0136935
0.00324075
0.000706714
0.0503012
0.000537308
0.000114374
0.010706
0.0108759
0.0218842
5.89436e-05
5.28772e-07
0.00158853
0.0162859
3.40896e-17
9.41683e-05
0.173082
0.00259883
0.00123207
0.000730565
4.35651e-05
0.00436318
7.59765e-17
0.0186626
1.71105e-06
0.0141088
3.29692e-05
0.00565009
8.27721e-18
0.0164852
2.01604e-11
0.000118526
0.00874236
1.29477e-05
0.00662516
0.00770685
3.33958e-05
0.0158769
0.000134096
0.0156965
0.0065701
0.00929534
0.0563426
0.00558883
0.0293852
0.0346453
0.0170655
4.41014e-05
0.00453084
0.000173543
0.000965179
0.000915871
0.00126427
0.0022201
0.000635066
8.91811e-06
3.29816e-05
2.79587e-06
0.00133694
0.00127824
0.0522175
0.00324285
3.01116e-05
0.000110875
2.36581e-05
0.000452675
8.82028e-06
0.00106653
0.0299827
0.00254073
0.00192954
5.23327e-05
0.0170103
4.75604e-07
3.27674e-05
1.88069e-06
0.000217689
0.0346031
0.00683169
0.000516982
0.000725198
0.00447777
0.000221116
8.82549e-05
0.00493667
4.69083e-15
1.50086e-05
8.47829e-05
2.56033e-05
4.50196e-05
4.74605e-05
0.0010454
0.00863143
0.101336
0.000240649
1.81552e-05
6.87051e-06
0.000327419
0.00834463
0.00240118
5.34516e-05
5.17194e-05
0.00319349
4.86081e-05
0.0101125
0.0745651
0.0447679
0.000175624
0.000526646
8.88852e-06
0.00011545
5.54876e-05
0.00391659
0.000451118
0.000750966
0.0141657
0.00194422
0.000279632
2.29533e-05
0.00042405
0.029877
9.50274e-07
5.0101e-18
0.0110577
6.09035e-06
0.000562738
0.00462995
2.10788e-09
0.000106031
0.00051085
0.000145744
0.0227129
3.99976e-05
0.000114377
0.000300666
0.00512312
7.80877e-05
0.000699332
0.000108609
0.00128772
0.00956015
3.56965e-05
0.0286009
6.97456e-17
5.10856e-05
0.00239408
7.4176e-05
0.000338743
0.00347326
0.00120082
5.56995e-05
8.60686e-06
0.00180471
3.64925e-05
7.5936e-05
6.71091e-05
0.00335732
1.28586e-05
0.300283
0.000145149
0.000953977
8.51904e-05
3.11818e-05
0.000283103
0.000244302
0.00369666
4.90878e-05
0.000573997
7.37576e-05
0.000906273
0.0140185
0.00278873
0.111912
0.000860789
0.0101072
0.0103985
0.0123581
0.00126091
3.18001e-05
8.00216e-05
9.46957e-05
0.000101486
3.17083e-17
0.00025795
0.011493
8.12186e-17
9.96076e-18
0.00377414
2.29989e-05
3.19078e-05
0.0149663
2.49075e-05
0.00011264
0.00191007
5.22268e-05
5.11425e-05
0.00158969
4.27658e-05
0.0243183
0.0131632
0.0102758
0.00190924
0.000139362
0.00158936
0.000292406
5.91416e-06
4.16781e-05
7.35281e-18
0.000101318
0.0110019
0.00688195
5.33002e-05
7.46875e-06
5.18147e-08
0.000257919
1.38131e-06
0.000341799
0.00411344
8.37558e-06
4.07065e-05
1.98406e-15
4.8966e-05
0.00276158
6.67215e-05
0.000335088
0.00227801
5.33137e-05
9.99279e-05
6.3346e-06
2.76989e-18
0.0537621
0.000483603
0.000672285
3.64299e-05
1.73081e-07
0.00221382
2.12001e-06
0.00343678
3.87726e-05
8.50419e-18
1.94794e-17
2.84417e-05
0.0194702
0.00321458
0.0241393
0.00159057
0.0511864
0.000104239
2.36347e-06
0.00023688
6.40769e-19
0.000885613
7.52228e-05
6.43167e-06
0.000102501
5.02778e-05
0.0192203
0.000441273
0.0023236
0.00572321
7.2431e-05
0.0108872
0.00361468
5.13618e-05
0.000934522
0.00320839
0.0297256
0.000302562
9.79875e-17
0.0636167
0.00886776
0.00645277
4.16805e-05
0.0626434
0.000268473
0.0152761
3.23628e-05
0.0172709
0.000198084
7.24545e-08
5.97525e-06
9.24085e-06
5.5037e-06
0.0402369
0.0146046
0.0145506
1.52515e-06
0.00231786
0.000107286
1.00089e-06
0.000970609
0.000104042
1.76836e-06
6.1954e-06
3.56462e-07
0.000130899
3.20537e-07
0.0363453
0.00308085
0.000345646
8.39431e-16
7.7408e-16
0.00168999
0.000455705
0.0015171
0.000733789
1.4151e-06
0.0140763
0.000252397
0.000666609
0.00205248
0.00126129
0.000132817
7.53927e-05
0.000176422
4.44608e-05
1.80417e-06
1.35239e-05
0.00010853
0.000668599
0.000102722
9.6858e-07
0.0167855
0.000216277
0.000573532
2.41449e-05
5.48427e-05
0.000491023
0.00695644
0.00294032
0.000590618
0.000214274
7.13082e-05
5.59847e-06
0.00436426
9.26226e-06
0.00754523
0.000392663
2.48889e-05
0.00188044
0.0959543
5.46701e-05
0.00019386
0.000518182
3.76284e-05
3.86974e-05
1.82992e-06
0.000200013
1.61524e-05
0.00137914
0.00371554
0.000583134
6.73231e-05
7.6473e-07
0.000462248
0.00946727
5.95694e-07
0.000140933
8.76387e-06
2.45916e-05
0.000369848
0.00018234
2.15712e-05
0.000292893
4.79906e-08
0.000101152
7.6369e-13
1.15144e-17
0.000198226
0.120015
8.28114e-06
0.000565751
0.000226403
0.000105313
0.0116977
8.39817e-06
0.00275282
0.000121448
7.94839e-05
0.00051647
1.90639e-05
0.000205444
1.76148e-06
3.91168e-06
0.000108686
0.000122874
0.0185665
0.000602881
0.000357039
0.000355918
3.42011e-06
4.44004e-05
0.000179466
0.00264868
3.06486e-05
7.25558e-17
2.98765e-06
0.00116579
1.48343e-05
0.0123217
0.000292303
8.49233e-08
0.00016176
0.000127099
0.0848117
0.000383548
6.68057e-06
1.33177e-17
5.11791e-19
0.000210422
0.000598453
0.0264788
0.00856552
1.43779e-15
3.06602e-05
0.037818
0.0399365
8.63941e-18
0.0179508
0.00592835
0.000396495
0.000129859
1.4703e-16
1.18523e-16
0.00031703
2.00857e-15
0.00433296
1.50728e-05
0.000162198
2.61095e-05
5.64484e-05
0.00600129
7.75346e-05
3.92226e-05
3.90456e-05
3.83265e-19
0.000201267
4.64947e-19
1.94354e-15
1.00005
0.000185344
0.0194081
0.00306868
1.08943e-05
2.29582e-17
0.0156373
0.00188635
1.98856e-05
1.62791e-05
0.00328108
3.72706e-15
5.39554e-06
0.000397335
1.69689e-05
0.00222274
0.000556996
0.000467801
0.00053357
5.67345e-06
6.92818e-05
0.0196951
0.00282787
0.000591926
1.56144e-17
0.00355109
9.6043e-05
9.34327e-05
0.000244145
0.00931156
0.0126186
0.00412825
0.000755792
0.000179093
0.00253547
0.00190004
0.00204066
0.000461129
0.000229083
6.53812e-18
0.00366603
0.00169213
0.000125801
0.000107541
0.000751578
0.00158571
1.35224e-16
5.60007e-16
0.0225756
1.10835e-05
0.000907525
0.000297449
0.00331069
0.00991676
3.41463e-07
8.87003e-05
0.00553004
0.000154198
0.000125434
7.29737e-05
4.34762e-06
1.27373e-05
1.75251e-05
0.00361471
0.012957
3.66043e-18
0.00606072
0.00160648
0.152167
0.000166892
0.00138231
3.06122e-05
0.00905888
1.14357e-05
8.61443e-05
2.58638e-05
0.0198528
1.20412e-05
0.000512678
0.000691254
1.97193e-05
0.0067981
6.59516e-05
0.00220729
0.0168514
0.00696417
5.47648e-05
3.79256e-05
0.0122341
0.000135844
4.43236e-05
0.00190063
0.000772653
0.00188736
2.10378e-05
0.000111246
0.00464202
0.00326498
6.40551e-05
2.7926e-05
0.00025718
0.00190964
1.50244e-17
7.63707e-05
2.52734e-06
0.00092444
0.0149414
0.00284732
0.00155974
0.00335213
0.000489913
0.0314122
0.00132617
0.00740238
0.000252454
1.03748e-05
0.000236237
2.74592e-05
0.000449373
5.86315e-06
4.10184e-17
0.00119753
0.00015289
0.0374132
0.000765278
0.00783833
5.3746e-05
0.00747393
0.00034382
0.0148274
0.0174381
0.00139365
0.00974353
1.08549e-05
0.000373084
2.80759e-06
0.000594877
0.00021859
0.0003499
6.18565e-05
0.000307381
9.81753e-05
0.0026551
2.10679e-05
5.57959e-05
5.96683e-05
2.63343e-17
0.0265399
0.00016184
1.61157e-05
3.38788e-05
3.1187e-05
0.000138046
0.00541244
8.63039e-05
3.32075e-07
3.44146e-05
0.00159536
0.0031236
0.000253051
0.0156786
0.0132564
6.19333e-17
0.000207898
0.000164146
9.98718e-05
0.000293054
0.000473261
0.000451101
2.37607e-05
0.000932012
0.000450436
0.0053166
3.2008e-16
0.00117293
0.000536142
0.00836684
0.00527254
0.00866197
2.06188e-05
0.0535281
0.0219742
0.0975693
2.05686e-05
0.000145587
3.70401e-05
0.00027975
0.00676127
0.0101077
0.0300584
0.024719
9.22969e-06
1.59157e-05
0.00775179
0.000403108
0.0174414
0.301837
0.0176746
0.000342447
0.000448711
0.0161447
0.00158406
0.000242307
0.000728635
0.16166
1.37104
6.95175e-05
1.02581e-06
6.37309e-05
0.00340875
0.00105212
0.0018561
0.00270123
0.00196227
0.0021183
0.000883997
2.89348e-06
3.11969e-05
0.000207679
1.08191e-07
5.59924e-05
0.000445295
2.80356e-05
9.1141e-07
0.00319645
0.0110307
0.004026
2.50683e-07
1.08025e-05
3.29167e-05
1.98987e-07
6.57622e-05
3.0077e-05
0.00876344
3.03976e-16
0.0311332
0.000108108
0.0482622
0.0150231
0.00024871
0.00216407
1.01363e-05
0.00236436
0.00013697
0.000872817
0.0835245
1.10307e-05
1.88374e-18
5.79506e-10