/*--------------------------------*- C++ -*----------------------------------*\
  =========                 |
  \\      /  F ield         | OpenFOAM: The Open Source CFD Toolbox
   \\    /   O peration     | Website:  https://openfoam.org
    \\  /    A nd           | Version:  10
     \\/     M anipulation  |
\*---------------------------------------------------------------------------*/
FoamFile
{
    format      ascii;
    class       surfaceScalarField;
    location    "9.7";
    object      phi;
}
// * * * * * * * * * * * * * * * * * * * * * * * * * * * * * * * * * * * * * //

dimensions      [0 3 -1 0 0 0 0];

internalField   nonuniform List<scalar> 
214403
(
-0.00679259
0.00520822
0.000287649
0.00129672
-0.00337365
-0.0113393
0.000966322
0.0137466
-0.0103472
6.8867e-05
-0.000141147
0.0104195
0.00894012
-0.00601126
-0.0149845
0.0120557
0.0124109
-0.0156933
0.00373881
-0.000456424
-0.00545158
0.00567802
-5.51724e-05
-0.000171265
-0.0008609
-0.00163694
-0.0093195
0.0118173
-0.017185
0.00977662
-0.00258181
0.00999021
-0.0235337
0.0166127
0.0167698
-0.00984883
0.0143501
0.00170308
-0.0160335
-1.9683e-05
0.00508806
-0.0100788
0.00207305
0.0029177
-0.0104487
0.00328834
0.00541321
0.00174717
0.000482307
-0.01156
0.0139212
-0.0028435
-0.0100531
0.0101198
-6.67426e-05
0.00193828
0.0120536
-0.0154503
0.00145838
-0.0121767
0.0101837
0.00308636
-0.00109334
-0.0122476
0.0119517
0.000295921
0.00396277
-2.38471e-06
-0.00103067
-0.00292972
0.0158498
-0.0094865
-0.0210732
0.0147099
-7.63872e-05
-0.00313065
9.17495e-05
0.00311529
0.00645745
-0.00630578
-0.000151673
-0.0125133
-0.00432888
0.00430436
0.0125378
-0.00230869
0.0137833
-0.0111105
-0.00036413
0.0067989
0.000715843
0.00237317
-0.00988791
-0.0103503
-0.00496889
0.0133982
0.00192107
0.00927487
-0.011748
7.0044e-05
0.00240312
0.00326515
-0.00285661
0.0106852
-0.0110938
0.00771351
0.010091
-0.0121546
-0.00564995
0.0112966
-0.00708553
-0.000321657
-0.00388942
-0.00591369
0.00602817
-0.000114486
0.00246595
-0.00513262
0.0136795
-0.0110129
0.0142874
0.000677021
-0.00249451
-0.0124699
-0.00567257
-0.00582144
0.00596176
0.00553225
-0.00121555
-0.00685659
0.00607401
0.00199813
0.00448277
-0.00312639
-0.00954239
0.00818601
-0.00173517
0.00865597
-0.00312718
-0.00379362
0.0161965
-0.000391577
-0.0158049
-0.00697546
0.0136043
-0.00662883
0.00126145
-0.01494
0.00864765
0.00503089
0.00248294
-0.000998147
0.00607753
-0.00756233
0.00578686
-6.11686e-05
-0.00572569
0.0103555
-0.000223673
0.00183755
-0.0119694
-0.0131354
0.00164919
0.0139691
0.000870782
0.000894778
0.0087191
-0.0104847
-0.00415509
-0.0271699
0.0263457
0.00497923
0.0057534
0.00103878
0.00130042
-0.0080926
0.00428027
0.00325317
-0.0104706
0.00293718
0.0135116
0.00809887
-0.0148116
0.00122168
0.0114614
-0.0023275
0.00183555
-0.00687277
-0.00404693
0.00908415
0.00312789
0.00480843
0.00142955
-0.00936586
0.00187641
-0.00140882
-0.00434446
0.00387688
0.00692496
-0.0125354
0.00873836
0.0120331
-0.0113291
-0.00388582
0.00318187
0.0107248
-0.00196432
-0.00869256
0.0117856
-0.000501013
-0.00259199
0.00895193
-0.0114458
0.000131132
0.00236273
-0.00840581
0.000555266
0.0134327
-0.00558211
-0.0154992
-0.0145597
0.0122304
0.0178285
-0.00828895
0.00833909
0.00164081
-0.00169095
0.00130723
-0.0105943
-0.00864423
-0.000179921
0.00449342
0.00433073
-0.0135609
0.00582209
0.00877394
-0.00103511
0.0159079
-0.0128127
0.000819859
-0.00391498
0.000732386
0.000266205
-0.010507
0.00950838
0.000525134
-0.00288112
0.014247
-0.011891
-0.0351741
0.00364747
0.0039018
0.0276248
-0.00324868
0.00957387
-0.00303973
-0.00328546
0.0047028
-0.00247738
-0.010031
0.00780562
0.00112735
0.00700659
-0.00890794
0.000773999
-0.000175222
0.00859848
0.00299166
-0.0114149
-0.00170625
-0.000270475
-0.00355489
0.00553161
-0.0090837
0.00993143
-0.000378622
-0.000469109
0.000319102
-0.00917722
-0.00641712
0.00568377
0.00172534
-0.00099199
-0.0171137
-0.00108015
0.00835245
0.00984145
-0.0051917
-0.0022127
0.00441732
0.00298708
0.00760752
-0.0255163
0.00353902
0.0143697
-0.00398798
0.00802623
-0.0043833
0.00034505
0.00572907
-0.0044468
0.000567665
-0.00184994
0.000128516
-0.0107266
0.0105981
3.19946e-05
0.00870993
-0.00874192
0.00770311
-0.00150791
0.00102158
-0.00721679
-0.00458443
0.00654107
0.00216797
-0.00412462
-0.00324538
0.0138195
-0.00331993
-0.00725414
0.00652111
-0.0111115
-0.000424704
0.00501506
0.0074658
0.00790608
-0.0153719
0.0110086
-0.0123716
0.00317048
-0.00180756
0.00106835
-0.00198593
0.0143721
-0.0134545
0.000412113
-0.00232427
0.0103529
-0.00844076
0.00245491
0.0216666
0.00624347
-0.030365
-0.0189469
0.0166703
0.0108035
-0.00852683
0.00087117
0.00667259
-0.00897277
0.00142901
0.00882476
0.00981368
-0.00321251
-0.0154259
0.0164246
-0.00997757
-0.000328927
-0.00611811
0.000715219
-0.00209671
-0.00658342
0.00796491
-0.00666276
3.78549e-05
0.00662491
0.0099764
0.000344675
0.000687566
0.0124011
0.00104574
-0.0188434
0.00539654
-0.00993878
0.00219547
0.00176588
0.00597743
-0.00628745
0.00155914
0.000773073
0.00395523
0.00154712
0.00110654
-0.0131199
0.0104662
-0.0026975
-0.0156988
0.0100089
0.00838741
0.00627414
-0.00742215
-0.00483679
0.0059848
0.0101434
-0.000110549
-0.0101434
0.000110583
0.00779018
-0.0110087
-0.00382437
0.00704293
0.0201554
-0.00609844
-0.00314112
-0.0109158
0.0113995
-1.87906e-05
-0.0104865
-0.000894253
-0.00574049
0.00676134
0.0140905
-0.0151114
0.0123112
-0.00432373
-0.0118389
0.00385151
0.00226429
-0.00331148
0.0144065
-0.0133593
-0.0162771
0.0148351
0.0140634
-0.0126213
0.000733008
-0.0126693
0.00489012
0.00704612
0.0158572
-0.000840572
-0.000322229
-0.0146944
0.0111457
-0.00217241
0.00215506
-0.0111284
-0.0129491
-0.0117752
0.0139373
0.0107871
-0.00245116
0.00703128
0.00190543
-0.00648554
-0.00555629
0.000302855
0.0107693
-0.00551585
-0.00123493
0.0139225
-0.0129584
0.00027089
-0.0119669
0.011114
0.00216394
-0.0013111
-0.000401959
-0.00698443
0.0166613
0.00222046
-0.00740551
-0.0054085
0.0105936
-0.00588119
7.72318e-05
0.00580396
0.00180299
0.0081988
-0.00758421
-0.00241757
0.0130406
-0.00751856
-0.00199762
-0.00352444
8.74044e-05
-0.00382249
0.00373508
-0.00736732
-0.00198439
0.00276593
0.00658578
0.000756437
0.00416562
-0.00934745
0.00442539
0.0159109
-0.00143656
0.00621866
-0.020693
0.00114645
-0.00140331
-0.0193536
0.0196105
0.00124892
-0.00553038
-0.00731893
0.0116004
0.00046858
0.010069
-0.000561137
4.03456e-05
-0.00590602
0.00586567
0.0122879
-0.00455612
-0.00551135
-0.00745187
0.00622484
-0.00614029
0.0135416
-0.0112695
-0.00136549
-0.000906547
0.00136022
-0.00643242
0.00281227
0.00225992
-0.0110549
-0.00334571
0.00224651
0.0121541
0.00919699
-0.0149446
0.00984642
-0.00409884
-0.000409365
0.0134942
-0.013513
0.00042823
-4.38181e-05
0.0122901
-0.0121772
-6.9071e-05
-0.0171768
0.0137076
-0.0110022
0.0144714
0.0143337
-0.0138721
-0.000461598
-0.0131249
0.0175807
-0.00321532
-0.00124052
-0.0117297
0.00282018
-0.000882417
0.00979198
-0.0193449
0.00149084
0.012438
0.00541604
0.00344459
-0.00470395
0.00261958
-0.00472177
0.00536873
0.00863678
-0.00928374
-0.0051568
-0.00231431
0.0029511
0.00452001
-0.00696765
0.00455826
-0.00880228
0.0112117
0.00209608
0.000168605
-0.0153896
-0.0068428
0.00682872
1.40871e-05
0.00751004
-0.00721941
-0.000290629
-0.0113321
-0.000740775
-0.00301613
0.00279861
-0.0149155
0.0173742
-0.00525732
0.00671851
0.011562
-0.0147038
-0.00357677
0.0128355
-0.0139415
0.00037461
0.000731414
0.00683405
0.00177693
-0.00706471
-0.00154627
-0.0108068
-0.000601694
0.0142071
0.00619989
-0.000448269
-0.00755791
0.00180629
0.00698609
-0.00598152
0.00689053
-0.0078951
-0.0122227
0.00229551
0.0166457
-0.00412684
-0.00579247
0.0191227
-0.00920337
-0.00589617
-0.00649209
0.00158151
0.00176127
0.00465822
-0.0123157
-0.00833208
-0.000734829
0.0133887
-0.00432179
0.00129874
0.00204871
0.00744881
-0.0107963
-0.0039787
0.00973945
-0.00576076
0.00315478
-0.0150916
0.0054447
0.00899315
0.00628042
-0.0135123
-0.0127392
0.000153252
0.0158751
-0.00328916
0.00214253
0.00183553
0.00573719
-0.00971525
0.00853442
-0.00859783
6.34074e-05
0.00322479
-0.00121745
0.0108257
-0.012833
0.0113207
-0.00358942
0.00544384
-0.0131751
0.0207942
-0.0066849
0.0155182
-0.0296275
0.00341189
0.00634739
-0.00263685
-0.00712242
-0.00938235
0.00386051
0.00492107
0.000600766
0.00672342
-0.00506582
-0.000138605
-0.00151899
-0.00438379
-0.00556091
0.0161911
-0.00624639
-0.00753621
0.00977452
0.00390541
-0.00614373
0.0113399
-0.000620036
-0.00373381
-0.0176782
0.0116825
-0.000971951
-0.0168591
0.0155536
0.00722279
-0.0059173
0.0107531
-0.0121193
-0.00174866
0.00311486
0.0060715
-0.010969
-0.00574626
-0.00625514
-0.00574041
0.00324378
0.00875177
-0.00892917
0.00277252
0.00881319
-0.00265654
0.0103117
-0.00981036
-0.00675318
0.00625186
6.42067e-05
-8.95698e-05
-0.00965338
0.00967874
0.000233048
-0.00849895
-0.000322992
0.00858889
-0.00244162
-0.0144769
0.00227321
-0.00836715
0.00752647
-0.00143253
-0.00571258
-0.00240816
-0.00080843
-0.000194982
0.0143407
0.000204394
-0.0342213
0.0240718
0.0173953
-0.0072458
-0.0101095
0.000687115
0.000367725
0.00905465
-0.00201322
0.032047
-0.0377069
0.00767311
0.00159441
0.00245926
-0.00551871
0.00146503
-0.0216497
0.0116675
0.00150853
0.00847363
-0.000256314
-0.0143777
-0.00204486
0.0166789
-0.00599758
0.0216797
-0.0150429
-0.00063921
0.00972459
0.0141352
-0.013065
-0.0107948
-0.0116052
0.0110508
0.0137271
-0.0131726
0.00448572
0.00626817
-0.00780745
-0.00294643
0.00447721
-0.00302069
-0.0071691
-0.0230568
-0.000906907
0.0188385
0.00512521
0.00675234
0.00103071
-0.00392254
0.00695513
0.0093107
-0.00859701
-0.00766882
-0.011511
0.00256448
0.0112276
-0.00228112
0.00137036
0.00361322
0.0125972
-0.0133598
0.0131932
0.00127861
-0.001112
0.00823716
0.00645844
-0.00582113
-0.000230639
-0.00163772
0.00768949
-0.00883229
-0.001755
0.0049141
-0.0170525
0.00725105
0.0048873
0.000519762
0.00918585
-0.0101981
0.000492447
-0.00354625
0.000685762
-0.0032973
0.00615779
0.014214
-0.0101599
0.00042308
-0.00805143
-0.00629852
0.00847288
0.00587707
0.030437
-0.0325573
0.0106323
-0.00851196
-0.00582599
0.00723917
0.00291613
-0.00432931
-0.0133423
0.00580136
0.011634
-0.00409307
-0.00578937
0.00840372
0.0108079
-0.0134223
0.016253
-0.00629061
-0.0107608
0.00079847
0.000283347
-0.00395591
0.00962344
-0.00595087
-0.00167281
0.0016596
-0.012726
0.0116575
0.00379104
-0.0124799
-0.00296869
0.0146429
-0.0120108
-0.00323384
0.00308533
0.00456578
-0.0107913
0.00314016
-0.00599732
-0.0110107
0.00977629
0.00723178
-0.0018365
-0.00476841
-0.00144653
0.00598172
-0.00639245
0.0137743
-0.0133636
0.00145002
-0.0166842
0.0152342
0.00569373
-0.00744311
0.00483471
0.00307326
0.00177282
0.00252046
-0.00736654
-0.000310879
-0.0138916
0.0142025
-0.00756182
0.00100444
-0.00245369
0.00901107
-0.000908499
0.0105159
-0.00958549
-2.18865e-05
-0.0071442
-0.00378098
0.00412533
0.00679985
-0.00266392
-0.00631678
-0.00586724
-0.00862432
0.00719308
0.00729848
0.000316629
-0.00884779
0.0152907
-0.00628719
-0.000813951
-0.00818955
0.00808235
-0.000769731
-0.00589723
-0.00141539
-0.00129312
0.0114017
-0.0142389
0.00413036
0.00737135
0.000283616
0.00358844
-0.0112434
-0.000270592
-0.00606006
0.00292416
0.00340649
-0.0041857
0.00544718
0.0105317
-0.0117932
-0.0148271
-0.00384966
-0.00415318
0.0136966
-0.0126646
0.00029834
0.0039745
0.00839173
0.00121964
-0.00449393
-0.00800471
0.011279
-0.00579838
-0.0113183
0.00285604
0.0142606
-0.00531157
-0.00589191
0.00612948
0.005074
-0.0137194
0.0132051
0.0139335
-0.0134193
-0.00185518
-0.00323775
-0.00975198
0.0148449
-0.0133516
0.00136609
0.0135891
-0.00160363
-0.00231833
0.00623746
-0.00391913
-0.00541059
0.0100014
-0.00752941
0.00293864
-0.000235731
0.0180127
-0.00668553
-0.0110914
-0.00644338
-0.00311338
0.0129336
-0.00337685
0.00207894
-0.00545422
0.012377
-0.00900169
0.000565301
0.00801598
-0.00140435
-3.7147e-05
-0.0131859
0.0131762
4.68303e-05
0.0149952
-0.00265537
-0.0219171
0.00957725
-0.0138482
-0.00135698
0.0172905
-0.00208534
-0.00751586
0.011355
0.000932205
-0.0047713
0.00670082
-0.00661717
-8.36533e-05
-0.00802648
0.00077319
-0.00692566
0.014179
-0.0115838
0.0159631
-0.00332809
-0.00105124
0.00721973
-0.00302816
-0.00870511
0.00451354
-0.0139528
0.0140788
-0.000125981
0.011496
-0.0167168
0.00135236
0.00386847
-0.0130258
-0.00356619
0.0222757
-0.00568371
0.00960893
-0.000399853
-0.00201877
-0.00719031
-0.00547867
-0.00929087
0.0207513
-0.000977426
-0.0137125
0.00829749
0.021622
-0.0241235
-0.00228892
0.00479044
0.00576084
0.00274656
-0.00636487
-0.00603456
0.00629011
-0.000255557
-0.00246635
0.0137799
-0.000873998
-0.0104395
-0.00299948
0.00355787
0.0119678
-0.0125262
0.00781803
0.018345
-0.0107352
-0.0154278
0.0133856
-0.0160599
0.00510556
-0.00243128
0.0122018
0.000170828
-0.0123726
0.000225877
0.0118756
-0.0121015
0.0133878
-0.0162051
0.0143133
0.000145817
-0.000123124
0.0104137
-0.0104364
0.000264404
0.0189796
-0.0189047
-0.000339279
-0.00162186
-0.00479668
-0.00970723
0.0161258
-0.00593769
-0.0035594
0.00119253
0.0112318
-0.0195482
0.00712387
-0.00950572
-0.00249253
0.0101915
0.00180672
-0.0111873
0.012354
-0.00329984
0.00213313
0.00176849
0.00921527
-0.00313477
-0.00784899
-0.00447931
0.00111867
0.00758751
-0.00422686
-1.2454e-05
0.00341454
-0.00427657
0.000874486
-0.00477193
0.0116706
-0.0067277
-0.000170938
0.00349016
-0.0110105
-0.00643245
7.84203e-05
-0.0102691
0.0101907
-0.00380234
-0.00364824
0.00169206
0.00575851
0.00575127
-0.00331793
-0.00243335
0.0143639
-0.0142657
-0.00290953
0.00281138
-0.00130378
-0.00848281
0.00782215
0.00196444
-3.56039e-05
4.78116e-05
0.00767677
-0.00768898
0.00382928
-0.00314712
-0.0121838
0.0115016
0.00884227
-0.000223853
-0.00861841
-0.0129541
-0.00838803
0.0125008
0.00884127
0.00759339
0.0119012
-0.020472
0.00721014
-0.00259422
0.00405929
-0.00867521
-0.00288639
0.00286336
-0.0158799
0.0159029
0.00450176
-0.00886488
-0.00862789
0.012991
-0.000910656
-0.0020417
0.00961882
-0.00666646
0.00670885
-0.00824563
0.00298804
-0.00145126
0.00365399
-0.00605661
-0.00585407
0.00825669
-0.0118117
0.0133012
-0.00354378
0.00205427
0.0134138
0.0172647
-0.0190092
-0.0116693
-0.0104
0.0103554
4.46103e-05
-0.00116441
0.0122896
-0.0153523
0.00422704
0.000477412
-0.000781058
-0.0118005
0.0121042
0.0116408
0.000488389
-0.0133936
0.00126441
-0.00494302
-0.00835518
0.0105074
0.0027908
-0.0119447
0.0169234
-0.00599218
0.00101352
-0.00494956
-0.00604429
0.00358834
-0.000734277
-0.000125067
-0.00850464
0.00936398
-0.0277835
0.000113774
0.00249423
0.0251755
0.00110155
-0.00707871
-0.00366375
0.00964091
0.0173501
-0.00142585
-0.00561616
-0.0103081
-0.00310053
-0.00668972
0.00130348
0.00848677
0.00486013
-1.88894e-05
-0.00484124
0.00814812
0.00434214
-0.0027026
-0.00978766
0.00631272
-0.00499935
0.0124528
-0.0137662
0.000409798
0.012954
-0.00428086
-0.00908295
0.00314506
0.00448826
0.00971676
-0.00622119
0.00043867
0.00578252
-0.00807544
0.00114148
0.00214334
0.00135536
-0.0111758
0.00767712
-0.0105497
0.0154366
0.00467653
0.0159535
-0.00338308
-0.0172469
-0.0101257
0.00994504
-0.0157369
0.0159176
-0.00152435
-0.0076446
0.00267385
0.0064951
-0.00842123
0.015887
0.004714
-0.00548721
0.00122762
-0.000454405
-0.00520094
-0.0165901
0.005193
0.016598
0.0109
-0.010878
-9.89513e-05
7.69791e-05
0.00881992
-0.0102908
0.00219269
-0.000721789
0.00226122
0.00884756
-0.0157618
0.004653
3.76822e-05
0.00761874
-0.00765642
0.0049285
-0.0126323
0.009965
-0.00476473
0.0127918
0.010775
-0.0188021
0.00364015
-0.00370164
-0.0172227
0.0172842
-0.00518961
0.00859758
-0.0172452
0.0138372
-0.0123652
0.00984537
0.0129103
-0.0103905
-0.0077672
0.0106414
-0.00687529
0.00400113
-0.00162766
0.00709164
0.00115366
-0.00661764
0.00361632
-0.00527278
0.00543765
-0.00378119
0.00678102
0.00252311
0.00223037
-0.0115345
0.0193729
-0.0131536
-0.000791175
-0.00542816
-1.06952e-05
-0.009393
0.00940369
0.00588343
-0.00860312
-0.0263811
0.0291008
-0.00118166
-0.0127884
-0.0038762
0.0178463
-0.000779141
-0.00590027
0.00667941
0.0017924
0.00850219
-0.00134247
-0.00895212
-0.00238029
-0.00859173
0.00693375
0.00403827
0.00660588
-0.0055323
-0.00971781
0.016903
-0.0131561
0.00370833
0.00392881
-0.00763713
0.0127479
-0.000349491
-0.0015323
-0.0108661
-0.00244321
-0.00415553
0.00659874
0.00457377
0.00303905
0.0255129
-0.030684
-0.0108412
0.0160123
0.00392867
0.00836944
-0.00640142
-0.00589669
-0.00893403
0.0170974
0.0113675
-0.0195308
0.0100615
0.00349206
-0.00134715
-0.0122064
0.0166973
-0.0111336
0.00718487
-0.0127485
-0.0093244
0.00426353
-0.0116881
0.016749
-0.0151908
0.027226
-0.0106721
-0.00136301
-0.000401064
-0.00652297
-0.0089897
0.0159137
0.0123342
0.0050954
-0.0144735
-0.00295616
0.00659585
-0.0175852
0.0111007
-0.000111384
-0.0155594
-0.000593127
0.0101812
0.00597133
-0.00312103
0.00806975
0.00350861
-0.00845732
-0.00197906
0.00793685
0.00638412
-0.0123419
-0.0162041
0.00833624
-0.000790806
0.00865864
0.00149245
-0.00443325
0.00880648
-0.00586569
0.00685418
-0.00344795
0.00244654
-0.00585277
0.00665455
0.00128013
0.000655046
-0.00858973
-0.00986818
0.0105879
0.00392157
-0.00464131
-0.00232977
0.0124701
0.000252964
-0.0103932
0.0100597
-0.00590645
-0.00390095
-0.000252303
0.00872622
6.79351e-05
-0.00879415
0.00637922
0.00493944
-0.00112011
-0.0101986
0.00297211
0.00784468
0.0067153
-0.0175321
-1.77761e-05
-0.0141027
0.0141205
-0.00736231
0.0284802
-0.00415033
-0.0169676
-0.000135598
0.0106126
-0.010477
-0.000711427
-0.00766566
0.00137682
0.00700026
-0.0138478
0.00705475
0.00535788
0.00143516
0.00282573
0.00235121
-0.0161931
0.0110161
0.00829014
0.0130953
-0.00489433
-0.0164912
0.0124524
-0.00426603
-0.011919
0.0037327
-0.0155724
0.00887906
0.0237338
-0.0170404
-3.9205e-05
0.00594043
-0.00594072
3.9493e-05
-0.00614624
0.00608212
6.41267e-05
-0.0158407
0.000244139
0.00666251
0.00176898
0.00382429
0.0104676
-0.0160609
0.00828483
-0.00985391
0.00635541
-0.00478632
-0.00787932
0.00690095
-0.000261466
0.00123984
-0.00165856
-0.0129845
0.0166336
-0.00199054
-0.00580236
0.00279406
0.00918717
-0.00617887
0.010092
-0.00389027
0.00148944
-0.00769119
-0.00672571
-0.00117256
0.00787333
2.49508e-05
-0.00114808
-6.16845e-05
0.0109051
-0.00969532
0.00139627
-0.00117226
0.010961
-0.011185
-0.00986023
0.0137804
-0.014438
0.0105179
6.7687e-05
-0.0124305
0.0123628
-0.00442492
0.000388426
0.0111555
-0.00711902
-0.00851741
0.00995776
-0.0135798
0.0121394
-0.00872483
0.000660212
0.00265611
-0.00402907
0.0109176
0.000606587
-0.00749509
-0.00291504
0.000407158
-0.00494398
-0.00429737
-0.0139608
0.0140244
0.00423371
-0.00621927
-0.000729005
-0.00156274
0.00851101
-0.021314
0.00720531
0.00209859
0.0120101
-0.00676532
0.0154571
-0.00767306
-0.00101874
0.0047189
0.00185008
-0.00948402
0.00928893
0.00947254
-0.0187615
0.00125253
0.0203441
-0.0047073
-0.0168893
-0.000257902
-0.000360275
-0.00895278
0.00957095
-0.00977523
0.0161045
-0.00649186
0.000162571
0.00928175
-0.00586203
-0.008412
0.00499228
0.00230805
-0.000309498
0.00282529
0.0142596
0.00399131
-0.0206384
0.00238746
-0.00987155
-0.00128886
0.00323772
0.00792268
0.00375065
-0.00415666
-0.00563828
0.0171866
-0.0115609
0.0089825
-0.0146082
-0.00190092
0.0110961
-0.0191912
0.00999607
0.00666914
-0.0084278
-0.000854096
0.00261275
-0.00739432
-0.00257303
-0.000249777
0.0102171
-0.00549951
-0.00520099
0.0107005
0.00138031
-0.0147533
0.0130853
0.000287713
0.00566017
-0.00545758
-0.0057021
-0.00923818
0.0117245
-0.00223365
-0.000252652
0.013227
0.00363952
-0.0142516
-0.00261491
-0.00510846
-0.00747469
-0.000859104
0.0134423
0.00835187
-0.00254115
0.00968474
-0.0154955
-0.00933453
-0.000525692
-0.0111877
0.00598672
0.00144427
-0.0125643
0.00402009
0.00709991
0.00364124
-0.0130376
0.00718122
0.00221515
0.00194789
0.000512119
-0.00977456
0.00731455
0.0015025
0.00641296
-0.000431004
0.0109547
-0.00216468
-0.00835906
-0.00430108
-0.000435668
-0.00402121
0.00875795
-0.00254305
-0.00342572
0.00654998
-0.000581207
-0.0102045
-0.000145792
-0.0172657
0.0061983
0.00908839
0.0245317
-0.000198884
0.00334352
-0.0276763
-0.0107252
0.0166673
0.00337821
-0.0093204
-0.00305798
0.00167704
0.0105619
-0.00918099
0.00128393
0.00364439
-0.00281958
-0.00210873
-0.0184503
-0.00380688
0.015923
0.00633418
0.000402299
0.00776067
-0.00155709
0.000237934
0.00392315
-0.0123111
0.00814998
-0.00764228
-2.70362e-05
0.00281813
0.00485119
-0.0104067
0.0128607
-0.00205167
0.00587247
-0.00529542
-0.000577051
-0.00869801
0.00125377
-0.00675595
0.0142002
-0.00391553
0.00589225
-0.00454151
0.00256479
-0.00842854
0.00949163
-0.00392232
0.00285923
0.00381045
-0.000623746
-0.0090602
0.0058735
-0.00376938
0.0236277
-0.0318031
-0.00345721
-0.00241285
0.00236253
0.00350754
0.0112684
-0.0175901
-0.000798949
0.00712064
-0.00477459
0.00356308
0.00614003
-0.00492852
-0.00141367
0.0075407
-0.00208042
-0.00404661
-0.00848769
0.00188301
0.00198379
0.00462089
-0.00469834
0.000403918
0.00429442
0.0109165
-0.00519816
-0.00553888
-0.000179432
0.000794253
0.00541106
-0.00821323
0.00200792
-0.00584441
-0.00708489
0.00722447
0.00570483
-0.00301069
0.00777194
-0.00666674
0.00190549
0.0028231
-0.00534445
0.00368364
-0.00116229
0.0101972
0.000276866
-0.0104741
0.00878348
-0.0108144
0.00535129
-0.00332033
-0.0137898
-0.000408262
0.0141981
0.00569845
-0.00472751
0.00110237
-0.00207332
-0.000448053
0.00977395
-0.0106676
0.00134169
-0.00491903
0.00615821
0.00158392
-0.00542046
0.0116134
0.0107305
-0.00927694
0.00919687
8.00667e-05
0.000256137
-0.0146651
0.0144089
0.0198056
0.00239501
-0.00422471
-0.0179759
0.00413481
-0.016136
-0.00199956
0.0140008
0.00315355
0.00373005
0.00209229
-0.00897589
-0.00555151
-0.00555845
7.52093e-05
0.0110348
-0.00264862
0.00363921
-0.0065421
-0.0122166
0.00220599
0.0160367
-0.00602609
-0.0239753
0.0175585
0.00772789
-0.00131114
0.0106038
9.25929e-05
-0.0106964
-0.00599938
-0.00807178
0.00522083
0.00885033
-0.00605097
-0.00878831
0.00262266
-0.00872754
0.00474074
0.0054893
0.00353676
-0.00459946
-0.00844244
0.00950515
-0.00597862
4.06122e-06
0.00597455
-0.0138923
0.00564857
0.00573502
0.00250875
0.00352111
-0.00940985
-0.00283881
0.0119407
-0.00378688
-0.000301687
-0.00785217
-0.00801065
0.0132726
0.00787889
-0.0131408
-0.00234303
-0.00492313
0.0018037
0.00546246
-0.00339239
-0.00272845
0.00612084
-0.00589584
-0.0123921
-0.00568734
0.00275808
3.54322e-05
0.00556519
-0.0083587
0.0113471
-0.00826356
-0.0119507
0.00886712
-0.00420936
0.0015008
0.00850575
-0.00579719
0.00801128
-0.00563984
-0.000794302
-0.00157714
-0.00918656
0.00149119
0.00717572
0.000519655
-0.00569339
0.0130825
-0.0141664
0.00552332
0.000409889
0.00823323
0.013256
-0.0105858
-0.00833749
0.00566735
-0.0105344
0.00219361
0.0196879
-0.0102707
-0.00677061
0.0110536
0.00598779
-0.00119986
0.0106978
-0.00405802
-0.00543995
0.000605623
-0.00626534
-0.00413229
0.009792
0.0121789
-0.00803445
-0.000494184
-0.00365028
0.00375089
0.00280109
-0.00920061
-0.00256002
0.00289856
0.00714834
-0.00748687
-0.00211532
0.0110623
-0.013636
0.00468897
-0.00660721
0.00159359
0.00159925
0.00341437
-0.0145404
0.0147918
-0.000251422
0.0100036
-0.00985921
-0.000144352
0.00402316
-0.015542
-0.00596752
0.0174864
0.00356899
0.006789
0.00158275
-0.000171822
0.0059528
-0.00578097
0.00949283
0.0085088
-0.0180016
-0.0105953
0.00646816
0.00457195
-0.000444821
-0.00595059
0.0019608
0.00483787
-0.000848083
-0.0177332
0.00827554
0.00972559
-0.000267883
-0.00576722
-0.0064301
0.0062187
0.00909149
-0.00143047
-0.00586092
-0.0018001
-0.00983138
0.0106211
-0.00648312
0.00173096
-0.0109804
-0.00056374
0.00981317
-1.24831e-05
-0.00536907
0.00538155
0.0265154
0.000214111
0.00281696
-0.0295465
-0.000993244
-0.00194263
-0.0143111
0.0172469
0.00461128
-0.00624335
-0.00291227
0.00454434
0.0017836
0.0137101
-0.00554229
-0.00995142
0.0149603
-0.0149691
-3.62556e-05
4.4991e-05
-0.00839008
-0.00757122
0.0118329
0.00412839
0.00489888
0.00375147
-0.00976556
0.00111521
6.84312e-05
0.00908042
-0.009279
0.000130146
-0.0124999
0.00400228
0.0101305
-0.0016329
0.00963411
0.00582442
-0.00975333
-0.0057052
0.000226828
-0.00854847
0.00434703
-0.00222707
0.0128404
-0.00693729
-0.000903454
-0.00108289
0.00892363
-0.0115241
0.000606148
0.0109179
0.0168918
0.00730014
-0.00547625
-0.0187157
-0.0110304
0.000236885
0.0110204
-0.00101347
-0.00263844
-0.00673624
0.0103881
-0.00134588
-0.00131849
-0.00354994
0.00621431
0.00278011
-0.0141028
0.0106331
0.000689577
0.00875527
-0.00136617
-0.00851911
0.00113002
-0.0108642
0.00228106
0.000890864
0.00769229
-0.00412372
0.00269642
-0.00555487
0.00698218
0.00237581
0.00150515
-0.0139872
0.0101062
0.000488538
-0.00947099
-0.000659636
0.00964209
0.00940173
0.00122954
-0.000158056
-0.0104732
-0.0112165
0.00261339
0.0101502
-0.00805419
-0.0106947
0.0187489
0.0155561
-0.0079338
0.00334409
-0.0109664
0.00122097
0.00875283
-0.00536252
-0.0125622
0.00231896
0.00444634
0.00579693
0.0155005
-0.015957
0.000456548
-0.00934548
-0.00317297
0.00654154
0.00597692
-0.012155
-0.00944304
0.00632975
0.0152683
0.0127251
-0.0132902
-0.00162621
0.00219138
-0.00185091
0.00617412
-0.00486603
0.000542823
-0.01588
0.00517572
0.00364883
0.00705544
-0.0233894
0.029136
0.00481489
-0.0105615
0.0104194
-0.0226166
-0.00114849
0.0133458
-0.00928207
0.0117818
-0.021835
0.0193352
-0.00976513
0.0215229
0.00213713
-0.0138949
0.000856683
0.0101858
-0.002376
-0.00866649
0.0154826
-0.0116128
-0.000389752
-0.00348005
-0.00272832
-0.00262067
0.00400457
0.00134443
-0.00735921
-0.01529
0.0130232
0.00962603
-0.0103848
0.0138341
0.0120333
0.00840663
-0.00618038
-0.00770151
0.00547526
0.00313103
-0.00405137
-0.0017895
0.00270985
0.00692745
-0.00684986
-0.00913097
0.00905339
-0.00280988
0.00806052
-0.000583234
-0.0046674
-0.0111328
-0.00177334
0.0137628
-0.00842212
-0.00207093
0.0104123
8.07107e-05
0.00341933
-0.00763927
0.00421995
0.00273756
-0.0036359
0.0135502
-0.0126518
0.0105617
-0.0148503
0.00214905
0.00213961
0.00672641
-0.0072583
0.00053189
-0.0106683
0.000283515
0.00957487
-0.00364523
-0.00923628
0.00330664
0.00299649
0.00243397
0.0106703
-0.0161008
0.0065539
-0.00711722
0.000563326
-8.18465e-05
0.00832346
-0.00940982
0.00116821
-0.0117231
-0.00113069
0.0155913
-0.00507498
-0.00086779
0.00117248
0.00477029
0.000701207
-0.00579482
0.00427433
0.000819277
0.00948662
-0.00908037
-0.00225715
0.00108485
0.0156193
-0.00983682
-0.00686731
-0.00538559
0.0113927
-0.00600713
-0.0145576
0.00557494
-0.00341727
0.0124
0.0114732
-0.0103938
-0.0169593
-0.00555628
-0.00664901
0.0228511
-0.0106458
-0.0163821
0.0104325
0.0148687
-0.00891909
-0.000367243
-0.0139773
0.0143445
0.022178
4.4194e-05
-0.0127774
-0.00944476
0.0128522
-0.00827798
-0.00114379
-0.00343041
-0.00937866
0.0066583
-0.00168333
0.00440369
0.000127974
-0.00961538
0.0094874
-0.00707287
0.00727981
-0.000206942
-0.00511726
-0.00540568
-0.0138554
0.0243784
-0.0130508
0.00284615
-0.00145715
0.0116618
0.00301401
0.00489103
0.0133786
-0.0120735
-0.00998456
0.00867945
-0.00371885
-0.00766501
0.00845765
0.00292621
-0.00772511
-0.00392941
0.0116652
-1.07136e-05
0.00252165
-0.00145207
-0.00714028
0.0060707
0.00852821
0.000377734
-0.0108988
0.00199289
0.00263004
-0.00182694
0.00281194
-0.00339244
0.00337983
-0.00279934
0.00696765
0.00682705
-0.00696935
-0.00682535
0.00342903
0.00800799
-0.00828523
-0.00315179
0.00728836
0.0031611
-0.00573056
0.00900898
-0.0109232
0.00229192
-0.011969
0.00836731
0.00450433
-0.000902621
0.0142575
-0.00471847
-0.0149246
-0.00377905
0.0101534
0.00509883
0.00990568
-0.00482611
-0.00834112
-0.00227152
-0.00135639
-0.0133142
0.012459
0.00117072
-0.000315455
-0.000828063
0.0166384
-0.00172387
-0.0140865
-0.010817
0.0022049
0.00483305
-0.0017483
-0.0110418
0.00310254
0.00968754
0.00994316
0.00137902
-2.39671e-05
-0.0112982
-0.014848
-0.000125936
0.000103755
0.0148702
-0.00381038
0.00417648
-0.00677308
0.00640698
-0.0102256
0.012933
-0.0013356
-0.00137189
0.0134348
-0.0125461
-0.0111142
-0.00994493
0.00896515
-0.002848
0.00382778
0.0080539
-0.000363099
-0.0025332
-0.00515761
-0.0150337
0.0144994
0.00710375
-0.00656945
0.00710431
0.00270586
-0.000902135
-0.00890803
0.00258197
0.00654237
-0.00818326
-0.000941078
-0.00484292
0.00487094
-2.80142e-05
-0.00283386
-0.00723667
0.00726065
0.0108663
-0.0107715
-9.48369e-05
-0.00616379
-0.00490214
0.00482258
-0.000640782
-0.00737419
-0.000803526
0.0088185
-0.00083177
-0.00640331
0.00572408
0.00151101
0.0101457
-0.0115318
0.00138618
-0.0129027
0.0132492
0.0121195
-0.012466
-0.00869739
0.0067178
-0.00457755
0.00655714
-0.00346585
0.00148119
0.00313776
-0.00115309
-0.000366556
0.0157064
-0.000137576
-0.0152023
-0.00790989
0.00383483
0.00389514
0.00452518
0.00575901
-0.0100482
-0.000235997
0.000436565
-0.0124813
-0.000490707
-0.011355
0.0113497
5.27745e-06
-0.00760881
0.00383082
-0.00837702
0.00258928
-0.00573061
0.000229061
0.00496258
0.00215485
0.0075349
0.000147008
-0.00644319
-0.00123871
0.00630818
-0.0157392
0.0126189
-0.00318787
0.00260398
-0.00354786
0.0131936
-0.0122498
0.0161719
0.00476658
-0.00248729
-0.0184512
-0.00412366
-0.00676193
-0.00219178
0.0130774
0.00489419
0.0203942
-0.018417
-0.0068714
0.00235026
0.014769
-0.0142575
-0.00286181
-0.00510037
0.000672554
0.0104538
-0.00602602
-0.00178473
0.0145087
-0.00782979
0.0104901
-0.00828196
-0.00323352
0.00102541
0.00343722
0.00899676
-0.012434
0.00843777
0.00187243
-0.00112458
-0.00918561
-0.00775851
0.00620005
0.000623861
0.000934591
-0.000754639
-0.0109431
0.000637219
0.0110605
-0.00803661
-0.00102038
-0.00033733
0.00939432
0.00463973
-0.0102894
0.000102085
0.00404486
0.00614247
9.18761e-05
0.00668079
-0.00677266
0.00082578
0.0116942
-0.0298864
0.0173664
0.00328818
-0.00828485
0.00787124
-0.00287457
0.00471925
0.00538711
-0.00373145
-0.0063749
4.91157e-05
-0.00599528
0.00594617
-0.00324027
-0.00229835
0.0131215
-0.00758291
-0.00400162
0.013368
-0.0115401
0.00217368
0.0146836
-0.0102023
-0.00985411
0.00537274
-0.00603583
0.00407838
0.00186878
8.86636e-05
-0.00079658
0.00460144
-0.00247721
-0.00132765
0.0157417
-0.0123045
0.00733767
-0.000847921
-0.0120112
0.00552149
-0.00335035
0.00313272
0.00375338
-0.00353575
0.000192269
0.0150529
-9.59973e-05
-0.0151492
-0.0109794
-0.00361763
0.0148849
-0.000287778
-0.00312393
-0.00132473
0.00342092
0.00444457
-0.00654076
0.00887708
0.00626756
-0.0132816
-0.00186307
-0.00273417
-0.00178094
-0.0118827
0.0163978
0.0156534
-0.0123812
-0.0218172
0.018545
-0.00610775
-4.50785e-05
0.00615283