/*--------------------------------*- C++ -*----------------------------------*\
  =========                 |
  \\      /  F ield         | OpenFOAM: The Open Source CFD Toolbox
   \\    /   O peration     | Website:  https://openfoam.org
    \\  /    A nd           | Version:  10
     \\/     M anipulation  |
\*---------------------------------------------------------------------------*/
FoamFile
{
    format      ascii;
    class       volScalarField;
    location    "9.7";
    object      SgRate;
}
// * * * * * * * * * * * * * * * * * * * * * * * * * * * * * * * * * * * * * //

dimensions      [1 -1 -3 -1 0 0 0];

internalField   nonuniform List<scalar> 
111485
(
4.78949e-18
9.46242e-06
2.87962e-05
2.64217e-18
5.90518e-05
7.80608e-19
5.54689e-05
7.22951e-06
2.30499e-05
1.44988e-06
5.59978e-05
1.12563e-05
5.77212e-06
1.05964e-06
7.86442e-06
3.63119e-05
1.69437e-06
0.00313375
1.24897e-05
1.77334e-17
2.06333e-17
7.01269e-19
3.17016e-05
4.13755e-05
1.06797e-05
2.23452e-18
4.76613e-05
2.18772e-06
1.79489e-05
4.20399e-19
5.51395e-05
2.28118e-05
2.03911e-18
3.35286e-19
7.89828e-06
8.39086e-18
1.32526e-05
5.01514e-06
4.72215e-11
2.84253e-05
1.79983e-18
8.5091e-05
1.89632e-05
1.75423e-06
7.42272e-08
4.14416e-17
3.60198e-05
8.53872e-07
5.66853e-05
1.67344e-17
3.36256e-17
6.00137e-17
2.43946e-17
6.16432e-05
4.68179e-17
5.25765e-05
3.74832e-06
5.0666e-19
2.54935e-08
5.71702e-06
1.91973e-05
1.00292e-17
5.73078e-06
0.000117832
4.67674e-18
3.77631e-06
0.000379516
0.000113095
1.33289e-06
7.24681e-06
1.8736e-08
7.77937e-06
1.31271e-17
3.47354e-06
4.50865e-18
8.48892e-07
6.97375e-17
5.01099e-05
6.5405e-18
1.81983e-19
3.03139e-09
4.0072e-05
4.48486e-19
8.73597e-18
1.11064e-05
4.65408e-06
4.35612e-13
3.05821e-05
7.21808e-08
8.7986e-06
3.238e-07
4.92598e-05
1.41915e-05
7.16681e-08
6.28189e-05
2.85927e-18
1.11304e-18
2.13712e-06
3.24191e-11
1.35892e-06
2.1034e-17
2.15367e-05
3.90746e-18
2.17783e-05
5.54812e-06
6.7058e-18
3.08624e-18
9.04039e-06
4.87529e-06
7.3959e-11
6.6671e-06
5.80173e-06
4.48334e-06
3.81074e-06
5.15782e-18
4.04225e-08
1.68711e-18
1.14915e-17
1.54529e-05
1.47111e-17
1.2282e-17
5.56847e-18
4.8374e-18
1.0592e-18
1.95355e-06
3.6318e-09
1.09996e-17
1.99971e-06
8.92427e-19
3.53072e-08
1.7505e-06
3.92345e-05
1.4276e-17
4.87844e-17
3.35809e-17
5.81839e-05
2.98519e-18
5.06159e-05
3.03548e-05
3.35992e-06
2.88663e-07
2.39717e-06
2.68473e-05
3.19968e-06
4.84553e-06
1.55319e-05
3.59866e-18
1.08941e-17
7.0797e-18
3.35588e-05
1.84691e-06
2.98452e-18
2.7179e-10
5.6687e-06
5.24189e-10
1.31408e-05
1.94202e-05
1.29414e-05
7.67103e-11
8.48716e-19
4.13445e-18
6.29282e-05
2.76784e-05
2.16175e-09
3.8625e-10
7.03821e-06
4.07786e-06
1.245e-18
5.27363e-09
5.38999e-08
3.06423e-18
7.8792e-18
1.57709e-07
2.58107e-18
6.64206e-06
2.50051e-06
1.29545e-18
2.79143e-17
8.26538e-18
3.42805e-18
3.06866e-17
2.08037e-18
1.77816e-06
8.15337e-06
3.57061e-05
4.95772e-06
9.08275e-06
4.86106e-06
9.19063e-08
3.94094e-18
5.82324e-06
1.46844e-17
1.19951e-17
7.83042e-06
1.24812e-05
3.41302e-05
1.35294e-05
6.01358e-06
5.28531e-18
8.00189e-06
5.78317e-07
5.13163e-08
1.68976e-05
2.79124e-06
5.46229e-19
4.51562e-06
3.08661e-05
2.13229e-16
1.92714e-07
9.34998e-06
2.37953e-06
4.31169e-07
6.34606e-17
6.38646e-20
1.00034e-05
1.37837e-14
0.00014486
4.96178e-19
8.03047e-06
2.45824e-05
0.000144041
7.44052e-18
3.85193e-06
1.6661e-05
2.81509e-16
6.17636e-19
2.32615e-18
0.000180693
3.10189e-10
1.74388e-17
1.49926e-17
1.16845e-05
9.28642e-06
1.83199e-05
2.75111e-17
1.96933e-17
1.71172e-08
1.047e-17
2.94379e-06
1.11331e-05
1.9291e-05
1.40841e-05
1.1927e-05
4.87406e-18
3.01107e-10
7.48041e-07
1.1503e-17
2.44377e-18
3.65629e-05
2.47781e-05
4.72614e-17
7.66144e-06
1.28381e-05
1.73762e-19
6.32114e-17
1.61321e-07
2.07235e-18
1.42379e-16
5.44744e-08
2.2115e-18
1.78261e-05
1.29486e-05
4.44768e-06
8.37986e-19
1.39852e-05
1.48775e-18
3.36047e-18
1.41667e-19
2.36673e-11
2.76552e-05
7.49574e-06
6.45929e-06
4.37528e-05
1.48364e-05
1.89272e-06
6.63042e-07
3.88288e-05
1.05683e-05
2.67802e-18
1.04756e-17
2.99588e-10
2.69008e-05
2.9244e-05
1.4282e-05
1.16155e-18
8.37703e-06
2.47712e-06
3.6393e-06
4.23591e-09
4.21152e-09
1.62838e-05
2.6946e-06
2.38882e-06
2.99522e-18
7.69069e-07
1.22083e-17
2.17174e-10
4.55819e-16
0.000286338
8.10626e-05
1.4337e-05
6.40457e-18
6.31681e-19
1.07222e-05
1.94829e-06
1.86822e-18
5.21744e-18
1.18384e-17
3.67263e-07
6.96689e-05
4.73173e-06
1.62457e-05
2.27574e-05
5.50591e-18
3.22697e-18
5.90533e-18
4.57128e-06
3.57414e-15
1.21523e-06
0.00022081
3.64221e-10
3.50744e-18
2.43242e-18
9.20845e-19
3.1717e-17
7.16875e-05
1.42917e-05
4.60161e-19
6.2757e-06
3.87595e-19
5.87382e-17
8.31456e-05
7.03105e-06
1.34125e-05
1.12159e-05
1.09875e-17
1.72597e-17
4.67943e-18
1.12822e-05
2.22099e-05
6.19943e-06
5.33723e-18
3.47845e-13
1.87088e-07
2.61097e-06
9.5763e-06
4.07469e-08
3.3944e-05
1.18849e-18
4.4666e-05
4.25081e-06
9.37966e-06
3.01022e-05
1.61731e-05
2.3281e-18
7.96018e-18
3.00523e-18
1.56937e-17
3.74117e-05
1.1635e-05
3.94148e-05
8.04722e-05
6.25132e-19
2.2289e-05
3.90206e-18
1.72674e-17
2.00509e-05
2.88904e-18
9.30723e-05
8.80714e-18
3.82407e-19
2.76936e-05
1.89056e-19
1.62466e-05
3.26052e-07
5.07859e-18
1.19874e-06
1.97082e-05
8.60647e-19
1.07545e-05
1.09488e-05
9.78687e-06
7.99281e-07
3.20717e-06
6.62946e-06
9.56292e-18
1.13056e-17
2.25815e-06
1.0859e-17
7.43442e-06
0.000142309
3.4221e-18
2.06918e-18
3.24464e-05
1.36782e-07
9.90879e-06
2.56309e-05
9.80074e-18
5.47729e-05
2.29375e-05
4.28254e-18
9.96554e-07
2.89843e-06
4.20883e-18
2.97187e-18
1.31907e-05
6.30374e-06
6.22119e-18
3.52712e-18
4.28528e-11
1.09596e-17
1.45206e-05
1.16537e-18
8.88831e-18
2.03993e-05
2.00301e-09
1.42714e-05
3.61179e-05
5.79928e-18
1.36557e-17
1.79854e-06
5.75711e-17
1.80117e-07
1.70438e-05
0.000147154
0.00101024
1.28824e-17
3.30205e-06
6.23405e-07
1.92817e-17
4.70391e-05
3.78283e-05
7.57781e-18
8.42165e-12
1.08024e-07
2.23248e-17
2.91537e-05
2.88998e-05
1.67568e-05
3.17235e-17
7.96073e-07
2.16019e-05
2.73257e-05
9.87057e-10
1.55959e-17
7.74924e-13
6.20621e-19
1.54622e-08
3.72837e-05
4.79978e-18
1.00516e-05
1.1451e-07
1.62664e-16
4.74132e-18
3.35797e-17
6.17668e-18
4.79051e-06
1.14841e-05
7.84316e-06
2.47236e-06
3.20198e-06
8.31226e-18
2.31595e-06
2.20827e-17
4.91759e-05
8.25141e-18
1.79089e-18
3.87091e-18
4.39251e-05
5.81551e-18
6.54384e-18
1.97285e-10
7.76252e-18
8.22317e-18
1.26293e-06
2.37426e-18
1.91269e-16
3.16339e-19
6.72755e-18
1.8019e-17
4.27427e-19
4.1719e-17
8.3864e-06
3.95904e-17
6.5e-07
2.29702e-06
1.10205e-06
5.3246e-18
1.03187e-06
7.68079e-18
2.91382e-18
3.35908e-06
2.1598e-06
3.27121e-05
3.01856e-05
5.54209e-18
2.45801e-06
9.87432e-05
1.02134e-05
1.21577e-06
3.93956e-06
2.46858e-17
2.77248e-05
8.24446e-17
6.02527e-06
4.68807e-18
9.17127e-05
2.4444e-17
2.57456e-05
2.95212e-07
6.1553e-10
2.24278e-18
2.44373e-06
1.25683e-18
9.56529e-05
5.88702e-05
5.27881e-18
6.56745e-19
2.11641e-18
5.3667e-19
1.72078e-12
6.50161e-05
8.85674e-20
2.79462e-18
2.89682e-06
5.36343e-18
4.06346e-05
3.23882e-18
3.76108e-07
3.89713e-18
5.81659e-07
1.31609e-09
1.18652e-06
1.56534e-05
3.82973e-17
5.0141e-07
6.53757e-18
3.37937e-18
1.80298e-05
9.93797e-18
3.60332e-08
2.76549e-18
1.93218e-06
7.80148e-18
7.77792e-05
8.06252e-19
4.27895e-17
2.14884e-05
4.00462e-06
2.11755e-06
4.71744e-06
8.27776e-06
2.47896e-05
4.63001e-19
3.01574e-05
7.35307e-06
1.89206e-18
9.57009e-11
4.84124e-05
1.82472e-05
2.16025e-17
4.58064e-06
8.04268e-06
2.08431e-06
1.23338e-06
2.85807e-13
1.62534e-05
1.47891e-06
1.54291e-07
2.83728e-05
1.63368e-05
7.29474e-07
3.00234e-17
3.93275e-12
0.000780938
7.04903e-18
4.12489e-07
6.67668e-19
1.06717e-16
8.80924e-06
3.35048e-06
2.69944e-10
1.891e-08
3.05046e-18
1.96366e-05
1.3269e-05
3.39468e-18
1.8564e-13
2.29783e-06
2.31623e-18
3.49598e-18
3.58e-18
6.31859e-18
1.55965e-05
5.94984e-18
2.81161e-18
1.04427e-05
2.31301e-06
3.07574e-16
1.27396e-05
9.17772e-18
1.01177e-05
1.07081e-17
4.22908e-18
6.31904e-05
1.55318e-18
5.49436e-18
3.95136e-17
5.22405e-06
1.50218e-16
3.45169e-05
7.48768e-06
6.43145e-19
0.00010663
2.90891e-06
3.431e-05
3.38194e-05
5.37713e-07
9.30216e-08
1.43095e-17
6.49161e-05
5.59695e-05
7.47012e-18
3.88327e-07
4.77793e-05
9.43423e-06
1.69274e-06
3.2849e-05
3.11504e-05
9.76501e-18
1.29492e-05
6.7032e-09
6.49299e-18
4.15097e-05
3.10441e-07
2.59461e-17
1.29975e-05
4.86162e-05
1.61557e-06
2.56185e-05
2.36301e-05
8.37218e-06
1.53222e-17
1.2365e-05
3.84109e-07
4.70706e-15
2.06101e-05
2.14807e-05
4.30766e-05
1.38364e-17
2.24124e-06
7.70497e-19
4.57311e-18
5.25998e-18
2.22471e-17
1.66007e-08
1.49005e-17
3.50568e-13
5.94241e-18
3.72924e-18
9.36025e-08
5.20676e-05
2.18166e-18
3.76561e-05
4.05384e-17
5.60116e-18
8.41758e-18
4.65232e-05
4.77579e-07
7.50633e-17
1.09227e-17
6.54854e-18
6.64588e-19
0.000249318
8.2918e-05
1.099e-17
2.37859e-06
2.45517e-09
1.14866e-18
4.47474e-05
1.00794e-05
1.44044e-05
2.22403e-18
9.17018e-19
5.1332e-07
1.30462e-06
3.20911e-17
4.58658e-18
1.92777e-17
8.75013e-06
1.93921e-18
5.70274e-19
1.33593e-17
5.01411e-05
2.44399e-06
4.39068e-18
0.00463262
0.000407685
1.20694e-05
8.11355e-19
7.74705e-18
6.57191e-05
5.00631e-07
1.73755e-18
6.62618e-09
0.000136208
2.91137e-06
1.33939e-05
5.66507e-18
6.32124e-05
2.24219e-06
1.42432e-18
3.34337e-17
1.85667e-17
2.11753e-18
4.32105e-19
2.29668e-18
2.64764e-05
1.14765e-17
4.09819e-18
5.80816e-17
1.36998e-05
2.762e-05
5.21468e-18
2.98059e-19
0.000127031
1.72388e-05
1.1437e-05
4.45212e-18
2.27048e-19
4.46736e-05
1.468e-18
2.08176e-06
3.10594e-06
4.59755e-06
1.34204e-17
2.2698e-19
5.59181e-19
1.09569e-18
1.7855e-05
3.62656e-18
2.38423e-18
1.22108e-06
4.37732e-18
2.76056e-05
2.24955e-06
5.93922e-18
4.43026e-05
0.000428555
3.04489e-06
3.46942e-05
1.6834e-07
5.28456e-05
1.06494e-13
2.63667e-17
2.82629e-05
8.25578e-05
7.23631e-06
4.12489e-18
7.06922e-13
0.000902596
1.2093e-05
1.10139e-18
2.93548e-06
3.02659e-06
1.39694e-06
1.05615e-16
5.64063e-18
1.86925e-18
1.58467e-05
5.23233e-18
3.10912e-06
2.82887e-19
1.51337e-06
1.69207e-06
4.40429e-05
6.49764e-07
1.12737e-18
8.93317e-19
4.22721e-18
2.47005e-05
2.15624e-19
1.10192e-17
8.45526e-08
5.31016e-19
1.31248e-18
1.13252e-17
1.05779e-18
1.20948e-05
2.80562e-17
5.91144e-18
5.1332e-13
9.73994e-18
4.66634e-18
2.90934e-17
4.63959e-18
3.34169e-09
1.9233e-06
1.89215e-17
4.77792e-06
7.72188e-09
3.39353e-10
7.19945e-08
4.828e-06
7.04596e-19
1.13002e-08
1.17735e-05
4.7807e-07
7.44506e-19
3.73883e-12
1.02233e-06
3.57387e-17
1.17011e-05
2.16439e-07
1.94326e-09
2.79952e-05
1.12033e-05
2.69664e-06
5.92679e-06
2.40173e-06
7.33753e-18
8.69448e-18
3.95805e-05
3.14428e-05
3.21488e-18
1.00131e-05
6.42445e-05
3.40173e-05
2.85338e-18
1.50941e-06
1.42951e-17
1.23562e-05
1.66209e-05
6.67682e-17
1.89348e-06
5.50914e-07
1.41606e-09
5.91612e-06
5.5805e-18
5.84579e-05
1.76393e-08
1.76486e-06
3.76495e-08
1.38654e-08
1.00429e-18
1.87162e-17
8.29859e-06
3.44556e-18
1.43256e-07
2.97161e-07
3.35997e-07
6.63742e-11
8.45346e-11
3.11159e-10
1.27926e-18
2.46995e-17
2.77594e-05
6.07078e-18
1.34886e-07
2.41859e-06
1.09374e-17
8.81799e-18
7.72335e-10
1.12588e-12
3.54886e-19
6.03367e-09
5.34083e-18
2.81338e-18
5.77324e-18
1.77595e-17
1.17653e-16
4.37265e-17
3.26608e-07
2.03165e-18
4.4056e-18
2.75416e-18
7.70342e-09
6.22432e-08
2.14485e-06
1.12403e-05
1.61484e-18
1.02581e-17
1.99919e-07
5.15209e-18
9.39707e-18
1.69371e-16
2.20792e-05
5.05864e-05
3.27638e-17
5.83548e-18
4.43478e-18
1.60624e-18
7.46003e-19
6.14194e-18
8.26233e-06
3.78249e-18
6.39412e-11
3.19687e-05
1.90141e-18
2.27581e-17
1.53892e-17
3.34648e-08
1.58147e-17
6.72494e-19
2.60382e-18
1.12149e-08
4.40463e-18
5.16813e-06
1.10105e-09
6.85416e-12
2.18779e-17
9.0555e-08
2.33304e-06
5.26224e-05
3.96456e-17
1.02883e-08
6.65355e-06
2.74095e-18
5.54954e-18
4.01017e-16
1.57356e-17
1.0097e-05
1.94325e-06
3.87651e-06
2.11252e-10
8.63589e-19
2.59925e-05
1.02685e-17
1.62958e-17
3.20647e-16
6.63051e-18
3.16396e-05
2.37929e-17
7.29898e-17
2.02468e-09
6.15048e-05
4.60931e-17
2.84326e-06
8.13617e-18
9.74565e-07
9.28336e-19
1.5931e-18
6.94252e-18
3.80022e-18
2.90415e-06
7.09111e-07
0.00035983
6.33607e-18
5.48898e-18
2.3584e-06
1.30072e-17
2.94938e-17
4.24642e-17
4.36006e-05
1.14677e-08
3.87156e-05
1.7239e-18
1.26943e-08
5.94014e-08
5.3207e-18
1.51442e-07
1.10621e-17
1.4178e-06
3.01281e-05
2.446e-05
1.42988e-06
2.80428e-07
1.1502e-17
7.99692e-18
1.05937e-17
2.63997e-08
7.60617e-19
8.97429e-06
4.28981e-18
0.000210213
1.95666e-18
4.90733e-05
3.71154e-06
1.56723e-17
2.0018e-17
2.71584e-17
2.21887e-18
4.96221e-05
7.6372e-17
1.47405e-16
1.41056e-05
8.22416e-06
6.20422e-18
1.37852e-16
5.84011e-17
1.2506e-17
1.19542e-17
2.88855e-18
3.09805e-05
4.94212e-07
2.30303e-18
2.36872e-18
6.39384e-10
9.25287e-18
1.90323e-06
1.2732e-07
6.22022e-18
4.21538e-06
1.47159e-18
4.56613e-07
1.85756e-18
1.32993e-06
4.88402e-18
8.61647e-11
2.55519e-09
7.45362e-07
2.17177e-05
4.07969e-05
1.40068e-09
7.96751e-19
6.12724e-07
2.72768e-17
5.49805e-06
1.15231e-19
1.53184e-17
1.12003e-16
2.98578e-18
1.57285e-19
1.51997e-18
8.6299e-06
9.76751e-06
1.14496e-18
6.75469e-17
3.72015e-18
9.14749e-07
1.57385e-08
7.34181e-18
2.16674e-05
2.12929e-07
2.7532e-17
2.79516e-05
9.82627e-06
4.31798e-06
1.36163e-05
9.23389e-18
1.41128e-18
1.7549e-17
3.14541e-18
4.4118e-05
2.24201e-17
0.000136909
2.25327e-18
3.84294e-07
8.70735e-07
7.17079e-19
1.1538e-06
4.89297e-19
3.08662e-18
3.69499e-06
2.60202e-11
1.1508e-05
3.68888e-18
2.78888e-17
3.33883e-18
1.00268e-06
1.92978e-18
2.49588e-18
2.06111e-17
3.30209e-10
2.68075e-17
7.88659e-09
1.56387e-17
1.15818e-17
2.63788e-18
2.16831e-05
1.18783e-05
2.19103e-05
4.32165e-05
7.40163e-18
1.97724e-08
1.58233e-17
3.84337e-19
1.17108e-05
9.94146e-19
2.57955e-09
4.36049e-07
7.92986e-06
4.33182e-07
1.2719e-12
2.24851e-06
3.31168e-18
1.48314e-12
5.00321e-13
1.50565e-07
9.30582e-07
1.7758e-05
7.60598e-11
5.80974e-17
3.62681e-05
3.47086e-19
1.16932e-17
1.62577e-08
8.98414e-05
6.50528e-11
1.67223e-18
3.8024e-18
3.55993e-10
1.71003e-17
2.47482e-17
2.17014e-08
1.32002e-16
1.45904e-17
4.85697e-05
2.71772e-07
2.15751e-07
2.7138e-05
8.68927e-06
5.04766e-18
7.50193e-18
2.2717e-08
4.81723e-06
1.21111e-17
5.94398e-17
1.14731e-05
2.1435e-17
3.87458e-17
4.44257e-18
5.04145e-17
4.49655e-16
0.00308439
8.08294e-18
2.60337e-07
3.80853e-18
2.54596e-05
1.93507e-18
8.67757e-16
2.2124e-17
2.96541e-18
8.1469e-18
4.64797e-18
3.32948e-06
3.62835e-18
1.80482e-19
2.18263e-17
1.84028e-17
2.09528e-17
1.92116e-17
1.17028e-05
2.32123e-17
1.32795e-05
3.71001e-06
7.74949e-19
1.94274e-06
1.90079e-17
5.96501e-07
2.39589e-09
4.55186e-06
1.5592e-05
1.44649e-18
1.0909e-07
9.24947e-06
1.13261e-08
2.81035e-18
3.17942e-09
2.22972e-05
5.64247e-06
1.46479e-17
3.10046e-05
3.96026e-17
1.19392e-18
2.2874e-17
1.26385e-17
9.73698e-06
1.64046e-17
6.11314e-19
9.84445e-06
4.01214e-10
3.22008e-06
1.04703e-18
1.30739e-16
8.04007e-07
2.88863e-18
8.00793e-08
6.70391e-17
2.78948e-05
2.91689e-18
9.16567e-19
6.71599e-08
1.9191e-18
1.65604e-07
4.28012e-17
9.99285e-18
5.63275e-06
5.10034e-07
5.65868e-06
1.84141e-05
0.000263766
2.43592e-05
2.93409e-18
1.91192e-17
3.57839e-06
8.00924e-06
4.36226e-05
1.27426e-05
4.53096e-18
1.45244e-05
2.04315e-18
5.87802e-19
1.09211e-05
1.31231e-05
1.9195e-18
1.57234e-05
9.92463e-18
3.25455e-06
1.04279e-05
9.13696e-17
2.16968e-18
5.5883e-18
3.36308e-06
2.56117e-18
5.87608e-18
5.00774e-06
2.53496e-05
4.2229e-09
8.84542e-06
1.58219e-17
6.99069e-18
9.98403e-08
9.07896e-07
2.81415e-17
1.24435e-05
2.22409e-17
3.17075e-06
5.36122e-18
2.40992e-18
1.47547e-05
9.47634e-19
4.53824e-08
4.35116e-06
1.13429e-17
9.78396e-18
5.30117e-06
6.51969e-14
6.2174e-05
2.08191e-17
0.00030604
1.9988e-18
2.42933e-16
5.96855e-17
8.9823e-06
6.51898e-17
4.07418e-17
6.66004e-06
2.81302e-17
2.91997e-07
1.20342e-16
7.51634e-18
1.32208e-17
1.22383e-10
9.17559e-07
6.81517e-18
1.99338e-18
4.16221e-05
1.11263e-06
3.3436e-18
5.14438e-07
1.42519e-17
1.67654e-18
1.98183e-09
3.09141e-06
1.57283e-06
2.46175e-18
1.03628e-18
1.0258e-17
3.96939e-18
6.88684e-17
1.29076e-17
6.11586e-18
4.42254e-18
1.24108e-17
4.12576e-17
4.42328e-18
1.31072e-18
7.1641e-17
6.7701e-18
9.73688e-19
1.25509e-18
3.20167e-18
5.01438e-18
2.15003e-18
2.1722e-18
9.10995e-19
2.06518e-05
2.09973e-18
9.84156e-18
5.48583e-18
7.89616e-06
4.13467e-18
2.00426e-18
0.000347356
1.93116e-18
4.27231e-18
2.75346e-05
3.49277e-15
1.14003e-18
9.21555e-06
2.9182e-05
1.68211e-18
3.31722e-06
4.94011e-06
3.19656e-17
1.58637e-05
4.69086e-05
2.12726e-05
4.03205e-06
1.2746e-05
5.00453e-18
1.18402e-17
3.49419e-06
1.22201e-05
3.83644e-06
3.99746e-17
7.84371e-06
2.10652e-06
2.55046e-05
1.20598e-05
8.27479e-07
1.86441e-05
1.25253e-06
1.2134e-05
5.71156e-20
2.92056e-05
1.00294e-05
1.94181e-06
1.63486e-06
3.79039e-18
1.72008e-17
1.76869e-18
1.30785e-18
6.38532e-18
1.06478e-05
1.61518e-05
2.11557e-18
3.92072e-19
6.72345e-17
1.71173e-18
2.40182e-18
5.91677e-18
6.10175e-18
4.40415e-18
5.41821e-06
2.22332e-07
2.58368e-05
8.02845e-08
3.26392e-18
4.62233e-17
3.62873e-05
8.47792e-09
1.92863e-18
3.10106e-18
8.62028e-06
1.01075e-17
2.23842e-17
3.75516e-09
9.31714e-06
1.59689e-05
4.00427e-05
4.07356e-05
7.16044e-18
1.65916e-05
3.97263e-07
2.18761e-18
1.70753e-18
1.40724e-05
1.63154e-18
5.09832e-19
1.93048e-05
0.00124301
2.0782e-07
1.05015e-17
3.85813e-18
2.1492e-05
2.3671e-05
2.07674e-05
6.82889e-06
5.04223e-06
6.00901e-18
1.28085e-09
3.16045e-12
1.68976e-18
4.50744e-18
2.04397e-05
4.20279e-18
2.36115e-06
2.95631e-05
2.07968e-05
1.36185e-05
2.77661e-18
7.19355e-06
3.31996e-18
1.29935e-18
5.19819e-18
1.2324e-18
2.87713e-06
0.00104306
1.61801e-17
8.86356e-18
4.18495e-09
2.70985e-05
1.37317e-06
8.15268e-06
3.85247e-05
5.64817e-06
2.43558e-05
2.27715e-18
2.31692e-17
1.95827e-17
3.51063e-05
6.67175e-06
3.29993e-11
1.93493e-17
5.15991e-18
4.16641e-16
2.61624e-05
3.29719e-06
3.12061e-19
5.76372e-06
6.86759e-05
7.79686e-06
7.22186e-06
1.15451e-17
3.27231e-16
8.12681e-06
2.63533e-05
5.40315e-18
3.99942e-07
1.72724e-05
1.18071e-06
1.06408e-05
5.46403e-06
9.42937e-06
2.72681e-17
3.85989e-06
2.42077e-05
4.23687e-05
5.41484e-13
2.65254e-05
5.19854e-16
1.90487e-05
1.86075e-07
6.575e-19
2.99955e-06
8.8568e-06
4.48079e-07
1.33517e-05
1.60602e-10
1.49893e-07
1.67421e-08
4.86059e-05
4.27364e-06
3.06522e-17
4.4631e-05
1.52229e-06
1.3441e-17
3.49517e-18
4.84773e-11
1.28395e-08
1.2082e-06
0.00128048
4.06568e-05
1.41229e-05
2.37558e-10
5.2206e-05
2.00643e-17
4.95985e-18
4.52008e-06
1.88071e-17
2.46579e-06
4.82441e-06
2.53742e-06
5.33016e-06
5.04754e-18
2.35862e-07
0.000124982
6.93332e-19
2.11029e-05
8.70539e-06
8.98331e-18
4.67833e-06
1.51587e-07
2.23659e-18
7.51436e-12
1.05535e-07
2.11886e-18
1.22087e-17
3.71793e-18
5.0581e-06
5.66496e-06
1.6347e-05
1.8743e-18
5.71229e-06
3.82077e-05
1.86411e-18
9.27263e-06
1.43117e-05
2.78038e-05
1.77363e-06
7.42387e-18
6.72588e-07
1.08378e-05
1.20448e-05
1.04462e-05
4.2763e-05
0.000188111
3.88729e-06
7.42805e-18
8.76666e-09
5.75101e-05
9.44211e-18
4.90461e-07
4.75448e-18
1.25219e-18
1.20612e-18
1.60315e-18
2.75397e-19
3.69264e-06
1.98599e-18
8.28777e-06
1.30598e-06
2.30857e-18
4.3107e-06
2.76939e-17
1.60323e-05
7.62933e-18
2.64687e-08
7.42592e-17
2.51666e-05
1.82963e-07
2.94105e-09
4.85681e-06
3.27108e-05
1.9116e-05
4.42224e-06
3.10908e-05
7.40701e-15
2.60302e-05
6.17151e-05
1.08545e-05
1.28012e-18
1.25684e-06
2.94704e-07
6.43462e-06
1.16474e-05
6.88477e-07
6.92729e-19
1.29737e-17
1.84275e-17
4.07179e-06
2.00921e-18
3.54685e-07
2.48402e-07
1.87573e-06
3.23808e-07
2.05066e-18
1.08642e-17
6.5014e-18
1.00159e-05
2.46645e-05
1.36891e-06
1.11077e-08
2.13841e-06
7.85123e-06
2.23998e-06
8.9137e-07
7.53938e-06
6.88875e-06
3.02009e-06
2.04548e-18
5.16709e-18
9.02061e-18
1.48807e-05
1.21963e-05
9.01436e-19
6.05325e-18
4.37103e-16
9.53612e-06
2.11518e-05
1.22252e-17
2.48317e-06
2.7565e-17
7.02633e-10
5.29453e-06
0.000101612
2.79806e-18
7.03358e-20
4.06754e-06
2.07781e-18
6.65972e-08
1.33743e-05
1.78179e-17
1.22529e-05
3.7053e-05
2.10771e-05
8.20905e-19
1.56408e-06
1.02723e-18
9.78895e-08
5.54499e-05
1.88941e-18
5.98609e-18
1.22179e-05
1.55462e-16
1.50629e-17
5.08873e-08
1.08413e-06
6.02327e-18
1.26995e-19
3.14231e-17
7.05536e-08
1.40018e-06
3.47235e-06
2.93652e-05
1.0422e-05
8.63378e-18
8.14186e-10
7.55631e-07
3.02288e-18
8.80796e-18
9.86179e-18
2.2215e-18
4.57378e-17
4.74284e-17
4.42383e-17
7.12377e-19
4.54356e-17
1.34359e-17
2.69596e-12
3.99837e-17
3.81851e-07
2.18748e-16
2.74058e-07
1.20414e-16
6.94786e-08
5.71499e-17
2.93215e-18
3.23794e-05
1.01707e-05
2.26743e-16
0.000100343
1.22943e-11
4.5578e-13
2.9823e-18
1.49479e-06
1.232e-14
3.0916e-06
7.50168e-09
9.49081e-07
9.98109e-18
9.10668e-18
1.03974e-06
2.64083e-11
3.06166e-18
4.05442e-19
4.38036e-05
4.08025e-17
4.15423e-05
9.49532e-18
4.03384e-18
2.00673e-09
3.17255e-05
8.9621e-06
3.8323e-18
3.59726e-07
3.96336e-18
3.71406e-06
2.08178e-08
2.01865e-06
1.08205e-06
3.24633e-18
2.2942e-05
1.35174e-06
5.8505e-06
2.06013e-17
1.79208e-18
2.83632e-18
2.21727e-05
4.41495e-06
5.86775e-05
1.16995e-17
5.34804e-10
7.36132e-19
1.90124e-18
1.70645e-17
2.95068e-18
3.71873e-06
2.52949e-06
3.38698e-06
0.000358911
1.04109e-17
3.05878e-05
4.01993e-05
1.94572e-05
1.98166e-06
7.52993e-18
5.86643e-06
5.16604e-06
6.90308e-06
3.59573e-10
1.13739e-05
2.01192e-17
1.69506e-06
1.4386e-06
3.67323e-05
1.32511e-09
3.80236e-06
1.53854e-17
2.12283e-05
2.38643e-18
1.27907e-17
1.85535e-06
5.44223e-18
6.84267e-06
1.09557e-18
2.68197e-17
1.15583e-17
1.56707e-18
1.68896e-17
9.17275e-07
4.74246e-18
6.0781e-07
1.09589e-17
9.78794e-18
1.99882e-05
6.06176e-06
8.95384e-06
8.30756e-06
3.01211e-18
0.000661334
2.18318e-18
7.82975e-05
4.07292e-17
1.98622e-05
2.70266e-05
2.69616e-06
6.37523e-05
5.42573e-17
5.08193e-16
3.76282e-19
2.42753e-06
1.84172e-18
1.49993e-18
1.98336e-05
1.49488e-17
1.41197e-18
6.11412e-06
5.52101e-17
1.42829e-05
7.89114e-11
2.25205e-17
1.30451e-17
5.11092e-17
1.82163e-06
7.65287e-06
4.3906e-18
2.56073e-05
3.90348e-07
1.25785e-17
0.000116987
8.99733e-18
1.76263e-05
2.02503e-05
4.04253e-06
7.80212e-19
2.00435e-05
1.10246e-05
9.76038e-07
6.08957e-06
1.43266e-05
2.06148e-17
7.02151e-18
2.05127e-09
3.3446e-18
3.09018e-18
1.72133e-18
2.20519e-05
5.12752e-05
5.02095e-06
2.48175e-06
1.46567e-17
5.68893e-05
5.18393e-05
4.77814e-06
2.72729e-06
1.06105e-05
2.36761e-05
3.07581e-06
1.0347e-17
1.252e-17
5.44278e-19
7.95683e-06
2.4881e-18
2.78878e-05
9.06771e-17
8.47159e-07
6.55281e-10
2.92806e-06
2.51237e-05
2.52273e-17
5.49328e-18
2.83683e-06
4.17326e-07
1.65137e-17
3.72891e-17
5.81443e-18
3.84237e-08
3.66548e-07
1.68824e-07
9.47567e-07
1.14973e-05
9.79298e-05
2.14164e-18
2.19476e-17
1.70403e-17
4.22959e-06
2.00269e-05
2.26523e-05
3.99646e-05
1.97894e-06
3.39373e-06
9.60662e-18
7.92196e-18
4.51373e-16
1.19888e-17
1.0691e-05
2.55605e-05
1.02476e-18
1.87667e-17
9.46304e-19
1.59253e-18
1.12722e-17
1.83494e-16
1.58002e-05
1.21357e-17
1.08493e-06
0.000468712
2.29936e-17
1.57207e-08
2.60931e-05
8.69971e-07
1.05513e-18
1.7319e-17
5.6653e-06
4.59947e-18
1.63162e-05
1.13303e-09
2.78269e-05
6.01606e-17
1.64192e-15
3.49781e-18
6.01258e-19
5.24909e-18
1.26182e-16
0.000229029
4.80239e-18
6.8487e-06
1.3822e-06
2.39217e-17
5.0936e-18
2.23178e-06
3.72291e-18
1.82699e-18
1.29059e-05
1.52947e-07
7.14642e-19
9.2316e-19
2.23991e-17
1.92329e-05
3.35928e-18
6.3761e-18
4.842e-07
3.03124e-06
3.55306e-06
2.24958e-18
6.71997e-18
3.79121e-17
4.41242e-06
2.14174e-06
1.50262e-05
4.30316e-06
1.2652e-17
9.21767e-07
1.35158e-05
7.41946e-06
1.2048e-19
7.40818e-18
3.08121e-18
3.99737e-18
1.23378e-18
3.57812e-05
6.00296e-06
6.39364e-06
1.95315e-18
1.17337e-18
8.43118e-19
1.19951e-18
5.38427e-18
1.13687e-09
2.77894e-07
2.56383e-06
4.39103e-18
1.42306e-18
1.21787e-17
2.66816e-12
4.00522e-05
0.000131585
4.53343e-18
8.52851e-13
2.32256e-14
2.93749e-18
2.05091e-18
4.39833e-06
7.52405e-06
2.31761e-18
1.49453e-17
3.34301e-06
7.6737e-18
8.11563e-07
1.25247e-06
0.00241048
8.02439e-19
1.50293e-17
1.39818e-05
6.16082e-07
1.62857e-17
0.000768277
6.91532e-07
7.23519e-06
2.22773e-18
5.62231e-18
3.67913e-18
1.32338e-17
9.32812e-06
1.04714e-07
1.00759e-17
2.93163e-05
2.21173e-05
0.000993736
2.29131e-18
1.55005e-18
6.39972e-18
8.79966e-19
7.60527e-06
8.04281e-11
1.20698e-18
6.33056e-17
2.16046e-05
1.07601e-06
5.54099e-06
3.24999e-18
7.82128e-18
3.31477e-05
1.38451e-16
4.24769e-18
1.82719e-18
5.77241e-18
2.4816e-05
9.48457e-18
2.78639e-18
7.17139e-18
2.89472e-05
1.38317e-05
1.20594e-19
1.01817e-18
4.66615e-18
1.7547e-05
2.15667e-10
4.10674e-17
4.23946e-18
5.78159e-19
8.58852e-18
2.7678e-06
1.26997e-05
1.69288e-18
2.32123e-06
1.28816e-06
5.53815e-06
5.61721e-18
1.72523e-17
4.96802e-19
2.75622e-18
5.5635e-18
2.23497e-05
7.52983e-17
1.65529e-05
1.15301e-17
1.77033e-06
7.48872e-16
2.75932e-06
2.25159e-17
2.49047e-18
1.24354e-05
0.000188612
1.62828e-17
4.14179e-06
3.31986e-18
4.49548e-07
1.72582e-16
6.28212e-18
6.27672e-18
1.38472e-10
4.4441e-18
3.49211e-07
4.06886e-19
4.02491e-05
5.39717e-18
6.84817e-18
4.23253e-18
4.46764e-18
8.95476e-09
1.5388e-07
4.19845e-18
6.51161e-06
6.69994e-20
3.14818e-06
2.12035e-05
1.45671e-06
1.13688e-18
5.39664e-09
5.04991e-07
2.49568e-09
4.77133e-06
3.59278e-10
1.92783e-06
4.14112e-17
9.51811e-18
4.94895e-10
6.5593e-06
2.73101e-07
4.06933e-17
9.91843e-18
2.84632e-17
0.000662819
3.36393e-18
4.90306e-18
6.02802e-19
1.37854e-18
2.82996e-17
3.36043e-08
2.04049e-07
1.17658e-06
7.89004e-08
8.62003e-16
1.70969e-06
6.94661e-19
6.30204e-06
2.7653e-17
2.16168e-18
5.14248e-18
6.47093e-17
2.09297e-08
4.44752e-18
3.86253e-18
1.11612e-17
1.6419e-05
4.94304e-17
2.70065e-18
1.25812e-05
3.11658e-18
8.48233e-05
0.000143613
0.000646815
4.53702e-18
0.000229583
0.00131367
0.00131849
0.000737867
1.99181e-17
4.16379e-18
5.45978e-06
5.22256e-06
2.12536e-18
1.10189e-05
1.35592e-17
3.60865e-05
1.56016e-17
6.76913e-18
8.07735e-07
3.71744e-18
5.75793e-19
1.17071e-08
4.58164e-08
2.3435e-18
1.26804e-18
3.24795e-09
1.83287e-17
3.16995e-18
2.21699e-08
9.39016e-06
1.71636e-06
1.63354e-17
8.83246e-06
1.21787e-17
3.97099e-06
4.64251e-10
8.2671e-06
2.37654e-18
1.796e-11
6.38701e-06
1.98546e-17
1.77622e-12
1.02634e-18
3.59788e-05
1.7471e-17
1.0812e-05
7.73856e-18
2.7464e-10
1.9923e-18
3.83493e-18
1.39181e-18
9.54212e-13
5.31639e-13
1.04044e-17
1.35979e-05
1.03254e-05
2.29602e-17
3.14857e-17
3.65786e-05
1.92375e-05
0.000204161
2.46273e-18
7.64468e-08
2.77985e-05
5.1128e-05
6.83682e-11
4.91273e-18
6.34889e-05
5.13114e-18
0.000253668
2.0992e-18
4.29803e-11
4.00816e-11
1.88903e-18
5.77968e-08
2.85688e-17
2.41359e-05
2.94936e-18
1.19866e-17
2.09967e-18
4.20026e-17
2.99311e-18
8.07722e-18
3.42697e-07
2.14447e-06
0.000149992
1.14481e-17
7.67933e-17
4.56198e-05
7.15058e-18
4.20346e-19
8.66154e-18
1.20092e-18
1.41228e-17
6.555e-06
4.18275e-18
4.58868e-18
3.66128e-18
3.66659e-06
5.58935e-19
2.23325e-18
9.64585e-18
3.60116e-06
1.01039e-17
6.8327e-06
0.00025785
5.8281e-06
5.97143e-06
2.96471e-05
5.97103e-19
4.15517e-18
2.78258e-18
3.38972e-06
1.93062e-06
7.29493e-19
7.13743e-17
6.59727e-07
2.3232e-18
1.4085e-18
0.000371361
1.93506e-18
2.42896e-05
3.72694e-18
2.59971e-06
3.6494e-06
5.12549e-18
9.07755e-18
1.07392e-17
1.82517e-18
1.55406e-18
2.05254e-05
6.41874e-18
5.15233e-06
4.26599e-18
1.04994e-17
7.52453e-06
1.698e-18
1.40528e-05
5.68183e-17
1.60674e-18
2.68148e-06
8.57906e-08
0.000155217
3.49567e-18
2.56698e-19
3.36393e-18
4.0572e-06
0.000197398
1.22832e-17
1.10094e-17
3.16459e-17
1.69422e-06
3.29877e-18
2.16575e-05
3.42745e-05
1.2633e-17
7.66603e-19
7.99988e-06
7.16781e-18
4.88249e-17
3.29934e-18
1.95736e-16
8.6805e-18
7.55436e-05
2.16604e-16
2.44723e-18
5.30436e-18
1.6429e-16
2.83224e-18
1.76204e-17
6.5555e-18
1.98385e-18
2.63522e-17
8.58964e-06
1.71275e-17
9.25274e-06
3.30072e-16
1.90305e-18
0.000635604
2.95864e-06
3.5079e-18
3.51572e-17
4.14012e-19
2.63946e-06
3.09618e-17
1.14592e-18
3.32916e-17
1.18903e-18
7.90471e-06
1.34989e-19
5.24859e-06
1.52018e-18
1.04953e-05
7.79411e-18
6.23606e-05
4.76286e-17
8.77551e-18
2.34047e-05
5.1444e-18
1.81229e-18
2.93105e-05
2.96026e-07
2.19876e-18
7.54322e-19
4.00504e-05
1.09844e-05
7.02164e-06
9.2498e-07
1.98588e-06
1.8814e-05
1.07305e-06
5.31358e-06
1.0041e-17
3.17348e-05
3.36592e-17
1.2855e-17
3.91097e-18
2.87099e-17
3.48473e-17
1.13349e-05
4.11691e-18
1.06424e-17
2.72777e-18
3.38415e-09
9.89089e-09
6.5406e-17
2.49781e-06
9.20122e-18
4.73044e-06
2.91462e-19
1.37764e-09
3.96617e-06
2.46356e-16
4.99105e-05
4.91957e-19
1.74992e-17
9.9308e-20
3.23394e-06
1.42303e-06
5.81465e-18
7.33091e-18
2.74618e-06
1.50522e-17
0.000724879
3.03552e-18
0.000112399
7.71259e-18
1.20707e-19
9.94738e-19
8.43888e-19
1.08908e-05
3.65127e-18
4.26799e-08
9.3935e-18
1.06888e-05
2.36689e-17
1.82951e-18
6.28499e-15
2.35859e-16
3.68635e-18
8.79474e-18
2.65364e-18
6.35859e-19
4.68709e-06
0.000208932
2.10471e-17
3.23541e-18
3.93786e-07
1.35566e-17
2.07702e-18
1.23247e-09
1.88466e-05
1.6074e-07
1.17918e-17
7.61533e-07
3.59796e-06
5.7189e-06
9.15951e-06
3.66597e-18
2.63119e-17
1.27934e-17
2.23079e-17
1.35759e-18
1.131e-17
2.61276e-17
1.66259e-17
3.52173e-18
8.58548e-18
1.97006e-17
7.37948e-18
8.24049e-05
1.50296e-17
2.61391e-19
4.17613e-14
1.62546e-19
1.15989e-18
0.00121269
2.68527e-18
1.5188e-18
2.17719e-06
2.11494e-12
1.06163e-17
2.88804e-18
1.82425e-18
2.49337e-05
3.25742e-18
2.4794e-17
5.61733e-11
9.02975e-19
5.1598e-19
4.62504e-18
3.01188e-17
0.000126683
1.04195e-17
1.8626e-07
3.42111e-18
6.95708e-18
1.393e-18
1.61606e-18
1.2612e-18
2.00634e-11
4.14685e-11
1.23378e-07
2.03293e-19
4.48897e-18
1.69915e-17
1.12811e-10
2.86866e-18
3.38714e-10
1.1434e-11
2.30939e-17
1.72228e-17
1.02159e-16
5.41364e-12
1.44164e-17
5.08592e-18
2.60295e-12
6.69892e-17
3.4862e-05
5.26816e-18
7.83061e-06
1.11846e-17
2.54281e-09
7.61658e-19
1.62305e-06
1.37113e-18
4.67767e-06
2.89126e-05
7.19231e-18
2.85749e-06
1.6115e-08
2.72504e-18
1.21534e-05
2.06181e-18
6.20172e-18
3.10507e-18
3.2939e-18
8.37892e-17
1.22927e-19
3.29964e-19
7.50874e-19
0.000320954
1.46459e-17
7.46635e-18
4.99182e-18
1.24289e-18
7.39228e-18
3.55853e-05
0.000919488
3.51404e-09
1.2531e-08
5.50548e-19
2.33997e-06
1.60244e-06
2.49757e-18
7.68225e-18
4.85174e-17
1.68872e-19
7.26711e-18
9.38456e-18
1.61735e-17
9.6242e-18
4.52355e-07
3.62425e-18
2.35064e-18
2.53829e-07
4.13963e-09
1.41931e-17
2.93239e-05
2.59231e-17
5.67988e-18
5.28485e-18
0.000198168
2.45467e-17
1.23824e-18
2.93257e-05
1.56552e-18
1.80693e-18
1.20259e-18
1.36415e-17
6.28947e-05
4.9077e-19
6.77567e-19