/*--------------------------------*- C++ -*----------------------------------*\
  =========                 |
  \\      /  F ield         | OpenFOAM: The Open Source CFD Toolbox
   \\    /   O peration     | Website:  https://openfoam.org
    \\  /    A nd           | Version:  10
     \\/     M anipulation  |
\*---------------------------------------------------------------------------*/
FoamFile
{
    format      ascii;
    class       volScalarField;
    location    "9.7";
    object      T;
}
// * * * * * * * * * * * * * * * * * * * * * * * * * * * * * * * * * * * * * //

dimensions      [0 0 0 1 0 0 0];

internalField   nonuniform List<scalar> 
111485
(
303.15
285.1
300.96
303.15
298.39
283.15
298.9
293.369
296.295
286.241
300.497
296.173
300.191
284.566
299.956
286.751
299.289
297.725
294.012
303.15
303.15
283.15
297.214
288.684
301.537
303.15
293.169
300.603
288.839
303.15
300.722
294.291
303.15
283.15
283.446
283.15
302.277
297.563
283.149
296.574
283.15
289.582
296.992
302.879
303.192
303.15
287.355
288.543
289.624
303.15
303.15
283.15
303.15
298.893
303.15
293.463
287.884
283.15
283.321
295.416
295.816
303.15
302.042
300.246
283.15
284.543
300.21
291.504
302.096
302.522
303.162
301.884
303.15
302.093
303.15
295.34
283.15
293.427
283.15
283.15
283.238
293.37
283.15
303.15
300.289
284.202
283.15
301.532
303.115
299.057
283.331
289.552
300.841
300.361
289.747
303.15
303.15
301.532
303.149
283.413
303.15
286.641
283.15
285.157
285.739
283.15
283.15
293.039
301.439
283.146
298.877
288.056
301.276
301.687
303.15
301.965
303.15
283.15
300.104
303.15
303.15
283.15
283.15
283.15
283.398
303.151
283.15
301.796
303.15
283.176
303.086
301.922
303.15
283.15
283.15
292.472
283.15
294.18
298.757
301.07
303.137
296.782
298.938
284.761
302.27
297.758
283.15
303.15
283.15
297.101
284.916
303.15
303.144
287.294
283.156
293.682
295.595
302.517
283.154
303.15
303.15
292.139
286.23
283.153
283.157
301.159
283.682
283.15
283.152
283.152
283.15
303.15
283.205
283.15
291.508
287.148
283.15
303.15
303.15
283.15
303.15
303.15
297.61
293.454
295.745
289.737
301.36
300.394
283.189
303.15
301.425
303.15
303.15
300.128
286.268
301.386
301.314
295.706
303.15
300.863
284.587
283.16
300.754
297.031
303.15
300.387
288.17
303.15
283.224
300.155
284.795
300.66
303.15
303.15
300.674
283.15
292.726
283.15
300.579
298.673
290.337
303.15
301.737
300.51
283.15
283.15
283.15
289.477
283.157
283.15
303.15
298.609
291.328
289.904
283.15
303.15
303.106
303.15
284.323
300.049
299.222
299.472
299.341
283.15
283.144
298.817
283.15
283.15
288.738
288.34
283.15
301.161
298.836
303.15
283.15
301.006
303.15
303.15
303.12
303.15
288.244
285.85
290.752
303.15
298.296
303.15
303.15
303.15
283.148
298.055
300.95
299.384
291.173
299.441
296.197
283.21
290.292
291.537
283.15
303.15
283.149
292.413
298.713
286.439
303.15
297.953
297.223
298.848
302.958
283.166
297.057
299.321
301.991
283.15
283.603
283.15
283.149
303.15
283.878
290.236
286.301
303.15
283.15
297.545
285.228
303.15
303.15
303.15
284.576
290.202
301.037
284.392
292.984
283.15
283.15
303.15
298.308
303.15
283.816
289.446
283.153
283.15
303.15
303.15
283.15
294.31
289.939
283.15
295.66
283.15
303.15
301.043
297.25
293.941
295.769
283.15
283.15
283.15
296.56
290.972
302.356
283.15
283.15
283.15
290.058
296.899
283.212
290.446
283.15
292.753
299.518
284.196
298.641
285.249
283.15
303.15
283.15
303.15
290.644
296.618
287.914
291.903
283.15
286.342
283.15
303.15
293.771
303.15
301.74
303.15
283.15
291.907
283.15
288.749
284.612
283.15
283.977
297.981
283.15
300.114
284.656
298.8
303.021
291.024
285.984
283.15
303.15
303.143
283.15
300.961
300.824
283.15
283.15
294.672
284.359
298.147
296.8
283.15
295.07
296.071
283.15
302.04
283.892
303.15
303.15
288.225
298.551
283.15
303.15
303.15
303.15
300.714
283.15
303.15
293.91
283.171
286.946
299.933
283.15
283.15
302.602
283.15
302.449
301.419
297.808
288.69
283.15
293.877
303.38
303.15
298.598
292.269
303.15
283.15
283.304
283.15
289.998
286.086
291.614
283.15
292.834
296.542
293.027
303.147
283.15
303.15
303.15
283.169
292.693
283.15
284.31
303.132
283.15
303.15
303.15
303.15
301.813
290.491
285.978
284.182
284.308
283.15
285.683
303.15
300.708
283.15
303.15
303.15
300.649
303.15
303.15
283.151
303.15
283.15
300.647
283.15
283.15
283.15
303.15
283.15
303.15
283.15
283.66
283.15
303.125
301.836
283.743
283.15
303.083
283.15
303.15
284.702
284.663
286.101
297.473
283.15
297.443
297.556
292.254
286.792
285.259
303.15
291.725
283.15
299.828
283.15
296.745
283.15
292.042
298.544
303.151
283.15
286.772
303.15
295.457
299.048
283.15
283.15
283.15
283.15
303.15
293.639
283.15
283.15
283.236
283.15
299.781
283.15
284.784
303.15
283.432
303.12
284.625
291.865
283.15
301.432
283.15
283.15
285.677
283.15
283.254
283.15
299.633
303.15
290.619
303.15
283.15
302.371
284.462
300.052
285.646
300.05
289.443
283.15
300.598
284.541
283.15
283.14
300.303
301.569
283.15
282.46
301.039
303.062
283.119
303.15
287.555
302.156
284.399
285.377
288.176
282.567
283.15
303.15
300.557
303.15
283.544
283.15
283.15
291.722
282.68
303.149
303.116
283.15
286.259
299.553
283.15
283.15
299.567
303.15
283.15
283.15
283.15
286.142
283.15
303.15
284.813
284.212
303.15
299.661
283.15
289.225
303.15
283.15
286.136
283.15
283.15
283.15
285.354
283.15
285.43
291.919
303.15
300.324
283.446
298.668
300.92
283.308
283.455
283.15
288.927
298.403
303.15
302.251
296.016
296.839
284.703
297.402
297.159
303.15
300.217
303.135
283.15
297.103
284.814
283.15
292.325
295.676
284.836
298.727
300.598
292.284
283.15
298.867
283.467
303.15
300.559
301.951
294.037
283.15
286.472
303.15
283.15
283.15
283.15
283.3
283.15
303.15
303.15
283.15
300.385
299.204
303.15
285.605
303.15
303.15
303.15
289.996
283.416
283.15
303.15
283.15
283.15
286.779
292.333
283.15
295.087
283.137
283.15
295.262
302.209
287.754
283.15
283.15
300.217
292.043
283.15
283.15
283.15
293.943
303.15
303.15
283.15
296.192
302.369
283.15
282.383
301.729
286.513
283.15
283.15
287.435
302.961
283.15
283.159
287.199
283.749
288.745
283.15
285.673
300.273
283.15
303.15
283.15
283.15
283.15
283.15
295.62
303.15
283.15
283.15
295.234
291.768
303.15
303.15
289.812
298.379
298.277
303.15
283.15
297.951
303.15
283.822
298.785
298.304
303.15
303.15
303.15
283.15
286.042
283.15
283.15
302.697
303.15
297.772
302.266
283.15
294.004
283.259
296.388
291.936
283.415
289.738
283.15
283.15
296.835
288.013
290.802
283.15
283.15
297.722
294.925
283.15
283.899
284.576
283.473
303.15
303.15
303.15
290.708
283.15
300.018
283.15
284.366
297.553
298.466
292.215
283.15
283.15
303.15
295.323
283.15
283.15
303.096
283.15
283.15
303.15
283.15
299.284
283.15
283.15
283.15
283.15
283.15
303.15
283.15
283.171
298.736
303.15
302.524
283.131
283.398
283.096
285.496
283.15
284.445
290.491
283.398
303.15
283.149
299.7
283.15
300.217
283.144
283.144
286.182
297.445
283.203
291.849
297.959
283.15
283.15
299.02
299.766
283.15
297.308
291.237
297.523
283.15
283.243
283.15
297.836
296.956
283.15
300.029
297.605
283.149
299.734
283.15
295.606
283.145
303.126
283.162
283.16
283.15
283.15
284.412
283.15
302.968
283.584
283.064
303.147
303.149
303.147
283.15
283.15
293.751
303.15
303.188
283.867
283.15
283.15
303.154
303.149
283.15
303.165
283.15
283.15
303.15
303.15
303.15
303.15
283.361
283.15
283.15
283.15
303.157
283.304
283.884
293.402
283.15
283.15
283.334
283.15
283.15
283.15
287.221
293.548
283.15
283.15
283.15
283.15
283.15
283.15
284.005
283.15
303.15
291.534
283.15
303.15
303.15
303.153
303.15
303.15
283.15
303.171
283.15
283.692
283.144
303.152
283.15
303.062
284.382
292.043
303.15
303.128
284.438
303.15
283.15
303.15
283.15
293.994
293.434
284.626
303.148
283.15
293.209
283.15
283.15
303.15
283.15
294.802
283.15
303.15
283.163
298.124
303.15
284.367
283.15
283.572
283.15
283.15
283.15
303.15
285.834
283.466
284.209
283.15
283.15
285.621
283.15
283.15
303.15
284.317
303.164
298.516
303.15
303.127
303.128
283.15
303.13
283.15
283.438
289.111
301
283.795
283.167
283.15
283.15
283.15
303.184
283.15
302.899
303.15
292.645
303.15
288.707
283.82
303.15
283.15
303.15
283.15
301.776
303.15
303.15
286.391
300.532
283.15
283.15
283.15
283.15
283.15
283.15
300.787
283.576
303.15
303.15
303.157
303.15
300.163
284.408
283.15
302.102
303.15
301.611
283.15
302.562
283.15
283.148
303.152
283.31
302.099
300.204
283.147
283.15
289.33
303.15
293.335
303.15
283.15
303.15
283.15
283.15
283.15
300.787
302.042
303.15
303.15
303.15
302.896
283.15
303.15
292.845
283.085
303.15
297.484
298.281
296.45
283.373
283.15
283.15
283.15
283.15
294.592
283.15
294.827
283.15
303.056
289.821
283.15
302.853
283.15
283.15
302.733
283.148
302.916
283.15
303.15
283.15
302.381
283.15
303.15
283.15
283.148
283.15
283.17
283.15
283.15
303.15
292.961
301.075
296.085
296.983
303.15
303.115
283.15
283.15
285.678
283.15
283.158
302.838
298.755
302.94
303.15
283.357
283.15
303.15
283.15
302.992
283.315
298.274
283.15
303.15
288.072
303.15
283.15
283.126
295.06
283.147
283.15
283.15
283.149
303.15
283.15
303.142
303.15
303.15
289.93
302.986
302.992
288.997
293.214
283.15
283.15
303.087
289.067
283.15
303.15
284.718
283.15
303.15
283.15
283.15
283.15
297.395
283.15
302.939
283.15
300.479
283.15
283.15
283.15
283.15
283.15
283.15
285
283.15
283.15
283.15
283.15
283.15
283.15
291.971
283.15
298.342
302.931
283.15
302.319
283.15
302.509
303.145
292.277
288.771
303.15
292.142
284.772
303.108
303.15
303.14
295.03
288.65
283.15
287.87
283.15
283.15
283.15
283.15
287.495
283.15
283.15
291.627
303.135
285.302
283.15
283.15
302.514
283.15
283.183
303.15
299.871
283.15
283.15
302.819
283.15
303.178
303.15
283.15
289.039
297.939
292.686
285.646
292.505
294.092
283.15
283.15
302.281
290.572
292.745
284.396
283.15
294.35
283.15
303.15
300.721
298.699
283.15
297.389
283.15
292.739
297.179
303.15
283.15
283.15
301.765
283.15
283.15
300.486
296.108
283.195
291.203
283.15
283.15
302.795
300.504
283.15
300.624
283.15
300.478
283.15
283.15
300.784
283.15
283.227
301.582
283.15
283.15
302.423
283.15
287.899
303.15
290.37
303.15
303.15
303.15
300.932
283.15
283.15
299.512
283.15
302.99
283.15
283.15
303.15
283.151
288.188
283.15
283.15
288.051
288.231
283.15
283.673
283.15
303.15
302.408
283.721
301.551
283.15
283.15
283.15
283.15
283.15
283.15
283.15
283.15
283.15
283.15
283.15
303.15
283.15
283.15
283.15
283.15
283.15
283.15
283.15
283.15
303.15
286.943
283.15
283.15
283.15
294.665
283.15
303.15
302.882
283.15
283.15
294.669
283.15
283.15
301.794
295.147
283.15
303.664
303.598
283.15
301.49
293.918
297.512
301.455
298.104
303.15
283.15
296.351
291.745
301.398
283.15
302.134
302.407
300.849
288.024
287.306
301.036
301.765
301.767
303.15
285.846
297.507
285.518
297.21
283.15
283.15
283.15
303.15
283.15
291.956
297.881
283.15
283.15
283.15
283.15
283.15
303.15
283.15
303.15
292.107
303.113
298.987
302.837
283.15
283.15
285.403
283.167
283.15
283.15
301.691
303.15
283.15
298.119
299.479
297.489
298.615
300.779
303.15
291.022
302.579
303.15
303.15
300.301
303.15
283.15
282.991
295.52
302.947
283.15
303.15
289.572
286.137
297.115
292.155
302.375
303.15
303.136
303.15
303.15
283.15
298.925
283.15
291.775
290.425
299.662
284.758
303.15
301.911
303.15
283.15
303.15
303.15
291.467
299.498
283.15
303.15
303.133
291.755
303.029
299.316
292.767
288.307
292.877
283.15
303.15
283.15
291.203
298.267
303.151
303.15
303.15
303.15
297.454
302.552
283.15
299.938
301.112
284.852
299.483
303.15
303.15
298.65
292.929
283.15
302.901
299.715
302.602
291.947
297.273
298.215
303.15
286.97
298.147
291.303
283.15
289.027
303.15
288.38
301.04
303.15
288.69
301.263
300.108
293.141
283.149
283.159
283.237
301.61
300.901
303.15
288.805
301.466
303.15
283.15
303.15
303.209
298.724
290.725
296.742
303.255
283.149
297.486
303.15
303.15
292.751
303.15
300.287
283.303
301.302
291.511
303.15
283.659
293.172
303.15
283.056
298.642
303.15
300.668
286.238
303.15
303.15
283.99
303.15
283.15
283.15
285.904
299.203
291.14
303.15
285.212
297.446
283.15
298.811
298.845
288.954
303.096
283.15
301.493
299.607
298.811
300.053
288.646
290.746
302.476
303.15
301.537
288.7
303.15
298.822
283.15
283.15
303.15
283.15
303.15
297.431
283.15
300.498
283.628
303.15
283.786
283.15
289.821
303.15
303.144
303.15
294.129
302.992
303.117
299.847
290.394
289.425
290.571
298.395
303.15
299.371
292.145
298.907
303.15
283.867
283.449
299.227
287.152
283.508
303.15
283.15
303.15
285.318
303.15
303.332
284.677
303.365
302.953
303.15
303.15
283.15
300.529
300.621
285.483
303.085
286.99
295.634
301.867
292.475
288.131
302.072
296.064
283.15
283.15
303.15
285.8
289.683
283.15
283.15
303.15
301.979
288.649
303.15
296.359
303.15
283.155
285.179
301.08
303.15
303.15
292.252
303.15
283.3
290.599
283.15
297.117
294.611
296.067
303.15
302.704
283.15
302.658
293.379
303.15
303.15
288.776
283.15
303.15
301.788
284.429
303.15
303.15
283.15
302.34
303.469
289.483
299.672
298.019
303.15
303.159
302.6
303.15
283.15
303.15
303.15
303.15
303.15
303.15
303.15
303.15
283.15
303.15
303.15
283.339
303.15
303.342
303.15
303.16
303.15
303.15
300.922
303.676
303.15
291.984
303.15
303.15
283.15
302.551
303.15
302.122
303.114
283.288
283.15
303.15
302.921
283.149
303.15
303.15
291.348
283.15
292.568
283.15
283.15
283.153
291.193
284.833
303.15
296.628
283.15
303.756
303.133
284.307
302.586
283.15
292.145
303.084
301.668
283.15
303.15
283.15
304.116
284.811
296.859
303.15
303.15
303.15
303.15
303.15
303.15
302.336
302.803
297.596
291.973
303.15
287.113
292.622
284.965
303.206
283.15
286.9
302.746
284.755
283.148
287.469
303.15
283.38
302.914
292.509
302.84
301.893
303.15
302.221
303.15
303.15
297.909
303.15
284.462
303.15
303.15
283.15
303.15
303.15
302.84
303.15
283.296
283.15
283.15
285.794
284.903
300.89
286.075
303.15
294.65
303.15
290.435
303.15
287.123
300.665
301.469
293.326
303.15
303.15
303.15
289.791
283.15
303.15
289.545
283.15
283.15
301.811
303.15
286.182
283.148
283.15
303.15
303.15
300.642
298.162
303.15
293.395
303.037
283.15
298.549
303.15
286.406
288.22
302.136
303.15
296.276
296.722
302.95
301.87
301.648
303.15
303.15
303.147
303.15
283.15
303.15
289.548
300.06
294.308
302.122
283.15
300.345
291.377
298.201
283.6
298.296
289.572
302.154
283.15
283.15
283.15
302.201
283.15
290.465
283.15
301.25
303.162
289.702
298.028
283.15
303.15
301.238
301.216
303.15
283.15
303.15
286.422
301.427
302.975
302.329
297.989
288.428
303.15
303.15
303.15
294.209
285.948
289.764
295.846
283.951
302.953
303.15
303.15
283.15
283.15
285.412
299.566
303.15
303.15
283.15
303.15
303.15
303.15
300.236
303.15
285.345
292.384
283.15
283.247
293.33
285.688
303.15
303.15
301.875
303.15
299.209
283.147
297.547
303.15
303.15
283.15
303.15
303.15
303.15
305.154
303.15
301.828
301.105
303.15
303.15
301.606
303.15
283.15
287.229
303.102
303.15
303.15
303.15
297.901
303.15
303.15
302.454
302.481
301.766
303.15
283.15
303.15
302.034
302.502
301.512
302.525
283.15
300.63
287.473
297.428
283.15
303.15
303.15
303.15
303.15
294.338
287.558
299.642
303.15
303.15
303.15
303.15
283.15
303.148
284.76
285.136
283.15
303.15
303.15
283.148
299.571
294.896
283.15
303.15
303.15
303.15
303.15
289.595
289.644
303.15
303.15
302.392
303.15
301.436
283.946
291.81
303.15
283.15
301.154
303.123
303.15
302.996
301.305
286.801
303.15
303.15
303.15
303.15
293.264
284.14
303.15
302.689
298.034
289.35
303.15
303.15
303.15
303.15
299.523
303.151
303.15
303.15
298.232
302.582
288.324
303.15
303.15
297.717
303.15
303.15
303.15
303.15
288.793
303.15
283.15
283.15
295.908
291.066
303.15
303.15
303.15
296.976
303.146
303.15
303.15
303.15
303.15
303.402
300.863
303.15
287.32
302.638
299.364
303.15
303.15
303.15
303.15
283.15
285.644
303.15
302.845
283.15
302.17
303.15
303.133
303.15
283.15
301.914
285.647
283.15
302.822
303.15
302.413
283.15
303.15
303.15
303.151
303.15
283.269
303.15
290.833
283.15
283.15
303.15
303.15
298.806
302.374
283.15
302.402
283.15
284.088
287.97
302.701
283.15
303.155
302.986
303.134
284.385
283.156
302.981
283.15
283.15
283.156
302.067
302.284
303.15
283.15
283.15
295.271
303.15
283.15
303.15
303.15
303.15
303.108
303.045
302.928
302.442
303.15
302.899
303.15
284.812
303.15
303.15
283.15
303.15
303.11
303.15
283.15
303.15
288.305
303.15
303.15
303.164
283.15
302.82
302.031
296.64
303.15
289.227
294.386
283.775
289.89
283.15
283.15
287.204
284.314
283.15
303.827
283.15
286.407
303.15
283.15
303.156
303.15
303.15
303.011
303.155
303.15
283.15
303.138
303.15
283.15
283.106
298.719
302.699
303.15
301.838
303.15
285.703
303.152
301.171
303.15
303.15
301.034
303.15
303.15
303.15
287.682
303.15
285.139
303.15
303.147
303.15
283.15
283.15
303.15
303.15
303.15
288.696
302.544
303.15
303.15
288.561
286.489
291.161
303.15
302.698
287.665
287.524
303.15
303.15
287.631
283.15
291.873
303.15
303.152
303.149
303.15
300.505
283.15
302.297
283.15
303.15
303.15
303.15
303.15
303.15
284.326
302.242
291.012
303.15
303.15
290.543
303.15
303.15
303.15
303.15
303.15
300.129
303.15
303.15
283.15
299.431
303.15
283.15
303.15
301.356
283.15
299.936
290.82
302.681
299.999
299.414
303.15
303.15
303.15
300.809
288.456
283.15
303.15
300.297
303.15
303.15
291.942
303.15
287.468
303.15
297.797
284.305
303.15
283.15
303.15
303.15
303.15
285.23
303.15
300.471
303.15
303.15
299.678
283.15
284.744
303.15
303.15
288.081
301.527
296.387
303.15
303.15
303.15
301.545
292.235
303.15
283.15
303.15
300.649
303.15
284.766
296.268
303.15
303.15
301.121
303.15
303.15
283.15
303.15
283.15
294.521
303.15
283.15
303.15
303.15
303.15
303.15
303.15
303.15
283.15
301.494
283.15
302.069
303.15
303.15
296.05
300.457
303.15
283.15
303.15
300.864
283.15
303.15
303.15
303.15
300.716
303.15
297.628
303.15
285.816
283.15
286.723
303.15
303.15
298.472
283.15
303.15
287.834
283.244
303.15
303.15
285.064
283.843
300.834
301.719
301.17
293.127
301.726
283.841
303.15
297.668
283.15
283.15
303.15
303.15
303.15
301.191
303.15
303.15
303.15
303.129
283.169
283.15
283.554
303.15
302.005
283.15
303.142
296.067
283.15
294.547
303.15
303.15
283.15
299.864
283.923
303.15
283.15
299.89
303.15
297.619
303.15
295.253
303.15
283.15
303.15
283.15
299.4
283.15
283.225
283.15
286.19
303.15
303.15
283.15
283.15
303.15
303.15
303.15
303.15
284.871
284.717
283.15
303.15
283.232
283.15
283.15
303.154
289.838
283.533
283.15
301.483
284.859
300.448
288.147
303.15
303.15
303.15
303.15
283.15
283.15
283.15
303.15
283.15
283.15
303.15
283.15
297.228
283.15
303.15
283.15
303.15
303.15
283.299
283.15
303.15
301.935
303.149
303.15
303.15
303.15
288.706
283.15
303.15
303.149
283.15
303.15
303.15
303.15
295.213
283.15
283.18
303.15
303.15
303.15
303.15
303.15
303.149
303.147
284.094
303.15
283.15
303.15
303.149
303.15
303.148
303.149
283.15
283.15
283.15
303.15
303.15
283.15
303.149
283.15
287.69
283.15
301.799
283.15
303.154
303.15
284.601
283.15
284.444
297.347
303.15
284.685
303.173
303.15
297.354
283.15
303.15
303.15
303.15
303.15
283.15
303.15
303.15
299.126
283.15
303.15
303.15
303.15
303.15
292.299
290.274
303.17
283.165
303.15
301.799
302.305
303.15
283.15
283.15
303.15
303.15
303.15
283.15
283.15
283.819
303.15
303.15
303.198
303.151
283.15
288.825
303.15
283.15
303.15
288.053
303.15
283.15
302.107
283.15
283.15
283.15
303.15
299.653
303.15
303.15
303.15
283.15
284.498
293.569
295.181
289.513
303.12
303.016
283.15
283.15
301.005
283.691
283.15
303.149
303.15
303.15
283.15
294.513
303.15
283.15
302.977
303.15
303.15
283.792
303.15
303.15
288.378
289.519
303.15
283.15
303.15
283.15
303.15
303.15
303.15
303.15
283.944
303.15
303.15
303.15
302.925
303.15
303.15
283.15
283.15
283.15
283.15
302.939
283.15
283.15
300.947
303.15
284.763
284.922
303.15
301.106
303.15
283.15
303.15
283.15
283.15
303.15
303.15
303.15
302.656
303.15
303.15
303.15
283.15
303.15
283.15
286.358
303.15
303.15
291.599
303.15
283.15
283.15
302.409
303.15
303.147
283.15
303.189
286.635
283.15
283.15
299.177
283.15
283.15
303.045
303.161
293.301
303.167
303.151
303.152
283.15
283.15
302.639
283.45
285.806
300.826
283.157
283.15
291.02
301.551
301.448
283.15
300.195
290.677
300.125
302.194
302.735
284.673
295.448
299.182
286.242
293.267
300.082
303.15
297.939
297.534
302.784
283.655
292.322
301.126
287.317
303.15
301.03
303.15
300.702
301.479
283.629
284.962
303.15
283.15
302.272
301.672
283.146
303.173
288.533
302.67
301.81
300.804
303.15
303.233
301.104
295.027
300.409
288.904
302.906
301.62
302.181
302.261
284.203
302.495
301.574
283.179
303.15
302.891
303.15
303.15
302.085
301.991
294.23
303.15
284.654
292.29
292.311
300.866
303.15
284
285.175
284.383
303.15
298.746
303.15
296.353
295.343
300.729
303.142
303.15
303.15
301.928
301.243
302.779
303.15
292.59
302.739
289.922
283.15
298.329
293.964
303.15
300.492
283.15
283.203
283.15
302.564
303.095
303.15
302.978
298.355
283.148
300.48
302.211
295.303
283.533
295.817
297.032
283.458
303.133
284.721
296.3
283.318
296.814
300.481
300.224
300.331
301.99
289.756
301.557
303.15
302.712
302.642
302.644
296.482
302.879
283.15
302.001
293.412
303.15
283.432
286.825
301.176
302.592
290.501
284.81
287.682
302.617
296.351
303.15
303.15
294.987
283.15
292.659
283.429
303.15
290.544
290.285
283.906
303.15
297.262
298.476
284.216
301.218
294.152
290.157
300.518
303.106
303.15
303.15
283.525
302.604
283.347
285.773
303.15
303.016
303.035
303.15
285.404
300.783
297.814
283.245
299.541
302.363
300.489
286.874
283.15
303.105
301.806
283.732
283.136
303.15
303.071
303.15
303.15
284.169
302.521
296.356
283.034
283.153
303.15
283.15
302.947
303.042
302.494
301.391
303.15
283.15
283.15
301.804
301.86
283.213
295.858
303.15
303.15
301.6
285.474
283.257
301.663
301.764
301.713
284.401
303.15
283.15
298.443
297.731
303.15
302.697
302.071
284.677
284.956
302.102
303.052
303.15
298.112
284.424
283.15
303.15
300.564
301.194
302.003
289.585
302.063
285.639
300.117
300.261
290.322
297.5
303.15
303.15
300.915
284.45
302.082
283.151
300.482
301.695
283.618
288.287
302.413
283.15
283.15
283.028
303.15
303.15
299.915
298.92
302.278
283.148
283.15
283.926
283.151
283.15
283.151
303.073
300.912
299.148
295.848
283.366
303.096
300.112
303.15
283.15
302.549
289.21
300.764
292.682
283.501
303.059
283.148
283.15
302.833
301.187
302.608
283.155
291.253
284.86
303.15
284.252
301.022
283.15
283.308
284.926
284.131
283.15
283.15
301.62
283.15
289.347
302.521
302.699
301.768
283.479
298.24
289.971
283.15
303.345
292.069
283.15
283.15
283.15
303.15
301.191
302.406
299.149
301.453
299.903
288.834
283.155
290.971
290.144
303.058
291.053
299.964
292.046
283.15
286.284
301.067
301.531
283.15
283.969
299.62
283.15
303.15
283.187
301.265
303.15
284.014
302.251
303.019
303.15
283.15
292.773
303.153
301.679
283.15
283.15
283.15
302.188
297.539
303.143
302.185
303.167
303.15
288.358
303.167
290.424
300.206
300.165
296.57
283.156
301.686
283.15
290.571
301.395
289.43
290.471
298.955
300.672
301.582
287.161
291.127
285.006
283.172
302.209
286.121
283.15
283.144
300.189
283.079
300.28
286.978
296.038
299.408
289.174
299.25
283.121
299.124
283.15
289.984
288.98
298.641
283.328
283.15
300.554
283.15
302.796
283.15
303.15
286.477
286.476
283.15
298.963
298.545
287.028
303.15
303.15
301.718
289.774
302.993
283.721
301.562
287.068
303.147
284.187
288.18
303.15
301.412
283.15
283.15
287.55
287.011
283.145
285.236
301.481
286.227
301.168
303.15
285.098
301.733
291.175
303.15
303.15
301.605
302.036
303.15
293.003
294.263
283.675
296.367
286.776
289.994
303.15
302.768
296.985
285.002
283.15
287.711
291.89
299.629
283.163
283.744
282.947
301.939
303.115
283.151
303.133
303.15
300.552
293.041
298.789
293.806
283.15
291.924
295.953
285.584
283.21
291.496
283.15
300.256
303.164
292.515
284.092
303.144
291.838
298.588
288.215
300.338
291.315
287.303
283.15
303.142
285.34
289.865
293.455
283.15
283.15
283.15
303.141
283.15
283.137
286.419
303.15
283.15
303.167
283.172
291.095
288.903
303.539
302.91
289.838
303.15
296.95
303.177
301.991
287.245
283.15
292.894
303.145
303.093
286.177
283.15
283.15
283.473
286.002
303.053
303.143
287.505
289.462
283.479
283.162
289.835
293.195
303.15
283.15
303.095
303.15
302.323
285.004
302.331
303.092
284.05
283.766
284.029
302.849
302.173
297.374
293.965
303.069
291.253
291.014
303.15
303.097
302.576
285.424
283.376
303.15
285.93
283.383
302.928
301.659
302.165
283.15
300.313
301.837
303.15
302.145
285.402
303.15
297.869
303.15
283.15
300.662
302.679
286.321
302.481
283.15
285.153
303.009
283.15
302.299
285.367
294.853
284.334
303.15
303.015
302.87
286.497
283.15
287.109
284.243
289.764
285.716
302.24
303.15
283.15
283.15
293.111
283.15
301.034
302.151
290.344
283.15
294.001
283.15
303.15
283.15
300.045
298.53
283.151
285.263
301.714
303.071
303.156
291.81
294.159
301.185
283.207
301.788
283.145
303.15
303.142
298.987
283.15
300.776
294.731
303.15
300.931
287.297
301.941
284.887
288.184
283.15
302.21
287.715
298.384
303.073
283.15
303.15
291.619
302.15
283.077
283.147
286.724
298.303
303.149
284.472
301.008
300.98
301.235
303.153
299.861
287.628
284.914
301.564
299.865
283.723
283.104
303.16
303.149
303.15
297.309
283.163
283.15
303.15
303.149
289.881
298.886
300.257
287.763
302.796
303.15
286.414
301.539
303.15
300.939
283.792
301.438
303.15
284.528
301.367
295.484
302.76
303.15
303.15
285.16
295.015
296.326
287.355
303.15
303.15
283.15
287.191
302.393
296.114
303.15
285.531
303.15
303.15
300.434
288.689
283.15
295.497
295.825
299.045
283.15
303.15
292.638
287.203
303.15
297.905
300.468
300.374
303.15
303.15
303.15
300.18
298.279
302.794
299.847
283.15
292.849
287.643
290.552
300.54
303.15
303.15
300.72
303.095
286.53
296.051
303.15
303.147
283.15
286.415
298.878
285.562
303.15
303.15
283.339
303.121
303.15
303.15
283.15
290.488
303.15
303.15
284.562
299.252
283.15
303.15
284.609
301.298
300.13
286.962
294.905
303.15
283.49
303.15
303.15
283.311
300.499
290.364
300.362
303.15
303.129
302.165
292.583
299.76
301.333
284.439
283.45
300.819
298.339
303.15
302.742
284.119
299.685
301.35
287.651
303.15
297.379
301.379
301.467
301.507
292.851
303.15
283.15
299.151
283.15
283.15
287.724
283.15
283.997
283.15
283.15
283.15
283.15
302.748
288.117
302.695
283.15
295.639
290.9
284.717
283.15
303.15
302.669
301.72
303.16
302.627
283.15
294.745
300.225
290.13
283.15
283.15
299.781
285.915
283.15
283.15
303.149
290.526
283.15
287.11
303.149
303.152
284.303
283.15
288.155
292.312
300.768
294.556
302.954
285.595
302.489
295.197
286.242
283.15
283.532
291.572
303.071
289.071
302.647
283.15
292.329
287.72
300.999
301.239
284.868
303.104
284.882
297.007
302.98
303.146
285.112
303.145
303.002
293.252
302.667
283.15
303.15
303.15
294.707
290.987
283.155
301.069
284.67
284.141
284.598
303.145
288.316
300.421
283.15
283.15
302.494
303.15
294.507
302.895
303.182
299.772
303.223
302.877
283.15
301.256
302.873
283.15
303.15
301.286
303.15
284.291
298.712
283.163
291.488
283.15
287.549
303.01
299.702
283.15
303.021
290.864
301.166
303.125
303.077
283.15
283.15
301.917
301.979
283.79
302.803
302.403
302.357
303.141
283.15
293.655
283.15
302.78
287.828
302.984
303.15
283.15
302.813
285.09
291.435
302.023
283.15
302.573
301.971
301.537
302.472
303.043
303.211
303.008
303.15
283.15
301.491
297.765
303.086
303.15
289.876
284.85
303.15
283.15
285.28
303.184
303.165
302.914
301.105
284.248
303.096
290.622
294.17
303.148
288.989
303.164
283.15
289.79
283.15
299.916
298.067
284.753
288.129
299.571
296.612
295.232
299.121
293.706
303.154
293.776
296.317
283.16
299.333
293.8
303.15
298.851
299.087
303.15
291.119
303.172
301.651
303.15
286.89
285.999
302.793
289.623
283.15
283.15
300.316
301.11
283.709
283.15
303.15
300.184
302.303
300.576
299.818
302.778
292.522
289.59
286.597
292.436
284.294
290.348
283.302
295.646
290.38
293.887
287.038
284.264
303.163
283.27
303.148
285.576
300.682
283.151
300.361
298.344
288.696
302.081
285.37
299.022
283.15
302.948
283.154
283.117
287.603
299.611
303.15
300.315
303.016
299.88
302.753
303.15
301.225
284.939
294.856
302.027
303.149
283.702
283.15
290.24
285.218
285.731
303.127
303.148
283.15
283.15
283.176
303.15
293.421
303.15
303.148
294.147
303.434
303.15
300.386
303.15
303.15
293.627
290.552
303.15
289.784
302.036
289.511
303.15
303.15
285.901
283.331
290.267
303.226
303.15
303.145
285.45
283.242
283.15
288.928
287.55
303.15
284.29
303.15
303.15
303.132
287.299
303.15
303.147
283.275
303.152
302.653
287.878
283.152
283.593
297.276
290.697
303.15
285.907
284.41
301.295
287.069
302.192
290.533
293.792
303.15
303.15
283.999
303.147
302.941
295.819
302.937
302.733
287.131
283.15
285.287
283.217
297.066
302.574
285.352
303.15
283.783
286.685
303.124
283.175
303.15
286.347
283.15
300.085
303.15
299.677
299.836
283.251
283.356
302.31
290.771
301.307
303.15
301.366
301.719
303.15
303.15
298.276
293.344
283.15
288.718
303.15
295.164
283.354
303.15
296.832
298.657
288.942
303.15
302.75
294.136
295.3
284.452
303.161
298.615
296.043
283.967
303.122
302.794
287.328
298.364
289.767
290.741
289.691
283.15
302.938
303.152
303.15
303.175
293.005
296.231
302.972
301.26
303.15
284.435
303.15
303.039
302.852
303.15
293.477
296.173
303.15
285.354
303.094
303.15
303.088
303.158
286.035
293.265
291.052
288.36
293.346
303.15
301.171
291.343
295.288
293.407
303.141
303.15
300.517
303.189
284.229
303.19
303.15
303.15
303.143
303.15
284.918
303.15
284.206
303.146
303.15
290.161
303.144
292.415
295.45
303.133
295.25
285.963
283.442
303.124
302.931
284.657
283.15
297.045
303.15
285.479
302.907
302.015
303.015
298.366
287.016
303.15
298.636
289.853
299.293
283.15
283.606
303.15
303.145
303.19
294.004
303.15
292.371
289.286
303.195
303.15
284.767
298.692
293.156
299.525
302.46
301.566
300.334
303.15
284.7
296.894
302.351
285.555
298.293
292.218
284.449
291.571
303.15
286.598
291.757
290.082
299.38
303.15
286.421
284.074
303.15
302.411
288.099
302.084
283.15
303.15
299.778
301.666
288.94
301.96
301.892
301.783
303.15
289.258
285.109
301.938
302.217
297.075
303.15
283.2
303.15
301.96
303.15
302.79
303.15
291.607
303.15
296.429
283.15
289.385
303.15
283.15
292.139
301.406
300.361
289.151
300.442
303.15
302.48
303.15
302.355
285.184
303.15
300.348
290.337
303.15
300.756
303.15
303.15
293.126
283.15
285.522
293.156
300.876
303.15
291.106
293.78
288.135
289.609
288.07
299.17
300.225
300.748
287.329
287.065
301.216