/*--------------------------------*- C++ -*----------------------------------*\
  =========                 |
  \\      /  F ield         | OpenFOAM: The Open Source CFD Toolbox
   \\    /   O peration     | Website:  https://openfoam.org
    \\  /    A nd           | Version:  10
     \\/     M anipulation  |
\*---------------------------------------------------------------------------*/
FoamFile
{
    format      ascii;
    class       volVectorField;
    location    "9.7";
    object      U;
}
// * * * * * * * * * * * * * * * * * * * * * * * * * * * * * * * * * * * * * //

dimensions      [0 1 -1 0 0 0 0];

internalField   nonuniform List<vector> 
111485
(
(2.90965 -2.91006 0.00341131)
(8.51368 -0.0223868 -0.0493542)
(8.38745 0.0199481 0.0259406)
(2.91029 -2.91108 0.000244438)
(8.71494 0.0385096 -0.00311686)
(3.05865 3.05702 0.000258087)
(8.56578 0.0249121 0.00216284)
(8.79889 -0.0252356 0.0123884)
(8.57061 -0.00500302 0.00599892)
(8.77091 -0.0954941 -0.0411076)
(8.43792 0.0207783 0.0250346)
(8.82865 -0.0215651 0.0404472)
(8.31516 0.00715272 0.0185659)
(8.39952 -0.0175674 -0.0615208)
(8.51313 0.0338407 0.0179746)
(8.6955 -0.0590526 -0.0486144)
(8.55689 -0.00962342 0.0129006)
(3.00172 -0.214372 0.443796)
(8.73819 0.0252799 -0.0197815)
(2.88955 -2.88567 -0.00145494)
(2.89481 -2.89437 -0.00339025)
(3.0663 3.06529 -0.000268651)
(8.6423 0.0295197 -0.00908452)
(8.77826 -0.0594401 -0.0173328)
(8.59801 0.0330498 -0.00992597)
(2.93335 -2.92022 -0.00331213)
(8.86995 -0.0444264 0.0457129)
(8.39226 -0.0127116 0.00358023)
(8.76418 0.0151367 -0.0198465)
(2.89986 -2.90137 0.000216754)
(8.83144 0.143471 -0.0371659)
(8.72588 -0.0194344 0.00251983)
(2.88763 -2.89389 0.00427318)
(3.06261 3.06892 -0.0075331)
(3.07001 1.28647 0.488634)
(3.08179 3.1024 -0.0450395)
(8.78911 0.142848 -0.0574032)
(8.50373 0.031135 0.0745065)
(8.76037 2.65212 0.147796)
(8.72848 0.0422634 0.00323305)
(3.02509 3.05258 -0.0213111)
(8.82492 0.0100807 -0.0510547)
(8.71922 0.04399 0.0150892)
(8.41213 -0.0506514 0.00155933)
(8.79459 -0.154044 -0.0789511)
(2.91766 -2.89613 0.0152854)
(8.82071 -0.0392085 0.038006)
(8.76547 -0.0549294 -0.0164656)
(8.82546 0.00399883 -0.0383035)
(2.89341 -2.85868 0.0162684)
(2.87735 -2.85046 0.0179893)
(3.48113 2.92995 0.0505999)
(2.86902 -2.85781 0.00928526)
(8.81061 0.039894 -0.0752669)
(2.8618 -2.84957 0.000985224)
(8.70977 0.0233994 -0.00809848)
(8.71275 -0.037383 -0.0183645)
(3.06629 3.06032 0.00174136)
(7.94521 -0.017783 -0.14031)
(8.75287 0.0356307 -0.00530157)
(8.75129 0.0396666 -0.00381545)
(2.90072 -2.90643 0.00373899)
(8.11216 0.00868381 0.0530123)
(8.85263 -0.024496 0.0703528)
(3.1614 2.86613 0.00477148)
(7.98232 0.0183929 -0.0153882)
(6.13799 -0.485357 0.216266)
(8.7799 -0.0312691 0.0126211)
(7.9174 0.00435981 0.0229637)
(7.48818 -0.0148756 0.00405637)
(8.46974 0.0518116 -0.0429616)
(7.85635 -0.00848091 0.0245762)
(3.14206 -2.82806 -0.0654467)
(8.02444 0.0150358 0.062102)
(2.90696 -2.90591 -3.27872e-05)
(8.73816 -0.0204664 0.00976696)
(3.06538 3.06546 -0.000517559)
(8.81512 -0.0186995 0.0470842)
(3.06453 3.06263 -0.000404718)
(2.76038 2.69377 -0.0912364)
(8.49544 -0.131238 0.0891268)
(8.77339 0.0343604 0.00770413)
(3.05408 3.04684 -0.000137833)
(2.90739 -2.90754 0.00163368)
(8.26192 -0.00148481 0.0161202)
(7.917 0.021616 -0.0329305)
(6.80546 4.42 -1.18554)
(8.69275 0.102392 0.00916389)
(8.37437 0.215465 0.184543)
(8.4806 0.0110977 0.025624)
(8.97092 0.179669 -0.11419)
(8.72356 -0.0151813 0.0138793)
(8.15952 -0.0125337 0.0326992)
(8.29473 -0.00909979 0.00964917)
(8.83539 0.0267382 -0.0555666)
(2.90728 -2.90692 -0.000683006)
(2.90225 -2.90134 0.00163907)
(8.6893 0.0956138 0.0298185)
(8.95316 -1.76777 0.126693)
(8.13926 0.0300568 0.0536289)
(2.90723 -2.90764 0.00139815)
(8.73968 -0.0476131 0.00469214)
(3.07864 3.08377 0.0169)
(8.6677 0.000638255 -0.00474364)
(8.59194 -0.0446424 -0.0552936)
(3.00763 2.69118 -0.0632447)
(3.06525 3.06418 -0.000574763)
(8.73334 -0.0240172 -0.00245229)
(8.0684 -0.0443216 0.0101714)
(7.7324 -0.230064 -0.245307)
(8.25785 -0.00655129 0.0151285)
(8.67669 0.0121936 -0.0047331)
(8.09098 -0.00493213 0.0326926)
(7.96643 -0.0416264 0.0177717)
(2.9353 -2.91951 0.00234436)
(7.65923 -0.00741137 0.0230987)
(2.91873 -2.90923 -0.00352615)
(3.07904 3.06596 0.0127152)
(8.52712 0.0320594 0.0251525)
(2.90949 -2.90746 0.00105455)
(2.93469 -2.91923 -0.00144375)
(4.0283 3.17168 0.188145)
(3.03344 3.04624 -0.00589243)
(3.07179 3.06447 -0.00728219)
(8.33444 -0.0209939 0.0407942)
(2.31549 -1.62905 -0.435319)
(3.84136 3.30511 0.116451)
(7.73545 -0.0021437 0.0377715)
(2.90694 -2.90578 -0.00102436)
(8.77734 0.660834 -0.238064)
(8.76053 0.169277 -0.0867358)
(8.67332 0.0979655 0.0289248)
(2.89415 -2.8869 -0.014292)
(3.94554 3.43214 0.353366)
(3.68256 3.28637 0.154865)
(8.76082 0.0261055 -0.0164411)
(3.06758 3.06728 -0.00095571)
(8.69603 0.0208111 0.00144879)
(8.63826 0.0402868 0.0234455)
(8.49091 0.0382711 0.0363193)
(6.65574 0.00072223 0.0277604)
(8.70741 0.0454323 0.0110417)
(8.63332 0.0445484 0.0283191)
(8.22915 0.00869682 -0.0345526)
(8.60202 -0.0164985 0.00904147)
(8.50776 -0.00445062 0.0214485)
(3.06827 3.06853 -0.000635433)
(2.90723 -2.90849 0.000261876)
(3.05973 3.06141 0.00640337)
(8.71158 0.0380991 0.00650563)
(8.23298 0.0143803 -0.0312653)
(2.8968 -2.89532 0.00184707)
(5.69002 -0.0333692 0.0575359)
(8.49453 0.0408204 0.0192178)
(9.30575 0.37639 0.163266)
(8.75946 0.0258813 -0.0172875)
(8.71955 0.0268768 -0.00694594)
(8.07887 0.00252557 -0.0156887)
(9.39293 0.460464 0.112932)
(2.89112 -2.91839 0.0112519)
(2.90523 -2.90787 0.00274205)
(8.74481 0.025053 -0.0168976)
(8.56666 -0.0307071 -0.0317436)
(9.45531 0.518682 0.122789)
(9.32617 0.454079 0.169067)
(8.10702 0.0119866 0.0415444)
(8.72533 0.109093 -0.039411)
(3.0272 3.0525 0.000508202)
(9.56642 0.641665 0.151882)
(9.12736 0.462331 0.140531)
(3.06321 3.06503 0.000837912)
(2.90191 -2.90128 0.000220961)
(6.95407 0.00856584 -0.0541467)
(3.06652 3.06787 0.000382843)
(8.68039 -0.0188906 -0.00363438)
(8.351 0.00461415 -0.0192309)
(3.06574 2.99246 -0.0167807)
(3.14438 -2.8855 0.0312876)
(2.90131 -2.88633 -0.00512776)
(3.02165 2.85421 -0.0295101)
(3.16079 -2.9092 0.051138)
(2.90488 -2.90671 0.00259652)
(8.69165 0.0332574 0.00976156)
(8.70643 0.0209356 -0.0164614)
(8.67498 0.0271781 -0.00869408)
(8.5654 -0.0254777 0.0307793)
(8.25409 -0.0202756 0.00679061)
(8.28238 0.0140133 0.0261631)
(7.34431 0.095665 0.0101699)
(2.90222 -2.8921 3.75068e-05)
(8.02017 0.0013436 0.0103141)
(3.13703 -2.90863 0.0317479)
(2.92843 -2.93353 -0.00147682)
(8.35227 0.0158878 0.0297876)
(8.77523 -0.106718 -0.0392283)
(8.68971 0.0175769 -0.0399272)
(8.3428 -0.00981433 0.0111357)
(8.49683 -0.00600929 0.0097975)
(2.9018 -2.89702 0.00718105)
(8.33314 -0.0378125 0.00600796)
(8.31021 -0.00882683 -0.0525524)
(5.82081 1.86648 0.245859)
(8.51854 -0.0687861 0.00524642)
(8.63935 -0.0145742 0.0083459)
(2.91572 -2.89931 -0.00468606)
(8.31621 0.0205292 0.0296475)
(8.73033 0.0207574 -0.00721676)
(3.19115 -2.87547 0.0147042)
(8.37735 0.0208025 0.0321413)
(8.79376 -0.00647926 0.0446989)
(8.22897 0.0092867 -0.035964)
(8.29172 0.0217698 0.0389648)
(3.15775 -2.91877 0.0412573)
(2.90026 -2.90041 -0.00079237)
(8.28941 0.0221986 0.0418595)
(5.4436 3.42084 -0.337154)
(8.89478 0.0386147 -0.087965)
(3.06499 3.06607 -0.00188253)
(8.34116 0.0165654 0.0347909)
(8.34804 0.00620995 0.00492551)
(8.84559 -0.0284879 0.0554251)
(2.90936 -2.90804 0.00112912)
(7.78675 -0.0023065 0.0213331)
(8.73875 0.125537 0.065546)
(4.81201 3.23624 -0.352523)
(3.06658 3.0671 -0.00226685)
(3.06323 3.06492 0.000829475)
(8.93655 -0.0578164 0.0850775)
(8.34414 0.198873 -0.0239199)
(3.22161 2.72229 -0.0622078)
(3.60721 -2.79306 0.114626)
(8.3732 0.00840964 0.015001)
(8.64687 0.0152963 -0.000937967)
(8.73272 0.0190717 0.00823625)
(3.17494 2.76574 -0.0815197)
(3.0683 -2.82387 -0.0108174)
(8.4072 0.100286 -0.119607)
(2.9066 -2.90641 0.00173583)
(7.97113 0.0106434 -0.0510581)
(8.27903 0.0056151 0.0344588)
(8.36974 0.00405956 0.0188519)
(8.38038 0.017084 0.0215529)
(8.41443 0.00927553 0.0288076)
(3.05492 3.05554 0.00946592)
(6.33356 -0.0190088 -0.247091)
(8.5145 0.0190621 0.0332234)
(3.05021 3.05543 -0.00367157)
(3.06505 3.06699 0.00025707)
(8.87473 -0.108415 -0.0105952)
(8.67284 0.0389882 -0.0129987)
(3.1381 2.67578 -0.0833673)
(7.8941 -0.00320848 0.0242208)
(8.49797 0.0240173 0.0220531)
(2.90888 -2.90747 -0.000856365)
(3.87207 3.65013 -0.0235558)
(8.73113 0.0799893 -0.0352706)
(2.92004 -2.882 0.0015869)
(3.23213 -2.28981 -0.0546477)
(4.44848 -1.54977 -0.15763)
(2.91201 -2.90372 -0.00144251)
(8.54827 -0.0152896 -0.0165794)
(8.30967 -0.0132814 -0.0164274)
(8.65543 0.0139278 -0.0215903)
(2.90529 -2.90575 -0.000209467)
(8.56667 0.0240863 0.0202417)
(2.91027 -2.91103 0.000228618)
(2.90958 -2.91055 0.000719593)
(2.90168 -2.89037 0.00478529)
(5.84082 0.022501 -0.0909646)
(8.7975 -0.0423712 0.0500006)
(8.37298 0.0310301 0.043169)
(8.533 0.0286844 0.0138437)
(8.83018 -0.0512536 -0.00204707)
(8.49318 0.0126817 0.0151648)
(8.70633 0.0314658 0.0109525)
(8.76929 0.149507 -0.014386)
(8.5823 0.0110752 -0.0038529)
(8.65674 0.0153292 -0.00426581)
(3.11805 3.06844 -0.00187393)
(2.89792 -2.89807 -0.00380697)
(5.33644 0.0343152 -0.129706)
(8.70553 -0.0193508 0.00204308)
(8.77481 0.0663405 0.0711312)
(8.28375 -0.010591 -0.0136498)
(2.90993 -2.90823 0.000779237)
(8.65984 0.0275848 0.0160179)
(8.69612 0.0442611 0.0213929)
(8.52012 0.0197394 0.0110249)
(7.4906 -0.00782327 -0.0400498)
(7.85247 -0.0892069 -0.197305)
(8.64613 0.0270086 0.00991457)
(8.5092 0.0241086 0.0155607)
(8.66385 0.0666284 -0.0422396)
(3.06559 3.06581 0.000358948)
(7.94747 0.0445973 -0.00272688)
(3.06453 3.06491 -0.000938363)
(2.48969 1.89789 -0.393654)
(3.27992 -2.09405 -0.214724)
(9.00596 -0.0837795 0.115982)
(8.83275 -0.0513328 -0.00174683)
(8.62367 -0.0038063 0.00162954)
(2.91172 -2.90436 -0.000875525)
(3.05225 3.07015 0.0252825)
(8.64971 0.0290727 0.0142297)
(8.27919 0.0183786 -0.0115887)
(2.89849 -2.89767 0.000850275)
(2.91003 -2.90787 0.00238503)
(2.84313 -2.85963 0.01848)
(8.21455 0.0113383 -0.00453407)
(8.61744 0.00976003 -0.00910486)
(8.22331 0.0023148 0.0300679)
(7.95259 0.0141616 -0.0427357)
(8.78487 0.0199944 -0.0208907)
(3.51019 3.01392 0.0834652)
(3.05903 3.06638 0.00557738)
(2.9067 -2.90308 -0.00134951)
(8.61327 0.0333669 0.0231446)
(5.57912 -4.72236 -0.336987)
(8.20593 -0.00987689 0.0121163)
(8.94216 -0.0629245 0.196797)
(7.19812 0.00544274 -0.149879)
(3.06681 3.0662 -0.000456725)
(2.90505 -2.90826 0.00203434)
(2.90985 -2.91102 -0.00141201)
(3.85995 3.24038 0.198458)
(8.72568 0.0263831 -0.00339853)
(8.80113 -0.0510401 0.00632348)
(3.07086 3.07874 0.000996385)
(8.66756 0.0242758 -0.00135191)
(3.23672 2.62524 0.184636)
(2.91211 -2.87901 -0.0071394)
(8.87974 -0.0305274 0.0727831)
(8.64462 0.0322246 0.0159785)
(8.83414 -0.0120364 0.0208327)
(8.67065 0.0248506 0.000701858)
(2.94661 2.61491 0.158567)
(3.82108 3.29037 0.20921)
(3.0585 3.06241 -0.00437748)
(8.65737 0.0303631 0.0115358)
(8.64597 0.0251239 -0.00158894)
(8.80359 0.156225 -0.053374)
(3.03088 3.02399 0.00551752)
(6.0454 5.35367 -1.28039)
(8.25453 0.0820209 0.0754199)
(8.80692 -0.0419604 0.0208683)
(8.66719 0.0312731 0.0195828)
(8.25149 0.860418 -0.0671386)
(8.78386 0.0188891 -0.0245491)
(3.05345 3.05349 0.00133554)
(8.78592 0.0213885 -0.0132258)
(8.44053 0.0119955 0.0177316)
(8.88699 -0.210471 -0.00214283)
(8.90779 -0.0536054 0.1091)
(8.61 -0.069834 -0.0637316)
(3.05196 3.06536 -0.0114499)
(2.90347 -2.90668 -0.00548024)
(3.07106 3.05315 0.0116633)
(2.88503 -2.89336 -0.0005697)
(8.78818 -0.0415354 0.000574436)
(8.70862 -0.0129404 0.00338133)
(8.71228 0.0420395 -0.0336518)
(8.77788 0.024299 -0.0272492)
(3.0404 3.04348 -0.0131787)
(8.69077 -0.0642016 -0.0235446)
(3.06207 3.06295 0.00109899)
(2.89653 -2.90483 0.000137104)
(8.7794 0.0248122 -0.0182078)
(2.67446 -2.67738 0.0386285)
(4.82188 -0.851237 -0.0679226)
(2.87333 -2.8626 0.00241892)
(3.09113 3.05003 0.024434)
(8.69653 0.0158127 -0.0123869)
(3.06451 3.06282 0.00111316)
(8.5904 0.024577 -0.00556203)
(8.16889 0.00471227 -0.0379835)
(3.06988 3.07 -0.000685788)
(7.86513 -0.00345601 -0.0374275)
(8.54881 0.0153654 0.0122458)
(3.08865 2.71122 -0.0992)
(8.51108 0.03826 0.042637)
(8.04645 0.0429155 -0.00378315)
(8.56591 0.0406219 0.0120207)
(7.98198 0.0309067 0.100909)
(8.64447 0.0250435 0.00425061)
(8.25519 0.00217603 -0.0162494)
(3.03128 2.59385 -0.0130593)
(2.89727 -2.89188 0.0173782)
(7.39566 0.0117206 0.173569)
(3.04373 3.05432 -0.0173581)
(8.55058 0.046328 0.0408194)
(8.88597 -0.0452254 0.0891682)
(3.07852 2.9441 0.0245563)
(3.05791 3.07085 -0.000862785)
(8.76321 -0.0177869 0.00675318)
(8.44642 -0.039897 -0.0872559)
(8.46782 0.0452304 0.0013719)
(8.77745 0.020297 -0.00773952)
(3.06512 3.06066 -0.0014995)
(8.92489 -0.025352 0.144295)
(8.79108 -0.0300821 0.0443198)
(3.07427 3.06905 -8.49643e-06)
(8.60343 0.133682 0.109068)
(8.21581 -0.033548 -0.0889394)
(2.90261 -2.90214 -0.000701832)
(2.89932 -2.89925 0.000924231)
(8.57957 0.0261993 -0.00913862)
(8.63092 0.00733373 -0.0129186)
(3.07745 3.07756 -0.00389109)
(2.90527 -2.89932 -0.00448842)
(5.13745 -2.75816 0.630405)
(2.90909 -2.91104 0.000609555)
(8.62826 -0.00336459 0.0158755)
(3.04462 3.05616 0.00706235)
(2.91004 -2.91092 0.000220419)
(8.83839 -0.0127554 0.0280247)
(8.00847 -0.0936247 -0.231765)
(8.74227 -0.052284 0.0118599)
(8.4458 -0.000976554 0.0162041)
(3.07191 3.06979 0.000185347)
(3.97134 3.06496 0.153359)
(8.44326 0.112993 0.161044)
(3.72294 3.28537 0.173611)
(8.41707 0.0359719 0.0660879)
(8.38392 -0.071701 0.00704927)
(8.75203 -0.0253122 -0.0234047)
(6.09119 0.200454 0.225857)
(3.65354 3.15027 0.157993)
(8.74102 0.0141486 -0.0828128)
(8.85375 0.27459 -0.0887317)
(2.90495 -2.91021 0.00535905)
(8.82724 0.0230482 -0.0874037)
(8.83937 -0.0395392 0.032576)
(2.9104 -2.90979 0.00298341)
(8.51769 0.489475 -0.261771)
(7.44546 0.000390456 -0.102471)
(3.86332 3.04239 0.12774)
(8.80421 -0.0219837 0.036176)
(8.69728 0.0138492 -0.00972561)
(8.64932 0.0236277 -0.00624682)
(3.06457 3.06195 -0.000865739)
(8.61104 -0.0128276 0.0597026)
(8.83625 -0.00375447 0.0283821)
(8.57914 0.0841376 -0.00850799)
(5.41412 -0.0728714 0.091316)
(3.722 3.5113 -0.0722204)
(5.10861 -0.130247 0.172103)
(2.90424 -2.90815 0.00213413)
(7.93842 -0.269063 -0.262934)
(8.61293 -0.0144335 -0.0567346)
(3.066 3.06375 0.00485403)
(8.19325 0.0206287 -0.0628642)
(6.74889 -0.017429 0.12369)
(3.96626 3.5109 -0.0363598)
(2.90714 -2.90519 0.000184448)
(3.40883 -2.89139 0.0942949)
(2.90941 -2.90824 -0.000364239)
(8.54908 0.0474773 -0.00610517)
(8.63719 0.0464757 -0.0148695)
(8.55993 -0.0244664 -0.0250039)
(8.03973 0.0222438 -0.0451276)
(8.7646 -0.179185 -0.0369869)
(3.06335 3.05012 -0.00583018)
(8.50318 0.000325764 -0.0213919)
(2.91574 -2.89437 0.000363003)
(8.41512 0.0314755 0.0202039)
(3.07537 3.07575 -0.00132777)
(2.90723 -2.90464 6.68541e-06)
(2.87752 -2.88566 -0.00387093)
(8.27011 -0.0556546 0.0119922)
(2.89665 -2.89776 -0.00245567)
(2.90875 -2.90902 0.00127066)
(3.02332 2.01938 -0.122931)
(2.90931 -2.91113 0.00101843)
(3.03263 3.07463 0.0289111)
(8.47592 -0.0312854 -0.0133874)
(3.06659 3.06234 0.00113575)
(3.63167 2.68467 0.00520922)
(3.06695 3.06882 0.00367544)
(2.89829 -2.8884 -0.0011248)
(3.06598 3.05491 -0.00422638)
(2.89714 -2.88243 -0.014742)
(3.0479 3.05019 3.31342e-05)
(7.71217 0.0022125 -0.0662941)
(3.07064 3.05439 0.0122223)
(7.90919 0.117665 0.160475)
(8.65789 0.0116409 -0.00339643)
(8.92982 -0.368572 -0.0609111)
(3.07318 3.05781 -0.000700625)
(7.53432 0.0218075 0.125856)
(3.07067 3.05995 0.0029578)
(2.90992 -2.91113 -0.00127082)
(8.53338 -0.0814354 -0.0878308)
(8.54533 -0.0659435 -0.0794691)
(8.56404 -0.0185645 -0.0237078)
(8.94741 0.0230777 -0.152338)
(3.52036 2.96515 -0.0975343)
(8.76735 0.00965331 -0.0473657)
(8.76185 0.0143757 -0.0440047)
(8.66098 0.0157999 -1.19859e-05)
(8.51996 0.00958274 0.00274891)
(8.67502 -0.0887064 -0.061077)
(2.89669 -2.89822 -0.000774126)
(8.66901 0.0121727 0.000227687)
(4.0062 3.49168 -0.0253803)
(8.6381 0.0217366 -0.0120679)
(3.06177 3.05837 -0.00109795)
(8.79574 0.0283831 -0.03885)
(3.96312 3.29412 0.0300484)
(8.67735 0.00769871 -0.0127021)
(8.70281 -0.0413774 0.0319309)
(3.35974 -1.68552 -0.0206573)
(3.06696 3.06911 0.0341691)
(8.53218 0.0152377 0.014957)
(2.90631 -2.90522 0.000635635)
(8.83329 0.0364739 -0.0575254)
(8.76755 0.0339831 -0.0374478)
(3.06377 3.05462 -0.0244092)
(3.05715 3.05596 0.00754926)
(2.99931 2.69163 -0.0598433)
(3.06351 3.06578 0.00147401)
(6.13207 -0.327892 0.166702)
(8.83837 0.0304489 -0.0552663)
(3.10926 3.03613 -0.00220459)
(3.05966 3.06396 0.00303189)
(7.53578 0.00997162 -0.0179531)
(3.0684 3.06801 0.000175081)
(8.70193 0.0240628 -0.0316391)
(3.06618 3.06547 0.000273576)
(8.62036 -0.0529247 -0.0362332)
(2.91023 -2.91025 0.000566323)
(8.08356 -0.0411173 -0.123073)
(6.67672 -0.0269081 0.00725087)
(8.09715 0.0256112 -0.0174196)
(8.68036 0.0098844 -0.0137556)
(3.07762 3.05507 -0.0100176)
(7.86811 0.00806497 -0.00114066)
(3.07142 3.06056 0.00276067)
(3.06689 3.06775 -0.00833226)
(8.58002 -0.0232742 -0.0139646)
(3.06297 3.05934 -0.00140124)
(7.29829 0.00116068 -0.0745889)
(2.95766 2.72336 -0.0900593)
(8.71289 0.0220649 -0.0284642)
(2.89977 -2.90283 0.000278517)
(8.787 0.0217459 -0.0193573)
(2.91143 -2.90873 0.00041028)
(3.636 3.21985 0.0930972)
(8.88336 0.32263 -0.0199756)
(8.53694 -0.0730859 -0.0921516)
(8.66518 0.0364602 2.75421e-05)
(8.73759 -0.0993238 -0.0650819)
(8.62716 0.0166433 -0.00974937)
(8.82371 -0.0627884 -0.00625861)
(3.04424 3.06758 -0.0136328)
(8.65976 0.0489059 0.0271977)
(8.57181 -0.0859489 -0.0889505)
(3.06538 3.06722 -0.0016747)
(7.27212 -0.106492 -0.281551)
(8.85616 -0.0642518 -0.0440518)
(8.50437 0.0365215 0.0323635)
(3.03288 2.99153 -0.01713)
(3.76711 0.760392 -0.594255)
(8.32233 0.0211452 0.0272015)
(6.8078 -0.0269151 0.0690342)
(7.06275 1.82445 -0.0147997)
(3.77383 -1.91109 -0.157375)
(8.8064 -0.101682 -0.0228959)
(8.2633 0.0317554 0.0611959)
(8.53135 -0.0807777 -0.0889269)
(8.69497 -0.0488301 -0.0184954)
(8.55213 0.0500936 0.0211701)
(7.59731 0.989212 -0.0443468)
(3.78605 3.21454 0.0264466)
(7.72131 -0.291061 0.0661607)
(7.4546 -0.646923 0.157283)
(2.90388 -2.90549 0.00143253)
(7.60428 0.0534332 -0.0224451)
(3.08141 3.02352 -0.015826)
(3.5935 3.26868 0.0305741)
(8.62212 0.0195921 -0.00373613)
(7.65458 1.30242 -0.0453984)
(9.20109 -0.781627 -0.141686)
(8.2904 -1.42696 0.0312243)
(3.58392 3.40656 -0.250537)
(8.77042 -0.0543288 -0.0172389)
(8.65346 0.0504962 0.0389218)
(3.05884 3.0503 -0.00151622)
(3.94186 2.19774 -0.0911306)
(8.65329 0.0648091 0.0401734)
(2.9076 -2.89635 0.0031639)
(3.06529 3.06397 -0.000644076)
(3.05576 3.05461 -0.000282051)
(3.06904 3.05309 0.00357652)
(8.76768 -0.0908795 -0.0418063)
(3.06616 3.06538 0.00193569)
(2.91735 -2.91718 0.0154184)
(8.61059 -0.0530471 -0.0433524)
(7.91762 -0.00303402 -0.0243094)
(4.28184 -3.74819 -0.198567)
(8.65377 0.0632709 0.0386916)
(3.56556 2.88477 0.064666)
(8.70092 -0.0357991 -0.0198365)
(2.85051 -2.84862 -0.013383)
(3.05857 3.06468 -0.00227024)
(8.74543 -0.0556894 -0.0159733)
(3.06468 3.04712 -0.0120579)
(3.06672 3.05964 0.00173653)
(3.51039 3.35985 0.0968889)
(8.22209 -0.00653928 -0.00553067)
(5.03946 4.22135 -0.559141)
(8.61758 -0.0361514 -0.0174861)
(8.62066 0.0189947 -0.00534806)
(2.88175 -2.86299 -0.0230237)
(8.94407 -0.0235181 0.284241)
(8.19343 -0.0503687 -0.123128)
(8.58583 0.00152377 -0.00412209)
(8.69042 0.156834 0.0154659)
(8.73698 0.085519 -0.187244)
(7.50928 0.0038419 -0.0708839)
(3.06021 3.05691 0.00174418)
(8.75616 0.00955337 0.0239896)
(8.69072 0.0358106 -0.00561879)
(2.87914 -2.91723 0.00575326)
(8.08094 -0.00596241 -0.00212538)
(8.77078 0.048387 -0.0176692)
(8.76989 0.0403381 -0.014555)
(7.96241 -0.0345508 -0.0790964)
(8.76628 0.0384299 -0.0164721)
(8.77123 0.0460073 -0.00460003)
(2.91284 -2.8742 0.0177601)
(8.76959 -0.0185886 0.044909)
(7.25676 -0.0454512 -0.013301)
(3.6898 3.20605 0.203528)
(8.76515 0.0314728 -0.0215877)
(8.3639 0.00961325 -0.0198758)
(4.90434 3.99611 -0.601948)
(8.62903 0.010915 -0.00151891)
(8.77033 0.0287517 -0.0265226)
(8.36709 0.00280906 -0.0350386)
(8.6983 0.0389356 0.00325581)
(8.59791 0.085905 0.0381656)
(8.64985 -0.00158085 0.0120209)
(2.99906 2.93131 0.00446152)
(8.69622 0.0460014 0.00538655)
(8.16337 -0.0540316 -0.110688)
(3.2576 -1.95151 0.0765017)
(8.65508 0.0747678 0.0460488)
(8.54379 0.0710327 0.06968)
(8.67114 0.0281824 0.00227726)
(3.06064 3.05342 0.00270318)
(8.40642 0.0487279 -0.0800678)
(2.90697 -2.89436 0.00722466)
(3.06616 3.06639 -0.00208224)
(3.04994 3.02893 -0.00125193)
(3.07081 3.05316 0.000649323)
(7.27636 0.00446369 -0.0334323)
(3.64898 3.14401 0.126498)
(6.5689 -0.462603 0.542858)
(2.89229 -2.89345 -0.000227992)
(3.05917 3.10015 -0.00462084)
(8.6644 0.086477 0.0443379)
(8.71792 0.0226469 -0.0405094)
(2.90915 -2.90936 6.77468e-05)
(8.72697 -0.0528929 -0.00579419)
(2.90725 -2.90528 0.00846878)
(2.90926 -2.90723 -0.00111574)
(2.86067 -2.86102 0.00853786)
(8.85695 -0.0721353 -0.010205)
(7.3723 0.0422679 -0.0202029)
(3.61161 3.25555 0.0405101)
(2.93645 -2.90388 0.00781795)
(3.06127 3.07128 -0.00405591)
(3.06307 3.06497 -0.000726956)
(8.9134 0.0178553 -0.0980091)
(8.65263 0.0171876 0.000866406)
(3.63914 3.42256 0.157256)
(8.81496 0.0279929 -0.0482381)
(8.19886 -0.114852 -0.341216)
(3.05959 3.06099 -0.00157403)
(8.79197 0.0242961 -0.041921)
(8.05995 0.00620275 0.0430929)
(8.55682 0.0453073 -0.0516815)
(3.07064 3.069 -0.000222581)
(3.06153 3.05898 0.000342769)
(8.49464 0.051473 0.0519382)
(8.68202 0.0213817 -0.00275724)
(3.61953 3.29374 0.0514265)
(3.05157 3.0526 0.000264872)
(3.10112 3.0116 -0.00883791)
(8.62938 -0.0162427 0.00737768)
(2.90478 -2.90474 -0.00320084)
(2.90049 -2.88935 0.00223999)
(3.04775 3.04829 0.000141274)
(8.78915 0.0270729 -0.0368103)
(7.68232 -0.038397 0.0136777)
(3.06895 3.06928 7.65757e-05)
(3.40139 0.695272 0.595748)
(3.69274 -0.385197 -0.146224)
(8.50056 0.0458872 -0.00265437)
(3.05991 3.06493 -0.00137442)
(3.06594 3.06041 -0.00235912)
(8.81827 -0.111153 -0.0166122)
(8.44623 0.143591 0.135769)
(3.67059 3.28152 0.154531)
(5.33466 1.74462 0.1244)
(8.32912 0.191611 0.240435)
(7.96771 0.0242713 -0.056309)
(8.47312 0.00579133 -0.00721763)
(3.16792 2.97533 -0.00758375)
(8.42399 0.0252178 -0.00353171)
(8.7312 -0.0589122 0.0626336)
(3.07098 3.06344 -0.00327713)
(2.88613 -2.83574 0.00509469)
(3.04954 3.05127 0.000438165)
(3.05995 3.05969 -0.000632056)
(3.06564 3.07052 -0.00361329)
(3.06973 3.07085 -0.000621745)
(8.8067 0.0258182 -0.0390632)
(2.90709 -2.90638 0.00188686)
(3.05788 3.05853 0.000460384)
(3.04821 3.00824 -0.0040376)
(8.81471 0.0278379 -0.049431)
(8.67523 0.02017 0.00032966)
(2.91987 -2.87998 -0.000910053)
(2.87196 -2.84286 0.00364294)
(8.8843 -0.0428862 0.0770743)
(8.44167 0.00381604 0.00781794)
(8.42899 0.00746408 0.012474)
(2.90822 -2.90047 -0.00162309)
(3.05594 3.05604 0.00208389)
(8.43567 0.00485919 0.0117675)
(2.90902 -2.90667 4.89257e-05)
(8.33243 0.0232893 0.00231014)
(8.52398 0.0141079 0.0296466)
(8.54706 0.0297408 0.00967951)
(2.91649 -2.8948 0.00828652)
(2.90843 -2.9099 0.000555007)
(2.90794 -2.90988 0.000199007)
(3.0662 3.06652 0.000876674)
(8.64141 -0.0416884 -0.0241445)
(3.0627 3.06564 0.00128913)
(3.05711 3.05438 -0.000134468)
(8.59921 0.0230604 -0.0341895)
(2.90865 -2.90959 0.00123744)
(8.4731 0.00137696 0.0100155)
(7.73213 -0.0672276 0.0264653)
(3.08367 2.97981 0.0159542)
(8.66474 0.024875 -0.00888345)
(4.08753 0.626787 -0.107915)
(8.55511 0.00909298 0.00460508)
(8.84428 -0.0296658 0.0198794)
(7.80044 0.03208 0.0111736)
(8.84533 -0.00121899 0.0576098)
(6.38432 0.13999 -0.242427)
(3.64553 2.91921 0.0587748)
(8.53575 0.00529855 0.00329483)
(8.87987 0.070446 0.0109936)
(8.67005 -0.0208806 -0.00896096)
(3.13909 2.7327 -0.0915417)
(3.88048 0.38507 -0.198117)
(4.62213 -0.312141 0.154608)
(8.54542 0.0123023 0.00654603)
(3.05728 3.0618 0.0040706)
(8.37909 -0.0193621 -0.0620816)
(8.55847 -0.00721833 -0.020094)
(8.30848 -0.0741104 -0.134391)
(3.17774 -2.24405 -0.170552)
(2.90919 -2.91032 0.00142933)
(2.90612 -2.90615 -4.63053e-05)
(8.71097 -0.0285501 -0.00329408)
(3.572 2.96262 -0.0383905)
(8.26755 0.0288537 0.0134543)
(3.32413 3.02839 0.0421928)
(8.22453 -0.0178009 -0.0594489)
(8.45701 -0.0176039 0.00872709)
(8.36908 -0.0103792 0.0298012)
(8.6799 0.0222033 -0.00433098)
(3.05698 3.05694 -0.00101552)
(3.04373 3.03425 -0.00570715)
(3.1073 -2.82975 0.0140507)
(8.66535 0.0300639 0.00605484)
(3.06966 3.06089 -0.000597741)
(3.53635 3.04362 -0.134196)
(8.85384 0.16552 -0.139227)
(3.07513 3.07136 -0.00179836)
(3.05112 3.06617 0.00924824)
(2.8926 -2.88365 -0.00476854)
(3.0677 3.06854 0.00089135)
(8.27801 -0.00319601 0.0282379)
(3.12784 2.97122 0.00605884)
(3.06647 3.06337 0.000908706)
(7.03151 0.998398 -0.730847)
(3.58465 2.90342 -0.039866)
(3.05167 3.05326 -0.0253992)
(4.19292 -2.46609 0.15531)
(3.06399 3.06042 -0.00330663)
(6.7523 0.026931 -0.0598547)
(8.44018 -0.0146917 0.0234678)
(2.89751 -2.89788 -0.000176508)
(8.29445 0.00859973 -0.0219624)
(8.38233 1.36468 -0.185593)
(8.2482 -0.0804056 -0.132919)
(9.07498 0.342678 0.00828551)
(8.15553 0.00718099 -0.01332)
(3.0631 3.04207 0.0096971)
(8.56235 -0.0827714 -0.0928107)
(8.86636 -0.0283555 0.0189714)
(8.246 -0.0809151 -0.1334)
(2.90638 -2.90733 -0.000194998)
(8.99273 2.36546 0.629973)
(8.25818 0.0122998 0.0127065)
(4.07511 3.25744 -0.192587)
(8.2011 0.00349827 0.00922695)
(8.95325 0.113196 -0.0851028)
(8.54316 0.173578 0.00945523)
(8.47554 -0.0255815 -0.0335001)
(8.47926 0.0284643 0.00107974)
(9.02444 0.133453 -0.049904)
(8.70178 -0.0153439 -0.0140761)
(8.61523 -0.0122468 0.00907087)
(3.03962 3.05126 0.0114702)
(3.05066 3.03571 0.00943582)
(8.31705 0.0226846 0.0117728)
(8.17687 0.0105851 0.0105189)
(3.05874 3.066 -0.00131805)
(8.43424 0.00816806 0.000309249)
(8.83524 -0.0418261 0.00549942)
(8.63789 -0.0211607 0.00760346)
(3.06426 3.03293 -0.00114225)
(8.51369 0.173342 0.0383132)
(3.05649 3.05401 0.000164907)
(8.61983 -0.0119064 0.0076242)
(8.64803 -0.0136299 0.00574908)
(3.064 3.06268 -0.000282977)
(8.26391 0.0448528 -0.0213221)
(8.62489 -0.0101674 0.00132958)
(8.47894 0.161777 0.0141643)
(8.3433 0.0020764 0.0340651)
(3.12612 3.06761 -0.00467545)
(8.7191 -0.0235043 0.0259938)
(8.50482 0.197486 0.00246735)
(8.966 -0.206438 0.0579996)
(7.54609 0.0991788 0.0259405)
(6.73352 0.0212845 -0.0953905)
(3.06592 3.03441 -0.00549239)
(3.0558 3.05301 0.00221359)
(8.36375 0.115819 0.0151112)
(3.06787 3.06805 -0.00101438)
(7.30037 -0.0207621 -0.0181086)
(8.40403 -0.0450629 -0.0660573)
(5.12945 0.726882 -0.186044)
(9.30468 -0.594824 0.227516)
(8.21174 -0.365745 0.110556)
(9.14138 -0.324203 0.0914746)
(3.06725 3.06744 -0.000938833)
(4.15448 3.52975 0.0291816)
(8.70019 0.0215273 -0.00671389)
(2.89443 -2.9061 -0.00986938)
(1.59236 -1.11047 0.477387)
(8.60842 -0.165767 -0.129149)
(3.05379 3.04633 -0.00606341)
(3.06927 3.06573 0.000295206)
(7.68504 -0.148237 -0.00233074)
(6.2853 -0.407452 0.0833209)
(3.06842 3.06873 -0.000382637)
(7.78174 -0.144939 0.0254502)
(3.05519 3.05263 0.00125374)
(3.06395 3.0688 -0.00505405)
(2.90576 -2.90601 -0.000572402)
(2.90947 -2.90301 0.00593148)
(2.85131 -2.82703 0.00945595)
(2.90351 -2.89781 -0.000353392)
(7.76391 0.0645756 -0.0292179)
(3.04282 3.02252 -0.00364273)
(3.06298 3.06433 0.00104015)
(3.04666 3.06281 0.00545599)
(7.23167 -1.59353 -0.414512)
(8.19318 -0.0680597 -0.150332)
(7.9308 0.000147749 -0.0831073)
(8.70089 0.0203568 -0.00749955)
(3.04855 3.02887 -4.20255e-05)
(3.0766 3.06537 0.000167092)
(8.3346 -0.143298 -0.174752)
(3.06622 3.06721 -0.00354757)
(3.0636 3.06054 0.000899296)
(4.86927 2.80799 0.102322)
(8.87372 -0.121707 -0.00743963)
(8.68406 0.0196732 -0.00860654)
(3.06228 3.06159 -0.000292949)
(3.06024 3.0549 0.00448086)
(3.04869 3.04038 -0.00396923)
(3.05353 3.04724 -0.00043634)
(3.06698 3.06576 -0.00335475)
(3.07398 3.0652 0.00185498)
(8.68926 -0.203572 -0.128569)
(3.07078 3.06197 -6.3307e-05)
(6.02929 0.087065 0.202783)
(8.76214 -0.0200301 0.022902)
(3.06372 3.06809 -0.000851692)
(2.88612 -2.89775 -0.00789265)
(2.86651 -2.83689 0.00341211)
(7.34516 0.086467 0.39793)
(2.84563 -2.84259 -0.0117251)
(2.9044 -2.90685 0.00295326)
(3.04654 3.0517 -0.019148)
(7.87246 -0.123182 0.00773646)
(3.0541 3.05305 0.000281417)
(8.63682 -0.113625 -0.0716602)
(6.87641 0.113099 -0.0353686)
(5.67517 0.0071769 0.226795)
(3.0553 3.05759 0.000874617)
(5.90685 -1.50673 0.120134)
(8.7044 -0.0159142 0.00277605)
(8.7678 0.0208725 -0.0229228)
(3.12363 -2.9806 -0.0338724)
(8.42941 -0.136416 -0.0223026)
(8.605 -0.0165583 -0.0091936)
(2.90968 -2.88919 0.00289445)
(3.16607 3.0044 0.0147929)
(4.11063 -3.16609 -0.265043)
(3.04765 3.04664 0.00105002)
(8.70467 0.0171071 -0.0022281)
(8.69718 -0.0109041 0.010279)
(8.84451 -0.106706 0.0443715)
(5.81963 -0.00653144 0.318528)
(3.06953 3.0678 -0.000324839)
(8.7076 0.0172596 -0.00382376)
(3.14517 2.99402 -0.00750885)
(3.8272 3.23993 -0.0132922)
(3.91353 -3.04383 -0.125742)
(3.06358 3.06408 0.00119758)
(8.72741 0.0262285 -0.00557335)
(3.0543 3.04727 0.00195986)
(2.87592 -2.82351 0.00153538)
(7.9558 -0.109574 -0.199934)
(8.54183 -0.0192553 0.0102546)
(2.87763 -2.82973 -0.00786049)
(8.5809 0.0153431 -0.00363299)
(3.26309 3.19136 -0.0189993)
(8.71541 -0.0745885 -0.0387067)
(2.88268 2.75847 0.0273557)
(3.06685 3.06883 -0.00139037)
(3.07957 3.06917 0.0100304)
(2.90999 -2.91056 0.000790571)
(8.43573 0.0132834 -0.0135212)
(7.54578 0.0162347 -0.0346818)
(8.74274 -0.0234367 0.185993)
(3.05103 3.05378 0.00200461)
(3.04641 2.99181 0.0205934)
(8.38779 0.0160933 -0.0151195)
(3.06727 3.06742 -0.00112622)
(3.55943 3.22299 0.044414)
(2.90702 -2.90506 0.000201144)
(8.34536 0.0538529 -0.00543161)
(8.88632 -0.219097 -0.0647861)
(8.70408 0.0216512 -0.00916485)
(2.90284 -2.89694 0.00674567)
(6.89131 -0.0104685 0.191964)
(7.1941 0.00697499 0.184788)
(2.75611 2.43579 0.0169886)
(7.77846 0.099677 0.15627)
(3.06815 3.05228 0.00303039)
(8.2153 0.0774919 -0.00746371)
(8.82536 -0.0145991 0.0511468)
(8.54677 0.00563748 -0.0147131)
(8.83588 -0.112318 0.0134997)
(8.11754 -0.179007 -0.252348)
(3.06658 3.06326 0.000763613)
(3.06723 3.06701 -0.000204694)
(3.05996 3.06408 -0.000614153)
(7.11527 0.0702653 0.256343)
(3.03764 3.01058 0.0033296)
(8.63485 0.0364358 -0.0158617)
(2.90576 -2.90543 -0.000225745)