/*--------------------------------*- C++ -*----------------------------------*\
  =========                 |
  \\      /  F ield         | OpenFOAM: The Open Source CFD Toolbox
   \\    /   O peration     | Website:  https://openfoam.org
    \\  /    A nd           | Version:  10
     \\/     M anipulation  |
\*---------------------------------------------------------------------------*/
FoamFile
{
    format      ascii;
    class       volScalarField;
    location    "16";
    object      SgP;
}
// * * * * * * * * * * * * * * * * * * * * * * * * * * * * * * * * * * * * * //

dimensions      [1 -1 -3 -1 0 0 0];

internalField   nonuniform List<scalar> 
59698
(
0.00309507
0.00189647
0.00239027
0.00281371
1.14067e-06
0.00145199
0.00256359
1.10817e-07
2.02141e-09
3.89547e-09
0.000586476
1.50081e-09
1.58051e-09
0.00237316
2.7759e-08
4.27715e-07
1.00348e-08
3.47857e-09
2.05356e-09
6.36396e-09
0.000365489
1.56101e-06
0.000499636
8.81914e-08
1.98788e-07
9.0792e-10
8.32103e-10
0.00262017
0.00245239
2.30085e-09
1.42301e-07
0.000600611
6.69513e-08
0.00426058
1.11438e-06
3.76431e-09
0.000464813
5.05111e-07
1.70484e-08
0.00254855
4.57633e-09
2.30451e-07
2.36758e-09
2.2772e-08
0.000402108
1.10046e-07
1.80778e-09
5.1508e-08
0.00302499
3.46718e-08
7.13307e-10
1.32535e-09
0.00178207
0.00284109
0.00221593
2.01243e-09
8.70166e-08
1.57164e-08
1.61799e-08
2.75875e-05
0.00183338
6.3354e-08
1.98592e-07
1.5005e-09
5.20685e-07
4.2579e-08
1.73784e-09
2.90399e-09
3.86126e-09
6.7998e-09
6.08004e-07
3.20894e-08
0.000359969
1.69411e-06
0.00041196
1.05133e-06
2.63619e-08
3.26472e-08
5.93751e-09
1.06436e-08
4.80209e-07
8.7114e-10
3.98361e-09
9.05319e-09
1.68724e-05
3.43827e-08
8.91821e-09
2.30018e-07
2.32769e-06
2.31788e-08
4.55727e-09
6.55073e-08
1.69132e-07
6.50941e-09
6.3006e-08
0.00371975
1.33432e-07
5.98717e-08
5.05853e-08
8.59096e-10
0.00357268
2.0802e-05
3.01381e-07
0.003292
5.14443e-08
0.000564776
2.43899e-09
2.12731e-09
2.6711e-09
4.39261e-10
3.71836e-08
2.72181e-06
1.35332e-06
1.56287e-07
9.88046e-08
3.07871e-08
3.58397e-07
0.00365819
3.05147e-07
1.14443e-08
1.82607e-09
3.04239e-07
2.22522e-07
2.38563e-09
1.98837e-09
6.97741e-09
7.18866e-09
7.21196e-09
1.15489e-08
3.92637e-07
0.00341003
3.33315e-09
1.12377e-09
1.84169e-07
6.28644e-08
2.25823e-09
5.06222e-07
2.43616e-10
1.73393e-09
4.95532e-09
2.08505e-08
0.00240523
0.00258332
1.17732e-09
1.96142e-07
5.84928e-10
5.54187e-07
3.924e-07
0.00465599
7.68049e-07
0.000257261
0.000434393
3.48587e-08
2.65077e-07
5.18625e-09
1.06173e-07
5.02362e-09
0.00168901
7.04492e-08
5.38634e-10
2.24092e-09
7.78637e-09
2.2739e-08
1.03006e-07
2.01067e-08
0.00233527
9.7934e-10
0.000567054
0.00161327
7.03342e-09
2.60968e-07
1.45737e-06
2.23916e-07
9.47684e-07
5.76514e-07
0.00126162
4.387e-09
0.00139552
0.000326004
0.00309934
2.25548e-06
7.91577e-07
4.19809e-07
1.21556e-08
2.65943e-07
7.99305e-08
3.95103e-07
0.00247292
1.225e-10
1.5517e-08
6.61121e-09
6.81359e-09
2.45681e-08
6.34985e-07
1.29505e-07
0.00432721
1.74388e-06
0.00295115
1.26501e-05
9.64613e-08
0.000227099
6.74732e-07
1.66545e-09
2.33231e-09
0.00376974
0.00250421
3.84939e-08
0.00215799
0.0028065
0.00368633
0.00250924
5.92797e-09
0.00277596
1.56778e-08
1.60485e-09
0.00349341
9.22701e-09
4.69136e-08
1.64227e-07
5.98837e-09
1.36926e-05
0.00227858
1.55637e-09
5.48042e-07
8.78918e-09
0.00290325
6.56197e-09
6.90825e-09
4.81389e-08
6.84932e-07
7.57053e-09
1.33471e-08
7.2799e-09
3.34784e-09
9.67735e-09
1.28637e-09
3.28216e-07
2.00334e-08
1.83256e-07
7.57319e-09
0.00270325
1.21999e-07
3.49526e-08
0.000664542
4.14956e-09
2.14885e-07
2.29833e-05
3.4314e-06
3.22656e-09
5.04463e-09
5.89105e-08
5.33548e-09
2.97566e-08
0.000233548
1.72783e-08
0.00176802
1.09037e-07
5.80444e-08
0.00324641
1.90778e-09
7.07033e-06
1.81653e-09
7.14282e-09
0.00282443
0.00373807
8.54461e-07
1.27955e-09
1.0657e-07
2.00465e-08
4.84206e-10
2.65423e-09
1.53685e-06
6.90113e-05
4.98766e-10
1.21393e-07
4.93158e-08
0.00151379
3.82523e-08
2.51209e-09
1.1788e-09
0.000574132
2.78363e-09
1.39246e-09
4.71381e-07
0.00334936
1.03863e-07
3.88533e-09
0.000647698
3.82445e-07
1.07264e-07
2.64185e-06
0.00238047
7.51609e-09
1.23093e-09
7.31243e-07
0.00283509
7.13303e-10
1.62488e-07
8.57448e-09
6.49403e-07
2.94314e-09
2.33931e-09
6.86639e-08
1.15306e-09
9.54442e-10
1.11158e-09
3.76722e-07
2.27284e-08
5.16234e-09
3.35048e-10
0.00196379
4.49991e-08
3.83952e-09
2.38012e-08
0.00198653
4.27891e-09
0.00040339
8.70421e-09
0.000829308
9.1406e-08
9.72659e-08
2.82652e-07
1.69146e-08
2.92153e-09
1.42023e-06
2.94514e-07
1.62401e-08
1.02721e-08
1.02675e-09
0.00036192
0.00307556
4.12308e-08
3.74027e-07
2.42251e-06
0.000430996
8.22109e-09
7.59257e-09
4.20553e-09
1.46189e-07
0.00125882
2.83204e-08
0.00215991
0.00259261
3.7314e-09
1.05928e-07
1.02677e-09
6.21395e-10
1.3117e-06
1.6082e-09
0.00207799
3.46499e-09
1.17797e-08
1.23139e-06
7.95127e-10
9.48446e-07
0.00203455
2.7419e-06
1.37157e-08
3.09348e-08
1.80695e-09
2.23221e-08
9.97268e-09
1.10515e-07
2.7598e-09
1.14992e-10
1.04128e-07
0.0028955
0.00206727
3.04287e-08
9.79455e-07
1.17524e-07
0.000533988
0.00378866
0.000651143
4.51558e-09
2.98054e-09
3.80587e-08
3.11952e-09
0.000460525
2.4841e-09
0.000347124
4.72801e-08
4.46555e-08
5.12889e-08
7.58316e-10
6.77008e-06
1.10444e-08
0.00054482
7.76905e-10
3.86969e-08
2.31674e-08
0.000457469
0.00343225
3.64861e-09
5.3728e-05
0.0018033
3.69672e-06
0.00189348
0.00279034
8.04108e-08
0.00248894
0.00247795
0.00266415
4.64708e-09
0.00153972
0.00433203
0.0038573
0.00278023
5.27504e-09
8.2862e-07
1.87139e-07
0.000404296
0.00171305
0.000434556
5.15165e-10
2.07354e-07
1.95038e-09
2.25647e-06
0.00189758
0.0017572
0.00304386
0.00226118
0.00255921
0.00166553
8.77696e-09
2.4922e-09
7.58136e-09
1.50033e-08
0.0014359
5.66316e-10
6.90315e-09
0.00196099
0.00116502
2.33492e-08
3.73133e-08
1.4207e-08
1.38229e-08
0.00125848
3.81541e-09
0.00218368
1.92334e-07
0.00331059
5.14841e-09
4.51248e-08
1.92656e-07
2.0317e-06
8.81115e-08
4.52054e-10
2.09835e-09
1.32488e-07
0.0026322
4.75612e-09
7.32317e-08
1.97077e-06
6.41131e-07
1.12946e-07
3.44294e-07
1.39948e-09
1.15716e-06
1.65494e-07
6.2077e-08
3.85598e-09
0.00320794
6.56775e-09
2.18931e-09
2.13663e-07
3.55771e-07
1.14639e-08
4.51797e-08
1.03305e-09
0.00257882
4.4039e-09
2.11854e-10
6.91352e-09
6.38836e-08
2.10236e-06
8.1623e-07
2.26798e-09
0.00310475
0.0020193
2.39829e-08
2.24418e-07
1.43753e-08
1.94356e-08
2.52509e-07
3.88464e-08
4.46063e-08
1.87309e-08
1.5484e-09
2.45323e-09
2.58256e-07
4.05915e-07
3.39262e-10
4.24255e-08
0.00414624
2.21322e-07
1.57999e-08
0.00245703
3.88826e-08
0.000365619
9.70361e-10
1.1784e-07
2.13505e-07
5.78054e-09
1.7104e-08
1.11537e-09
8.36697e-08
2.19714e-09
4.48095e-09
7.96232e-09
4.24071e-09
7.99085e-09
1.34429e-06
5.41921e-08
1.23322e-08
2.29299e-09
6.86909e-09
9.54859e-09
7.04406e-08
2.48751e-08
1.48394e-08
1.74868e-09
4.35031e-09
3.84613e-09
2.1912e-09
6.31036e-06
4.97071e-08
1.51968e-09
0.00347246
0.00377972
2.53634e-09
0.00383315
1.82749e-08
4.12555e-09
0.00150657
3.5459e-10
1.3552e-08
0.0018091
2.00689e-09
0.00038488
3.99747e-08
1.90537e-09
4.24357e-08
3.00101e-06
6.60112e-09
3.73573e-09
8.93817e-06
0.000167082
6.91512e-09
7.421e-06
1.81992e-08
2.26543e-09
3.05202e-08
1.9125e-09
6.16687e-09
1.40503e-08
1.9217e-08
1.51418e-08
1.7556e-09
5.42522e-09
0.000768502
1.74223e-09
1.57838e-08
1.00721e-05
1.42756e-08
1.80742e-09
1.21819e-06
2.23288e-08
7.43814e-09
0.000539254
6.46135e-10
7.55043e-09
1.95589e-07
3.01696e-09
3.91203e-08
8.55106e-10
2.67205e-10
4.66469e-10
0.00210154
2.31281e-09
0.000732639
4.18218e-08
0.00320772
1.26685e-08
6.32117e-09
0.000313357
1.39278e-09
1.05441e-08
1.86997e-08
1.97706e-08
2.12066e-09
0.00334231
6.31586e-09
1.44353e-08
8.50549e-10
4.11933e-08
9.29016e-07
0.00264927
0.000349776
7.23547e-09
7.06462e-09
1.43551e-09
2.84896e-09
0.00350108
1.67553e-08
5.63982e-09
1.73888e-09
0.00108765
0.00395535
1.47422e-08
1.22714e-08
9.76918e-10
1.13805e-08
4.65263e-09
2.5061e-09
4.92526e-09
4.6772e-09
3.50365e-08
7.85752e-05
6.69755e-09
5.03697e-09
6.27438e-09
1.60819e-08
2.53599e-05
0.00253532
1.17034e-08
0.00273274
2.4654e-09
9.05238e-09
4.93833e-09
0.00282701
0.000211241
1.92304e-09
9.2546e-09
1.19755e-09
2.83806e-08
1.4287e-08
2.4285e-09
0.00157195
0.00325165
1.30629e-07
1.64101e-07
0.000607894
1.42938e-09
5.1947e-09
2.81651e-09
4.23621e-07
0.00218894
3.72789e-08
1.75632e-09
0.000439476
6.21858e-09
3.28808e-08
4.3716e-09
1.76915e-09
3.83979e-09
7.18103e-10
7.59698e-06
1.63677e-09
0.00188263
5.1516e-08
1.12376e-07
6.663e-09
1.53661e-06
3.41097e-06
7.51594e-09
2.2016e-08
0.00239455
0.00320867
7.30009e-08
3.86738e-09
7.77633e-07
2.12092e-09
0.00356878
3.59968e-10
1.658e-08
0.000428465
0.00266424
3.90853e-09
1.21217e-09
2.00473e-07
6.06154e-07
3.53435e-07
0.000378104
0.00143857
1.43858e-10
6.1176e-09
1.49538e-09
4.6313e-09
0.00289729
2.56791e-08
0.00317211
1.06629e-08
0.00135415
0.00215156
0.00245501
6.53296e-08
3.19126e-09
0.000650601
1.0714e-09
2.36346e-10
9.66202e-10
3.59667e-09
1.80814e-08
5.30332e-09
1.53434e-09
9.82915e-08
6.92285e-08
8.93899e-09
2.7196e-09
0.00192576
4.17928e-08
3.80093e-08
0.000362197
9.48475e-09
3.25897e-08
1.25346e-08
1.82002e-09
1.4516e-09
0.000646936
0.00198888
0.00253877
3.4807e-09
8.51703e-09
4.05482e-09
1.69849e-07
0.00196926
1.37499e-09
5.69432e-07
2.58963e-08
1.32256e-05
0.000344566
0.00174262
2.34994e-07
1.48064e-07
2.20261e-08
0.00444515
0.000532191
2.34713e-08
8.92293e-07
4.61865e-09
7.15783e-08
3.45725e-06
0.00245246
2.46501e-08
1.27524e-07
1.00368e-07
1.5853e-05
2.37479e-08
0.00187717
1.85491e-09
5.17756e-08
8.72163e-09
0.00213228
7.4597e-10
5.70431e-09
2.13506e-07
4.46981e-06
0.000599799
1.14349e-07
6.20669e-08
0.000383645
4.57021e-08
2.37685e-09
0.00196458
0.00228003
6.38984e-09
9.27567e-09
0.000401556
9.52515e-09
1.78643e-08
0.000373921
3.50497e-10
0.00273679
2.54275e-09
7.67606e-09
1.88238e-07
4.12787e-09
4.06395e-08
3.44227e-08
4.9988e-05
3.75459e-09
6.72365e-09
2.29417e-09
1.33096e-08
9.99512e-08
1.57084e-08
0.000326092
6.50489e-09
2.08795e-08
0.00145352
5.79914e-08
1.04989e-07
9.40621e-06
0.00193673
2.39604e-06
0.000541429
6.94371e-09
0.000383124
1.23287e-08
3.15514e-09
1.57783e-09
0.00323916
3.96702e-07
3.26622e-08
7.12266e-05
5.98814e-08
0.00162612
1.69768e-07
9.84734e-06
3.52433e-09
0.00100438
3.36719e-09
0.00130461
5.3849e-05
2.56863e-07
0.000651795
0.0018519
1.22517e-06
1.1056e-05
3.43458e-09
1.1327e-06
2.5618e-08
4.07777e-05
0.000444822
0.000428777
0.002164
3.17534e-08
3.38238e-08
0.000561237
3.17312e-08
0.0023514
5.61e-10
0.000401152
2.38172e-09
2.88039e-09
2.94214e-05
0.000503647
0.000206207
0.00010857
7.69485e-09
5.09392e-09
1.91606e-09
0.000487171
2.15362e-09
0.00359203
0.00489109
2.85448e-09
0.000499731
1.91065e-09
8.80368e-10
2.92527e-09
3.17316e-06
0.000469631
2.95374e-09
1.3137e-09
1.05708e-06
2.28452e-09
1.10727e-07
3.87938e-09
3.03302e-09
9.26059e-08
2.63815e-07
3.22658e-08
1.07335e-08
0.000532569
7.60117e-10
0.000127621
3.03152e-10
2.49657e-09
0.00128107
1.52006e-09
7.75057e-06
8.98267e-08
1.03801e-08
0.000108822
1.21873e-08
0.00161998
3.0281e-08
4.36621e-10
0.00180108
6.11445e-09
9.0914e-09
0.000307133
1.24479e-09
0.00212685
1.75048e-08
1.80795e-09
0.00438876
3.06375e-09
2.83691e-09
1.33266e-08
1.47652e-08
0.000319936
3.43966e-09
1.95364e-09
1.66216e-07
0.0018963
0.000633466
0.000584057
2.29506e-08
4.10623e-09
0.000379941
0.00244619
4.3695e-09
8.58197e-09
5.78951e-08
1.23086e-08
3.50083e-09
2.38426e-08
0.000412258
0.00149875
0.00271741
1.49207e-07
2.0397e-09
0.00275659
0.00413755
0.00537454
4.50712e-08
1.89788e-08
1.64868e-07
4.37817e-07
1.73785e-08
2.30933e-08
7.87076e-07
2.80341e-08
6.45529e-09
4.56669e-09
1.35085e-06
7.56934e-08
7.3918e-09
0.00260427
1.46838e-09
6.23868e-08
2.06662e-08
2.92427e-08
4.82702e-09
3.81529e-10
0.000761132
2.01079e-08
3.30959e-09
0.00198226
2.07085e-08
2.36096e-08
0.00328732
2.76099e-08
3.38559e-07
6.3585e-09
1.81021e-08
2.43953e-08
0.000825752
2.79132e-08
0.00227216
1.89562e-07
2.09486e-07
3.38899e-08
0.00553279
0.000295068
3.19231e-09
4.73955e-09
1.03195e-06
1.44529e-09
1.24001e-08
8.36419e-09
0.00174409
6.48136e-10
1.4043e-09
7.36755e-09
4.96834e-09
3.52648e-08
2.36553e-08
7.51443e-09
0.000429218
0.00229908
0.000466222
6.33109e-08
0.00322061
0.00256317
5.78146e-08
2.27659e-09
0.00191556
6.44385e-06
0.00163084
0.0021646
0.00212663
3.9488e-09
5.81421e-08
0.00248546
2.2547e-07
3.29087e-08
1.9354e-07
2.25453e-08
0.000443757
2.30185e-08
0.000538422
1.69865e-05
2.52378e-08
0.0020832
1.40995e-08
0.000608732
6.99273e-09
1.27709e-08
6.11698e-10
3.18023e-08
0.00159038
0.0037683
1.26783e-09
0.000395619
0.0019621
0.00140398
0.00278209
5.68319e-10
4.38397e-09
8.80454e-10
0.00355545
8.46209e-10
1.33658e-07
0.00356097
6.12297e-09
0.00359587
0.00351716
0.00378759
1.22809e-08
7.10927e-08
3.46683e-08
7.3577e-09
9.08774e-09
6.35112e-08
1.22156e-08
6.23784e-09
0.000475253
2.56861e-09
2.1778e-08
2.84719e-07
5.56746e-10
0.00168302
2.16538e-08
3.00428e-09
6.33223e-08
4.83002e-10
7.27701e-08
2.86553e-09
2.05285e-07
0.00319535
3.11182e-05
8.0273e-10
1.56506e-08
0.00217463
0.00320304
1.78607e-07
0.000760587
9.6995e-09
3.33127e-09
0.00269647
2.7201e-08
0.00328407
0.000542246
1.04779e-09
7.39626e-08
0.000765801
2.19178e-08
2.33951e-08
0.00260019
7.85018e-09
1.12148e-08
3.08797e-09
0.00053461
3.1449e-06
0.00200403
1.82449e-07
9.45439e-09
0.00182183
1.24276e-07
2.55232e-10
5.96034e-06
3.23685e-09
7.20731e-07
0.00133376
1.59544e-09
6.94941e-10
1.12152e-08
6.60363e-09
1.54742e-08
6.90208e-09
1.15041e-08
1.03915e-06
9.2666e-10
1.56315e-09
0.0017632
2.98039e-09
5.40913e-06
2.94218e-08
3.21438e-06
1.33179e-06
1.22115e-06
5.37335e-06
1.26174e-06
3.2281e-09
1.39763e-08
0.00105508
2.70155e-06
1.92193e-08
2.61191e-08
2.35031e-08
0.000449091
1.36679e-06
7.6118e-08
2.28814e-07
3.81438e-09
0.00240761
7.02835e-09
1.18592e-08
2.02529e-08
9.66353e-09
2.99257e-08
0.00212645
5.63846e-08
2.89479e-08
1.886e-08
5.22463e-09
0.000477737
2.27581e-09
4.09351e-09
3.3538e-08
2.53239e-10
1.66455e-09
7.05314e-09
7.40449e-09
1.25477e-08
0.000333349
1.21193e-08
1.18375e-08
2.5236e-09
1.99485e-08
1.02966e-08
9.83083e-09
5.96113e-08
0.000380629
0.00250538
1.54732e-08
8.32901e-09
0.00291707
1.58143e-09
4.30408e-05
0.00203068
4.70029e-09
7.6109e-07
1.53091e-06
0.00186685
2.46894e-08
2.92773e-08
2.29774e-07
1.73844e-05
8.71697e-07
2.2201e-07
6.54745e-10
3.73444e-09
4.49551e-07
1.40793e-07
5.359e-09
1.37857e-09
5.79834e-09
7.55506e-09
3.01227e-06
0.0012944
6.07686e-08
3.49841e-08
5.40652e-08
0.00280573
0.00254084
9.26115e-07
1.45023e-08
3.49848e-08
3.99595e-08
4.41188e-09
2.8935e-09
1.88488e-07
4.22206e-09
3.33909e-08
1.54699e-09
1.139e-08
2.09669e-08
2.27976e-09
4.22184e-07
2.98065e-09
0.000434431
1.03111e-07
0.00403782
0.00168983
1.1426e-07
2.26406e-08
0.000579701
0.000345167
2.68349e-08
2.329e-08
9.36745e-06
2.30995e-09
1.88346e-09
2.25301e-08
1.6022e-08
0.00078145
0.000646991
1.08446e-08
1.24021e-08
7.3323e-09
3.43912e-07
5.14882e-08
0.00276023
0.000496411
1.47736e-08
0.0002388
7.00511e-09
0.000315402
0.000227625
0.000223544
2.99414e-08
1.07378e-07
2.15767e-09
1.01818e-07
1.95649e-08
0.00247972
4.88911e-09
4.20454e-08
6.56277e-09
7.59656e-08
2.27982e-05
0.00204072
0.00235271
2.25961e-08
3.06636e-08
0.00037761
2.74067e-08
1.03684e-06
1.04136e-08
0.00312245
2.71843e-08
2.05403e-08
8.5419e-06
0.00277392
7.28684e-08
1.33469e-08
0.00134453
1.67118e-08
4.65927e-10
1.39592e-09
3.01424e-09
1.80131e-08
1.36295e-08
5.96658e-10
2.0869e-08
3.74109e-08
1.00403e-08
6.7603e-08
1.67584e-08
5.75438e-07
0.00198897
3.2292e-09
1.47283e-08
5.26573e-08
0.00212498
8.80743e-07
4.97615e-09
0.000375292
3.18103e-09
2.25162e-07
1.4758e-07
0.000983777
3.78891e-07
3.06203e-10
1.22428e-07
1.38333e-08
1.22677e-07
5.48863e-08
3.55862e-09
1.47568e-07
6.88464e-09
8.5183e-08
6.99371e-10
0.000584271
5.22554e-08
0.00213483
1.41927e-09
5.68512e-08
2.16306e-06
1.07409e-08
5.31809e-06
5.73817e-09
6.8702e-10
2.48625e-07
3.84731e-08
4.49058e-09
1.7278e-05
6.1087e-08
7.67763e-08
0.000547253
2.97415e-09
0.000563699
3.08053e-08
1.83585e-09
1.01372e-08
6.21826e-09
2.17177e-08
4.19653e-07
3.20335e-07
1.54138e-07
0.00246984
2.10568e-07
0.00403286
0.0022044
0.00341317
1.008e-07
2.11575e-07
0.00143522
3.85875e-09
2.51064e-08
2.71101e-08
0.0024861
1.15323e-08
0.000635586
0.000492204
2.73382e-09
0.00268133
5.0739e-06
0.00272498
1.54685e-08
0.00255102
5.59754e-08
0.000340277
1.61868e-09
4.23913e-09
3.96387e-08
0.000746693
7.65204e-07
4.16758e-10
2.59356e-08
6.49315e-10
0.00053298
0.000313608
6.17087e-08
0.0019159
4.86031e-07
0.000544712
3.24875e-08
3.66561e-10
6.30493e-09
3.66408e-09
8.74957e-08
2.03927e-05
3.81711e-09
1.33584e-06
4.72473e-08
3.63298e-08
4.84813e-09
9.87599e-05
2.26645e-07
1.28181e-09
6.43149e-09
0.000432446
1.09668e-06
7.97519e-08
0.00157201
1.76612e-06
1.4869e-06
7.20626e-09
3.9556e-09
4.09601e-09
0.000681434
2.62614e-08
4.41536e-09
1.75945e-08
3.63511e-07
1.00111e-06
2.06707e-07
1.82222e-09
3.17482e-06
6.68004e-07
7.78071e-09
6.3075e-09
5.514e-06
1.70106e-09
3.17814e-09
0.00246366
0.00229475
6.46705e-08
2.74108e-09
1.02349e-09
3.28532e-08
0.00192995
2.59288e-07
1.37304e-06
6.96557e-10
5.5094e-07
3.07487e-08
0.0011209
0.000444877
7.14255e-07
2.24719e-08
3.48809e-06
5.43482e-07
0.000100658
2.26229e-09
1.80141e-08
0.00118928
1.34454e-08
8.25411e-07
5.96582e-07
2.02682e-06
1.27063e-06
8.74654e-09
0.00163157
1.30987e-05
2.09238e-09
1.21176e-08
4.93135e-09
0.000427672
0.000113516
1.98988e-08
0.000637652
1.23348e-07
7.27301e-05
0.00292019
0.000398991
0.00283538
0.00194505
0.00221777
4.50604e-10
2.81865e-06
9.07805e-08
3.46423e-06
1.49044e-05
2.21008e-06
2.00058e-09
4.08167e-07
1.45329e-08
3.28397e-07
0.000761567
2.91274e-07
8.96703e-10
0.00178471
1.46784e-07
0.000207822
1.80395e-07
4.21599e-07
3.6189e-09
3.99314e-07
2.20625e-07
0.00157054
2.10381e-07
3.79289e-08
1.48858e-07
2.59611e-05
0.00137078
0.00136438
0.00306918
4.94861e-09
0.000502799
0.00155443
0.00183463
0.00150931
2.48719e-07
0.0022425
2.70698e-07
4.31893e-09
4.20343e-09
8.29694e-09
0.00152765
0.00183616
5.9834e-09
1.46478e-08
8.11811e-09
4.21736e-07
0.00029809
0.00375337
0.00140558
8.20542e-08
0.00252596
8.02475e-10
3.82826e-08
0.0011303
0.000804492
5.86777e-09
2.73904e-06
1.29422e-08
6.18145e-09
0.00356799
5.31837e-09
0.00042332
1.17692e-09
0.00037871
0.000405406
0.000581331
0.00198656
3.38195e-07
0.00161749
1.27395e-08
1.18287e-05
0.000460544
0.00126785
0.00225037
0.00111529
7.6385e-09
0.00126487
3.36416e-09
1.33413e-08
0.00295901
1.64007e-07
6.62237e-06
5.79244e-08
5.50087e-08
0.000573412
1.43168e-06
2.56308e-09
1.51566e-07
4.3659e-07
0.000403271
0.00232421
2.80491e-07
6.85115e-09
0.000614733
1.69976e-08
1.38942e-08
5.25155e-08
6.33925e-07
0.00214065
1.24949e-08
0.00241694
8.57111e-10
0.000256124
0.00443163
9.29219e-09
2.96845e-06
0.0025397
4.97798e-05
5.18548e-06
2.45392e-09
0.00177848
0.0028476
5.35075e-10
0.000489108
8.3644e-07
0.00061878
1.84123e-08
8.53545e-07
5.1323e-07
2.15078e-08
7.87088e-11
0.000345767
0.00131473
5.97919e-09
1.25748e-09
0.00218155
1.10971e-08
3.58797e-09
3.46056e-08
1.87017e-09
7.87449e-08
0.00363144
0.00209441
2.09488e-08
5.40354e-10
0.0022117
2.01649e-07
0.00277431
3.59924e-09
1.89786e-06
4.53396e-08
8.52354e-09
2.74506e-09
1.09182e-08
0.00345146
5.06629e-09
2.79843e-07
0.000274718
0.00245756
0.000453097
1.43838e-08
1.17598e-06
2.55646e-09
0.000229235
0.00234408
9.13149e-10
3.80902e-09
3.97901e-08
3.40989e-08
0.000502522
2.73299e-07
0.000529727
1.95239e-07
4.40798e-09
5.84959e-11
2.46229e-08
0.000221094
0.000394062
5.99784e-09
0.00394955
0.00252355
9.00914e-09
3.01512e-10
3.75355e-09
9.02698e-09
4.87061e-09
1.85114e-08
0.00275079
0.000620103
0.000514071
7.762e-05
0.000348249
0.000381682
3.2956e-09
4.27133e-08
1.18664e-09
2.94859e-08
1.89083e-08
0.00234833
1.07982e-08
1.8176e-09
0.00116107
1.63367e-08
7.86434e-08
9.44191e-08
2.25849e-09
6.87784e-08
3.445e-08
0.00226755
4.55455e-09
1.6421e-08
4.25726e-09
1.38204e-08
2.10686e-08
0.00386966
4.80694e-07
1.16612e-07
7.38246e-08
7.36879e-10
4.50181e-05
1.1223e-06
3.74809e-09
5.98315e-07
1.24627e-05
9.48133e-09
9.80842e-09
1.03109e-05
2.63494e-06
2.5083e-07
0.00316068
3.80345e-09
4.18373e-07
1.37795e-06
0.00291499
2.23988e-07
1.25509e-10
1.92537e-06
1.50574e-05
3.43232e-07
1.02924e-08
1.75531e-07
4.59773e-08
6.87087e-08
1.69632e-08
3.20537e-08
0.00184851
1.69626e-09
1.15272e-08
1.0556e-08
4.53928e-10
1.44041e-09
9.89822e-10
0.00421473
1.25373e-07
3.26971e-09
2.70582e-09
3.21541e-09
1.08454e-09
5.14539e-08
5.03903e-09
2.81381e-09
5.51486e-08
1.28621e-08
0.00228098
2.55416e-09
0.000384358
4.03825e-08
1.2531e-07
1.8109e-08
1.23308e-06
1.75336e-09
0.00329693
9.21471e-09
0.00183777
2.98677e-07
3.42183e-08
9.956e-09
1.82497e-06
2.23211e-09
3.96446e-09
3.3568e-09
0.000259173
0.000626598
0.00220666
1.04404e-07
1.63577e-07
0.00235832
1.72432e-06
6.00843e-09
1.28697e-08
3.00262e-07
1.11426e-08
0.00425079
2.79261e-06
0.00316773
2.54884e-08
8.15758e-09
0.00158799
0.00149262
0.00180398
1.59371e-08
1.47051e-06
0.00194086
1.78803e-09
1.23123e-05
1.56445e-07
0.00184085
0.000459342
1.91138e-07
0.00238168
2.04413e-05
6.20571e-07
0.00214029
0.00223894
1.60666e-08
0.0024519
0.00311742
0.00186731
1.80163e-08
4.39188e-09
5.64304e-09
9.83222e-10
2.51791e-09
0.00163024
0.00284215
0.00185698
3.35265e-09
0.00320611
2.87383e-09
0.00228096
0.00258176
1.114e-08
3.7461e-08
0.00170718
2.44756e-08
1.22623e-08
3.20869e-07
7.48222e-10
0.00264188
0.00204897
8.73124e-07
0.00163487
6.4258e-09
3.11576e-09
5.79308e-09
3.40954e-08
7.19623e-08
3.11123e-07
1.28375e-09
5.41103e-09
1.54706e-08
8.06846e-09
7.80863e-09
9.09991e-08
3.42208e-10
2.82484e-08
2.10996e-06
1.26351e-08
3.59436e-08
3.50288e-09
1.25956e-07
1.52569e-09
7.08453e-09
2.22453e-07
1.47444e-09
3.10823e-09
0.00194366
3.22053e-08
5.28017e-09
6.74493e-07
2.48405e-09
1.40654e-08
4.6289e-08
0.00195452
9.41802e-08
0.00225291
0.0015396
1.43477e-08
1.33724e-08
5.94973e-08
5.53648e-09
0.00162942
4.30897e-08
2.37614e-07
3.7079e-07
2.67247e-08
0.00243472
0.00154451
2.15019e-09
4.14902e-09
7.34382e-09
6.1838e-08
6.30833e-08
6.34511e-09
4.23144e-07
4.60411e-09
1.49527e-06
2.49389e-09
3.10998e-09
7.87799e-09
1.74836e-08
2.42316e-07
6.857e-09
1.90299e-08
0.00442867
0.00149896
0.00265127
0.00160269
1.49141e-06
1.03713e-08
0.00207887
7.26331e-07
6.4915e-09
0.000410059
2.3539e-09
1.44304e-07
0.00242395
4.26699e-08
1.34609e-07
2.30281e-08
4.41701e-08
0.00146408
8.2494e-09
1.38839e-09
2.11534e-07
2.58506e-09
4.81772e-07
6.42755e-06
6.7203e-08
0.00216502
3.80598e-08
0.000460401
2.58705e-07
0.00210232
4.74548e-10
5.02029e-09
2.60805e-07
3.40448e-09
0.00188089
3.8943e-07
0.000517979
1.49307e-07
2.07057e-07
1.35597e-07
2.86367e-08
5.96256e-09
5.12394e-08
3.21979e-06
4.04033e-08
2.79799e-06
0.00339525
5.36945e-08
0.00431177
5.77505e-09
2.46636e-09
4.55414e-06
0.00194726
1.17194e-08
1.4031e-09
9.02516e-07
5.8818e-08
3.0885e-08
0.0024249
1.37788e-08
6.09907e-07
0.00273471
1.35657e-09
8.33893e-09
4.18349e-07
9.34934e-10
6.8227e-09
0.00261226
4.61492e-09
0.00285731
2.08401e-08
2.23209e-07
4.21587e-08
0.000941762
6.23658e-08
2.74488e-08
1.93677e-07
0.00261377
1.63262e-06
4.82528e-09
9.76064e-09
1.28775e-07
0.00219991
1.70559e-09
5.71947e-08
6.06315e-08
1.58432e-06
0.00261039
0.000270191
0.00119076
9.43502e-09
0.000358008
1.15075e-08
8.9926e-07
0.000789535
6.67624e-09
0.000881181
3.29427e-06
3.62191e-09
2.65688e-09
1.30525e-08
0.00261641
1.90177e-08
3.36712e-09
2.77085e-07
1.12303e-08
6.21617e-09
0.000301362
2.96011e-09
4.4837e-08
0.00252154
1.2617e-06
3.25371e-09
0.00210556
3.26159e-06
6.50612e-09
1.51376e-08
1.20176e-05
4.31287e-08
2.25197e-07
1.69373e-08
4.19302e-08
6.38191e-08
4.73261e-06
0.00109793
4.62404e-08
0.00254034
1.57433e-08
3.78387e-08
0.00284655
3.34993e-08
7.15216e-08
9.69218e-09
1.30044e-07
0.00244645
2.49851e-08
1.95058e-08
0.00163593
7.30721e-09
0.00275601
1.26702e-09
7.42935e-09
1.05601e-09
9.12934e-09
0.0015589
5.51394e-08
7.86344e-10
1.77875e-09
1.39553e-08
7.2874e-08
0.00265821
4.54584e-09
4.023e-09
2.88414e-09
1.53203e-07
5.30049e-06
3.0513e-09
0.00166201
2.00381e-08
1.31869e-08
6.89956e-09
5.52291e-08
0.000429634
6.81372e-07
5.86116e-11
9.95091e-10
0.00190796
0.00229501
5.46538e-08
2.68389e-09
0.00183557
1.74111e-08
3.30237e-10
0.00356038
1.00089e-08
0.00280603
2.99571e-07
1.81665e-08
1.74406e-08
1.38254e-08
9.12986e-09
3.62862e-09
3.04508e-05
7.75058e-07
1.38328e-09
4.62251e-08
5.53503e-08
5.94734e-09
0.00267415
4.49238e-09
1.11698e-08
0.00207159
2.73722e-08
3.56077e-08
1.42807e-10
0.00240113
3.0622e-08
1.30558e-07
3.78482e-09
3.70091e-08
4.4148e-09
0.00245285
5.30725e-09
7.17683e-09
0.000611961
1.11231e-08
7.17527e-09
0.00241414
6.64888e-08
3.09747e-10
3.03102e-08
5.37625e-09
0.00192891
4.56005e-07
6.08031e-08
3.04851e-09
4.22582e-07
1.44456e-07
1.00201e-08
1.42375e-09
1.02834e-09
3.49672e-08
5.77105e-09
8.07143e-10
6.36242e-09
8.01935e-10
7.31532e-09
0.00239442
7.18588e-07
1.5076e-08
2.35427e-09
9.24353e-10
0.00232121
3.66062e-09
0.00340345
9.35676e-07
0.00163718
7.02657e-10
0.00222877
0.00304254
7.31432e-09
9.76507e-09
7.77541e-08
0.00218509
0.00265029
3.17699e-07
6.66466e-09
2.69941e-07
5.30278e-10
2.2341e-07
8.31259e-09
9.93777e-08
1.72685e-08
3.24519e-09
3.5142e-09
1.31682e-09
7.13102e-09
8.7276e-09
3.82223e-09
5.07326e-09
1.20085e-08
7.83806e-08
2.70942e-11
3.36755e-09
2.2407e-10
6.66893e-09
1.26748e-09
1.75807e-07
0.00196079
0.00289031
3.34959e-09
0.00230967
1.48535e-08
2.50144e-09
5.25948e-09
1.64818e-06
1.89981e-07
7.12899e-08
5.35116e-10
1.02364e-08
1.56745e-09
8.29233e-09
1.64462e-09
1.34103e-08
1.41297e-07
0.00164049
2.28563e-09
3.48392e-09
0.00145531
0.00185012
0.00226917
0.00206699
0.00179972
4.27159e-08
2.77261e-08
3.18697e-09
8.74708e-09
7.54103e-09
1.40682e-06
7.90419e-10
2.89637e-08
3.40626e-08
7.0699e-09
2.68454e-09
2.49789e-09
7.612e-07
3.15502e-06
3.99185e-07
8.73358e-09
1.62231e-09
4.37568e-09
0.00294851
1.94713e-09
0.00192054
1.02164e-07
7.47096e-09
7.52172e-07
0.00105424
7.38619e-08
5.73925e-10
4.31198e-09
2.1402e-09
1.30372e-09
2.62574e-08
1.83004e-09
0.00114552
3.14799e-10
4.18287e-08
0.00284456
5.02182e-09
0.00138093
6.07274e-08
0.0022352
1.0095e-07
0.00126135
2.09695e-10
0.00289482
0.00240731
2.82303e-08
1.89462e-09
0.0016274
1.80619e-08
0.00187006
1.81778e-08
7.62079e-09
5.01051e-10
1.7496e-08
2.11605e-08
1.56454e-08
6.46807e-07
0.00292912
0.00169828
1.21267e-06
3.46479e-09
3.62118e-07
0.00315208
0.00141973
0.00245542
0.00243285
5.18952e-09
6.25812e-08
2.97666e-08
1.28325e-08
0.00315094
5.97685e-09
0.00153515
0.0033361
5.53211e-09
3.1372e-09
0.0016655
0.00313995
3.0037e-08
6.60978e-10
0.00174293
9.22652e-08
1.47671e-09
4.91237e-07
9.71971e-08
0.000406703
6.42995e-08
5.476e-08
2.5103e-07
2.72933e-07
9.9408e-08
4.68946e-09
4.8216e-09
1.36752e-08
3.02354e-09
1.71442e-08
7.29524e-09
2.53937e-10
1.95574e-09
0.00207138
0.00293459
4.10666e-10
2.36939e-08
7.32184e-09
3.26919e-09
4.79183e-07
2.1023e-08
2.54193e-09
0.00284385
0.00156349
0.00146111
0.00168516
5.13752e-08
0.00136227
2.86099e-07
0.00391116
4.1102e-10
0.00235306
2.74329e-08
3.55023e-08
1.66955e-07
5.57719e-10
0.00305837
1.88185e-07
0.00423666
6.46558e-09
1.34723e-09
1.13934e-08
9.28209e-09
0.00139216
0.00297781
1.58532e-10
3.10329e-09
1.97361e-08
0.00173235
4.64137e-09
0.00292844
3.49083e-07
1.56688e-09
7.76071e-09
0.00250705
3.46417e-08
0.00221787
8.06497e-08
0.00395165
0.00330486
7.43159e-08
1.86867e-09
0.00366295
8.56127e-09
8.51989e-07
0.000344637
1.57282e-08
1.44416e-07
2.23417e-08
8.21272e-09
0.00310492
6.20842e-09
7.95096e-08
3.19961e-10
6.78336e-08
7.58556e-09
4.6433e-09
2.10114e-08
9.81922e-09
1.83226e-08
0.00302366
2.17186e-08
2.3688e-08
4.54345e-09
1.56948e-08
1.04029e-08
7.68399e-09
9.6134e-09
0.00226507
8.11286e-09
0.00303089
0.00189556
5.80688e-09
0.000360671
2.53174e-09
3.30495e-09
2.69344e-08
1.20554e-08
3.09897e-08
0.00158412
0.00209564
1.13157e-07
1.03393e-07
8.55909e-08
0.00318233
0.0011097
4.81061e-08
0.00216345
0.00453135
1.26812e-06
0.00258957
0.000410459
6.26618e-09
7.81895e-07
2.76738e-08
0.000563896
6.96179e-10
0.00260509
2.16047e-10
2.42084e-09
0.000636437
0.000341711
1.33925e-08
0.000460447
5.27315e-08
9.54953e-08
2.13292e-08
3.07011e-09
4.25638e-07
3.19148e-09
4.87594e-09
0.00257265
1.22396e-08
1.39038e-08
4.80811e-09
1.22014e-07
1.65532e-09
4.58664e-05
3.18352e-08
2.29022e-08
9.1221e-08
1.60362e-07
0.000297092
0.00229273
4.21375e-08
7.37263e-09
0.00242881
0.00241207
3.70615e-08
2.3537e-08
1.19917e-08
2.88572e-09
2.46207e-08
1.07243e-08
0.00212521
0.00447492
6.89131e-09
2.43441e-09
4.06998e-09
4.62599e-09
0.00254737
0.000394487
1.93696e-09
1.84389e-08
1.72421e-08
0.0022201
1.04909e-05
1.08752e-06
0.00199539
2.20508e-08
2.25095e-08
3.33495e-09
3.28189e-08
1.93566e-08
0.00234088
5.40567e-08
0.000310597
3.5228e-09
5.47173e-09
0.00328372
0.00266855
7.63038e-09
0.00314849
1.08109e-09
1.48173e-09
4.7848e-07
3.7998e-09
2.977e-09
0.00187403
2.68631e-08
1.31207e-07
0.00385102
1.37747e-08
0.0015508
0.00311518
1.41662e-08
0.00329697
1.29468e-08
1.24073e-08
1.72979e-08
1.96786e-07
7.41431e-09
4.63623e-08
6.68351e-09
2.54243e-08
4.79322e-07
1.79582e-08
0.00244441
6.41316e-09
0.00309536
6.72004e-10
1.40653e-08
5.09621e-09
0.00235984
8.50657e-09
0.00230632
0.0020353
0.00319264
1.67456e-08
0.00220393
1.49392e-07
1.68486e-08
3.21084e-09
7.76446e-09
1.19247e-08
7.9966e-08
1.47376e-07
2.9545e-07
2.84296e-09
0.00292067
3.58403e-08
1.28122e-09
1.15133e-09
4.571e-09
1.12118e-09
0.00206275
3.46341e-08
0.00307543
2.3032e-08
0.000624966
2.60702e-09
3.24616e-09
0.00182007
0.00363746
6.57699e-08
1.99456e-09
0.00379712
1.22886e-08
9.62321e-10
1.2451e-09
2.17522e-09
5.6739e-10
1.30405e-08
1.44731e-09
1.37617e-08
4.07249e-09
5.94633e-08
2.70194e-08
0.00252863
5.71379e-07
1.10863e-07
1.28496e-08
7.17252e-09
0.00216358
9.43972e-09
0.00314761
4.23759e-08
2.84476e-08
5.4527e-09
5.08668e-09
8.242e-08
7.65845e-07
0.00135016
0.00128822
8.33279e-09
0.00380373
2.21267e-08
0.00286731
8.92374e-09
1.8206e-08
2.69709e-09
0.00270083
0.00132697
0.000427452
4.66214e-08
1.85383e-09
0.00133957
5.01667e-09
4.67984e-09
8.04893e-09
7.08029e-09
0.00245019
0.00209724
1.55836e-08
2.13191e-08
5.40223e-08
3.45256e-09
3.2566e-06
1.81443e-06
6.19252e-09
2.24651e-08
0.00164041
7.93566e-09
2.98491e-08
1.15314e-09
3.01672e-08
2.81493e-09
0.00234772
5.38033e-09
1.69146e-06