/*--------------------------------*- C++ -*----------------------------------*\
  =========                 |
  \\      /  F ield         | OpenFOAM: The Open Source CFD Toolbox
   \\    /   O peration     | Website:  https://openfoam.org
    \\  /    A nd           | Version:  10
     \\/     M anipulation  |
\*---------------------------------------------------------------------------*/
FoamFile
{
    format      ascii;
    class       volScalarField;
    location    "16";
    object      SgRate;
}
// * * * * * * * * * * * * * * * * * * * * * * * * * * * * * * * * * * * * * //

dimensions      [1 -1 -3 -1 0 0 0];

internalField   nonuniform List<scalar> 
59698
(
0.0163191
0.00189647
0.00239027
0.00281371
0.0215608
0.00145199
0.00256359
1.10817e-07
2.02141e-09
3.89547e-09
0.000586476
1.50088e-09
1.58051e-09
0.00237316
0.000647712
4.27715e-07
1.00348e-08
3.47858e-09
2.0536e-09
6.36396e-09
0.00174919
0.0139015
0.000499757
8.81914e-08
0.0106333
9.07966e-10
8.32149e-10
0.00262017
0.00622989
3.15209e-09
1.42319e-07
0.000600611
6.69513e-08
0.00426059
0.00249353
3.76434e-09
0.0193406
0.0206064
1.70484e-08
0.00432652
4.57633e-09
2.30451e-07
2.36758e-09
2.2772e-08
0.000402108
1.10046e-07
1.80782e-09
5.1508e-08
0.00302499
3.46719e-08
7.13313e-10
1.32538e-09
0.00178207
0.00284109
0.00383582
2.01246e-09
8.70166e-08
0.00100915
1.61799e-08
0.00285977
0.00183338
6.3354e-08
0.122008
1.50055e-09
0.00195142
4.25791e-08
1.73784e-09
2.90405e-09
3.86129e-09
6.7998e-09
6.08794e-07
3.20894e-08
0.000363914
0.0422521
0.00041196
0.0393355
2.63619e-08
3.26472e-08
5.93751e-09
0.00498487
0.00498763
8.71147e-10
3.98361e-09
9.05323e-09
0.00844323
3.43827e-08
8.91825e-09
2.30018e-07
0.0175077
2.31788e-08
4.55727e-09
6.55073e-08
0.0155378
6.50944e-09
6.30061e-08
0.00371975
0.00399501
5.98718e-08
0.00159045
8.59096e-10
0.0285334
0.00180732
4.09413e-07
0.015372
5.14444e-08
0.000564776
2.43901e-09
2.12733e-09
2.6711e-09
4.39261e-10
3.71836e-08
2.72181e-06
0.0100459
1.56287e-07
9.88046e-08
3.07871e-08
3.58397e-07
0.00365819
3.05147e-07
1.14443e-08
1.82619e-09
3.04239e-07
2.22522e-07
2.38563e-09
1.98837e-09
6.97741e-09
7.18866e-09
7.21196e-09
1.15489e-08
3.92637e-07
0.00341003
3.33318e-09
1.12377e-09
0.100042
6.28645e-08
2.25824e-09
5.06222e-07
2.43616e-10
1.73402e-09
4.95538e-09
2.08505e-08
0.00240523
0.00258332
1.17732e-09
1.96142e-07
5.8501e-10
5.54187e-07
3.924e-07
0.00465599
3.14281e-06
0.000299267
0.000434393
3.48587e-08
2.65077e-07
5.18626e-09
1.06173e-07
5.02364e-09
0.00168901
7.04492e-08
5.38634e-10
2.24092e-09
7.78641e-09
1.2823e-06
1.03006e-07
2.01067e-08
0.00233527
9.79373e-10
0.0722665
0.00161327
7.03346e-09
0.0109165
1.48078e-06
0.00667687
0.00592841
0.0786943
0.00126162
4.387e-09
0.00144589
0.000326004
0.0030995
0.00939087
1.53846e-06
1.36074e-06
1.21556e-08
0.00213038
8.74987e-06
9.76024e-07
0.00247292
1.22521e-10
1.5517e-08
6.61126e-09
6.8136e-09
1.58019e-06
7.45017e-06
1.29505e-07
0.00432721
0.00983299
0.0494569
2.70954e-05
9.64613e-08
0.000227099
0.00578048
1.66545e-09
2.33233e-09
0.00376974
0.00250421
3.84939e-08
0.00215799
0.0028065
0.00368633
0.00250924
5.92806e-09
0.00277596
1.56778e-08
1.60485e-09
0.00349341
9.22709e-09
4.69139e-08
1.64227e-07
5.98837e-09
0.00561802
0.00227858
1.55643e-09
5.48042e-07
8.78918e-09
0.00290325
6.56197e-09
6.90825e-09
0.00707457
0.158584
7.57053e-09
1.33471e-08
7.2799e-09
3.34785e-09
9.67743e-09
1.28637e-09
3.28217e-07
2.00335e-08
1.83256e-07
7.57319e-09
0.00270325
1.21999e-07
3.49526e-08
0.000664542
4.14956e-09
2.14885e-07
0.00378334
0.228738
3.22656e-09
5.04469e-09
5.89105e-08
5.33556e-09
2.97566e-08
0.000233548
1.72785e-08
0.00176802
1.09038e-07
5.80445e-08
0.00324641
1.90783e-09
1.40313e-05
1.81653e-09
7.14283e-09
0.00282443
0.00373807
0.0477487
1.27959e-09
1.0657e-07
2.00466e-08
4.84311e-10
2.65424e-09
0.0441732
0.000222626
4.98827e-10
1.21395e-07
4.93158e-08
0.00151379
3.82523e-08
2.5121e-09
1.1788e-09
0.000574132
2.78371e-09
1.39248e-09
0.104704
0.0490652
0.0212383
3.88534e-09
0.000647698
0.0732104
1.07264e-07
0.0899146
0.00238047
7.51611e-09
1.23096e-09
7.31243e-07
0.00283509
7.1346e-10
1.62488e-07
8.57448e-09
6.49403e-07
2.94314e-09
2.33931e-09
6.86639e-08
1.15306e-09
9.54479e-10
1.11161e-09
0.00394212
2.27285e-08
5.16238e-09
3.35114e-10
0.00196379
4.49992e-08
3.83953e-09
2.38012e-08
0.00198653
4.27892e-09
0.00040339
8.70421e-09
0.000829308
9.14061e-08
9.72661e-08
0.324296
1.69146e-08
2.92153e-09
0.0479935
2.94514e-07
1.62401e-08
1.02722e-08
1.02677e-09
0.00036192
0.00307556
4.12308e-08
3.75297e-07
0.206383
0.000430996
8.22109e-09
7.5926e-09
4.20554e-09
1.46189e-07
0.00125882
2.83205e-08
0.00215991
0.00259261
3.7314e-09
1.05928e-07
1.02679e-09
6.21396e-10
0.00351087
1.6082e-09
0.00207799
3.46499e-09
1.17798e-08
0.0402833
7.95127e-10
0.244645
0.00206932
0.0141795
1.37157e-08
3.09349e-08
1.80695e-09
2.23222e-08
9.97269e-09
1.10515e-07
2.7598e-09
1.14992e-10
1.04128e-07
0.0028955
0.00206727
3.04289e-08
0.00167273
1.17524e-07
0.000533988
0.00378866
0.000651143
4.51558e-09
2.98054e-09
3.80589e-08
3.11954e-09
0.000460525
2.4841e-09
0.000347124
4.72802e-08
4.46555e-08
5.12889e-08
7.58398e-10
1.96761e-05
1.10445e-08
0.00054482
7.76905e-10
3.8697e-08
2.31674e-08
0.000457469
0.00343225
3.6496e-09
0.00134124
0.00205768
0.0482776
0.00189348
0.00279034
8.04108e-08
0.00248894
0.00247795
0.00266415
4.64734e-09
0.00153972
0.00433203
0.0575398
0.0335846
5.27504e-09
0.00956534
0.02666
0.000404296
0.00171305
0.000434556
5.15229e-10
0.0594799
1.95038e-09
0.0103728
0.00244831
0.00183822
0.00304386
0.00226118
0.00255921
0.310972
8.77706e-09
2.49222e-09
7.58136e-09
1.50035e-08
0.0014359
5.66316e-10
6.90316e-09
0.0021498
0.0163398
2.33492e-08
4.06594e-08
1.4207e-08
1.38229e-08
0.213529
3.8155e-09
0.00218368
1.92334e-07
0.00331059
5.14841e-09
4.51248e-08
1.92656e-07
0.00241999
0.0720064
4.52054e-10
2.09837e-09
1.32488e-07
0.0026322
4.75622e-09
7.32317e-08
0.0329281
6.41131e-07
1.12946e-07
0.107316
1.39948e-09
0.00782064
1.65494e-07
0.0535611
3.85598e-09
0.0150895
0.00943894
2.18931e-09
2.13663e-07
3.55771e-07
1.14639e-08
4.51797e-08
1.03305e-09
0.00257882
4.4039e-09
2.11854e-10
6.91352e-09
6.38836e-08
2.10236e-06
0.00114287
1.08794e-05
0.00310475
0.0020193
2.39829e-08
2.24418e-07
1.43753e-08
1.94356e-08
0.00542235
3.88464e-08
4.46063e-08
1.8731e-08
1.5484e-09
2.45324e-09
1.81848e-05
0.0660536
3.39263e-10
4.24256e-08
0.00414624
2.21322e-07
1.57999e-08
0.00245703
3.88826e-08
0.000365619
9.70361e-10
0.00727813
2.13505e-07
5.78054e-09
1.7104e-08
1.11537e-09
8.36697e-08
2.19714e-09
4.48096e-09
7.96232e-09
4.24071e-09
7.99085e-09
0.00733937
5.41921e-08
1.23322e-08
2.29299e-09
6.86909e-09
9.54859e-09
7.04406e-08
2.48751e-08
1.48394e-08
1.74869e-09
4.35032e-09
3.84613e-09
2.1912e-09
0.00125466
4.97071e-08
1.51971e-09
0.00347246
0.00377972
2.53637e-09
0.0431475
1.82749e-08
4.12558e-09
0.00150657
3.5459e-10
1.3552e-08
0.0018091
2.00692e-09
0.00038488
3.99747e-08
1.90544e-09
4.24358e-08
0.0679308
6.60112e-09
3.73573e-09
0.0100369
0.000173441
6.91512e-09
7.80494e-06
1.81992e-08
2.26543e-09
3.05203e-08
1.9125e-09
6.16702e-09
1.40503e-08
1.9217e-08
1.51418e-08
1.7556e-09
5.42522e-09
0.000768502
1.74223e-09
1.57839e-08
9.25943e-05
1.42756e-08
1.80742e-09
0.0742371
2.23289e-08
7.43814e-09
0.000539254
6.46138e-10
7.55049e-09
1.95589e-07
3.01696e-09
3.91203e-08
8.55111e-10
2.67235e-10
4.6647e-10
0.00210154
2.31281e-09
0.000732639
4.18219e-08
0.00524648
1.26685e-08
6.32118e-09
0.000313357
1.39281e-09
1.05441e-08
1.8701e-08
1.97706e-08
2.12067e-09
0.00334231
6.31588e-09
1.44353e-08
8.50549e-10
4.11933e-08
9.29017e-07
0.00433741
0.000349776
7.23547e-09
7.06462e-09
1.43551e-09
2.84896e-09
0.00350108
1.67553e-08
5.63982e-09
1.73888e-09
0.00108765
0.00395535
1.47422e-08
1.22714e-08
9.76929e-10
1.13805e-08
4.65268e-09
2.50619e-09
4.9253e-09
4.67721e-09
0.122295
1.87965
6.69757e-09
5.03697e-09
6.27439e-09
1.60819e-08
0.000933111
0.00253532
1.17034e-08
0.00273274
2.46543e-09
9.05246e-09
4.93837e-09
0.00282701
0.000211241
1.92311e-09
9.25464e-09
1.19761e-09
2.83807e-08
1.4287e-08
2.42854e-09
0.00157195
0.0769835
1.30629e-07
1.64101e-07
0.000607894
1.42938e-09
5.1947e-09
2.81651e-09
4.23621e-07
0.00218894
3.72789e-08
1.75632e-09
0.000439476
6.21859e-09
3.28808e-08
4.37163e-09
1.76923e-09
3.83986e-09
7.18123e-10
7.8795e-06
1.63677e-09
0.00188263
5.1516e-08
1.12376e-07
6.66301e-09
0.019891
0.0905009
7.51594e-09
2.2016e-08
0.00239455
0.00320867
0.0395079
3.86738e-09
7.77633e-07
2.12095e-09
0.00356878
3.59981e-10
1.65801e-08
0.000428465
0.00266424
3.93756e-09
1.21221e-09
2.00473e-07
6.06154e-07
3.53435e-07
0.000378104
0.00143857
1.4387e-10
6.11771e-09
1.49541e-09
4.6315e-09
0.00289729
2.56791e-08
0.00331454
1.06629e-08
0.00135415
0.00215156
0.00245501
6.53297e-08
3.19126e-09
0.000650601
1.07147e-09
2.36346e-10
9.66202e-10
3.59668e-09
1.80814e-08
5.30342e-09
1.53434e-09
3.88342e-07
6.92285e-08
8.93901e-09
2.7196e-09
0.00192576
4.17928e-08
3.80095e-08
0.000362197
9.48476e-09
3.25897e-08
1.25346e-08
1.82007e-09
1.4516e-09
0.000646936
0.0427854
0.00253877
3.48078e-09
8.51708e-09
4.05483e-09
1.69849e-07
0.00480147
1.375e-09
0.0552814
2.58964e-08
0.00256824
0.000344566
0.00174264
2.3502e-07
1.48064e-07
0.00438768
0.00444515
0.000532191
2.34713e-08
0.0597678
4.6192e-09
7.15783e-08
0.245114
0.00245246
2.46501e-08
1.27524e-07
0.00190388
0.00177331
2.37479e-08
0.00187717
1.855e-09
0.0578753
8.72163e-09
0.0261159
7.4597e-10
5.70441e-09
0.0762576
0.237987
0.000599799
1.14349e-07
6.20669e-08
0.000383645
4.57021e-08
2.37685e-09
0.00196458
0.00228003
6.38984e-09
9.27572e-09
0.000401556
9.52515e-09
1.78643e-08
0.000373921
3.50497e-10
0.00273679
2.54275e-09
7.67606e-09
1.88238e-07
4.12791e-09
4.06395e-08
3.44227e-08
1.23254
3.75459e-09
6.72366e-09
2.29417e-09
1.33096e-08
9.99512e-08
1.57085e-08
0.000326092
0.000858182
5.91333e-07
0.00145352
6.5729e-08
1.05059e-07
0.104182
0.00193673
0.00545173
0.000541429
6.94371e-09
0.000383124
1.23287e-08
3.15519e-09
1.57783e-09
0.00323916
3.96702e-07
3.26622e-08
0.000214122
5.98814e-08
0.00162612
1.69768e-07
0.00688225
3.52433e-09
0.00100438
3.36724e-09
0.00130461
0.000115484
2.5695e-07
0.000651795
0.0018519
0.0200448
0.209594
3.43468e-09
0.00877618
2.5618e-08
0.000714571
0.000444822
0.000428777
0.002164
3.17534e-08
3.38532e-08
0.000561237
3.17312e-08
0.0023514
5.61029e-10
0.000401152
2.38203e-09
2.8805e-09
3.33718e-05
0.000503647
0.000275486
0.000318167
7.69485e-09
5.09392e-09
1.91606e-09
0.000487171
2.15362e-09
0.00359203
0.00489109
2.85449e-09
0.000499731
1.91065e-09
8.80416e-10
2.92527e-09
0.0158187
0.000469631
2.95374e-09
1.3137e-09
0.00928168
2.28452e-09
1.10727e-07
3.87939e-09
3.03307e-09
9.26059e-08
2.63815e-07
3.22658e-08
1.07335e-08
0.000532569
7.60158e-10
0.000128423
3.03171e-10
2.49657e-09
0.00128107
1.52006e-09
0.00894603
8.98267e-08
1.03801e-08
0.000108822
1.21875e-08
0.00161998
3.0281e-08
4.36627e-10
0.00180108
6.11447e-09
9.09143e-09
0.000307133
1.24479e-09
0.00212685
1.75049e-08
1.80798e-09
0.00438876
3.06375e-09
2.83692e-09
1.33266e-08
1.47652e-08
0.000319936
3.43967e-09
1.95365e-09
1.66216e-07
0.0018963
0.000633466
0.000584057
2.29506e-08
4.10624e-09
0.000379941
0.00244619
4.36952e-09
8.58197e-09
5.78951e-08
1.23087e-08
3.50085e-09
2.38426e-08
0.000412258
0.00149875
0.00271741
1.49207e-07
2.0397e-09
0.00275659
0.00413755
0.00537454
4.50712e-08
1.89788e-08
1.64869e-07
0.0406913
1.73785e-08
2.30933e-08
0.114994
2.80343e-08
6.4553e-09
4.56669e-09
0.0326463
9.46043e-07
7.3918e-09
0.00260427
1.46838e-09
6.23868e-08
2.06662e-08
2.92428e-08
4.82702e-09
3.81529e-10
0.000761132
2.01079e-08
3.3096e-09
0.00198226
2.07085e-08
2.36096e-08
0.00328732
2.76099e-08
0.000511431
6.3585e-09
1.81022e-08
2.43954e-08
0.000825752
2.79132e-08
0.00227216
1.89562e-07
2.09486e-07
3.389e-08
0.00553279
0.000295068
3.19252e-09
4.73959e-09
1.03195e-06
1.44529e-09
1.24002e-08
8.36419e-09
0.00174409
6.48158e-10
1.40433e-09
7.36756e-09
4.96834e-09
3.52648e-08
2.36553e-08
7.51443e-09
0.000429218
0.00229908
0.000466222
6.3311e-08
0.00322061
0.0189451
0.00247957
2.27663e-09
0.00191556
0.00293741
0.00163084
0.0021646
0.00212663
3.9488e-09
5.81422e-08
0.00248546
2.2547e-07
3.29087e-08
0.0525324
2.25453e-08
0.000443757
2.30185e-08
0.000538422
0.000104814
2.52378e-08
0.00208699
1.40995e-08
0.000608732
6.99273e-09
1.27709e-08
6.11708e-10
3.18023e-08
0.00159038
0.0037683
6.81088e-06
0.000395619
0.0019621
0.00140398
0.022947
5.68319e-10
4.38397e-09
8.80455e-10
0.00461672
8.46233e-10
1.33658e-07
0.00469814
6.12303e-09
0.00359587
0.00356733
0.00378759
1.22809e-08
7.10927e-08
3.46683e-08
7.3577e-09
9.08774e-09
6.48112e-08
1.22156e-08
6.23785e-09
0.000475253
2.56862e-09
2.1778e-08
2.84719e-07
5.56746e-10
0.00168302
2.16538e-08
3.00431e-09
6.33223e-08
4.8303e-10
6.33698e-07
2.86553e-09
2.05285e-07
0.00319535
0.734652
8.02734e-10
1.56506e-08
0.00217463
0.00320304
1.78607e-07
0.000760587
9.69951e-09
3.33127e-09
0.00269647
2.72011e-08
0.00328407
0.000542246
1.04779e-09
0.0197455
0.000765801
2.19178e-08
2.33951e-08
0.00260019
7.85019e-09
1.12148e-08
3.08797e-09
0.00053461
0.00812386
0.00200403
0.0922507
9.45439e-09
0.00182183
0.0818746
2.55232e-10
0.00876086
3.23692e-09
0.0252591
0.00133376
1.59545e-09
6.94996e-10
1.12152e-08
6.60365e-09
1.54742e-08
6.90217e-09
1.15041e-08
1.03915e-06
9.2668e-10
1.56318e-09
0.0017632
2.9804e-09
0.00975457
2.94218e-08
0.00224739
0.000523448
1.22115e-06
0.0365995
0.0543516
3.22811e-09
1.39763e-08
0.00105508
0.457888
1.92193e-08
2.61191e-08
2.35032e-08
0.000449091
0.102681
7.61181e-08
2.28814e-07
3.8144e-09
0.00241428
7.02847e-09
1.18592e-08
2.0253e-08
9.66353e-09
2.99257e-08
0.00468753
5.63846e-08
2.89479e-08
1.886e-08
5.22465e-09
0.000477737
2.27581e-09
4.09358e-09
3.3538e-08
2.5324e-10
1.66455e-09
7.05314e-09
7.4045e-09
1.25477e-08
0.118967
1.21194e-08
1.18375e-08
2.52362e-09
1.99485e-08
1.02967e-08
9.83083e-09
5.96113e-08
0.000380629
0.00250538
1.54732e-08
8.32918e-09
0.00291707
1.58151e-09
0.0186688
0.0120825
4.70045e-09
7.6109e-07
0.0839331
0.00294332
2.46894e-08
2.92774e-08
2.29774e-07
0.00371915
0.036365
2.34888e-07
6.54747e-10
3.73449e-09
4.49551e-07
1.40793e-07
5.35901e-09
1.37857e-09
5.79834e-09
7.55506e-09
0.115717
0.0521403
6.07686e-08
3.49841e-08
5.40653e-08
0.00280573
0.00254084
0.0116223
1.45023e-08
3.4985e-08
3.99595e-08
4.41191e-09
2.8935e-09
1.88488e-07
4.22206e-09
3.33909e-08
1.547e-09
1.139e-08
2.09669e-08
2.27981e-09
0.0167251
2.98067e-09
0.000434431
1.03111e-07
0.00403782
0.00168983
1.1426e-07
2.26406e-08
0.000579701
0.000345167
2.6835e-08
2.329e-08
9.3678e-06
2.30995e-09
1.88349e-09
2.25302e-08
1.60221e-08
0.00078145
0.000646991
1.08448e-08
1.24021e-08
7.33233e-09
3.43912e-07
0.000322482
0.00276023
0.000496411
4.42522e-05
0.0002388
7.00517e-09
0.000315402
0.000231971
0.000223544
2.99414e-08
0.024961
2.1577e-09
1.01818e-07
1.95649e-08
0.00247972
4.88911e-09
4.20454e-08
6.5628e-09
7.59656e-08
0.0199617
0.00204072
0.00235271
2.25961e-08
3.06636e-08
0.00037761
2.74067e-08
0.00907571
1.04136e-08
0.00312245
2.71843e-08
2.05406e-08
0.00356214
0.00277392
7.28799e-08
1.33469e-08
0.00134453
1.67118e-08
4.65927e-10
1.39592e-09
3.01424e-09
1.80131e-08
1.36296e-08
5.96658e-10
2.08691e-08
3.74109e-08
1.00404e-08
6.76033e-08
1.67586e-08
5.75438e-07
0.00198897
3.22924e-09
1.47283e-08
5.26575e-08
0.00212498
0.0230207
4.97615e-09
0.00122519
3.18108e-09
2.25162e-07
1.4758e-07
0.000983777
3.81939e-07
3.06203e-10
1.22428e-07
1.38333e-08
1.22677e-07
6.26935e-08
3.55865e-09
1.47574e-07
6.88464e-09
8.51831e-08
6.9939e-10
0.000584271
5.22554e-08
0.00213483
1.41931e-09
5.68513e-08
2.57478e-05
1.07409e-08
0.0056623
5.73822e-09
6.8702e-10
2.48628e-07
3.84731e-08
4.49068e-09
0.000283548
6.1087e-08
7.67763e-08
0.000547253
2.9742e-09
0.000563699
3.08054e-08
1.8359e-09
1.01372e-08
6.21827e-09
2.17177e-08
4.19653e-07
3.20335e-07
0.0493557
0.00246984
2.10568e-07
0.00403286
0.0022044
0.00341317
1.008e-07
2.11575e-07
0.352217
3.85878e-09
2.51064e-08
2.71101e-08
0.0024861
1.15323e-08
0.000635586
0.000492204
2.73385e-09
0.00268133
0.0364905
0.00272498
1.54685e-08
0.00255102
5.59754e-08
0.000340277
1.61868e-09
4.23927e-09
3.96387e-08
0.000746693
0.0748646
4.16758e-10
2.59356e-08
6.49315e-10
0.00053298
0.000313608
6.17087e-08
0.00982398
4.86031e-07
0.000544712
3.24875e-08
3.66562e-10
6.30493e-09
3.66408e-09
8.74957e-08
0.00201077
3.81711e-09
0.000806859
4.72473e-08
3.63298e-08
4.84813e-09
0.00170147
2.26645e-07
1.28182e-09
6.43149e-09
0.000432446
0.0138111
7.97704e-08
0.00157201
0.0472915
0.00264597
7.20628e-09
3.9556e-09
4.09605e-09
0.000681434
2.62614e-08
4.41536e-09
1.75946e-08
0.0204223
0.0113763
0.0342019
1.82222e-09
0.100907
0.00877157
7.78071e-09
6.3075e-09
0.064905
1.70111e-09
3.17814e-09
0.00246366
0.00229475
6.47335e-08
2.7411e-09
1.02351e-09
3.28532e-08
0.00202208
2.59343e-07
0.29323
6.96581e-10
0.00900691
3.07487e-08
0.00117837
0.000444877
0.189683
2.24719e-08
0.286924
0.778652
0.000103938
2.26229e-09
1.80141e-08
0.00131412
1.34454e-08
0.000934548
0.00636094
0.0624475
0.00362632
8.74654e-09
0.0016339
0.010281
2.09238e-09
1.21176e-08
4.93135e-09
0.000427672
0.000359183
5.20735e-06
0.000637652
0.138511
0.000274054
0.00292019
0.000398991
0.00283955
0.00194505
0.00221777
4.50605e-10
0.477808
9.08279e-08
0.184602
0.149173
0.00217048
2.00058e-09
5.20825e-05
1.45329e-08
3.28397e-07
0.000761567
0.0849935
8.96703e-10
0.001788
1.46784e-07
0.000207822
1.80395e-07
4.21599e-07
3.6189e-09
3.99314e-07
2.20625e-07
0.00157054
0.000537683
3.79289e-08
1.48858e-07
2.9304e-05
0.00137078
0.00136438
0.00800571
4.94861e-09
0.000502799
0.00155443
0.00183463
0.00150931
2.48719e-07
0.0022425
2.70698e-07
4.31913e-09
4.20344e-09
8.29694e-09
0.00152765
0.00183616
5.9834e-09
1.46478e-08
8.11811e-09
4.21736e-07
0.00029809
0.00375337
0.00140558
8.20542e-08
0.00252596
8.02475e-10
3.82826e-08
0.0011303
0.000804492
5.86778e-09
0.00171567
1.29422e-08
6.1815e-09
0.00356799
5.31837e-09
0.00042332
1.17692e-09
0.00037871
0.000405406
0.000581331
0.00198656
3.38195e-07
0.00163321
1.27395e-08
0.00174685
0.000460544
0.00126785
0.00225037
0.00111529
7.6385e-09
0.00126487
3.36416e-09
1.33413e-08
0.00295902
1.64007e-07
0.321202
0.0184634
5.50087e-08
0.000573412
0.0130941
2.5631e-09
1.51569e-07
0.000103685
0.000403271
0.00232421
2.80491e-07
6.85115e-09
0.000614733
1.69976e-08
1.38942e-08
5.25155e-08
6.41394e-07
0.357301
1.24949e-08
0.0569363
8.57111e-10
0.000256124
0.00443163
9.2922e-09
0.1034
0.0025397
0.00170763
0.00047976
2.45392e-09
0.00342083
0.0028476
5.35075e-10
0.000489108
0.0264045
0.00061878
1.84123e-08
0.0618268
5.1323e-07
2.15078e-08
7.87088e-11
0.000345767
0.00240391
5.97921e-09
1.25748e-09
0.00218495
1.10971e-08
3.58797e-09
3.46057e-08
1.87017e-09
7.87449e-08
0.00363144
0.00209991
2.09488e-08
5.40354e-10
0.00221533
2.01649e-07
0.00277431
3.59924e-09
0.0321894
4.53396e-08
8.52354e-09
2.74506e-09
0.00180529
0.00412366
5.06629e-09
2.79843e-07
0.000274718
0.00245756
0.000453097
1.43838e-08
0.296319
2.55646e-09
0.000232095
0.00234408
9.13149e-10
3.80902e-09
3.97901e-08
3.4099e-08
0.000502522
2.73299e-07
0.000529727
1.95239e-07
4.40799e-09
5.84959e-11
2.46229e-08
0.000221094
0.000394062
5.99784e-09
0.00394955
0.00252355
0.00113886
3.01513e-10
3.75356e-09
9.02702e-09
4.87065e-09
1.85114e-08
0.00277783
0.000620103
0.000514071
0.000120103
0.000348249
0.000381682
3.29562e-09
4.27133e-08
1.18665e-09
0.00708538
1.89083e-08
0.00807849
1.07982e-08
1.8176e-09
0.00116107
1.63367e-08
7.86434e-08
9.44191e-08
2.25851e-09
6.87784e-08
3.445e-08
0.00226755
4.55457e-09
1.6421e-08
4.25732e-09
1.38205e-08
2.10686e-08
0.00386966
4.80694e-07
1.16612e-07
0.0104589
7.36892e-10
0.876086
0.441954
3.74812e-09
6.28103e-07
9.45903e-05
9.48138e-09
9.80842e-09
1.03119e-05
0.60307
0.0441613
0.00316068
3.80352e-09
0.000876608
0.392977
0.00291499
0.0254046
1.25509e-10
0.00221531
0.125068
0.0440379
1.02924e-08
9.00721e-06
0.0263656
4.14138e-06
1.69632e-08
3.20537e-08
0.0323869
1.69633e-09
1.15272e-08
1.0556e-08
4.53942e-10
1.44042e-09
9.89929e-10
0.00421568
0.00382892
3.26977e-09
2.70582e-09
3.21543e-09
1.08454e-09
0.000916801
5.03904e-09
2.81381e-09
5.51486e-08
1.28621e-08
0.00228098
2.55416e-09
0.000384358
4.03825e-08
0.00200651
1.8109e-08
0.00174399
1.75336e-09
0.00329693
9.21474e-09
0.00183777
0.00549896
3.42184e-08
9.95606e-09
0.0272173
2.23213e-09
3.96453e-09
3.35682e-09
0.000259173
0.000626598
0.00220666
9.1177e-05
6.7426e-05
0.00816628
0.00548115
6.00844e-09
1.28701e-08
3.00262e-07
1.11427e-08
0.00425079
2.80612e-06
0.00316773
2.54884e-08
8.1577e-09
0.0015928
0.00149262
0.00180398
1.59371e-08
0.0101917
0.00194086
1.78809e-09
0.00340194
1.56445e-07
0.00184085
0.000459342
1.91138e-07
0.00238168
0.00507757
0.000437949
0.00214029
0.00223894
1.60667e-08
0.0024519
0.00311742
0.00186731
1.80163e-08
4.39188e-09
5.64308e-09
9.8325e-10
2.51791e-09
0.00179388
0.00284215
0.00185698
3.3527e-09
0.00320611
2.87383e-09
0.00228115
0.00258176
1.114e-08
3.7461e-08
0.00170718
2.44756e-08
1.22624e-08
4.18786e-05
7.48252e-10
0.00264188
0.00204897
0.000319424
0.00167172
6.4259e-09
3.11577e-09
5.79324e-09
0.000178704
7.19625e-08
3.11123e-07
1.28375e-09
5.41104e-09
1.54706e-08
8.06846e-09
7.80863e-09
9.09991e-08
3.42396e-10
2.82484e-08
0.00616792
1.26352e-08
3.59441e-08
3.50289e-09
1.25956e-07
1.52574e-09
7.08455e-09
0.02013
1.47444e-09
0.0346333
0.00194366
3.22053e-08
5.28026e-09
6.74493e-07
2.4841e-09
1.40654e-08
4.6289e-08
0.0021828
0.00333185
0.00225291
0.0015396
1.43478e-08
1.33724e-08
8.82103e-05
5.53653e-09
0.00162942
4.30899e-08
0.00126294
3.71836e-07
2.67248e-08
0.00243472
0.00154451
2.15022e-09
4.14904e-09
0.029364
6.1838e-08
6.88178e-08
6.34516e-09
4.23144e-07
4.60421e-09
0.0100814
2.49389e-09
3.10999e-09
7.878e-09
1.74837e-08
0.0001802
6.857e-09
0.00305849
0.00442867
0.00149896
0.00265127
0.00160269
0.0112362
1.03713e-08
0.00207887
0.00227973
6.49154e-09
0.000410059
2.35391e-09
1.44304e-07
0.00242395
4.267e-08
1.34609e-07
2.30281e-08
4.41703e-08
0.00343742
8.24942e-09
1.38839e-09
2.11534e-07
2.58506e-09
4.81772e-07
0.0051736
6.7203e-08
0.00216502
3.80598e-08
0.000460402
0.000295256
0.0569612
4.74631e-10
5.02029e-09
0.00198705
3.40448e-09
0.00188089
3.8943e-07
0.000517979
1.49307e-07
0.00323313
1.35597e-07
2.86367e-08
5.96256e-09
0.000325216
0.00276918
4.04034e-08
0.00170267
0.00339525
0.0895617
0.00431177
5.77505e-09
2.46638e-09
0.25629
0.00194726
1.17194e-08
1.40311e-09
0.000163955
5.8818e-08
3.0885e-08
0.0024249
1.37788e-08
0.144109
0.00273471
1.35657e-09
8.46821e-09
0.0638741
0.000106753
6.8227e-09
0.00261226
4.61494e-09
0.00285731
2.08401e-08
7.07804e-05
4.21587e-08
0.000941762
0.000464916
0.0202684
1.93677e-07
0.00261377
1.63262e-06
4.82528e-09
3.93345e-05
1.30177e-07
0.00219991
1.70559e-09
5.71947e-08
6.06315e-08
0.0228965
0.00261039
0.000270694
0.00278731
9.43502e-09
0.000358008
1.15077e-08
0.172808
0.00336458
6.67624e-09
0.00160451
4.66825e-05
3.62191e-09
2.65688e-09
1.30525e-08
0.00261641
1.90177e-08
3.36714e-09
3.36252e-07
1.12303e-08
6.21617e-09
0.000301362
2.96013e-09
0.00880009
0.00252154
0.00661674
3.25372e-09
0.00210556
0.0159556
6.50612e-09
1.51376e-08
0.00658607
4.31287e-08
0.0568253
1.69373e-08
4.19302e-08
6.38191e-08
0.0170997
0.00114179
4.62404e-08
0.00254034
1.57433e-08
3.78387e-08
0.00284655
3.34994e-08
7.15216e-08
9.69218e-09
1.30044e-07
0.00244645
2.49851e-08
1.95058e-08
0.0531625
7.30726e-09
0.00275601
1.2673e-09
7.42958e-09
1.05602e-09
9.1294e-09
0.0015589
5.51394e-08
7.86387e-10
1.77877e-09
1.39553e-08
7.2874e-08
0.00265821
4.54585e-09
4.02301e-09
2.88422e-09
1.53203e-07
0.00682607
3.0513e-09
0.00166201
2.00381e-08
1.31869e-08
6.89961e-09
5.52291e-08
0.000429634
6.81372e-07
5.87797e-11
9.95198e-10
0.00190796
0.00229501
5.46538e-08
2.6839e-09
0.102657
1.74111e-08
3.30256e-10
0.00356722
1.00093e-08
0.00280603
2.99571e-07
1.81665e-08
1.74406e-08
1.38254e-08
9.1299e-09
3.62862e-09
0.0736156
1.73278e-06
1.38329e-09
4.62251e-08
5.53504e-08
5.94735e-09
0.00267415
4.49238e-09
1.11698e-08
0.00207159
2.91466e-08
3.56077e-08
1.42876e-10
0.00240113
3.61379e-08
0.0232688
3.78483e-09
3.70091e-08
4.4148e-09
0.00245285
5.30727e-09
7.17683e-09
0.000611963
1.11231e-08
7.17528e-09
0.00241414
6.64888e-08
3.09845e-10
3.03102e-08
5.37625e-09
0.00192891
4.56005e-07
6.08031e-08
3.04855e-09
4.22582e-07
1.47998e-07
1.00202e-08
1.42375e-09
1.02834e-09
3.49672e-08
5.77106e-09
8.0721e-10
6.36242e-09
8.01936e-10
7.31532e-09
0.00239442
7.18588e-07
1.5076e-08
2.35437e-09
9.24554e-10
0.00232121
3.66063e-09
0.00340345
0.300961
0.00163718
7.02657e-10
0.00222877
0.00304254
7.31441e-09
9.7651e-09
7.77541e-08
0.00218509
0.00265029
3.17699e-07
6.66466e-09
2.69941e-07
5.30283e-10
0.114381
8.31259e-09
9.93777e-08
1.22709e-07
3.24519e-09
3.51424e-09
1.31683e-09
7.13104e-09
8.72765e-09
3.82234e-09
5.07326e-09
1.20085e-08
7.83806e-08
2.70942e-11
3.36755e-09
2.2407e-10
6.66895e-09
1.26757e-09
0.0149698
0.00196079
0.00289031
3.34959e-09
0.00230967
1.48536e-08
2.50144e-09
5.25957e-09
0.0155904
1.97734e-06
7.12899e-08
5.35116e-10
1.02364e-08
1.56745e-09
8.29236e-09
1.64465e-09
1.34103e-08
1.41297e-07
0.00164049
2.28565e-09
3.48393e-09
0.00145531
0.00185012
0.00226917
0.00211533
0.00179972
4.2716e-08
2.77261e-08
3.187e-09
8.74713e-09
7.54103e-09
1.40682e-06
7.90422e-10
2.89638e-08
3.40626e-08
7.06991e-09
2.68455e-09
2.49791e-09
7.612e-07
3.15502e-06
3.99186e-07
8.73358e-09
1.62234e-09
4.37575e-09
0.00294851
1.94714e-09
0.00192054
1.02164e-07
7.47097e-09
7.52172e-07
0.00105424
7.38619e-08
5.73925e-10
4.31198e-09
2.14023e-09
1.30372e-09
0.00451846
1.83009e-09
0.00114552
3.14821e-10
4.18287e-08
0.00372821
5.02204e-09
0.00138093
6.07274e-08
0.0022352
0.0117446
0.00126135
2.09697e-10
0.00520485
0.00240731
2.82601e-08
1.89462e-09
0.0016274
1.80619e-08
0.00509636
1.33287e-06
7.6208e-09
5.01051e-10
0.00025369
1.26364e-07
0.000221135
6.46807e-07
0.0646835
0.00169828
0.0167819
3.4649e-09
3.89984e-07
0.00315208
0.00141973
0.00245542
0.00243285
5.18959e-09
0.000290422
3.18298e-08
1.28641e-08
0.00315094
5.97685e-09
0.00153515
0.0033361
0.000130924
3.13723e-09
0.0016655
0.00313995
3.0037e-08
6.61006e-10
0.00174293
0.0359729
1.47671e-09
4.91237e-07
9.71971e-08
0.000406703
6.42995e-08
5.476e-08
2.5103e-07
2.72933e-07
9.9408e-08
4.68946e-09
4.82167e-09
1.36753e-08
3.02356e-09
1.71442e-08
7.29525e-09
2.53947e-10
1.95577e-09
0.00207138
0.00293459
4.10701e-10
2.36941e-08
7.32184e-09
3.26922e-09
1.39114e-06
2.1023e-08
2.54197e-09
0.00284385
0.00156349
0.00146111
0.00168516
5.13752e-08
0.00426625
2.86099e-07
0.00391116
4.11155e-10
0.00235306
2.74329e-08
3.55023e-08
1.66955e-07
5.57722e-10
0.00305837
2.02174e-06
0.100354
6.46564e-09
1.34727e-09
1.13942e-08
9.28212e-09
0.00139216
0.00297781
1.58621e-10
3.1033e-09
1.97361e-08
0.00173235
4.64139e-09
0.00292844
3.49083e-07
1.56694e-09
7.76071e-09
0.00250705
3.46417e-08
0.00221787
8.06497e-08
0.00395165
0.00330486
7.4316e-08
1.86879e-09
0.00366295
8.5613e-09
8.51989e-07
0.000344637
1.57282e-08
0.057787
2.23417e-08
8.21275e-09
0.00310492
6.20848e-09
7.95096e-08
3.1998e-10
6.78337e-08
7.58563e-09
4.64333e-09
2.10114e-08
9.81923e-09
1.83226e-08
0.00302366
2.17186e-08
2.3688e-08
4.54347e-09
1.56948e-08
1.04029e-08
7.68417e-09
9.61343e-09
0.00226507
8.11291e-09
0.00303089
0.00452404
5.80696e-09
0.000360671
2.53176e-09
3.30501e-09
2.69345e-08
1.20554e-08
3.09897e-08
0.00158412
0.00209564
1.13157e-07
0.0845744
8.55913e-08
0.00318233
0.0011097
4.81061e-08
0.00237294
0.00453135
0.0178221
0.0111004
0.000410459
6.26628e-09
0.0376603
2.76738e-08
0.000563896
6.96181e-10
0.00260509
2.16098e-10
2.42098e-09
0.000636437
0.000341711
1.33926e-08
0.000460447
5.27315e-08
9.54954e-08
2.13292e-08
3.07014e-09
4.25638e-07
3.19149e-09
4.87596e-09
0.00257265
1.22396e-08
1.39038e-08
1.29552e-06
1.22014e-07
1.65532e-09
0.9992
3.18352e-08
2.29022e-08
9.1221e-08
1.60362e-07
0.000297092
0.00860311
4.21375e-08
7.37267e-09
0.00242881
0.00241207
3.70615e-08
2.35371e-08
1.19917e-08
2.88574e-09
2.46207e-08
1.07243e-08
0.00215393
0.00447492
6.89131e-09
2.43443e-09
4.06998e-09
4.626e-09
0.00254737
0.000394487
1.93697e-09
1.84391e-08
1.72421e-08
0.0022201
0.00931897
0.0125529
0.00199539
2.20509e-08
2.25095e-08
3.33495e-09
3.28189e-08
1.93566e-08
0.00234088
5.40567e-08
0.000310597
3.52281e-09
5.47173e-09
0.00328372
0.00266855
7.63038e-09
0.00314849
1.08109e-09
1.48173e-09
4.7848e-07
3.7998e-09
2.97707e-09
0.00187403
2.68631e-08
1.31207e-07
0.00385137
1.37747e-08
0.00710387
0.00311518
1.41664e-08
0.00329697
1.29468e-08
1.24073e-08
1.72979e-08
1.96786e-07
7.41431e-09
4.63623e-08
6.68351e-09
8.7698e-06
0.151691
1.79583e-08
0.00244441
6.41347e-09
0.00309536
6.72014e-10
1.40653e-08
5.09624e-09
0.00771968
8.50662e-09
0.00230632
0.0020353
0.00319264
1.67456e-08
0.00220393
1.49392e-07
1.68486e-08
3.21084e-09
7.76448e-09
1.19247e-08
7.9966e-08
1.47377e-07
2.9545e-07
2.84298e-09
0.00292067
3.58403e-08
1.28125e-09
1.15135e-09
4.57103e-09
1.12119e-09
0.00206275
3.46342e-08
0.00307543
2.3032e-08
0.000624966
2.60702e-09
3.24622e-09
0.00182007
0.00587945
6.57699e-08
1.99457e-09
0.00379712
1.22887e-08
9.62325e-10
1.2451e-09
2.17522e-09
5.67416e-10
1.30405e-08
1.44731e-09
1.37618e-08
4.07258e-09
5.94633e-08
2.70194e-08
0.00252863
5.7138e-07
1.10863e-07
1.28498e-08
7.17252e-09
0.00216358
9.43972e-09
0.00314761
4.23759e-08
2.84476e-08
5.4527e-09
5.08668e-09
8.242e-08
7.65845e-07
0.00135016
0.00128822
8.33292e-09
0.00380373
2.21268e-08
0.00286731
8.92374e-09
1.8206e-08
2.69723e-09
0.00270083
0.00132697
0.000427452
4.66215e-08
1.85384e-09
0.00133957
5.01689e-09
4.67985e-09
8.04923e-09
7.08031e-09
0.00245019
0.00209724
1.55837e-08
2.13191e-08
5.40223e-08
3.45275e-09
0.0156171
0.0131843
6.19252e-09
2.24651e-08
0.00164041
7.93567e-09
2.98491e-08
1.15319e-09
3.01672e-08
2.81493e-09
0.00234772
5.38056e-09
0.0052581
0.000526643
1.08786e-08
6.88513e-09
0.00839352
3.10863e-09
0.00877616
2.37929e-08
0.0539825
3.89755e-07
0.0973187
0.00189049
8.91543e-09
2.06187e-09
0.000282707
5.9735e-09
1.56919e-08
0.0300628
3.63694e-08
2.22909e-08
1.22516e-08
8.00063e-08
7.46273e-09
0.0174199
0.301526
0.0178621
1.32394e-08
8.84397e-09
0.0197549
0.00158807
2.86168e-07
8.28752e-09
0.161657
1.37141
5.99269e-09
5.46382e-08
2.04263e-08
0.0048189
5.22482e-07
5.80415e-07
7.85599e-09
1.36313e-08
0.00232111