/*--------------------------------*- C++ -*----------------------------------*\
  =========                 |
  \\      /  F ield         | OpenFOAM: The Open Source CFD Toolbox
   \\    /   O peration     | Website:  https://openfoam.org
    \\  /    A nd           | Version:  10
     \\/     M anipulation  |
\*---------------------------------------------------------------------------*/
FoamFile
{
    format      ascii;
    class       volScalarField;
    location    "23";
    object      p;
}
// * * * * * * * * * * * * * * * * * * * * * * * * * * * * * * * * * * * * * //

dimensions      [0 2 -2 0 0 0 0];

internalField   nonuniform List<scalar> 
111485
(
7.8713
0.0280427
0.0181972
7.87239
0.0113479
7.60923
0.0114497
0.0196472
0.0118744
-0.000684316
0.0109163
0.00832478
0.0152393
0.000336834
0.013261
0.0392832
0.0263725
8.79339
0.0165612
7.87307
7.87326
7.612
0.00941033
0.0283251
0.00632916
7.84683
0.0151133
0.0454621
0.0165005
7.87232
-0.0836417
0.0163916
7.87495
7.60716
8.57304
7.56744
-0.058231
0.0518706
-0.119228
0.0223637
7.65434
-0.000669831
0.0230547
-0.0303947
-0.259115
7.88573
-0.0142165
0.0241408
-0.00553975
7.91504
7.91316
7.36146
7.92163
-0.0460305
7.9266
0.0249235
0.0174179
7.61561
-0.0941265
0.0197328
0.0209367
7.87176
0.0190649
-0.0720229
7.6573
0.0247147
5.10049
0.0182973
0.00519657
0.016567
-0.140939
0.0307204
7.72495
0.005597
7.87753
0.0308153
7.61166
-0.00381691
7.61046
8.05585
-0.112383
-0.0329218
7.61114
7.87386
0.0232028
0.010138
1.74463
-0.0520017
-0.104423
0.0379374
-0.213343
0.0120566
0.0223797
0.0459557
-0.000536555
7.87355
7.87181
-0.0350245
-0.739828
0.068509
7.87166
0.00663566
7.59655
-0.0079835
0.0120175
7.91214
7.61431
0.0152946
0.00958783
-0.349146
0.021174
0.0331601
0.0175771
0.00716648
7.8434
0.0299242
7.85989
7.60785
0.0110037
7.87406
7.84581
6.66175
7.612
7.6158
-0.00158786
8.95666
6.62447
0.018906
7.87439
0.38772
-0.103157
-0.0361321
7.87802
6.50829
6.79788
0.0112801
7.6115
0.0323632
0.0091462
0.0276471
-0.0374019
0.0108159
0.0158686
0.0193812
-0.0218862
0.0327876
7.61151
7.87304
7.62065
0.0176114
0.0151261
7.87092
-0.0716931
0.00921078
-0.666593
0.0194895
0.015068
0.0103862
-0.523987
7.87905
7.87268
0.0166788
0.00844433
-0.483937
-0.604158
0.024761
-0.0637412
7.64285
-0.446121
-0.412045
7.61535
7.87254
0.00719702
7.6129
0.0291835
0.0169959
7.66706
7.70313
7.8627
7.81104
7.67415
7.87173
0.0243133
0.0196327
0.0264698
0.0700768
0.00241455
0.0280582
-0.0490925
7.87242
0.0156129
7.69829
7.86009
0.036048
-0.0071171
-0.0476465
0.0315693
0.0159045
7.87837
0.0233882
0.0189046
5.29359
-0.0213601
0.0251949
7.86857
0.0318861
-0.00866421
7.69705
-0.0534241
-0.00956217
0.014454
0.014557
7.6669
7.87133
0.0283535
4.95558
-0.0365438
7.61261
0.0309287
0.0339367
-0.00236278
7.87074
0.0199072
-0.0628902
5.98786
7.61266
7.61547
-0.116321
-0.592836
7.72484
7.29481
0.0322
0.0230777
-0.0819645
7.72286
7.8047
-0.0703523
7.87525
0.00791933
0.029591
0.0299417
0.017397
0.0290696
7.61666
-0.110224
0.0126706
7.6195
7.61129
-0.0513453
0.0322047
7.78262
0.0305766
0.0292849
7.87321
6.3527
-0.0267423
7.88708
8.02338
7.18557
7.87296
0.0256834
0.0185449
-0.0106334
7.87506
0.0299084
7.87224
7.87049
7.87802
-0.0780647
-0.0103073
0.025704
0.01655
0.00183559
0.0194382
0.0168774
-0.0812488
0.0103478
0.0208528
7.57127
7.87293
-0.0824667
0.0196226
-0.093268
0.0256051
7.87358
0.0262818
0.013105
0.019786
0.0180759
-0.112399
0.0147966
0.0181164
-0.0237018
7.61214
-0.012003
7.61296
8.73614
8.0903
-0.122432
-0.0102354
0.0106008
7.86616
7.67632
0.0272913
0.0263602
7.87062
7.86914
7.93024
0.0182803
0.0299799
0.0206767
0.0177406
0.0137248
7.22518
7.61855
7.87437
0.0306483
3.22672
-0.00521511
-0.113279
-0.0873461
7.61207
7.87099
7.87175
6.79151
0.0242777
0.0194275
7.60457
0.027275
7.77947
7.86288
-0.0332933
0.0247897
0.00351325
0.0273301
7.98467
6.75566
7.60777
0.0246603
0.0197359
-0.0843146
7.64997
0.445907
-0.15149
0.0190022
0.0290632
1.26612
0.0121374
7.61005
0.00719673
0.0304785
-0.104556
-0.0396315
0.00841708
7.60995
7.87573
7.61295
7.87562
0.0268648
0.0244589
-0.0141834
0.0168013
7.62844
0.0124223
7.6154
7.87884
0.0132859
8.13858
6.94924
7.91494
7.56273
0.0182588
7.61424
0.0171734
0.0175838
7.61027
0.00544932
0.0263306
7.85299
0.0260219
0.0122667
0.0319407
-0.0490821
0.0406735
0.0299343
7.99299
7.87379
-0.0191556
7.63236
0.00550091
-0.0464239
7.66578
7.61486
0.0266937
0.00871899
-0.000780001
0.0244076
7.61132
-0.0805393
0.00402874
7.60728
-0.0329619
-0.0110961
7.87035
7.87192
0.0246665
0.00638136
7.59264
7.86386
5.85563
7.87102
0.0118892
7.61285
7.87193
0.000806683
-0.0968257
-0.00780761
0.0194878
7.61033
6.80915
-0.00570682
6.90733
-0.0286142
-0.00178877
0.00550675
5.27511
6.98141
-0.489557
-0.316144
7.86981
-0.0503772
0.0110033
7.86883
-0.514826
-0.00106877
6.94602
0.00552209
0.00736333
0.0385817
7.61153
0.268506
0.00438162
0.0489637
-0.136258
6.60094
-0.602887
7.87101
-0.042933
-0.169151
7.6159
-0.00558144
-0.00934862
6.41885
7.87401
7.46947
7.87224
0.0124661
0.0781891
0.0113762
0.0108968
-0.0558825
7.61304
-0.0448213
7.88363
0.0242805
7.59842
7.88099
7.88825
0.00167469
7.87452
7.87127
8.34397
7.87022
7.62392
-0.0184712
7.61363
7.41664
7.60984
7.85884
7.60403
7.88063
7.61235
-0.000505321
7.60833
-0.0217052
0.00241849
-0.0909227
7.61841
-0.0190947
7.61746
7.87103
-0.00420102
-0.00375828
0.0423957
-0.124565
7.3213
-0.013045
-0.0234969
0.0229494
-0.0143199
-0.00177192
7.87364
-0.00434788
6.43013
0.00364669
7.61243
-0.0200166
6.65443
0.0226043
0.0158142
8.29112
7.67703
-0.0325313
7.87094
-0.0120722
-0.0203073
7.62265
7.6299
7.92076
7.61479
-0.978255
-0.0121005
7.60763
7.61997
0.00897686
7.61194
-0.0160898
7.61089
-0.0176831
7.87133
0.00886863
0.00761073
0.0516361
0.0215092
7.59066
-0.128677
7.60568
7.61218
0.00423971
7.61353
-0.000867913
7.92694
-0.0340788
7.87287
0.0238782
7.87328
6.95389
-0.11147
-0.0467439
-0.0166418
0.00882194
-0.0291015
-0.00388106
7.61973
-0.0242575
-0.0266131
7.61208
-0.0522339
-0.0634867
-0.00913825
7.68105
8.03451
0.0322683
-0.0388392
3.67573
7.71896
0.000457829
0.0206723
0.00529405
0.00206344
0.156064
2.523
6.86028
-0.700921
3.13745
7.87257
0.00989558
7.63163
6.98478
0.030118
2.47194
-0.720336
1.42108
6.85847
-0.012462
0.0159143
7.62688
7.44389
0.0230094
7.8786
7.61202
7.6127
7.61708
0.000321214
7.61393
7.82916
0.00606585
0.0261212
6.00939
-0.0293486
7.3081
0.0272508
7.92049
7.61761
-0.00558778
7.61162
7.61709
6.95158
0.0450756
4.63553
-0.0241037
0.0375633
7.88681
-0.226979
-0.0675686
0.00488199
-0.0142932
0.252784
0.000508218
7.61491
-0.00681938
0.00779609
7.87614
0.0204913
-0.0211626
0.0136025
0.0364237
0.0136055
0.0125753
7.88597
0.00014982
-0.0549821
6.93147
0.0144179
0.0141658
4.83507
0.038736
0.014857
0.00505951
0.00760973
0.0161609
0.0330209
7.75688
0.00996533
-0.000524983
8.22972
-0.00448448
-0.018561
0.0365295
7.6146
0.0490735
7.89069
7.61184
7.62448
7.61516
0.0172556
7.04451
-1.04859
7.86828
7.55267
0.00504529
-0.000609915
7.86982
-0.00963109
7.86953
7.87312
7.92284
-0.00663898
0.00763409
6.98099
7.82006
7.61405
7.61404
-0.0646311
0.020385
6.79937
0.00295842
-0.415731
7.61823
0.0104929
-0.0160428
0.0830263
7.61127
7.61215
0.0222646
0.031023
6.91529
7.61599
7.60292
0.0168563
7.87598
7.86951
7.61395
0.00705558
0.0208194
7.61133
8.48048
8.21267
0.149199
7.61738
7.61099
-0.0215907
-0.0730458
6.89973
5.94423
1.13293
-0.0109771
0.00196022
7.59049
-0.0197283
-0.00380254
7.61061
7.92025
7.61096
7.61295
7.61642
7.61065
0.0239388
7.87064
7.61168
7.67168
0.0150075
0.0162669
7.87716
7.93353
-0.0228884
0.0250188
0.0346224
7.86881
7.61229
0.0252393
7.87363
-0.00715963
0.0187466
0.0432129
7.84955
7.87175
7.8716
7.61317
0.035996
7.61221
7.61151
-0.0321494
7.87169
0.0344274
0.00686842
7.63575
0.0350145
7.84021
0.0239874
-0.00504598
-0.0231212
-0.0161068
-1.27847
7.22848
0.022066
-0.0176362
0.000852672
7.78573
-2.11528
7.14583
0.0236748
7.61583
-0.0273855
-0.0119124
-0.0307945
8.07885
7.87181
7.87416
0.0291213
7.30505
-0.0263007
7.44201
0.0262498
0.0340343
0.00972869
0.0240893
7.61027
7.63822
7.74666
0.0268986
7.61435
7.22603
-0.159507
7.61462
7.62155
7.87325
7.6114
0.010375
7.60111
7.61321
-1.57866
7.28744
7.63417
7.06454
7.61356
-0.0357728
0.0134217
7.8708
0.0169925
1.00179
-0.035795
-0.388562
0.0240074
7.61806
-0.00897842
-0.0317872
-0.0348718
7.87325
-2.65312
0.0104677
6.46697
-0.0036735
-0.116854
-0.103081
0.00363323
0.027127
-0.139711
0.0385534
0.0278491
7.59159
7.6283
0.0113213
-0.000336431
7.6168
0.0138442
0.00689452
0.0221251
7.6101
-0.121153
7.61168
0.0197519
0.0136746
7.61143
-0.0663172
0.0274452
-0.159364
-0.0218943
7.56851
0.0164991
-0.153608
-0.0744953
-0.157176
-0.0386513
7.60233
7.62233
-0.0216707
7.6114
0.0295
-0.0771813
6.72011
-0.471853
-0.825585
-0.302808
7.6113
6.37921
0.0257143
7.87363
9.4627
-0.0464001
7.60681
7.61042
-0.724885
-0.861389
7.61154
-0.122037
7.61294
7.61158
7.87538
7.87031
7.95451
7.87268
-0.0248582
7.61611
7.61573
7.62169
-1.44147
0.0156516
0.00148699
0.0266964
7.62569
7.61052
-0.0483418
7.61255
7.61425
5.81004
-0.0531109
0.0247766
7.61129
7.60643
7.62318
7.61072
7.55792
7.60972
-0.0715261
7.61612
-0.202639
0.0138164
7.61373
7.88216
7.93019
-0.124173
7.92234
7.8731
7.62935
-0.211485
7.6106
-0.0645554
-0.0692336
-0.180783
7.60891
5.28865
-0.0399902
0.00854392
7.66169
-0.198699
-0.0127701
7.88107
7.58774
6.89837
7.6072
0.0241394
0.0143337
-0.0628225
-0.347941
7.61228
0.0269511
7.56567
6.82571
6.85501
7.61559
0.0205481
7.61253
7.94076
-0.0651493
0.0299951
7.93785
-0.00194188
7.31168
-0.0834115
7.97728
7.61227
7.58384
7.872
0.0256007
0.0223871
0.356204
7.6132
7.66271
0.0157177
7.61168
7.06996
7.87135
-0.00222382
-0.335927
0.0461234
7.86241
-0.0723771
-0.0601282
8.24112
-0.0599206
7.62003
-0.0394042
-0.0240734
0.00812077
-0.0875126
-0.178314
7.61203
7.61298
7.61261
-0.0719602
7.68319
-0.108867
7.87555
0.736636
7.87155
0.0203977
0.0222789
7.94243
7.61114
7.95975
7.62198
-0.110607
7.96784
6.90644
0.00510853
-0.103728
7.91066
7.03587
7.70566
7.05635
7.61304
7.61183
-0.102331
0.00795195
7.87243
7.86538
-0.626444
7.8778
-0.101976
0.0235913
7.69637
-0.0331032
7.87195
0.0179682
7.62121
0.016691
7.61129
-0.588278
-0.3073
-0.146644
-0.0386839
-0.0430245
4.6841
7.542
-0.0298535
7.91692
0.0146827
7.8703
7.64178
7.62304
7.6231
7.64714
7.6168
-0.053372
-0.0647332
7.87222
6.65283
7.87822
-0.0524901
-0.124313
7.86856
0.0260201
-0.150155
7.93061
0.02652
0.0265964
0.0170472
-0.14654
7.61169
7.61104
7.64088
7.61198
0.020494
7.54179
-0.0334451
7.61216
-0.0439135
0.0209044
7.61494
-0.0515073
7.60305
7.6114
-0.0444817
-0.0822769
2.13364
7.61283
7.95399
7.60459
0.0221699
7.50412
7.92275
7.52174
0.859671
6.7245
-0.530942
7.02701
7.48526
7.76785
0.019947
0.00429672
0.0133027
0.0205339
7.85782
-0.0271297
7.61386
7.61514
0.0170842
7.58889
-0.647503
-0.0398706
0.0325159
-0.0452303
-0.960758
-0.0013234
7.61428
-1.4147
-2.97627
-0.00702058
-0.034663
0.0237932
5.54725
7.86715
0.00259379
7.87602
7.61027
-0.246434
-0.00048596
-1.119
7.59669
7.43993
-0.0741082
7.93023
7.61304
-0.0506501
7.94908
7.93803
0.112636
-0.0511791
-0.0913683
0.048146
0.0270921
7.61589
7.61158
-0.274402
0.0264152
7.61268
7.9433
0.0339707
7.62372
6.61015
6.75913
6.7957
4.35891
6.62684
7.61417
0.0219051
7.59931
-0.07664
7.61271
3.42696
7.67127
7.63657
7.61464
7.61234
0.0301423
7.6121
7.61182
6.91572
7.60812
7.61531
7.60882
0.0250492
7.62949
0.0221885
-0.0814439
7.63887
0.0431242
7.61232
-0.0256611
-0.210567
0.0177284
0.026021
7.8456
0.0234423
0.02582
-0.150058
7.87474
-0.107057
0.0254783
0.0264827
7.32754
0.0178869
7.68407
7.613
7.61482
7.61133
0.0235635
7.61289
7.60197
0.0202103
-0.13456
0.00858881
7.62408
5.42704
0.0318387
7.61743
-0.372022
7.92742
0.0132832
7.60899
7.6115
-0.00376296
7.60874
-0.0193673
7.87497
7.61227
0.0282828
-0.0371013
0.024789
0.0204868
-0.135932
0.018881
7.61261
8.01837
0.0152617
0.0292791
0.0309063
-0.0934641
7.61159
0.0226535
7.61146
7.79839
0.00555663
-0.0667977
7.62436
0.0241532
7.60047
0.019306
0.0319797
7.7115
7.61117
7.61328
0.0144275
7.61416
7.61269
0.0177185
0.0200589
-0.0411877
0.0229459
7.63368
7.62399
0.0129473
0.0301376
7.61739
0.0125816
7.70031
0.00870757
7.61237
7.61205
-0.00591872
7.61109
-0.0217932
0.0321302
7.61831
7.61056
0.00584467
6.47172
0.0330088
7.87139
-0.058948
7.88186
6.67854
6.45489
0.0290843
6.96296
6.88849
0.0123482
6.84642
4.2587
6.33199
7.67382
7.8769
-0.17873
0.0266558
7.65262
7.61081
0.0031471
0.0146399
7.62269
0.0148277
7.61025
7.88198
0.00607702
-0.00415179
0.126044
7.61124
7.61418
7.61266
7.61157
7.60652
7.60975
7.60583
7.60714
7.61089
7.60956
7.61162
7.87826
7.61504
7.61059
7.61323
7.78529
7.61106
7.61123
7.61166
7.63985
7.81735
0.0210486
7.61332
7.61134
7.62391
0.0278175
7.616
7.88192
2.94649
7.60133
7.50892
0.0194135
8.2429
7.5649
3.48077
0.0150971
7.61271
6.7591
7.25825
7.61048
-0.0278737
0.016756
0.0161947
0.0047958
0.0330411
7.90194
7.60542
0.0181668
0.024693
0.00364091
7.60917
0.022836
-0.0140473
0.0275726
0.0217911
0.0228701
0.00475514
0.0265004
0.0169786
7.88601
0.0234218
0.0269427
0.0144681
0.0199008
7.61146
7.61105
7.61145
7.87206
7.60907
0.0263067
0.0258062
7.61465
7.61083
7.61142
7.81847
7.61303
7.87379
7.61804
7.87843
0.0306946
-0.225121
0.0264519
0.0328994
7.58772
7.62842
-0.0317197
-0.264479
7.61128
7.61216
0.00961945
7.88477
7.61185
0.0653013
-0.000903911
0.0163023
0.0337576
-0.0279981
7.89824
0.0144472
0.0226977
6.90804
7.87565
0.0116995
7.89503
7.62487
2.38294
1.27163
-0.00773305
7.76564
7.84937
-0.0424106
0.0231915
0.0328389
0.025419
3.39202
7.87164
-0.0161637
8.23621
7.87357
7.55773
0.00255558
7.61258
0.0278961
0.00887726
0.0132464
0.0148933
7.87923
0.0368343
7.87518
7.45334
7.87324
7.86516
0.022194
4.48846
7.61171
7.87233
8.35824
0.0282177
6.85594
0.0118326
0.0209738
0.0218097
0.0235998
7.82374
7.86751
6.62822
0.0147074
0.0273002
-0.921143
7.91973
7.87141
6.82334
-0.0217258
-0.023562
7.61034
-0.0329295
2.48945
0.0162982
0.0206832
7.87189
6.64239
0.0129455
0.0259744
7.61308
0.00756041
0.00578029
-0.00134783
-0.00414735
0.0213172
0.0383046
6.91112
0.0315979
0.0248351
0.029675
7.97355
0.0185936
6.99746
0.034349
0.0212371
7.87392
0.0212514
0.0174647
0.0120202
0.0259606
8.73884
2.07849
-0.051224
4.2779
0.0190933
7.64667
0.0224541
0.0189855
7.87941
7.61183
-0.365724
-0.115484
0.0210356
8.73068
0.00836972
-0.209285
-1.17049
-0.0823447
7.88007
7.89204
0.0239162
8.3447
0.0251973
-0.218735
0.018322
0.0331163
7.87192
4.5737e-05
0.0253983
7.87096
6.93099
0.0364132
7.88673
0.0283916
0.0328578
7.87278
8.78855
0.0237529
7.87201
7.61096
7.61246
0.0295561
0.0317822
0.0145828
7.92616
0.0113816
0.0289529
7.67285
0.0318418
0.020489
0.024935
-0.127334
7.61193
0.0192439
0.0540087
0.0320815
0.0201991
0.0264118
-0.158124
0.030929
7.87113
-0.0497787
0.0226521
7.87155
0.0275159
7.61864
7.61294
7.87479
7.6226
7.87368
0.00477546
7.6133
0.0272386
-0.016449
7.8755
0.0159701
7.80408
0.0175828
7.87849
-0.166729
7.65217
0.00907314
0.00478891
-0.188889
0.0421
0.0240175
0.0195389
0.0287642
0.0405399
2.75812
0.0341073
0.00628836
0.0435258
7.87289
0.0415859
-0.124325
0.0383056
0.0154769
-0.167839
7.87508
6.76873
7.87678
0.0148562
7.87126
6.16568
0.0251548
8.38874
0.00999064
7.86341
7.84017
7.61179
0.0187825
0.0455859
0.0234728
-0.0438669
0.0250926
0.020916
0.0331484
0.0100798
0.0158849
0.0312679
0.0223863
7.87969
7.5661
7.86562
0.0190126
0.0295544
7.6489
7.61174
6.30542
0.0458891
0.0187501
7.87173
0.0241313
7.86939
-0.437033
0.0186749
-0.0660721
7.87277
7.871
0.0117542
7.87158
-0.00619305
0.0303292
7.45409
0.0214139
0.0180355
0.0274198
7.87102
-0.110572
6.98085
-0.0245848
0.0115571
7.87433
7.8839
0.0277365
5.52521
7.90311
0.0342824
0.0317121
7.87191
7.85449
6.93691
0.0140118
6.28297
0.0172985
-0.0330664
0.000645148
7.87134
7.03315
-0.0347904
7.87012
7.61834
7.87359
7.87519
7.14432
7.72458
7.57093
7.87244
7.88967
7.29692
8.39787
7.63995
0.00329278
7.64948
6.75338
6.39022
8.90668
6.89589
7.87149
-0.0325205
7.38966
7.70908
-0.0330452
8.20818
8.57323
7.77119
-0.0415528
8.3672
-0.0304149
-0.0846206
0.0136271
7.16497
7.8747
-0.0222314
-0.459405
7.83488
7.86514
0.0219732
7.08586
0.0216525
7.0104
7.59444
7.72942
0.0202779
0.0241187
7.87024
0.00645252
7.89725
7.38765
-0.187629
0.0439254
-0.0302315
7.60917
0.0231206
7.22885
-0.020752
7.61269
7.87154
7.61122
6.98671
0.0417587
0.0317305
7.87382
-0.767818
7.88104
7.89375
7.8807
7.87286
-0.0239584
-0.03838
0.0336386
-0.0196939
7.83263
0.0126887
0.0139452
0.0371092
-0.0300659
7.66198
0.028075
0.00114893
-0.00348669
-0.432671
0.0235273
7.92332
-0.0124125
-0.0229754
0.0240208
-0.0225205
-0.0460713
7.90209
-0.0391277
7.77841
7.87569
0.0215857
7.87916
0.0270346
7.86924
7.93839
7.5513
7.87899
7.87295
-0.0459822
7.87768
-0.0155396
7.19581
7.61629
0.0214313
-0.00148827
0.0306823
-0.0154349
7.88978
0.698474
7.87396
-0.0182876
7.93961
0.0159468
-0.0252252
-0.0153189
-0.00309725
7.97008
7.97703
7.87929
0.0292141
7.6272
7.86519
0.0247986
7.60404
7.61081
0.00265081
7.96981
0.00974594
-0.439413
7.14602
7.49822
7.43659
0.0119507
0.0140838
7.87197
0.00741061
-0.0104879
6.98838
-0.0205478
7.87016
0.0212059
0.0241434
0.0402556
7.8741
0.0132205
0.0209558
-0.0269171
-0.0018615
0.00913945
7.87346
7.87176
-0.103738
7.86745
7.6096
7.86971
0.014824
-0.0173141
0.0192361
-0.0348713
6.86845
-0.00207426
0.0172429
0.0133961
-0.059352
0.0201948
-0.0173245
0.0144479
7.61146
7.61188
7.61164
0.0336103
7.61302
-0.0314735
5.24336
0.00446725
-0.556761
0.00858588
0.0136144
7.61044
7.8725
0.00550241
0.00463871
7.88653
7.60565
7.8735
0.0115647
0.00710006
0.0031924
0.00967513
0.0296149
0.0160466
7.87269
7.87296
7.87125
0.0399618
0.00697987
0.00241456
0.0171458
0.0335211
0.00537999
7.84813
7.87147
6.33954
7.65538
0.0245027
0.028726
7.86706
7.90553
7.86708
7.87513
7.83616
7.71583
-0.00476583
7.87402
-0.0487095
-0.117997
7.61894
0.00130261
0.0267169
0.022246
7.91731
7.76203
-0.00391559
7.87217
-0.00567252
-1.23228
0.0195175
7.66574
5.94954
7.61131
7.87621
7.86782
7.60351
2.10667
7.8857
0.0102084
-0.00207175
7.87458
7.87203
-0.00771557
7.87821
7.61293
0.0133605
-0.202612
7.86123
7.86177
7.67156
0.0421249
7.87173
7.87147
1.16549
-0.0229944
-0.00871849
7.87166
7.61832
7.20671
-0.0132817
-0.008409
-0.0107464
0.0074766
7.61184
0.0539282
0.0125224
-0.000502293
7.55652
7.86885
7.87132
7.82478
7.8719
0.0246211
0.020988
0.00505982
7.88945
7.87206
7.87149
7.86911
7.68626
-0.0382167
0.109066
0.0200294
7.61565
7.8723
7.92639
-1.0121
-0.0404293
-0.0693512
7.61052
-1.94814
8.25628
7.83835
7.87079
0.0237198
0.0357023
7.87429
7.90659
0.0130041
7.87282
0.0141558
0.0298385
2.73655
7.87006
7.66178
0.0234153
-0.0596229
7.91031
2.54594
0.0545003
0.0330841
7.87336
7.87621
7.88182
7.88055
0.0261741
0.0268408
7.87645
-0.0497544
-0.0124471
0.204403
7.87217
7.87134
7.87277
7.87672
0.0104338
8.38363
7.8734
7.76736
0.0247446
-0.00765389
0.0298205
7.84484
7.87162
-0.018472
7.62383
7.87227
7.87436
7.87356
0.0211372
7.69485
7.59686
7.61446
0.0204532
0.0275879
7.8687
7.87374
7.85492
0.016849
8.15143
7.87769
7.85697
7.87379
7.87326
-0.200718
0.0245504
7.91421
0.0220169
0.0167235
0.0200355
7.8781
7.87459
7.87352
7.83339
7.61179
0.0309529
7.87308
7.37998
7.33286
-0.0155395
7.65097
-0.0233968
7.87167
7.6145
-0.0206946
0.291347
7.03282
-0.00428535
7.87442
-0.00834049
8.12541
7.89108
7.92202
9.10671
7.8795
-0.036062
7.87004
0.0113685
7.61414
6.93489
7.87899
7.86739
0.0145144
0.0344481
7.61147
2.64499
7.60932
-0.0705296
-0.0394715
0.0114773
7.61395
-0.350682
-0.0220292
-0.048372
0.0234438
-0.627703
-0.02805
7.59274
7.6118
-0.752169
0.0224815
-0.000603196
7.90922
7.5149
6.37118
3.25392
7.87403
7.61708
7.87423
7.87467
7.87547
8.30308
0.0362187
-0.0723474
0.0305008
6.96807
-0.0928612
7.87382
0.011106
7.87117
7.88022
7.61268
7.71163
-0.104455
7.69202
7.60595
7.87185
0.0184946
7.8704
7.87188
-0.0549796
7.82758
5.75098
4.92647
4.58764
7.87622
4.8073
4.64472
4.75441
5.45888
7.61144
7.6119
0.0126869
-0.0121256
6.95714
7.13822
7.60757
0.00751865
8.19045
7.71211
-0.100536
7.87441
7.87218
-0.0356679
-0.0869528
7.8378
7.61308
-0.0313073
7.03176
7.60511
-0.407343
0.0083436
0.0523864
7.81129
0.0231443
7.87426
0.0158862
-0.394492
0.0178043
7.87238
-0.388164
0.022424
7.96713
-1.03868
7.86406
0.0216058
7.52985
0.0285088
7.80376
-0.0472053
7.87333
7.57198
7.61335
-1.46218
-1.47003
7.8853
0.0111344
0.0133945
7.91878
7.872
-0.00460125
0.0211999
-0.122959
7.87985
0.0164224
0.0108862
-0.0461061
-0.845841
7.87561
-0.170817
7.6207
-0.150851
7.87125
-1.72945
-2.00591
7.85241
0.0226524
7.67476
-0.0436963
7.61066
7.85661
7.88512
7.88988
7.85055
7.85846
-0.000690131
0.029201
-0.15445
7.88158
6.34502
-0.142285
7.87996
7.82885
7.90521
7.86622
7.9047
0.0228181
7.87246
7.87396
7.61166
0.0158792
7.8576
7.61196
7.54009
0.0368415
7.61241
0.0088136
-0.784768
-0.0502582
0.0344887
-0.0150888
8.22063
7.87735
7.87083
0.0697179
0.0311494
7.54227
6.30707
0.0105805
7.87209
7.87512
-0.132099
7.86311
0.0173512
7.87446
-0.0121433
-0.0545224
7.88077
7.61116
7.87439
7.8745
7.86984
-0.0235775
7.87072
0.0118542
7.94308
7.87475
0.0245976
7.6058
0.00885054
7.77403
7.8718
-0.0106772
0.0313887
-0.118134
7.87351
7.87391
7.87236
0.0299942
-0.0865962
7.95081
7.61077
7.6416
0.013604
7.86568
0.0154763
-0.133624
7.87146
7.86794
0.0225502
7.86592
7.64403
7.61255
7.95912
7.61268
-0.151969
6.21861
7.63718
7.87283
6.38082
7.86761
6.60238
7.84647
7.86649
7.72881
0.0180883
7.7884
0.0117789
7.85997
7.86686
-0.0549867
0.00620162
7.86218
7.8253
7.87402
0.0268289
6.70061
7.87366
7.73235
7.87021
0.0193714
7.86342
-0.1796
7.87388
-0.00808779
6.91642
-0.0251662
7.88909
7.86982
0.0068055
6.54366
7.8795
0.0293284
-0.0055018
7.89213
7.87456
-0.0161497
-0.0528441
0.0211736
0.0173455
0.00770811
-0.00599618
0.0228274
-0.0371492
7.94864
-0.189217
6.25691
6.1425
7.87314
7.87101
7.87017
0.0354516
7.87439
7.86751
7.87458
-0.121016
-0.0412739
5.94833
-0.0368967
7.87531
-0.0143667
7.6104
-0.0587297
0.0232647
6.33056
0.00425153
7.86579
7.84553
7.61221
0.0414401
-0.0101311
7.87252
7.61224
0.0318615
7.87332
-0.133955
7.91405
-0.0812143
7.87146
7.61271
7.85223
7.61157
0.0251885
7.6118
0.27291
7.61422
-0.00431819
7.87231
7.86863
4.31076
3.98574
7.89045
7.86905
7.87186
7.87259
-0.00569252
-0.141984
5.21097
7.87635
0.00239998
7.61016
7.62185
-0.427871
0.0139485
-0.0668247
7.61282
0.0260721
-0.0191069
0.0264767
0.015703
7.87208
7.875
7.87922
7.87551
7.61258
7.61152
7.61225
7.84002
7.61314
7.61245
7.8717
7.61216
-0.107158
7.61144
7.87226
8.61573
7.87388
7.87264
2.70541
7.61162
7.87146
-0.00385289
-0.0953444
7.84831
7.85115
7.87234
0.0200556
7.64672
7.85973
-0.108177
7.61311
7.87287
7.86811
7.87577
-0.0462882
7.61146
-0.174441
7.87611
7.85679
7.87107
7.8719
7.86962
-0.106211
-0.140996
0.0218588
7.87413
7.63599
7.90886
-0.124818
7.87192
-0.132164
-0.08318
7.61006
7.84276
5.93852
-0.403697
7.85505
7.01538
-0.390923
6.0169
-0.00876468
7.64467
-0.0376907
5.98398
5.61404
7.87149
0.00132432
7.61294
-0.0119269
-0.0530435
7.88109
2.00238e-05
-0.282584
7.86965
-0.0663857
7.61444
7.85619
7.86512
7.85208
7.86704
7.61007
7.87174
7.87158
-0.150905
7.10545
7.87215
7.86949
7.87076
7.87476
0.0207942
4.04016
-0.130748
-0.307509
7.87112
0.0157308
0.00489282
7.87217
6.993
7.78705
7.8619
7.89913
7.96238
6.43132
7.16438
-0.0326048
7.87384
7.87746
6.09738
6.63682
7.61132
-0.00457807
7.88003
7.62614
7.87392
-0.0783684
7.87599
7.61155
-0.0142072
7.61208
7.57269
7.76358
7.91978
-0.0138048
7.87316
7.87163
7.87151
7.84281
-0.0130598
-0.0646869
-0.0557689
-0.00102352
-0.0282808
-0.0368007
7.61277
6.5422
-0.163733
-0.0303816
6.53223
-0.150093
7.86789
-1.08378
7.63411
-0.0878941
7.87422
7.61672
-0.0291106
-1.39606
7.87667
-0.0306484
7.87547
7.87557
-0.0942392
-0.054231
7.87202
7.61201
7.91702
7.61147
7.869
6.85938
7.87331
7.87124
-0.0309837
7.87286
7.86786
7.87065
-0.0220268
7.88388
6.90145
7.61224
7.61162
7.2983
6.92046
-0.0235785
7.61614
6.92907
0.00686597
7.86581
-0.0402088
-0.0232574
7.87392
0.00156357
7.87071
7.45413
7.93427
6.78342
7.6144
7.85106
7.86502
7.87551
0.021264
7.87443
7.87267
7.87106
7.7339
7.87154
7.78459
-0.11648
7.87165
7.87671
-0.0671575
7.87269
7.61249
7.61157
0.0335927
7.87402
-0.161694
6.70219
-0.381928
0.0157032
7.60871
6.53699
0.00910423
6.26648
7.61279
-0.200105
-0.377868
-0.00275097
-0.0553171
-0.255016
-1.16468
7.63659
7.6175
0.00993373
-0.100545
-0.0829215
0.0187175
-0.399698
7.61037
0.0198066
4.34123e-05
0.0064701
7.61492
0.00909817
0.022413
0.0240556
0.00569144
-0.121386
0.0166167
0.0425638
-0.00307427
0.0138006
0.0268003
0.012062
6.91483
0.0914993
0.00626554
-0.000271435
-0.0229558
0.0234882
0.0133055
0.0146813
7.07624
-0.113146
7.02505
0.035683
0.0122013
-0.047939
0.00349305
7.01326
7.60997
0.0137563
0.016125
-0.126857
-0.0626441
0.0246148
0.00066822
4.82779
0.0104231
7.87165
0.00150223
-0.111518
-0.0464783
0.0312839
-0.139733
-0.175268
-0.000928762
0.00775636
-0.00389637
0.0321915
0.00285912
0.123463
6.13715
5.39474
0.00310504
7.87594
7.87232
0.00268001
0.0232143
0.0233607
7.87321
-0.0710321
-0.0545384
0.0189147
5.58343
7.87113
-0.207508
0.00875381
-0.118072
7.87518
0.0294654
7.87166
0.00990816
-0.00336146
-0.0445571
-0.0440334
7.87174
7.87362
-0.0358462
0.0137758
0.0288434
7.86507
0.00968696
0.0286937
-0.0240231
7.61962
0.0347921
0.048739
7.0051
0.0233411
-1.50648
-0.104446
7.58011
-0.0611061
-0.100482
7.87157
0.00463883
0.0179425
1.39081
-0.0122713
0.0101417
0.0230123
0.0230732
-0.0323574
-0.0230303
-0.229034
-0.109199
0.0341148
0.0225207
-0.0131505
-0.175261
0.0217487
-0.0183984
0.0601382
0.0156917
-0.159685
0.0402777
7.87167
-0.00107883
-0.0111416
-0.104704
0.040524
-0.0390717
7.63934
-0.00360881
0.0248082
7.86708
-0.0729979
-0.00792417
-0.00338742
0.00415689
0.0227167
-0.0439831
0.0142547
-0.0152749
-0.052036
7.8713
7.87186
-0.0477054
7.61626
-0.0444411
-0.00307171
7.70496
0.022572
-0.0181419
0.0414645
7.87111
0.0265303
0.0121322
-0.0613624
-0.142855
0.0215263
0.0454389
0.00996185
-0.00802159
7.87182
7.85475
-0.0950371
-0.0306845
-0.05712
0.0220825
7.85443
-0.0311145
0.0173728
7.7054
0.00220915
0.0122524
-0.0835544
-0.215743
-0.028814
-0.03663
0.0386781
-0.00431731
7.62122
0.00518762
0.00379639
0.00173028
-0.202887
7.85564
-0.0199222
8.01281
7.87266
0.013595
-0.0107015
0.00689133
0.124029
-0.116528
1.49502
7.61429
-0.0297881
0.0275023
0.0669342
0.00986997
7.87903
7.61377
7.60328
-0.000961228
0.00392907
-0.228568
0.0256471
7.62591
7.85896
-0.0086501
0.00751369
-0.0411423
0.014246
0.00903947
0.0310099
-0.0472082
4.37863
7.6114
-0.00249651
0.0232185
7.85845
-0.00265922
0.0263218
-0.0759955
0.0126596
0.0111356
-0.0407419
7.85861
0.0271333
0.00756478
7.61465
7.6424
0.0290576
0.0796101
0.0140538
0.0211553
0.0197006
0.0146817
0.0336983
0.0304846
0.0264276
0.0142363
7.85438
7.84682
0.00995966
0.0311183
0.0186694
-0.0992093
0.0223522
-0.00165236
0.00039806
0.0252123
0.0185888
7.61448
7.62207
-0.113946
7.85312
6.86052
0.014563
0.0211085
0.00242313
-0.0945725
7.16209
-0.0329545
-0.0804249
7.29299
-0.10203
-0.210158
0.021846
0.0239839
0.020045
0.0293235
-0.14341
0.0210313
7.87215
7.23592
-0.0786715
0.0308423
0.0058691
0.026917
-0.106821
-0.0307612
-0.109118
7.26202
0.0270024
0.0536418
0.015616
-0.123076
-0.0351273
-0.0944149
-0.201848
0.00439947
0.0229785
7.15369
-0.00202168
0.0286338
2.78656
6.78924
6.23743
0.0391722
6.63362
0.0135432
0.0247455
0.00627573
0.0244453
-0.106304
5.04352
3.04219
8.06048
6.72847
-0.0457986
7.61143
7.61114
-1.28271
7.86978
0.0290316
0.0125638
0.0286184
0.0232606
0.0237697
0.00719887
6.2685
0.0234544
0.0256377
-0.0292384
0.0164154
0.0357667
0.0149587
7.61153
-0.205949
0.0304871
-0.0946491
7.61156
-0.00681559
-0.00385737
7.6115
7.86388
-0.0790184
0.0199099
7.90775
0.0144607
0.018367
-0.0821441
7.873
7.61145
0.020648
-0.207743
0.0244997
7.61157
7.59666
7.61161
0.00311106
2.54979
2.32162
7.28851e-05
-0.368376
7.88092
0.0270657
-0.345701
0.0203787
0.0237409
0.00724666
0.0209574
-0.505054
0.0285088
7.66161
0.0116238
0.0400537
0.0178523
0.0213975
0.0143504
0.0354973
0.0173611
0.0101298
0.0300229
-0.0606996
-0.388284
0.0135018
-0.0833596
-0.13178
-0.459558
0.0104898
-0.372938
0.0200513
0.0301781
0.0227114
0.0395582
-0.0521911
0.0345569
-0.379574
0.0237102
7.46966
0.0117915
3.81608
0.0151207
-0.0047297
7.61535
-0.0142677
7.46914
-0.00253559
7.49714
7.90416
0.0443999
-0.024894
6.84598
0.0231009
0.0213377
-0.0218572
7.85977
7.8736
0.0163395
0.00148088
-0.180447
0.0183704
0.0324471
-0.0224416
-0.063427
-0.00633624
-0.0151914
6.5091
0.0112748
7.61115
7.80613
0.0315995
0.0301636
-0.0959211
0.03084
0.0319751
-0.00757504
-0.0201411
7.78079
-0.110664
0.0211741
-0.01018
7.79368
7.87967
0.0112121
0.000319483
6.16014
-0.0413804
0.0291061
0.00247209
-0.13539
0.0331131
0.0238194
7.86322
4.57384
0.0225046
-0.0732753
7.6792
0.0406311
-0.0475943
-0.0115876
-0.12224
0.0176715
-0.151831
0.0109683
-0.0372754
4.83196
-0.0473995
7.87319
0.00146048
-0.0184485
0.0315218
0.00968815
6.57229
0.0144497
-0.0790091
-0.0118061
-0.108062
7.42199
7.61168
0.0301471
-0.0719365
-0.00202385
0.00587676
-0.0408918
0.0221991
-0.00231221
0.0099753
0.0417272
0.0263944
-0.0489482
7.03167
-0.130945
-0.020774
-0.000844896
-0.0378371
7.2274
7.6113
-2.38785
-0.114121
8.15399
-0.141424
-0.0227391
7.36844
4.9981
5.45612
-0.0427345
0.0245748
0.174261
5.83916
-0.0755475
0.0320204
7.61611
0.227271
6.88524
-0.0116265
0.0224639
7.64505
-0.0285469
-0.0245795
-0.0284097
0.0274811
7.61108
-0.268942
-0.0388413
-0.075975
-0.0188149
-0.0185417
-0.0389901
-0.00729561
-0.174786
-0.020913
0.0220601
0.0240171
7.87153
6.44513
6.55495
7.72606
-0.0296002
0.026376
0.0317765
-0.0626001
0.0211597
0.0300513
-0.00436763
-0.0181958
-0.0142789
0.0245362
-0.0126853
-0.0845634
0.00480333
0.0257629
7.87239
-0.0409512
-0.0597638
-0.0152013
-0.00852143
7.60881
0.00267848
0.00506273
0.0368699
0.00423825
0.0141773
7.63107
0.025058
0.0140381
6.87757
0.0253532
-0.00721612
7.72001
0.00024809
7.71148
7.60955
0.00367991
-0.0599165
-0.00469377
0.0155009
7.61438
0.0348439
-0.0375788
7.61393
0.0321565
0.0139309
0.0195025
-0.0108008
7.75124
-0.0306254
-0.0253935
0.0112883
7.69477
0.0467759
0.020735
-0.000531048
0.027825
0.0133672
7.90094
7.4527
7.05873
0.0266438
7.18745
0.0295665
0.0163754
0.0250865
7.83417
0.0215901
7.65503
7.87298
7.80762
0.0108797
-0.0127058
-0.209119
0.00489474
0.0347964
7.51579
6.8824
-0.0396705
-0.0441701
0.0373808
-0.165253
0.0246587
-0.402074
7.87522
5.73558
5.8485