/*--------------------------------*- C++ -*----------------------------------*\
  =========                 |
  \\      /  F ield         | OpenFOAM: The Open Source CFD Toolbox
   \\    /   O peration     | Website:  https://openfoam.org
    \\  /    A nd           | Version:  10
     \\/     M anipulation  |
\*---------------------------------------------------------------------------*/
FoamFile
{
    format      ascii;
    class       volScalarField;
    location    "91";
    object      SgT;
}
// * * * * * * * * * * * * * * * * * * * * * * * * * * * * * * * * * * * * * //

dimensions      [1 -1 -3 -1 0 0 0];

internalField   nonuniform List<scalar> 
59698
(
0.0130904
0.000152538
0.000211103
2.04681e-06
0.0303265
3.48363e-18
0.00213382
3.01781e-05
5.9091e-16
1.22697e-17
3.4956e-16
0.000299391
2.06467e-18
6.2426e-06
0.000357306
3.52061e-17
7.004e-06
0.000146036
4.51457e-05
0.000253386
0.00137138
0.014102
1.20438e-07
1.67722e-19
0.0422974
6.76919e-05
0.000342687
0.00759661
0.00680781
0.00744487
0.00478375
4.88851e-17
1.19187e-17
0.0125357
0.0024074
0.000164074
0.0187589
0.0204538
3.08794e-05
0.0227036
0.00865937
1.76237e-18
0.00374379
0.000642052
4.99381e-18
0.0322757
7.4347e-05
0.000729526
0.000248727
0.000173092
0.00151994
0.000119466
0.000337721
5.04172e-06
0.00926906
7.69148e-05
0.00132579
0.000212001
0.000805617
0.00279992
0.00344592
0.000502212
0.122593
7.04553e-05
0.0126124
0.00160544
3.11717e-17
0.000399836
5.5946e-05
6.52558e-16
7.91852e-10
0.000252352
3.3706e-06
0.0418721
4.82822e-18
0.0393388
0.000117969
0.00924428
0.000355469
0.00614321
0.00886874
0.000478055
3.86438e-18
1.60415e-05
0.00854149
0.000551148
3.65354e-06
4.19675e-05
0.0635231
0.000128987
1.65927e-16
0.00206411
0.0147953
9.8631e-06
7.33763e-05
0.000160647
0.00534619
6.10728e-05
0.000272599
1.56514e-18
0.0732649
0.00179599
0.0162153
0.0122041
0.000121287
4.2648e-17
4.38194e-05
3.67246e-05
9.31368e-17
1.78727e-17
0.000250022
4.63593e-06
0.0380291
9.65331e-18
2.60943e-05
4.50904e-05
3.96963e-05
4.46264e-06
2.33745e-05
1.21773e-16
3.64077e-05
0.000707813
9.30634e-07
6.14562e-06
2.12837e-05
3.34918e-05
0.0108033
2.2616e-18
2.77266e-05
2.94127e-05
0.0413176
3.73578e-05
1.71202e-16
0.100283
0.00428099
0.00438722
1.64302e-06
2.19861e-17
0.00025565
0.000131332
0.000109234
1.5532e-06
0.000179378
0.00265888
9.81804e-06
0.000693359
5.86838e-06
2.16895e-05
1.72926e-06
0.0293244
4.22577e-05
7.91971e-16
0.00151561
7.32985e-06
0.000162848
0.000342178
4.77812e-05
3.26173e-07
0.0123775
5.68446e-17
0.00085561
5.1175e-05
0.0164697
0.00165001
0.00341138
0.0323085
0.000238095
0.0709288
0.000487209
0.000412187
0.0120395
2.34493e-08
0.0108126
0.0148133
0.0795111
0.00072798
5.16267e-18
5.08459e-05
1.24836e-15
0.00632019
0.00942289
0.018163
0.0147365
1.98175e-05
0.045806
0.000237072
0.0114367
9.91508e-05
6.51554e-06
0.00118266
0.000402664
6.68615e-05
0.00269387
0.0388273
0.00403766
3.95296e-06
0.00980465
0.0550557
1.3965e-05
0.00768353
1.28374e-15
0.00629706
0.0210796
6.60052e-05
0.00683281
0.000324629
0.00613825
0.0008039
0.00512404
0.0079065
0.00013438
2.36644e-05
0.000162344
5.5877e-18
0.00406778
4.82261e-07
3.74628e-05
3.64281e-05
0.0127471
0.00662452
0.00561361
0.000514888
2.96605e-05
0.0663511
0.000813211
0.0237003
0.00733966
0.00323594
0.00686293
0.15868
1.84176e-16
0.00472938
0.00292132
0.00321239
1.38462e-05
0.00965527
0.082961
1.9105e-05
7.1694e-07
0.000449407
1.11283e-05
0.00146743
0.0135382
1.25572e-18
0.00611085
0.000120423
0.00378857
0.228146
0.00122334
0.000427224
0.000702785
0.00163214
0.000628115
1.47947e-16
0.000618415
0.000690624
0.00601484
0.00128645
0.000496766
4.10022e-05
6.94378e-06
2.99036e-17
0.000391183
0.00321505
0.00114467
0.0475072
2.31855e-05
7.68115e-16
0.000164904
1.63025e-05
0.000141805
0.0438598
0.000152536
1.84506e-05
0.0180354
0.000205747
1.5762e-07
0.000511352
0.00206361
1.48327e-16
1.95514e-16
0.000193532
0.000212203
0.104443
0.0455713
0.020322
0.000135395
3.42283e-10
0.0728814
0.000444583
0.0906449
1.60389e-05
0.000188295
0.000164736
0.000319815
3.22112e-06
0.000356865
0.000803738
0.00422343
1.11753e-05
0.00272182
1.07087e-17
5.46987e-18
0.000823399
6.46076e-05
5.2805e-05
0.0521639
0.00101542
2.02897e-06
0.000267687
7.84588e-05
7.06857e-05
3.82706e-05
6.92961e-19
2.47791e-05
0.005144
1.59693e-18
0.000393235
1.63011e-17
0.000805867
0.00034079
0.323639
0.000321394
1.73762e-17
0.0484928
0.0106111
0.000328271
0.00035358
0.000443423
3.39106e-18
0.00661889
0.00415478
0.0203541
0.205312
1.36795e-16
1.89714e-05
9.90764e-06
0.000663386
0.00908002
0.00325918
0.0102294
3.77755e-06
2.87242e-05
0.00148184
9.67916e-05
6.76953e-06
0.000102509
0.0396598
4.75971e-05
1.4556e-05
0.00797857
9.15989e-05
0.0399502
2.17253e-19
0.244497
0.000255365
0.0140082
0.000126026
3.80949e-05
2.3471e-16
2.752e-05
8.85027e-06
3.80793e-15
0.000895375
2.63274e-18
3.26926e-18
1.62064e-05
1.39098e-05
0.000156093
0.00164887
0.00190341
1.80563e-16
4.96542e-06
6.82742e-18
0.00618602
8.91088e-18
0.000153291
2.44711e-05
3.76424e-18
1.83879e-16
1.56623e-18
0.000102625
5.63651e-05
0.000528809
0.000140112
1.29835e-05
0.000212117
2.09529e-17
3.97261e-18
0.000143774
8.75602e-05
6.90148e-18
0.0012715
0.00265753
0.00128806
0.000484906
0.0480477
1.31145e-05
2.28155e-05
0.000145586
0.000411006
2.16662e-05
1.2671e-05
3.98024e-05
3.58292e-06
2.78989e-05
0.0814013
0.0255038
2.31466e-05
0.00539588
0.0314337
1.03838e-16
0.000145429
6.23021e-15
4.81829e-08
0.0590529
2.72753e-06
0.0103697
0.000505432
8.41842e-05
0.000114941
5.01276e-06
3.55544e-05
0.309259
3.75901e-05
1.30854e-05
6.65118e-16
0.000218254
4.6864e-05
1.23608e-16
0.000262967
0.000186196
0.0152241
0.0030295
0.00210875
1.58088e-16
3.16408e-15
0.211624
0.00012347
0.00105841
1.85214e-18
4.64817e-05
1.22455e-17
2.19561e-05
4.02571e-05
0.00237987
0.0701059
1.30143e-17
6.44877e-05
0.00908682
1.8185e-05
0.000124996
5.95142e-05
0.0327313
0.00028471
9.71209e-05
0.108601
9.35372e-19
0.00979355
2.87033e-05
0.0543093
8.7243e-06
0.0127403
0.013335
8.69469e-17
0.000976355
0.000446369
0.00848242
3.34056e-05
0.00806271
0.000451724
1.1604e-17
2.70294e-16
8.83915e-17
0.000387022
0.000816172
0.00111685
0.068898
0.00322159
0.000258029
3.5053e-05
0.000499554
3.94817e-05
1.63225e-16
0.00534657
4.55576e-05
5.55915e-05
9.37611e-05
0.0656765
0.00179558
0.0229568
0.0658362
0.0011149
0.000163395
0.0548296
6.14919e-05
5.33247e-07
3.58675e-06
0.00948711
1.30187e-17
4.41895e-17
0.0639206
0.00718234
0.00460094
2.91934e-17
5.89126e-17
3.83699e-05
5.30411e-17
1.24685e-05
0.00314764
0.000583808
0.0747917
0.0072813
1.73981e-19
0.00910746
5.57874e-05
6.02193e-17
3.8552e-05
3.50866e-18
4.16393e-18
0.00543287
0.00378464
1.17107e-05
1.63261e-17
3.22011e-17
0.0012782
0.00954133
1.04123e-05
0.00733207
0.000197824
3.88402e-05
0.039047
3.72891e-18
2.22945e-05
7.02157e-07
8.73905e-17
6.99398e-19
6.60294e-05
0.000138612
1.48461e-16
0.00975709
0.000357066
0.000147949
0.0674591
0.00818545
0.0135312
0.0100111
6.31221e-06
0.0117028
3.82882e-07
4.19395e-05
8.28378e-16
3.91832e-05
1.0317e-18
0.000282472
3.00234e-06
2.00521e-16
0.00117083
0.00689253
0.000449664
2.6644e-16
3.09534e-17
3.30876e-05
8.33888e-05
5.56892e-05
9.23598e-18
0.0745448
5.26888e-05
0.00551334
1.00257e-15
0.00287688
6.41627e-05
4.84145e-16
0.00259653
0.00286909
0.00337915
6.7957e-05
0.0040126
0.000113431
5.12652e-17
1.55893e-18
7.5553e-05
0.00196943
5.44595e-05
0.0040533
1.51369e-16
0.00242849
1.78077e-05
0.00411958
0.002686
0.00216166
0.000159374
0.000371998
0.00016778
1.70307e-17
1.90239e-05
1.33268e-12
0.00167313
7.99301e-18
1.16789e-17
0.00514832
3.36733e-05
1.37495e-16
3.01232e-05
0.00148414
0.00216461
0.000164797
4.21194e-18
7.56317e-05
6.41911e-07
8.10136e-06
0.000548215
1.0157e-05
0.00433965
0.00141303
0.00278923
2.21363e-05
0.225739
1.87763
2.06871e-05
5.02208e-17
0.000598443
0.00214246
0.000914087
6.05256e-05
4.88387e-05
0.00445885
0.00246727
0.00318568
0.0015651
7.41472e-05
1.47705e-16
9.21786e-05
0.00114488
0.000108058
0.00132979
0.000235661
2.43816e-05
5.22644e-05
0.106601
0.000238926
4.91661e-06
2.52504e-15
2.66773e-16
0.00243067
0.00380681
4.10386e-05
0.000337365
0.000120812
3.7568e-17
4.95e-17
0.000176905
0.00830031
0.000806971
0.00058782
0.000114424
4.06425e-05
2.81888e-07
0.000325012
0.000208775
0.000308722
0.000814628
0.000883969
0.0197222
0.0903204
0.00136674
3.34571e-05
2.51855e-05
8.69484e-05
0.0415596
2.60387e-18
2.05885e-05
0.000460618
0.00010895
0.000144047
0.00167897
3.97024e-18
0.00823031
0.0473356
0.000145472
0.000422576
7.96662e-05
1.646e-18
1.47595e-17
1.08529e-05
1.56774e-05
0.00215118
0.000195069
0.000191303
0.00858768
0.00441027
0.036183
0.00080941
6.95692e-05
1.95601e-05
7.77328e-05
0.000241855
0.00118038
2.04958e-17
0.000159239
1.03655e-17
2.35454e-17
0.00660989
0.000821718
4.47848e-05
1.99757e-15
0.00639759
2.87979e-05
4.42231e-06
1.01671e-17
0.00156474
3.64648e-19
0.000503429
2.02252e-17
2.82974e-05
0.00195468
0.00914961
3.44575e-05
3.87799e-16
1.85474e-16
0.0602075
0.000808679
3.85244e-05
0.000955916
0.00145055
0.0257971
0.00685008
3.45847e-16
0.0557596
5.18893e-05
0.00257117
2.65088e-18
0.0077041
6.41264e-05
1.39549e-18
0.0111717
0.000185801
4.50056e-15
0.00308511
0.0608217
0.00058476
6.93285e-05
0.244954
6.05283e-06
0.000744395
0.00239848
0.00190625
0.00169794
5.1919e-06
0.0134875
1.89895e-05
0.0600631
0.00317509
0.0224696
1.27138e-16
0.000211888
0.105135
0.235933
4.83599e-15
6.85974e-05
0.0498519
8.90561e-18
0.00225054
0.00517943
3.70759e-05
0.00607978
0.00406855
5.95589e-05
1.78394e-16
0.00198784
0.0142136
3.53408e-18
2.85075e-17
3.8556e-05
3.1151e-17
0.00432181
3.84645e-05
0.000224157
0.00607982
0.00524155
1.23197
3.70043e-17
0.0244821
0.00971289
0.0210452
0.00106951
0.00479124
4.88957e-18
0.00094786
0.00161544
1.54654e-06
0.00659582
0.0111381
0.10436
0.00031952
0.00546158
1.60222e-15
1.55419e-16
1.80132e-16
0.000366844
0.00023295
1.65197e-16
6.25527e-05
1.79572e-06
0.00945352
0.000146066
0.000726738
2.816e-06
1.20139e-17
0.00685198
3.64194e-17
2.7785e-17
6.13077e-05
8.22524e-11
6.32012e-05
0.0137233
3.41015e-17
1.2081e-06
0.0200941
0.21062
8.11431e-05
0.00865395
0.000129026
0.000642555
1.56372e-16
2.49921e-16
0.0016687
0.00084372
0.0074339
1.39624e-17
0.00626858
1.95381e-06
2.04215e-06
5.62985e-18
7.31228e-05
8.29277e-05
3.94422e-06
2.21337e-16
6.83397e-05
0.000208596
1.67245e-15
2.32384e-16
6.18292e-17
7.45612e-16
1.27364e-17
0.00203985
0.000191663
0.00153565
9.12541e-17
0.00406446
1.66496e-05
1.40106e-16
0.0156713
1.72643e-17
0.000153117
6.33415e-17
0.0356778
0.00488173
0.000882955
9.01773e-06
2.45604e-05
0.0106327
4.58191e-19
0.00984159
0.000131592
3.84434e-17
0.000483391
7.92869e-07
3.32265e-05
3.61703e-16
9.87637e-05
8.86638e-18
0.00876813
2.08359e-18
0.00205901
8.32028e-19
6.99191e-05
6.52957e-05
0.00165083
0.000598765
0.000178359
5.95593e-06
0.00202278
9.12405e-18
2.88187e-17
6.46022e-07
6.28793e-05
3.31291e-05
8.00687e-06
1.89754e-17
0.000266815
0.00372324
0.0182833
1.1834e-17
0.00105544
0.00299667
9.14257e-05
0.00281094
1.12986e-15
3.0337e-18
0.00448929
0.000148601
3.33451e-19
0.000184681
0.00162471
7.70793e-19
0.00262395
0.000106305
1.22348e-05
0.065316
3.17895e-18
8.00279e-06
1.33151e-06
1.98029e-17
1.16569e-17
5.44839e-05
2.42605e-05
6.42721e-06
0.0202863
0.00399325
5.42973e-07
0.0411006
9.43859e-05
0.00132908
0.115578
0.000230669
0.00458001
0.00451486
0.0326337
0.0587664
1.08971e-16
8.74786e-07
3.99657e-17
0.0246665
0.000269075
0.00034772
0.00141943
6.38719e-18
1.13843e-17
0.00243751
0.000578554
1.61457e-05
0.00683443
0.00280681
1.5983e-06
8.45749e-05
0.0250582
0.000749521
0.00014207
4.7064e-05
4.71385e-14
5.69553e-05
0.000180545
0.00107077
2.03292e-05
4.82192e-05
1.73266e-07
1.02226e-15
0.000164136
0.000106822
0.00541378
3.82598e-17
0.000142059
0.00960545
0.00190673
0.000294984
0.000415007
0.000264522
0.000126891
0.000425039
1.40597e-17
1.09966e-16
6.09428e-18
0.000149474
3.09947e-19
0.000396541
0.0109657
0.0164032
0.0178261
7.60407e-06
8.53453e-06
0.00294316
0.00117474
0.00276652
0.00395971
0.000396872
4.64456e-05
0.000178595
4.35578e-05
0.0111096
0.0566119
0.00198247
1.25584e-16
6.75589e-07
1.08627e-17
8.56857e-05
0.00114863
0.000303213
0.00235186
4.99034e-16
1.78995e-15
0.000122821
0.00236859
0.00236447
0.000784276
6.47735e-06
0.047149
1.41333e-17
1.58235e-05
2.87642e-06
0.0201648
5.12329e-18
0.000398385
1.46794e-05
0.00107401
0.000454077
0.00160449
0.00114297
3.4169e-05
7.98177e-06
5.05376e-05
1.34151e-06
0.00550552
0.00952566
0.0100823
0.00817188
0.00521928
0.00589123
1.38874e-07
0.00014941
7.63178e-18
0.00598555
0.0047479
0.00222734
8.6321e-17
0.000118847
0.00389404
0.000245689
0.00160752
6.34976e-05
0.0146607
0.000126998
0.0406253
8.28668e-05
0.740024
7.60705e-06
3.19654e-17
1.35893e-05
2.20053e-05
5.48635e-16
2.32318e-10
0.00399999
0.00702334
0.00175412
0.000634876
0.00358501
1.36621e-17
8.93883e-19
0.0197396
2.23976e-16
0.000926216
0.00116137
0.000176689
0.00032327
0.00112608
1.1013e-16
4.62549e-17
0.00824147
0.000780803
0.092305
5.00248e-16
0.000661086
0.0816779
1.20653e-16
0.00881601
0.0027645
0.0251239
1.55397e-05
0.00363226
3.47908e-05
6.74231e-06
0.00132511
1.7148e-19
0.00123401
4.22104e-05
0.000117264
0.000126191
9.1972e-06
1.90931e-05
0.0032324
0.00968374
7.10089e-17
0.0022741
0.000514968
0.000160262
0.0359868
0.0544677
0.00502262
0.000373499
0.00325519
0.457061
0.0240756
0.0262787
0.000460208
3.9584e-18
0.102401
0.000136844
8.11885e-18
1.50316e-06
0.014267
0.000213452
0.00170687
0.000330129
0.00174687
2.2366e-18
0.00245259
0.00902958
0.00287791
0.000649507
0.000737815
4.6038e-18
8.81567e-18
0.000130815
0.00364942
2.40135e-18
0.00114358
0.000583566
0.00778552
0.000354127
0.114536
4.49013e-05
0.00118704
3.3712e-07
0.0056643
9.29199e-05
0.00110698
0.00256642
1.09658e-17
1.51223e-07
1.2364e-05
0.00013751
1.38784e-05
3.8209e-05
0.0186277
0.0101467
1.0404e-05
0.00150252
0.0839457
0.00109674
0.00399848
0.000114355
1.80289e-05
0.00373236
0.0362944
0.00898818
0.00264582
0.000182719
0.00192072
0.00336613
0.00298295
0.00373867
0.0053709
5.60849e-18
0.116951
0.0502109
0.000488773
1.02988e-06
3.04422e-05
0.000486227
3.4067e-06
0.0261927
0.00113059
7.02224e-07
0.00230725
0.000371532
1.06817e-17
0.00355478
2.65578e-18
0.00268748
2.66805e-05
0.00148063
0.00375707
9.25125e-05
0.0197456
0.000151232
1.66972e-17
0.00364535
0.00018525
0.000396252
0.00209843
0.0118511
7.24776e-18
7.18167e-18
0.000376394
0.000264363
3.43799e-10
7.7903e-16
0.000190571
7.30741e-05
9.71095e-05
4.71098e-18
3.57683e-17
0.000852232
5.18137e-06
1.83677e-05
1.83438e-05
0.000312169
5.66094e-08
2.34077e-17
4.41582e-05
8.21457e-15
2.9278e-05
2.41974e-16
4.36176e-06
6.96701e-16
0.00391593
0.103452
5.28855e-05
0.00478552
0.00167302
0.00171985
4.70363e-18
3.51167e-06
4.40136e-05
0.0083605
0.0197841
0.00283482
5.00383e-05
2.04598e-17
8.49392e-05
4.95156e-16
0.00474932
0.00944399
4.34555e-17
0.00209687
0.00281277
0.00107441
0.00355483
1.77186e-05
0.014583
0.0018846
0.0025449
9.20955e-05
1.72175e-17
7.23296e-17
5.29884e-05
0.00563571
8.34043e-06
9.10092e-17
3.49541e-05
0.00502923
0.00021047
0.00100957
0.00101803
6.00226e-05
3.35505e-07
4.83359e-05
0.0038943
9.7358e-05
8.93893e-05
0.0285226
0.00213446
0.00084062
6.11141e-05
8.29402e-20
0.00101826
2.42485e-18
0.0146862
1.3093e-15
2.73892e-16
0.00124438
7.79565e-18
0.000884013
0.000217007
4.46887e-12
2.78044e-19
0.000215116
0.000284273
7.31297e-18
0.00220064
6.92564e-06
0.000277542
0.000574187
2.33841e-05
4.30464e-17
0.00576864
0.000203518
1.40764e-17
0.0470509
6.56913e-05
3.27474e-05
0.000266058
1.20558e-18
1.6214e-05
1.8844e-17
8.80049e-05
4.36961e-17
9.607e-06
0.000944998
0.000334927
0.00275137
0.00427664
0.0012885
1.52584e-05
0.0628924
4.16634e-06
2.98726e-14
0.00214627
0.000791048
0.00339792
1.15471e-05
9.69641e-15
0.350645
1.65148e-06
6.88655e-15
3.47723e-05
0.0231046
0.00307272
8.2249e-16
1.36748e-17
2.07959e-05
0.000595424
0.0361369
0.00217695
0.00867693
0.0118489
7.93156e-18
3.31836e-17
6.14783e-17
3.64561e-05
0.00832775
1.74053e-16
0.0750079
2.12028e-17
0.000492514
7.04275e-16
3.53582e-15
4.76984e-16
0.000377801
0.00863277
0.0181296
2.87786e-17
0.00184109
0.00450954
6.42383e-17
0.000236303
0.000994787
0.00200967
0.000394232
0.000792598
0.00749378
0.0106616
0.000590472
0.0016127
0.00265906
3.70648e-05
7.66914e-18
1.18881e-17
0.0137465
0.0116723
0.00350587
0.0476208
0.00270433
0.000172158
0.00525245
0.000185403
6.67564e-15
0.00106973
0.0222769
0.000284504
0.020505
0.011636
0.0343019
5.19502e-20
0.102088
0.00884206
0.00171705
0.00458718
0.0645941
0.00040264
0.00280898
4.19206e-06
7.92916e-05
0.00813881
0.00112506
3.13436e-05
1.76294e-06
0.000104116
0.0249161
0.296523
0.000157112
0.00903553
0.000290594
0.00014267
5.46485e-17
0.188768
0.000623565
0.286297
0.778178
3.29135e-06
3.8026e-17
7.59136e-06
0.000181402
0.0106456
0.00565528
0.010185
0.0635402
0.0344167
0.00184511
1.3873e-05
0.0104512
0.0113421
3.94305e-16
0.000512393
1.69377e-18
0.000241386
0.000427571
1.93131e-19
0.138246
0.000201187
6.89199e-05
2.02871e-15
0.000262245
0.00018109
4.44877e-19
2.54489e-16
0.477995
0.0314482
0.184926
0.147011
0.00217254
1.27808e-15
0.00665203
0.00124952
2.79626e-05
3.20846e-18
0.0854766
5.19636e-18
3.27586e-06
6.97655e-05
4.42419e-18
0.0165612
4.74415e-05
0.00854732
5.31385e-05
6.49722e-05
0.000137864
0.000640215
0.00113625
0.0130058
3.2857e-06
0.00113
7.08491e-05
0.0150733
1.43703e-17
3.2458e-17
2.22674e-06
0.0135147
0.000152188
0.000165865
9.16869e-05
0.0314896
0.000501093
0.000197109
3.06135e-05
9.73368e-06
5.58297e-06
0.00303188
7.59689e-17
3.08697e-05
2.41383e-05
7.26264e-16
0.000127553
5.92373e-07
5.87073e-16
0.000214496
3.52455e-16
0.0106964
3.93477e-08
1.71498e-16
0.00191267
0.00171043
0.00953999
0.000578258
0.010322
0.000306362
1.70555e-17
2.92273e-18
1.37501e-18
9.91429e-18
5.30255e-17
5.29953e-05
1.69577e-07
1.50566e-05
0.009478
0.00172311
1.02253e-15
0.0176811
4.33562e-05
0.000212325
0.0145061
0.00629072
0.0122791
0.013065
0.00334521
2.90119e-19
0.323066
0.0620385
0.000813072
3.86075e-17
0.0146856
0.00091235
0.0242105
0.00010247
6.48339e-17
0.0121448
5.41289e-06
0.00678688
6.17673e-17
0.000132163
0.00757524
1.63889e-05
0.0312304
0.355412
0.00114958
0.0551382
6.60057e-16
1.53408e-15
1.60883e-05
1.6195e-06
0.101717
1.29854e-05
0.00156666
0.000439625
1.68863e-16
0.00162081
1.73633e-05
1.00075e-16
6.05795e-17
0.0262357
2.37739e-18
5.79917e-05
0.0620113
1.0776e-13
0.00272746
6.86827e-19
2.19667e-15
0.00105773
0.000153204
2.60892e-16
3.42722e-06
1.20809e-15
0.00249187
0.000523304
8.58447e-16
3.65311e-17
0.000855519
5.51971e-06
0.00279667
1.58995e-16
3.59011e-06
0.000629191
9.28545e-05
5.05532e-05
0.0316967
3.74017e-19
5.66602e-05
4.89062e-17
0.00162241
0.0338017
3.73689e-16
2.56203e-14
3.81698e-16
0.000169413
4.41577e-17
0.0019743
0.296565
1.57754e-15
2.77462e-06
4.171e-05
2.6103e-17
5.66372e-16
1.04564e-16
0.000175663
1.86706e-17
0.000849067
6.84177e-17
0.000106131
0.000198659
2.70885e-17
0.0114714
5.58393e-18
1.16028e-18
0.00148032
0.000105734
0.00139469
0.0443919
8.83346e-16
0.000173043
0.000124063
8.55325e-05
0.000106886
2.62873e-05
9.83892e-17
8.78984e-16
4.25583e-05
6.71703e-18
2.1814e-17
1.11175e-05
2.63865e-16
8.46385e-05
0.0227086
1.79167e-15
0.00612157
0.000123554
0.0155808
2.04179e-05
0.000119121
4.63706e-05
0.00435036
2.82849e-05
0.00408373
0.0193022
2.18312e-05
6.16655e-05
2.54882e-05
0.000149701
0.000858526
0.000348903
0.000106761
0.0164546
7.17822e-05
0.0104945
4.62626e-06
0.879093
0.439954
0.000109263
0.0410998
8.54069e-05
0.000390931
0.00940712
8.56706e-10
0.603989
0.0442166
0.00455706
0.000620638
0.0283148
0.393007
8.92074e-05
0.024851
0.00439658
0.00219468
0.125732
0.0439434
0.000576446
0.000959564
0.0259778
0.0486232
0.00413427
0.000311739
0.0309635
0.000205665
0.0139939
6.08217e-16
1.11201e-05
0.00657917
0.000214432
9.37079e-07
0.00391717
0.000125576
0.000129207
0.000295546
5.43466e-17
0.00782633
0.00604263
2.76932e-16
0.000443613
0.00172551
1.44336e-05
0.00402356
5.76294e-16
0.0115327
0.063448
4.33802e-07
0.0329245
0.000139779
0.00115271
0.000143979
0.00045437
0.0300384
0.00415835
0.000221868
0.0273137
0.00030468
7.6197e-05
0.000365589
3.19552e-17
1.41281e-16
0.00536567
0.0258941
0.0147173
0.0051655
0.00551395
0.00104338
0.000133268
8.09674e-05
0.000136011
1.61749e-05
1.31914e-08
0.00175331
3.34584e-07
3.54155e-06
4.73024e-06
3.69209e-06
9.28431e-06
5.66765e-05
0.0103228
5.03895e-06
2.20316e-06
0.00341089
0.000275779
2.53553e-05
2.38296e-16
0.0068354
4.28666e-06
0.00509627
0.000449187
0.00431702
0.000119966
4.33891e-05
1.08443e-05
0.000117097
7.57351e-07
0.00153444
1.48138e-16
4.71996e-05
8.8985e-05
0.0345571
0.000166759
0.00427239
1.44412e-05
0.000177142
0.000314747
0.00834948
1.88195e-07
1.54499e-05
0.00361694
1.2003e-06
1.02924e-06
0.00189635
0.000365461
4.02671e-05
0.00299761
6.03261e-05
0.00600636
0.0290365
4.01655e-05
8.119e-05
0.00298451
0.000330779
0.00426377
7.49473e-05
0.00616993
0.000348094
0.00279282
2.83824e-05
0.000731116
0.000926377
0.00721269
6.15233e-05
0.0201246
0.00610859
0.000237441
0.00138627
0.00158519
0.000252234
2.92228e-05
0.00248902
0.0218552
3.4035e-06
0.0376782
0.000203221
3.59394e-08
0.000109051
0.0018854
1.00622e-05
0.000871241
0.0136948
0.0213802
0.00207443
0.00962975
6.5725e-05
7.64608e-05
0.00440714
0.0144036
0.000448211
7.64793e-07
2.48421e-05
0.0824584
0.041816
0.000104415
5.01268e-05
1.42436e-07
7.75427e-06
0.000114041
0.033786
0.00863577
0.0158683
3.88015e-05
0.00100709
2.85233e-05
0.0193169
1.35414e-18
0.003375
2.53524e-05
0.00104715
0.0203042
7.43307e-05
0.000399807
3.60099e-05
2.65337e-05
5.97962e-06
1.6802e-06
0.0235387
0.000228567
2.28441e-07
0.0199756
2.04107e-05
9.11771e-18
0.000439692
0.000365019
1.82848e-05
0.0134292
0.00046671
1.76412e-19
5.26561e-05
1.09424e-05
1.46081e-06
5.63553e-06
2.06982e-05
5.02651e-18
2.59028e-05
3.05942e-05
0.011619
0.00288839
0.000370666
9.87361e-10
0.000289809
0.060262
3.78434e-05
3.42632e-16
0.0181157
0.00280506
2.18389e-05
0.00331952
2.01445e-15
1.66565e-19
0.0183175
0.0021666
0.0229747
0.000780493
0.0499391
0.0142063
0.000125636
0.0258145
1.55645e-05
0.0892569
0.00326353
5.92837e-15
3.53555e-05
0.256497
0.00485855
0.000994909
0.00310783
0.000161178
0.00330754
0.0308473
0.00856823
0.00291713
0.144418
0.00373895
3.92277e-19
0.0178862
0.063944
0.0349042
0.00132643
3.29942e-05
0.000210981
6.0494e-05
0.0006804
0.0190863
0.0196819
4.7374e-09
0.0523763
0.023072
0.000616621
4.0227e-06
0.0136923
0.00325535
0.000720871
0.0506319
0.000534887
0.000111175
0.0108079
0.0108209
0.02174
5.90127e-05
5.16152e-07
0.00159686
0.016324
4.23701e-16
9.4474e-05
0.173178
0.00256415
0.00123693
0.00071881
4.34238e-05
0.00433774
2.13377e-17
0.0185436
1.69864e-06
0.014069
3.29163e-05
0.00564189
1.28198e-17
0.0164915
1.95894e-11
0.00011871
0.00871266
1.27865e-05
0.00659914
0.00773031
3.33652e-05
0.015772
0.000134374
0.0156365
0.00667382
0.00931248
0.0562998
0.00557939
0.0290682
0.0345207
0.0169362
4.35509e-05
0.00453908
0.000172434
0.000976563
0.000917577
0.00126805
0.00221987
0.000645966
8.94887e-06
3.30166e-05
2.87792e-06
0.00133992
0.00127863
0.0522316
0.0032439
2.99841e-05
0.000110383
2.36494e-05
0.000451554
8.92752e-06
0.00107398
0.0298504
0.00253435
0.00192654
5.23668e-05
0.0170163
4.91862e-07
3.28557e-05
1.89452e-06
0.000215966
0.0347447
0.0066989
0.000520549
0.000723336
0.00447772
0.000219887
8.80368e-05
0.00490726
1.54123e-15
1.48566e-05
8.47898e-05
2.54766e-05
4.65323e-05
4.68022e-05
0.00104477
0.00866071
0.101261
0.000250671
1.81892e-05
6.69346e-06
0.000327684
0.00836892
0.00240797
5.34823e-05
5.16673e-05
0.00319002
4.85892e-05
0.0100986
0.0744547
0.0451387
0.000172294
0.000524906
8.81528e-06
0.000115448
5.52634e-05
0.00392542
0.00045084
0.000761677
0.0142624
0.00192185
0.000277763
2.18896e-05
0.0004131
0.0297477
9.46647e-07
3.20129e-18
0.0110141
6.12514e-06
0.000563069
0.0047042
2.01009e-09
0.000105799
0.000514233
0.000145542
0.022646
4.00242e-05
0.000114385
0.000299895
0.00511761
7.81142e-05
0.000696031
0.000108507
0.00127719
0.00955985
3.60051e-05
0.0285868
1.04511e-17
5.10239e-05
0.0024022
7.48194e-05
0.00033849
0.00347387
0.00119224
5.54037e-05
8.61949e-06
0.00181469
3.65456e-05
7.57601e-05
6.76061e-05
0.00330521
1.28861e-05
0.301011
0.000144705
0.000953282
8.5192e-05
3.07902e-05
0.00028423
0.000248043
0.00372601
4.98128e-05
0.000570212
7.24536e-05
0.000906134
0.0140372
0.00278562
0.11199
0.000866475
0.0100705
0.0103372
0.0123798
0.00126212
3.17888e-05
8.02413e-05
9.51982e-05
0.000101528
1.54224e-17
0.000257875
0.0116581
1.8661e-17
4.34076e-17
0.00374603
2.29071e-05
3.21041e-05
0.0150093
2.48831e-05
0.000112138
0.00190955
5.26137e-05
5.07983e-05
0.00158954
4.27582e-05
0.0242193
0.013468
0.0101878
0.00190674
0.000139763
0.00158547
0.000293101
5.87213e-06
4.20136e-05
9.67627e-19
0.000101096
0.0110316
0.00698031
5.30738e-05
7.44365e-06
5.47985e-08
0.000262108
1.58019e-06
0.000341794
0.00412493
8.4106e-06
4.08766e-05
1.74505e-15
4.90116e-05
0.00277363
6.72126e-05
0.000334572
0.00227634
5.32586e-05
9.97417e-05
6.38985e-06
3.16356e-19
0.0534371
0.00048001
0.000673499
3.62025e-05
1.59671e-07
0.00221547
2.11721e-06
0.00343627
3.99226e-05
6.5061e-19
5.39217e-18
2.78877e-05
0.0194749
0.00321304
0.0242226
0.00160789
0.0512571
0.000104635
2.29818e-06
0.000236376
2.45195e-19
0.000892294
7.59088e-05
6.39998e-06
0.000104188
5.0786e-05
0.0192783
0.000440851
0.00232734
0.00590378
7.2905e-05
0.0107886
0.00359228
5.09325e-05
0.000933021
0.00315854
0.0296483
0.00030181
1.31983e-17
0.0632807
0.00891442
0.0064191
4.13735e-05
0.0620834
0.000274864
0.0150439
3.23616e-05
0.0172791
0.00019796
6.21654e-08
5.94493e-06
9.31824e-06
5.50262e-06
0.0402879
0.0144766
0.0145693
1.49658e-06
0.00232126
0.00010682
9.92253e-07
0.000933332
0.000104016
1.76126e-06
6.24901e-06
3.5312e-07
0.000130001
3.05608e-07
0.0359926
0.00308985
0.000346916
3.65686e-16
1.48697e-17
0.00168928
0.000456545
0.00151631
0.000733133
1.44052e-06
0.0141084
0.000252072
0.000665777
0.00205198
0.00125211
0.000125183
7.52453e-05
0.000176783
4.45352e-05
1.82057e-06
1.3466e-05
0.000108496
0.000668556
0.000103549
5.80925e-07
0.0167819
0.000216655
0.000588852
2.41544e-05
5.66845e-05
0.000489228
0.0069471
0.00291445
0.000582815
0.00021496
7.12742e-05
5.65523e-06
0.0043852
9.36109e-06
0.00747456
0.000391941
2.48669e-05
0.00187945
0.0954584
5.44995e-05
0.000193391
0.000518951
3.76904e-05
3.89312e-05
1.83795e-06
0.000199063
1.61919e-05
0.00138493
0.00374491
0.000585104
6.94868e-05
7.64229e-07
0.000464832
0.0095451
6.00207e-07
0.000141658
8.77175e-06
2.46714e-05
0.000368584
0.000183056
2.16065e-05
0.000293032
4.47829e-08
0.00010126
7.30216e-13
9.19645e-19
0.000199136
0.120439
7.45841e-06
0.000566458
0.000226962
0.000105704
0.0117876
8.33442e-06
0.00274844
0.00012194
7.94104e-05
0.000516874
1.90554e-05
0.000206213
1.7909e-06
3.90549e-06
0.000108749
0.000122532
0.0185441
0.000603181
0.000357245
0.00035848
3.39217e-06
4.47274e-05
0.00018033
0.00265852
3.07726e-05
7.54151e-18
2.98819e-06
0.00116631
1.48362e-05
0.012382
0.000292342
7.99141e-08
0.000161693
0.000127408
0.0840459
0.000378501
6.54855e-06
8.42923e-18
6.7055e-18
0.000206625
0.00059756
0.0266304
0.0087436
2.47016e-15
3.06186e-05
0.0377433
0.0399911
1.49642e-17
0.0179295
0.00589811
0.000395172
0.000129787
4.97269e-18
1.76519e-18
0.000317058
1.54751e-15
0.00441556
1.49514e-05
0.000163276
2.65437e-05
5.73994e-05
0.00604644
7.71934e-05
3.98355e-05
3.92207e-05
1.18718e-18
0.000193747
1.0041e-18
2.91324e-16
1.00306
0.000185125
0.0193758
0.00305342
1.09112e-05
9.07629e-18
0.0155248
0.00188724
1.99427e-05
1.61975e-05
0.00331482
1.70191e-16
5.40356e-06
0.000397172
1.6968e-05
0.0022292
0.000555283
0.000491311
0.000533235
5.85868e-06
7.01643e-05
0.019916
0.00283578
0.000595422
4.37762e-19
0.00355472
9.61763e-05
9.38836e-05
0.000248239
0.00926759
0.0126454
0.00410744
0.000755289
0.000178159
0.00252101
0.0019139
0.00203545
0.000470536
0.000228874
1.24175e-18
0.00367407
0.00168885
0.000126408
0.000107944
0.000751559
0.00158215
4.35893e-17
6.59181e-16
0.0227412
1.10835e-05
0.000904096
0.000299525
0.00330273
0.00978243
3.37439e-07
8.85366e-05
0.00550105
0.000153459
0.000125147
7.26682e-05
4.36091e-06
1.27213e-05
1.75439e-05
0.0036234
0.0128705
3.97377e-19
0.00606012
0.00161067
0.151531
0.000167439
0.00139411
3.06851e-05
0.0090858
1.14498e-05
8.50334e-05
2.58288e-05
0.0199154
1.19818e-05
0.000513665
0.000693899
1.95234e-05
0.00677345
6.32733e-05
0.00219256
0.0168349
0.0069218
5.48367e-05
3.79146e-05
0.0122476
0.000135682
4.42565e-05
0.00189844
0.000772862
0.0018884
2.1178e-05
0.000112131
0.00465749
0.00325852
6.33812e-05
2.81113e-05
0.000258139
0.00191601
1.08154e-17
7.57243e-05
2.50749e-06
0.000924621
0.0150699
0.00284551
0.00154977
0.00337288
0.000487424
0.0313618
0.00131601
0.00743174
0.000252896
1.04421e-05
0.00023722
2.75811e-05
0.0004466
5.89875e-06
5.37344e-18
0.00119701
0.000153472
0.037153
0.000766158
0.00788516
5.32779e-05
0.00738283
0.000332418
0.0148489
0.0174817
0.00141182
0.00978238
1.04917e-05
0.000372922
2.85306e-06
0.000602539
0.000218866
0.000350014
6.18652e-05
0.00030762
9.97202e-05
0.00264968
2.10621e-05
5.58395e-05
5.95566e-05
6.74184e-17
0.0265686
0.000162009
1.597e-05
3.39285e-05
3.1069e-05
0.000139
0.00540659
8.60134e-05
3.33084e-07
3.43542e-05
0.00159215
0.00312185
0.000253031
0.015697
0.0133472
1.49603e-16
0.000207747
0.000162418
9.98909e-05
0.000289011
0.000470944
0.000448054
2.37266e-05
0.000932931
0.000450536
0.00535396
5.50234e-18
0.00117056
0.00053576
0.00838489
0.00525684
0.00877622
2.06814e-05
0.0538523
0.0218727
0.0973142
2.05315e-05
0.000145422
3.69213e-05
0.00028681
0.00675883
0.010277
0.0299439
0.0246817
9.21851e-06
1.56135e-05
0.00781948
0.000405734
0.017271
0.301311
0.0173402
0.000345585
0.000448425
0.0160644
0.00160475
0.000242934
0.000726592
0.162663
1.38052
6.93566e-05
9.9113e-07
6.38152e-05
0.003457
0.00104844
0.00185771
0.00269636
0.00197071
0.00212451
0.000879677
2.83334e-06
3.10673e-05
0.000207638
1.0024e-07
6.09962e-05
0.000444036
2.80764e-05
9.23311e-07
0.00322018
0.0108069
0.00403902
2.52545e-07
1.0786e-05
3.09051e-05
1.94477e-07
6.58623e-05
3.00508e-05
0.00874486
1.75307e-16
0.0314676
0.000107597
0.0488342
0.0149813
0.000244419
0.00214425
9.97945e-06
0.00236364
0.000136716
0.000872128
0.0838164
1.10282e-05
6.59109e-18
5.92872e-10
4.37508e-05