/*--------------------------------*- C++ -*----------------------------------*\
  =========                 |
  \\      /  F ield         | OpenFOAM: The Open Source CFD Toolbox
   \\    /   O peration     | Website:  https://openfoam.org
    \\  /    A nd           | Version:  10
     \\/     M anipulation  |
\*---------------------------------------------------------------------------*/
FoamFile
{
    format      ascii;
    class       volScalarField;
    location    "86";
    object      SgRate;
}
// * * * * * * * * * * * * * * * * * * * * * * * * * * * * * * * * * * * * * //

dimensions      [1 -1 -3 -1 0 0 0];

internalField   nonuniform List<scalar> 
59698
(
0.0162441
0.00198791
0.00252399
0.00271614
0.0302421
0.00145199
0.00462783
3.02599e-05
1.99022e-09
3.92123e-09
0.000586479
0.000299218
1.58234e-09
0.0022924
0.000354561
4.25867e-07
7.03533e-06
0.000145936
4.51189e-05
0.000260861
0.00172355
0.0139677
0.000499952
8.81927e-08
0.0422889
6.75524e-05
0.000342595
0.0100341
0.00915675
0.00743108
0.00477604
0.000600688
6.68514e-08
0.0164978
0.00242202
0.000163972
0.0191039
0.0205317
3.0846e-05
0.025108
0.00866593
2.30473e-07
0.00374908
0.000644074
0.000402107
0.032212
7.43634e-05
0.000729458
0.00315548
0.000173575
0.0015181
0.000119567
0.00206705
0.00273457
0.0114158
7.69483e-05
0.00132757
0.000212357
0.000806441
0.00282906
0.0052269
0.000501847
0.122334
7.04638e-05
0.0125983
0.00160621
1.75119e-09
0.000399838
5.58478e-05
6.77113e-09
6.39727e-07
0.000253616
0.000363014
0.0407508
0.000411948
0.039264
0.00011722
0.00925276
0.000355834
0.00615776
0.00891173
0.000475689
3.98044e-09
1.59641e-05
0.0084081
0.000550717
3.60276e-06
4.21609e-05
0.0637636
0.000129135
4.51127e-09
0.00206055
0.0148477
9.8774e-06
7.35124e-05
0.00375149
0.00538131
6.10794e-05
0.000271364
8.59918e-10
0.077016
0.00180354
0.0162718
0.0153862
0.000121333
0.000564777
4.36112e-05
3.66997e-05
2.66464e-09
4.40166e-10
0.000249927
7.24824e-06
0.0380963
1.56281e-07
2.62268e-05
4.51244e-05
4.00757e-05
0.00353823
2.36382e-05
1.14397e-08
3.64201e-05
0.000707475
1.14877e-06
6.16478e-06
2.12754e-05
3.35011e-05
0.0108119
7.20129e-09
2.76943e-05
2.97521e-05
0.0445016
3.73324e-05
1.10717e-09
0.100048
0.00424337
0.00440254
2.1195e-06
2.3823e-10
0.00025542
0.00013119
0.000109394
0.00231877
0.00269822
0.0026519
9.99202e-06
0.000694655
6.39034e-06
2.20853e-05
0.00448991
0.0293448
0.000299535
0.000434378
0.00152671
7.58659e-06
0.000163406
0.000342366
4.79095e-05
0.00162923
0.0124016
5.45198e-10
0.000856848
5.12961e-05
0.0164651
0.00164778
0.00337983
0.0344986
0.000237876
0.0721444
0.00202502
0.000413384
0.0120179
1.53876e-06
0.0107971
0.0147013
0.0794126
0.00194744
4.36317e-09
0.00144576
0.000326017
0.00921351
0.00944731
0.0180457
0.0147173
1.98268e-05
0.0460508
0.000236872
0.0114429
0.00247899
6.48213e-06
0.00118277
0.000403774
6.68936e-05
0.00268658
0.0388488
0.00401182
0.00417135
0.00983889
0.0578333
2.67423e-05
0.00769534
0.000227114
0.00624534
0.0211351
6.62492e-05
0.0103583
0.00276753
0.00612969
0.00286846
0.00783494
0.0113636
0.00256119
2.36566e-05
0.0027918
1.56825e-08
0.00408098
0.00336756
3.74215e-05
3.63684e-05
0.0127363
0.00659199
0.00560647
0.00268908
2.97588e-05
0.0661026
0.000809402
0.0264182
0.00735434
0.00324223
0.00683301
0.159105
7.57601e-09
0.00475274
0.00291158
0.00323508
1.38372e-05
0.00969627
0.0828669
1.9129e-05
8.72803e-07
0.000445122
0.00262487
0.00146726
0.0135566
0.000664542
0.00613437
0.000120375
0.00378125
0.229684
0.00122249
0.000427024
0.000702119
0.00162793
0.000628539
0.000233555
0.000618146
0.00238825
0.00602019
0.00128469
0.00364422
4.10591e-05
1.38325e-05
1.82349e-09
0.000393678
0.00592947
0.00472985
0.0473985
2.32398e-05
1.0688e-07
0.000164926
1.63142e-05
0.000141792
0.0438983
0.000223845
1.85009e-05
0.0179916
0.000206263
0.00146596
0.000511044
0.00206361
1.22867e-09
0.000574138
0.000193533
0.00021202
0.104526
0.048785
0.0202094
0.000135111
0.000647266
0.0728753
0.000444414
0.0915538
0.00234076
0.000188213
0.000164598
0.00032136
0.00273554
0.000356745
0.000803412
0.0042437
1.17446e-05
0.00272296
2.35182e-09
6.86651e-08
0.000823098
6.46158e-05
5.27129e-05
0.0521458
0.0010143
2.02339e-06
0.000267446
0.00197967
7.08115e-05
3.82918e-05
2.37984e-08
0.00193984
0.00514617
0.000403389
0.000392739
0.000829308
0.000806603
0.000342152
0.323103
0.000321273
2.93736e-09
0.0490563
0.0105678
0.000328137
0.000353483
0.000443236
0.000361922
0.00944714
0.00415914
0.0203118
0.20515
0.000430955
1.92043e-05
9.99548e-06
0.000664497
0.00908624
0.00448332
0.0102174
0.00206576
0.00253481
0.00148036
9.68359e-05
6.7543e-06
0.000100891
0.0396085
4.76753e-05
0.00204884
0.00797657
9.16351e-05
0.0400027
7.96034e-10
0.244139
0.0021733
0.0140385
0.000126133
3.79349e-05
1.82776e-09
2.75998e-05
8.79073e-06
1.10534e-07
0.00089191
1.13627e-10
1.04124e-07
0.00281318
0.00203114
0.000156477
0.0016485
0.00190837
0.000533992
0.00367395
0.000651129
0.00618695
2.98918e-09
0.000153398
2.45298e-05
0.00046053
2.48771e-09
0.000347123
0.000102941
5.62987e-05
0.000529285
0.000140122
1.98404e-05
0.000212057
0.00054482
8.34255e-10
0.000143823
8.76947e-05
0.000457477
0.0045674
0.00265618
0.00134205
0.0022834
0.0482896
0.00184025
0.00272063
0.00014551
0.00284911
0.00238663
0.00258651
3.9822e-05
0.00148702
0.00420619
0.0849957
0.0281705
2.31514e-05
0.00538013
0.0313414
0.000404301
0.00178352
0.000434527
4.71601e-08
0.0595207
2.72682e-06
0.0103142
0.00240667
0.00183652
0.0030371
0.00218732
0.00252693
0.310821
3.76576e-05
1.31306e-05
7.85616e-09
0.000218351
0.00143132
5.65464e-10
0.000266425
0.00215075
0.0163272
0.00303008
0.00210846
1.43757e-08
1.38835e-08
0.213141
0.000123652
0.00317625
1.92325e-07
0.00325722
5.13667e-09
2.19585e-05
4.03823e-05
0.00239634
0.0699119
4.51459e-10
6.44533e-05
0.00909556
0.00256143
0.000124761
5.91793e-05
0.03285
0.000284677
9.72844e-05
0.108628
1.41078e-09
0.00980704
2.88782e-05
0.0542409
8.70107e-06
0.0159946
0.0133329
2.19962e-09
0.000976471
0.000447527
0.00849441
3.32804e-05
0.00808023
0.00292892
4.40508e-09
2.10704e-10
6.86664e-09
0.000386245
0.000817791
0.00112818
0.0689191
0.00622228
0.00220277
3.5078e-05
0.000498429
3.97968e-05
1.92902e-08
0.00540302
4.58217e-05
5.55202e-05
9.36982e-05
0.0657267
0.00179156
0.0229742
0.0658806
0.00113286
0.00016344
0.0589782
6.1851e-05
5.56948e-07
0.00237022
0.00952035
0.000365618
9.77587e-10
0.0639135
0.0071723
0.0046039
1.71073e-08
1.12184e-09
3.84092e-05
2.17906e-09
1.24574e-05
0.00315847
0.000581949
0.074778
0.00726181
5.41924e-08
0.00913379
5.58101e-05
6.87722e-09
3.85579e-05
7.03502e-08
2.4833e-08
0.00545913
0.00378095
1.17076e-05
3.8394e-09
2.1907e-09
0.00127117
0.00949955
1.03491e-05
0.0107215
0.00390574
3.88495e-05
0.0425818
1.82766e-08
2.22987e-05
0.00145197
3.54508e-10
1.35536e-08
0.00185565
0.000138805
0.00038488
0.00973337
0.000357321
0.000148087
0.0673464
0.00817669
0.0135183
0.00993499
0.00017337
0.011686
7.88469e-06
4.19432e-05
2.28196e-09
3.92608e-05
1.90856e-09
0.000282945
3.01022e-06
1.91768e-08
0.00116938
0.00689828
0.000445231
0.000768506
1.74778e-09
3.30852e-05
9.32049e-05
5.56883e-05
1.80933e-09
0.0737754
5.27079e-05
0.00552871
0.000539255
0.0028764
6.41268e-05
2.00981e-07
0.00259415
0.00287437
0.00337931
6.802e-05
0.00399562
0.00211552
2.31349e-09
0.000732637
7.56638e-05
0.00516089
5.4399e-05
0.00407939
0.000313345
0.00242583
1.78467e-05
0.00413174
0.00269161
0.00215912
0.00332623
0.000372135
0.000167742
8.51574e-10
1.90248e-05
9.23756e-07
0.00432759
0.000349775
7.19595e-09
0.00516446
3.36546e-05
2.69006e-09
0.00340509
0.00147684
0.00216457
0.000164862
0.00108748
0.00393264
6.62793e-07
8.10868e-06
0.000547228
1.01514e-05
0.00433976
0.00142195
0.00279056
2.21119e-05
0.225004
1.87753
2.06375e-05
5.03682e-09
0.000596507
0.00213784
0.000940438
0.00247896
4.85158e-05
0.00713471
0.00247062
0.00318138
0.00155984
0.00276873
0.000211203
9.20445e-05
0.00114097
0.000107804
0.00133859
0.000236381
2.43506e-05
0.0015678
0.109783
0.000238515
5.06545e-06
0.000607886
1.44901e-09
0.00243037
0.00381989
4.14936e-05
0.00244298
0.00012086
1.72424e-09
0.000439479
0.000176817
0.00829913
0.000802451
0.00058603
0.000114132
4.06614e-05
7.85982e-06
0.000326701
0.00202943
0.000307797
0.000815361
0.000891434
0.0198719
0.0910585
0.00136232
3.36216e-05
0.00233331
0.00319741
0.0415862
3.86659e-09
2.14723e-05
0.000460587
0.00354662
0.000143976
0.00167306
0.000428463
0.010792
0.0473346
0.000145316
0.000422807
8.02621e-05
3.53427e-07
0.000378101
0.00140704
1.56729e-05
0.00215041
0.000195016
0.000191369
0.0114318
0.00440452
0.0393747
0.000808207
0.00138545
0.00211552
0.00244236
0.000242799
0.0011821
0.000650616
0.000158966
2.32674e-10
9.40295e-10
0.00660685
0.000821926
4.47354e-05
1.50313e-09
0.00642807
2.88569e-05
4.43365e-06
2.72889e-09
0.0034292
4.18083e-08
0.000504318
0.000362097
2.82796e-05
0.00197249
0.00915499
3.43886e-05
1.38486e-09
0.000646937
0.0618301
0.00323132
3.84665e-05
0.000952888
0.00144708
0.0258093
0.00879474
1.36608e-09
0.0553307
5.19213e-05
0.00254925
0.000344565
0.00942011
6.44287e-05
1.4814e-07
0.0112223
0.00449402
0.000532169
0.00307892
0.0604205
0.00058446
6.96207e-05
0.244917
0.00232573
0.000737392
0.00240113
0.00190575
0.00169929
5.20082e-06
0.0152938
1.90916e-05
0.059987
0.00317199
0.0246559
7.32773e-10
0.000212016
0.105219
0.23641
0.000599783
6.86608e-05
0.0497135
0.000383645
0.00224588
0.00519912
0.00194313
0.00830708
0.00409907
5.95782e-05
0.000401564
0.00197466
0.0141817
0.000373921
3.50373e-10
0.00269265
2.49664e-09
0.00433549
3.84396e-05
0.00022413
0.00609205
0.00523231
1.23159
3.75541e-09
0.0244631
0.00969228
0.0210628
0.00106991
0.00475425
0.000326091
0.000952023
0.00163764
0.00140188
0.00667604
0.0111357
0.106944
0.00218963
0.00550671
0.00054117
6.92831e-09
0.000383111
0.000368744
0.000233893
1.58249e-09
0.00320281
2.16526e-06
0.00943356
0.000215142
0.00071959
0.00158246
1.69226e-07
0.00683959
3.51248e-09
0.00100438
6.11702e-05
0.00130408
0.000114439
0.0136993
0.000651796
0.00179574
0.0200007
0.20977
8.08325e-05
0.00866094
0.00012893
0.000688048
0.000444762
0.000428765
0.00378999
0.000843898
0.00741366
0.000561236
0.00627245
0.00227906
2.04378e-06
0.000401155
7.35455e-05
8.31264e-05
3.32466e-05
0.000503647
0.0002771
0.000313504
7.69588e-09
5.13972e-09
2.00019e-09
0.000487266
2.1591e-09
0.00557022
0.0049288
0.00153864
0.00049972
0.00406288
1.6595e-05
2.91097e-09
0.0153834
0.000469628
0.000152982
1.30585e-09
0.0358445
0.004888
0.000880748
9.00738e-06
2.45269e-05
0.0106268
2.63799e-07
0.00982417
0.000131639
0.000532564
0.000484647
0.000128422
3.3224e-05
2.50066e-09
0.0013416
1.50181e-09
0.00885908
8.98233e-08
0.00208679
0.000108819
6.99177e-05
0.00163721
0.00165183
0.000598379
0.00192487
5.96418e-06
0.00202516
0.000307139
1.24712e-09
0.00206033
6.30414e-05
3.31059e-05
0.0042379
3.06523e-09
0.000267268
0.00372719
0.0183005
0.000319935
0.00105558
0.00300149
9.16579e-05
0.00460866
0.000633465
0.000584057
0.00449398
0.000148871
0.000379941
0.00255435
0.00162977
8.57908e-09
0.00261207
0.00010607
1.22444e-05
0.0651861
0.000412256
0.00145647
0.00262429
1.49207e-07
2.0367e-09
0.00272522
0.00403405
0.00521597
0.0202661
0.00398294
7.07567e-07
0.041037
9.53815e-05
0.00132766
0.115482
0.00023091
0.00458889
0.00450312
0.032733
0.0585348
7.36782e-09
0.00254331
1.65198e-09
0.0246764
0.000269457
0.000347355
0.00141619
3.87394e-10
0.000761133
0.00245024
0.000578735
0.00195333
0.00681611
0.00282964
0.00316836
8.41216e-05
0.0249926
0.000738589
0.000141868
4.71278e-05
0.000826073
5.70844e-05
0.00238152
0.00106988
2.05444e-05
4.80911e-05
0.00533128
0.000295119
0.000164008
0.000106869
0.00539428
1.45504e-09
0.00014149
0.00958646
0.0035768
0.000294217
0.000415047
0.000265066
0.000125686
0.000425042
2.38583e-08
7.53788e-09
0.00042922
0.00234043
0.000466221
0.000397683
0.0141485
0.0191013
0.0178388
7.70704e-06
0.00184148
0.0029264
0.00271504
0.00485065
0.0059991
0.000396845
4.64533e-05
0.0025583
4.39563e-05
0.0110547
0.0565933
0.00197839
0.000443738
7.0586e-07
0.000538421
0.000104418
0.00114604
0.00226337
0.00234914
0.000608726
6.8698e-09
0.000122998
0.00237306
0.00235954
0.00232079
0.00365569
0.0471892
0.000395618
0.00190295
0.00135655
0.0227956
5.68042e-10
0.00039761
1.44346e-05
0.0046106
0.000454125
0.00160337
0.00469142
3.41776e-05
0.00347787
0.00356455
0.00366881
0.00550576
0.00949872
0.0100838
0.00817903
0.00521917
0.00580301
1.52109e-07
0.000148003
0.000475252
0.00599923
0.00473916
0.00222616
5.70409e-10
0.00174206
0.00390208
0.000245659
0.00161512
6.35778e-05
0.0145961
0.000127032
0.0405536
0.00314937
0.738848
7.64823e-06
1.56093e-08
0.00211448
0.00317172
1.78904e-07
0.000760457
0.00399551
0.00701406
0.00430793
0.000634005
0.00683416
0.000542246
1.04624e-09
0.019703
0.000765803
0.000924521
0.00115901
0.00267844
0.000322772
0.00112636
3.12275e-09
0.000534595
0.00816902
0.0027112
0.0926257
9.41019e-09
0.00241003
0.0818938
2.53969e-10
0.00876452
0.00276821
0.0252261
0.00130954
0.00363036
3.48476e-05
6.77777e-06
0.00132854
1.54772e-08
0.00123992
4.22278e-05
0.00011836
0.000125942
9.17314e-06
0.00171754
0.00322659
0.00975496
2.96297e-08
0.00245496
0.000532382
0.000161396
0.0364293
0.0545714
0.0050592
0.000372039
0.00426592
0.454777
0.0241096
0.0263099
0.000460104
0.00044909
0.102673
0.000136978
2.28852e-07
1.49979e-06
0.0165005
0.000213812
0.0017059
0.000329898
0.0017462
2.99178e-08
0.0046155
0.00900952
0.00288257
0.00064735
0.000736889
0.000477735
2.25519e-09
0.000130881
0.00365449
2.5332e-10
0.00114374
0.000584108
0.00778262
0.000354199
0.112638
4.4794e-05
0.00118522
3.40882e-07
0.00565103
9.28823e-05
0.00110264
0.00257142
0.000380629
0.00242492
1.24013e-05
0.000137372
0.00285949
3.82692e-05
0.0187032
0.0121443
1.04306e-05
0.00150337
0.0835283
0.0029787
0.00400678
0.000114238
1.82538e-05
0.00375416
0.0362473
0.00883671
0.00264308
0.000182273
0.00193195
0.00336572
0.00299893
0.00372926
0.00537455
7.53662e-09
0.116537
0.0513895
0.000492618
1.05598e-06
3.04004e-05
0.0031325
0.00244976
0.0262775
0.00113158
7.30504e-07
0.00230447
0.000371474
2.89924e-09
0.00355194
4.22459e-09
0.00268578
2.6641e-05
0.00147754
0.00375341
9.25672e-05
0.0198455
0.00015123
0.000434431
0.003647
0.00413488
0.00204486
0.00209706
0.0118957
0.000579703
0.000345169
0.000376421
0.000264709
9.38586e-06
2.29806e-09
0.000190518
7.30708e-05
9.73271e-05
0.000781454
0.000646966
0.000852863
5.19494e-06
1.8384e-05
1.86421e-05
0.000308188
0.00267073
0.000496416
4.32663e-05
0.000238787
2.93068e-05
0.000315474
0.000231981
0.000223595
0.00392838
0.103561
5.28347e-05
0.00478026
0.00165947
0.00412443
4.89962e-09
3.55597e-06
4.39833e-05
0.00843233
0.0197813
0.00477954
0.002328
2.19155e-08
8.48578e-05
0.000377622
0.00474299
0.00951579
1.05124e-08
0.00515705
0.00280618
0.00107461
0.0035464
0.00263976
0.0145694
0.00185772
0.00384753
9.17945e-05
4.66785e-10
1.40036e-09
5.30824e-05
0.00561517
8.40576e-06
6.26828e-10
3.50081e-05
0.00502555
0.000210439
0.00100925
0.00101766
6.01885e-05
0.00191198
4.82239e-05
0.00388854
9.73913e-05
0.00208675
0.0285652
0.00212401
0.00120775
6.09991e-05
2.2516e-07
0.0010184
0.000983776
0.0146298
3.21132e-10
1.21976e-07
0.00126721
1.22673e-07
0.000869514
0.000217033
1.47333e-07
6.88526e-09
0.00021495
0.0002838
0.000584269
0.00219827
0.0020809
0.000277299
0.000575581
2.53783e-05
1.07201e-08
0.00549133
0.000205311
6.67803e-10
0.0469545
6.57951e-05
3.27142e-05
0.000280496
6.10905e-08
1.63134e-05
0.000547246
8.796e-05
0.000563699
9.63029e-06
0.000946207
0.000336143
0.00276205
0.00428166
0.00129408
1.55504e-05
0.0632095
0.00238294
2.15048e-07
0.00607187
0.00288686
0.0066742
1.21993e-05
2.2566e-07
0.35184
1.6773e-06
2.48989e-08
3.48388e-05
0.0255455
0.0030677
0.000635586
0.000492202
2.0777e-05
0.00322353
0.0360958
0.00481999
0.00870183
0.0142947
5.58939e-08
0.000340237
1.65153e-09
3.62888e-05
0.00831967
0.000746741
0.0749702
4.18008e-10
0.000488914
6.34937e-10
0.000532963
0.000313634
0.000377379
0.0105629
0.0181562
0.000544619
0.00183577
0.0045025
6.20253e-09
0.00023477
0.000995431
0.00201171
0.000397249
0.000791198
0.00750553
0.0106878
0.000591668
0.00168808
0.00266735
3.71269e-05
6.38546e-09
0.000432452
0.0138699
0.0116623
0.00504069
0.0476949
0.00272342
0.000171879
0.00524763
0.000184907
0.000681635
0.00106998
0.0222576
0.000285581
0.0203895
0.0115315
0.0344035
1.82278e-09
0.101503
0.00877418
0.0017275
0.0046063
0.0648558
0.000400486
0.00281288
0.00239127
0.00228836
0.00812385
0.00112477
3.13923e-05
1.79483e-06
0.00203122
0.0249339
0.294836
0.000156882
0.00909171
0.000291426
0.00125761
0.00044488
0.187987
0.000622602
0.286172
0.778691
0.000103934
2.23151e-09
7.60831e-06
0.0013645
0.0106205
0.00567931
0.010202
0.0628154
0.0343202
0.00184178
0.00163758
0.0103478
0.0113541
1.2158e-08
0.000519755
0.000427673
0.000353838
0.000421887
0.000637651
0.139054
0.000272935
0.00289632
0.000398954
0.00307869
0.00201946
0.00221777
4.46712e-10
0.476878
0.0314965
0.185124
0.148265
0.00216288
2.01774e-09
0.00655525
0.00125063
2.83435e-05
0.000761567
0.085683
8.84838e-10
0.00178792
6.98792e-05
0.000207824
0.0166479
4.77006e-05
0.0085418
5.34833e-05
6.49959e-05
0.0016499
0.00063518
0.00113969
0.0129747
2.93461e-05
0.00243249
0.00138441
0.0180639
4.8297e-09
0.0005028
0.00149895
0.0152641
0.00164874
0.000166091
0.00226551
0.0313883
0.000499798
0.000196811
3.08216e-05
0.00148123
0.00177416
0.00302597
1.45466e-08
2.98295e-05
2.45528e-05
0.000298095
0.00380959
0.0013549
8.20793e-08
0.00269441
8.58735e-10
0.0107084
0.00108925
0.000804566
0.00191765
0.00174351
0.00954112
0.000579194
0.0137969
0.000305923
0.000423271
1.16908e-09
0.000378709
0.000405407
0.000581332
0.00196211
5.01652e-07
0.00163188
0.00947509
0.00172536
0.000460527
0.0189196
0.0022516
0.00130971
0.0145156
0.00752147
0.0122536
0.0130842
0.00625311
1.64011e-07
0.321964
0.0621376
0.000812102
0.000573432
0.0146838
0.000911519
0.0242233
0.000102075
0.000403309
0.0143615
5.67977e-06
0.00678717
0.000614695
0.000132101
0.00757448
1.65599e-05
0.0312497
0.357172
0.00115044
0.0576374
8.41862e-10
0.000256112
0.00435199
1.64676e-06
0.102463
0.00244209
0.00162708
0.000443501
2.46255e-09
0.00338677
0.00279609
5.18043e-10
0.000489112
0.0258303
0.000618779
5.78935e-05
0.0618817
5.1205e-07
0.00273768
7.65146e-11
0.000345784
0.00238868
0.000153025
1.18327e-09
0.00218529
1.11156e-08
0.00250449
0.000523836
1.87755e-09
7.87725e-08
0.00439128
0.00209939
0.00279794
5.47801e-10
0.00221537
0.000629172
0.00279815
5.04521e-05
0.031549
4.58736e-08
5.75461e-05
2.74953e-09
0.00162468
0.0372279
5.0277e-09
2.7955e-07
0.000274723
0.00254564
0.000453103
0.00197946
0.296109
2.56762e-09
0.000231629
0.00232262
8.94025e-10
3.75311e-09
3.97769e-08
0.000175971
0.000502525
0.000849598
0.000529729
0.000106108
0.000197472
5.85513e-11
0.0114178
0.000221055
0.000394061
0.0014805
0.00394827
0.0038549
0.0445118
3.15991e-10
0.000172759
0.000123378
8.53737e-05
0.000107023
0.0027785
0.000620107
0.000514079
0.000120185
0.000348242
0.000381681
1.11345e-05
4.2699e-08
8.40273e-05
0.022629
1.88566e-08
0.00845896
0.00012347
0.0155241
0.00113901
0.000118794
4.6789e-05
0.00432657
2.8188e-05
0.00408678
0.0193001
0.00222069
6.13392e-05
2.55389e-05
0.000149721
0.000861204
0.000348759
0.00386228
0.0164699
7.17635e-05
0.0104224
4.64438e-06
0.878246
0.44008
0.000108888
0.0413749
9.6808e-05
0.000391091
0.00940218
1.03068e-05
0.600302
0.044233
0.00756548
0.000622273
0.0283434
0.393289
0.00291617
0.0249211
0.00437489
0.00221163
0.127401
0.0440291
0.000576888
0.000952655
0.0260407
0.0486262
0.00414174
0.000310017
0.0330559
0.000205824
0.014087
1.10957e-08
1.11499e-05
0.00659821
0.000214133
0.00421643
0.00392884
0.000125307
0.000129742
0.000295656
1.08514e-09
0.00780526
0.00605569
2.8317e-09
0.000442562
0.00171929
0.00222391
0.00403842
0.000384386
0.0115597
0.0632625
4.59236e-07
0.0331293
0.000139611
0.00431204
0.000144061
0.00224296
0.0302069
0.00414405
0.000222106
0.0273662
0.000305785
7.6077e-05
0.000365876
0.000259157
0.000626661
0.007537
0.0258431
0.0147281
0.00741251
0.00551172
0.00105026
0.000133147
8.08225e-05
0.000136261
0.00413609
2.80546e-06
0.00482476
3.53796e-07
3.5612e-06
0.00159421
0.00144802
0.00175696
5.67757e-05
0.0103398
0.00187361
2.21209e-06
0.00340236
0.000276111
0.00180011
0.000459357
0.00681165
0.00231249
0.00506665
0.000439577
0.00636269
0.00229012
4.34637e-05
0.00238875
0.00312698
0.00180937
0.00153628
4.38409e-09
4.71722e-05
8.89243e-05
0.0345966
0.00179557
0.00702828
0.00183897
0.000176888
0.00334563
0.00836059
0.00228162
0.00250697
0.00361787
1.24788e-06
0.00165498
0.00189353
0.000365519
4.17764e-05
0.00300228
0.00262045
0.0079905
0.0289308
0.00167179
8.12381e-05
0.00300094
0.000330483
0.00425283
7.52715e-05
0.00616525
0.000348122
0.00278525
2.84725e-05
0.000732343
0.000930315
0.00721249
6.16379e-05
0.0200025
0.00612074
0.000237725
0.0013888
0.00158658
0.000252394
2.91736e-05
0.00248945
0.0218776
3.37543e-06
0.0377664
0.00208482
7.1698e-08
0.000109007
0.00188567
1.01515e-05
0.000869884
0.0137387
0.0231343
0.00208466
0.0118006
0.00155153
7.64572e-05
0.00440468
0.014547
0.000447439
0.00157784
2.48622e-05
0.0828793
0.0418666
0.00010454
0.00240764
0.00149691
7.77349e-06
0.000113772
0.0337438
0.00858087
0.0158751
3.87548e-05
0.00100665
2.85851e-05
0.0192912
2.49743e-09
0.00338013
2.54015e-05
0.00104445
0.0202559
7.42357e-05
0.000397927
0.00433183
0.001475
0.00257613
0.00155539
0.02346
0.00022861
0.00201341
0.0199894
2.05103e-05
0.000410057
0.00043664
0.000365955
0.00236951
0.0134386
0.000466214
2.30262e-08
5.24589e-05
0.0014107
1.46094e-06
5.66276e-06
2.09135e-05
2.66814e-09
2.63992e-05
3.64294e-05
0.0116798
0.00500095
0.000370758
0.000460418
0.000294596
0.0622101
3.79235e-05
5.03823e-09
0.0180951
0.00279838
0.00186039
0.00331749
0.000518379
1.49305e-07
0.0184283
0.00216641
0.0229867
0.000776353
0.049742
0.0141848
0.000125635
0.0257761
0.00326299
0.0894227
0.0074883
5.65406e-09
3.5546e-05
0.25651
0.0067424
0.00099216
0.00310479
0.000163032
0.00330813
0.0308621
0.010884
0.00292653
0.144765
0.00634963
1.35889e-09
0.0178716
0.0639951
0.0347866
0.00132671
0.00256383
0.000210962
0.00282863
0.000676947
0.0190112
0.019704
0.000894216
0.0522846
0.0229989
0.000619765
0.00253888
0.0136789
0.00325237
0.000708209
0.0504997
0.00261232
0.000110632
0.0108382
0.0108163
0.0217227
0.00258701
0.000270475
0.00280377
0.016321
0.00035808
9.41051e-05
0.172963
0.00332759
0.00123031
0.00159244
4.65538e-05
0.00434633
2.65814e-09
0.0185564
0.00253518
0.0140799
3.28597e-05
0.00555839
1.12197e-08
0.0164701
0.000301438
0.000118596
0.00870021
0.00244258
0.00662995
0.00773001
0.00207114
0.0158935
0.000134426
0.0156098
0.00669052
0.00927076
0.05633
0.00557542
0.0290125
0.0344718
0.0169642
0.00114061
0.0045361
0.00265333
0.000983694
0.000918212
0.00398071
0.00222056
0.000648093
8.96746e-06
3.31391e-05
0.00237297
0.00134006
0.00128004
0.0537066
0.00325047
0.00269888
0.000110258
2.3659e-05
0.000451611
8.89791e-06
0.00258946
0.029815
0.0025387
0.0019264
5.23957e-05
0.0170419
0.00255102
3.28797e-05
1.90599e-06
0.000216125
0.034768
0.00671894
0.000518091
0.00230249
0.0044748
0.000219066
8.81861e-05
0.00487855
0.000429644
1.54843e-05
8.47493e-05
2.5536e-05
0.00187325
0.00221623
0.00104419
0.00864147
0.102893
0.000247092
1.81794e-05
0.00356751
0.000327868
0.0111156
0.00241164
5.34947e-05
5.16357e-05
0.0031961
4.84932e-05
0.0101069
0.0731897
0.0453444
0.000171493
0.000525134
8.87641e-06
0.000115305
0.00263423
0.00392814
0.00045098
0.00273644
0.0143045
0.00193438
0.000276781
0.00230938
0.000428037
0.0297692
9.29227e-07
3.70053e-08
0.0109927
0.0023437
0.000564734
0.00466334
0.000616155
0.000106076
0.000514971
0.00247772
0.0226754
4.00431e-05
0.000114398
0.000300297
0.00701789
7.85266e-05
0.000696073
0.000108649
0.00128139
0.00962101
3.64241e-05
0.0285805
1.02769e-09
5.10262e-05
0.00237934
7.54118e-05
0.000338591
0.00346186
0.00118901
0.00237158
9.32652e-06
0.00181424
3.64713e-05
7.5787e-05
0.00226736
0.003296
0.0032909
0.301471
0.00173046
0.000952471
0.00223772
0.00295712
0.000284306
0.000247524
0.00373031
0.00215479
0.00308952
7.10654e-05
0.000905369
0.014003
0.00279018
0.111973
0.000866485
0.010133
0.0102808
0.0124227
0.00126139
3.18062e-05
8.0232e-05
9.51208e-05
0.000101439
5.0704e-09
0.000257483
0.0116754
3.48103e-11
3.36125e-09
0.0037497
2.30049e-05
3.23127e-05
0.014967
0.00192441
0.00290908
0.00190834
0.00227808
5.07028e-05
0.0015916
4.25796e-05
0.0242109
0.0134947
0.0101404
0.00191213
0.000139913
0.00158404
0.000293009
5.83025e-06
4.19603e-05
1.41429e-07
0.00168945
0.01106
0.00697974
0.00145661
0.00179173
0.00219807
0.00232518
0.00176685
0.000342284
0.00412478
8.41471e-06
4.07813e-05
7.60148e-09
5.03463e-05
0.00277211
6.74335e-05
0.000334348
0.00227643
5.32389e-05
9.98977e-05
7.14659e-06
3.15504e-06
0.053248
0.000486087
0.000676853
3.62822e-05
0.00284272
0.00221328
0.00185483
0.00343611
3.92674e-05
7.52658e-07
0.00105424
2.76152e-05
0.0194767
0.00321173
0.0242172
0.00159969
0.051228
0.00010489
0.00110644
0.000236379
4.18329e-08
0.00373455
7.60385e-05
0.00133677
0.000104077
0.00221768
0.0193563
0.00166059
0.00232917
0.00881282
0.00239381
0.010806
0.00358718
0.00163486
0.000933034
0.00502237
0.029636
0.000302549
5.02077e-10
0.063235
0.00892007
0.0064802
4.22998e-05
0.0650299
0.00193736
0.0150406
3.23669e-05
0.0172345
0.00325421
0.0013615
0.00237171
0.00235335
5.49379e-06
0.0403697
0.0144551
0.0145878
0.00303726
0.00232186
0.00159462
0.00321599
0.000923449
0.000103815
0.00160693
0.00303409
3.76046e-07
0.00013058
0.00169065
0.0360336
0.00308525
0.000347649
9.6638e-08
0.000406643
0.00169123
0.000456757
0.00151568
0.000732815
1.46374e-06
0.0141008
0.000252039
0.000667106
0.00205774
0.0012517
0.000127119
7.5124e-05
0.000176438
0.00205084
0.0028449
1.34966e-05
0.000108607
0.000671886
0.000103326
1.07437e-06
0.0167378
0.000217277
0.00329209
0.00152994
0.0015051
0.00211221
0.00694797
0.00422524
0.000588383
0.00398155
7.14865e-05
0.0022817
0.00435336
9.47734e-06
0.00747526
0.000392039
0.00296574
0.00187311
0.0997123
5.44905e-05
0.000193397
0.000518681
3.77578e-05
0.0013784
0.00287015
0.00019923
1.63252e-05
0.0013794
0.00540805
0.000584046
0.00287253
1.10491e-06
0.000465683
0.00953619
0.00241574
0.000141296
0.00214478
2.47951e-05
0.00419805
0.00338245
2.16828e-05
0.000292321
0.00352901
0.000101419
8.51702e-07
0.000344637
0.000199576
0.120438
6.9846e-06
0.000565466
0.00323573
0.00010571
0.011812
8.39694e-06
0.00274233
0.000121185
7.96179e-05
0.000523213
1.8602e-05
0.000206506
0.00295155
3.86302e-06
0.000108806
0.000122574
0.0185029
0.000602203
0.000357453
0.000357877
0.00217767
4.48201e-05
0.00311746
0.00452524
3.07173e-05
0.00036067
2.99749e-06
0.0011677
1.47634e-05
0.0124748
0.000291311
0.00152612
0.00218903
0.000127232
0.0843092
0.000378109
0.00306155
0.00110992
4.81226e-08
0.00236962
0.00498817
0.0267232
0.0112963
0.000410463
3.0803e-05
0.0376377
0.0399187
0.000563894
0.0179619
0.00842477
0.000393545
0.000129896
0.000636583
0.000341713
0.000317591
0.000460454
0.00436465
1.50921e-05
0.000163089
2.68855e-05
5.77869e-05
0.00604502
7.73217e-05
0.00247031
3.92064e-05
1.38795e-08
0.000192893
1.22006e-07
1.65328e-09
1.00173
0.000184404
0.0193909
0.00305256
1.10678e-05
0.00029709
0.0177054
0.00188671
1.99414e-05
0.00238243
0.00566854
3.70229e-08
5.41804e-06
0.000396688
1.69736e-05
0.00222982
0.000554772
0.00248412
0.00486878
5.81571e-06
6.98787e-05
0.0198021
0.00283674
0.00306371
0.000394485
0.00355708
9.62813e-05
9.41653e-05
0.00237101
0.00924343
0.0125636
0.0060357
0.000756372
0.000178234
0.0025227
0.0019053
0.00202139
0.0026717
0.000228974
0.000310637
0.00366976
0.00168999
0.0033305
0.0027093
0.000751744
0.00464488
1.08025e-09
1.47151e-09
0.0227622
1.1098e-05
0.0009064
0.00209588
0.00329978
0.0097937
0.00385233
8.8645e-05
0.00714463
0.00316
0.000125138
0.00326517
4.37773e-06
1.27106e-05
1.75405e-05
0.00361402
0.0129273
4.63593e-08
0.00604772
0.00159629
0.150739
0.000168362
0.00372762
3.06775e-05
0.0121121
1.1452e-05
8.49666e-05
2.58295e-05
0.0221511
1.20102e-05
0.0027506
0.00261156
0.00311645
0.00674529
0.00215663
0.00219985
0.0168401
0.00688387
5.47956e-05
3.78826e-05
0.0122997
0.000135996
4.45276e-05
0.00189941
0.00359481
0.0018891
2.10936e-05
0.000111765
0.00467481
0.00326487
0.00206793
2.79347e-05
0.0032004
0.00189953
0.000624951
7.5594e-05
2.52457e-06
0.00269625
0.0186393
0.00284561
0.00155387
0.00709348
0.000489161
0.0313709
0.00131738
0.00746493
0.000252136
1.04447e-05
0.00023655
2.75323e-05
0.000446796
5.95685e-06
2.7028e-08
0.003657
0.000153886
0.0372643
0.000767423
0.00786556
0.0021406
0.00739966
0.00331284
0.0149082
0.0174696
0.00141429
0.00975748
1.04764e-05
0.000373715
0.00130015
0.00182396
0.000218148
0.00404211
6.18167e-05
0.00307677
0.000101029
0.00264964
2.11024e-05
0.00265499
0.00133713
0.000427422
0.0266129
0.000161647
0.0013057
3.39636e-05
3.10932e-05
0.000138707
0.00541707
0.00245763
0.00202132
3.44143e-05
0.00159551
0.00312413
0.000252689
0.0157024
0.0132838
6.20413e-09
0.000208649
0.00174051
0.000100003
0.000287334
0.000471231
0.000449671
2.37598e-05
0.00320157
0.000451229
0.00531939
0.000526633
0.0011611
0.000540436
0.0083765
0.00525976
0.00883731
2.0685e-05
0.0543702
0.0219295
0.0969737
0.00186402
0.000145799
3.69854e-05
0.000292903
0.00674494
0.0101592
0.030003
0.0246706
9.19597e-06
1.55884e-05
0.0077877
0.00040278
0.0174414
0.301061
0.0175931
0.000346521
0.000448486
0.0159687
0.00162284
0.000243107
0.000725027
0.162723
1.3749
6.93992e-05
1.0573e-06
6.39308e-05
0.00486395
0.00104689
0.00185651
0.00269133
0.00197193
0.00439018
0.000880758
0.00222075
3.11007e-05
0.00255968
0.00263983
0.0025647
0.000443665
2.80465e-05
9.17736e-07
0.00470074
0.0145447
0.00403633
0.00249349
1.0879e-05
0.00159726
0.00132265
6.59815e-05
3.00468e-05
0.00879311
5.25247e-09
0.0313934
0.000106454
0.0488898
0.0149717
0.000246238
0.00495289
1.00341e-05
0.00235498
0.000137068
0.000871552
0.0840042
1.12523e-05
3.11025e-08
8.27873e-06
0.00388123
0.00341516
0.00151448
0.000991466
0.000976966
0.00126244
0.00104047
0.00182552
6.37907e-05
0.0680104
0.0265385
0.00284941
0.00150466
0.00287656
0.0669234
0.0120086
0.00408825
0.000286955
0.0072354
0.00267993
8.17801e-05
5.19258e-05
0.00481518
0.00681673
0.0171833
0.00520658
5.87148e-05
0.00455635
0.0373841
0.0244756
0.00323973
7.66034e-05
2.90497e-05
0.0397732