/*--------------------------------*- C++ -*----------------------------------*\
  =========                 |
  \\      /  F ield         | OpenFOAM: The Open Source CFD Toolbox
   \\    /   O peration     | Website:  https://openfoam.org
    \\  /    A nd           | Version:  10
     \\/     M anipulation  |
\*---------------------------------------------------------------------------*/
FoamFile
{
    format      ascii;
    class       surfaceScalarField;
    location    "0";
    object      phi;
}
// * * * * * * * * * * * * * * * * * * * * * * * * * * * * * * * * * * * * * //

dimensions      [0 3 -1 0 0 0 0];

internalField   nonuniform List<scalar> 
214403
(
-0.000149473
0.000113372
4.64422e-06
3.14566e-05
-5.21845e-05
-0.000254534
4.91112e-05
0.000257607
-0.000181664
-2.45766e-05
2.84099e-06
0.0002034
0.000163315
-0.000126919
-0.000404543
0.000368147
0.000248569
-0.000343291
0.000123039
-2.83168e-05
-0.000134044
0.000136055
2.08802e-06
-4.09912e-06
2.57067e-08
-2.77223e-05
-0.000250076
0.000277773
-0.00033202
0.000200385
-0.000101587
0.000233222
-0.000422498
0.000378092
0.000390113
-0.000345706
0.000315491
5.02055e-05
-0.000395216
2.95191e-05
0.000130667
-0.000244129
4.15904e-05
7.18718e-05
-0.000232647
3.17189e-05
0.000153069
4.78593e-05
-2.92573e-05
-0.000247402
0.000404197
-0.000127538
-0.000220042
0.0002406
-2.0558e-05
-7.93027e-07
0.000269806
-0.000295395
2.63819e-05
-0.000264751
0.000272949
5.84273e-05
-6.66251e-05
-0.000272075
0.00032935
-5.72746e-05
0.000100108
-7.6545e-06
-1.90364e-05
-7.34174e-05
0.000297575
-0.000210886
-0.000403415
0.000316726
1.23417e-05
-8.88907e-05
7.93556e-06
6.86135e-05
0.00015401
-0.000206485
5.24747e-05
-0.000263856
-0.000123212
4.67211e-06
0.000382395
-7.59869e-05
0.000300756
-0.000239034
1.42649e-05
0.00013711
4.47225e-05
5.24492e-05
-0.000234282
-0.000234459
-0.000133411
0.000360369
7.50116e-06
0.000218796
-0.000307159
-1.72453e-05
0.000105609
4.61586e-05
-3.61753e-05
0.000247075
-0.000257058
0.000129582
0.000247331
-0.000301534
-7.53789e-05
0.000232761
-0.000143872
-8.73491e-06
-8.01536e-05
-0.000150397
0.000142799
7.59777e-06
2.75688e-05
-0.000155117
0.000351478
-0.00022393
0.000295511
1.94927e-05
-6.20765e-05
-0.000252927
-0.000113598
-0.00015192
0.000130155
0.000135362
-3.24011e-07
-0.000191934
0.000135905
5.63535e-05
0.000113456
-5.71157e-05
-0.000203555
0.000147215
-5.16396e-05
0.00018895
-5.58891e-05
-8.14217e-05
0.000310139
-3.9764e-06
-0.000306163
-0.000163459
0.000374952
-0.000211493
2.51801e-05
-0.000320789
0.000166924
0.000128685
7.91866e-05
-6.24091e-05
0.000153824
-0.000170602
0.000166024
-1.11158e-05
-0.000154908
0.00026035
9.33871e-06
5.44334e-05
-0.000324123
-0.000207008
2.20963e-05
0.000264098
4.17408e-05
7.49151e-07
0.000219955
-0.000262445
-7.7088e-05
-0.000533523
0.000541169
6.94426e-05
0.000100502
6.69211e-05
2.7976e-05
-0.000195399
7.76903e-05
8.91807e-05
-0.000259804
9.29334e-05
0.000211569
0.000177387
-0.000251845
9.51447e-06
0.000305422
-5.45864e-05
7.6364e-05
-0.00015385
-0.000151896
0.000229382
0.000102139
0.000142223
-1.59886e-05
-0.000228373
3.69269e-05
-5.43095e-05
-8.7913e-05
0.000105296
0.000119756
-0.000224726
0.000207109
0.0002462
-0.000279089
-5.79091e-05
9.0799e-05
0.000255075
-5.89543e-05
-0.000208206
0.00024769
2.83659e-07
-3.97676e-05
0.000210206
-0.000250185
2.06347e-05
1.93439e-05
-0.000212684
2.90514e-06
0.000313503
-0.000103725
-0.000367454
-0.000285024
0.000222498
0.000429979
-0.000183147
0.000199364
4.6557e-05
-6.27732e-05
4.0335e-05
-0.000285891
-0.000173953
-6.82119e-06
8.90348e-05
9.1739e-05
-0.000389619
0.000211798
0.000213221
-3.54005e-05
0.000341315
-0.000275215
4.0333e-05
-0.000106433
1.20238e-05
-1.34995e-05
-0.000236646
0.000238121
1.75117e-05
-3.44185e-05
0.000360214
-0.000343307
-0.000683645
-1.96813e-05
4.03996e-05
0.000662927
-0.000116897
0.000235348
-2.75194e-05
-9.09313e-05
9.52615e-05
-7.7298e-05
-0.000246828
0.000228865
3.46387e-05
0.000181214
-0.000237485
2.16325e-05
-3.34454e-05
0.000203346
9.1053e-05
-0.000260954
-5.41617e-05
3.42919e-05
-0.000101697
0.000121567
-0.000189985
0.000215707
-2.57562e-05
3.44132e-08
-1.02757e-05
-0.000284083
-0.000153194
9.10387e-05
6.16935e-05
4.61997e-07
-0.000392742
-6.03394e-05
0.00024722
0.000205861
-0.000150809
-5.66241e-05
0.000113341
9.40923e-05
0.000210314
-0.00045384
1.39292e-05
0.000229597
-0.00010874
0.000183243
-7.77943e-05
3.29053e-06
0.000165577
-0.000134299
-8.36141e-06
-2.29168e-05
-3.74643e-05
-0.000219056
0.00025652
-4.18998e-05
0.000229099
-0.000187199
0.000185323
-9.96606e-06
3.63794e-05
-0.000211736
-0.000151511
0.000164942
6.96439e-05
-8.30748e-05
-0.000136989
0.000372686
-6.92908e-05
-0.000166406
0.000190306
-0.000274846
-3.27815e-05
0.000117322
0.000199298
0.00017073
-0.000370028
0.000227864
-0.000295266
7.8523e-05
-1.11211e-05
3.18225e-05
-6.24309e-05
0.000289484
-0.000258876
4.78055e-06
-8.43856e-05
0.000247081
-0.000167476
4.3715e-05
0.000448914
1.97172e-05
-0.000512347
-0.000465923
0.000327689
0.00032761
-0.000189376
1.17542e-05
0.000137496
-0.000223637
7.43865e-05
0.000213581
0.000233033
-0.000108125
-0.000338489
0.000345565
-0.000195725
2.26635e-05
-0.000172504
5.34322e-06
-1.9907e-05
-0.000178835
0.000193399
-0.000158276
-1.99356e-05
0.000178212
0.000215948
8.62075e-07
1.10533e-05
0.000357934
3.53594e-06
-0.000469061
0.000107591
-0.000293786
9.22601e-05
7.43357e-05
0.00012719
-0.000144519
1.12767e-05
2.48006e-05
0.000108441
4.05977e-05
3.63735e-06
-0.000262111
0.000217876
-6.63452e-05
-0.000310059
0.000181659
0.000194746
0.00016783
-0.000169447
-9.45648e-05
9.61811e-05
0.000257432
-3.70048e-05
-0.000219684
-7.43416e-07
0.000142977
-0.000235107
-5.17147e-05
0.000143845
0.000432448
-0.000102848
-3.25122e-05
-0.000297088
0.000205865
2.41623e-05
-0.000265727
3.56992e-05
-0.000124942
0.000129309
0.000394849
-0.000399216
0.00029125
-5.08828e-05
-0.000357845
0.000117479
3.27281e-05
-6.21564e-05
0.000403117
-0.000373689
-0.000302272
0.000237869
0.000305269
-0.000240866
-5.07125e-06
-0.000301506
0.000129874
0.000176703
0.000382283
-6.93932e-05
-5.27897e-07
-0.000312362
0.000272077
-0.000104066
7.58846e-05
-0.000243896
-0.000324599
-0.000293015
0.000370432
0.000247181
-0.000102921
0.000197405
2.62316e-05
-0.000120715
-8.18659e-05
-2.65942e-05
0.000235316
-0.000126856
2.55818e-05
0.000288755
-0.000356945
4.26074e-05
-0.000284764
0.000212125
8.73928e-05
-1.4754e-05
-3.59192e-05
-0.000176267
0.000430982
8.2932e-05
-0.000237403
-0.000140527
0.000294998
-0.000116798
1.10939e-05
0.000105704
-1.0036e-06
0.000223693
-0.000153939
-6.87508e-05
0.000290166
-0.000145261
-6.09099e-05
-8.39955e-05
7.83659e-06
-0.000101765
9.39282e-05
-0.000156487
-8.06632e-05
3.80552e-05
0.000199095
1.74505e-05
0.000111369
-0.000259766
0.000130947
0.000343638
-5.3243e-05
8.70386e-05
-0.000377433
5.38384e-05
-5.91416e-06
-0.000444112
0.000396188
6.32739e-05
-0.000139995
-0.000179055
0.000255776
1.20004e-06
0.000246918
-3.21707e-05
-5.88406e-06
-0.000143799
0.000149683
0.000284801
-7.77105e-05
-0.000124159
-0.000173735
0.000141737
-0.000124489
0.000300243
-0.000291563
-6.22512e-06
-2.45476e-06
4.07512e-05
-0.000184918
0.000109722
3.44451e-05
-0.000257043
-9.92124e-05
3.74361e-05
0.00031882
0.000139199
-0.000297101
0.000270954
-0.000113052
-4.83872e-05
0.000253065
-0.00029888
9.42018e-05
-1.14369e-05
0.000348771
-0.000328201
-9.13299e-06
-0.000341979
0.000295391
-0.000247134
0.000293722
0.00034423
-0.000306041
-3.81887e-05
-0.00037014
0.000405465
-0.000105761
7.04359e-05
-0.000290911
0.00011383
-2.16598e-05
0.000198741
-0.000359843
3.44206e-05
0.000189495
0.000135927
0.000119722
-0.000122131
4.31611e-05
-8.83747e-05
0.000142211
0.000135271
-0.000189108
-0.000143687
-3.30838e-05
6.43656e-05
0.000112405
-0.000131663
0.00010828
-0.000251167
0.00027455
3.22814e-06
3.8599e-06
-0.000377228
-0.000169727
0.000209215
-3.94877e-05
0.000314948
-0.000268511
-4.64373e-05
-0.000264448
-1.12362e-05
-6.66573e-06
5.16879e-05
-0.000258879
0.000355897
-0.000148706
0.000197709
0.000261494
-0.000396923
-6.22805e-05
0.000331338
-0.000282762
-5.10504e-05
2.4745e-06
0.000158683
6.77713e-05
-0.000164413
-6.20408e-05
-0.000269391
-4.79535e-05
0.000369033
0.000146304
-1.13218e-05
-0.00017827
4.32876e-05
0.000182305
-0.000108708
0.000144821
-0.000218418
-0.00028187
8.38807e-05
0.000395699
-0.00014127
-0.000135566
0.000448009
-0.000171172
-0.000122221
-0.000187736
4.05649e-05
3.34522e-05
0.000104218
-0.00025989
-0.000248811
-5.80025e-05
0.000376734
-6.99202e-05
2.71387e-05
8.47042e-05
0.000159774
-0.000271617
-0.000120939
0.000305451
-0.000184511
4.23995e-05
-0.000373596
0.000143461
0.000224346
0.000146216
-0.00033711
-0.000232879
-3.77844e-05
0.000301226
-3.05618e-05
3.91172e-05
2.88547e-05
0.000135783
-0.000203755
0.00023394
-0.000248162
1.42222e-05
0.000113061
1.37022e-05
0.000179033
-0.000305796
0.00026886
-6.98064e-05
5.85463e-05
-0.0002576
0.000237995
-7.18135e-05
0.000391292
-0.000557474
7.17589e-05
0.000158708
-6.02432e-05
-0.000170223
-0.000200748
8.47824e-05
0.000100949
1.50167e-05
0.00021127
-0.000132986
-1.3394e-05
-6.48896e-05
-8.48398e-05
-0.000106668
0.000316221
-0.000124714
-0.00017129
0.000225637
7.12019e-05
-0.000125549
0.000279436
8.2269e-06
-0.000105358
-0.000381134
0.000274731
-2.52599e-05
-0.000477655
0.000387893
0.000197304
-0.000107542
0.000323509
-0.000317144
-4.47018e-05
3.83373e-05
6.99225e-05
-0.000162718
-0.000123727
-0.000170171
-0.00011697
0.000115074
0.000172067
-0.00024564
6.12465e-05
0.0002249
-4.05065e-05
0.000222753
-0.000171511
-0.000188645
0.000137403
-1.3583e-05
2.17646e-05
-0.000234616
0.000226434
6.62698e-06
-0.000207344
-2.63215e-05
0.000227038
-7.65042e-05
-0.000295533
7.11371e-05
-0.000214838
0.000174316
-3.06151e-05
-0.000133969
-7.41878e-05
-3.74834e-05
2.57439e-05
0.000357383
-6.76354e-05
-0.000637383
0.00049484
0.000367579
-0.000225036
-0.000261416
2.92668e-05
8.02859e-06
0.00022412
-0.000155626
0.000797267
-0.000733966
9.23252e-05
4.94573e-05
5.48132e-05
-0.000142434
3.81632e-05
-0.000524919
0.000281264
6.00546e-05
0.000183601
1.95299e-06
-0.000294919
-5.63085e-05
0.000349274
-0.000150173
0.000566657
-0.000374627
-4.18571e-05
0.000257062
0.00034117
-0.000270282
-0.00032795
-0.000255958
0.000198298
0.000350578
-0.000292918
0.000112472
0.000149414
-0.00020435
-5.75359e-05
0.00010522
-7.63741e-05
-0.000162815
-0.000567713
8.83167e-05
0.000363521
0.000115875
0.000177203
2.37086e-05
-0.000116129
0.000149319
0.000194428
-0.000171009
-0.000172737
-0.00026731
7.5169e-05
0.000296161
-0.00010402
3.66644e-05
7.85768e-05
0.000290223
-0.000275594
0.000283813
-2.0899e-05
1.26801e-05
0.000184994
0.000141592
-0.000132646
-1.64778e-05
-2.77765e-05
0.0001769
-0.000160875
-5.34746e-05
0.000135169
-0.000437877
0.00021486
8.78479e-05
-1.95893e-06
0.000226643
-0.000198921
-2.57623e-05
-6.9828e-05
8.8948e-06
-5.83646e-05
0.000119298
0.000232626
-0.000179634
5.22282e-05
-0.000167138
-0.000151321
0.000157006
0.000161453
0.000528331
-0.000603696
0.000279037
-0.000203672
-0.000126993
0.000194553
5.28368e-05
-0.000120396
-0.000313572
0.000207653
0.000251043
-0.000145124
-4.68725e-05
9.91896e-05
0.000261058
-0.000313375
0.000345818
-0.000180099
-0.000183708
1.79891e-05
-6.0589e-06
-8.85959e-05
0.000261761
-0.000167107
-2.87081e-05
9.87158e-05
-0.000302887
0.000218284
0.00013967
-0.000309807
-4.81473e-05
0.000372044
-0.000328494
-9.15038e-05
6.30784e-05
0.000110267
-0.000260682
8.73363e-05
-0.000151517
-0.000236303
0.000205012
0.000182807
-4.6061e-05
-0.000116511
-4.56624e-06
0.000121086
-0.000202486
0.000325232
-0.000243832
3.49018e-05
-0.000382662
0.00034776
9.46473e-05
-0.000172435
0.000140866
8.73007e-05
3.90293e-05
7.28407e-05
-0.000199171
1.76018e-05
-0.000342469
0.000324867
-0.000176848
2.78268e-05
-2.88869e-05
0.000177909
4.94257e-05
0.000257966
-0.000296767
-1.06252e-05
-0.000156626
-9.47144e-05
9.19403e-05
0.0001594
-4.53596e-05
-0.000157328
-0.000155669
-0.00019483
0.000146163
0.000204336
3.03264e-05
-0.000231355
0.00030887
-0.000185839
1.43683e-05
-0.000137399
0.000279392
-3.73966e-05
-0.000207989
-3.40066e-05
3.36918e-05
0.000246415
-0.000379736
9.96286e-05
0.000173215
7.55766e-06
0.000107881
-0.000288654
-2.42625e-05
-0.000133424
6.19733e-05
9.5713e-05
-0.000120105
0.000149377
0.000238707
-0.000267978
-0.000267372
-6.73849e-05
-0.000116332
0.000278364
-0.000338387
2.9199e-05
0.000117148
0.00019204
4.55603e-05
-7.01347e-05
-0.000211236
0.000235811
-0.00013995
-0.000242954
5.92221e-05
0.000323682
-0.000115254
-0.000161402
0.000147878
0.000128778
-0.000309494
0.000327549
0.000284885
-0.000302939
-3.26212e-05
-6.23144e-05
-0.000201419
0.000296354
-0.00032316
1.92969e-05
0.000352293
-4.84304e-05
-6.76237e-05
0.000151197
-8.35734e-05
-0.000152369
0.000263824
-0.000185524
7.40692e-05
2.30345e-05
0.000421547
-0.000160766
-0.000283816
-0.000136686
-0.000164602
0.00032625
-2.49622e-05
4.83335e-05
-0.00010491
0.000329229
-0.000272652
2.58518e-06
0.000201056
-2.89766e-05
2.88258e-05
-0.000299789
0.000298825
-2.78623e-05
0.000373353
-0.000130178
-0.000432628
0.000189453
-0.000308255
-5.6459e-06
0.00032686
-1.29589e-05
-0.0001997
0.000268378
4.1149e-05
-0.000109827
0.000203713
-0.000222605
1.88916e-05
-0.000234339
6.22408e-05
-0.000140912
0.00031301
-0.000285629
0.00035619
-2.9204e-05
-4.13569e-05
0.00017679
-7.64194e-05
-0.000175415
7.5044e-05
-0.000292175
0.00027161
2.05655e-05
0.000256736
-0.000358408
1.86325e-05
8.3039e-05
-0.000302016
-7.60494e-05
0.000508921
-0.000130856
0.000216873
2.92293e-06
-3.24982e-05
-0.000187297
-0.000160363
-0.000189662
0.00047111
-7.00101e-05
-0.000346228
0.000213752
0.000428979
-0.000547779
4.50429e-05
7.37572e-05
0.000180136
5.08017e-05
-0.000191821
-0.00021369
0.00020578
7.90994e-06
-5.31186e-05
0.000280147
-1.5019e-05
-0.000212009
-4.89683e-05
4.50746e-05
0.000261026
-0.000257133
0.000173214
0.000434434
-0.000282075
-0.000325573
0.000271407
-0.000311119
0.000103078
-6.33662e-05
0.000290139
-3.75253e-05
-0.000252614
-1.1134e-05
0.000252575
-0.000241441
0.000369386
-0.000370265
0.000257616
-8.29494e-06
-1.53145e-05
0.00028167
-0.000258061
-7.17013e-05
0.000420044
-0.000347294
-1.04888e-06
-4.82511e-05
-0.000124619
-0.000220463
0.000393333
-0.00013777
-4.3847e-05
-1.77557e-05
0.000226787
-0.000371305
0.000162273
-0.000222821
-3.89753e-05
0.000225987
3.58096e-05
-0.000315631
0.000299867
-0.00010043
0.000116194
1.78711e-05
0.000168601
-6.05024e-05
-0.00012597
-8.37994e-05
2.47421e-05
0.000137948
-7.88904e-05
9.49196e-06
7.25638e-05
-0.000115839
3.37837e-05
-9.36324e-05
0.000288175
-0.000217517
2.29751e-05
5.88265e-05
-0.000204545
-0.000146456
-4.40965e-05
-0.000231998
0.000276095
-0.000108638
-9.13157e-05
5.97961e-05
0.000140157
0.000124741
-9.99839e-05
-2.47575e-05
0.000249079
-0.000277753
-6.14742e-05
9.01485e-05
-3.27454e-05
-0.000259377
0.000208082
8.40403e-05
4.95035e-05
-5.45173e-05
0.000221581
-0.000216567
0.00013687
-7.07043e-05
-0.000297616
0.00023145
0.000197979
-9.7427e-06
-0.000188236
-0.000266603
-0.000197065
0.000255112
0.000208557
0.000164538
0.000225089
-0.000459637
0.00017036
-6.1217e-05
0.000133586
-0.00024273
-1.06318e-05
8.61925e-05
-0.000395915
0.000320354
7.95457e-05
-0.000249677
-0.00016363
0.000333762
-9.69308e-06
-4.74561e-05
0.000238742
-0.000181593
0.000158473
-0.000239062
8.27421e-05
-2.15313e-06
7.29892e-05
-0.000120067
-0.000124771
0.000171849
-0.000284103
0.000308211
-9.04778e-05
6.63703e-05
0.000241597
0.000357677
-0.000330642
-0.000268632
-0.000224353
0.000231062
-6.70943e-06
-9.82636e-06
0.000316503
-0.000446177
0.000139501
2.27463e-05
-3.34063e-05
-0.000284975
0.000295635
0.000312413
-1.17383e-05
-0.000273837
-2.68376e-05
-0.000106184
-0.00018786
0.000195343
9.8701e-05
-0.000224222
0.000283433
-0.000112569
5.33577e-05
-0.000101919
-0.00019189
5.64056e-05
-1.51521e-05
4.10036e-06
-0.000177827
0.000188879
-0.000506942
-1.2551e-05
5.41517e-05
0.000465341
-4.03876e-05
-0.000156305
-8.25378e-05
0.000279231
0.000377883
-6.54358e-05
-0.000146206
-0.000166241
-0.000110483
-0.000144346
3.03611e-05
0.000224468
0.000102167
-1.74586e-05
-8.47089e-05
0.000201586
9.73757e-05
-9.62968e-05
-0.000202664
0.00012002
-0.000215197
0.000312085
-0.000216909
9.95246e-06
0.000278156
-0.00010914
-0.000178968
8.73751e-05
8.09718e-05
0.000209535
-0.000143858
5.84952e-05
8.53631e-05
-0.000202017
1.94349e-05
1.27577e-05
5.88165e-05
-0.000245373
0.000173799
-0.000230703
0.000285288
5.22958e-05
0.000394555
-9.50391e-05
-0.000351812
-0.000219486
0.00020095
-0.000257752
0.000276287
-1.14723e-05
-0.000191052
3.69739e-05
0.000165551
-0.000169572
0.000368869
0.000111386
-0.000108988
9.16745e-07
-3.31484e-06
-7.71455e-05
-0.000406426
0.000141423
0.000342149
0.000258183
-0.000237691
-5.15638e-05
3.10721e-05
0.000152282
-0.000208941
5.64075e-05
2.51706e-07
2.15029e-05
0.000144388
-0.000268238
0.000102347
-1.74411e-06
0.000167109
-0.000165365
7.59932e-05
-0.000315439
0.000260948
-0.00018946
0.000325424
0.000229782
-0.000365746
1.42908e-05
-8.46758e-05
-0.000306683
0.000377068
-8.76977e-05
0.000143766
-0.000361005
0.000304937
-0.000224429
0.000228912
0.000241694
-0.000246177
-0.000170721
0.000258118
-0.000149551
6.21553e-05
-4.13898e-05
0.000143325
3.85605e-05
-0.000140496
8.21966e-05
-0.000181212
0.000148222
-4.92067e-05
0.000155015
8.18403e-05
5.90622e-06
-0.000242761
0.000339624
-0.000287108
1.94222e-05
-7.19379e-05
-1.04375e-05
-0.000229067
0.000239504
0.000120858
-0.00024304
-0.000405265
0.000527447
-5.9811e-06
-0.000382241
-1.31502e-05
0.000401372
-3.2529e-05
-0.000111138
0.000143667
4.73517e-05
0.000203874
-5.00926e-05
-0.000201133
-3.15465e-05
-0.000222016
0.000174252
7.93103e-05
9.86284e-05
-0.000101355
-0.000171226
0.000413253
-0.000343242
9.14439e-05
9.01506e-05
-0.000181595
0.000333228
-9.27799e-06
-5.25815e-05
-0.000271369
-8.83028e-05
-0.000110887
0.00019919
8.83728e-05
8.65502e-05
0.000498889
-0.000721243
-0.000245332
0.000467686
0.000120316
0.000156438
-0.000162255
-0.000114499
-0.000134704
0.00036206
0.000251364
-0.00047872
0.000210855
3.91441e-05
-4.18664e-05
-0.000208133
0.000398992
-0.000204563
0.000128905
-0.000323334
-0.000275418
0.000117863
-0.000240857
0.000398412
-0.000296962
0.000630081
-0.000200549
-0.00013257
3.87568e-06
-0.000153928
-0.000142501
0.000292554
0.00026401
0.000108519
-0.000309981
-6.25478e-05
0.000187605
-0.000399551
0.000213489
-1.54311e-06
-0.000332831
-4.93426e-05
0.000256981
0.000125192
-1.41467e-05
0.000194529
8.82906e-05
-0.000268673
-5.60151e-05
0.000214266
0.000117955
-0.000276206
-0.000486072
0.000242776
-1.78682e-05
0.000261164
4.38725e-05
-0.000105603
0.000187301
-0.000125571
0.000178257
-8.68823e-05
6.87172e-05
-0.000160092
0.000185682
3.40784e-05
4.03078e-05
-0.000260068
-0.000241402
0.000257486
0.000109956
-0.00012604
-3.75257e-05
0.000250408
6.71618e-06
-0.000219599
0.00026563
-0.000141031
-9.70872e-05
-2.75118e-05
0.000214971
1.11953e-05
-0.000226167
0.000127663
0.000117256
-3.65438e-05
-0.000208375
0.000121848
0.000151045
5.50595e-05
-0.000327953
-3.97348e-05
-0.000321812
0.000361547
-0.000127406
0.000477477
-4.00858e-05
-0.000309985
7.38783e-05
0.00020165
-0.000275528
-2.06922e-05
-0.000194936
6.13908e-05
0.000154238
-0.000368579
0.000208482
0.000105022
5.50746e-05
9.01468e-05
5.61802e-05
-0.000380254
0.000233927
0.00022559
0.000209016
-0.000107162
-0.000327444
0.000322342
-0.000109636
-0.000301216
8.85106e-05
-0.000288426
0.0003111
0.000429961
-0.000452635
-4.54256e-05
0.000156453
-0.000126109
1.50819e-05
-0.000159216
0.000134377
2.48392e-05
-0.000370051
1.51031e-05
0.00022024
3.44954e-05
0.000132605
0.000235004
-0.000402104
0.000205552
-0.000199655
9.29687e-05
-9.88655e-05
-0.000209638
0.000207883
-5.39499e-06
7.14995e-06
-7.50626e-06
-0.000332813
0.000345302
-4.98212e-06
-0.000115965
0.00011168
0.000149062
-0.000144777
0.000233307
-6.10897e-05
3.00228e-05
-0.00020224
-0.000174879
-8.42965e-06
0.000203031
-1.97217e-05
-6.04464e-05
2.71089e-05
0.000281829
-0.000248492
-1.68071e-06
6.01205e-06
0.000228943
-0.000233275
-0.000177185
0.000251072
-0.000326976
0.00025309
3.23271e-05
-0.00030734
0.000275012
-8.59294e-05
2.90821e-05
0.000224336
-0.000167489
-0.00016252
0.00018004
-0.000247298
0.000229778
-0.000225057
1.76907e-05
6.6839e-05
-7.81498e-05
0.000236452
1.72614e-05
-0.000175564
-7.01971e-05
1.37748e-05
-0.000117313
-9.97506e-05
-0.000284618
0.000309569
7.47998e-05
-0.000130754
-7.08133e-05
-6.69119e-05
0.000268479
-0.000570401
0.000236129
9.06563e-05
0.000243616
-0.000173947
0.000397633
-0.000197319
-2.63668e-05
0.000150952
1.70957e-05
-0.000238244
0.00021558
0.000219241
-0.000434821
0.000145355
0.000377916
-7.5396e-05
-0.000447875
-2.74999e-05
-4.70986e-05
-0.000186651
0.000261249
-0.000202042
0.00045315
-0.000190097
-6.10112e-05
0.000197154
-0.000107756
-0.000193083
0.000103685
5.14394e-05
2.20705e-06
6.35657e-05
0.000352189
8.5713e-05
-0.000448292
1.03897e-05
-0.000276956
-2.96168e-05
0.000100413
0.00020616
8.19244e-05
-0.000117802
-0.000156012
0.00044927
-0.000298265
0.000205407
-0.000356413
-6.02639e-05
0.000194749
-0.00045401
0.000319525
0.000168758
-0.000178731
-3.24407e-05
4.24144e-05
-0.000160237
-5.79193e-05
-6.24342e-05
0.00028059
-0.000160878
-9.74073e-05
0.000258285
-4.31647e-06
-0.000322311
0.000293512
3.31147e-05
0.000111178
-0.000107377
-0.00016468
-0.000294988
0.000454069
-6.47242e-05
-9.43569e-05
0.00033775
4.80161e-05
-0.00027833
-0.000107436
-0.000215507
-0.00031138
-2.47282e-05
0.000551616
0.000143504
-5.49906e-05
0.000232922
-0.000321436
-0.000192679
1.54935e-05
-0.000279976
0.000182568
1.4593e-05
-0.000282718
7.98203e-05
0.000188305
0.000117403
-0.00036173
0.000191133
5.31937e-05
4.22974e-05
-2.56606e-05
-0.000280823
0.000264186
5.79503e-05
0.000164546
-1.14244e-05
0.000220278
-1.89258e-05
-0.000189927
-8.65867e-05
-3.88892e-05
-7.58042e-05
0.00020128
-7.72396e-05
-8.36407e-05
0.000185761
-2.48808e-05
-0.000236877
2.41818e-06
-0.000361176
0.000130327
0.000174833
0.000506061
1.79968e-05
0.00015698
-0.000681038
-0.000252559
0.000488768
2.65658e-05
-0.000262775
-0.000136917
6.82527e-05
0.000239722
-0.000171058
4.44303e-05
7.97455e-05
-9.18917e-05
-3.2284e-05
-0.000448517
-2.67244e-05
0.000352938
0.000122304
-3.46163e-05
0.000196241
-6.29961e-05
1.28005e-05
5.57708e-05
-0.000265563
0.000196991
-0.000198429
1.96998e-06
5.83609e-05
0.000138098
-0.000297714
0.000335383
-7.22856e-05
0.00012379
-0.000125861
2.07097e-06
-0.000248212
8.82698e-05
-0.000182799
0.000342741
-7.08952e-05
0.000135691
-0.000115885
5.10888e-05
-0.000237804
0.000232545
-9.7808e-05
0.000103067
9.12703e-05
-3.18183e-05
-0.000178305
0.000118852
-6.32015e-05
0.00039641
-0.00055743
-0.000117041
-6.52155e-05
5.02126e-05
0.000132044
0.000243836
-0.000334512
-7.82162e-05
0.000168893
-0.000118751
0.000105157
0.000172162
-0.000158567
-4.6272e-05
0.00018433
-4.72769e-05
-9.07813e-05
-0.00020837
2.61094e-05
5.36366e-05
0.000128624
-0.000125799
2.57865e-05
0.000100013
0.000194542
-8.33312e-05
-0.000127691
1.64805e-05
2.94032e-06
0.000145301
-0.000202175
5.39332e-05
-0.000117765
-0.000173443
0.00014176
0.000149448
-8.07481e-05
0.000207584
-0.000189308
6.24723e-05
7.06085e-05
-0.000128047
8.24534e-05
-2.5015e-05
0.000218857
2.15873e-05
-0.000240444
0.000179244
-0.000263238
0.000153868
-6.98742e-05
-0.00031594
-5.63971e-06
0.00032158
0.000139144
-9.70168e-05
3.97916e-05
-8.19185e-05
1.16575e-05
0.000236255
-0.00030788
5.99673e-05
-8.51143e-05
9.14325e-05
6.42903e-05
-0.000153851
0.000325203
0.00011208
-0.000212937
0.000218663
-5.7262e-06
2.30999e-05
-0.000388822
0.000365722
0.000399079
3.46402e-05
-1.6621e-05
-0.000417099
7.6382e-05
-0.000337034
-7.06558e-05
0.000331307
7.95892e-05
0.000122245
2.45791e-05
-0.000226414
-0.000123038
-0.000115002
-2.67135e-05
0.000264754
-6.75325e-05
8.26816e-05
-0.000138188
-0.00025769
1.24283e-05
0.000392324
-0.000147063
-0.000516304
0.000401583
0.000158704
-4.39831e-05
0.000235195
-3.37683e-06
-0.000231818
-0.000123575
-0.000175511
0.000115235
0.000183851
-0.000116141
-0.000209169
6.76192e-05
-0.00022567
0.000107272
0.000176348
0.000107178
-0.000137796
-0.000209686
0.000240304
-0.000118475
1.46282e-05
0.000103847
-0.000341185
0.000134576
0.000143427
6.31827e-05
9.02508e-05
-0.000241626
-7.42944e-05
0.000308539
-5.11021e-05
-4.64645e-05
-0.000210972
-0.000182334
0.000394279
0.000170581
-0.000382527
-4.46674e-05
-0.000112897
4.99678e-05
0.000107597
-6.5632e-05
-8.59068e-05
0.000151539
-9.75657e-05
-0.000280286
-0.000138453
6.85646e-05
8.40142e-06
0.000136549
-0.000213514
0.000277662
-0.000229964
-0.000285395
0.000237697
-0.000107758
6.77796e-05
0.000183956
-0.000143977
0.000194567
-0.000132765
-3.4761e-05
-2.70413e-05
-0.000229204
4.45694e-05
0.000189755
-5.12025e-06
-0.000122943
0.000269795
-0.000286685
9.80747e-05
5.94486e-06
0.000182665
0.000441654
-0.00027955
-0.000257679
9.55749e-05
-0.000242277
5.15389e-05
0.000468399
-0.000261561
-0.000161095
0.000263944
0.000158713
-4.04593e-05
0.000176479
-6.97474e-05
-6.62722e-05
1.277e-05
-0.000101385
-0.000127899
0.000216513
0.000264297
-0.000183412
1.79974e-05
-9.88816e-05
4.7914e-05
9.77151e-05
-0.000213162
-3.59463e-05
6.22583e-05
0.000176312
-0.000202624
-8.25452e-05
0.000311692
-0.000331926
0.000102779
-0.000187174
6.32713e-05
3.23218e-05
9.15811e-05
-0.000362364
0.000378413
-1.60489e-05
0.000287125
-0.000292743
5.6178e-06
7.79961e-05
-0.000404892
-0.000133724
0.00046062
6.93085e-05
0.000170004
6.92262e-05
-7.40074e-06
0.000163253
-0.000155852
0.0002443
0.000210642
-0.000454942
-0.00020451
0.000103757
8.56551e-05
1.50982e-05
-0.000145992
4.46119e-05
0.000129404
-2.80241e-05
-0.000427053
0.000189326
0.000226326
1.14014e-05
-8.63418e-05
-0.000144464
0.000112331
0.000236711
-1.45825e-05
-0.000184077
-3.80517e-05
-0.000198493
0.000208182
-0.000132632
3.08341e-05
-0.000244586
-3.66189e-05
0.000250371
-8.86766e-06
-0.000128879
0.000137747
0.000568426
4.08313e-05
0.000197705
-0.000806962
-3.33845e-05
-6.13134e-05
-0.000367414
0.000462111
9.88333e-05
-0.000134365
-8.59521e-05
0.000121483
7.61878e-05
0.000246827
-8.12468e-05
-0.000241768
0.00026254
-0.000306174
6.12898e-05
-1.76558e-05
-0.000202359
-0.000147027
0.00026607
8.33161e-05
0.000128183
6.0906e-05
-0.000228182
3.90929e-05
7.00739e-05
0.000131553
-0.000232835
3.12083e-05
-0.000281926
5.71389e-05
0.000241917
-1.71299e-05
0.000221749
0.000132701
-0.000261928
-9.2522e-05
3.34e-05
-0.000165686
4.46118e-06
-8.23682e-05
0.000340447
-0.000164158
-3.63312e-06
-1.24524e-05
0.000180244
-0.000330743
3.61053e-05
0.000294638
0.000404449
0.000137802
-9.31063e-05
-0.000449145
-0.000202651
-4.08642e-05
0.000276915
-6.23907e-06
-4.81731e-05
-0.00012927
0.000183682
-3.20917e-05
-2.65154e-05
-6.86848e-05
0.000127292
6.40282e-05
-0.00033339
0.000252392
1.69701e-05
0.000213593
-6.37968e-05
-0.000219119
6.93227e-05
-0.000219617
1.82156e-05
-7.95345e-06
0.000209355
-5.94871e-05
4.56485e-05
-0.000132302
0.000146141
7.19423e-05
5.848e-05
-0.000306872
0.00017645
-6.08928e-06
-0.00026625
4.8405e-05
0.000223935
0.000211167
9.08897e-05
-2.20316e-05
-0.000280025
-0.000285428
8.33652e-05
0.000242661
-0.000126889
-0.000249074
0.000375963
0.00031509
-0.000177807
4.92597e-05
-0.000186542
-1.58349e-05
0.000246989
-0.00013232
-0.00037555
0.000145702
6.45177e-05
0.00016533
0.00039456
-0.000411124
1.65644e-05
-0.00021713
-8.53483e-05
0.000139536
0.000162942
-0.000280802
-0.000181247
0.000161771
0.000300279
0.000278632
-0.000284197
-4.93375e-05
5.49022e-05
-1.49072e-05
0.000152822
-0.000123064
-1.48511e-05
-0.000435657
0.000124951
0.000113684
0.000197021
-0.000563781
0.000603027
0.000114325
-0.000153571
0.00023897
-0.000574561
2.96207e-05
0.00030597
-0.000127472
0.000205236
-0.000444471
0.000366707
-0.000203023
0.000415524
9.7602e-05
-0.000310104
1.40609e-05
0.000247881
-6.73818e-05
-0.00019456
0.000282604
-0.000174189
-3.047e-05
-7.79453e-05
-6.70754e-05
-7.08952e-05
0.000102341
3.56294e-05
-0.000102336
-0.0004065
0.000313845
0.00019499
-0.000177216
0.000274547
0.000185272
0.000204131
-0.000164865
-0.000134099
9.48329e-05
8.96625e-05
-9.52116e-05
-4.67471e-05
5.22962e-05
0.00014796
-0.00013093
-0.000193069
0.000176039
-5.95433e-05
0.000178429
1.82999e-05
-0.000137186
-0.000223987
-6.4252e-05
0.0003023
-0.000191952
-4.40202e-05
0.000255772
-1.97996e-05
7.97448e-05
-0.000174307
9.45627e-05
9.64829e-05
-9.51808e-05
0.000329609
-0.000330911
0.000274308
-0.000354038
7.29825e-05
6.74752e-06
0.000182592
-0.000170385
-1.22067e-05
-0.000217307
4.00893e-05
0.000234257
-8.8088e-05
-0.000224164
7.79948e-05
0.000131635
1.68186e-05
0.000185096
-0.000333549
0.000174926
-0.000191561
1.66351e-05
1.61133e-06
0.000182319
-0.000204098
2.0168e-05
-0.000273938
-3.84696e-05
0.00040889
-0.000121342
-1.99628e-05
3.5155e-05
0.00010615
2.24555e-05
-0.000152949
9.87348e-05
3.17586e-05
0.000223014
-0.000171763
-6.61581e-05
1.17958e-05
0.000349572
-0.000225728
-0.00013564
-0.000114614
0.000257908
-0.000143293
-0.000296856
0.000158811
-0.000116267
0.000254312
0.000209803
-0.000231862
-0.000413598
-0.000217067
-0.000118665
0.000542785
-0.000207053
-0.000382036
0.000254194
0.000324962
-0.000197119
-3.55142e-05
-0.000293726
0.00032924
0.000517277
-1.37666e-05
-0.000293628
-0.000209883
0.000378655
-0.000213649
-4.84864e-05
-0.00011652
-0.000230965
0.000192406
-4.2389e-05
8.0948e-05
4.81307e-06
-0.000260172
0.000255359
-0.00018419
0.000183881
3.09105e-07
-0.000134708
-0.000249197
-0.000179862
0.000563766
-0.000352446
0.000135416
-4.36131e-05
0.000260643
9.6004e-05
9.62128e-05
0.000267321
-0.000243197
-0.00021756
0.000193437
-0.000115843
-0.000158004
0.00021998
5.38674e-05
-0.000146171
-9.1009e-05
0.000259556
-2.23764e-05
7.39539e-05
-4.26989e-05
-0.000183681
0.000152426
0.000201315
-5.843e-06
-0.000273434
7.7962e-05
8.6605e-05
-3.14606e-05
5.7835e-05
-8.70582e-05
0.000106777
-7.75542e-05
0.000145754
0.000173555
-0.000159405
-0.000159904
8.91423e-05
0.00022421
-0.000234283
-7.90695e-05
0.000162995
8.70666e-05
-9.91099e-05
0.000240146
-0.000313078
6.70893e-05
-0.00028343
0.00025191
8.15145e-05
-4.99946e-05
0.000305751
-9.81499e-05
-0.000322215
-8.34719e-05
0.000212454
8.08203e-05
0.000264564
-0.000115427
-0.000222178
-5.00343e-05
-1.12178e-05
-0.000311303
0.0002719
2.37618e-05
1.56418e-05
-7.93642e-06
0.000310473
-4.27718e-05
-0.000259765
-0.000242119
3.72529e-05
0.000121394
-0.00010115