/*--------------------------------*- C++ -*----------------------------------*\
  =========                 |
  \\      /  F ield         | OpenFOAM: The Open Source CFD Toolbox
   \\    /   O peration     | Website:  https://openfoam.org
    \\  /    A nd           | Version:  10
     \\/     M anipulation  |
\*---------------------------------------------------------------------------*/
FoamFile
{
    format      ascii;
    class       volVectorField;
    location    "0";
    object      U;
}
// * * * * * * * * * * * * * * * * * * * * * * * * * * * * * * * * * * * * * //

dimensions      [0 1 -1 0 0 0 0];

internalField   nonuniform List<vector> 
111485
(
(0.0635164 -0.0645945 0.00293389)
(0.166017 0.0180016 -0.0229487)
(0.168042 -0.00910247 -0.0168652)
(0.090143 -0.0755914 -0.0117596)
(0.200533 0.0191218 -0.00693285)
(0.075087 0.0722769 -0.00101345)
(0.20518 0.0159391 -0.0103631)
(0.18152 -0.00508276 0.030176)
(0.199704 0.0213175 0.022542)
(0.207938 0.0189991 0.00147573)
(0.207234 0.00809504 -0.00297787)
(0.214878 0.0251393 -0.0155396)
(0.236242 -0.0150209 -0.0328837)
(0.191567 -0.0084354 -0.0129956)
(0.17572 0.0264372 0.0104876)
(0.220824 -0.0311844 0.015417)
(0.212296 -0.0321391 0.0248727)
(0.0825751 -0.00565764 0.00240761)
(0.170936 0.0189659 0.00960009)
(0.0830703 -0.0656467 -0.00600619)
(0.0728222 -0.0921948 0.0281941)
(0.0905652 0.0950082 -0.049248)
(0.192744 -0.0032394 0.0169288)
(0.197012 -0.0301188 0.000803292)
(0.216362 0.00543688 0.0244581)
(0.0833374 -0.0729172 0.00793673)
(0.202969 0.022039 0.00287001)
(0.220307 -0.042346 0.0448232)
(0.179735 -0.000822811 0.00189323)
(0.0678958 -0.0744859 0.00391914)
(0.214446 -0.00300689 0.0330213)
(0.182936 -0.00399965 -0.00373149)
(0.0724621 -0.0646369 -0.0133411)
(0.0934835 0.0687081 -0.00582075)
(0.070723 0.0137782 -0.00783239)
(0.0744866 0.0619147 0.00182745)
(0.169307 0.000966834 -0.000571045)
(0.234081 -0.0200159 -0.00842366)
(0.184689 0.0701191 -0.0163452)
(0.227575 -0.0123315 -0.0297091)
(0.0835292 0.0877277 0.0052238)
(0.231297 0.0122103 -0.000485093)
(0.155176 0.0149834 -0.0227727)
(0.217173 -0.000268483 -0.0138749)
(0.178209 -0.00334336 0.0102041)
(0.0493332 -0.0722219 -0.0096263)
(0.220137 0.0291668 -0.0022717)
(0.158957 -0.0211794 0.0275463)
(0.226753 -0.0132142 0.0112783)
(0.0646294 -0.0801415 -0.0145253)
(0.07562 -0.0916358 -0.0235874)
(0.0918803 0.0731341 -0.0183344)
(0.0505886 -0.0801896 -0.0194546)
(0.204697 -0.00932123 0.0306197)
(0.0546019 -0.0731653 -0.0167436)
(0.189801 -0.00551312 -0.0136891)
(0.200325 -0.00991189 0.015245)
(0.0688951 0.0742893 -0.00677046)
(0.170798 0.0339631 -0.0215168)
(0.21324 0.0214912 -0.00441909)
(0.226528 0.038495 -0.0232211)
(0.058332 -0.0598246 -0.0026404)
(0.245476 -0.0129451 0.0288577)
(0.1917 -0.0123267 0.00738247)
(0.0696789 0.0762614 -0.00428863)
(0.208672 -0.0251812 0.0047978)
(0.138373 0.0252073 0.00331054)
(0.22368 0.0105323 0.0351675)
(0.204838 0.00977797 0.0146497)
(0.197783 -0.00149423 0.0042129)
(0.202621 -0.00684513 0.0244177)
(0.196586 0.0375795 0.0180169)
(0.0737556 -0.0586406 0.00685515)
(0.248872 -0.00478781 0.033237)
(0.0743044 -0.0539182 0.0229623)
(0.207593 -0.0453727 -0.0173578)
(0.0861895 0.0845827 -0.00428388)
(0.157962 -0.0380329 -0.0130775)
(0.0643382 0.0774526 -0.00427738)
(0.0895757 0.0758717 -0.0155074)
(0.189647 -0.0239838 0.0196656)
(0.206937 -0.0404567 -0.00288187)
(0.076618 0.0910546 0.0154799)
(0.0915464 -0.0722328 0.00662473)
(0.230125 0.0199008 0.032239)
(0.199051 0.0187121 -0.00120274)
(0.150709 0.100034 -0.0423024)
(0.200138 -0.0059433 0.0248876)
(0.160964 0.0169885 -0.00250371)
(0.192289 -0.00516709 0.0257856)
(0.166678 -0.00465298 0.0363995)
(0.206426 0.0267441 -0.00553429)
(0.200963 -0.0290395 0.0282373)
(0.188862 -0.000246484 0.0171563)
(0.188659 -0.0244393 -0.0188314)
(0.0702528 -0.0828869 -0.00824929)
(0.0789676 -0.0734602 0.00903996)
(0.184058 -0.00528706 0.000309896)
(0.241186 -0.0236676 0.0165313)
(0.223407 0.0292205 -0.0164897)
(0.0833958 -0.073534 -0.0230239)
(0.174452 -0.00347675 0.0136616)
(0.058401 0.0683421 0.0142612)
(0.190672 0.00151011 -0.0406251)
(0.214337 -0.0371526 -0.00307041)
(0.0668262 0.0488622 0.00567829)
(0.0629131 0.082753 -0.00204043)
(0.192364 -0.0364203 -0.0092722)
(0.221734 -0.00852754 0.0384068)
(0.206003 -0.0320823 0.0148304)
(0.232337 -0.013973 -0.00605491)
(0.166823 -0.0249718 -0.016406)
(0.193909 -0.0132117 0.0144503)
(0.19757 -0.0325804 -0.0113066)
(0.0777059 -0.0631479 -0.00564469)
(0.191241 -0.0123059 -0.0108778)
(0.0932704 -0.0578898 0.0190926)
(0.0574331 0.0774648 0.00802167)
(0.215776 -0.00722439 0.044289)
(0.0581141 -0.0804396 0.0134758)
(0.0761767 -0.0709962 0.00860907)
(0.115929 0.0931863 -0.00698724)
(0.0625854 0.0533647 -0.00161127)
(0.0749189 0.0806865 0.0230939)
(0.188462 -0.0155174 -0.0041136)
(0.057479 -0.0513768 -0.0106094)
(0.0970129 0.080795 -0.0242001)
(0.217475 0.00238044 0.00612974)
(0.0546179 -0.0551178 -0.0112956)
(0.189361 0.0238352 -0.02075)
(0.195047 -0.0120139 -0.0196396)
(0.204475 0.0148841 0.0173395)
(0.0743108 -0.0707012 -0.00328063)
(0.105982 0.0778231 -0.00728278)
(0.0856699 0.0683748 0.000500254)
(0.212965 -0.00224359 0.0246282)
(0.0968612 0.0674307 0.00290671)
(0.221932 0.0102292 0.0205649)
(0.194946 -0.0355539 0.0238109)
(0.204883 0.0445925 0.0146026)
(0.188724 -0.0102439 0.00237838)
(0.182638 -0.0121631 -0.0107389)
(0.199467 0.0136491 0.0104737)
(0.213845 -0.0498015 -0.00835025)
(0.198734 0.0286655 0.00935425)
(0.153316 -0.0172525 0.00484521)
(0.0907717 0.0656472 0.000866656)
(0.0467104 -0.0656363 -0.0141363)
(0.0856322 0.0677343 -0.00655177)
(0.219656 0.0216755 0.013171)
(0.205816 -0.00797896 0.0244537)
(0.0936829 -0.0754109 0.0145974)
(0.224966 0.000189579 0.0266405)
(0.158949 -0.0235238 0.0145116)
(0.184636 0.0321458 -0.0122508)
(0.224809 -0.0253426 -0.0121676)
(0.209418 0.0330806 -0.0177085)
(0.184824 0.0156869 0.0311523)
(0.238013 0.0188417 -0.0139451)
(0.0683736 -0.0687302 0.000603009)
(0.0714074 -0.0766506 -0.0156147)
(0.218353 -0.0155898 0.00441474)
(0.209553 0.0209664 -0.00398987)
(0.231758 0.0129137 -0.0131265)
(0.198887 0.00668745 0.00259592)
(0.248129 0.00255488 0.0284797)
(0.211172 -0.010129 0.00272508)
(0.0930524 0.0966897 -0.00354193)
(0.244133 0.00059156 -0.00751196)
(0.225208 0.00440825 -0.00284768)
(0.0551754 0.0679329 -0.0070929)
(0.0621734 -0.061701 0.00529712)
(0.199727 -0.000341353 -0.00953037)
(0.0852546 0.0732876 -0.0273114)
(0.194598 0.0154333 0.0380447)
(0.177743 0.04986 0.034927)
(0.0762564 0.0680444 -0.000281956)
(0.0657636 -0.062351 0.00194982)
(0.0891072 -0.0796186 0.0131447)
(0.0583998 0.0560539 -0.00143372)
(0.0684217 -0.0678809 -0.00590176)
(0.0732834 -0.0765441 -0.0118376)
(0.19157 0.013712 -0.00358424)
(0.23229 0.0131268 -0.0142867)
(0.245091 -0.0314877 -0.0131911)
(0.174715 -0.0112514 0.0471733)
(0.205232 -0.040654 -0.0148986)
(0.223696 0.018153 0.026195)
(0.169147 0.0321179 -0.00866898)
(0.0742221 -0.0627232 -0.00635567)
(0.211685 0.0155471 0.00355791)
(0.0649557 -0.0617254 -0.0104215)
(0.0751295 -0.0671685 0.00221012)
(0.223784 0.00677834 -0.0180842)
(0.22322 0.0336341 -0.0091153)
(0.174046 -0.0170166 -0.0126876)
(0.212166 0.00775485 0.00113968)
(0.192004 -0.0380529 -0.0147055)
(0.0787683 -0.0688805 0.00236421)
(0.202802 0.0128793 -0.00826168)
(0.170283 0.000168669 0.0084721)
(0.153795 0.0526594 -0.020863)
(0.205257 0.0270266 -0.00320097)
(0.207458 -0.0287161 -0.00961702)
(0.075052 -0.0757954 -0.01027)
(0.193349 0.0057947 0.00376098)
(0.210835 -0.0284548 -0.0127948)
(0.0859475 -0.0721342 -0.0086975)
(0.179244 -0.00329105 -0.0133836)
(0.23376 -0.0243983 0.01018)
(0.190058 0.00135801 -0.00348616)
(0.166512 0.0197797 -0.0159679)
(0.0678366 -0.0680698 0.00422168)
(0.0661612 -0.0635217 -0.00422818)
(0.162446 -0.00964825 -0.0129149)
(0.143505 0.0822503 -0.0206213)
(0.213836 -0.0238211 -0.0131556)
(0.0566324 0.0605451 -0.00174489)
(0.139973 -0.00890054 -0.0419676)
(0.1845 -0.0237652 -0.0219996)
(0.161322 0.0168728 -0.00141526)
(0.0813621 -0.0592815 -0.00304188)
(0.200352 -0.018597 0.0273259)
(0.252142 0.070766 0.0251896)
(0.0978936 0.0762469 -0.0182023)
(0.0848563 0.0780122 -0.00401362)
(0.0665887 0.0735553 -0.01941)
(0.213922 -0.0309475 -0.0431922)
(0.214321 -0.00564819 -0.0240319)
(0.0799995 0.0647737 0.00202931)
(0.0731978 -0.0693444 0.0096689)
(0.184718 -0.0154983 -0.020077)
(0.207258 0.0230335 0.02787)
(0.199839 -0.000306174 -0.0016885)
(0.0817706 0.0540654 -0.00335757)
(0.0898597 -0.074225 -0.0031253)
(0.199631 -0.00646992 0.00723113)
(0.0575572 -0.0686631 -0.01069)
(0.247777 0.00424136 -0.0598712)
(0.191075 -0.00826528 -0.00184921)
(0.194414 -0.00931516 -0.0119385)
(0.200941 -0.00435076 -0.0232001)
(0.219297 -0.0143667 -0.017847)
(0.0557491 0.076571 0.0255945)
(0.216489 0.00552815 -0.000364955)
(0.223859 -0.0188789 -0.0232258)
(0.0820651 0.0758937 -0.00456519)
(0.0690226 0.0778215 0.0065158)
(0.211804 0.0148461 0.00407226)
(0.158741 -0.00259079 0.00230731)
(0.0741953 0.0516242 -0.000472144)
(0.206942 0.0193605 -0.00325183)
(0.190264 -0.0120149 0.0354107)
(0.0668017 -0.0642158 0.00290285)
(0.093617 0.096555 -0.00142341)
(0.199507 -0.00441523 0.0154216)
(0.0587882 -0.0563866 -0.00183301)
(0.083045 -0.0609415 0.00632745)
(0.104027 -0.0466092 0.00173518)
(0.0735308 -0.0787322 -0.00246022)
(0.204939 0.0130467 -0.00810839)
(0.230993 0.0340125 0.0194834)
(0.23317 0.0262315 -0.00879582)
(0.0752617 -0.0661596 -0.00080754)
(0.199515 -0.0134508 -0.0135518)
(0.0477881 -0.0786648 -0.00608594)
(0.0503753 -0.0651118 -0.0118565)
(0.0773354 -0.0662024 0.00184961)
(0.191007 0.000244741 0.0120113)
(0.219708 0.0170841 -0.0174733)
(0.204529 -0.0216402 -0.00183542)
(0.182913 0.00541999 0.0262898)
(0.177453 0.0114785 0.0031605)
(0.183748 -0.00360287 -0.00238004)
(0.199769 0.00204704 0.0039004)
(0.201107 0.0180297 0.0191363)
(0.196267 0.0121947 0.00994267)
(0.234605 0.0186602 0.0161025)
(0.0633202 0.0717766 0.0122776)
(0.0805278 -0.0847041 0.0120968)
(0.177717 0.000260958 0.00621295)
(0.177584 -0.00297544 -0.00172251)
(0.190365 -0.00862544 -0.0150363)
(0.190283 -0.00439511 -0.0186642)
(0.0548167 -0.059106 0.00285661)
(0.191827 -0.0191399 -0.012991)
(0.178605 -0.00899705 -0.00453179)
(0.196788 -0.0026457 0.0357121)
(0.192838 -0.0106634 -0.0107435)
(0.178194 0.0421723 -0.00569399)
(0.208208 0.00793698 0.00275783)
(0.191557 -0.0215194 0.00969756)
(0.165879 0.0172801 0.0101854)
(0.0706957 0.0763607 -0.0058554)
(0.224715 -0.0389215 -0.00394925)
(0.0503328 0.0583098 -0.0069965)
(0.0443453 0.037098 -0.00491928)
(0.0796271 -0.0644928 0.00460027)
(0.224071 0.0265783 0.0192913)
(0.182646 -0.0149038 0.0140348)
(0.214082 0.0304167 -0.0172984)
(0.0755657 -0.0815612 0.014681)
(0.053531 0.0820106 -0.012877)
(0.171006 -0.0153318 0.0151419)
(0.242898 0.00976822 -0.0148794)
(0.108072 -0.0792356 0.0194957)
(0.0572452 -0.0710617 0.011435)
(0.0639662 -0.0628142 0.000993045)
(0.18103 -0.015853 -0.0157377)
(0.185662 0.0136868 0.0299663)
(0.223477 -0.012805 -0.0254732)
(0.182181 -0.0226892 0.02925)
(0.237576 -0.0175326 0.039068)
(0.0838911 0.0794973 -0.00300123)
(0.0812402 0.0888103 0.017366)
(0.0614745 -0.0578265 0.00263079)
(0.208413 0.00527828 0.0123981)
(0.108969 -0.0912601 -0.0400043)
(0.180092 -0.0036852 0.00437762)
(0.247675 -0.00779542 -0.0052748)
(0.182747 -0.000602225 -0.0114671)
(0.0789274 0.0655056 -0.0286493)
(0.0782855 -0.047139 0.00837873)
(0.0469257 -0.0580758 0.00689677)
(0.135206 0.0756864 -0.00902564)
(0.181016 0.00562891 0.00581794)
(0.160506 -0.0055008 0.00466817)
(0.104077 0.0654157 -0.0156558)
(0.187228 -0.0371495 -0.00496919)
(0.0777111 0.0809058 0.0153006)
(0.0477995 -0.0635183 0.00227212)
(0.216586 0.00293877 -0.0223329)
(0.181587 0.0325719 -0.0637005)
(0.181265 0.00364271 0.0180078)
(0.18621 0.011312 -0.00432996)
(0.073187 0.0335846 0.0228972)
(0.110091 0.0721396 -0.00173689)
(0.0740076 0.061671 0.012426)
(0.168671 -0.00694964 0.0267202)
(0.195161 -0.00581764 -0.0424621)
(0.165735 -0.00993395 -0.0264183)
(0.0781052 0.0846056 -0.0110052)
(0.14669 0.120895 -0.0433573)
(0.1697 -0.00502423 0.0199984)
(0.205002 -0.0319657 -0.0020495)
(0.213416 -0.022514 -0.00609418)
(0.15983 0.00825452 -0.0111246)
(0.154825 -0.00835523 0.0108286)
(0.0657053 0.067243 -0.000735625)
(0.215334 -0.0214289 -0.0121796)
(0.182105 0.0187165 -0.0335144)
(0.178819 0.0224945 0.00166067)
(0.189203 0.0132921 -0.00888063)
(0.185879 -0.0492126 0.0128904)
(0.0854075 0.0600457 -0.0135449)
(0.0548935 -0.0656732 0.00157293)
(0.103722 0.0736987 0.0151324)
(0.0586365 -0.0826624 -0.000664105)
(0.171226 -0.0185266 -0.0320693)
(0.216985 -0.00802369 0.00224605)
(0.150432 0.0386041 -0.0133664)
(0.231246 -0.0367295 -0.0373791)
(0.0543752 0.0698089 -0.00313617)
(0.208585 0.00758801 0.00592707)
(0.0842497 0.0719113 0.0088591)
(0.0633878 -0.0487416 0.00936556)
(0.221579 -0.00950296 -0.0191811)
(0.063856 -0.0704228 -2.32791e-05)
(0.138064 -0.0161834 0.00172364)
(0.0937999 -0.0776429 -0.00188995)
(0.0652286 0.0761928 0.00653481)
(0.201845 -0.00368415 -0.0306578)
(0.0633998 0.0740239 -0.00824982)
(0.201068 -0.0176872 -0.0248563)
(0.152144 0.0339435 0.0156143)
(0.075856 0.0696763 -0.0263211)
(0.173119 -0.012793 -0.0275509)
(0.203455 -0.00834436 0.0305887)
(0.0579678 0.0533966 0.0097455)
(0.182422 0.00151403 0.00119697)
(0.186108 -0.00326333 -0.0216468)
(0.195139 0.0213376 -0.00914229)
(0.211916 -0.0280215 0.0227936)
(0.203847 0.0338666 -0.00577593)
(0.246662 -0.00181873 0.000742985)
(0.0623749 0.0643412 0.00250822)
(0.077138 -0.0749219 -0.00648841)
(0.217562 -0.0100692 0.0123527)
(0.0768226 0.0764557 0.00445633)
(0.172574 0.00880017 0.00895922)
(0.239138 0.0020106 -0.013296)
(0.0746542 0.0771107 -0.00028304)
(0.0584437 0.0646085 -0.00823515)
(0.168612 0.0281941 -0.0283558)
(0.20462 -0.012289 -0.0188188)
(0.148086 0.000764674 0.0145885)
(0.198959 0.0530367 -0.0151313)
(0.0815322 0.074013 0.0126055)
(0.242384 -0.0165468 -0.00271852)
(0.199643 -0.00771161 -0.00837257)
(0.0776451 0.053014 -0.0197609)
(0.221576 0.0040072 -0.0043217)
(0.191093 0.0455965 -0.00219233)
(0.0635121 -0.0954495 -0.00162764)
(0.0762468 -0.0693721 0.0113827)
(0.200387 -0.0336777 -0.00183573)
(0.21409 0.00202885 -0.0196064)
(0.0577253 0.074163 0.00671097)
(0.0778894 -0.076062 0.0135351)
(0.103819 -0.0807256 0.00411602)
(0.055421 -0.0667837 -0.0255717)
(0.210251 0.0366226 0.0270416)
(0.0799382 0.0905585 0.00659769)
(0.0806819 -0.0749505 -0.00726137)
(0.200326 0.0141942 -0.021586)
(0.174132 0.022839 0.0388143)
(0.205326 -0.0203583 0.00690072)
(0.182444 0.0115611 -0.00157778)
(0.0581069 0.0544821 0.00078396)
(0.101015 0.0786184 0.00531874)
(0.184504 -0.00469763 -0.000233844)
(0.0869625 0.0782563 0.00656704)
(0.179417 -0.0122004 0.0081452)
(0.261341 -0.00571328 -0.0704865)
(0.233058 -0.00385307 -0.02599)
(0.160149 0.00211079 -0.00173144)
(0.0993069 0.081941 -0.0106382)
(0.198453 -0.00249184 -0.00921428)
(0.218947 0.0170941 0.0703391)
(0.062946 -0.0925745 -0.0156915)
(0.230846 0.0260625 -0.0115042)
(0.188704 0.0168199 0.00514819)
(0.0673328 -0.0740878 -0.00369229)
(0.204651 0.00869832 0.00812365)
(0.199879 0.0118119 -0.00326545)
(0.113458 0.0892451 0.0147231)
(0.223851 -0.0065738 0.00721634)
(0.225856 -0.0268493 0.0397221)
(0.199844 0.0105382 0.0101064)
(0.0744455 0.103869 -0.00250599)
(0.208744 -0.0278708 0.00306336)
(0.190948 0.00185872 -0.015573)
(0.2159 0.0115066 -0.0346226)
(0.209379 0.0324688 0.0302715)
(0.103389 0.0583332 0.0172942)
(0.202139 0.010526 0.0218438)
(0.0584928 -0.0673061 0.0148408)
(0.153756 0.00685136 0.010379)
(0.212098 -0.0315788 -0.00651735)
(0.0674122 0.0786309 0.00155436)
(0.225457 0.00723029 -0.000727399)
(0.221915 0.0361967 -0.00267535)
(0.0952778 0.0961597 -0.00316188)
(0.0608248 -0.071994 0.0055989)
(0.0646144 -0.0684266 -0.0037006)
(0.0730872 -0.0874428 -0.00366151)
(0.196055 0.00383877 -0.00321649)
(0.182017 -0.00246733 0.00949183)
(0.199368 0.0332405 -0.00399428)
(0.2256 0.00773889 -0.0418769)
(0.207221 0.0304457 -0.00695508)
(0.092499 0.0606159 0.00241908)
(0.202586 0.0231443 -0.0169468)
(0.0795648 -0.051541 0.0136096)
(0.189948 -0.00421581 -0.0213496)
(0.0872697 0.074564 -0.00169188)
(0.0790579 -0.0844345 0.0159797)
(0.0574889 -0.0705791 0.00068369)
(0.212394 -0.0167055 0.0202196)
(0.0675654 -0.0709065 0.0130766)
(0.0786792 -0.0787293 -0.0137583)
(0.0661331 0.0319618 -0.0151834)
(0.0506475 -0.0493097 0.00368313)
(0.0964957 0.0944814 -0.00969178)
(0.159738 0.00944457 -0.0272126)
(0.0796269 0.0950784 0.00239602)
(0.0917554 0.0587693 -0.00112719)
(0.0721554 0.085443 -0.00440716)
(0.0836255 -0.0664379 -0.00282608)
(0.0592783 0.0447409 -0.0188449)
(0.070941 -0.0795405 -0.00689396)
(0.0573978 0.0823096 -0.0109107)
(0.210585 0.0100803 -0.0062694)
(0.0736232 0.075043 0.00392928)
(0.178622 0.00756787 0.0128591)
(0.194956 0.0213928 -0.0157641)
(0.203975 -0.00323436 -0.00102456)
(0.0856364 0.0813622 0.011841)
(0.212042 -0.0197971 -0.0209771)
(0.0549446 0.0671367 0.0229693)
(0.0355789 -0.095984 0.0302256)
(0.199915 -0.00628897 -0.0061427)
(0.220964 -0.00810849 -0.00868043)
(0.194444 0.0309793 -8.54095e-05)
(0.201287 0.0273173 -0.0115317)
(0.0854211 0.0849305 0.00105229)
(0.203451 0.00136215 0.0179631)
(0.193815 -0.00188869 0.00771575)
(0.208659 0.0179805 -0.0244208)
(0.186746 -0.0110142 0.00206047)
(0.190386 0.000976276 0.000586164)
(0.0646523 -0.0603382 -0.0025276)
(0.190867 0.0155703 -0.00362281)
(0.105402 0.106059 -0.00892411)
(0.224822 0.00277625 -0.0150636)
(0.0610787 0.0530782 0.00761275)
(0.216278 -0.000394648 -0.00365292)
(0.1046 0.0844858 -0.000311387)
(0.222139 0.029908 -0.00491061)
(0.23886 -0.00201253 -0.0186168)
(0.0711877 -0.0366225 -0.00742317)
(0.065064 0.0876666 0.00208507)
(0.177165 0.00318118 -0.0113994)
(0.0760804 -0.071529 -0.00218654)
(0.225461 0.00656719 -0.0192041)
(0.214118 -0.0252367 -0.00254646)
(0.081488 0.0672313 -0.00352195)
(0.0798606 0.0765989 -0.00795199)
(0.0590601 0.0561087 0.00405716)
(0.061366 0.0643646 0.00418456)
(0.200904 0.0158992 -0.0069194)
(0.211639 -0.00154029 -0.00441148)
(0.0807656 0.0722917 0.00176083)
(0.0451347 0.0547073 0.00624492)
(0.169297 -0.00193271 0.0256969)
(0.0638163 0.0675859 -0.0114659)
(0.202833 0.0262493 0.0219797)
(0.0765104 0.0811083 -0.0140057)
(0.223559 -0.0262688 0.00943912)
(0.0796285 -0.0895058 0.00704479)
(0.204159 -0.0027439 -0.00670656)
(0.194655 0.000845481 -0.00540315)
(0.212338 0.00657533 -0.0136319)
(0.22813 -0.00553721 0.0155265)
(0.0823214 0.0842666 0.000219975)
(0.197609 0.00570318 -0.00360423)
(0.0486501 0.0664426 -0.0157426)
(0.0785986 0.0799939 0.00696791)
(0.207053 -0.00902788 -0.00617333)
(0.0432523 0.0834566 -0.00155096)
(0.207818 0.00235467 -0.0213822)
(0.0618794 0.0516364 0.000754922)
(0.213109 -0.0214311 0.00677702)
(0.0750011 -0.0712987 0.00419247)
(0.23565 -0.030139 0.0396916)
(0.0788063 -0.0751127 -0.000660512)
(0.0754387 0.086737 -0.00401214)
(0.2004 -0.00338527 -0.0484206)
(0.178468 -0.0175244 0.0291272)
(0.200477 -0.0159199 0.025749)
(0.207964 0.0210884 0.0066107)
(0.193092 0.0601061 0.00835972)
(0.217023 -0.0280634 0.00316584)
(0.0696677 0.0753807 -0.0411449)
(0.214152 0.0184688 -0.0418638)
(0.190773 -0.00997545 0.0560952)
(0.0740528 0.060504 0.0013118)
(0.203603 -0.00705616 -0.0167938)
(0.214972 -0.0205051 -0.00337738)
(0.201849 0.0185694 -0.0377615)
(0.0604354 0.0510701 0.00133592)
(0.0800724 0.0253059 -0.0084857)
(0.196612 -0.00124107 0.000542053)
(0.165982 -0.0384996 0.00335555)
(0.176642 0.0198965 0.00728926)
(0.0789147 -0.0571543 0.00362155)
(0.189348 0.0165563 -0.026409)
(0.229443 0.0104428 -0.0354081)
(0.22606 0.0400012 0.00709652)
(0.222211 -0.00770311 -0.016239)
(0.173778 0.0207841 -0.000766733)
(0.144486 0.0345822 -0.00635225)
(0.0847235 0.0956963 -0.0128904)
(0.247006 0.0264977 -0.00879017)
(0.18722 -0.00736152 0.000750218)
(0.0792621 -0.0589454 0.00148192)
(0.155633 -0.00421019 -0.0303126)
(0.0621715 0.065186 -0.00461674)
(0.0976919 0.0684617 -0.00197045)
(0.239382 0.00565817 -0.00639013)
(0.174487 0.0238214 0.0222381)
(0.221063 0.00547816 0.000107561)
(0.16473 -0.0306352 0.0229916)
(0.068011 0.0745564 -0.0113097)
(0.20713 0.00749693 -0.00242416)
(0.149538 0.0232711 7.59788e-06)
(0.0783654 0.0759631 -0.00256507)
(0.10073 0.0368705 -0.0107198)
(0.160425 -0.000515449 -0.0218224)
(0.0754932 -0.0543856 -0.00689629)
(0.0720421 0.0824025 0.000532971)
(0.055105 0.0639978 0.0044163)
(0.081828 0.0745646 -0.0224777)
(0.192682 0.00895277 -0.00113665)
(0.0669116 0.0774581 0.00198134)
(0.0680627 -0.0662771 0.0031104)
(0.222103 0.0158972 0.006557)
(0.196119 -0.0261487 0.000548065)
(0.098151 -0.10182 0.0110013)
(0.162851 0.0228901 0.0160243)
(0.0863325 0.0702658 0.00167814)
(0.200739 0.0252316 0.0253749)
(0.0761894 -0.0771604 -0.000839667)
(0.0673465 0.0659674 0.00222912)
(0.227118 0.00260152 0.0196613)
(0.0682879 0.0716368 0.00584388)
(0.07381 0.0805921 0.00319241)
(0.0903878 0.0609687 -0.0116665)
(0.183169 -0.00757623 0.00191968)
(0.108652 0.100195 -0.0178155)
(0.192268 -0.025447 0.0100817)
(0.205289 0.00973752 0.0443526)
(0.0598453 -0.0778751 0.0012934)
(0.208181 -0.00326767 0.016472)
(0.182074 -0.00897526 -0.0141246)
(0.200837 0.00184052 0.00451819)
(0.260259 0.00729842 -0.0243651)
(0.218351 -0.00365591 -0.0199956)
(0.202296 -0.000572843 -0.00227515)
(0.0806014 0.0764716 0.0015105)
(0.211169 -0.0554344 -0.00503965)
(0.231339 0.0203177 0.034668)
(0.0740578 -0.0676013 0.0163718)
(0.17138 -0.0146798 -0.00257002)
(0.2168 -0.013919 -0.0257669)
(0.198579 0.0245556 0.0042291)
(0.2071 -0.00325069 0.00184668)
(0.216635 0.016401 0.00205042)
(0.20074 0.0285702 -0.0167172)
(0.0782097 -0.0767653 -0.00823792)
(0.207462 -0.00874454 0.0117104)
(0.200996 -0.00325578 -0.00293106)
(0.0715664 0.0897869 -0.00409496)
(0.243727 0.0107788 -0.00459416)
(0.220706 0.0216411 0.0232419)
(0.102227 0.0843189 -0.00954082)
(0.170304 0.00782045 0.0123269)
(0.225705 -0.0083604 0.00667852)
(0.207521 0.020394 0.00556286)
(0.198929 -0.00843814 -0.00523594)
(0.160033 0.00253078 -0.00726227)
(0.199207 0.0154951 0.00756404)
(0.0891027 0.0610634 -0.0113565)
(0.208553 -0.00421134 -0.00887056)
(0.18239 0.010758 -0.0222133)
(0.0724212 -0.0465039 0.0120807)
(0.196579 0.0093499 0.00273145)
(0.190599 0.00546456 0.0126219)
(0.209637 0.0135675 0.0123823)
(0.0621872 0.0707267 -0.000114458)
(0.17308 0.0283757 0.00902305)
(0.0612403 -0.0614904 -0.00651587)
(0.100866 0.0722254 -0.0238322)
(0.0737548 0.082434 -0.00259108)
(0.0613369 0.063045 0.000368851)
(0.178851 -0.00216364 0.0153214)
(0.0764475 0.104171 0.00958227)
(0.21829 0.00136814 -0.0125063)
(0.0773712 -0.0736465 0.0132892)
(0.0503211 0.0564451 0.0133148)
(0.1795 0.00512852 -0.00898683)
(0.239616 -0.00815272 -0.00520875)
(0.0889419 -0.0859554 0.00100966)
(0.196691 -0.0103701 0.00470265)
(0.0801401 -0.0562677 0.00498607)
(0.0703872 -0.0692695 0.0178865)
(0.0563254 -0.0574385 -0.0179349)
(0.21972 -0.0136876 -0.00400145)
(0.177715 0.0327782 0.0135526)
(0.0939077 0.0924696 -0.0114571)
(0.0733173 -0.0681041 -0.00138328)
(0.0669192 0.0744321 -0.00491905)
(0.0723034 0.0521738 0.0103245)
(0.201071 0.0130451 0.0256767)
(0.169628 0.0169999 0.00548453)
(0.0840765 0.0632523 -0.00137486)
(0.178593 -0.0270269 -0.00125723)
(0.149768 -0.00680358 -0.035545)
(0.0638021 0.0714109 -0.00888716)
(0.218783 -0.0203759 -0.0203985)
(0.220258 -0.0115681 -0.00598737)
(0.176972 -0.000664532 -0.00256035)
(0.0938823 0.0705191 -0.00474274)
(0.0553957 0.0808123 0.00146808)
(0.203402 -0.0106321 0.00110215)
(0.2195 0.0808525 0.0326071)
(0.0890965 0.0758747 -0.00639181)
(0.0650426 0.0636625 -0.0103157)
(0.0684549 0.0469343 -0.000312294)
(0.162174 0.0145635 -0.00150291)
(0.0773651 -0.075979 -0.00383555)
(0.0516058 -0.0815716 0.00803429)
(0.0780824 0.0794192 0.011054)
(0.215886 0.00252233 0.0133133)
(0.202947 0.00975612 -0.0351303)
(0.0729806 0.0644568 0.0137766)
(0.0784747 -0.00650429 0.0111367)
(0.0880224 -0.0197622 -0.00987439)
(0.200137 0.00565779 0.00162274)
(0.0743606 0.0682059 -0.00818574)
(0.0742976 0.0708476 0.00133844)
(0.200185 0.0050292 -0.000114676)
(0.216556 -0.0120973 0.0178377)
(0.0911791 0.0878276 0.00148264)
(0.138192 0.0523103 -0.0125242)
(0.221577 -0.0247454 0.0161314)
(0.221587 -0.0155931 0.00556381)
(0.197597 0.0118111 0.013039)
(0.0709117 0.0712691 0.000261702)
(0.250373 0.014729 0.0128946)
(0.2192 0.00348548 -0.017652)
(0.0618336 0.0697353 -0.0107997)
(0.0591616 -0.0925388 -0.0213875)
(0.0682412 0.0733437 0.0313695)
(0.0694501 0.0748448 -0.0213997)
(0.0727693 0.0744161 -0.00163935)
(0.0731037 0.090657 -0.0106146)
(0.211744 -0.0178308 0.0208756)
(0.0643892 -0.0856393 0.00239902)
(0.0510258 0.0763219 -0.0108431)
(0.0703074 0.0730015 -0.00363546)
(0.197333 -0.0046395 0.0279059)
(0.203965 0.00410503 0.00187049)
(0.0615594 -0.0629175 -0.00877853)
(0.0680015 -0.0634904 -0.00601747)
(0.203767 -0.0195771 -0.0207397)
(0.217634 0.00561984 0.0317221)
(0.177341 0.00556734 -0.0120268)
(0.0705713 -0.0628929 -0.00338049)
(0.0632184 0.0737511 -0.0110871)
(0.178017 0.0108631 -0.00999406)
(0.0592539 -0.0492654 -0.0078322)
(0.22701 -0.00502061 -0.0110171)
(0.183204 0.0102215 -0.00552191)
(0.173855 0.00995402 0.00996726)
(0.0797887 -0.0569105 0.0019251)
(0.0789995 -0.085137 -0.0079409)
(0.0619974 -0.0705855 -0.00216197)
(0.0722953 0.0657301 -0.012397)
(0.196653 -0.0050223 0.0116187)
(0.0726852 0.0662369 -0.012533)
(0.0469949 0.0668203 0.0111166)
(0.21768 0.018817 0.0260935)
(0.082447 -0.0748476 0.0103731)
(0.221034 0.00506656 0.00461338)
(0.212957 0.00103483 -0.00850215)
(0.0742548 0.0764874 0.0158139)
(0.208681 -0.00341123 0.00988609)
(0.113488 0.0141537 -0.00228463)
(0.199513 0.044967 -0.016821)
(0.173039 -0.0158079 -0.00133476)
(0.218085 -0.0361212 -0.00432643)
(0.192017 -0.00114362 -0.0213636)
(0.218628 -0.004431 0.00798922)
(0.0836074 0.0677745 -0.000504837)
(0.22022 0.0366642 -0.0199139)
(0.215085 0.00589712 0.0261032)
(0.187067 0.0292881 -0.0198987)
(0.076163 0.0613816 0.0051131)
(0.219839 -0.00459194 0.0230045)
(0.0929097 -0.00979356 0.00402229)
(0.199349 -0.0178872 0.0161837)
(0.0702115 0.0631971 0.000555623)
(0.194806 -0.00962274 0.00161716)
(0.200838 -0.000393127 -0.0222985)
(0.16513 -0.00288504 0.0206085)
(0.0738808 -0.0630733 -0.00835354)
(0.0618373 -0.05451 -0.00262182)
(0.0769836 -0.0644378 0.00138435)
(0.206906 0.00972121 -0.00519284)
(0.0918512 0.0762992 -0.000771529)
(0.208842 -0.0215654 0.00565271)
(0.0894932 0.0833734 -0.0128933)
(0.241292 0.00563639 -0.0268805)
(0.244419 -0.0594603 0.0119496)
(0.19112 0.0141992 -0.0220676)
(0.181989 -0.0413439 0.00789379)
(0.0558613 0.068724 0.00875081)
(0.0727413 0.0761248 0.00371871)
(0.0648126 -0.0701428 -0.0118201)
(0.207227 0.0214578 0.0217826)
(0.0814602 0.0655973 -0.0110421)
(0.0791102 0.0625948 -0.00385006)
(0.196985 -0.0128714 -0.00372832)
(0.0607633 0.0887847 -0.0125574)
(0.0772953 0.0811371 0.00443875)
(0.0763537 -0.0656403 -0.00461501)
(0.0620615 0.0918283 0.0157319)
(0.188965 0.00803444 0.005644)
(0.0768168 0.0723571 -0.00184266)
(0.0524238 0.0691461 0.016589)
(0.203186 0.000748696 -0.0217359)
(0.0644728 0.0667167 -0.0163857)
(0.0824561 0.072925 -0.00570561)
(0.0866674 -0.0510956 0.00203782)
(0.0885204 0.0696354 -0.00781695)
(0.244418 -0.00424321 -0.0120093)
(0.216049 0.0327365 0.0139659)
(0.0817605 -0.0786739 0.00868212)
(0.207337 3.97989e-05 0.00727203)
(0.184908 0.0178607 -0.0221258)
(0.20169 0.00692219 0.0104346)
(0.219611 0.0182479 0.000893566)
(0.191388 0.0171487 -0.0134696)
(0.0832915 0.0383052 0.0213633)
(0.218017 -0.0181904 -0.00211587)
(0.18342 -0.000484591 -4.39957e-05)
(0.188659 -0.00516999 -0.0080083)
(0.0782655 -0.0677039 -0.0042824)
(0.217019 0.0555255 -0.0341272)
(0.197881 0.00057198 -0.00129413)
(0.0884819 0.0801298 -0.0136226)
(0.187602 0.0101604 -0.00462676)
(0.20387 -0.0144241 0.00118541)
(0.218904 0.0026318 -0.0615986)
(0.185251 -0.00324547 0.00931246)
(0.185139 -0.00596513 -0.0151101)
(0.22468 0.0337808 0.0487382)
(0.220784 0.0510072 0.0277772)
(0.199226 0.01252 0.0518602)
(0.0806267 0.0830459 0.00482724)
(0.0718307 0.0723711 -0.0176106)
(0.184603 -0.0190821 -0.0047684)
(0.202323 -0.0228726 -0.00433853)
(0.0630745 0.0690232 -0.00175835)
(0.193408 -0.00520821 0.00714336)
(0.215411 0.000675938 0.000146112)
(0.21641 -0.00610818 -0.0131078)
(0.0597899 0.0615581 0.00488959)
(0.238252 0.0331085 -0.0517672)
(0.0591739 0.0794539 -0.00579184)
(0.174925 0.0151424 -0.00719009)
(0.206088 0.0132021 -0.00343613)
(0.0646346 0.0701404 0.0174356)
(0.20692 -0.00597983 -0.0223777)
(0.202056 -0.0150928 0.004443)
(0.239572 -0.0163529 -0.0173786)
(0.192831 -0.0475612 0.00208474)
(0.068181 0.08206 0.0183843)
(0.183986 0.0635689 -0.0299947)
(0.251192 -0.00824369 -0.0421728)
(0.194217 -0.0364364 -0.0169869)
(0.214749 -0.0182714 0.0268661)
(0.208483 -0.00199543 0.0239296)
(0.0648909 0.0630543 -0.00474882)
(0.0786271 0.0655465 0.00618106)
(0.181583 -0.0167395 -0.00403156)
(0.103224 0.0696279 -0.000874708)
(0.202744 -0.00320809 0.00845838)
(0.224117 -0.0270786 0.0425581)
(0.0913133 0.0200668 -0.00855976)
(0.224233 -0.0213566 0.0165426)
(0.191929 -0.00427398 0.00760508)
(0.186323 -0.0167626 -0.0283587)
(0.0627213 0.0811699 -0.00166229)
(0.109471 0.0879572 -0.00939251)
(0.223221 0.0171438 0.00224683)
(0.0770188 -0.0712417 0.00162994)
(0.0475292 -0.0225138 -0.00292933)
(0.206065 0.00337451 0.00287265)
(0.0656002 0.0605626 -0.00388251)
(0.0707747 0.0718226 0.00587503)
(0.185526 -0.0503556 -0.00894018)
(0.20992 -0.0121853 -0.00407238)
(0.0737102 0.0748673 0.00804205)
(0.214073 0.0159528 0.0308971)
(0.0542691 0.0828662 0.00915907)
(0.0719027 0.0747563 0.000301366)
(0.045272 -0.0730856 0.0141698)
(0.0652708 -0.0755439 0.0126501)
(0.0620315 -0.0608924 -0.0186861)
(0.05559 -0.0706728 0.0106938)
(0.17874 0.0277494 -0.0141003)
(0.0511534 0.0559951 0.000781234)
(0.0810468 0.0756926 -0.025048)
(0.0654189 0.0701812 0.00114883)
(0.229067 -0.0171956 0.0109189)
(0.185569 -0.00707443 -0.0105867)
(0.1625 0.0166796 0.0025162)
(0.214446 0.00738055 -0.0138757)
(0.0659068 0.0692989 0.00407431)
(0.0713845 0.0714864 0.00651112)
(0.173038 0.00237729 -0.0102463)
(0.0735507 0.0728952 -0.00820725)
(0.0623222 0.0709037 0.00499379)
(0.129118 0.0688274 -0.0182246)
(0.181498 0.00304975 0.000704931)
(0.223873 -0.0162501 -0.0335275)
(0.0805435 0.0853018 0.00428072)
(0.0584376 0.0681146 0.0041908)
(0.072571 0.070796 -0.00111704)
(0.0561245 0.0643259 0.00288013)