/*--------------------------------*- C++ -*----------------------------------*\
  =========                 |
  \\      /  F ield         | OpenFOAM: The Open Source CFD Toolbox
   \\    /   O peration     | Website:  https://openfoam.org
    \\  /    A nd           | Version:  10
     \\/     M anipulation  |
\*---------------------------------------------------------------------------*/
FoamFile
{
    format      ascii;
    class       volScalarField;
    location    "6.6";
    object      SgT;
}
// * * * * * * * * * * * * * * * * * * * * * * * * * * * * * * * * * * * * * //

dimensions      [1 -1 -3 -1 0 0 0];

internalField   nonuniform List<scalar> 
111485
(
7.7964e-17
9.70471e-06
2.81238e-05
8.26725e-19
5.85657e-05
2.13533e-18
5.45611e-05
7.20571e-06
2.26303e-05
1.41949e-06
5.50051e-05
1.12051e-05
5.61809e-06
1.01708e-06
7.76332e-06
3.67044e-05
1.66068e-06
0.00309105
1.24189e-05
1.06507e-17
1.11986e-17
6.11234e-20
3.10601e-05
4.16544e-05
1.05524e-05
8.10707e-19
4.78901e-05
2.15792e-06
1.8597e-05
8.65489e-18
5.4789e-05
2.24216e-05
1.75765e-17
1.77037e-19
8.4842e-06
9.59242e-18
1.31281e-05
4.96844e-06
5.16127e-11
2.77748e-05
2.72853e-18
8.51639e-05
1.89355e-05
1.6765e-06
6.92346e-08
7.0398e-18
3.65696e-05
8.57207e-07
5.68378e-05
1.52776e-18
2.67427e-18
1.15727e-17
2.35026e-18
6.01511e-05
5.27072e-18
5.2082e-05
3.84491e-06
2.32963e-18
2.64885e-08
5.71446e-06
1.92568e-05
8.66639e-17
5.52925e-06
0.000115524
1.6218e-18
3.90033e-06
0.000377706
0.000113362
1.27911e-06
7.02899e-06
1.49261e-08
7.5292e-06
3.51358e-17
3.35344e-06
6.77664e-18
8.26636e-07
1.15834e-18
5.00963e-05
2.3982e-18
1.45669e-17
5.02076e-09
4.00195e-05
1.13515e-17
3.48755e-17
1.08111e-05
4.79256e-06
5.04942e-13
3.00075e-05
6.88371e-08
8.67205e-06
3.74664e-07
4.91384e-05
1.37851e-05
7.20823e-08
6.35297e-05
1.26944e-17
9.41502e-18
2.06857e-06
2.8322e-11
1.42151e-06
3.09169e-18
2.1954e-05
8.12802e-19
2.23567e-05
5.58923e-06
2.34213e-18
4.87894e-19
9.0514e-06
4.69239e-06
8.27524e-11
6.76715e-06
5.76629e-06
4.34015e-06
3.70824e-06
1.37168e-17
3.95195e-08
5.88497e-19
9.1149e-18
1.50929e-05
2.43999e-18
6.92351e-19
8.28501e-18
7.7886e-18
2.22488e-18
2.02261e-06
3.40584e-09
1.15229e-18
1.95335e-06
3.29831e-19
4.90072e-08
1.63244e-06
3.83675e-05
3.0724e-17
3.28692e-17
6.42096e-18
5.84334e-05
8.71627e-19
5.05084e-05
2.99268e-05
3.293e-06
2.74327e-07
2.39853e-06
2.67332e-05
3.30855e-06
4.73967e-06
1.54158e-05
6.06509e-18
4.01939e-17
6.02375e-19
3.32827e-05
1.92916e-06
3.472e-18
2.50799e-10
5.81653e-06
5.47351e-10
1.28027e-05
1.9645e-05
1.26822e-05
8.53582e-11
1.87953e-18
1.23672e-18
6.2757e-05
2.81516e-05
2.39166e-09
3.97991e-10
6.84993e-06
4.19193e-06
1.11982e-18
5.87318e-09
5.7112e-08
1.46069e-18
2.70449e-18
1.61375e-07
1.00227e-18
6.89217e-06
2.55241e-06
2.55015e-20
5.76866e-18
1.97849e-17
4.62729e-18
7.02219e-18
3.57656e-18
1.7362e-06
8.14559e-06
3.52256e-05
5.00668e-06
8.84188e-06
4.72078e-06
9.58107e-08
3.85331e-18
5.63029e-06
2.43021e-18
1.13781e-17
7.68241e-06
1.26193e-05
3.29422e-05
1.32646e-05
5.9035e-06
1.37133e-17
7.8461e-06
6.10533e-07
5.27031e-08
1.62962e-05
2.78685e-06
3.35672e-17
4.37985e-06
3.11691e-05
4.19453e-17
2.04661e-07
9.18059e-06
2.47025e-06
4.15931e-07
7.94533e-18
2.16933e-17
9.68616e-06
1.11119e-14
0.000145075
9.9714e-18
7.8441e-06
2.41588e-05
0.000144548
1.81978e-18
3.69646e-06
1.64788e-05
1.81788e-16
7.96696e-19
5.43627e-19
0.000183837
3.49752e-10
1.243e-17
6.01703e-18
1.15044e-05
9.33257e-06
1.81171e-05
1.26039e-18
2.52546e-18
1.55038e-08
1.10843e-17
2.99731e-06
1.08859e-05
1.89715e-05
1.38622e-05
1.17757e-05
1.43512e-18
3.14578e-10
7.35018e-07
9.52542e-18
1.30002e-19
3.6531e-05
2.48996e-05
6.32227e-18
7.46866e-06
1.26372e-05
4.82232e-19
1.02702e-17
1.66473e-07
2.69572e-19
1.77964e-17
5.21639e-08
1.52814e-18
1.80529e-05
1.31458e-05
4.46717e-06
9.28745e-18
1.39546e-05
4.36422e-18
3.436e-18
1.14362e-17
2.56149e-11
2.74859e-05
7.34865e-06
6.25543e-06
4.39065e-05
1.44954e-05
1.93861e-06
6.74821e-07
3.9427e-05
1.07736e-05
1.80182e-19
3.21512e-18
3.14281e-10
2.68234e-05
2.90399e-05
1.45403e-05
1.0113e-18
8.31604e-06
2.52256e-06
3.57231e-06
4.29782e-09
4.32921e-09
1.6028e-05
2.66715e-06
2.3396e-06
7.7191e-18
8.12058e-07
1.84555e-18
1.49848e-10
2.7124e-16
0.000294276
8.15112e-05
1.46008e-05
6.71891e-18
4.19453e-19
1.06613e-05
1.99724e-06
8.32276e-18
6.26291e-18
2.28821e-17
3.76903e-07
7.06172e-05
4.61137e-06
1.67195e-05
2.28681e-05
5.89088e-18
3.32404e-18
1.2188e-17
4.54563e-06
1.61089e-15
1.19451e-06
0.000222692
4.02825e-10
2.56826e-19
3.61709e-18
3.71581e-18
5.70507e-18
7.11717e-05
1.44223e-05
2.25685e-18
6.18014e-06
9.23112e-18
1.83916e-17
8.2353e-05
6.90215e-06
1.33558e-05
1.10409e-05
2.96454e-18
1.27215e-17
5.83368e-18
1.11225e-05
2.23845e-05
6.05443e-06
7.1181e-20
4.02196e-13
1.98407e-07
2.49909e-06
9.487e-06
4.50032e-08
3.39796e-05
6.54785e-19
4.48048e-05
4.16674e-06
9.26226e-06
2.95949e-05
1.6402e-05
9.38297e-19
1.69253e-17
3.55432e-18
8.54108e-18
3.77429e-05
1.13833e-05
4.05568e-05
8.05967e-05
1.44118e-18
2.2651e-05
9.70285e-19
4.68509e-17
1.96286e-05
1.16637e-18
8.49785e-05
9.55872e-18
4.14141e-20
2.78266e-05
8.38211e-19
1.64329e-05
3.47946e-07
3.84756e-19
1.22989e-06
1.94105e-05
3.03238e-18
1.05142e-05
1.13595e-05
9.62452e-06
7.49261e-07
3.27266e-06
6.86646e-06
1.26278e-17
2.95381e-17
2.131e-06
3.91543e-18
7.184e-06
0.000140689
1.43198e-18
8.10427e-18
3.21906e-05
1.37778e-07
9.75275e-06
2.58989e-05
4.29164e-18
5.31665e-05
2.31514e-05
2.38235e-20
9.70889e-07
2.98893e-06
1.91011e-18
1.37172e-17
1.33598e-05
6.26472e-06
2.55113e-17
2.79549e-18
3.65868e-11
5.6859e-18
1.42274e-05
2.75256e-18
1.34739e-18
2.05344e-05
2.11998e-09
1.48691e-05
3.51692e-05
1.36374e-19
4.53402e-17
1.69382e-06
3.44839e-18
1.72402e-07
1.63534e-05
0.000146941
0.00102678
1.48965e-17
3.2685e-06
5.60319e-07
5.73648e-18
4.6171e-05
3.82391e-05
2.00043e-18
9.09675e-12
1.12517e-07
1.6084e-17
2.92718e-05
2.9472e-05
1.71978e-05
8.49155e-19
7.99335e-07
2.20827e-05
2.75524e-05
9.87776e-10
1.19111e-17
7.20335e-13
9.8385e-19
1.62814e-08
3.74797e-05
5.12918e-18
1.03225e-05
1.0935e-07
3.10523e-17
5.717e-19
2.65564e-17
3.91523e-18
4.80273e-06
1.15474e-05
7.91552e-06
2.56914e-06
3.36195e-06
9.40467e-19
2.417e-06
5.09824e-17
4.78502e-05
1.99549e-19
3.51306e-18
9.99433e-18
4.29546e-05
6.90613e-17
7.8906e-18
2.31587e-10
2.28076e-18
1.12419e-17
1.23138e-06
6.19773e-18
4.25271e-17
3.75186e-19
3.23364e-18
5.74891e-18
1.32448e-17
4.62629e-18
8.64187e-06
3.18482e-18
6.07883e-07
2.24866e-06
1.18474e-06
3.38357e-19
9.75246e-07
2.76416e-18
6.88908e-18
3.38451e-06
2.19789e-06
3.31501e-05
2.95384e-05
2.47843e-18
2.45016e-06
9.65358e-05
1.02183e-05
1.23877e-06
3.97255e-06
1.18818e-17
2.79163e-05
2.36183e-17
5.83816e-06
4.69985e-19
9.01627e-05
8.15039e-18
2.57731e-05
2.89531e-07
3.71269e-10
4.17071e-18
2.44717e-06
2.90057e-18
9.57792e-05
5.80216e-05
9.87657e-18
8.36164e-18
8.49814e-18
2.02478e-19
1.68982e-12
6.53745e-05
9.08233e-20
3.13361e-18
3.03403e-06
3.72335e-19
3.98633e-05
6.00417e-18
3.83556e-07
4.48915e-17
5.99955e-07
1.24483e-09
1.23218e-06
1.56284e-05
5.72531e-18
4.82065e-07
9.20851e-19
8.21248e-19
1.83213e-05
5.08668e-19
3.76018e-08
2.41163e-18
1.89963e-06
1.78968e-17
7.79227e-05
6.09285e-18
8.81302e-19
2.06768e-05
4.07907e-06
2.06502e-06
4.77199e-06
8.04792e-06
2.49242e-05
2.0108e-18
2.91511e-05
7.53685e-06
1.94197e-18
9.57483e-11
4.70287e-05
1.76443e-05
1.5102e-18
4.87951e-06
7.76725e-06
1.98301e-06
1.31564e-06
2.30279e-13
1.63066e-05
1.40458e-06
1.66094e-07
2.90552e-05
1.64668e-05
7.95863e-07
1.6407e-17
3.87791e-12
0.000775997
4.0718e-18
4.34815e-07
1.58969e-18
4.49823e-17
8.81072e-06
3.52263e-06
2.48461e-10
1.72275e-08
1.31296e-17
2.00522e-05
1.32654e-05
2.97596e-19
1.41807e-13
2.42345e-06
1.24972e-18
1.3208e-18
1.29787e-19
9.89749e-19
1.61473e-05
1.60979e-18
2.37493e-17
1.06993e-05
2.40333e-06
8.99298e-17
1.25495e-05
2.73351e-18
1.01682e-05
2.01729e-18
1.62968e-17
6.42157e-05
2.88617e-19
5.08057e-19
4.57021e-18
5.35055e-06
5.54092e-18
3.54583e-05
7.50602e-06
2.71979e-18
0.000101874
2.98103e-06
3.37963e-05
3.31246e-05
6.31434e-07
9.63483e-08
1.31057e-17
6.54895e-05
5.48055e-05
4.31073e-18
3.81802e-07
4.76548e-05
9.06666e-06
1.74404e-06
3.27831e-05
3.10271e-05
4.97799e-18
1.282e-05
6.21638e-09
6.58729e-18
4.09581e-05
3.15558e-07
6.21287e-17
1.30865e-05
4.79854e-05
1.65477e-06
2.51139e-05
2.31005e-05
8.51621e-06
3.11799e-18
1.20902e-05
3.94025e-07
1.25335e-14
2.00935e-05
2.08443e-05
4.29375e-05
2.58566e-18
2.28345e-06
3.11761e-18
3.83453e-18
3.28582e-18
4.01293e-19
1.73327e-08
4.5602e-18
3.01963e-13
1.09569e-17
4.36436e-19
8.81632e-08
5.14354e-05
2.16298e-17
3.89816e-05
9.59233e-17
3.93853e-18
2.35918e-18
4.67671e-05
5.0019e-07
2.52396e-17
4.39021e-18
4.59603e-18
1.31466e-19
0.000255322
8.2773e-05
2.04024e-17
2.32403e-06
2.7486e-09
8.91281e-18
4.43331e-05
9.67727e-06
1.47124e-05
6.10965e-19
5.98158e-18
5.03425e-07
1.28955e-06
3.4193e-17
4.49908e-18
3.0305e-18
8.67784e-06
1.16624e-17
1.40669e-17
2.95222e-18
4.95003e-05
2.35361e-06
1.38328e-18
0.00470857
0.000359843
1.22781e-05
8.22428e-19
8.17722e-18
6.62402e-05
4.77163e-07
8.16359e-18
8.11909e-09
0.000145937
3.02408e-06
1.36249e-05
7.46728e-18
6.44209e-05
2.18229e-06
1.42448e-18
2.21219e-18
4.40023e-18
4.85946e-18
2.66782e-18
1.09414e-18
2.59095e-05
1.12288e-17
4.46077e-18
1.36254e-18
1.39224e-05
2.79122e-05
3.19167e-19
4.7423e-18
0.00012701
1.70041e-05
1.1343e-05
1.70396e-17
4.75838e-19
4.40778e-05
3.27434e-18
2.16101e-06
3.088e-06
4.54474e-06
4.62511e-18
3.19738e-18
3.97688e-18
7.36658e-19
1.80788e-05
4.50146e-19
1.07738e-17
1.17612e-06
4.7472e-19
2.71443e-05
2.1528e-06
1.54255e-18
4.42545e-05
0.00047153
2.9973e-06
3.49005e-05
1.78411e-07
5.3692e-05
1.17735e-13
6.32176e-18
2.78648e-05
8.40569e-05
7.303e-06
2.15708e-18
8.36747e-13
0.000864415
1.20278e-05
8.69604e-19
3.06495e-06
3.16783e-06
1.45992e-06
3.71976e-17
2.10173e-17
1.00125e-17
1.57104e-05
1.5715e-17
3.04045e-06
9.69585e-18
1.53668e-06
1.64944e-06
4.34421e-05
6.7147e-07
6.54579e-18
1.04017e-18
8.39198e-18
2.45739e-05
9.02307e-19
1.69606e-18
7.66517e-08
7.61303e-18
1.74457e-19
4.27851e-19
1.15446e-18
1.175e-05
1.62578e-18
5.12225e-19
5.95085e-13
1.91659e-18
1.28721e-18
1.35113e-16
9.20541e-19
3.49394e-09
1.91574e-06
1.60308e-18
4.65396e-06
8.52365e-09
3.60873e-10
7.51521e-08
4.9324e-06
6.36043e-19
1.12051e-08
1.17234e-05
4.69603e-07
2.16976e-18
2.34916e-12
9.88492e-07
8.38996e-19
1.14681e-05
2.27379e-07
2.02555e-09
2.84032e-05
1.10402e-05
2.69007e-06
6.12251e-06
2.40804e-06
2.65519e-19
2.12238e-19
3.87928e-05
3.09734e-05
1.82128e-17
9.86379e-06
6.45213e-05
3.39506e-05
3.53369e-19
1.56596e-06
1.99224e-18
1.2374e-05
1.6578e-05
7.69361e-18
1.86152e-06
5.56196e-07
1.45978e-09
5.8027e-06
2.85031e-19
5.82509e-05
1.81211e-08
1.8521e-06
3.95496e-08
1.45879e-08
1.12331e-18
8.90442e-19
8.58984e-06
5.11024e-19
1.38205e-07
3.11852e-07
3.04127e-07
5.94122e-11
8.30629e-11
5.44113e-10
1.18431e-18
3.66396e-17
2.7541e-05
1.13816e-17
1.96218e-07
2.47413e-06
3.2213e-18
5.50167e-18
6.84898e-10
1.06621e-12
7.04638e-20
5.63445e-09
2.13619e-18
4.28832e-18
3.93859e-18
5.59389e-17
4.49908e-17
3.70356e-17
3.4117e-07
2.67596e-19
1.80171e-19
9.52087e-18
7.36957e-09
6.43127e-08
2.17132e-06
1.11187e-05
3.78229e-20
2.11564e-19
2.0939e-07
3.44711e-18
1.46258e-18
1.56958e-16
2.23256e-05
5.0493e-05
2.72636e-18
6.74695e-19
5.26005e-19
3.54172e-18
7.93888e-20
1.4342e-17
8.54205e-06
3.25874e-19
5.89029e-11
3.1998e-05
1.71059e-18
1.17115e-17
8.07014e-18
3.06943e-08
9.66263e-18
6.03109e-18
1.55378e-18
1.04648e-08
8.5269e-18
5.35178e-06
1.15611e-09
6.29665e-12
6.16634e-19
8.54427e-08
2.49092e-06
5.29107e-05
1.35746e-17
9.20621e-09
6.85869e-06
3.25831e-18
3.39951e-19
2.11719e-17
5.8898e-18
9.92152e-06
2.04745e-06
4.02201e-06
2.03983e-10
6.56846e-19
2.65898e-05
3.15448e-18
1.58381e-18
8.14061e-17
1.01438e-18
3.12785e-05
2.30566e-18
5.79531e-17
2.16709e-09
6.09204e-05
1.65991e-18
2.94429e-06
5.79373e-18
1.04106e-06
8.3444e-19
2.28693e-18
2.84544e-18
1.18108e-18
2.96871e-06
7.34299e-07
0.000370049
5.74896e-19
6.9234e-19
2.46732e-06
9.37248e-19
9.61147e-18
4.3325e-17
4.47461e-05
1.04778e-08
3.78361e-05
9.29616e-18
1.18423e-08
5.51013e-08
1.81826e-17
1.38435e-07
8.67491e-19
1.5155e-06
3.06436e-05
2.42905e-05
1.49802e-06
2.92741e-07
5.65165e-18
2.62186e-18
2.46003e-18
2.46496e-08
4.19531e-19
8.53856e-06
5.61125e-18
0.000211226
4.66678e-20
4.94323e-05
3.78317e-06
3.66657e-18
7.35093e-19
3.14835e-17
2.61188e-18
4.76275e-05
5.7976e-17
5.35038e-17
1.43551e-05
7.9611e-06
4.68643e-18
2.03163e-17
4.96228e-18
2.66792e-17
3.04992e-18
2.14302e-19
2.99514e-05
5.09074e-07
5.41225e-18
1.53004e-18
5.7784e-10
4.56543e-17
1.87179e-06
1.31194e-07
2.62123e-19
4.03201e-06
1.1293e-17
4.40216e-07
4.4771e-18
1.26614e-06
3.30137e-18
9.63539e-11
2.51479e-09
7.84907e-07
2.09947e-05
3.9545e-05
1.3968e-09
1.70861e-19
5.76505e-07
2.08638e-17
5.39882e-06
1.43427e-18
9.82476e-19
9.13028e-18
2.65004e-18
3.55177e-19
1.54929e-17
8.33543e-06
9.34865e-06
1.20985e-17
2.01438e-16
4.93627e-18
8.69829e-07
1.64826e-08
1.08498e-17
2.17955e-05
2.22755e-07
5.19574e-18
2.77939e-05
9.81707e-06
4.19792e-06
1.41173e-05
6.42153e-18
4.42471e-18
6.18228e-19
2.71561e-18
4.39637e-05
4.52955e-18
0.000134606
1.89406e-18
3.56231e-07
8.71033e-07
1.369e-18
1.08765e-06
8.60162e-19
4.32539e-19
3.51868e-06
2.72149e-11
1.06735e-05
1.60132e-18
6.87982e-18
8.48176e-19
9.62838e-07
4.63627e-18
6.96266e-18
5.21023e-19
3.64727e-10
3.82878e-19
8.80991e-09
1.74444e-17
3.05636e-19
2.26058e-18
2.16994e-05
1.17991e-05
2.18445e-05
4.28646e-05
3.53537e-18
1.7708e-08
2.75258e-19
1.36787e-18
1.19313e-05
1.67139e-19
2.74557e-09
4.07566e-07
7.85202e-06
4.09991e-07
1.28125e-12
2.35515e-06
8.64962e-19
1.29955e-12
6.07102e-13
1.42792e-07
9.89304e-07
1.74949e-05
7.6997e-11
3.76416e-17
3.65413e-05
1.80569e-18
2.79035e-18
1.83248e-08
8.95142e-05
7.35325e-11
3.91576e-18
8.68337e-19
3.84308e-10
1.63712e-17
7.64015e-18
1.97437e-08
2.0938e-17
2.00488e-17
4.81576e-05
2.51008e-07
1.96789e-07
2.70879e-05
8.68022e-06
7.39634e-19
2.50118e-19
1.76754e-08
4.88528e-06
2.59145e-18
6.84039e-18
1.1795e-05
1.1901e-18
2.55353e-17
2.16798e-18
9.96755e-18
2.97593e-16
0.00308637
3.03471e-18
2.52347e-07
2.13343e-18
2.43259e-05
1.34987e-18
1.61479e-15
2.39136e-19
8.2389e-19
2.27559e-18
1.05205e-17
3.49309e-06
1.7525e-18
8.54042e-18
9.57714e-18
3.07876e-19
3.99383e-18
3.3156e-18
1.1693e-05
7.90057e-19
1.32739e-05
3.53934e-06
4.36693e-19
1.93502e-06
1.28369e-18
5.72621e-07
2.30288e-09
4.63543e-06
1.60572e-05
7.0514e-18
1.08756e-07
9.54897e-06
9.99227e-09
9.45683e-19
2.76105e-09
2.20692e-05
5.64519e-06
2.83662e-18
3.1206e-05
8.3374e-19
1.96369e-18
4.51659e-18
1.18605e-18
9.76593e-06
4.45582e-18
2.27009e-18
9.81395e-06
3.01298e-10
3.20114e-06
1.1354e-18
1.34026e-16
7.93036e-07
1.52485e-18
9.00131e-08
3.02907e-18
2.75192e-05
2.2566e-18
5.15244e-19
6.65712e-08
5.21757e-20
1.58792e-07
3.04764e-17
1.47913e-18
5.82317e-06
5.02466e-07
5.75092e-06
1.87899e-05
0.000263951
2.42203e-05
2.4335e-18
2.19273e-17
3.41517e-06
8.03594e-06
4.34249e-05
1.32671e-05
9.15719e-19
1.43821e-05
1.4841e-18
4.89824e-19
1.05699e-05
1.29044e-05
1.32751e-19
1.55896e-05
4.21445e-18
3.28821e-06
1.04027e-05
8.86645e-18
3.75163e-19
4.71971e-19
3.25537e-06
2.0255e-20
1.24766e-17
4.86046e-06
2.51122e-05
4.38245e-09
8.96558e-06
1.80344e-18
1.29092e-18
9.46704e-08
8.92238e-07
7.27202e-18
1.21673e-05
5.26035e-18
3.09788e-06
3.59375e-18
2.76486e-19
1.44563e-05
8.30601e-19
4.71323e-08
4.18382e-06
2.12969e-18
4.61083e-19
5.09886e-06
6.08357e-14
6.2813e-05
1.15393e-18
0.000312023
3.83522e-17
4.83774e-17
7.48222e-17
8.71329e-06
1.15514e-17
7.0959e-18
6.53733e-06
8.06473e-18
2.80735e-07
1.40525e-18
1.91417e-18
4.9617e-18
1.32328e-10
9.08625e-07
2.36747e-19
7.57094e-19
4.20369e-05
1.10312e-06
1.05974e-18
5.27876e-07
1.24768e-18
2.25902e-18
1.8811e-09
3.23113e-06
1.52431e-06
4.29439e-19
3.93726e-19
4.26266e-19
2.29232e-19
1.14748e-17
4.52884e-19
4.707e-19
1.58598e-18
9.88755e-19
1.28912e-19
4.34443e-19
5.99302e-19
1.41036e-17
8.68272e-19
3.75272e-19
4.75731e-19
3.42224e-19
6.7053e-18
6.21971e-18
1.47011e-18
1.16641e-17
2.1011e-05
2.31279e-18
3.02457e-19
9.62545e-19
7.73732e-06
1.09876e-18
1.04573e-18
0.000327028
2.09358e-18
1.44701e-19
2.73399e-05
3.9848e-16
4.68488e-19
8.45505e-06
2.88643e-05
1.9478e-18
2.94822e-06
4.48579e-06
1.23717e-17
1.54564e-05
4.66648e-05
2.09539e-05
3.90754e-06
1.2643e-05
3.15702e-18
3.28207e-18
3.46913e-06
1.24695e-05
3.70991e-06
4.23181e-19
7.58816e-06
2.03946e-06
2.48924e-05
1.23047e-05
7.98057e-07
1.81823e-05
1.26647e-06
1.1743e-05
9.81025e-18
2.99027e-05
9.89757e-06
1.99035e-06
1.55855e-06
3.83308e-18
3.35747e-18
8.53221e-18
4.1281e-18
2.74233e-18
1.09175e-05
1.59919e-05
8.41624e-19
5.74463e-19
3.22805e-17
1.61203e-20
3.27141e-18
7.01206e-18
1.029e-18
2.98971e-19
5.35253e-06
1.95147e-07
2.54507e-05
7.70822e-08
2.53582e-19
2.04915e-17
3.69801e-05
7.62059e-09
5.91251e-20
9.34764e-18
8.54694e-06
4.14803e-18
3.97545e-19
4.31071e-09
9.21577e-06
1.58858e-05
3.90741e-05
3.93081e-05
1.47478e-18
1.66954e-05
3.82586e-07
3.79157e-17
5.69567e-18
1.36685e-05
1.59038e-18
1.80351e-20
2.10398e-05
0.00123221
2.01742e-07
1.91572e-18
2.68284e-18
2.05998e-05
2.43607e-05
2.05117e-05
6.69814e-06
4.46754e-06
7.35613e-18
1.20861e-09
3.08844e-12
1.8857e-17
1.04716e-18
2.03426e-05
4.4484e-19
2.35415e-06
2.98732e-05
2.03543e-05
1.36585e-05
5.68579e-18
6.99016e-06
4.22035e-18
2.20105e-18
5.61474e-18
7.73225e-19
2.90874e-06
0.00101565
2.09527e-18
2.08437e-18
4.90412e-09
2.72948e-05
1.213e-06
8.04682e-06
3.85207e-05
5.55668e-06
2.36211e-05
7.252e-19
4.95384e-18
1.17162e-17
3.56131e-05
6.61173e-06
2.94258e-11
8.85871e-18
9.32877e-18
3.41866e-17
2.57356e-05
3.25784e-06
5.05066e-19
5.64188e-06
6.67843e-05
7.97872e-06
7.08998e-06
3.92318e-17
7.69836e-17
8.03192e-06
2.65099e-05
2.55012e-18
3.79195e-07
1.67971e-05
1.15313e-06
1.07571e-05
5.36213e-06
9.35442e-06
1.27777e-16
3.93326e-06
2.39084e-05
4.2729e-05
5.4611e-13
2.65922e-05
1.38572e-16
1.9119e-05
1.78446e-07
8.26927e-19
2.96914e-06
8.56633e-06
4.24415e-07
1.32009e-05
7.25211e-10
1.59713e-07
1.79943e-08
4.46122e-05
4.14815e-06
6.30945e-18
4.49167e-05
1.45451e-06
6.11269e-19
3.95907e-20
4.66108e-11
1.08218e-08
1.18348e-06
0.00127571
4.03558e-05
1.32747e-05
2.49113e-10
5.05382e-05
9.88375e-18
4.03053e-18
4.62059e-06
1.65807e-17
2.45544e-06
5.13603e-06
2.44828e-06
5.35145e-06
2.2803e-18
2.39977e-07
0.000124804
1.30861e-18
2.63972e-05
8.51028e-06
9.35192e-18
4.5412e-06
1.83246e-07
2.33437e-18
7.98302e-12
1.07386e-07
1.06438e-18
5.21196e-19
4.5638e-19
5.0159e-06
5.34934e-06
1.63105e-05
1.64809e-17
5.8014e-06
3.77098e-05
1.8788e-18
9.112e-06
1.40913e-05
2.80897e-05
1.73948e-06
1.17623e-18
6.83757e-07
1.08396e-05
1.18841e-05
1.0169e-05
4.32494e-05
0.000186485
3.86031e-06
1.84981e-17
8.18683e-09
5.84399e-05
1.48331e-18
4.80655e-07
6.77268e-18
1.99595e-19
5.23666e-19
3.08965e-18
1.67173e-18
3.66519e-06
5.00315e-18
8.06308e-06
1.37706e-06
1.32192e-18
4.48958e-06
1.29218e-17
1.62296e-05
2.77157e-18
2.2401e-08
4.67116e-18
2.49939e-05
1.73651e-07
2.59544e-09
4.68066e-06
3.29017e-05
1.93039e-05
4.41509e-06
3.05499e-05
6.13356e-15
2.53333e-05
6.18467e-05
1.0529e-05
6.42397e-18
1.30111e-06
3.10651e-07
6.29464e-06
1.20754e-05
7.00511e-07
1.68414e-17
8.47354e-18
2.02333e-18
4.18405e-06
8.48398e-18
2.44433e-07
2.51455e-07
1.51182e-06
3.19068e-07
6.1054e-19
7.26133e-17
6.87123e-18
9.74677e-06
2.44868e-05
1.43184e-06
1.02778e-08
2.15311e-06
7.73099e-06
2.25627e-06
9.3391e-07
7.83557e-06
6.71709e-06
2.94087e-06
1.55833e-19
8.14733e-19
5.25954e-18
1.52069e-05
1.22503e-05
1.34834e-18
1.59339e-18
1.94184e-17
9.33917e-06
2.15356e-05
4.78933e-18
2.41998e-06
2.63882e-17
6.87171e-10
5.4708e-06
9.93346e-05
7.68616e-18
8.81023e-19
4.20099e-06
2.94955e-18
7.08178e-08
1.337e-05
7.59938e-18
1.21412e-05
3.71709e-05
2.0717e-05
1.57779e-18
1.42913e-06
1.58969e-18
9.36213e-08
5.54137e-05
8.72171e-18
3.02517e-18
1.24173e-05
2.47648e-16
1.1036e-17
4.77717e-08
1.12692e-06
1.70606e-17
5.70238e-19
4.91149e-18
6.6669e-08
1.40668e-06
3.56908e-06
2.84227e-05
1.05016e-05
9.55689e-18
7.82276e-10
7.20502e-07
1.51299e-17
2.71467e-19
8.47815e-18
1.74655e-18
4.25708e-18
3.90097e-18
5.27841e-18
4.50742e-18
4.85516e-18
2.87196e-18
3.69284e-12
1.07967e-17
3.96756e-07
2.21151e-17
2.389e-07
1.3339e-16
6.45411e-08
1.01211e-16
1.57048e-17
3.12983e-05
1.02822e-05
4.10955e-17
0.000101312
6.78884e-12
2.90766e-13
1.36702e-18
1.45315e-06
5.9252e-15
3.01168e-06
6.93547e-09
9.97295e-07
5.37888e-18
1.8557e-18
9.85979e-07
3.08971e-11
4.86841e-18
5.78031e-18
4.39378e-05
4.98623e-18
4.17499e-05
1.21664e-18
1.19857e-19
1.87297e-09
3.1654e-05
9.1769e-06
4.12407e-18
3.6633e-07
5.16088e-18
3.15119e-06
1.97537e-08
2.05961e-06
1.02083e-06
8.23865e-18
2.29413e-05
1.29367e-06
5.80887e-06
4.44774e-18
8.32733e-18
1.37717e-18
1.86376e-05
4.46963e-06
5.77949e-05
1.12432e-17
4.86244e-10
9.55831e-19
8.44441e-19
1.40115e-17
6.06129e-19
3.55957e-06
2.37223e-06
3.27015e-06
0.000357388
1.13684e-17
3.12414e-05
4.01028e-05
1.96779e-05
1.85708e-06
1.36752e-18
6.05485e-06
4.92596e-06
5.53631e-06
4.28842e-10
1.14146e-05
2.12473e-18
1.77155e-06
1.36265e-06
3.6744e-05
1.25262e-09
3.64448e-06
3.07636e-18
2.09118e-05
1.36617e-18
4.05866e-17
1.85231e-06
1.02329e-17
7.13326e-06
1.51368e-19
5.73965e-18
1.09262e-17
1.22201e-18
1.31576e-17
8.74529e-07
1.25043e-17
6.36158e-07
1.04466e-18
2.23393e-18
2.05046e-05
6.14991e-06
8.79217e-06
8.59186e-06
3.94165e-18
0.000661239
5.83845e-18
7.86691e-05
8.54166e-18
2.02873e-05
2.60713e-05
2.61096e-06
6.40591e-05
1.34129e-17
1.84526e-16
1.18486e-17
2.43944e-06
6.82178e-19
2.26873e-18
1.99049e-05
4.93392e-19
2.63717e-19
5.88899e-06
8.51899e-18
1.43766e-05
7.72554e-11
1.5987e-18
4.14702e-17
2.04954e-17
1.81346e-06
7.5403e-06
6.06767e-18
2.56628e-05
3.72051e-07
9.73684e-18
0.000116434
4.82418e-17
1.7816e-05
2.03024e-05
3.88791e-06
1.78737e-17
2.01021e-05
1.08248e-05
9.3453e-07
5.86744e-06
1.41104e-05
4.14046e-17
5.93377e-18
1.98192e-09
3.4339e-18
9.60709e-19
1.04203e-19
2.21105e-05
4.98378e-05
4.96721e-06
2.37544e-06
1.79866e-18
5.56622e-05
5.17309e-05
4.79504e-06
2.81586e-06
1.03853e-05
2.36334e-05
2.95352e-06
1.02528e-18
2.73948e-19
1.8987e-19
7.63146e-06
4.1143e-18
2.81266e-05
3.7641e-18
8.44111e-07
5.90573e-10
2.93085e-06
2.51515e-05
5.80985e-19
2.83976e-18
2.76054e-06
4.06309e-07
3.40579e-17
3.22536e-18
1.22285e-18
3.71639e-08
3.4583e-07
1.59663e-07
9.13426e-07
1.12473e-05
9.87159e-05
1.9709e-18
2.52231e-17
2.21002e-17
4.28056e-06
2.06162e-05
2.27e-05
3.93443e-05
2.07513e-06
3.22809e-06
2.33744e-18
4.29334e-17
1.85735e-16
2.42849e-19
1.07624e-05
2.52733e-05
3.6501e-18
1.16919e-18
4.08054e-18
1.2686e-17
4.87342e-18
3.36717e-17
1.53104e-05
1.15804e-17
1.14523e-06
0.000450015
6.42365e-19
1.64305e-08
2.58563e-05
8.07669e-07
1.14839e-17
1.14289e-19
5.47003e-06
1.0337e-17
1.5959e-05
1.24324e-09
2.74983e-05
5.86682e-18
3.01089e-15
7.79458e-21
4.62249e-20
3.49911e-18
6.97371e-18
0.000225341
1.02823e-18
6.55568e-06
1.37291e-06
7.32481e-17
2.62023e-17
2.17994e-06
1.31318e-18
8.79267e-19
1.5145e-05
1.3087e-07
2.82499e-18
2.48472e-17
6.41868e-18
1.89631e-05
1.04376e-18
1.6842e-17
4.47984e-07
2.90927e-06
3.42011e-06
1.62126e-17
3.88386e-19
9.57654e-18
4.23423e-06
2.05467e-06
1.45291e-05
4.13604e-06
1.9942e-18
8.96226e-07
1.3822e-05
7.31705e-06
1.48579e-18
8.1737e-18
1.81997e-17
1.24269e-17
8.86317e-18
3.5308e-05
6.11496e-06
6.08552e-06
2.49146e-18
3.77703e-18
6.1883e-18
5.51603e-18
6.56377e-19
1.06274e-09
2.81144e-07
2.59456e-06
7.28075e-19
1.12181e-17
4.14211e-17
2.88088e-12
3.89798e-05
0.000128941
2.43881e-18
8.88111e-13
2.06049e-14
1.00465e-17
4.21214e-18
4.34717e-06
7.62665e-06
4.14388e-19
1.49545e-17
3.2742e-06
2.99543e-17
8.01203e-07
1.27136e-06
0.00242668
5.72188e-19
8.24575e-19
1.39959e-05
5.85646e-07
1.40904e-17
0.00076978
6.6811e-07
7.44658e-06
3.06751e-18
1.83092e-19
3.50644e-17
7.30869e-18
9.02502e-06
1.09147e-07
1.89397e-18
2.8619e-05
2.15921e-05
0.00100185
1.16978e-18
8.28049e-20
7.66981e-18
6.99041e-19
7.32466e-06
7.08253e-11
2.08235e-18
5.7981e-17
2.13494e-05
1.08342e-06
5.70016e-06
8.04458e-18
2.0381e-17
3.28214e-05
1.03912e-17
5.41074e-18
1.1343e-18
5.78289e-18
2.52733e-05
1.88161e-18
9.9276e-19
4.74157e-18
2.89764e-05
1.41417e-05
5.75612e-20
8.63142e-19
1.00887e-18
1.7549e-05
1.93168e-10
4.15896e-18
1.53547e-18
5.23464e-18
1.90225e-18
2.71718e-06
1.22805e-05
1.03451e-18
2.35397e-06
1.22762e-06
5.32327e-06
1.16966e-16
2.86846e-17
2.71588e-18
8.89045e-18
3.80673e-21
2.29959e-05
1.10013e-17
1.69258e-05
1.9761e-18
1.70117e-06
1.60281e-16
2.62381e-06
5.56166e-18
4.074e-19
1.23495e-05
0.000198783
8.89165e-18
3.94677e-06
9.65454e-18
4.27633e-07
1.37489e-17
2.07702e-19
1.88755e-18
2.20058e-10
1.38329e-18
3.67465e-07
4.42387e-18
4.03217e-05
2.16043e-18
3.42895e-17
1.79129e-18
2.86305e-18
8.9627e-09
1.50741e-07
9.10913e-20
6.1314e-06
2.79644e-18
3.29745e-06
2.16195e-05
1.39017e-06
1.0862e-18
5.08889e-09
4.81368e-07
2.33222e-09
5.05369e-06
3.91418e-10
1.83006e-06
4.33563e-18
1.52574e-18
4.82489e-10
6.34905e-06
2.61617e-07
3.10706e-18
3.15474e-18
5.46742e-18
0.000640445
2.4503e-18
4.24537e-19
1.15084e-17
5.26661e-19
9.86382e-19
4.09578e-08
1.95242e-07
1.13621e-06
7.39242e-08
1.03621e-15
1.60807e-06
1.27869e-19
6.51507e-06
5.03564e-18
3.87249e-19
4.76255e-19
2.48938e-17
2.23776e-08
2.99776e-18
7.95241e-18
1.56572e-17
1.66415e-05
2.50683e-18
3.69861e-18
1.24425e-05
3.27307e-18
7.67677e-05
0.00013475
0.000620442
3.76342e-18
0.000231216
0.00135528
0.00143281
0.000754186
3.771e-18
1.11499e-18
5.5116e-06
5.34893e-06
5.45457e-18
9.33658e-06
1.28232e-18
3.63683e-05
9.13123e-18
3.65759e-19
7.65128e-07
4.88563e-18
1.04463e-17
1.12245e-08
4.36374e-08
2.06996e-19
2.75312e-19
2.80215e-09
8.56892e-18
5.89526e-18
2.31496e-08
9.28846e-06
1.64164e-06
7.4796e-18
8.53744e-06
3.15152e-17
3.94684e-06
4.44225e-10
8.01447e-06
1.43116e-18
1.54872e-11
6.20852e-06
2.26885e-17
1.62352e-12
5.17805e-19
3.64598e-05
2.3329e-17
1.10619e-05
4.48739e-18
2.00706e-10
1.47496e-19
4.55867e-18
1.35344e-18
8.03412e-13
4.98196e-13
1.83448e-17
1.37286e-05
9.89229e-06
4.32006e-18
5.79972e-17
3.70676e-05
1.98254e-05
0.00020592
9.24749e-18
7.37315e-08
2.80644e-05
5.18913e-05
6.80124e-11
1.10417e-18
6.42135e-05
2.87652e-18
0.000254362
8.74015e-18
3.80595e-11
3.84381e-11
3.99675e-18
5.6979e-08
5.83518e-19
2.3808e-05
2.49732e-19
1.74518e-18
2.04761e-18
5.65394e-17
2.58318e-18
1.68164e-17
3.38938e-07
2.0696e-06
0.000152014
2.78292e-18
1.33376e-18
4.60196e-05
2.32773e-18
6.00695e-20
3.02676e-18
3.16251e-18
2.9181e-17
6.41804e-06
3.94636e-19
3.98917e-18
3.50805e-19
3.58499e-06
2.36777e-17
1.14162e-18
6.79645e-18
3.51243e-06
1.52749e-18
6.64767e-06
0.000255644
5.63212e-06
5.84794e-06
2.91186e-05
1.04598e-18
1.25414e-18
7.55173e-19
3.32224e-06
1.97711e-06
1.17265e-19
4.39419e-17
6.37078e-07
7.5199e-18
8.81749e-18
0.000371196
2.74813e-18
2.45746e-05
3.74405e-18
2.58211e-06
3.77661e-06
3.43361e-18
7.86019e-19
1.15724e-18
1.5011e-17
9.13631e-18
2.10989e-05
1.53343e-18
5.00239e-06
1.10574e-17
5.70316e-18
7.36724e-06
1.71676e-18
1.44088e-05
2.3089e-17
2.90689e-19
2.63944e-06
8.65451e-08
0.000155053
1.13074e-16
7.08427e-18
1.02179e-17
4.06619e-06
0.000198208
4.54177e-18
9.14485e-19
2.37798e-18
1.64101e-06
7.04474e-19
2.21684e-05
3.40403e-05
2.40005e-17
9.17237e-19
7.75122e-06
1.02126e-18
7.46322e-18
7.06997e-19
1.97333e-17
7.60453e-18
7.48031e-05
1.17348e-16
1.46038e-18
9.9222e-18
3.89106e-17
4.85169e-18
2.93679e-17
8.44908e-19
1.75716e-18
5.8505e-18
8.6327e-06
2.83402e-18
8.9405e-06
9.72125e-17
2.16874e-18
0.00064397
2.88679e-06
1.53886e-18
1.63647e-18
6.04378e-19
2.55578e-06
1.55801e-17
1.34482e-17
8.47106e-18
1.29273e-18
7.68668e-06
9.20265e-19
5.23916e-06
1.65173e-19
1.08161e-05
4.11803e-18
6.31267e-05
5.42307e-18
5.4073e-18
2.28848e-05
2.08839e-18
1.59401e-19
2.98697e-05
3.09108e-07
2.01938e-18
2.95324e-18
4.11351e-05
1.13796e-05
6.86683e-06
8.79222e-07
1.91863e-06
1.8847e-05
1.03578e-06
5.53331e-06
1.93276e-17
3.10047e-05
7.78166e-18
1.22225e-18
6.01517e-19
1.14987e-17
7.39189e-17
1.09783e-05
8.07756e-18
7.2876e-19
8.94912e-18
2.65935e-09
1.07634e-08
3.15529e-17
2.6258e-06
2.11215e-17
4.65028e-06
1.51657e-19
1.26893e-09
4.00154e-06
2.1854e-16
4.9409e-05
3.41002e-18
1.3944e-17
4.35323e-19
3.14924e-06
1.4642e-06
1.41405e-18
6.64075e-19
2.6714e-06
1.0981e-17
0.000726209
5.96269e-18
0.000110614
6.56242e-18
1.35189e-19
7.48357e-18
6.1824e-18
1.0728e-05
2.65576e-18
4.48285e-08
3.0016e-18
1.07406e-05
1.127e-17
2.54802e-18
7.29662e-15
5.48061e-17
5.13435e-19
4.30628e-18
5.60187e-17
1.57468e-17
4.76614e-06
0.000215806
1.15681e-17
1.46186e-17
4.133e-07
2.33266e-19
3.08026e-18
1.35726e-09
1.89725e-05
1.66468e-07
2.0774e-19
7.25016e-07
3.74848e-06
5.60185e-06
9.30164e-06
5.2447e-18
1.94684e-18
3.26691e-18
3.02012e-17
2.21855e-18
7.10019e-18
6.08909e-18
3.55764e-17
6.00637e-18
5.85134e-18
1.91685e-17
1.81508e-18
8.2948e-05
5.24462e-19
7.83546e-19
5.09604e-13
2.56979e-17
5.5845e-18
0.00122169
1.98904e-18
8.67481e-19
2.09005e-06
1.71204e-12
2.17514e-18
5.07129e-18
9.56656e-20
2.49599e-05
5.87726e-18
1.19309e-17
5.45728e-11
1.15993e-20
4.0277e-18
9.09057e-19
3.73919e-17
0.000125927
1.92129e-18
1.9638e-07
3.83672e-18
2.82211e-17
4.48934e-19
1.23929e-17
1.27806e-18
2.36518e-11
4.55185e-11
1.29535e-07
1.61598e-18
1.96197e-18
3.17812e-17
1.13844e-10
3.41183e-19
3.28147e-10
1.42022e-11
8.71541e-19
1.68433e-18
1.40885e-17
6.2392e-12
5.04295e-18
2.18129e-18
2.39751e-12
1.7775e-17
3.51689e-05
2.13421e-18
7.60978e-06
6.73689e-18
2.55959e-09
1.45454e-17
1.66635e-06
1.00853e-18
4.76307e-06
2.79032e-05
4.33277e-18
2.88804e-06
1.48174e-08
6.45044e-18
1.16827e-05
3.06984e-19
5.01339e-19
2.19085e-19
1.95111e-18
1.90363e-17
8.05883e-19
2.76997e-18
2.72332e-19
0.000314587
1.36615e-18
7.31844e-18
1.87437e-18
1.01093e-18
5.07963e-19
3.56313e-05
0.000926072
3.37701e-09
1.36023e-08
6.21091e-19
2.25873e-06
1.53882e-06
7.50761e-18
2.52517e-18
6.37818e-18
1.19487e-18
2.90646e-18
3.79353e-18
3.08867e-18
2.1674e-18
4.55889e-07
5.29245e-17
4.46436e-18
2.26709e-07
3.62267e-09
3.01926e-18
2.99018e-05
1.66306e-17
6.89484e-19
8.93456e-19
0.000197646
5.22924e-17
1.20704e-19
2.86544e-05
2.57265e-18
3.84596e-17
5.37468e-19
3.98652e-18
6.17851e-05
5.68951e-18
3.37804e-18
1.9096e-18