/*--------------------------------*- C++ -*----------------------------------*\
  =========                 |
  \\      /  F ield         | OpenFOAM: The Open Source CFD Toolbox
   \\    /   O peration     | Website:  https://openfoam.org
    \\  /    A nd           | Version:  10
     \\/     M anipulation  |
\*---------------------------------------------------------------------------*/
FoamFile
{
    format      ascii;
    class       volVectorField;
    location    "6.6";
    object      U;
}
// * * * * * * * * * * * * * * * * * * * * * * * * * * * * * * * * * * * * * //

dimensions      [0 1 -1 0 0 0 0];

internalField   nonuniform List<vector> 
111485
(
(2.88794 -2.88849 0.00323094)
(8.41577 -0.021989 -0.0484265)
(8.29478 0.0195579 0.0258947)
(2.8891 -2.88981 0.000226533)
(8.61748 0.0375755 -0.00299612)
(3.01446 3.01277 0.000197986)
(8.46998 0.0245621 0.00212201)
(8.69876 -0.0237528 0.0123093)
(8.47439 -0.00550568 0.00601744)
(8.67131 -0.093274 -0.040226)
(8.34462 0.0198975 0.0246155)
(8.73067 -0.0204848 0.0404901)
(8.22327 0.00663413 0.0185595)
(8.30237 -0.017668 -0.0597487)
(8.41868 0.0330053 0.0178457)
(8.5961 -0.0577498 -0.0465862)
(8.46422 -0.00837466 0.0121583)
(2.97622 -0.2325 0.447569)
(8.63959 0.0245269 -0.0189154)
(2.86834 -2.8644 -0.00150172)
(2.87342 -2.87309 -0.00332089)
(3.02202 3.02117 -0.000139888)
(8.54523 0.0289283 -0.00870099)
(8.67793 -0.0569359 -0.0169554)
(8.50493 0.0341315 -0.0103597)
(2.9116 -2.89863 -0.00313548)
(8.76989 -0.0415298 0.0456689)
(8.30504 -0.012633 0.00311656)
(8.66496 0.0148867 -0.0199637)
(2.87868 -2.88032 8.96442e-05)
(8.73537 0.143981 -0.0380238)
(8.6259 -0.0183108 0.00246062)
(2.86651 -2.87268 0.00424659)
(3.01851 3.02456 -0.00735368)
(3.02895 1.25863 0.486735)
(3.03723 3.0575 -0.044474)
(8.6942 0.142132 -0.0574805)
(8.407 0.0308175 0.0735663)
(8.65403 2.61752 0.146394)
(8.62941 0.0423251 0.00404854)
(2.98128 3.00838 -0.0211374)
(8.72615 0.0100281 -0.0499382)
(8.62125 0.0443908 0.0156477)
(8.31816 -0.0503324 0.000838517)
(8.70005 -0.153431 -0.0788446)
(2.89714 -2.87567 0.0150122)
(8.72542 -0.0411491 0.0418054)
(8.66533 -0.0528164 -0.0161553)
(8.72651 0.00373585 -0.037937)
(2.87233 -2.83699 0.0164065)
(2.85651 -2.83057 0.0183737)
(3.43367 2.8869 0.0501734)
(2.84805 -2.83685 0.00954867)
(8.71295 0.0391994 -0.0727799)
(2.84058 -2.82902 0.000829334)
(8.61113 0.0226745 -0.00772834)
(8.61446 -0.0361034 -0.0175411)
(3.02183 3.01616 0.00173696)
(7.85812 -0.0179352 -0.137655)
(8.65436 0.0356943 -0.0050984)
(8.65261 0.0395876 -0.00359955)
(2.87962 -2.88518 0.00365024)
(8.02304 0.00904438 0.0525593)
(8.75616 -0.0225629 0.0680325)
(3.11625 2.82389 0.00461924)
(7.90257 0.0176117 -0.0149432)
(6.07484 -0.489689 0.215482)
(8.6805 -0.0309864 0.0120419)
(7.83219 0.00350518 0.0230473)
(7.41437 -0.0143836 0.00383721)
(8.37753 0.0513156 -0.0432865)
(7.77218 -0.00857512 0.0250305)
(3.1175 -2.80739 -0.0646784)
(7.93662 0.0144248 0.0610353)
(2.88563 -2.88468 -9.38306e-05)
(8.63822 -0.0197578 0.00910084)
(3.02138 3.02121 -0.000689921)
(8.71661 -0.0189434 0.0459493)
(3.02029 3.01855 -0.000436985)
(2.71913 2.65256 -0.0905663)
(8.40075 -0.129419 0.0876268)
(8.67549 0.0346728 0.00686677)
(3.01014 3.00285 -0.000152389)
(2.88615 -2.88617 0.00168617)
(8.17099 -0.00252135 0.0162983)
(7.83788 0.0218801 -0.0313432)
(6.72258 4.36243 -1.17246)
(8.59787 0.101584 0.00973653)
(8.28334 0.213989 0.18327)
(8.38575 0.0106894 0.0234589)
(8.8688 0.176077 -0.112721)
(8.62607 -0.0149278 0.0144969)
(8.07038 -0.0132213 0.03132)
(8.20905 -0.00915807 0.00776521)
(8.73714 0.0260456 -0.0538278)
(2.88603 -2.88549 -0.000790835)
(2.88089 -2.88011 0.00165755)
(8.59456 0.0948573 0.0298527)
(8.86025 -1.75149 0.124944)
(8.05319 0.0295431 0.0523214)
(2.8861 -2.8865 0.00140612)
(8.64091 -0.046497 0.00499715)
(3.03419 3.03928 0.0166232)
(8.57103 0.000697057 -0.00462266)
(8.49301 -0.0439719 -0.0540821)
(2.96378 2.65007 -0.062703)
(3.02093 3.01986 -0.000600117)
(8.63206 -0.0225592 -0.00226665)
(7.98179 -0.0440345 0.00991721)
(7.64861 -0.227136 -0.241915)
(8.17197 -0.00758756 0.0181392)
(8.57712 0.0122143 -0.00467029)
(8.00286 -0.00556225 0.0319177)
(7.8809 -0.0408542 0.0166664)
(2.91369 -2.8981 0.00256389)
(7.58428 -0.00693532 0.0225703)
(2.89728 -2.88811 -0.00358646)
(3.03453 3.02162 0.012551)
(8.43273 0.0320399 0.0246269)
(2.88847 -2.88639 0.000938545)
(2.91285 -2.89776 -0.00119259)
(3.97543 3.12651 0.186165)
(2.98935 3.00176 -0.00518595)
(3.02739 3.02014 -0.00718933)
(8.24194 -0.0204533 0.0396038)
(2.3075 -1.62561 -0.427908)
(3.78951 3.25898 0.11525)
(7.65888 -0.00223146 0.0363486)
(2.8858 -2.88461 -0.00107485)
(8.6771 0.649208 -0.234936)
(8.66605 0.17005 -0.0863217)
(8.57879 0.0972703 0.0292989)
(2.87305 -2.86568 -0.0140491)
(3.89252 3.38441 0.349765)
(3.63198 3.24027 0.153076)
(8.66169 0.0260464 -0.015783)
(3.02328 3.02308 -0.000857161)
(8.59552 0.0199485 0.00139646)
(8.5419 0.0397806 0.023079)
(8.39725 0.0377776 0.036249)
(6.58692 0.000731869 0.0268398)
(8.60943 0.0447776 0.0107139)
(8.53719 0.0442507 0.0282062)
(8.14122 0.0082129 -0.0333885)
(8.51003 -0.0161288 0.00773113)
(8.41175 -0.00448603 0.0208858)
(3.02386 3.0242 -0.000636063)
(2.88595 -2.88732 0.000288806)
(3.01545 3.01722 0.00628975)
(8.61425 0.038298 0.00717273)
(8.1459 0.0140682 -0.0302837)
(2.87535 -2.87401 0.00155102)
(5.62075 -0.032869 0.0564438)
(8.40014 0.0402388 0.0188488)
(9.19975 0.368577 0.161803)
(8.66059 0.0255937 -0.0165786)
(8.62116 0.0264734 -0.00635331)
(7.99729 0.00318441 -0.0162355)
(9.28386 0.451679 0.111338)
(2.87001 -2.89705 0.0112194)
(2.88402 -2.88668 0.00292901)
(8.6459 0.0245152 -0.0164705)
(8.47065 -0.0297636 -0.0308601)
(9.34479 0.50959 0.121418)
(9.21662 0.445838 0.167388)
(8.01973 0.0105042 0.0424596)
(8.62778 0.106651 -0.0388699)
(2.98338 3.00836 0.00050308)
(9.45525 0.630552 0.149862)
(9.01914 0.453189 0.138612)
(3.01897 3.0207 0.000930705)
(2.88057 -2.87993 -6.86204e-05)
(6.8945 0.00701919 -0.0568138)
(3.02219 3.02363 0.00035426)
(8.58037 -0.0184076 -0.00350379)
(8.26262 0.00332789 -0.0173666)
(3.02121 2.94873 -0.0167887)
(3.12061 -2.8648 0.0316286)
(2.87973 -2.86481 -0.00471858)
(2.9778 2.81161 -0.0293389)
(3.13565 -2.88914 0.0492029)
(2.88359 -2.88537 0.00271807)
(8.59329 0.0332907 0.00937203)
(8.60817 0.0202434 -0.0160944)
(8.57716 0.0260966 -0.00883074)
(8.46625 -0.025665 0.0305375)
(8.16293 -0.0207333 0.00689103)
(8.19098 0.013415 0.0251004)
(7.27316 0.0940604 0.0101105)
(2.88078 -2.87167 -0.00112502)
(7.93337 0.000991151 0.00978814)
(3.11301 -2.88763 0.0312713)
(2.90704 -2.91206 -0.00141354)
(8.25854 0.0153527 0.0286591)
(8.6753 -0.103994 -0.0377297)
(8.59487 0.0167853 -0.0392591)
(8.2568 -0.00859579 0.0108051)
(8.40262 -0.0035529 0.00964818)
(2.88053 -2.8758 0.00721313)
(8.24541 -0.0348865 0.00910769)
(8.2175 -0.00822276 -0.0509594)
(5.75373 1.83399 0.234496)
(8.42372 -0.0683826 0.00550778)
(8.54349 -0.0133972 0.00747606)
(2.89437 -2.87825 -0.00470019)
(8.22368 0.0202568 0.0287495)
(8.63293 0.0197776 -0.00726504)
(3.16674 -2.85263 0.0133612)
(8.28546 0.0204747 0.0314708)
(8.69737 -0.00758657 0.0446262)
(8.14087 0.00892044 -0.0345902)
(8.19972 0.0224192 0.0385819)
(3.13285 -2.89832 0.0402657)
(2.87888 -2.87923 -0.000783233)
(8.19738 0.0238344 0.041564)
(5.37546 3.37373 -0.333606)
(8.79535 0.0381161 -0.0857768)
(3.02076 3.02162 -0.00196438)
(8.24885 0.0165406 0.0329569)
(8.25586 0.00577121 0.00470905)
(8.74663 -0.027482 0.0547548)
(2.8881 -2.88673 0.00119574)
(7.70946 -0.00321084 0.0198954)
(8.64383 0.125191 0.0655613)
(4.75044 3.19026 -0.348513)
(3.02234 3.02268 -0.00216585)
(3.01905 3.02067 0.000860504)
(8.83644 -0.0550679 0.0843344)
(8.24959 0.19432 -0.0247695)
(3.17612 2.68152 -0.062442)
(3.5782 -2.77272 0.113428)
(8.28035 0.00777779 0.0147189)
(8.54856 0.0141727 -0.00104105)
(8.63243 0.0189919 0.00814825)
(3.12965 2.72343 -0.0803265)
(3.04502 -2.80363 -0.01087)
(8.31681 0.100365 -0.119293)
(2.88529 -2.88517 0.00177089)
(7.88964 0.0100696 -0.0495346)
(8.18816 0.00504017 0.0337893)
(8.27699 0.00363353 0.0181874)
(8.28742 0.0166284 0.0212631)
(8.32067 0.00893918 0.0283878)
(3.01082 3.01143 0.00942148)
(6.27154 -0.0181664 -0.240117)
(8.42145 0.0271491 0.0263287)
(3.00612 3.01136 -0.00384102)
(3.02138 3.02207 -6.10544e-05)
(8.7756 -0.105553 -0.00975771)
(8.57333 0.0388217 -0.0127216)
(3.09286 2.63521 -0.0824456)
(7.81784 -0.00457423 0.021774)
(8.4012 0.0220845 0.02202)
(2.88761 -2.88626 -0.000909783)
(3.81971 3.60299 -0.0243311)
(8.63645 0.0804291 -0.0354833)
(2.89898 -2.86163 0.0020092)
(3.20695 -2.27673 -0.0543131)
(4.40576 -1.54173 -0.154655)
(2.89065 -2.88245 -0.00149652)
(8.45162 -0.0141164 -0.0170683)
(8.21806 -0.0134863 -0.015597)
(8.55624 0.0139035 -0.0225339)
(2.88402 -2.88443 -0.000269162)
(8.46549 0.0244864 0.0201625)
(2.88909 -2.88976 0.000120698)
(2.88831 -2.88934 0.000772426)
(2.88044 -2.86924 0.00475799)
(5.79338 0.0222236 -0.089668)
(8.70096 -0.0416152 0.0484281)
(8.27981 0.030795 0.042699)
(8.43792 0.0280858 0.013587)
(8.73019 -0.0509038 -0.00104403)
(8.39887 0.0126094 0.0143794)
(8.60773 0.0311878 0.0110033)
(8.67227 0.1474 -0.0143011)
(8.4861 0.011816 -0.00376686)
(8.55786 0.0146521 -0.00460507)
(3.07344 3.02425 -0.00140341)
(2.87693 -2.87685 -0.00367589)
(5.29631 0.0329265 -0.128724)
(8.60618 -0.0187078 0.00247498)
(8.67804 0.0662596 0.0709245)
(8.19641 -0.0113221 -0.0132232)
(2.8887 -2.88698 0.000935178)
(8.56271 0.0274375 0.0158661)
(8.59804 0.044073 0.0211936)
(8.42504 0.0190271 0.0111366)
(7.41624 -0.0073171 -0.0401366)
(7.76907 -0.0911962 -0.19361)
(8.54898 0.0263932 0.00990793)
(8.41444 0.0237079 0.0152331)
(8.57075 0.0671361 -0.0425673)
(3.02125 3.0217 0.000670968)
(7.86666 0.0434608 -0.00254295)
(3.02017 3.02045 -0.00102956)
(2.45079 1.86333 -0.391294)
(3.25237 -2.08371 -0.211606)
(8.90518 -0.081549 0.117427)
(8.73262 -0.0506845 -0.000691582)
(8.52492 -0.00337389 0.00124232)
(2.89039 -2.88305 -0.00107952)
(3.00815 3.02575 0.0248401)
(8.55098 0.0295936 0.0151946)
(8.19215 0.0176456 -0.0113184)
(2.87721 -2.87646 0.000537031)
(2.8888 -2.88664 0.00243791)
(2.81977 -2.83601 0.0207322)
(8.12766 0.0108924 -0.00393344)
(8.52006 0.00888075 -0.00890194)
(8.13339 0.00177114 0.0297211)
(7.87651 0.0133404 -0.0419501)
(8.6851 0.0205651 -0.0200232)
(3.46015 2.97256 0.0804745)
(3.01477 3.02206 0.00546732)
(2.8854 -2.8818 -0.00128564)
(8.51841 0.0323566 0.022336)
(5.52634 -4.68597 -0.337252)
(8.11729 -0.00927884 0.0125534)
(8.84285 -0.0613689 0.194445)
(7.12518 0.00545657 -0.147298)
(3.02232 3.02259 -0.000260223)
(2.88388 -2.88686 0.00219212)
(2.88842 -2.88962 -0.00144284)
(3.80825 3.19432 0.196664)
(8.6259 0.0259585 -0.00324343)
(8.70142 -0.0489119 0.00789618)
(3.02646 3.03425 0.00097417)
(8.56977 0.023358 -0.00191494)
(3.19108 2.58503 0.182521)
(2.89253 -2.85712 -0.00473914)
(8.78271 -0.0294476 0.0717129)
(8.54729 0.0315002 0.0156684)
(8.73452 -0.0114068 0.0200676)
(8.57327 0.0241161 -0.00012996)
(2.90449 2.57344 0.157002)
(3.76985 3.24382 0.207556)
(3.01435 3.01805 -0.00437868)
(8.55965 0.0298187 0.0113856)
(8.54741 0.0248179 -0.000708801)
(8.70802 0.155617 -0.0539048)
(2.98701 2.97993 0.00554881)
(5.971 5.28577 -1.26628)
(8.16467 0.0816931 0.0744765)
(8.70677 -0.0408516 0.0207409)
(8.56777 0.0316003 0.0194789)
(8.15336 0.84582 -0.0680706)
(8.68472 0.0196628 -0.024365)
(3.00992 3.00927 0.00149311)
(8.68619 0.0219574 -0.012727)
(8.34697 0.0114579 0.017167)
(8.78695 -0.205281 -0.00139647)
(8.80984 -0.0528512 0.107732)
(8.51011 -0.0680433 -0.0620732)
(3.00775 3.02109 -0.0112386)
(2.88206 -2.88534 -0.00533384)
(3.02669 3.0089 0.0115415)
(2.86396 -2.87221 -0.000580865)
(8.6872 -0.0400457 0.000668182)
(8.60998 -0.0117571 0.00302325)
(8.61428 0.0405518 -0.0320987)
(8.67929 0.0237755 -0.0267574)
(2.99632 2.99952 -0.0129202)
(8.59106 -0.0629861 -0.0227616)
(3.01786 3.01874 0.00128597)
(2.87548 -2.88363 9.894e-05)
(8.68013 0.0252944 -0.0172677)
(2.65594 -2.65886 0.038422)
(4.77348 -0.857776 -0.064996)
(2.8523 -2.84166 0.00232872)
(3.04639 3.00598 0.0241018)
(8.59855 0.0147701 -0.0118822)
(3.02023 3.0184 0.00116092)
(8.49145 0.0241821 -0.00306547)
(8.08216 0.00444016 -0.0367581)
(3.0256 3.02583 -0.000654519)
(7.78369 -0.00372307 -0.0370116)
(8.45306 0.0147584 0.0117158)
(3.04407 2.67003 -0.0983916)
(8.41572 0.0377189 0.0421273)
(7.96512 0.0418766 -0.00333154)
(8.46997 0.0397647 0.0120213)
(7.89586 0.0295035 0.099842)
(8.5449 0.0244073 0.00396942)
(8.16818 0.00222001 -0.0147983)
(2.98742 2.55361 -0.0128772)
(2.8761 -2.87069 0.0172008)
(7.31699 0.0115298 0.171868)
(2.99972 3.01004 -0.0170642)
(8.45584 0.0457459 0.0409497)
(8.78926 -0.0444582 0.0877636)
(3.0342 2.90098 0.024369)
(3.01368 3.02651 -0.000950384)
(8.66348 -0.0165292 0.00674068)
(8.34868 -0.0388031 -0.0849402)
(8.37216 0.0444322 0.00133448)
(8.67965 0.0216529 -0.00828304)
(3.02087 3.01669 -0.00143516)
(8.8273 -0.0245036 0.142889)
(8.69376 -0.0293347 0.043168)
(3.02989 3.02493 4.71992e-05)
(8.51001 0.132679 0.108303)
(8.12527 -0.0325744 -0.0872299)
(2.88172 -2.88168 -0.000693067)
(2.87815 -2.87805 0.000777562)
(8.48133 0.0269137 -0.009839)
(8.53477 0.00714108 -0.0125873)
(3.03293 3.03299 -0.00386283)
(2.88385 -2.87787 -0.00464398)
(5.08758 -2.73847 0.62478)
(2.88782 -2.88981 0.000555365)
(8.53488 -0.00299423 0.015301)
(3.00065 3.0119 0.00685734)
(2.88869 -2.88966 0.000156219)
(8.73881 -0.0113822 0.0275659)
(7.92063 -0.091958 -0.228141)
(8.64289 -0.0506489 0.0113633)
(8.35245 -0.00152893 0.0163355)
(3.02771 3.02544 0.000262106)
(3.91829 3.0211 0.151394)
(8.35115 0.11163 0.160373)
(3.67155 3.23858 0.171597)
(8.32511 0.0354882 0.0653403)
(8.28926 -0.0704197 0.00703549)
(8.65453 -0.0259104 -0.0228933)
(6.02342 0.186678 0.225799)
(3.60412 3.10512 0.157262)
(8.6399 0.0138295 -0.0819825)
(8.76201 0.272432 -0.0909641)
(2.88372 -2.8889 0.00538465)
(8.72967 0.0222318 -0.0858779)
(8.73928 -0.0385533 0.0320606)
(2.88911 -2.88846 0.00301018)
(8.4189 0.481367 -0.256913)
(7.36988 0.000161727 -0.100269)
(3.81194 2.9985 0.126374)
(8.705 -0.0210035 0.0349505)
(8.59949 0.0134938 -0.00979408)
(8.54912 0.0229417 -0.00638812)
(3.02043 3.01793 -0.000740077)
(8.5111 -0.0129436 0.0589623)
(8.73774 -0.00299855 0.028346)
(8.47965 0.0829283 -0.00842234)
(5.34104 -0.0731371 0.0897678)
(3.67131 3.46271 -0.0714211)
(5.04214 -0.128771 0.170243)
(2.88304 -2.88698 0.00214719)
(7.84958 -0.266094 -0.258584)
(8.5129 -0.0145775 -0.0561415)
(3.02174 3.01971 0.00466733)
(8.10467 0.0201409 -0.0613291)
(6.67532 -0.0176842 0.121778)
(3.91353 3.46224 -0.0362075)
(2.88584 -2.8839 0.000216829)
(3.38104 -2.86983 0.0928906)
(2.88812 -2.88688 -8.63504e-05)
(8.45718 0.0490013 -0.00649469)
(8.53709 0.0457177 -0.0145534)
(8.46429 -0.0238969 -0.0238986)
(7.95445 0.0214985 -0.0434229)
(8.66619 -0.176097 -0.0366444)
(3.01905 3.00607 -0.00572934)
(8.4084 0.00028714 -0.020452)
(2.89451 -2.87312 0.000397341)
(8.32202 0.0305128 0.0202984)
(3.03098 3.0315 -0.00117792)
(2.88602 -2.88345 0.00011469)
(2.85646 -2.86445 -0.00395755)
(8.17934 -0.0538607 0.0108768)
(2.87527 -2.87665 -0.00244965)
(2.88735 -2.88798 0.000941937)
(2.97964 1.98485 -0.122125)
(2.88814 -2.88984 0.00109427)
(2.98866 3.03007 0.0284483)
(8.3819 -0.0314664 -0.0129526)
(3.02217 3.01796 0.000966066)
(3.58052 2.64589 0.00458203)
(3.0227 3.02431 0.00367134)
(2.87696 -2.86726 -0.00102501)
(3.02177 3.01067 -0.00434148)
(2.87596 -2.86134 -0.0146089)
(3.00385 3.00616 0.000172539)
(7.63372 0.00156531 -0.0643547)
(3.02627 3.0103 0.0120248)
(7.82495 0.115968 0.158393)
(8.56438 0.0121282 -0.00390626)
(8.82883 -0.358911 -0.0620774)
(3.0287 3.01376 -0.000659178)
(7.45368 0.0216323 0.123788)
(3.02632 3.0158 0.00290962)
(2.88862 -2.88976 -0.00131276)
(8.43479 -0.0804465 -0.0857303)
(8.44688 -0.0648645 -0.0778719)
(8.46809 -0.0183177 -0.0225327)
(8.84858 0.0219078 -0.14898)
(3.47225 2.92201 -0.0961814)
(8.67011 0.00924391 -0.0470288)
(8.66468 0.0139105 -0.0439198)
(8.56097 0.0152927 -0.000441967)
(8.42414 0.00937204 0.00303661)
(8.57476 -0.0861056 -0.0593575)
(2.87583 -2.87672 -0.000978457)
(8.56854 0.0115449 -1.54528e-05)
(3.95292 3.44336 -0.0251194)
(8.54178 0.0217853 -0.0116871)
(3.01733 3.01415 -0.00113442)
(8.69787 0.0275467 -0.0390396)
(3.91029 3.24784 0.0298577)
(8.5775 0.00725825 -0.0128261)
(8.60652 -0.0410979 0.0311891)
(3.33236 -1.68034 -0.0194993)
(3.02253 3.02472 0.0335669)
(8.43573 0.0148442 0.0153008)
(2.88519 -2.88389 0.000365402)
(8.73485 0.0356118 -0.0566983)
(8.67034 0.0338434 -0.0365624)
(3.01935 3.01046 -0.0241483)
(3.01284 3.01182 0.00735381)
(2.95558 2.6506 -0.0591697)
(3.01923 3.02146 0.00145163)
(6.0571 -0.325536 0.167982)
(8.73982 0.0311552 -0.0545547)
(3.06458 2.99244 -0.00222904)
(3.01561 3.01966 0.00293317)
(7.46455 0.00946862 -0.0176538)
(3.02394 3.02393 -9.02549e-05)
(8.60542 0.0239143 -0.0308142)
(3.02187 3.02113 0.000565127)
(8.51963 -0.0500928 -0.0365303)
(2.88846 -2.88901 0.000142215)
(7.99354 -0.0401753 -0.120801)
(6.6081 -0.0264581 0.00625281)
(8.01536 0.0245198 -0.017005)
(8.58038 0.00944751 -0.0137576)
(3.03332 3.01066 -0.0099011)
(7.79016 0.00763949 -0.00147125)
(3.02726 3.01638 0.00280825)
(3.02255 3.02337 -0.00822607)
(8.48399 -0.0219753 -0.0122563)
(3.01867 3.01517 -0.001344)
(7.22661 0.0010075 -0.0733108)
(2.91452 2.68239 -0.0890591)
(8.61595 0.022679 -0.0274362)
(2.87918 -2.88081 0.000183772)
(8.68833 0.0199868 -0.0190856)
(2.89014 -2.88763 0.000392615)
(3.58695 3.1736 0.092356)
(8.79077 0.319371 -0.0236824)
(8.43904 -0.0721423 -0.0900107)
(8.56894 0.0362049 0.000361057)
(8.63744 -0.0969402 -0.0632114)
(8.53168 0.0166086 -0.00943162)
(8.72289 -0.0607576 -0.00601033)
(3.00028 3.02336 -0.0135122)
(8.56381 0.0483879 0.026804)
(8.47372 -0.0848649 -0.086623)
(3.02111 3.02281 -0.00181055)
(7.19875 -0.105575 -0.277918)
(8.75883 -0.0636959 -0.0441586)
(8.41107 0.0358371 0.0325175)
(2.98839 2.94789 -0.0169188)
(3.71826 0.738692 -0.590682)
(8.23058 0.0204103 0.02721)
(6.73376 -0.0267609 0.0681298)
(6.98062 1.79635 -0.0134586)
(3.74055 -1.90154 -0.154784)
(8.70666 -0.0991807 -0.0226796)
(8.17265 0.0308741 0.0604018)
(8.43277 -0.0791536 -0.0868851)
(8.59621 -0.0480169 -0.0180472)
(8.45352 0.0492795 0.0209717)
(7.5068 0.972356 -0.0439497)
(3.73512 3.16846 0.0264158)
(7.63478 -0.29276 0.0699436)
(7.37546 -0.644675 0.153711)
(2.8827 -2.88422 0.00136142)
(7.53038 0.0523444 -0.0221918)
(3.03694 2.97998 -0.0157522)
(3.54422 3.22253 0.0304334)
(8.52647 0.0194507 -0.00445912)
(7.55593 1.27687 -0.0426913)
(9.09906 -0.779776 -0.144261)
(8.20704 -1.41914 0.0295006)
(3.53482 3.359 -0.248111)
(8.67045 -0.0533785 -0.0168336)
(8.55738 0.0498808 0.0389595)
(3.01467 3.00627 -0.00130986)
(3.88925 2.16171 -0.0891572)
(8.55708 0.0643679 0.0404136)
(2.88625 -2.87539 0.00310916)
(3.02078 3.01953 -0.000584736)
(3.01161 3.0106 -0.000140513)
(3.02482 3.00887 0.0035364)
(8.66739 -0.0889255 -0.0406203)
(3.02173 3.02092 0.00180844)
(2.89602 -2.89583 0.0152479)
(8.51339 -0.0520529 -0.042173)
(7.8415 -0.00285401 -0.0233766)
(4.2444 -3.71652 -0.19599)
(8.5576 0.0628997 0.0389804)
(3.51672 2.84213 0.0639475)
(8.59901 -0.0335179 -0.0186306)
(2.82966 -2.82752 -0.0130702)
(3.01437 3.02039 -0.0022695)
(8.64652 -0.0546747 -0.0157168)
(3.02063 3.00351 -0.011679)
(3.02232 3.01508 0.00167962)
(3.46171 3.31281 0.0957455)
(8.13675 -0.00437084 -0.00412967)
(4.97451 4.16583 -0.552814)
(8.52143 -0.0353503 -0.0166689)
(8.52383 0.0190581 -0.00628158)
(2.86071 -2.84203 -0.0228093)
(8.84537 -0.0274152 0.279752)
(8.10166 -0.0494264 -0.120887)
(8.49027 0.000840301 -0.004032)
(8.59607 0.15591 0.0156992)
(8.6379 0.0855607 -0.18475)
(7.43443 0.0034068 -0.0691773)
(3.01614 3.01316 0.00181415)
(8.65866 0.00889493 0.0245792)
(8.59259 0.0368801 -0.00746001)
(2.85811 -2.89589 0.00565073)
(8.00155 -0.00478195 -0.00308225)
(8.67391 0.0485426 -0.0169802)
(8.67111 0.0396824 -0.0141142)
(7.88313 -0.0349755 -0.0769641)
(8.66851 0.0379463 -0.0154869)
(8.67274 0.0454983 -0.00500455)
(2.8915 -2.85318 0.0176298)
(8.6739 -0.0170389 0.0424661)
(7.17384 -0.0448339 -0.014044)
(3.63933 3.16038 0.200738)
(8.66711 0.0325134 -0.0209117)
(8.27332 0.00955763 -0.019411)
(4.84229 3.94296 -0.595734)
(8.52432 0.0181548 -0.0052147)
(8.67109 0.0264343 -0.0261716)
(8.27615 0.00260784 -0.0345769)
(8.60142 0.0384497 0.00488068)
(8.50373 0.085858 0.0385848)
(8.54569 0.00520394 0.00973101)
(2.95532 2.88816 0.00442099)
(8.60062 0.0445663 0.00477502)
(8.0726 -0.0528609 -0.109143)
(3.23162 -1.94236 0.0752457)
(8.55951 0.0737623 0.046025)
(8.45002 0.0703149 0.0694024)
(8.57446 0.0251777 0.000977464)
(3.0165 3.00937 0.00264107)
(8.31283 0.0476984 -0.0789326)
(2.8858 -2.87322 0.00726276)
(3.0218 3.02189 -0.00218858)
(3.00554 2.98502 -0.0012827)
(3.02675 3.00901 0.000828605)
(7.21059 0.00377883 -0.0308959)
(3.59963 3.09845 0.125633)
(6.48119 -0.460365 0.53613)
(2.87103 -2.87231 -0.000295711)
(3.01478 3.05538 -0.00465635)
(8.56882 0.0861143 0.0445126)
(8.62099 0.0215552 -0.0391739)
(2.88789 -2.88778 -0.000255776)
(8.62871 -0.0537467 -0.00524389)
(2.88603 -2.88408 0.00836925)
(2.88796 -2.88602 -0.00111958)
(2.83955 -2.83978 0.00888771)
(8.75696 -0.0694731 -0.00908105)
(7.30241 0.0413151 -0.0203662)
(3.56219 3.20923 0.0397745)
(2.91494 -2.88262 0.00771923)
(3.01747 3.0272 -0.00379535)
(3.01892 3.02073 -0.000747455)
(8.8129 0.0177248 -0.097283)
(8.55429 0.0169988 0.000548693)
(3.58921 3.37487 0.155753)
(8.71622 0.0269621 -0.047514)
(8.10915 -0.11341 -0.336898)
(3.01532 3.01681 -0.00135793)
(8.69327 0.0232237 -0.041396)
(7.97085 0.0056051 0.0427265)
(8.45823 0.0444826 -0.0507459)
(3.02597 3.02471 -0.00014186)
(3.01724 3.01473 0.000264854)
(8.40012 0.0496268 0.0510125)
(8.58368 0.0205241 -0.00333019)
(3.57027 3.24705 0.0506333)
(3.00766 3.00879 0.000275707)
(3.05884 2.96515 -0.0122806)
(8.53201 -0.0166011 0.00700623)
(2.88358 -2.88352 -0.00325312)
(2.87899 -2.86823 0.00215526)
(3.00367 3.0042 6.76367e-05)
(8.6908 0.0262367 -0.0363536)
(7.60343 -0.0377587 0.0148711)
(3.02469 3.02499 5.33626e-05)
(3.35935 0.670873 0.595521)
(3.66055 -0.395716 -0.142553)
(8.40318 0.0450773 -0.00223333)
(3.01569 3.02082 -0.00137549)
(3.02168 3.01627 -0.00228639)
(8.71801 -0.109032 -0.0161889)
(8.35406 0.141872 0.134039)
(3.62043 3.23467 0.153073)
(5.26902 1.71514 0.122838)
(8.2399 0.181917 0.240805)
(7.88382 0.0240245 -0.0546131)
(8.38196 0.00500215 -0.00636873)
(3.12293 2.93198 -0.00727379)
(8.33138 0.0242406 -0.00421307)
(8.63528 -0.0582546 0.0614588)
(3.02655 3.01907 -0.00331069)
(2.864 -2.81512 0.00475999)
(3.00554 3.00709 0.000481261)
(3.01571 3.01534 -0.000605707)
(3.02127 3.02618 -0.00358362)
(3.02548 3.02636 -0.000566527)
(8.70825 0.0249033 -0.0383272)
(2.88576 -2.88521 0.00197638)
(3.01362 3.01409 0.000505656)
(3.00407 2.96471 -0.00393301)
(8.71592 0.027011 -0.0485584)
(8.5785 0.0202768 0.00128196)
(2.89791 -2.85989 -0.00120474)
(2.85119 -2.82126 0.00419275)
(8.78427 -0.0417939 0.0758394)
(8.34652 0.00192738 0.00961957)
(8.33402 0.00618456 0.0132494)
(2.88678 -2.87914 -0.0015907)
(3.01161 3.01209 0.00200212)
(8.34066 0.00399192 0.0125078)
(2.8878 -2.88542 0.000438998)
(8.24159 0.0229691 0.00209127)
(8.42856 0.0160636 0.0302253)
(8.44898 0.0290478 0.0130802)
(2.89531 -2.87381 0.00808109)
(2.88721 -2.88873 0.000630496)
(2.8867 -2.88864 0.000131604)
(3.02169 3.02246 0.000944955)
(8.54241 -0.0406175 -0.0234994)
(3.01841 3.02219 0.00182654)
(3.01287 3.01014 -0.000115412)
(8.50661 0.023747 -0.0348324)
(2.8874 -2.88842 0.00115592)
(8.37806 0.001973 0.00994767)
(7.64493 -0.0663667 0.0258026)
(3.03917 2.93647 0.0157934)
(8.56761 0.0217813 -0.00715056)
(4.03831 0.611584 -0.104271)
(8.45884 0.00862004 0.00454868)
(8.74429 -0.0297851 0.0219177)
(7.72112 0.03127 0.0101659)
(8.74652 -0.00212752 0.0574478)
(6.31918 0.135719 -0.240956)
(3.59574 2.87683 0.059098)
(8.43973 0.00521456 0.00313919)
(8.78037 0.068303 0.0110622)
(8.56991 -0.0200716 -0.00824827)
(3.09377 2.69161 -0.0909711)
(3.84896 0.379042 -0.197997)
(4.57341 -0.324265 0.155755)
(8.4502 0.011597 0.00591208)
(3.01311 3.01748 0.00403317)
(8.28688 -0.0190052 -0.0602947)
(8.46482 -0.00773294 -0.0172309)
(8.21588 -0.071554 -0.131821)
(3.15312 -2.23036 -0.168781)
(2.88787 -2.88913 0.00134783)
(2.88482 -2.88489 -9.39287e-05)
(8.6098 -0.0271413 -0.00256186)
(3.52255 2.91933 -0.037972)
(8.17791 0.0279903 0.0115823)
(3.27684 2.9857 0.0420797)
(8.13288 -0.0176952 -0.0587364)
(8.36609 -0.0177077 0.00831505)
(8.27697 -0.00999601 0.0289602)
(8.58102 0.0212662 -0.0042965)
(3.01276 3.01277 -0.00102829)
(2.9995 2.99077 -0.00546129)
(3.08258 -2.80971 0.0145041)
(8.56754 0.0265168 0.00298911)
(3.02536 3.01674 -0.000739814)
(3.48791 2.99968 -0.133038)
(8.75888 0.164842 -0.138819)
(3.03069 3.02693 -0.00186523)
(3.00688 3.02164 0.00915014)
(2.87115 -2.86203 -0.00475937)
(3.02327 3.02418 0.000983527)
(8.18807 -0.00352206 0.0267303)
(3.08311 2.92781 0.00587758)
(3.02218 3.01903 0.00103034)
(6.95077 0.981606 -0.715646)
(3.53555 2.8607 -0.0391681)
(3.00749 3.00905 -0.024956)
(4.15663 -2.44891 0.152136)
(3.01985 3.01618 -0.00331977)
(6.6936 0.0262943 -0.0586195)
(8.35057 -0.0140548 0.0209755)
(2.87624 -2.8766 -0.000238537)
(8.2078 0.00900615 -0.0221996)
(8.28676 1.34382 -0.185828)
(8.15583 -0.0786318 -0.131449)
(8.97033 0.334456 0.00754739)
(8.07396 0.00667133 -0.0126497)
(3.01878 2.99815 0.00942249)
(8.46484 -0.0786756 -0.0896571)
(8.76802 -0.0307129 0.0196441)
(8.15323 -0.079199 -0.131502)
(2.88522 -2.88578 -0.000542059)
(8.88631 2.33233 0.623044)
(8.169 0.0116297 0.0116942)
(4.02161 3.21079 -0.190433)
(8.11212 0.00443315 0.00877778)
(8.85193 0.110864 -0.0842106)
(8.45076 0.170677 0.0093169)
(8.38085 -0.0244057 -0.0323397)
(8.38432 0.0279659 0.000754218)
(8.92285 0.131619 -0.0488042)
(8.60026 -0.0141372 -0.0136205)
(8.51994 -0.0111233 0.00848912)
(2.99568 3.00705 0.0113514)
(3.00672 2.99178 0.00922441)
(8.22586 0.0219792 0.0110265)
(8.0893 0.00863223 0.0103806)
(3.01448 3.02169 -0.00128276)
(8.34074 0.00828529 -3.79353e-05)
(8.73426 -0.0412012 0.00585366)
(8.54078 -0.0199009 0.00726042)
(3.01989 2.9887 -0.00113922)
(8.42161 0.170325 0.0376321)
(3.01238 3.00985 0.000281338)
(8.52432 -0.0109967 0.00744883)
(8.55053 -0.0124179 0.00553045)
(3.01987 3.01831 -0.000449747)
(8.1725 0.0439894 -0.0215532)
(8.52799 -0.00874073 0.00119174)
(8.3872 0.159147 0.0141599)
(8.25103 0.00183583 0.0335296)
(3.08175 3.02322 -0.0047875)
(8.62133 -0.0229532 0.0251118)
(8.41335 0.194351 0.00226845)
(8.87158 -0.206747 0.057625)
(7.46872 0.0975641 0.0257265)
(6.67141 0.0209474 -0.0937443)
(3.02163 2.9906 -0.00538018)
(3.01168 3.00893 0.00231276)
(8.2751 0.113364 0.014857)
(3.02359 3.02395 -0.000875449)
(7.22882 -0.0205668 -0.0206766)
(8.31046 -0.0440672 -0.0644555)
(5.06891 0.708306 -0.185011)
(9.20879 -0.590272 0.222739)
(8.12507 -0.364542 0.107571)
(9.04474 -0.323564 0.0896779)
(3.02285 3.02325 -0.000801549)
(4.09999 3.48181 0.0295334)
(8.60084 0.0208557 -0.0070187)
(2.87321 -2.88465 -0.00983578)
(1.5906 -1.11358 0.469097)
(8.51035 -0.162061 -0.126318)
(3.00966 3.00218 -0.00597231)
(3.02513 3.02139 0.000277195)
(7.60246 -0.148101 -0.00371898)
(6.21176 -0.403313 0.0862298)
(3.02403 3.0246 -0.000365654)
(7.69247 -0.14363 0.025141)
(3.01097 3.00835 0.00148756)
(3.01969 3.02451 -0.00495491)
(2.8845 -2.88485 -0.000477557)
(2.88821 -2.88184 0.00581466)
(2.83049 -2.8062 0.00947967)
(2.88236 -2.87662 -0.000339528)
(7.68418 0.0635686 -0.0286952)
(2.99846 2.97825 -0.00358614)
(3.01864 3.02004 0.00104524)
(3.0024 3.01814 0.00515029)
(7.15573 -1.57986 -0.412083)
(8.10123 -0.0670247 -0.147709)
(7.84611 -4.54779e-06 -0.0807486)
(8.60167 0.0192632 -0.00761769)
(3.00429 2.98488 -5.3863e-05)
(3.03219 3.02101 0.000161093)
(8.24085 -0.140977 -0.17166)
(3.02204 3.02292 -0.00363133)
(3.01948 3.01633 0.000728179)
(4.80888 2.76662 0.101049)
(8.7728 -0.11878 -0.00392226)
(8.58462 0.020708 -0.0060921)
(3.01826 3.01723 -0.000286198)
(3.01589 3.0107 0.00443448)
(3.00453 2.99607 -0.00387356)
(3.00953 3.00302 -0.000315726)
(3.02271 3.02136 -0.00324307)
(3.02948 3.02134 0.0017124)
(8.58989 -0.200071 -0.126168)
(3.02632 3.01755 -0.000167423)
(5.96043 0.0857217 0.20121)
(8.66507 -0.0198609 0.0231953)
(3.0194 3.02381 -0.000787414)
(2.86499 -2.87667 -0.00783307)
(2.84483 -2.8163 0.00382522)
(7.26558 0.0862697 0.394357)
(2.82496 -2.82174 -0.0112083)
(2.88327 -2.88563 0.00296516)
(3.00256 3.00751 -0.0189321)
(7.78261 -0.121758 0.00711585)
(3.00991 3.00888 0.000106782)
(8.53988 -0.111404 -0.0701343)
(6.81267 0.111285 -0.0347056)
(5.60711 0.00679855 0.225623)
(3.01098 3.0133 0.000884543)
(5.84908 -1.49893 0.120588)
(8.60709 -0.0159482 0.00297513)
(8.66976 0.0217611 -0.0220792)
(3.09891 -2.95913 -0.0340724)
(8.33514 -0.135121 -0.0223347)
(8.5084 -0.0161058 -0.00948431)
(2.88841 -2.86804 0.00272418)
(3.12077 2.96067 0.0140454)
(4.07494 -3.14012 -0.262745)
(3.00342 3.00267 0.000998132)
(8.60513 0.0165481 -0.0025284)
(8.59972 -0.0105642 0.0103427)
(8.74473 -0.105999 0.0439823)
(5.7493 -0.00678914 0.316555)
(3.0251 3.02347 -0.000375154)
(8.60784 0.0166754 -0.0038745)
(3.10043 2.95025 -0.00747662)
(3.77573 3.19404 -0.0131746)
(3.88059 -3.0199 -0.125048)
(3.0194 3.01965 0.00115749)
(8.6286 0.0249991 -0.00538148)
(3.00988 3.00318 0.00186717)
(2.85329 -2.80246 0.00142927)
(7.86907 -0.107868 -0.196829)
(8.45048 -0.0202017 0.00967206)
(2.85621 -2.80925 -0.00750078)
(8.48548 0.0148149 -0.00481257)
(3.21701 3.14581 -0.0187082)
(8.61741 -0.0735243 -0.0377438)
(2.83983 2.71633 0.0272869)
(3.02255 3.02412 -0.00118511)
(3.03511 3.02489 0.00995559)
(2.88866 -2.88937 0.000773315)
(8.34161 0.0128424 -0.0131728)
(7.47456 0.0158708 -0.0339253)
(8.64579 -0.0305845 0.180859)
(3.00694 3.00973 0.00182746)
(3.00221 2.94796 0.0203612)
(8.29641 0.0155513 -0.0140256)
(3.02315 3.02325 -0.00116768)
(3.51057 3.17724 0.0441069)
(2.88577 -2.88391 0.000242425)
(8.25471 0.0523819 -0.00546813)
(8.78881 -0.216939 -0.0644284)
(8.607 0.0210937 -0.00874527)
(2.88143 -2.8758 0.00672009)
(6.81566 -0.0103613 0.190397)
(7.11557 0.00695103 0.183085)
(2.71482 2.39703 0.016869)
(7.69391 0.0989087 0.155171)
(3.02404 3.00812 0.0031155)
(8.12778 0.075771 -0.00765242)
(8.72631 -0.0148695 0.0511986)
(8.45514 0.00638886 -0.0150836)
(8.7365 -0.110077 0.0141643)
(8.0255 -0.176197 -0.248139)
(3.02245 3.01924 0.000735792)
(3.02258 3.02249 -1.19209e-05)
(3.01554 3.01965 -0.000249652)
(7.03781 0.0691637 0.253875)
(2.99364 2.96709 0.00333761)