/*--------------------------------*- C++ -*----------------------------------*\
  =========                 |
  \\      /  F ield         | OpenFOAM: The Open Source CFD Toolbox
   \\    /   O peration     | Website:  https://openfoam.org
    \\  /    A nd           | Version:  10
     \\/     M anipulation  |
\*---------------------------------------------------------------------------*/
FoamFile
{
    format      ascii;
    class       volScalarField;
    location    "16";
    object      SgP;
}
// * * * * * * * * * * * * * * * * * * * * * * * * * * * * * * * * * * * * * //

dimensions      [1 -1 -3 -1 0 0 0];

internalField   nonuniform List<scalar> 
111485
(
1.57073e-09
1.71337e-06
6.79637e-07
5.02654e-12
1.61902e-07
2.49435e-09
3.11559e-07
1.12638e-08
2.74175e-07
2.46221e-08
5.76795e-07
2.00313e-08
1.48729e-07
0.00514847
1.53329e-07
3.04037e-07
0.003861
1.60644e-05
2.08352e-08
2.5148e-08
0.0006928
2.31239e-10
5.73824e-08
2.10106e-07
9.42857e-07
2.14098e-09
1.95451e-08
1.32686e-07
4.65436e-08
0.000902702
6.35147e-08
1.52353e-08
6.38514e-09
2.55503e-08
1.34709e-05
1.80201e-06
0.00241813
0.00371723
4.25825e-05
7.54787e-08
0.000722328
1.54485e-08
6.19046e-08
2.05863e-06
2.88862e-07
3.90994e-08
1.20855e-07
1.63277e-08
1.28959e-07
1.46067e-08
2.83004e-08
3.58404e-07
9.97594e-09
1.73082e-07
3.48153e-08
5.85732e-09
3.14317e-08
4.1857e-10
8.72104e-07
9.04723e-09
2.01943e-08
5.82011e-09
2.08148e-06
1.08673e-07
1.50018e-07
3.65304e-07
6.78667e-06
3.05325e-08
1.43936e-06
3.10284e-06
9.57454e-07
1.74996e-06
2.15627e-07
1.84081e-06
5.78022e-09
1.74585e-09
1.12444e-09
1.42259e-08
1.98397e-09
4.65991e-07
0.00496733
0.00929015
9.32234e-10
2.18137e-09
3.84494e-07
6.60309e-07
0.00249481
1.38501e-07
4.40071e-06
6.3825e-08
2.88977e-08
1.33607e-07
8.82168e-07
7.86757e-09
4.10439e-08
4.24667e-10
0.000505016
2.74096e-07
3.02148e-05
8.36047e-06
6.30739e-10
5.46493e-08
3.54574e-08
2.2916e-07
1.39447e-07
2.52733e-07
1.92781e-10
1.14605e-08
2.11178e-07
1.17407e-05
3.57282e-08
2.16617e-08
2.46098e-07
1.45623e-06
5.59839e-09
1.16275e-08
1.57924e-09
1.64877e-07
5.13961e-07
1.57235e-10
1.14298e-09
3.35931e-06
0.00124903
4.51687e-08
8.26099e-07
0.000530855
1.97658e-06
1.4761e-07
1.75757e-11
5.54901e-06
2.80367e-06
3.66827e-07
0.000884792
3.17008e-06
1.4777e-06
5.27458e-09
2.00863e-10
1.98886e-08
2.45979e-07
4.55062e-07
1.47178e-06
3.12481e-09
0.00334139
1.68277e-06
6.09796e-07
4.81647e-08
2.28303e-10
8.26569e-10
2.22217e-09
2.23139e-08
5.71909e-07
0.000530757
0.00197978
1.29646e-07
1.18115e-06
1.32679e-09
8.67123e-08
2.89971e-06
1.61734e-05
1.09076e-07
6.70744e-11
3.07358e-09
7.42426e-07
1.11957e-06
1.34391e-06
4.05489e-07
1.20585e-07
0.000451772
2.74873e-05
2.21138e-06
4.10211e-11
2.08835e-09
0.00350715
2.58049e-11
4.44981e-09
1.48751e-09
8.25456e-09
1.63439e-07
4.10339e-09
9.87084e-08
1.49477e-07
4.98674e-09
3.02288e-08
8.52581e-09
6.19965e-08
4.183e-07
2.04999e-07
4.78479e-07
6.41958e-06
5.57914e-09
5.12241e-07
9.06072e-08
1.31595e-07
4.21088e-07
1.10237e-07
2.304e-07
3.78309e-08
4.91741e-10
2.0086e-08
1.67998e-07
2.3991e-08
2.79123e-05
1.39925e-06
8.37066e-09
3.055e-08
6.34551e-08
2.15596e-07
2.00284e-07
2.91536e-07
6.53545e-08
6.85174e-08
1.03349e-07
1.41893e-07
1.10865e-10
1.16126e-06
5.0551e-06
5.72419e-09
3.10682e-10
1.85391e-07
2.16204e-07
1.92259e-08
1.35317e-09
1.0884e-07
2.6482e-07
5.0646e-06
1.12179e-10
2.22442e-11
6.61958e-07
7.37844e-05
4.10414e-07
1.72727e-06
1.18617e-07
6.6815e-09
0.00261563
6.53117e-07
2.16868e-07
0.00284541
1.38567e-09
9.02715e-07
2.98715e-07
2.2285e-07
3.69957e-07
8.64602e-08
7.49335e-08
3.32589e-05
9.3329e-09
1.44422e-07
1.45465e-09
1.05046e-07
0.00244614
3.57995e-07
4.8608e-08
1.06332e-07
2.5472e-11
3.63347e-06
1.4742e-08
5.71259e-09
1.21067e-06
0.00180396
1.54907e-09
6.63783e-08
5.73678e-07
2.47431e-08
6.55491e-11
4.65324e-08
1.62908e-11
9.66764e-10
1.24519e-08
0.00296795
6.45717e-08
6.5935e-07
2.16943e-08
0.00319971
4.09551e-07
1.78223e-08
4.23053e-06
1.41097e-08
2.2955e-08
9.42124e-09
1.83646e-09
0.00202676
6.91106e-09
7.99563e-07
1.36886e-08
2.70889e-11
0.00401612
0.00489523
3.97337e-08
6.59206e-06
5.40551e-07
7.53691e-08
1.6427e-07
2.55247e-07
1.64551e-10
1.24361e-07
3.20149e-10
6.31387e-06
4.93856e-06
2.8697e-07
3.5941e-08
0.00613749
6.02035e-09
0.00144089
2.27619e-08
6.57377e-08
2.33104e-10
2.20388e-09
0.000461981
3.7117e-08
2.19042e-08
1.38616e-07
2.64612e-06
7.5583e-09
4.56921e-07
7.73416e-10
3.91431e-09
7.23317e-08
7.31881e-05
0.00445758
5.83714e-08
1.38907e-05
1.73173e-10
1.02649e-09
4.49123e-10
1.49275e-06
4.17099e-08
1.44221e-08
5.71653e-08
9.65779e-09
1.31989e-06
0.00112862
9.03934e-08
1.17694e-08
5.41852e-08
3.98971e-08
0.00079571
9.27315e-07
1.07581e-08
2.80242e-08
6.51294e-09
2.36346e-07
2.71818e-09
0.00264767
4.36538e-06
9.23221e-09
8.1687e-08
4.85702e-06
1.05979e-08
0.000652041
2.65344e-09
2.02311e-07
1.05275e-07
8.64866e-09
3.74095e-07
1.75633e-07
6.85709e-09
9.12707e-09
1.99276e-08
6.32853e-08
0.00662194
5.4587e-07
1.6068e-09
0.000882316
3.31952e-07
4.19563e-10
8.77565e-09
2.30022e-09
0.00088027
1.23906e-05
0.000856222
0.000824261
4.41156e-09
2.16556e-10
4.23072e-08
4.28365e-08
3.67738e-11
1.6433e-07
5.79888e-08
2.82497e-07
5.74432e-07
2.45013e-06
9.18405e-08
1.24554e-05
4.67293e-08
5.15961e-08
8.93673e-07
1.22989e-08
1.26507e-05
5.5164e-09
2.46349e-07
5.5697e-08
0.000503793
1.99464e-09
1.71535e-09
0.00273227
1.20178e-07
0.00564681
7.8054e-09
1.13485e-07
6.20024e-08
1.3261e-10
9.839e-08
8.24122e-07
1.84248e-09
0.000596817
5.60783e-08
5.13385e-08
1.66386e-08
3.32337e-10
1.31571e-05
3.58047e-10
1.47607e-07
6.68749e-08
1.22779e-12
1.64952e-08
9.03657e-07
0.00436767
2.75166e-06
3.88867e-11
1.43964e-06
1.75047e-06
1.76584e-06
6.56432e-07
1.17068e-05
4.50521e-08
1.95635e-05
9.41705e-07
0.0035355
4.17576e-06
3.7995e-09
1.32079e-07
2.58812e-08
1.9448e-09
2.43395e-05
3.82967e-06
1.3901e-06
2.89046e-08
3.23595e-08
2.86473e-07
3.66007e-09
0.00601154
3.54984e-08
6.39478e-07
8.44376e-05
1.69155e-06
2.50649e-05
1.23009e-09
0.00449393
0.00565893
4.12074e-10
6.44658e-07
5.29105e-06
1.99709e-06
6.19362e-11
4.78591e-07
4.24956e-10
0.00533602
1.19838e-06
3.62505e-07
2.06123e-06
5.34492e-07
4.63126e-09
8.06904e-08
1.35131e-08
1.52869e-06
2.93001e-09
1.79435e-08
0.000977558
1.85756e-06
1.7889e-09
2.09421e-09
7.30947e-06
1.54109e-09
3.14538e-08
7.15128e-08
6.74828e-11
1.05912e-06
1.66717e-09
0.00138476
8.48349e-09
4.47089e-08
3.13055e-09
4.18653e-06
8.87478e-09
0.00398003
4.429e-07
0.00416133
5.3417e-10
1.25917e-06
4.68535e-08
6.0516e-11
0.00650371
0.00252881
5.21565e-07
7.01052e-08
5.64727e-07
1.37496e-08
2.58401e-07
9.28942e-09
5.54979e-07
0.00511104
1.05492e-09
2.33076e-08
1.9572e-06
3.27759e-07
0.000986916
1.02735e-07
2.01882e-06
1.80043e-08
2.69927e-08
1.3247e-05
0.00136538
1.39621e-07
9.68486e-09
2.10588e-08
7.50472e-08
6.03231e-08
2.31038e-08
4.04659e-07
2.10905e-11
3.08195e-05
1.80128e-09
6.53798e-09
4.78993e-09
1.84316e-06
4.98595e-10
1.5318e-07
4.12865e-09
1.68382e-07
1.33495e-09
0.00205157
0.002124
4.70077e-07
1.97787e-09
0.00108549
0.00173607
5.62214e-09
4.19165e-09
2.64306e-07
3.83942e-09
2.61439e-06
2.91168e-07
2.30845e-07
0.000795446
3.5642e-08
9.23206e-11
8.20093e-07
7.32146e-07
1.13055e-06
2.27732e-08
3.45413e-07
2.55915e-07
2.56579e-08
1.87758e-08
4.3952e-07
6.39846e-07
1.53539e-10
0.00225904
1.29523e-06
9.23127e-07
3.43774e-08
2.07325e-05
8.26499e-07
9.34972e-06
4.06136e-05
6.14854e-06
4.59741e-08
2.20132e-06
2.33447e-07
4.29462e-07
0.00195445
3.51888e-06
1.31217e-06
6.52244e-05
0.00135811
5.91521e-09
1.13679e-06
8.1362e-08
6.13934e-07
3.87648e-09
8.75253e-06
4.95966e-05
9.3064e-06
2.92061e-06
4.69941e-07
2.09799e-08
6.94811e-09
3.54927e-06
3.03638e-08
1.44944e-09
5.13312e-11
9.04936e-09
7.96874e-10
3.95207e-07
2.99474e-11
0.000651099
2.78003e-07
3.93562e-07
0.00181308
0.00593618
1.01878e-06
5.12525e-08
0.000691479
6.91681e-10
4.00142e-07
3.28908e-09
9.98232e-09
8.02073e-07
2.56234e-07
0.00208421
5.18149e-07
5.65632e-10
6.43926e-08
5.99947e-07
0.00252968
1.49581e-07
5.35633e-07
1.03964e-06
0.00346071
0.000696071
5.47391e-08
3.90115e-07
1.31935e-07
3.78085e-08
1.4851e-07
1.5665e-08
4.90187e-07
7.87074e-08
3.91166e-08
2.15251e-08
7.69091e-08
1.27575e-05
5.43562e-07
6.75406e-08
7.7171e-08
1.22779e-05
5.27236e-10
9.17981e-09
2.89552e-07
9.45831e-08
3.37432e-07
1.87249e-09
6.98762e-08
4.46596e-08
5.47747e-07
3.1497e-06
3.07824e-07
6.21869e-07
1.87166e-08
9.50936e-09
3.47023e-07
9.93209e-08
2.1313e-09
0.00129589
6.03826e-10
0.00243806
1.01296e-06
0.000233073
1.3074e-08
0.000492522
8.8863e-08
2.28904e-07
2.99636e-10
1.87682e-07
6.00066e-09
4.14032e-10
2.0118e-08
0.00504998
2.15018e-06
5.61679e-07
0.000762504
2.26623e-09
4.11776e-10
1.106e-07
2.34102e-08
1.48975e-06
9.46581e-09
2.40298e-06
6.48467e-10
1.36529e-07
2.42785e-06
0.00286804
9.30104e-12
3.67722e-09
2.80352e-08
7.27973e-09
2.2751e-06
9.09679e-09
0.00104535
1.45972e-08
1.1287e-09
4.47624e-09
0.000759278
9.33491e-08
3.23276e-06
1.91997e-11
8.42896e-05
1.55925e-05
0.00310955
2.53237e-10
2.56206e-09
8.04888e-08
4.73718e-07
7.51773e-07
9.57192e-06
6.50054e-06
4.56158e-06
1.09386e-09
0.00105398
5.29159e-07
1.87061e-08
1.45573e-09
2.41052e-08
4.89193e-09
3.74842e-09
1.14162e-09
2.51973e-11
3.37722e-08
1.36227e-09
8.46406e-09
1.90033e-08
2.35931e-09
2.12175e-09
4.81226e-09
1.48102e-08
4.96451e-09
9.80481e-08
1.04302e-07
8.71099e-09
7.24966e-10
1.95408e-07
2.14701e-11
1.5053e-06
2.1737e-08
5.49886e-08
2.92153e-09
8.49646e-11
2.15007e-10
4.2464e-11
3.29916e-07
2.09144e-09
1.18181e-08
3.96409e-07
2.18097e-10
2.8276e-07
1.41882e-06
6.92877e-08
1.22937e-08
9.47833e-06
3.46861e-08
0.00456411
1.97716e-06
2.10231e-07
0.00376538
1.47829e-06
2.00168e-07
5.63234e-07
2.79954e-09
3.45451e-07
0.00169264
1.23251e-05
2.39396e-09
3.91673e-09
2.43776e-07
1.52494e-06
1.73865e-06
1.36565e-06
7.91681e-11
4.73113e-13
1.10603e-08
6.72889e-07
5.6814e-08
6.95414e-08
3.32679e-06
3.5025e-09
6.07817e-08
2.14369e-09
2.86711e-09
0.000558344
2.03007e-07
1.50603e-08
2.08654e-09
8.88545e-07
2.26286e-06
3.38362e-08
8.19119e-09
0.000759988
3.60264e-11
5.26193e-08
0.00106067
6.43584e-10
0.00125271
7.65176e-07
0.000617688
8.86573e-06
5.54963e-09
5.01519e-07
6.85116e-09
0.000852491
9.95457e-07
2.26551e-05
0.00286066
2.06038e-06
6.08674e-08
2.11217e-08
1.11137e-08
0.00855189
0.00286554
3.18719e-09
0.00418716
1.37314e-08
2.94945e-06
4.31774e-08
3.71776e-07
2.08081e-05
7.21818e-07
2.19797e-08
1.2916e-07
3.16491e-08
1.67112e-08
0.000765769
3.39731e-09
2.12804e-08
2.32002e-08
9.867e-10
5.34581e-09
0.00394272
1.95621e-08
6.247e-09
1.0647e-05
8.16875e-10
9.92429e-09
0.0037157
7.8412e-09
0.0033742
0.00600612
2.29341e-05
2.23988e-07
1.88696e-08
5.70125e-08
1.04986e-06
4.63255e-06
2.04001e-05
5.43141e-06
7.88584e-08
0.000762799
1.97621e-06
6.0011e-10
6.67884e-06
5.17764e-06
1.15291e-05
8.35066e-06
1.6052e-05
3.06097e-06
1.02939e-10
1.31296e-06
1.46197e-08
1.38057e-08
2.6631e-05
0.00614406
4.34753e-09
5.63766e-09
5.72947e-05
6.24432e-05
4.23086e-11
1.11997e-05
9.85766e-09
2.30003e-10
3.46066e-10
7.69786e-09
1.06463e-07
8.23873e-09
1.37333e-06
0.000856337
5.60609e-11
1.36586e-08
7.9086e-05
0.00205909
1.38861e-06
1.92806e-09
0.000544606
6.94315e-11
2.45787e-06
5.40316e-10
8.5088e-10
1.07847e-05
0.00229122
4.76512e-08
1.99505e-09
3.26802e-09
0.000593829
8.50483e-09
0.000388429
4.64049e-09
2.13445e-06
1.38978e-10
3.85494e-05
4.622e-08
4.33352e-11
1.79222e-08
9.52282e-09
2.7303e-05
1.64728e-08
3.55793e-09
3.52936e-08
8.50238e-05
0.000907108
1.32045e-06
1.0512e-05
2.04101e-05
4.04306e-09
2.24983e-05
1.79535e-07
4.99489e-09
4.92629e-08
4.26703e-06
3.74441e-07
4.61804e-09
1.56594e-07
2.78914e-06
4.14148e-09
2.22643e-08
1.74849e-08
3.27221e-07
0.00125663
9.80558e-11
1.6286e-09
0.00101242
2.12068e-06
1.35783e-06
2.92213e-10
3.28562e-08
2.84916e-09
1.94499e-08
4.46931e-07
7.25852e-07
1.77718e-08
4.63682e-07
4.42286e-07
1.46183e-06
3.94552e-07
9.36663e-11
6.24084e-08
8.12037e-11
8.66889e-09
1.6164e-06
3.02645e-06
3.65112e-09
8.57845e-09
7.53929e-08
8.92203e-11
7.83259e-07
9.29877e-09
1.25023e-06
1.53027e-05
1.64109e-06
4.80775e-09
2.6847e-05
2.09849e-06
1.32731e-06
2.79368e-06
8.49676e-10
2.7409e-06
6.47631e-08
0.00220528
6.20422e-07
1.80189e-06
8.95715e-09
1.31302e-11
1.25243e-09
0.00328529
0.00125597
9.88847e-07
8.16741e-12
2.4143e-06
6.48356e-10
0.00309693
3.40439e-06
1.54536e-08
2.53635e-09
4.83672e-08
1.55983e-08
1.69472e-06
4.41259e-08
2.10219e-06
0.0055042
9.0706e-08
1.29361e-06
5.2308e-07
1.33846e-06
9.19492e-07
7.92601e-09
1.17273e-11
7.92265e-08
5.79935e-07
4.75132e-09
3.72753e-09
1.08498e-05
6.84022e-09
5.54843e-08
0.00817498
2.7401e-08
1.22057e-06
1.31535e-11
1.28815e-08
3.74799e-09
0.0061324
3.91425e-10
0.00214939
0.00010566
2.39906e-06
3.27517e-07
2.97995e-07
1.78177e-05
4.59928e-08
7.95711e-08
4.83367e-08
8.89348e-09
1.30033e-08
3.82992e-08
1.52584e-06
5.64441e-08
0.00118882
4.63505e-09
9.3679e-08
5.70099e-06
9.32958e-11
7.34334e-06
4.58585e-09
8.51444e-07
1.41065e-05
2.35211e-09
3.1722e-09
1.16726e-06
9.79525e-09
3.66187e-08
0.00325991
8.82208e-09
1.82451e-07
1.33594e-10
0.000778576
1.59219e-07
1.22173e-08
1.21275e-08
8.10079e-08
1.33e-07
1.41135e-09
0.00270614
1.94491e-08
5.05016e-11
2.27488e-06
8.18911e-09
1.33816e-10
8.09923e-07
1.61326e-05
1.46749e-05
4.47133e-10
3.36317e-08
8.4073e-10
1.01525e-06
8.6867e-07
0.000643251
1.0629e-07
1.4658e-05
1.25372e-06
2.06062e-05
5.22575e-07
5.39795e-08
2.20851e-08
2.26715e-08
9.67665e-08
4.1366e-08
1.69624e-07
0.000820172
5.12116e-06
0.000801464
4.27074e-11
2.79878e-08
1.7998e-09
1.40814e-06
1.6724e-06
3.1905e-08
8.76987e-07
8.92291e-06
2.55547e-06
1.53886e-11
0.000115837
0.000144169
1.90475e-06
7.74224e-07
1.38738e-08
1.52415e-05
3.69336e-08
7.47934e-08
7.13153e-09
1.18313e-09
4.3809e-06
1.47702e-07
1.64517e-05
1.51839e-08
0.000792906
1.13553e-05
1.60363e-08
1.97162e-08
1.0933e-05
5.89634e-08
0.00104034
0.00505345
2.2991e-06
4.20826e-06
1.29666e-07
3.75716e-09
4.87447e-10
2.97797e-09
1.21524e-06
8.46735e-08
0.000582789
0.0010266
5.60834e-07
4.71229e-09
5.66953e-06
0.000704135
4.61704e-07
2.1103e-05
4.41825e-05
0.000739202
0.00230276
0.000859549
2.595e-06
1.56372e-10
3.58981e-05
3.1724e-08
3.45906e-09
4.58651e-09
5.4899e-09
4.75213e-07
1.2664e-09
3.3493e-09
1.58722e-06
2.33062e-09
2.47202e-10
1.71501e-08
4.18173e-09
0.00100099
6.10965e-08
6.16644e-07
0.00129158
0.00495052
1.9932e-09
0.00337127
3.27349e-06
0.00667111
1.40991e-07
1.36625e-09
1.28219e-08
7.38989e-07
0.00464576
3.77404e-11
2.28191e-05
2.04839e-09
3.42451e-09
2.90034e-07
6.46064e-09
2.80349e-08
5.83666e-09
0.00131167
2.59731e-09
1.355e-09
4.74184e-09
9.22533e-09
1.91099e-08
8.88008e-06
5.80261e-07
1.98463e-08
6.56341e-06
4.29192e-07
9.89592e-09
2.31272e-06
2.19876e-08
8.94725e-08
3.76874e-09
2.30246e-09
0.00480493
0.000743947
7.86723e-06
6.00842e-09
6.81658e-10
2.80633e-08
0.00347231
1.38548e-08
1.87986e-07
1.47511e-08
3.34501e-08
5.20682e-10
0.000597721
2.71691e-06
7.00568e-09
2.25681e-08
3.22369e-07
3.13677e-09
0.0032933
3.66037e-10
0.000756226
1.67821e-06
9.53087e-08
3.30605e-10
1.90323e-08
2.49543e-08
2.86944e-09
1.91125e-08
7.55714e-08
2.29748e-11
1.22831e-10
1.70252e-06
0.00136758
2.58688e-10
7.17775e-07
4.17043e-08
1.81906e-06
2.06349e-09
0.000821961
3.21235e-08
1.10358e-06
1.07589e-06
7.6693e-09
1.29677e-06
4.94517e-08
3.09683e-07
3.44614e-09
6.44781e-09
2.90706e-07
1.37888e-09
3.23045e-06
1.02492e-06
1.26795e-09
5.76217e-09
2.76109e-06
9.50226e-06
0.0055459
2.49711e-09
1.11109e-07
3.95347e-08
6.64515e-06
3.71464e-06
5.55841e-07
1.5528e-06
0.00135967
7.90716e-08
9.54369e-07
1.40946e-05
0.0011544
1.52804e-08
9.26119e-10
7.32295e-06
2.28261e-08
0.00070751
4.90745e-09
2.29493e-07
2.27339e-08
4.35472e-09
0.0041406
1.22009e-09
1.08771e-08
1.68061e-08
4.63302e-07
0.00667853
0.000971275
8.78504e-09
2.45537e-09
7.37629e-11
1.11026e-08
1.06743e-08
1.7467e-08
2.98541e-09
1.34145e-10
3.90329e-09
1.92117e-10
5.39241e-09
0.00106601
0.000635178
2.11157e-10
2.61125e-07
4.0883e-09
8.39149e-09
2.10726e-09
0.00062297
0.0015455
2.02954e-07
4.36627e-09
1.38664e-09
1.65515e-08
3.68372e-08
8.82731e-08
5.80168e-09
6.43863e-06
5.00777e-09
5.4101e-08
1.0971e-07
3.17822e-06
9.72639e-08
1.36909e-05
4.95818e-08
4.87552e-09
8.34505e-06
7.95852e-06
6.08544e-09
4.79501e-07
7.67167e-08
2.75147e-07
8.6036e-07
1.7334e-07
7.39173e-08
3.46094e-09
0.00608464
2.22703e-08
1.10915e-06
0.00106923
2.14781e-06
2.8037e-07
3.79715e-07
3.48386e-08
4.07142e-08
5.55533e-07
1.28121e-07
1.55875e-06
8.03862e-08
8.02459e-07
8.43837e-08
3.66853e-08
1.84632e-08
1.48193e-10
7.9234e-09
5.61505e-10
1.02971e-11
2.75888e-09
1.66936e-08
1.31879e-07
2.37589e-09
3.4834e-11
8.11201e-09
3.09424e-07
6.46194e-09
2.12548e-10
1.46991e-08
4.15424e-08
3.85232e-09
1.86984e-06
1.47292e-07
0.00467042
2.24399e-09
2.0523e-07
3.66637e-07
7.89074e-08
4.04554e-10
1.05667e-08
0.00421851
9.41684e-09
2.92294e-10
6.89113e-08
0.00419123
1.62141e-08
1.31141e-06
1.11496e-06
2.99267e-08
2.00697e-07
4.6599e-07
6.91468e-06
2.67621e-10
8.66097e-07
1.05573e-07
3.59006e-09
5.23177e-06
7.2513e-06
0.00370864
1.35699e-07
3.03673e-08
1.90646e-07
8.36617e-07
1.69379e-07
1.39552e-08
4.39419e-05
3.86951e-09
1.29065e-05
6.88259e-06
0.00113131
1.42672e-07
0.00481716
4.86362e-09
1.79995e-08
3.29347e-09
4.58655e-07
1.05889e-06
7.15838e-08
2.18895e-06
9.61862e-10
1.66158e-07
4.16192e-10
2.19577e-10
2.92469e-09
7.70843e-06
5.47565e-09
3.50981e-10
8.1139e-06
8.70957e-09
9.66377e-06
4.84225e-08
2.2747e-08
1.9627e-09
5.10324e-09
3.67114e-07
9.48624e-08
3.74505e-06
8.26942e-09
1.05433e-07
6.31629e-05
3.1161e-08
3.21279e-10
2.69379e-06
6.36285e-08
6.54739e-07
8.75432e-10
0.00265016
2.29158e-06
8.97756e-07
4.4051e-08
6.28185e-09
3.76831e-06
9.83469e-08
3.88622e-09
8.26815e-11
1.36349e-06
1.45825e-06
1.63419e-06
0.00351739
8.49e-08
1.57856e-07
4.71694e-06
3.13225e-08
4.98779e-08
1.56385e-08
1.23714e-06
4.06207e-08
2.26294e-06
0.00330657
1.47716e-07
3.15766e-13
4.23016e-09
5.09141e-07
3.59404e-07
4.95622e-09
1.13169e-05
1.51228e-05
8.57427e-06
1.73904e-05
2.42999e-07
9.0043e-07
4.99518e-08
1.29695e-07
6.37518e-09
4.14688e-10
0.0018744
9.4083e-06
4.45843e-08
2.56778e-05
1.10629e-07
5.24327e-07
8.92167e-06
8.56362e-08
4.96271e-08
5.96374e-08
1.20384e-09
7.83258e-07
3.60509e-07
2.28415e-06
3.01154e-07
3.05211e-08
8.49019e-09
4.25968e-07
5.05501e-08
5.64244e-10
6.01187e-06
7.92231e-08
1.8249e-07
3.59644e-07
1.157e-08
2.81397e-09
9.77341e-06
0.002405
1.3453e-08
4.28811e-10
1.02649e-10
0.00263209
0.00438444
7.82258e-09
0.00100116
1.59375e-07
8.99811e-08
1.46149e-07
6.58958e-08
1.11641e-07
1.97982e-08
6.05806e-07
0.0019595
0.00652952
0.0071687
7.63595e-08
9.57821e-08
9.39723e-08
1.4485e-07
0.00681916
6.28645e-10
0.00375996
3.16203e-07
5.96162e-10
9.53207e-09
1.01515e-08
7.38317e-09
1.44794e-09
3.73066e-09
1.19505e-09
0.00243382
1.22915e-09
1.89237e-07
3.62492e-06
4.29664e-10
8.85349e-08
1.2481e-07
1.81264e-08
2.04063e-09
1.08605e-05
1.02884e-07
2.20427e-08
1.53053e-06
1.04764e-07
6.4441e-08
4.84133e-08
1.89852e-08
3.23307e-08
1.33819e-07
5.58598e-05
1.68196e-07
1.03578e-08
8.3383e-08
1.9655e-08
3.15858e-07
2.38917e-06
7.29905e-08
1.26712e-07
8.79902e-08
2.2286e-08
1.059e-06
8.81585e-09
2.16007e-07
0.000764454
7.35413e-06
0.00633419
1.29838e-05
1.96478e-06
2.65374e-10
0.00114893
7.81325e-10
1.00435e-06
1.36452e-07
1.61236e-07
1.66729e-06
1.76494e-08
1.02627e-08
4.04544e-07
1.54891e-08
8.61955e-09
2.59264e-07
1.83497e-08
4.53116e-07
0.00131566
4.5296e-09
7.27968e-07
4.32941e-08
2.18873e-08
2.97818e-10
4.2685e-06
1.26378e-06
2.03179e-08
7.08972e-09
2.57869e-08
0.000831618
3.94242e-06
2.08592e-07
3.14975e-07
6.47075e-11
3.95058e-12
1.18995e-08
3.11614e-10
8.44953e-07
6.07222e-09
3.9404e-07
3.60105e-08
7.43403e-09
9.01023e-08
6.47001e-10
1.06438e-06
1.53262e-06
8.72708e-07
1.0191e-08
2.08363e-09
1.99047e-08
2.82716e-08
9.91739e-06
2.89092e-08
0.00325348
1.98464e-07
3.93948e-09
6.20949e-09
4.09881e-06
2.68674e-07
1.98945e-05
3.07529e-08
1.84926e-06
0.00431304
2.90936e-10
5.75484e-06
3.62303e-07
0.000796171
2.88454e-08
0.000886353
0.00154926
2.18379e-06
1.32131e-07
3.28634e-07
8.01817e-10
2.80931e-07
4.66431e-07
6.25482e-06
3.25734e-07
8.50444e-08
4.47877e-07
7.05218e-06
6.30079e-06
8.21328e-06
2.74627e-06
1.81048e-09
1.68306e-06
1.48044e-05
1.14136e-07
6.19704e-08
4.24795e-06
3.57629e-06
2.85998e-07
3.17009e-07
4.52587e-06
2.79421e-07
7.13787e-06
4.53439e-06
3.82201e-07
6.5556e-10
6.59547e-07
8.05929e-06
0.00123997
4.73899e-08
2.24433e-08
8.08533e-07
2.7456e-08
1.41281e-06
1.51313e-08
6.82296e-06
8.49119e-09
1.84106e-06
4.48892e-09
3.12998e-09
2.36856e-07
1.64443e-05
2.29766e-05
0.00601583
2.48725e-07
2.9563e-08
1.96728e-09
7.70689e-06
4.33067e-07
0.000562499
0.00131327
1.84833e-11
1.4017e-05
6.22055e-07
4.15562e-08
1.04499e-08
2.26744e-05
2.02459e-08
0.000799704
4.0513e-09
2.75234e-10
5.55944e-07
2.16213e-08
3.07181e-08
6.86082e-07
0.00073695
3.2695e-07
1.68885e-08
8.99778e-07
0.00392288
0.000719259
1.05491e-07
5.63708e-06
4.71272e-07
1.00672e-05
9.23699e-08
0.000698401
8.62902e-07
3.64624e-06
2.93237e-09
1.0441e-08
8.67335e-08
1.40378e-08
4.30877e-07
3.26832e-08
1.22116e-08
4.67631e-08
8.35997e-08
1.63368e-06
5.4284e-10
1.19569e-08
0.00134083
1.64057e-10
1.63496e-09
8.44029e-07
8.34816e-09
4.36052e-06
6.23939e-07
0.00110274
3.47213e-07
0.00460537
1.98296e-07
3.61496e-07
0.000745019
3.14179e-06
9.33145e-12
1.67004e-08
0.000523497
2.14866e-07
1.58392e-06
3.19871e-07
1.78587e-09
1.32804e-07
1.49881e-07
1.98832e-08
0.00224758
3.55869e-08
2.29345e-08
9.33697e-08
1.22391e-08
1.08961e-09
1.72815e-06
5.93586e-08
0.00481622
1.63029e-06
6.39899e-07
7.88483e-07
1.00299e-06
2.16861e-07
6.57333e-08
1.09733e-10
3.66158e-08
1.67288e-06
3.82161e-07
7.68419e-08
5.63406e-09
3.29707e-07
1.89154e-08
4.63047e-07
6.24878e-09
1.19433e-08
2.28737e-08
6.0285e-07
4.37701e-07
6.88807e-07
4.63701e-09
3.43022e-09
3.24521e-05
7.05269e-09
1.53096e-09
1.56457e-10
4.08404e-08
0.00547689
3.36322e-09
3.35799e-06
1.28913e-06
5.25691e-07
2.70042e-09
1.55771e-08
3.45222e-06
1.62171e-07
4.0803e-09
8.43241e-07
2.21942e-09
1.67305e-09
5.8231e-10
1.87628e-06
4.88412e-09
0.00591793
9.32978e-06
7.14118e-07
3.4517e-05
9.09569e-09
4.25861e-08
9.4071e-10
0.00110658
1.81517e-07
1.08063e-07
3.35437e-08
2.09837e-08
1.25707e-09
0.00828405
3.61611e-07
9.25382e-06
1.31e-06
5.58254e-09
0.00218145
1.56149e-08
6.42046e-09
1.0588e-08
5.62662e-08
3.48223e-07
1.01831e-09
5.04727e-07
7.4738e-07
1.03659e-05
5.47747e-08
3.85747e-10
3.20776e-06
9.58019e-09
0.00286077
5.93252e-08
6.02692e-09
2.78498e-08
3.57938e-07
0.00114295
0.000558916
3.04951e-07
1.01565e-06
0.0016738
6.29006e-08
5.65046e-07
0.000784294
2.22254e-07
3.69272e-10
0.00298453
0.000348769
1.72821e-07
6.79924e-07
1.74258e-09
7.90906e-07
3.01792e-05
1.06386e-07
1.66327e-07
6.50191e-06
3.40033e-10
0.000430886
2.5819e-09
4.95272e-07
0.00343822
2.59214e-09
2.40587e-07
7.23144e-08
9.01046e-09
1.01445e-08
1.02301e-06
1.22174e-08
2.79809e-09
6.31865e-07
2.12405e-07
8.83495e-10
0.000432111
0.000820504
1.43897e-07
7.28947e-12
1.37164e-10
2.56368e-06
3.09829e-07
1.07236e-07
5.19315e-09
9.99061e-09
2.49197e-06
1.5044e-06
9.45546e-07
1.7392e-06
0.00673648
1.22223e-10
0.00267457
1.61475e-08
3.08559e-09
0.000939761
2.85966e-08
9.86751e-10
0.000426421
7.38141e-11
1.18443e-07
1.15434e-07
3.88693e-08
1.72487e-08
6.52683e-09
1.79548e-10
6.2939e-10
3.69019e-07
0.00232732
0.00398812
3.33e-07
6.75009e-08
4.43529e-12
0.00104275
0.00397855
5.45661e-06
2.40031e-08
6.39157e-09
2.17769e-05
4.02557e-06
3.64238e-09
5.85878e-10
2.08619e-08
1.19428e-07
2.39295e-09
1.75636e-07
1.29085e-06
0.00111287
0.0039042
7.53036e-07
1.29304e-05
2.06447e-10
1.16559e-08
2.81485e-07
2.39958e-06
5.29778e-07
7.21901e-06
3.88719e-07
2.63168e-07
2.05951e-09
9.65766e-09
2.76932e-07
0.00108574
5.19657e-09
0.00326434
7.78311e-10
2.12662e-07
4.58626e-08
3.45434e-07
5.95683e-10
3.33298e-11
1.10221e-08
1.17172e-09
4.95626e-08
6.02534e-06
6.61358e-09
0.000690508
5.86387e-08
0.00299044
5.93448e-09
4.53971e-08
3.05379e-08
3.49184e-08
2.01598e-07
2.16422e-10
1.01352e-09
8.58734e-10
8.65677e-08
1.54209e-07
0.000963348
0.000937464
5.59816e-08
1.407e-08
1.06747e-10
5.41021e-11
4.36367e-10
2.52563e-08
3.61476e-06
7.93365e-09
3.01846e-10
1.05112e-10
0.000407935
7.45765e-07
1.16036e-06
0.000756395
1.16865e-08
0.00574891
1.61464e-07
1.44548e-08
1.79482e-11
4.85279e-09
0.00100054
1.53034e-11
4.22927e-07
9.04484e-10
1.13547e-05
7.73174e-07
1.70258e-06
2.4174e-06
5.82527e-07
6.76851e-10
4.39769e-10
0.00633411
6.92177e-07
6.09002e-07
4.67286e-06
1.6283e-08
1.74204e-06
1.58646e-06
5.14333e-08
9.24133e-08
5.74421e-06
6.28832e-09
1.20364e-05
0.000728437
4.65949e-08
6.96195e-09
1.45684e-06
1.46513e-08
0.000635759
0.00328446
4.67242e-07
7.63334e-10
6.83023e-05
5.82856e-09
2.43561e-07
3.41704e-08
2.54571e-06
4.85161e-11
1.72647e-05
1.84402e-06
2.49704e-06
4.35345e-07
2.12644e-06
5.7752e-07
1.17968e-07
2.65764e-11
3.20241e-06
7.05547e-07
1.14179e-06
2.08317e-08
1.71525e-07
2.10654e-06
7.79541e-06
1.93284e-10
4.10199e-10
1.61899e-09
1.91177e-11
2.18035e-09
0.000395329
8.48086e-06
2.50156e-06
1.18858e-06
3.74627e-06
1.65421e-06
6.3884e-12
3.17264e-07
3.8126e-10
9.48069e-09
1.45628e-09
4.26743e-07
3.80086e-05
4.15073e-07
2.38976e-09
4.75389e-09
3.46377e-08
7.52095e-09
2.5887e-09
0.00259518
1.93741e-07
1.16537e-05
1.77276e-05
1.30116e-05
1.30867e-09
1.00465e-05
1.22426e-05
2.25868e-05
1.24067e-05
6.42663e-10
4.31377e-11
3.507e-08
2.12864e-07
1.18061e-06
6.35622e-06
0.000705815
4.80519e-07
5.63859e-07
7.3034e-08
1.01902e-05
3.94067e-09
9.49391e-11
2.31793e-06
7.02193e-06
0.000488565
2.00921e-10
0.00207835
2.09049e-06
1.44054e-08
1.5115e-06
1.18277e-07
2.06176e-06
5.13384e-08
1.84697e-06
5.76981e-09
1.72414e-07
3.97531e-05
7.96401e-07
1.45575e-08
3.22364e-05
1.00216e-06
1.80199e-07
6.00076e-05
1.35432e-09
2.34815e-07
9.39677e-07
1.74063e-06
1.25901e-08
0.00336934
2.71676e-09
2.88767e-08
4.13472e-09
0.00209006
0.00206787
4.5069e-08
5.6508e-08
2.99319e-06
0.00102865
1.07469e-08
1.45555e-07
3.78814e-08
2.05665e-07
2.62811e-08
0.00360352
2.3398e-07
3.63561e-07
7.68717e-05
1.50095e-09
1.15915e-07
3.40965e-08
4.45301e-08
5.06438e-10
4.55441e-05
6.63911e-05
1.6716e-09
2.04852e-08
3.10872e-08
1.80139e-06
3.52707e-10
0.000737227
1.08851e-08
2.26056e-07
1.46236e-08
1.37199e-08
4.42627e-08
8.94559e-07
2.9835e-08
9.28704e-08
4.2443e-06
2.32872e-08
2.60743e-08
0.000800092
2.17217e-08
5.55339e-08
5.90192e-08
1.002e-07
3.22248e-11
4.65985e-10
4.57484e-11
3.66002e-08
1.17815e-08
0.00112139
3.6078e-07
5.73958e-08
8.93585e-10
2.30817e-08
0.00206866
1.68924e-06
1.76783e-07
1.08755e-07
2.05532e-07
6.26612e-09
6.92963e-09
4.17819e-07
6.68844e-09
4.73475e-08
8.84998e-06
1.51546e-08
2.07886e-09
5.77831e-09
2.95257e-08
1.34242e-08
1.16361e-07
9.56869e-10
3.55803e-09
2.78806e-07
5.06332e-09
2.69488e-11
0.000852918
1.43095e-10
9.852e-11
4.84646e-07
0.00105457
6.48411e-08
3.95414e-08
6.18213e-10
1.32833e-07
1.02618e-07
4.89768e-07
9.60563e-08
2.07739e-09
3.25837e-08
2.06731e-08
1.05286e-07
1.10744e-09
6.67426e-10
8.23623e-09
4.53527e-08
3.23302e-07
2.57263e-08
3.60725e-09
1.29015e-07
3.9952e-07
2.64118e-09
5.32413e-07
9.92181e-09
1.71384e-08
5.84201e-10
3.08585e-07
2.95053e-09
3.65889e-07
4.93817e-11
4.52759e-07
4.61497e-10
2.95777e-08
6.09856e-06
2.53243e-09
1.08709e-09
0.00126587
9.8808e-10
0.00104159
9.79958e-09
1.17502e-08
2.008e-07
2.73259e-07
0.000774588
5.41505e-07
0.000922595
0.00112101
1.78619e-06
1.0659e-07
0.000752148
1.93506e-07
5.07717e-10
1.3945e-07
0.0023672
0.00068821
0.000781346
5.69965e-10
1.17375e-07
1.48675e-10
1.18965e-07
1.79495e-08
1.23219e-07
3.13704e-06
1.54418e-07
1.97501e-08
3.89729e-09
6.92368e-08
5.39717e-06
1.18845e-09
7.44897e-08
6.17596e-07
3.95826e-08
1.26297e-11
1.19428e-06
6.26783e-07
2.53952e-07
9.03163e-08
1.44217e-07
9.09507e-08
8.49471e-08
2.7766e-06
1.57893e-07
1.14425e-07
2.22215e-06
8.29794e-06
1.33389e-10
1.77171e-08
3.86272e-09
7.50496e-07
1.86419e-09
4.95833e-08
6.27125e-12
7.39672e-06
0.00691803
0.00150826
2.52113e-06
3.87161e-10
1.99851e-07
0.000918477
0.00179693
2.18304e-08
4.88531e-06
4.94035e-08
1.06675e-08
7.68321e-09
2.38965e-09
1.82748e-07
7.6477e-07
7.81079e-09
8.72056e-10
1.44762e-07
1.05485e-08
0.00311356
0.0010085
2.29125e-07
2.30603e-10
3.05739e-09
0.000786964
4.7552e-10
1.71402e-07
1.00346e-08
1.10349e-05
3.26846e-10
1.294e-07
8.15008e-09
3.82899e-09
2e-05
0.00268431
0.0012055
2.68567e-08
0.00127917
7.01074e-10
2.53429e-07
2.96673e-08
0.00200995
7.81521e-09
3.06222e-06
4.31577e-10
5.40539e-08
4.94596e-06
1.70659e-08
2.72449e-06
4.89264e-09
1.25222e-08
6.05611e-07
2.38244e-07
6.77681e-08
1.08537e-08
7.12517e-09
6.05365e-08
2.41308e-08
4.23526e-09
2.49989e-09
0.00125144
0.000691116
2.81338e-09
0.00139192
1.4832e-10
5.59891e-09
8.09299e-07
1.19527e-08
1.05264e-10
0.000647832
2.37532e-09
6.81933e-11
1.07673e-05
1.58408e-10
2.99358e-11
1.14073e-06
0.0015657
3.73812e-09
0.000694135
7.85145e-10
4.4622e-08
0.00083276
1.2415e-07
1.67225e-05
1.89515e-11
3.02759e-09
2.30356e-08
3.89122e-09
0.0036948
0.000756746
1.95398e-06
8.65021e-10
0.000864211
1.55744e-10
6.6224e-09
8.56499e-10
0.00174672
3.47011e-05
3.03771e-07
2.49851e-11
1.72471e-08
0.000899341
1.87913e-05
7.58855e-09
4.52868e-06
0.00185441
0.00143098
6.49475e-07
0.00144914
1.81791e-05
0.0007953
7.26147e-07
0.00113955
6.00217e-06
7.5475e-08
3.51838e-08
4.39406e-08
7.82152e-06
1.63853e-05
8.71565e-11
1.06725e-07
1.85614e-09
7.4028e-07
1.57568e-07
2.78317e-08
1.65842e-07
5.41178e-06
4.6146e-09
1.76854e-07
6.85716e-09
4.77133e-10
1.88298e-09
8.87123e-10
8.81142e-08
2.01116e-09
1.32479e-08
2.06033e-09
2.67574e-07
7.61513e-07
7.21565e-11
4.80716e-11
1.07426e-09
2.17538e-09
2.40281e-08
2.10489e-05
4.01231e-05
1.91327e-06
1.32985e-10
6.14669e-07
1.69518e-07
0.000861648
5.27795e-07
3.00745e-07
9.40711e-09
1.68648e-08
5.07712e-08
3.92574e-06
2.01374e-06
0.00316163
0.00124967
1.46561e-09
1.42308e-05
5.53083e-06
8.69325e-10
4.83699e-08
9.08006e-08
2.12811e-09
3.88441e-08
8.02389e-08
0.00115006
2.65835e-11
1.57975e-06
3.07074e-09
0.000814037
9.7216e-07
0.000664158
6.18563e-07
8.2925e-10
1.15305e-09
8.85117e-09
4.86308e-07
3.40197e-07
7.62406e-08
1.64851e-07
1.99801e-08
1.44111e-05
5.45592e-06
2.49063e-10
2.01331e-06
9.56782e-07
8.46008e-07
1.7059e-06
5.72276e-05
8.09572e-08
0.0016987
5.75495e-09
1.16565e-07