/*--------------------------------*- C++ -*----------------------------------*\
  =========                 |
  \\      /  F ield         | OpenFOAM: The Open Source CFD Toolbox
   \\    /   O peration     | Website:  https://openfoam.org
    \\  /    A nd           | Version:  10
     \\/     M anipulation  |
\*---------------------------------------------------------------------------*/
FoamFile
{
    format      ascii;
    class       volScalarField;
    location    "16";
    object      SgRate;
}
// * * * * * * * * * * * * * * * * * * * * * * * * * * * * * * * * * * * * * //

dimensions      [1 -1 -3 -1 0 0 0];

internalField   nonuniform List<scalar> 
111485
(
1.57073e-09
1.71337e-06
6.79675e-07
5.02655e-12
1.63838e-07
2.49435e-09
3.11559e-07
1.12638e-08
2.74175e-07
7.56987e-05
5.76795e-07
2.97092e-06
1.48729e-07
0.00514847
1.53329e-07
3.04037e-07
0.003861
1.99647
2.08352e-08
2.5148e-08
0.0006928
2.31239e-10
5.73824e-08
2.10106e-07
9.44211e-07
2.14098e-09
0.00175722
1.32686e-07
4.65735e-08
0.000902702
0.0431014
1.52354e-08
6.38514e-09
2.55503e-08
0.00968475
1.80201e-06
0.0127834
0.00371723
4.26469e-05
7.54787e-08
0.000722328
0.00466972
6.19046e-08
0.00103558
3.70922e-05
3.90994e-08
0.0195049
1.63277e-08
0.00312374
1.46067e-08
2.83004e-08
3.58404e-07
9.97595e-09
0.0483518
3.48153e-08
5.85733e-09
3.14317e-08
4.1857e-10
1.12067e-05
9.04724e-09
2.01943e-08
5.82011e-09
2.08148e-06
0.0877693
1.50018e-07
3.65304e-07
0.301082
3.05325e-08
1.43936e-06
3.10284e-06
7.61226e-06
1.74996e-06
2.15627e-07
1.84081e-06
5.78022e-09
1.74585e-09
1.12444e-09
0.00195548
1.98397e-09
4.65991e-07
0.00502154
0.0398624
9.32234e-10
2.18137e-09
3.84494e-07
6.60309e-07
0.00249481
0.0259464
5.0514e-05
6.3825e-08
0.000867938
1.33607e-07
8.82168e-07
7.86758e-09
0.00901702
4.24667e-10
0.000505016
0.0015699
3.02231e-05
0.0014434
6.3074e-10
0.0003047
3.54574e-08
5.52719e-05
1.39447e-07
2.52733e-07
1.92781e-10
1.14605e-08
2.11178e-07
1.18906e-05
3.57283e-08
2.16617e-08
2.46098e-07
4.55436e-05
5.59839e-09
1.16275e-08
1.57924e-09
1.64877e-07
5.13961e-07
1.57235e-10
1.14298e-09
3.35931e-06
0.00124903
4.51687e-08
0.000142915
0.000533189
1.97658e-06
1.4761e-07
1.75757e-11
0.000179338
0.000992412
0.0318322
0.000884792
3.17008e-06
1.4777e-06
5.27459e-09
2.00863e-10
1.98886e-08
2.45979e-07
4.55062e-07
0.00308116
3.12481e-09
0.00334139
1.68277e-06
0.0060046
4.81647e-08
2.28303e-10
8.26569e-10
2.22217e-09
2.23139e-08
5.7191e-07
0.000530757
0.0019798
1.29646e-07
1.65817e-06
1.32681e-09
8.67123e-08
2.89971e-06
1.6342e-05
1.09076e-07
6.70744e-11
3.07361e-09
7.42429e-07
6.27402e-06
1.5744e-06
4.0549e-07
0.00365886
0.000451772
3.74372e-05
6.78819e-05
4.10211e-11
2.08835e-09
0.00350715
2.5805e-11
4.44982e-09
1.48754e-09
8.25456e-09
1.63439e-07
4.10339e-09
9.87084e-08
1.49477e-07
4.98674e-09
3.02288e-08
8.52582e-09
6.19965e-08
4.183e-07
0.000697444
4.78479e-07
9.99761e-05
5.57914e-09
5.12241e-07
9.06072e-08
1.31595e-07
4.21088e-07
0.000316774
0.023146
3.78309e-08
4.91754e-10
2.0086e-08
1.67998e-07
2.39911e-08
7.30828e-05
0.00868601
8.37066e-09
3.055e-08
6.34551e-08
3.49989e-05
2.00284e-07
0.000227511
0.0055532
6.85178e-08
1.03349e-07
1.41893e-07
1.10865e-10
1.16126e-06
5.0551e-06
0.116426
3.10682e-10
1.85391e-07
2.16204e-07
0.0228283
1.35317e-09
1.0884e-07
0.0140587
5.0646e-06
1.12179e-10
2.22442e-11
0.166642
7.42034e-05
4.10414e-07
1.72727e-06
1.18617e-07
6.68153e-09
0.00261563
6.53117e-07
2.16868e-07
0.00285489
1.38567e-09
9.02715e-07
2.98715e-07
2.2285e-07
3.69957e-07
8.64602e-08
7.49335e-08
3.35742e-05
9.33297e-09
1.44422e-07
1.45465e-09
0.0321036
0.00244614
3.57995e-07
4.86081e-08
1.06333e-07
2.54721e-11
3.63347e-06
0.00134066
5.71259e-09
1.21067e-06
0.00184316
1.54907e-09
6.63783e-08
5.73678e-07
2.47431e-08
6.55491e-11
4.65324e-08
1.62908e-11
9.66764e-10
1.24519e-08
0.00296799
0.00234376
6.5935e-07
2.16943e-08
0.00320818
4.09551e-07
1.78223e-08
0.000591938
1.41097e-08
2.29551e-08
9.42124e-09
1.83646e-09
0.00202709
6.91106e-09
0.0144164
1.36887e-08
2.7089e-11
0.00401612
0.00489523
3.97337e-08
0.000248859
4.94436e-06
7.53691e-08
1.6427e-07
0.00355202
1.64551e-10
2.38805e-06
3.20149e-10
6.84171e-06
4.93856e-06
0.266636
1.35558e-05
0.00613749
6.02035e-09
0.00144089
2.27619e-08
6.57377e-08
2.33104e-10
2.20388e-09
0.000461981
3.71172e-08
2.19042e-08
1.38616e-07
2.64612e-06
7.55831e-09
4.56921e-07
7.73416e-10
3.91431e-09
7.23317e-08
7.31881e-05
0.00445758
0.187522
1.44719e-05
1.73173e-10
1.02649e-09
4.49123e-10
1.49275e-06
4.17099e-08
1.46253e-08
5.71653e-08
9.65779e-09
1.31989e-06
0.00112862
0.0632216
1.17694e-08
6.19801e-06
3.98971e-08
0.00079571
9.27315e-07
1.07581e-08
2.80242e-08
6.51295e-09
0.00463585
2.71818e-09
0.00264767
0.000227628
9.70726e-09
8.1687e-08
6.82374e-05
1.0598e-08
0.000652041
2.65347e-09
2.02311e-07
0.00793942
0.0238046
3.74215e-07
1.75633e-07
6.85709e-09
9.12707e-09
1.99276e-08
6.32853e-08
0.00662194
2.76277e-05
1.60684e-09
0.000882316
3.528e-07
4.19563e-10
8.77565e-09
2.30024e-09
0.00088027
0.0400988
0.000856222
0.000824261
4.41156e-09
2.16556e-10
4.23072e-08
4.38296e-08
3.67742e-11
1.6433e-07
5.79888e-08
2.82497e-07
5.74432e-07
2.53464e-06
9.18405e-08
0.000472624
4.67293e-08
5.15961e-08
8.93673e-07
1.22989e-08
0.000484818
5.5164e-09
4.83975e-06
0.108279
0.000503793
1.99464e-09
1.71536e-09
0.00273227
1.20178e-07
0.00564683
7.8054e-09
0.0389972
1.35468e-06
1.3261e-10
0.000878152
8.40392e-07
1.84248e-09
0.000596817
5.60783e-08
5.22822e-08
1.66386e-08
3.32337e-10
1.31679e-05
3.58047e-10
1.57046e-07
6.68749e-08
1.22783e-12
1.06595e-06
3.41337e-06
0.00828419
2.75445e-06
3.88868e-11
1.43964e-06
0.00186293
1.76584e-06
9.28734e-05
0.00324589
0.0202607
0.905734
9.41705e-07
0.0035355
0.00023862
3.7995e-09
0.0371057
2.09178e-07
1.9448e-09
2.43508e-05
4.76378e-06
1.3901e-06
6.89599e-06
7.8812e-07
2.86473e-07
3.66007e-09
0.00601154
0.00014187
6.39478e-07
8.49898e-05
1.69155e-06
2.5065e-05
1.23009e-09
0.00451532
0.00565893
4.12074e-10
1.1505e-06
0.173593
1.99709e-06
6.19362e-11
4.78591e-07
4.24956e-10
0.00533602
1.19838e-06
5.29011e-07
2.15908e-06
0.00330641
4.63126e-09
3.35528e-06
1.35131e-08
1.53361e-06
2.93001e-09
1.79435e-08
0.000977558
9.78891e-06
1.7889e-09
2.09421e-09
7.6464e-06
1.54109e-09
3.14538e-08
0.00123934
6.74828e-11
1.05912e-06
1.66717e-09
0.00138476
8.48349e-09
4.47089e-08
3.13055e-09
4.61252e-06
8.87478e-09
0.00966584
0.000379854
0.00679044
5.34172e-10
0.000832416
4.68535e-08
6.05161e-11
0.00650375
0.00252882
5.49212e-06
0.0223027
5.64727e-07
0.00190871
0.0308458
9.28946e-09
5.54979e-07
0.00511174
1.05493e-09
2.33076e-08
1.9572e-06
0.00133851
0.000986916
0.0364001
2.01882e-06
1.80045e-08
9.29769e-06
1.33227e-05
0.00136538
1.39621e-07
9.68486e-09
0.033884
0.0277047
6.03231e-08
2.31038e-08
4.04659e-07
2.10906e-11
3.08196e-05
0.0124488
6.53798e-09
4.78993e-09
1.84317e-06
4.98595e-10
0.0222144
4.12865e-09
8.619e-05
1.33495e-09
0.00205987
0.0032288
4.70077e-07
1.97797e-09
0.00108549
0.00173607
5.62214e-09
4.19165e-09
5.09486e-05
3.83942e-09
2.91742e-06
2.91168e-07
0.0136643
0.000795446
0.000867474
9.23207e-11
8.20093e-07
0.0121789
3.07875e-06
0.014711
8.22913e-06
0.00379602
2.02594e-07
1.87758e-08
0.000608541
1.73562e-05
1.53539e-10
0.0022591
0.0317383
0.00713547
3.43774e-08
0.00552298
8.26804e-07
0.11056
0.00143231
6.14868e-06
3.4005e-05
2.20166e-06
6.55172e-06
0.000326033
0.00195445
0.00109595
1.31217e-06
6.5227e-05
0.621657
5.91521e-09
1.07046e-05
8.1362e-08
6.13934e-07
3.8765e-09
0.00364658
4.97234e-05
1.77854e-05
2.92061e-06
0.0001226
2.14374e-08
6.94811e-09
3.54928e-06
3.08671e-08
1.44944e-09
5.13326e-11
9.04936e-09
7.96874e-10
0.000217846
2.99474e-11
0.000651099
0.000228221
3.93562e-07
0.00181308
0.00593618
1.01878e-06
5.12525e-08
0.000691479
6.91681e-10
0.00129773
3.28908e-09
9.98232e-09
8.02073e-07
2.56234e-07
0.00208421
0.00192521
5.65652e-10
6.43926e-08
0.0729278
0.00258749
1.64522e-07
0.0237984
0.000930328
0.00346071
0.000696071
0.00913541
4.31772e-07
1.31935e-07
3.78085e-08
0.0309635
2.52038e-07
4.90187e-07
4.29459e-07
4.49749e-07
2.15251e-08
0.0143257
1.61668e-05
5.43562e-07
2.78219e-07
2.16483e-05
1.22779e-05
5.27279e-10
2.81107e-07
0.000214138
2.07931e-05
1.55012e-05
1.87253e-09
6.98762e-08
1.65914e-05
3.65876e-06
3.14971e-06
0.000954637
0.00203986
1.87166e-08
9.50936e-09
3.47023e-07
9.93209e-08
2.1313e-09
0.00129589
6.03832e-10
0.00243806
1.01296e-06
0.000233075
1.3074e-08
0.000492522
0.00115463
0.00167981
2.99636e-10
0.0059252
6.00066e-09
4.14032e-10
2.0118e-08
0.016474
1.08124e-05
5.61679e-07
0.000762504
2.26623e-09
4.11776e-10
0.23686
2.34103e-08
1.48975e-06
9.74067e-05
7.07428e-06
6.48467e-10
0.000308466
0.00171667
0.00286804
9.30108e-12
3.67722e-09
2.80352e-08
7.27974e-09
2.2751e-06
9.09679e-09
0.00104535
1.45972e-08
1.1287e-09
4.47624e-09
0.000759278
0.00016983
3.23276e-06
1.91998e-11
4.12141
0.142954
0.00310955
2.53237e-10
2.56206e-09
0.0160951
0.000309419
7.51773e-07
1.71548e-05
0.170076
0.00063705
1.09386e-09
0.00105398
5.29464e-07
0.000544707
1.45573e-09
2.41052e-08
4.89193e-09
3.74842e-09
1.14162e-09
2.51975e-11
0.00015125
1.36227e-09
8.46406e-09
1.90033e-08
0.000520871
2.12178e-09
4.81226e-09
1.48102e-08
0.0821741
9.80482e-08
1.04302e-07
8.71099e-09
7.24966e-10
1.95408e-07
2.14701e-11
5.48259e-06
2.17371e-08
5.49887e-08
2.92153e-09
8.49646e-11
2.15007e-10
4.2464e-11
3.30038e-07
2.09144e-09
1.18181e-08
0.0010032
2.18097e-10
2.8276e-07
0.00227199
6.92877e-08
1.22937e-08
0.600074
3.46861e-08
0.00545992
1.13052e-05
0.0290259
0.00376538
1.47829e-06
2.00168e-07
0.0529151
2.79957e-09
3.45451e-07
0.00169264
0.51735
2.39396e-09
3.91673e-09
0.00135036
0.000995595
0.000591416
1.36565e-06
7.91682e-11
4.73113e-13
1.10603e-08
6.72889e-07
5.68141e-08
6.95414e-08
3.32679e-06
3.50253e-09
6.07818e-08
2.14372e-09
2.86711e-09
0.000558344
2.03007e-07
1.50603e-08
2.08654e-09
8.88545e-07
4.48015e-05
3.38362e-08
8.19119e-09
0.000759988
3.60264e-11
5.26193e-08
0.00106067
6.43584e-10
0.00125271
7.65176e-07
0.000617688
8.86573e-06
5.54963e-09
1.91646e-06
6.85122e-09
0.000852491
9.96395e-07
3.49725e-05
0.00286162
8.68651e-05
6.08675e-08
2.11217e-08
2.22746e-06
0.0178832
0.00320359
3.18719e-09
0.00418717
1.37315e-08
2.94945e-06
4.31776e-08
0.000298793
2.28201e-05
7.21818e-07
2.19798e-08
0.00215567
3.16491e-08
1.67112e-08
0.000765769
3.39731e-09
2.12805e-08
2.32003e-08
9.867e-10
5.34582e-09
0.00394528
1.95622e-08
6.24701e-09
0.00166739
8.16875e-10
9.92434e-09
0.0037157
7.8412e-09
0.0033742
0.00600612
2.44322e-05
2.23988e-07
1.88696e-08
5.70125e-08
2.03756e-05
0.00186467
6.05929e-05
1.80216e-05
7.88584e-08
0.000762799
0.00768601
6.0011e-10
1.86285e-05
0.000342783
2.20437e-05
8.41539e-06
1.61137e-05
4.29432e-06
1.02939e-10
1.31296e-06
1.46197e-08
1.38057e-08
0.00118672
0.00851357
4.34753e-09
5.63766e-09
5.79371e-05
6.24432e-05
4.23086e-11
1.45742e-05
9.85766e-09
2.30003e-10
3.46066e-10
7.69786e-09
1.06463e-07
8.23873e-09
0.000305995
0.000856337
5.60609e-11
1.36586e-08
8.38125e-05
0.0021248
1.38861e-06
1.92806e-09
0.000544606
6.94322e-11
0.000237022
5.40316e-10
8.50881e-10
1.07847e-05
0.0224929
4.76512e-08
1.99505e-09
3.26802e-09
0.000593829
8.50484e-09
0.000388429
4.64049e-09
0.00844656
1.38979e-10
3.86144e-05
4.622e-08
4.33353e-11
1.79222e-08
9.52282e-09
4.2601e-05
1.64728e-08
3.55793e-09
3.52936e-08
9.1072e-05
0.000907108
0.00531159
1.15659e-05
2.04146e-05
4.04306e-09
6.93584e-05
0.00247278
4.9949e-09
4.92629e-08
9.79197e-06
0.00107846
4.61804e-09
1.56594e-07
2.78914e-06
4.14148e-09
2.22643e-08
1.74849e-08
0.00398416
0.00125679
9.80558e-11
1.6286e-09
0.00101242
2.12068e-06
1.35783e-06
2.92213e-10
3.28562e-08
2.84916e-09
1.94499e-08
3.10904e-06
7.25852e-07
1.77718e-08
0.000157624
4.42286e-07
0.00111276
3.94552e-07
9.36663e-11
6.24084e-08
8.12039e-11
8.66906e-09
1.6164e-06
0.33874
3.65112e-09
8.57846e-09
7.53936e-08
8.92205e-11
7.83259e-07
9.29877e-09
4.33013e-05
2.09032e-05
1.64671e-06
4.80775e-09
3.29664e-05
3.27582e-05
1.32731e-06
7.21869e-05
8.49676e-10
0.00135226
0.00919478
0.00220528
0.00162961
0.000330928
8.95715e-09
1.31302e-11
1.25243e-09
0.00330022
0.00125597
0.00543066
8.16748e-12
0.175995
6.48356e-10
0.00309693
3.40439e-06
1.54536e-08
2.53635e-09
4.83672e-08
1.55983e-08
0.031324
4.41259e-08
2.10219e-06
0.0055042
0.00535432
1.29361e-06
5.2308e-07
1.33846e-06
9.19492e-07
7.92601e-09
1.17273e-11
0.0203747
3.51843e-05
4.75132e-09
3.72753e-09
1.113e-05
6.84022e-09
0.00132431
0.00817498
2.7401e-08
0.00286245
1.31536e-11
1.28816e-08
3.74799e-09
0.0061324
3.91425e-10
0.00214951
0.000107351
0.000877548
0.016098
0.0307402
1.88299e-05
4.59928e-08
0.000643236
4.83367e-08
8.89349e-09
1.30033e-08
3.82992e-08
1.52584e-06
5.64441e-08
0.00118882
4.63505e-09
0.00628626
0.00685063
9.32959e-11
7.34334e-06
4.58585e-09
0.000636856
3.1743e-05
2.35211e-09
3.1722e-09
0.0002142
9.79525e-09
3.66187e-08
0.00325991
8.82208e-09
0.0134423
1.33594e-10
0.000778576
1.59219e-07
1.22173e-08
1.21275e-08
8.10079e-08
0.104715
1.41135e-09
0.00296656
1.94633e-08
5.05017e-11
0.000773954
8.18911e-09
1.33816e-10
0.00237891
1.61575e-05
0.00591846
4.47133e-10
3.36317e-08
8.40731e-10
1.01525e-06
8.6867e-07
0.000643251
1.0629e-07
1.51691e-05
1.25372e-06
3.25204e-05
5.22575e-07
5.39795e-08
2.20851e-08
2.26715e-08
9.67667e-08
3.02678e-06
1.69624e-07
0.000820172
1.42206e-05
0.000801464
4.27074e-11
2.79879e-08
1.7998e-09
4.49511e-06
0.0003037
3.1905e-08
0.000293979
8.923e-06
2.56242e-06
1.53886e-11
0.000115837
0.00014417
0.0330904
0.00126221
1.38738e-08
1.53074e-05
3.69336e-08
9.90483e-08
7.13153e-09
1.18313e-09
3.40232e-05
0.014857
1.65531e-05
1.51839e-08
0.000792906
1.19396e-05
1.60363e-08
1.97162e-08
2.04016e-05
5.89634e-08
0.00104034
0.00505345
0.00015641
0.000113003
1.29666e-07
3.75717e-09
4.87448e-10
2.97797e-09
4.94832e-06
8.46735e-08
0.000582789
0.0010266
1.3098e-06
4.71229e-09
5.66953e-06
0.000704135
4.61704e-07
2.1103e-05
2.52235
0.000739202
0.00230286
0.000859549
0.0155686
1.56373e-10
3.58981e-05
3.1724e-08
3.45906e-09
4.58651e-09
5.4899e-09
4.7522e-07
1.2664e-09
3.3493e-09
1.58722e-06
2.33062e-09
2.47202e-10
1.71501e-08
4.18173e-09
0.00100099
6.10965e-08
0.00238817
0.00129158
0.00495073
1.99321e-09
0.00481227
4.85315e-06
0.00667111
1.40991e-07
1.36625e-09
1.28219e-08
7.39004e-07
0.00465027
3.77405e-11
2.44177e-05
2.04839e-09
3.42454e-09
2.90034e-07
6.46068e-09
2.80349e-08
5.83666e-09
0.00131167
2.59731e-09
1.35502e-09
4.74184e-09
9.22533e-09
1.911e-08
9.32223e-06
5.80261e-07
1.98463e-08
6.56341e-06
1.15508e-06
9.89592e-09
0.000149785
2.19876e-08
8.94726e-08
3.76874e-09
2.30246e-09
0.00480501
0.000743947
0.000106201
6.00842e-09
6.81658e-10
2.80633e-08
0.00422671
1.38548e-08
1.87986e-07
0.217528
3.34501e-08
5.20682e-10
0.000597721
2.71691e-06
7.00568e-09
2.25681e-08
0.0131754
3.13677e-09
0.0032933
3.66037e-10
0.000756226
1.67821e-06
0.00961247
3.30607e-10
1.90323e-08
2.49543e-08
2.86944e-09
1.91125e-08
7.55714e-08
2.29748e-11
1.22831e-10
1.70252e-06
0.00136758
2.58688e-10
7.17775e-07
4.17044e-08
5.70108e-06
2.06349e-09
0.000821961
3.21235e-08
3.10963e-06
1.07589e-06
7.6693e-09
1.29677e-06
4.94517e-08
3.09683e-07
3.44614e-09
6.44781e-09
2.90706e-07
1.37888e-09
4.46872e-06
1.02492e-06
1.26795e-09
5.76217e-09
2.76109e-06
9.50229e-06
0.0055459
2.49711e-09
0.281633
3.95347e-08
6.64515e-06
3.71464e-06
5.55841e-07
1.5528e-06
0.00135967
7.90716e-08
9.54369e-07
0.000175781
0.0011544
1.52804e-08
9.26119e-10
7.479e-06
2.37954e-08
0.00070751
4.90745e-09
2.30176e-07
2.31351e-08
4.35472e-09
0.0041406
1.22009e-09
1.08771e-08
0.000760184
7.35539e-07
0.00667853
0.000971275
8.78504e-09
2.45537e-09
7.3763e-11
1.11026e-08
1.06743e-08
1.7467e-08
2.98541e-09
1.34146e-10
3.9033e-09
1.92117e-10
5.39241e-09
0.00106601
0.000635178
2.11157e-10
2.61125e-07
4.0883e-09
8.39149e-09
2.10726e-09
0.00062297
0.0015455
2.06147e-07
4.36627e-09
1.38664e-09
1.65515e-08
3.68372e-08
8.82731e-08
5.80168e-09
0.194984
5.00777e-09
5.4101e-08
1.0971e-07
3.17823e-06
9.72639e-08
0.00439172
4.95818e-08
4.87552e-09
0.00128614
0.00218119
6.08544e-09
0.0125378
7.67167e-08
2.75147e-07
8.6036e-07
1.7334e-07
7.39173e-08
3.46094e-09
0.00608464
2.22703e-08
1.10915e-06
0.00106923
2.14781e-06
0.00213652
3.79715e-07
3.48386e-08
4.07142e-08
5.55533e-07
1.28121e-07
1.55875e-06
8.03862e-08
8.02459e-07
8.43837e-08
3.66895e-08
1.84633e-08
1.48193e-10
7.9234e-09
5.61505e-10
1.02971e-11
2.75888e-09
1.66936e-08
1.31879e-07
2.37589e-09
3.48341e-11
8.11202e-09
3.09424e-07
6.46194e-09
2.12549e-10
1.46991e-08
4.15424e-08
3.85232e-09
8.88644e-05
1.47292e-07
0.00467058
2.24399e-09
2.0523e-07
0.024679
2.94052e-06
4.04554e-10
1.05667e-08
0.00421852
9.41684e-09
2.92294e-10
6.89113e-08
0.00419123
1.62141e-08
1.3174e-06
0.040204
2.99267e-08
2.00697e-07
4.6599e-07
6.91468e-06
2.67621e-10
8.66097e-07
1.05573e-07
3.59006e-09
0.0277017
0.994043
0.00370887
1.35699e-07
3.03673e-08
0.0162034
8.36617e-07
1.69379e-07
1.39552e-08
0.00203638
3.86951e-09
0.00034398
6.88488e-06
0.00113131
1.42672e-07
0.00481716
4.86362e-09
1.79995e-08
3.29354e-09
4.58655e-07
1.05889e-06
7.15838e-08
2.18895e-06
9.61862e-10
1.66158e-07
4.16192e-10
2.19577e-10
2.92472e-09
0.710034
5.47565e-09
3.50981e-10
1.25216e-05
8.70959e-09
0.00047564
4.84225e-08
2.2747e-08
1.96273e-09
5.10324e-09
3.67114e-07
9.48624e-08
3.74505e-06
9.66633e-09
1.05433e-07
6.31901e-05
3.1161e-08
3.2128e-10
2.69379e-06
0.0207807
1.30115e-06
8.75432e-10
0.00265016
0.045054
8.97756e-07
4.4051e-08
6.28185e-09
3.76831e-06
9.83469e-08
3.88622e-09
8.26815e-11
0.00227087
0.0028809
2.27022e-06
0.00351739
8.49e-08
1.57856e-07
4.71694e-06
3.13227e-08
4.98779e-08
1.56385e-08
1.23841e-06
4.06207e-08
2.26294e-06
0.00330657
1.47716e-07
3.15769e-13
4.23016e-09
5.09141e-07
3.59404e-07
4.95622e-09
1.15336e-05
0.000207203
2.53189e-05
0.0245904
2.42999e-07
9.0043e-07
4.99518e-08
1.29695e-07
6.37518e-09
4.14688e-10
0.00187442
1.43881e-05
4.45843e-08
1.01325
6.70093e-06
0.00779407
9.17849e-06
0.0369922
4.96272e-08
5.96374e-08
1.20384e-09
7.83258e-07
3.60509e-07
0.00615211
3.01154e-07
3.05211e-08
8.49019e-09
1.87545e-05
5.05501e-08
5.64244e-10
0.0596704
7.92231e-08
1.8249e-07
3.59644e-07
1.15701e-08
2.81397e-09
9.77553e-06
0.002405
1.3453e-08
4.28811e-10
1.02649e-10
0.00263209
0.00888838
8.28043e-09
0.00100116
1.59377e-07
8.99811e-08
1.46149e-07
6.58959e-08
1.11641e-07
1.97982e-08
0.00129962
0.0019595
0.00652952
0.0071687
7.63595e-08
9.57821e-08
9.39723e-08
0.14683
0.00681916
6.28645e-10
0.00375996
3.16203e-07
5.96162e-10
9.53208e-09
1.01515e-08
7.38317e-09
1.44794e-09
3.73066e-09
1.19505e-09
0.00543515
1.22915e-09
1.89237e-07
4.54369e-06
4.29664e-10
7.89896e-07
1.2481e-07
1.81264e-08
2.04063e-09
1.79873e-05
1.02884e-07
2.20462e-08
0.000103421
1.36673e-06
6.4441e-08
4.84134e-08
1.89997e-08
3.23307e-08
1.33819e-07
5.58598e-05
1.68196e-07
1.03578e-08
8.3383e-08
1.9655e-08
3.15858e-07
0.000360232
7.29905e-08
1.26712e-07
0.00075291
2.2286e-08
1.059e-06
8.81585e-09
2.16012e-07
0.000764454
5.51019e-05
0.00633419
0.000546705
0.000929496
2.65374e-10
0.00114893
7.81325e-10
1.00435e-06
1.41547e-07
1.61236e-07
8.24078e-06
1.76494e-08
1.02627e-08
4.04544e-07
1.54891e-08
8.61959e-09
2.59264e-07
1.83497e-08
4.53116e-07
0.00131566
4.5296e-09
7.27968e-07
4.32941e-08
2.18873e-08
2.97818e-10
4.2685e-06
1.26378e-06
2.0318e-08
7.08972e-09
2.57869e-08
0.000831618
4.32127e-06
2.08603e-07
0.0731302
6.47075e-11
3.95059e-12
1.18995e-08
3.11614e-10
9.71349e-06
6.07224e-09
3.9404e-07
3.60105e-08
7.43405e-09
9.01024e-08
6.47001e-10
0.000680671
1.53262e-06
0.0183551
1.13689e-08
2.08363e-09
1.99047e-08
2.82716e-08
9.91739e-06
2.89092e-08
0.00325348
1.98464e-07
3.93948e-09
6.20949e-09
4.09881e-06
2.68674e-07
0.00127037
3.07529e-08
0.0208612
0.00802168
2.90936e-10
6.08107e-06
0.00070955
0.000796171
2.88454e-08
0.000886353
0.00154926
2.18379e-06
1.32131e-07
3.28634e-07
8.01818e-10
2.80931e-07
4.66431e-07
6.25621e-06
3.25734e-07
2.92918e-05
4.47877e-07
9.40691e-05
6.30079e-06
7.14372e-05
2.74627e-06
1.81048e-09
0.0296327
0.00805321
1.14136e-07
0.0804732
4.24936e-06
3.57632e-06
2.85998e-07
0.00203166
4.52587e-06
0.00394724
1.14934e-05
9.41038e-06
3.82201e-07
6.5556e-10
0.00174047
8.11735e-06
0.00123997
4.73899e-08
2.24433e-08
8.08533e-07
2.7456e-08
1.41281e-06
1.51313e-08
7.90684e-06
8.4912e-09
1.84106e-06
4.48892e-09
2.24691e-05
2.36856e-07
0.00104875
3.58989e-05
0.00601583
0.0012421
2.9563e-08
1.96728e-09
0.000769796
0.000553784
0.000562499
0.00131327
1.84834e-11
0.00527103
6.22056e-07
4.15563e-08
1.04499e-08
2.29108e-05
2.02459e-08
0.000799704
4.0513e-09
2.75234e-10
0.00491395
0.00402283
3.07181e-08
0.279255
0.00073695
3.27277e-07
1.68885e-08
8.99779e-07
0.0539731
0.000719259
1.05491e-07
0.0647687
4.71272e-07
1.09065e-05
9.23699e-08
0.000698401
8.62902e-07
0.0174877
2.93238e-09
0.00107464
0.00286807
1.40378e-08
0.0175021
3.26832e-08
1.22116e-08
4.67631e-08
8.35997e-08
1.63369e-06
5.4284e-10
1.19569e-08
0.00134083
1.64057e-10
1.63496e-09
0.00141947
8.34816e-09
4.37802e-06
6.23939e-07
0.00110274
3.47215e-07
0.00561529
1.98296e-07
2.51568e-06
0.000745019
0.556007
9.33145e-12
0.00155577
0.000523497
2.14873e-07
0.01591
0.00263815
0.00346502
1.32804e-07
1.49881e-07
1.98832e-08
0.00224758
3.55869e-08
2.29345e-08
9.33697e-08
1.22391e-08
1.08961e-09
0.00217018
5.93586e-08
0.00481622
1.74043e-06
6.39899e-07
7.88483e-07
1.00299e-06
2.16861e-07
6.57333e-08
1.09733e-10
3.66158e-08
0.000115565
3.82161e-07
0.106208
5.63406e-09
3.29707e-07
1.892e-08
4.63047e-07
6.24878e-09
1.89933e-08
2.28737e-08
0.00104423
0.0114823
3.71588e-05
4.63702e-09
3.43022e-09
3.37778e-05
7.05269e-09
1.53096e-09
1.56457e-10
4.08404e-08
0.0270905
3.36322e-09
3.35799e-06
1.28913e-06
5.3331e-07
2.70042e-09
1.55771e-08
3.45222e-06
1.75399e-07
0.00392183
2.86488e-05
2.21942e-09
1.67305e-09
5.82311e-10
4.90363e-05
4.88412e-09
0.00595958
9.32978e-06
5.75332e-05
3.48116e-05
9.09569e-09
4.25861e-08
9.4071e-10
0.00110658
3.45656e-05
1.92874e-05
3.35437e-08
2.09837e-08
1.25707e-09
0.00828405
2.16334e-05
0.000182128
0.0011414
5.58263e-09
0.00218145
1.56149e-08
6.42046e-09
1.0588e-08
5.62662e-08
3.48223e-07
1.01832e-09
5.04727e-07
7.4738e-07
0.0010726
5.47747e-08
3.85747e-10
3.20776e-06
9.58019e-09
0.00286077
6.06912e-08
6.02692e-09
2.78498e-08
3.57938e-07
0.00114295
0.000558916
3.04951e-07
0.00388922
0.0016738
0.000984604
0.291897
0.000784294
2.30039e-07
3.69316e-10
0.00298453
0.000348769
1.72821e-07
0.00195988
1.74258e-09
0.0029213
3.16342e-05
1.06386e-07
1.66327e-07
6.50191e-06
3.40034e-10
0.000430886
2.5819e-09
4.95272e-07
0.176843
2.59214e-09
0.00314613
7.23144e-08
9.01046e-09
1.01445e-08
0.00668644
1.22174e-08
2.79809e-09
6.31865e-07
5.09491e-05
8.83496e-10
0.000432111
0.000820504
1.43897e-07
7.2895e-12
1.37164e-10
0.000249029
0.00312344
0.00460931
5.19315e-09
9.99061e-09
2.49197e-06
0.01184
0.0101219
0.014965
0.00673648
1.22224e-10
0.00267457
1.61475e-08
3.0856e-09
0.000939761
2.85966e-08
9.86751e-10
0.000426421
7.38141e-11
1.18443e-07
1.15434e-07
3.88693e-08
1.72487e-08
6.52683e-09
1.79548e-10
6.2939e-10
3.69019e-07
0.00259017
0.00398812
3.33e-07
6.75009e-08
4.43533e-12
0.00104275
0.00397855
0.0105881
0.0953973
6.39157e-09
2.17769e-05
4.02557e-06
3.64238e-09
5.85878e-10
2.08619e-08
1.19428e-07
2.39295e-09
1.75636e-07
1.29085e-06
0.00111287
0.0039042
7.53037e-07
2.00887
2.06447e-10
1.16559e-08
2.81485e-07
0.000574738
5.29778e-07
0.634855
3.88719e-07
2.63407e-07
2.05951e-09
9.65766e-09
2.76932e-07
0.00108574
5.19661e-09
0.00326434
7.78311e-10
0.0215025
0.0141153
0.838501
5.95684e-10
3.33298e-11
1.10221e-08
1.17172e-09
5.43779e-08
6.05356e-06
6.61358e-09
0.000690508
5.86387e-08
0.00309326
5.93454e-09
4.53971e-08
3.05379e-08
0.0273421
2.01598e-07
2.16422e-10
1.01352e-09
8.58734e-10
8.65677e-08
1.54209e-07
0.000963348
0.000937464
5.59817e-08
1.407e-08
1.06747e-10
5.41021e-11
4.36367e-10
2.52563e-08
3.68893e-06
7.93365e-09
3.01846e-10
1.05112e-10
0.000407935
0.0021742
1.16424e-06
0.000756395
1.16865e-08
0.00574891
1.61464e-07
1.44548e-08
1.79482e-11
4.85279e-09
0.00100054
1.53034e-11
4.22931e-07
9.04486e-10
0.0155325
7.73174e-07
0.0244346
2.4174e-06
0.00421764
6.76851e-10
4.39769e-10
0.0162838
0.261411
6.09002e-07
0.0856528
1.6283e-08
0.0292801
1.58646e-06
5.14333e-08
9.24133e-08
5.91143e-06
6.28832e-09
0.000326398
0.000728437
4.65949e-08
6.96195e-09
1.45684e-06
1.46513e-08
0.000635759
0.00328446
0.000887356
7.63334e-10
0.00383356
5.82856e-09
0.00114841
0.0184862
0.0022971
4.85161e-11
2.02162e-05
0.000388813
0.0017262
4.35723e-07
2.61696e-06
0.00295425
1.17968e-07
2.65767e-11
3.52662e-06
7.05547e-07
0.00343981
2.08317e-08
1.71525e-07
2.10654e-06
0.431509
1.93284e-10
4.10202e-10
1.61899e-09
1.91177e-11
2.18035e-09
0.000480784
0.00181568
0.000752143
1.18858e-06
3.74627e-06
0.000892088
6.38841e-12
3.17265e-07
3.81261e-10
9.48069e-09
1.45628e-09
4.26743e-07
7.84208e-05
4.15073e-07
2.38976e-09
4.75389e-09
3.46377e-08
7.52095e-09
2.5887e-09
0.0131668
1.93741e-07
0.0364055
0.065513
0.384928
1.30867e-09
0.204749
1.27514
1.805
0.669046
6.42664e-10
4.31377e-11
3.507e-08
0.000305268
1.18061e-06
0.00295524
0.000705815
4.80519e-07
5.63859e-07
7.3034e-08
0.000487544
3.94067e-09
9.49391e-11
0.00275113
3.24225e-05
0.000488565
2.00921e-10
0.00207969
2.09049e-06
1.44054e-08
2.15757e-05
1.18277e-07
2.06176e-06
5.13384e-08
1.84697e-06
5.76981e-09
1.72414e-07
4.01431e-05
7.96401e-07
1.45575e-08
3.22378e-05
1.00216e-06
1.80199e-07
6.00077e-05
1.35432e-09
2.34815e-07
9.39677e-07
1.74063e-06
1.25901e-08
0.00389592
2.71676e-09
2.88767e-08
4.13472e-09
0.00209006
0.00206787
4.5069e-08
5.6508e-08
0.00670151
0.00102865
1.07469e-08
1.45555e-07
3.78815e-08
0.173642
2.62811e-08
0.00360352
2.3398e-07
0.0452165
7.68742e-05
1.50095e-09
0.064684
3.40965e-08
0.2136
5.06438e-10
4.55546e-05
6.63978e-05
1.6716e-09
2.04852e-08
3.10872e-08
0.0192335
3.52708e-10
0.000737227
1.08851e-08
2.26056e-07
1.46236e-08
1.37199e-08
2.62286e-05
8.94559e-07
0.137574
9.28704e-08
4.2443e-06
0.0407642
2.60743e-08
0.000800092
2.17217e-08
5.55339e-08
5.90192e-08
1.002e-07
3.22248e-11
4.65985e-10
4.57484e-11
3.66002e-08
1.17815e-08
0.00112139
3.6078e-07
5.73958e-08
8.93585e-10
2.30818e-08
0.198108
0.0116404
1.76783e-07
1.08755e-07
2.05532e-07
6.26612e-09
6.92963e-09
4.17819e-07
6.68848e-09
4.73475e-08
8.84998e-06
1.51547e-08
2.07886e-09
5.77831e-09
0.312069
1.34242e-08
1.16362e-07
9.56869e-10
3.55807e-09
0.00358967
5.06332e-09
2.69493e-11
0.000852918
1.43095e-10
9.85201e-11
0.0192498
0.00105457
6.48411e-08
3.95414e-08
6.18214e-10
1.32833e-07
1.02618e-07
4.89771e-07
9.60563e-08
2.07739e-09
0.000511245
2.06731e-08
0.123593
1.10744e-09
6.67426e-10
8.23623e-09
4.53527e-08
0.17145
2.57263e-08
3.60725e-09
1.29015e-07
3.9952e-07
2.64118e-09
5.32419e-07
0.0233793
1.71384e-08
5.84201e-10
3.08586e-07
2.95053e-09
3.65889e-07
4.93817e-11
4.52759e-07
4.61497e-10
0.0603024
6.09856e-06
2.53243e-09
1.08709e-09
0.00126587
9.8808e-10
0.00104159
9.79958e-09
1.17502e-08
2.008e-07
2.73259e-07
0.000774588
5.41505e-07
0.000922595
0.00112101
0.542793
1.0659e-07
0.000752148
1.93506e-07
5.07717e-10
1.3945e-07
0.0023672
0.00068821
0.000781346
5.69966e-10
1.17375e-07
1.48675e-10
0.00292358
1.79495e-08
0.000124968
3.13704e-06
0.0425904
1.97502e-08
3.89729e-09
2.74779e-05
5.39717e-06
1.18845e-09
7.44899e-08
6.22322e-07
3.95826e-08
1.26297e-11
0.00372514
0.00945605
2.53952e-07
9.03164e-08
1.44217e-07
0.00511525
8.49472e-08
0.00468831
1.57893e-07
0.0199454
2.22215e-06
8.29794e-06
1.33389e-10
1.77171e-08
3.86272e-09
7.50496e-07
1.86419e-09
4.95833e-08
6.27126e-12
7.95989e-06
0.00692828
0.00150826
0.00072442
3.87162e-10
0.0121714
0.000918477
0.00179735
2.18304e-08
4.88531e-06
0.000149901
1.06675e-08
7.68321e-09
2.38965e-09
1.82748e-07
2.86173e-06
7.81079e-09
8.72056e-10
1.44762e-07
1.05485e-08
0.625777
0.0010085
0.0799603
2.30603e-10
3.05739e-09
0.000786964
4.7552e-10
1.71402e-07
1.00346e-08
7.16303e-05
3.26846e-10
0.00011755
8.15009e-09
3.82899e-09
2e-05
0.00268431
0.0012055
2.68567e-08
0.00127917
7.01074e-10
2.38918e-06
0.227757
0.00200995
7.81521e-09
3.2728e-06
4.31578e-10
5.40539e-08
6.7879e-06
1.70659e-08
0.0001718
4.89264e-09
1.25223e-08
0.000317279
2.38244e-07
6.77796e-08
1.08537e-08
7.12517e-09
6.05365e-08
2.41308e-08
4.23526e-09
2.49989e-09
0.00125144
0.000691116
2.81338e-09
0.00139192
1.4832e-10
5.59891e-09
0.0705486
1.19527e-08
1.05264e-10
0.000647835
2.37532e-09
6.81933e-11
1.05393
1.58408e-10
2.99358e-11
1.14074e-06
0.00156571
3.73812e-09
0.000694135
7.85145e-10
4.4622e-08
0.00083276
1.2415e-07
1.67553e-05
1.89516e-11
3.02759e-09
2.30356e-08
3.89122e-09
0.104965
0.000756746
0.000250628
8.65021e-10
0.000864211
1.55744e-10
6.6224e-09
8.56499e-10
0.00174676
3.47523e-05
3.03771e-07
2.49851e-11
1.72471e-08
0.000899341
1.89075e-05
7.58855e-09
4.76071e-06
0.00185442
0.00143098
6.49475e-07
0.00144914
1.81914e-05
0.0007953
7.26147e-07
0.00113956
6.00217e-06
0.00550307
3.51838e-08
0.00593478
7.82152e-06
1.81356e-05
8.71565e-11
4.34057e-07
1.85614e-09
1.09272e-06
0.0193259
2.78317e-08
9.40061e-07
1.4428e-05
4.61461e-09
0.00814828
6.85716e-09
4.77133e-10
1.88298e-09
8.87123e-10
8.81142e-08
2.01116e-09
1.32479e-08
2.06033e-09
0.239309
7.61513e-07
7.21565e-11
4.80716e-11
1.07426e-09
2.17538e-09
2.40281e-08
0.77951
4.20768e-05
1.85191e-05
1.32985e-10
3.94373e-06
1.23746e-06
0.000861648
5.27795e-07
3.00745e-07
9.40711e-09
1.68648e-08
5.07712e-08
3.92574e-06
2.01374e-06
0.00334461
0.00124967
1.46561e-09
0.00010933
7.06675e-06
8.69329e-10
5.24135e-05
9.08006e-08
2.12811e-09
3.88441e-08
0.166299
0.00115006
2.65836e-11
0.0119819
3.07074e-09
0.000814037
9.7216e-07
0.000664158
0.0204626
8.2925e-10
1.15305e-09
8.85117e-09
4.86308e-07
0.00343347
0.231133
0.0266361
0.000136554
0.011439
0.000446791
2.49063e-10
2.01331e-06
0.106003
0.000992207
1.7059e-06
5.72822e-05
8.09572e-08
0.0016987
5.75496e-09
0.210964
0.000713287
6.96478e-10
0.0038095
0.000141043
2.11842e-09
0.00783687
5.45372e-10
4.40731e-09
0.202757
0.0285356
1.60499e-09
2.35002e-09
2.44968e-08
3.05202e-10
1.81056e-09
1.99872e-06
4.40817e-10
1.97202e-11
0.00282751
9.09283e-11
2.55056e-09
3.55193e-09
0.000347771
8.90872e-09
3.02037e-06
1.33978e-08
2.12752e-09
3.95681e-07
1.23484e-06
0.00149323
0.00071459
1.38619e-06
8.54985e-07
4.42591e-08
0.00579509
0.00883762
6.01248e-09
6.1723e-07
3.85953e-09
0.000768291
0.000710894
6.93078e-06
0.00150372
0.00127909
9.8735e-08