/*--------------------------------*- C++ -*----------------------------------*\
  =========                 |
  \\      /  F ield         | OpenFOAM: The Open Source CFD Toolbox
   \\    /   O peration     | Website:  https://openfoam.org
    \\  /    A nd           | Version:  10
     \\/     M anipulation  |
\*---------------------------------------------------------------------------*/
FoamFile
{
    format      ascii;
    class       volScalarField;
    location    "16";
    object      T;
}
// * * * * * * * * * * * * * * * * * * * * * * * * * * * * * * * * * * * * * //

dimensions      [0 0 0 1 0 0 0];

internalField   nonuniform List<scalar> 
111485
(
303.15
283.15
283.15
303.15
283.151
283.15
283.15
283.15
283.15
283.552
283.15
283.193
283.15
283.15
283.15
283.15
283.15
300.897
283.15
303.15
303.15
283.15
283.15
283.15
283.151
303.15
284.07
283.15
283.15
303.15
300.831
283.15
303.15
283.15
283.495
283.15
302.335
283.15
283.149
283.15
283.15
284.56
283.15
302.712
303.181
303.15
286.183
283.15
284.442
303.15
303.15
283.15
303.15
299.026
303.15
283.15
283.15
283.15
283.234
283.15
283.15
303.15
283.15
300.532
283.15
283.15
301.546
283.15
283.15
283.15
303.172
283.15
303.15
283.15
303.15
283.15
283.15
284.423
283.15
283.15
283.256
291.903
283.15
303.15
283.15
283.15
283.15
301.579
303.142
283.15
283.518
283.15
283.15
283.15
284.841
303.15
303.15
301.566
303.15
283.448
303.15
283.466
283.15
283.238
283.15
283.15
283.15
283.15
283.15
283.145
283.15
283.15
283.15
283.259
303.15
283.15
303.15
283.15
283.15
303.15
303.15
283.15
283.15
283.15
283.217
303.153
283.15
283.15
303.15
283.186
303.068
302.008
303.15
283.15
283.15
283.15
283.15
283.15
283.15
283.15
283.904
283.15
283.15
283.15
297.729
283.15
283.15
303.15
283.15
283.15
283.15
303.15
303.136
283.15
283.156
283.15
283.15
283.15
283.153
303.15
303.15
283.15
283.15
283.151
283.156
283.15
283.749
283.15
283.152
283.159
283.15
303.15
283.15
283.15
283.15
283.15
283.15
303.15
303.15
283.15
303.15
303.15
283.15
283.15
283.15
283.15
285.092
283.15
283.194
303.15
283.15
303.15
303.15
283.15
283.551
301.612
283.15
283.15
303.15
283.15
283.15
283.163
299.692
283.15
303.15
283.15
283.362
303.15
283.246
297.715
283.15
283.15
303.15
303.15
283.15
283.15
293.071
283.15
283.15
283.15
285.472
303.15
283.15
300.736
283.15
283.15
283.15
289.966
283.158
283.15
303.15
283.15
283.15
283.15
283.15
303.15
303.113
303.15
283.15
283.15
283.15
283.15
283.15
283.15
283.143
283.15
283.15
283.15
289.032
283.15
283.15
283.15
283.15
303.15
283.15
299.372
303.15
303.15
303.12
303.15
283.15
283.15
283.15
303.15
283.15
303.15
303.15
303.15
283.148
285.338
283.15
283.15
283.208
283.15
283.15
283.217
283.15
283.15
283.15
303.15
283.149
283.15
288.529
283.15
303.15
283.15
283.15
283.15
283.239
283.164
283.15
283.15
301.157
283.15
283.177
283.15
283.148
303.15
284.087
283.21
283.15
303.15
283.15
283.15
283.15
303.15
303.15
303.15
283.15
283.15
283.15
283.15
283.15
283.15
283.15
303.15
283.15
303.15
283.15
290.1
283.151
283.15
303.15
303.15
283.15
283.15
283.15
283.15
283.15
283.15
303.15
301.149
283.15
283.221
283.15
283.15
283.15
283.15
283.15
283.15
302.411
283.15
283.15
283.147
283.151
283.15
283.234
283.15
283.15
283.15
283.15
284.316
298.953
283.15
283.15
303.15
283.15
303.15
283.15
283.15
283.225
283.15
283.15
283.152
283.15
303.15
283.15
303.15
302.196
303.15
283.15
283.15
283.15
283.15
283.151
283.15
283.15
283.15
283.15
283.15
283.152
283.15
303.05
283.15
283.15
283.15
303.15
302.351
283.15
283.236
301.03
283.15
283.15
283.15
283.152
283.15
283.155
283.15
295.633
283.204
283.15
301.777
283.151
303.15
303.15
283.15
283.151
283.15
303.15
303.15
303.15
283.153
283.15
303.15
283.175
283.172
284.864
283.151
283.15
283.15
302.548
283.15
302.298
301.511
287.674
291.041
283.15
283.15
303.393
303.15
298.877
283.157
303.15
283.15
283.162
283.15
283.24
283.158
283.15
283.15
283.15
283.399
283.15
303.146
283.15
303.15
303.15
283.17
283.15
283.15
283.157
293.671
283.15
303.15
303.15
303.15
283.151
283.15
283.164
283.155
284.45
283.15
283.18
303.15
283.151
283.15
303.15
303.15
283.265
303.15
303.15
283.151
303.15
283.15
299.223
283.15
283.15
283.15
303.15
283.15
303.15
283.15
283.151
283.15
302.016
283.755
283.86
283.15
300.469
283.15
303.15
283.153
283.153
283.173
298.062
283.15
289.888
290.149
283.15
283.15
283.167
303.15
283.15
283.15
293.149
283.15
290.232
283.15
283.15
283.261
303.15
283.15
283.15
303.15
288.139
291.305
283.15
283.15
283.15
283.15
303.15
287.155
283.15
283.15
283.15
283.15
291.391
283.15
284.013
303.15
283.172
284.398
283.15
283.15
283.15
283.15
283.15
283.15
283.276
283.15
283.158
283.15
292.626
303.15
283.808
303.15
283.15
302.533
283.182
291.962
283.222
292.379
283.165
283.15
291.975
283.182
283.15
283.138
300.708
292.175
283.15
282.26
283.15
286.476
283.132
303.15
283.289
283.15
283.187
283.315
283.15
282.34
283.15
303.15
301.356
303.15
283.206
283.15
283.15
283.15
282.621
303.15
303.125
283.15
283.386
283.151
283.15
283.15
283.151
303.15
283.15
283.15
283.15
283.341
283.15
303.15
283.28
283.15
303.15
283.151
283.15
283.15
303.15
283.15
283.474
283.15
283.15
283.15
283.15
283.15
283.582
283.15
303.15
300.662
283.171
283.155
301.136
283.414
283.15
283.15
284.668
283.154
303.15
283.15
294.476
283.163
283.15
283.169
283.163
303.15
291.365
303.11
283.15
283.169
283.578
283.15
283.15
283.166
283.62
283.327
283.353
283.15
283.15
283.377
283.183
303.15
285.005
285.436
283.15
283.15
283.15
303.15
283.15
283.15
283.15
283.15
283.15
303.15
303.15
283.15
285.204
285.756
303.15
283.82
303.15
303.15
303.15
286.157
283.188
283.15
303.15
283.15
283.15
287.329
283.15
283.15
284.033
283.13
283.15
284.136
298.643
283.15
283.15
283.15
283.15
283.15
283.15
283.15
283.15
283.15
303.15
303.15
283.15
283.911
283.15
283.15
282.921
301.822
283.15
283.15
283.15
284.916
303.011
283.15
283.161
288.213
283.434
283.15
283.15
283.15
298.895
283.15
303.15
283.15
283.15
283.15
283.15
283.916
303.15
283.15
283.15
283.926
283.15
303.15
303.15
287.564
283.15
283.15
303.15
283.15
283.15
303.15
283.174
283.15
283.15
303.15
303.15
303.15
283.15
283.15
283.15
283.15
302.672
303.15
283.15
297.226
283.15
283.15
283.206
283.15
284.098
283.2
287.45
283.15
283.15
283.15
286.637
283.15
283.15
283.15
299.525
283.15
283.15
283.677
284.014
283.363
303.15
303.15
303.15
283.15
283.15
283.15
283.15
283.15
283.15
283.15
283.15
283.15
283.15
303.15
283.15
283.15
283.15
303.11
283.15
283.15
303.15
283.15
283.15
283.15
283.15
283.15
283.15
283.15
303.15
283.15
283.164
283.15
303.15
283.151
283.125
283.317
283.086
283.15
283.15
283.243
290.911
283.326
303.15
283.15
283.15
283.15
283.15
283.184
283.142
283.15
283.15
283.244
283.15
283.15
283.15
283.15
283.15
283.15
283.15
283.15
283.18
283.15
283.15
283.257
283.15
283.15
283.15
283.15
283.15
283.15
283.148
283.15
283.15
283.15
283.143
303.116
283.163
283.16
283.15
283.15
284.444
283.15
283.175
283.636
283.158
303.147
303.148
303.147
283.15
283.15
283.15
303.15
303.135
283.958
283.15
283.15
303.153
303.15
283.15
303.162
283.15
283.15
303.15
303.15
303.15
303.15
283.374
283.15
283.15
283.15
303.159
283.32
283.15
283.15
283.15
283.15
283.367
283.15
283.15
283.15
287.553
283.15
283.15
283.15
283.15
283.15
283.15
283.15
284.111
283.15
303.151
283.15
283.15
303.15
303.15
303.151
303.15
303.15
283.15
303.166
283.15
283.767
283.143
303.151
283.15
303.071
284.53
283.15
303.15
303.131
283.604
303.15
283.15
303.15
283.15
283.15
283.15
284.829
303.148
283.15
283.15
283.15
283.15
303.15
283.15
283.15
283.15
303.15
283.161
283.15
303.15
283.428
283.15
283.649
283.15
283.15
283.15
303.15
283.15
283.15
285.025
283.15
283.15
283.15
283.15
283.15
303.15
283.189
303.161
283.151
303.15
303.131
303.132
283.15
303.135
283.15
283.445
285.945
283.15
283.915
283.172
283.15
283.15
283.15
303.177
283.15
302.96
303.15
293.858
303.15
283.15
283.15
303.15
283.15
303.15
283.15
302.004
303.15
303.15
283.15
300.891
283.15
283.15
283.15
283.15
283.15
283.15
301.138
283.262
303.15
303.15
303.155
303.15
300.56
283.15
283.15
302.09
303.15
283.15
283.15
283.15
283.15
283.147
303.151
283.345
302.156
300.349
283.147
283.15
289.68
303.15
283.15
303.15
283.15
303.15
283.15
283.15
283.15
300.92
302.098
303.15
303.15
303.15
302.913
283.148
303.15
283.15
283.078
303.15
283.15
283.15
283.15
283.4
283.15
283.15
283.15
283.15
283.15
283.15
295.215
283.15
303.073
283.15
283.15
302.878
283.15
283.15
302.788
283.147
302.896
283.15
303.15
283.15
283.15
283.15
303.15
283.15
283.147
283.15
283.176
283.15
283.15
303.15
283.15
283.15
283.235
283.15
303.15
303.124
283.15
283.15
283.15
283.15
283.159
302.872
283.15
302.979
303.15
283.15
283.15
303.15
283.15
286.88
283.381
283.15
283.15
303.15
283.153
303.15
283.15
283.113
286.747
283.147
283.15
283.15
283.146
303.15
283.15
303.143
303.15
303.15
283.15
303.018
303.031
283.15
283.15
283.15
283.15
303.116
283.15
283.15
303.15
283.159
283.15
303.15
283.15
283.15
283.15
298.453
283.15
283.151
283.15
300.865
283.15
283.15
283.15
283.15
283.15
283.15
283.15
283.15
283.15
283.15
283.15
283.15
283.15
283.15
283.15
283.15
302.988
283.15
283.171
283.15
299.15
303.145
283.15
283.15
303.15
283.15
283.15
303.122
303.15
303.128
283.15
283.15
283.15
283.15
283.15
283.15
283.15
283.15
283.15
283.15
283.15
283.15
303.131
283.15
283.15
283.15
283.173
283.15
283.2
303.15
283.15
283.15
283.15
283.16
283.15
303.17
303.15
283.15
283.15
295.601
283.15
283.15
293.07
283.15
283.15
283.15
283.15
283.15
283.15
284.535
283.15
283.15
283.15
303.15
283.15
298.939
283.15
283.15
283.15
283.15
283.15
303.15
283.15
283.15
283.15
283.15
283.15
283.15
283.15
283.198
283.15
283.15
283.15
283.183
283.15
283.15
283.15
283.15
283.15
283.15
283.15
283.15
283.15
283.163
283.15
283.15
283.15
283.15
283.15
283.15
303.15
290.925
303.15
303.15
303.15
283.15
283.15
283.15
283.15
283.15
303.011
283.15
283.15
303.15
283.149
283.151
283.15
283.15
283.15
283.15
283.15
283.15
283.15
303.15
284.118
283.153
283.15
283.15
283.15
283.15
283.15
283.15
283.15
283.15
283.15
283.15
283.15
283.15
303.15
283.15
283.15
283.15
283.15
283.15
283.15
283.15
283.15
303.15
283.151
283.15
283.15
283.15
283.15
283.15
303.15
303.066
283.15
283.15
283.15
283.15
283.15
302.183
283.15
283.15
303.476
303.522
283.15
301.32
283.15
283.15
283.15
283.15
303.15
283.15
283.15
283.15
283.15
283.15
283.15
301.508
283.15
283.15
283.15
283.15
283.15
283.15
303.15
283.15
283.15
283.15
283.15
283.15
283.15
283.15
303.15
283.15
283.15
283.15
283.15
283.15
283.15
283.15
283.15
303.15
283.15
303.15
283.15
303.157
283.15
283.158
283.15
283.15
285.3
283.172
283.15
283.15
283.152
303.15
283.15
283.15
283.15
283.15
283.152
300.279
303.15
283.15
283.15
303.15
303.15
283.15
303.15
283.15
282.802
296.196
283.152
283.15
303.15
290.253
283.15
283.15
283.15
302.61
303.15
303.061
303.15
303.15
283.15
283.151
283.15
283.15
283.15
283.15
283.15
303.15
283.15
303.15
283.15
303.15
303.15
283.15
300.451
283.15
303.15
303.14
283.15
303.069
283.15
283.15
283.15
283.15
283.15
303.15
283.15
283.151
283.15
303.15
303.15
303.15
303.15
297.007
283.167
283.15
283.15
301.393
283.15
283.15
303.15
303.15
283.15
283.15
283.15
284.084
285.749
283.163
283.15
283.15
283.15
303.15
283.15
283.15
283.15
283.15
283.15
303.15
283.15
283.15
303.15
283.15
283.15
283.15
283.15
283.148
283.158
283.243
302.064
283.15
303.15
283.15
283.15
303.15
283.15
303.15
303.203
283.15
292.305
283.198
303.234
283.149
298.142
303.15
303.15
283.15
303.15
283.15
283.34
283.15
283.15
303.15
283.314
283.15
303.15
282.964
283.15
303.15
283.15
283.15
303.15
303.15
283.15
303.15
283.15
283.15
283.15
299.975
283.151
303.15
283.15
283.15
283.15
283.15
283.15
283.15
303.138
283.15
283.15
283.15
283.15
283.15
283.15
291.511
283.15
303.15
283.15
283.15
303.15
283.15
283.15
283.15
303.15
283.15
303.15
296.704
283.15
283.15
283.158
303.15
283.156
283.15
283.15
303.15
303.147
303.15
283.15
302.992
303.128
283.15
283.15
283.15
283.15
283.15
303.15
283.15
283.15
283.15
303.15
283.15
283.519
283.15
283.15
283.557
303.15
283.15
303.15
283.15
303.15
303.249
283.15
303.266
284.791
303.15
303.15
283.15
283.15
283.153
283.15
303.096
283.15
283.15
283.15
283.15
283.15
283.15
283.15
283.15
283.15
303.15
283.15
283.15
283.15
283.15
303.15
283.15
283.15
303.15
283.15
303.15
283.155
283.15
301.073
303.15
303.15
283.15
303.15
283.191
283.15
283.15
283.15
283.15
283.15
303.15
302.779
283.15
288.356
283.151
303.15
303.15
283.15
283.15
303.15
283.15
283.15
303.15
303.15
283.15
283.15
303.24
283.15
299.602
285.393
303.15
303.157
302.049
303.15
283.15
303.15
303.15
303.15
303.15
303.15
303.15
303.15
283.15
303.15
303.15
283.209
303.15
303.263
303.15
303.162
303.15
303.15
300.676
303.649
303.15
292.157
303.15
303.15
283.15
302.342
303.15
301.732
303.123
283.157
283.15
303.15
302.648
283.149
303.15
303.15
283.15
283.15
283.15
283.15
283.15
283.148
283.15
283.15
303.15
283.293
283.15
303.521
303.133
283.15
302.188
283.15
283.15
303.091
285.61
283.15
303.15
283.15
303.779
283.15
283.15
303.15
303.15
303.15
303.15
303.15
303.15
299.152
299.875
283.15
292.723
303.15
283.15
283.15
283.15
299.671
283.15
283.15
298.687
283.15
283.147
283.15
303.15
283.15
300.306
283.15
301.138
301.74
303.15
302.185
303.15
303.15
283.15
303.15
283.15
303.15
303.15
283.15
303.15
303.15
301.012
303.15
283.15
283.15
283.15
283.15
283.841
283.15
283.173
303.15
295.795
303.15
283.9
303.15
283.15
297.498
299.066
284.902
303.15
303.15
303.15
283.15
283.15
303.15
283.15
283.15
283.15
298.665
303.15
283.15
283.147
283.15
303.15
303.15
283.15
283.15
303.15
283.15
283.235
283.15
296.877
303.15
283.15
283.15
283.15
303.15
283.152
283.15
302.711
297.364
283.481
303.15
303.15
303.146
303.15
283.15
303.15
283.15
298.168
283.15
283.15
283.15
283.152
283.15
283.15
283.15
283.154
285.828
283.265
283.15
283.15
283.15
283.263
283.15
283.466
283.15
283.303
303.158
283.15
283.15
283.15
303.15
283.327
283.296
303.15
283.15
303.15
283.15
283.348
283.248
283.949
283.15
283.15
303.15
303.15
303.15
283.15
283.15
283.15
283.15
283.15
283.468
303.15
303.15
283.15
283.15
283.15
283.151
303.15
303.15
283.15
303.15
303.15
303.15
286.416
303.15
285.466
294.075
283.15
283.151
283.15
283.15
303.15
303.15
285.564
303.15
285.767
283.145
283.15
303.15
303.15
283.15
303.15
303.15
303.15
305.823
303.15
286.123
283.15
303.15
303.15
287.468
303.15
283.15
283.15
303.138
303.15
303.15
303.15
283.15
303.15
303.15
302.737
287.505
287.781
303.15
283.15
303.15
287.727
287.484
288.768
283.15
283.15
283.15
283.15
283.15
283.15
303.15
303.15
303.15
303.15
283.15
283.15
283.15
303.15
303.15
303.15
303.15
283.15
302.505
283.15
283.15
283.15
303.15
303.15
283.147
298.836
295.618
283.15
303.15
303.15
303.15
303.15
283.15
283.15
303.15
303.15
283.15
303.15
283.15
283.15
292.666
303.15
283.15
283.15
303.1
303.15
303.815
283.15
283.15
303.15
303.15
303.15
303.15
283.15
283.15
303.15
302.704
292.976
291.863
303.15
303.15
303.15
303.15
283.153
303.151
303.15
303.15
283.15
283.753
283.15
303.15
303.15
293.015
303.15
303.15
303.15
303.15
283.15
303.15
283.15
283.15
283.15
283.15
303.15
303.15
303.15
283.15
303.148
303.15
303.15
303.15
303.15
303.497
283.151
303.15
283.15
283.15
283.15
303.15
303.15
303.15
303.15
283.15
283.15
303.15
302.818
283.15
295.162
303.15
291.114
303.15
283.15
301.956
287.007
283.15
297.004
303.15
293.396
283.15
303.15
303.15
303.152
303.15
283.274
303.15
283.15
283.15
283.15
303.15
303.15
283.15
284.378
283.15
302.566
283.15
283.76
288.275
283.999
283.15
303.154
283.375
303.111
283.15
283.157
284.387
283.15
283.15
283.155
283.15
285.126
303.15
283.15
283.15
296.86
303.15
283.15
303.15
303.15
303.15
303.1
283.359
302.97
283.15
303.15
302.974
303.15
283.15
303.15
303.15
283.15
303.15
303.098
303.15
283.15
303.15
283.15
303.15
303.15
303.215
283.15
303.416
302.916
298.512
303.15
291.677
297.44
284.594
292.066
283.15
283.15
283.15
283.386
283.15
303.582
283.15
283.15
303.15
283.15
303.151
303.15
303.15
298.775
303.131
303.15
283.15
303.142
303.15
283.15
283.1
283.15
283.15
303.15
283.15
303.15
283.15
303.15
283.15
303.15
303.15
283.15
303.15
303.15
303.15
283.15
303.15
283.15
303.15
302.883
303.15
283.15
283.15
303.15
303.15
303.15
283.15
302.575
303.15
303.15
283.15
283.15
292.612
303.15
283.15
283.15
287.843
303.15
303.15
288.785
283.15
292.714
303.15
303.151
303.15
303.15
283.15
283.15
302.363
283.15
303.15
303.15
303.15
303.15
303.15
283.357
283.15
291.831
303.15
303.15
291.35
303.15
303.15
303.15
303.15
303.15
283.15
303.15
303.15
283.15
283.15
303.15
283.15
303.15
283.15
283.15
283.15
291.132
286.464
283.15
283.15
303.15
303.15
303.15
283.15
283.15
283.15
303.15
283.15
303.15
303.15
292.786
303.15
283.15
303.15
283.15
284.449
303.15
283.15
303.15
303.15
303.15
285.482
303.15
283.15
303.15
303.15
283.15
283.15
283.15
303.15
303.15
284.862
283.15
297.166
303.15
303.15
303.15
283.15
293.044
303.15
283.15
303.15
283.15
303.15
283.15
297.06
303.15
303.15
283.15
303.15
303.15
283.15
303.15
283.15
295.521
303.15
283.15
303.15
303.15
303.15
303.15
303.15
303.15
283.15
283.15
283.15
283.15
303.15
303.15
296.503
283.15
303.15
283.15
303.15
283.15
283.15
303.15
303.15
303.15
283.15
303.15
298.351
303.15
283.336
283.15
286.417
303.15
303.15
283.379
283.15
303.15
283.15
283.151
303.15
303.15
283.596
283.895
283.15
283.15
283.15
285.977
283.15
283.86
303.15
298.404
283.15
283.15
303.15
303.15
303.15
283.15
303.15
303.15
303.15
303.135
283.17
283.15
283.29
303.15
299.833
283.15
303.134
283.15
283.15
283.686
303.15
303.15
283.15
283.15
283.176
303.15
283.15
283.15
303.15
298.221
303.15
296.091
303.15
283.15
303.15
283.15
283.15
283.15
283.257
283.15
283.372
303.15
303.15
283.15
283.15
303.15
303.15
303.15
303.15
283.171
285.229
283.15
303.15
283.151
283.15
283.15
303.155
283.15
283.587
283.15
283.15
283.504
283.15
283.15
303.15
303.15
303.15
303.15
283.15
283.15
283.15
303.15
283.15
283.15
303.15
283.15
297.839
283.15
303.15
283.15
303.15
303.15
283.967
283.15
303.15
283.15
303.148
303.15
303.15
303.15
283.15
283.15
303.15
303.147
283.15
303.15
303.15
303.15
295.542
283.15
283.21
303.15
303.15
303.15
303.15
303.15
303.148
303.145
283.15
303.15
283.15
303.15
303.149
303.15
303.147
303.148
283.15
283.15
283.15
303.15
303.15
283.15
303.15
283.15
284.58
283.15
301.872
283.15
303.154
303.15
283.161
283.15
283.165
297.917
303.15
283.167
303.169
303.15
297.949
283.15
303.15
303.15
303.15
303.15
283.15
303.15
303.15
299.506
283.15
303.15
303.15
303.15
303.15
283.15
292.054
303.166
283.174
303.15
283.188
283.195
303.15
283.15
283.15
303.15
303.15
303.15
283.15
283.15
283.512
303.15
303.15
303.18
303.15
283.15
283.323
303.15
283.15
303.15
288.675
303.15
283.15
292.96
283.15
283.15
283.15
303.15
292.357
303.15
303.15
303.15
283.15
284.062
294.317
295.946
283.357
302.163
302.394
283.15
283.15
301.371
283.6
283.15
303.149
303.15
303.15
283.15
295.275
303.15
283.15
302.401
303.15
303.15
283.655
303.15
303.15
289.022
290.217
303.15
283.15
303.15
283.15
303.15
303.15
303.15
303.15
283.831
303.15
303.15
303.15
302.598
303.15
303.15
283.15
283.15
283.15
283.15
302.519
283.15
283.15
283.15
303.15
284.544
284.529
303.15
283.15
303.15
283.15
303.15
283.15
283.15
303.15
303.15
303.15
283.15
303.15
303.15
303.15
283.15
303.15
283.15
286.611
303.15
303.15
292.226
303.15
283.15
283.15
283.15
303.15
303.147
283.15
303.206
283.15
283.15
283.15
283.15
283.15
283.15
303.068
303.158
283.15
302.721
303.151
303.152
283.15
283.15
283.152
283.523
286.144
283.155
283.164
283.15
283.15
283.167
283.169
283.15
283.164
283.15
283.15
283.15
302.902
283.155
283.15
283.15
283.15
283.15
283.152
303.15
283.15
283.15
283.219
283.339
283.15
283.151
283.15
303.15
301.369
303.15
283.15
283.165
283.407
283.15
303.15
283.15
283.15
283.15
283.146
303.168
283.15
283.154
302.084
283.176
303.15
303.192
301.376
295.53
283.15
289.731
302.971
287.166
283.15
283.15
283.15
283.156
283.15
283.181
303.15
283.152
303.15
303.15
283.15
283.151
283.15
303.15
284.812
292.903
283.15
301.703
303.15
284.151
283.15
284.457
303.15
283.15
303.15
283.15
285.135
300.839
302.903
303.15
303.15
302.119
283.154
283.15
303.15
283.15
283.151
287.884
283.15
283.15
283.15
303.15
283.15
283.15
283.206
283.15
302.678
303.124
303.15
292.093
283.15
283.147
293.645
295.756
283.15
283.153
291.756
283.15
283.527
303.138
283.447
283.15
283.15
297.4
283.15
294.474
283.15
283.151
290.975
283.15
303.15
295.402
295.374
302.696
283.15
302.909
283.15
294.28
283.15
303.15
283.477
283.15
294.854
287.178
283.15
283.15
283.199
285.924
296.526
303.15
303.15
295.491
283.15
293.247
283.475
303.15
283.15
287.106
283.15
303.15
283.15
283.15
284.323
301.52
283.15
283.15
283.15
301.607
303.15
303.15
283.658
302.042
283.386
283.15
303.15
302.649
283.479
303.15
283.15
283.187
283.15
283.292
299.532
285.09
283.15
283.15
283.15
286.026
283.15
283.228
283.168
303.15
303.069
303.15
303.15
283.15
285.752
283.15
283.083
283.151
303.15
283.15
284.589
283.643
283.15
283.15
303.15
283.15
283.15
283.15
283.15
283.259
283.15
303.15
303.15
283.15
283.15
283.263
283.15
283.15
283.15
284.428
303.15
283.15
284.419
283.15
303.15
283.191
283.15
285.282
283.229
283.15
303.046
303.15
283.15
283.15
283.15
303.15
283.15
283.15
283.15
283.15
283.15
283.15
283.15
283.15
283.15
283.15
303.15
303.15
283.15
283.15
283.15
283.152
283.15
283.15
283.192
283.15
283.15
283.15
283.15
283.019
303.15
303.15
283.15
283.15
283.15
283.145
283.15
283.964
283.149
283.15
283.153
303.09
283.15
283.15
283.15
283.15
303.116
283.15
303.15
283.15
302.656
283.15
283.15
283.15
283.543
299.918
283.147
283.15
283.15
283.15
283.15
283.163
291.402
285.039
303.15
283.15
283.15
283.15
283.213
283.15
284.939
283.15
283.15
283.15
283.15
283.15
283.15
283.15
283.157
283.539
300.01
291.247
283.15
303.269
292.767
283.15
283.15
283.15
303.15
283.15
283.15
283.15
283.15
283.15
283.163
283.154
283.15
283.15
302.082
283.152
283.15
283.15
283.15
286.556
283.15
289.733
283.15
283.342
283.151
283.15
303.15
283.196
283.15
303.15
283.154
283.151
303.004
303.15
283.15
283.15
303.152
283.158
283.15
283.15
283.15
285.083
298.05
303.14
283.15
303.162
303.15
283.15
303.162
283.15
283.15
283.15
283.15
283.158
283.15
283.15
283.15
283.15
283.15
283.15
283.15
283.15
283.15
283.15
283.15
285.262
283.184
283.15
286.381
283.145
283.147
283.15
283.076
283.15
283.15
283.15
283.15
289.602
283.15
283.124
283.15
283.15
283.15
291.084
283.15
283.15
283.15
294.714
283.15
283.181
283.15
303.15
283.15
284.875
283.15
283.15
283.15
285.38
303.15
303.15
301.931
283.15
303.075
283.15
283.15
284.953
303.142
283.305
285.597
303.15
283.15
283.15
283.15
283.15
283.15
283.144
283.15
283.15
284.55
298.257
303.15
285.514
283.15
286.188
303.15
303.15
283.15
283.255
303.15
293.351
283.15
283.158
283.15
283.15
283.15
303.15
303.059
283.15
285.28
283.15
283.15
292.24
286.068
283.175
283.15
282.856
283.15
303.136
283.15
303.135
303.15
283.329
289.837
283.15
283.15
283.15
283.15
296.501
283.603
283.217
294.607
283.15
283.15
303.158
287.207
283.153
303.126
283.15
283.15
283.15
283.15
283.15
287.619
283.15
303.143
283.408
283.15
293.794
283.15
283.15
283.15
303.142
283.15
283.135
285.717
303.15
283.15
303.161
283.159
283.15
290.598
303.198
302.881
283.15
303.15
283.15
303.168
286.25
283.15
283.15
283.15
302.973
302.937
283.15
283.15
283.15
283.46
286.315
302.766
303.144
287.834
287.663
283.574
283.161
283.15
283.15
303.15
283.15
303.117
303.15
292.231
283.15
283.15
302.966
283.15
283.15
283.165
299.505
289.788
283.15
292.074
302.894
284.356
283.15
303.15
302.887
302.589
284.092
283.328
303.15
283.15
283.15
283.153
283.21
283.15
283.15
283.15
283.15
303.15
283.15
283.39
303.15
283.15
303.15
283.15
283.15
298.941
283.703
283.15
283.15
283.15
296.822
283.15
283.15
283.15
283.15
283.369
303.15
299.833
299.234
283.242
283.15
283.15
283.15
283.769
283.15
283.15
303.15
283.15
283.15
283.15
283.15
283.15
283.15
283.15
283.15
283.15
283.15
303.15
283.15
283.15
283.15
283.151
283.297
283.15
303.122
303.155
292.489
294.611
283.15
283.303
283.15
283.145
303.15
303.158
300.295
283.15
302.684
283.15
303.15
283.15
283.196
283.15
283.15
283.15
283.15
283.15
283.225
293.94
303.08
283.15
303.15
289.854
283.15
283.093
283.145
287.228
298.757
303.149
284.88
283.15
283.15
283.15
303.151
283.15
283.235
283.347
283.15
283.15
283.836
283.083
303.158
303.15
303.15
283.15
283.162
283.15
303.15
303.15
283.15
283.15
283.15
283.244
283.15
303.15
283.15
301.695
303.15
283.15
283.15
283.15
303.15
283.15
283.15
283.15
283.15
303.15
303.15
283.515
283.15
283.15
283.15
303.15
303.15
283.15
283.15
283.187
283.15
303.15
283.15
303.15
303.15
283.15
283.15
283.15
283.15
283.15
283.15
283.15
303.15
283.15
283.199
303.15
283.15
283.15
283.15
303.15
303.15
303.15
283.15
283.15
302.824
283.15
283.15
283.15
283.165
291.077
299.523
303.15
303.15
283.15
303.114
286.831
283.15
303.15
303.148
283.15
283.15
299.441
283.16
303.15
303.15
283.372
303.13
303.15
303.15
283.15
283.15
303.15
303.15
283.169
283.28
283.15
303.15
283.15
283.15
283.15
283.15
283.15
303.15
283.152
303.15
303.15
283.192
283.15
284.948
283.15
303.15
303.137
283.261
293.466
284.462
293.141
283.15
283.15
283.152
283.15
303.15
283.159
283.15
283.15
283.15
284.811
303.15
283.15
283.15
283.15
283.15
283.15
303.15
283.15
283.15
283.15
283.15
283.15
283.15
283.15
283.15
283.15
283.15
283.15
283.15
283.15
283.15
283.15
283.15
283.15
283.153
283.15
303.15
283.15
283.15
303.201
283.15
283.15
283.15
283.15
283.15
283.15
283.15
283.15
283.15
283.15
283.15
302.409
283.15
283.15
287.484
301.417
300.97
283.15
283.15
283.151
294.591
283.15
283.15
302.87
285.569
300.077
283.15
283.151
283.15
283.153
283.154
303.12
289.583
302.341
283.15
283.15
283.152
283.15
283.15
283.15
303.129
283.15
297.531
301.278
302.571
283.15
301.827
303.007
283.153
289.015
283.15
303.15
303.15
283.153
283.165
283.157
301.369
284.629
283.15
283.15
303.138
283.15
283.15
283.15
283.15
302.594
303.131
285.312
302.954
303.177
300.203
303.207
302.933
283.15
283.15
302.927
283.15
303.15
283.15
303.15
283.15
283.158
283.171
283.15
283.15
283.15
303.044
283.15
283.15
303.049
283.15
296.996
303.137
303.09
283.15
283.15
283.15
283.174
283.15
283.159
283.15
283.217
303.14
283.15
283.15
283.15
283.164
283.15
283.195
303.15
283.15
302.883
283.159
283.15
284.226
283.15
283.419
284.192
283.15
283.524
303.057
303.183
283.222
303.15
283.15
283.15
298.289
303.087
303.15
283.15
285.458
303.149
283.15
283.15
303.119
303.161
283.225
286.701
283.151
302.78
291.039
283.15
303.148
283.15
303.16
283.15
283.15
283.15
287.984
288.822
283.15
283.15
286.426
283.15
283.15
286.525
284.102
303.151
293.735
296.837
283.152
286.33
283.15
303.15
283.15
286.845
303.15
283.15
303.167
283.208
303.15
283.164
283.15
285.567
283.15
283.15
283.15
283.166
283.199
283.513
283.15
303.15
283.15
283.15
283.15
283.15
283.15
283.15
283.159
283.15
283.15
284.264
283.15
283.15
283.15
283.15
293.395
283.975
283.15
303.16
283.151
303.147
283.15
294.001
283.151
283.15
283.15
283.15
283.181
283.15
283.15
283.15
285.211
283.155
283.102
288.402
291.413
303.15
283.15
288.335
283.15
296.202
303.15
288.551
284.942
283.15
291.625
303.15
283.683
283.15
283.15
283.15
285.082
303.165
303.149
283.15
283.15
283.18
303.15
292.834
303.15
303.164
296.408
303.44
303.15
283.15
303.15
303.15
293.028
283.15
303.15
283.15
283.15
283.151
303.15
303.15
286.366
283.322
288.593
303.205
303.15
303.146
285.188
283.322
283.15
283.15
286.868
303.15
283.15
303.15
303.15
303.132
286.262
303.15
303.147
283.312
303.151
302.733
283.342
283.147
283.74
286.617
290.343
303.15
283.15
283.15
283.15
283.15
302.377
283.15
283.15
303.15
303.15
283.152
303.154
302.356
283.15
302.666
283.15
283.15
283.15
283.15
283.229
283.15
302.089
283.15
303.15
283.884
283.691
303.132
283.181
303.15
283.15
283.15
283.15
303.15
299.305
300.302
283.2
283.15
288.656
283.15
297.865
303.15
300.777
301.305
303.15
303.15
283.15
285.621
283.15
283.15
303.15
283.15
283.399
303.15
283.15
283.162
283.316
303.15
300.835
283.15
283.15
283.185
298.837
283.15
295.449
283.15
303.133
302.302
287.706
297.311
283.15
283.15
283.15
283.15
302.986
303.151
303.15
303.165
292.944
295.58
284.865
283.15
303.15
283.15
303.15
303.064
283.232
303.15
283.15
283.15
303.15
285.591
303.105
303.15
303.105
303.154
283.187
283.15
283.15
283.151
283.15
303.15
283.15
291.636
287.965
292.417
303.139
303.15
283.15
303.179
283.15
303.179
303.15
303.15
303.141
303.15
285.13
303.15
284.386
303.145
303.15
284.032
303.141
283.15
283.15
303.135
283.15
283.15
283.393
303.131
284.882
283.15
283.15
283.15
303.15
283.178
302.956
283.15
286.285
293.393
285.417
303.15
283.15
283.15
291.273
283.15
283.601
303.15
303.141
303.182
283.15
303.15
283.758
283.15
303.187
303.15
285.009
283.15
283.15
283.15
302.572
283.15
283.15
303.15
283.15
283.15
283.188
283.165
283.15
283.15
284.623
283.15
303.15
287.078
283.15
283.15
283.15
303.15
283.15
283.15
303.15
283.15
283.165
283.15
283.15
303.15
283.15
283.15
283.15
283.15
292.85
283.15
303.15
283.15
283.171
283.15
283.15
283.15
303.15
283.209
303.15
283.15
303.15
302.874
303.15
283.15
303.15
297.001
283.15
290.094
303.15
283.15
283.15
283.15
283.15
283.194
283.15
303.15
283.15
303.15
283.15
283.15
303.15
283.15
283.15
303.15
283.15
303.15
303.15
283.15
283.15
283.96
283.15
283.15
303.15
283.15
283.15
283.15
283.15
283.15
283.15
283.15
283.15
283.15
283.155
283.15
283.15
303.15
303.15
303.15
283.155
283.15
303.15
302.73
283.15
303.15
290.951
303.15
283.15
301.172
303.15
283.15
295.164
283.15
303.15
283.15
283.309
301.965
300.778
283.15
288.16
283.151
283.15
283.15
303.15
283.15
283.15
283.15
283.165
303.15
283.152
283.15
303.15
283.15
283.15
283.15
283.15
303.15
283.15
300.483
283.15
303.15
298.207
303.15
283.15
283.15
303.15
303.15
285.625
302.603
301.909
283.153
303.15
294.073
288.896
297.906
290.797
295.293
283.15
303.15
303.15
303.15
283.894
284.033
290.493
283.15
283.152
283.204
303.15
303.15
283.15
303.15
293.056
303.15
303.15
303.137
284.914
303.058
302.965
283.394
283.61
303.067
292.838
303.151
283.15
303.15
303.15
283.15
283.189
283.15
303.15
283.15
283.173
303.15
301.814
284.423
283.15
283.15
283.15
283.259
283.15
284.965
283.15
283.15
283.15
303.15
283.201
283.15
283.15
303.156
283.152
303.15
303.15
303.15
303.15
291.076
303.15
283.15
283.15
283.15
283.15
283.15
303.246
303.15
303.15