/*--------------------------------*- C++ -*----------------------------------*\
  =========                 |
  \\      /  F ield         | OpenFOAM: The Open Source CFD Toolbox
   \\    /   O peration     | Website:  https://openfoam.org
    \\  /    A nd           | Version:  10
     \\/     M anipulation  |
\*---------------------------------------------------------------------------*/
FoamFile
{
    format      ascii;
    class       volVectorField;
    location    "0.2";
    object      U;
}
// * * * * * * * * * * * * * * * * * * * * * * * * * * * * * * * * * * * * * //

dimensions      [0 1 -1 0 0 0 0];

internalField   nonuniform List<vector> 
111485
(
(0.0869137 -0.0781633 -0.00325886)
(0.211843 -0.0317315 -0.0408101)
(0.209687 0.0510177 0.0181403)
(0.0836418 -0.0893363 0.0132767)
(0.231179 -0.029397 0.0120515)
(0.0857105 0.0694278 -0.0226753)
(0.209423 0.0012814 -0.033917)
(0.23839 -0.011563 0.0119211)
(0.227641 0.0049008 0.006745)
(0.230383 0.0137246 0.0381194)
(0.234228 -0.0216897 0.00820382)
(0.223011 -0.017953 0.0165323)
(0.205042 -0.0292713 0.0308971)
(0.203332 -0.0447447 0.00191535)
(0.229216 -0.00270728 0.0136069)
(0.210603 0.0274334 -0.00565014)
(0.244828 0.0411202 0.0530583)
(0.0809532 0.00652723 0.0293461)
(0.267587 0.0271113 0.0143926)
(0.0807952 -0.0553535 -0.0059155)
(0.082379 -0.1029 0.0189343)
(0.0683343 0.100484 0.0119217)
(0.239681 0.00541318 -0.00905248)
(0.217919 -0.0144588 -0.0142793)
(0.214394 -0.0227129 -0.00604432)
(0.0637738 -0.0830082 -0.00835411)
(0.238438 0.00509219 -0.00801972)
(0.259187 0.00975625 -0.0360878)
(0.234962 0.00868558 0.0232522)
(0.0749286 -0.0985144 0.0122432)
(0.217419 0.00970308 -0.00187652)
(0.188962 0.0226219 0.0543956)
(0.0946847 -0.0935852 0.00679196)
(0.0848486 0.0896784 0.00606185)
(0.0827568 0.0440454 0.00413233)
(0.0643678 0.090777 -0.00605297)
(0.244477 -0.0079932 0.00882392)
(0.249054 0.0198785 -0.0216814)
(0.231353 0.112653 -0.00498635)
(0.206547 -0.00552393 0.0145696)
(0.0570385 0.0951464 -0.0359464)
(0.219216 0.0245334 -0.023964)
(0.23461 0.0291763 -0.0101103)
(0.22806 0.0209479 0.00887218)
(0.237039 -0.0451945 -0.0194401)
(0.0587379 -0.0897705 -0.0096401)
(0.2333 -0.00807422 0.0190345)
(0.267207 0.00101268 0.00061633)
(0.216257 -0.0284534 -0.0323335)
(0.065617 -0.0766942 -0.0135616)
(0.0905117 -0.055762 0.00475768)
(0.0760264 0.0746806 0.0145803)
(0.0883096 -0.0930793 0.0281718)
(0.240719 0.0205076 0.0120576)
(0.0807196 -0.0655373 -0.017431)
(0.223311 0.0180199 -0.0151709)
(0.231518 -0.00588702 -0.00411298)
(0.0660606 0.11192 0.024815)
(0.267989 0.00524184 -0.00457758)
(0.217494 -0.0131029 -0.0140624)
(0.238685 -0.0107416 -0.047176)
(0.0847006 -0.0890646 -0.00332311)
(0.253281 -0.0215641 -0.0287489)
(0.22889 -0.00279456 0.00769597)
(0.0890108 0.0814501 -0.0198544)
(0.229625 -0.0196385 0.0010201)
(0.171781 -0.0334142 -0.0138151)
(0.196063 0.034408 -0.0126268)
(0.206319 -0.00449372 0.0185114)
(0.238488 -0.0115011 -0.0128067)
(0.244788 0.0190618 0.0221807)
(0.198605 -0.00175573 0.0170653)
(0.0770442 -0.0905209 -0.00294582)
(0.230139 -0.0481919 -0.0538888)
(0.0872799 -0.0800382 0.00860666)
(0.261506 0.0029009 0.0157584)
(0.0671796 0.0525061 -0.0148891)
(0.226226 -0.0170925 -0.00684976)
(0.0665597 0.0872091 0.00143857)
(0.0753845 0.0574116 0.0010903)
(0.22893 0.0177769 0.0197714)
(0.233466 -0.0242898 -0.0133758)
(0.0493632 0.0921977 -0.0243951)
(0.0899065 -0.0827578 -0.00404313)
(0.241158 -0.0144732 -0.00143418)
(0.236168 0.03832 -0.0282694)
(0.171383 0.126365 -0.0727594)
(0.246653 2.76931e-05 -0.0134805)
(0.24517 0.0288864 -0.0217084)
(0.209244 -0.0776673 -0.00176252)
(0.237194 -0.0125163 -0.0133347)
(0.226024 -0.00148436 -0.00602848)
(0.241425 -0.0345893 -0.0393653)
(0.246524 0.0257193 0.023053)
(0.225988 -0.0507179 0.0195956)
(0.100566 -0.0534492 -0.00613059)
(0.088472 -0.0798871 0.0148053)
(0.222474 -0.00524858 -0.0340477)
(0.25035 -0.0136777 0.00566826)
(0.235314 0.0382097 -0.0221)
(0.0871528 -0.0711441 0.0335764)
(0.258396 0.0247602 0.00448626)
(0.0813936 0.106947 -0.0109999)
(0.246334 0.0142554 -0.00808869)
(0.223129 0.0361549 0.00668889)
(0.0787285 0.062216 -0.0116864)
(0.0839133 0.0721205 -0.012348)
(0.207591 -0.0158575 -0.00476132)
(0.272197 -0.00953334 -0.0279764)
(0.244074 -0.0137891 0.0307597)
(0.21342 0.0141261 0.0291909)
(0.25622 0.0106758 -0.00118794)
(0.232608 -0.0400193 -0.00717852)
(0.222407 0.0206112 0.0574276)
(0.0709626 -0.0787405 -0.0203027)
(0.267495 0.00284525 -0.00572943)
(0.074564 -0.073271 -0.0111802)
(0.0895688 0.0886603 0.00316256)
(0.245157 0.0122645 0.0150953)
(0.0837439 -0.090563 -0.0237815)
(0.0622408 -0.0823471 0.0107045)
(0.131838 0.0980329 0.000908821)
(0.0564468 0.0674699 -0.0128075)
(0.085912 0.0725719 0.0164428)
(0.231144 0.0110729 0.0031633)
(0.0803645 -0.0682697 -0.00662088)
(0.114593 0.0823675 -0.0194563)
(0.218168 -0.0289388 -0.0161607)
(0.100629 -0.0554393 -0.028546)
(0.22857 0.0123051 -0.0304072)
(0.188384 0.000251634 -0.0343817)
(0.230974 -0.0435201 -2.49783e-05)
(0.0829517 -0.0507379 0.0024279)
(0.0913594 0.100638 0.0254555)
(0.118226 0.097897 -0.000975373)
(0.238518 0.0232376 -0.0118191)
(0.10985 0.0494845 -0.0181831)
(0.237766 0.0279359 -0.038462)
(0.231501 0.0148966 0.000927531)
(0.210678 -0.0058976 -0.0457078)
(0.216708 0.0223521 0.00131225)
(0.282507 0.0103226 -0.0147091)
(0.224567 0.00565091 0.0150029)
(0.219602 -0.0278764 0.0175864)
(0.227323 0.0420994 0.0103535)
(0.220696 0.000374162 -0.0146041)
(0.0750871 0.0344554 0.0261602)
(0.0839399 -0.11424 0.00806745)
(0.0776459 0.066111 0.0146836)
(0.227617 0.00341751 0.0285041)
(0.211247 -0.035736 0.023537)
(0.0907946 -0.0607546 -0.0162695)
(0.201712 0.0817035 0.0124774)
(0.229621 -0.041902 -0.0123157)
(0.256731 0.0269514 0.0318884)
(0.252275 0.0132937 -0.0147901)
(0.224644 -0.0216165 -0.00417832)
(0.215866 0.0113096 0.0146483)
(0.223802 -0.0592965 -0.0486865)
(0.0809761 -0.0804553 0.0264383)
(0.0779947 -0.0735714 0.00669899)
(0.229036 -0.00150614 -0.0117613)
(0.188612 -0.0515509 0.00730269)
(0.202572 -0.0147221 -0.0135233)
(0.252101 0.00398767 0.0218523)
(0.212434 -0.0294269 -0.0344904)
(0.216095 -0.0072405 -0.0115498)
(0.0645038 0.076591 -0.00550255)
(0.228021 0.0246837 0.00877616)
(0.241941 -0.0100102 0.0230871)
(0.0953421 0.0668517 0.0124372)
(0.0886789 -0.0509821 0.00414574)
(0.194016 -0.00140969 -0.0101827)
(0.0849778 0.0672694 0.0237451)
(0.228453 -0.0241943 -0.0109925)
(0.237339 -0.0218805 0.0136177)
(0.0775924 0.066394 -0.00478666)
(0.076268 -0.0832364 0.0013699)
(0.0531943 -0.0944928 0.0180317)
(0.089279 0.0730916 -0.00507588)
(0.074178 -0.0609316 0.0132945)
(0.0741848 -0.0934439 -0.00414977)
(0.245607 -0.0297443 0.00812468)
(0.21958 0.00944114 0.000924968)
(0.239221 0.0201532 0.00151697)
(0.23497 0.0392132 -0.0291308)
(0.214433 0.00505156 0.0298598)
(0.24593 0.0243772 -0.0141104)
(0.24863 -0.00512369 -0.00274911)
(0.0972725 -0.0812725 -0.00493468)
(0.212636 -0.0411089 -0.0109909)
(0.10488 -0.0782305 -0.00447256)
(0.0613757 -0.0617826 0.00795043)
(0.214686 0.0385313 0.0151336)
(0.211355 -0.0358629 0.00414982)
(0.251765 0.00325708 -0.0151521)
(0.214057 0.0171173 0.0104383)
(0.194026 -0.00812933 0.0496397)
(0.0889166 -0.0633457 0.0203094)
(0.236462 -0.00121628 0.029065)
(0.236131 -0.0206936 0.0376717)
(0.163889 0.00611312 0.0135306)
(0.232177 0.00892709 0.00632565)
(0.236594 0.0157967 0.0103849)
(0.0819597 -0.111684 0.0242254)
(0.232082 -0.00696343 0.0234901)
(0.231996 0.0166985 -0.00441781)
(0.0847773 -0.0740127 -0.00920734)
(0.268447 0.00271571 -0.000415385)
(0.229509 0.00147315 -0.0318118)
(0.235576 -0.0109945 0.0283915)
(0.227433 0.00848755 -0.040247)
(0.106314 -0.104493 0.00153731)
(0.0675442 -0.0731574 -0.0222715)
(0.227765 -0.0226277 -0.0122803)
(0.121983 0.0919205 0.00414643)
(0.210776 0.0167457 0.000574456)
(0.0707883 0.085864 -0.00485049)
(0.243622 0.0105064 -0.0161246)
(0.238142 0.000631508 -0.00173759)
(0.243389 0.0410368 -0.00447241)
(0.0880664 -0.0470391 0.0198677)
(0.220617 0.00150077 -0.00972929)
(0.232132 -0.0674495 0.00989101)
(0.112151 0.0540993 -0.0228008)
(0.0879825 0.0518145 -0.0161373)
(0.0664812 0.0795448 0.0115131)
(0.224874 0.00847964 -0.0198309)
(0.201918 -0.0647888 0.0023897)
(0.0723448 0.0824319 -0.00744619)
(0.089578 -0.0829578 0.000932166)
(0.213972 -0.0081942 0.000876459)
(0.225277 -0.0106259 0.00450017)
(0.237513 0.00377847 0.0186202)
(0.0802972 0.0622925 -0.00235182)
(0.0682237 -0.078028 -0.0100686)
(0.231125 -0.0400713 -0.00329722)
(0.0755646 -0.085326 0.00405661)
(0.218701 0.0407694 0.0280224)
(0.223507 0.00863469 -0.00025439)
(0.221371 0.00264932 -0.00051097)
(0.235248 -0.000573713 -0.0115846)
(0.225708 -0.0136785 0.00690989)
(0.0943413 0.0873911 0.0271125)
(0.21774 0.0376671 0.0195634)
(0.242856 -0.0106653 0.00572402)
(0.0721252 0.0991335 -0.0198245)
(0.0683863 0.0561918 -0.0125826)
(0.238374 -0.00805216 -0.00972608)
(0.21624 0.00153946 0.0199566)
(0.0565264 0.0721704 -0.00780274)
(0.247297 -0.0046392 -0.0023636)
(0.237084 0.00424109 0.0086849)
(0.0726041 -0.0797612 0.00245466)
(0.0612075 0.0821504 0.000225385)
(0.253537 0.0223808 -0.00442155)
(0.0821532 -0.0692348 -0.0266928)
(0.0885218 -0.0783957 -0.0399761)
(0.101847 -0.0336476 0.0330597)
(0.0787373 -0.0851856 -0.0118867)
(0.218357 -0.0244021 -0.0188987)
(0.18651 -0.00102939 -0.0264283)
(0.20743 0.00958703 -0.0055317)
(0.0962051 -0.0785726 -0.0148881)
(0.234085 -0.00357308 0.0340489)
(0.0889098 -0.104088 -0.0194931)
(0.0680555 -0.0896075 0.00308102)
(0.0780378 -0.0810773 0.00940156)
(0.210872 0.00807041 0.0234509)
(0.195604 -0.0223788 -0.0334042)
(0.224625 0.0204502 0.0369574)
(0.224886 0.000562444 0.0121946)
(0.232873 0.00900388 -0.0222199)
(0.231607 0.0190776 -0.0184775)
(0.253326 0.00405413 -0.00619812)
(0.224537 0.00720273 0.0465081)
(0.204691 0.00695007 -0.0327392)
(0.222417 -0.0239956 0.00848075)
(0.0902843 0.0854851 -0.00214109)
(0.065623 -0.0784951 0.0228379)
(0.206961 -0.003105 -0.00360676)
(0.23885 -0.0106362 0.025154)
(0.231138 0.0166058 0.0366128)
(0.223467 -0.0196389 -0.000745022)
(0.064596 -0.0665995 0.0394559)
(0.224997 0.00210659 -0.000934093)
(0.20674 0.0214663 -0.0450938)
(0.2669 0.00957649 0.0015454)
(0.217619 0.0358298 -0.0168024)
(0.224999 -0.0147264 -0.0157067)
(0.235039 0.00590274 0.00736057)
(0.246114 0.015249 0.00513108)
(0.23588 0.0060587 0.0213548)
(0.0575538 0.0530135 0.047114)
(0.22054 -0.0289688 0.0162598)
(0.075026 0.0871868 0.00938444)
(0.0750097 0.0519401 -0.00325424)
(0.0971752 -0.0329582 0.0190872)
(0.234911 0.030077 0.00459977)
(0.237429 -0.00936332 -0.0281706)
(0.239205 -0.0106925 -0.0134639)
(0.0700121 -0.0734483 -0.0120482)
(0.0794902 0.0674925 -0.0284088)
(0.22898 -0.0106645 -0.0145988)
(0.200364 -0.0222433 0.00443134)
(0.0830346 -0.0741977 -0.0220005)
(0.0749164 -0.0870069 0.0250481)
(0.0766287 -0.0559072 -0.0234193)
(0.275551 0.00667468 -0.00160729)
(0.245746 -0.00499752 0.00989215)
(0.250776 -0.027982 0.0192125)
(0.240373 -0.00295731 0.00799688)
(0.233557 0.054166 -0.0251183)
(0.0969113 0.0664256 -0.0418093)
(0.0734568 0.0861327 0.00782428)
(0.0885057 -0.0999981 0.0122961)
(0.228972 -0.00572315 0.00266086)
(0.197558 -0.151044 -0.0211895)
(0.196742 0.0148881 0.00587829)
(0.214994 -0.00637441 -0.00930698)
(0.238688 0.000230431 0.0406748)
(0.0640189 0.0896257 -0.0243448)
(0.0925812 -0.081845 0.00152645)
(0.0703054 -0.0525933 -0.00509331)
(0.0890623 0.0829883 0.00574286)
(0.234642 -0.0337334 -0.00575727)
(0.247288 -0.025814 -0.0153734)
(0.0927857 0.0800249 0.0046548)
(0.223031 0.00469206 -0.0603633)
(0.0766677 0.0484829 -0.00596795)
(0.0537542 -0.0727125 0.0322674)
(0.208123 0.00415044 0.00284404)
(0.243021 -0.00387891 -0.0230226)
(0.23129 -0.0296488 0.0369271)
(0.223607 0.0106718 -0.0484295)
(0.1 0.0556469 -0.0176133)
(0.0859727 0.0804917 0.0244812)
(0.0983658 0.0657485 0.00951937)
(0.234214 -0.0273241 0.0188527)
(0.2428 0.0363192 0.0135633)
(0.260278 0.00120916 0.00135195)
(0.0893577 0.0505852 0.0238706)
(0.0849247 0.142992 -0.0558144)
(0.217798 0.00763549 0.0283293)
(0.226368 0.0235176 -0.0628315)
(0.203615 0.0485062 0.0173566)
(0.211671 0.00765159 0.0102842)
(0.188811 0.0293339 0.0069547)
(0.0797778 0.085475 0.0119923)
(0.221627 -0.022222 0.0169531)
(0.240398 0.0406969 -0.00364566)
(0.243786 0.0153921 0.000472069)
(0.221182 -0.00195742 0.018809)
(0.276649 -0.00815733 -0.00141043)
(0.0969441 0.108338 0.0257339)
(0.0645001 -0.0852827 0.000706752)
(0.0946066 0.0742961 0.0140238)
(0.0765654 -0.0481007 0.0150774)
(0.235726 -0.00681614 0.0116411)
(0.238265 -0.00378429 0.0102439)
(0.242382 0.0157786 -0.0206232)
(0.239694 -0.0308491 0.00554643)
(0.072419 0.0981831 0.00710518)
(0.200488 -0.00923781 -0.0168768)
(0.066135 0.0920003 0.00880612)
(0.0851336 -0.112655 -0.00799516)
(0.25797 -0.0103759 -0.0156907)
(0.107377 -0.0479582 0.0146691)
(0.140914 -0.0197466 -0.0070881)
(0.0677591 -0.0658271 -0.022909)
(0.0411141 0.0926929 0.0317454)
(0.255156 0.019035 -0.0280401)
(0.0603161 0.0690881 0.00244957)
(0.259452 0.015844 -0.0159983)
(0.254121 0.0153238 -0.00793919)
(0.116498 0.0855484 0.0133446)
(0.2527 -0.0163376 -0.0293127)
(0.20982 -0.00349606 -0.037163)
(0.0849335 0.0588692 -0.00250188)
(0.233071 -0.0388259 0.0136432)
(0.231577 -0.0059442 -0.0130689)
(0.22304 -0.0111754 0.0261085)
(0.227317 -0.046095 0.00396827)
(0.232604 0.00242874 0.0543623)
(0.202263 0.00692721 0.0322948)
(0.090653 0.0681306 0.0047035)
(0.124046 -0.0405666 -0.00829911)
(0.218668 -0.0112538 0.0225988)
(0.10032 0.0642085 -0.0133494)
(0.231593 0.0446868 0.00664852)
(0.215092 -0.0305437 0.0538489)
(0.0807078 0.076439 0.00211963)
(0.0894032 0.100552 -0.0401847)
(0.208922 0.0243667 0.0155282)
(0.240336 -0.0661798 0.030556)
(0.231402 0.00659726 -0.0125831)
(0.223896 0.0305435 -0.0762851)
(0.0677713 0.0844036 0.00564902)
(0.219105 0.0379703 -0.0338954)
(0.225885 0.0170391 -0.0367236)
(0.0800224 0.103674 -0.0196397)
(0.217963 0.062216 0.0377119)
(0.24559 0.0023004 -0.0078248)
(0.0957361 -0.0557335 -0.0243683)
(0.0773429 -0.106905 0.00754479)
(0.22751 -0.0238124 -0.0198248)
(0.228982 -0.0129021 -0.0191293)
(0.0739477 0.0743303 0.0065918)
(0.0649309 -0.0866757 0.0212847)
(0.139102 -0.107805 0.0142988)
(0.0723808 -0.0756619 -0.00860966)
(0.259577 0.0173948 0.00151452)
(0.0880364 0.0314669 -0.0222747)
(0.0642004 -0.0808768 0.0206929)
(0.226042 -0.0327492 0.0271278)
(0.283328 -0.0283433 -0.00128182)
(0.244756 0.00640881 -0.0190997)
(0.172357 -0.017804 -0.0136747)
(0.0937126 0.0901953 0.0249093)
(0.101177 0.074881 -0.00354918)
(0.213403 0.015946 0.0195159)
(0.095691 0.058427 0.00391816)
(0.240209 0.00496429 0.0322855)
(0.163484 0.0710879 -0.00619011)
(0.216176 -0.0442292 -0.015184)
(0.173812 0.0175508 0.006835)
(0.0872586 0.0826441 0.0110476)
(0.232462 -0.0055253 -0.0410885)
(0.247407 -0.00409305 0.00643499)
(0.0835527 -0.083539 -0.00256185)
(0.201884 0.0314695 -0.0407188)
(0.226277 2.01971e-05 0.00519126)
(0.102097 -0.073764 0.00845528)
(0.270043 0.0282119 0.01466)
(0.229768 0.0322188 -0.0100764)
(0.0895264 0.0717484 0.00481456)
(0.220738 0.00538575 -0.0159651)
(0.258228 0.00147406 -0.0306397)
(0.207839 0.00424672 -0.00848765)
(0.091805 0.0328836 0.0128257)
(0.249686 -0.0055733 -0.0327017)
(0.230563 0.0266195 -0.0432756)
(0.212893 0.00463279 0.01117)
(0.237432 0.00302174 -0.0578597)
(0.133491 0.0895305 -0.00391999)
(0.260676 -0.0176344 0.00466622)
(0.0855809 -0.0928113 0.00790227)
(0.197102 -0.0291435 0.0135576)
(0.21077 -0.0117107 -0.0411569)
(0.0746982 0.0759921 -0.0131285)
(0.233899 0.0260245 -0.0230026)
(0.233706 -0.0274072 0.00730685)
(0.118891 0.0689617 0.00894469)
(0.0796404 -0.0653282 -0.00280077)
(0.0590434 -0.0789563 -0.0034416)
(0.0771542 -0.0872602 -0.00893787)
(0.224853 -0.0258064 -0.0540425)
(0.225601 -0.0374451 -0.0385181)
(0.240495 0.00383296 0.0133932)
(0.248518 -0.0422105 0.0115975)
(0.222687 0.0125749 -9.48641e-05)
(0.0713651 0.0651221 0.000306787)
(0.243691 0.00494756 0.0353573)
(0.0810633 -0.0618891 0.0145607)
(0.22321 -0.00724382 0.00140322)
(0.0715631 0.0716794 0.0086662)
(0.06273 -0.0873699 -0.00544291)
(0.0560399 -0.067356 -0.0135815)
(0.210938 0.00739821 0.0251492)
(0.0862387 -0.10505 -0.0113452)
(0.0794954 -0.0924058 -0.000710062)
(0.105414 0.0416618 -0.0153696)
(0.112825 -0.0794576 0.00630034)
(0.0515929 0.0394267 -0.0168573)
(0.233222 0.014996 -0.0512207)
(0.0608681 0.0502798 -0.0130502)
(0.0820648 0.0603547 -0.0142251)
(0.0927372 0.0661923 -0.0160465)
(0.0703807 -0.0878979 -0.00934625)
(0.0959232 0.0634134 -0.0282495)
(0.076805 -0.069965 0.0157179)
(0.100678 0.10373 -0.0012676)
(0.239338 0.000685814 -0.00333139)
(0.0801398 0.0832256 -0.0341785)
(0.211968 -0.00330885 0.0020043)
(0.23828 0.0125682 -0.0278668)
(0.20584 -0.00147426 0.0173312)
(0.0466637 0.0508395 -0.0141)
(0.248562 0.0224881 -0.0243674)
(0.0746469 0.0854532 -0.0170374)
(0.0832411 -0.0864454 -0.00681899)
(0.220471 0.049359 -0.0113468)
(0.233776 -0.00936206 -0.0169109)
(0.222813 -0.00447502 -0.00742232)
(0.249309 -0.021734 0.0591468)
(0.0837675 0.0673226 -0.0033051)
(0.216366 0.00437977 0.0104375)
(0.217399 -0.0258835 -0.0212697)
(0.236936 -0.0296969 0.00882141)
(0.242894 0.0229788 -0.0451529)
(0.202333 -0.0106204 0.0631228)
(0.0872282 -0.111126 0.00135397)
(0.215592 0.0023005 0.0239545)
(0.0957221 0.105404 0.0196739)
(0.246224 -0.0053129 -0.0148173)
(0.0801693 0.0495809 0.000567037)
(0.242691 -0.0183344 0.0339817)
(0.0937205 0.0860474 0.0113733)
(0.237539 0.0133334 0.00272868)
(0.228221 0.0141614 -0.0197895)
(0.114715 -0.0399678 -0.00291455)
(0.0736281 0.087411 -0.0257455)
(0.202269 0.0229291 -0.0460767)
(0.0787337 -0.0924602 0.00648832)
(0.224912 -0.0160242 -0.00629585)
(0.222166 0.00933163 -0.00347304)
(0.0786763 0.0841143 -0.00744108)
(0.0805008 0.0937365 -0.0160799)
(0.0610593 0.0728999 -0.00363643)
(0.0778613 0.0804389 -0.00873239)
(0.223248 -0.0415591 0.0802591)
(0.21925 0.00427195 0.0497574)
(0.0778434 0.0813997 0.00454116)
(0.0758702 0.0869491 0.000632823)
(0.225057 -0.0203244 0.00268452)
(0.0637282 0.0935107 -0.0174079)
(0.233802 0.0133831 0.00836285)
(0.086973 0.0925381 0.0120385)
(0.226856 0.000284022 -0.0240481)
(0.0985144 -0.071173 -0.00991505)
(0.221976 -0.0429144 0.0128575)
(0.249863 0.0234708 0.0186623)
(0.238881 -0.0518327 0.0147194)
(0.218082 0.0163648 -0.00983215)
(0.0796591 0.0794463 0.0234949)
(0.24126 0.0109257 0.0170057)
(0.0850054 0.0977831 0.0137924)
(0.0911432 0.0650197 0.00147406)
(0.248932 0.00860606 0.0396398)
(0.115262 0.103579 -0.0031584)
(0.203549 0.00385088 0.0163898)
(0.0954217 0.075984 0.013487)
(0.240157 0.00605402 0.00224775)
(0.0627649 -0.0727895 -0.0190009)
(0.250472 0.0394511 0.045834)
(0.0817198 -0.0683856 -0.0180742)
(0.101805 0.0982942 0.00315257)
(0.23186 -0.00990739 0.0204713)
(0.236698 -0.0083348 -0.0123184)
(0.252227 -0.0284865 -0.0329899)
(0.244528 -0.00311184 0.00772446)
(0.239042 0.0104978 0.0215683)
(0.223469 0.0518084 -0.000591356)
(0.117962 0.110966 -0.000701937)
(0.218319 0.00505528 0.0135233)
(0.219419 0.00411797 0.000210421)
(0.0757632 0.0815798 -0.0040731)
(0.22731 0.0339364 -0.051725)
(0.237478 0.0219122 0.00348171)
(0.221785 -0.00816146 -0.00123726)
(0.0701555 0.068555 -0.0127206)
(0.0845283 0.011729 -0.0241098)
(0.247678 0.0373488 -0.0413145)
(0.202133 -0.0435444 0.00531053)
(0.163627 0.0366707 -0.00519629)
(0.116935 -0.0497664 -0.000257358)
(0.235547 -0.00872313 -0.00511289)
(0.244303 0.0116796 0.0330663)
(0.222256 0.0101216 -0.0284337)
(0.25747 0.000751391 -0.00402387)
(0.227351 0.0315398 -0.00123052)
(0.202288 0.0366437 -0.0230266)
(0.121786 0.0790002 -0.0224008)
(0.231007 0.0019717 0.00233688)
(0.195233 0.00662249 0.0367398)
(0.107502 -0.0895761 0.0028426)
(0.269551 -0.027956 -0.0124277)
(0.062355 0.0728466 -0.0532338)
(0.102259 0.0665449 0.00417933)
(0.218836 0.0373625 0.0430331)
(0.219694 -0.0003663 -0.00869035)
(0.23104 0.0366778 0.00672424)
(0.233438 -0.0228351 0.00977884)
(0.107691 0.0895377 -0.0514934)
(0.169725 -0.0153491 -0.0671256)
(0.234279 0.0160805 0.00729638)
(0.0835893 0.0760371 -0.0265262)
(0.116674 0.0504294 -0.00368136)
(0.262081 -0.00679053 0.0184986)
(0.0892625 -0.0730971 -0.0244769)
(0.0555075 0.0436777 0.00374607)
(0.0800015 0.110256 0.0210872)
(0.0832495 0.0765913 -0.00412337)
(0.187519 -0.0417695 0.0436873)
(0.0630811 0.0890705 -0.00509426)
(0.0814697 -0.0922856 -0.0218228)
(0.229067 0.0205888 -0.0140426)
(0.216465 0.00272027 0.00528488)
(0.121922 -0.0958213 0.0270986)
(0.186026 0.00538667 0.0214241)
(0.122899 0.0729178 -9.1575e-05)
(0.225311 -0.0277168 -0.0211279)
(0.0966878 -0.0727544 -0.0133561)
(0.0770119 0.0750044 -0.0110952)
(0.228899 0.00147015 -0.0200768)
(0.0616885 0.104012 0.0146284)
(0.0545743 0.0799795 0.00536315)
(0.0768529 0.105587 -0.0209447)
(0.206026 -0.0143199 0.00963253)
(0.156225 0.115085 0.00624357)
(0.210557 0.0145636 -0.00576959)
(0.27864 0.0019547 -0.00402391)
(0.0858515 -0.0706672 0.00303102)
(0.24077 0.0290094 -0.0272499)
(0.233844 0.00343651 -0.0184516)
(0.226959 -0.000565629 -0.0672273)
(0.192324 -0.0257151 0.0448071)
(0.198004 -0.0123556 -0.000369279)
(0.212449 -0.0394182 0.0281907)
(0.0649934 0.0956331 0.025801)
(0.204882 -0.0108111 0.0315908)
(0.26436 -0.000849552 0.0031547)
(0.0732951 -0.0711833 0.00415967)
(0.261593 0.00258865 0.00673377)
(0.206227 -0.00936219 0.0199147)
(0.215988 -0.0511188 -0.0407428)
(0.242728 0.0260373 0.000670685)
(0.238613 0.0195587 0.0108429)
(0.184542 0.0011032 -0.0300434)
(0.0549475 -0.0582964 0.00287933)
(0.241094 0.0232403 -0.00555395)
(0.259275 0.0149327 0.0366633)
(0.083935 0.0872227 -0.0127196)
(0.218024 -0.00233375 0.00895946)
(0.245979 -0.0183644 -0.0232984)
(0.146245 0.12232 -0.0200276)
(0.245041 -0.00426911 0.0151309)
(0.25362 -0.0138555 0.0143071)
(0.218565 0.00211871 -0.0645489)
(0.224195 0.0327911 -0.0350375)
(0.234358 0.00188015 0.0023491)
(0.223104 -0.0128002 -0.0251368)
(0.0572207 0.0647463 -0.00488484)
(0.259657 0.00803748 0.00825105)
(0.238781 -0.000919344 0.0169255)
(0.132269 -0.053585 0.0207049)
(0.196127 0.0156729 -0.00704335)
(0.270226 -0.0131782 0.00629037)
(0.199676 0.00130958 0.00983746)
(0.069945 0.0551992 0.000551956)
(0.264509 -0.00549364 0.0194326)
(0.0967142 -0.0502459 0.0287621)
(0.0866606 0.0656051 -0.0155911)
(0.0907482 0.0828132 -0.000562292)
(0.0722524 0.0816081 0.0125497)
(0.220049 -0.0311038 0.017591)
(0.102717 0.0944156 0.0213111)
(0.197015 -0.0260037 -0.0066436)
(0.0635191 -0.0797906 0.0187081)
(0.0737317 0.073011 0.00328975)
(0.275657 -0.00221867 0.0180977)
(0.224361 0.0116786 0.000966943)
(0.0640415 -0.0933355 0.00251226)
(0.227989 0.0300247 0.00300056)
(0.090788 -0.0819452 0.0107835)
(0.0980936 -0.0857837 0.00779126)
(0.0728514 -0.0666901 0.0212669)
(0.231132 -0.00336828 -0.0689737)
(0.216845 0.0246349 0.00780448)
(0.0886713 0.0833519 -0.00653916)
(0.0615691 -0.0519604 -0.0366465)
(0.0643981 0.0859794 -0.0218751)
(0.103502 0.080507 -0.00625951)
(0.2183 0.0292025 -0.00272336)
(0.208287 0.0311128 0.00255168)
(0.0746505 0.0910284 0.0073927)
(0.239808 0.0151131 -0.00253491)
(0.245362 0.00117831 -0.0297021)
(0.0701959 0.0780934 0.0307633)
(0.230666 0.00218341 -0.019665)
(0.207301 -0.00782651 0.00337401)
(0.236128 -0.00346938 0.0385705)
(0.0479651 0.0693377 -0.00233306)
(0.0793434 0.0735383 0.0159853)
(0.227993 0.00444141 -0.0380154)
(0.236236 -0.00275789 -0.00587638)
(0.109164 0.0850752 0.00761741)
(0.0764644 0.0751609 0.00974566)
(0.0763358 0.0662103 -0.00416741)
(0.232968 -0.0238852 -0.00624299)
(0.101967 -0.072391 -0.0322665)
(0.0618051 -0.0878884 -0.000356321)
(0.0696326 0.0841266 0.0186236)
(0.232969 0.00861123 -0.00946609)
(0.229377 -0.0123109 -0.0265271)
(0.0825313 0.0949847 0.0314044)
(0.106654 0.0473328 0.0138746)
(0.0900477 -0.0181836 0.0102721)
(0.193371 0.0499626 0.00927483)
(0.0798482 0.0827683 0.00219501)
(0.0621375 0.0762427 0.00165512)
(0.226996 -0.0300623 -0.00810249)
(0.250809 -0.031088 0.00827065)
(0.0978589 0.0871664 0.0186314)
(0.135371 0.0437824 -0.000485395)
(0.242286 -0.00518038 0.00085049)
(0.211471 0.0291238 -0.0177881)
(0.196208 0.00555299 0.00336909)
(0.0919987 0.0588278 0.0195259)
(0.209989 0.0191038 0.0107355)
(0.23022 0.00641614 0.00821431)
(0.0697607 0.0466753 -0.00312596)
(0.0750696 -0.0987003 0.00222183)
(0.0963181 0.0969429 -0.011957)
(0.0913656 0.0441654 -0.00445122)
(0.0871751 0.0707246 0.00505923)
(0.0819019 0.0826117 -0.00975868)
(0.231079 0.00868292 0.00299898)
(0.0951926 -0.110064 0.0189595)
(0.0673791 0.0826299 0.012793)
(0.0633133 0.094693 0.0432633)
(0.240017 0.00553291 6.60563e-06)
(0.222047 -0.00624287 0.0240216)
(0.0813132 -0.0759516 0.0157167)
(0.0752869 -0.0692033 -0.0207591)
(0.222916 0.0402986 0.0218979)
(0.201295 0.00857406 -0.00272226)
(0.257511 0.0529913 0.0168798)
(0.0697063 -0.0902151 0.0289864)
(0.0667791 0.117922 -0.0137846)
(0.262983 0.0296267 -0.0123189)
(0.0964121 -0.0629811 0.0134343)
(0.213445 -0.000497136 0.0248856)
(0.22088 0.014929 0.0329493)
(0.2106 0.0177056 0.00625709)
(0.0665722 -0.0886031 -0.00685668)
(0.0917717 -0.0726078 0.00496775)
(0.0767367 -0.0727959 0.00713717)
(0.100642 0.0830215 0.017483)
(0.226498 -0.00666105 -0.0149973)
(0.0744795 0.0997791 0.0127946)
(0.080578 0.0854329 -0.000974713)
(0.227309 -0.00205359 0.0209213)
(0.0932112 -0.105499 0.00441115)
(0.230618 0.000746906 0.0087875)
(0.221191 -0.0103838 0.0203627)
(0.0815757 0.070547 -0.0011783)
(0.222684 -0.0167876 0.0166709)
(0.104455 0.0122729 -0.00561724)
(0.250879 0.0132901 -0.0132129)
(0.21788 -0.00200037 -0.00782697)
(0.230222 0.0311964 -0.0199149)
(0.216597 -0.0321161 -0.0183165)
(0.232138 -0.0356273 0.0103841)
(0.109042 0.0615859 0.00766236)
(0.233855 0.0101782 -0.00679102)
(0.186337 0.00536175 -0.0141259)
(0.241394 0.00904459 0.00937059)
(0.0753218 0.0707249 0.00111105)
(0.230414 -0.0226753 0.00740788)
(0.127071 -0.0230398 0.0129806)
(0.198345 0.00695182 -0.026115)
(0.0966441 0.0782148 0.00186254)
(0.2329 -0.00977208 -0.00203187)
(0.242902 -0.0366123 0.0226249)
(0.217519 0.0129374 0.00420222)
(0.0862879 -0.0642459 0.00738583)
(0.0793668 -0.0883949 0.0154528)
(0.0712774 -0.0947516 -0.0163648)
(0.245726 -0.00433405 -0.00582681)
(0.0614538 0.0631632 -0.00660001)
(0.231984 0.00342791 0.0107623)
(0.051462 0.0638457 -0.027932)
(0.210852 -0.00483059 0.0374461)
(0.235999 0.0352375 0.00721704)
(0.235626 0.00381119 0.00116855)
(0.278858 -0.00712275 -0.0541555)
(0.0614568 0.0850886 -0.00121591)
(0.0940685 0.0689914 0.00430632)
(0.103404 -0.068617 0.00197097)
(0.255552 -0.0127564 -0.01314)
(0.113078 0.106493 0.0010549)
(0.0954817 0.0547453 -0.0157501)
(0.250437 0.01146 0.00517409)
(0.0949709 0.0718343 -0.0163005)
(0.0605456 0.0494477 0.0181031)
(0.0750713 -0.0893769 -0.0116131)
(0.0938147 0.0807859 0.0204154)
(0.236086 0.00491884 0.00702657)
(0.0667323 0.0826835 0.000370774)
(0.0849733 0.0834785 0.00350945)
(0.268152 0.0560794 -0.0127851)
(0.0943829 0.0955019 -0.0083028)
(0.084262 0.0438683 0.0230833)
(0.0961579 -0.0678536 0.0017268)
(0.0883752 0.081096 0.0228292)
(0.213127 -0.00842851 0.0467966)
(0.205469 -2.24115e-05 -0.00162042)
(0.0987616 -0.0811074 -0.0129793)
(0.235402 -0.0259322 0.00223956)
(0.211214 0.0461887 -0.00540342)
(0.240206 -0.0478461 0.0232675)
(0.251429 0.00780876 0.00433107)
(0.244096 0.00716211 -0.0192758)
(0.101124 0.08521 -0.0156553)
(0.278153 0.0163337 -0.0499606)
(0.227125 0.0165012 -0.0213022)
(0.200509 -0.0657195 0.0221298)
(0.0942953 -0.0494753 -0.0182786)
(0.244423 0.0657567 0.012853)
(0.22112 0.017529 -0.0140211)
(0.111158 0.0933411 -0.0172572)
(0.213976 -0.0488231 -0.00591366)
(0.210582 -0.00146205 0.00809675)
(0.227735 0.0130255 -0.0155126)
(0.245538 0.00610256 -0.0110669)
(0.246433 0.0319609 0.0209491)
(0.228306 -0.0155742 -0.0411954)
(0.254473 -0.0436978 -0.00765885)
(0.25686 -0.00331268 -0.0220591)
(0.0816617 0.056686 0.0229522)
(0.0908489 0.0566546 0.00625782)
(0.221198 -0.011144 -0.0257685)
(0.20772 -0.029643 0.0269414)
(0.0786824 0.0869034 -0.0103955)
(0.207877 0.00887534 0.0113599)
(0.192579 0.00789628 0.0333267)
(0.217997 0.0157959 0.0156914)
(0.102296 0.0988145 0.00561512)
(0.171159 0.0384362 -0.00334916)
(0.0971323 0.0854026 -0.00881415)
(0.236934 -0.00735094 0.0194486)
(0.22971 -0.00565662 0.0278331)
(0.0797909 0.0829501 -0.00532219)
(0.211998 0.0408133 -0.0334591)
(0.196572 -0.00668981 0.0696774)
(0.236678 -0.0359623 0.029164)
(0.255406 -0.00652635 0.0476751)
(0.106151 0.0907285 -0.0272372)
(0.275523 0.0410883 0.0202621)
(0.211738 0.0199011 0.00264291)
(0.206304 -0.0157039 -0.0162172)
(0.234458 0.0147825 0.0121055)
(0.233305 0.0328346 -0.0139551)
(0.0787076 0.09346 0.00349219)
(0.106944 0.0800456 0.00784315)
(0.205802 -0.00955309 -0.0118447)
(0.0854065 0.0700729 -0.00742381)
(0.205376 0.00237187 -0.0324393)
(0.247476 0.017098 -0.051396)
(0.127522 0.0209886 0.00448239)
(0.237577 0.00272673 0.0105003)
(0.237763 -0.00614481 -0.0109407)
(0.228542 -0.00753972 -0.0388472)
(0.0823021 0.0880982 -0.0108493)
(0.08648 0.0728675 0.00253985)
(0.23417 -0.0407188 -0.0721437)
(0.0770266 -0.0729305 -0.0092239)
(0.0463445 -0.0168328 0.0156515)
(0.21444 0.0099277 -0.0699626)
(0.082051 0.0863831 -0.0127784)
(0.080751 0.0675621 -0.0143022)
(0.249913 -0.023753 0.0106027)
(0.278909 0.0344824 0.0634735)
(0.0702959 0.0781685 0.0125404)
(0.231204 -0.0225208 0.0175953)
(0.0747526 0.0686814 0.0302322)
(0.061504 0.0762304 -0.00435056)
(0.0980538 -0.109898 -0.0121384)
(0.0819039 -0.0922227 -0.000657769)
(0.0772623 -0.0984592 -0.0319534)
(0.0873689 -0.0865471 -0.00766665)
(0.253118 -0.0122753 0.00463466)
(0.0719057 0.0622109 0.0411572)
(0.095072 0.0904878 0.0204908)
(0.099504 0.0784194 0.00666974)
(0.256025 -0.0318284 -0.0110226)
(0.239549 -0.0237128 -0.0433366)
(0.245039 0.0246791 -0.00430268)
(0.237036 -0.0653643 -0.0289961)
(0.0709173 0.0986995 0.0109786)
(0.10809 0.0626791 0.0045983)
(0.219704 -0.0441429 0.000666193)
(0.0776333 0.0757984 -0.0148495)
(0.0910567 0.0511283 0.00353931)
(0.148296 0.045757 -0.00677922)
(0.226085 0.0159101 0.008147)
(0.217173 -0.0102102 0.00665681)
(0.0775807 0.0851769 -0.00620303)
(0.0877196 0.072417 -0.0163154)
(0.0972164 0.0553569 0.0129719)
(0.0904289 0.0892117 0.00427449)
(0.0953144 0.0573218 0.020697)
(0.0585347 0.10042 0.00454789)
(0.222441 -0.0343993 0.000240311)
(0.0802268 0.0746425 -0.0063577)
(0.232279 -0.00488442 -0.029632)
(0.258785 -0.00853152 0.0159504)
(0.0801383 0.0838353 0.00290099)
(0.088875 -0.111209 0.0285714)