/*--------------------------------*- C++ -*----------------------------------*\
  =========                 |
  \\      /  F ield         | OpenFOAM: The Open Source CFD Toolbox
   \\    /   O peration     | Website:  https://openfoam.org
    \\  /    A nd           | Version:  10
     \\/     M anipulation  |
\*---------------------------------------------------------------------------*/
FoamFile
{
    format      ascii;
    class       surfaceScalarField;
    location    "23";
    object      phi;
}
// * * * * * * * * * * * * * * * * * * * * * * * * * * * * * * * * * * * * * //

dimensions      [0 3 -1 0 0 0 0];

internalField   nonuniform List<scalar> 
214403
(
-0.000467252
0.000358389
1.96801e-05
8.91836e-05
-0.000224213
-0.000756754
6.38035e-05
0.000917164
-0.000692976
4.66003e-06
-9.4033e-06
0.000697719
0.000615821
-0.000414059
-0.00103221
0.000830448
0.000831589
-0.0010514
0.000250494
-3.06803e-05
-0.000355419
0.000370294
-3.69165e-06
-1.11834e-05
-5.7988e-05
-0.000109763
-0.0006241
0.000791852
-0.00114904
0.000654167
-0.000172839
0.000667707
-0.0015758
0.00111375
0.00112284
-0.000660798
0.000958615
0.000113687
-0.00107182
-4.79706e-07
0.000340811
-0.000675146
0.000138967
0.000195368
-0.000700117
0.000219939
0.000363257
0.000116922
3.19557e-05
-0.000774406
0.000932797
-0.000190347
-0.000671815
0.000676621
-4.80605e-06
0.000129346
0.000807397
-0.00103488
9.81387e-05
-0.000809556
0.000676634
0.00020517
-7.22489e-05
-0.000819437
0.000799062
2.03754e-05
0.000268004
-7.70121e-06
-5.2864e-05
-0.000207438
0.001062
-0.000635436
-0.00141178
0.000985207
-5.24067e-06
-0.000214462
6.29986e-06
0.000213403
0.000442788
-0.000432407
-1.03813e-05
-0.000816589
-0.000282543
0.000280959
0.000818173
-0.000154129
0.000923279
-0.000744751
-2.43996e-05
0.000454603
4.79144e-05
0.000158586
-0.000661103
-0.0006927
-0.000334367
0.000896901
0.000130166
0.000638631
-0.000808606
4.99513e-06
0.00016498
0.000218307
-0.000190937
0.000715506
-0.000742876
0.000517012
0.000675971
-0.000814249
-0.000378733
0.000756148
-0.000474182
-2.13973e-05
-0.000260569
-0.000406621
0.000414488
-7.86752e-06
0.000162891
-0.000341764
0.000917004
-0.000738131
0.000955635
4.54527e-05
-0.000165738
-0.00083535
-0.000389276
-0.000399371
0.000408979
0.000379668
-7.92961e-05
-0.000447083
0.000396101
0.000130278
0.000288052
-0.000192651
-0.000625777
0.000530376
-0.000113933
0.000564226
-0.000203899
-0.000246393
0.00108646
-2.88463e-05
-0.00105761
-0.000465214
0.00090753
-0.000442315
7.83914e-05
-0.000989062
0.000577226
0.000333445
0.000166141
-6.67579e-05
0.000406705
-0.000506088
0.000375779
-3.92223e-06
-0.000371857
0.000693765
-1.50925e-05
0.000122483
-0.000801155
-0.000878755
0.000110696
0.0009342
5.85012e-05
5.8726e-05
0.000583734
-0.000700961
-0.00028056
-0.00182159
0.00176692
0.000335233
0.000393659
7.13934e-05
8.89807e-05
-0.000554033
0.000286623
0.000217213
-0.000701043
0.000197207
0.000903543
0.000541154
-0.000990094
8.20791e-05
0.000767159
-0.000155473
0.000126299
-0.000473312
-0.000278342
0.000625355
0.000214913
0.000330321
9.86659e-05
-0.000643901
0.000123361
-9.2595e-05
-0.000283519
0.000252753
0.000475821
-0.000861119
0.000600212
0.000806974
-0.000759547
-0.000260186
0.000212759
0.000736914
-0.000134794
-0.000582335
0.000789272
-3.33068e-05
-0.00017363
0.000598993
-0.000765898
8.85708e-06
0.000158049
-0.000548698
3.6205e-05
0.000876721
-0.000364227
-0.00103658
-0.000973644
0.000817746
0.00119248
-0.000555062
0.000558562
0.00010977
-0.00011327
8.75811e-05
-0.000709401
-0.00059488
-1.23666e-05
0.000309307
0.00029794
-0.000906717
0.000389903
0.000586485
-6.96715e-05
0.00106629
-0.000860047
5.56792e-05
-0.000261917
4.85136e-05
1.79469e-05
-0.00068462
0.000618159
3.52883e-05
-0.000193502
0.00095594
-0.000797726
-0.00238813
0.00025925
0.000270357
0.00185853
-0.000217547
0.000641366
-0.000203722
-0.000220097
0.000314243
-0.000165894
-0.000670673
0.000522324
7.53035e-05
0.000467424
-0.000594093
5.13661e-05
-1.02851e-05
0.000573342
0.000199929
-0.000762986
-0.000114144
-1.81674e-05
-0.000237058
0.000369369
-0.000623837
0.000680328
-2.51171e-05
-3.13736e-05
2.12163e-05
-0.00061369
-0.000441288
0.000390665
0.000118765
-6.81418e-05
-0.00114596
-7.23472e-05
0.000559048
0.000659257
-0.000338816
-0.000144357
0.000288229
0.000194944
0.000509931
-0.00171053
0.000237352
0.000963251
-0.000260141
0.000523666
-0.000285972
2.24466e-05
0.000369714
-0.000287603
3.60733e-05
-0.000118184
8.71862e-06
-0.000717773
0.000709054
2.40095e-06
0.000581974
-0.000584375
0.000501784
-9.81791e-05
6.64694e-05
-0.000470075
-0.000315048
0.000449605
0.000148898
-0.000283455
-0.000217748
0.000925698
-0.000222427
-0.000485522
0.000437184
-0.000745229
-2.81926e-05
0.000336238
0.00050187
0.000513999
-0.00101587
0.000738007
-0.000829024
0.000212029
-0.000121011
7.33585e-05
-0.000132238
0.000960122
-0.000901243
2.78901e-05
-0.000155088
0.000691018
-0.00056382
0.000165822
0.00144593
0.00041535
-0.0020271
-0.00126948
0.0011169
0.00072439
-0.000571815
5.84403e-05
0.00044686
-0.000601119
9.58188e-05
0.00059337
0.000658188
-0.00021475
-0.00103681
0.00110009
-0.000668257
-2.16595e-05
-0.00041017
4.91497e-05
-0.000144138
-0.000452543
0.000547531
-0.000457141
2.55868e-06
0.000454583
0.000668392
2.33591e-05
4.62558e-05
0.000834743
6.73608e-05
-0.00127528
0.000373179
-0.000667044
0.000147167
0.000118993
0.000400884
-0.000432062
0.000107153
5.31571e-05
0.000271752
0.000103521
7.37988e-05
-0.000878276
0.000700956
-0.000175976
-0.00102454
0.000653275
0.000547236
0.000419849
-0.000496799
-0.000323855
0.000400805
0.000677816
-6.9729e-06
-0.000677455
6.61174e-06
0.000507445
-0.000717838
-0.000246781
0.000457174
0.00131634
-0.000398264
-0.000205065
-0.000713012
0.000762972
-1.49233e-06
-0.000700801
-6.06784e-05
-0.000385195
0.000453261
0.000943476
-0.00101154
0.000825193
-0.000290306
-0.000793374
0.000258486
0.000151115
-0.000223454
0.00096716
-0.000894822
-0.00108784
0.000990989
0.00094016
-0.000843309
4.91476e-05
-0.000847757
0.000326814
0.000471795
0.00105982
-5.68791e-05
-2.15049e-05
-0.000981437
0.000766753
-0.000149523
0.000147725
-0.000764954
-0.000863163
-0.000784657
0.000928708
0.000719112
-0.000168784
0.000484062
0.000131238
-0.000446517
-0.000362783
1.95507e-05
0.000701529
-0.000358297
-8.29679e-05
0.000931786
-0.000867463
1.86443e-05
-0.000824238
0.000765469
0.000148974
-9.0206e-05
-2.76227e-05
-0.00048076
0.00114701
0.000146304
-0.000484791
-0.000356613
0.0006951
-0.000382771
5.02556e-06
0.000377745
0.000117421
0.000533512
-0.000492976
-0.000157956
0.00087283
-0.00050307
-0.000134372
-0.000235388
8.61863e-06
-0.000266135
0.000257516
-0.000482961
-0.000130293
0.000183134
0.00043012
5.05928e-05
0.0002774
-0.000622747
0.000294754
0.00109542
-9.89633e-05
0.000428086
-0.00142455
7.42581e-05
-9.89575e-05
-0.00128826
0.00131296
8.28145e-05
-0.000372753
-0.00048719
0.000777129
3.17811e-05
0.000674811
-3.82004e-05
2.71845e-06
-0.000406062
0.000403344
0.000806095
-0.000299854
-0.000359937
-0.000488344
0.00040632
-0.000400937
0.000906808
-0.000754338
-9.17898e-05
-6.068e-05
8.88503e-05
-0.000420053
0.000183676
0.000147527
-0.000739511
-0.000223876
0.000150387
0.000812999
0.00061522
-0.00100038
0.000658885
-0.000273725
-2.78445e-05
0.000903142
-0.000904307
2.901e-05
-2.94924e-06
0.000817424
-0.000809926
-4.54912e-06
-0.00114875
0.000916561
-0.000735874
0.000968059
0.000958244
-0.00092688
-3.13642e-05
-0.000879212
0.00117725
-0.000214754
-8.32823e-05
-0.000786492
0.000190332
-6.18917e-05
0.000658051
-0.00129176
9.93104e-05
0.00083047
0.000361977
0.000225036
-0.000307292
0.000171106
-0.000324621
0.000369452
0.000593887
-0.000638718
-0.000336578
-0.000151242
0.000192833
0.000294987
-0.00046671
0.000305208
-0.000589518
0.000751021
0.000140045
1.15652e-05
-0.00103082
-0.000469121
0.000468074
1.04727e-06
0.000496017
-0.000476631
-1.93861e-05
-0.000760248
-5.0381e-05
-0.00020182
0.00018635
-0.00100017
0.00116385
-0.000350027
0.000449874
0.000774274
-0.000984869
-0.000239279
0.000860048
-0.000933975
2.51168e-05
4.881e-05
0.000457087
0.000118519
-0.000472211
-0.000103395
-0.000719035
-4.30282e-05
0.000948413
0.000426545
-3.08799e-05
-0.000520084
0.000124419
0.000480615
-0.000411641
0.000474237
-0.000543211
-0.000819115
0.000153819
0.00111517
-0.000276531
-0.000387045
0.00127954
-0.000615967
-0.000388995
-0.000435364
0.000105324
0.00011801
0.000312561
-0.000819566
-0.000555013
-4.89131e-05
0.000891226
-0.0002873
8.68769e-05
0.000138291
0.000497875
-0.000723042
-0.000259106
0.000634647
-0.000375541
0.000208497
-0.00100593
0.000362066
0.000601338
0.000418509
-0.000901838
-0.000831865
9.96582e-06
0.00103663
-0.00021473
0.000147182
0.000126456
0.000394592
-0.00066823
0.00057122
-0.00057576
4.53999e-06
0.000210629
-7.95499e-05
0.000707097
-0.000838177
0.000757325
-0.000239399
0.000363179
-0.000881104
0.00139312
-0.000449326
0.00104125
-0.00198504
0.000222
0.000413966
-0.000171627
-0.00046434
-0.000645031
0.00026557
0.000337262
4.21992e-05
0.000460727
-0.000347248
-9.50267e-06
-0.000103976
-0.000287215
-0.000362037
0.00105627
-0.000407017
-0.000517084
0.000672126
0.000266987
-0.000422028
0.000780026
-4.26509e-05
-0.000256761
-0.00118383
0.00078217
-6.50527e-05
-0.00113012
0.0010424
0.000484178
-0.000396464
0.000720744
-0.000812036
-0.00011739
0.000208682
0.000405021
-0.000732588
-0.000382993
-0.000418491
-0.000383813
0.000217333
0.000584971
-0.000597124
0.000185253
0.000589526
-0.000177655
0.000694261
-0.000659821
-0.000455449
0.000421008
4.25727e-06
-6.13931e-06
-0.000663126
0.000665008
1.5389e-05
-0.000566512
-2.15677e-05
0.000572691
-0.000167952
-0.000994164
0.000156647
-0.00057481
0.000516543
-9.83792e-05
-0.00038186
-0.000161006
-5.42577e-05
-1.21054e-05
0.000957745
1.29757e-05
-0.00229254
0.00161353
0.00116586
-0.000486855
-0.000677108
4.58438e-05
2.45607e-05
0.000606704
-0.000134341
0.0021451
-0.00252774
0.000516976
0.000109588
0.00016895
-0.000379127
0.00010059
-0.00145088
0.000782138
0.000100214
0.000568526
-1.69369e-05
-0.00096187
-0.00013745
0.00111626
-0.000388137
0.00144692
-0.00100263
-5.61483e-05
0.000650909
0.00094532
-0.00087496
-0.000721269
-0.000778108
0.000741485
0.000920234
-0.000883611
0.000308116
0.000430501
-0.000536103
-0.000202515
0.000299351
-0.000201868
-0.000479342
-0.00154471
-6.12967e-05
0.00126098
0.000345018
0.000463374
7.29107e-05
-0.000270715
0.000465783
0.000624392
-0.000576344
-0.000513831
-0.00077373
0.000172451
0.000753747
-0.000152468
9.12759e-05
0.000242546
0.000843427
-0.000892864
0.000881617
8.56509e-05
-7.44037e-05
0.000565457
0.000443931
-0.000399166
-1.58068e-05
-0.000112244
0.000527217
-0.000590299
-0.000117312
0.000333839
-0.00112547
0.000475143
0.000316492
3.49772e-05
0.000615041
-0.000682793
3.27744e-05
-0.000231252
4.4725e-05
-0.000214984
0.000401512
0.00095016
-0.00067921
2.84011e-05
-0.000539146
-0.000421775
0.000567174
0.000393747
0.00203933
-0.00218136
0.000712552
-0.000570512
-0.000400784
0.000497826
0.000200728
-0.00029777
-0.000891923
0.000387813
0.000777351
-0.000273241
-0.00038589
0.000561652
0.000722252
-0.000898014
0.0010768
-0.000416464
-0.00070994
4.95995e-05
1.85572e-05
-0.000258427
0.000628584
-0.000388714
-0.000109151
0.000108258
-0.000830973
0.000780134
0.00025256
-0.000835144
-0.000197551
0.000973622
-0.000801728
-0.000214922
0.000200632
0.000294903
-0.000703301
0.000207766
-0.000410679
-0.000750797
0.000668504
0.000492971
-0.000123067
-0.000319245
-9.68335e-05
0.000401786
-0.000428366
0.000923224
-0.000896643
9.7071e-05
-0.00111409
0.00101702
0.00036782
-0.000483823
0.000316635
0.000210126
0.000122817
0.000172762
-0.000505704
-2.24008e-05
-0.000928868
0.000951269
-0.000520013
6.9013e-05
-0.000168616
0.000619615
-6.15067e-05
0.00070526
-0.000642814
-9.40069e-07
-0.000478216
-0.000252754
0.000275847
0.000455123
-0.000178426
-0.000422857
-0.000392677
-0.000577254
0.000481335
0.000488596
2.11843e-05
-0.000592287
0.000997805
-0.000410414
-5.3196e-05
-0.000534195
0.000544259
-5.30563e-05
-0.000397195
-9.40076e-05
-8.70094e-05
0.000760365
-0.000948551
0.000275196
0.000479236
1.85223e-05
0.000233405
-0.000731164
-1.77056e-05
-0.000395573
0.000190986
0.000222293
-0.000280795
0.00036467
0.000703514
-0.000787389
-0.000990769
-0.000250065
-0.000271154
0.000889038
-0.000849487
2.07811e-05
0.000265033
0.000563673
8.18923e-05
-0.000300458
-0.000534515
0.000753081
-0.000399193
-0.000779236
0.000196605
0.000981824
-0.000349683
-0.00038618
0.000401512
0.000334351
-0.000917939
0.000883758
0.000934905
-0.000900725
-0.000127746
-0.000223149
-0.000672003
0.0010229
-0.000923121
8.67844e-05
0.000938372
-0.000102036
-0.000161058
0.00042306
-0.000262002
-0.000372341
0.000688586
-0.0005184
0.000202155
-1.48375e-05
0.00120684
-0.000449264
-0.000742736
-0.000432132
-0.0002083
0.000866316
-0.000225884
0.000139092
-0.000364947
0.000828134
-0.000602279
3.89265e-05
0.000551825
-9.67259e-05
-2.88058e-06
-0.000879772
0.000879664
2.98912e-06
0.00103294
-0.000182918
-0.00150956
0.000659539
-0.000953725
-9.30333e-05
0.00119021
-0.000143452
-0.000515542
0.000779189
6.40219e-05
-0.000327669
0.000452477
-0.000448083
-4.39438e-06
-0.000537904
5.2049e-05
-0.000464591
0.000950446
-0.000774419
0.00106754
-0.000222791
-7.03342e-05
0.000483917
-0.000202942
-0.000582667
0.000301692
-0.000932912
0.000940345
-7.43325e-06
0.000769769
-0.00111932
9.14073e-05
0.000258144
-0.000871653
-0.000238773
0.00149032
-0.000379894
0.000642595
-2.57856e-05
-0.000135455
-0.000481354
-0.000367508
-0.000623131
0.00139243
-6.50848e-05
-0.000919121
0.00055584
0.0014135
-0.00157657
-0.000149674
0.000312739
0.000395587
0.000188657
-0.000437061
-0.000410732
0.000427382
-1.66503e-05
-0.000164883
0.0009226
-5.89823e-05
-0.000698735
-0.000201362
0.000238737
0.00080087
-0.000838245
0.000524146
0.00122883
-0.000718446
-0.00103453
0.000921927
-0.00110613
0.000351588
-0.000167385
0.000815783
1.1723e-05
-0.000827506
1.5395e-05
0.000793918
-0.000809313
0.0008978
-0.00108591
0.000957878
1.00975e-05
-8.30123e-06
0.000696417
-0.000698214
1.77753e-05
0.00127275
-0.00126756
-2.29729e-05
-0.000108644
-0.000321424
-0.000650693
0.00108076
-0.000397283
-0.000238119
7.94832e-05
0.000754241
-0.00130948
0.000475754
-0.000620172
-0.000162464
0.000664766
0.000117871
-0.000751044
0.000829674
-0.00022164
0.00014301
0.000115247
0.000601292
-0.000204421
-0.000512117
-0.000282796
6.70004e-05
0.00048841
-0.000272615
1.73475e-06
0.000233476
-0.000296933
6.17215e-05
-0.000317144
0.000780998
-0.000452393
-1.14599e-05
0.000232511
-0.000735913
-0.00042951
5.41856e-06
-0.000685476
0.000680058
-0.000261468
-0.000250988
0.000116275
0.000396182
0.000375277
-0.000216363
-0.000158914
0.000960259
-0.000953736
-0.000194655
0.000188132
-8.72698e-05
-0.000570437
0.000526496
0.000131211
-2.4339e-06
3.26268e-06
0.000526266
-0.000527095
0.000263796
-0.000216755
-0.000838636
0.000791595
0.000607201
-1.52411e-05
-0.00059196
-0.000867249
-0.000561231
0.000836737
0.000591742
0.000509695
0.000797401
-0.00137218
0.000482627
-0.000173901
0.000272109
-0.000580834
-0.000193349
0.000193489
-0.00106695
0.0010668
0.0003016
-0.000594018
-0.000577099
0.000869518
-6.05711e-05
-0.000133409
0.000629101
-0.000435122
0.000438021
-0.000538362
0.000195044
-9.47028e-05
0.000251346
-0.000416197
-0.000402017
0.000566868
-0.000789788
0.000889171
-0.000236458
0.000137075
0.000914351
0.00117104
-0.00129212
-0.000793279
-0.000696423
0.000693546
2.87744e-06
-7.91865e-05
0.000824033
-0.00102601
0.000281162
3.06931e-05
-5.1594e-05
-0.000791686
0.000812587
0.000759925
3.17938e-05
-0.000874247
8.25288e-05
-0.000340037
-0.000574467
0.000722582
0.000191922
-0.000822448
0.00116557
-0.000412627
6.95035e-05
-0.000323327
-0.000397165
0.000235701
-4.90719e-05
-8.40407e-06
-0.000569127
0.000626603
-0.00185697
7.98075e-06
0.00016557
0.00168342
7.16669e-05
-0.000460298
-0.000239065
0.000627696
0.00116236
-9.56038e-05
-0.000376456
-0.000690303
-0.000199421
-0.000438395
8.08038e-05
0.000557011
0.00033346
-1.16455e-06
-0.000332295
0.000547092
0.000291431
-0.000181462
-0.000657061
0.000423124
-0.000334906
0.000833227
-0.000921446
2.66096e-05
0.000866971
-0.000286669
-0.000606912
0.000210565
0.000301078
0.00065072
-0.000404556
3.0916e-05
0.00037364
-0.000529688
7.60673e-05
0.000139807
8.82386e-05
-0.000728431
0.000500385
-0.000706526
0.00103405
0.000312995
0.00106861
-0.000226689
-0.00115492
-0.000679463
0.000664678
-0.00105335
0.00106814
-9.92463e-05
-0.0004971
0.000174065
0.000422281
-0.000559354
0.00106122
0.000317993
-0.000384324
9.14002e-05
-2.50692e-05
-0.000348542
-0.00111001
0.00034727
0.00111128
0.000728706
-0.000727141
-6.91192e-06
5.34689e-06
0.000586944
-0.000685735
0.000145534
-4.67429e-05
0.000151008
0.000592332
-0.00105504
0.000311697
2.54958e-06
0.000496467
-0.000499017
0.000329773
-0.000844448
0.000665683
-0.000318959
0.000856546
0.000721402
-0.00125899
0.000242319
-0.000247969
-0.00114967
0.00115532
-0.000348355
0.0005764
-0.00115625
0.0009282
-0.000825518
0.000657257
0.000861697
-0.000693435
-0.00050623
0.00069327
-0.00044794
0.0002609
-0.000111716
0.000486455
7.94469e-05
-0.000454186
0.000235865
-0.000343611
0.000354146
-0.000246401
0.000465615
0.00017332
0.000153308
-0.000792243
0.00129621
-0.000879364
-5.32844e-05
-0.000363557
-3.02032e-07
-0.000628067
0.000628369
0.000395249
-0.000576782
-0.00176861
0.00195014
-7.90076e-05
-0.000856747
-0.00025955
0.0011953
-5.07089e-05
-0.000384376
0.000435084
0.000119816
0.0005687
-9.04317e-05
-0.000598084
-0.000155474
-0.00056111
0.000452951
0.000263632
0.000454422
-0.00038081
-0.000668492
0.00113151
-0.000880749
0.000255098
0.00026983
-0.000524927
0.00085757
-1.02368e-06
-9.8227e-05
-0.000758319
-0.00016748
-0.000285189
0.000452669
0.000297622
0.000197135
0.00170925
-0.00205608
-0.000725706
0.00107253
0.00025641
0.000546336
-0.000417887
-0.000384858
-0.000597851
0.0011466
0.000760643
-0.00130939
0.000673811
0.000233854
-9.01519e-05
-0.000817512
0.00109101
-0.000727384
0.000469405
-0.000833034
-0.000625043
0.000285739
-0.000781608
0.00112091
-0.00101805
0.00182456
-0.000714802
-9.17135e-05
-2.89983e-05
-0.000423953
-0.000585036
0.00103799
0.000824542
0.000341059
-0.00096782
-0.000197781
0.000442473
-0.00118023
0.000744659
-6.90631e-06
-0.00104162
-3.95049e-05
0.000681038
0.000400087
-0.00020831
0.000540133
0.000235286
-0.000567108
-0.000132506
0.000530783
0.00042752
-0.000825797
-0.00108533
0.000558704
-5.15901e-05
0.000578217
9.54016e-05
-0.000287921
0.000574578
-0.000382058
0.000470383
-0.00023666
0.000167904
-0.000401628
0.000445918
8.49182e-05
4.36656e-05
-0.000574502
-0.00064291
0.00069001
0.000255392
-0.000302492
-0.00015565
0.000835115
1.66248e-05
-0.00069609
0.000674884
-0.000396042
-0.000261808
-1.70335e-05
0.000568534
3.78523e-06
-0.00057232
0.000416159
0.000322308
-7.30664e-05
-0.000665401
0.000199203
0.000524942
0.000448569
-0.00117271
-5.95602e-07
-0.000941939
0.000942535
-0.000491826
0.00190016
-0.000277051
-0.00113129
-8.01245e-06
0.000709102
-0.00070109
-4.64346e-05
-0.000500039
8.97556e-05
0.000456718
-0.000927759
0.000471907
0.000360603
9.52486e-05
0.000189304
0.000157525
-0.00108606
0.000739231
0.000541732
0.000855815
-0.000319839
-0.00107771
0.000834587
-0.000286655
-0.000798973
0.000251041
-0.00104127
0.000593889
0.0015871
-0.00113972
-2.76114e-06
0.000408531
-0.000408503
2.73284e-06
-0.000421671
0.000417237
4.43392e-06
-0.00106008
1.59455e-05
0.000446279
0.000118807
0.000256141
0.000701136
-0.00107608
0.000538062
-0.000639187
0.000412977
-0.000311853
-0.000541298
0.000474034
-1.78983e-05
8.51625e-05
-0.000106596
-0.000882084
0.00112603
-0.000137352
-0.00039958
0.000192394
0.000632533
-0.000425346
0.000677013
-0.000261511
9.96401e-05
-0.000515142
-0.000438583
-7.63557e-05
0.000513374
1.56434e-06
-7.9068e-05
-4.21345e-06
0.000751094
-0.000667812
9.24271e-05
-7.85761e-05
0.000733658
-0.000747509
-0.000660346
0.000924063
-0.000968552
0.000704835
4.90567e-06
-0.00083066
0.000825754
-0.000296234
2.55774e-05
0.000747164
-0.000476508
-0.00055671
0.000650838
-0.000887486
0.000793359
-0.000572221
4.40436e-05
0.000171564
-0.000270879
0.000731565
4.09141e-05
-0.0005016
-0.00019307
2.7486e-05
-0.000322761
-0.000288559
-0.000934623
0.000939144
0.000284038
-0.000415404
-4.89862e-05
-0.000104156
0.000568546
-0.00142862
0.000482572
0.000142649
0.000803403
-0.000439091
0.00103463
-0.000520473
-7.50617e-05
0.000306433
0.000120266
-0.000619769
0.000621392
0.000631842
-0.00125323
8.41459e-05
0.00136188
-0.000313926
-0.00113209
-1.77195e-05
-2.48578e-05
-0.000615943
0.00065852
-0.000655905
0.00107992
-0.000434584
1.05646e-05
0.000621844
-0.000392452
-0.000563617
0.000334225
0.000158488
-2.11915e-05
0.000194229
0.000953025
0.000262007
-0.00137412
0.000159085
-0.000661004
-8.56054e-05
0.000216805
0.000529804
0.000244686
-0.000274122
-0.000367729
0.00115186
-0.000774931
0.000602488
-0.000979413
-0.000127821
0.000743145
-0.00128472
0.000669393
0.000445773
-0.00056362
-5.70756e-05
0.000174923
-0.000482543
-0.000167829
-1.63472e-05
0.000666719
-0.000367244
-0.000347135
0.00071438
9.25409e-05
-0.000988961
0.000876743
1.96768e-05
0.000377662
-0.000364472
-0.000380434
-0.000612608
0.000776436
-0.000148565
-1.52625e-05
0.000868475
0.000238025
-0.000934467
-0.000172032
-0.000337098
-0.000493975
-5.71678e-05
0.00088824
0.000574637
-0.000174604
0.000666218
-0.00106625
-0.000625043
-3.53032e-05
-0.000747009
0.000399874
9.42534e-05
-0.000819803
0.000262142
0.000463408
0.000243844
-0.00087331
0.000480255
0.000149211
0.000129423
3.48974e-05
-0.000652582
0.000488262
9.7325e-05
0.000421468
-2.95931e-05
0.000753992
-0.000149081
-0.000575317
-0.000294062
-3.26686e-05
-0.000275579
0.00060231
-0.00017514
-0.000235874
0.000451045
-4.00302e-05
-0.000683761
-8.93879e-06
-0.00115384
0.000414257
0.000607078
0.00164238
-1.3554e-05
0.000224286
-0.00185311
-0.000717343
0.00111534
0.000225916
-0.000623911
-0.000204466
0.000111286
0.000706208
-0.000613028
8.37736e-05
0.000237666
-0.0001839
-0.00013754
-0.0012327
-0.000254177
0.00106628
0.000420593
2.78351e-05
0.000534046
-0.00010746
1.60682e-05
0.000262705
-0.000824446
0.000545673
-0.000499023
-1.7461e-06
0.000183968
0.000316802
-0.000716529
0.000885263
-0.000140899
0.000403156
-0.000363372
-3.97843e-05
-0.000581267
8.38945e-05
-0.000453183
0.000950556
-0.000269325
0.000405073
-0.000312232
0.000176484
-0.000579703
0.000652162
-0.000269494
0.000197034
0.000251596
-4.18343e-05
-0.000586637
0.000376876
-0.000259399
0.00162704
-0.00219009
-0.000225179
-0.000157302
0.000153983
0.000228498
0.000753395
-0.00117722
-5.35113e-05
0.000477338
-0.000311577
0.000232377
0.00040079
-0.000321591
-9.38403e-05
0.000492847
-0.000134976
-0.000264031
-0.00055404
0.000122992
0.000129534
0.000301514
-0.000322639
2.76891e-05
0.00029495
0.000711176
-0.000338649
-0.000360768
-1.17587e-05
5.45821e-05
0.000371348
-0.000563704
0.000137774
-0.000380688
-0.000461129
0.000470291
0.000371526
-0.000202096
0.000519914
-0.00044546
0.000127642
0.000183979
-0.00034842
0.000240024
-7.55829e-05
0.000683158
1.94077e-05
-0.000702566
0.000588628
-0.000725526
0.000359404
-0.000222506
-0.000921308
-2.61157e-05
0.000947423
0.000372401
-0.000308899
7.20077e-05
-0.000135509
-3.0944e-05
0.000654425
-0.000713136
8.96544e-05
-0.000320785
0.000401605
0.000103159
-0.000373227
0.000799786
0.000739013
-0.000619739
0.000614253
5.48602e-06
1.44195e-05
-0.000982774
0.000968354
0.00132815
0.000159335
-0.000282881
-0.00120461
0.000275794
-0.0010817
-0.000132387
0.000938296
0.000205807
0.000242829
0.000139375
-0.000588012
-0.0003721
-0.000372783
5.68409e-06
0.000739199
-0.00017731
0.000243538
-0.000438328
-0.000817276
0.000147964
0.00107266
-0.000403353
-0.00160643
0.00117683
0.000518364
-8.87713e-05
0.000708219
5.83976e-06
-0.000714059
-0.000411288
-0.000553447
0.000357845
0.000606891
-0.000404779
-0.000587696
0.000175199
-0.000574168
0.000312354
0.000359139
0.00023697
-0.00030846
-0.000564981
0.000636471
-0.000389914
2.64107e-07
0.00038965
-0.000931871
0.000377995
0.000384925
0.000168951
0.000229648
-0.00061722
-0.000186596
0.000799341
-0.000254237
-1.96155e-05
-0.000525488
-0.000536152
0.000889361
0.000527902
-0.000881111
-0.000163425
-0.000338694
0.000129788
0.00037233
-0.000220821
-0.000177617
0.000398437
-0.000395424
-0.000829775
-0.000381227
0.000189503
2.42108e-06
0.000382595
-0.000574518
0.000760439
-0.000554189
-0.000800112
0.000593862
-0.000281952
0.000100771
0.000570043
-0.000388863
0.000522655
-0.000367889
-5.19233e-05
-0.000102843
-0.000598827
9.71897e-05
0.000467869
3.37686e-05
-0.000369992
0.000848438
-0.000925152
0.000360782
2.67614e-05
0.000537609
0.000879638
-0.000709052
-0.000550836
0.000380249
-0.000705097
0.000146794
0.00131874
-0.000670997
-0.000442942
0.000721985
0.000391954
-7.88477e-05
0.000698257
-0.000264745
-0.000354664
4.06773e-05
-0.000420373
-0.000277759
0.000657454
0.00079518
-0.000524471
-3.23059e-05
-0.000238403
0.000251492
0.000187611
-0.000616413
-0.000167159
0.000189116
0.00046667
-0.000488628
-0.000142443
0.000739739
-0.000911275
0.000313979
-0.000454607
0.000109609
0.000110069
0.00023493
-0.000972687
0.000988824
-1.61372e-05
0.000665186
-0.000655387
-9.79847e-06
0.00027015
-0.00104307
-0.000400808
0.00117372
0.000238899
0.00045394
0.000106501
-1.11368e-05
0.000387572
-0.000376435
0.000634025
0.00056743
-0.00120145
-0.000691314
0.000421984
0.000298378
-2.90476e-05
-0.000388299
0.000127985
0.000315629
-5.5315e-05
-0.00118705
0.00055425
0.000651325
-1.85259e-05
-0.000375928
-0.000419592
0.000405605
0.000608979
-9.6337e-05
-0.000391846
-0.000120797
-0.000638797
0.000688481
-0.000419675
0.000116071
-0.000736567
-3.66422e-05
0.000657138
-8.4952e-07
-0.00036835
0.000369199
0.00177686
1.21088e-05
0.000190269
-0.00197924
-6.83259e-05
-0.000133927
-0.000985873
0.00118813
0.000302894
-0.000410067
-0.000189458
0.000296632
0.000120304
0.000917443
-0.000371723
-0.000666025
0.000999813
-0.000999859
-1.94801e-06
1.99389e-06
-0.000562231
-0.00050717
0.000792713
0.000276688
0.0003275
0.00024998
-0.000652129
7.46491e-05
4.77409e-06
0.000608137
-0.000621565
8.65391e-06
-0.000836266
0.000268537
0.00067765
-0.000109921
0.000626253
0.00037826
-0.000633786
-0.000370727
1.53607e-05
-0.000572818
0.000289466
-0.00014872
0.000859068
-0.000452526
-5.88962e-05
-7.0614e-05
0.000582037
-0.000775837
4.14417e-05
0.000734395
0.00113245
0.000486908
-0.000366249
-0.00125311
-0.000739151
1.58869e-05
0.000738625
-6.59298e-05
-0.000171298
-0.000438357
0.000675584
-7.99637e-05
-8.87564e-05
-0.000239067
0.000407787
0.000186103
-0.000944135
0.000711826
4.62054e-05
0.000582934
-9.16597e-05
-0.000566812
7.55381e-05
-0.00070352
0.000141399
4.35061e-05
0.000518614
-0.000274237
0.000181922
-0.000382365
0.00047468
0.000158698
0.000103303
-0.000936906
0.000674905
3.30965e-05
-0.000634204
-4.46068e-05
0.000645714
0.000627636
8.23727e-05
-1.09315e-05
-0.000699078
-0.000750568
0.000174777
0.000679312
-0.000539344
-0.000714997
0.00125434
0.00102942
-0.000522419
0.000226152
-0.000733155
8.1472e-05
0.000573775
-0.000352353
-0.000839031
0.000151085
0.00030013
0.000387816
0.00103536
-0.00107281
3.7453e-05
-0.000643005
-0.000218001
0.000449927
0.000411079
-0.000816847
-0.000634309
0.000425364
0.00102579
0.000831226
-0.000868203
-0.000106476
0.000143453
-0.000120143
0.000404074
-0.000318702
3.47713e-05
-0.00106553
0.000348038
0.000244577
0.000472918
-0.00155614
0.00192582
0.000332688
-0.000702368
0.000690701
-0.00150861
-8.49321e-05
0.000902837
-0.000621766
0.000802015
-0.00147344
0.00129319
-0.00064436
0.00140983
0.000144031
-0.000909506
5.76183e-05
0.000681521
-0.000159402
-0.000579738
0.00103604
-0.00077701
-2.60833e-05
-0.000232942
-0.000178079
-0.000170874
0.000261285
8.76683e-05
-0.000479433
-0.00100525
0.000861488
0.000623193
-0.000694509
0.000924917
0.000805628
0.000578368
-0.000425071
-0.000529816
0.000376519
0.000204257
-0.000264338
-0.000116763
0.000176845
0.000451568
-0.000446431
-0.000595973
0.000590837
-0.000183448
0.000526341
-3.8128e-05
-0.000304765
-0.000743739
-0.000118957
0.000920314
-0.000549942
-0.000135171
0.000679847
5.26582e-06
0.000234863
-0.000524739
0.000289876
0.000183495
-0.000243826
0.000906528
-0.000846197
0.000708522
-0.000996925
0.000144174
0.000144229
0.000459835
-0.000495049
3.52137e-05
-0.000713891
1.93814e-05
0.000626972
-0.00023941
-0.000605542
0.00021798
0.000200799
0.000162721
0.000711972
-0.00107549
0.000450417
-0.000488842
3.84253e-05
-5.3027e-06
0.000543006
-0.000613849
7.61451e-05
-0.000784199
-7.57757e-05
0.00104347
-0.000330873
-5.66355e-05
7.64597e-05
0.000311048
4.57017e-05
-0.000378312
0.00027919
5.34206e-05
0.000620026
-0.000593542
-0.000146627
7.27291e-05
0.00104852
-0.000660677
-0.000460568
-0.000358641
0.000752896
-0.000394254
-0.000974627
0.000373287
-0.000228379
0.000829719
0.000768708
-0.000696058
-0.00113818
-0.000382123
-0.000456616
0.00157007
-0.000731334
-0.00109763
0.000698434
0.000995716
-0.000596522
-2.39682e-05
-0.0009338
0.000957768
0.00148523
3.57027e-06
-0.000856069
-0.00063273
0.000860373
-0.000554205
-7.52787e-05
-0.000230889
-0.00062655
0.00044252
-0.000109348
0.000293378
8.38016e-06
-0.000642376
0.000633996
-0.000461616
0.000475102
-1.34862e-05
-0.000342245
-0.000362506
-0.000928513
0.00163326
-0.000874331
0.000190643
-9.75932e-05
0.000781281
0.000207071
0.000335909
0.000893583
-0.000806459
-0.000667034
0.00057991
-0.000249037
-0.000512482
0.000565189
0.00019633
-0.000517371
-0.000263285
0.000781387
-7.30431e-07
0.000169131
-9.6995e-05
-0.000476956
0.000404821
0.000571125
2.51649e-05
-0.000730097
0.000133806
0.000176398
-0.000122644
0.000193085
-0.000232892
0.000231922
-0.000192115
0.00046815
0.000457948
-0.000467993
-0.000458104
0.000228523
0.00053312
-0.000552059
-0.000209584
0.000476804
0.000206745
-0.000377115
0.000603574
-0.000731846
0.000153437
-0.00080106
0.000560334
0.000301113
-6.0386e-05
0.000936458
-0.000312175
-0.000982924
-0.000256179
0.000681918
0.000342969
0.00066354
-0.000323252
-0.00055858
-0.000152316
-9.01638e-05
-0.000892401
0.0008348
7.88043e-05
-2.12029e-05
-5.56253e-05
0.00111402
-0.00011551
-0.000942888
-0.000730638
0.000149036
0.000325423
-0.000113946
-0.000719147
0.000202252
0.000630841
0.000666211
9.25525e-05
-1.64274e-06
-0.000757121
-0.000993087
-8.4027e-06
6.43726e-06
0.000995052
-0.000261583
0.000282949
-0.000467017
0.000445651