/*--------------------------------*- C++ -*----------------------------------*\
  =========                 |
  \\      /  F ield         | OpenFOAM: The Open Source CFD Toolbox
   \\    /   O peration     | Website:  https://openfoam.org
    \\  /    A nd           | Version:  10
     \\/     M anipulation  |
\*---------------------------------------------------------------------------*/
FoamFile
{
    format      ascii;
    class       volScalarField;
    location    "43";
    object      SgRate;
}
// * * * * * * * * * * * * * * * * * * * * * * * * * * * * * * * * * * * * * //

dimensions      [1 -1 -3 -1 0 0 0];

internalField   nonuniform List<scalar> 
111485
(
1.7035e-09
0.0090219
0.0210428
5.77116e-12
0.0450036
2.50154e-09
0.0416354
0.00587691
0.0184066
0.00112836
0.0418187
0.00915544
0.00424205
0.00600673
0.00593002
0.0316545
0.00496963
1.99778
0.0100375
2.52157e-08
0.000692772
2.32798e-10
0.0234087
0.0355216
0.00847537
2.15089e-09
0.0400827
0.00174144
0.0159384
0.00090261
0.0435685
0.0173557
6.32178e-09
2.55532e-08
0.00968229
1.80201e-06
0.012947
0.00751787
4.26726e-05
0.0215877
0.000722329
0.0720021
0.0144331
0.00100132
3.71219e-05
3.90991e-08
0.0328409
0.000720825
0.0475648
1.45424e-08
2.91223e-08
3.57752e-07
1.03808e-08
0.0444909
3.48857e-08
0.0430369
0.00355101
4.18562e-10
2.79271e-05
0.00449295
0.0149358
5.81977e-09
0.00402133
0.0883915
1.50025e-07
0.00359213
0.301012
0.0971845
0.000924334
0.00512313
7.57687e-06
0.00548421
2.14354e-07
0.00244883
5.78048e-09
0.000637789
1.1149e-09
0.0425192
1.98223e-09
4.70347e-07
0.00501939
0.0408239
9.26245e-10
2.18086e-09
0.00812031
0.00442547
0.00249485
0.0225533
5.08874e-05
0.00678399
0.000867233
0.0410866
0.0103344
6.13853e-05
0.055964
4.24258e-10
0.000505038
0.00145414
2.9023e-05
0.00148826
4.47688e-10
0.0195115
3.54574e-08
0.0214714
0.0048291
2.52527e-07
1.91589e-10
0.0074753
0.00318789
1.18894e-05
0.00562401
0.00507121
0.00313738
0.00264555
5.60238e-09
3.05471e-05
1.55179e-09
1.64877e-07
0.011368
1.58924e-10
1.14329e-09
3.36083e-06
0.00124904
4.51686e-08
0.00233809
0.000533275
1.97612e-06
0.00149841
1.75751e-11
0.000178858
0.000991005
0.0280817
0.00088479
3.16998e-06
1.47439e-06
0.0491701
2.01948e-10
0.0409719
0.022549
0.00255365
0.00017332
0.00186868
0.0236265
0.00310717
0.00379666
0.0122027
2.32537e-10
8.26605e-10
2.22152e-09
0.0262529
0.0018312
0.000530772
0.00197817
0.00502829
1.66284e-06
0.0106233
0.0154783
0.00943797
1.63373e-05
1.09077e-07
6.96299e-11
0.0526859
0.0252366
6.28228e-06
1.57552e-06
0.00518641
0.00368938
0.000451772
3.74553e-05
6.80104e-05
4.09103e-11
2.10673e-09
0.00362294
2.72407e-11
0.00613973
0.00226955
8.18379e-09
1.63339e-07
4.07633e-09
9.75285e-08
1.50135e-07
4.9993e-09
0.00134168
0.00671497
0.0277229
0.00416007
0.0064197
0.00356848
0.000101387
5.53731e-09
0.00425177
9.0332e-08
1.31605e-07
0.00582614
0.0110726
0.022818
0.0103188
0.00462855
2.00855e-08
0.00604544
0.000573496
7.31667e-05
0.0111843
0.00230515
3.05502e-08
0.00325561
0.0275286
1.98986e-07
0.000230574
0.00651233
0.00228065
0.000309065
1.41789e-07
1.18087e-10
0.0072866
5.05481e-06
0.123857
3.16567e-10
0.00601284
0.0190206
0.121871
1.35316e-09
0.00266947
0.0119923
5.05932e-06
1.16602e-10
2.2207e-11
0.166661
7.41935e-05
4.09299e-07
1.72807e-06
0.00913618
0.00846871
0.0185535
6.52223e-07
2.04065e-07
0.00285503
1.38439e-09
0.00272735
0.00833118
0.0149833
0.0107764
0.00917425
7.49332e-08
3.31573e-05
0.000565333
1.44423e-07
1.48492e-09
0.0307289
0.0238605
3.57799e-07
0.00558837
0.00978489
2.52396e-11
3.63325e-06
0.000153212
5.71084e-09
1.20187e-06
0.0018437
1.55898e-09
0.0156159
0.0117279
0.00335865
6.55607e-11
0.0109538
1.519e-11
9.67554e-10
1.24519e-08
0.00297158
0.0225598
0.00553488
0.00466213
0.0400869
0.0109697
0.00149762
0.000594911
0.0340503
0.0094191
9.41499e-09
1.83073e-09
0.00203571
0.0220532
0.0215209
0.0128345
2.79174e-11
0.0101577
0.00661722
0.00276179
1.24105e-05
4.99137e-06
0.012207
0.00211834
0.00186317
1.64555e-10
0.000778905
3.33578e-10
6.83503e-06
4.93792e-06
0.266697
0.0682676
0.0198985
6.04708e-09
0.00144089
0.00830865
0.00190162
2.27e-10
2.20287e-09
0.000461979
0.000414908
0.0622499
0.00334087
0.0154461
0.0182913
4.5703e-07
7.73289e-10
3.91424e-09
0.00350849
7.52994e-05
0.00573917
0.18694
1.44392e-05
1.75936e-10
1.01698e-09
4.49418e-10
1.49241e-06
0.0574305
0.0123225
5.71652e-08
0.00486502
1.32244e-06
0.00112863
0.0672408
0.00538549
0.010727
0.00854561
0.000795725
9.27005e-07
1.07583e-08
0.00872673
0.018943
0.00468814
2.69991e-09
0.00264747
0.000229473
0.0017757
0.00733939
6.82662e-05
0.0284758
0.000652046
0.0370433
0.00315894
0.00786343
0.023079
0.0147298
1.75631e-07
6.85669e-09
9.12787e-09
1.97513e-08
0.0321088
0.0149091
0.0370833
0.066985
0.000882311
0.0201616
4.19992e-10
8.77717e-09
0.0161357
0.000880191
0.0397819
0.000856222
0.000824261
0.0237371
2.16557e-10
0.0141049
0.000335204
3.45415e-11
0.00112428
0.0150707
2.82316e-07
0.00797735
0.0106776
0.00738864
0.00044766
0.00292073
0.00614052
8.88444e-07
1.23014e-08
0.00137531
5.51639e-09
0.00500787
0.112091
0.000503745
1.99468e-09
0.0256101
0.00284816
0.00759437
0.0278545
7.80687e-09
0.0389548
0.019741
1.32585e-10
0.000696572
0.00282056
1.68417e-09
0.000596804
0.0118096
0.0048781
1.6637e-08
3.2e-10
1.31621e-05
3.46286e-10
0.0105563
6.68812e-08
1.29887e-12
0.0177271
3.3855e-06
0.0189662
0.0266982
3.90387e-11
1.44108e-06
0.00108382
1.77672e-06
0.000108435
0.0108289
0.12171
0.905603
9.68917e-07
0.0061924
0.000238856
3.81703e-09
0.0350488
0.033124
1.94483e-09
2.43504e-05
0.000112495
1.3855e-06
0.0257072
0.0268918
0.0127423
3.64927e-09
0.00673948
0.0206053
0.0212228
8.50301e-05
1.68921e-06
2.48022e-05
1.23017e-09
0.00451407
0.0376644
4.13369e-10
0.00957961
7.33771e-05
2.00036e-06
6.1942e-11
4.72174e-07
4.30064e-10
0.00929714
0.00951241
0.00711887
0.00244278
0.00339134
4.64979e-09
0.00228033
1.35163e-08
0.0356613
2.93115e-09
1.79465e-08
0.000977566
0.0317889
1.78972e-09
2.0015e-09
7.64351e-06
1.54344e-09
3.14535e-08
0.000875161
6.7483e-11
1.0601e-06
1.66769e-09
0.0013848
8.48512e-09
4.47079e-08
3.12676e-09
0.00815972
8.87442e-09
0.00436183
0.00166339
0.00682248
5.46637e-10
0.000625298
4.68534e-08
6.03362e-11
0.00957821
0.00456215
0.0294084
0.0222574
5.65084e-07
0.00186976
0.0726876
0.00843031
0.00110978
0.00872984
1.05612e-09
0.0223953
1.95657e-06
0.00428206
0.000986903
0.0691204
2.01654e-06
0.0210501
0.000322988
1.32164e-05
0.00136538
0.00233139
9.65824e-09
0.0759212
0.044321
6.03231e-08
2.30963e-08
4.03989e-07
2.10565e-11
3.02612e-05
0.0545845
6.52185e-09
4.78971e-09
0.00288261
4.99998e-10
0.0304239
4.12222e-09
0.000350941
1.24344e-09
0.00263859
0.00198923
0.00112162
0.0124474
0.00108549
0.00178677
5.8365e-09
4.16569e-09
0.0162749
3.85174e-09
3.84222e-05
2.90049e-07
0.00147719
0.00079545
0.0661576
9.15591e-11
8.16598e-07
0.0121435
0.00387994
0.0015049
0.00430835
0.00590929
0.0208922
1.87733e-08
0.0207406
0.00708405
1.70754e-10
0.00225879
0.0314723
0.0125558
3.43941e-08
0.00551977
0.00543845
0.00128632
0.00143274
6.15748e-06
0.0138136
0.00098528
0.000166899
0.0267584
0.0161904
0.00109626
1.31318e-06
6.52983e-05
0.620978
5.89706e-09
0.000419498
8.13619e-08
6.14518e-07
0.00729752
0.00364592
4.90752e-05
1.7883e-05
2.91751e-06
0.0184961
0.00994389
6.76393e-09
3.54568e-06
0.00204482
1.4514e-09
5.38155e-11
9.07861e-09
7.68662e-10
0.0152435
2.99814e-11
0.000651099
0.00987186
0.00234112
0.00181059
0.0149987
1.01802e-06
0.00860617
0.000691465
6.91665e-10
0.0571276
3.29895e-09
9.93174e-09
8.01758e-07
0.00490342
0.00208429
0.0328288
0.00638778
6.43721e-08
0.0727857
0.0053612
0.0261277
0.0235931
0.000931045
0.00354623
0.000696066
0.0569185
0.0416073
1.31935e-07
0.000308934
0.0361841
0.00708355
0.00155699
0.0244302
0.023766
2.15238e-08
0.0104595
1.64439e-05
5.4463e-07
0.0319969
0.000299417
1.22836e-05
0.0109142
0.038822
0.0015886
0.0185293
0.0168392
0.00706151
6.93268e-08
0.00915518
0.000400684
3.15226e-06
0.0144603
0.014897
0.0347901
9.51125e-09
0.00211354
9.93213e-08
2.1371e-09
0.00129589
6.41201e-10
0.00243051
1.00797e-06
0.000235237
1.31498e-08
0.000492524
5.12501e-05
0.0396493
3.22067e-10
0.0366219
6.00002e-09
4.14051e-10
2.01037e-08
0.0446136
0.000498549
5.58192e-07
0.000762504
2.27963e-09
4.17333e-10
0.238254
0.0684419
1.4906e-06
0.00177018
7.07554e-06
6.48513e-10
0.0349051
0.00649849
0.0158796
9.1841e-12
3.68741e-09
0.000392248
0.00106973
2.28084e-06
9.10938e-09
0.00104525
0.00706536
1.1292e-09
4.48483e-09
0.000759286
0.0385012
0.00161765
1.87353e-11
4.12149
0.142674
0.0140851
2.53234e-10
2.55946e-09
0.0567531
0.000304816
7.49551e-07
1.71717e-05
0.170045
0.00291656
0.0119156
0.00105398
0.0578121
0.00152145
1.45572e-09
2.46839e-08
4.95174e-09
3.78234e-09
1.14108e-09
2.62854e-11
0.0193323
1.36183e-09
8.44079e-09
1.90081e-08
0.0119214
0.0234266
4.75459e-09
1.48664e-08
0.105663
0.0133252
0.00876794
8.77596e-09
7.25564e-10
0.0345888
2.14762e-11
0.00227723
0.00240038
0.00353497
2.96315e-09
8.52799e-11
2.25634e-10
4.53387e-11
0.0158618
2.07442e-09
1.18421e-08
0.000817163
2.20937e-10
0.0211447
0.00140791
6.88043e-08
0.0358195
0.601345
0.00232241
0.0338645
0.000202174
0.0480107
0.00376575
1.47776e-06
0.021866
0.0766262
0.00620295
3.44465e-07
0.00169283
0.517815
0.00988696
3.91454e-09
0.00291464
0.00313785
0.00143602
1.36635e-06
7.58867e-11
4.74071e-13
0.0126399
6.73176e-07
0.00232505
6.95114e-08
0.00145871
0.00127616
0.0343207
0.000534692
2.85889e-09
0.000558346
2.01587e-07
0.019719
2.0899e-09
8.89409e-07
4.5326e-05
3.38362e-08
8.19118e-09
0.000759982
3.60066e-11
0.00896887
0.00106067
6.47268e-10
0.00125279
7.65098e-07
0.000617688
8.85514e-06
5.53777e-09
3.78049e-06
0.00151607
0.000852512
0.0033337
3.49501e-05
0.00285774
8.73252e-05
0.00439135
2.11228e-08
1.00667e-05
0.0178226
0.00323461
3.18707e-09
0.0041872
0.00075257
2.94524e-06
0.00887967
0.000300104
2.28012e-05
0.0253161
0.00866818
0.00215874
0.00553779
0.00197576
0.000765769
3.7018e-09
0.0301274
0.0243795
9.86697e-10
0.00775977
0.0575045
0.0277335
6.26532e-09
0.00167361
8.16204e-10
0.0102755
0.0172047
7.82443e-09
0.004572
0.00646491
2.43656e-05
0.0045123
1.87267e-08
0.0471641
2.0413e-05
0.00186494
6.06472e-05
1.91589e-05
7.88566e-08
0.000762802
0.00833408
6.01113e-10
9.58904e-05
0.00033393
2.23091e-05
8.44776e-06
1.61571e-05
4.30673e-06
1.04383e-10
1.31393e-06
0.0216226
1.38056e-08
0.00118512
0.00849133
4.3474e-09
5.60531e-09
5.78117e-05
6.2567e-05
4.22334e-11
1.45414e-05
9.89528e-09
2.28929e-10
3.46052e-10
7.70052e-09
1.06261e-07
8.23801e-09
0.000332085
0.000856389
5.6029e-11
1.36581e-08
8.38e-05
0.0021269
0.00204302
0.00916175
0.000544609
6.95695e-11
0.000235139
5.33267e-10
8.48303e-10
1.07751e-05
0.0217606
0.0407354
2.0023e-09
3.2666e-09
0.000593827
8.51665e-09
0.000388429
4.64476e-09
0.00845584
1.413e-10
3.86325e-05
0.0269213
4.31482e-11
1.79253e-08
9.82277e-09
4.26025e-05
1.61731e-08
3.60756e-09
3.52936e-08
9.09165e-05
0.000907105
0.00530529
1.15505e-05
2.04056e-05
4.01366e-09
6.94385e-05
0.00260455
0.0434718
4.96093e-08
9.79139e-06
0.00721952
4.61167e-09
1.56765e-07
2.78156e-06
4.13798e-09
0.00787138
0.00174719
0.00396396
0.00125665
9.56494e-11
0.0222965
0.00101242
2.12314e-06
1.35735e-06
2.91889e-10
0.025295
2.85595e-09
1.95774e-08
3.08318e-06
0.0487947
1.77904e-08
0.003002
4.42068e-07
0.00112529
3.94748e-07
9.28865e-11
6.24095e-08
8.00525e-11
0.00264511
0.000684886
0.339073
3.6387e-09
8.65649e-09
0.00205157
8.51151e-11
7.8747e-07
9.30275e-09
0.0422422
2.0903e-05
0.0286873
4.78957e-09
3.33739e-05
3.17429e-05
1.32965e-06
7.21089e-05
8.85534e-10
0.00182621
0.0276365
0.0220658
0.00164631
0.000328188
8.95205e-09
1.29076e-11
1.28701e-09
0.00329855
0.00125597
0.00543635
8.16739e-12
0.175942
6.45212e-10
0.0447413
0.00354492
1.51996e-08
2.5322e-09
4.84654e-08
1.55982e-08
0.0313317
4.4076e-08
2.10127e-06
0.0184817
0.00536225
1.29463e-06
5.16234e-07
1.33815e-06
9.20463e-07
7.86612e-09
1.16674e-11
0.0203921
0.000520296
4.74274e-09
3.75723e-09
1.101e-05
6.84102e-09
0.00132912
0.00749615
2.72787e-08
0.00271333
1.20791e-11
0.000331855
3.79114e-09
0.006731
3.89943e-10
0.00214955
0.000107366
0.000879003
0.0144026
0.0274272
1.88512e-05
4.6005e-08
0.000446271
4.83241e-08
0.00436865
1.29136e-08
3.82988e-08
1.52466e-06
5.64413e-08
0.00118882
4.63505e-09
0.00569971
0.00628356
9.31696e-11
7.26358e-06
4.58126e-09
0.000536565
3.17268e-05
2.35036e-09
0.0184319
0.00021425
9.79683e-09
0.0224833
0.0113315
0.00332156
0.0134704
1.32691e-10
0.00077855
1.59057e-07
1.22208e-08
0.0362657
8.10083e-08
0.103815
1.41442e-09
0.00292156
0.000729392
5.04939e-11
0.000673103
8.18905e-09
1.35399e-10
0.00227072
1.59262e-05
0.0059168
4.40549e-10
3.40799e-08
8.42272e-10
0.000696172
8.68799e-07
0.000643251
1.06181e-07
1.50766e-05
1.25171e-06
3.25434e-05
5.19942e-07
5.39668e-08
2.20803e-08
0.0178229
0.00958857
0.0176833
0.0342774
0.000820171
1.49119e-05
0.000801461
4.27004e-11
0.010739
1.79865e-09
4.51504e-06
0.000256982
0.00629005
0.000241173
8.48607e-06
0.00242727
1.54216e-11
0.000114017
0.000144137
9.516e-05
0.00123523
0.0134778
1.54668e-05
3.69367e-08
0.0311708
7.13068e-09
1.18444e-09
3.40244e-05
0.0745209
1.64736e-05
1.51679e-08
0.000792904
1.19355e-05
1.60546e-08
1.97337e-08
2.12975e-05
5.88313e-08
0.00104032
0.0469127
0.00014399
0.000110137
0.023446
0.00717307
5.32126e-10
2.90269e-09
4.99902e-06
0.00420003
0.000582785
0.00102663
0.0112387
5.61148e-09
5.66764e-06
0.000704128
4.61961e-07
2.10959e-05
2.52262
0.000739192
0.00233481
0.000859547
0.0153308
1.57734e-10
3.59035e-05
3.18019e-08
3.40376e-09
4.58642e-09
5.52307e-09
0.00336556
1.29502e-09
3.30847e-09
1.58445e-06
2.33575e-09
2.47176e-10
1.71502e-08
0.00996491
0.00100099
0.0110367
0.00234046
0.00129168
0.00637621
1.99298e-09
0.00373517
4.66109e-06
0.0109491
0.0141786
1.36095e-09
8.95944e-05
0.00934007
0.00465077
3.77136e-11
2.39278e-05
0.0169594
0.004762
2.90044e-07
0.0267167
2.63341e-08
5.83669e-09
0.00131169
2.59053e-09
0.00827356
4.7557e-09
9.23127e-09
0.00805313
8.99247e-06
0.00278702
1.98463e-08
6.56299e-06
0.000676236
9.89844e-09
0.000149724
2.20483e-08
0.0217471
3.76598e-09
2.28418e-09
0.00456457
0.000743948
0.000109423
6.0104e-09
6.76177e-10
0.00534502
0.00383644
0.00489233
0.0174761
0.217547
0.0197368
5.34002e-10
0.000598043
0.00237213
0.00669185
0.0351911
0.0133418
3.15336e-09
0.0144642
3.62123e-10
0.000756225
0.00763653
0.00960507
3.40711e-10
0.012432
2.49543e-08
0.00284173
0.00827165
7.49917e-08
2.25524e-11
1.21775e-10
0.0023258
0.00136757
2.59934e-10
0.00354796
0.0199339
5.81382e-06
0.00767504
0.000821964
3.2122e-08
5.59376e-05
0.000658301
7.66304e-09
0.00924136
5.02609e-08
0.00243496
3.45767e-09
6.45393e-09
0.0111167
1.39291e-09
4.83425e-05
0.00296574
1.2433e-09
5.76684e-09
0.00365202
9.50046e-06
0.0593713
2.49784e-09
0.285291
3.95408e-08
6.6342e-06
3.54939e-06
0.00642123
1.55708e-06
0.00135971
0.0050148
9.55861e-07
0.000175986
0.00115441
1.52987e-08
9.33238e-10
7.51041e-06
0.000774349
0.000707507
4.90262e-09
0.0359682
0.000940978
4.33551e-09
0.00469649
1.18372e-09
1.08736e-08
1.2225e-06
0.00369029
0.00658175
0.000971274
8.7612e-09
2.42558e-09
7.43153e-11
1.11175e-08
1.06796e-08
1.74643e-08
2.98682e-09
1.34662e-10
3.9069e-09
1.92753e-10
5.39301e-09
0.00106599
0.000635181
2.10625e-10
2.61474e-07
4.08794e-09
8.40987e-09
2.10054e-09
0.000622969
0.00154551
0.0183571
4.36812e-09
1.38195e-09
1.65515e-08
0.0061943
8.82731e-08
5.81916e-09
0.194541
5.00717e-09
5.41013e-08
0.0219241
3.18009e-06
9.92165e-08
0.00438381
0.0232725
4.87298e-09
0.00128124
0.00216999
6.11184e-09
0.0111062
0.0373603
0.0165362
0.00287618
0.0097583
7.39145e-08
3.46488e-09
0.00858412
0.0101761
0.00268689
0.00106923
0.00560234
0.00135162
0.0186398
0.0107041
0.000640959
0.0135971
0.00107112
0.00843402
8.03866e-08
0.0265853
0.00756085
0.0018192
0.0011715
1.49668e-10
7.91227e-09
5.61198e-10
1.00397e-11
2.75728e-09
0.00874172
0.012203
2.37124e-09
3.56108e-11
8.11342e-09
3.09301e-07
6.46293e-09
2.15608e-10
1.47241e-08
4.15425e-08
0.00410246
8.85078e-05
0.0194761
0.00442817
2.25046e-09
2.04645e-07
0.0331204
2.90133e-06
4.04445e-10
1.04612e-08
0.0109764
9.4133e-09
2.91101e-10
3.71782e-06
0.010998
0.0122263
0.0293603
0.0270092
2.99139e-08
0.0139826
0.000261015
6.92759e-06
2.67409e-10
0.010191
1.05569e-07
3.60076e-09
0.0276976
0.993946
0.00361794
1.35708e-07
3.03673e-08
0.0157204
0.0222155
0.0162234
0.00576786
0.00202963
3.96705e-09
1.35525e-05
6.88258e-06
0.00113131
1.42841e-07
0.0215447
4.8754e-09
0.00193933
0.0258701
0.0155162
0.0119788
7.15814e-08
0.00523868
9.62192e-10
1.66147e-07
4.15974e-10
2.17482e-10
0.00250952
0.709674
5.47505e-09
3.6458e-10
1.21579e-05
0.0224796
0.000474312
0.0061691
0.0312115
0.00456326
0.019712
3.66648e-07
9.82712e-08
3.74171e-06
0.0306423
0.00511181
6.33857e-05
3.11043e-08
3.11359e-10
2.68514e-06
0.0186961
0.00269027
8.88981e-10
0.00686023
0.0450377
0.00817523
0.00544008
6.27086e-09
3.76508e-06
0.006132
0.0214978
7.95973e-11
0.000239499
0.0120379
0.000858472
0.0122815
0.00411455
0.00748188
4.7137e-06
0.00346634
0.0186902
0.036481
1.24009e-06
0.0230042
2.26652e-06
0.0191672
0.000147483
3.16336e-13
0.00249476
0.00634396
0.000312758
0.0106743
1.15258e-05
0.000207044
2.5843e-05
0.0245766
0.00311569
9.00422e-07
0.0377587
0.00105585
6.37128e-09
4.24904e-10
0.0018713
1.44768e-05
0.000899724
1.01331
0.0325074
0.00777579
9.18226e-06
0.0371008
4.97874e-08
5.96465e-08
0.00383444
7.82006e-07
0.00231408
0.00614962
0.00180679
0.00445564
8.50923e-09
0.000238926
0.10214
5.49282e-10
0.0595947
0.0065353
1.82477e-07
0.00341785
0.000181213
2.81326e-09
9.78015e-06
0.0025247
1.34482e-08
4.15202e-10
1.02641e-10
0.00681079
0.00886648
0.0132486
0.00100116
0.00560724
0.0296825
1.46298e-07
0.00701887
0.0108693
0.0240742
0.00130456
0.00195957
0.00660847
0.0158532
0.00916792
0.00780409
0.0369095
0.146459
0.00960015
6.27522e-10
0.00306833
0.0503054
5.82784e-10
0.000374984
1.01548e-08
7.45726e-09
1.448e-09
3.7306e-09
1.20501e-09
0.00508118
1.22901e-09
0.0061297
0.00144474
4.29672e-10
0.00408352
1.24203e-07
0.0139175
2.05175e-09
1.77733e-05
1.02938e-07
0.0206374
0.000112758
1.37242e-06
0.00357521
0.027772
0.016561
0.00364015
0.0239603
5.76364e-05
0.0196844
0.0497128
0.00819678
1.9655e-08
0.00118972
0.000360312
0.00479197
0.0113056
0.000756767
2.2282e-08
1.05994e-06
8.80887e-09
0.00404622
0.000764462
5.48823e-05
0.00600034
0.000546907
0.000273237
2.69006e-10
0.00114893
7.85401e-10
0.0073834
0.0199915
0.00127603
8.94655e-06
0.001854
0.00613296
0.00196963
0.000719541
0.00628583
0.00530312
0.00231992
4.53901e-07
0.00131566
4.5296e-09
0.0138077
0.0102459
2.18824e-08
3.00139e-10
4.27642e-06
0.00707555
0.0185996
7.09541e-09
0.001893
0.000831511
4.31934e-06
0.00524986
0.0741263
6.53369e-11
3.45318e-12
0.00342179
3.16314e-10
8.56762e-05
0.0109739
3.93868e-07
0.0093877
0.031327
0.0160323
6.45919e-10
0.000660436
1.53204e-06
5.77891e-05
0.045436
2.08534e-09
1.99043e-08
0.0107292
9.9129e-06
2.89104e-08
0.00286885
0.00107399
4.00405e-09
6.23076e-09
4.09865e-06
4.68814e-05
0.00126965
0.00305402
0.0201878
0.013591
3.26228e-10
6.08603e-06
0.000421732
0.000796125
2.88469e-08
0.000886369
0.00154927
2.18181e-06
1.33417e-07
3.27257e-07
8.08431e-10
2.75355e-07
4.6664e-07
6.46934e-06
3.25222e-07
0.000410284
4.50207e-07
9.33551e-05
6.35486e-06
7.15728e-05
2.73981e-06
1.8268e-09
0.0219945
0.00805885
1.1195e-07
0.08671
4.2012e-06
3.59336e-06
2.85037e-07
0.00104503
4.52284e-06
0.00218776
1.18314e-05
0.000977367
3.83862e-07
6.58539e-10
0.000634252
8.12067e-06
0.00123983
4.73931e-08
0.0368815
8.20237e-07
0.0339005
1.40962e-06
1.51301e-08
7.92022e-06
0.0266663
0.00844427
4.50162e-09
0.000398584
2.38476e-07
0.00104604
3.52113e-05
0.00781019
0.000645438
2.95628e-08
0.019015
0.000765231
0.00481054
0.000562507
0.00131328
1.85305e-11
0.00523868
0.00398588
0.0440259
1.04502e-08
2.279e-05
2.02481e-08
0.000799702
4.04955e-09
2.70298e-10
0.00237887
0.00156441
0.00236515
0.27942
0.00073695
0.0286959
0.0329495
0.0174918
0.00510788
0.000719259
0.00544345
0.00326937
0.00476881
1.09133e-05
0.00960809
0.000698377
0.00172373
0.000893599
0.0303792
8.12439e-07
0.00241502
1.39153e-08
0.0166123
3.25226e-08
1.22128e-08
0.00142665
8.35988e-08
0.00695571
5.42875e-10
1.20191e-08
0.00134083
1.64838e-10
1.63489e-09
0.000591278
8.54452e-09
0.000603623
6.23526e-07
0.00110273
0.0187894
0.0105182
0.00726944
0.00808209
0.000745019
0.554777
9.29062e-12
0.0666655
0.000523463
0.0185503
0.0180591
0.00183333
0.0533795
1.32163e-07
1.49586e-07
1.9874e-08
0.00429621
3.55881e-08
2.29312e-08
0.0167656
1.23447e-08
1.09453e-09
0.00404074
5.92812e-08
0.0173753
1.74261e-06
6.28859e-07
7.89967e-07
1.00226e-06
0.00143298
0.00574495
1.15765e-10
0.0207059
0.000244153
3.82497e-07
0.0941012
5.631e-09
0.015384
0.0170188
0.00296111
6.26042e-09
0.0154901
0.00824163
0.000599455
0.00410527
0.0111073
4.79903e-09
3.49931e-09
3.37808e-05
7.07285e-09
1.49994e-09
1.58788e-10
0.0182879
0.041292
0.00400297
0.00175463
1.28835e-06
0.0416524
0.042994
0.00365572
0.00300381
0.00796522
0.0200832
0.00204146
2.19436e-09
1.66937e-09
5.77916e-10
0.00504976
4.88562e-09
0.0299353
9.3339e-06
0.000632087
3.46198e-05
0.00238552
0.0208687
9.66843e-10
0.00110659
0.00197949
0.000278852
3.35458e-08
2.09815e-08
1.25706e-09
0.00842193
0.000258085
0.000114859
0.00063591
0.00876554
0.0858176
1.56957e-08
6.42029e-09
1.05885e-08
0.00354876
0.0188337
0.0186784
0.0309899
0.00191485
0.00212141
5.57696e-08
3.18755e-10
3.2103e-06
9.61611e-09
0.0120924
0.0190745
5.86174e-09
2.78015e-08
3.56946e-07
0.00114295
0.000558916
3.24638e-07
0.0109378
0.00167385
0.00108614
0.291589
0.0007843
1.57425e-05
0.0208887
0.00365374
0.000348769
1.73187e-07
0.00368185
1.68638e-09
0.0116081
3.16676e-05
0.0218168
1.71123e-07
6.48275e-06
3.37221e-10
0.000430888
2.54763e-09
4.93581e-07
0.177784
2.5987e-09
0.00440951
0.00105998
9.00615e-09
1.02186e-08
0.0014632
1.22236e-08
2.79916e-09
0.0141926
5.03964e-05
8.799e-10
0.000432122
0.000820482
0.0147995
8.44802e-12
1.3742e-10
0.000244793
0.00196916
0.00224751
5.22206e-09
1.0004e-08
2.49006e-06
0.00295441
0.00140766
0.0103704
0.00933752
1.21841e-10
0.00315355
0.012362
0.00582229
0.000939761
2.85959e-08
9.8604e-10
0.000426421
7.42738e-11
0.0281956
0.00716957
0.00426467
1.72485e-08
6.4909e-09
1.79351e-10
6.39939e-10
3.68805e-07
0.00231422
0.00402215
0.00230087
6.75073e-08
4.81102e-12
0.00104275
0.00397829
0.0275321
0.0946865
6.38281e-09
2.19273e-05
4.04152e-06
3.63074e-09
5.85484e-10
0.00326739
0.0067644
2.39059e-09
1.75774e-07
0.00243775
0.00111282
0.0042778
0.00115211
2.00851
2.26905e-10
1.1782e-08
0.0119936
0.000364004
5.28902e-07
0.634626
0.000510334
0.00672831
2.05695e-09
9.66484e-09
2.76933e-07
0.00108574
0.00696109
0.00322177
7.82593e-10
0.0217466
0.0159713
0.838332
5.87647e-10
3.29749e-11
1.09955e-08
1.17052e-09
0.00536436
6.05614e-06
6.59817e-09
0.000690511
0.0167566
0.00386552
0.00481278
4.61581e-08
3.05176e-08
0.0255993
2.01353e-07
2.34938e-10
1.01497e-09
8.54428e-10
0.022713
1.52178e-07
0.000963346
0.000937467
0.0228736
0.0126214
1.06406e-10
5.3838e-11
4.37612e-10
0.0133858
3.69745e-06
7.26969e-09
3.03834e-10
1.05157e-10
0.000407932
0.0021691
0.0086463
0.000756395
0.0020563
0.00633543
0.00392782
1.44546e-08
1.7933e-11
4.83697e-09
0.00100054
1.54171e-11
0.0214001
9.01317e-10
0.0155311
7.73571e-07
0.00115395
2.41336e-06
0.00170014
6.97389e-10
4.67733e-10
0.0165177
0.261413
6.06272e-07
0.00259713
1.62839e-08
0.000287337
1.58785e-06
5.14378e-08
9.24143e-08
5.90667e-06
6.28192e-09
0.000370552
0.00072844
0.0335011
6.96057e-09
1.45598e-06
1.46521e-08
0.000635792
0.0032065
0.000111507
7.58364e-10
0.00383403
5.82856e-09
0.00351773
0.0195575
0.000891912
4.8522e-11
2.03937e-05
0.000307258
3.90808e-06
0.00490758
2.62272e-06
0.00119473
1.17723e-07
2.68701e-11
3.53036e-06
0.00471499
0.000170192
2.07866e-08
1.71435e-07
2.10621e-06
0.431225
1.93294e-10
4.44766e-10
1.62304e-09
1.91079e-11
2.18033e-09
0.000480762
0.000129879
0.000756264
5.30805e-05
3.75476e-06
0.0009139
6.40285e-12
0.0063265
3.85292e-10
9.48066e-09
1.4694e-09
4.36093e-07
6.20963e-05
4.17297e-07
2.38975e-09
4.74725e-09
0.0145133
7.51458e-09
2.60885e-09
0.0132166
1.93627e-07
0.0365104
0.0656251
0.384903
1.30863e-09
0.204587
1.27481
1.80485
0.668622
6.40444e-10
4.24199e-11
0.0047338
0.00523666
1.17536e-06
0.00294418
0.000705791
0.031053
5.62363e-07
7.30244e-08
0.000480917
3.93762e-09
9.91588e-11
8.92104e-06
3.4971e-05
0.000488565
1.97448e-10
0.00207962
2.08493e-06
1.43958e-08
2.15979e-05
0.00738929
0.00113354
4.92305e-08
0.00605862
5.77233e-09
0.00337817
4.03474e-05
0.00512451
1.45629e-08
3.23833e-05
0.00465726
1.82393e-07
5.9583e-05
1.35637e-09
0.0317536
9.4016e-07
0.0101956
1.25673e-08
0.00338126
2.69737e-09
2.88717e-08
4.13301e-09
0.00209356
0.00207212
4.50684e-08
0.0119412
0.00671797
0.00102865
1.08557e-08
0.0327264
0.0177138
0.17373
2.62813e-08
0.00344813
0.0240769
0.0455583
7.78066e-05
1.50095e-09
0.0647545
3.40882e-08
0.21347
5.14273e-10
4.54277e-05
6.56312e-05
1.66535e-09
3.74583e-05
3.14205e-08
0.0198306
3.51528e-10
0.000737185
1.08858e-08
2.26066e-07
1.46268e-08
1.37202e-08
0.000365473
0.00147806
0.137695
9.2862e-08
4.24077e-06
0.0407727
2.60829e-08
0.000800092
2.17041e-08
5.55339e-08
5.90342e-08
0.00497392
3.31687e-11
4.66029e-10
4.47347e-11
0.00278248
1.17627e-08
0.00112138
3.59405e-07
0.00270475
8.86297e-10
0.00512988
0.198048
0.00380978
0.00448928
0.0226674
2.05368e-07
6.2624e-09
7.02744e-09
0.00255562
0.0016712
4.72991e-08
8.80236e-06
0.000484212
2.08723e-09
5.76923e-09
0.311807
1.32861e-08
0.0215484
9.52061e-10
0.00205946
0.00365695
5.063e-09
2.6237e-11
0.000852917
1.43123e-10
1.21843e-10
0.0200263
0.00105457
0.00382269
3.95875e-08
6.22354e-10
0.00569032
1.02618e-07
0.013777
9.39129e-08
1.90523e-09
0.00220348
7.77252e-05
0.123542
1.10763e-09
6.67408e-10
8.26434e-09
0.00357578
0.170924
2.56361e-08
3.6038e-09
1.28669e-07
0.00124641
2.58883e-09
0.0212795
0.0233547
1.71261e-08
5.71899e-10
0.00583564
2.95013e-09
3.66105e-07
5.28002e-11
4.5166e-07
5.35487e-10
0.0601791
6.06165e-06
2.39263e-09
1.09684e-09
0.0012633
9.72821e-10
0.00104113
1.001e-08
1.17391e-08
2.01287e-07
0.00753847
0.00077459
0.00675364
0.000922653
0.00112103
0.542457
0.00216475
0.000752145
1.92646e-07
5.0738e-10
0.00193701
0.00236721
0.000688209
0.000781368
5.64936e-10
0.00573863
1.53219e-10
0.00291516
1.79495e-08
0.0100161
3.14893e-06
0.0551076
1.97647e-08
3.98672e-09
0.017086
5.39469e-06
1.18774e-09
0.0259855
0.000269457
3.95827e-08
1.25954e-11
0.0385821
0.0118447
0.0052722
0.000651919
0.00145345
0.0156303
0.000770296
0.00543976
1.57076e-07
0.0199296
2.21948e-06
8.29361e-06
1.36432e-10
1.80091e-08
3.86511e-09
0.00828155
1.86413e-09
4.95834e-08
6.27346e-12
7.90638e-06
0.00694508
0.00150827
0.00280999
3.87358e-10
0.0040815
0.000918474
0.00179359
0.00310955
4.88484e-06
0.0398982
1.07539e-08
7.66499e-09
2.40112e-09
0.00236121
0.00142239
7.46993e-09
8.58362e-10
0.00201559
1.05493e-08
0.625713
0.00100849
0.0800728
2.29779e-10
3.06197e-09
0.000786964
4.75508e-10
0.00835863
1.00793e-08
7.17599e-05
3.25881e-10
0.00934138
8.13234e-09
3.84049e-09
1.99983e-05
0.00268435
0.0012055
2.66128e-08
0.00127919
7.01005e-10
0.00435084
0.227693
0.0020098
7.81495e-09
0.00039857
4.2955e-10
5.40557e-08
6.78263e-06
0.0165667
0.000172949
4.84373e-09
0.00054671
0.00367956
0.00442733
0.00842426
1.08653e-08
7.12513e-09
6.05366e-08
2.41307e-08
4.18465e-09
2.49334e-09
0.00125142
0.000691118
2.81089e-09
0.00139196
1.60234e-10
5.59952e-09
0.0707923
1.18498e-08
1.03027e-10
0.000647777
2.37427e-09
6.92516e-11
1.05483
1.59156e-10
2.99505e-11
0.00139693
0.00156521
3.7587e-09
0.000694135
7.81404e-10
0.0207076
0.00083276
1.24157e-07
1.6886e-05
2.05867e-11
3.01942e-09
2.30393e-08
3.89437e-09
0.105027
0.000756754
0.000250709
8.65363e-10
0.00086419
1.64731e-10
6.5847e-09
8.52577e-10
0.00175023
3.45033e-05
0.00012695
2.49865e-11
1.7279e-08
0.000899341
1.88378e-05
7.59021e-09
4.98651e-06
0.00185417
0.00143098
6.49061e-07
0.00144918
1.81905e-05
0.000795312
7.26385e-07
0.00114052
6.00234e-06
0.030242
3.51837e-08
0.00546199
7.81606e-06
1.81282e-05
1.17551e-10
0.00156098
1.85182e-09
0.00448393
0.0193601
2.78321e-08
0.00264111
1.43977e-05
4.61397e-09
0.00820219
6.88189e-09
4.75449e-10
1.86956e-09
8.90555e-10
8.92268e-08
1.9962e-09
1.33048e-08
2.0605e-09
0.239347
7.60086e-07
7.36791e-11
4.80383e-11
1.0699e-09
2.1787e-09
0.0293188
0.779477
4.20704e-05
1.85186e-05
1.34874e-10
0.0015667
0.00104596
0.000861636
5.27167e-07
3.00796e-07
9.41618e-09
1.67751e-08
5.01082e-08
3.92455e-06
2.01545e-06
0.00356878
0.00124967
1.46563e-09
0.000109373
7.06842e-06
8.64123e-10
0.0263791
9.06157e-08
2.1277e-09
3.88436e-08
0.165367
0.00115007
2.69619e-11
0.0215557
3.0654e-09
0.000814037
9.73298e-07
0.000664158
0.048183
8.47183e-10
1.16225e-09
8.84791e-09
4.85903e-07
0.00645792
0.230576
0.0268487
0.0452059
0.00267407
0.000159164
2.57682e-10
2.01208e-06
0.105724
0.00156952
1.70527e-06
5.72166e-05
8.09628e-08
0.00170117
5.67683e-09
0.210751
0.000713302
7.0034e-10
0.000170769
0.000143603
2.12169e-09
0.0116474
5.60519e-10
4.40868e-09
0.202149
0.0278875
1.60483e-09
2.34763e-09
2.44769e-08
3.06868e-10
1.7827e-09
1.95627e-06
4.40917e-10
1.8685e-11
0.00344177
9.10279e-11
2.55697e-09
3.56e-09
1.44057e-05
8.91047e-09
3.01542e-06
1.33554e-08
2.10447e-09
3.95711e-07
1.2377e-06
0.00242482
0.00071458
1.38729e-06
0.00418665
4.42597e-08
0.00603847
0.0105642
6.02918e-09
0.00277253
3.86309e-09
0.00076829
0.000710893
6.93067e-06
0.00150372
0.00127909
9.87349e-08
1.7462e-11
0.00183859
3.0726e-09
3.53143e-10
1.30683e-08
2.95705e-07
3.23602e-09
3.42016e-07
0.0402401
1.81064e-10
8.23261e-10
0.324184
6.24886e-11
0.000287446
1.76293e-07
0.000958242
4.4055e-10
1.12117e-05
2.56085e-06
0.0043048
0.00854394
0.000400355
3.40681e-06
0.0375823
4.55059e-06
0.00126105
8.80865e-05
4.76163e-06
0.00970875
0.000989143
5.41557e-06
2.09785e-05
8.5539e-08
2.8256e-09
0.000743605
0.000219682
0.0206293
0.0106448
3.73955e-05
3.39567e-08
0.0053679
0.00412384
0.0159474
2.90908e-12
0.0108035
0.0157541
0.00239637
0.00111948
0.00040976
0.00452063
0.0180375
0.0356782
0.00748213
0.0109544
0.00716885
1.43981e-06
0.00254752
0.00341433
0.000576679
0.00309865
0.0135406
0.0121472
0.0204327
1.91151e-06
0.00732701
7.78117e-06
0.00443113
0.00231889
0.000313671
0.00281356
3.2405e-06
0.00126207
0.00450137
0.00101746
6.38251e-06
1.71165e-05
0.0167565
0.00179869
0.145632
0.00284822
5.305e-11