/*--------------------------------*- C++ -*----------------------------------*\
  =========                 |
  \\      /  F ield         | OpenFOAM: The Open Source CFD Toolbox
   \\    /   O peration     | Website:  https://openfoam.org
    \\  /    A nd           | Version:  10
     \\/     M anipulation  |
\*---------------------------------------------------------------------------*/
FoamFile
{
    format      ascii;
    class       volScalarField;
    location    "43";
    object      SgT;
}
// * * * * * * * * * * * * * * * * * * * * * * * * * * * * * * * * * * * * * //

dimensions      [1 -1 -3 -1 0 0 0];

internalField   nonuniform List<scalar> 
111485
(
4.96745e-16
0.0090202
0.0210423
3.69611e-17
0.0450034
1.01412e-16
0.0416351
0.0058769
0.0184063
0.00112834
0.0418182
0.00915542
0.00424192
0.000835391
0.00592988
0.0316542
0.00129337
1.99776
0.0100375
3.25163e-15
1.48063e-15
3.97172e-17
0.0234086
0.0355214
0.00847447
5.76131e-16
0.0400827
0.00174112
0.0159384
7.42349e-17
0.0435684
0.0173557
6.75866e-16
1.49289e-17
0.00966882
6.69857e-19
0.0105288
0.003888
6.45319e-08
0.0215876
1.05498e-18
0.0720021
0.0144331
0.000999295
3.68312e-05
1.78648e-17
0.0328408
0.00072081
0.0475647
7.7053e-16
1.53301e-16
1.02559e-14
2.45174e-15
0.0444908
2.54442e-15
0.0430369
0.00355099
3.26083e-18
2.7057e-05
0.00449294
0.0149357
6.61447e-16
0.00401946
0.0883914
3.83825e-15
0.0035916
0.301006
0.0971845
0.000922909
0.00512009
6.62767e-06
0.00548219
5.34567e-15
0.00244706
5.4542e-17
0.000637787
2.79441e-16
0.0425192
1.16193e-15
1.62171e-15
5.18868e-05
0.0316023
1.20917e-15
8.12029e-17
0.00811998
0.00442471
5.78219e-10
0.0225532
4.64964e-05
0.00678385
0.000867204
0.0410864
0.0103335
6.13777e-05
0.055964
3.94416e-17
1.02055e-17
0.00145386
8.69301e-09
0.00147996
2.32883e-15
0.0195115
9.43635e-19
0.0214712
0.00482897
3.67081e-15
8.41256e-18
0.0074753
0.00318763
1.49942e-07
0.00562314
0.00507119
0.00313714
0.00264419
2.02095e-15
3.05408e-05
8.006e-16
2.65644e-17
0.0113675
6.31507e-16
2.42526e-15
3.98415e-15
3.68412e-16
8.2502e-18
0.00233726
2.33255e-06
1.04051e-15
0.00149811
1.38252e-17
0.000173303
0.00098817
0.0280813
1.2068e-16
1.31257e-14
1.23338e-15
0.0491701
1.79722e-16
0.0409719
0.0225487
0.00255323
0.000171949
0.00186868
0.0204566
0.00310543
0.00379605
0.0122026
1.91825e-16
2.63527e-16
1.79908e-17
0.0262529
0.0018306
4.02828e-16
1.32986e-07
0.00502802
4.7966e-07
0.0106233
0.0154782
0.00943497
1.68923e-07
3.11114e-18
1.28464e-17
0.0526859
0.0252359
5.16309e-06
2.32008e-07
0.00518545
0.00368926
1.00931e-18
9.96252e-06
6.5811e-05
7.17124e-18
5.13036e-17
0.000148455
4.60004e-17
0.00613972
0.00226948
3.24984e-16
2.27215e-15
9.65736e-16
3.87124e-15
5.94974e-16
1.13228e-16
0.00134165
0.00671497
0.0277229
0.00415966
0.0064195
0.00356765
9.49422e-05
7.92361e-17
0.00425065
1.36102e-15
9.64638e-17
0.00582575
0.0110725
0.0228178
0.0103188
0.00462852
7.45887e-17
0.00604529
0.000573461
4.51856e-05
0.0111829
0.00230514
2.56273e-16
0.00325551
0.0275283
5.68423e-15
0.000230284
0.00651226
0.00228056
0.00030892
7.32335e-16
1.12744e-17
0.00728502
7.23766e-12
0.123857
3.41562e-16
0.00601262
0.0190202
0.121871
2.61394e-17
0.00266915
0.011992
1.63287e-13
1.98675e-17
8.18251e-18
0.16666
4.18732e-07
3.08957e-15
1.5595e-15
0.00913589
0.00846869
0.0159976
4.23778e-15
8.32869e-15
9.39115e-06
6.07951e-17
0.00272632
0.00833069
0.0149829
0.0107758
0.00917414
3.8029e-18
3.22653e-07
0.000565327
4.40325e-18
7.18496e-16
0.0307288
0.0214589
7.20362e-16
0.00558803
0.00978451
7.49559e-18
3.44418e-14
0.000153197
2.61938e-16
1.10319e-14
3.92548e-05
3.53213e-16
0.0156158
0.0117268
0.00335863
2.032e-17
0.0109537
1.09036e-16
2.08689e-16
1.14614e-17
3.72327e-08
0.0225597
0.00553431
0.00466211
0.0369767
0.0109694
0.0014976
0.000590668
0.0340502
0.00941907
1.17395e-16
1.45685e-16
3.3692e-07
0.0220532
0.0215201
0.0128341
2.08582e-16
0.00633215
0.00194793
0.00276175
6.24561e-06
4.40528e-06
0.0122069
0.00211819
0.00186293
3.41772e-17
0.000778773
5.33319e-17
5.26226e-07
2.82509e-13
0.266697
0.0682676
0.0138379
2.67055e-16
7.29767e-18
0.00830863
0.00190149
1.92476e-15
3.38471e-17
8.81101e-15
0.000414843
0.0622499
0.00334074
0.0154431
0.0182913
9.20909e-16
2.52173e-17
8.72236e-17
0.0035084
1.69302e-12
0.00132665
0.18694
5.8278e-07
2.52244e-17
1.43618e-16
8.46234e-17
7.3186e-15
0.0574305
0.0123225
6.81449e-18
0.00486501
3.26159e-15
7.3622e-15
0.0672407
0.00538548
0.010727
0.00854558
2.43035e-14
4.95375e-15
1.72551e-18
0.00872672
0.0189429
0.0046879
6.6238e-16
1.89233e-10
0.000225113
0.0017757
0.00733932
6.34141e-05
0.0284758
3.91675e-16
0.0370433
0.00315873
0.00786332
0.023079
0.0147295
3.08737e-17
1.19102e-16
2.64817e-17
1.28302e-16
0.0321087
0.00856461
0.0370828
0.066985
3.70527e-18
0.0201613
8.94047e-18
4.73105e-16
0.0161357
2.68678e-15
0.0397695
1.6378e-17
1.97444e-18
0.0237371
1.72653e-18
0.0141048
0.000335153
4.07168e-17
0.0011241
0.0150706
7.70037e-16
0.00797684
0.010675
0.00738856
0.000435111
0.0029207
0.00614043
9.07056e-15
3.47746e-16
0.00136272
2.02466e-17
0.00500763
0.112091
9.41181e-16
1.00711e-17
0.0256101
0.000127838
0.00759425
0.0224662
1.8263e-16
0.0389547
0.0197409
4.66951e-17
0.000696475
0.00281973
1.27417e-16
2.45057e-16
0.0118095
0.00487805
9.42499e-19
2.42446e-16
1.07087e-08
7.67101e-16
0.0105561
1.21517e-16
1.20641e-16
0.0177271
2.47585e-06
0.0146356
0.0266956
3.16085e-16
3.26026e-15
0.00108207
4.37745e-16
0.000107769
0.0108171
0.12171
0.905584
1.14499e-15
0.00260251
0.000234694
1.56779e-16
0.0350487
0.033124
5.1945e-17
1.1398e-08
0.000108601
1.00407e-15
0.0257072
0.0268918
0.012742
3.48695e-16
0.000590036
0.0206052
0.0212222
6.10964e-07
6.31355e-15
9.62847e-11
6.67649e-18
2.0781e-05
0.031851
1.81935e-17
0.00957896
6.81254e-05
2.56977e-14
9.21658e-19
2.1475e-14
7.72226e-16
0.00428586
0.00951106
0.0071185
0.00244069
0.0033908
4.13923e-16
0.00228025
7.69978e-16
0.03566
6.95931e-17
1.1341e-17
3.53935e-17
0.0317872
3.41268e-17
1.08228e-16
3.37073e-07
2.22236e-16
1.51875e-17
0.000875081
7.75342e-18
1.14046e-14
7.47153e-17
1.17434e-16
4.48718e-15
5.54237e-17
1.31655e-15
0.00815546
1.8077e-16
0.000392191
0.001663
0.00266245
6.05289e-16
0.000624156
3.33818e-17
9.22714e-17
0.00311032
0.00204886
0.0294078
0.0222574
2.9707e-15
0.00186975
0.0726873
0.00843031
0.00110909
0.00365591
4.15303e-16
0.0223953
4.53185e-15
0.00428174
8.99259e-17
0.0691203
1.45288e-15
0.0210501
0.00032296
8.27164e-08
7.82478e-17
0.00233115
4.95132e-16
0.0759212
0.0443209
3.47387e-18
3.19002e-17
8.49987e-15
7.35706e-18
1.9501e-10
0.0545845
7.1513e-16
8.58623e-18
0.00288083
1.19913e-17
0.0304237
2.75481e-15
0.000350777
1.39378e-16
0.000586219
7.49256e-07
0.00112117
0.0124474
2.02311e-15
0.000366188
1.25926e-15
1.9458e-17
0.0162747
6.29254e-17
3.57236e-05
6.27494e-15
0.00147696
1.2673e-16
0.0661576
1.58011e-16
1.23358e-15
0.0121427
0.00387881
0.00150488
0.004308
0.00590903
0.0208922
5.11019e-18
0.0207402
0.00708342
2.16576e-16
5.69793e-08
0.031471
0.0125549
6.98509e-15
0.00549904
0.00543781
0.00127762
0.00139211
1.48505e-10
0.0138135
0.000983579
0.00016667
0.026758
0.0141735
0.00109274
2.15195e-15
2.9793e-09
0.61962
4.60665e-17
0.00041835
2.59698e-18
1.07229e-14
0.00729751
0.00363715
1.25216e-07
8.41251e-06
2.89487e-15
0.0184956
0.00994387
3.31031e-16
1.11977e-11
0.00204479
4.5815e-15
5.73075e-16
1.59738e-16
1.32297e-15
0.0152431
1.52613e-17
7.05882e-17
0.00987159
0.0023405
1.14256e-13
0.00937892
4.84541e-16
0.00860614
3.05043e-15
3.09077e-17
0.0571272
1.24941e-17
6.89652e-16
7.5836e-15
0.00490296
1.82068e-14
0.0328283
0.00638777
4.7475e-16
0.0727851
0.00283113
0.0261275
0.0235925
0.000930004
9.17818e-05
1.02032e-16
0.0569185
0.041607
1.42085e-17
0.00030889
0.036184
0.00708354
0.00155633
0.0244301
0.023766
2.50486e-16
0.0104594
3.67853e-06
1.42664e-15
0.0319968
0.000299342
2.68484e-14
0.0109142
0.038822
0.00158831
0.0185292
0.0168389
0.00706149
6.90042e-15
0.00915511
0.00040014
7.72135e-12
0.0144601
0.0148965
0.0347901
1.98373e-16
0.00211274
1.729e-17
4.20523e-16
2.58256e-16
1.58239e-15
1.68546e-05
7.71453e-15
1.46146e-10
2.60417e-16
6.50334e-16
5.11662e-05
0.0396491
4.10739e-15
0.0366217
1.66388e-15
9.79327e-18
5.32759e-15
0.039634
0.000496377
1.56944e-14
4.01922e-17
7.49421e-17
3.18362e-17
0.238254
0.0684419
5.03089e-15
0.00177017
4.67384e-06
3.67689e-18
0.034905
0.00649619
0.0129304
2.05544e-16
2.95038e-16
0.000392219
0.00106973
9.71053e-15
4.08491e-18
1.18829e-15
0.00706535
1.19161e-16
6.26615e-16
4.24262e-16
0.0385011
0.00161479
2.69082e-17
4.1214
0.142658
0.0108969
4.07661e-19
1.83116e-15
0.056753
0.000304341
1.91563e-15
7.59876e-06
0.170038
0.00291197
0.0119155
5.02082e-15
0.0578116
0.00152143
7.29904e-18
5.36658e-15
4.23101e-16
3.13799e-17
1.63568e-17
1.41555e-16
0.0193323
2.84048e-16
3.08907e-17
2.42212e-15
0.0119214
0.0234266
2.07887e-15
1.40603e-15
0.105663
0.0133249
0.00876763
1.69997e-15
1.20216e-16
0.0345884
1.59333e-17
0.00227567
0.00240035
0.0035349
2.34387e-15
5.86913e-17
1.30953e-16
6.80432e-17
0.0158615
8.67183e-18
4.91302e-16
0.000816776
4.94014e-16
0.0211444
0.00140649
2.34633e-15
0.0358195
0.601335
0.00232235
0.0294278
0.000200173
0.0480105
2.37343e-10
1.4633e-14
0.0218659
0.0766257
0.00620294
3.41578e-15
1.32991e-09
0.517802
0.00988695
9.29333e-18
0.0029144
0.00313632
0.00143425
1.51273e-14
2.84882e-16
4.75211e-17
0.0126399
3.34493e-15
0.00232498
1.54405e-15
0.00145543
0.00127611
0.0343201
0.000534692
1.08674e-15
3.02831e-16
1.86602e-15
0.019719
1.99168e-16
2.14516e-15
4.30641e-05
2.08934e-18
2.22802e-18
2.84254e-17
3.24678e-17
0.00896832
3.12048e-15
7.08219e-17
7.29293e-10
9.89039e-15
1.65139e-18
2.54726e-14
2.81647e-16
3.26306e-06
0.00151573
7.58191e-16
0.00333271
1.2298e-05
2.78178e-07
8.52648e-05
0.00439108
3.51975e-17
1.00553e-05
0.00926693
0.000372745
1.74232e-17
1.09737e-08
0.000752289
1.9425e-15
0.00887903
0.000299733
2.01449e-06
0.0253154
0.00866794
0.00215861
0.00553778
0.00197573
1.77748e-16
7.66321e-16
0.0301264
0.0243789
2.31034e-17
0.00775969
0.0536735
0.0277334
6.10679e-15
0.00166296
4.75113e-17
0.0102755
0.0134812
2.41907e-15
0.00144208
0.00047545
1.50258e-06
0.00451193
2.9114e-16
0.047164
1.93615e-05
0.00186031
4.02231e-05
1.3777e-05
1.06524e-17
3.58734e-17
0.00833209
1.41694e-16
8.95164e-05
0.000328728
1.07737e-05
6.46211e-08
6.15177e-08
1.23217e-06
5.79996e-17
2.50809e-15
0.0216226
9.63445e-17
0.00115848
0.00234965
7.05368e-16
5.01029e-16
6.38718e-07
1.44463e-10
1.4925e-16
3.33772e-06
3.05435e-16
2.34811e-16
1.38911e-17
5.66701e-16
7.22953e-16
2.17944e-16
0.000330712
3.47072e-15
7.72802e-17
1.02215e-16
4.72893e-06
7.05065e-05
0.00204157
0.00916174
1.36517e-16
4.49409e-16
0.00023267
9.40545e-17
1.05965e-15
8.68199e-14
0.0194688
0.0407354
6.78653e-16
7.69533e-16
1.54563e-15
1.27e-15
2.62854e-18
6.48948e-16
0.00845368
6.15931e-16
7.89778e-08
0.0269213
6.77293e-18
7.50159e-16
4.44286e-15
1.52793e-05
3.55329e-15
1.29704e-16
9.66334e-17
5.9177e-06
5.65367e-17
0.00530396
1.06988e-06
4.36327e-09
1.19718e-16
4.68957e-05
0.00260437
0.0434718
1.09905e-14
5.52319e-06
0.00721914
1.46822e-15
4.72767e-16
2.20524e-13
5.01598e-16
0.00787137
0.00174717
0.00396363
1.59688e-07
1.03336e-16
0.0222965
2.84591e-15
5.2912e-16
1.52319e-13
1.93816e-17
0.025295
2.80357e-17
4.71448e-15
2.63667e-06
0.0487937
4.39464e-15
0.00300152
3.09649e-15
0.00112382
1.09366e-14
4.20773e-17
8.97587e-17
6.21295e-16
0.00264509
0.00068326
0.33907
1.19677e-16
5.78238e-15
0.00205156
9.60495e-17
1.45229e-14
6.85521e-16
0.0422409
5.61076e-06
0.0286859
7.67002e-16
6.4814e-06
2.96426e-05
6.90291e-14
6.93156e-05
1.18069e-15
0.00182352
0.0276365
0.0199988
0.00164569
0.000326386
1.31698e-15
1.86639e-17
3.29437e-17
1.40046e-05
1.2431e-17
0.00543536
1.27224e-17
0.17594
8.65457e-17
0.0416997
0.00354156
8.47452e-15
5.66213e-17
8.03487e-15
8.44537e-18
0.03133
7.9476e-15
2.99841e-13
0.0129902
0.00536216
1.2621e-14
1.87488e-14
1.48041e-14
1.13445e-14
7.09857e-15
2.86192e-17
0.020392
0.000519723
4.05293e-16
5.09332e-17
2.77163e-07
5.56691e-16
0.00132906
0.000116012
1.29533e-15
0.0027121
3.97997e-16
0.000331772
1.57725e-16
0.000889906
1.95834e-15
1.2745e-07
1.80432e-06
0.000876679
0.0144023
0.0274269
1.01391e-06
2.60163e-16
0.000446183
1.19017e-16
0.00436864
2.48561e-16
6.243e-18
1.58363e-13
3.53499e-17
5.74782e-17
1.33921e-17
0.00569961
0.00627778
1.8481e-16
9.61214e-14
1.12347e-14
0.000535713
1.76264e-05
5.06101e-17
0.0184319
0.000213081
4.02156e-15
0.0224831
0.00812009
0.00332155
0.0134702
6.23503e-17
3.6505e-16
4.33789e-17
4.65826e-17
0.0362657
3.8781e-17
0.103815
2.01564e-17
0.000216971
0.000729372
9.35102e-19
0.000670819
6.60236e-18
1.27653e-16
0.0022699
2.58572e-08
0.00590219
1.10252e-16
1.98795e-15
2.64932e-16
0.000695188
2.10994e-15
1.02546e-17
1.60605e-15
5.10692e-07
1.09961e-15
1.19308e-05
6.11576e-15
1.97368e-15
6.99092e-16
0.0178229
0.00958726
0.0176833
0.0342773
7.16114e-17
9.67613e-06
3.98812e-17
9.6734e-18
0.0107388
4.09373e-16
3.10809e-06
0.000255296
0.00628993
0.000240292
9.84996e-11
0.00242457
3.38281e-17
1.71408e-10
9.85921e-10
9.3283e-05
0.00123446
0.0134778
6.59221e-08
2.92011e-15
0.0311707
9.23423e-16
4.12692e-16
2.96425e-05
0.0745207
1.01106e-07
6.82506e-17
1.48757e-16
6.02983e-07
8.58442e-16
8.30662e-16
1.01742e-05
2.55032e-15
7.05058e-16
0.0419771
0.00014168
0.000105914
0.0234459
0.00717307
1.61812e-15
1.2434e-16
3.69309e-06
0.00419995
4.0758e-16
9.789e-16
0.0112382
4.00731e-16
1.83746e-13
2.79641e-15
5.31776e-15
4.46541e-13
2.52257
2.67938e-17
0.000184199
7.12356e-16
0.0153281
4.54292e-16
3.32802e-12
7.41079e-15
1.08896e-15
2.07643e-17
8.16279e-16
0.00336503
1.27576e-17
3.9923e-16
4.80787e-15
5.49244e-16
3.26399e-18
5.82958e-18
0.0099649
1.78831e-16
0.0110366
0.00233984
1.43266e-16
0.0017265
1.0891e-15
0.0003992
1.50054e-06
0.00406781
0.0141785
8.07352e-16
8.95925e-05
0.00933926
4.49732e-06
4.03545e-18
1.0759e-06
0.0169594
0.00476191
2.80767e-15
0.0267165
4.34205e-16
3.33162e-17
2.34077e-15
6.36499e-16
0.00827341
4.37972e-17
6.36211e-16
0.00805312
1.09418e-07
0.00278483
3.18006e-18
8.84585e-14
0.00067584
1.59245e-18
0.000147413
2.21122e-15
0.0217464
5.37052e-16
5.31476e-17
5.53992e-05
1.44303e-15
0.000101558
5.64755e-16
3.49309e-16
0.00534499
0.000391978
0.00489232
0.0174759
0.217547
0.0197368
7.57409e-16
2.59512e-14
0.00236972
0.00669185
0.0351911
0.0133415
1.1181e-16
0.0112834
1.09099e-16
1.08162e-15
0.00763506
0.00960497
1.56035e-15
0.012432
9.5329e-18
0.00284173
0.0082716
1.36484e-15
1.80946e-16
1.2879e-18
0.00232402
6.82941e-16
9.76644e-18
0.00354728
0.0199338
3.99742e-06
0.00767504
2.07197e-15
2.11325e-17
5.48324e-05
0.000657238
1.21153e-15
0.00924026
7.25249e-15
0.00243465
3.65744e-16
2.95364e-16
0.0111165
4.28513e-17
4.50578e-05
0.00296485
1.17846e-15
2.391e-16
0.00364951
2.57204e-11
0.0539207
3.46771e-16
0.285291
1.60264e-16
2.22001e-14
6.7959e-15
0.0064207
7.01734e-15
3.79092e-17
0.00501473
4.11012e-15
0.000161863
2.24625e-15
1.62166e-15
1.25327e-15
1.56719e-07
0.000774328
2.03549e-16
9.18152e-17
0.035968
0.000940955
5.08549e-16
0.000596085
1.55939e-15
1.38091e-15
1.20746e-06
0.00368982
0.00117292
1.42223e-15
3.57462e-17
2.71359e-16
3.41698e-17
1.22004e-15
2.54151e-15
1.08908e-18
4.12686e-16
2.07475e-16
1.62883e-16
7.73568e-17
3.36555e-16
8.59672e-16
6.17787e-16
1.12885e-17
4.90115e-15
9.68921e-16
1.02324e-15
1.92545e-16
2.10958e-16
1.65126e-17
0.0183569
5.44421e-16
6.4981e-16
1.88546e-17
0.00619427
5.28746e-18
4.96749e-16
0.194534
5.58088e-16
6.17991e-16
0.021924
3.58218e-12
9.52529e-16
0.0043701
0.0232724
7.4614e-17
0.00127289
0.00216204
4.93171e-15
0.0111057
0.0373602
0.016536
0.00287536
0.00975812
2.26688e-15
7.77891e-16
0.0027518
0.0101761
0.00268591
3.2407e-16
0.00559994
0.00135135
0.0186394
0.010704
0.000640945
0.0135966
0.00106959
0.00843263
5.29875e-17
0.0265845
0.00756078
0.00181917
0.00117149
1.07036e-16
1.32838e-16
3.72261e-17
5.4553e-17
7.84189e-17
0.00874171
0.0122029
2.73973e-17
1.91625e-16
1.55172e-14
1.07202e-15
1.22934e-15
2.27305e-16
7.41008e-16
1.16911e-15
0.00410245
8.66173e-05
0.019476
4.90084e-05
1.16346e-16
1.21503e-14
0.03312
2.8222e-06
2.46446e-16
6.48315e-16
0.00701196
1.80011e-17
1.86354e-16
3.65308e-06
0.00701686
0.0122262
0.0293592
0.0270081
1.79785e-15
0.0139825
0.000260803
8.37198e-15
8.95929e-16
0.0101902
6.82771e-16
1.01658e-15
0.0276923
0.993938
0.000149399
1.30989e-14
3.94756e-19
0.0157202
0.0222148
0.016223
0.00576784
0.00198577
1.58364e-16
6.80304e-07
2.27811e-09
9.80194e-18
1.57706e-15
0.0169777
6.28226e-16
0.00193931
0.02587
0.0155158
0.0119779
3.4181e-17
0.00523613
1.3638e-17
5.31724e-16
6.37521e-18
1.21579e-16
0.00250949
0.709667
2.66128e-16
3.56522e-16
4.08302e-06
0.0224796
0.000464662
0.00616905
0.0312115
0.00456323
0.019712
5.01345e-15
5.89644e-15
2.95314e-15
0.0306423
0.00511168
2.70613e-08
8.45921e-16
3.15635e-16
2.25206e-13
0.018696
0.00268967
1.24801e-16
0.00432191
0.0450354
0.00817426
0.00544005
1.08234e-15
7.62289e-14
0.00613189
0.0214978
9.25578e-17
0.000238241
0.0120365
0.000856966
0.00884939
0.00411447
0.00748173
6.03935e-14
0.0034662
0.0186901
0.036481
1.26972e-09
0.0230042
2.6991e-14
0.0159202
0.000147209
1.07095e-17
0.0024947
0.00634287
0.000312491
0.0106743
2.17836e-07
0.000191869
1.72689e-05
0.0245592
0.00311533
1.03346e-14
0.0377585
0.00105546
8.86771e-16
7.58118e-17
2.55518e-08
5.05219e-06
0.000899685
1.01329
0.0325073
0.00777527
2.56756e-07
0.0371007
2.29074e-15
8.88298e-17
0.00383444
2.8916e-15
0.00231348
0.00614734
0.00180607
0.00445564
3.99114e-16
0.000238507
0.10214
5.35936e-16
0.0595887
0.00653521
2.46166e-16
0.00341703
0.000181146
2.66129e-17
2.11246e-09
9.48262e-05
8.1389e-16
4.04974e-16
1.5395e-17
0.00427187
0.00448278
0.0132486
3.75286e-17
0.00560707
0.0296821
8.31284e-17
0.00701871
0.010869
0.0240739
0.00130396
8.27943e-16
0.000617972
0.00894282
0.0091677
0.00780349
0.0369092
0.146459
0.00324635
3.40658e-16
5.94859e-06
0.0503049
8.1966e-18
0.000374977
7.58092e-17
6.89912e-18
1.25792e-17
1.55964e-18
1.17397e-17
0.00265695
2.03287e-17
0.00612899
0.00144109
4.46398e-18
0.00408343
2.94553e-15
0.0139174
1.9941e-15
6.89943e-06
1.42382e-15
0.0206374
0.000111269
1.27065e-06
0.00357457
0.0277719
0.016561
0.00364015
0.0239599
2.14633e-12
0.0196835
0.0497128
0.00819646
1.97045e-17
0.00118923
0.000357919
0.00479172
0.0113055
0.000756679
4.79741e-17
4.49137e-15
1.66859e-16
0.004046
2.35952e-16
4.75229e-05
0.000227584
0.000533932
0.000271412
9.64782e-16
2.96389e-17
7.23014e-16
0.00738227
0.0199913
0.0012758
7.31458e-06
0.00185398
0.00613296
0.00196888
0.000719522
0.00628583
0.00530264
0.00231991
4.07833e-15
4.71493e-18
3.64503e-18
0.013807
0.0102459
4.26192e-15
4.81304e-16
3.68178e-14
0.00707378
0.0185995
3.09008e-16
0.00189298
4.15043e-16
3.78286e-07
0.00524964
0.074126
1.40803e-16
4.90863e-18
0.00342178
8.15266e-18
8.481e-05
0.0109739
1.77023e-15
0.00938766
0.031327
0.0160322
2.04633e-16
0.000659335
4.65717e-15
5.69564e-05
0.045436
1.20075e-16
6.31657e-17
0.0107292
4.79076e-13
1.79923e-16
3.51557e-05
0.00107349
4.36621e-16
6.37627e-17
1.9159e-15
4.66038e-05
0.00124976
0.00305398
0.0201859
0.00946145
3.12783e-16
3.25827e-07
0.000421374
1.56564e-16
3.70903e-17
3.4436e-17
1.29175e-15
2.23733e-15
1.50722e-15
2.15287e-15
3.09904e-16
2.25373e-14
1.27752e-15
1.38813e-09
2.53259e-15
0.000410194
2.14399e-14
8.63107e-05
6.20414e-14
6.33576e-05
1.55968e-13
3.51908e-17
0.0219928
0.00804403
2.57818e-15
0.08671
1.55477e-09
3.32875e-11
1.06611e-15
0.00104471
1.10762e-13
0.00218747
4.76212e-06
0.000972838
2.16032e-15
2.12303e-16
0.000633607
5.8443e-08
1.70106e-15
3.06668e-17
0.0368815
4.27251e-15
0.0339005
3.66487e-15
2.60507e-18
1.09961e-06
0.0266663
0.00844264
9.60035e-17
0.00039858
6.5635e-15
0.00102956
1.22195e-05
0.00186611
0.000645194
2.84712e-18
0.019015
0.000757534
0.00481012
6.03684e-16
4.33968e-16
6.67685e-16
0.0052247
0.00398459
0.0440258
2.39948e-17
2.34408e-07
3.62341e-16
7.53738e-16
5.11769e-15
1.5849e-16
0.00237835
0.00156439
0.00236512
0.279419
3.26043e-17
0.0286955
0.0329495
0.0174901
0.00122426
7.19668e-18
0.00544334
0.00326405
0.00476835
8.42075e-07
0.009608
1.43908e-15
0.00172286
0.000890105
0.0303792
8.03947e-07
0.00241493
1.72673e-15
0.016612
2.68846e-17
4.51455e-16
0.0014266
7.72194e-18
0.00695391
6.12981e-18
3.53803e-15
6.48124e-16
9.08487e-16
6.16042e-17
0.000590467
1.09574e-15
0.000599175
1.62525e-15
1.37813e-17
0.0187891
0.0059296
0.00726916
0.00808172
1.65625e-18
0.554773
3.44524e-17
0.0666655
3.3195e-15
0.0185501
0.0180575
0.001833
0.0533795
1.13269e-14
1.1991e-16
7.42346e-16
0.00205757
2.46437e-17
5.07752e-16
0.0167655
1.08934e-15
6.35377e-16
0.00403902
9.00511e-15
0.0125715
1.11328e-07
7.67503e-16
6.79639e-15
3.04393e-15
0.00143261
0.00574489
2.43114e-16
0.0207059
0.000242404
1.89347e-16
0.0941011
1.84248e-16
0.0153837
0.0170188
0.00296018
2.82408e-16
0.01549
0.0082416
0.000598869
0.00410485
0.0111067
1.90733e-15
4.80406e-16
1.49151e-06
5.7772e-17
5.33606e-16
7.99977e-17
0.0182879
0.0358478
0.00400297
0.00175139
5.62299e-16
0.041652
0.042994
0.00365571
0.00299998
0.00796507
0.0200832
0.00204065
3.26307e-16
3.92451e-17
3.19722e-16
0.00504818
5.69811e-17
0.0241689
2.53331e-15
0.000631393
2.92749e-07
0.00238551
0.0208684
3.00246e-16
3.31283e-17
0.00197933
0.00027874
7.35388e-16
2.55632e-15
6.17169e-18
2.69415e-05
0.000257728
0.000105797
0.000634654
0.00876552
0.0836693
6.33372e-15
5.12181e-16
1.19725e-15
0.00354875
0.0188329
0.0186784
0.0309894
0.00191431
0.00211134
9.75484e-16
5.49452e-16
2.64747e-13
1.25018e-15
0.00934615
0.0190745
8.68205e-17
3.17767e-15
5.74914e-16
9.82594e-17
1.00585e-17
3.20217e-15
0.0109368
9.20957e-15
0.00108608
0.291589
1.01779e-15
1.55205e-05
0.0208886
0.000618704
6.62433e-17
6.59012e-15
0.00368121
2.38136e-16
0.0116074
1.45683e-06
0.0218166
1.68484e-14
1.84502e-12
6.45155e-16
1.98893e-16
1.99579e-16
1.03767e-15
0.174347
1.45171e-15
0.00440929
0.00105987
1.62695e-15
1.61339e-16
0.0014622
2.88875e-16
1.99529e-16
0.014192
5.01813e-05
1.43653e-15
6.27962e-17
1.79025e-15
0.0147993
1.12341e-16
3.26002e-16
0.000242124
0.00196887
0.00224742
1.22251e-15
4.28522e-16
8.67534e-16
0.00295302
0.00140678
0.0103687
0.00295142
4.70199e-17
0.000685265
0.0123617
0.0058222
9.50061e-19
4.83787e-17
4.57611e-16
1.75134e-17
2.44655e-16
0.0281954
0.00716946
0.00426461
1.09424e-17
7.77808e-17
6.4551e-18
2.29132e-17
2.84248e-15
6.34357e-07
0.000291213
0.00230012
4.75441e-16
2.88663e-16
2.16386e-17
3.832e-09
0.0275263
0.0946865
7.24018e-17
5.69984e-11
3.74455e-13
1.30773e-15
5.99806e-18
0.00326737
0.00676427
9.70283e-16
2.78184e-15
0.00243639
9.45632e-16
0.000683029
0.0011511
2.00849
3.85799e-16
5.93584e-16
0.0119931
0.000361567
2.09809e-15
0.634618
0.000510169
0.00672805
2.2338e-15
1.21134e-15
5.40162e-17
4.98734e-16
0.00696108
9.03386e-05
1.73716e-15
0.0217463
0.0159713
0.838331
7.67727e-16
9.49842e-17
2.46324e-16
9.93958e-16
0.00536432
2.81368e-08
1.53529e-15
7.54392e-15
0.0167562
0.00105628
0.00481275
6.76281e-16
2.49536e-17
0.0255993
8.58775e-15
2.27732e-16
8.16252e-17
2.41309e-16
0.0227129
4.15938e-16
5.43612e-16
2.60879e-15
0.0228735
0.0126214
1.69448e-16
5.26726e-17
6.44149e-16
0.0133858
7.42428e-08
2.53863e-15
4.33144e-16
1.35292e-17
8.8844e-17
0.00216833
0.0086454
5.77524e-18
0.00205628
0.000864624
0.00392767
7.20156e-17
5.83567e-17
9.19079e-16
1.64225e-17
6.40437e-17
0.0213997
1.02425e-14
0.0155198
9.18003e-16
0.00115233
5.23381e-14
0.00169964
6.70187e-16
6.1534e-18
0.0101813
0.261412
1.27999e-14
0.00259273
1.51973e-16
0.000285709
2.0735e-15
2.60266e-15
3.72547e-15
1.66454e-07
1.10783e-15
0.000358581
9.82542e-17
0.0335011
1.00123e-16
4.79341e-15
1.48306e-17
2.14647e-16
7.12749e-06
0.000111064
7.7403e-17
0.00376587
4.94764e-18
0.00351748
0.0195575
0.000889669
4.83707e-18
2.97594e-06
0.000305629
1.37654e-06
0.00490713
4.95096e-07
0.00119421
1.83515e-14
5.89097e-16
3.25511e-07
0.00471384
0.000169091
5.43845e-15
2.1117e-15
1.78223e-15
0.431218
1.69036e-17
1.60933e-15
1.80935e-17
5.59607e-17
6.24841e-18
8.54159e-05
0.000121623
0.000753755
5.21157e-05
7.75488e-13
0.000912248
1.94597e-17
0.00632616
1.82199e-15
3.88402e-18
1.18456e-16
8.41291e-16
2.40022e-05
4.08257e-16
9.52702e-18
6.74068e-17
0.0145133
3.24088e-15
1.97871e-17
0.0106203
2.54498e-15
0.0364988
0.0656074
0.38489
6.46974e-17
0.204577
1.2748
1.80483
0.66861
3.43563e-15
1.44535e-16
0.00473377
0.00523645
2.80079e-15
0.00293785
2.18039e-16
0.0310526
6.49938e-15
1.58922e-16
0.000470703
1.59253e-15
1.21082e-16
6.78994e-06
2.79424e-05
2.40609e-18
1.48416e-16
1.33594e-06
1.2392e-14
8.72964e-16
2.00887e-05
0.00738918
0.00113151
1.78183e-15
0.00605668
1.12283e-16
0.00337802
3.84233e-07
0.00512376
3.44977e-16
1.13647e-09
0.00465635
2.14752e-14
2.20091e-10
1.25286e-15
0.0317534
1.21359e-14
0.0101939
2.25813e-15
9.49884e-08
1.35492e-15
5.9194e-16
1.13465e-17
6.89782e-11
7.95626e-10
6.40653e-17
0.0119412
0.0067149
2.31129e-17
9.79527e-15
0.0327262
0.0177133
0.17373
1.81027e-18
4.72144e-05
0.0240767
0.0455579
2.89353e-09
9.53063e-18
0.0647544
7.52856e-16
0.21347
4.34574e-17
1.08998e-08
6.82102e-09
7.77846e-16
3.74419e-05
7.09328e-15
0.0198288
3.46558e-16
5.23699e-16
1.5546e-15
1.41695e-15
7.54874e-16
5.94278e-16
0.000365428
0.00147736
0.137695
6.58349e-15
2.98498e-15
0.0407727
3.17384e-16
1.72002e-17
3.09365e-15
3.89072e-17
2.15851e-15
0.00497342
6.28595e-16
2.32113e-17
2.52659e-16
0.00278229
1.39284e-15
2.9956e-16
5.85299e-16
0.00270436
8.95454e-17
0.00512933
0.19598
0.00380812
0.00448905
0.0226664
3.38745e-15
5.57089e-15
7.02423e-16
0.00255528
0.00167116
4.22226e-17
3.08235e-14
0.000483997
1.87895e-16
6.15498e-17
0.311807
9.58741e-16
0.0215483
2.02388e-15
0.00205932
0.00365667
7.92739e-15
8.61834e-17
5.70247e-15
1.82418e-17
1.33068e-16
0.0200258
9.16331e-15
0.00382213
1.52392e-16
8.66419e-16
0.00569008
1.02472e-16
0.0137765
3.58307e-15
5.3426e-17
0.00220345
7.77099e-05
0.123542
1.41553e-16
1.46931e-17
9.33822e-16
0.00357572
0.170924
1.93338e-15
1.60005e-16
5.59971e-16
0.00124533
9.6951e-16
0.0212789
0.0233547
1.44222e-15
9.53385e-16
0.00583469
2.35382e-16
2.06004e-15
6.20436e-17
1.00042e-14
2.60851e-16
0.0601791
2.32033e-13
2.92324e-15
3.29824e-17
4.63273e-14
3.71039e-15
7.22897e-15
4.11064e-16
2.3827e-15
1.89609e-14
0.00753805
2.04338e-15
0.00675211
9.79457e-15
2.7969e-16
0.542455
0.00216457
3.34829e-15
6.6328e-15
1.19421e-15
0.00193641
3.7727e-15
6.12907e-17
9.73605e-15
2.6814e-15
0.00573846
3.06668e-16
0.00291504
4.33868e-18
0.010016
5.17563e-16
0.0551075
8.02461e-15
6.25963e-17
0.0170859
7.6765e-16
4.35915e-16
0.0259853
0.000268831
1.78005e-17
4.20668e-18
0.0385809
0.011844
0.00527164
0.000651468
0.00145304
0.0156302
0.00077005
0.00543695
2.46527e-15
0.0199295
8.05118e-15
5.1994e-15
1.7158e-16
6.79411e-15
1.52573e-15
0.00828119
7.02657e-17
4.55176e-18
2.47634e-17
5.10671e-07
1.41898e-05
6.87507e-15
0.00280743
3.31981e-17
0.0040813
1.01207e-15
7.01198e-07
0.00310952
1.99719e-13
0.0398981
1.24223e-15
4.98049e-15
2.53993e-16
0.00236094
0.00142163
1.03132e-16
1.3634e-16
0.0020153
1.54437e-17
0.622599
1.00103e-16
0.0800725
1.73862e-16
6.21892e-17
4.17131e-18
9.03061e-16
0.00835813
7.30327e-16
6.07398e-05
3.38785e-17
0.00934125
1.91497e-15
2.71007e-17
7.20959e-12
2.66255e-13
2.30499e-16
2.36344e-15
4.72192e-16
6.46085e-17
0.00435058
0.227693
1.34786e-14
1.61438e-16
0.000395507
2.55138e-16
9.83292e-17
1.84377e-06
0.0165667
0.000170221
1.3316e-16
0.000546459
0.00367895
0.00442704
0.00842419
1.49125e-17
9.72886e-18
4.34472e-17
1.37116e-16
8.00057e-17
8.98975e-16
1.41469e-15
2.29115e-15
6.76759e-16
1.83349e-15
4.56881e-16
3.90164e-16
0.0707915
6.17999e-16
9.43475e-18
3.91809e-09
2.25056e-17
2.9542e-18
1.05482
4.10602e-16
1.34615e-16
0.0013959
2.46878e-10
2.21189e-15
1.8206e-18
8.49336e-18
0.0207075
7.42532e-18
7.55788e-16
3.45417e-08
7.68741e-17
2.17804e-15
1.04247e-16
3.06502e-17
0.101331
2.99945e-17
0.000248756
2.94103e-18
1.66938e-16
2.22173e-16
3.00144e-16
2.8497e-16
4.31137e-08
6.45583e-08
0.000126734
2.99183e-18
5.30619e-16
1.90961e-16
1.13524e-07
3.76619e-16
2.4445e-07
3.13378e-08
1.21174e-16
3.14736e-15
3.08121e-15
1.30355e-08
1.09731e-15
5.52633e-15
1.17135e-09
2.8088e-15
0.0302419
3.62928e-17
0.00546195
1.86765e-15
1.7484e-06
1.82782e-16
0.00156087
1.24339e-17
0.00448318
0.0193599
5.08875e-16
0.00264095
8.98504e-06
4.40919e-16
0.00820202
8.17232e-16
7.68163e-16
1.70059e-15
4.67219e-16
1.01294e-15
2.52494e-17
1.37653e-15
2.74542e-17
0.239346
3.21323e-15
4.39512e-16
8.53296e-17
9.61506e-17
7.16292e-16
0.0293188
0.779456
1.95171e-06
1.65968e-05
8.79395e-16
0.00156613
0.00104582
2.76261e-16
2.19841e-15
1.02586e-14
8.63763e-16
1.13864e-15
2.9008e-15
1.02514e-15
1.37774e-15
0.000412201
1.0863e-15
3.70112e-18
9.51339e-05
1.53587e-06
2.52916e-15
0.026379
5.39685e-15
4.21281e-15
1.19247e-16
0.165367
1.00146e-17
2.61126e-17
0.0215541
3.96251e-16
3.4496e-17
3.5045e-15
1.77677e-17
0.0481824
4.70942e-16
1.04839e-16
6.67434e-16
2.97024e-16
0.00645757
0.230576
0.0268486
0.0452059
0.0026596
0.000153803
8.52566e-17
2.52645e-15
0.105723
0.00156867
4.32844e-15
4.661e-08
7.27969e-17
1.60547e-09
5.64368e-15
0.210751
7.95188e-16
6.27435e-16
0.000165756
5.90875e-11
8.7526e-16
0.0116455
2.89504e-17
1.07398e-16
0.202149
0.0278874
5.04567e-17
2.44571e-16
1.01203e-15
2.77713e-16
1.07202e-15
3.74033e-14
5.30764e-17
5.85478e-17
0.00344121
3.60702e-17
2.85385e-17
4.8663e-16
1.0137e-05
9.77596e-16
1.09657e-13
4.4981e-16
5.12673e-17
6.07304e-15
4.07266e-15
0.00242037
1.70537e-16
2.56519e-15
0.00418584
3.01406e-17
0.000416325
0.00510204
1.15433e-15
0.00277194
2.02213e-16
4.04317e-15
1.01844e-16
9.11632e-15
6.3285e-17
5.89554e-17
4.93738e-17
2.85213e-18
0.00183623
5.88367e-17
4.22339e-16
2.32724e-17
7.47782e-16
1.33682e-16
1.55894e-15
0.0402395
3.6271e-16
1.76203e-17
0.324184
1.81057e-16
1.74906e-17
8.62357e-18
0.000956629
5.62736e-16
3.15487e-06
1.13807e-15
5.07123e-05
0.00854372
2.02814e-16
7.27412e-15
0.0375819
1.54732e-14
2.29473e-16
8.76846e-05
3.74113e-07
0.00970874
1.30525e-06
3.81284e-07
7.71852e-08
8.52434e-17
3.44018e-15
0.000741394
0.000217626
0.0206292
0.0106446
3.53992e-05
5.66757e-17
0.0053679
0.0041235
0.0159472
2.9228e-17
0.0108034
0.0157541
0.00239625
0.00111752
0.000408578
0.00452033
0.0180374
0.0356779
0.00748122
0.0109544
0.00716871
2.02885e-14
0.00254735
0.00341425
0.000571949
0.0030977
0.0135406
0.0121471
0.0204325
2.14433e-14
0.00732679
9.11101e-14
0.00443084
0.00231856