/*--------------------------------*- C++ -*----------------------------------*\
  =========                 |
  \\      /  F ield         | OpenFOAM: The Open Source CFD Toolbox
   \\    /   O peration     | Website:  https://openfoam.org
    \\  /    A nd           | Version:  10
     \\/     M anipulation  |
\*---------------------------------------------------------------------------*/
FoamFile
{
    format      ascii;
    class       surfaceScalarField;
    location    "83";
    object      phi;
}
// * * * * * * * * * * * * * * * * * * * * * * * * * * * * * * * * * * * * * //

dimensions      [0 3 -1 0 0 0 0];

internalField   nonuniform List<scalar> 
109758
(
-3.38684e-06
0.00121992
-0.00121653
-0.00125268
0.00128851
-3.58371e-05
0.000104111
-0.00114987
0.00104576
-0.00144004
8.78907e-05
0.00135215
0.00146216
-0.000168289
-0.00125758
-3.62906e-05
-0.000405294
0.000396327
8.96716e-06
-0.00110845
-6.46921e-06
0.00111492
0.00202381
-0.000255893
-0.000384862
-0.00138305
-2.37287e-05
0.000849318
1.44629e-05
-0.000840052
0.000466422
-7.2203e-05
0.000596555
-0.000990774
-3.9425e-06
0.00058648
-0.000582537
0.00187435
-0.00152687
-0.00143887
0.00109139
0.000320887
0.00125916
-0.00143779
-0.000142254
0.00118864
-0.00121937
3.07335e-05
-0.000973846
0.00110806
0.00132795
0.000691413
-0.000946082
-0.000684551
0.000939219
0.000819588
-0.00157362
0.00140326
-0.000649231
0.00148429
0.00024236
-0.00110138
-0.000625275
0.00150007
0.000227953
-0.00121148
-0.000516545
-0.00144003
0.000171263
-0.00010884
0.0013776
0.000215084
-0.000290108
7.50238e-05
-2.64484e-05
-0.00119628
0.000285678
0.000937047
-0.000275687
0.000846485
-0.000570799
0.000251248
-0.000301532
0.00102946
0.00116214
0.000419972
-0.000405209
-0.00117691
1.77018e-05
0.00056346
0.000903132
0.00124139
0.00151639
-0.00194185
-0.000815931
-0.00109121
0.00108141
9.79389e-06
3.44695e-05
0.00112767
0.00149203
-0.00102647
0.00079518
-0.00126073
-0.00146104
0.00152964
-8.428e-05
1.56872e-05
-4.99229e-05
0.000604472
-0.000554549
-1.46546e-05
0.00089873
-3.46522e-05
-0.000849423
-0.000827333
0.000824303
3.03014e-06
-0.000123564
-0.00131758
0.00110493
0.000336219
-0.00115982
0.00212098
-0.000718805
0.000577963
0.000170773
-0.000748737
0.00019803
0.00103946
-0.00147389
0.000236404
-0.000252272
-0.00111668
8.16301e-06
0.00136079
0.00114058
5.16927e-06
-0.00114575
0.00167387
-0.00110249
0.000734927
-0.00130631
-0.000392233
-0.000504919
0.000676483
0.000220668
-3.41736e-05
3.33439e-05
0.0016747
-0.00144721
0.00142462
1.32312e-05
9.35659e-06
0.000796995
-0.000798021
1.02601e-06
0.000330575
-0.00214992
-0.000329077
0.00214842
0.000997934
-0.000282625
-0.000251215
-0.000464094
-0.00111256
0.00138816
-0.000195411
-8.01951e-05
1.65499e-05
0.00102435
-0.0010409
-0.00224761
0.000142299
0.000187789
0.00191752
0.00107968
-0.00052235
0.000519998
-0.00107733
0.000398917
0.000616719
1.43378e-05
0.00140048
-0.00141482
-0.00105835
0.0010619
-3.55042e-06
-0.00121982
0.00125429
-0.000329721
-0.00175407
-0.000430746
0.00251454
-0.00228282
0.00318366
-0.000667436
-0.000233409
-0.00111406
0.000982961
0.0011706
-0.0010395
-0.00180371
0.000708472
-5.92426e-05
0.00115448
-0.000718909
0.000263753
0.000646386
-0.00019123
-0.00149366
0.00142215
7.15078e-05
-0.00323423
0.000189509
0.00163171
0.00141302
-0.000313884
0.00130125
-0.0012494
0.000262034
0.00156927
0.00151363
-0.00189111
-0.00113799
0.00151547
-0.00190102
0.000921687
0.000514707
0.00046463
0.00139261
-0.00153986
-0.000857909
0.00100516
-0.00147634
9.85616e-05
0.000349152
0.00102862
-0.00112267
-0.000798876
0.00044521
0.00107496
-7.64978e-05
-9.37172e-05
-0.000904747
0.001006
-0.0005903
0.000373423
-0.000789121
0.00141975
5.18401e-05
0.000602389
-0.00207398
-0.00052034
0.000192364
0.000327976
-0.00211804
0.0013486
0.00158355
-0.000814114
0.00080301
-0.000759555
-4.34547e-05
-0.000625608
0.000196574
-0.001689
0.000106482
-0.000881198
-0.00028363
-0.00027056
5.60105e-05
-0.000860641
0.00107519
0.00174249
-0.0015831
-0.000333481
0.000174098
-0.00170461
0.00153671
-0.00105193
0.00119812
-0.00081098
-0.00100325
0.000616108
-0.000650739
0.00269958
-0.00135002
-0.000698822
-0.000152316
8.23188e-05
0.00152944
-0.00145944
3.64003e-05
0.00216825
0.000227604
-0.00243225
0.000866556
-0.00157203
-0.000133255
0.000838725
0.00123805
-0.000233152
-0.000898417
0.000128785
0.00099127
-0.00135853
0.00023847
0.000543361
0.00204817
0.000129517
-0.00272105
0.000961861
-0.00113403
0.000180293
-8.12581e-06
0.00065517
0.000735457
-0.00276354
0.00137292
0.000933335
-0.000103682
6.16143e-05
-0.000891267
0.00199178
-0.00149349
-0.00296907
0.00247077
0.00169111
-0.00190414
0.000844497
-0.000631459
2.06025e-05
-0.00159273
0.00146395
0.000108177
0.00164641
-0.00115281
-0.000363104
-0.000130489
0.00088951
2.0868e-05
-0.000910378
-0.00170038
0.000294119
0.00118704
0.000219213
0.00111498
0.000743616
0.000571247
-0.00242985
0.000918934
-0.00165745
0.00114789
0.00249095
-0.00144436
-0.00219448
0.000917307
1.62657e-06
-0.000367894
0.00119432
0.00119889
-0.00202532
0.00105174
0.00030051
-0.000148983
-0.00120327
8.12549e-05
0.00092218
-0.00100343
0.0014139
-0.000116756
5.53693e-05
-0.00135251
-0.00057788
-1.89481e-06
0.000579774
-0.00132411
0.0010215
-0.000798767
-0.000237687
0.00179639
-0.0018891
0.000330394
0.000431857
-0.000362764
-0.00145274
0.00138365
0.000287594
-0.000293293
-0.000681616
0.000687315
-0.000368721
-0.000989359
0.0012368
0.000121281
0.000447802
-0.00121937
0.00126869
-0.000497128
0.000927804
0.000283623
-9.27797e-06
-0.00054947
-9.87636e-05
0.000657512
0.000179564
0.000352967
-0.00203726
0.00150472
-0.00131194
0.00016644
0.00134822
-0.000202721
0.00097362
0.000158179
9.90374e-05
-0.00123084
0.000205015
0.000768604
0.00143166
0.000288438
-0.00156192
-0.000766615
-0.000873104
0.00130308
0.000336643
0.00135803
0.000183636
0.000199574
-0.00174123
-0.00146801
0.00125522
-0.000411804
0.000624594
0.00134627
0.000290404
-0.00104608
0.00117846
-0.0010877
0.000955315
0.00146317
-0.00021119
-0.000286436
-0.000965543
4.0186e-05
-0.00160661
0.00174203
-0.000175597
-0.0015293
-3.75593e-05
-0.000422842
0.0019897
0.000938758
0.000505934
-0.00148563
4.09362e-05
-0.00101894
9.45223e-05
0.000894846
2.95762e-05
0.000184212
5.6898e-05
-0.00188305
0.00164194
-0.000930465
-6.10766e-06
0.000936573
0.00019316
0.0013321
-0.00134105
-0.00106141
0.00142123
-0.000773873
0.000414056
-0.00121295
-0.000777904
0.00157832
0.000412532
0.00127432
0.000244305
-0.000722683
-0.000795945
-0.00201021
-2.81251e-05
-0.000282977
0.00232131
-0.00129462
-0.000777597
0.000565874
0.00150635
0.00177649
-0.00174076
-0.00011209
7.63604e-05
-0.000263764
-0.000789097
-0.000701208
0.00146079
0.00108168
0.000271137
-0.00281361
0.00211355
0.000267151
-0.0023443
0.000214727
0.00110499
-0.00131972
3.5187e-05
-0.00108864
0.00105345
-0.00103479
-0.000214735
0.000197569
0.00105196
9.2187e-05
0.00134678
-0.00128486
-0.000154108
-0.00221981
-0.000254854
0.000576583
0.00189808
0.00122521
-0.00129638
0.0011086
-0.00103743
0.000159162
0.000143143
0.000922904
-0.000874117
0.000847539
2.65776e-05
-0.000919538
3.02186e-05
0.00133312
-0.000443806
0.000264237
-0.000672331
-0.000492568
0.000900661
0.000674456
-0.000702071
2.76151e-05
-0.000961839
0.000910033
-0.000218755
-5.08485e-05
-0.00101117
-1.05849e-05
0.0010726
0.00171114
-0.000192287
-0.00108592
-0.000432935
-0.000408177
-0.00186735
0.00250691
-0.000231382
-0.00162342
0.000562167
-0.00135661
0.00151467
-0.000158058
-0.000731671
0.000659135
-0.00102717
0.0010997
0.000547791
-0.000670684
-0.000497643
0.000620537
-0.000920565
-0.00126234
0.00100165
0.00118125
5.03265e-05
0.00141135
-0.000139988
-0.00132169
-0.000358636
0.00170978
-0.000286502
-0.00106465
-0.00159251
0.00134663
-9.65288e-05
0.000342408
-0.00117002
0.000933201
-0.00100752
0.00124434
0.00121549
6.60274e-06
-0.00122209
-0.00180189
0.000389465
0.00176157
-0.0003463
0.00142252
-0.00107622
8.78598e-05
0.00143504
-0.0015229
0.000197941
0.00123675
-0.00189564
0.000460949
-0.000951415
-0.00098929
0.00106183
0.00087887
0.000694814
-0.000199805
0.000510989
-0.00142026
0.00148347
-3.8094e-05
-2.51209e-05
-0.00141784
1.42686e-05
-1.66923e-05
0.00075192
-0.000450743
0.00184957
-0.00215075
-6.85856e-05
0.00180461
-0.00173602
-0.00118324
0.000849675
-6.59552e-06
0.000340156
-0.000902508
-0.00109843
0.00200094
-0.000674701
-0.000253297
0.000927998
0.00100456
1.25766e-05
-0.00101714
-0.00159612
-2.56946e-05
0.00131284
0.00030897
-0.000461595
0.00063853
0.000839033
-0.00101597
-0.00176745
0.000484089
0.000821769
0.00172075
-0.00271128
0.000575303
0.000415224
-0.00144943
0.00146286
-3.98139e-05
2.63799e-05
0.00193036
-0.00192972
-1.53029e-05
1.46622e-05
-0.00109042
1.53777e-05
0.00026908
0.000805959
7.65273e-05
-0.0011369
0.00106037
-0.00123427
-0.00175227
0.00118842
0.00179812
0.000148958
0.00161164
-0.000746209
-0.00101439
2.03245e-05
-0.00155704
-2.33135e-05
0.00156003
0.000256095
0.00139847
0.000329886
-0.00198445
0.000203757
0.00139805
-0.00147305
-0.000128754
-7.46123e-05
-0.00109378
0.00137215
-0.000894653
-0.000757648
0.000384953
0.00126735
0.000841598
4.83211e-05
-0.00088992
0.00135939
0.00130347
-0.00157451
-0.00108835
1.69957e-05
-0.00108189
0.0010649
0.000302719
0.000132012
5.95475e-05
-0.000494279
-0.00142037
-2.28211e-05
0.00046988
0.000973316
-0.00104624
-0.000536703
0.00158294
0.000845664
-0.00111033
0.000393888
-0.000129219
-0.00146892
0.000185117
0.00134021
-5.64068e-05
-0.00148
0.00179847
-0.00141292
0.00109445
-5.87976e-06
-0.000888773
-0.00114272
0.00111069
3.20377e-05
-0.0014786
-0.000770739
0.000146025
0.00210332
-0.00013658
0.0013004
-0.00116382
0.00103752
-0.000815771
-0.000221745
0.000924983
-0.000930862
-0.00111198
-1.79048e-07
0.00111216
0.000508602
0.00138602
-1.33919e-05
-0.00188123
-0.00113549
0.000173019
0.000962475
-0.0012633
-0.000444587
0.00131581
0.00039208
-0.00190958
0.000262485
0.0018642
-0.000217105
0.000944201
-0.000916801
-2.73994e-05
-0.000726227
-0.00101909
0.00390905
-0.00216373
-0.00148232
0.000543009
-0.000373398
0.00131271
-0.000750807
-0.000179454
-0.00117523
0.00210549
-4.24668e-06
2.67632e-06
0.00130694
-0.00130537
0.000707856
-0.00209643
0.00285912
-0.00147055
-0.00121626
0.00121202
0.0015571
0.000401069
-0.00190737
-5.07928e-05
0.00108535
0.000148537
-0.00136327
0.000129383
0.000950352
0.000445371
-0.00159418
0.00019846
0.000903623
0.000181726
-0.000541822
0.00169142
-8.92327e-05
-0.00106036
0.000326679
-0.00148647
0.00190081
-0.000741019
-0.0016724
0.000121819
-4.8305e-07
0.00155107
0.000972886
0.00374532
-0.000594382
-0.00412383
0.000450122
0.000343073
-0.000596684
-0.00019651
0.000310166
0.0011236
-0.000508285
-0.000925483
-0.000905611
0.000884291
-0.000520502
-5.05777e-06
0.00169151
4.96267e-06
0.00133531
-0.00135024
0.000213997
-0.000199057
0.000316217
-0.000105719
0.000806884
-0.00101738
-0.00130092
0.00126672
0.000182733
0.000392569
-0.000768653
-0.000879936
0.00125602
0.000541998
0.00150814
-0.00150677
0.00112912
-0.00147853
0.000199697
0.000149715
0.00111297
2.04253e-07
-0.00111318
0.00242809
-0.00249726
0.00202061
-0.00195144
0.0003703
-0.000955402
-0.000476602
0.0010617
0.000384902
0.000204411
-0.00163414
0.000974082
-0.000580752
0.00124081
-0.00200262
0.000452152
0.00168508
-0.000134608
-0.00156198
-0.000862504
0.00313234
-0.000159626
0.00191814
-0.000634551
-0.00112396
0.00092459
-0.000466556
0.00171247
-0.0021705
0.000184431
-0.000870264
0.00074101
-5.51778e-05
-0.000382702
-0.00125565
0.00144249
0.000195857
0.00108113
-0.000611917
-0.000439638
-2.95764e-05
0.000548036
0.000229721
0.000290567
-0.00106832
-0.000776212
0.000995615
-0.000219403
0.000889417
-0.000828529
0.000123543
3.05673e-05
-0.00135782
0.00132726
0.00104323
-0.00121553
-0.000210408
0.000264651
0.00118142
-0.00026505
-0.00118102
-4.01586e-06
-0.000963839
0.000967855
0.000524874
0.00161286
-0.0008835
-0.00125424
-8.57063e-05
-0.000632896
-0.00042516
0.00114376
-0.000294643
-0.00162195
1.07768e-05
0.00190582
-0.00102995
0.000416979
0.00125933
-0.000646364
7.62137e-05
0.000967019
-0.000857696
0.000933909
0.000926102
0.000247542
9.9936e-05
-0.00127358
-0.000489271
0.00218877
-0.000142405
-8.92339e-05
-0.000621665
0.00056672
0.000144179
-0.000206141
0.0024352
-0.000115511
0.00197588
-0.0010262
-0.000424804
0.0022537
-0.000275419
-0.00120936
0.00180733
-0.000322554
-0.00228032
0.00191494
0.00093797
-0.000572586
5.77164e-05
0.00104784
0.000870327
-0.00100391
-0.00131879
0.00139224
-0.00071648
-0.000988299
0.00190979
-0.000205009
0.000740357
0.000843271
-0.00158363
2.6198e-05
0.000168858
0.00222427
-0.00241933
-0.00117466
0.000993013
0.00144021
-0.00125856
0.00135764
-0.00214587
0.00172483
-0.000936601
0.000449865
-2.28615e-05
-0.000427003
-0.000923933
-0.000517182
0.000171932
0.00126918
-0.000473727
-0.000679162
8.94493e-05
0.00117074
-0.000969035
-0.000291157
0.000984309
-0.00102516
4.08468e-05
0.00010967
-0.00130644
0.00137844
-0.000181676
0.00114613
-0.00282831
0.00139764
0.000284531
0.000655205
-0.000874012
0.000218807
0.000867503
-0.000110942
-0.000859854
0.000103293
-0.000174076
-0.0028696
0.00259048
0.000453204
-0.00113363
0.000194831
0.00132083
-0.000382037
-0.00118631
3.82021e-05
0.00114811
0.00118296
0.000200054
0.000785236
-0.000590197
-4.90258e-05
0.00152864
0.000102757
-0.00168149
0.00140466
-6.39837e-05
0.00116673
-0.00110274
-0.000816955
0.00050591
0.00135505
-0.001044
-0.000185985
0.00155265
-4.38346e-05
-0.00132283
-0.000187242
0.00144231
-0.000975399
-0.000279672
-0.00100248
-2.22586e-05
0.00118143
-0.000156695
0.000832433
-0.00174011
0.000949967
-4.22949e-05
-0.000891557
0.000696966
-0.000716475
0.000911066
0.000863738
3.41358e-05
-0.000100879
0.000132409
-0.00125903
-0.000303381
0.00143
-0.000258136
-0.00138334
0.000618355
0.00102312
0.000493546
-2.10014e-05
0.00113429
0.000275024
-0.00138832
0.000581745
-0.000410097
0.00117228
-0.00134393
-0.000751401
0.000930919
0.00124243
-0.00142195
0.00203439
0.000510698
-0.00205154
1.63128e-07
-0.00121048
0.00121031
7.4853e-06
-0.00122641
0.00127533
-5.64093e-05
2.39806e-05
0.00131068
-0.00117884
-0.000155823
0.000394341
-0.00198937
-6.49563e-05
0.00165999
-0.00110095
0.001321
-0.000220053
0.000202268
-9.24351e-05
0.0013259
-0.00143573
-0.00102586
0.000227835
-0.000709006
0.00107355
-0.00143077
0.00106622
-0.000327225
-8.10698e-05
0.000408295
0.00324053
-0.00158161
-0.000703462
-0.00095545
0.00130479
0.00334327
-0.00140753
0.00216186
-0.00199883
0.000188985
0.00110084
-0.000852278
0.00121915
-0.000386501
1.96296e-05
-0.000251312
4.69998e-05
0.00178786
-0.00125116
0.000471056
0.000960799
-0.000180697
-0.00105226
0.00174107
0.000130785
0.00122123
-0.00139806
0.000708611
-0.000531783
0.000181411
0.00245662
-0.00243576
0.000735105
6.37497e-07
-0.000735742
-4.45594e-07
-0.000956744
0.00095719
0.00170507
0.000137874
-0.000381595
-0.00146135
0.00221047
-0.000712142
-0.000935555
-0.000562775
-0.000139462
-0.00280359
0.000846623
-8.61136e-06
-0.000679289
0.000687901
0.00147046
-0.00134925
-0.00133356
0.00121235
0.00106482
0.000444023
-0.00125274
0.000864083
-0.000532511
-0.00131813
0.000986556
-0.00104286
-9.50758e-06
-0.000803427
0.00185579
-0.00159307
-6.78215e-06
0.00159985
0.000993008
9.3764e-05
-0.00105662
-3.01528e-05
-0.00127232
-2.08212e-05
0.00129314
6.42893e-05
0.00107033
-0.00113462
-0.000782607
0.00173421
-0.000125975
-0.000825625
-0.00187861
0.00226253
0.00142711
-0.00181103
0.000901205
0.000769375
-0.000208424
0.00133807
-0.000865008
-0.000264634
-0.000229941
-7.79629e-05
-0.00115533
0.00146323
0.00130449
-0.00114735
0.000912642
-0.00106978
-0.00123774
0.00128823
-5.04836e-05
-0.00151433
0.000253325
0.00130057
-3.95611e-05
-0.00264261
0.000528643
0.00201039
0.000103586
0.00026095
-0.000334857
-0.00130864
0.00138255
0.00190152
0.000181185
-0.00109222
-0.000990485
0.00103422
-0.000786449
-0.00104147
0.000793694
0.00119102
1.18307e-05
-0.00120285
0.000110057
-0.00202595
0.00148245
0.000433443
0.000752762
0.000448904
-0.000300462
0.00027371
-0.000881913
0.00128587
-0.000677672
-0.000545332
0.000529511
-0.000121952
0.000137774
-0.00362617
0.00437317
0.00141029
-0.00215729
0.00181972
-1.18978e-05
-0.00181894
1.11129e-05
9.16782e-06
0.00146344
-0.00157285
0.000100237
-0.0021928
0.00192112
-0.00051093
0.000974449
0.00121971
-0.00110393
-0.00109023
-0.000967717
-6.94977e-05
-0.000105247
0.00114246
0.00101053
5.27168e-05
-0.00106325
0.00128826
-7.10674e-05
-0.00121719
-0.00227761
0.0021463
8.45026e-05
4.68023e-05
7.02926e-05
0.00146803
-7.17535e-05
-0.00146657
0.00090946
0.000458547
-0.0029775
0.00160949
-0.000630632
0.00063064
-7.83323e-09
0.000924181
2.11517e-06
-0.000926296
-4.70341e-07
-0.000556872
0.000557342
-0.00053078
0.00108035
0.000725874
-0.00127544
3.53701e-06
-0.00114345
0.000897103
0.00024281
-0.00128321
-0.000526043
-0.000468354
3.2543e-06
-0.000888554
-0.000132237
0.00101754
-0.000687396
1.28508e-05
0.000674545
0.000235012
0.000729256
-0.000237595
-0.000726673
0.00050284
-0.000895074
0.000392234
-0.000243042
-0.000833082
-0.000310434
0.00138656
0.00070953
0.00094051
0.000138623
-0.00178866
0.00185642
-0.000675175
-0.000601582
-0.000579662
-6.80694e-05
-0.00153316
0.0017869
-0.000185672
0.000736004
0.00038797
0.000212146
-0.00133612
0.0023203
0.00103343
-0.00217625
-0.00117749
-2.84376e-06
0.000587581
-0.000584738
-0.00137315
4.08854e-05
0.000317675
0.00101459
-0.00134581
-0.000149413
0.00153108
-3.58588e-05
0.000374603
-0.000468966
0.00191409
-0.000476426
0.000629243
-0.000152816
0.000937432
2.69516e-05
-0.000964383
0.000194415
0.000122375
-0.00123668
0.00091989
0.00131889
-0.00013016
-0.00122669
3.79567e-05
-0.00111346
-6.00027e-07
0.000237748
0.000322127
-0.00146126
0.000901386
-0.00135676
9.78311e-05
0.00125893
-5.32592e-05
-0.00094922
-0.000123766
0.00208952
0.000147243
-0.002113
0.00111652
-0.0011825
6.59879e-05
-0.00119417
0.00118139
1.27785e-05
0.000959592
-0.00108336
0.000262531
0.000876313
0.0010891
-0.00222794
-0.00117261
-0.000640136
0.00181275
-9.07386e-06
0.000836207
-0.000827133
-1.95656e-05
-0.00090955
0.000929115
0.00111452
-0.00110761
-6.91925e-06
-0.00123532
4.73848e-05
0.001242
-5.40649e-05
0.000302109
-0.0013907
0.00106214
0.000693645
0.000583341
-0.00233805
0.00106107
0.000721229
4.94351e-06
-0.000726173
4.7354e-05
0.00136519
-0.00141254
0.000672028
2.42736e-06
-0.00153956
0.00137048
0.0012989
-0.00112982
-0.000969541
0.000122791
0.00124346
-0.00039671
0.00169646
-0.00244431
0.000590931
0.000156923
-0.00218981
0.000488375
-0.00104581
0.00115602
-0.000110209
2.56646e-05
-0.00115989
0.00113423
-0.00100315
-1.9844e-05
0.00102299
-0.00117456
6.30257e-06
0.00116826
0.00112362
-0.00123201
0.000108391
1.55127e-05
0.00173341
-0.00174892
-0.000256877
-0.000234225
0.00124386
0.00123784
-0.00129278
-0.000883982
0.00093893
-0.000698654
0.000127307
0.00135652
-0.000785177
0.000666938
-0.00156864
-0.000101446
-7.28895e-05
0.00153348
-0.00146059
0.000454909
0.000424165
-0.000580044
-0.00029903
-0.000706409
0.00115819
-0.00139177
0.000939985
-0.00112389
-0.000427188
0.00155108
0.00227601
-0.00140355
-0.000872463
-0.000432104
0.00163508
0.00107133
-0.0022743
-0.00118649
0.00143899
-0.00143582
0.00118331
0.000508921
-0.000382332
-0.000584562
0.000457973
2.12469e-05
-1.36406e-05
-0.00127991
0.00127231
-0.000119164
-0.00180145
0.00192062
0.000404991
5.33179e-05
-0.00152678
0.00106847
-0.00150306
0.0011664
0.000336656
-0.000702811
-0.000351916
0.00101383
4.08979e-05
-0.000991035
0.000985988
5.04772e-06
0.000963436
-0.000814841
0.00120905
-1.03685e-05
-0.00157775
0.00158066
7.45601e-06
0.00304721
-0.00078798
-0.00152944
-0.000729785
-0.000471296
0.00166296
8.08456e-06
-0.00119975
-0.000550306
0.00081908
0.000457476
-0.00072625
-0.00132476
0.000778041
0.00137622
-0.000829503
0.000727328
-0.000868482
-0.000339452
0.00150751
3.97816e-05
-0.00120784
0.000906333
-0.000999646
0.000103551
-0.00213754
2.41838e-05
-2.1123e-05
0.00213448
-0.000297121
-8.38601e-05
-0.000799627
0.00118061
-0.00108439
0.00139486
-0.00110864
0.000798166
-0.00247905
-0.000334646
0.00260756
-0.00160752
2.28826e-05
0.0016092
-2.4571e-05
0.00100648
0.000162809
-0.000678795
-0.000490494
-0.000317621
-0.00123376
0.000655687
0.000895693
0.00106764
-0.000418624
-0.0014072
0.000758181
-0.00138754
-0.000357537
-3.10703e-05
0.00177615
0.00111012
-0.000136195
-0.00101856
4.4632e-05
0.000940162
-0.000944214
4.05197e-06
-0.000745362
0.00242683
-0.00201621
0.000334741
0.000156323
0.00143143
-0.00230348
0.000715727
-0.000945324
-0.000307833
0.000993466
0.000259691
0.000330079
-0.000316895
-0.000958507
0.000822379
3.3168e-05
0.000161048
-0.00101659
-8.81357e-05
0.000615735
-0.00266514
-0.00138856
2.84914e-05
0.00178201
-0.00042194
-0.00099518
0.00116129
-0.000166105
0.000489789
-0.000459336
-0.000649099
0.000618646
-0.000700634
-0.00128679
0.000808951
0.00117848
-0.000577189
0.00179593
-0.000661469
-0.000557274
-0.00148036
1.03032e-05
-0.0012956
0.00161538
-3.90918e-05
3.44471e-05
-0.00128126
0.00128591
0.00123743
0.00132697
-0.00141025
-0.00115416
0.000982111
-0.00101301
3.08944e-05
0.00125369
-7.86434e-06
-0.00124582
0.00106973
-0.00124165
0.000351299
-0.000179385
-0.000312148
-0.000915094
0.00222071
-0.00164465
0.00141175
-0.000212799
0.000445705
0.000547066
-0.000744532
0.00176773
-0.00157026
-0.00157593
-0.00114979
0.00187363
0.000852083
-8.45278e-05
-0.00173661
0.000176484
0.000274844
-0.00144882
-1.18732e-05
0.00118585
0.001335
0.000351588
0.0018088
-0.00158399
-0.000594355
0.000369549
-0.00133912
0.00132917
0.00108383
-0.00107388
0.00101465
0.000503068
-0.00115185
-0.000365866
0.000508509
-0.00111704
0.000927756
-0.00031922
0.00139176
-0.00114098
-0.00181298
0.00156221
0.00145934
-0.00162443
8.05562e-05
-0.000901034
0.000905043
-4.00968e-06
0.000112619
-0.000102097
0.0015107
-0.00180489
0.00170267
-0.00140849
0.00111973
-0.00100711
0.00113741
-0.00122996
-3.75949e-05
0.000130141
-2.44458e-05
-0.000519487
0.000543933
-0.00012357
-0.00103691
0.00124385
-8.33632e-05
0.00191013
-0.00171911
0.00013579
-0.000326805
0.000204294
-0.00226694
0.000184036
0.00169608
-0.001736
-0.000187507
0.000227437
0.000371554
0.000279054
0.000461247
-0.00111185
-0.000100997
0.000948679
0.000923882
-0.00177156
-8.0459e-05
-0.00117135
-0.000325272
0.00157708
-0.000570289
0.00170889
-0.000464652
-0.000673946
-0.00106833
0.000453076
0.00168499
0.00104577
-0.00211863
0.000232263
0.000840592
-0.000305326
7.13928e-05
0.00193001
0.000313063
0.00142705
-0.00048862
-0.00125149
-5.20495e-05
5.4108e-05
-0.0012387
0.00123664
0.00185861
0.00010445
-1.30837e-05
-0.00194998
0.00103638
0.000454104
-0.000412055
-0.00107843
-0.00112278
-0.000479896
0.000534346
9.1915e-05
0.000648198
-0.000657841
-8.2272e-05
0.000189503
1.6349e-05
-0.0014475
0.00100858
-0.000527311
-0.000136939
-0.000344335
0.000148166
0.000701587
-9.81238e-05
-0.000751629
-0.00112208
0.000962903
0.00120495
0.000743303
-0.00323127
0.000629969
0.001858
0.000176844
-2.97964e-05
3.3005e-05
0.00127206
-0.00127527
0.00220462
-0.000708036
-0.000732177
-0.000764402
-0.00107579
1.36482e-05
0.0014779
-0.000415761
-0.000136315
-0.00103833
0.00125232
-7.76752e-05
0.00104301
-0.00142212
-0.000694701
0.0010738
-0.000986776
0.000958631
2.81445e-05
-2.94684e-05
0.00095237
-0.000922901
-0.000466135
-0.00109054
-0.000402455
0.00195913
-0.000810434
0.000906197
-9.57631e-05
-0.000152963
-0.00132768
-0.000334601
0.00181524
-0.0023432
0.000863879
-0.00127881
0.00275814
-0.0016039
3.71389e-05
0.00156676
0.000757877
0.000839145
-0.000810992
-0.000786031
0.000976152
-0.00055923
-0.000184669
-0.000232254
0.00130381
2.84819e-05
-0.00133229
0.00124571
-0.00372526
0.000136345
0.000845559
-3.13742e-05
-0.000814185
-0.00144439
-0.000573061
0.00194083
7.66202e-05
-0.000876886
0.00452867
-0.00277262
-0.000879165
-0.00263805
0.00317647
-0.000465197
-7.32258e-05
0.00157683
-0.000909171
0.00219146
-0.000771842
-0.00168096
0.0024829
-3.00969e-05
-4.84616e-06
-0.000121763
-0.000680354
0.000806963
0.00148792
0.00190715
-0.00216845
-0.00122662
-0.00152934
0.00180811
0.000496259
-0.000775027
0.00169575
-0.000310938
-0.000663193
-0.000721621
0.000144898
-0.00108544
-0.000188125
0.00112866
-0.00322221
9.97298e-05
0.00164919
0.00147329
-0.000591308
0.00225045
-0.000872463
-0.000786675
0.000382041
-0.000937506
0.0017866
-0.00123113
-0.000193156
-0.000553011
0.00104584
-0.000299674
-0.000918764
0.000977613
-6.24395e-05
3.59022e-06
0.00160064
-0.00180676
-8.67068e-05
0.000292829
-4.87328e-05
-0.0015958
0.00160843
3.60979e-05
0.0001304
-0.000116272
-0.00152642
0.00151229
0.0022087
-0.000362551
9.40442e-05
-0.0019402
-0.00145324
-0.000305386
0.000372918
0.00138571
0.000491615
-0.000491629
1.42724e-08
0.0010893
-0.000741141
0.000726798
0.000226321
0.00208679
-0.000124771
-0.00218834
-0.000332986
0.000223869
0.000277735
-0.000168618
-0.00162886
-0.00202537
0.002928
-0.00115807
0.00132611
0.00126298
-0.00143103
-6.48471e-05
0.0012921
-0.00163004
0.000402792
-0.00123953
-0.00129808
-8.23624e-05
-0.000334369
0.00171481
-7.02342e-06
-0.000660541
0.000667565
-7.59254e-06
-0.000952227
0.00221978
-0.00125996
0.000650557
0.000916161
0.00163415
-0.000818793
7.64177e-05
-0.000891771
0.000717863
-0.000199442
-0.00119857
0.000680146
0.000901555
4.29014e-05
-0.00137383
0.000429371
-0.000648989
0.000537513
0.00203442
-0.00192295
0.00174325
0.00124582
0.000163172
-0.00315224
-0.00155846
-9.83752e-05
0.000315744
0.00134109
-0.00130656
0.00139169
-8.51243e-05
-9.1126e-05
0.000865386
-0.000129785
-0.000644475
-0.00026796
0.000551179
-0.000283219
0.00109023
0.00154931
-0.000695646
-0.00194389
0.000933109
-0.000934101
9.92931e-07
-0.00264369
0.000617082
0.0014772
0.000549406
0.000107165
-4.72248e-05
0.00128426
-0.0013442
0.000822258
3.41726e-06
-0.000825675
0.0016888
-0.00187529
-0.00120429
0.00139078
-0.00148672
-0.00287191
0.00171495
-0.000290455
0.000187616
0.00119564
-0.0010928
-0.000512318
0.00155844
-0.000164331
-0.00088179
0.000320287
-0.000846606
0.00124418
0.000973891
4.67345e-05
-0.00102063
0.00289242
-0.00069937
0.000171903
-0.00236495
0.00109292
0.000312777
0.000699757
-0.00167179
0.000803471
0.000168562
-0.00175989
4.98368e-05
0.00131955
0.000390499
-0.000328158
-0.000723998
0.000767016
0.00028514
0.00103117
-0.00132781
0.000296637
-0.000365138
-0.000709917
0.00107506
0.000910561
-0.000589657
-0.00103369
0.000712782
-0.000390022
-0.000216992
0.00156007
-0.000953058
-0.00076634
-0.00122497
0.000947764
0.00104354
-0.00150503
0.00137422
-2.54773e-05
0.000156282
-8.78275e-06
-0.000928723
-0.00022501
-0.000820705
0.00103525
1.04657e-05
0.00157
-0.00147643
0.000428705
-0.000522273
0.00238293
-0.00237115
0.00108114
-0.000415472
0.000456072
-4.05997e-05
-0.000871006
0.000859699
1.13063e-05
-7.86972e-05
0.00109046
0.000372537
-0.0013843
-0.000691261
-0.00108919
-0.000429701
0.00221015
-0.000645519
-0.000496044
0.00224165
-0.00110009
0.00110986
0.000297607
-0.00148616
-0.000214394
0.00165446
-0.000752225
-0.00068784
0.000235177
-0.00109262
-0.000478885
0.00133633
-0.000304487
0.000187174
-0.00152328
0.0016406
0.00151747
-0.00109888
-0.000839835
-0.000626609
-0.000186889
0.00165333
0.000452689
-0.000229564
-0.000226667
3.54229e-06
-0.00177938
0.00207583
-0.000211446
-8.50049e-05
0.00058118
0.000641815
-0.000610879
-0.000612115
-0.000244575
0.00126859
2.66689e-05
-0.00105068
0.00141763
6.04607e-05
-0.00126686
-0.000211234
-0.000175119
-0.00174105
-0.000430987
0.00234716
-0.000150276
0.00125956
-0.00110929
0.00152476
0.00129505
-0.0017359
-0.00108391
0.00101104
8.00258e-07
-0.00101184
0.000111314
-0.00133188
-0.000333244
0.00155381
0.00238337
-0.000340059
-0.00112024
-0.000923071
3.39299e-05
0.00239627
-4.68279e-05
0.00117146
-0.00111949
-5.19729e-05
-0.000421886
-0.000821482
0.00124337
0.00217767
-0.000581112
-0.00136861
-0.00101852
-0.000995943
0.0016744
9.48128e-05
0.000402999
-0.00157214
0.00107433
5.65011e-05
-0.00135669
0.00084871
0.000451475
-6.63356e-06
0.00118251
6.85918e-06
-0.00118273
-0.00023026
-3.16455e-05
-0.00111782
-0.000294174
0.001412
-1.88814e-05
-0.000970269
0.00098915
0.00207625
0.000157727
-0.000133194
-0.00210078
0.000869586
-0.00161068
0.000388195
0.0003529
0.000548512
1.34401e-06
-0.000549856
-0.00158317
0.000258334
-6.39411e-05
0.00138878
0.000566977
4.18718e-05
0.00123645
-0.0018453
-0.000582832
0.000629051
-0.00174775
0.00170153
0.000174486
-0.000229342
-0.00163485
0.0016897
0.00116273
-0.00108621
-0.00249665
0.000284744
0.000736528
-0.000751325
-0.000762008
0.000776806
-0.000672317
0.000675194
-2.87707e-06
-0.00159847
-0.000564554
0.00239543
-0.000343267
-0.00148761
-0.00093159
-0.000283281
0.00126393
-4.90555e-05
0.000268455
0.00151826
-0.000581398
-0.00120532
-0.00300911
-0.00252846
0.000197113
0.00242342
-9.20675e-05
0.000179894
0.000129709
-0.00104271
0.000733105
0.00166674
-0.0015399
-0.00171992
0.00121511
0.000348059
-0.00156317
0.00173163
-0.000320181
-0.00123908
-0.000172369
-0.00103544
-5.73664e-05
-0.000699096
0.0017919
0.00170076
-0.00143864
-0.000506284
0.00024416
7.44779e-05
0.000527461
-0.00162486
0.00102292
5.26057e-06
0.000884649
0.000135543
-0.00102545
-0.000824981
0.00105043
0.000296725
-0.000522171
1.23392e-05
0.00145331
-1.14935e-05
-0.00145416
-0.00109796
0.0011103
-0.00102338
-2.28613e-06
0.00102567
-0.00167015
-0.000154196
0.000417854
0.0014065
0.00117466
-0.00114862
0.000687408
-0.000713442
0.000289879
0.00102039
-0.00110177
-0.000208498
-0.00141381
0.00206931
-0.000238196
-0.000417303
0.000823444
-0.000786861
-3.65823e-05
1.60549e-05
0.000652578
0.0017143
-0.00138145
0.00117765
0.000507084
-0.000303281
-0.000340573
0.000758879
-0.000418306
-3.5451e-05
0.00118655
-0.0011511
-0.00185959
0.000705342
0.000361749
0.000792495
-0.00333999
0.00243423
0.000921821
0.00247913
-0.00029643
-0.000424103
-0.0017586
0.000991696
0.000121627
0.000634621
-2.94359e-05
-0.000665033
5.98475e-05
0.000686736
-0.00053857
2.68035e-05
-0.00159543
0.00156863
-0.00275521
0.00197
-0.000875206
0.00211123
-0.00142883
0.000192813
0.00144122
-0.00194934
0.000602931
0.0011079
-0.00202365
0.000390123
0.000525621
-0.00102915
0.00123595
-0.000206804
0.0021474
0.000449574
-5.291e-06
-0.00259168
-0.00103154
0.00104046
-8.92229e-06
0.00280668
-0.00251559
0.000324641
0.00166339
-5.42855e-05
-0.0016091
0.00119367
-0.00121682
2.31563e-05
-0.00119338
0.000134077
0.0010593
-0.000459966
-0.00112921
0.000395804
-0.00244196