/*--------------------------------*- C++ -*----------------------------------*\
  =========                 |
  \\      /  F ield         | OpenFOAM: The Open Source CFD Toolbox
   \\    /   O peration     | Website:  https://openfoam.org
    \\  /    A nd           | Version:  10
     \\/     M anipulation  |
\*---------------------------------------------------------------------------*/
FoamFile
{
    format      ascii;
    class       volScalarField;
    location    "83";
    object      SgP;
}
// * * * * * * * * * * * * * * * * * * * * * * * * * * * * * * * * * * * * * //

dimensions      [1 -1 -3 -1 0 0 0];

internalField   nonuniform List<scalar> 
59698
(
0.00309481
0.00183544
0.00231268
0.00271397
1.14511e-06
0.00145199
0.00249697
1.07274e-07
1.98657e-09
3.91764e-09
0.000586479
1.80018e-09
1.58706e-09
0.00228616
2.74985e-08
4.26355e-07
9.40637e-09
3.81311e-09
1.64178e-09
5.98959e-10
0.000365468
1.56078e-06
0.000498765
8.81911e-08
2.00971e-07
1.19903e-09
1.17355e-09
0.00248158
0.0023936
2.10448e-09
1.35098e-07
0.000600669
6.67567e-08
0.00403581
1.11083e-06
3.78785e-09
0.000465522
5.06904e-07
1.73267e-08
0.00245346
2.97071e-08
2.30471e-07
2.31646e-08
2.46511e-08
0.000402108
1.0476e-07
2.66058e-09
4.8868e-08
0.00290851
3.14689e-08
2.96221e-10
2.3401e-09
0.00172823
0.00272939
0.00216789
2.05748e-09
8.45066e-08
1.56618e-08
1.76929e-08
2.73798e-05
0.00178295
6.27478e-08
1.98915e-07
1.55887e-09
4.98556e-07
4.16964e-08
1.75119e-09
3.24802e-09
4.19418e-09
6.77086e-09
6.44747e-07
2.78961e-08
0.00035954
1.76477e-06
0.000411948
1.11599e-06
2.15561e-08
2.21297e-08
6.40668e-09
9.72581e-09
4.80742e-07
9.85328e-10
4.05065e-09
8.02599e-09
1.70146e-05
3.1449e-08
9.14971e-09
2.22175e-07
2.35022e-06
2.32031e-08
4.51053e-09
6.35953e-08
1.739e-07
6.55681e-09
6.05238e-08
0.003591
1.36107e-07
6.19017e-08
4.92523e-08
8.59695e-10
0.00353761
2.07163e-05
2.95026e-07
0.00329226
5.37383e-08
0.000564778
2.33332e-09
2.32177e-09
2.67044e-09
4.4015e-10
3.68406e-08
2.63249e-06
1.3622e-06
1.56281e-07
9.7559e-08
3.45554e-08
3.491e-07
0.0035338
2.92516e-07
1.15324e-08
2.27751e-09
2.98195e-07
2.25338e-07
3.33743e-09
1.62072e-09
7.99353e-09
8.37883e-09
7.2066e-09
1.25591e-08
3.86441e-07
0.00335569
3.86412e-09
1.10542e-09
1.84618e-07
6.25363e-08
3.23435e-09
4.91664e-07
2.46109e-10
1.72075e-09
5.65235e-09
2.08287e-08
0.00231722
0.00252089
1.58519e-09
1.90726e-07
7.95104e-10
5.34999e-07
3.78901e-07
0.00448813
7.07815e-07
0.00025741
0.000434377
2.82013e-08
2.54866e-07
9.72684e-09
1.04527e-07
7.39996e-09
0.00162892
6.72306e-08
5.89049e-10
3.09156e-09
7.72283e-09
2.21796e-08
9.7242e-08
1.86579e-08
0.00222869
1.06507e-09
0.000567806
0.00152524
6.91691e-09
2.55453e-07
1.51364e-06
2.17103e-07
9.23104e-07
5.77562e-07
0.00121902
4.3896e-09
0.00139623
0.000326016
0.00293239
2.25345e-06
7.42984e-07
3.99455e-07
1.12257e-08
2.50484e-07
6.93116e-08
3.71422e-07
0.00238054
1.36812e-10
1.78536e-08
6.43804e-09
7.05347e-09
2.29648e-08
6.06699e-07
1.22004e-07
0.00416745
1.75187e-06
0.00294348
1.27736e-05
9.09563e-08
0.000227078
6.73817e-07
1.50649e-09
2.56224e-09
0.00356726
0.00244689
3.59238e-08
0.00205808
0.00270775
0.00350267
0.00242675
6.10768e-09
0.00262726
1.56856e-08
2.33735e-09
0.00336709
9.86436e-09
4.54672e-08
1.55087e-07
4.65361e-09
1.36913e-05
0.00217445
1.72814e-09
5.08822e-07
8.91229e-09
0.00274699
2.11098e-08
5.50024e-09
4.86088e-08
6.86157e-07
7.57874e-09
1.87104e-08
7.41809e-09
1.13383e-08
9.54926e-09
8.98012e-09
3.0617e-07
1.95561e-08
1.76571e-07
8.1892e-09
0.0026137
1.18938e-07
3.44957e-08
0.000664542
8.67782e-09
2.1535e-07
2.29815e-05
3.56691e-06
5.29016e-09
4.93719e-09
6.16822e-08
6.66578e-09
3.10022e-08
0.000233554
1.9269e-08
0.00169894
1.10021e-07
5.368e-08
0.00314716
2.8771e-09
7.76749e-06
1.80426e-09
7.83211e-09
0.00270863
0.00357797
8.55655e-07
1.08635e-09
1.06445e-07
1.9745e-08
6.05438e-10
3.11688e-09
1.53905e-06
6.91148e-05
6.62606e-10
1.25042e-07
5.01539e-08
0.00146581
3.98176e-08
2.95446e-09
1.22764e-09
0.000574135
1.79119e-09
1.65779e-09
4.70039e-07
0.00334991
1.01955e-07
5.2716e-09
0.000646967
3.82646e-07
1.00948e-07
2.76986e-06
0.00232502
9.2299e-09
1.34933e-09
7.03695e-07
0.00273232
4.71001e-10
1.52329e-07
1.45099e-08
6.43421e-07
3.07894e-09
2.25692e-09
6.86693e-08
5.76314e-10
1.09314e-09
1.14641e-09
3.62013e-07
2.19415e-08
5.34543e-09
5.33281e-10
0.0019012
4.11007e-08
3.86964e-09
2.37995e-08
0.00191499
5.40641e-09
0.00040339
8.30954e-09
0.000829308
8.51867e-08
9.53093e-08
2.77101e-07
1.67471e-08
2.9271e-09
1.87524e-06
2.56412e-07
1.60846e-08
8.70561e-09
4.36474e-10
0.000361922
0.00290002
4.02123e-08
3.5783e-07
2.41242e-06
0.000430954
1.03414e-08
7.76808e-09
4.28653e-09
1.39624e-07
0.00122094
2.13523e-08
0.00206212
0.00250597
4.94647e-09
9.98382e-08
1.36527e-09
2.61521e-10
1.24716e-06
1.34488e-09
0.00203386
9.25654e-10
1.34027e-08
1.235e-06
7.95184e-10
9.44147e-07
0.00191568
2.75731e-06
1.43896e-08
3.30973e-08
1.82515e-09
2.10032e-08
1.08552e-08
1.10554e-07
3.6005e-09
1.35519e-10
1.04127e-07
0.00279682
0.00201716
2.8218e-08
9.67252e-07
1.13255e-07
0.000533991
0.00366894
0.00065113
2.09593e-08
2.98332e-09
3.63147e-08
2.04551e-09
0.000460559
2.48725e-09
0.000347123
4.46266e-08
4.29411e-08
5.15477e-08
8.52002e-10
6.78293e-06
1.09276e-08
0.000544822
8.93425e-10
3.39129e-08
2.08822e-08
0.000457471
0.00330066
3.28585e-09
5.39276e-05
0.00179772
3.5871e-06
0.00182705
0.00269792
8.1536e-08
0.00243871
0.00236485
0.00257383
5.41518e-09
0.00148343
0.00417836
0.00383887
0.00276238
5.95541e-09
8.24833e-07
1.88268e-07
0.0004043
0.00163747
0.000434524
4.70404e-10
2.06254e-07
2.02832e-09
2.29249e-06
0.00189711
0.00175703
0.002922
0.00218233
0.00249158
0.00166303
7.81196e-09
2.03497e-09
7.90469e-09
1.70613e-08
0.00138454
5.74427e-10
7.7986e-09
0.00195974
0.0011656
2.34755e-08
3.69503e-08
1.42364e-08
1.39835e-08
0.00126179
3.33203e-09
0.00211835
1.92326e-07
0.00321066
5.11719e-09
4.39807e-08
1.86295e-07
2.0317e-06
8.59959e-08
4.50426e-10
2.12087e-09
1.28887e-07
0.00254332
6.63789e-09
7.32715e-08
1.96936e-06
6.13261e-07
1.15019e-07
3.39367e-07
1.41086e-09
1.15151e-06
1.65003e-07
6.10519e-08
4.61655e-09
0.00320869
6.54132e-09
2.20078e-09
2.02653e-07
3.50621e-07
9.28948e-09
4.45245e-08
6.17788e-09
0.00247473
4.40684e-09
2.06013e-10
6.87372e-09
6.31806e-08
2.03123e-06
8.16704e-07
2.1979e-09
0.00300903
0.00194629
2.34267e-08
2.20374e-07
1.59324e-08
1.89902e-08
2.52469e-07
4.11938e-08
4.44904e-08
1.96728e-08
1.57644e-09
1.64957e-09
2.50264e-07
4.09772e-07
3.90343e-10
4.2327e-08
0.00402083
2.12708e-07
1.53855e-08
0.00236661
3.72103e-08
0.000365618
9.71584e-10
1.18286e-07
2.03745e-07
1.21079e-08
1.7112e-08
1.12162e-09
8.17132e-08
2.17352e-09
5.27323e-09
8.26556e-09
5.75853e-09
7.82432e-09
1.3593e-06
5.41926e-08
1.60552e-08
2.68544e-09
6.88634e-09
9.88166e-09
7.04635e-08
2.48323e-08
1.71843e-08
3.47389e-09
5.06698e-09
3.84552e-09
2.18359e-09
6.32211e-06
3.30101e-08
2.80604e-09
0.00339751
0.0037081
2.89961e-09
0.00384286
1.82757e-08
5.47295e-09
0.00145125
3.54727e-10
1.35534e-08
0.00178837
1.87555e-09
0.000384873
4.29846e-08
2.57421e-09
4.50345e-08
3.00261e-06
1.48334e-08
5.19106e-09
8.92426e-06
0.000167073
1.87323e-08
7.49413e-06
1.83046e-08
2.28503e-09
3.08208e-08
1.91486e-09
5.0998e-09
1.46274e-08
1.91812e-08
1.62069e-08
2.57913e-09
2.23398e-09
0.000768504
1.7455e-09
1.65355e-08
1.02892e-05
1.51083e-08
1.81193e-09
1.21983e-06
2.2605e-08
8.5751e-09
0.000539255
7.77798e-10
7.59263e-09
1.95666e-07
1.57254e-09
4.4173e-08
1.30661e-09
3.20546e-10
4.32019e-10
0.00200345
2.31097e-09
0.000732637
3.91811e-08
0.00320721
1.49901e-08
3.27582e-09
0.000313358
1.14399e-09
1.36659e-08
1.78202e-08
1.64117e-08
1.98649e-09
0.00316741
8.11205e-09
1.6772e-08
8.53042e-10
4.13289e-08
9.2865e-07
0.00264848
0.000349776
7.19962e-09
7.94086e-09
1.65678e-09
2.88654e-09
0.00337488
1.35288e-08
4.4235e-09
2.51935e-09
0.00108749
0.00385605
1.5344e-08
1.26248e-08
1.56427e-09
1.14434e-08
4.29439e-09
4.12155e-09
5.15902e-09
4.91245e-09
3.62257e-08
7.83616e-05
7.31465e-09
5.04786e-09
7.86919e-09
1.82314e-08
2.52781e-05
0.00241928
1.0988e-08
0.00266351
1.63075e-09
8.77726e-09
4.3268e-09
0.00269466
0.000211222
9.56375e-10
8.41282e-09
7.06637e-10
2.86075e-08
6.32888e-09
2.85568e-09
0.0015155
0.00323675
1.29257e-07
1.62744e-07
0.000607879
1.45122e-09
5.15285e-09
1.60021e-09
4.12502e-07
0.00210691
3.38218e-08
1.77753e-09
0.00043948
7.67777e-09
3.18168e-08
3.33057e-09
2.38248e-09
4.36057e-09
9.3439e-10
7.69958e-06
1.02025e-09
0.00182039
5.06214e-08
1.1204e-07
6.79132e-09
1.56942e-06
3.5031e-06
5.38376e-09
2.07609e-08
0.00230811
0.00311019
7.34329e-08
3.8554e-09
7.58442e-07
1.56679e-09
0.00343742
3.13082e-10
1.9573e-08
0.000428464
0.00255405
4.44194e-09
1.59719e-09
1.96489e-07
5.89821e-07
3.53429e-07
0.0003781
0.00139637
1.12561e-10
6.59565e-09
7.72305e-10
4.63937e-09
0.0027746
2.71651e-08
0.00302903
1.01023e-08
0.00131534
0.00209607
0.00236438
6.18001e-08
4.11198e-09
0.00065063
1.279e-09
2.37815e-10
9.33123e-10
4.35419e-09
1.81568e-08
4.52574e-09
1.49515e-09
9.21997e-08
6.73111e-08
7.60743e-09
2.73106e-09
0.00186396
4.18061e-08
3.52061e-08
0.000362147
9.55869e-09
3.46511e-08
3.82301e-08
1.9373e-09
1.38474e-09
0.000646939
0.00196325
0.0024149
3.8612e-09
1.11419e-08
6.54435e-09
1.63366e-07
0.00194583
1.34505e-09
5.67944e-07
2.58843e-08
1.32001e-05
0.000344566
0.00169856
2.2502e-07
1.48137e-07
2.22953e-08
0.0043084
0.000532163
1.89444e-08
8.84044e-07
3.5236e-09
6.81688e-08
3.45459e-06
0.00231959
2.45005e-08
1.20666e-07
1.00194e-07
1.5939e-05
2.49361e-08
0.00185648
2.48321e-09
5.17094e-08
1.16177e-08
0.00212996
7.21807e-10
6.60706e-09
2.05921e-07
4.44426e-06
0.000599779
1.0927e-07
6.99501e-08
0.000383644
4.15711e-08
2.54858e-09
0.00190612
0.00219663
5.48369e-09
7.55477e-09
0.000401553
1.02357e-08
1.73732e-08
0.000373922
3.4902e-10
0.00265404
2.54709e-09
1.93391e-08
1.81593e-07
3.99871e-09
3.94847e-08
3.59384e-08
4.9788e-05
3.75084e-09
6.10123e-09
7.09891e-09
1.17394e-08
9.70658e-08
1.52622e-08
0.000326092
7.12451e-09
2.05635e-08
0.00140032
5.73694e-08
9.85855e-08
8.3878e-06
0.00187028
2.37215e-06
0.000541593
6.93429e-09
0.000383103
1.59212e-08
4.21192e-09
1.62478e-09
0.00314076
3.78411e-07
3.24461e-08
7.11959e-05
6.44059e-08
0.00157968
1.69798e-07
9.83891e-06
3.51008e-09
0.00100438
3.15936e-09
0.00130399
5.36451e-05
2.4426e-07
0.000651794
0.00179453
1.22431e-06
1.11361e-05
4.09841e-09
1.12648e-06
2.51761e-08
4.09013e-05
0.000444759
0.000428771
0.00211177
3.52487e-08
3.17435e-08
0.000561237
4.50615e-08
0.00227712
6.91216e-10
0.000401155
2.27255e-09
2.6644e-09
2.94073e-05
0.000503634
0.000206236
0.000108613
7.69643e-09
5.088e-09
1.96696e-09
0.000487319
1.9808e-09
0.00350806
0.00473714
2.4689e-09
0.000499714
2.0646e-09
9.73459e-10
2.93741e-09
3.24095e-06
0.000469622
2.92236e-09
1.30975e-09
1.05636e-06
4.42798e-09
1.12214e-07
3.79843e-09
2.98166e-09
8.80907e-08
2.63816e-07
3.11262e-08
1.04157e-08
0.000532567
8.09173e-10
0.000127618
2.68195e-10
2.46313e-09
0.00124247
1.4876e-09
7.76068e-06
8.9823e-08
7.42005e-09
0.000108824
1.2512e-08
0.00157162
2.72506e-08
4.60937e-10
0.00174582
5.66478e-09
1.13423e-08
0.00030713
1.24841e-09
0.00205967
1.69272e-08
1.41768e-09
0.00422989
3.06045e-09
5.19358e-09
1.49232e-08
1.64794e-08
0.000319935
8.27968e-09
5.54688e-09
1.65063e-07
0.00180907
0.000633467
0.000584028
2.24326e-08
1.774e-09
0.000379941
0.00237002
6.88588e-09
8.57534e-09
5.57124e-08
1.16317e-08
2.86196e-09
2.54618e-08
0.000412246
0.00144847
0.00262297
1.49199e-07
2.03838e-09
0.00267084
0.00400967
0.00520955
5.053e-08
1.80739e-08
1.54259e-07
4.38617e-07
1.80763e-08
2.90183e-08
7.8625e-07
2.81203e-08
7.51478e-09
8.15899e-09
1.35505e-06
7.23096e-08
7.38462e-09
0.00254232
1.63632e-09
6.01787e-08
1.87694e-08
2.82286e-08
6.50037e-09
3.8194e-10
0.000761133
1.88189e-08
3.11553e-09
0.00193674
1.91512e-08
2.39244e-08
0.00316677
2.91e-08
3.3434e-07
5.68927e-09
2.00044e-08
2.43413e-08
0.000826035
3.05468e-08
0.00220048
1.82796e-07
1.98651e-07
3.67692e-08
0.00533113
0.000294937
4.58213e-09
5.46062e-09
9.9214e-07
1.44919e-09
1.12291e-08
8.51515e-09
0.0016735
1.16986e-09
2.29401e-09
8.18171e-09
2.47386e-09
3.57553e-08
2.37384e-08
7.53948e-09
0.000429216
0.00219282
0.000466221
6.29971e-08
0.00314134
0.00256349
5.57332e-08
1.7576e-09
0.00183296
6.44533e-06
0.00154623
0.00208227
0.00203137
3.32766e-09
5.88549e-08
0.00237844
1.96255e-07
3.30497e-08
1.87697e-07
2.64488e-08
0.000443688
2.08367e-08
0.000538421
1.68789e-05
2.57474e-08
0.00196171
2.00241e-08
0.000608722
6.86755e-09
1.77263e-08
1.19248e-09
3.99777e-08
0.00153624
0.00364919
1.2825e-09
0.000395618
0.00188713
0.00135366
0.00278183
5.64558e-10
1.01126e-08
1.17573e-09
0.00355416
7.74845e-10
1.29632e-07
0.0035595
5.32337e-09
0.00346991
0.0035159
0.00366744
1.55906e-08
5.72312e-08
4.63924e-08
8.78605e-09
1.11241e-08
6.14027e-08
1.26746e-08
5.11222e-09
0.000475251
4.1108e-09
3.71521e-08
2.75981e-07
5.30273e-10
0.00162322
2.92282e-08
4.60534e-09
6.6602e-08
2.68881e-10
7.00743e-08
3.92e-09
2.0347e-07
0.00306604
3.14827e-05
8.92791e-10
1.56303e-08
0.00210092
0.00314936
1.7827e-07
0.000760287
1.00392e-08
7.75221e-09
0.00257383
2.21236e-08
0.00322073
0.000542246
1.04731e-09
7.40804e-08
0.000765802
1.7175e-08
2.51617e-08
0.00250166
6.35217e-09
1.36344e-08
3.12384e-09
0.000534599
3.15939e-06
0.00193131
1.80488e-07
9.38884e-09
0.00175021
1.27218e-07
2.5693e-10
5.95614e-06
2.18822e-09
7.22849e-07
0.00129386
2.77628e-09
9.47355e-10
1.13709e-08
5.93999e-09
1.54744e-08
5.872e-09
1.26384e-08
1.00024e-06
9.46489e-10
1.24782e-09
0.00169854
4.65485e-09
5.43791e-06
2.94173e-08
5.91115e-06
1.33047e-06
1.17164e-06
5.34475e-06
1.26006e-06
5.35692e-09
1.65741e-08
0.00100307
3.50978e-06
2.48004e-08
2.24691e-08
2.49128e-08
0.00044909
1.36978e-06
7.86221e-08
2.28843e-07
3.47156e-09
0.00226264
4.69494e-09
1.22653e-08
2.08755e-08
1.18602e-08
2.9924e-08
0.00212565
5.58251e-08
2.40641e-08
1.86784e-08
4.77737e-09
0.000477735
2.27547e-09
5.17507e-09
3.34665e-08
2.54352e-10
1.42197e-09
6.1668e-09
9.35806e-09
1.37636e-08
0.000332971
1.14171e-08
1.31699e-08
2.50254e-09
2.01092e-08
1.24471e-08
1.01353e-08
5.84739e-08
0.000380629
0.00242475
1.54315e-08
7.87065e-09
0.00284484
1.65473e-09
4.31429e-05
0.00203047
4.96179e-09
7.1293e-07
1.53061e-06
0.00186534
2.19552e-08
3.19252e-08
2.1751e-07
1.74282e-05
8.67768e-07
2.16816e-07
1.40077e-09
3.72878e-09
4.27102e-07
1.09155e-07
5.94115e-09
1.55776e-09
1.28191e-08
7.55671e-09
3.04135e-06
0.00129412
6.41675e-08
3.5688e-08
5.10318e-08
0.00264635
0.0024463
9.18429e-07
1.51372e-08
3.27966e-08
4.01537e-08
4.4732e-09
2.89621e-09
1.81486e-07
4.22382e-09
3.45797e-08
2.0203e-09
1.26359e-08
2.26772e-08
3.30305e-09
4.12647e-07
2.80071e-09
0.00043443
9.50537e-08
0.00394807
0.001652
1.1241e-07
2.15209e-08
0.000579701
0.000345167
2.78006e-08
2.34315e-08
9.23002e-06
2.28097e-09
1.88022e-09
2.35098e-08
1.73331e-08
0.000781455
0.000646967
9.56605e-09
1.18356e-08
7.74403e-09
3.33333e-07
5.04991e-08
0.0026707
0.000496426
1.36027e-08
0.000238785
7.02141e-09
0.000315444
0.00022778
0.000223593
2.81568e-08
1.06142e-07
1.77098e-09
1.01034e-07
2.54201e-08
0.00240347
4.88915e-09
4.14061e-08
6.93695e-09
7.69913e-08
2.2922e-05
0.00194482
0.00227797
2.19529e-08
2.97391e-08
0.000377612
3.99524e-08
1.04074e-06
1.04178e-08
0.00304784
4.06192e-08
2.25822e-08
8.5271e-06
0.00262301
6.86086e-08
2.28005e-08
0.00131289
2.01703e-08
4.65492e-10
1.39939e-09
4.45852e-09
3.1609e-08
1.32813e-08
6.36506e-10
2.21936e-08
3.73097e-08
1.14055e-08
6.06419e-08
1.83356e-08
5.51871e-07
0.00191138
2.82944e-09
1.57268e-08
5.6356e-08
0.00200083
8.7034e-07
2.0181e-08
0.000373998
2.8798e-09
2.25162e-07
1.46483e-07
0.000983775
3.58441e-07
3.20578e-10
1.22004e-07
1.40147e-08
1.22681e-07
5.07445e-08
2.82521e-09
1.49747e-07
6.88449e-09
8.69583e-08
8.01993e-10
0.00058427
5.04569e-08
0.00207399
1.30425e-09
6.33212e-08
2.15488e-06
1.0725e-08
6.06964e-06
4.81051e-09
6.8201e-10
2.46962e-07
4.18288e-08
4.85085e-09
1.73326e-05
6.10866e-08
7.41991e-08
0.000547244
2.99748e-09
0.000563699
3.16236e-08
2.26499e-09
7.76592e-09
5.79285e-09
1.98334e-08
3.90221e-07
3.13478e-07
1.49984e-07
0.00237872
2.13483e-07
0.00393231
0.00209537
0.00329166
8.49905e-08
2.30331e-07
0.00143526
3.84453e-09
2.48885e-08
2.98006e-08
0.0023698
9.81999e-09
0.000635584
0.000492209
2.7718e-09
0.00262588
5.07643e-06
0.00263987
1.89124e-08
0.00249647
5.59723e-08
0.000340176
1.61639e-09
3.90428e-09
4.26702e-08
0.000746797
7.74639e-07
4.1738e-10
2.69457e-08
6.33706e-10
0.000532957
0.000313632
5.69758e-08
0.00190932
4.56281e-07
0.000544634
3.19491e-08
5.58982e-10
6.37062e-09
2.59978e-09
8.95097e-08
2.04123e-05
5.69029e-09
1.3297e-06
4.44454e-08
4.22062e-08
4.66008e-09
9.87698e-05
2.24361e-07
1.87028e-09
6.43413e-09
0.00043245
1.08151e-06
7.70565e-08
0.00152079
1.75948e-06
1.4938e-06
7.41813e-09
8.58661e-09
3.91851e-09
0.000681831
2.68609e-08
5.44604e-09
1.50464e-08
3.63345e-07
9.93973e-07
2.06574e-07
1.82215e-09
3.18708e-06
6.7268e-07
7.5475e-09
5.97442e-09
5.51094e-06
2.51678e-09
5.08276e-09
0.0023871
0.00220925
6.16734e-08
4.50387e-09
1.14905e-09
3.33894e-08
0.00192948
2.57027e-07
1.38363e-06
5.53082e-10
5.50907e-07
3.25981e-08
0.00112014
0.000444878
6.80963e-07
2.38861e-08
3.48947e-06
5.70759e-07
0.000100638
2.23844e-09
1.83061e-08
0.00118816
2.55073e-08
7.82992e-07
5.8931e-07
2.0272e-06
1.22185e-06
1.16934e-08
0.00162275
1.31027e-05
2.47079e-09
1.21239e-08
4.70461e-09
0.000427671
0.000113404
1.89905e-08
0.000637652
1.21501e-07
7.25921e-05
0.00282728
0.000398954
0.00281979
0.00183706
0.00221777
4.54554e-10
2.78388e-06
8.38521e-08
3.45476e-06
1.4873e-05
2.21404e-06
2.01572e-09
3.97836e-07
1.46783e-08
3.2023e-07
0.000761567
2.85879e-07
8.80956e-10
0.00178415
1.39305e-07
0.000207822
1.83564e-07
4.1113e-07
4.74677e-09
3.87674e-07
2.12139e-07
0.00151225
2.09696e-07
3.5635e-08
1.50039e-07
2.60295e-05
0.00129737
0.00131388
0.00294017
4.86653e-09
0.000502805
0.00149669
0.00175308
0.00149456
2.35003e-07
0.0021739
2.68438e-07
4.717e-09
5.38232e-09
6.22747e-09
0.0014715
0.00176858
5.60561e-09
1.46265e-08
8.40404e-09
4.07986e-07
0.000298096
0.00368265
0.00135431
8.20302e-08
0.00247914
8.75698e-10
3.62528e-08
0.00108917
0.000804584
5.34574e-09
2.76173e-06
1.21675e-08
6.34007e-09
0.0035197
6.35965e-09
0.000423274
1.17754e-09
0.000378709
0.000405405
0.000581333
0.00190923
3.24674e-07
0.00161661
1.26885e-08
1.17577e-05
0.000460544
0.00124704
0.00220788
0.00109666
7.53498e-09
0.00124443
8.99514e-09
1.59762e-08
0.00292767
1.64008e-07
6.57166e-06
5.67525e-08
5.18669e-08
0.00057341
1.4358e-06
3.28655e-09
1.49706e-07
4.36382e-07
0.000403291
0.00219851
2.72901e-07
7.60919e-09
0.000614704
1.87056e-08
1.56529e-08
5.10963e-08
6.04405e-07
0.00214118
3.69176e-09
0.00241676
8.37864e-10
0.000256109
0.004336
8.69378e-09
3.03006e-06
0.00242902
4.98494e-05
5.18788e-06
2.46886e-09
0.00178008
0.0027788
5.18067e-10
0.000489099
8.56697e-07
0.000618779
1.49063e-08
8.48365e-07
5.11758e-07
3.52502e-08
7.67671e-11
0.000345786
0.0013141
6.43053e-09
1.19212e-09
0.00218206
1.11159e-08
2.20227e-09
3.73914e-08
1.87493e-09
7.87408e-08
0.00354114
0.00209382
2.65372e-08
5.47657e-10
0.00221211
1.98928e-07
0.00270359
2.79874e-09
1.91211e-06
4.58591e-08
7.43551e-09
2.74994e-09
1.07126e-08
0.00333592
5.0518e-09
2.80053e-07
0.000274723
0.00237605
0.000453082
1.37656e-08
1.17634e-06
2.56564e-09
0.000229028
0.00228075
8.56205e-10
3.76635e-09
3.97982e-08
3.31062e-08
0.000502525
2.61911e-07
0.000529731
1.92201e-07
6.63836e-09
5.88415e-11
4.97968e-08
0.000221027
0.000394063
5.42728e-09
0.00384294
0.00245681
9.2165e-09
3.1123e-10
3.83811e-09
7.3464e-09
3.79911e-09
1.53606e-08
0.00275374
0.000620076
0.000514079
7.76081e-05
0.000348236
0.000381681
2.76085e-09
4.26953e-08
1.50375e-09
3.05423e-08
1.8874e-08
0.00234576
1.07339e-08
4.94188e-09
0.00111862
1.90234e-08
7.63821e-08
8.78666e-08
1.65567e-09
8.46307e-08
3.48205e-08
0.00219891
5.20896e-09
1.44043e-08
4.19677e-09
1.58428e-08
2.11283e-08
0.00375557
4.52846e-07
1.12318e-07
7.31875e-08
1.06145e-09
4.53701e-05
1.03588e-06
3.18179e-09
5.76503e-07
1.25295e-05
1.01777e-08
1.12586e-08
1.03805e-05
1.80254e-06
2.49584e-07
0.00304127
3.8669e-09
3.9731e-07
1.39611e-06
0.00282688
2.24845e-07
4.34954e-10
1.92286e-06
1.68956e-05
3.44024e-07
1.00441e-08
1.69724e-07
4.57429e-08
6.62069e-08
2.00065e-08
3.31393e-08
0.00186221
2.1644e-09
1.18106e-08
1.11164e-08
6.98585e-10
4.61208e-09
9.49174e-10
0.00421486
1.24814e-07
1.95414e-09
3.30543e-09
3.1339e-09
1.08634e-09
5.08891e-08
5.1558e-09
2.85106e-09
5.40235e-08
1.33639e-08
0.0022095
3.07062e-09
0.000384442
3.53931e-08
1.16803e-07
1.78451e-08
1.21005e-06
1.01656e-09
0.00315759
9.46638e-09
0.00178976
2.96456e-07
4.0187e-08
1.35123e-08
1.83374e-06
2.75071e-09
3.6192e-09
2.93742e-09
0.000259183
0.000626662
0.0021366
1.00333e-07
1.58883e-07
0.0022796
1.7236e-06
3.36039e-09
1.37553e-08
2.87308e-07
1.03291e-08
0.0041199
2.80327e-06
0.00307947
2.56601e-08
7.65594e-09
0.00158952
0.00144431
0.00174765
1.6614e-08
1.47561e-06
0.00186866
1.67274e-09
1.23166e-05
1.51511e-07
0.0017748
0.0004593
1.8099e-07
0.00230818
2.04598e-05
6.21999e-07
0.0020538
0.00216972
1.91394e-08
0.00237784
0.00300986
0.00180864
2.49328e-08
4.38591e-09
6.08857e-09
7.47072e-10
2.8536e-09
0.0016298
0.00275205
0.00182466
2.63833e-09
0.00303278
2.7429e-09
0.00228125
0.00249138
5.76825e-09
3.66321e-08
0.0016539
2.45871e-08
1.3072e-08
3.23757e-07
4.44253e-10
0.00256049
0.00199027
8.28184e-07
0.00163454
4.10111e-09
3.03918e-09
7.1036e-09
3.31192e-08
6.71154e-08
3.13236e-07
1.22319e-09
5.55677e-09
1.41972e-08
8.11285e-09
6.19476e-09
1.04405e-07
3.72199e-10
2.29851e-08
2.10971e-06
1.15456e-08
3.44014e-08
2.76085e-09
1.20437e-07
1.56317e-09
5.14595e-09
2.22639e-07
1.56363e-09
3.06785e-09
0.00188088
3.49379e-08
5.17477e-09
6.52792e-07
3.12825e-09
1.47281e-08
4.78327e-08
0.00185746
9.31952e-08
0.00220812
0.00148589
1.74328e-08
2.06972e-08
5.74148e-08
6.56115e-09
0.00157706
4.94202e-08
2.25422e-07
3.67382e-07
2.90491e-08
0.00235742
0.00149676
1.88201e-09
3.13348e-09
7.00573e-09
6.37806e-08
5.91828e-08
7.42289e-09
4.16199e-07
5.31308e-09
1.48801e-06
2.49507e-09
1.53715e-09
6.30823e-09
1.55493e-08
2.33182e-07
7.86343e-09
1.89687e-08
0.00429575
0.00144844
0.00257014
0.00155372
1.48571e-06
1.21294e-08
0.0020132
6.94266e-07
6.72779e-09
0.000410059
1.3198e-09
1.44701e-07
0.00235103
4.41117e-08
1.2469e-07
2.30281e-08
4.28374e-08
0.00140002
8.19992e-09
9.64513e-10
2.03715e-07
2.59589e-09
4.68545e-07
5.9632e-06
6.69875e-08
0.00211098
4.18204e-08
0.000460601
2.67063e-07
0.00209895
3.86511e-10
5.00993e-09
2.68149e-07
3.90912e-09
0.00183881
3.83375e-07
0.000518352
1.49306e-07
1.83767e-07
1.33808e-07
2.65676e-08
8.50916e-09
4.98723e-08
3.01135e-06
4.02619e-08
2.59319e-06
0.00324759
5.3074e-08
0.00421545
5.6565e-09
2.47367e-09
4.5539e-06
0.00186432
1.40839e-08
1.34027e-09
9.01606e-07
5.66311e-08
3.38008e-08
0.0023395
1.34635e-08
6.13968e-07
0.00262088
1.35879e-09
8.61516e-09
4.18163e-07
9.69174e-10
8.19532e-09
0.00253089
5.31317e-09
0.00276769
2.31567e-08
2.15561e-07
3.94914e-08
0.000894208
6.03827e-08
2.78223e-08
1.48718e-07
0.00253484
1.58885e-06
1.25968e-08
9.25224e-09
1.24254e-07
0.00207308
3.46785e-09
5.1959e-08
6.31022e-08
1.60057e-06
0.00252799
0.000270012
0.00119113
1.73817e-08
0.000358102
1.32001e-08
8.99726e-07
0.000789747
1.15638e-08
0.000880973
3.27737e-06
4.85845e-09
2.64829e-09
1.20595e-08
0.0025335
1.51243e-08
2.42777e-09
2.5983e-07
1.12481e-08
5.65311e-09
0.000301464
2.71086e-09
4.46706e-08
0.00242964
1.26679e-06
4.51091e-09
0.00203795
3.25903e-06
6.49126e-09
1.38087e-08
1.20268e-05
4.30895e-08
2.22793e-07
1.67708e-08
4.14598e-08
6.07735e-08
4.75506e-06
0.00109748
4.84161e-08
0.0024824
1.50696e-08
3.79629e-08
0.00271653
3.0819e-08
7.83791e-08
9.56994e-09
1.29827e-07
0.00237012
2.98581e-08
2.12524e-08
0.00163523
5.79409e-09
0.00266886
1.40373e-09
7.92135e-09
1.0423e-09
8.41952e-09
0.00151678
5.38534e-08
1.41074e-09
2.5848e-09
1.4287e-08
5.28925e-08
0.00255056
4.7663e-09
4.59969e-09
1.89145e-09
1.54655e-07
5.28807e-06
5.03786e-09
0.00156974
3.51319e-08
1.08313e-08
6.28905e-09
5.12533e-08
0.000429643
6.49624e-07
1.62221e-10
1.00386e-09
0.00182631
0.00217009
6.14684e-08
3.92611e-09
0.00183563
1.64425e-08
9.07219e-10
0.00356058
9.12615e-09
0.00275314
2.92314e-07
1.76632e-08
2.01832e-08
9.77371e-09
9.54631e-09
4.3913e-09
3.05475e-05
7.45618e-07
2.27254e-09
4.0255e-08
5.55078e-08
5.32718e-09
0.00257876
8.70514e-09
1.33301e-08
0.00197407
2.63319e-08
3.58991e-08
3.02797e-10
0.00228709
2.83449e-08
1.34017e-07
3.27539e-09
3.70083e-08
4.05011e-09
0.0023376
5.9249e-09
7.03333e-09
0.000617605
1.07438e-08
7.11558e-09
0.00233156
6.56845e-08
3.86631e-10
3.14455e-08
5.92848e-09
0.00188367
4.42157e-07
6.0593e-08
3.47373e-09
4.01805e-07
1.41995e-07
8.67597e-09
1.34177e-09
1.03268e-09
3.40657e-08
1.05445e-08
8.3477e-10
7.74453e-09
7.34416e-09
1.12655e-08
0.00231616
6.96502e-07
1.47699e-08
2.04998e-09
9.40363e-10
0.00219975
1.94583e-08
0.003278
9.38074e-07
0.00158579
7.44582e-10
0.00215251
0.00292638
8.54735e-09
9.43229e-09
8.97304e-08
0.00210516
0.00251637
3.06878e-07
7.55422e-09
2.49509e-07
1.05082e-09
2.20097e-07
8.63695e-09
9.42103e-08
1.67034e-08
1.46535e-09
3.87206e-09
8.52446e-10
6.20786e-09
9.04528e-09
3.79046e-09
5.07976e-09
1.52151e-08
9.02363e-08
3.23465e-11
3.37262e-09
7.42381e-10
5.66607e-09
1.51305e-09
1.74586e-07
0.00189959
0.00279693
4.5132e-09
0.00222571
1.40073e-08
3.07082e-09
4.48542e-09
1.64387e-06
1.79559e-07
7.18852e-08
9.9445e-10
1.10435e-08
2.14382e-09
7.93934e-09
1.59957e-09
1.28036e-08
1.41425e-07
0.00158849
2.44554e-09
2.11957e-08
0.00140345
0.00178427
0.00219803
0.00206355
0.00176512
4.65825e-08
3.77814e-08
2.88935e-09
7.79022e-09
7.59753e-09
1.34113e-06
3.93588e-09
2.92307e-08
3.41128e-08
7.18806e-09
2.22604e-09
2.65009e-09
7.4347e-07
3.15502e-06
3.98449e-07
6.0154e-09
1.67807e-09
3.20068e-09
0.00284254
2.53438e-09
0.00185272
1.0774e-07
8.78265e-09
7.52649e-07
0.00105424
6.75633e-08
4.00935e-10
3.81053e-09
3.20568e-08
1.50435e-09
2.3734e-08
8.25653e-10
0.0011041
3.37122e-10
4.18278e-08
0.00284541
2.96904e-09
0.00133037
5.86712e-08
0.00216661
9.86194e-08
0.0012197
3.54805e-10
0.00289544
0.00232085
2.75364e-08
3.99966e-09
0.0015837
1.965e-08
0.00186932
1.69524e-08
7.80112e-09
5.07215e-10
1.68096e-08
2.04491e-08
1.50348e-08
6.36798e-07
0.00292259
0.00166186
1.22727e-06
3.73527e-09
3.4595e-07
0.00305625
0.00136148
0.0023658
0.00234397
5.32656e-09
6.11218e-08
2.7375e-08
1.25983e-08
0.00303577
6.52673e-09
0.00148775
0.00321498
5.43466e-09
3.1135e-09
0.00160517
0.00302782
2.82971e-08
9.11847e-10
0.00169036
9.05453e-08
2.57554e-09
4.66633e-07
9.71623e-08
0.000406584
7.14124e-08
5.67949e-08
2.47547e-07
2.69592e-07
9.07405e-08
3.87955e-09
4.80493e-09
1.06325e-08
2.02837e-09
2.06216e-08
8.67147e-09
1.88418e-10
2.18546e-09
0.00200653
0.00284307
3.41796e-10
2.54396e-08
6.63864e-09
2.78755e-09
4.80897e-07
1.94854e-08
2.36697e-09
0.00270667
0.00150582
0.00144868
0.00162326
4.89902e-08
0.00136287
2.54996e-07
0.00376688
7.31488e-10
0.00227615
2.72104e-08
3.67451e-08
1.55377e-07
6.13812e-10
0.00294101
1.85594e-07
0.00423664
5.92095e-09
9.38912e-10
9.01687e-09
8.96846e-09
0.00133977
0.00286833
1.39412e-10
3.44715e-09
2.43902e-08
0.00167431
3.80912e-09
0.00280313
3.40396e-07
1.91666e-09
5.71158e-09
0.00241517
3.50606e-08
0.00213605
8.20342e-08
0.00382999
0.00319961
7.75629e-08
3.69288e-09
0.00352897
8.60889e-09
8.51279e-07
0.000344637
1.56271e-08
1.40975e-07
2.29212e-08
8.85146e-09
0.00300983
3.93797e-09
7.37873e-08
3.89934e-10
7.03806e-08
4.32504e-09
5.32682e-09
1.51688e-08
9.93783e-09
1.71227e-08
0.00294981
2.13648e-08
2.76222e-08
4.69267e-09
1.43067e-08
8.90504e-09
9.43743e-09
1.16647e-08
0.00217424
8.64827e-09
0.0029368
0.00189449
4.90886e-09
0.000360672
2.94755e-09
3.30861e-09
2.62228e-08
3.47685e-08
3.04593e-08
0.00152605
0.00202696
1.10319e-07
1.0669e-07
8.3213e-08
0.00305486
0.00110992
4.81125e-08
0.00216268
0.00439078
1.24747e-06
0.00259046
0.000410464
6.41306e-09
7.82083e-07
2.51631e-08
0.000563894
6.81477e-10
0.00252477
3.30454e-10
2.31363e-09
0.000636579
0.000341712
1.91655e-08
0.00046044
4.26048e-08
1.04515e-07
2.57935e-08
2.68815e-09
3.93937e-07
2.85885e-09
4.82347e-09
0.00243075
1.32383e-08
1.38784e-08
4.35515e-09
1.22012e-07
1.65222e-09
4.57411e-05
2.96218e-08
2.03014e-08
7.99925e-08
1.64107e-07
0.000297091
0.00227214
4.17942e-08
6.91282e-09
0.00236629
0.00234087
3.70392e-08
2.2857e-08
1.22928e-08
3.15146e-09
3.05779e-08
1.10221e-08
0.00200153
0.00433475
6.1104e-09
2.04813e-09
3.87263e-09
6.02651e-09
0.00246893
0.000394483
1.7288e-09
1.80985e-08
1.53339e-08
0.00211919
1.05279e-05
1.0925e-06
0.00194319
2.49338e-08
2.50544e-08
4.80642e-09
4.12133e-08
2.52582e-08
0.00220495
5.28472e-08
0.000310633
5.51949e-09
6.26548e-09
0.00320551
0.0026027
7.55642e-09
0.0030698
1.07672e-09
1.4709e-09
4.53254e-07
4.97909e-09
3.57568e-09
0.00179268
2.66941e-08
1.23997e-07
0.00385131
1.22328e-08
0.0015507
0.00300652
1.55904e-08
0.00319282
1.44081e-08
1.27668e-08
1.78748e-08
1.87128e-07
9.89717e-09
4.63624e-08
6.00045e-09
2.4784e-08
4.78528e-07
1.95668e-08
0.00232323
6.40138e-09
0.00301325
8.5338e-10
1.14901e-08
5.37713e-09
0.00230989
8.4372e-09
0.00223804
0.00192352
0.00309695
1.5718e-08
0.00209386
1.44767e-07
2.14302e-08
3.17236e-09
7.91149e-09
1.2713e-08
7.6337e-08
1.4215e-07
2.84743e-07
3.42995e-09
0.00282189
3.18821e-08
1.17519e-09
9.26549e-10
4.4975e-09
7.06108e-10
0.00200404
3.60928e-08
0.0029424
2.69924e-08
0.000624971
3.59725e-09
3.64379e-09
0.00176862
0.00346468
6.65959e-08
3.72169e-09
0.00375562
1.56838e-08
1.02302e-09
3.32556e-09
1.32647e-08
6.4023e-10
1.37652e-08
1.46069e-09
1.41035e-08
2.8498e-09
5.93794e-08
2.70226e-08
0.00246206
5.4926e-07
1.02537e-07
1.1221e-08
4.64046e-09
0.00208839
1.39729e-08
0.00298221
4.13599e-08
2.80496e-08
6.6587e-09
6.23164e-09
7.95879e-08
7.42409e-07
0.00129734
0.00121776
7.99078e-09
0.00369088
2.41787e-08
0.002769
9.03281e-09
1.3914e-08
2.94656e-09
0.00259956
0.00127754
0.000427455
4.47632e-08
2.03187e-09
0.00128971
5.28816e-09
3.33554e-09
8.9797e-09
5.34022e-09
0.00237149
0.00202098
1.78777e-08
3.15141e-08
5.15939e-08
3.89158e-09
3.24133e-06
1.80972e-06
6.2189e-09
2.43944e-08
0.00157766
8.80506e-09
3.11672e-08
1.09225e-09
2.99965e-08
4.45911e-09
0.00226816
4.55663e-09