/*--------------------------------*- C++ -*----------------------------------*\
  =========                 |
  \\      /  F ield         | OpenFOAM: The Open Source CFD Toolbox
   \\    /   O peration     | Website:  https://openfoam.org
    \\  /    A nd           | Version:  10
     \\/     M anipulation  |
\*---------------------------------------------------------------------------*/
FoamFile
{
    format      ascii;
    class       volScalarField;
    location    "51";
    object      T;
}
// * * * * * * * * * * * * * * * * * * * * * * * * * * * * * * * * * * * * * //

dimensions      [0 0 0 1 0 0 0];

internalField   nonuniform List<scalar> 
59698
(
286.612
283.15
283.718
283.15
299.954
283.15
292.537
283.15
303.15
303.15
303.15
284.354
283.15
293.232
300.134
303.15
294.064
283.979
284.01
293.798
303.281
302.129
303.148
303.15
295.671
283.894
292.829
298.353
295.691
295.355
300.292
303.15
303.15
298.836
302.366
283.918
283.381
283.465
283.15
297.547
296.229
283.15
296.57
293.849
283.15
296.598
284.003
295.265
294.65
285.227
293.062
283.906
289.976
294.539
294.381
283.925
294.282
302.176
294.241
282.977
291.247
294.299
299.624
283.9
286.789
294.46
303.15
284.065
284.192
303.15
283.15
293.78
283.135
298.534
283.15
297.777
294.539
287.694
291.645
294.138
299.954
292.579
303.15
284.225
303.699
294.506
294.183
283.15
298.875
293.876
303.15
294.739
298.978
290.158
290.868
291.069
299.055
283.15
298.903
283.15
299.104
283.13
285.911
284.501
283.167
283.15
283.998
283.163
303.15
283.15
283.17
283.168
298.86
283.15
283.15
283.15
283.15
283.15
283.15
303.15
283.15
292.838
283.15
283.15
283.15
283.15
295.476
303.15
283.15
283.15
287.516
283.15
303.15
292.764
290.225
291.659
283.15
303.15
284.008
293.462
284.345
290.936
290.847
292.132
283.15
293.579
283.15
283.15
283.15
301.182
283.138
303.15
288.083
283.15
294.055
293.369
283.899
283.15
296.963
283.15
289.676
283.15
290.768
299.55
297.819
296.698
283.974
280.911
299.359
292.193
300.385
283.151
300.951
301.017
285.53
292.81
303.15
283.238
303.15
298.94
302.764
300.415
298.645
283.15
298.708
300.854
300.766
293.857
283.15
294.717
294.357
292.909
296.595
297.458
299.39
283.195
293.928
296.583
303.155
299.387
283.15
284.143
292.443
292.727
299.297
290.943
297.34
295.414
293.59
298.038
292.523
293.707
299.129
303.15
294.871
283.15
283.15
294.06
297.843
296.022
282.056
296.329
283.205
299.288
295.274
299.341
295.828
291.349
295.655
284.999
283.15
296.157
295.171
295.831
283.15
294.814
295.99
293.713
283.15
295.002
283.15
293.983
289.948
303.15
294.637
283.15
282.929
285.599
293.629
284.043
293.828
294.939
295.145
303.15
283.952
294.75
294.12
295.303
283.492
283.15
303.12
283.15
294.455
294.34
294.822
295.35
283.198
303.15
284.23
283.15
283.864
286.651
303.101
283.15
287.328
293.708
283.15
293.633
293.969
303.15
303.15
283.15
284.102
289.071
295.141
290.687
292.951
303.15
286.02
294.61
301.409
291.288
284.148
283.911
294.889
283.15
292.717
293.626
295.1
283.164
291.441
283.15
283.15
292.536
284.195
284.264
287.824
293.652
294.629
284.218
283.15
283.15
283.151
283.15
293.361
292.672
283.15
293.724
283.15
293.585
293.871
293.387
293.998
303.15
298.315
286.249
294.104
293.711
292.429
283.15
300.183
290.666
298.884
281.57
303.15
293.797
293
292.552
298.462
293.85
295.122
295.547
283.368
294.98
298.954
283.15
295.599
301.431
292.823
289.167
292.818
283.15
301.354
303.15
284.206
300.744
302.088
283.15
286.105
303.15
283.15
293.846
303.15
295.004
283.15
283.15
283.725
290.47
283.485
282.754
292.674
283.15
283.15
283.15
296.428
303.15
283.511
283.15
283.15
303.15
283.15
283.226
283.6
293.514
283.552
283.148
293.491
283.15
283.15
283.665
293.814
303.15
294.609
290.736
303.133
301.991
301.759
283.15
283.166
283.167
288.506
295.719
283.167
283.15
283.15
283.15
295.96
293.29
295.675
302.253
297.897
303.15
295.281
303.15
283.15
289.824
283.15
283.574
302.298
302.832
294.383
283.15
290.792
282.005
283.15
283.15
303.15
294.393
283.15
283.15
295.498
302.786
285.301
291.842
287.573
303.15
303.15
298.656
283.15
291.931
283.15
292.184
303.15
284.364
283.15
302.913
294.848
283.15
284.001
299.206
283.165
284.04
294.103
286.322
294.007
284.214
290.647
303.15
284.305
283.15
290.062
283.15
283.962
293.935
303.15
293.569
293.406
291.9
294.111
294.982
295.103
283.15
283.15
283.15
294.05
293.141
302.758
292.12
293.703
294.021
283.15
293.598
287.982
283.15
300.933
288.31
288.223
287.957
291.94
292.864
299.045
290.501
291.363
288.539
292.102
288.347
283.151
288.283
289.59
283.15
283.15
295.191
299.059
294.679
283.15
303.15
283.15
303.15
283.15
290.286
294.705
290.689
283.149
283.15
291.637
283.15
283.15
283.15
283.15
283.15
289.562
293.963
283.15
283.15
283.15
302.995
294.946
283.644
289.838
288.751
283.15
301.437
303.15
286.495
283.151
283.15
283.15
286.364
286.574
303.15
290.002
285.974
283.15
281.271
289.378
291.831
282.236
283.132
290.84
283.147
283.15
303.15
283.15
303.15
283.194
283.15
283.15
295.583
291.514
291.836
283.15
303.15
283.15
283.123
283.15
303.15
286.364
283.15
291.211
303.15
292.077
284.125
283.15
291.905
290.96
293.528
283.15
292.277
295.526
303.15
283.15
283.151
285.258
283.789
292.368
283.15
292.431
283.867
289.727
291.651
291.959
296.415
283.943
283.839
283.15
283.15
303.15
282.781
283.15
283.15
290.933
290.972
283.15
283.15
291.041
291.615
283.85
283.15
291.075
283.15
283.15
292.538
283.15
292.114
291.114
291.146
283.15
297.859
285.629
283.15
283.15
291.153
291.921
302.961
295.262
293.734
290.927
292.228
292.019
292.078
295.602
283.15
284.053
291.362
284.092
292.148
292.081
283.15
283.15
286.965
293.493
291.867
283.15
303.15
292.039
294.054
283.163
293.718
284.234
283.15
283.15
284.134
288.562
291.777
291.998
283.877
283.15
303.147
293.607
292.39
293.665
293.389
290.989
283.802
301.818
291.64
292.222
292.257
291.802
288.919
283.15
293.394
283.882
293.388
283.81
291.68
283.15
295.323
293.226
283.913
292.429
293.369
283.15
283.15
291.899
283.15
291.9
284.076
291.994
295.738
290.8
297.153
293.961
291.728
290.814
293.526
293.534
292.59
283.15
284.129
283.15
283.15
292.548
291.772
284.313
303.15
296.517
283.15
292.093
283.15
293.67
283.15
293.754
283.15
283.15
297.638
289.346
283.15
303.15
283.15
297.884
297.945
283.15
292.059
295.604
297.226
295.57
283.15
296.234
283.15
282.863
283.15
290.525
300.332
283.15
291.121
292.808
303.15
297.634
287.94
283.418
293.706
283.272
297.043
294.592
294.531
283.597
283.449
292.442
286.006
283.15
296.878
293.743
298.09
283.15
292.89
290.275
295.038
303.15
283.15
296.902
283.15
298.222
295.934
291.816
293.863
296.74
283.15
283.15
294.935
294.574
283.15
283.15
291.513
283.15
289.447
283.15
291.136
294.537
294.556
297.428
283.15
293.701
290.46
294.88
295.29
295.322
283.15
284.362
298.84
283.15
288.635
297.673
301.039
293.494
302.768
283.15
283.15
283.15
288.78
288.24
283.15
284.365
283.15
298.049
283.164
292.524
291.713
283.15
282.349
283.15
283.15
284.195
283.15
303.103
298.5
303.15
284.08
284.571
288.591
283.951
282.178
283.15
283.228
283.15
283.15
291.278
294.726
296.698
283.15
295.797
283.179
283.187
283.15
283.189
283.192
283.162
283.15
283.132
283.173
303.15
283.15
283.15
283.15
283.15
291.194
283.15
291.044
283.15
294.638
283.151
283.15
285.395
283.15
283.151
283.15
299.43
295.185
291.976
283.785
283.15
295.902
303.15
295.884
283.15
283.15
292.601
283.149
283.925
283.15
292.047
283.15
284.114
283.15
290.386
283.15
284.332
291.775
294.917
292.69
291.905
283.15
292.104
283.15
283.15
283.15
284.043
283.15
286.647
283.15
294.323
296.325
296.01
283.15
294.116
295.072
283.15
296.75
303.15
283.15
295.897
292.365
283.15
283.15
293.416
283.15
295.893
283.15
283.15
293.593
283.15
283.15
283.15
283.15
303.15
283.15
283.15
283.15
295.912
297.651
294
296.698
290.216
294.987
295.628
283.896
291.429
290.737
286.605
292.118
283.15
289.768
283.15
296.569
295.756
291.921
290.298
283.15
283.15
297.546
291.279
290.053
296.146
296.761
283.15
295.391
285.344
294.01
283.996
283.15
283.15
293.377
287.366
293.239
283.15
284.129
283.15
303.15
283.799
287.32
294.489
303.15
286.54
296.663
294.181
293.519
293.858
294.465
295.686
292.889
303.15
303.15
283.15
295.554
283.15
293.569
291.462
302.71
298.559
289.38
295.018
302.159
297.858
294.938
295.855
293.725
283.15
295.695
293.882
290.638
287.753
294.113
283.15
283.15
303.15
283.168
294.722
300.395
294.708
303.15
303.15
287.462
293.394
294.908
292.728
283.15
292.607
283.15
293.737
283.15
298.384
283.15
294.562
295.255
302.804
293.003
293.701
302.799
283.15
283.15
302.808
283.15
294.551
295.192
296.444
295.363
295.992
295.231
283.15
292.906
303.15
295.487
296.536
293.254
283.15
293.21
297.702
283.726
293.627
283.15
295.357
283.878
287.748
294.507
290.898
283.705
303.15
293.568
288.105
283.15
303.15
294.042
294.207
295.989
294.324
289.338
303.15
303.15
293.101
283.15
295.02
294.442
294.313
294.427
293.948
303.15
303.15
284.1
294.316
295.139
303.15
294.076
296.129
303.15
282.448
292.911
283.569
291.985
294.356
284.092
283.15
294.105
303.15
293.774
291.732
283.15
284.041
283.15
283.15
294.39
301.053
303.15
297.232
302.913
291.475
301.664
287.111
291.094
295.28
297.728
297.1
289.461
289.148
284.003
283.15
288.115
292.436
303.15
283.981
300.977
284.096
294.508
294.32
294.938
283.15
302.391
289.603
294.812
294.646
292.524
283.15
303.15
284.141
286.77
283.15
292.946
292.986
294.664
284.201
304.94
284.151
295.044
283.15
295.302
284.332
287.084
294.942
303.15
283.15
283.15
283.15
290.193
283.15
300.812
301.124
283.15
295.893
299.148
302.603
293.683
283.946
283.15
302.577
287.717
300.266
291.919
292.141
295.94
295.794
295.389
293.305
295.256
303.15
286.068
298.863
295.793
288.403
288.315
297.242
287.985
298.992
293.77
283.15
293.664
293.569
303.15
293.36
303.15
292.583
283.895
294.041
292.086
283.739
285.4
283.767
303.15
294.483
291.964
288.949
292.441
293.368
303.15
303.15
293.553
293.425
283.15
303.15
283.865
292.889
294.142
283.15
303.15
292.82
283.15
283.15
283.15
285.237
283.376
283.15
284.98
303.15
283.15
283.15
303.143
303.15
297.275
290.561
284.011
297.354
296.697
292.318
303.15
283.15
283.15
296.903
282.326
296.649
283.15
303.15
283.15
303.15
296.777
284.588
283.15
291.184
297.601
293.495
302.76
297.494
295.758
297.46
291.399
297.622
283.15
283.15
297.492
297.424
294.316
303.15
283.15
291.911
293.735
293.663
294.079
294.36
294.157
283.893
291.255
283.15
300.615
285.596
297.027
303.023
283.903
303.15
294.744
283.15
299.959
303.15
303.15
293.497
283.15
300.656
284.315
283.15
303.15
292.054
284.2
303.15
293.492
291.791
284.19
293.665
302.959
303.15
297.473
293.751
283.15
289.041
292.018
283.15
283.097
303.15
283.15
303.15
283.15
303.15
283.15
297.885
297.78
296.965
297.556
294.279
283.15
286.808
287.808
283.15
292.021
298.049
294.836
296.66
283.15
301.15
283.15
303.15
283.15
297.002
296.295
303.15
303.15
283.15
288.942
287.357
294.312
289.219
289.606
303.15
303.15
283.15
292.116
287.787
303.15
299.769
303.15
287.569
303.15
303.15
303.15
291.703
290.746
299.278
303.15
292.603
292.929
303.15
291.922
287.297
282.682
293.72
283.732
295.847
291.702
292.136
283.313
293.655
292.231
303.15
303.15
285.196
288.647
292.721
283.578
283.284
283.15
289.884
290.346
283.15
295.28
291.71
294.634
287.694
285.206
293.938
303.15
292.207
284.059
290.956
293.993
300.929
291.981
292.381
284.355
284.064
298.103
292.208
283.15
283.15
283.9
286.789
283.761
292.355
284.864
292.868
284.224
303.15
294.037
290.559
288.483
292.612
303.112
303.15
283.15
284.408
294.78
300.623
284.977
285.111
298.432
294.549
284.945
282.314
294.005
303.15
287.371
283.15
283.13
285.152
303.15
297.591
283.151
283.15
303.15
284.927
300.029
303.15
283.15
289.225
295.137
296.5
297.82
283.513
303.15
285.245
291.856
283.15
283.15
293.918
283.15
303.125
283.15
303.15
294.353
283.15
292.608
283.15
283.15
283.15
300.118
298.993
285.917
283.138
299.318
283.15
299.425
303.15
283.15
283.15
296.283
285.77
292.943
286.005
288.097
293.753
293.564
283.15
283.15
283.15
296.75
303.15
293.693
283.15
303.15
288.561
283.15
283.15
288.2
303.15
296.124
283.15
303.15
296.849
302.676
290.221
292.506
286.91
288.126
303.15
283.15
303.15
283.15
283.15
294.161
283.15
283.14
291.905
283.208
303.15
288.3
288.775
287.965
294.29
288.257
294.9
289.064
286.218
303.15
287.428
291.779
292.993
303.15
300.563
292.907
289.597
303.228
303.15
299.151
283.15
290.46
303.15
283.15
290.51
283.15
297.733
297.133
290.166
295.024
303.15
303.15
290.27
290.294
283.932
295.154
283.154
283.575
303.15
283.797
290.225
303.15
283.15
283.004
283.15
290.351
299.837
303.15
290.325
303.15
303.15
283.677
293.603
283.15
283.149
303.15
293.269
292.424
303.15
303.15
291.361
283.127
290.958
303.15
283.139
293.46
290.99
290.991
300.714
283.15
290.994
303.15
294.704
294.214
303.15
303.15
303.15
292.524
283.15
291.125
291.877
303.15
283.14
291.298
303.15
303.15
303.15
292.417
283.15
293.58
283.15
293.786
291.63
283.15
296.144
303.15
283.15
291.55
291.431
291.412
294.061
283.15
293.466
291.775
291.82
293.854
283.14
283.15
303.15
283.15
283.15
283.15
283.15
303.15
293.615
294.219
303.15
285.304
293.661
293.206
283.15
292.946
285.412
297.216
283.15
296.721
295.917
292.535
293.471
283.15
292.192
292.28
293.477
292.186
298.957
293.637
287.267
283.15
304.956
284.032
292.337
300.335
283.134
293.486
291.731
303.15
294.39
296.51
295.25
292.611
301.433
296.23
292.186
298.932
293.102
302.825
297.69
300.384
292.303
285.25
294.209
289.322
294.341
295.908
297.48
292.75
296.645
283.15
283.15
294.762
292.411
283.143
299.573
283.317
288.103
292.371
283.15
297.881
293.733
283.15
293.603
292.507
283.15
295.052
283.15
293.101
298.4
286.287
300.327
292.877
294.441
286.669
293.605
298.43
291.694
290.052
284.617
293.488
289.102
293.366
283.15
303.15
292.511
297.148
298.043
301.572
283.455
292.507
283.15
283.554
288.392
288.146
303.151
291.673
283.203
284.825
283.139
283.881
284.053
283.15
301.992
293.899
283.197
303.187
293.7
283.15
283.15
299.012
283.197
302.105
302.829
294.66
283.182
283.153
292.054
283.15
283.151
293.536
283.15
283.15
283.155
295.159
302.942
293.04
288.18
283.15
298.902
293.011
283.158
283.15
292.341
292.066
283.15
295.254
283.184
302.925
293.272
283.151
291.266
298.251
302.943
283.255
292.699
292.74
298.525
294.066
294.318
288.185
289.742
283.15
294.463
289.061
294.119
283.15
289.315
302.813
283.15
293.35
289.443
293.383
283.15
294.021
299.711
283.15
294.614
292.219
283.15
283.15
293.137
283.15
295.055
287.186
298.586
299.532
289.31
283.15
283.15
294.789
295.992
293.173
283.15
283.15
298.676
285.529
283.151
283.15
283.15
283.15
283.15
296.224
287.99
296.561
283.15
292.864
283.15
299.58
303.15
293.42
283.15
292.991
296.975
283.179
299.695
283.15
283.15
283.15
283.15
299.656
293.625
283.15
301.303
292.078
283.15
293.158
294.34
292.003
289.329
293.415
303.15
294.293
301.44
283.15
283.15
283.15
283.15
283.15
301.373
287.262
290.357
292.986
283.15
283.231
295.975
283.15
283.15
298.925
291.966
290.405
290.571
283.15
303.15
298.535
293.43
294.385
295.699
295.01
301.378
293.37
301.196
295.297
292.985
292.1
303.15
293.498
300.07
295.453
295.689
291.918
302.832
286.646
295.631
293.861
292.382
296.219
295.423
283.15
291.141
292.628
295.761
294.1
283.15
293.356
283.186
296.435
296.083
295.184
296.198
294.293
295.8
294.783
283.15
291.981
295.618
295.82
296.787
300.268
297.339
297.455
297.952
301.236
283.15
303.146
283.149
290.484
283.15
286.165
301.794
303.552
295.267
303.01
303.129
291.146
283.15
292.099
283.171
290.828
283.15
300.602
283.15
291.097
303.15
283.15
293.491
283.15
301.066
295.242
283.15
302.011
294.058
289.215
302.271
286.672
295.424
291.735
292.613
294.627
300.549
302.959
293.229
289.82
289.042
294.067
295.288
294.648
295.879
283.15
283.15
284.25
294.208
294.247
295.807
291.135
283.15
283.15
293.772
292.861
283.15
290.95
294.094
292.896
292.178
283.15
293.398
294.699
283.15
283.15
293.554
286.561
302.172
291.963
299.926
296.661
294.704
283.15
295.978
303.15
283.15
283.15
283.15
295.298
296.774
295.479
294.311
298.708
288.435
283.15
283.142
283.314
291.344
291.611
283.15
283.15
292.667
283.15
296.161
297.928
300.887
295.604
294.843
283.15
283.15
293.841
295.387
293.747
295.51
294.702
289.671
293.417
295.689
300.953
296.725
283.15
303.15
292.576
295.695
293.366
294.689
283.15
293.533
290.902
286.406
290.631
283.15
293.494
293.469
292.933
291.189
295.196
283.15
295.381
290.84
292.43
293.595
283.15
293.5
292.263
293.738
293.388
295.097
295.179
283.15
283.15
295.48
283.15
283.15
296.652
296.179
283.184
297.939
283.15
293.911
283.15
293.694
293.668
292.311
296.018
293.077
296.422
295.426
294.961
299.986
292.908
296.177
295.107
296.779
295.664
293.658
292.868
283.15
283.15
283.15
292.887
303.15
294.006
289.362
283.15
283.15
292.517
283.15
283.15
299.284
283.15
283.15
293.547
289.209
283.15
292.617
283.15
300.855
286.342
287.369
293.274
293.893
293.729
283.15
294.224
283.15
283.15
283.15
291.721
295.923
283.15
283.15
283.15
284.192
288.497
292.32
294.619
283.15
283.155
303.15
283.15
293.614
293.773
293.252
292.014
283.15
283.157
283.15
303.15
287.157
291.365
293.438
283.155
283.171
292.015
283.15
291.373
290.5
283.15
283.15
294.584
293.427
291.66
294.163
293.516
291.603
283.155
283.154
283.156
303.15
283.411
283.453
283.154
290.629
283.471
295.833
293.201
292.072
285.201
292.975
289.286
295.58
291.021
293.908
302.024
294.38
293.608
283.15
294.237
293.216
296.875
293.814
300.489
291.965
301.25
292.648
297.621
283.583
294.61
283.15
292.841
283.15
293.896
295.041
292.922
283.15
293.358
283.875
283.15
292.153
283.15
283.15
283.15
283.15
286.965
292.068
299.35
293.969
293.879
283.15
283.15
291.123
292.776
294.357
294.573
294.044
291.645
292.201
293.619
292.323
294.093
289.774
291.849
292.18
292.135
283.15
283.15
293.603
290.946
286.499
302.665
290.505
292.672
296.8
284.865
285.565
293.403
298.647
303.388
296.196
291.208
283.559
290.227
298.425
292.606
290.083
292.797
293.939
286.381
285.958
283.15
286.42
283.429
283.15
294.026
283.15
288.742
287.551
293.555
293.056
294.723
294.95
283.15
292.254
292.246
293.064
291.072
284.642
283.15
292.049
291.125
283.15
287.541
283.15
283.15
303.15
303.15
290.76
292.033
295.681
293.267
285.21
287.592
297.006
289.446
291.967
287.08
286.907
291.255
290.81
290.747
290.875
291.044
286.891
292.532
295.4
295.464
288.209
294.527
294.509
287.246
290.865
303.243
283.15
303.15
283.15
291.766
290.875
296.089
290.991
283.15
291.019
292.603
291.159
294.38
294.512
283.15
303.15
282.89
292.69
301.981
284.041
303.15
283.275
300.871
294.273
283.15
291.747
293.05
292.881
283.15
303.15
303.15
293.309
283.15
296.679
283.15
295.556
294.341
294.944
293.898
292.589
296.771
283.15
283.15
300.786
303.15
303.15
297.794
293.857
294.848
294.729
283.15
283.15
300.973
292.102
283.15
291.233
291.802
303.15
283.15
291.349
283.15
291.013
292.678
300.84
292.669
292.662
292.65
294.424
292.199
292.678
283.15
292.165
293.716
292.681
296.682
301.947
302.713
293.557
295.794
293.64
293.21
291.447
292.103
300.58
293.042
283.15
291.82
290.47
290.345
290.517
291.798
290.475
283.15
303.15
297.122
283.15
292.502
295.104
291.546
297.94
283.146
283.209
283.673
283.15
293.466
283.15
283.15
283.15
283.15
292.185
294.934
303.15
295.688
284.939
292.891
297.803
298.037
293.773
292.09
283.15
298.079
283.15
296.156
283.15
292.436
298.682
292.773
294.559
298.116
294.14
296.561
293.841
283.15
283.15
297.007
283.15
283.15
291.94
292.563
293.074
292.672
283.151
291.936
291.521
291.253
286.101
295.876
292.068
283.15
292.534
283.15
291.864
299.658
291.872
294.102
286.315
291.133
290.726
292.065
293.854
292.798
283.15
292.373
283.15
292.746
283.15
283.15
290.845
283.15
296.814
292.617
296.332
294.102
295.962
297.506
295.566
287.429
297.25
294.004
295.384
291.624
294.175
297.508
284.97
292.612
283.15
291.879
290.559
294.816
283.15
293.841
284.733
283.15
290.115
292.473
284.632
283.15
287.785
284.872
292.306
283.15
284.472
283.15
295.595
298.737
284.859
302.765
301.086
303.15
293.799
294.231
293.399
295.413
293.444
295.141
293.732
293.677
292.107
302.514
283.15
298.123
290.015
294.411
292.774
300.313
283.15
288.35
300.869
287.184
290.684
290.298
283.15
283.117
291.994
289.952
282.401
293.562
283.15
291.341
296.777
292.315
284.922
291.401
302.405
292.656
292.303
297.399
303.183
283.15
291.647
294.842
290.952
292.734
283.15
283.15
284.314
293.24
294.576
293.103
293.177
291.426
293.445
293.837
283.15
283.53
283.15
300.293
293.147
283.15
283.15
294.65
300.452
290.229
283.15
283.15
298.926
283.15
291.857
283.15
283.222
283.15
297.231
293.222
285.061
297.046
283.144
291.994
292.088
298.6
283.633
292.453
290.665
284.203
283.15
283.149
292.386
293.221
282.639
291.901
292.1
292.441
303.151
293.613
283.15
293.659
286.005
293.094
292.388
292.098
297.335
286.006
283.742
293.36
284.419
283.286
293.181
285.418
293.805
292.314
284.347
293.85
283.15
289.462
297.385
287.131
291.299
291.973
285.445
295.71
283.15
296.345
293.143
283.15
293.331
296.767
292.718
303.15
287.457
294.978
285.617
293.849
285.81
292.047
296.631
287.98
293.035
303.15
286.262
292.079
288.222
285.272
285.174
290.774
285.461
288.537
291.911
294.508
295.595
284.822
289.245
294.608
294
293.04
294.636
293.01
293.07
293.929
288.537
299.553
288.962
288.383
287.413
292.961
286.461
302.407
291.909
295.185
292.957
283.15
294.836
291.014
291.253
285.351
283.15
295.86
283.15
292.503
291.784
293.165
283.15
283.15
302.584
296.431
286.897
293.386
293.619
294.45
293.921
303.102
283.15
292.354
283.15
294.409
292.472
292.768
283.15
292.134
284.079
299.069
291.818
293.567
291.559
293.921
290.921
293.926
300.07
292.616
299.6
291.841
299.154
299.187
302.336
302.085
299.494
299.689
299.54
289.067
293.381
292.464
291.828
292.884
288.849
293.572
294.171
290.627
292.547
285.594
292.291
292.813
291.579
289.994
293.515
291.232
301.037
293.605
299.974
301.473
289.117
283.15
292.786
291.981
290.299
299.052
290.778
292.413
293.636
292.126
283.15
292.03
292.1
293.185
293.887
283.15
292.122
290.843
292.781
290.853
292.18
293.902
293.118
292.826
292.129
297.39
293.436
291.745
283.316
283.505
292.188
295.933
283.15
292.869
286.064
292.133
284.481
290.961
283.164
292.852
293.01
301.896
302.259
294.632
293.482
301.115
304.619
292.214
302.212
302.156
283.15
292.452
283.15
291.859
302.349
294.176
283.15
283.15
302.346
283.152
283.359
291.333
291.063
283.15
294.119
283.15
303.081
283.15
296.164
289.255
288.102
288.275
288.357
293.107
288.364
290.509
288.235
293.141
283.15
283.15
294.124
293.049
299.251
283.17
283.174
283.15
287.064
301.442
283.15
301.093
291.191
300.513
283.15
301.532
283.15
298.679
283.15
290.923
290.455
296.675
298.684
297.844
294.205
283.15
293.572
300.214
283.15
291.798
298.932
283.15
283.151
283.15
284.223
299.026
287.926
299.041
291.655
293.102
293.784
295.765
292.095
284.097
283.172
296.74
289.165
295.202
283.15
297.328
283.15
283.15
298.138
297.064
291.272
291.798
297.134
290.322
287.466
297.551
298.816
303.15
292.207
285.561
293.552
304.282
291.271
287.63
296.087
283.15
296.475
283.15
291.651
294.775
297.508
283.15
292.294
293.727
292.176
292.229
293.89
294.097
301.832
283.15
296.494
286.163
297.307
283.218
294.449
283.226
301.924
294.083
295.018
294.922
288.686
295.617
300.131
283.232
283.242
283.15
293.612
299.37
296.625
284.539
284.822
290.752
283.15
294.536
294.234
303.144
295.585
295.695
290.639
299.175
290.289
293.485
303.15
293.355
283.15
283.15
283.15
286.956
294.9
292.377
293.181
292.288
291.091
283.15
293.514
287.952
292.801
294.349
291.28
292.812
289.728
283.15
298.281
295.802
300.581
291.784
283.15
293.028
294.058
284.596
296.419
297.132
292.201
296.644
293.736
296.63
297.124
300.247
295.157
294.377
290.554
283.15
283.15
303.108
303.15
283.15
295.385
290.314
283.15
283.15
303.15
303.15
293.945
294.79
283.15
295.102
295.231
287.267
295.087
294.703
295.176
295.232
295.848
289.752
291.714
292.534
298.622
293.483
293.973
293.048
283.15
302.506
290.588
293.622
284.723
294.034
283.15
283.15
283.439
292.348
283.15
293.99
291.634
283.15
302.705
283.15
283.15
298.269
295.652
303.15
288.101
297.619
300.902
283.851
292.254
295.847
296.003
293.486
294.072
293.235
294.752
292.657
283.15
291.695
296.36
292.357
293.722
297.255
293.398
297.036
293.497
292.414
283.15
283.179
283.15
294.052
295.572
295.033
293.493
300.824
295.228
292.185
292.247
283.15
293.368
293.268
293.103
292.348
289.488
293.274
291.996
303.15
283.151
293.549
294.252
294.711
283.15
283.15
302.451
295.147
297.414
289.855
289.769
283.15
283.15
293.655
293.688
294.144
290.406
283.15
293.292
293.342
292.916
293.005
283.156
293.353
283.15
294.249
295.594
285.179
291.719
291.995
294.497
294.384
283.15
295.972
295.66
295.901
295.663
294.997
295.659
293.427
295.38
295.331
290.232
292.122
291.503
295.207
283.15
294.779
283.15
302.965
294.672
295.68
296.876
285.489
295.17
290.262
285.43
283.15
290.277
293.752
292.036
282.849
283.15
295.003
291.162
292.904
300.07
297.299
283.145
297.861
290.704
300.967
290.299
293.523
283.15
293.564
301.324
296.122
293.601
291.78
295.247
293.154
283.15
294.643
292.585
293.593
293.07
295.59
292.576
283.15
292.309
283.15
293.66
291.952
295.007
292.787
290.919
283.15
283.15
291.12
286.927
290.43
289.487
292.985
296.961
284.16
297.627
286.676
283.15
299.377
290.22
283.15
303.201
283.15
283.15
283.15
294.592
283.15
283.15
289.775
283.15
293.144
294.367
292.626
290.824
291.371
287.296
290.103
297.476
295.795
293.389
297.288
283.604
292.688
288.675
303.15
297.599
293.006
292.292
292.771
294.256
293.118
294.309
292.687
298.144
290.151
303.15
290.132
289.597
287.537
289.977
289.548
291.984
286.336
303.15
292.125
289.714
286.586
291.684
283.15
292.438
293.037
289.997
296.714
293.336
283.15
292.815
293.505
293.49
301.589
285.914
288.676
283.15
293.501
296.616
292.558
294.977
293.347
300.9
288.669
292.824
294.082
285.536
293.878
286.236
295.417
293.768
295.895
283.15
293.823
283.341
302.447
283.15
284.111
295.442
303.114
283.15
294.44
283.15
293.81
296.742
289.413
283.15
291.567
283.241
295.696
283.15
293.877
295.699
294.576
296.619
283.15
293.732
283.15
283.247
303.15
289.472
283.15
284.861
292.748
293.728
289.436
283.15
292.638
287.487
283.185
286.222
293.9
283.15
293.665
290.307
294.442
283.511
293.455
283.15
283.15
283.15
283.15
283.15
283.15
290.861
294.286
283.15
283.15
293.117
294.407
292.393
298.829
290.606
289.758
296.534
283.241
289.519
296.888
297.076
296.905
283.15
292.615
291.795
292.28
283.255
283.226
297.223
287.57
301.623
289.69
292.28
293.765
293.108
291.043
291.73
291.548
283.15
291.698
292.773
293.581
287.041
294.357
288.481
295.191
283.15
291.968
289.653
283.15
283.15
283.15
283.15
292.894
290.044
296.741
283.15
283.15
283.15
293.005
283.15
290.979
296.133
293.567
291.742
283.15
293.703
293.589
291.627
291.002
286.725
287.811
288.537
291.264
291.32
297.69
294.16
294.193
294.445
300.989
285.02
295.94
294.457
285.05
284.932
293.024
293.198
290.684
291.434
296.454
292.781
283.15
291.204
293.433
297.491
285.017
283.372
291.137
295.806
296.928
289.184
292.232
293.919
300.25
293.38
301.694
294.021
292.718
292.56
293.831
283.156
294.114
291.093
284.514
284.095
291.121
293.64
292.665
294.001
283.15
283.15
293.337
283.15
284.028
292.343
293.038
283.716
292.131
293.16
293.939
286.114
284.776
292.071
283.163
283.15
293.382
294.176
294.106
283.15
283.15
293.746
293.202
290.744
301.232
283.573
292.827
288.41
283.15
283.15
288.449
283.15
283.15
293.874
283.15
283.15
283.15
283.15
283.15
293.904
284.372
283.15
283.15
293.818
286.958
293.968
283.15
293.374
283.15
283.15
293.97
284.34
294.102
283.15
283.15
283.15
283.15
293.234
294.245
293.181
293.875
293.721
287.008
293.672
283.171
294.581
294.164
294.021
294.107
294.466
293.459
290.611
294.084
293.623
292.171
294.145
293.774
294.207
283.15
302.488
294.505
295.212
297.188
283.15
295.383
283.15
289.766
283.15
293.667
293.333
295.687
283.15
291.759
296.68
283.663
290.914
298.884
292.076
291.786
290.553
290.807
294.236
283.16
283.543
283.15
283.15
283.15
283.151
283.889
283.82
283.718
286.886
283.15
288.438
290.79
283.15
293.657
293.602
283.15
283.15
293.157
292.201
292.814
283.15
292.425
292.487
283.15
283.159
283.15
295.012
283.15
283.689
294.62
294.113
291.108
294.376
283.594
290.368
290.634
290.537
283.15
284.894
290.664
292.571
283.15
283.15
283.726
283.155
293.322
283.216
284.927
283.15
293.403
293.451
283.75
293.166
293.123
283.15
284.991
290.096
283.15
283.15
292.741
293.797
294.096
294.199
294.096
294.114
294.16
283.15
283.154
283.159
285.3
283.154
289.569
285.505
285.345
290.981
293.992
293.647
283.154
294.116
294.045
294.463
283.15
290.27
283.15
293.584
283.244
291.616
294.135
293.405
283.276
294.297
293.889
283.28
283.233
294.03
283.15
291.42
283.261
293.058
293.833
294.351
293.043
293.591
283.15
292.653
283.15
283.15
283.15
290.621
293.965
292.163
289.991
283.15
283.236
283.15
283.178
288.737
291.638
289.235
301.692
295.531
289.025
283.15
283.15
296.053
283.15
292.965
290.263
283.15
289.022
283.15
291.684
293.281
296.324
288.943
303.15
287.929
283.172
294.049
288.742
295.594
291.086
292.143
290.81
290.983
300.421
283.21
290.838
295.203
287.264
292.125
288.478
290.603
294.365
290.4
293.096
292.217
291.43
293.486
289.669
292
293.98
283.15
284.929
289.148
291.543
293.561
291.373
283.244
283.349
283.473
283.15
285.765
287.993
292.485
293.685
293.613
294.258
303.15
283.453
293.653
296.83
303.15
288.254
293.171
294.028
283.15
290.407
291.744
283.292
288.97
294.026
283.355
285.251
295.328
283.15
292.1
293.242
292.128
293.081
293.539
294.195
293.321
293.759
292.999
293.873
299.043
292.574
292.023
292.15
294.897
292.304
283.15
286.515
293.005
294.086
292.379
303.15
293.62
291.883
283.195
292.341
283.15
293.519
291.232
283.15
283.15
283.15
293.84
283.15
294.735
283.15
292.665
291.901
293.306
291.782
283.15
293.563
291.863
283.15
294.364
283.15
293.968
283.15
294.05
293.951
294.06
293.119
283.15
293.211
292.315
293.724
283.15
288.343
298.849
293.878
293.979
283.15
293.801
283.15
283.15
293.306
295.295
293.832
293.202
294.07
294.107
292.749
283.737
283.15
283.151
283.15
289.487
283.15
293.434
293.073
283.15
283.15
283.415
293.225
294.023
293.521
302.572
293.96
293.903
293.365
294.633
293.853
294.056
283.15
293.845
294.244
294.117
294.109
285.011
294.355
285.149
283.181
284.022
293.883
283.15
292.986
294.545
293.641
293.601
283.392
294.749
293.879
283.152
283.355
290.494
290.557
294.358
283.152
293.25
290.913
293.864