/*--------------------------------*- C++ -*----------------------------------*\
  =========                 |
  \\      /  F ield         | OpenFOAM: The Open Source CFD Toolbox
   \\    /   O peration     | Website:  https://openfoam.org
    \\  /    A nd           | Version:  10
     \\/     M anipulation  |
\*---------------------------------------------------------------------------*/
FoamFile
{
    format      ascii;
    class       surfaceScalarField;
    location    "15.5";
    object      phi;
}
// * * * * * * * * * * * * * * * * * * * * * * * * * * * * * * * * * * * * * //

dimensions      [0 3 -1 0 0 0 0];

internalField   nonuniform List<scalar> 
214403
(
-0.00340202
0.00260871
0.000144276
0.000649032
-0.00168894
-0.00568918
0.000482955
0.00689517
-0.00518636
3.49446e-05
-7.16782e-05
0.00522309
0.00447491
-0.00300914
-0.00750089
0.00603512
0.00621861
-0.00786075
0.00187438
-0.000232226
-0.00273525
0.00284861
-2.70196e-05
-8.63382e-05
-0.000431051
-0.000819203
-0.00466656
0.00591682
-0.00863658
0.00491075
-0.00129257
0.00501841
-0.0117706
0.00830902
0.00838765
-0.0049261
0.00719979
0.000854023
-0.00804518
-8.62537e-06
0.00254989
-0.00504961
0.00103752
0.00146221
-0.00523525
0.00164753
0.00271135
0.00087637
0.000241629
-0.00578866
0.00696975
-0.00142272
-0.00505547
0.00508982
-3.43442e-05
0.000970403
0.00604371
-0.00774387
0.000729748
-0.00612794
0.00512478
0.0015523
-0.000549133
-0.0061638
0.00601586
0.000147938
0.00199396
-4.39126e-07
-0.000526333
-0.00146719
0.00793211
-0.00474797
-0.0105471
0.00736293
-3.8407e-05
-0.00157515
4.55847e-05
0.00156797
0.00324648
-0.00316967
-7.68106e-05
-0.00626877
-0.00216876
0.00215665
0.00628087
-0.00115611
0.00689909
-0.00556155
-0.000181425
0.00341312
0.000359887
0.00119224
-0.00496525
-0.00521457
-0.00249109
0.00674379
0.000961863
0.00464365
-0.00588101
3.64162e-05
0.00120094
0.00163781
-0.00142903
0.00535253
-0.0055613
0.00386888
0.0050591
-0.00609628
-0.0028317
0.00565531
-0.00354807
-0.000160327
-0.00194692
-0.00296631
0.00302338
-5.70651e-05
0.00124407
-0.00258139
0.00686529
-0.00552797
0.00717553
0.000339308
-0.00125266
-0.00626218
-0.00284844
-0.00292418
0.00299495
0.00277767
-0.000609882
-0.00343803
0.00304512
0.00100279
0.00225676
-0.00157705
-0.00478478
0.00410508
-0.000870206
0.00434104
-0.00156834
-0.00190249
0.00812642
-0.000190665
-0.00793575
-0.00350347
0.00683344
-0.00332997
0.000632975
-0.00748246
0.00432906
0.00252043
0.00124729
-0.000501003
0.00304906
-0.00379534
0.00290417
-3.07925e-05
-0.00287337
0.00519093
-0.000109773
0.000917819
-0.00599897
-0.00659986
0.000827768
0.00701939
0.000435362
0.000449644
0.00436494
-0.00524995
-0.00207102
-0.0136147
0.0131904
0.0024953
0.00287685
0.000522478
0.000648463
-0.00404779
0.00214276
0.00162988
-0.00524282
0.00147018
0.00678404
0.00406645
-0.00743737
0.000613395
0.00574156
-0.00116403
0.000918512
-0.00343694
-0.00202675
0.00454517
0.00156957
0.00241445
0.0007175
-0.00470152
0.000940592
-0.000705796
-0.0021778
0.00194301
0.0034758
-0.00628892
0.00438269
0.00602576
-0.00567367
-0.00194684
0.00159475
0.00537757
-0.000983258
-0.00435338
0.00590141
-0.000250343
-0.0012977
0.00448663
-0.00573665
6.4352e-05
0.00118567
-0.00421439
0.000278667
0.00673465
-0.00279893
-0.00777834
-0.00730647
0.0061371
0.00894771
-0.00415355
0.00417893
0.000822228
-0.000847607
0.00065338
-0.00530793
-0.00432923
-8.94768e-05
0.00224993
0.00216878
-0.0068247
0.00292742
0.00441957
-0.000522291
0.00797283
-0.00641913
0.000408303
-0.00196199
0.000365923
0.0001341
-0.00528056
0.00478054
0.000261981
-0.00144671
0.00714512
-0.0059604
-0.0176348
0.00182964
0.00194489
0.0138603
-0.00162609
0.00479364
-0.00152211
-0.00164544
0.00236122
-0.00124037
-0.00504333
0.00392249
0.000564137
0.00351929
-0.00447427
0.000390844
-9.09358e-05
0.00430901
0.00149435
-0.00571242
-0.000860811
-0.000138207
-0.00177563
0.00277465
-0.00456195
0.00498466
-0.000188664
-0.000234043
0.000159575
-0.00462306
-0.00321559
0.00284831
0.000864124
-0.000496845
-0.00858442
-0.000536605
0.00418727
0.00493375
-0.0026014
-0.00110829
0.00221352
0.00149617
0.00380789
-0.0127705
0.00176999
0.00719262
-0.00199807
0.00402167
-0.00219634
0.000172742
0.00288773
-0.00224088
0.000286967
-0.000933813
6.83291e-05
-0.00538271
0.00531438
1.61521e-05
0.00437711
-0.00439326
0.00386904
-0.000756504
0.000512598
-0.00362514
-0.0022974
0.00327685
0.00108697
-0.00206642
-0.00162803
0.00692209
-0.00166331
-0.00363076
0.00326811
-0.00557036
-0.000213575
0.00251583
0.00374036
0.0039671
-0.00770746
0.00551741
-0.00620181
0.00158946
-0.000905065
0.000531952
-0.000995153
0.00720826
-0.00674506
0.000208958
-0.00117004
0.00520047
-0.00423939
0.00123407
0.0108558
0.00312269
-0.0152126
-0.00947859
0.00834181
0.00540353
-0.00426675
0.000436817
0.00334412
-0.0044966
0.000715664
0.0044401
0.00493454
-0.00161841
-0.00775624
0.0082223
-0.0049957
-0.000164561
-0.00306204
0.000358777
-0.00105092
-0.00329923
0.00399137
-0.003344
1.93716e-05
0.00332463
0.00499964
0.000172976
0.000344797
0.00621627
0.000526924
-0.00943556
0.00269237
-0.00498068
0.00109863
0.000885522
0.00299653
-0.00315071
0.00078118
0.000387123
0.00198241
0.000774053
0.000555041
-0.00656841
0.00523932
-0.00135306
-0.00787256
0.00501886
0.00420676
0.00314414
-0.00371756
-0.00242445
0.00299787
0.00509728
-5.61118e-05
-0.00509693
5.5756e-05
0.003908
-0.00551223
-0.00192524
0.00352947
0.0101004
-0.00305539
-0.00157386
-0.00547113
0.00572811
-6.88731e-06
-0.00527293
-0.000448293
-0.00287819
0.00338856
0.00706074
-0.00757111
0.00617286
-0.00216139
-0.0059387
0.00192724
0.00113556
-0.00165656
0.00721229
-0.00669129
-0.00817101
0.00745151
0.00705619
-0.00633669
0.000368261
-0.0063494
0.00245063
0.00353051
0.0079456
-0.000421373
-0.000161472
-0.00736275
0.00558169
-0.00108947
0.00107933
-0.00557155
-0.00651583
-0.0059225
0.00701136
0.00542697
-0.0012268
0.0035229
0.000954465
-0.00325056
-0.00278605
0.000151787
0.00540099
-0.00276673
-0.000619357
0.00699266
-0.00651028
0.000136971
-0.00599089
0.00556324
0.00108333
-0.000655675
-0.000199235
-0.00349528
0.00833816
0.00111391
-0.00371346
-0.00270913
0.00530868
-0.00295564
3.86389e-05
0.002917
0.000904037
0.00411206
-0.00380363
-0.00121247
0.00654969
-0.00377685
-0.00100453
-0.00176832
4.68463e-05
-0.00192566
0.00187881
-0.00369614
-0.00099444
0.00138492
0.00330566
0.000379811
0.00209565
-0.0047017
0.00222624
0.00797239
-0.000719777
0.0031164
-0.010369
0.000575533
-0.000709114
-0.00969547
0.00982905
0.00063023
-0.00276767
-0.00367881
0.00581625
0.000232992
0.00504758
-0.000280935
2.04825e-05
-0.00296375
0.00294327
0.00616562
-0.00228233
-0.00276938
-0.00373978
0.00312643
-0.00308279
0.00678269
-0.0056456
-0.000682611
-0.000454481
0.000681325
-0.00322218
0.00140841
0.00113245
-0.00554792
-0.00167909
0.00112666
0.00610035
0.00460785
-0.0075005
0.0049819
-0.00208924
-0.000203341
0.00678001
-0.00679012
0.00021345
-2.21083e-05
0.00618016
-0.006126
-3.20507e-05
-0.00863681
0.00688978
-0.00552868
0.00727571
0.00720243
-0.00696608
-0.000236345
-0.00657679
0.0088083
-0.00161271
-0.000618804
-0.00587461
0.00141236
-0.000442006
0.00490425
-0.00969749
0.000741871
0.0062448
0.00271081
0.00172494
-0.00235595
0.00131233
-0.00236481
0.00268897
0.00432679
-0.00465094
-0.00258457
-0.00115977
0.00147847
0.00226587
-0.00348963
0.00228428
-0.00441311
0.00561846
0.00104929
8.63109e-05
-0.00771239
-0.00343766
0.00343023
7.42386e-06
0.00377923
-0.00363365
-0.000145584
-0.00567991
-0.000372022
-0.001511
0.00140248
-0.00748181
0.00870859
-0.00262926
0.00336428
0.00579102
-0.00736243
-0.00179286
0.00642517
-0.00697893
0.000186812
0.000366946
0.00343079
0.00089382
-0.00354761
-0.000776996
-0.00541743
-0.000299193
0.00711911
0.00310804
-0.000225192
-0.00378837
0.00090552
0.00349864
-0.00299537
0.00345025
-0.00395352
-0.00611666
0.001149
0.00833194
-0.00206812
-0.00290147
0.00957637
-0.00460678
-0.00295333
-0.00325262
0.00078852
0.000879047
0.00233628
-0.00616866
-0.00419779
-0.000369759
0.00674278
-0.00217523
0.000650189
0.00102979
0.00372875
-0.00540873
-0.00199537
0.00488436
-0.00288899
0.00157594
-0.00756374
0.00273518
0.00450197
0.003146
-0.00676892
-0.00638576
7.70744e-05
0.0079576
-0.00164892
0.00107511
0.000919443
0.00287749
-0.00487204
0.00430464
-0.00433626
3.16179e-05
0.00161605
-0.000609983
0.0054235
-0.00642957
0.00566895
-0.0017959
0.00272514
-0.00659819
0.0104045
-0.00334087
0.00776078
-0.0148244
0.00171209
0.0031819
-0.00132516
-0.00356883
-0.00469514
0.00192929
0.00246437
0.000301475
0.0033834
-0.00255018
-6.93465e-05
-0.000763879
-0.00219434
-0.0027847
0.0081067
-0.00312766
-0.00377397
0.00489666
0.00195568
-0.00307837
0.00567934
-0.000310176
-0.00187052
-0.00886353
0.00586049
-0.000486591
-0.00843404
0.00778027
0.00361308
-0.00295931
0.00537923
-0.00606438
-0.000874706
0.00155985
0.00305376
-0.00551037
-0.00289258
-0.00313391
-0.00287708
0.00162524
0.00438575
-0.00448114
0.00139196
0.00442019
-0.00133101
0.00517287
-0.00492302
-0.00338657
0.00313672
3.13627e-05
-4.47406e-05
-0.00484237
0.00485575
0.000118924
-0.00427895
-0.000161802
0.00432183
-0.00122385
-0.00724526
0.00113959
-0.00419592
0.00377492
-0.000718592
-0.00286723
-0.00120937
-0.000404551
-9.75856e-05
0.00719508
0.000102287
-0.0171462
0.0120588
0.00871626
-0.00362885
-0.00506861
0.000345357
0.000186114
0.00453714
-0.00100695
0.0160291
-0.0188603
0.00383816
0.000798786
0.00123187
-0.00276535
0.000734698
-0.0108435
0.00583838
0.000755153
0.00424994
-0.000126662
-0.0072119
-0.00102539
0.00836395
-0.00299557
0.0108589
-0.00753386
-0.000329472
0.0048725
0.007084
-0.00654603
-0.00541047
-0.00581253
0.00554059
0.00687675
-0.0066048
0.00224923
0.00314361
-0.0039153
-0.00147754
0.0022496
-0.00151819
-0.00359863
-0.0115396
-0.000452935
0.00942827
0.00256424
0.00337931
0.000517874
-0.00196789
0.00348619
0.00466585
-0.00430836
-0.00384368
-0.005767
0.00128601
0.00562528
-0.0011443
0.000684766
0.00180966
0.00631388
-0.00671219
0.00662993
0.000640899
-0.000558635
0.00412357
0.00323747
-0.00292163
-0.000115445
-0.000821969
0.00385905
-0.00443589
-0.000884335
0.00246419
-0.00854594
0.00363289
0.00244885
0.000258829
0.00460051
-0.0051047
0.000245361
-0.00177721
0.000343282
-0.00165212
0.00308604
0.00714063
-0.00510533
0.000214297
-0.00403374
-0.00314989
0.00424516
0.00293848
0.0152338
-0.016301
0.00532654
-0.00425939
-0.00291998
0.00362839
0.00146139
-0.0021698
-0.00669593
0.00290979
0.0058386
-0.00205246
-0.00290379
0.00422056
0.0054206
-0.00673736
0.00814581
-0.00315405
-0.00539325
0.000401496
0.000141647
-0.00198176
0.00482186
-0.00298175
-0.000838606
0.000832184
-0.00637934
0.00584792
0.00189988
-0.00626206
-0.00148574
0.00734464
-0.00602463
-0.0016192
0.00154882
0.00228912
-0.00541231
0.00157437
-0.00301309
-0.00552137
0.00491021
0.00362425
-0.000919784
-0.00238907
-0.000724888
0.00299195
-0.00319982
0.00688512
-0.00667724
0.000727304
-0.00839035
0.00766305
0.00286281
-0.00374087
0.00242687
0.00154355
0.000896886
0.00126653
-0.00370696
-0.000148115
-0.00697414
0.00712225
-0.00378873
0.000502526
-0.00122954
0.00451574
-0.000454938
0.00526969
-0.00480327
-1.14833e-05
-0.00357827
-0.00189531
0.00207107
0.00340251
-0.00133318
-0.00316487
-0.00294531
-0.0043214
0.00360515
0.00366156
0.000155207
-0.0044337
0.00766681
-0.0031519
-0.00040797
-0.00410694
0.00406162
-0.000388968
-0.00296317
-0.000709477
-0.000655126
0.00572512
-0.00714795
0.00207796
0.00369651
0.000141403
0.00179963
-0.00563754
-0.000134938
-0.00303604
0.00146478
0.0017062
-0.00210119
0.00273346
0.00528487
-0.00591714
-0.00744371
-0.00193299
-0.00208524
0.00688104
-0.00635144
0.000148894
0.00199218
0.00421037
0.000611793
-0.00225307
-0.00401747
0.00565875
-0.00290398
-0.00566956
0.0014301
0.00714344
-0.00266557
-0.00295615
0.00307744
0.00254429
-0.00689323
0.00663439
0.00699272
-0.00673389
-0.000927182
-0.00161871
-0.00488845
0.00743435
-0.0066762
0.000685726
0.00679426
-0.000803791
-0.00116934
0.00313438
-0.00196504
-0.00270877
0.00500521
-0.00376995
0.00147351
-0.000116468
0.00902145
-0.00334946
-0.00555552
-0.0032275
-0.00156033
0.00648284
-0.00169501
0.00104531
-0.00273685
0.00620826
-0.00451673
0.0002833
0.00401746
-0.000703812
-2.4376e-05
-0.00662216
0.0066211
2.54384e-05
0.00750645
-0.00132913
-0.010972
0.0047947
-0.00693488
-0.000679234
0.00865842
-0.0010443
-0.00376796
0.00569226
0.000467791
-0.00239209
0.00337179
-0.00333094
-4.08528e-05
-0.00401853
0.000388248
-0.00346948
0.00709976
-0.00582265
0.00802365
-0.00167327
-0.000527732
0.00362131
-0.00151857
-0.0043648
0.00226207
-0.00701369
0.0070785
-6.48128e-05
0.00575427
-0.00837074
0.000679935
0.00193653
-0.0065399
-0.00178897
0.0111837
-0.0028548
0.00481648
-0.000204141
-0.00101101
-0.00360133
-0.00272556
-0.00466099
0.0103785
-0.000494887
-0.00685758
0.00415264
0.0108225
-0.0120725
-0.00114782
0.00239783
0.00289301
0.00137774
-0.00319564
-0.00303908
0.0031675
-0.000128423
-0.00123516
0.00689953
-0.000437197
-0.00522717
-0.00150584
0.00178619
0.00601409
-0.00629444
0.00391307
0.00918962
-0.00537685
-0.00772584
0.00670106
-0.00803962
0.00255579
-0.00121723
0.0061298
8.51451e-05
-0.00621495
0.000112205
0.00597303
-0.00608523
0.00670443
-0.00811415
0.00716399
7.69048e-05
-6.2558e-05
0.00522486
-0.00523921
0.000135433
0.00951248
-0.0094813
-0.00016661
-0.000810367
-0.00240498
-0.00485935
0.0080747
-0.00297284
-0.00177659
0.00059678
0.0056311
-0.00980888
0.00358101
-0.00476606
-0.00124976
0.00510991
0.000905907
-0.00560583
0.00618935
-0.00165464
0.00107112
0.000885698
0.00461844
-0.00157081
-0.00393333
-0.00226551
0.000572259
0.00382437
-0.00213111
-5.16398e-06
0.00170776
-0.00214081
0.000438219
-0.00239229
0.00584669
-0.00336959
-8.48124e-05
0.00175478
-0.005536
-0.00323247
3.83318e-05
-0.00516311
0.00512478
-0.00190578
-0.00182805
0.000848741
0.00288508
0.00288494
-0.00166464
-0.0012203
0.00721137
-0.00716052
-0.00146206
0.00141121
-0.000656231
-0.00425976
0.00392639
0.000989602
-1.75112e-05
2.39098e-05
0.00385533
-0.00386173
0.00191943
-0.00157632
-0.0061029
0.00575979
0.00443877
-0.000114061
-0.0043247
-0.00651494
-0.00421664
0.00628576
0.00444582
0.00379797
0.00596094
-0.0102538
0.00361304
-0.00129969
0.00203357
-0.00434692
-0.00144697
0.00142912
-0.00795256
0.00797041
0.00225582
-0.0044424
-0.00432104
0.00650762
-0.000454165
-0.00102381
0.00482787
-0.0033499
0.00336194
-0.00413284
0.00149785
-0.000726948
0.0018308
-0.00303527
-0.00293369
0.00413816
-0.00593362
0.00668474
-0.00178293
0.00103181
0.00673716
0.00866553
-0.00953914
-0.00586355
-0.00522763
0.00520262
2.50125e-05
-0.000579378
0.00615295
-0.00769517
0.0021216
0.000238609
-0.00038859
-0.00592204
0.00607202
0.00583146
0.000245572
-0.00670994
0.0006329
-0.00247648
-0.00418566
0.00526362
0.00139852
-0.00598061
0.00847426
-0.00300155
0.000507889
-0.00248231
-0.003029
0.00179785
-0.000368317
-6.12922e-05
-0.00426555
0.00469516
-0.0139464
6.00983e-05
0.00125404
0.0126323
0.000552399
-0.00355005
-0.00183714
0.00483478
0.00868689
-0.000714384
-0.00281148
-0.00516103
-0.00155548
-0.00335404
0.000656507
0.00425301
0.00244394
-9.64599e-06
-0.0024343
0.00408083
0.00217492
-0.00135432
-0.00490142
0.00316273
-0.00250821
0.00624599
-0.00690051
0.000206104
0.00650438
-0.0021476
-0.00456288
0.00157582
0.00224737
0.0048637
-0.00313046
0.000218612
0.00291185
-0.00404811
0.000571353
0.00107531
0.000679092
-0.00560381
0.00384941
-0.00528511
0.00773345
0.00234254
0.00799277
-0.00169467
-0.00864065
-0.00507997
0.00499303
-0.00789852
0.00798546
-0.00076713
-0.00384293
0.0013444
0.00326565
-0.00422831
0.00796866
0.00236265
-0.00275125
0.000617373
-0.000228772
-0.0026028
-0.00832082
0.00260343
0.00832019
0.00547516
-0.00546475
-4.84372e-05
3.8033e-05
0.00441157
-0.00515608
0.0010996
-0.000355087
0.00113389
0.0044295
-0.00789719
0.0023338
1.95198e-05
0.00382541
-0.00384493
0.00246722
-0.00633006
0.00499673
-0.00238331
0.00640604
0.00539576
-0.00941849
0.00182098
-0.00185659
-0.00863486
0.00867046
-0.0025955
0.00430374
-0.00863751
0.00692926
-0.00621286
0.00494661
0.00648361
-0.00521736
-0.0038963
0.00533975
-0.00344998
0.00200653
-0.000816173
0.00355579
0.000577952
-0.00331757
0.00181306
-0.00264356
0.00272694
-0.00189644
0.00340113
0.00126641
0.00111839
-0.00578592
0.00972431
-0.00660696
-0.000396666
-0.00272068
-7.13242e-06
-0.0047293
0.00473643
0.00293989
-0.00430627
-0.0131995
0.0145658
-0.00059253
-0.00640117
-0.00194069
0.00893439
-0.000391678
-0.00296326
0.00335493
0.000900535
0.00425971
-0.000677269
-0.00448298
-0.0011929
-0.00430635
0.00347485
0.0020244
0.00330827
-0.00277021
-0.00486729
0.00846465
-0.00658996
0.00186388
0.00197406
-0.00383794
0.00638854
-0.000183557
-0.000777184
-0.0054278
-0.00122513
-0.0020836
0.00330873
0.00229362
0.00152419
0.0127611
-0.0153461
-0.00542227
0.00800727
0.00196969
0.00419632
-0.00320948
-0.00295653
-0.00448135
0.00856807
0.00569961
-0.00978633
0.00504141
0.00174961
-0.000674946
-0.00611607
0.00836142
-0.00557551
0.00359845
-0.00638436
-0.00468801
0.00214139
-0.00587431
0.00842093
-0.00760528
0.0136317
-0.00534003
-0.000686393
-0.000201384
-0.00326916
-0.00449949
0.00797004
0.00619442
0.00255727
-0.00726635
-0.00148534
0.00330542
-0.00880902
0.00555751
-5.39101e-05
-0.00780234
-0.000295181
0.00510519
0.00299234
-0.00156472
0.00404472
0.00175815
-0.00423815
-0.000993664
0.00398419
0.00320354
-0.00619406
-0.00811933
0.00417488
-0.00039748
0.00434193
0.00074878
-0.00222022
0.00440315
-0.00293171
0.00344103
-0.00172682
0.00122778
-0.00294199
0.00334526
0.000643471
0.000324967
-0.0043137
-0.00494925
0.00531093
0.00196606
-0.00232773
-0.00116673
0.00625579
0.00012674
-0.0052158
0.00503783
-0.00295657
-0.00195348
-0.000127781
0.00438761
3.46102e-05
-0.00442222
0.00319835
0.00247648
-0.000561536
-0.00511329
0.0014915
0.00394008
0.00337217
-0.00880375
-8.08372e-06
-0.00707869
0.00708677
-0.00369016
0.0142934
-0.00208464
-0.00851862
-7.08203e-05
0.00533901
-0.00526819
-0.000356098
-0.00384299
0.00069122
0.00350786
-0.00693776
0.00353673
0.00268285
0.00071818
0.00141335
0.00117563
-0.00810896
0.00551998
0.00415066
0.00655592
-0.00245038
-0.0082562
0.00625351
-0.00213859
-0.00598587
0.00187095
-0.00780555
0.00444927
0.0119075
-0.00855127
-1.96011e-05
0.00298034
-0.00298011
1.93684e-05
-0.00308602
0.00305398
3.20459e-05
-0.00794481
0.000122578
0.00334088
0.000884814
0.00191428
0.00524182
-0.00804092
0.00415574
-0.00494229
0.00318715
-0.00240061
-0.00395746
0.00346642
-0.000130737
0.00062178
-0.000829178
-0.00652041
0.0083447
-0.000995112
-0.00290529
0.00139868
0.00460093
-0.00309432
0.00505353
-0.0019493
0.00074795
-0.00385217
-0.00337586
-0.000589475
0.00395357
1.1769e-05
-0.000574922
-3.0597e-05
0.00545948
-0.00485396
0.000701939
-0.000589233
0.00550141
-0.00561411
-0.00494637
0.00690745
-0.00723553
0.00527445
2.51684e-05
-0.00623799
0.00621282
-0.00221511
0.000195799
0.00558511
-0.0035658
-0.00426397
0.00498506
-0.0067987
0.00607761
-0.00437603
0.000333674
0.00133322
-0.00201788
0.00547444
0.000305477
-0.00376203
-0.00146253
0.000204542
-0.0024818
-0.00215283
-0.00699719
0.00702852
0.0021215
-0.00311764
-0.000363995
-0.000785202
0.00426684
-0.0106681
0.00360234
0.00105013
0.0060156
-0.0033991
0.00775632
-0.00384003
-0.000517186
0.0023718
0.000925728
-0.00476005
0.00466845
0.00476192
-0.00943036
0.000631345
0.0102016
-0.00236831
-0.00846458
-0.000128576
-0.000181516
-0.00448469
0.00479478
-0.00489609
0.00806526
-0.00325293
8.37544e-05
0.00465117
-0.00293731
-0.00421581
0.00250194
0.00115693
-0.000155222
0.00141604
0.00715426
0.00199289
-0.0103545
0.00120736
-0.00495969
-0.000647363
0.00162535
0.0039817
0.00188296
-0.00208277
-0.00282919
0.00860094
-0.00578701
0.00449865
-0.00731258
-0.000954304
0.00555729
-0.0096107
0.00500771
0.00334856
-0.00422914
-0.000429611
0.00131019
-0.0037054
-0.00129091
-0.000125099
0.00512141
-0.00276653
-0.00261556
0.00538209
0.000690389
-0.00739207
0.0065592
0.000142483
0.00284545
-0.00274492
-0.00286705
-0.00464713
0.00589614
-0.00112034
-0.000128665
0.00663591
0.00182788
-0.00715268
-0.00131112
-0.00256323
-0.00375858
-0.000433284
0.00675509
0.00418585
-0.00127467
0.00485229
-0.00776347
-0.00468796
-0.000258414
-0.0056267
0.00301114
0.000723137
-0.00629764
0.0020153
0.00355921
0.00182396
-0.00653513
0.00359942
0.00111176
0.00098022
0.000255052
-0.00491249
0.00367722
0.000751557
0.00321878
-0.000216077
0.00549011
-0.00108471
-0.00418933
-0.00215673
-0.000218282
-0.00201108
0.00438609
-0.00127346
-0.00171478
0.00327895
-0.00029071
-0.00513925
-7.53223e-05
-0.00867821
0.003116
0.00456855
0.0122851
-0.0001014
0.00167153
-0.0138552
-0.00538107
0.00835812
0.00169686
-0.00467391
-0.00153558
0.000841394
0.00529656
-0.00460238
0.000643228
0.00182756
-0.00141315
-0.00105764
-0.00924525
-0.00191425
0.00797466
0.00318485
0.000200912
0.0038872
-0.000779834
0.000118046
0.00196494
-0.00616762
0.00408464
-0.00382832
-1.38104e-05
0.00141113
0.00243101
-0.00521187
0.00644137
-0.00102859
0.00294808
-0.0026583
-0.000289776
-0.0043586
0.000626963
-0.00338185
0.00711348
-0.00196393
0.00295684
-0.0022789
0.001286
-0.00422204
0.00475435
-0.00196439
0.00143208
0.00190744
-0.000314501
-0.00453677
0.00294384
-0.00188692
0.0118321
-0.0159258
-0.00173454
-0.0012103
0.00118476
0.00176007
0.00564783
-0.00881325
-0.000400905
0.00356632
-0.00239388
0.00178657
0.0030783
-0.00247098
-0.000707544
0.00377802
-0.00104345
-0.00202703
-0.0042544
0.000944256
0.000993692
0.00231645
-0.00235892
0.000203102
0.00215582
0.00548052
-0.00260892
-0.00278272
-8.88812e-05
0.000397519
0.00271306
-0.0041179
0.00100732
-0.00293574
-0.0035608
0.00363056
0.00286598
-0.00151147
0.00390214
-0.00334536
0.000954693
0.00141533
-0.0026797
0.00184671
-0.000582335
0.00512164
0.000135805
-0.00525744
0.00440203
-0.00541781
0.00268088
-0.0016651
-0.00691761
-0.000197934
0.00711554
0.00285254
-0.00236541
0.000552652
-0.00103979
-0.000221355
0.00490582
-0.00535638
0.000671921
-0.00246611
0.00308678
0.000794658
-0.00271365
0.00581535
0.00537256
-0.0046664
0.00462709
3.93101e-05
9.61327e-05
-0.00740502
0.00730889
0.00991686
0.00119691
-0.00211027
-0.0090035
0.00207486
-0.00808637
-0.00100412
0.00701563
0.00157622
0.00186979
0.00104954
-0.00449556
-0.00278121
-0.00278031
3.84919e-05
0.00552302
-0.00132778
0.00182001
-0.00327344
-0.00612921
0.00110465
0.00804552
-0.00302096
-0.0120406
0.00881996
0.00387808
-0.000657465
0.00533579
4.47975e-05
-0.00538059
-0.00300951
-0.00405035
0.00262008
0.00443977
-0.00303494
-0.00441173
0.00131746
-0.00437263
0.00237715
0.00274704
0.00176639
-0.00231753
-0.00420126
0.0047524
-0.00300063
2.88175e-06
0.00299775
-0.00698691
0.00282374
0.00287179
0.00129137
0.00176264
-0.00471419
-0.00142108
0.00598555
-0.0018966
-0.000151203
-0.00393774
-0.00400934
0.0066446
0.00394298
-0.00657825
-0.00117273
-0.00246365
0.000900948
0.00273543
-0.00170217
-0.00137005
0.00307222
-0.00296383
-0.00622478
-0.00285198
0.00138151
1.8864e-05
0.00278789
-0.00418826
0.00568377
-0.00413602
-0.00599076
0.00444301
-0.0021081
0.000751158
0.00426053
-0.00290358
0.00401743
-0.00282851
-0.000398453
-0.000790475
-0.00461001
0.00074797
0.00360149
0.000260551
-0.00287065
0.00657726
-0.00710049
0.00276791
0.000205576
0.004127
0.00665061
-0.00531098
-0.004181
0.00284136
-0.00527773
0.0010987
0.0098628
-0.0051399
-0.00338838
0.00553188
0.0029964
-0.000603718
0.00536486
-0.00203385
-0.00272729
0.000302551
-0.00314978
-0.00207315
0.00492038
0.00609924
-0.00402401
-0.000246859
-0.00182837
0.00187764
0.00140308
-0.0046085
-0.00128312
0.00145349
0.00358151
-0.00375188
-0.0010599
0.00554224
-0.00683177
0.00234943
-0.00330901
0.00079786
0.000801352
0.0017098
-0.00730142
0.00742311
-0.000121689
0.00503261
-0.00495886
-7.37436e-05
0.0020177
-0.00779151
-0.00299123
0.00876504
0.00178976
0.00340396
0.00079183
-8.66403e-05
0.00299153
-0.00290489
0.00477469
0.00428124
-0.00905592
-0.00530962
0.00324189
0.00229067
-0.000222945
-0.00298154
0.000982617
0.00242431
-0.000425387
-0.00887181
0.00414215
0.00485756
-0.000127898
-0.00289556
-0.00322485
0.00311978
0.00457179
-0.000719923
-0.00294648
-0.00090539
-0.00494829
0.00533878
-0.00326114
0.000857085
-0.00546362
-0.000279375
0.00488591
-6.22013e-06
-0.00269429
0.00270051
0.0132669
0.000107136
0.00141173
-0.0147858
-0.000496618
-0.000971764
-0.00716302
0.0086314
0.00230878
-0.0031271
-0.00145889
0.00227721
0.000889783
0.00688041
-0.00277642
-0.00499378
0.00750924
-0.00751345
-1.7483e-05
2.16948e-05
-0.00420128
-0.00378884
0.00592265
0.00206747
0.00245857
0.00188804
-0.00490446
0.000557843
3.33949e-05
0.00454549
-0.00464575
6.68704e-05
-0.00628172
0.00201046
0.00508955
-0.000818292
0.004831
0.00292199
-0.00489117
-0.00286182
0.000112049
-0.00427993
0.00217022
-0.00112423
0.00646324
-0.00347584
-0.000452597
-0.000542383
0.00447082
-0.00579606
0.000318118
0.00547795
0.0084601
0.00366105
-0.00274614
-0.00937501
-0.00552814
0.000116595
0.00552359
-0.00050866
-0.00132578
-0.00338147
0.0052159
-0.000682042
-0.000656916
-0.00177924
0.0031182
0.0013949
-0.00706845
0.00532934
0.000344218
0.00440154
-0.000685887
-0.00428246
0.000566808
-0.00544448
0.00114268
0.000447136
0.00385466
-0.00206715
0.00135045
-0.00278246
0.00349917
0.00119092
0.000778828
-0.00704957
0.00507982
0.000245196
-0.0047548
-0.00033107
0.00484068
0.0047236
0.000617494
-8.06656e-05
-0.00526043
-0.00561836
0.00130748
0.00508493
-0.00404766
-0.00537766
0.00942532
0.0077947
-0.00397052
0.00167182
-0.005496
0.000610807
0.00438551
-0.00268755
-0.00629588
0.00116842
0.00222065
0.00290681
0.0077739
-0.00800852
0.000234616
-0.00468052
-0.00159139
0.00327725
0.00299466
-0.00609868
-0.00473813
0.00317723
0.00765958
0.00638113
-0.00666367
-0.000815563
0.0010981
-0.000928983
0.00309605
-0.00243865
0.00027158
-0.00793865
0.00259129
0.00182283
0.00352453
-0.0117127
0.014589
0.00241376
-0.00529006
0.00522766
-0.0113382
-0.000571338
0.00668188
-0.00465332
0.00590534
-0.0109437
0.00969168
-0.00489455
0.0107992
0.00106911
-0.00697374
0.000429735
0.0051016
-0.00119258
-0.00433875
0.00777768
-0.00583606
-0.000194768
-0.00174685
-0.00136693
-0.0013134
0.00200666
0.000673665
-0.00368269
-0.00765111
0.00652268
0.00481112
-0.00521889
0.00695656
0.00604001
0.0042095
-0.00309513
-0.00385521
0.00274084
0.00156966
-0.00203035
-0.00089697
0.00135767
0.00348052
-0.00344354
-0.00458172
0.00454474
-0.0014079
0.00403834
-0.000292009
-0.00233843
-0.00558154
-0.000891149
0.00690243
-0.00422126
-0.00103759
0.0052184
4.0459e-05
0.00171437
-0.00383006
0.00211569
0.00137148
-0.00182095
0.00679022
-0.00634075
0.00531217
-0.00746669
0.0010803
0.00107422
0.003377
-0.00364252
0.000265519
-0.00536124
0.000142343
0.00478911
-0.0018234
-0.00462064
0.00165493
0.00150718
0.00122262
0.00535338
-0.00808318
0.00329403
-0.00357605
0.000282022
-4.02406e-05
0.00417282
-0.00471742
0.000584845
-0.00587202
-0.000564922
0.00780842
-0.00254507
-0.000435181
0.000588324
0.00239192
0.000351615
-0.0029033
0.00214082
0.000410869
0.00476015
-0.00455807
-0.00113106
0.00054427
0.00784247
-0.00493946
-0.00344728
-0.00269847
0.00571443
-0.00301595
-0.007292
0.00279149
-0.00171192
0.00621243
0.00572925
-0.00518747
-0.00848043
-0.00278621
-0.0033376
0.0114639
-0.0053401
-0.00820659
0.00522845
0.00745427
-0.00447613
-0.000180955
-0.0070167
0.00719765
0.0111003
2.15969e-05
-0.00639482
-0.00472705
0.00645747
-0.00416287
-0.000574998
-0.00171961
-0.0047002
0.00333826
-0.000846841
0.00220878
6.43066e-05
-0.00483983
0.00477552
-0.00354802
0.00365232
-0.000104295
-0.00256289
-0.00270575
-0.00693175
0.0122004
-0.0065374
0.00142762
-0.000727449
0.00583723
0.00151131
0.00245229
0.00672921
-0.00607495
-0.00502091
0.00436665
-0.00186538
-0.00384841
0.00424453
0.00146926
-0.00386992
-0.00196759
0.00584378
-6.2735e-06
0.00126862
-0.000730399
-0.00359409
0.00305586
0.00426975
0.000189745
-0.00545929
0.000999803
0.00131838
-0.000918552
0.00140987
-0.00170206
0.00169612
-0.00140393
0.00348859
0.00341765
-0.00348948
-0.00341676
0.00172162
0.00402371
-0.00416004
-0.00158529
0.00365965
0.00158561
-0.00287347
0.0045095
-0.00546941
0.00114965
-0.00599582
0.0041915
0.00225718
-0.000452857
0.00714994
-0.00236393
-0.00748449
-0.00190829
0.00508335
0.00255418
0.00495785
-0.00241593
-0.00417823
-0.00113843
-0.000679167
-0.00667305
0.00624008
0.000589502
-0.000156529
-0.000414979
0.00834702
-0.000864514
-0.00706753
-0.00544891
0.00111149
0.00242913
-0.000872876
-0.00553545
0.00155524
0.00485309
0.00498373
0.000694027
-1.70393e-05
-0.00566072
-0.00744763
-6.08939e-05
5.0983e-05
0.00745754
-0.0019068
0.00209158
-0.00338723
0.00320245
-0.00513376
0.00648928
-0.000667761
-0.000687761
0.00675457
-0.00630288
-0.00558546
-0.00497834
0.00449314
-0.00142476
0.00190996
0.00404018
-0.000182617
-0.00126976
-0.0025878
-0.0075562
0.00728878
0.00356886
-0.00330144
0.003561
0.00135643
-0.000452632
-0.0044648
0.00129413
0.00327999
-0.00410194
-0.000472173
-0.0024318
0.00244615
-1.43562e-05
-0.00142033
-0.0036255
0.00363794
0.005472
-0.00542174
-5.0257e-05
-0.00309015
-0.00245249
0.00241554
-0.000319049
-0.00371125
-0.000401408
0.00443171
-0.000418452
-0.00321692
0.00287772
0.000757653
0.00508879
-0.00578735
0.000698563
-0.00648717
0.00665145
0.00609927
-0.00626356
-0.00435559
0.00336289
-0.00228836
0.00328106
-0.00173607
0.000741758
0.00157197
-0.000577652
-0.000181684
0.00786549
-6.85523e-05
-0.00761526
-0.00396285
0.00192124
0.00195213
0.00226714
0.00288581
-0.00503494
-0.000118007
0.000218618
-0.00626231
-0.000245228
-0.00570006
0.00569854
1.51264e-06
-0.00381602
0.00192169
-0.00420436
0.00129692
-0.00286982
0.00011401
0.00248783
0.00108007
0.00377557
7.37978e-05
-0.00322934
-0.000620029
0.00316155
-0.00788968
0.0063256
-0.00159747
0.00130445
-0.0017766
0.00660698
-0.00613483
0.00807911
0.00238966
-0.00124229
-0.00922649
-0.00206743
-0.00339445
-0.0011015
0.00656339
0.00245255
0.0102082
-0.009219
-0.00344177
0.00117492
0.00740496
-0.00714941
-0.00143047
-0.0025565
0.000337134
0.00524049
-0.00302113
-0.000893056
0.0072619
-0.0039163
0.00525846
-0.00415065
-0.0016213
0.000513494
0.00172776
0.00452446
-0.00625222
0.00422405
0.000938033
-0.000562896
-0.00459918
-0.00389194
0.0031111
0.000312786
0.00046805
-0.000374209
-0.00549583
0.000321881
0.00554816
-0.0040269
-0.000512046
-0.000166541
0.00470548
0.00232554
-0.00516057
5.06965e-05
0.00202841
0.00308146
4.58469e-05