/*--------------------------------*- C++ -*----------------------------------*\
  =========                 |
  \\      /  F ield         | OpenFOAM: The Open Source CFD Toolbox
   \\    /   O peration     | Website:  https://openfoam.org
    \\  /    A nd           | Version:  10
     \\/     M anipulation  |
\*---------------------------------------------------------------------------*/
FoamFile
{
    format      ascii;
    class       volScalarField;
    location    "15.5";
    object      SgP;
}
// * * * * * * * * * * * * * * * * * * * * * * * * * * * * * * * * * * * * * //

dimensions      [1 -1 -3 -1 0 0 0];

internalField   nonuniform List<scalar> 
111485
(
4.67372e-10
0.000118433
2.77892e-05
6.78631e-11
8.39836e-06
3.13342e-08
1.50152e-05
2.41472e-07
1.06075e-05
2.93034e-06
2.53455e-05
9.09163e-07
6.79438e-06
0.29346
6.64723e-06
1.58694e-05
0.2077
0.0010443
9.0181e-07
4.76812e-08
0.0371403
3.13521e-09
3.14687e-06
1.11235e-05
4.11206e-05
3.4819e-08
4.93998e-07
1.42614e-05
1.06302e-06
0.0480512
4.11629e-06
5.01801e-07
2.17786e-07
1.41938e-06
0.000737027
9.07955e-05
0.135759
0.204393
0.002465
8.66023e-07
0.0430867
1.20388e-06
2.92001e-06
0.000107721
1.87973e-05
1.58229e-06
6.47769e-06
4.37261e-07
6.09517e-06
4.26673e-07
1.0926e-06
1.72059e-05
4.61971e-07
9.36586e-06
1.5035e-06
1.92628e-07
2.72469e-06
4.30838e-08
4.93407e-05
3.88908e-07
5.67488e-07
2.64043e-07
8.50636e-05
6.95493e-06
6.4894e-06
2.13943e-05
0.000421245
2.32897e-06
7.14572e-05
0.000141085
4.97682e-05
8.64902e-05
1.11706e-05
9.16467e-05
4.54522e-08
1.76982e-06
1.57065e-08
7.13827e-07
2.82215e-08
3.12002e-05
0.279145
0.522902
4.24367e-08
5.17803e-09
1.61679e-05
3.76767e-05
0.142539
8.82396e-06
0.000246439
4.36107e-06
1.33853e-06
6.51613e-06
4.58661e-05
4.84259e-07
2.32597e-06
6.57947e-09
0.0270111
1.13078e-05
0.00151885
0.000570842
1.23414e-09
2.69774e-06
1.94357e-06
1.43095e-05
6.01989e-06
1.64176e-05
5.8621e-09
2.77557e-07
1.48917e-05
0.000722026
4.15724e-05
1.36711e-06
1.32175e-05
7.38316e-05
1.03251e-07
1.7038e-07
3.03819e-08
6.4863e-06
2.29502e-05
4.03539e-09
9.04951e-08
0.00018957
0.0745035
2.24215e-06
5.77971e-05
0.0279138
0.000106719
1.32433e-05
2.75011e-10
0.000315627
0.000136696
1.66963e-05
0.0471103
0.00017481
7.78983e-05
7.91632e-07
9.61656e-10
3.09243e-07
9.75689e-06
2.44374e-05
7.08079e-05
3.85902e-07
0.179161
9.73573e-05
4.11845e-05
2.36864e-06
1.00849e-09
8.39728e-10
4.80192e-08
4.9996e-07
3.29784e-05
0.0284918
0.114695
1.38931e-05
3.62298e-05
5.67405e-07
5.62047e-06
0.000152469
0.000815929
5.42645e-06
9.34106e-10
7.45737e-07
3.96258e-05
7.3491e-05
6.39008e-05
3.82151e-05
7.14474e-06
0.0267985
0.00154744
0.000127826
1.54585e-09
1.49638e-08
0.197147
1.03212e-10
2.63523e-07
2.73796e-06
5.33037e-07
9.42919e-06
3.5452e-08
5.79963e-06
9.84396e-06
3.70618e-08
2.65776e-06
5.06021e-07
2.32187e-06
2.04965e-05
9.82791e-06
5.52182e-05
0.000383783
1.78206e-07
5.39254e-05
5.71405e-06
7.11903e-06
3.74191e-05
5.07206e-06
1.19625e-05
2.11922e-06
1.38074e-06
8.44985e-07
8.79971e-06
2.9826e-06
0.00162171
8.02439e-05
9.26651e-07
1.8236e-06
4.06489e-06
1.22886e-05
1.16836e-05
1.79678e-05
2.63305e-06
5.53906e-06
9.83647e-06
8.63267e-06
7.48062e-09
6.96956e-05
0.000310471
4.21982e-07
7.04354e-09
1.18698e-05
1.75394e-05
8.69857e-07
8.31962e-08
1.6029e-05
1.65048e-05
0.000276851
6.87893e-09
5.06699e-10
3.07351e-05
0.0041392
2.34545e-05
9.2966e-05
1.38325e-05
2.32268e-06
0.145126
3.84698e-05
2.02415e-05
0.159904
4.6304e-08
6.09652e-05
2.19301e-05
2.6827e-05
3.26573e-05
4.7926e-06
3.86668e-06
0.00192369
1.17624e-06
7.76096e-06
1.09696e-08
4.76849e-06
0.135626
1.81214e-05
1.08613e-05
2.13339e-05
7.84564e-10
0.000191553
4.60637e-07
2.78271e-07
6.54399e-05
0.0992593
1.86325e-08
4.57517e-06
5.35783e-05
2.48582e-06
3.39052e-09
1.14407e-05
6.80897e-11
6.11749e-08
5.08508e-07
0.164577
4.29059e-06
3.22246e-05
1.37177e-06
0.176206
1.97487e-05
1.39436e-06
0.000250103
4.59387e-06
1.18422e-06
4.52773e-07
5.33911e-09
0.11153
4.25521e-07
3.99645e-05
2.04562e-05
1.67928e-09
0.216311
0.264212
1.56098e-06
0.000316748
3.31351e-05
3.13218e-06
8.89311e-06
1.19635e-05
2.11267e-08
7.18902e-06
2.26601e-09
0.000359509
0.000274898
1.51901e-05
1.50859e-06
0.344399
1.78036e-08
0.0851095
9.91666e-07
7.58315e-06
3.22344e-09
1.14873e-07
0.0245788
4.6967e-06
1.52633e-06
5.90646e-06
0.00016909
7.45521e-07
3.03298e-05
3.03891e-08
3.45841e-08
5.37056e-06
0.00438652
0.248527
3.32792e-06
0.000777373
1.60492e-09
8.78868e-09
1.36627e-08
8.45297e-05
5.47085e-07
5.74399e-07
2.14905e-06
9.0155e-07
7.10264e-05
0.0606875
5.48565e-06
1.19553e-07
1.92349e-06
2.24485e-06
0.0477969
4.97425e-05
7.31681e-07
7.29329e-07
8.13871e-07
1.3541e-05
6.93207e-08
0.150057
0.000168966
8.29596e-07
3.10238e-06
0.000301172
4.59828e-07
0.0386997
5.27282e-07
1.06753e-05
6.38243e-06
3.94259e-07
1.99108e-05
9.02781e-06
1.93736e-07
5.41942e-07
7.11708e-07
1.75444e-06
0.359798
2.93432e-05
1.75019e-07
0.0524205
1.62702e-05
1.73065e-08
4.08244e-07
3.72738e-07
0.0468546
0.000619025
0.0458096
0.0491301
2.76343e-07
2.4264e-08
2.76718e-06
3.93612e-06
4.48561e-10
7.65804e-06
3.01149e-06
1.57786e-05
2.63589e-05
0.000139682
5.48996e-06
0.000702256
4.73903e-07
7.99822e-06
4.29706e-05
1.16922e-06
0.00066845
3.86037e-07
1.4663e-05
2.76114e-06
0.0300373
1.15873e-07
2.05902e-07
0.153738
4.70084e-06
0.304452
6.63218e-08
4.61441e-06
3.53008e-06
7.22327e-09
5.15446e-06
4.53255e-05
3.83363e-09
0.0319789
3.19935e-06
2.83132e-06
4.54624e-07
2.56512e-08
0.000752394
3.8474e-09
1.01328e-05
3.57711e-06
3.83142e-10
1.15593e-06
3.84217e-05
0.245127
0.000134327
1.91476e-09
7.93659e-05
0.000101763
9.89798e-05
3.88315e-05
0.000627445
2.43098e-06
0.00112044
5.57528e-05
0.20343
0.000199428
4.57684e-08
7.0798e-06
1.04127e-06
2.02716e-07
0.0014192
0.000217724
8.29096e-05
1.49268e-06
1.40904e-06
9.54487e-06
3.6121e-08
0.349099
8.59863e-07
3.34538e-05
0.00437209
9.09465e-05
0.00126568
3.57106e-08
0.251947
0.330072
2.64244e-08
3.47964e-05
0.000261606
0.000103078
4.01768e-09
2.98789e-05
3.65851e-09
0.283209
7.18985e-05
2.08785e-05
0.000106288
2.10406e-05
1.8023e-07
1.71848e-06
4.98713e-07
6.88152e-05
1.55422e-07
5.97383e-07
0.0523001
9.55471e-05
3.99744e-08
1.3189e-09
0.000382644
8.47857e-08
1.58118e-06
3.58663e-06
2.69891e-08
6.12173e-05
6.66861e-08
0.0740102
6.8093e-08
1.65583e-06
3.70911e-08
0.000235921
4.22416e-07
0.22272
1.94772e-05
0.235326
1.12828e-08
6.56932e-05
2.55885e-06
2.77996e-09
0.36729
0.142244
2.58987e-05
3.04623e-06
3.0524e-05
6.83756e-07
1.20369e-05
7.78868e-07
4.55124e-05
0.28782
2.46904e-08
2.35849e-06
0.00010818
1.75818e-05
0.0584438
5.49009e-06
0.000114477
2.43186e-06
1.38827e-06
0.000774019
0.0811104
1.75463e-05
2.20593e-08
1.29503e-06
3.40957e-06
3.52363e-06
1.13248e-06
1.95715e-05
1.73665e-09
0.00169362
1.55622e-07
3.43899e-07
1.79404e-07
9.317e-05
4.92316e-09
9.87368e-06
2.84176e-08
9.08074e-06
1.52778e-09
0.115549
0.113925
1.95449e-05
1.17009e-06
0.0645763
0.0808706
4.83378e-08
2.76253e-07
1.48456e-05
4.32815e-08
0.00017063
1.78335e-05
1.08606e-05
0.0425675
1.6462e-06
2.64895e-09
4.66963e-05
4.658e-05
6.29255e-05
1.67727e-06
1.54989e-05
1.04564e-05
1.04078e-06
9.64237e-07
2.09564e-05
3.29678e-05
2.67417e-09
0.125857
6.72249e-05
4.31135e-05
1.33131e-06
0.00118357
3.17079e-05
0.000461511
0.00299949
0.000384318
4.19802e-06
8.56958e-05
1.08679e-05
2.13239e-05
0.114241
0.000210962
7.39789e-05
0.00357721
0.0765632
3.19133e-08
6.52992e-05
4.54167e-06
4.05587e-05
3.56695e-07
0.000518298
0.00274039
0.000433808
0.000166043
2.60521e-05
2.32834e-06
5.64011e-08
0.00019728
3.4306e-06
2.89345e-08
6.39777e-10
5.3309e-08
3.28669e-08
9.87574e-06
2.08062e-09
0.0346844
1.25899e-05
2.49973e-05
0.0985349
0.317346
6.01768e-05
2.97936e-06
0.0370809
5.44765e-08
1.86054e-05
1.77444e-07
2.09487e-08
4.75768e-05
2.34593e-05
0.120417
2.59145e-05
1.61008e-07
2.68888e-06
2.8673e-05
0.142875
7.0193e-06
2.73055e-05
6.9809e-05
0.195952
0.0411305
2.75993e-06
1.74381e-05
5.94562e-06
2.38493e-06
5.91176e-06
1.0943e-06
3.15755e-05
4.12526e-06
2.14036e-06
1.14442e-06
4.32253e-06
0.000657918
3.2445e-05
4.19079e-06
4.90133e-06
0.000656971
3.94488e-07
5.11045e-07
1.78191e-05
3.04131e-06
1.63495e-05
3.00609e-06
3.25637e-06
3.39486e-06
3.1897e-05
0.000195925
1.24557e-05
1.81788e-05
3.06122e-06
4.6778e-07
4.41066e-05
4.44721e-06
4.09134e-09
0.0769835
1.51497e-08
0.136148
5.86102e-05
0.0117215
8.08919e-08
0.0291958
1.42469e-06
1.12767e-05
1.34148e-09
7.49235e-06
3.00253e-07
1.6259e-08
8.16686e-07
0.280941
0.000128916
2.94701e-05
0.0411051
1.01539e-07
2.73075e-09
3.79338e-06
1.86653e-06
8.32555e-05
5.29316e-07
0.000127651
6.37856e-08
7.28797e-06
0.00012425
0.16712
9.10678e-10
4.76852e-09
3.36988e-06
8.29202e-07
0.000132322
4.53338e-07
0.0624818
1.1792e-06
2.58889e-08
1.22798e-07
0.0451345
6.48583e-06
0.000138582
6.10703e-10
0.00501352
0.00103813
0.181015
1.60874e-08
1.89765e-08
3.62359e-06
2.27516e-05
3.93725e-05
0.000582008
0.000331334
0.000255503
4.90599e-06
0.0629445
2.64214e-05
8.0902e-07
6.73437e-08
1.19486e-06
1.25596e-08
9.53255e-09
7.59128e-08
8.77908e-10
3.2251e-06
7.05632e-08
1.8991e-08
3.36654e-07
1.94848e-07
1.63456e-06
1.06278e-07
5.82636e-07
2.7005e-07
1.48752e-05
1.65166e-05
2.69826e-08
7.05065e-09
2.18777e-05
7.86256e-10
9.00296e-05
2.08505e-06
5.08481e-06
1.26231e-07
1.60569e-10
9.28982e-10
1.51824e-09
1.54458e-05
1.85387e-08
6.56455e-08
2.08468e-05
4.87865e-09
1.38588e-05
8.20095e-05
2.35476e-06
1.69163e-06
0.00052276
4.57594e-06
0.25062
0.000110301
8.24674e-06
0.208532
8.20983e-05
6.0486e-06
2.82705e-05
9.59512e-07
2.02339e-05
0.0885691
0.000700787
6.12613e-07
3.65396e-08
1.26994e-05
7.89389e-05
9.84536e-05
9.14713e-05
1.82899e-09
1.63634e-10
1.27833e-06
3.85116e-05
9.28562e-06
3.8909e-06
0.000204134
3.35505e-06
2.95828e-05
1.42213e-07
1.57244e-08
0.0332227
8.07928e-06
3.65872e-07
2.71788e-08
4.95881e-05
0.000130704
1.76622e-06
3.42227e-07
0.0406286
1.52566e-09
2.71263e-05
0.0633319
1.01736e-08
0.0724097
4.28645e-05
0.0368203
0.000605326
9.98228e-08
2.41988e-05
2.19768e-05
0.045781
5.69768e-05
0.00131532
0.160807
0.000140758
1.12794e-05
9.87546e-07
1.23956e-06
0.483847
0.161154
4.21022e-08
0.240282
1.38041e-05
0.000161808
2.49806e-05
2.18893e-05
0.00119987
3.90501e-05
1.38478e-05
6.83349e-06
1.35625e-07
1.76933e-06
0.0453285
8.32074e-08
5.50432e-05
2.78389e-05
9.66305e-08
3.91547e-06
0.216107
4.34421e-06
2.92797e-07
0.000635516
1.541e-08
3.95645e-06
0.211217
2.2213e-08
0.17697
0.340627
0.00133736
1.75991e-05
1.0823e-06
3.73168e-06
6.17645e-05
0.000224667
0.00118804
0.000313403
4.25508e-06
0.0450511
0.000110239
7.52637e-10
0.000303685
0.000294466
0.000608279
0.000465707
0.00086101
0.000171177
1.24019e-09
6.83808e-05
1.00669e-06
4.10909e-07
0.00167748
0.347631
1.73792e-07
3.22726e-08
0.00323105
0.0032935
3.15687e-09
0.000604588
8.51342e-08
1.55952e-08
1.28e-08
4.48409e-07
5.02102e-06
1.65334e-07
7.73154e-05
0.0515113
1.57726e-09
4.79751e-07
0.00448948
0.115423
7.36782e-05
7.71722e-07
0.0323624
5.11233e-09
0.000132611
4.36372e-09
2.22426e-09
0.000572074
0.129247
2.50763e-06
5.55176e-09
6.82625e-08
0.0354777
1.80229e-08
0.0229919
4.70865e-08
0.000103244
7.76e-09
0.0019573
3.13315e-06
2.65219e-09
7.5486e-07
5.58266e-07
0.00140346
6.24681e-07
2.38265e-08
2.06958e-06
0.00443266
0.0537573
7.19337e-05
0.000604203
0.00107014
4.3145e-08
0.00131698
1.01738e-05
3.61444e-07
3.49005e-06
0.000216068
2.24232e-05
1.1861e-07
9.44341e-06
0.000149573
9.95755e-08
1.33359e-06
7.41259e-07
1.6219e-05
0.0728678
1.17168e-09
8.68591e-07
0.0605152
0.000121358
7.69226e-05
5.92986e-09
8.47365e-07
2.05941e-08
1.12616e-06
2.68448e-05
5.29122e-05
5.49564e-07
2.99679e-05
2.74734e-05
8.23761e-05
1.67941e-05
7.65393e-09
3.79642e-06
1.65175e-09
5.03664e-07
6.57535e-05
0.000183825
3.08046e-08
5.05133e-07
4.35983e-06
2.52778e-10
4.77314e-05
4.46409e-07
7.2058e-05
0.000838012
7.47727e-05
1.38446e-08
0.00139384
0.000118783
6.30534e-05
0.000158502
4.76491e-08
0.000162309
2.72494e-06
0.116678
3.45649e-05
9.66424e-05
6.17531e-08
6.42137e-10
2.2406e-08
0.185685
0.0743211
4.45557e-05
7.1805e-10
0.000144447
2.93716e-08
0.17247
0.000156879
7.58039e-07
8.98693e-08
3.38427e-06
6.13513e-07
8.92829e-05
2.11646e-06
0.000122396
0.311254
4.12265e-06
7.21615e-05
3.34732e-05
7.08882e-05
5.17163e-05
3.18119e-08
2.78939e-10
2.79968e-06
3.5785e-05
8.23203e-09
2.00111e-07
0.000609886
4.57807e-07
1.38424e-06
0.421574
1.76766e-06
6.79067e-05
3.95769e-10
3.27945e-06
2.65817e-07
0.329892
2.74333e-09
0.118706
0.00552512
0.000136164
1.72587e-05
1.52867e-05
0.000942793
2.56555e-06
4.25099e-06
2.29116e-06
9.79891e-07
6.08825e-08
1.8549e-06
8.52511e-05
2.37858e-06
0.0702371
2.73808e-07
4.3634e-06
0.000306461
2.09447e-09
0.000382299
8.57937e-08
3.94297e-05
0.000822219
6.83482e-08
2.0833e-06
6.91414e-05
5.50307e-07
9.26857e-06
0.181436
8.06931e-07
9.7785e-06
1.17088e-10
0.0463357
8.92765e-06
1.90497e-07
1.9441e-07
4.90991e-06
7.23476e-06
8.88522e-09
0.151498
1.51358e-06
1.97757e-09
0.000124644
4.06403e-07
2.67277e-09
4.57585e-05
0.00100964
0.000885436
8.10616e-09
1.11446e-06
4.5869e-08
4.86669e-05
5.02962e-05
0.0342809
6.27308e-06
0.000925449
6.75426e-05
0.00115737
3.07983e-05
3.50052e-06
1.0768e-06
4.72139e-07
5.16386e-05
2.08768e-06
7.32506e-06
0.0439897
0.000251181
0.047684
7.83066e-10
7.86693e-06
1.20736e-07
6.14513e-05
0.000101765
1.18065e-05
4.89056e-05
0.000541007
0.000149737
1.05581e-09
0.00718218
0.00835163
8.68437e-05
4.66809e-05
8.32896e-07
0.000876009
1.68487e-06
2.84852e-06
1.37477e-07
5.76767e-09
0.00025155
9.78257e-06
0.00100071
6.5318e-07
0.0471732
0.000667348
7.16082e-07
1.32704e-07
0.000579279
2.89708e-06
0.0556479
0.280123
0.000132006
0.000235761
1.59509e-06
5.15212e-07
3.1069e-08
1.33682e-08
6.26217e-05
4.97184e-06
0.0347392
0.0550728
3.126e-05
2.86379e-08
0.000321318
0.0415002
2.75479e-05
0.00115265
0.00258803
0.0438784
0.121581
0.0510408
0.000122912
1.31156e-09
0.00203078
6.62141e-07
1.58151e-07
1.91609e-07
7.66685e-09
2.84888e-05
3.98222e-09
2.23888e-09
9.15067e-05
4.91738e-08
6.46134e-09
9.49191e-07
5.62525e-07
0.059635
6.28527e-06
3.06473e-05
0.0769897
0.2619
5.3546e-09
0.187552
0.000162346
0.389606
3.74246e-07
1.10512e-07
6.90823e-08
4.4531e-05
0.261603
1.74122e-09
0.00117564
7.41907e-08
3.88409e-06
1.6312e-05
7.59601e-06
1.11257e-06
2.38504e-07
0.0783733
1.06539e-08
6.99366e-06
1.17416e-07
8.90875e-07
1.71532e-06
0.000458876
0.000119825
1.15416e-06
0.000388717
2.16194e-05
4.2075e-07
0.000141067
7.44363e-07
2.48617e-05
1.43077e-07
1.32406e-07
0.254089
0.0442532
0.00040125
3.31054e-07
6.10783e-09
4.25088e-06
0.194148
2.56556e-07
1.15733e-05
6.37673e-07
2.92783e-06
2.30054e-09
0.0361026
0.000110386
7.41385e-07
5.80794e-07
1.75806e-05
7.79059e-09
0.17987
1.22168e-09
0.040513
7.90528e-05
4.93624e-06
1.69728e-08
3.33701e-06
1.3188e-06
1.01827e-06
3.68069e-06
5.06942e-06
3.11711e-10
4.68075e-09
9.62408e-05
0.081288
2.27842e-09
3.42013e-05
5.08161e-06
9.61573e-05
3.87283e-07
0.0488063
2.31666e-06
5.22849e-05
5.55108e-05
6.1292e-08
5.85249e-05
1.9646e-06
1.72145e-05
2.89026e-08
2.58818e-08
1.06176e-05
6.11665e-09
0.000181591
3.98e-05
3.38583e-08
7.94866e-08
0.000134719
0.000548023
0.304833
1.17686e-07
5.0195e-06
1.84404e-06
0.000368726
0.000170204
2.70754e-05
8.32235e-05
0.0799779
3.47378e-06
5.47949e-05
0.000830623
0.067559
7.22916e-07
4.92949e-08
0.000424325
2.96267e-06
0.0420167
1.91739e-07
6.99664e-06
3.50599e-06
1.61963e-08
0.230629
9.71677e-09
1.69869e-07
6.19958e-07
2.71808e-05
0.308979
0.058011
4.82714e-07
2.36384e-08
1.61084e-09
1.10668e-07
1.06948e-07
6.53334e-07
1.19539e-07
5.49754e-09
6.4035e-08
1.13251e-08
1.83957e-07
0.063617
0.0377272
2.74811e-09
1.37742e-05
7.54098e-09
7.59075e-08
1.22489e-08
0.0369805
0.0822744
5.66628e-06
4.17765e-08
1.2083e-08
8.27787e-07
1.28571e-06
4.04778e-06
1.35417e-07
0.0003342
2.70001e-07
3.12957e-06
3.42037e-06
0.000189674
5.34178e-06
0.000802105
1.78508e-06
3.1773e-08
0.000491381
0.000452837
1.75641e-08
2.32172e-05
4.01141e-06
1.35455e-05
4.34654e-05
1.03237e-05
3.64611e-06
1.12125e-07
0.330312
4.98885e-07
3.96454e-05
0.0636476
0.000119297
1.21632e-05
1.49483e-05
1.63826e-06
2.29549e-06
2.32084e-05
6.68443e-05
5.65323e-05
3.37049e-06
4.51828e-05
7.52153e-06
3.88877e-06
2.17469e-06
5.60798e-09
6.21022e-08
4.61041e-08
6.63943e-10
1.77423e-07
3.28419e-08
7.32522e-06
1.96077e-08
3.13726e-09
1.79914e-07
1.72826e-05
4.85691e-09
9.9907e-09
8.17919e-07
1.11457e-06
9.20358e-07
8.69419e-05
6.48565e-06
0.246523
1.21773e-07
1.15671e-05
1.53778e-05
4.12043e-06
4.03001e-09
1.77906e-08
0.223847
5.60164e-07
5.49129e-09
2.36265e-06
0.22497
1.70922e-06
5.8645e-05
5.82998e-05
1.09788e-06
7.61166e-06
9.11575e-06
0.000384852
1.9473e-08
4.36864e-05
4.97722e-06
1.89952e-07
0.000326591
0.000396227
0.19607
6.7855e-06
1.37443e-06
7.31038e-06
3.78024e-05
1.59471e-05
2.01944e-07
0.00260275
1.21287e-08
0.000638799
0.000414275
0.0609841
9.96301e-06
0.257689
3.02479e-08
1.41808e-07
5.06199e-06
2.52195e-05
7.28564e-05
3.25998e-06
0.000116207
3.57564e-08
9.73068e-06
1.09031e-09
1.9563e-08
1.58215e-06
0.000486273
9.98894e-08
5.43427e-09
0.000418273
1.90433e-07
0.000546281
3.44202e-06
1.95444e-06
1.46287e-06
4.57189e-07
2.00325e-05
4.45641e-06
0.000204715
6.35955e-07
8.18229e-06
0.00330568
1.20781e-06
7.25453e-09
0.000156778
2.21348e-06
4.04418e-05
4.74763e-09
0.143516
0.000116849
7.19978e-05
1.76377e-06
7.54827e-09
0.000195413
4.64173e-06
2.33548e-07
8.55319e-10
6.5518e-05
7.22827e-05
8.05761e-05
0.195405
2.87885e-06
5.97901e-06
0.000245635
9.8839e-06
6.91593e-06
2.68201e-06
8.81803e-05
3.56955e-06
0.000119498
0.1829
1.49613e-05
4.10906e-10
1.66327e-06
5.24388e-05
1.50692e-05
2.5158e-07
0.000464223
0.000866315
0.000477397
0.000876643
1.7169e-05
5.2467e-05
7.0291e-06
2.02613e-05
1.21642e-07
1.12854e-08
0.101708
0.000509445
2.86921e-06
0.00165927
5.11768e-06
2.44411e-05
0.000426955
4.38053e-06
2.26676e-06
3.22315e-06
3.97586e-07
4.19273e-05
2.98688e-05
0.000150746
2.81586e-05
5.51424e-07
6.27125e-09
2.75416e-05
9.33657e-07
1.94933e-08
0.000312483
2.9535e-06
8.03109e-06
3.77461e-05
7.34969e-06
4.07048e-08
0.000593526
0.13823
4.7888e-08
5.60358e-09
2.10123e-08
0.144043
0.245754
4.19918e-07
0.0532339
5.38251e-06
2.01291e-05
7.96985e-06
8.23381e-06
1.15873e-05
1.35224e-05
3.0426e-05
0.117037
0.338693
0.390555
1.18596e-05
3.16814e-05
6.52678e-06
7.32008e-06
0.359526
1.38242e-08
0.174434
4.05192e-06
1.09159e-08
7.36247e-07
5.72896e-07
2.88922e-08
3.72132e-08
2.27761e-07
1.86288e-08
0.136393
5.10869e-08
2.8762e-05
0.000195611
2.25744e-08
4.60356e-06
7.32493e-06
6.22106e-06
6.51432e-08
0.000584803
6.39891e-06
8.62722e-07
6.82187e-05
4.25361e-06
3.05828e-05
4.56891e-06
1.18258e-06
5.1346e-07
1.99216e-05
0.003347
4.69854e-05
8.6616e-07
1.35125e-05
8.33655e-07
2.50164e-05
9.88827e-05
1.1778e-05
2.22764e-06
5.34051e-06
1.15527e-06
5.78244e-05
1.3518e-07
8.1301e-06
0.0411372
0.000421805
0.327473
0.000767138
0.000109737
1.65481e-08
0.0614316
1.0536e-09
4.9321e-05
1.54764e-05
8.21069e-07
8.69561e-05
1.60231e-06
1.01517e-06
4.43785e-05
7.83725e-07
1.83048e-07
1.93424e-05
6.62764e-07
2.24295e-05
0.078154
3.54875e-07
3.70793e-05
1.38589e-06
7.98316e-07
7.89918e-10
0.000259722
9.1037e-05
3.67699e-06
1.37258e-08
7.196e-07
0.044309
0.000210542
9.796e-06
1.49102e-05
1.70141e-09
9.08883e-11
9.19963e-07
4.00335e-09
4.86631e-05
3.49259e-07
2.16618e-05
1.63688e-06
2.08835e-07
5.92742e-07
2.99425e-08
4.79914e-05
9.01923e-05
4.4109e-05
5.00552e-07
2.94607e-08
9.80739e-07
2.2345e-06
0.000534694
9.96286e-07
0.161096
2.14702e-05
2.90588e-08
4.11264e-08
0.000230268
1.27442e-05
0.00113853
5.10559e-07
9.82223e-05
0.232941
2.55289e-10
0.000331231
2.68719e-05
0.0424482
1.7432e-06
0.0474063
0.0829165
0.000118895
7.39387e-06
2.00454e-05
1.12704e-08
1.59084e-05
2.69305e-05
0.00037526
1.90269e-05
6.71524e-06
2.59799e-05
0.000427548
0.000343199
0.000505095
0.000129602
1.67472e-08
8.92139e-05
0.000884771
6.29543e-06
3.89691e-06
0.000246167
0.000212688
1.37458e-05
1.85529e-05
0.000263235
1.55235e-05
0.00037877
0.000246918
1.94078e-05
2.33938e-08
3.46162e-05
0.000415746
0.0667456
2.12781e-06
5.30465e-07
4.90912e-05
1.97674e-07
8.48133e-05
8.30579e-07
0.00039402
6.08991e-07
6.88499e-05
2.50541e-08
1.01446e-07
1.10284e-05
0.000914953
0.00120062
0.337312
4.11644e-05
2.02057e-06
1.87517e-07
0.000409758
2.37086e-05
0.0334708
0.0702853
7.69247e-10
0.000787955
6.32533e-05
6.83777e-06
5.73374e-09
0.00114305
5.67833e-07
0.0426652
4.96238e-08
4.68197e-09
2.99095e-05
1.14543e-06
1.29748e-06
3.73324e-05
0.0394716
2.01923e-05
2.24944e-07
8.16012e-05
0.217876
0.0427659
6.6572e-06
0.000282711
2.95619e-05
0.000567299
2.96237e-06
0.0373362
3.80606e-05
0.000185413
2.2903e-07
8.77947e-07
4.70983e-06
5.21076e-07
2.40268e-05
2.34873e-06
7.68331e-07
2.53353e-06
4.14287e-06
9.9691e-05
2.47522e-08
3.66238e-07
0.0797305
9.7004e-09
7.60029e-08
4.3e-05
6.26521e-08
0.000179421
3.54384e-05
0.0651657
2.33831e-05
0.259531
1.26495e-05
2.1307e-05
0.0398403
0.000156293
2.07574e-10
2.34909e-06
0.0279303
1.58588e-05
7.82699e-05
1.68189e-05
1.6204e-07
6.98384e-06
7.41985e-06
8.45548e-07
0.126667
1.0868e-06
1.02379e-07
1.73354e-06
6.60096e-07
1.67687e-08
8.66234e-05
2.44934e-06
0.272441
8.08003e-05
3.51493e-05
4.6037e-05
5.82463e-05
1.65546e-05
2.91851e-06
1.48752e-10
8.73249e-07
7.40015e-05
2.14076e-05
6.6034e-06
6.92002e-08
1.11588e-05
1.25217e-06
4.00563e-05
3.21383e-08
1.36579e-07
1.23185e-06
2.83577e-05
2.18457e-05
3.29337e-05
2.91527e-08
2.22839e-08
0.00164634
2.20937e-08
1.44248e-09
2.946e-09
1.43736e-06
0.306847
8.97477e-07
0.00011514
6.87754e-05
2.06184e-05
1.68544e-07
1.22641e-06
0.000224402
7.3201e-06
3.3287e-07
3.73302e-05
3.8917e-09
2.60229e-09
3.79797e-09
9.79718e-05
1.10299e-07
0.326741
0.000524988
3.53239e-05
0.00183502
6.78492e-07
1.67758e-05
2.76365e-09
0.0591599
8.12615e-06
6.26269e-06
1.54881e-06
4.07142e-07
1.61256e-07
0.478049
1.67506e-05
0.000435997
6.57023e-05
1.36327e-06
0.121597
3.1605e-07
3.19856e-07
5.00295e-07
7.10406e-07
3.59107e-05
4.962e-07
2.43806e-05
1.76826e-05
0.00050041
3.56484e-06
5.33584e-10
0.000189515
3.78657e-07
0.155873
3.40476e-06
2.39368e-07
1.25201e-06
1.89239e-05
0.0605212
0.0296905
1.8367e-05
4.82758e-05
0.0903722
3.48295e-06
2.54987e-05
0.0468257
1.24454e-05
5.86243e-06
0.17208
0.0186054
1.04396e-05
3.31521e-05
1.53475e-08
3.81913e-05
0.00170894
1.02519e-05
1.1432e-05
0.000377369
1.18101e-09
0.0230773
1.01933e-08
2.84051e-05
0.193046
1.2063e-07
1.21543e-05
4.49322e-06
3.7433e-07
4.08171e-08
4.82257e-05
4.17214e-07
1.11811e-07
3.08836e-05
9.71211e-06
1.36438e-08
0.0232313
0.0439501
4.88641e-06
2.48563e-10
1.947e-09
0.000142952
1.40101e-05
5.34724e-06
3.29585e-09
9.54432e-08
0.000131812
6.93153e-05
4.73224e-05
8.30512e-05
0.361199
8.81764e-10
0.139916
1.74144e-05
6.81988e-06
0.055609
1.08236e-06
2.12052e-08
0.0227605
7.98157e-10
6.81136e-06
6.28144e-06
7.23841e-06
1.09948e-06
9.32801e-09
4.05883e-09
1.61847e-08
2.03382e-05
0.132953
0.210912
3.11521e-05
2.51957e-06
1.79225e-10
0.0556316
0.223986
0.000278772
1.00385e-06
1.34685e-07
0.000962809
0.000244061
2.40966e-07
1.30599e-08
2.12839e-06
7.92912e-06
3.6484e-08
1.10356e-05
6.92827e-05
0.0598279
0.20309
5.5248e-05
0.000851487
9.73059e-09
3.70347e-07
3.24767e-05
0.000178856
3.34239e-05
0.000454846
8.15621e-06
1.46407e-05
7.13841e-09
8.7711e-08
1.26303e-05
0.0581251
1.13131e-06
0.176616
1.98022e-08
1.21031e-05
2.34537e-06
1.64384e-05
1.09227e-08
1.35485e-09
1.09775e-07
3.50095e-08
1.21366e-06
0.000323119
1.03388e-08
0.0372276
1.76442e-05
0.158253
1.90191e-06
2.9748e-06
1.64774e-06
1.9726e-06
1.32024e-05
3.14567e-08
2.37265e-08
1.39045e-08
3.23236e-06
9.5704e-06
0.0575881
0.0557459
5.15262e-06
9.79347e-07
5.85684e-09
2.33105e-09
2.48425e-08
1.70808e-06
0.00024829
2.01428e-07
3.55919e-08
3.56989e-09
0.0218876
2.68986e-05
4.40406e-05
0.0402835
8.30673e-07
0.308901
9.96841e-06
4.38169e-07
4.4497e-10
2.5878e-07
0.0533371
7.63538e-10
2.25254e-05
2.26469e-08
0.000698198
4.47938e-05
8.39015e-05
0.000144406
2.88287e-05
4.02212e-09
1.52423e-08
0.356808
3.28178e-05
3.49332e-05
0.000232887
4.21591e-07
8.55344e-05
9.57139e-05
3.00017e-06
3.29402e-06
0.000299648
7.88986e-08
0.000708076
0.0390647
1.3991e-06
2.04644e-07
8.29698e-05
9.04496e-07
0.0339997
0.180873
2.16599e-05
9.2975e-10
0.0040892
3.39722e-07
2.21641e-05
1.53307e-06
0.000125274
1.12569e-08
0.000876589
8.70148e-05
0.000132158
2.11228e-05
0.000122546
3.02534e-05
5.4237e-06
1.2054e-09
0.00015626
4.6941e-05
5.82231e-05
6.60913e-07
9.61148e-06
0.000122105
0.000450661
9.37136e-09
2.59353e-08
3.50597e-08
3.7092e-10
1.27196e-07
0.0215558
0.000404194
0.000142742
4.06733e-05
0.000204551
8.27491e-05
2.70179e-10
1.15339e-05
6.99536e-09
5.37321e-07
6.63295e-09
2.60825e-05
0.00202897
1.53579e-05
1.11235e-07
1.32601e-08
1.48505e-06
1.22807e-07
7.6761e-09
0.145539
9.22832e-06
0.000669399
0.00101922
0.000731056
8.72164e-09
0.000673607
0.000748482
0.00133891
0.000724189
2.28525e-09
3.78822e-10
3.3312e-06
8.53815e-06
6.79222e-05
0.000321688
0.0420079
8.3562e-06
3.2646e-05
4.45159e-06
0.0005559
3.38015e-08
1.28538e-09
0.000113237
0.000371084
0.0260363
8.27962e-09
0.117111
0.000125862
3.33113e-07
9.18766e-05
4.93434e-06
8.92459e-05
2.25077e-06
9.76745e-05
6.55472e-09
9.32319e-06
0.00216201
3.64232e-05
5.83591e-08
0.00175189
4.4456e-05
1.05645e-05
0.00320803
8.6091e-08
7.66219e-06
5.66688e-05
0.000100329
8.61494e-07
0.191848
5.60981e-08
8.75652e-07
2.73086e-08
0.117246
0.1202
2.06248e-06
1.8156e-06
0.000155398
0.0549461
3.37083e-08
1.08429e-05
2.09752e-05
1.32415e-05
1.27677e-06
0.19408
7.15991e-06
1.65083e-05
0.00362152
1.60015e-07
7.10658e-06
1.70379e-06
2.50573e-06
1.81989e-09
0.00240128
0.00396257
1.1328e-07
7.53841e-07
1.25785e-06
0.000101545
7.79641e-09
0.039715
2.89059e-07
9.98502e-06
1.09746e-06
5.29226e-07
4.9024e-06
3.37449e-05
1.2706e-06
4.92158e-06
0.000245436
1.52002e-06
1.3311e-06
0.0429087
7.60024e-07
3.37707e-06
2.50242e-06
1.96255e-05
2.13723e-10
4.87096e-09
8.95439e-10
5.89233e-06
5.55892e-08
0.066934
2.20911e-05
1.19785e-05
3.98836e-09
3.25236e-05
0.116659
7.94375e-05
1.38021e-05
6.12901e-05
1.24697e-05
2.00387e-07
7.90485e-08
2.42826e-05
4.29074e-06
2.71999e-06
0.000542489
9.63983e-06
4.70266e-08
2.91915e-08
2.22712e-06
6.97023e-08
6.89694e-06
4.08886e-08
1.19795e-05
1.61842e-05
1.9943e-07
1.10427e-09
0.0456056
7.2782e-09
2.70842e-09
2.47551e-05
0.0563331
2.03298e-05
2.2326e-06
1.53275e-08
9.96615e-06
5.30618e-06
2.21775e-05
5.98854e-06
8.25338e-09
1.75894e-06
1.56492e-06
5.48004e-06
3.90543e-09
5.20389e-09
4.54086e-09
5.34774e-06
1.72147e-05
9.58527e-07
1.60202e-08
7.53755e-06
5.17866e-05
1.94722e-08
2.47712e-05
4.53461e-07
5.26424e-08
4.48408e-09
3.91388e-05
2.3937e-07
2.08069e-05
1.62655e-09
2.5413e-05
9.53424e-09
1.52184e-06
0.000348279
1.34322e-07
5.58453e-09
0.0685629
3.01599e-08
0.0563921
2.49747e-07
5.05394e-08
9.52096e-06
2.54463e-05
0.0464721
5.82957e-05
0.0498145
0.0605304
8.97227e-05
1.14202e-05
0.0402866
1.08467e-05
1.63843e-08
4.31566e-05
0.13971
0.0369336
0.0421136
1.16742e-08
1.03569e-05
1.67708e-08
5.53499e-06
9.86893e-07
7.84251e-06
0.000170326
7.07162e-06
5.26048e-07
1.6194e-08
3.69889e-06
0.000292923
2.42009e-08
1.2025e-05
3.7951e-05
1.97319e-06
8.54053e-10
6.25961e-05
2.59067e-05
2.58514e-05
1.76915e-05
1.63779e-05
2.11524e-06
7.47526e-06
0.000151944
8.65546e-06
6.7559e-06
0.000125463
0.000456057
3.75389e-09
6.29822e-07
2.78129e-08
1.99527e-05
9.01424e-08
2.30919e-06
8.96646e-11
0.000395114
0.389168
0.0881754
0.000147923
4.5722e-09
1.19629e-05
0.0546937
0.10218
2.48789e-06
0.000270208
2.08201e-06
5.52893e-07
1.22712e-07
2.80341e-09
9.2154e-06
4.36585e-05
3.87289e-08
4.32019e-09
1.76798e-05
1.65123e-07
0.175139
0.0538059
1.17902e-05
5.28976e-09
1.12232e-08
0.0419929
4.95576e-09
2.52786e-05
9.96032e-09
0.00061004
2.00612e-08
4.85583e-06
5.15684e-08
6.09511e-09
0.00107637
0.15359
0.0645063
1.39837e-08
0.0688461
4.25915e-08
1.3477e-05
1.62932e-06
0.11694
2.39613e-07
0.000160256
3.90188e-09
1.95123e-06
0.000276643
1.69163e-06
0.000162996
9.73698e-09
1.1544e-05
3.22335e-05
2.08131e-05
5.35431e-06
3.6641e-07
3.31256e-07
3.37438e-06
6.08376e-07
9.90029e-09
3.46649e-09
0.0745191
0.0370861
1.43789e-08
0.0835551
3.54595e-10
2.0642e-08
5.23165e-05
5.01823e-09
4.77193e-09
0.0396916
1.88843e-08
7.79626e-10
0.000639753
2.00451e-09
1.20489e-09
5.03651e-05
0.0920391
1.32776e-07
0.0370584
8.59846e-09
4.55187e-06
0.0498078
6.26368e-06
0.00087139
6.41863e-10
7.23778e-08
1.04298e-06
1.76185e-07
0.208343
0.0451299
0.000108421
3.21308e-08
0.0461986
9.86017e-10
2.0359e-08
2.58832e-09
0.102322
0.00175856
8.78947e-06
1.37111e-09
1.29941e-06
0.048051
0.000902418
3.66488e-07
0.000264638
0.108017
0.0852868
3.4403e-05
0.0845224
0.000922623
0.0425926
4.18588e-05
0.0652431
0.000342489
4.56059e-06
1.46538e-06
2.29818e-06
0.000456307
0.000923894
6.88793e-10
3.78681e-06
7.10816e-08
4.56561e-05
7.36367e-06
9.97749e-07
8.02194e-06
0.000296963
1.74337e-07
7.95016e-06
9.09278e-08
2.67217e-08
2.75799e-08
4.49155e-08
5.03627e-06
4.43421e-08
4.83993e-08
7.39301e-08
1.05643e-05
4.304e-05
2.40258e-10
1.7563e-09
5.49399e-08
9.91596e-08
1.09984e-06
0.00127904
0.00208881
0.000129308
9.55727e-09
3.20579e-05
5.67077e-06
0.0462657
3.18874e-05
1.28848e-05
5.6218e-07
1.08089e-06
2.44549e-06
0.000221889
0.000116579
0.178248
0.067051
8.2081e-08
0.000822908
0.000294413
1.36029e-08
2.7023e-06
4.58608e-06
3.73349e-08
1.72428e-06
3.87838e-06
0.0620406
1.56672e-09
8.3219e-05
1.52797e-08
0.0482522
5.1026e-05
0.0354383
3.3187e-05
5.00157e-09
6.56252e-09
2.36551e-08
2.49322e-05
2.40612e-05
4.18259e-06
7.22587e-06
9.74547e-07
0.000761057
0.000287534
8.97164e-10
0.000116098
4.77441e-05
5.21036e-05
9.48409e-05
0.00294521
4.04496e-06
0.0985011
4.65689e-08
5.86106e-06
0.0382866
1.298e-08
0.000261552
0.00715232
3.99864e-08
0.000101842
1.41556e-08
1.8546e-07
2.53399e-06
3.87494e-06
5.36223e-08
7.97143e-09
6.80095e-07
2.51914e-09
5.92353e-09
0.000125686
2.43971e-08
5.35485e-10
2.90263e-05
7.70439e-09
9.76817e-08
2.6912e-07
0.000214247
2.19828e-07
0.000167977
1.0751e-07
4.71676e-08
2.24807e-05
6.56458e-05
0.000230271
0.0427414
8.03097e-05
4.26382e-05
2.2943e-06
0.317718
0.308934
1.23563e-07
2.89144e-05
1.74551e-08
0.0453884
0.0379558
0.000402722
0.0894327
0.0683684
7.14139e-06
1.25766e-09
0.000114814
1.13438e-08
1.28163e-09
3.96052e-07
1.58586e-05
6.8816e-09
1.72384e-05
3.30461e-05
5.0566e-09