/*--------------------------------*- C++ -*----------------------------------*\
  =========                 |
  \\      /  F ield         | OpenFOAM: The Open Source CFD Toolbox
   \\    /   O peration     | Website:  https://openfoam.org
    \\  /    A nd           | Version:  10
     \\/     M anipulation  |
\*---------------------------------------------------------------------------*/
FoamFile
{
    format      ascii;
    class       volScalarField;
    location    "15.5";
    object      SgRate;
}
// * * * * * * * * * * * * * * * * * * * * * * * * * * * * * * * * * * * * * //

dimensions      [1 -1 -3 -1 0 0 0];

internalField   nonuniform List<scalar> 
111485
(
4.67376e-10
0.00800232
0.0240794
6.78651e-11
0.0489886
3.13342e-08
0.0462242
0.00615103
0.0189985
0.0012249
0.0466314
0.0094001
0.00478121
0.294256
0.00651648
0.0305475
0.209117
2.61868
0.010347
4.76812e-08
0.0371403
3.13521e-09
0.0266017
0.0347632
0.00864465
3.4819e-08
0.0396181
0.0017745
0.0155058
0.0480512
0.0444294
0.0194098
2.17786e-07
1.41938e-06
0.00736904
9.07955e-05
0.146351
0.208606
0.00246504
0.024102
0.0430867
0.0709824
0.0158285
0.00162659
8.03185e-05
1.58229e-06
0.0298813
0.000714232
0.0475712
4.26673e-07
1.0926e-06
1.72059e-05
4.61971e-07
0.0510034
1.5035e-06
0.0436472
0.00310174
4.30838e-08
7.00874e-05
0.00479232
0.0160669
2.64043e-07
0.00482792
0.0968276
6.4894e-06
0.00319491
0.315212
0.0944396
0.00117087
0.00618209
6.66592e-05
0.00662531
1.11706e-05
0.00296675
4.54522e-08
0.000710105
1.57067e-08
0.0412433
2.82215e-08
3.12002e-05
0.279147
0.55687
4.24368e-08
5.17804e-09
0.00927436
0.00392026
0.142539
0.0252353
0.000305541
0.00741604
0.000279934
0.0405105
0.011856
5.79954e-05
0.0523548
6.57947e-09
0.0270111
0.00181175
0.00151888
0.00171961
1.23414e-09
0.0180151
1.94357e-06
0.0181393
0.00463395
1.64176e-05
5.86212e-09
0.00757207
0.00410897
0.000722086
0.00545848
0.00472163
0.00376188
0.00326724
1.03251e-07
3.37993e-05
3.03819e-08
6.4863e-06
0.0128037
4.03539e-09
9.04951e-08
0.00018957
0.0745035
2.24215e-06
0.00160632
0.0279167
0.000106719
0.00170537
2.75011e-10
0.000342914
0.00159232
0.0325993
0.0471103
0.00017481
7.78983e-05
0.0483926
9.6166e-10
0.0425559
0.025334
0.00273551
0.000316512
0.00200353
0.201652
0.00278332
0.00401509
0.0130462
1.00851e-09
8.39753e-10
4.80192e-08
0.0280484
0.00159898
0.0284918
0.114695
0.00478115
3.66796e-05
0.0107309
0.0163604
0.0107818
0.000815991
5.42645e-06
9.3411e-10
0.0522038
0.0229245
7.52323e-05
6.42309e-05
0.00584354
0.0034465
0.0267985
0.00155169
0.000172926
1.54586e-09
1.49638e-08
0.197275
1.03213e-10
0.00551305
0.00208869
5.33037e-07
9.42919e-06
3.5452e-08
5.79963e-06
9.84396e-06
3.70618e-08
0.0015016
0.00678852
0.029723
0.00415684
0.00759502
0.00405717
0.00046308
1.78206e-07
0.00485726
5.71405e-06
7.11903e-06
0.00654155
0.0104602
0.0282742
0.0112716
0.00503508
8.44985e-07
0.00669709
0.000517545
0.00166395
0.0142352
0.00232235
1.8236e-06
0.00378104
0.0254248
1.16836e-05
0.00018294
0.00778599
0.00203653
0.000373844
8.63267e-06
7.48063e-09
0.00833069
0.000310471
0.11956
7.04357e-09
0.00666163
0.020472
0.119449
8.31962e-08
0.00325748
0.0136752
0.000276851
6.87894e-09
5.067e-10
0.151977
0.00413947
2.34545e-05
9.2966e-05
0.00944954
0.00778427
0.159912
3.84698e-05
2.02415e-05
0.159917
4.6304e-08
0.00248596
0.00950356
0.016593
0.0116553
0.00962189
3.86668e-06
0.00192395
0.000627335
7.76096e-06
1.09697e-08
0.0309644
0.156212
1.81214e-05
0.00646344
0.0107471
7.84566e-10
0.000191553
0.000116234
2.78271e-07
6.54399e-05
0.0993045
1.86325e-08
0.0148803
0.0108375
0.00367334
3.39058e-09
0.0119043
6.80922e-11
6.11749e-08
5.08508e-07
0.164577
0.0228316
0.00619095
0.00541515
0.212712
0.0122935
0.00159008
0.000820696
0.0325747
0.00884656
4.52774e-07
5.33913e-09
0.11153
0.0226529
0.0244759
0.0119334
1.67928e-09
0.22331
0.266262
0.00300712
0.000318655
3.67633e-05
0.0137476
0.00219029
0.00194586
2.11267e-08
0.000664428
2.26603e-09
0.000359708
0.000274898
0.238917
0.0682186
0.356292
1.78036e-08
0.0851095
0.00897818
0.00172436
3.22346e-09
1.14873e-07
0.0245788
0.000299721
0.0572223
0.00396533
0.0137691
0.0192249
3.03298e-05
3.03891e-08
3.45842e-08
0.00378975
0.00438652
0.249364
0.185183
0.000777681
1.60493e-09
8.78868e-09
1.36627e-08
8.45297e-05
0.059927
0.0119167
2.14905e-06
0.00523774
7.10264e-05
0.0606875
0.066988
0.00591167
0.0114213
0.00926942
0.0477969
4.97425e-05
7.31681e-07
0.00942363
0.0187856
0.00479652
6.93207e-08
0.150057
0.000329424
0.0022194
0.00803626
0.000335263
0.0284934
0.0386997
0.0375526
0.00355189
0.0078019
0.0252874
0.0133854
9.02781e-06
1.93736e-07
5.41942e-07
7.11708e-07
0.0313702
0.369529
0.0330943
0.0673322
0.0524205
0.0185904
1.73065e-08
4.08244e-07
0.0165948
0.0468546
0.0782797
0.0458096
0.0491301
0.0229191
2.4264e-08
0.0136153
0.000292798
4.48564e-10
0.00100554
0.0165059
1.57786e-05
0.00889333
0.009351
0.00813404
0.00138421
0.00272182
0.00553873
4.29706e-05
1.16922e-06
0.00262875
3.86037e-07
0.00625209
0.116707
0.0300373
1.15873e-07
0.0275141
0.153848
0.00826692
0.325015
6.63218e-08
0.0467226
0.0187766
7.22327e-09
0.000832499
0.00246646
3.83363e-09
0.0319789
0.0109713
0.00520795
4.54624e-07
2.56512e-08
0.000752431
3.84741e-09
0.012273
3.57711e-06
3.83148e-10
0.0168243
4.0048e-05
0.2575
0.0298846
1.91478e-09
7.93659e-05
0.00159682
9.89798e-05
0.00019969
0.0149162
0.121851
0.84211
5.57528e-05
0.206183
0.000724929
4.57684e-08
0.0387469
0.0312342
2.02716e-07
0.00141921
0.000307335
8.29096e-05
0.0239361
0.0241844
0.0139426
3.61211e-08
0.349762
0.0170439
0.0229706
0.00437291
9.09465e-05
0.00126568
3.57106e-08
0.251958
0.361423
2.64244e-08
0.00839292
0.000361056
0.000103078
4.01768e-09
2.98789e-05
3.65851e-09
0.286899
0.00966508
0.00642126
0.00220076
0.00269895
1.8023e-07
0.00199078
4.98713e-07
0.0408565
1.55422e-07
5.97383e-07
0.0523001
0.036937
3.99744e-08
1.31891e-09
0.000382803
8.47857e-08
1.58118e-06
0.00106433
2.69891e-08
6.12173e-05
6.66861e-08
0.0740102
6.80931e-08
1.65583e-06
3.70912e-08
0.00721907
4.22416e-07
0.223247
0.00194981
0.23621
1.12829e-08
0.000948342
2.55885e-06
2.77996e-09
0.370053
0.14403
0.0271771
0.0248277
3.0524e-05
0.00203275
0.0816187
0.00847827
0.00106334
0.291055
2.46904e-08
0.0233886
0.00010818
0.00500985
0.0584438
0.075755
0.000114477
0.0209949
0.000244851
0.000774521
0.0811104
0.00201369
2.20593e-08
0.0799207
0.0485695
3.52363e-06
1.13248e-06
1.95715e-05
1.73665e-09
0.00169362
0.0548295
3.43899e-07
1.79404e-07
0.00256863
4.92317e-09
0.0336954
2.84176e-08
0.000330605
1.52779e-09
0.116029
0.113926
0.00102725
0.0125852
0.0645763
0.0812834
4.83379e-08
2.76253e-07
0.0149589
4.32815e-08
0.000200354
1.78335e-05
0.0016394
0.0425675
0.0643561
2.64895e-09
4.66963e-05
0.017303
0.00332502
0.00172747
0.00391538
0.00683578
0.0207839
9.64237e-07
0.0251298
0.00611495
2.67418e-09
0.125857
0.0405321
0.0152894
1.33131e-06
0.00498324
0.00681691
0.00222119
0.00401026
0.000384318
0.0136841
0.00129747
0.000137856
0.0234537
0.127991
0.000819097
7.39789e-05
0.00357721
0.724056
3.19133e-08
0.000420241
4.54167e-06
4.05587e-05
0.00733051
0.00327121
0.00274061
0.000449897
0.000166043
0.0162583
0.0110408
5.64011e-08
0.00019728
0.00134292
2.89345e-08
6.39786e-10
5.3309e-08
3.28669e-08
0.013012
2.08062e-09
0.0346844
0.00867133
0.0019426
0.0985349
0.327875
6.01768e-05
0.00851927
0.0370809
5.44765e-08
0.0525909
1.77444e-07
2.09487e-08
4.75768e-05
0.00425261
0.120417
0.0287201
0.00624461
2.68888e-06
0.088264
0.145252
0.0285162
0.0280668
0.000516739
0.196027
0.0411305
0.0539358
0.0463732
5.94562e-06
0.000316972
0.0405147
0.00791172
0.00144404
0.0276182
0.0260693
1.14442e-06
0.0107711
0.000664344
3.2445e-05
0.0347021
0.000258471
0.000656971
0.0109622
0.0404948
0.00135024
0.0214038
0.0195138
0.00722133
3.25637e-06
0.0103679
0.000341151
0.000195925
0.0170419
0.0178284
0.0357649
4.6778e-07
0.00189057
4.44721e-06
4.09136e-09
0.0769835
1.51497e-08
0.136162
5.86102e-05
0.0117215
8.08919e-08
0.0291958
8.13868e-05
0.0427634
1.34149e-09
0.0313134
3.00253e-07
1.6259e-08
8.16686e-07
0.319676
0.000533021
2.94701e-05
0.0411051
1.01539e-07
2.73075e-09
0.20814
0.0694752
8.32555e-05
0.0019738
0.000129677
6.37856e-08
0.0372343
0.00854574
0.178698
9.10692e-10
4.76855e-09
0.000414129
0.00106385
0.000132322
4.53339e-07
0.0624818
0.00722609
2.58889e-08
1.22798e-07
0.0451345
0.0419243
0.00221198
6.10717e-10
3.86299
0.343978
0.190766
1.60874e-08
1.89765e-08
0.055437
0.000444394
3.93725e-05
0.000587313
0.114325
0.00269529
0.0113097
0.0629445
0.0527156
0.00188317
6.73437e-08
1.19486e-06
1.25596e-08
9.53257e-09
7.59128e-08
8.77923e-10
0.0222213
7.05632e-08
1.8991e-08
3.36654e-07
0.0114071
0.0237435
1.06278e-07
5.82636e-07
0.105594
0.0142817
0.00988157
2.69827e-08
7.05065e-09
0.0369971
7.8626e-10
0.00179571
0.00264659
0.00395101
1.26231e-07
1.60569e-10
9.28986e-10
1.51825e-09
0.0148237
1.85387e-08
6.56455e-08
0.00104691
4.87866e-09
0.0230687
0.00196492
2.35476e-06
0.0368931
0.356676
0.00252394
0.279782
0.000254339
0.0438902
0.208532
8.20983e-05
0.0235461
0.0684084
0.00599973
2.02339e-05
0.0885691
0.759864
0.00994722
3.65396e-08
0.00250523
0.00257629
0.00126791
9.14713e-05
1.82899e-09
1.637e-10
0.0134298
3.85116e-05
0.00268182
3.8909e-06
0.00142166
0.00141521
0.0364902
0.000579253
1.57244e-08
0.0332227
8.07928e-06
0.0205025
2.71788e-08
4.95881e-05
0.000201666
1.76622e-06
3.42227e-07
0.0406286
1.52567e-09
0.0100682
0.0633319
1.01736e-08
0.0724097
4.28645e-05
0.0368203
0.000605326
9.98228e-08
2.71994e-05
0.00161935
0.045781
0.00402005
0.00132188
0.160807
0.000200241
0.00403358
9.87546e-07
1.04616e-05
0.493913
0.161545
4.21022e-08
0.240282
0.000860755
0.000161808
0.00984603
0.00021229
0.00120151
0.0233317
0.00936619
0.00224418
0.0048807
0.00196846
0.0453285
8.32074e-08
0.0328328
0.0262677
9.66305e-08
0.00842293
0.270326
0.0282349
2.92797e-07
0.00191142
1.541e-08
0.0101353
0.225082
2.22131e-08
0.178553
0.341073
0.00133856
0.00494368
1.0823e-06
0.0483829
7.67117e-05
0.00167089
0.00121859
0.000325789
4.25508e-06
0.0450511
0.00707652
7.52638e-10
0.00042319
0.000544172
0.000907406
0.000465763
0.00086108
0.000171414
1.24019e-09
6.83808e-05
0.0225835
4.10909e-07
0.00178305
0.349631
1.73792e-07
3.22726e-08
0.0032317
0.0032935
3.15688e-09
0.000609646
8.51342e-08
1.55952e-08
1.28001e-08
4.48409e-07
5.02102e-06
1.65334e-07
0.000355208
0.0515113
1.57726e-09
4.79751e-07
0.00449596
0.115473
0.00179832
0.00913151
0.0323624
5.11236e-09
0.000294256
4.36374e-09
2.22427e-09
0.000572074
0.147794
0.0421355
5.55178e-09
6.82625e-08
0.0354777
1.80229e-08
0.0229919
4.70865e-08
0.00690997
7.76001e-09
0.00195735
0.0264223
2.6522e-09
7.5486e-07
5.58266e-07
0.00143155
6.24681e-07
2.38265e-08
2.06958e-06
0.00444209
0.0537573
0.00433703
0.000605122
0.00107014
4.3145e-08
0.00139248
0.00197885
0.0441038
3.49005e-06
0.000224553
0.0054596
1.1861e-07
9.44341e-06
0.000149573
9.95756e-08
0.00811965
0.00161263
0.00325033
0.072868
1.17168e-09
0.0232909
0.0605152
0.000121358
7.69226e-05
5.92987e-09
0.0262604
2.05941e-08
1.12616e-06
2.84756e-05
0.0515496
5.49564e-07
0.00237994
2.74734e-05
0.000891118
1.67941e-05
7.65394e-09
3.79642e-06
1.65175e-09
0.00248765
0.000661416
0.306928
3.08046e-08
5.05133e-07
0.00214047
2.52785e-10
4.77314e-05
4.46409e-07
0.0363166
0.000847576
0.0318666
1.38446e-08
0.00140468
0.000168275
6.30534e-05
0.000286197
4.76491e-08
0.00137666
0.0248868
0.136723
0.00120985
0.000324812
6.17531e-08
6.42138e-10
2.2406e-08
0.185707
0.0743211
0.00753087
7.1806e-10
0.174333
2.93716e-08
0.21374
0.00316699
7.58039e-07
8.98693e-08
3.38427e-06
6.13513e-07
0.0412916
2.11646e-06
0.000122396
0.32297
0.00676808
7.21615e-05
3.34732e-05
7.08882e-05
5.17163e-05
3.18119e-08
2.78949e-10
0.0255921
0.000438385
8.23203e-09
2.00112e-07
0.000610411
4.57807e-07
0.00153006
0.42168
1.76766e-06
0.00355036
3.95771e-10
0.000384092
2.65817e-07
0.330985
2.74336e-09
0.118706
0.00552726
0.000761324
0.0181602
0.0340626
0.000943962
2.56555e-06
0.000545094
2.29116e-06
0.00460778
6.08825e-08
1.8549e-06
8.52511e-05
2.37858e-06
0.0702371
2.73808e-07
0.00719621
0.0083951
2.09447e-09
0.000382299
8.57938e-08
0.0008256
0.000835009
6.83482e-08
0.0180613
0.000243098
5.50307e-07
0.0232797
0.189494
0.00365377
0.0113122
1.17105e-10
0.0463357
8.92765e-06
1.90497e-07
0.0369323
4.90991e-06
0.113514
8.88523e-09
0.151812
0.000730143
1.97758e-09
0.00108902
4.06403e-07
2.6728e-09
0.00309908
0.00100966
0.010148
8.10617e-09
1.11446e-06
4.5869e-08
0.000878841
5.02962e-05
0.0342809
6.27308e-06
0.000925732
6.75426e-05
0.00116407
3.07983e-05
3.50052e-06
1.0768e-06
0.0182786
0.00971917
0.0181641
0.0358402
0.0439897
0.00026686
0.047684
7.83071e-10
0.00961743
1.20736e-07
6.36371e-05
0.000454898
0.00667417
0.000419176
0.000541008
0.00203429
1.05582e-09
0.00718218
0.00835163
0.000213833
0.000823595
0.0151043
0.000876068
1.68487e-06
0.0302987
1.37477e-07
5.76767e-09
0.000264823
0.0743587
0.00100076
6.5318e-07
0.0471732
0.000667669
7.16082e-07
1.32704e-07
0.000597237
2.89708e-06
0.0556479
0.319685
0.000362781
0.00041609
0.0222913
0.007212
3.1069e-08
1.33682e-08
8.45992e-05
0.0040716
0.0347392
0.0550728
0.00972855
2.86379e-08
0.000321318
0.0415002
2.75479e-05
0.00115265
2.57377
0.0438784
0.121794
0.0510408
0.02136
1.31157e-09
0.00203078
6.62141e-07
1.58152e-07
1.91609e-07
7.66687e-09
0.00287523
3.98223e-09
2.23892e-09
9.15067e-05
4.91739e-08
6.46135e-09
9.49192e-07
0.00969015
0.059635
0.0108423
0.00313527
0.0769897
0.263398
5.35462e-09
0.18806
0.000164379
0.393448
0.0130418
1.10512e-07
9.2874e-05
0.00764929
0.261612
1.74122e-09
0.00117857
0.0190633
0.00470673
1.6312e-05
0.0259139
1.11257e-06
2.38504e-07
0.0783733
1.06539e-08
0.00813123
1.17416e-07
8.90875e-07
0.00830227
0.000459234
0.00279772
1.15416e-06
0.000388717
0.000658132
4.2075e-07
0.000206937
7.44363e-07
0.0232058
1.43077e-07
1.32406e-07
0.254141
0.0442532
0.000538671
3.31054e-07
6.10787e-09
0.00473188
0.194587
0.00468692
0.0152242
0.21789
0.0202005
2.30054e-09
0.0361026
0.00308579
0.0067306
0.0368168
0.0106154
7.7906e-09
0.192291
1.22171e-09
0.040513
0.00920938
0.0110227
1.69728e-08
0.0131989
1.3188e-06
0.0027321
0.0090102
5.06942e-06
3.1172e-10
4.68076e-09
0.002919
0.081288
2.27845e-09
0.00421784
0.0214156
9.98284e-05
0.0073628
0.0488063
2.31666e-06
0.000139577
0.000833589
6.12921e-08
0.0102572
1.9646e-06
0.00257405
2.89027e-08
2.58818e-08
0.0122016
6.11667e-09
0.000218722
0.00366448
3.38583e-08
7.94866e-08
0.00453099
0.000548023
0.357138
1.17686e-07
0.252764
1.84404e-06
0.000368726
0.000170204
0.00748682
8.32235e-05
0.0799779
0.00554941
5.47949e-05
0.00107979
0.067559
7.22916e-07
4.92949e-08
0.000424423
0.000783239
0.0420167
1.91739e-07
0.0349913
0.000946033
1.61963e-08
0.231035
9.71677e-09
1.69869e-07
2.31807e-06
0.00293086
0.310275
0.058011
4.82714e-07
2.36384e-08
1.61084e-09
1.10668e-07
1.06948e-07
6.53334e-07
1.19539e-07
5.49758e-09
6.40351e-08
1.13251e-08
1.83957e-07
0.063617
0.0377272
2.74811e-09
1.37742e-05
7.541e-09
7.59075e-08
1.22489e-08
0.0369805
0.0822744
0.0172307
4.17765e-08
1.2083e-08
8.27787e-07
0.00656251
4.04778e-06
1.35417e-07
0.288153
2.70001e-07
3.12957e-06
0.0228645
0.000189674
5.34178e-06
0.00842876
0.0242764
3.1773e-08
0.00326429
0.00458014
1.75642e-08
0.0132339
0.0390438
0.0176292
0.00337865
0.0106394
3.64611e-06
1.12125e-07
0.333294
0.0106008
0.00321945
0.0636476
0.00680681
0.00176801
0.0212509
0.0100528
0.000699779
0.0154793
0.00106196
0.0101773
3.37049e-06
0.0245002
0.00839281
0.00164448
0.00139018
5.60799e-09
6.21022e-08
4.61041e-08
6.63947e-10
1.77423e-07
0.00923862
0.0134701
1.96077e-08
3.13726e-09
1.79914e-07
1.72826e-05
4.85693e-09
9.9907e-09
8.17919e-07
1.11457e-06
0.00463019
0.000280113
0.0215691
0.246593
1.21773e-07
1.15671e-05
0.0303191
1.09476e-05
4.03001e-09
1.77907e-08
0.230874
5.60164e-07
5.4913e-09
4.91432e-06
0.232683
0.0134834
0.0331915
0.0339773
1.09788e-06
0.0139393
0.000346228
0.000384852
1.9473e-08
0.0117602
4.97722e-06
1.89952e-07
0.0164782
1.03482
0.196237
6.7855e-06
1.37443e-06
0.0168987
0.0199014
0.0176608
0.00550928
0.00670786
1.21287e-08
0.000639793
0.000414278
0.0609841
9.96301e-06
0.274359
3.02479e-08
0.00197701
0.0247906
0.0173654
0.0112253
3.25998e-06
0.00601738
3.57564e-08
9.73068e-06
1.09032e-09
1.9563e-08
0.00246291
0.870386
9.98894e-08
5.43427e-09
0.000422335
0.023028
0.00170034
0.00679395
0.0322291
0.00469916
0.0199853
2.00325e-05
4.45641e-06
0.000204715
0.0292469
0.00554437
0.00330571
1.20781e-06
7.25453e-09
0.000156778
0.0216593
0.00261144
4.74765e-09
0.1483
0.05659
0.00631325
0.00604469
7.54829e-09
0.000195413
0.00674315
0.022371
8.55337e-10
0.00040591
0.0145454
0.00102409
0.204508
0.00458117
0.0077531
0.000245635
0.00324638
0.0203213
0.0351932
8.81808e-05
0.0220026
0.000119498
0.198891
0.000165437
4.10919e-10
0.00248785
0.00739125
0.000414117
0.011247
0.000464362
0.00099261
0.000491864
0.040588
0.00357519
5.2467e-05
0.037267
0.0012696
1.21642e-07
1.12854e-08
0.101708
0.000521373
0.00101794
1.06531
0.0341536
0.0115175
0.00042715
0.0434078
2.26676e-06
3.22315e-06
0.00384117
4.19273e-05
0.00197938
0.00410276
0.00213718
0.00450773
6.27125e-09
0.000217052
0.104285
1.94933e-08
0.0162648
0.00728541
8.03109e-06
0.00387845
0.000137428
4.07048e-08
0.000593531
0.138315
4.7888e-08
5.60361e-09
2.10123e-08
0.148219
0.250386
0.0135931
0.0532339
0.00459739
0.0316089
7.96985e-06
0.00772729
0.0119603
0.0231467
0.00147849
0.117037
0.339193
0.399335
0.0100616
0.00872144
0.0357096
0.155764
0.362631
1.38242e-08
0.174441
0.0480903
1.09159e-08
0.000403749
5.72896e-07
2.88922e-08
3.72132e-08
2.27761e-07
1.86288e-08
0.139506
5.1087e-08
0.0068652
0.00130436
2.25745e-08
0.00369162
7.32493e-06
0.0133785
6.51432e-08
0.000608415
6.39891e-06
0.0207454
0.000216216
6.46388e-06
0.00407859
0.0273009
0.0159315
0.00375262
0.0259503
0.003347
0.0220796
0.0520963
0.00930907
8.33655e-07
0.00107741
0.00034064
0.00536597
0.00990451
0.000592749
1.15527e-06
5.78244e-05
1.3518e-07
0.00337854
0.0411372
0.000723874
0.327681
0.00238566
0.000353209
1.65481e-08
0.0614316
1.05361e-09
0.00832874
0.0201247
0.00115223
9.57392e-05
0.00178529
0.00655667
0.00176906
0.000810551
0.00644637
0.00585931
0.00254862
2.24295e-05
0.078154
3.54875e-07
0.0124904
0.0103784
7.98316e-07
7.89922e-10
0.000259722
0.00807481
0.0175259
1.37258e-08
0.00212007
0.044309
0.000211148
0.0044455
0.08507
1.70141e-09
9.08892e-11
0.00352952
4.00335e-09
0.000105721
0.0114489
2.16618e-05
0.0103118
0.0310557
0.0179911
2.99425e-08
0.00144711
9.01923e-05
0.000130918
0.0460211
2.94607e-08
9.80739e-07
0.0101942
0.000534694
9.96286e-07
0.161137
0.000929899
2.90588e-08
4.11264e-08
0.000230268
8.10228e-05
0.00230055
0.00302601
0.0242112
0.241142
2.55292e-10
0.000331899
0.000693196
0.0424482
1.7432e-06
0.0474063
0.0829165
0.000118895
7.39387e-06
2.00454e-05
1.12704e-08
1.59084e-05
2.69305e-05
0.000375263
1.90269e-05
0.000323832
2.59799e-05
0.000659708
0.000343199
0.000571253
0.000129602
1.67472e-08
0.0269163
0.00952516
6.29543e-06
0.0823522
0.000246177
0.000212689
1.37458e-05
0.00114506
0.000263235
0.00260062
0.0003845
0.00106084
1.94078e-05
2.33938e-08
0.00116343
0.000415769
0.0667456
2.12781e-06
0.0366306
4.90912e-05
0.0351466
8.48133e-05
8.30579e-07
0.000395733
0.0263424
0.00755957
2.50541e-08
0.000295681
1.10284e-05
0.00404667
0.00121852
0.338993
4.5626e-05
2.02057e-06
0.0191778
0.00153503
0.00487544
0.0334708
0.0702853
7.69269e-10
0.0192639
0.00371737
0.0493171
5.73375e-09
0.00114349
5.67833e-07
0.0426652
4.96238e-08
4.68198e-09
0.00316328
0.00206213
0.00287376
0.297202
0.0394716
0.0253406
0.0338369
0.0162302
0.219489
0.0427659
0.00493969
0.00460243
0.00466135
0.000567606
0.0095511
0.0373362
0.00146446
0.00139104
0.0307937
1.9032e-06
0.00321078
5.21076e-07
0.0171753
2.34873e-06
7.68331e-07
0.00156994
4.14287e-06
0.00580562
2.47523e-08
3.66238e-07
0.0797305
9.7004e-09
7.60029e-08
0.000823553
6.26521e-08
0.00069689
3.54384e-05
0.0651657
0.0166706
0.264578
0.00742791
0.00699655
0.0398403
0.548491
2.07577e-10
0.0646945
0.0279303
0.0164672
0.0226272
0.00224755
0.0527289
6.98384e-06
7.41985e-06
8.45548e-07
0.128708
1.0868e-06
1.02379e-07
0.0166815
6.60096e-07
1.67687e-08
0.00520398
2.44934e-06
0.28419
8.08689e-05
3.51493e-05
4.6037e-05
5.82463e-05
0.00143728
0.00636143
1.48754e-10
0.0218232
0.000404092
2.14076e-05
0.0948925
6.92002e-08
0.0147243
0.016997
0.0035218
3.21383e-08
0.016972
0.00947816
0.000856757
0.0050813
0.0115074
2.91527e-08
2.22839e-08
0.00164806
2.20937e-08
1.44251e-09
2.946e-09
0.018581
0.353335
0.00425517
0.00217176
6.87754e-05
0.0472608
0.0431376
0.00399867
0.00239052
0.00880253
0.0196055
0.00261694
3.89171e-09
2.60231e-09
3.79799e-09
0.00684543
1.10299e-07
0.350298
0.000524988
0.000757933
0.00183556
0.00249053
0.0206093
2.76372e-09
0.0591599
0.00241035
0.000366598
1.54881e-06
4.07142e-07
1.61256e-07
0.478084
0.000307228
0.000576813
0.000857856
0.00960914
0.203865
3.1605e-07
3.19856e-07
5.00295e-07
0.00366776
0.0168031
0.0190344
0.0330815
0.00169723
0.00335811
3.56484e-06
5.33591e-10
0.000189515
3.78657e-07
0.164724
0.0211691
2.39368e-07
1.25201e-06
1.89239e-05
0.0605212
0.0296905
1.8367e-05
0.0131395
0.0903722
0.000931463
0.394981
0.0468257
2.57205e-05
0.0216331
0.172792
0.0186054
1.04396e-05
0.00484074
1.53475e-08
0.0137149
0.00170985
0.0232346
1.1432e-05
0.000377369
1.18101e-09
0.0230773
1.01933e-08
2.84051e-05
0.383052
1.2063e-07
0.00576945
0.00118443
3.7433e-07
4.08171e-08
0.00198065
4.17214e-07
1.11811e-07
0.0122976
0.000139208
1.36439e-08
0.0232313
0.0439501
0.016189
2.4857e-10
1.94701e-09
0.000564672
0.00257694
0.00302776
3.29586e-09
9.54432e-08
0.000131812
0.00375513
0.00185851
0.0124936
0.364775
8.81779e-10
0.140667
0.0112108
0.00619206
0.055609
1.08236e-06
2.12052e-08
0.0227605
7.98161e-10
0.0295527
0.00495864
0.00561008
1.09948e-06
9.32802e-09
4.05884e-09
1.61847e-08
2.03382e-05
0.132954
0.211119
0.00216201
2.51957e-06
1.79227e-10
0.0556316
0.223986
0.0335948
0.11025
1.34685e-07
0.00096281
0.000244061
2.40966e-07
1.30599e-08
0.00366322
0.00625524
3.6484e-08
1.10356e-05
0.00279547
0.0598279
0.203755
0.0010815
2.01239
9.73059e-09
3.70347e-07
0.0113076
0.000697009
3.34239e-05
0.640589
0.000582225
0.00609303
7.13843e-09
8.7711e-08
1.26303e-05
0.0581251
0.00810131
0.176706
1.98022e-08
0.0240126
0.0183202
0.828832
1.09227e-08
1.35485e-09
1.09775e-07
3.50095e-08
0.00648717
0.000323191
1.03388e-08
0.0372276
0.0179211
0.159036
0.00464999
2.9748e-06
1.64774e-06
0.0275612
1.32024e-05
3.14567e-08
2.37265e-08
1.39045e-08
0.020656
9.5704e-06
0.0575881
0.0557459
0.0248374
0.0115742
5.85685e-09
2.33105e-09
2.48425e-08
0.0146733
0.000248478
2.01428e-07
3.55919e-08
3.56991e-09
0.0218876
0.00233287
0.0107083
0.0402835
0.00193399
0.309962
0.0046532
4.38169e-07
4.45029e-10
2.5878e-07
0.0533371
7.63538e-10
0.0185068
2.26469e-08
0.0145379
4.47938e-05
0.00156926
0.000144406
0.00236456
4.02214e-09
1.52423e-08
0.366589
0.156937
3.49332e-05
0.00371191
4.21591e-07
0.000455303
9.57139e-05
3.00017e-06
3.29402e-06
0.000299735
7.88987e-08
0.00100711
0.0390647
0.0338336
2.04644e-07
8.29698e-05
9.04496e-07
0.0339997
0.180881
0.000151056
9.29762e-10
0.00942736
3.39722e-07
0.00269904
0.0175832
0.00136913
1.12569e-08
0.000881167
0.000520111
0.000134275
0.0041549
0.000122857
0.00165568
5.4237e-06
1.20541e-09
0.00015668
0.00549232
0.00029331
6.60913e-07
9.61148e-06
0.000122105
0.551049
9.37137e-09
2.59353e-08
3.50597e-08
3.70941e-10
1.27196e-07
0.0215825
0.000580773
0.00110885
0.0001058
0.000204551
0.00144474
2.70183e-10
0.00527188
6.99538e-09
5.37321e-07
6.63296e-09
2.60825e-05
0.00204361
1.53579e-05
1.11235e-07
1.32601e-08
0.0138172
1.22807e-07
7.6761e-09
0.155456
9.22832e-06
0.0729714
0.120243
0.53548
8.72168e-09
0.192066
1.09051
1.09892
0.614118
2.2853e-09
3.78825e-10
0.00460786
0.004351
6.79222e-05
0.00962032
0.0420079
0.030333
3.2646e-05
4.45159e-06
0.00123816
3.38015e-08
1.28538e-09
0.000123296
0.000409094
0.0260363
8.27962e-09
0.117114
0.000125862
3.33113e-07
0.000110077
0.00776245
0.00152813
2.25077e-06
0.0074876
6.55472e-09
0.00328618
0.00216243
0.00695706
5.83591e-08
0.00175191
0.00539705
1.05645e-05
0.00320803
8.6091e-08
0.0302241
5.66688e-05
0.00910378
8.61494e-07
0.191848
5.60981e-08
8.75652e-07
2.73086e-08
0.117246
0.1202
2.06248e-06
0.0112735
0.00869438
0.0549461
3.37083e-08
0.0303233
0.0160509
0.171678
1.27677e-06
0.194145
0.0233891
0.0429865
0.00362157
1.60015e-07
0.0533232
1.70379e-06
0.212512
1.81989e-09
0.00240131
0.0039626
1.1328e-07
5.43177e-05
1.25785e-06
0.0191759
7.79641e-09
0.039715
2.89059e-07
9.98502e-06
1.09746e-06
5.29226e-07
0.000257472
0.00185087
0.1255
4.92158e-06
0.000245436
0.0382034
1.3311e-06
0.0429087
7.60024e-07
3.37707e-06
2.50242e-06
0.00546204
2.13736e-10
4.87097e-09
8.95444e-10
0.00302866
5.55892e-08
0.066934
2.20911e-05
0.00302594
3.9884e-09
0.00564292
0.333054
0.00505549
0.00514751
0.0246094
1.24697e-05
2.00387e-07
7.90486e-08
0.00292969
0.00162559
2.71999e-06
0.000542489
0.000561964
4.70266e-08
2.91915e-08
0.310564
6.97023e-08
0.020144
4.08886e-08
0.00218337
0.00303813
1.9943e-07
1.1043e-09
0.0456056
7.27821e-09
2.70842e-09
0.0169142
0.0563331
0.00431558
2.2326e-06
1.53275e-08
0.00636314
5.30618e-06
0.0116577
5.98854e-06
8.25339e-09
0.00216755
6.72449e-05
0.12952
3.90544e-09
5.20389e-09
4.54086e-09
0.00310529
0.164316
9.58527e-07
1.60202e-08
7.53755e-06
0.00142796
1.94722e-08
0.0178578
0.0285234
5.26424e-08
4.48409e-09
0.00662133
2.3937e-07
2.08069e-05
1.62655e-09
2.5413e-05
9.53427e-09
0.0629816
0.000348279
1.34322e-07
5.58453e-09
0.0685629
3.01599e-08
0.0563921
2.49747e-07
5.05394e-08
9.52096e-06
0.00688065
0.0464721
0.00786511
0.0498145
0.0605304
0.53398
0.00250339
0.0402866
1.08467e-05
1.63843e-08
0.00224683
0.13971
0.0369336
0.0421136
1.16742e-08
0.00674915
1.67708e-08
0.00435106
9.86893e-07
0.00883127
0.000170326
0.0523048
5.26048e-07
1.6194e-08
0.0197559
0.000292923
2.42009e-08
0.0246029
0.000293676
1.97319e-06
8.54076e-10
0.0332485
0.00921478
0.00591012
0.000779929
0.00166881
0.0159606
0.000934634
0.00457912
8.65546e-06
0.026267
0.000125463
0.000456057
3.75389e-09
6.29822e-07
2.78129e-08
0.00950072
9.01424e-08
2.30919e-06
8.96691e-11
0.000398885
0.389175
0.0881754
0.00227026
4.57223e-09
0.00388901
0.0546937
0.102182
0.00286028
0.000270208
0.0411689
5.52893e-07
1.22712e-07
2.80343e-09
0.00270253
0.00120924
3.87289e-08
4.3202e-09
0.00227763
1.65123e-07
0.784699
0.0538059
0.0927628
5.28976e-09
1.12233e-08
0.0419929
4.95582e-09
0.00907284
9.96033e-09
0.00064501
2.00612e-08
0.00897713
5.15684e-08
6.09511e-09
0.00107637
0.15359
0.0645063
1.39837e-08
0.0688461
4.25916e-08
0.00388546
0.174
0.11694
2.39613e-07
0.000495942
3.90193e-09
1.95123e-06
0.000277661
0.015674
0.000301169
9.73698e-09
0.000627755
0.00306706
0.00485083
0.00758982
3.6641e-07
3.31256e-07
3.37438e-06
6.08376e-07
9.90029e-09
3.46657e-09
0.0745191
0.0370861
1.4379e-08
0.0835551
3.54602e-10
2.06421e-08
0.0687982
5.01823e-09
4.77193e-09
0.0396916
1.88843e-08
7.79626e-10
1.01469
2.00452e-09
1.2049e-09
0.00189685
0.0920391
1.32776e-07
0.0370584
8.59847e-09
0.0210205
0.0498078
6.26368e-06
0.000871437
6.41865e-10
7.23778e-08
1.04298e-06
1.76185e-07
0.317744
0.0451299
0.000261859
3.21308e-08
0.0461986
9.86017e-10
2.0359e-08
2.58832e-09
0.102322
0.00175859
0.000111833
1.37111e-09
1.29941e-06
0.048051
0.000902506
3.66488e-07
0.000264915
0.108017
0.0852868
3.4403e-05
0.0845224
0.000922629
0.0425926
4.18588e-05
0.0652431
0.000342489
0.0290984
1.46538e-06
0.00657012
0.000456307
0.000926027
6.88793e-10
0.00133628
7.10816e-08
0.00385613
0.0240426
9.97749e-07
0.00237
0.000310381
1.74337e-07
0.0100982
9.09278e-08
2.67217e-08
2.75799e-08
4.49155e-08
5.03627e-06
4.43421e-08
4.83993e-08
7.39302e-08
0.264679
4.304e-05
2.40265e-10
1.7563e-09
5.49399e-08
9.91596e-08
0.0299652
0.770911
0.00209175
0.000139528
9.55727e-09
0.00199317
0.0013704
0.0462657
3.18874e-05
1.28848e-05
5.6218e-07
1.08089e-06
2.44549e-06
0.000221889
0.000116579
0.178616
0.067051
8.2081e-08
0.00104242
0.000297908
1.36029e-08
0.0244748
4.58608e-06
3.73349e-08
1.72428e-06
0.162628
0.0620406
1.56672e-09
0.0246038
1.52797e-08
0.0482522
5.1026e-05
0.0354383
0.0524307
5.00157e-09
6.56252e-09
2.36551e-08
2.49322e-05
0.00569979
0.226108
0.0275972
0.0420565
0.00439341
0.000530683
8.97174e-10
0.000116098
0.135989
0.00130664
9.48409e-05
0.0029453
4.04496e-06
0.0985011
4.65689e-08
0.206152
0.0382866
1.298e-08
0.000484164
0.00715232
3.99864e-08
0.00988945
1.41556e-08
1.8546e-07
0.198523
0.0293033
5.36223e-08
7.97143e-09
6.80095e-07
2.51916e-09
5.92354e-09
0.000125686
2.43971e-08
5.35487e-10
0.00312592
7.7044e-09
9.76817e-08
2.6912e-07
0.000227775
2.19828e-07
0.000167977
1.0751e-07
4.71676e-08
2.24807e-05
6.56458e-05
0.00350534
0.0427414
8.03097e-05
0.00497053
2.2943e-06
0.318082
0.313466
1.23563e-07
0.00338657
1.74551e-08
0.0453884
0.0379558
0.000402722
0.0894327
0.0683684
7.14139e-06
1.25769e-09
0.00241793
1.13438e-08
1.28163e-09
3.96052e-07
1.58586e-05
6.88161e-09
1.72384e-05
0.0358465
5.0566e-09
2.45604e-08
0.337592
1.57179e-09
0.0170908
8.2053e-06
0.00130086
9.82447e-09
0.000440157
0.000145095
0.238139
0.00800381
0.023717
0.000181869
0.040152
0.000267794
0.0745987
0.000148751
0.000226707
0.00981637
0.0576094
0.000322294
0.00126987
4.27174e-06
1.74048e-07
0.00108685
0.000229081
0.0162957
0.0120409
0.000148586
1.88131e-06
0.0054877
0.00515294
0.0183903
2.05682e-09
0.0122296
0.0166374
0.00270321
0.00147224
0.00124609
0.00328271
0.0190193
0.0404388
0.00718187
0.0110021
0.00798787
8.99564e-05
0.00287428
0.00362474
0.00105712
0.00267492
0.0142365
0.0137177
0.0195525
0.000121199
0.0110339
0.000419435
0.00500974
0.0028139
0.000365383
0.00237572
0.000202414
0.0749782
0.0039596
0.00121026
0.000140626
0.000726203
0.0160102
0.00241506
0.208763
0.00348916
7.54416e-10
0.230336
0.0447419
0.0221261
0.00704406
0.0201864
0.000401286
0.00867073
0.460554
0.00210523
0.00140297
0.00246478
0.174011
0.0012101
0.0740653
7.42734e-05
7.67858e-08
1.30662e-08
0.00219109
0.00608304
0.0118297
0.0708051
0.00695121
0.0607704
0.0549898
0.0671768
2.86813e-08
0.00732229
0.00268212
0.0260654
1.05613e-06
0.00631536
9.15148e-08
0.223951
0.0114983
0.00738629
0.219889
5.24226e-09
8.96634e-08
0.00216069
0.000108861
0.000752688
1.55359e-07
0.00655633
0.000954484
0.0791024
9.12621e-07
0.0220338
0.0030864
0.000348591
0.000127365
0.00240314
0.00135697
2.38654e-07
0.00182246
5.29759e-05
9.81268e-09