/*--------------------------------*- C++ -*----------------------------------*\
  =========                 |
  \\      /  F ield         | OpenFOAM: The Open Source CFD Toolbox
   \\    /   O peration     | Website:  https://openfoam.org
    \\  /    A nd           | Version:  10
     \\/     M anipulation  |
\*---------------------------------------------------------------------------*/
FoamFile
{
    format      ascii;
    class       volScalarField;
    location    "92";
    object      SgT;
}
// * * * * * * * * * * * * * * * * * * * * * * * * * * * * * * * * * * * * * //

dimensions      [1 -1 -3 -1 0 0 0];

internalField   nonuniform List<scalar> 
59698
(
0.0131909
0.00015274
0.000210855
2.0576e-06
0.0303483
4.12955e-18
0.00213109
3.02655e-05
5.65283e-16
5.09958e-17
2.47613e-16
0.000299091
1.43526e-16
6.20192e-06
0.000352913
2.39448e-17
6.97971e-06
0.000145877
4.51284e-05
0.000271306
0.00136868
0.0139753
1.21126e-07
4.33141e-18
0.0422526
6.75372e-05
0.000342601
0.00753411
0.00672361
0.00746192
0.00479588
2.32098e-17
1.22404e-18
0.0123395
0.00243921
0.000163479
0.0185639
0.0206116
3.08518e-05
0.0225192
0.00864819
6.51229e-18
0.00372116
0.000644444
2.98661e-17
0.0321432
7.39066e-05
0.000730178
0.000245715
0.000174031
0.00151633
0.000119498
0.000337734
5.15895e-06
0.00919889
7.69195e-05
0.00132538
0.000213074
0.000806619
0.00276396
0.00346124
0.000499372
0.122109
7.04169e-05
0.0124997
0.00160945
5.28198e-17
0.000399582
5.56753e-05
1.09697e-16
7.92262e-10
0.000253051
3.50938e-06
0.0407757
8.23647e-18
0.0391208
0.000117602
0.00925155
0.000358535
0.00616933
0.00888502
0.000475628
9.90967e-17
1.59959e-05
0.00850212
0.000551302
3.62242e-06
4.19433e-05
0.063637
0.000129404
8.85367e-17
0.00205896
0.0148744
9.774e-06
7.33293e-05
0.000160361
0.00538294
6.09781e-05
0.000266871
2.84274e-18
0.0735121
0.00179783
0.0162905
0.0121928
0.000121368
2.25601e-16
4.37323e-05
3.6703e-05
3.7401e-16
8.54938e-17
0.000250058
4.63199e-06
0.0381066
2.12935e-18
2.62139e-05
4.49909e-05
3.97723e-05
4.39032e-06
2.33115e-05
6.66458e-18
3.63752e-05
0.000707215
9.19287e-07
6.17538e-06
2.12429e-05
3.34829e-05
0.0108227
1.23594e-16
2.77807e-05
2.92978e-05
0.0415005
3.72533e-05
5.30913e-17
0.100068
0.00427224
0.00440907
1.62287e-06
2.64902e-17
0.000255251
0.000130967
0.000109449
1.59494e-06
0.00017487
0.00265791
9.78312e-06
0.000694775
5.81347e-06
2.17547e-05
1.72942e-06
0.0293188
4.20071e-05
7.82972e-16
0.00150321
7.34967e-06
0.000162229
0.000342874
4.77437e-05
3.19128e-07
0.0124566
7.08136e-17
0.000861731
5.12808e-05
0.0163783
0.00163266
0.00336407
0.0322703
0.000237887
0.0716328
0.000507929
0.000413302
0.0119445
2.3378e-08
0.0108028
0.01463
0.0790495
0.000728481
3.50347e-17
5.02108e-05
3.04491e-16
0.00629132
0.00945143
0.0180898
0.0147592
1.98135e-05
0.0460073
0.000236158
0.0114634
9.84244e-05
6.47205e-06
0.00118151
0.000405783
6.7243e-05
0.002669
0.038717
0.00403099
3.92999e-06
0.00983394
0.0552997
1.41647e-05
0.00773693
5.51838e-15
0.00612882
0.0211968
6.66009e-05
0.00682524
0.000318871
0.00611333
0.000810269
0.00512033
0.00789424
0.000134199
2.36344e-05
0.00016673
2.67218e-17
0.00409278
4.86977e-07
3.73016e-05
3.60342e-05
0.0127668
0.00660217
0.00562617
0.000511247
2.98865e-05
0.0660821
0.000816243
0.0236432
0.00734931
0.00324693
0.00686781
0.160068
4.11591e-17
0.00473643
0.00291412
0.00324689
1.3855e-05
0.00968461
0.0830219
1.91492e-05
6.79949e-07
0.00044164
1.11444e-05
0.00147302
0.0135305
8.13434e-18
0.00613293
0.000120098
0.00377383
0.231548
0.00122136
0.000426635
0.00070273
0.00163827
0.000629366
1.33466e-16
0.000618206
0.00069193
0.00601465
0.00128523
0.000497234
4.09686e-05
6.90774e-06
1.49459e-16
0.000394173
0.00321777
0.00115108
0.0476262
2.32971e-05
3.62006e-16
0.000165028
1.63338e-05
0.000141548
0.044148
0.00015327
1.85144e-05
0.0179464
0.000206424
1.61549e-07
0.000510216
0.00209319
1.76641e-16
1.73629e-16
0.000193358
0.000212117
0.105055
0.0456462
0.0201327
0.000134695
3.40534e-10
0.0732118
0.000444615
0.0915408
1.50788e-05
0.000188021
0.000164518
0.000321369
3.25803e-06
0.000356413
0.000803632
0.00424053
1.10553e-05
0.00272413
2.71228e-17
2.27672e-17
0.000824335
6.47216e-05
5.26308e-05
0.0520097
0.00101228
2.01036e-06
0.000267299
7.84847e-05
7.09797e-05
3.8419e-05
4.99589e-18
2.46954e-05
0.00513868
3.50393e-17
0.000392284
3.1472e-18
0.000806236
0.000342311
0.323729
0.000320534
1.98747e-17
0.0484738
0.0104378
0.000327987
0.000353149
0.000439861
5.73065e-17
0.0064243
0.00416862
0.0202759
0.206798
2.94193e-17
1.9238e-05
1.00454e-05
0.000664473
0.00910947
0.00327107
0.0102289
3.76689e-06
2.89831e-05
0.00147576
9.66682e-05
6.72194e-06
9.9046e-05
0.0393973
4.79099e-05
1.51461e-05
0.00798968
9.16847e-05
0.0399824
1.66495e-18
0.243516
0.000257467
0.014035
0.000126251
3.78875e-05
1.17374e-17
2.76281e-05
8.75432e-06
1.31277e-15
0.000884331
3.9975e-17
8.72081e-19
1.64992e-05
1.36366e-05
0.000156588
0.00165409
0.0019057
7.90642e-17
5.05942e-06
1.44586e-17
0.00618769
5.20265e-17
0.000153455
2.45919e-05
9.229e-17
2.2236e-16
1.28193e-18
0.000103295
5.63975e-05
0.000525927
0.000140029
1.30757e-05
0.000211703
2.41857e-16
7.90657e-17
0.000143599
8.77252e-05
1.06033e-17
0.0012624
0.00259744
0.00128971
0.000480975
0.0486741
1.32101e-05
2.2705e-05
0.000145365
0.000409593
2.21772e-05
1.26866e-05
3.98958e-05
3.5427e-06
2.77508e-05
0.0814295
0.025264
2.24688e-05
0.0053834
0.0314811
6.16751e-16
0.00014721
4.00121e-16
4.53516e-08
0.0596738
2.72115e-06
0.0104143
0.000513804
8.02e-05
0.000115705
4.95965e-06
3.56895e-05
0.309514
3.76782e-05
1.31353e-05
5.34166e-16
0.000220271
4.67542e-05
6.43583e-16
0.00026398
0.00018808
0.0151347
0.00303138
0.00212095
7.17889e-17
7.42003e-16
0.212189
0.00012384
0.00105736
3.88925e-18
4.68794e-05
2.32504e-16
2.18046e-05
4.01525e-05
0.0023903
0.0698694
1.39177e-17
6.45548e-05
0.00908031
1.80996e-05
0.000124779
5.85818e-05
0.0329722
0.000282755
9.70784e-05
0.108382
3.51847e-18
0.00966368
2.87272e-05
0.0541253
8.65302e-06
0.0126311
0.0133255
3.71959e-17
0.000975157
0.00044746
0.00849153
3.31284e-05
0.00806875
0.00045275
1.58881e-16
1.2137e-15
2.70027e-16
0.000384848
0.000814889
0.00113368
0.0690168
0.00320166
0.000254917
3.50323e-05
0.000496702
3.96815e-05
7.08344e-16
0.0054102
4.57586e-05
5.55335e-05
9.37685e-05
0.0658538
0.00178449
0.0231332
0.0654845
0.00113089
0.000163477
0.0547388
6.16458e-05
5.5249e-07
3.59997e-06
0.00951188
1.74365e-16
3.85879e-16
0.0641733
0.00713541
0.00460441
3.13023e-17
7.3318e-17
3.82645e-05
4.84329e-17
1.24402e-05
0.00316521
0.000582038
0.0747764
0.0072638
2.08259e-18
0.00913974
5.58922e-05
7.67787e-17
3.85488e-05
1.36873e-17
1.58088e-17
0.00547646
0.00377783
1.16938e-05
1.34291e-16
6.69234e-17
0.00125991
0.00947888
1.02786e-05
0.00726704
0.000193622
3.88605e-05
0.0386114
1.64812e-18
2.22804e-05
7.21473e-07
4.03517e-16
1.28631e-18
6.91811e-05
0.000138946
6.21535e-17
0.00967203
0.000357577
0.000148114
0.0679899
0.00817967
0.013518
0.0100438
6.41821e-06
0.0116904
3.83529e-07
4.19895e-05
4.01791e-17
3.93712e-05
3.75554e-17
0.000283454
2.99538e-06
1.76668e-15
0.00115516
0.00689659
0.000442315
5.88301e-16
5.55856e-17
3.3011e-05
8.29508e-05
5.56334e-05
3.51431e-18
0.0738151
5.27898e-05
0.00554243
3.25083e-15
0.00288035
6.42178e-05
5.4691e-16
0.00259633
0.00287839
0.00338219
6.79568e-05
0.00399614
0.0001128
1.09235e-16
9.70027e-18
7.597e-05
0.00196624
5.43208e-05
0.00409547
2.68092e-16
0.00242519
1.77928e-05
0.00418798
0.00269261
0.00215995
0.00015595
0.000371994
0.000167703
4.10996e-17
1.89652e-05
1.28254e-12
0.0016911
1.43295e-17
1.11077e-17
0.00518885
3.3649e-05
1.89978e-15
3.0415e-05
0.00146619
0.00216357
0.000165065
3.97816e-18
7.57121e-05
6.42411e-07
8.08099e-06
0.000546647
1.01292e-05
0.00434035
0.00142291
0.00279319
2.20845e-05
0.224516
1.87819
2.05938e-05
3.00632e-16
0.000594506
0.00213135
0.000884642
5.98061e-05
4.8297e-05
0.00447161
0.00246702
0.00318189
0.00155466
7.37522e-05
1.02564e-15
9.19701e-05
0.00113752
0.000107559
0.00134333
0.000238415
2.4255e-05
5.23489e-05
0.106342
0.000237745
4.92509e-06
1.47396e-15
1.58882e-16
0.00243039
0.00382848
4.11378e-05
0.000335755
0.000120816
9.08697e-16
1.6062e-16
0.000176411
0.00828553
0.000798607
0.000583847
0.000113928
4.06455e-05
2.82773e-07
0.000327659
0.000209534
0.000307505
0.000816007
0.000897392
0.0199924
0.0911274
0.00136198
3.37026e-05
2.54555e-05
8.75641e-05
0.0415292
1.22378e-16
2.08813e-05
0.000460669
0.000109212
0.000143937
0.00167629
6.35962e-18
0.00825406
0.0473144
0.000145103
0.000422329
7.97094e-05
1.32696e-18
2.28626e-17
1.04178e-05
1.56355e-05
0.00214972
0.000194961
0.000191557
0.00871209
0.00439645
0.0364926
0.000806323
7.04028e-05
1.98489e-05
7.80624e-05
0.000243408
0.00118261
3.60683e-17
0.000158922
9.84391e-18
1.044e-16
0.00660409
0.000820893
4.48303e-05
8.80731e-16
0.00641063
2.87516e-05
4.40952e-06
9.00828e-17
0.00156832
8.59395e-18
0.000505888
5.4724e-16
2.81259e-05
0.00198704
0.00920408
3.42864e-05
7.44109e-16
5.53441e-17
0.0597146
0.000821507
3.83724e-05
0.000949663
0.00145529
0.0257254
0.00690968
9.84322e-16
0.0552501
5.18521e-05
0.00256464
7.49866e-17
0.00772442
6.96799e-05
3.4261e-18
0.0112641
0.000185115
1.43153e-15
0.00307405
0.0603528
0.000584604
6.95339e-05
0.245127
6.69917e-06
0.000730206
0.00240484
0.00190421
0.00173897
5.21671e-06
0.0132936
1.91024e-05
0.0600242
0.00316864
0.0226388
3.56428e-17
0.000212499
0.105063
0.23638
1.69035e-15
6.85063e-05
0.0498172
9.05279e-18
0.0022475
0.00520785
3.68412e-05
0.00615028
0.00411763
5.96372e-05
4.11914e-16
0.00195683
0.0141804
1.61342e-16
8.23591e-17
3.85617e-05
3.27216e-16
0.00436736
3.8136e-05
0.000223726
0.006099
0.00520932
1.23042
3.61535e-17
0.0246243
0.0097001
0.0210736
0.00105464
0.00470645
8.50784e-17
0.00098014
0.00163309
1.50742e-06
0.00671308
0.0111232
0.105883
0.000320246
0.00551676
2.03463e-15
8.53621e-16
3.631e-15
0.000368406
0.000233967
7.34504e-16
6.18518e-05
1.76945e-06
0.0094685
0.00014357
0.000719841
2.72837e-06
6.0738e-17
0.00689631
1.24473e-16
3.0699e-16
6.10205e-05
8.34922e-11
5.96973e-05
0.0136952
1.45308e-17
1.20206e-06
0.0201513
0.209344
8.05921e-05
0.00878907
0.000128847
0.000679536
1.09288e-15
9.34421e-16
0.00169015
0.000845682
0.00747049
5.57714e-17
0.00627761
1.97373e-06
2.0368e-06
1.03395e-16
7.37389e-05
8.32689e-05
3.99454e-06
1.79689e-15
6.97303e-05
0.000211034
7.97667e-16
3.32595e-16
1.18339e-15
1.42101e-15
2.501e-16
0.0020787
0.000191879
0.00153738
1.06444e-16
0.00406009
1.65086e-05
2.58485e-16
0.0156963
2.5305e-16
0.000153004
1.62576e-17
0.0359324
0.00489694
0.000876466
8.96822e-06
2.46178e-05
0.0105767
2.90524e-17
0.00979677
0.000131814
9.6594e-16
0.00048755
8.0288e-07
3.31816e-05
2.5053e-15
9.97121e-05
1.13555e-16
0.00890955
5.57668e-19
0.00210185
4.91582e-18
7.01271e-05
6.55274e-05
0.00164998
0.000597735
0.000178739
6.0179e-06
0.00202662
2.91884e-17
1.80439e-17
6.51117e-07
6.30574e-05
3.30866e-05
7.99966e-06
1.99716e-15
0.000268609
0.00373322
0.0183151
5.71079e-17
0.00106098
0.00298854
9.16244e-05
0.0027914
1.75531e-16
7.71082e-18
0.00449595
0.000149245
8.71926e-18
0.000184587
0.00162854
1.20776e-17
0.00260894
0.000106106
1.22381e-05
0.0652295
9.99194e-17
7.99393e-06
1.32947e-06
2.63135e-17
3.74323e-18
5.43852e-05
2.43827e-05
6.39639e-06
0.0202083
0.00397885
5.16557e-07
0.0408436
9.49544e-05
0.00132546
0.115094
0.000230639
0.00459239
0.00450823
0.0327938
0.0583241
2.29372e-16
1.09141e-06
2.04995e-16
0.0247063
0.000271092
0.000345576
0.00141431
6.82591e-17
1.84323e-17
0.00245668
0.000576955
1.62872e-05
0.00677234
0.00283697
1.60603e-06
8.21954e-05
0.0250339
0.000727848
0.000141547
4.70561e-05
7.0124e-14
5.70138e-05
0.000181218
0.00106945
2.03866e-05
4.80922e-05
1.68263e-07
1.42396e-16
0.0001637
0.000106998
0.00540146
4.50205e-17
0.000141097
0.00958907
0.00190168
0.000293924
0.000414902
0.000265809
0.000127359
0.000424972
4.88813e-16
6.25005e-17
6.49615e-17
0.000147879
3.1305e-18
0.000397675
0.0110048
0.016351
0.0177923
7.64055e-06
8.45604e-06
0.00291791
0.00115825
0.00274759
0.00393997
0.000402333
4.6287e-05
0.000181451
4.41405e-05
0.010981
0.0564346
0.00197617
2.12393e-16
6.85483e-07
1.17964e-16
8.53868e-05
0.0011444
0.000313993
0.0023399
8.60501e-16
3.08051e-16
0.000123129
0.00237529
0.00235359
0.000784311
6.43854e-06
0.0472675
6.15468e-16
1.57978e-05
2.88784e-06
0.0199821
5.66888e-17
0.000396483
1.40458e-05
0.00104332
0.000454236
0.00159946
0.00111913
3.42693e-05
7.91551e-06
4.91388e-05
1.35235e-06
0.00547825
0.00947869
0.0100939
0.00817597
0.00526441
0.00574987
1.41027e-07
0.0001491
3.19264e-17
0.00596249
0.0047386
0.00222693
4.42956e-17
0.000118902
0.00393584
0.000245563
0.00161932
6.36431e-05
0.0146907
0.000126976
0.0406042
8.37131e-05
0.738675
7.63773e-06
3.62512e-17
1.34638e-05
2.37798e-05
3.49826e-15
2.34344e-10
0.00398832
0.00699832
0.00173296
0.000635004
0.00361415
2.00466e-16
1.24185e-17
0.0197081
2.373e-16
0.000929343
0.00115722
0.000177217
0.000323282
0.00112724
6.15069e-17
9.09783e-17
0.00816407
0.000781687
0.0923332
1.92821e-16
0.000658781
0.0819704
3.09815e-17
0.00880048
0.00277452
0.025299
1.57484e-05
0.00362269
3.49539e-05
6.77808e-06
0.00132752
3.02817e-18
0.00124474
4.22859e-05
0.000117425
0.000125724
9.13418e-06
1.88435e-05
0.00322796
0.00976346
1.24113e-16
0.00240807
0.000528249
0.000160421
0.0364098
0.0544117
0.00506592
0.00036988
0.00327957
0.455452
0.0240676
0.0262965
0.000459984
1.87642e-18
0.102591
0.00013679
2.62543e-18
1.49137e-06
0.0143126
0.000214597
0.00170413
0.000328413
0.00174658
1.03021e-17
0.00250904
0.00900466
0.00288602
0.000644614
0.000738344
4.89302e-18
8.34398e-17
0.000131012
0.00365075
1.22129e-16
0.00114524
0.000584997
0.00777836
0.000354454
0.117539
4.48526e-05
0.00118474
3.40274e-07
0.0056351
9.28751e-05
0.00109736
0.00257959
3.11178e-17
1.5731e-07
1.2363e-05
0.000137456
1.46346e-05
3.82975e-05
0.0186554
0.0101348
1.04682e-05
0.00150448
0.0835287
0.00111467
0.00400904
0.000114251
1.80585e-05
0.00371963
0.0362786
0.00874465
0.00264418
0.000182341
0.00192981
0.00336446
0.00300648
0.00371448
0.00537775
3.90009e-18
0.116453
0.0499256
0.00049298
1.00229e-06
3.03938e-05
0.00048467
3.46264e-06
0.0262074
0.00113367
6.98543e-07
0.00229757
0.000371689
5.86439e-17
0.00355447
2.14068e-17
0.00268849
2.6681e-05
0.00147977
0.00376246
9.2525e-05
0.0196603
0.000151052
6.20054e-17
0.00364012
0.00018533
0.000393681
0.00210619
0.0119464
1.57069e-17
1.77202e-18
0.000375103
0.000265423
3.50628e-10
1.07719e-16
0.000190339
7.29757e-05
9.73727e-05
8.02996e-18
9.78804e-18
0.000855405
5.18772e-06
1.83943e-05
1.82734e-05
0.000316324
5.80463e-08
3.90717e-17
4.31463e-05
7.11842e-16
2.93286e-05
5.20586e-15
4.3478e-06
4.69129e-16
0.00391113
0.103473
5.2905e-05
0.00477374
0.00166809
0.00173023
3.09424e-17
3.50243e-06
4.40234e-05
0.00844749
0.0197213
0.00286081
5.01172e-05
1.59819e-17
8.48753e-05
8.7314e-16
0.00475503
0.00957194
2.83437e-17
0.0021185
0.00282944
0.00107616
0.00353798
1.64097e-05
0.0145362
0.00186979
0.0025225
9.54321e-05
3.67509e-17
2.50718e-16
5.2793e-05
0.00560774
8.30445e-06
1.34547e-17
3.49789e-05
0.00502276
0.0002111
0.00100855
0.00101773
5.94857e-05
3.22466e-07
4.81709e-05
0.00388499
9.71739e-05
8.44757e-05
0.0284087
0.0020902
0.000838625
6.10201e-05
6.75988e-18
0.00101761
6.40762e-18
0.014575
3.07511e-16
2.58353e-16
0.0012649
5.5511e-17
0.000862891
0.000217114
4.36288e-12
6.27164e-19
0.00021518
0.000283385
1.21682e-16
0.00219587
6.95253e-06
0.000277315
0.000575202
2.32695e-05
3.92101e-18
0.00553237
0.000204782
3.06913e-17
0.0473317
6.53783e-05
3.26785e-05
0.000265236
4.84505e-18
1.62617e-05
8.89989e-17
8.78212e-05
2.07108e-16
9.57499e-06
0.000949954
0.000345494
0.00275462
0.00429587
0.00129613
1.52171e-05
0.0631751
4.19883e-06
2.97093e-14
0.00213616
0.000797104
0.00340236
1.1636e-05
2.95113e-14
0.350737
1.68138e-06
1.51008e-15
3.48049e-05
0.0231947
0.00303771
3.50924e-16
1.30516e-16
2.07105e-05
0.000593818
0.0362513
0.0021843
0.00871706
0.0117233
1.71277e-17
2.10028e-17
1.1781e-16
3.61848e-05
0.00829628
9.96817e-16
0.0747579
4.00095e-17
0.000479449
1.56144e-16
4.23176e-16
2.0372e-16
0.000377041
0.00859964
0.0181385
6.31292e-17
0.00183963
0.00450111
3.02623e-17
0.000238808
0.000990402
0.00200301
0.000400268
0.000798753
0.00750498
0.0107024
0.000592483
0.00160842
0.00266958
3.70823e-05
1.57537e-17
8.89774e-17
0.0138486
0.0115813
0.00352115
0.0475685
0.00270537
0.000171693
0.00523453
0.000184769
9.49132e-15
0.00106543
0.0222889
0.000287047
0.0203911
0.0114623
0.0343876
5.14939e-19
0.101663
0.00873768
0.00174888
0.00465293
0.0643692
0.000400091
0.00282249
4.14984e-06
7.8954e-05
0.00802516
0.00112634
3.14439e-05
1.80301e-06
0.00010124
0.0249057
0.295619
0.000156575
0.00905745
0.000292073
0.000134311
2.15496e-16
0.18848
0.00061731
0.286758
0.779477
3.27912e-06
3.56119e-17
7.58764e-06
0.000172932
0.0106438
0.00565002
0.0101964
0.0627098
0.0341521
0.00183667
1.55235e-05
0.0103254
0.0113635
1.51468e-16
0.000534552
1.12139e-16
0.000244064
0.000418606
1.56545e-18
0.138831
0.000200905
6.91084e-05
7.33699e-16
0.00025683
0.000182957
5.94356e-18
1.28193e-16
0.478086
0.0314753
0.184585
0.148247
0.00214974
2.5047e-15
0.00649052
0.00125263
2.80869e-05
9.24959e-20
0.0852975
3.7774e-17
3.25983e-06
6.97256e-05
2.19381e-17
0.0166315
4.7152e-05
0.00854181
5.30386e-05
6.45981e-05
0.00013745
0.000609525
0.00113465
0.0129708
3.36052e-06
0.001149
7.02002e-05
0.0150139
9.90604e-18
4.46408e-16
2.20251e-06
0.0134542
0.000154211
0.000165891
9.1806e-05
0.0313347
0.000501051
0.000196239
3.08583e-05
9.68839e-06
5.51096e-06
0.00304561
2.29812e-16
2.89918e-05
2.41923e-05
1.35269e-15
0.000123728
5.78957e-07
1.38232e-15
0.000212028
3.23972e-16
0.0107461
4.21378e-08
1.43715e-15
0.00191606
0.0017487
0.00953175
0.000579765
0.0102274
0.000303787
5.13687e-18
5.9322e-17
7.11892e-18
2.99928e-17
1.90189e-16
5.28129e-05
1.82139e-07
1.57202e-05
0.00946973
0.00173453
7.41798e-16
0.0175742
4.39123e-05
0.000209509
0.0145437
0.00622149
0.0122722
0.013124
0.0033139
5.11583e-18
0.323234
0.0623106
0.000811652
3.67164e-17
0.0148087
0.000911906
0.0242445
0.000102145
1.49845e-17
0.0120642
5.3928e-06
0.00677697
1.10511e-16
0.000131965
0.00756437
1.66426e-05
0.0312805
0.354235
0.00114199
0.0550954
2.43411e-15
2.75732e-15
1.55455e-05
1.67422e-06
0.103277
1.30798e-05
0.00164029
0.000477977
1.2237e-17
0.00163773
1.75436e-05
1.69649e-17
9.11403e-17
0.026287
7.74264e-18
5.73605e-05
0.0617247
1.05075e-13
0.00272598
3.58579e-18
2.30831e-15
0.00109696
0.00015321
1.74993e-15
3.42354e-06
8.5417e-16
0.00251314
0.000524413
3.04042e-17
3.28672e-16
0.000845181
5.51892e-06
0.00279616
2.30061e-16
3.6515e-06
0.000627458
9.37356e-05
5.08754e-05
0.0317415
8.15299e-19
5.66592e-05
1.55266e-16
0.00167218
0.033862
1.26456e-15
3.07887e-14
1.11709e-17
0.000169831
3.61996e-16
0.00196325
0.296284
9.66558e-17
2.77522e-06
4.15516e-05
5.36433e-18
4.43607e-16
2.79021e-17
0.000176262
6.0888e-16
0.000847648
1.33e-16
0.000105488
0.000198014
9.64878e-17
0.011426
2.21636e-16
4.10529e-17
0.00148015
0.000105605
0.00140093
0.0445734
1.68355e-16
0.000172413
0.000122822
8.5199e-05
0.000107035
2.67172e-05
9.2272e-16
4.89232e-16
4.26016e-05
1.3477e-16
4.0254e-17
1.12227e-05
1.50903e-16
8.41469e-05
0.022614
2.38747e-16
0.00617812
0.000123565
0.015512
2.03324e-05
0.000118458
4.68051e-05
0.00433573
2.79098e-05
0.00409752
0.0192724
2.19247e-05
6.13022e-05
2.54974e-05
0.000149633
0.000862266
0.000348353
0.000107081
0.0163885
7.15098e-05
0.0103824
4.65892e-06
0.878999
0.441795
0.000109328
0.0414953
8.39189e-05
0.000391571
0.0093843
8.73085e-10
0.601358
0.0440227
0.00450358
0.000623458
0.0283195
0.393365
8.95442e-05
0.0250791
0.00436735
0.00222857
0.12585
0.0440402
0.000577705
0.000947506
0.0260105
0.0487189
0.00413313
0.000308772
0.0312975
0.000205881
0.0141153
2.19018e-15
1.11572e-05
0.0066234
0.000213944
9.48253e-07
0.00392894
0.000125167
0.000129185
0.000295268
9.76363e-17
0.00783254
0.00606093
1.40081e-16
0.000442992
0.00170689
1.43272e-05
0.00407898
6.37048e-16
0.0115763
0.0632224
4.39193e-07
0.0333578
0.000140401
0.00115615
0.000144053
0.000443851
0.030407
0.00412822
0.000222795
0.0271568
0.000305502
7.63218e-05
0.000365813
7.52557e-18
2.40372e-16
0.00545367
0.0258235
0.0147121
0.00507768
0.00547332
0.00105559
0.000132973
8.03046e-05
0.000136578
1.63327e-05
1.33356e-08
0.00174185
3.22465e-07
3.58837e-06
4.82715e-06
3.72563e-06
9.31637e-06
5.69072e-05
0.0102932
5.03026e-06
2.21534e-06
0.00338751
0.000275835
2.53553e-05
2.79375e-16
0.00678899
4.28213e-06
0.00505688
0.000434649
0.00427992
0.000120407
4.34523e-05
1.10488e-05
0.000117184
7.66749e-07
0.00153558
2.34369e-16
4.71302e-05
8.90442e-05
0.0347037
0.000166343
0.00427895
1.63029e-05
0.000176674
0.000309203
0.00841154
1.86444e-07
1.54802e-05
0.00362389
1.19925e-06
1.01169e-06
0.00189676
0.000365574
4.21522e-05
0.00300274
5.98224e-05
0.00599158
0.0288542
3.62193e-05
8.11821e-05
0.00301175
0.000328732
0.00425009
7.60789e-05
0.0061519
0.000353353
0.00278308
2.85224e-05
0.000733097
0.000927815
0.00721436
6.17897e-05
0.0198677
0.00615159
0.000238184
0.00139082
0.00159315
0.00025217
2.90831e-05
0.00248
0.021909
3.37742e-06
0.0378099
0.000203481
3.78687e-08
0.000109493
0.00188486
1.01461e-05
0.000874798
0.0138308
0.0211777
0.00208542
0.00953738
6.569e-05
7.63749e-05
0.00438369
0.0145581
0.000447071
7.66762e-07
2.47807e-05
0.0827801
0.0419591
0.000104262
5.03043e-05
1.43007e-07
7.82421e-06
0.00011361
0.0337534
0.00858589
0.0158588
3.87421e-05
0.00100363
2.86283e-05
0.0193186
1.52632e-17
0.00338366
2.54064e-05
0.001048
0.0201689
7.43495e-05
0.00039607
3.61546e-05
2.65906e-05
5.98707e-06
1.67631e-06
0.0234642
0.000227743
2.24598e-07
0.0199972
2.05759e-05
3.23655e-18
0.000429493
0.000364457
1.82555e-05
0.0134193
0.000465592
2.05359e-18
5.23655e-05
1.14833e-05
1.45124e-06
5.67518e-06
2.07533e-05
4.48348e-16
2.59606e-05
3.13893e-05
0.0116937
0.00289179
0.000370307
9.35211e-10
0.000296703
0.0602308
3.80414e-05
5.8514e-16
0.0180651
0.00279929
2.16831e-05
0.0033173
1.00291e-14
5.84543e-17
0.0183954
0.00216836
0.022925
0.000772908
0.049645
0.0142086
0.000125471
0.0256703
1.52581e-05
0.0896717
0.00326636
8.30649e-17
3.56339e-05
0.255959
0.00484689
0.00100022
0.00309318
0.000161406
0.00333396
0.0308713
0.00850381
0.00290727
0.144368
0.00373154
8.22202e-19
0.0177614
0.0640651
0.0346515
0.00132777
3.29926e-05
0.000211159
6.11841e-05
0.000669885
0.0189056
0.0197425
2.29491e-08
0.0522162
0.0229597
0.00062592
4.06754e-06
0.0136609
0.00324229
0.000694336
0.0502944
0.000540902
0.000112406
0.0108042
0.0108369
0.021838
5.90192e-05
4.78983e-07
0.00161939
0.0162926
1.87269e-16
9.39063e-05
0.172996
0.00255906
0.00122574
0.00071912
4.33061e-05
0.00436265
3.46951e-16
0.0186404
1.71412e-06
0.0140907
3.28701e-05
0.00553078
1.40364e-17
0.0164545
1.96495e-11
0.000118423
0.00868541
1.2932e-05
0.00666141
0.00771616
3.31949e-05
0.0158888
0.000134237
0.0156448
0.00665546
0.00924436
0.0562963
0.00557799
0.0291724
0.0345151
0.0170805
4.35536e-05
0.00452977
0.000171001
0.000984065
0.000916959
0.00126014
0.00222395
0.000642513
8.94428e-06
3.29973e-05
2.82108e-06
0.00133865
0.00127963
0.051905
0.00325124
3.01295e-05
0.000110636
2.368e-05
0.0004522
8.79594e-06
0.0010675
0.0298425
0.00254187
0.00192783
5.23915e-05
0.0170431
5.11143e-07
3.28574e-05
1.90112e-06
0.000217384
0.0347129
0.00674209
0.000515125
0.000734057
0.00447446
0.000220112
8.8429e-05
0.00489403
2.49419e-15
1.48827e-05
8.47631e-05
2.56318e-05
4.61955e-05
4.65178e-05
0.00104395
0.00859614
0.100866
0.000240507
1.81545e-05
6.8367e-06
0.000327796
0.00834843
0.00240927
5.34885e-05
5.1618e-05
0.00319944
4.84823e-05
0.0101134
0.072597
0.0452135
0.000173021
0.00052523
8.88085e-06
0.000115222
5.57288e-05
0.00392496
0.000450972
0.000756409
0.0142546
0.00194931
0.000277467
2.30796e-05
0.000437126
0.0298278
9.24201e-07
2.94206e-18
0.0110024
6.04285e-06
0.000565126
0.0046015
2.01565e-09
0.000106287
0.000511998
0.000146285
0.0227103
4.00462e-05
0.000114347
0.000300861
0.00514217
7.80995e-05
0.00069781
0.000108754
0.00128827
0.00963571
3.63945e-05
0.0285823
4.70117e-16
5.10428e-05
0.00236638
7.5315e-05
0.000338742
0.00345626
0.00119341
5.56249e-05
8.63113e-06
0.00180652
3.64623e-05
7.59318e-05
6.72514e-05
0.0033322
1.29134e-05
0.300999
0.000144978
0.000952919
8.52061e-05
3.09073e-05
0.000283526
0.000245572
0.00370949
4.92448e-05
0.000575411
7.0756e-05
0.000904607
0.0139779
0.00279241
0.111855
0.000862462
0.0101748
0.010294
0.0124185
0.00126062
3.17882e-05
8.00951e-05
9.49128e-05
0.000101379
1.1671e-16
0.000257511
0.011603
2.01149e-15
1.01556e-16
0.003766
2.3101e-05
3.22964e-05
0.0149581
2.48444e-05
0.000112481
0.00190839
5.24132e-05
5.08675e-05
0.00159252
4.24867e-05
0.0242535
0.0133275
0.0101896
0.00191729
0.000139707
0.00158675
0.000292666
5.83815e-06
4.17875e-05
2.36544e-18
0.000101016
0.0110487
0.00692096
5.32613e-05
7.44098e-06
5.08027e-08
0.000258505
1.61527e-06
0.000342089
0.00411709
8.38827e-06
4.06654e-05
4.30448e-16
4.89763e-05
0.00276475
6.72151e-05
0.000334582
0.00227794
5.32734e-05
0.000100033
6.37051e-06
1.11193e-17
0.053396
0.000489004
0.000677052
3.63894e-05
1.64293e-07
0.00221108
2.12844e-06
0.00343701
3.81551e-05
7.97471e-18
7.63971e-19
2.77495e-05
0.0194698
0.00321329
0.0241637
0.00158776
0.0511688
0.000104832
2.363e-06
0.000236549
3.70522e-18
0.000886865
7.56776e-05
6.40456e-06
0.000103027
5.08974e-05
0.0193091
0.000441759
0.00232772
0.00584026
7.27096e-05
0.010869
0.00359673
5.16441e-05
0.000933678
0.00317896
0.0296825
0.000303255
2.22245e-17
0.0634257
0.00890398
0.00652369
4.19095e-05
0.062473
0.000271152
0.0151763
3.23231e-05
0.0172173
0.000198004
8.75377e-08
5.95432e-06
9.33991e-06
5.49453e-06
0.0403813
0.0145363
0.01458
1.51754e-06
0.00232072
0.000107139
1.01e-06
0.000941831
0.000103833
1.7667e-06
6.22401e-06
3.49875e-07
0.000130963
3.06706e-07
0.0361549
0.00307849
0.000346464
5.98395e-16
3.70559e-15
0.00169339
0.000456379
0.0015157
0.000732975
1.35736e-06
0.0140787
0.000252047
0.000667966
0.0020598
0.00125636
0.000132138
7.50978e-05
0.000175909
4.41898e-05
1.8064e-06
1.3526e-05
0.000108555
0.000672638
0.000102953
7.9029e-07
0.0167138
0.00021771
0.000574499
2.40881e-05
5.52351e-05
0.000489487
0.00695664
0.00289121
0.000593845
0.000214274
7.1617e-05
5.54127e-06
0.00433223
9.41717e-06
0.00751489
0.000392276
2.47672e-05
0.00186971
0.0959741
5.45452e-05
0.000193597
0.000518121
3.77236e-05
3.84371e-05
1.82899e-06
0.000199675
1.62914e-05
0.0013744
0.00370766
0.000581872
6.79665e-05
7.64702e-07
0.000464181
0.00949895
5.92319e-07
0.000140635
8.68909e-06
2.4701e-05
0.000369176
0.000182196
2.15792e-05
0.00029236
4.71328e-08
0.000101399
7.73153e-13
3.31121e-17
0.000198945
0.120194
7.17781e-06
0.000564536
0.0002255
0.000105564
0.0117709
8.44637e-06
0.00274318
0.000120902
7.96677e-05
0.000524809
1.84678e-05
0.000206008
1.65754e-06
3.84891e-06
0.000108768
0.000122876
0.0185006
0.000601932
0.000357363
0.000355745
3.40029e-06
4.47076e-05
0.000179988
0.00262754
3.06216e-05
1.15013e-16
2.99769e-06
0.00116764
1.47479e-05
0.0124786
0.000291119
8.41863e-08
0.000162236
0.000126899
0.0846342
0.000381243
6.78633e-06
1.08349e-17
8.43825e-19
0.00020854
0.000597846
0.0266815
0.00858176
1.46512e-15
3.08427e-05
0.0377573
0.0398592
6.33991e-19
0.0179863
0.0059169
0.000393954
0.000130101
6.77561e-17
1.60653e-17
0.000317616
9.91706e-16
0.00429877
1.50588e-05
0.000162401
2.67788e-05
5.70112e-05
0.00601898
7.76064e-05
3.91139e-05
3.91009e-05
4.45908e-18
0.000197312
7.52208e-18
1.00637e-15
1.00166
0.000184276
0.0194154
0.00306355
1.08991e-05
1.16901e-16
0.0154617
0.00188616
1.98943e-05
1.61942e-05
0.00330875
5.44033e-16
5.38232e-06
0.000396664
1.69726e-05
0.00222592
0.000556079
0.000468054
0.000534441
5.93316e-06
6.98633e-05
0.0196136
0.00283194
0.000592473
3.58331e-17
0.00355497
9.61692e-05
9.35195e-05
0.00025074
0.00931916
0.0126037
0.00410066
0.000756968
0.000178764
0.002535
0.00190097
0.00202227
0.000460837
0.000229044
1.35684e-18
0.00366376
0.00169197
0.000124068
0.000105876
0.000751669
0.00157447
1.11726e-16
7.5734e-16
0.0226906
1.1094e-05
0.000909276
0.000302242
0.00330228
0.00987086
3.50179e-07
8.86233e-05
0.00562295
0.000153866
0.000125253
7.26208e-05
4.36168e-06
1.27019e-05
1.75156e-05
0.00360779
0.0130038
2.97304e-19
0.00604144
0.00158971
0.151337
0.000167192
0.00140357
3.06464e-05
0.00909058
1.1448e-05
8.50885e-05
2.58483e-05
0.0198135
1.20522e-05
0.000511633
0.000683918
1.9609e-05
0.00675113
6.50381e-05
0.00220891
0.016851
0.0068906
5.47302e-05
3.78483e-05
0.0122993
0.000136024
4.42644e-05
0.00190078
0.000773168
0.00188883
2.09838e-05
0.000111222
0.00466971
0.00326913
6.47311e-05
2.78123e-05
0.000257387
0.00189268
5.13265e-18
7.59098e-05
2.54483e-06
0.000929601
0.0151233
0.0028473
0.00156231
0.00331813
0.00049223
0.0314232
0.00132298
0.00744878
0.000252903
1.03816e-05
0.000235499
2.74127e-05
0.000447706
5.88042e-06
1.22293e-17
0.00119307
0.000153055
0.0374655
0.0007672
0.0078218
5.21103e-05
0.00746462
0.000335537
0.0149112
0.0174306
0.00140391
0.00971624
1.05837e-05
0.00037327
2.80534e-06
0.000602579
0.000217954
0.000352111
6.16859e-05
0.000307621
0.000100677
0.00264281
2.11378e-05
5.5971e-05
5.96061e-05
4.50736e-16
0.0266272
0.0001615
1.60299e-05
3.39694e-05
3.11131e-05
0.000138294
0.00542301
8.63726e-05
3.26645e-07
3.44391e-05
0.0015985
0.00312669
0.00025264
0.0156667
0.0132043
4.43477e-17
0.00020898
0.000163978
0.00010019
0.000288819
0.000472665
0.000452881
2.3824e-05
0.00093299
0.000451435
0.00528305
9.55378e-17
0.00115993
0.000542291
0.008386
0.00527114
0.00877639
2.0637e-05
0.0541596
0.0219984
0.0971498
2.07557e-05
0.000146064
3.70838e-05
0.000283522
0.00673978
0.0100167
0.0302694
0.0246962
9.14982e-06
1.58683e-05
0.00773665
0.000399991
0.0174727
0.301259
0.0179938
0.000345158
0.000448419
0.01595
0.00160477
0.000242522
0.000725557
0.162446
1.37164
6.94916e-05
1.02987e-06
6.39614e-05
0.00340642
0.00104775
0.00185338
0.00269328
0.00196905
0.00212891
0.000883898
2.80196e-06
3.11704e-05
0.000207739
1.03389e-07
6.0126e-05
0.000444743
2.79844e-05
9.01022e-07
0.0032166
0.0108798
0.00402979
2.45672e-07
1.08806e-05
3.08675e-05
1.97284e-07
6.59635e-05
3.00659e-05
0.00875914
1.01037e-17
0.0311734
0.00010795
0.0484534
0.0149858
0.000250371
0.00215985
1.01347e-05
0.00237937
0.000137211
0.000871755
0.0836914
1.10416e-05
3.57093e-18
5.79293e-10
4.33112e-05