/*--------------------------------*- C++ -*----------------------------------*\
  =========                 |
  \\      /  F ield         | OpenFOAM: The Open Source CFD Toolbox
   \\    /   O peration     | Website:  https://openfoam.org
    \\  /    A nd           | Version:  10
     \\/     M anipulation  |
\*---------------------------------------------------------------------------*/
FoamFile
{
    format      ascii;
    class       surfaceScalarField;
    location    "3.2";
    object      phi;
}
// * * * * * * * * * * * * * * * * * * * * * * * * * * * * * * * * * * * * * //

dimensions      [0 3 -1 0 0 0 0];

internalField   nonuniform List<scalar> 
214403
(
-0.00569163
0.00436378
0.000241386
0.00108646
-0.00272345
-0.00920359
0.000751523
0.0111755
-0.00846186
4.5087e-05
-0.000110616
0.00852739
0.00749103
-0.0050326
-0.0125575
0.0100991
0.0101448
-0.0128166
0.00303324
-0.000361416
-0.00440223
0.00458734
-4.69281e-05
-0.000138183
-0.000709835
-0.00134999
-0.007602
0.00966183
-0.0139651
0.00796841
-0.00210182
0.00809853
-0.0193359
0.013639
0.0137641
-0.00806718
0.0116849
0.00138722
-0.0130961
2.40157e-05
0.00417058
-0.00825457
0.00171354
0.00237045
-0.00853221
0.00266555
0.00443867
0.00142799
0.000388461
-0.0094926
0.0114539
-0.00234981
-0.00820831
0.00822969
-2.13732e-05
0.00159013
0.00984456
-0.0126337
0.00119896
-0.0098589
0.00823154
0.00248034
-0.000852979
-0.0100232
0.00974874
0.000274463
0.00328571
-5.22234e-05
-0.000749654
-0.00248383
0.0129233
-0.00772223
-0.0171942
0.0119931
-6.43966e-05
-0.00262268
7.6839e-05
0.00261023
0.00540481
-0.00527684
-0.000127976
-0.01011
-0.00349551
0.00347635
0.0101291
-0.00188493
0.0112556
-0.00906724
-0.000303415
0.00553869
0.000565652
0.00191897
-0.00802331
-0.00847321
-0.00410663
0.010967
0.00161284
0.00777381
-0.00984167
5.86203e-05
0.00200925
0.00265284
-0.00230411
0.00871883
-0.00906755
0.00640473
0.00835939
-0.0100712
-0.00469291
0.00922127
-0.00577469
-0.000263058
-0.00318352
-0.0049519
0.0050494
-9.75045e-05
0.00199353
-0.00418566
0.0112479
-0.00905581
0.0115436
0.00055275
-0.00199154
-0.0101048
-0.0047481
-0.00487409
0.00499055
0.00463165
-0.00098059
-0.00553749
0.0049037
0.00161437
0.00361591
-0.00240495
-0.00776305
0.00655208
-0.00139797
0.00698708
-0.0025233
-0.00306581
0.0133183
-0.000360756
-0.0129575
-0.00563947
0.011044
-0.00540452
0.00102014
-0.0122083
0.00708538
0.00410279
0.00201584
-0.000812941
0.00495957
-0.00616247
0.00467317
-4.26055e-05
-0.00463057
0.00847021
-0.000189301
0.0015046
-0.00978551
-0.0106989
0.00133438
0.0113804
0.000743082
0.000730362
0.00717682
-0.00865026
-0.00345299
-0.0223486
0.0217035
0.00409808
0.00483138
0.000874126
0.00109049
-0.006796
0.00349785
0.00264908
-0.00856523
0.0024183
0.0109906
0.0065704
-0.0120223
0.000993896
0.00937595
-0.00189964
0.00154498
-0.00576295
-0.00340006
0.00761802
0.00262255
0.00403106
0.00120261
-0.00785622
0.0015236
-0.00114609
-0.00350747
0.00312996
0.00580399
-0.0105061
0.00732468
0.00985049
-0.0092837
-0.00315824
0.00259145
0.00899239
-0.00164342
-0.00707067
0.00957818
-0.000390678
-0.00211683
0.00727325
-0.00932355
0.000118013
0.00193229
-0.0067898
0.000450641
0.0108487
-0.0045095
-0.0126778
-0.0119877
0.0100282
0.0146373
-0.00676221
0.00679869
0.00133335
-0.00136983
0.00105873
-0.00863387
-0.00724303
-0.000150241
0.00376469
0.00362858
-0.0111247
0.00477346
0.0071775
-0.00082628
0.0130621
-0.0105237
0.000650363
-0.00318884
0.000596645
0.000224141
-0.00848675
0.00766597
0.000460296
-0.00242274
0.0119581
-0.00999565
-0.0292303
0.00318015
0.00325539
0.0227947
-0.00263006
0.00780325
-0.00247502
-0.00269817
0.00389483
-0.00203704
-0.00830924
0.00645145
0.000941405
0.0059969
-0.00759424
0.000655927
-0.000117563
0.00708138
0.00243792
-0.00940174
-0.00140351
-0.000225747
-0.00298909
0.00461834
-0.00760473
0.00830675
-0.000311675
-0.00039034
0.000278239
-0.0075081
-0.00537368
0.00476107
0.00144501
-0.000832397
-0.0138848
-0.000878344
0.00675615
0.00800698
-0.00419451
-0.00178629
0.00356558
0.00241521
0.00622364
-0.0208787
0.00288332
0.0117718
-0.00322248
0.00648211
-0.00354169
0.000282064
0.00459972
-0.00357949
0.000455669
-0.0014759
0.000108292
-0.00881544
0.00870715
3.20473e-05
0.00712848
-0.00716053
0.00621964
-0.00121441
0.000820769
-0.005826
-0.00383985
0.00548015
0.00181627
-0.00345657
-0.00266224
0.0113785
-0.00273788
-0.00597841
0.00542591
-0.00928447
-0.000327877
0.00418644
0.00611324
0.00643635
-0.0125496
0.00901592
-0.010138
0.00260872
-0.00148664
0.000870253
-0.00162675
0.0117995
-0.011043
0.00035256
-0.00188466
0.00842099
-0.00688888
0.00206945
0.0177887
0.00507664
-0.0249348
-0.0154784
0.0135982
0.00884688
-0.00696672
0.000709886
0.00552062
-0.00740644
0.00117594
0.00735162
0.0081299
-0.00263925
-0.0128423
0.0134374
-0.00817059
-0.000245152
-0.0050217
0.0005979
-0.00175571
-0.00551407
0.00667188
-0.00557816
3.11884e-05
0.00554697
0.00818132
0.00027701
0.00055759
0.0102088
0.000864403
-0.015575
0.00450175
-0.00823211
0.00179736
0.00145303
0.00498172
-0.00526691
0.00130647
0.000647698
0.00331274
0.0012463
0.000906068
-0.010718
0.00856561
-0.0021805
-0.0126803
0.00808566
0.00677515
0.0051325
-0.00608486
-0.0039605
0.00491286
0.00826112
-6.30058e-05
-0.00825804
5.99221e-05
0.0062838
-0.00888226
-0.00305893
0.0056574
0.0162789
-0.0049289
-0.00253599
-0.00881401
0.00922173
-1.99212e-05
-0.00845549
-0.000746314
-0.00481682
0.0056511
0.0117345
-0.0125687
0.0101385
-0.00353086
-0.00975717
0.00314953
0.00189582
-0.00279553
0.0120751
-0.0111754
-0.0132609
0.0120664
0.0114644
-0.0102699
0.000608982
-0.0104637
0.0040257
0.00582899
0.0131884
-0.000688631
-0.000297937
-0.0122018
0.00932346
-0.00181093
0.0018088
-0.00932133
-0.0110956
-0.0101338
0.0119807
0.00924869
-0.00205391
0.00589145
0.00159871
-0.00543625
-0.00448698
0.000244789
0.00869635
-0.00445416
-0.000996352
0.0113597
-0.0105549
0.000191573
-0.0100316
0.0093156
0.00181256
-0.00109652
-0.000333884
-0.00584727
0.013955
0.00180685
-0.0059927
-0.00439774
0.00858359
-0.00474634
6.08018e-05
0.00468554
0.00145623
0.00662131
-0.00612533
-0.00195221
0.0107328
-0.00618439
-0.00165166
-0.00289673
0.000104869
-0.00325406
0.00314919
-0.0059762
-0.00161472
0.00225872
0.00533219
0.000650854
0.00358286
-0.00800826
0.00377455
0.0133366
-0.00120517
0.00520943
-0.0173408
0.000932359
-0.00122144
-0.0158412
0.0161303
0.00100814
-0.00457333
-0.0059816
0.00954679
0.000377557
0.00824981
-0.000446042
3.32811e-05
-0.00494468
0.0049114
0.00997399
-0.00371289
-0.00445426
-0.00603773
0.00503411
-0.00497258
0.0110321
-0.00918616
-0.00112941
-0.000716526
0.00109963
-0.00519637
0.00227259
0.00182415
-0.00894995
-0.00271924
0.00182934
0.00983985
0.00749608
-0.0121425
0.00802493
-0.00337855
-0.00031877
0.0110339
-0.0110413
0.000326203
-1.27829e-05
0.0104365
-0.0103374
-8.63125e-05
-0.0139715
0.0111624
-0.00895996
0.011769
0.0116303
-0.0112705
-0.000359789
-0.0108586
0.0145112
-0.00261794
-0.00103465
-0.00965916
0.00234209
-0.000742367
0.00805944
-0.0157265
0.00118844
0.010123
0.00441507
0.00278165
-0.00379842
0.0021164
-0.00395647
0.00449684
0.00723607
-0.00777644
-0.00416409
-0.00186973
0.00238345
0.00365038
-0.00570709
0.00372798
-0.00715651
0.00913562
0.00170923
0.000137992
-0.0127058
-0.00573187
0.00571824
1.36353e-05
0.00625207
-0.00602301
-0.000229065
-0.00930821
-0.000606759
-0.00245352
0.00229109
-0.0122588
0.0142482
-0.00428042
0.00549363
0.00940845
-0.0119886
-0.00291351
0.0104578
-0.0113772
0.000323028
0.000596369
0.00573073
0.00146305
-0.0058982
-0.00129558
-0.00886795
-0.000477946
0.011637
0.00519406
-0.000374229
-0.00633192
0.00151209
0.00585384
-0.00501028
0.00577281
-0.00661637
-0.00995848
0.00188822
0.0135639
-0.00340289
-0.00469498
0.0156063
-0.00750842
-0.00483039
-0.00531459
0.00127704
0.00142442
0.00382749
-0.0100823
-0.00689446
-0.000590052
0.0110954
-0.00361087
0.00106066
0.0017331
0.00609046
-0.00888422
-0.00321373
0.00786469
-0.00465096
0.00255062
-0.0123668
0.0045016
0.00734449
0.00516149
-0.0110816
-0.0102911
0.000125852
0.0128208
-0.0026555
0.0017933
0.00153774
0.0048049
-0.00813594
0.00728128
-0.00731718
3.58915e-05
0.00260528
-0.000984627
0.00874507
-0.0103657
0.00914596
-0.00288577
0.00438745
-0.0106476
0.0172986
-0.00559884
0.0128985
-0.0245982
0.00275267
0.0051263
-0.00212964
-0.00574933
-0.0078511
0.00322895
0.00411387
0.000508281
0.00562433
-0.00423839
-0.000117867
-0.00126807
-0.0035463
-0.00447799
0.013059
-0.00503469
-0.00630302
0.00819226
0.00325838
-0.00514762
0.0094995
-0.000518434
-0.00312723
-0.0144032
0.00953585
-0.00083974
-0.0137564
0.0127047
0.00591336
-0.00486169
0.00877214
-0.00990531
-0.0014235
0.00255667
0.00488137
-0.00887609
-0.00461371
-0.00513782
-0.00471748
0.00266811
0.00718719
-0.00731992
0.00228285
0.00724875
-0.00221168
0.00860718
-0.00818817
-0.00564883
0.00522982
5.3498e-05
-7.45207e-05
-0.0080856
0.00810663
0.000206247
-0.00709356
-0.000261887
0.0071492
-0.00204465
-0.0121095
0.00190607
-0.00700728
0.0062983
-0.0011971
-0.00467767
-0.00196529
-0.000676962
-0.000119805
0.0116703
0.000134356
-0.0280213
0.0197245
0.014289
-0.0059922
-0.00837998
0.000575473
0.000282934
0.00752158
-0.00167141
0.0263096
-0.0309835
0.00634536
0.00133593
0.0020602
-0.00462294
0.00122682
-0.01794
0.00966425
0.00126573
0.00700999
-0.00019886
-0.0117918
-0.00170379
0.0136945
-0.00480482
0.0177632
-0.0123167
-0.000641721
0.00799162
0.0115812
-0.0107286
-0.00884425
-0.00946312
0.00903541
0.0111889
-0.0107612
0.00375766
0.00524964
-0.00653956
-0.00246773
0.00367232
-0.00246177
-0.00588822
-0.0188957
-0.000753717
0.0154183
0.0042311
0.00564512
0.000879073
-0.00329524
0.00571623
0.00767935
-0.00708012
-0.00631546
-0.00945363
0.00210726
0.00920572
-0.00185935
0.00110347
0.00301144
0.0103963
-0.0109648
0.0107998
0.00104862
-0.00088361
0.00689054
0.00541559
-0.00487289
-0.000190503
-0.00137425
0.00643765
-0.00721871
-0.00146325
0.00404107
-0.0138683
0.00589074
0.00393648
0.000408269
0.00752841
-0.00832694
0.000390263
-0.00286307
0.000554516
-0.0026642
0.00497276
0.0116244
-0.00831183
0.000359798
-0.00662641
-0.00519304
0.00698407
0.00483537
0.024882
-0.0266453
0.0087561
-0.00699278
-0.00488103
0.00606424
0.00244255
-0.00362576
-0.0113858
0.00490794
0.00989903
-0.00342114
-0.00474735
0.00688955
0.00886121
-0.0110034
0.013236
-0.0050797
-0.00876413
0.000607849
0.000228626
-0.00319754
0.00777456
-0.00480566
-0.00135063
0.00133349
-0.010274
0.00957769
0.00308192
-0.0102542
-0.00240538
0.0120536
-0.00988665
-0.00264488
0.00248294
0.0036619
-0.0087061
0.00256126
-0.00504928
-0.00917605
0.00818513
0.00604021
-0.00151357
-0.00393219
-0.00118065
0.00488683
-0.00519414
0.011187
-0.0108797
0.00119402
-0.0135628
0.0123687
0.00457067
-0.00600647
0.00391874
0.00256722
0.00149592
0.00210301
-0.00616616
-0.000281505
-0.0114199
0.0117014
-0.00633479
0.000840952
-0.00205586
0.00754969
-0.000775723
0.00876528
-0.0079661
-2.34484e-05
-0.00588401
-0.00313671
0.00341283
0.00560789
-0.00217394
-0.00522364
-0.00480637
-0.00707358
0.00589689
0.00598306
0.000271122
-0.00725143
0.0123491
-0.00507639
-0.000657793
-0.00661487
0.00675853
-0.00067212
-0.00492466
-0.00116175
-0.00104714
0.00923975
-0.0115375
0.00334484
0.00595398
0.000229925
0.00289836
-0.00908227
-0.000220298
-0.00489574
0.00236593
0.00275011
-0.00344824
0.00447845
0.00860245
-0.00963266
-0.0120669
-0.00310519
-0.003357
0.0110329
-0.0108244
0.000293213
0.00335954
0.00717165
0.00100901
-0.00369512
-0.00650757
0.00919368
-0.00485866
-0.00948463
0.00239388
0.0119494
-0.00432254
-0.00477775
0.00497599
0.0041243
-0.0112325
0.0108158
0.0114536
-0.0110369
-0.00155005
-0.0027165
-0.0081759
0.0124424
-0.0112257
0.00109771
0.0114155
-0.00128744
-0.00196148
0.00518097
-0.00321949
-0.00453546
0.00838322
-0.00631046
0.00246269
-0.000175751
0.0146803
-0.00549872
-0.00900581
-0.0053223
-0.00257094
0.0106431
-0.00274988
0.0016845
-0.00442405
0.0100087
-0.00726912
0.000473903
0.00671454
-0.00117628
-1.98497e-05
-0.0107059
0.0107015
2.42361e-05
0.0125652
-0.00222803
-0.0183664
0.00802924
-0.0116065
-0.00113399
0.014487
-0.00174656
-0.0062957
0.00951308
0.000778995
-0.00399638
0.00564449
-0.0055979
-4.65903e-05
-0.00658686
0.000649289
-0.00564757
0.0115851
-0.00944398
0.0130157
-0.00268087
-0.000890865
0.00589366
-0.00245898
-0.00710765
0.00367297
-0.0113954
0.011469
-7.363e-05
0.00940289
-0.0136475
0.00108892
0.0031557
-0.0105769
-0.00290442
0.018113
-0.00463169
0.00791007
-0.000349026
-0.00164536
-0.00591569
-0.0044697
-0.00758102
0.0169376
-0.000780948
-0.011139
0.00672584
0.0174728
-0.0194868
-0.00185824
0.00387216
0.00482385
0.00230147
-0.00533202
-0.00514446
0.00535258
-0.000208116
-0.00199285
0.0111741
-0.000726803
-0.00845447
-0.00244822
0.00290554
0.00978193
-0.0102392
0.00647954
0.0152587
-0.00886564
-0.0128726
0.0112212
-0.0134585
0.00427926
-0.00204199
0.00992456
0.000118899
-0.0100435
0.000170983
0.00967366
-0.00984464
0.0109483
-0.0132315
0.0116861
9.08784e-05
-7.98158e-05
0.00883641
-0.00884748
0.000179989
0.0156182
-0.0155736
-0.000224595
-0.00130552
-0.00389825
-0.00792549
0.0131293
-0.00487183
-0.00288201
0.00096804
0.00926642
-0.016059
0.0058245
-0.00767642
-0.00201106
0.00822877
0.00145871
-0.00935131
0.0103118
-0.00274689
0.0017864
0.00142999
0.00744428
-0.00253304
-0.00634123
-0.00353017
0.000841233
0.00606864
-0.0033797
-1.76635e-05
0.00282717
-0.00357986
0.000770359
-0.00390147
0.00957496
-0.00554991
-0.000123573
0.00282627
-0.00898989
-0.0052318
7.37149e-05
-0.00838713
0.00831341
-0.00318526
-0.00305538
0.00141601
0.00482464
0.00464617
-0.00268035
-0.00196581
0.0116446
-0.0115808
-0.0023506
0.00228682
-0.00108111
-0.00706547
0.00653078
0.0016158
-3.07071e-05
3.94223e-05
0.00642998
-0.00643869
0.00320967
-0.0026401
-0.0102058
0.00963624
0.00740574
-0.000189765
-0.00721597
-0.0107832
-0.00698367
0.0103929
0.00737392
0.00620238
0.00965692
-0.0166402
0.00592566
-0.00212739
0.00334544
-0.0071437
-0.00240365
0.00240493
-0.0133238
0.0133225
0.00365955
-0.0072253
-0.00701803
0.0105838
-0.000744066
-0.00165436
0.00778128
-0.00538285
0.00541849
-0.00665822
0.00241322
-0.00117349
0.00305963
-0.00507352
-0.00490351
0.0069174
-0.00960667
0.0108109
-0.00285795
0.00165376
0.0111383
0.0143084
-0.0157623
-0.00968447
-0.00861546
0.00858509
3.03702e-05
-0.00100292
0.0101018
-0.0125753
0.00347646
0.000363135
-0.000597938
-0.00977558
0.0100104
0.00940356
0.000394438
-0.010819
0.00102103
-0.00414242
-0.0070003
0.00880385
0.00233886
-0.0100062
0.0141704
-0.00501899
0.000854787
-0.00399761
-0.00490894
0.00291384
-0.000585218
-0.000110399
-0.00690817
0.00760379
-0.0226041
9.92451e-05
0.00198443
0.0205204
0.00089053
-0.00571738
-0.00295938
0.00778622
0.0141189
-0.00117049
-0.00457832
-0.0083701
-0.00247851
-0.00541835
0.00101932
0.00687753
0.00407113
-1.19598e-05
-0.00405917
0.00670098
0.00353518
-0.00223127
-0.0080049
0.00515334
-0.00407262
0.0101118
-0.0111925
0.000312361
0.0105784
-0.00348996
-0.00740083
0.00254777
0.00366902
0.00790212
-0.0050184
0.000369306
0.00464909
-0.00655417
0.000941848
0.00173169
0.0010948
-0.00902593
0.00619943
-0.00857723
0.0125601
0.00377375
0.0129183
-0.00271743
-0.0139746
-0.0083265
0.00814745
-0.0129089
0.013088
-0.0012297
-0.00616896
0.0021575
0.00524116
-0.00686529
0.0129785
0.00390293
-0.00453544
0.00101356
-0.00038104
-0.0042603
-0.0135139
0.00422291
0.0135513
0.00883554
-0.0088127
-9.93951e-05
7.65552e-05
0.00720371
-0.00844415
0.00179136
-0.000550917
0.00182778
0.00721486
-0.0128445
0.00380189
3.3393e-05
0.00615262
-0.00618601
0.00401602
-0.0102935
0.00810531
-0.00388466
0.0104498
0.00882073
-0.0153859
0.00294757
-0.00304845
-0.014083
0.0141839
-0.00424511
0.00701252
-0.0141324
0.011365
-0.0100819
0.00802175
0.0104954
-0.00843522
-0.00626911
0.00858882
-0.00555029
0.00323058
-0.001361
0.00593655
0.000966698
-0.00554225
0.00291879
-0.00425813
0.00439072
-0.00305138
0.00567986
0.00211458
0.00186846
-0.00966291
0.0157548
-0.0106782
-0.000669739
-0.00440681
1.20649e-05
-0.00763536
0.00762329
0.00481965
-0.00704477
-0.0216221
0.0238472
-0.000982294
-0.0104365
-0.00314285
0.0145616
-0.00063028
-0.0047631
0.00539338
0.00146507
0.00693074
-0.00112695
-0.00726886
-0.00192017
-0.00694085
0.00559818
0.00326285
0.00553303
-0.0046369
-0.00813916
0.0137635
-0.0107297
0.0031114
0.00329703
-0.00640844
0.0105095
-3.23871e-05
-0.00120883
-0.00926823
-0.00204553
-0.00348109
0.00552662
0.00369299
0.0024547
0.0208516
-0.0250987
-0.0088222
0.0130693
0.00317183
0.00675899
-0.00516867
-0.00476215
-0.00722649
0.0139412
0.00918533
-0.0159
0.00830661
0.00288009
-0.00110336
-0.0100833
0.0134913
-0.00899899
0.00580296
-0.0102952
-0.0076952
0.00353362
-0.00976349
0.0139251
-0.012446
0.0222392
-0.00869614
-0.00109704
-0.000346916
-0.00525311
-0.0072397
0.0128397
0.0100443
0.00416523
-0.0117746
-0.00243485
0.00549171
-0.0146497
0.00923245
-7.44185e-05
-0.0126735
-0.000476858
0.00827016
0.00488019
-0.00256123
0.00663426
0.0028701
-0.00694313
-0.00159635
0.00640225
0.00517307
-0.00997896
-0.0134849
0.00692277
-0.000613103
0.00717525
0.00118698
-0.00356885
0.0071011
-0.00471924
0.00574042
-0.00288675
0.00204885
-0.00490252
0.00545879
0.00106502
0.0005409
-0.00706471
-0.00796683
0.00854881
0.00316892
-0.0037509
-0.00191096
0.0101889
0.0001917
-0.0084696
0.00825246
-0.00484593
-0.00318131
-0.000225221
0.00704974
4.53321e-05
-0.00709507
0.00515033
0.0039879
-0.000906427
-0.0082318
0.00243426
0.00638591
0.00540905
-0.0142292
3.09852e-05
-0.0115229
0.0114919
-0.00602458
0.0232079
-0.00340122
-0.0137821
-9.09596e-05
0.00864716
-0.0085562
-0.000572953
-0.00619218
0.00111194
0.00565319
-0.0113578
0.00578913
0.00442542
0.00114325
0.00232901
0.00189912
-0.0132645
0.00903634
0.00669832
0.0105783
-0.00395255
-0.0133241
0.0101994
-0.00348786
-0.00976106
0.00304951
-0.0126746
0.00725585
0.0194299
-0.0140112
-3.22896e-05
0.00497711
-0.00497754
3.27256e-05
-0.00514377
0.00509185
5.19168e-05
-0.0128576
0.000181953
0.00544912
0.00147195
0.00311593
0.00854549
-0.0131334
0.00668521
-0.00795323
0.00513307
-0.00386505
-0.0065962
0.00577808
-0.000219651
0.00103777
-0.00134035
-0.0108195
0.0137923
-0.0016324
-0.00486175
0.00233883
0.00769703
-0.00517411
0.00830206
-0.00319681
0.00121289
-0.00631814
-0.00543074
-0.000945843
0.00635595
2.06274e-05
-0.000961673
-5.08645e-05
0.00913728
-0.00812475
0.00111206
-0.000954721
0.00895114
-0.00910848
-0.00808596
0.0113005
-0.0118606
0.00864609
4.3293e-05
-0.0101635
0.0101202
-0.00361961
0.000308843
0.00916302
-0.00585226
-0.00687851
0.00804361
-0.010972
0.00980686
-0.00706896
0.000541388
0.00212983
-0.00328901
0.0089397
0.000504288
-0.00615497
-0.00237675
0.000336363
-0.00399734
-0.00350747
-0.0114409
0.0114939
0.00345447
-0.00509259
-0.000606439
-0.00127898
0.00697801
-0.0174529
0.00588882
0.00175845
0.00980568
-0.00548215
0.0126938
-0.00634679
-0.000864871
0.0038099
0.00150102
-0.00768767
0.00752629
0.00763656
-0.0151628
0.00105338
0.0167155
-0.00387074
-0.0138981
-0.000214542
-0.000303453
-0.00750201
0.00802
-0.00803424
0.0131783
-0.00530888
0.000164836
0.00757834
-0.00476773
-0.00687032
0.00405971
0.00193342
-0.000259686
0.00236697
0.0117435
0.00325062
-0.0169198
0.00192568
-0.00820577
-0.00102911
0.00267437
0.00656052
0.00302441
-0.00338332
-0.00455003
0.0140335
-0.00944202
0.00736721
-0.0119587
-0.00157951
0.00907993
-0.015705
0.0082046
0.00537387
-0.00681274
-0.000687524
0.00212639
-0.00597534
-0.00208024
-0.000201167
0.00825674
-0.00445178
-0.00418198
0.00863375
0.00112605
-0.0120704
0.0106853
0.000259045
0.00454957
-0.00441821
-0.00458313
-0.00761221
0.00963375
-0.00182736
-0.000194184
0.0107405
0.00294868
-0.011554
-0.0021351
-0.00417624
-0.00611337
-0.000715074
0.0110047
0.00699947
-0.00213034
0.00811507
-0.0129842
-0.00768139
-0.000404567
-0.00902212
0.00484014
0.0011676
-0.0101491
0.00324756
0.0057339
0.00299808
-0.0107374
0.0058855
0.00185381
0.00162812
0.000405333
-0.00811703
0.00608358
0.00121149
0.00520643
-0.000360592
0.00917621
-0.00181306
-0.00700256
-0.00358826
-0.000390715
-0.00335713
0.0073361
-0.00213106
-0.0028703
0.0054881
-0.000486747
-0.00837587
-9.73355e-05
-0.0139597
0.00502509
0.00733825
0.0200672
-0.000187408
0.00277041
-0.0226502
-0.00891468
0.0137759
0.0028219
-0.00768308
-0.00253138
0.0013659
0.00864759
-0.00748211
0.00103727
0.00294325
-0.00227655
-0.00170398
-0.015131
-0.00314374
0.0130373
0.00523752
0.000339089
0.00650187
-0.00130792
0.000214035
0.00320635
-0.0100782
0.0066578
-0.00617494
-1.99489e-05
0.00227678
0.00391811
-0.00871762
0.0107761
-0.00171935
0.00491765
-0.00443324
-0.000484409
-0.00719955
0.00100126
-0.00559463
0.0117929
-0.00327805
0.00493495
-0.00380615
0.00214926
-0.00706253
0.00795412
-0.00328615
0.00239457
0.00311744
-0.000515866
-0.00728802
0.00468644
-0.0031601
0.0198027
-0.0266488
-0.00279075
-0.00194762
0.00190719
0.00283118
0.00922992
-0.0144282
-0.000652334
0.00585065
-0.00385474
0.00287597
0.00495931
-0.00398054
-0.00116023
0.00609885
-0.0016721
-0.00326652
-0.0068549
0.00152031
0.00160379
0.00373079
-0.00393456
0.000336633
0.00359793
0.00881593
-0.00419619
-0.00447432
-0.000145423
0.00066755
0.00453196
-0.00688063
0.00168112
-0.00471871
-0.0057168
0.00583072
0.00460479
-0.00253495
0.00647087
-0.00551638
0.00158046
0.00228038
-0.00431528
0.00297349
-0.000938594
0.00837521
0.000213891
-0.0085891
0.00719969
-0.00889329
0.00441245
-0.00271885
-0.0113235
-0.000303987
0.0116275
0.00459804
-0.0038152
0.000892353
-0.0016752
-0.000357185
0.00801555
-0.00876065
0.00110228
-0.00397361
0.00497509
0.0012789
-0.00454417
0.00972571
0.0089889
-0.00756665
0.00747799
8.86579e-05
0.000170252
-0.0119336
0.0117634
0.0161886
0.00193005
-0.00341475
-0.0147039
0.00340292
-0.0132671
-0.00162278
0.0114869
0.0025429
0.00300236
0.00172293
-0.00726819
-0.0045548
-0.00452274
5.76962e-05
0.00901985
-0.00217653
0.0029639
-0.00534217
-0.00988059
0.0018036
0.0129642
-0.00488717
-0.0195787
0.0143389
0.00631317
-0.00107338
0.0086371
3.60634e-05
-0.00867316
-0.0050234
-0.00676441
0.00437368
0.00741413
-0.00490513
-0.0070891
0.00211364
-0.00709552
0.003855
0.004452
0.00288951
-0.00377498
-0.00690217
0.00778764
-0.00482571
2.53725e-06
0.00482317
-0.0113574
0.00462295
0.00470155
0.0020329
0.00283618
-0.00761574
-0.00231596
0.00966692
-0.00308216
-0.000228471
-0.00635629
-0.00657876
0.0109137
0.00643742
-0.0107724
-0.0019736
-0.00412892
0.00157454
0.00452798
-0.00273822
-0.00220253
0.00494075
-0.00481504
-0.0101217
-0.00464194
0.00231086
3.06482e-05
0.00465978
-0.00700129
0.00929887
-0.00675748
-0.00977063
0.00722924
-0.00344989
0.00124053
0.00694667
-0.0047373
0.00646917
-0.00455492
-0.000639269
-0.00127498
-0.00741713
0.00120841
0.00579233
0.000416396
-0.00458372
0.0105206
-0.0114431
0.00446352
0.00032943
0.0066502
0.0108549
-0.00869368
-0.00681991
0.00465874
-0.00860627
0.00182133
0.0160838
-0.00829034
-0.00548207
0.0089276
0.00484482
-0.000966702
0.00863789
-0.00327956
-0.00439163
0.000502535
-0.00527715
-0.00349947
0.00827409
0.00983719
-0.00649043
-0.0003986
-0.00294816
0.0030703
0.00227929
-0.00752613
-0.00206924
0.002343
0.00577109
-0.00604485
-0.00173955
0.00902731
-0.011137
0.00384924
-0.00553468
0.00133594
0.00133916
0.00285959
-0.0119202
0.012089
-0.000168748
0.0085324
-0.00843461
-9.77856e-05
0.00340903
-0.013057
-0.00503111
0.014679
0.0028917
0.00547692
0.0012983
-0.000136032
0.00480497
-0.00466894
0.00817897
0.00725958
-0.0154386
-0.00855954
0.00522577
0.00369365
-0.000359887
-0.00480683
0.00158419
0.00390707
-0.000684434
-0.014496
0.00678612
0.00795627
-0.00024636
-0.00465447
-0.00519189
0.00502066
0.00758424
-0.00122241
-0.00485163
-0.00151021
-0.00790718
0.00854729
-0.00522383
0.00141296
-0.00898513
-0.0004618
0.00803396
-1.38866e-05
-0.00449387
0.00450776
0.0216861
0.000132815
0.00234922
-0.0241682
-0.00082842
-0.00163196
-0.0119939
0.0144542
0.00374977
-0.00507755
-0.00234538
0.00367316
0.00148228
0.0112621
-0.00456889
-0.00817545
0.0121947
-0.0121801
1.3471e-06
-1.59404e-05
-0.00687059
-0.00619407
0.00968173
0.00338293
0.00400596
0.00302416
-0.00795042
0.0009203
4.51723e-05
0.00744438
-0.00759188
0.000102324
-0.0102092
0.0032903
0.00826913
-0.00135024
0.00777941
0.00470156
-0.00787393
-0.00460704
0.000173228
-0.00699864
0.00349081
-0.00180095
0.0105048
-0.00560618
-0.00072775
-0.000872122
0.00720606
-0.00948067
0.00045297
0.0090277
0.0138551
0.00596152
-0.00447663
-0.01534
-0.00903059
0.000183026
0.00902079
-0.000818475
-0.00212751
-0.00543171
0.0083777
-0.00101341
-0.00110917
-0.00294027
0.00506285
0.00227114
-0.0115686
0.00873544
0.000561996
0.00731627
-0.00112026
-0.00714236
0.000946348
-0.00885499
0.00183365
0.000697158
0.00632418
-0.00338495
0.00224011
-0.004672
0.00581685
0.00192562
0.00125491
-0.0113961
0.00821558
0.000383397
-0.00774961
-0.000518083
0.00788429
0.00764787
0.00103498
-0.000163317
-0.00851953
-0.00916241
0.00211918
0.00828953
-0.00654813
-0.00866688
0.015215
0.0127273
-0.00646669
0.00275825
-0.00901889
0.00100765
0.00708938
-0.00434726
-0.0103301
0.00190087
0.0036714
0.00475779
0.0127662
-0.0131543
0.000388093
-0.00782651
-0.00265981
0.00548119
0.00500512
-0.0102017
-0.00791871
0.00531405
0.0128064
0.0102754
-0.0107285
-0.00131562
0.00176875
-0.00150051
0.00500156
-0.00394151
0.000440467
-0.0129634
0.00425062
0.00296792
0.00574483
-0.0192002
0.0237915
0.00399845
-0.00858973
0.00860893
-0.0186095
-0.000973891
0.0109745
-0.00765712
0.00975771
-0.0180415
0.0159409
-0.00793356
0.0174528
0.00173335
-0.0112526
0.000705577
0.00831655
-0.00197298
-0.00704915
0.0126262
-0.00948201
-0.000307823
-0.00283636
-0.00220404
-0.00211508
0.00323589
0.00108323
-0.00594542
-0.0123835
0.0106241
0.00770478
-0.00847622
0.0112877
0.00981475
0.00704674
-0.00518264
-0.00645565
0.00459156
0.00252814
-0.00327256
-0.00144408
0.0021885
0.00559491
-0.00554166
-0.00736007
0.00730682
-0.00226762
0.00650529
-0.000470832
-0.00376683
-0.00904241
-0.00148243
0.0112304
-0.00680064
-0.00167391
0.0084087
6.58489e-05
0.00286544
-0.00639907
0.00353363
0.00225737
-0.00297149
0.0110432
-0.0103291
0.00893266
-0.012606
0.00186587
0.00180747
0.00559596
-0.00604009
0.00044413
-0.00869618
0.000219951
0.00773951
-0.0029634
-0.00747216
0.00269605
0.00245194
0.00195757
0.00858563
-0.0129951
0.0054916
-0.00596253
0.000470928
-6.57956e-05
0.00672077
-0.00759795
0.000942984
-0.00956818
-0.000902443
0.012728
-0.0040989
-0.000697801
0.000946438
0.00385026
0.000566546
-0.00467763
0.00345364
0.00065745
0.00768556
-0.00735309
-0.00183299
0.000904167
0.0130004
-0.00821902
-0.00568556
-0.00440135
0.00928014
-0.00487878
-0.0119208
0.0045639
-0.00277154
0.0101284
0.00934532
-0.00845791
-0.0138508
-0.00465494
-0.00557202
0.0191428
-0.00891588
-0.0134867
0.00856233
0.0122507
-0.00732639
-0.000254013
-0.0114425
0.0116966
0.0181343
4.53805e-05
-0.0104675
-0.00771225
0.0105416
-0.00678848
-0.000943529
-0.00280958
-0.00770224
0.00546318
-0.0013585
0.00359756
9.98112e-05
-0.00803414
0.00793433
-0.00571075
0.00587876
-0.000168015
-0.0041855
-0.00443135
-0.0113415
0.0199583
-0.0106573
0.00230721
-0.00118012
0.00953022
0.00252575
0.00409736
0.0112388
-0.0101257
-0.00837726
0.00726418
-0.00304083
-0.00627938
0.00691596
0.00240425
-0.00631324
-0.00320378
0.00952438
-7.35786e-06
0.00216109
-0.00123105
-0.00604769
0.00511764
0.00696377
0.000323754
-0.00889758
0.00161005
0.00214031
-0.00148978
0.0023545
-0.00284112
0.00282957
-0.00234294
0.00574282
0.00558436
-0.00571972
-0.00560746
0.00283579
0.00669205
-0.00691962
-0.00260822
0.00590754
0.00255668
-0.00465431
0.00736957
-0.00890898
0.00186316
-0.00983486
0.00689019
0.00371009
-0.000765424
0.0115995
-0.00384644
-0.0121544
-0.00312158
0.00829279
0.0041741
0.00809589
-0.0039301
-0.00684782
-0.00189819
-0.00108885
-0.0108671
0.0101123
0.000966625
-0.000211852
-0.000668104
0.0135902
-0.0013991
-0.011523
-0.00887874
0.00180876
0.0039484
-0.00141392
-0.00890644
0.00250411
0.00781625
0.00812964
0.00112514
-2.8446e-05
-0.00922633
-0.0121808
-5.78871e-05
5.13611e-05
0.0121874
-0.00317333
0.00345707
-0.00567942
0.00539568
-0.00836808
0.010567
-0.0010813
-0.00111762
0.010986
-0.010255
-0.00909914
-0.00807036
0.00727175
-0.00229903
0.00309764
0.00649924
-0.000291888
-0.00204381
-0.00416355
-0.0123489
0.0118883
0.00585952
-0.00539893
0.00595435
0.00226777
-0.000756539
-0.00746558
0.00208013
0.00528353
-0.00660472
-0.000758948
-0.0039092
0.00393348
-2.42849e-05
-0.00229122
-0.0058458
0.00586939
0.0091975
-0.00914159
-5.59116e-05
-0.00499664
-0.00399029
0.00390938
-0.000528877
-0.00602943
-0.000680122
0.00723843
-0.000697256
-0.00535894
0.00478641
0.00126978
0.00819302
-0.00931108
0.00111807
-0.0105574
0.0108243
0.00991483
-0.0101818
-0.00710073
0.00550074
-0.00373767
0.00533766
-0.00290342
0.00124089
0.00262787
-0.000965345
-0.000284544
0.012872
-0.000134032
-0.0124534
-0.00662836
0.00321282
0.00326529
0.00379108
0.004824
-0.00841476
-0.000200317
0.000364124
-0.0104558
-0.000414472
-0.00926082
0.00928325
-2.24354e-05
-0.00639978
0.0032422
-0.00704415
0.00210234
-0.00463634
0.000188625
0.00415691
0.00180525
0.00608516
0.000117556
-0.00520304
-0.000999677
0.00509611
-0.0127177
0.0101947
-0.00257311
0.00212199
-0.00292179
0.0108206
-0.0100208
0.013184
0.00385588
-0.00202465
-0.0150152
-0.00334945
-0.00547196
-0.00177774
0.0105992
0.00398728
0.0166712
-0.0150193
-0.00563916
0.00192604
0.0121442
-0.0117306
-0.0023396
-0.00411882
0.000541068
0.00844314
-0.00486539
-0.00147653
0.011859
-0.0063952
0.00858119
-0.0067898
-0.00264362
0.000852226
0.00281432
0.00729196
-0.0101063
0.00681255
0.00151199
-0.0009067
-0.00741785
-0.00626129
0.00500499
0.000502033
0.000754259
-0.000595102
-0.00892792
0.000527485
0.00899554
-0.00653711
-0.000827911
-0.000262225
0.00762725
0.00375445
-0.0083138
8.5111e-05
0.00326671
0.00496198
7.16911e-05
0.0053919
-0.00546359
0.000682616
0.00957734
-0.0244397
0.0141798
0.0027539
-0.00694369
0.00659659
-0.00240679
0.00395104
0.00450891
-0.00312295
-0.005337
3.5153e-05
-0.00485443
0.00481928
-0.00264292
-0.00189462
0.0107219
-0.00618439
-0.00339463
0.0113163
-0.00974557
0.00182392
0.0118572
-0.00824174
-0.00795262
0.00433713
-0.00487139
0.00333525
0.0015167
1.9432e-05
-0.00072753
0.00385921
-0.00205396
-0.00107772
0.0128125
-0.0099982
0.00592515
-0.000685001
-0.00970101
0.00446087
-0.00270509
0.00253102
0.00303152
-0.00285745
0.00011897
0.0122878
-5.3569e-05
-0.0123533