/*--------------------------------*- C++ -*----------------------------------*\
  =========                 |
  \\      /  F ield         | OpenFOAM: The Open Source CFD Toolbox
   \\    /   O peration     | Website:  https://openfoam.org
    \\  /    A nd           | Version:  10
     \\/     M anipulation  |
\*---------------------------------------------------------------------------*/
FoamFile
{
    format      ascii;
    class       volScalarField;
    location    "3.2";
    object      T;
}
// * * * * * * * * * * * * * * * * * * * * * * * * * * * * * * * * * * * * * //

dimensions      [0 0 0 1 0 0 0];

internalField   nonuniform List<scalar> 
111485
(
303.15
284.178
300.89
303.15
298.929
283.15
295.582
286.521
293.811
285.939
296.334
295.796
296.247
283.77
297.263
285.406
283.15
299.735
292.553
303.15
303.15
283.15
295.279
286.798
301.181
303.15
292.684
283.162
289.248
303.15
300.634
283.15
303.15
283.15
283.48
283.15
302.217
283.15
283.149
295.501
283.15
290.158
295.765
302.903
303.183
303.15
287.29
286.741
290.128
303.15
303.15
283.15
303.15
299.573
303.15
283.241
286.188
283.15
283.308
294.514
294.965
303.15
285.072
300.189
283.15
283.19
301.309
287.056
284.581
285.974
303.166
283.392
303.15
284.982
303.15
283.15
283.15
293.602
283.15
283.15
283.25
293.496
283.15
303.15
285.339
284.171
283.15
301.861
303.151
283.15
283.514
289.104
285.284
283.15
290.653
303.15
303.15
301.861
303.15
283.477
303.15
286.502
283.15
285.558
284.132
283.15
283.15
283.15
299.749
283.146
283.15
283.412
298.684
301.802
303.15
283.15
303.15
283.15
287.035
303.15
303.15
283.15
283.15
283.15
283.447
303.153
283.15
283.15
303.15
283.187
303.058
302.247
303.15
283.15
283.15
290.398
283.15
283.15
290.854
291.999
303.138
290.437
291.608
284.652
302.22
283.15
283.15
303.15
283.15
292.957
284.848
303.15
303.144
283.15
283.156
290.379
290.863
297.52
283.154
303.15
303.15
289.332
285.891
283.153
283.157
283.15
283.786
283.15
283.154
283.154
283.15
303.15
283.226
283.15
283.15
283.15
283.15
303.15
303.15
283.15
303.15
303.15
293.521
290.662
291.602
283.15
301.652
283.151
283.198
303.15
283.15
303.15
303.15
283.151
285.963
301.776
283.407
283.15
303.15
294.618
284.422
283.161
301.149
283.15
303.15
283.151
288.703
303.15
283.253
299.987
284.685
283.151
303.15
303.15
283.151
283.15
293.762
283.15
283.151
283.15
290.189
303.15
283.155
300.737
283.15
283.15
283.15
289.472
283.159
283.15
303.15
283.15
283.15
283.536
283.15
303.15
303.103
303.15
283.684
283.15
283.15
283.15
283.15
283.15
283.144
283.15
283.15
283.15
288.49
283.423
283.15
283.15
283.15
303.15
283.15
300.796
303.15
303.15
303.124
303.15
283.15
283.15
283.15
303.15
283.15
303.15
303.15
303.15
283.148
298.045
284.629
285.119
290.634
284.769
285.187
283.219
283.15
283.15
283.15
303.15
283.149
283.15
299.045
283.15
303.15
285.174
292.917
284.706
302.932
283.166
284.614
284.955
301.892
283.15
283.754
283.15
283.149
303.15
283.924
289.682
285.799
303.15
283.15
283.199
283.15
303.15
303.15
303.15
283.15
283.15
292.275
284.038
292.454
283.15
283.15
303.15
283.205
303.15
283.739
289.631
283.154
283.15
303.15
303.15
283.15
283.283
289.217
283.15
283.291
283.15
303.15
300.987
283.311
293.437
283.271
283.15
283.15
283.15
283.292
283.15
302.324
283.15
283.15
283.147
289.423
283.171
283.241
290.346
283.15
292.332
283.313
284.173
298.626
284.987
283.15
303.15
283.15
303.15
286.513
283.164
288.656
291.911
283.15
286.036
283.15
303.15
293.372
303.15
302.405
303.15
283.15
289.606
283.15
283.15
284.659
283.15
283.29
283.45
283.15
283.373
284.939
283.375
303.07
283.15
283.15
283.15
303.15
303.153
283.15
301.336
300.794
283.15
283.15
283.234
284.253
283.15
296.173
283.15
295.03
295.982
283.15
302.216
283.85
303.15
303.15
283.15
299.031
283.15
303.15
303.15
303.15
300.494
283.15
303.15
293.385
283.169
287.128
300.281
283.15
283.15
302.764
283.15
302.633
301.774
298.561
290.004
283.15
283.15
303.39
303.15
299.309
291.747
303.15
283.15
283.304
283.15
289.964
286.578
283.15
283.15
283.15
296.124
283.15
303.147
283.15
303.15
303.15
283.167
283.15
283.15
284.375
303.143
283.15
303.15
303.15
303.15
301.471
283.15
285.957
284.258
284.261
283.15
285.711
303.15
300.88
283.15
303.15
303.15
300.843
303.15
303.15
283.151
303.15
283.15
301.114
283.15
283.15
283.15
303.15
283.15
303.15
283.15
283.701
283.15
303.144
301.654
283.766
283.15
303.11
283.15
303.15
284.512
284.501
286.046
298.34
283.15
298.316
298.399
283.15
283.15
285.004
303.15
283.15
283.15
300.466
283.15
297.585
283.15
283.15
298.693
303.15
283.15
283.15
303.15
296.323
299.736
283.15
283.15
283.15
283.15
303.15
294.428
283.15
283.15
283.254
283.15
300.402
283.15
284.756
303.15
283.408
303.126
283.167
283.15
283.15
283.15
283.15
283.15
285.604
283.15
283.274
283.15
300.279
303.15
291.348
303.15
283.15
302.424
284.326
300.645
285.406
300.667
288.882
283.15
301.102
284.389
283.15
283.14
300.937
301.909
283.15
282.306
301.04
303.084
283.119
303.15
287.136
302.161
284.259
285.248
283.15
282.445
283.15
303.15
300.98
303.15
283.607
283.15
283.15
283.15
282.653
303.15
303.121
283.15
286.091
299.902
283.15
283.15
299.909
303.15
283.15
283.15
283.15
285.944
283.15
303.15
284.716
283.15
303.15
299.943
283.15
283.15
303.15
283.15
286.02
283.15
283.15
283.15
283.15
283.15
285.396
283.15
303.15
300.47
283.418
299.281
301.112
283.412
283.434
283.15
289.256
299.056
303.15
283.433
296.027
297.473
283.15
298.053
297.666
303.15
300.05
303.14
283.15
297.822
284.927
283.15
283.15
296.536
284.92
299.405
301.036
283.15
283.15
299.503
283.436
303.15
301.009
302.195
283.15
283.15
283.15
303.15
283.15
283.15
283.15
283.317
283.15
303.15
303.15
283.15
300.729
299.956
303.15
285.534
303.15
303.15
303.15
289.626
283.444
283.15
303.15
283.15
283.15
287.51
283.15
283.15
296.006
283.134
283.15
296.183
302.424
283.15
283.15
283.15
283.878
283.15
283.15
283.15
283.15
283.157
303.15
303.15
283.15
296.996
298.781
283.15
282.671
302.117
283.15
283.15
283.15
287.094
303.032
283.15
283.16
287.753
283.828
283.15
283.15
285.757
300.309
283.15
303.15
283.15
283.15
283.15
283.15
296.397
303.15
283.15
283.15
296.051
283.15
303.15
303.15
289.697
283.15
283.15
303.15
283.15
283.15
303.15
284.021
283.15
283.15
303.15
303.15
303.15
283.15
285.761
283.15
283.15
302.664
303.15
283.162
302.438
283.15
283.15
283.065
283.163
291.488
283.495
290.057
283.15
283.15
283.161
288.744
283.15
283.15
283.15
299.016
283.15
283.15
283.92
284.641
283.455
303.15
303.15
303.15
283.15
283.15
283.15
283.15
283.994
283.15
283.15
283.15
283.15
283.15
303.15
283.15
283.15
283.15
303.103
283.15
283.15
303.15
283.15
283.15
283.15
283.15
283.15
283.15
283.15
303.15
283.15
283.176
283.15
303.15
302.22
283.127
283.37
283.092
283.15
283.15
284.311
290.332
283.37
303.15
283.15
283.15
283.15
283.15
283.185
283.141
284.022
283.15
283.245
283.15
283.15
283.15
283.15
283.15
283.15
283.15
283.15
290.711
283.15
283.15
283.257
283.15
283.15
283.15
283.15
283.15
283.15
283.148
283.15
283.15
290.827
283.143
303.118
283.161
283.16
283.15
283.15
284.613
283.15
302.914
283.604
283.11
303.148
303.148
303.149
283.15
283.15
283.151
303.15
303.134
283.815
283.15
283.15
303.154
303.15
283.15
303.161
283.15
283.15
303.15
303.15
303.15
303.15
283.391
283.15
283.15
283.15
303.159
283.302
283.751
283.151
283.15
283.15
283.328
283.15
283.15
283.15
287.065
283.22
283.15
283.15
283.15
283.15
283.15
283.15
283.959
283.15
303.151
290.672
283.15
303.15
303.15
303.151
303.15
303.15
283.15
303.164
283.15
283.69
283.144
303.151
283.15
303.068
284.448
291.298
303.15
303.133
284.703
303.15
283.15
303.15
283.15
283.151
289.303
284.625
303.148
283.15
283.151
283.15
283.15
303.15
283.15
286.579
283.15
303.15
283.163
283.229
303.15
284.653
283.15
283.589
283.15
283.15
283.15
303.15
283.15
283.231
284.582
283.15
283.15
283.15
283.15
283.15
303.15
284.639
303.16
299.316
303.15
303.135
303.137
283.15
303.141
283.15
283.53
289.175
291.63
283.819
283.163
283.15
283.15
283.15
303.175
283.15
302.983
303.15
293.356
303.15
286.778
283.624
303.15
283.15
303.15
283.15
302.126
303.15
303.15
283.15
301.029
283.15
283.15
283.15
283.15
283.15
283.15
301.298
283.56
303.15
303.15
303.155
303.15
300.649
283.15
283.15
302.351
303.15
283.15
283.15
301.751
283.15
283.147
303.152
283.344
302.375
300.751
283.147
283.15
289.083
303.15
286.051
303.15
283.15
303.15
283.15
283.15
283.15
301.272
302.3
303.15
303.15
303.15
302.962
283.149
303.15
285.977
283.09
303.15
283.15
283.15
285.661
283.388
283.15
283.15
283.15
283.15
286.445
283.15
295.088
283.15
303.093
288.997
283.15
302.938
283.15
283.15
302.87
283.148
302.918
283.15
303.15
283.15
285.784
283.15
303.15
283.15
283.147
283.15
283.174
283.15
283.15
303.15
283.15
283.15
296.16
292.219
303.15
303.133
283.15
283.15
283.15
283.15
283.158
302.931
283.15
303.018
303.15
283.436
283.15
303.15
283.15
303.029
283.402
283.294
283.15
303.15
287.77
303.15
283.15
283.12
295.202
283.147
283.15
283.15
283.146
303.15
283.15
303.148
303.15
303.15
283.646
303.045
303.06
283.593
283.15
283.15
283.15
303.099
283.551
283.15
303.15
285.065
283.15
303.15
283.15
283.15
283.15
298.063
283.15
302.597
283.15
300.857
283.15
283.15
283.15
283.15
283.15
283.15
285.371
283.15
283.15
283.15
283.15
283.15
283.15
283.514
283.15
283.311
303.023
283.15
302.19
283.15
302.664
303.145
283.15
283.15
303.15
283.15
285.029
303.113
303.15
303.14
283.162
283.15
283.15
283.15
283.15
283.15
283.15
283.15
283.15
283.15
283.15
283.15
303.14
283.15
283.15
283.15
302.413
283.15
283.191
303.15
283.15
283.15
283.15
302.725
283.15
303.177
303.15
283.15
283.155
297.588
283.15
284.306
292.682
283.706
283.15
283.15
297.813
283.15
283.473
284.505
283.15
283.259
283.15
303.15
299.111
298.584
283.15
283.15
283.15
283.15
283.15
303.15
283.15
283.15
298.957
283.15
283.15
299.241
283.15
283.199
283.15
283.15
283.15
302.83
299.324
283.15
299.582
283.15
299.418
283.15
283.15
299.602
283.15
283.222
296.712
283.15
283.15
295.684
283.15
287.446
303.15
290.387
303.15
303.15
303.15
295.491
283.15
283.15
291.72
283.15
302.981
283.15
283.15
303.15
283.15
287.651
283.15
283.15
287.516
287.681
283.15
283.692
283.15
303.15
302.607
283.844
283.15
283.15
283.15
283.15
283.15
283.15
283.15
283.15
283.15
283.15
283.15
283.15
303.15
283.15
283.15
283.15
283.15
283.15
283.15
283.15
283.15
303.15
286.536
283.15
283.15
283.15
286.363
283.15
303.15
303.016
283.15
283.15
286.578
283.15
283.15
302.041
286.806
283.15
303.449
303.476
283.15
301.605
286.596
287.21
285.517
283.152
303.15
283.15
283.222
283.274
285.555
283.15
283.451
302.379
285.448
283.15
283.15
286.084
283.15
284.83
303.15
284.347
284.151
285.767
284.261
283.15
283.15
283.15
303.15
283.15
283.266
284.57
283.15
283.15
283.15
283.15
283.15
303.15
283.15
303.15
283.712
303.131
284.357
302.743
283.15
283.15
285.216
283.178
283.15
283.15
301.383
303.15
283.15
284.13
284.444
284.299
299.35
301.249
303.15
283.15
286.257
303.15
303.15
288.778
303.15
283.15
282.766
295.991
302.709
283.15
303.15
290.276
284.529
283.15
283.277
302.527
303.15
303.136
303.15
303.15
283.15
298.29
283.15
283.25
283.15
288.691
283.591
303.15
283.153
303.15
283.15
303.15
303.15
283.15
300.116
283.15
303.15
303.143
283.254
303.076
283.18
283.313
283.15
283.286
283.15
303.15
283.15
292.059
283.151
303.15
303.15
303.15
303.15
298.011
302.46
283.15
283.151
301.265
283.999
283.151
303.15
303.15
283.151
283.28
283.15
302.954
300.028
302.504
283.169
283.153
283.154
303.15
283.15
283.157
283.15
283.15
285.596
303.15
287.674
283.154
303.15
283.15
283.151
283.167
283.43
283.147
283.163
283.251
301.897
283.152
303.15
283.15
283.151
303.15
283.15
303.15
303.208
284.485
291.71
296.309
303.242
283.149
297.556
303.15
303.15
283.291
303.15
283.175
283.308
283.151
283.15
303.15
283.618
283.284
303.15
283.009
283.15
303.15
283.15
283.15
303.15
303.15
283.349
303.15
283.15
283.15
283.15
299.542
292.01
303.15
285.449
283.15
283.15
283.15
283.15
283.15
303.091
283.15
283.17
283.15
283.15
283.15
283.15
291.239
300.532
303.15
283.15
283.15
303.15
283.15
283.15
283.15
303.15
283.15
303.15
297.659
283.15
283.15
283.743
303.15
283.969
283.15
283.15
303.15
303.146
303.15
293.489
302.983
303.122
283.15
283.15
288.664
283.15
283.15
303.15
283.15
283.773
283.15
303.15
283.153
283.461
283.15
286.074
283.534
303.15
283.15
303.15
285.578
303.15
303.253
283.15
303.253
302.937
303.15
303.15
283.15
283.545
300.253
283.15
303.083
283.15
283.218
283.168
283.83
283.15
283.165
283.2
283.15
283.15
303.15
284.166
283.195
283.15
283.15
303.15
283.166
283.15
303.15
283.2
303.15
283.156
285.447
300.919
303.15
303.15
283.664
303.15
283.345
283.15
283.15
286.233
292.498
283.15
303.15
302.698
283.15
302.799
294.156
303.15
303.15
283.15
283.15
303.15
283.15
283.15
303.15
303.15
283.15
283.157
303.252
286.393
300.313
297.539
303.15
303.153
302.629
303.15
283.15
303.15
303.15
303.15
303.15
303.15
303.15
303.15
283.15
303.15
303.15
283.403
303.15
303.233
303.15
303.162
303.15
303.15
301.386
303.673
303.15
291.676
303.15
303.15
283.15
302.686
303.15
302.288
303.114
283.31
283.15
303.15
302.994
283.149
303.15
303.15
287.227
283.15
287.783
283.15
283.15
283.151
287.135
283.588
303.15
296.221
283.15
303.533
303.135
283.15
302.742
283.15
287.634
303.1
301.691
283.15
303.15
283.15
303.726
283.15
283.169
303.15
303.15
303.15
303.15
303.15
303.15
302.562
302.906
283.18
292.298
303.15
287.691
288.462
283.15
303.202
283.15
283.15
302.864
283.317
283.147
284.113
303.15
283.382
302.988
288.234
302.934
301.976
303.15
302.146
303.15
303.15
284.493
303.15
284.723
303.15
303.15
283.15
303.15
303.15
302.933
303.15
283.309
283.15
283.15
286.227
285.041
283.208
286.377
303.15
295.253
303.15
290.035
303.15
287.616
301.113
301.829
293.169
303.15
303.15
303.15
283.151
283.15
303.15
283.151
283.15
283.15
302.129
303.15
283.827
283.147
283.15
303.15
303.15
283.17
294.382
303.15
283.15
303.044
283.15
298.236
303.15
283.15
287.547
283.15
303.15
296.682
283.254
302.951
302.157
301.59
303.15
303.15
303.147
303.15
283.15
303.15
283.152
299.723
283.363
296.517
283.15
300.736
287.669
295.163
283.677
298.906
290.502
302.354
283.15
283.15
283.15
302.378
283.15
290.776
283.15
301.582
303.158
283.152
283.15
283.15
303.15
301.573
301.556
303.15
283.15
303.15
283.151
301.798
303.011
302.539
283.15
285.044
303.15
303.15
303.15
283.15
284.357
283.15
293.602
283.151
303.013
303.15
303.15
283.15
283.15
283.15
299.936
303.15
303.15
283.15
303.15
303.15
303.15
300.763
303.15
285.345
293.181
283.15
283.255
283.15
283.151
303.15
303.15
302.164
303.15
299.758
283.146
283.183
303.15
303.15
283.15
303.15
303.15
303.15
305.645
303.15
302.12
283.361
303.15
303.15
301.919
303.15
283.15
283.747
303.174
303.15
303.15
303.15
283.15
303.15
303.15
302.602
302.654
302.071
303.15
283.15
303.15
302.283
302.672
301.842
298.297
283.15
283.15
283.15
283.15
283.15
303.15
303.15
303.15
303.15
285.413
283.873
283.385
303.15
303.15
303.15
303.15
283.15
303.152
283.15
283.15
283.15
303.15
303.15
283.147
299.971
294.973
283.15
303.15
303.15
303.15
303.15
283.926
285.919
303.15
303.15
301.393
303.15
283.177
283.169
292.299
303.15
283.15
283.181
303.139
303.15
303.56
283.15
287.405
303.15
303.15
303.15
303.15
283.15
283.15
303.15
302.62
298.932
290.883
303.15
303.15
303.15
303.15
299.939
303.151
303.15
303.15
283.15
302.492
283.15
303.15
303.15
298.593
303.15
303.15
303.15
303.15
284.57
303.15
283.15
283.15
283.15
286.447
303.15
303.15
303.15
295.605
303.147
303.15
303.15
303.15
303.15
303.445
300.898
303.15
285.404
302.215
286.431
303.15
303.15
303.15
303.15
283.15
286.05
303.15
302.83
283.15
302.402
303.15
303.147
303.15
283.15
301.817
286.651
283.15
302.927
303.15
302.587
283.15
303.15
303.15
303.152
303.15
283.289
303.15
288.206
283.15
283.15
303.15
303.15
283.15
302.493
283.15
302.506
283.15
284.388
287.869
302.755
283.15
303.154
303.019
303.142
284.68
283.156
303.036
283.15
283.15
283.156
283.15
302.493
303.15
283.15
283.15
296.241
303.15
283.15
303.15
303.15
303.15
303.101
303.076
303.005
283.185
303.15
302.969
303.15
284.936
303.15
303.15
283.15
303.15
303.118
303.15
283.15
303.15
286.038
303.15
303.15
303.172
283.15
303.66
302.976
298.82
303.15
292.762
297.474
285.117
293.129
283.15
283.15
285.229
284.557
283.15
303.581
283.15
284.821
303.15
283.15
303.162
303.15
303.15
303.003
303.155
303.15
283.15
303.139
303.15
283.15
283.102
297.075
293.18
303.15
297.062
303.15
283.163
303.152
297.162
303.15
303.15
297.46
303.15
303.15
303.15
285.813
303.15
284.145
303.15
303.146
303.15
283.15
283.15
303.15
303.15
303.15
287.728
302.714
303.15
303.15
284.318
283.15
292.045
303.15
296.613
286.691
287.366
303.15
303.15
288.451
283.15
292.604
303.15
303.151
303.15
303.15
283.336
283.15
302.248
283.15
303.15
303.15
303.15
303.15
303.15
284.541
284.964
291.82
303.15
303.15
291.327
303.15
303.15
303.15
303.15
303.15
283.15
303.15
303.15
283.15
283.15
303.15
283.15
303.15
283.15
283.15
283.15
290.774
302.667
283.15
283.15
303.15
303.15
303.15
283.15
283.15
283.15
303.15
283.15
303.15
303.15
292.802
303.15
286.984
303.15
283.15
284.416
303.15
283.15
303.15
303.15
303.15
285.482
303.15
283.15
303.15
303.15
283.15
283.15
284.859
303.15
303.15
288.408
283.449
297.077
303.15
303.15
303.15
283.38
292.633
303.15
283.15
303.15
283.15
303.15
284.895
296.972
303.15
303.15
283.15
303.15
303.15
283.15
303.15
283.15
295.449
303.15
283.15
303.15
303.15
303.15
303.15
303.15
303.15
283.15
283.468
283.15
283.15
303.15
303.15
296.231
283.15
303.15
283.15
303.15
283.15
283.15
303.15
303.15
303.15
283.15
303.15
298.275
303.15
286.388
283.15
286.497
303.15
303.15
299.06
283.15
303.15
283.15
283.26
303.15
303.15
285.251
284.002
283.15
283.15
283.15
292.701
283.15
283.833
303.15
298.465
283.15
283.15
303.15
303.15
303.15
283.15
303.15
303.15
303.15
303.129
283.175
283.15
283.617
303.15
301.987
283.15
303.147
283.15
283.15
294.53
303.15
303.15
283.15
283.15
283.917
303.15
283.15
283.15
303.15
297.856
303.15
295.701
303.15
283.15
303.15
283.15
283.15
283.15
283.237
283.15
285.916
303.15
303.15
283.15
283.15
303.15
303.15
303.15
303.15
284.682
285.159
283.15
303.15
283.238
283.15
283.15
303.155
289.886
283.623
283.15
283.15
285.029
283.848
288.7
303.15
303.15
303.15
303.15
283.15
283.15
283.15
303.15
283.15
283.15
303.15
283.15
297.49
283.15
303.15
283.15
303.15
303.15
283.535
283.15
303.15
300.357
303.15
303.15
303.15
303.15
286.414
283.15
303.15
303.149
283.15
303.15
303.15
303.15
295.016
283.15
283.19
303.15
303.15
303.15
303.15
303.15
303.15
303.147
283.15
303.15
283.15
303.15
303.15
303.15
303.148
303.15
283.15
283.15
283.15
303.15
303.15
283.15
303.149
283.15
287.313
283.15
301.783
283.15
303.154
303.15
284.438
283.15
284.341
297.901
303.15
284.508
303.167
303.15
297.887
283.15
303.15
303.15
303.15
303.15
283.15
303.15
303.15
299.196
283.15
303.15
303.15
303.15
303.15
289.17
291.344
303.165
283.168
303.15
302.089
302.529
303.15
283.15
283.15
303.15
303.15
303.15
283.15
283.15
283.745
303.15
303.15
303.185
303.151
283.15
289.635
303.15
283.15
303.15
288.543
303.15
283.15
302.149
283.15
283.15
283.15
303.15
299.732
303.15
303.15
303.15
283.15
284.402
293.951
295.775
290.469
303.149
303.065
283.15
283.15
301.145
283.642
283.15
303.149
303.15
303.15
283.15
294.982
303.15
283.15
303.035
303.15
303.15
283.739
303.15
303.15
288.848
290.298
303.15
283.15
303.15
283.15
303.15
303.15
303.15
303.15
283.9
303.15
303.15
303.15
303.004
303.15
303.15
283.15
283.15
283.15
283.15
303.011
283.15
283.15
295.865
303.15
284.643
284.785
303.15
297.791
303.15
283.15
303.15
283.15
283.15
303.15
303.15
303.15
295.016
303.15
303.15
303.15
283.15
303.15
283.15
286.325
303.15
303.15
291.886
303.15
283.15
283.15
294.562
303.15
303.149
283.15
303.204
283.15
283.15
283.15
294.332
283.15
283.15
303.053
303.158
283.15
303.165
303.151
303.151
283.15
283.15
302.26
283.459
285.821
301.252
283.161
283.15
283.15
301.837
301.772
283.15
300.635
283.15
283.86
302.234
302.792
285.007
283.15
299.633
283.15
283.155
300.396
303.15
283.15
283.15
302.805
283.727
283.15
301.404
283.15
303.15
301.261
303.15
283.256
301.727
283.703
284.204
303.15
283.15
301.971
291.051
283.144
303.169
283.15
302.61
301.986
301.18
303.15
303.209
301.096
294.849
283.947
289.596
303.011
301.439
291.513
289.237
283.159
302.413
283.15
283.177
303.15
302.727
303.15
303.15
301.572
301.636
283.15
303.15
284.929
292.443
286.166
301.549
303.15
284.056
283.15
284.49
303.15
283.15
303.15
290.716
295.154
300.735
303.149
303.15
303.15
302.247
301.381
301.761
303.15
289.465
302.446
290.943
283.15
289.818
283.15
303.15
284.017
283.15
283.207
283.15
302.585
303.11
303.15
302.964
283.15
283.147
300.865
302.415
283.15
283.617
296.136
283.15
283.472
303.133
285.126
283.15
283.321
296.992
291.582
300.667
283.153
301.591
290.183
283.15
303.15
302.836
302.798
302.629
283.15
302.859
283.15
302.259
283.605
303.15
283.417
283.15
301.544
302.667
283.15
283.15
287.501
302.72
296.613
303.15
303.15
295.2
283.15
292.833
283.409
303.15
283.15
290.496
283.492
303.15
283.89
286.564
284.418
301.624
284.817
283.15
296.888
303.128
303.15
303.15
283.672
302.759
283.332
285.629
303.15
303.005
303.068
303.15
284.447
300.42
283.15
283.26
299.454
302.518
283.15
287.198
283.15
303.113
284.453
283.904
283.148
303.15
303.106
303.15
303.15
283.333
302.694
288.932
283.054
283.15
303.15
283.15
303.015
303.075
288.398
291.815
303.15
283.15
283.15
291.96
291.48
283.226
283.627
303.15
303.15
292.719
285.361
283.265
292.137
291.548
299.901
284.307
303.15
283.15
297.963
283.15
303.15
302.726
298.841
284.986
285.103
298.344
303.03
303.15
293.384
284.218
283.15
303.15
283.15
283.15
283.15
283.15
299.164
285.872
283.15
283.831
287.992
283.15
303.15
303.15
283.15
283.15
299.03
283.151
296.872
296.951
283.708
284.805
295.365
283.15
283.15
283.036
303.15
303.15
300.22
283.937
300.135
283.145
283.15
283.976
283.15
283.15
283.151
303.079
298.039
297.708
283.15
283.425
303.103
283.15
303.15
283.15
302.546
283.15
293.337
283.15
283.585
303.065
283.147
283.15
299.886
283.15
291.817
283.157
291.163
285.189
303.15
284.339
283.15
283.15
283.292
285.113
284.518
283.15
283.15
296.279
283.15
283.15
290.171
286.725
301.635
283.469
299.865
290.701
283.15
303.278
292.377
283.15
283.15
283.15
303.15
283.809
289.451
289.711
283.229
283.789
289.561
283.155
283.15
283.15
303.055
291.24
283.385
291.107
283.15
286.338
283.216
301.772
283.15
284.193
299.962
283.15
303.15
283.2
283.2
303.15
283.943
302.039
303.061
303.15
283.15
283.15
303.152
301.873
283.15
283.15
283.15
302.278
297.843
303.141
283.15
303.162
303.15
283.15
303.162
288.01
283.15
283.15
283.151
283.159
283.15
283.15
283.153
283.15
283.15
284.251
283.15
283.15
283.15
283.15
283.15
285.02
283.177
298.933
285.972
283.149
283.146
283.15
283.078
283.15
283.15
283.181
283.15
289.768
283.15
283.122
283.15
283.15
290.061
291.267
287.55
283.383
283.15
300.77
283.15
302.761
283.15
303.15
283.803
286.189
283.15
283.15
291.647
286.958
303.15
303.15
301.851
283.151
303.029
283.236
283.15
287.491
303.147
284.397
288.071
303.15
300.647
283.15
283.15
283.179
283.15
283.144
283.157
283.15
286.276
300.948
303.15
285.563
283.15
290.787
303.15
303.15
300.763
302.235
303.15
293.565
283.15
283.8
283.15
283.15
285.239
303.15
302.941
283.432
285.07
283.15
283.176
292.388
299.957
283.168
283.155
282.901
300.951
303.148
283.15
303.142
303.15
300.364
292.95
283.15
283.15
283.15
283.15
295.932
285.441
283.223
295.943
283.15
283.772
303.165
293.025
284.237
303.15
283.153
283.15
287.071
283.15
283.15
287.738
283.15
303.143
285.118
283.15
293.201
283.15
283.15
283.15
303.142
283.15
283.137
286.263
303.15
283.15
303.164
283.18
283.233
289.692
303.152
302.982
283.874
303.15
283.15
303.166
302.249
283.152
283.15
283.15
303.151
303.114
283.15
283.15
283.15
283.445
286.227
303.09
303.149
287.363
289.144
283.508
283.17
283.15
283.317
303.15
283.15
303.12
303.15
302.52
283.266
283.362
303.113
283.15
283.158
284.204
302.82
302.31
283.152
293.582
303.105
291.246
283.15
303.15
303.116
302.738
285.491
283.447
303.15
284.28
283.222
302.785
301.442
295.861
283.15
297.722
298.437
303.15
295.312
285.17
303.15
296.063
303.15
283.15
292.953
302.699
286.183
295.13
283.15
283.15
303.03
283.15
285.09
284.621
287.472
284.244
303.15
303.001
302.839
286.18
283.15
283.368
283.15
289.427
283.168
283.916
303.15
283.15
283.15
283.15
283.15
283.735
283.155
283.15
283.15
283.15
283.15
303.15
283.15
289.829
283.15
283.151
285.266
284.664
303.117
303.159
292.859
295.271
283.159
283.259
284.794
283.145
303.15
303.156
300.226
283.15
303.04
283.15
303.15
283.743
286.938
284.687
283.15
285.787
283.15
283.157
287.42
298.937
303.065
283.15
303.15
291.282
283.156
283.079
283.147
287.356
298.41
303.149
284.636
283.15
283.15
283.15
303.151
283.15
287.367
284.82
283.15
283.15
283.728
283.094
303.158
303.15
303.15
283.15
283.161
283.15
303.15
303.15
283.15
283.15
283.15
287.462
293.598
303.15
283.15
301.544
303.15
283.782
283.431
300.729
303.15
283.432
283.15
283.15
297.703
303.15
303.15
285.189
283.15
283.15
283.15
303.15
303.15
283.15
286.609
302.456
283.15
303.15
283.284
303.15
303.15
283.15
283.15
283.15
283.15
283.15
283.15
283.15
303.15
283.151
286.862
303.15
283.15
283.15
283.15
303.15
303.15
303.15
283.15
283.15
302.834
283.15
283.15
283.15
287.658
291.506
301.042
303.15
303.15
283.15
303.105
286.646
291.158
303.15
303.148
283.15
283.15
299.438
285.524
303.15
303.15
283.355
303.123
303.15
303.15
283.15
284.7
303.15
303.15
284.903
298.886
283.15
303.15
284.39
283.15
283.15
284.393
283.818
303.15
283.533
303.15
303.15
282.992
291.933
289.951
283.15
303.15
303.136
302.144
293.745
299.977
301.441
284.323
283.411
300.445
283.15
303.15
302.758
283.734
283.15
287.654
287.955
303.15
287.766
287.386
286.81
287.026
283.15
303.15
283.15
294.909
283.15
283.15
287.175
283.15
283.164
283.15
283.15
283.15
283.15
287.851
283.15
288.306
283.15
283.15
285.95
284.714
283.15
303.15
288.104
296.395
303.166
287.945
283.15
283.15
283.15
283.15
283.15
283.15
283.158
283.15
283.15
283.15
303.148
283.15
283.15
287.029
303.151
303.152
283.898
283.15
288.881
293.455
283.15
283.15
302.97
285.728
302.641
283.368
286.102
283.15
283.586
291.366
303.12
289.084
302.758
283.15
285.148
287.264
283.601
299.572
285.294
303.11
283.15
296.869
302.956
303.151
283.15
303.149
303.047
292.885
302.608
283.15
303.15
303.15
294.698
290.933
283.156
301.301
284.552
284.061
284.59
303.145
285.688
283.15
283.15
283.15
302.623
303.155
294.242
302.934
303.174
300.154
303.202
302.959
283.15
283.15
302.952
283.15
303.15
283.15
303.15
283.669
299.232
283.166
285.305
283.15
287.034
303.06
283.15
283.15
303.062
283.15
301.47
303.146
303.095
283.15
283.15
288.98
302.183
283.155
302.826
299.841
302.569
303.14
283.15
283.15
283.15
302.831
283.15
302.985
303.15
283.15
302.924
285.374
287.113
302.291
283.15
302.686
302.24
283.15
302.612
303.054
303.195
303.004
303.15
283.15
286.4
298.034
303.104
303.15
283.188
285.24
303.15
283.15
283.15
303.185
303.162
302.942
301.429
284.489
303.117
290.659
283.15
303.148
283.79
303.161
283.15
283.15
283.15
300.432
298.817
284.919
286.989
299.945
283.15
289.528
299.614
293.329
303.152
293.433
296.261
283.153
299.756
283.15
303.15
283.15
299.592
303.15
283.15
303.169
301.755
303.15
286.546
283.48
302.801
288.977
283.15
283.15
300.367
300.824
283.875
283.15
303.15
283.15
301.802
292.527
283.167
288.994
285.064
289.004
283.15
283.597
284.202
283.18
283.263
291.63
285.852
293.989
287.791
283.152
303.159
283.287
303.146
283.151
300.904
283.151
283.516
283.15
286.291
301.966
283.151
283.15
283.15
302.994
283.156
283.109
288.074
299.813
303.15
287.441
303.06
283.15
302.843
303.15
301.589
284.816
283.15
302.257
303.15
283.65
283.15
289.287
283.15
285.521
303.184
303.149
283.15
283.15
283.177
303.15
293.563
303.15
303.156
295.266
303.443
303.15
283.15
303.15
303.15
293.748
287.552
303.15
289
286.505
288.885
303.15
303.15
285.949
283.356
289.951
303.207
303.15
303.147
285.266
283.313
283.15
286.839
287.322
303.15
283.358
303.15
303.15
303.132
287.01
303.15
303.15
283.277
303.152
302.741
287.424
283.152
283.685
296.826
290.995
303.15
283.427
283.15
283.16
283.15
302.299
283.15
286.677
303.15
303.15
283.941
303.167
303.008
284.952
303.006
286.492
283.15
283.15
283.15
283.221
283.15
302.735
283.151
303.15
283.826
286.336
303.125
283.177
303.15
283.412
283.15
283.15
303.15
300.064
299.903
283.335
283.412
302.284
283.15
301.084
303.15
301.699
302.008
303.15
303.15
283.15
294.342
283.15
283.15
303.15
283.242
283.368
303.15
283.15
299.215
288.492
303.15
302.821
283.15
295.661
284.306
303.163
283.15
296.962
283.15
303.125
302.878
287.216
299.151
283.15
283.15
288.879
283.15
303.01
303.151
303.15
303.165
294.062
297.131
302.952
298.076
303.15
283.155
303.15
303.076
302.886
303.15
288.373
293.55
303.15
285.302
303.113
303.15
303.118
303.154
286.376
291.257
285.03
287.78
283.15
303.15
283.15
292.457
295.034
293.529
303.142
303.15
283.15
303.186
283.237
303.186
303.15
303.15
303.143
303.15
284.906
303.15
284.212
303.148
303.15
290.131
303.145
290.014
294.234
303.14
287.009
283.15
283.421
303.138
302.913
284.7
283.15
283.15
303.15
285.442
302.938
287.04
302.999
297.996
286.93
303.15
283.15
289.153
299.364
283.15
283.682
303.15
303.145
303.187
283.15
303.15
291.901
285.746
303.191
303.15
284.813
283.15
291.108
283.15
302.633
283.903
283.15
303.15
283.696
292.982
302.267
285.906
283.153
283.153
284.496
285.464
303.15
286.742
283.185
283.15
283.15
303.15
285.002
283.15
303.15
286.26
287.59
283.197
283.15
303.15
288.23
283.15
283.15
283.15
301.729
283.15
303.15
284.376
284.977
283.15
283.15
283.15
303.15
283.199
303.15
283.15
303.15
302.937
303.15
291.731
303.15
296.707
283.15
290.376
303.15
283.15
283.15
283.208
283.231
288.661
283.241
303.15
298.063
303.15
283.265
283.151
303.15
283.221
283.167
303.15
283.208
303.15
303.15
283.157
283.15
285.764
283.15
283.173
303.15
283.15
283.15
284.119
284.335
285.092
298.09
289.561
283.186
283.15
286.652
283.186
283.15
303.15
303.15
303.15
283.155
283.881
303.15
302.948
283.199
303.15
301.836
303.15
283.15
301.497
303.15
283.15
303.156
283.15
303.15
283.24
283.441
302.135
300.816
283.15
287.68
284.99
292.452
283.15
303.15
301.972
283.15
283.15
283.175
303.15
302.152
283.15
303.15
283.365
283.15
283.15
283.15
303.15
283.15
301.134
283.24
303.15
298.621
303.15
283.564
283.15
303.15
303.15
302.661
303.149