/*--------------------------------*- C++ -*----------------------------------*\
  =========                 |
  \\      /  F ield         | OpenFOAM: The Open Source CFD Toolbox
   \\    /   O peration     | Website:  https://openfoam.org
    \\  /    A nd           | Version:  10
     \\/     M anipulation  |
\*---------------------------------------------------------------------------*/
FoamFile
{
    format      ascii;
    class       volVectorField;
    location    "3.2";
    object      U;
}
// * * * * * * * * * * * * * * * * * * * * * * * * * * * * * * * * * * * * * //

dimensions      [0 1 -1 0 0 0 0];

internalField   nonuniform List<vector> 
111485
(
(2.43841 -2.43801 0.00175414)
(6.92622 -0.0137513 -0.030059)
(6.86717 0.0115765 0.017081)
(2.43818 -2.4401 1.46749e-05)
(7.11186 0.0211907 -0.00178767)
(2.47079 2.46973 0.000566285)
(6.99979 0.0115894 0.000450353)
(7.1565 -0.00488833 0.0119094)
(7.02812 -0.00784274 0.00425372)
(7.15234 -0.0562328 -0.0207962)
(6.9109 0.00739377 0.0159251)
(7.22171 -0.00459372 0.0294293)
(6.83993 0.000787226 0.0124683)
(6.8378 -0.0169109 -0.0294585)
(6.95982 0.0183901 0.0130188)
(7.06139 -0.0190355 -0.0264033)
(6.99139 0.012733 0.00197284)
(2.49936 -0.236749 0.410591)
(7.12803 0.00998719 -0.0128707)
(2.42055 -2.41761 -0.00101826)
(2.42309 -2.42258 -0.00124825)
(2.47699 2.47633 0.00136816)
(7.05799 0.0120057 -0.0036685)
(7.13183 -0.033744 -0.00818536)
(7.0486 0.0436828 -0.0171955)
(2.45596 -2.4478 -0.00260115)
(7.24827 -0.014922 0.0358385)
(6.94163 0.00811692 -0.0116761)
(7.15262 0.000280186 -0.014634)
(2.43035 -2.43148 0.00203338)
(7.25018 0.136462 -0.0388391)
(7.05132 -0.00104304 0.00248708)
(2.41883 -2.42314 0.00335612)
(2.47573 2.47791 -0.00489974)
(2.501 1.00516 0.4112)
(2.48807 2.50604 -0.0403005)
(7.21745 0.133361 -0.0543283)
(6.90948 0.00776932 0.0549956)
(7.16689 2.15734 0.126888)
(7.11218 0.0250178 0.00808907)
(2.44217 2.46596 -0.0264465)
(7.21875 0.00412036 -0.0397582)
(7.1036 0.030285 0.0126963)
(6.94489 -0.0320316 -0.012213)
(7.23526 -0.137072 -0.0700648)
(2.45246 -2.43289 0.00893821)
(7.22067 -0.0224547 0.0381544)
(7.1236 -0.0293899 -0.00760232)
(7.21709 -0.00257125 -0.031954)
(2.42494 -2.40038 0.0101099)
(2.41887 -2.39401 0.016445)
(2.82082 2.36473 0.0415609)
(2.406 -2.39557 0.00802714)
(7.21744 0.0229711 -0.0562741)
(2.40084 -2.39064 0.00361684)
(7.08415 0.00745402 -0.00725195)
(7.09139 -0.0193981 -0.00610519)
(2.47437 2.47296 0.00240233)
(6.51044 -0.0209415 -0.102439)
(7.13339 0.0208314 -0.00264443)
(7.13298 0.0228325 -0.00136191)
(2.43071 -2.43588 0.00258753)
(6.63194 0.00839733 0.0330125)
(7.26762 -0.00119469 0.0484262)
(2.5555 2.31214 0.00385044)
(6.70183 0.00456691 -0.00399715)
(5.06777 -0.452242 0.166095)
(7.14624 -0.00789379 0.0106044)
(6.55961 -0.00115384 0.0142061)
(6.40656 -0.00929348 -0.00875111)
(6.96909 0.0593138 -0.0561433)
(6.54031 -0.00974468 0.0199212)
(2.62358 -2.36879 -0.0522048)
(6.58161 0.0103754 0.0328925)
(2.43369 -2.43469 -0.000759046)
(7.08984 -0.00158458 0.00483595)
(2.47595 2.47511 -0.00225006)
(7.21373 -0.0127895 0.0328208)
(2.47447 2.4746 0.000769852)
(2.2252 2.16065 -0.0756962)
(6.98022 -0.108143 0.0721735)
(7.17649 0.0300341 0.00924292)
(2.46641 2.46323 -0.000898246)
(2.43548 -2.43608 0.00058541)
(6.80714 -0.00606948 0.00785051)
(6.61998 0.0110468 -0.0113396)
(5.56714 3.60197 -0.972296)
(7.12325 0.0697426 0.00585487)
(6.87363 0.176783 0.150177)
(6.91039 0.00492862 0.00873331)
(7.35617 0.121708 -0.0877484)
(7.12949 -0.00664756 0.00954436)
(6.74668 -0.0100524 0.00726344)
(6.89519 0.00602071 -0.00315192)
(7.22967 0.0107434 -0.0363446)
(2.4355 -2.43514 -4.75728e-05)
(2.42924 -2.42994 0.00189107)
(7.12154 0.0690056 0.0209112)
(7.39047 -1.47915 0.0988045)
(6.75013 0.0159163 0.0461156)
(2.43616 -2.43615 0.00342402)
(7.13845 -0.0255666 0.00563216)
(2.48663 2.49253 0.0129959)
(7.10208 -0.00652946 -0.00122992)
(6.9848 -0.0166067 -0.0274527)
(2.42813 2.15999 -0.0528041)
(2.47581 2.47495 -0.000696316)
(7.05071 -0.00433151 -0.000603433)
(6.72778 -0.0299514 4.73929e-06)
(6.36662 -0.184654 -0.190767)
(6.89754 0.00426372 0.003267)
(7.06654 0.00531579 -0.000379309)
(6.67789 -0.00933139 0.015546)
(6.62678 -0.0272011 0.0020837)
(2.4597 -2.44663 0.00225924)
(6.57599 0.000332084 -0.000132739)
(2.44574 -2.43796 -0.00344732)
(2.48647 2.47605 0.0106966)
(6.95233 0.0145421 0.0122415)
(2.43888 -2.4387 6.17275e-05)
(2.45616 -2.44636 -0.00229195)
(3.27378 2.56351 0.155974)
(2.44546 2.45868 -0.00407658)
(2.48081 2.47451 -0.00607394)
(6.86394 -0.0210261 0.0335191)
(1.95348 -1.40109 -0.353289)
(3.12079 2.67611 0.0988651)
(6.61859 -0.00367546 0.0116109)
(2.43676 -2.43484 -0.00223331)
(7.20205 0.506837 -0.19774)
(7.19367 0.150487 -0.0852891)
(7.10685 0.0712103 0.0195364)
(2.42295 -2.41552 -0.0115646)
(3.20332 2.77958 0.293927)
(2.98398 2.66221 0.130274)
(7.14104 0.0102216 -0.0123334)
(2.47857 2.47804 -0.00187289)
(7.04723 0.0115621 -0.003474)
(7.03497 0.0200271 0.0122877)
(6.92752 0.0188095 0.0217733)
(5.67491 -0.00155723 0.010845)
(7.08813 0.027393 0.00680696)
(7.03081 0.0240539 0.0162415)
(6.79139 0.00351082 -0.0160344)
(7.08382 -0.00235242 -0.00195792)
(6.93334 -0.0116768 -0.000557548)
(2.47746 2.47881 -0.000824293)
(2.43578 -2.43762 0.0010748)
(2.4709 2.4725 0.00556748)
(7.10279 0.0235067 0.00377265)
(6.8032 0.00765875 -0.0137075)
(2.42501 -2.42509 -0.000190204)
(4.73746 -0.01598 0.0431832)
(6.96293 0.016296 0.0243907)
(7.63815 0.292498 0.139968)
(7.13873 0.0119633 -0.0111304)
(7.10739 0.0132347 -0.00315822)
(6.75006 0.0117888 -0.0224269)
(7.69634 0.3642 0.0960559)
(2.42264 -2.44481 0.0100821)
(2.43425 -2.43757 0.00203786)
(7.13279 0.00982063 -0.0132246)
(6.99622 -0.0146378 -0.0146106)
(7.7463 0.414823 0.104959)
(7.63683 0.363337 0.144049)
(6.70663 0.00416104 0.0208668)
(7.16802 0.071808 -0.025035)
(2.444 2.46503 0.00071659)
(7.84171 0.511707 0.126422)
(7.47445 0.359089 0.123071)
(2.47455 2.47393 0.00248266)
(2.43084 -2.43062 0.000827693)
(5.97056 0.0109165 -0.0288411)
(2.47756 2.47848 0.00108706)
(7.02364 -0.00349812 -0.00145783)
(6.93303 -2.7751e-05 -0.00434889)
(2.47558 2.41488 -0.0156444)
(2.62771 -2.41842 0.0232645)
(2.42859 -2.417 -0.00495323)
(2.44044 2.29811 -0.0249309)
(2.64271 -2.44013 0.0422642)
(2.43167 -2.43602 0.00256878)
(7.09196 0.0145677 -0.0100221)
(7.11049 0.00608392 -0.010582)
(7.08677 0.0109093 -0.00166156)
(6.92648 -0.0450509 0.0275876)
(6.78394 -0.0201055 0.00304924)
(6.81081 0.00360675 0.0106089)
(6.14224 0.0623107 0.00609377)
(2.43206 -2.42233 0.000654775)
(6.66946 -0.00598449 0.00136232)
(2.62493 -2.43764 0.024619)
(2.45256 -2.45554 0.000628345)
(6.84449 0.00243289 0.0133232)
(7.15831 -0.0634886 -0.0202907)
(7.12533 0.00252931 -0.0339936)
(6.92274 0.00430529 -0.006033)
(6.97664 0.00158039 0.00313304)
(2.43069 -2.42537 0.00826427)
(6.91593 -0.0186794 0.00544502)
(6.81849 -0.00481277 -0.0236327)
(4.76104 1.48861 0.208101)
(6.98717 -0.0604779 -0.00262004)
(7.04757 0.000710563 0.00182059)
(2.44229 -2.43123 -0.00495527)
(6.82026 0.00492498 0.0123608)
(7.15607 0.0147425 0.000330717)
(2.66424 -2.41432 0.00837295)
(6.8993 0.00723143 0.0304045)
(7.21533 0.000637176 0.0242522)
(6.79131 0.00343411 -0.0157576)
(6.79809 0.0107653 0.0163165)
(2.64002 -2.44787 0.0327508)
(2.4275 -2.42907 -0.00169675)
(6.7957 0.0110105 0.0210291)
(4.44283 2.77375 -0.271178)
(7.28478 0.0183093 -0.0667735)
(2.47517 2.47544 -0.00161734)
(6.82538 0.00731187 0.017866)
(6.8763 0.000769279 0.00397974)
(7.23699 -0.00783667 0.0427829)
(2.43797 -2.43585 0.00222646)
(6.63149 -0.00293057 -0.00251244)
(7.16545 0.10268 0.0544681)
(3.91861 2.61473 -0.285002)
(2.47754 2.47666 -0.00118918)
(2.47427 2.47463 0.00177621)
(7.33157 -0.0249391 0.074239)
(6.86224 0.154584 -0.0123837)
(2.60449 2.19093 -0.0530999)
(3.00965 -2.34088 0.0910572)
(6.89166 0.00218159 0.00638008)
(7.02388 0.00340571 0.000220401)
(7.09585 0.00872139 0.0100821)
(2.56594 2.22214 -0.0637311)
(2.56074 -2.36899 -0.0108485)
(6.92074 0.0913679 -0.109079)
(2.43447 -2.43495 0.0024356)
(6.63414 0.00307458 -0.0272899)
(6.83222 0.0027566 0.0123653)
(6.88334 0.00190172 0.00783347)
(6.8733 0.00479458 0.0107608)
(6.88877 0.00262969 0.0139726)
(2.46722 2.46826 0.00949635)
(5.27736 -0.0106263 -0.185523)
(6.92586 0.0165139 0.0129242)
(2.46345 2.46996 -0.0057656)
(2.47537 2.47946 -0.000514511)
(7.26036 -0.0697976 -0.0013476)
(7.06102 0.0271058 -0.00345405)
(2.53436 2.15289 -0.070007)
(6.76281 -0.0135255 -0.00552227)
(6.92035 0.00970623 0.013683)
(2.43683 -2.43641 -0.000966354)
(3.14227 2.96217 -0.0180463)
(7.16012 0.0823943 -0.0361474)
(2.44618 -2.41666 -0.0012785)
(2.69647 -1.93853 -0.0505254)
(3.68254 -1.30844 -0.125943)
(2.43989 -2.43418 -0.00152751)
(6.97464 -0.00451565 -0.00280594)
(6.8479 -0.0172965 -0.00139501)
(6.99793 0.000482939 -0.0138766)
(2.43397 -2.43411 -0.00106592)
(6.95784 0.0107453 0.0114482)
(2.43971 -2.44015 -0.00155983)
(2.43746 -2.43985 0.00149609)
(2.43079 -2.42165 0.0041465)
(4.94217 0.0212017 -0.0625605)
(7.21119 -0.0157826 0.0322252)
(6.83854 0.0187019 0.0206006)
(6.9548 0.0151502 0.0128739)
(7.20257 -0.0257954 0.000735568)
(6.941 0.0101297 0.010388)
(7.07721 0.0178537 0.00711848)
(7.20828 0.112229 0.000289881)
(7.00714 -0.000419303 -0.00342677)
(7.02531 0.00113756 0.00176241)
(2.52077 2.47928 -0.00186826)
(2.42693 -2.42913 -0.00252218)
(4.51701 0.0284406 -0.0987897)
(7.05578 -0.00335503 0.00207009)
(7.17404 0.0520518 0.059882)
(6.89219 -0.00299738 -0.00206957)
(2.43796 -2.43764 0.00279458)
(7.03869 0.0148707 0.00668385)
(7.07853 0.0283818 0.0120537)
(6.96319 0.00743569 0.00779834)
(6.34316 0.00327806 -0.0435235)
(6.46771 -0.0648541 -0.142257)
(7.04692 0.0134422 0.000965603)
(6.94455 0.0103886 0.0115521)
(7.11978 0.0686706 -0.0435274)
(2.47482 2.47754 0.00444815)
(6.63761 0.0260902 0.00470099)
(2.47576 2.47569 7.70671e-05)
(1.99554 1.4933 -0.331969)
(2.73387 -1.78344 -0.173581)
(7.38749 -0.050588 0.110338)
(7.20467 -0.025947 0.000581361)
(7.03968 -0.00900906 0.00411862)
(2.43702 -2.43288 -0.0015549)
(2.46525 2.47906 0.0189141)
(7.01622 0.0148912 0.011081)
(6.88628 -0.000155287 -0.00595597)
(2.42838 -2.42725 -0.00074818)
(2.43746 -2.43602 0.00369117)
(2.38369 -2.39834 0.0145416)
(6.84024 -0.000714769 0.00488509)
(7.00979 -0.00553888 -0.00407351)
(6.76805 0.000175292 0.0141493)
(6.66483 0.00692983 -0.0188954)
(7.15983 0.0148018 -0.0128424)
(2.84022 2.43611 0.0656657)
(2.47124 2.47661 0.00416402)
(2.43544 -2.43231 -0.000116106)
(6.99687 0.0161158 0.0106133)
(4.62426 -3.92668 -0.281812)
(6.79934 -0.00891061 0.0132227)
(7.33852 -0.0340338 0.160391)
(5.95442 0.00812593 -0.103268)
(2.4755 2.48002 0.000581222)
(2.43512 -2.43653 0.00167862)
(2.43639 -2.43775 -0.000939505)
(3.13462 2.61999 0.165649)
(7.08154 0.0122639 0.00124875)
(7.16786 -0.0279927 0.010538)
(2.47996 2.48676 0.000820018)
(7.05581 0.0081196 -0.0039473)
(2.61886 2.10706 0.154632)
(2.43972 -2.40759 -0.000726034)
(7.28305 -0.00730397 0.0518269)
(7.02889 0.0114234 0.00995102)
(7.21042 0.00346881 0.0171665)
(7.05385 0.0116398 -0.00739901)
(2.37957 2.1003 0.131383)
(3.10587 2.66142 0.177861)
(2.47108 2.47261 -0.00428018)
(7.04302 0.0127632 0.00862192)
(7.00825 0.00895488 0.00212072)
(7.23048 0.143892 -0.0526266)
(2.44796 2.43892 0.00401333)
(4.9393 4.36837 -1.05328)
(6.80364 0.056467 0.0693307)
(7.17818 -0.0185719 0.0157443)
(7.02813 0.0187425 0.00994501)
(6.75748 0.671513 -0.0527238)
(7.16292 0.00831754 -0.016513)
(2.46849 2.46569 0.00246023)
(7.15897 0.0115776 -0.00978867)
(6.90788 0.00600614 0.00900399)
(7.28288 -0.153804 0.00468374)
(7.3038 -0.0291837 0.0851717)
(7.00339 -0.0377802 -0.0358746)
(2.46384 2.4765 -0.00853519)
(2.42893 -2.43277 -0.00243514)
(2.48065 2.46402 0.010054)
(2.41688 -2.4235 -0.00146205)
(7.14213 -0.0189916 0.00451679)
(7.06934 0.00488518 -0.00154669)
(7.14468 0.0193251 -0.0241413)
(7.1626 0.00761127 -0.017997)
(2.45384 2.45835 -0.0100094)
(7.07993 -0.0338745 -0.0115323)
(2.47367 2.47432 0.00378412)
(2.42823 -2.43461 -0.000914105)
(7.15717 0.0125375 -0.0137249)
(2.24673 -2.24808 0.0309113)
(3.98738 -0.782971 -0.0564357)
(2.40668 -2.39774 0.000430542)
(2.49535 2.4638 0.0200077)
(7.11101 0.00365965 -0.00766179)
(2.47455 2.47255 0.000954839)
(6.98686 0.00480515 -0.00348531)
(6.7434 0.00760978 -0.0168419)
(2.4808 2.48114 -0.00051251)
(6.54604 -0.00126619 -0.0180115)
(6.98618 0.00593897 0.00481185)
(2.49357 2.18262 -0.0822847)
(6.92877 0.0206665 0.0315994)
(6.73714 0.0181287 0.0114151)
(6.97245 0.0157767 0.010207)
(6.54223 0.0204578 0.0789539)
(6.98546 0.00878222 0.00635344)
(6.85554 0.00133786 -3.47773e-05)
(2.44635 2.08186 -0.0078325)
(2.42771 -2.42157 0.0132313)
(6.08044 0.00708258 0.129322)
(2.45846 2.46501 -0.0134409)
(6.98441 0.0230544 0.0292387)
(7.29045 -0.0217909 0.0652)
(2.48885 2.37382 0.0205166)
(2.46908 2.48004 -0.00292043)
(7.11076 0.00091063 0.00416859)
(6.88591 -0.0219308 -0.0515716)
(6.90215 0.0272748 -0.00345113)
(7.16 0.0317508 -0.0131779)
(2.47673 2.47429 0.00169015)
(7.32509 -0.00195965 0.112186)
(7.19466 -0.0120708 0.0290469)
(2.48446 2.48009 -0.00101385)
(7.0508 0.106885 0.0892406)
(6.73518 -0.0162989 -0.0543622)
(2.43252 -2.43027 -0.000802484)
(2.42813 -2.42606 -0.00213391)
(6.95678 0.00575312 -0.00187412)
(7.05408 -0.00224361 -0.0093514)
(2.48408 2.48481 -0.00423024)
(2.43292 -2.43 -0.00484634)
(4.25104 -2.31294 0.521856)
(2.43735 -2.43872 0.000822261)
(7.088 0.00483095 0.0100005)
(2.45937 2.46687 0.00429122)
(2.43711 -2.43926 0.000605187)
(7.21252 0.00534794 0.0215186)
(6.57911 -0.066914 -0.175167)
(7.1502 -0.0375635 0.00638561)
(6.92853 -0.00961778 0.00728693)
(2.48268 2.47999 0.00112163)
(3.22196 2.47364 0.125872)
(6.91794 0.0830212 0.131868)
(3.01735 2.65772 0.147245)
(6.90023 0.021669 0.0466944)
(6.87419 -0.0576023 -0.00052732)
(7.15945 -0.0316032 -0.0191245)
(5.00532 0.134561 0.198378)
(2.96682 2.54928 0.133691)
(7.06288 -1.23041e-05 -0.0692485)
(7.28443 0.23037 -0.0633492)
(2.43508 -2.4374 0.00333424)
(7.22929 0.00903908 -0.0663099)
(7.21172 -0.018791 0.0250018)
(2.4384 -2.43691 0.0034105)
(6.99463 0.383057 -0.200532)
(6.18171 0.00105011 -0.0662321)
(3.13228 2.45406 0.102346)
(7.19094 -0.00692957 0.0248666)
(7.12619 0.000152793 -0.00591119)
(6.98263 0.00723238 -0.00620248)
(2.47779 2.47209 -0.00025131)
(6.94956 -0.0146058 0.0550005)
(7.22499 0.00963215 0.0188501)
(6.92288 0.0485923 -0.0135802)
(4.45304 -0.0641244 0.0613252)
(3.02313 2.84472 -0.0564505)
(4.18227 -0.106187 0.135755)
(2.43433 -2.43741 0.00283623)
(6.52417 -0.2134 -0.196076)
(6.9442 -0.0175302 -0.0615115)
(2.47742 2.47424 0.00407817)
(6.74238 0.0136687 -0.0360158)
(5.62017 -0.0124274 0.0875753)
(3.22553 2.84664 -0.0272025)
(2.43487 -2.43373 -0.000134179)
(2.84637 -2.42601 0.0779783)
(2.43782 -2.4372 0.00042855)
(7.01353 0.0578489 -0.0160031)
(6.97797 0.0261153 -0.00724415)
(7.00637 -0.00978636 -0.00975115)
(6.63985 0.00692814 -0.0168973)
(7.1706 -0.124682 -0.0230775)
(2.47396 2.46333 -0.00378519)
(6.97372 0.00424548 -0.00476422)
(2.444 -2.42289 -7.3e-05)
(6.88464 0.0160135 0.0139927)
(2.48319 2.48334 0.000895073)
(2.43609 -2.43424 -0.000219035)
(2.40844 -2.41485 -0.00456318)
(6.8615 -0.0327758 0.00779878)
(2.42467 -2.43128 -0.00102356)
(2.43739 -2.43811 0.00182181)
(2.44523 1.59961 -0.103101)
(2.43916 -2.43946 0.00120917)
(2.44715 2.48127 0.0226387)
(6.9507 -0.0348774 -0.0172527)
(2.47479 2.47156 -0.000597351)
(2.9406 2.16209 0.00126173)
(2.4785 2.47732 0.00319877)
(2.42748 -2.41951 -0.000353757)
(2.477 2.46585 -0.00552309)
(2.42715 -2.41372 -0.0115772)
(2.46056 2.4634 -0.000715185)
(6.42259 -0.00941413 -0.0258313)
(2.48063 2.46769 0.00994732)
(6.5014 0.0833498 0.128467)
(7.10782 0.0242998 -0.0102152)
(7.31643 -0.281727 -0.043791)
(2.47838 2.47031 0.00019796)
(6.18902 0.0129383 0.0933589)
(2.4805 2.47179 0.00177807)
(2.43835 -2.43798 -0.000424698)
(6.94094 -0.0480426 -0.058839)
(6.96755 -0.0408073 -0.0549035)
(7.00579 -0.00532268 -0.0114856)
(7.34885 0.000102964 -0.119085)
(2.85794 2.39369 -0.076197)
(7.16812 -0.00516554 -0.0353341)
(7.16364 -0.0069227 -0.0332193)
(7.00267 0.00190937 0.000980459)
(6.96654 0.00169591 0.001862)
(7.05652 -0.0545395 -0.0322352)
(2.42776 -2.42893 -0.000273311)
(7.00558 -3.42938e-05 0.00244148)
(3.25988 2.8354 -0.0195497)
(7.07047 0.00920231 -0.0121702)
(2.4712 2.4693 -0.00170877)
(7.19364 0.00102976 -0.0252249)
(3.21826 2.6661 0.0264587)
(7.02782 -0.00406764 -0.00654259)
(7.13991 -0.0258514 0.0212742)
(2.80274 -1.44946 -0.0143677)
(2.4753 2.47755 0.0266062)
(6.96828 0.00386513 0.0186046)
(2.43505 -2.43371 -0.000650551)
(7.22191 0.0184439 -0.0465635)
(7.16966 0.019159 -0.0270274)
(2.47288 2.4672 -0.0202032)
(2.46718 2.46887 0.00503387)
(2.42254 2.16033 -0.0516975)
(2.47408 2.47701 6.85158e-05)
(5.02377 -0.273427 0.136873)
(7.22703 0.0153618 -0.0384326)
(2.51314 2.45421 -0.00240424)
(2.47123 2.47317 0.00148931)
(6.36789 0.000806971 -0.0036169)
(2.47715 2.47904 -0.00169036)
(7.11558 0.0115965 -0.0222219)
(2.4752 2.47661 0.00267092)
(7.05063 -0.0268745 -0.0254725)
(2.43802 -2.43765 0.00114071)
(6.61628 -0.0301923 -0.0760656)
(5.7033 -0.0190124 -0.0105304)
(6.78938 0.00870043 -0.00573561)
(7.02673 -0.00108501 -0.00942514)
(2.48684 2.46476 -0.00573724)
(6.74718 0.0111429 -0.0199029)
(2.48168 2.47304 0.00258613)
(2.47865 2.47719 -0.00783711)
(7.01879 -0.00684903 0.00421687)
(2.47391 2.47113 -0.00152663)
(6.08657 0.000292092 -0.0489709)
(2.39056 2.19827 -0.0687048)
(7.1261 0.0125072 -0.0209589)
(2.42831 -2.42799 0.000749952)
(7.19277 0.00749797 -0.013189)
(2.44034 -2.43664 -0.00114322)
(2.96587 2.60822 0.0819138)
(7.30353 0.277505 -0.0214537)
(6.96377 -0.0490439 -0.0547721)
(7.0905 0.0189244 -0.00153288)
(7.119 -0.0572869 -0.0392513)
(7.06364 0.00306894 -0.0111224)
(7.19423 -0.0312184 -0.00273737)
(2.45862 2.47964 -0.0126074)
(7.08529 0.0346632 0.0262247)
(6.99048 -0.0554577 -0.0508649)
(2.47745 2.4769 -0.00191135)
(6.0148 -0.0886061 -0.198968)
(7.26458 -0.0673602 -0.0386194)
(6.96247 0.0189486 0.0231919)
(2.44546 2.41269 -0.0133951)
(3.05769 0.573644 -0.507665)
(6.83108 0.0100374 0.0183832)
(5.70013 -0.0246357 0.045714)
(5.78627 1.47199 -0.00734763)
(3.14185 -1.62765 -0.125484)
(7.18598 -0.0628154 -0.0118583)
(6.76374 0.0171247 0.0408348)
(6.95357 -0.0512539 -0.0561068)
(7.10209 -0.0253386 -0.0125504)
(6.94202 0.0295976 0.019063)
(6.22428 0.792231 -0.0261096)
(3.07761 2.59926 0.024103)
(6.34598 -0.245047 0.0555719)
(6.14336 -0.545716 0.117468)
(2.43264 -2.43512 0.000444628)
(6.3744 0.0340087 -0.010214)
(2.48719 2.4428 -0.0138853)
(2.90742 2.64614 0.0237306)
(7.03726 0.00374407 0.00151074)
(6.27114 1.03051 -0.0156138)
(7.5747 -0.656277 -0.126673)
(6.84355 -1.19423 0.0160646)
(2.90642 2.76095 -0.209838)
(7.15569 -0.0286753 -0.00951508)
(7.06128 0.032007 0.0296414)
(2.47244 2.46396 -0.00103908)
(3.20646 1.75732 -0.0734103)
(7.05864 0.0452835 0.0304655)
(2.43763 -2.42898 0.00208918)
(2.47416 2.47255 -0.000849563)
(2.46784 2.46704 0.000469409)
(2.47944 2.46297 0.00231942)
(7.14926 -0.05801 -0.0213669)
(2.47556 2.47481 0.00113297)
(2.44423 -2.44331 0.011704)
(7.02901 -0.0281882 -0.0258757)
(6.71049 -0.000289593 -0.00252913)
(3.55975 -3.12301 -0.167484)
(7.05771 0.041929 0.0311154)
(2.89352 2.32408 0.0569836)
(7.02853 -0.0109462 -0.00785467)
(2.38768 -2.38832 -0.0106362)
(2.47027 2.47535 -0.00273078)
(7.14227 -0.0315587 -0.0104212)
(2.47611 2.46115 -0.00780586)
(2.47623 2.46995 0.000426075)
(2.84485 2.72053 0.0758435)
(6.85672 -0.0124951 0.00750116)
(4.10777 3.43448 -0.457799)
(7.04572 -0.0167928 -0.00703417)
(7.03614 0.00292884 -0.000113917)
(2.41376 -2.39777 -0.0182301)
(7.35628 -0.0079194 0.229816)
(6.69983 -0.0304486 -0.0808391)
(7.02505 -0.00548427 -0.00686336)
(7.12682 0.125619 0.0153697)
(7.16959 0.0586899 -0.158514)
(6.2723 -0.0042072 -0.0389748)
(2.47138 2.46977 0.00203197)
(7.16819 0.00269023 0.0234102)
(7.09602 0.0218798 -0.00631082)
(2.41246 -2.4433 0.00339567)
(6.77778 0.00584998 -0.0140559)
(7.17388 0.0477787 -0.00860868)
(7.15889 0.0240992 -0.00998204)
(6.745 -0.0292077 -0.0478071)
(7.15781 0.0232746 -0.0124604)
(7.15836 0.0333883 -0.00256625)
(2.43839 -2.40686 0.015252)
(7.19303 0.00154106 0.0288838)
(6.0538 -0.0359453 -0.0222915)
(2.9952 2.59415 0.166745)
(7.15771 0.014677 -0.0181661)
(6.88152 0.0067013 -0.00721788)
(4.0047 3.25049 -0.494897)
(7.03598 0.0027279 0.000931131)
(7.16557 0.0102161 -0.0216124)
(6.88421 0.00373562 -0.0158465)
(7.10488 0.0256886 0.000922505)
(7.01957 0.06702 0.0301706)
(7.0371 0.00342345 -0.000784351)
(2.4201 2.364 0.00290047)
(7.10505 0.0312497 0.00222053)
(6.68684 -0.0371619 -0.0694253)
(2.7211 -1.65657 0.0555573)
(7.07207 0.0601772 0.0357893)
(6.98872 0.0568971 0.0568588)
(7.03589 0.0108117 -0.000505229)
(2.47173 2.4651 0.00155652)
(6.8931 0.0308828 -0.0569624)
(2.43696 -2.42497 0.00799223)
(2.47479 2.47408 -0.00179941)
(2.46228 2.44561 -0.000636203)
(2.48168 2.46799 0.00257486)
(6.1691 0.00127546 -0.0128615)
(2.96361 2.54362 0.11141)
(5.36809 -0.385966 0.436017)
(2.42067 -2.42404 -0.00115564)
(2.46928 2.50523 -0.00510508)
(7.08388 0.0624916 0.0366588)
(7.12351 0.00865015 -0.0319833)
(2.43657 -2.43717 0.000881658)
(7.14827 -0.0339629 -0.00323451)
(2.43682 -2.43382 0.00823185)
(2.43724 -2.4356 -0.000444575)
(2.39536 -2.39831 0.00691062)
(7.23374 -0.04148 -0.00469471)
(6.20677 0.0300884 -0.00659144)
(2.94725 2.6324 0.0399631)
(2.45961 -2.43249 0.00581242)
(2.47232 2.48083 -0.00351995)
(2.4752 2.47765 -0.00133089)
(7.30889 0.00781214 -0.0805559)
(7.04273 0.00464284 0.000136714)
(2.94802 2.77115 0.128006)
(7.2038 0.0105887 -0.0362123)
(6.73965 -0.0899318 -0.271817)
(2.47036 2.47243 0.00166747)
(7.18705 0.00756159 -0.0322604)
(6.60437 -0.00300894 0.0299768)
(6.94871 0.0269516 -0.0357885)
(2.47843 2.47848 0.000725332)
(2.4721 2.4681 -0.000258031)
(6.93288 0.0219923 0.0227698)
(7.04926 0.00752041 -0.00232156)
(2.93659 2.664 0.0370977)
(2.46782 2.46723 0.00184728)
(2.50182 2.42577 -0.00992576)
(7.06044 -0.0109594 0.000755115)
(2.43566 -2.43565 -0.00283801)
(2.42814 -2.42092 0.00224679)
(2.46095 2.46068 0.000702242)
(7.18246 0.0100093 -0.0295928)
(6.48851 -0.027856 0.00041963)
(2.47839 2.47879 -8.23658e-05)
(2.7753 0.524833 0.509647)
(3.05948 -0.373013 -0.0931761)
(6.92354 0.0274663 0.00422411)
(2.47334 2.47768 -0.00102946)
(2.47731 2.47236 -0.00140176)
(7.20071 -0.0732352 -0.00733465)
(6.92959 0.113352 0.099972)
(2.9813 2.65811 0.13473)
(4.36056 1.38579 0.0961059)
(6.85088 0.146224 0.208896)
(6.57535 0.0221778 -0.0248016)
(6.98535 -0.00134781 -0.000111375)
(2.56165 2.40198 -0.00460709)
(6.92644 0.0188597 -0.00171996)
(7.17282 -0.0350455 0.0435507)
(2.47934 2.47259 -0.00375586)
(2.42027 -2.37858 0.00356369)
(2.46182 2.46347 -0.000584837)
(2.47066 2.47101 -0.000367266)
(2.47542 2.48041 -0.00234213)
(2.48034 2.47909 -0.000658802)
(7.20089 0.0125432 -0.0277199)
(2.43459 -2.43519 0.00299293)
(2.46877 2.46899 0.00130209)
(2.46337 2.43304 0.00203706)
(7.20703 0.0127412 -0.0340045)
(7.04943 0.00624798 -0.000261036)
(2.44607 -2.41502 0.000810508)
(2.40683 -2.38262 0.00470674)
(7.26446 -0.0185365 0.0598101)
(6.93104 0.00312192 0.00670872)
(6.92048 0.00548082 0.00907963)
(2.4348 -2.42826 -0.00089159)
(2.4653 2.4712 0.00106377)
(6.92842 0.00422589 0.00684733)
(2.43752 -2.43481 0.000825918)
(6.88752 0.0100778 0.00733955)
(6.93075 0.0112936 0.0180538)
(6.94998 0.0109752 0.00902465)
(2.44312 -2.42526 0.00539413)
(2.43665 -2.43939 0.00237311)
(2.43723 -2.43861 0.00030455)
(2.47664 2.47998 0.00153382)
(7.04273 -0.0173517 -0.00971133)
(2.47573 2.47774 0.00359516)
(2.47018 2.46874 0.00324879)
(7.0699 0.035092 -0.032205)
(2.43684 -2.43768 0.00177449)
(6.94633 -0.00510697 0.00652154)
(6.41316 -0.0629515 0.0145415)
(2.49194 2.40587 0.0131901)
(7.03488 0.00692373 0.00153186)
(3.34563 0.435431 -0.0367879)
(6.99901 0.00443427 -0.000657253)
(7.22348 -0.00980298 0.0139479)
(6.52138 0.0166249 0.0148197)
(7.24382 0.00240597 0.0452913)
(5.27292 0.102061 -0.203675)
(2.9551 2.35475 0.0507561)
(6.98881 0.00335292 0.00108928)
(7.26949 0.0432325 0.00908685)
(7.01446 -0.0084739 -0.00330392)
(2.53608 2.19914 -0.0767495)
(3.24254 0.30874 -0.167398)
(3.8043 -0.310637 0.122346)
(6.99619 0.000365322 -0.00802032)
(2.4685 2.47079 0.00352116)
(6.87266 -0.00929354 -0.0395433)
(7.02441 -0.00361271 -0.00880792)
(6.80272 -0.0472571 -0.0934478)
(2.65352 -1.89978 -0.137271)
(2.43765 -2.4393 0.0012509)
(2.43404 -2.43478 -0.000912187)
(7.0453 -0.00808813 0.0023145)
(2.89001 2.38758 -0.0324552)
(6.84882 0.0145409 0.00192253)
(2.68874 2.44968 0.0311144)
(6.74112 -0.0110334 -0.0283543)
(6.98111 0.000492889 -0.00280062)
(6.89193 0.00193666 0.00711841)
(7.05167 0.00823085 -0.00379275)
(2.46544 2.46783 -0.000840062)
(2.45597 2.4497 -0.00393862)
(2.61479 -2.37926 0.0111328)
(7.03249 0.00778729 0.00182315)
(2.4804 2.47314 -0.00102001)
(2.86804 2.46046 -0.112307)
(7.28258 0.149524 -0.122024)
(2.4837 2.47987 -0.00293938)
(2.4627 2.47342 0.00831389)
(2.42172 -2.41574 -0.00525143)
(2.4786 2.47846 0.00337799)
(6.86304 0.000213447 0.0103975)
(2.52606 2.39811 0.00202114)
(2.47767 2.47445 0.00020127)
(5.79561 0.809328 -0.565699)
(2.90726 2.34243 -0.0287419)
(2.46382 2.46571 -0.0196543)
(3.48504 -2.0695 0.121199)
(2.47538 2.47266 -0.0018612)
(5.74764 0.00986987 -0.0327862)
(6.97392 -0.00151362 0.00363891)
(2.4259 -2.42539 -0.00169491)
(6.88144 0.0150653 -0.0337431)
(6.86242 1.08351 -0.143066)
(6.75292 -0.0513263 -0.0939233)
(7.43476 0.262611 0.0092634)
(6.83252 -0.000633541 -0.00227474)
(2.47321 2.45789 0.00582152)
(6.98264 -0.0483018 -0.0576917)
(7.26312 -0.00738231 0.0157971)
(6.74533 -0.0520642 -0.0927251)
(2.43532 -2.43317 -0.00206584)
(7.36337 1.91295 0.519663)
(6.85017 0.00207677 0.0103474)
(3.31734 2.63331 -0.158339)
(6.82125 -0.0017394 0.00155995)
(7.34324 0.074799 -0.0599223)
(7.04263 0.130599 0.0165353)
(6.93934 -0.013192 -0.0155144)
(6.94935 0.0202796 -0.00331713)
(7.40214 0.0965935 -0.0255758)
(7.00978 0.00028618 -0.00912466)
(7.00597 0.00274863 0.00312957)
(2.45526 2.46303 0.00995006)
(2.46578 2.44964 0.00733354)
(6.881 0.01156 -0.00381367)
(6.83302 0.00191292 0.00415552)
(2.4699 2.47604 -0.00178878)
(6.94407 0.00613489 -0.00237895)
(7.21165 -0.0131565 0.00883548)
(7.00444 0.00131716 -0.000416707)
(2.4739 2.4475 -0.00211135)
(7.01342 0.12913 0.0376104)
(2.46939 2.46644 -6.72471e-05)
(7.01286 0.00341825 0.00307611)
(7.00951 0.0074169 -0.000213684)
(2.47496 2.47333 -0.00100065)
(6.78796 0.0271331 -0.0352692)
(6.99469 0.00664807 -0.000535636)
(6.9888 0.117578 0.0185127)
(6.86862 -0.0102114 0.0174552)
(2.53114 2.48032 -0.00340433)
(7.12872 -0.0044603 0.0146068)
(7.01424 0.151364 0.0111114)
(7.38242 -0.186875 0.0486755)
(6.24719 0.0751067 0.0296154)
(5.64399 0.0209596 -0.0678928)
(2.47696 2.45186 -0.00415796)
(2.46941 2.46683 0.00426464)
(6.90037 0.0813373 0.0170076)
(2.4763 2.4802 -0.00142584)
(6.21263 -0.0102604 -0.041295)
(6.89261 -0.0217015 -0.0368967)
(4.19329 0.553831 -0.135189)
(7.66963 -0.50433 0.180021)
(6.76134 -0.313859 0.0850134)
(7.52613 -0.284898 0.0724827)
(2.47633 2.47789 0.000507382)
(3.3707 2.85871 0.0278571)
(7.06577 0.00853997 -0.00793413)
(2.42405 -2.43237 -0.00919526)
(1.37131 -0.959326 0.388484)
(7.02802 -0.113269 -0.0869248)
(2.46551 2.45816 -0.00525755)
(2.48008 2.475 -0.00101597)
(6.32399 -0.129865 -0.0101517)
(5.14936 -0.335729 0.0715164)
(2.47689 2.47821 0.000887736)
(6.39527 -0.121973 0.00980685)
(2.46691 2.46358 0.00337088)
(2.47477 2.48002 -0.00481717)
(2.43444 -2.43755 0.000664728)
(2.43815 -2.43289 0.00522145)
(2.39105 -2.37038 0.00506844)
(2.43352 -2.42771 -0.00105066)
(6.42804 0.0502836 -0.00816813)
(2.45504 2.4399 -0.000732623)
(2.47481 2.47468 0.00135241)
(2.45954 2.47287 0.00313829)
(5.9542 -1.32972 -0.351953)
(6.70978 -0.0431566 -0.10904)
(6.54644 0.00293789 -0.0418116)
(7.06704 0.00540679 -0.00709709)
(2.46025 2.44411 -0.000857645)
(2.48817 2.47573 -0.000643617)
(6.82212 -0.104565 -0.126415)
(2.47482 2.47612 -0.00330527)
(2.47498 2.47007 -0.00162929)
(3.97904 2.25996 0.0830936)
(7.26231 -0.0824832 0.00198137)
(7.07174 0.00964187 -0.00252775)
(2.47328 2.47193 -0.000660189)
(2.47315 2.46655 0.00492751)
(2.45982 2.45204 -0.00476349)
(2.46817 2.46142 0.000334593)
(2.47788 2.47482 -0.00179124)
(2.48277 2.47819 0.00145872)
(7.09807 -0.148053 -0.0905796)
(2.48051 2.47273 -0.00109163)
(4.94558 0.0670372 0.15993)
(7.15698 -0.00854139 0.0183534)
(2.47491 2.47929 -0.000941091)
(2.41735 -2.4297 -0.00569823)
(2.40382 -2.37621 0.000717233)
(6.03043 0.0687917 0.324945)
(2.38409 -2.38274 -0.0088389)
(2.43318 -2.43551 0.00044912)
(2.46146 2.4636 -0.0166614)
(6.4712 -0.100714 -0.00630815)
(2.46637 2.46619 -0.000798523)
(7.07274 -0.075475 -0.0467056)
(5.76356 0.0800781 -0.023486)
(4.66495 0.00288811 0.182844)
(2.46559 2.46848 0.000677638)
(4.88222 -1.28185 0.108118)
(7.1384 -0.00538402 0.0150398)
(7.15176 0.00788472 -0.0141937)
(2.61084 -2.49225 -0.0299169)
(6.92697 -0.123545 -0.0214803)
(7.06247 -0.0179827 -0.00261204)
(2.4375 -2.41836 0.00318194)
(2.56422 2.42742 0.0094226)
(3.4143 -2.63886 -0.224259)
(2.45672 2.46199 -0.00180649)
(7.06066 0.00488962 -0.00193421)
(7.1144 -0.001776 0.00785763)
(7.24434 -0.0745234 0.039079)
(4.76716 -0.00370405 0.257576)
(2.47961 2.47797 -0.00117488)
(7.06096 0.00462514 -0.000890851)
(2.5436 2.4146 -0.00651676)
(3.10605 2.6242 -0.00904373)
(3.26252 -2.54227 -0.108804)
(2.47535 2.47476 0.00112251)
(7.10944 0.0106123 -0.00507404)
(2.46474 2.46232 -0.000562846)
(2.41047 -2.36901 0.00159489)
(6.54431 -0.0785609 -0.151093)
(7.02693 -0.00482163 -1.78501e-05)
(2.41089 -2.37218 -0.00545621)
(7.05349 0.00206215 -0.0021031)
(2.63821 2.57988 -0.0142099)
(7.14143 -0.0476318 -0.0217571)
(2.32314 2.21297 0.0252774)
(2.47608 2.47558 6.34073e-05)
(2.48789 2.48042 0.00991657)
(2.43735 -2.43944 0.00158667)
(6.92413 0.00101019 -0.00531891)
(6.38514 0.00888637 -0.013689)
(7.17834 -0.0168899 0.158008)
(2.46574 2.46844 0.000122574)
(2.45778 2.41008 0.0155235)
(6.91224 0.00123463 -0.00259028)
(2.47911 2.47925 -0.00134829)
(2.90404 2.6018 0.0563282)
(2.43539 -2.43434 0.00234986)
(6.90601 0.0298889 -0.000553094)
(7.3097 -0.179517 -0.0556601)
(7.09886 0.00713453 -0.00646432)
(2.43017 -2.42564 0.00702633)
(5.66333 -0.0131927 0.148627)
(5.90597 0.00129569 0.146876)
(2.22526 1.95142 0.0166573)
(6.38339 0.0791254 0.124957)
(2.47983 2.4664 0.00423033)
(6.81426 0.0434857 0.00306098)
(7.21992 -0.00664498 0.0449069)