/*--------------------------------*- C++ -*----------------------------------*\
  =========                 |
  \\      /  F ield         | OpenFOAM: The Open Source CFD Toolbox
   \\    /   O peration     | Website:  https://openfoam.org
    \\  /    A nd           | Version:  10
     \\/     M anipulation  |
\*---------------------------------------------------------------------------*/
FoamFile
{
    format      ascii;
    class       surfaceScalarField;
    location    "58";
    object      phi;
}
// * * * * * * * * * * * * * * * * * * * * * * * * * * * * * * * * * * * * * //

dimensions      [0 3 -1 0 0 0 0];

internalField   nonuniform List<scalar> 
214403
(
-0.000467247
0.000358378
1.96706e-05
8.91985e-05
-0.000224088
-0.000756485
6.36736e-05
0.000916899
-0.000692992
4.67083e-06
-9.39719e-06
0.000697718
0.000615824
-0.000414041
-0.0010322
0.000830422
0.000831613
-0.00105146
0.000250521
-3.0676e-05
-0.000355419
0.000370294
-3.6914e-06
-1.11836e-05
-5.80187e-05
-0.000109763
-0.000623945
0.000791726
-0.0011489
0.000654422
-0.00017289
0.000667371
-0.00157566
0.00111385
0.00112244
-0.000660628
0.000958633
0.000113637
-0.00107188
-3.88719e-07
0.000340692
-0.000674985
0.000138976
0.000195316
-0.000700146
0.000219965
0.000363251
0.00011693
3.19446e-05
-0.000774254
0.000932468
-0.000190159
-0.000671587
0.00067628
-4.6929e-06
0.000129329
0.000807211
-0.0010347
9.81591e-05
-0.00080953
0.00067659
0.000205102
-7.21622e-05
-0.000819412
0.000799213
2.01991e-05
0.000267996
-7.69876e-06
-5.28644e-05
-0.000207433
0.001062
-0.000635375
-0.00141177
0.00098514
-5.23954e-06
-0.000214463
6.2999e-06
0.000213402
0.000442781
-0.000432398
-1.03835e-05
-0.000816588
-0.000282544
0.000280959
0.000818173
-0.00015413
0.000923227
-0.000744703
-2.4393e-05
0.000454654
4.78657e-05
0.000158547
-0.000661066
-0.000692727
-0.000334355
0.000896936
0.000130146
0.000638627
-0.000808605
4.99886e-06
0.000164978
0.000218304
-0.000190923
0.000715505
-0.000742885
0.0005172
0.000676149
-0.000814451
-0.000378899
0.000756168
-0.000474186
-2.13973e-05
-0.000260585
-0.000406623
0.000414488
-7.86507e-06
0.000162807
-0.000341738
0.000917024
-0.000738093
0.000955867
4.53643e-05
-0.000166424
-0.000834807
-0.000389282
-0.00039937
0.000408979
0.000379672
-7.9296e-05
-0.000447083
0.000396102
0.000130278
0.000288006
-0.000192701
-0.000625746
0.000530442
-0.000113933
0.000564226
-0.000203899
-0.000246393
0.0010864
-2.87085e-05
-0.00105769
-0.000466228
0.00090931
-0.000443081
7.84827e-05
-0.00098904
0.000577149
0.000333408
0.000166156
-6.67668e-05
0.000406724
-0.000506113
0.00037578
-3.92222e-06
-0.000371857
0.000693777
-1.50957e-05
0.000122478
-0.000801159
-0.000878757
0.000110684
0.000934229
5.85085e-05
5.87211e-05
0.000583725
-0.000700955
-0.00028046
-0.00182164
0.00176692
0.000335181
0.000393659
7.13933e-05
8.89807e-05
-0.000554033
0.000286623
0.000217211
-0.000701045
0.000197211
0.000903566
0.000541125
-0.000990037
8.20774e-05
0.000767164
-0.000155465
0.000126298
-0.000473311
-0.000278343
0.000625355
0.000214919
0.000330315
9.86578e-05
-0.000643892
0.000123369
-9.2604e-05
-0.000283504
0.000252739
0.000475833
-0.000861131
0.000600217
0.000806983
-0.000759532
-0.000260223
0.000212772
0.000736915
-0.000134784
-0.000582375
0.000789378
-3.35459e-05
-0.000173457
0.00059893
-0.000765898
8.8993e-06
0.000158069
-0.000548698
3.6205e-05
0.00087672
-0.000364227
-0.00103648
-0.000973598
0.000817687
0.00119239
-0.000555079
0.000558591
0.000109758
-0.000113269
8.75791e-05
-0.000709425
-0.000594881
-1.23668e-05
0.000309307
0.00029794
-0.000906158
0.000389411
0.000586214
-6.94666e-05
0.0010663
-0.000859951
5.56155e-05
-0.000261965
4.85136e-05
1.79461e-05
-0.000684624
0.000618164
3.54874e-05
-0.00019351
0.000956018
-0.000797995
-0.00238811
0.000259166
0.00027046
0.00185848
-0.000217482
0.0006415
-0.000203772
-0.000220245
0.000314055
-0.000165571
-0.000670052
0.000521568
7.52798e-05
0.000467585
-0.000594141
5.12758e-05
-1.0329e-05
0.000573283
0.000200038
-0.000762991
-0.000114054
-1.82277e-05
-0.000236937
0.000369219
-0.000623897
0.000680373
-2.51273e-05
-3.13492e-05
2.1252e-05
-0.000613356
-0.000441288
0.000390665
0.000118765
-6.81419e-05
-0.00114612
-7.23208e-05
0.000559023
0.000659423
-0.000338815
-0.000144358
0.000288229
0.000194944
0.000509949
-0.00171053
0.00023734
0.000963244
-0.00026014
0.000523665
-0.000285972
2.2447e-05
0.000369676
-0.000287239
3.55645e-05
-0.000118002
8.71119e-06
-0.000717769
0.000709058
2.43161e-06
0.000581972
-0.000584403
0.000501784
-9.81792e-05
6.64694e-05
-0.000470074
-0.000315047
0.000449605
0.000148898
-0.000283457
-0.00021734
0.000924852
-0.00022223
-0.000485282
0.000437238
-0.000745301
-2.82613e-05
0.000336324
0.000501865
0.000513982
-0.00101585
0.000738011
-0.000829027
0.000212031
-0.000121015
7.34765e-05
-0.000132224
0.000960001
-0.000901253
2.74983e-05
-0.000155191
0.000692594
-0.000564902
0.000165786
0.00144596
0.000415399
-0.00202715
-0.00126951
0.00111706
0.000724418
-0.000571966
5.8173e-05
0.000446592
-0.00060051
9.57459e-05
0.000590589
0.000656505
-0.000214914
-0.00103218
0.00110009
-0.000668257
-2.16618e-05
-0.000410174
4.9149e-05
-0.000144136
-0.000452543
0.00054753
-0.000457124
2.55402e-06
0.00045457
0.000668399
2.33594e-05
4.62527e-05
0.000833793
6.70123e-05
-0.00127487
0.000374062
-0.000667014
0.000147183
0.000118992
0.000400838
-0.000432114
0.000107168
5.31704e-05
0.000271775
0.000103534
7.379e-05
-0.000878264
0.000700939
-0.000175976
-0.00102454
0.000653275
0.000547236
0.000419851
-0.000496812
-0.000323854
0.000400814
0.000677685
-6.8227e-06
-0.000677339
6.4764e-06
0.000507579
-0.000718085
-0.000246613
0.000457119
0.00131634
-0.000398265
-0.000205065
-0.000713013
0.000762796
-1.35382e-06
-0.000701231
-6.02112e-05
-0.000385119
0.000453154
0.000943375
-0.00101141
0.000825195
-0.000290307
-0.000793376
0.000258488
0.00015118
-0.000222287
0.000965897
-0.00089479
-0.001088
0.000991209
0.000940325
-0.000843536
4.91075e-05
-0.00084755
0.000326837
0.000471605
0.0010599
-5.68671e-05
-2.15318e-05
-0.0009815
0.000766747
-0.000149536
0.000147758
-0.000764969
-0.000863639
-0.000785498
0.00092972
0.000719418
-0.000168781
0.000484063
0.000131235
-0.000446517
-0.000362783
1.95507e-05
0.000701529
-0.000358297
-8.28416e-05
0.000931516
-0.000867103
1.84288e-05
-0.000824237
0.000765473
0.000148969
-9.02055e-05
-2.76226e-05
-0.000480758
0.00114701
0.000146293
-0.000484788
-0.000356617
0.000695112
-0.000382771
5.02551e-06
0.000377745
0.000117421
0.000533512
-0.000492976
-0.000157956
0.000872857
-0.000503088
-0.000134375
-0.000235395
8.60213e-06
-0.000266119
0.000257517
-0.000482962
-0.000130283
0.000183129
0.000430116
5.05688e-05
0.000277935
-0.000623665
0.000295161
0.00109542
-9.89632e-05
0.000428085
-0.00142455
7.42707e-05
-9.89178e-05
-0.00128825
0.0013129
8.27865e-05
-0.000372778
-0.000487161
0.000777153
3.17799e-05
0.000674819
-3.81994e-05
2.71808e-06
-0.000406062
0.000403344
0.00080609
-0.000299857
-0.000359941
-0.000488371
0.000406326
-0.000400917
0.000906797
-0.000754338
-9.18722e-05
-6.05864e-05
8.88498e-05
-0.000420052
0.000183673
0.00014753
-0.000739687
-0.000223839
0.000150344
0.000813182
0.000614993
-0.00099984
0.000658655
-0.000273808
-2.78391e-05
0.000903011
-0.000904081
2.89094e-05
-2.97818e-06
0.00081738
-0.000809898
-4.50393e-06
-0.00114865
0.000916609
-0.000735908
0.000967949
0.000957687
-0.000926586
-3.11016e-05
-0.000879442
0.0011774
-0.000214878
-8.30802e-05
-0.00078647
0.000189892
-6.13763e-05
0.000657954
-0.00129405
9.97051e-05
0.000831926
0.000362418
0.000225037
-0.000307293
0.000171106
-0.000324622
0.000369451
0.00059389
-0.000638719
-0.000336578
-0.000151242
0.000192833
0.000294987
-0.000466751
0.000305253
-0.000589432
0.00075093
0.000140051
1.15052e-05
-0.001031
-0.000469071
0.000468031
1.03943e-06
0.000496034
-0.000476621
-1.94133e-05
-0.000759066
-5.03067e-05
-0.000201769
0.000186377
-0.00100017
0.00116384
-0.000350044
0.000449978
0.000774154
-0.000984864
-0.000239268
0.000859906
-0.000933959
2.52828e-05
4.87708e-05
0.000457605
0.000118522
-0.000472602
-0.000103525
-0.000719026
-4.30066e-05
0.000948409
0.000426545
-3.088e-05
-0.000520084
0.000124419
0.000480618
-0.000411665
0.000474257
-0.000543209
-0.000819158
0.000154055
0.00111508
-0.000276494
-0.000387083
0.00127962
-0.000616043
-0.000389031
-0.000435344
0.000105349
0.000118041
0.000312512
-0.000819584
-0.000556842
-4.91699e-05
0.000894365
-0.000288352
8.68949e-05
0.000138277
0.000497878
-0.000723049
-0.000259106
0.000634647
-0.000375541
0.000208535
-0.00100594
0.00036206
0.000601344
0.000418512
-0.000901815
-0.000831865
9.96579e-06
0.00103663
-0.00021473
0.000147183
0.000126456
0.000394591
-0.00066823
0.000571296
-0.000575849
4.55224e-06
0.000210633
-7.95494e-05
0.000707091
-0.000838174
0.000758232
-0.000240286
0.000364353
-0.0008823
0.00139362
-0.000449304
0.00104147
-0.00198578
0.000221992
0.000413988
-0.000171644
-0.000464336
-0.00064502
0.000265589
0.000337231
4.22007e-05
0.000460732
-0.00034725
-9.50157e-06
-0.00010398
-0.000287014
-0.000361942
0.00105604
-0.000407085
-0.000517033
0.000672133
0.000266988
-0.000422087
0.000780023
-4.26515e-05
-0.000256754
-0.00118373
0.000782048
-6.50704e-05
-0.00113001
0.00104234
0.000484289
-0.00039662
0.000720666
-0.000811897
-0.000117289
0.00020852
0.000405189
-0.000732453
-0.000383243
-0.000418501
-0.000383807
0.000217337
0.000584971
-0.000597415
0.000185303
0.000589805
-0.000177693
0.000694184
-0.000659722
-0.000455385
0.000420923
4.25212e-06
-6.13328e-06
-0.000663127
0.000665008
1.55724e-05
-0.000567536
-2.15627e-05
0.000573526
-0.000167942
-0.000994111
0.000156647
-0.000574811
0.000516544
-9.83795e-05
-0.000382132
-0.000161064
-5.4219e-05
-1.20619e-05
0.000957733
1.29614e-05
-0.00229252
0.00161352
0.00116589
-0.000486879
-0.000677356
4.58631e-05
2.43297e-05
0.000607163
-0.000133839
0.00214707
-0.00252974
0.000516508
0.000109588
0.00016895
-0.000379127
0.00010059
-0.0014513
0.000782
0.000100367
0.000568938
-1.69415e-05
-0.00096205
-0.000137367
0.00111636
-0.000388167
0.00144728
-0.0010027
-5.64137e-05
0.00065092
0.000945318
-0.000874957
-0.000721281
-0.000777844
0.000740715
0.000920134
-0.000883005
0.000308116
0.000430501
-0.000536103
-0.000202515
0.000299473
-0.00020198
-0.000479625
-0.00154472
-6.12892e-05
0.00126097
0.000345036
0.000463338
7.29688e-05
-0.000270718
0.000465789
0.000624385
-0.000576343
-0.000513831
-0.000774066
0.000172467
0.000753921
-0.000152322
9.12611e-05
0.000242484
0.000843656
-0.000893374
0.000882177
8.57367e-05
-7.45394e-05
0.000565442
0.000443922
-0.000399169
-1.58017e-05
-0.000112247
0.000527217
-0.000590713
-0.000117359
0.000333813
-0.00112535
0.000475178
0.000316361
3.49787e-05
0.000615056
-0.00068279
3.27548e-05
-0.000231255
4.47185e-05
-0.00021498
0.000401516
0.000950758
-0.000679637
2.83521e-05
-0.000539363
-0.000421984
0.000567442
0.000393905
0.00203937
-0.00218135
0.000712481
-0.000570506
-0.000400784
0.000497826
0.000200728
-0.00029777
-0.000892219
0.00038811
0.000777546
-0.000273437
-0.000385905
0.000561666
0.00072226
-0.000898021
0.0010768
-0.000416395
-0.00071019
4.97819e-05
1.85579e-05
-0.000258426
0.000628583
-0.000388714
-0.000109151
0.000108258
-0.000830973
0.000780127
0.000252538
-0.000835134
-0.000197531
0.00097359
-0.000801684
-0.000214913
0.00020062
0.000294874
-0.000703309
0.000207815
-0.000410705
-0.0007508
0.000668509
0.000492996
-0.000123096
-0.000319402
-9.68652e-05
0.000401578
-0.000428446
0.000923581
-0.000896712
9.70017e-05
-0.00111416
0.00101716
0.000367791
-0.000483812
0.000316641
0.000210147
0.000122988
0.000172736
-0.000505871
-2.23846e-05
-0.000928888
0.000951272
-0.000520013
6.90136e-05
-0.000168616
0.000619615
-6.14832e-05
0.000704902
-0.000642441
-9.77687e-07
-0.000478441
-0.000253001
0.000276109
0.000455332
-0.000178463
-0.000423074
-0.000392917
-0.000577578
0.000481574
0.000488921
2.12137e-05
-0.000592594
0.000997805
-0.000410414
-5.3196e-05
-0.000534195
0.000544752
-5.31293e-05
-0.000397479
-9.4143e-05
-8.74422e-05
0.000761793
-0.000949694
0.000275344
0.000479236
1.85223e-05
0.000233405
-0.000731164
-1.77042e-05
-0.000395573
0.000190987
0.00022229
-0.000280853
0.00036466
0.000703474
-0.000787281
-0.000990996
-0.000250045
-0.000271162
0.000888999
-0.000847878
2.0274e-05
0.000265144
0.00056246
8.18426e-05
-0.000300953
-0.000535581
0.000754692
-0.000399193
-0.000779235
0.000196606
0.000981823
-0.00034975
-0.000386183
0.000401501
0.000334433
-0.000917953
0.000883777
0.000934911
-0.000900736
-0.000127746
-0.000223149
-0.000672004
0.0010229
-0.000923107
8.67968e-05
0.000938363
-0.000102053
-0.000161105
0.000423055
-0.00026195
-0.000372342
0.000688587
-0.000518401
0.000202156
-1.49227e-05
0.00120655
-0.000449276
-0.000742356
-0.000431847
-0.000208207
0.000865606
-0.000225552
0.000139153
-0.000365013
0.00082832
-0.00060246
3.89265e-05
0.000551825
-9.67259e-05
-2.91585e-06
-0.000881131
0.000880786
3.26145e-06
0.00103294
-0.000182933
-0.00150956
0.000659557
-0.000953728
-9.30341e-05
0.00119022
-0.000143454
-0.000515542
0.000779189
6.4022e-05
-0.000327669
0.000452778
-0.000448374
-4.40431e-06
-0.000537926
5.20845e-05
-0.000464589
0.00095043
-0.000774061
0.00106716
-0.000222669
-7.04327e-05
0.000483676
-0.000202791
-0.00058253
0.000301646
-0.000932913
0.00094036
-7.4473e-06
0.000769499
-0.00111864
9.11529e-05
0.000257986
-0.000871471
-0.00023876
0.00149012
-0.000379885
0.000642587
-2.57751e-05
-0.000135439
-0.000481373
-0.000367199
-0.000622834
0.00139161
-6.53543e-05
-0.000918957
0.000555865
0.0014135
-0.00157657
-0.000149675
0.000312743
0.000395585
0.000188657
-0.00043706
-0.000411158
0.000427597
-1.64387e-05
-0.000164953
0.00092302
-5.86187e-05
-0.000699448
-0.000201363
0.00023874
0.000800879
-0.000838256
0.000523431
0.00122975
-0.000719267
-0.00103392
0.000921924
-0.00110613
0.000351585
-0.000167382
0.000815754
1.16528e-05
-0.000827407
1.53403e-05
0.000793918
-0.000809258
0.000897109
-0.00108524
0.000957631
1.01346e-05
-8.36201e-06
0.000696385
-0.000698158
1.75312e-05
0.00127297
-0.00126764
-2.28554e-05
-0.00010851
-0.000321255
-0.000650591
0.00108036
-0.000397073
-0.00023789
7.94697e-05
0.000754231
-0.00130949
0.000475785
-0.000620172
-0.000162464
0.000664766
0.000117871
-0.000751044
0.000829673
-0.00022163
0.000143001
0.000115234
0.000601296
-0.00020442
-0.000512111
-0.000282728
6.68943e-05
0.000488401
-0.000272568
1.74957e-06
0.000233474
-0.000296927
6.17031e-05
-0.00031713
0.000780994
-0.000452403
-1.14608e-05
0.000232519
-0.000735913
-0.000429519
5.44518e-06
-0.000685578
0.000680133
-0.000261467
-0.00025099
0.000116275
0.000396182
0.000375277
-0.000216363
-0.000158914
0.000960293
-0.000953375
-0.000194941
0.000188023
-8.6935e-05
-0.000568283
0.000524018
0.0001312
-2.42747e-06
3.25357e-06
0.000526236
-0.000527062
0.000263796
-0.000216754
-0.000838639
0.000791597
0.000607198
-1.5236e-05
-0.000591962
-0.000866691
-0.000560847
0.000836222
0.000591316
0.000508944
0.00079725
-0.00137155
0.000482169
-0.00017379
0.000271985
-0.000580364
-0.000193506
0.000193387
-0.00106715
0.00106727
0.000301615
-0.000594064
-0.00057711
0.000869559
-6.05713e-05
-0.000133423
0.000629135
-0.00043514
0.000438021
-0.000538362
0.000195044
-9.47028e-05
0.000251346
-0.000416197
-0.000402017
0.000566869
-0.000789852
0.000889222
-0.000236694
0.000137324
0.000913303
0.00117276
-0.0012938
-0.00079226
-0.000696624
0.000693789
2.83506e-06
-7.91548e-05
0.000824014
-0.00102602
0.000281166
3.07866e-05
-5.16013e-05
-0.0007917
0.000812514
0.000759929
3.17968e-05
-0.000874251
8.25246e-05
-0.000340041
-0.000574471
0.000722589
0.000191923
-0.00082245
0.00116557
-0.000412627
6.95035e-05
-0.000323332
-0.000397169
0.000235713
-4.91968e-05
-8.26852e-06
-0.000569091
0.000626556
-0.00185702
7.9781e-06
0.000165579
0.00168346
7.1667e-05
-0.000460298
-0.000239065
0.000627696
0.00116242
-9.55496e-05
-0.000376444
-0.00069043
-0.000199412
-0.000438398
8.07892e-05
0.000557021
0.000333461
-1.16472e-06
-0.000332297
0.000547092
0.000291422
-0.000181489
-0.000657025
0.000422929
-0.000334819
0.000833448
-0.000921558
2.6607e-05
0.000866991
-0.000286684
-0.000606915
0.000210679
0.000300955
0.00065079
-0.000404559
3.0918e-05
0.000373641
-0.0005297
7.60845e-05
0.000139807
8.82386e-05
-0.000728431
0.000500385
-0.00070657
0.00103395
0.000313323
0.00106864
-0.00022674
-0.00115522
-0.000679485
0.000664691
-0.00105337
0.00106817
-9.92681e-05
-0.000497116
0.000174084
0.000422301
-0.000559386
0.00106125
0.000317989
-0.000384305
9.13997e-05
-2.50832e-05
-0.000348542
-0.00111003
0.000347279
0.0011113
0.000728926
-0.000727457
-6.59325e-06
5.12413e-06
0.00058691
-0.000685755
0.000145571
-4.67255e-05
0.000151027
0.000592337
-0.00105505
0.000311682
2.55008e-06
0.000496468
-0.000499018
0.000329728
-0.000844479
0.000665777
-0.000318996
0.000856535
0.000721555
-0.00125909
0.000242332
-0.000247981
-0.00114969
0.00115534
-0.000348354
0.000576391
-0.00115624
0.000928207
-0.000825523
0.000657263
0.000861729
-0.000693468
-0.00050623
0.00069327
-0.00044794
0.0002609
-0.000111716
0.000486455
7.94467e-05
-0.000454186
0.000235866
-0.000343611
0.000354146
-0.000246401
0.000465604
0.000173325
0.000153307
-0.000792236
0.0012961
-0.000879208
-5.34741e-05
-0.000363419
-1.661e-07
-0.000628211
0.000628377
0.000395259
-0.000576791
-0.00176863
0.00195016
-7.90021e-05
-0.000856765
-0.000259521
0.00119529
-5.07089e-05
-0.000384376
0.000435085
0.000119752
0.000568784
-9.04215e-05
-0.000598115
-0.000155474
-0.00056111
0.000452951
0.000263632
0.000454422
-0.00038081
-0.000668493
0.0011315
-0.000880778
0.000255096
0.000269833
-0.000524929
0.000857529
-1.04799e-06
-9.82709e-05
-0.00075821
-0.00016748
-0.000285189
0.000452669
0.000297622
0.000197135
0.00170919
-0.00205618
-0.000725324
0.00107231
0.00025641
0.000546336
-0.000417887
-0.000384858
-0.000598013
0.00114596
0.000760455
-0.00130841
0.000673855
0.000233872
-9.01577e-05
-0.000817569
0.00109101
-0.000727385
0.000469406
-0.000833034
-0.000623332
0.000285119
-0.000780905
0.00111912
-0.00101775
0.00182415
-0.00071474
-9.16576e-05
-2.9205e-05
-0.000423961
-0.000584915
0.00103808
0.000824697
0.000341013
-0.000968182
-0.000197528
0.000442494
-0.00118029
0.000744708
-6.90767e-06
-0.00104174
-3.94663e-05
0.000681275
0.000399928
-0.000208266
0.000540114
0.000235247
-0.000567096
-0.000132617
0.000531065
0.000427517
-0.000825965
-0.00108547
0.000558655
-5.26423e-05
0.000579456
9.55203e-05
-0.000287972
0.000574537
-0.000382086
0.000470383
-0.000236659
0.000167904
-0.000401627
0.000445918
8.4914e-05
4.36655e-05
-0.000574498
-0.00064291
0.00069001
0.000255392
-0.000302492
-0.000155664
0.000834997
1.65978e-05
-0.000695931
0.000674862
-0.000396033
-0.000261803
-1.70267e-05
0.000568543
3.80187e-06
-0.000572345
0.000416159
0.000322308
-7.30664e-05
-0.000665401
0.000199371
0.000525179
0.000448275
-0.00117282
-6.17126e-07
-0.000941908
0.000942525
-0.000492671
0.00190448
-0.000277234
-0.00113458
-8.01028e-06
0.000709107
-0.000701097
-4.64351e-05
-0.000500038
8.97559e-05
0.000456717
-0.000927739
0.000471913
0.000360571
9.52551e-05
0.000189343
0.000157545
-0.00108607
0.000739179
0.000541734
0.000855815
-0.000319839
-0.00107771
0.000834588
-0.000286658
-0.000798974
0.000251044
-0.00104133
0.000593912
0.00158718
-0.00113976
-2.76562e-06
0.000408526
-0.000408493
2.73305e-06
-0.000421739
0.000417307
4.43258e-06
-0.00105988
1.6104e-05
0.000445765
0.000118798
0.000256129
0.000701109
-0.00107604
0.000538062
-0.000639187
0.000412977
-0.000311853
-0.0005413
0.000474036
-1.79002e-05
8.51638e-05
-0.000106593
-0.000882067
0.00112601
-0.000137346
-0.000399585
0.000192386
0.000632551
-0.000425352
0.000677006
-0.000261531
9.96314e-05
-0.000515107
-0.000438582
-7.63553e-05
0.000513374
1.56406e-06
-7.90672e-05
-4.21883e-06
0.000751098
-0.000667812
9.23314e-05
-7.85565e-05
0.000733646
-0.000747421
-0.000660347
0.000924091
-0.000968604
0.00070486
4.90469e-06
-0.000830683
0.000825778
-0.000296243
2.56012e-05
0.000747141
-0.000476498
-0.00055671
0.000650838
-0.000887488
0.00079336
-0.000572212
4.40415e-05
0.000171553
-0.000270886
0.000731566
4.09197e-05
-0.0005016
-0.000193088
2.74626e-05
-0.000322746
-0.000288566
-0.000934636
0.000939149
0.000284052
-0.000415401
-4.89752e-05
-0.000104167
0.000568543
-0.00142865
0.000482584
0.000142677
0.000803394
-0.000439073
0.00103463
-0.000520508
-7.50523e-05
0.000306412
0.000120246
-0.000619746
0.000621053
0.000632993
-0.00125405
8.41469e-05
0.00136182
-0.00031388
-0.00113208
-1.77186e-05
-2.4857e-05
-0.000615946
0.000658521
-0.000655912
0.00107993
-0.000434582
1.05663e-05
0.000621847
-0.00039247
-0.000563623
0.000334246
0.000158488
-2.11915e-05
0.000194229
0.000953035
0.000261998
-0.00137408
0.000159044
-0.000661028
-8.56061e-05
0.000216806
0.000529829
0.000244678
-0.00027412
-0.000367727
0.00115189
-0.00077495
0.000602489
-0.000979429
-0.00012783
0.000743166
-0.00128475
0.000669413
0.000446113
-0.00056374
-5.71804e-05
0.000174807
-0.000482543
-0.000167829
-1.6347e-05
0.000666719
-0.000367378
-0.000347457
0.000714835
9.25178e-05
-0.00098897
0.000876813
1.96392e-05
0.000378064
-0.000364662
-0.000380781
-0.00061271
0.000776502
-0.000148593
-1.51992e-05
0.000868484
0.000238044
-0.000934463
-0.000172065
-0.000337507
-0.000494115
-5.68657e-05
0.000888488
0.000574637
-0.000174604
0.000666218
-0.00106625
-0.000625012
-3.53357e-05
-0.000747331
0.000399875
9.42537e-05
-0.000819804
0.000262142
0.000463408
0.000243837
-0.000873335
0.000480273
0.000149224
0.000129421
3.48946e-05
-0.000652574
0.000488259
9.73661e-05
0.000421367
-2.95932e-05
0.000753992
-0.000149081
-0.000575317
-0.000294079
-3.26767e-05
-0.000275529
0.000602285
-0.000175138
-0.000235876
0.000451041
-4.00271e-05
-0.00068377
-8.95669e-06
-0.00115379
0.000413915
0.000607261
0.00164242
-1.35512e-05
0.000224276
-0.00185314
-0.000717385
0.00111539
0.00022594
-0.000623944
-0.000204467
0.000111283
0.000706213
-0.000613029
8.37742e-05
0.000237665
-0.0001839
-0.00013754
-0.00123272
-0.000254195
0.00106631
0.000420605
2.78359e-05
0.000534046
-0.00010746
1.60701e-05
0.000262713
-0.000824495
0.000545712
-0.000499024
-1.74641e-06
0.000183968
0.000316803
-0.00071653
0.000885265
-0.000140899
0.000403156
-0.000363372
-3.97842e-05
-0.000581261
8.38663e-05
-0.00045319
0.000950585
-0.000269327
0.000405074
-0.000312232
0.000176485
-0.000579694
0.000652129
-0.000269505
0.00019707
0.000251564
-4.17413e-05
-0.000586719
0.000376896
-0.0002594
0.00162705
-0.0021901
-0.000225179
-0.000157302
0.000153983
0.000228498
0.000753391
-0.00117722
-5.35157e-05
0.000477343
-0.000311577
0.000232377
0.00040079
-0.000321591
-9.38481e-05
0.000492846
-0.000134976
-0.000264023
-0.00055404
0.000122993
0.000129534
0.000301514
-0.000322642
2.76877e-05
0.000294954
0.000711176
-0.000338649
-0.000360768
-1.17587e-05
5.45821e-05
0.000371348
-0.000563704
0.000137774
-0.000380688
-0.000461129
0.000470291
0.000371526
-0.000202106
0.000519951
-0.000445487
0.000127642
0.000183979
-0.00034842
0.000240024
-7.55829e-05
0.000683143
1.94143e-05
-0.000702557
0.000588638
-0.000725504
0.000359371
-0.000222504
-0.000920485
-2.59847e-05
0.00094647
0.000372357
-0.000308989
7.20807e-05
-0.000135449
-3.09631e-05
0.000654449
-0.000713132
8.96466e-05
-0.000320785
0.000401605
0.000103159
-0.000373226
0.000799787
0.000739013
-0.000619748
0.00061426
5.48783e-06
1.42993e-05
-0.000982646
0.000968347
0.00132818
0.000159346
-0.0002829
-0.00120463
0.000275792
-0.00108173
-0.000132367
0.000938306
0.000205812
0.000242819
0.00013938
-0.000588011
-0.000372106
-0.000372779
5.68731e-06
0.000739198
-0.000177311
0.000243535
-0.00043833
-0.000817507
0.000147771
0.00107295
-0.000403212
-0.00160384
0.00117435
0.000517542
-8.80534e-05
0.00070822
5.83427e-06
-0.000714054
-0.000411289
-0.000553447
0.000357845
0.000606891
-0.000404688
-0.000588054
0.000175235
-0.000574101
0.000312337
0.000359131
0.000236966
-0.000308466
-0.000564971
0.00063647
-0.000389914
2.65137e-07
0.000389649
-0.00093187
0.00037799
0.000384925
0.000168955
0.000229744
-0.000617158
-0.000186687
0.000799634
-0.000253807
-2.00273e-05
-0.0005258
-0.000536124
0.000889379
0.00052788
-0.000881135
-0.000163382
-0.000338707
0.000129525
0.000372565
-0.000220821
-0.000177617
0.000398437
-0.000394315
-0.000828893
-0.000380627
0.000189498
2.42474e-06
0.000382593
-0.000574515
0.000760428
-0.000554189
-0.000800096
0.000593857
-0.000281945
0.000100772
0.000570039
-0.000388866
0.000522655
-0.000367889
-5.19233e-05
-0.000102843
-0.000598827
9.71897e-05
0.000467869
3.37686e-05
-0.000369923
0.000848297
-0.000925152
0.000360782
2.67614e-05
0.000537609
0.000879804
-0.000709105
-0.000550964
0.000380265
-0.000705102
0.000146796
0.00131874
-0.000671006
-0.000442937
0.000721992
0.000391952
-7.88477e-05
0.000698257
-0.000264745
-0.000354664
4.06824e-05
-0.000420413
-0.000277752
0.000657482
0.00079518
-0.000524471
-3.23056e-05
-0.000238403
0.000251487
0.000187613
-0.000616411
-0.00016716
0.000189116
0.000466671
-0.000488627
-0.000142445
0.000739727
-0.000911262
0.00031398
-0.000454614
0.000109635
0.000110062
0.000234918
-0.000972641
0.000988783
-1.61422e-05
0.000665166
-0.000655356
-9.8101e-06
0.000270039
-0.00104288
-0.000400618
0.00117346
0.000238784
0.000454756
0.000106094
-1.11368e-05
0.000387572
-0.000376435
0.000633052
0.000567746
-0.0012008
-0.000691311
0.000421999
0.000298356
-2.90441e-05
-0.0003883
0.000127986
0.000315629
-5.53146e-05
-0.00118706
0.000554249
0.000651331
-1.85185e-05
-0.000375928
-0.00041959
0.000405603
0.000609001
-9.63396e-05
-0.000391864
-0.000120797
-0.000639067
0.000688385
-0.00041924
0.000116079
-0.000736577
-3.66415e-05
0.000657139
-8.48871e-07
-0.00036835
0.000369199
0.00177687
1.20927e-05
0.000190278
-0.00197924
-6.83256e-05
-0.000133926
-0.00098587
0.00118812
0.000302899
-0.000410132
-0.00018939
0.000296623
0.000120362
0.000917421
-0.000371913
-0.00066587
0.000999821
-0.000999863
-1.94728e-06
1.98992e-06
-0.00056223
-0.000507168
0.000792708
0.000276691
0.000327507
0.000249981
-0.000652117
7.46294e-05
4.76973e-06
0.000608136
-0.000621564
8.65831e-06
-0.000836278
0.000268572
0.000677653
-0.000109947
0.000626253
0.00037826
-0.000633786
-0.000370728
1.5353e-05
-0.000572814
0.000289477
-0.00014872
0.000859063
-0.000452523
-5.88972e-05
-7.06131e-05
0.000582033
-0.000776119
4.16762e-05
0.000734442
0.00113243
0.00048692
-0.000366103
-0.00125325
-0.00073915
1.58807e-05
0.000738623
-6.59164e-05
-0.000171303
-0.000438363
0.000675583
-7.99561e-05
-8.8762e-05
-0.000239053
0.000407771
0.000186089
-0.000944199
0.000711906
4.62044e-05
0.000582918
-9.16394e-05
-0.000566821
7.55428e-05
-0.000703423
0.000141321
4.34391e-05
0.000518663
-0.000274262
0.000181927
-0.000382347
0.000474681
0.000158691
0.000103078
-0.000936665
0.000674896
3.30832e-05
-0.000634187
-4.46168e-05
0.00064572
0.00062764
8.23627e-05
-1.09267e-05
-0.000699076
-0.000750549
0.000174776
0.000679307
-0.000538453
-0.000714793
0.00125325
0.00102942
-0.000522362
0.000226166
-0.000733226
8.15191e-05
0.000573749
-0.000352369
-0.000839094
0.000151118
0.000300159
0.000387817
0.00103535
-0.00107297
3.76123e-05
-0.000642974
-0.000218022
0.000449928
0.000411068
-0.000816838
-0.000634304
0.000425356
0.00102579
0.000831226
-0.000868203
-0.000106476
0.000143453
-0.000120138
0.000404049
-0.000318679
3.47678e-05
-0.00106547
0.0003477
0.000244631
0.000473139
-0.00155673
0.00192608
0.000332852
-0.000702206
0.000690844
-0.00150862
-8.51427e-05
0.000902919
-0.000621767
0.00080097
-0.0014729
0.00129369
-0.000643127
0.00141076
0.00014162
-0.000909253
5.76562e-05
0.000681489
-0.000159402
-0.000579743
0.00103617
-0.000777068
-2.61363e-05
-0.000232962
-0.000178087
-0.000170865
0.000261287
8.76656e-05
-0.000479493
-0.00100496
0.000861429
0.000623027
-0.000694587
0.000925065
0.000805688
0.000578369
-0.000425071
-0.000529817
0.000376519
0.000204256
-0.000264338
-0.000116763
0.000176845
0.000451569
-0.000446439
-0.000595976
0.000590846
-0.000183446
0.00052636
-3.81418e-05
-0.000304773
-0.000743716
-0.000118939
0.000920311
-0.000549942
-0.000135171
0.000679847
5.26588e-06
0.000234863
-0.000524739
0.000289876
0.000183487
-0.000243823
0.000906521
-0.000846185
0.000707409
-0.000996239
0.000144754
0.000144076
0.000459789
-0.000495215
3.54259e-05
-0.000713949
1.9362e-05
0.000626977
-0.000239402
-0.000605551
0.000217976
0.000200939
0.000162591
0.000711977
-0.00107551
0.000450419
-0.000488843
3.84233e-05
-5.30269e-06
0.000543006
-0.000613849
7.61451e-05
-0.000784175
-7.57987e-05
0.00104346
-0.000330871
-5.66348e-05
7.64582e-05
0.000311048
4.571e-05
-0.000378309
0.000279184
5.3415e-05
0.000620011
-0.000593542
-0.000146606
7.25026e-05
0.00104529
-0.000658173
-0.000459615
-0.000358722
0.000752871
-0.000394149
-0.000974626
0.000373299
-0.00022838
0.000829707
0.000768792
-0.000696312
-0.00113795
-0.000382124
-0.000456616
0.00157007
-0.000731334
-0.00109784
0.000698482
0.000995806
-0.000596446
-2.39587e-05
-0.000933793
0.000957751
0.00148519
3.56417e-06
-0.000856031
-0.000632718
0.000860373
-0.000554204
-7.52827e-05
-0.000230886
-0.000626553
0.000442532
-0.000109358
0.000293379
8.40183e-06
-0.000642468
0.000634066
-0.000461612
0.000475099
-1.34865e-05
-0.000342239
-0.000362522
-0.000928504
0.00163326
-0.000874377
0.000190649
-9.75972e-05
0.000781325
0.000207071
0.000335909
0.000894827
-0.000807314
-0.000667982
0.000580469
-0.000248988
-0.000512501
0.00056519
0.0001963
-0.000517438
-0.000263287
0.000781439
-7.142e-07
0.000168664
-9.70938e-05
-0.000477137
0.000405567
0.000571167
2.51947e-05
-0.000730127
0.000133765
0.000176379
-0.000122649
0.000193085
-0.000232893
0.000231922
-0.000192115
0.000468156
0.000457961
-0.000467956
-0.000458162
0.000228527
0.000533187
-0.000552102
-0.000209613
0.000476804
0.000206743
-0.000377135
0.000603604
-0.000731858
0.000153449
-0.000801057
0.00056033
0.000301117
-6.03899e-05
0.000936341
-0.000312281
-0.000982782
-0.000255874
0.000681894
0.000342772
0.000663587
-0.000323269
-0.000558573
-0.000152316
-9.01685e-05
-0.000893017
0.000834902
7.90236e-05
-2.09083e-05
-5.56552e-05
0.0011142
-0.000116087
-0.000942455
-0.00073025
0.000148888
0.000325489
-0.000114013
-0.000719154
0.000202276
0.000630891
0.000667045
9.27423e-05
-2.71863e-06
-0.000757069
-0.000993067
-8.40015e-06
6.44161e-06
0.000995025
-0.000261573
0.000282946
-0.000467026
0.000445653