/*--------------------------------*- C++ -*----------------------------------*\
  =========                 |
  \\      /  F ield         | OpenFOAM: The Open Source CFD Toolbox
   \\    /   O peration     | Website:  https://openfoam.org
    \\  /    A nd           | Version:  10
     \\/     M anipulation  |
\*---------------------------------------------------------------------------*/
FoamFile
{
    format      ascii;
    class       volScalarField;
    location    "58";
    object      SgT;
}
// * * * * * * * * * * * * * * * * * * * * * * * * * * * * * * * * * * * * * //

dimensions      [1 -1 -3 -1 0 0 0];

internalField   nonuniform List<scalar> 
111485
(
8.23536e-17
0.00902181
0.0210459
3.93619e-18
0.0449906
3.909e-16
0.0417164
0.00587338
0.0183895
0.00112854
0.0418911
0.00915502
0.00425459
0.000836207
0.00592569
0.031654
0.0012943
1.99765
0.0100153
2.74696e-15
2.23823e-15
8.825e-17
0.0234949
0.0355179
0.00846653
3.51975e-16
0.0400881
0.00174655
0.0159351
1.43922e-17
0.0435977
0.0173575
2.74925e-16
2.40093e-17
0.00966977
3.88774e-18
0.010516
0.00388794
6.43812e-08
0.0215959
9.75925e-19
0.0720128
0.0144254
0.000997279
3.68555e-05
1.96835e-17
0.0328424
0.000720637
0.0475694
1.16059e-15
1.19155e-15
1.02349e-14
2.02812e-15
0.0444521
7.27161e-15
0.043028
0.00355581
3.48718e-18
2.70531e-05
0.00449119
0.0149296
2.99665e-16
0.00401985
0.0883787
9.85998e-15
0.00359218
0.300947
0.097286
0.000922224
0.00512572
6.62544e-06
0.00547418
1.6254e-15
0.00244665
2.5572e-17
0.000638277
4.23979e-16
0.0425168
4.91664e-16
2.98197e-14
5.21045e-05
0.0316006
7.90582e-16
1.68155e-17
0.00813113
0.00442607
5.82672e-10
0.022536
4.64976e-05
0.00678449
0.000867544
0.0410935
0.0103463
6.14578e-05
0.055986
1.21409e-16
1.70234e-17
0.00145212
8.86592e-09
0.00147908
1.56627e-17
0.0195174
1.01523e-17
0.0214653
0.00482841
6.2638e-15
5.28331e-18
0.00748303
0.00318958
1.49951e-07
0.00563842
0.00507195
0.00313921
0.00264391
1.73518e-15
3.047e-05
2.97295e-16
2.54546e-17
0.0113624
3.27314e-16
2.04385e-15
6.98869e-15
9.34452e-17
1.59219e-17
0.00233697
2.32872e-06
3.51615e-15
0.00149828
7.50182e-18
0.000173163
0.000989777
0.0280606
4.86583e-17
3.13813e-14
2.07828e-15
0.049154
6.73679e-17
0.0409718
0.0225344
0.00255444
0.000171967
0.00186969
0.0204549
0.00310464
0.00380503
0.0122034
1.2558e-16
3.3503e-16
1.10775e-17
0.0262424
0.00182975
2.29634e-16
1.33514e-07
0.00502706
4.7862e-07
0.0106226
0.0155007
0.00942128
1.68761e-07
3.99557e-18
1.03951e-17
0.0526846
0.0252242
5.15472e-06
2.31695e-07
0.00518725
0.00369307
3.09156e-18
9.95514e-06
6.58254e-05
7.53846e-18
1.00455e-16
0.000148397
3.92673e-17
0.00613838
0.00227021
8.68892e-16
1.45968e-15
1.60149e-15
4.91673e-15
3.7018e-15
1.64292e-16
0.00134009
0.00671783
0.0276962
0.00416018
0.00641899
0.00356687
9.48452e-05
1.63244e-16
0.00425117
8.88084e-16
6.44195e-17
0.00582152
0.0110718
0.0228017
0.0103151
0.00462986
4.91574e-17
0.00604835
0.000572664
4.51916e-05
0.0111869
0.00230502
9.37385e-17
0.00326036
0.0275352
1.68393e-14
0.000230351
0.00650247
0.00227917
0.000309788
1.1864e-14
1.48945e-17
0.00728469
7.01945e-12
0.123847
4.35037e-17
0.00601044
0.0190246
0.121869
2.55883e-18
0.00267524
0.0120028
1.85844e-13
4.76414e-17
8.88821e-18
0.166619
4.18484e-07
1.52179e-14
1.4809e-15
0.00914639
0.00846919
0.016005
2.43207e-15
6.46324e-15
9.35051e-06
8.98816e-18
0.00272437
0.00832817
0.0149812
0.0107831
0.00917491
1.59843e-17
3.21899e-07
0.000565262
1.59924e-18
3.05708e-16
0.0307254
0.0214592
2.48774e-14
0.00559858
0.00978775
1.00654e-17
1.64691e-14
0.000153351
6.75294e-16
2.9365e-15
3.91664e-05
1.42238e-16
0.0156179
0.0117259
0.00335988
3.07847e-17
0.0109648
6.70966e-18
4.21203e-17
7.35002e-18
3.71898e-08
0.0225801
0.00552704
0.00467064
0.036963
0.0109709
0.0014962
0.000590988
0.0340478
0.00941637
1.27001e-16
4.70968e-17
3.36624e-07
0.0220543
0.021517
0.0128319
1.64317e-17
0.00633032
0.0019491
0.00276369
6.20236e-06
4.40558e-06
0.0122078
0.00211617
0.00186345
4.06087e-17
0.000778675
8.54779e-18
5.29951e-07
2.29704e-13
0.266579
0.0682787
0.0138398
1.96065e-16
8.22923e-18
0.00831025
0.00190252
1.13214e-15
4.11932e-17
1.24652e-15
0.000416997
0.0622574
0.0033395
0.0154424
0.0182887
2.68521e-15
2.79007e-17
4.38924e-17
0.00351182
3.77978e-13
0.00132719
0.187166
5.82062e-07
5.34896e-17
3.37838e-17
1.55835e-17
9.18849e-15
0.0574297
0.0123211
7.55776e-18
0.00486146
1.38113e-15
7.21789e-15
0.0671527
0.00538432
0.0107261
0.00855052
1.43806e-14
9.73008e-15
4.38767e-19
0.00872231
0.0189126
0.00470196
5.34069e-15
1.99413e-10
0.000225241
0.00178076
0.00734301
6.34405e-05
0.0284787
1.08919e-16
0.0370419
0.00315824
0.00787355
0.0230931
0.0147282
1.01089e-16
2.49617e-16
1.9214e-17
3.56259e-16
0.0321083
0.00856621
0.0370888
0.0669859
5.24791e-17
0.0201542
2.53956e-18
3.40021e-16
0.0161368
3.68913e-16
0.0400102
1.58859e-17
3.24764e-18
0.0237392
4.05824e-18
0.0140992
0.000335259
1.30139e-16
0.00112409
0.0150714
3.88709e-15
0.00797973
0.0106741
0.00739062
0.000434435
0.00291514
0.00614
2.77889e-15
8.92125e-17
0.00136542
4.10377e-18
0.00500717
0.112142
1.03136e-15
2.15558e-17
0.0256162
0.000127666
0.00759217
0.022479
4.78574e-17
0.0389966
0.0197507
1.21902e-17
0.000695426
0.0028188
6.80103e-17
2.99959e-16
0.0118199
0.00487502
3.68076e-18
1.33308e-16
1.07967e-08
3.79641e-16
0.0105704
5.66451e-17
6.30538e-17
0.0177425
2.47556e-06
0.014627
0.0266756
2.00545e-16
6.04127e-15
0.00108291
4.04393e-16
0.000107601
0.010818
0.121682
0.90556
8.90208e-16
0.00260258
0.000234564
2.00292e-16
0.0350406
0.0331066
1.68468e-17
1.14267e-08
0.000108574
3.32203e-15
0.0257007
0.0268908
0.0127231
6.22605e-16
0.00059016
0.0206292
0.021214
6.03257e-07
3.40268e-15
9.54652e-11
1.18341e-18
2.07763e-05
0.0318506
6.13196e-18
0.0095777
6.8049e-05
1.55048e-14
3.72489e-18
7.23525e-15
8.872e-16
0.00429083
0.00952267
0.00711282
0.00244112
0.00338826
8.13217e-17
0.00228354
2.75234e-16
0.0356463
1.80722e-15
2.51806e-17
5.3584e-18
0.0317887
3.10206e-18
6.06403e-17
3.36479e-07
8.03516e-17
2.42565e-17
0.000876389
1.13709e-17
5.1212e-14
1.60553e-17
3.7042e-17
4.02235e-15
3.37188e-17
4.13692e-16
0.00815638
6.65763e-18
0.000392953
0.00165806
0.00267217
6.52618e-16
0.000624709
1.54779e-17
3.0028e-17
0.00310843
0.00204922
0.0294008
0.0222498
2.47969e-15
0.00187016
0.0726522
0.00841924
0.00110967
0.00365978
3.83778e-16
0.0223934
9.70847e-15
0.00428049
4.2929e-17
0.0691314
6.03573e-16
0.0210638
0.000322766
7.48084e-08
6.09858e-18
0.00233473
3.87439e-16
0.0759203
0.0443264
7.84323e-18
4.65901e-17
7.81638e-15
9.65944e-18
1.75772e-10
0.0545939
1.51791e-15
7.45416e-18
0.00287971
4.7817e-17
0.0304172
2.31473e-15
0.000351173
1.0654e-16
0.00058604
7.48706e-07
0.00112137
0.0124562
9.00872e-16
0.000365984
1.06936e-15
2.35459e-17
0.0162817
8.08428e-17
3.57028e-05
2.13433e-15
0.00147681
1.71589e-16
0.0661483
3.88546e-17
3.70992e-15
0.0121386
0.00387982
0.00150465
0.00430853
0.00590899
0.0208813
7.79968e-18
0.0207435
0.00708516
1.16449e-16
5.69891e-08
0.0314707
0.0125506
8.36706e-15
0.00550463
0.0054403
0.0012781
0.00139215
1.48764e-10
0.0138031
0.000982401
0.000166627
0.0267699
0.0141803
0.00109207
1.17346e-14
3.18521e-09
0.619508
3.22652e-17
0.000417933
4.94536e-18
1.18174e-14
0.00729611
0.00363712
1.26767e-07
8.49209e-06
1.60879e-15
0.0185015
0.00994157
2.12037e-15
1.11633e-11
0.00204029
4.81887e-15
1.55321e-15
1.183e-16
1.03034e-15
0.0152496
4.71353e-17
2.66434e-17
0.00987185
0.00233951
7.9196e-14
0.00937507
9.87322e-15
0.00859833
8.70238e-16
1.12019e-17
0.05713
3.36645e-17
8.70596e-16
9.49286e-15
0.00490428
1.8867e-15
0.0328185
0.00638756
1.30512e-16
0.0728717
0.00283194
0.0261309
0.0235671
0.000929944
9.17538e-05
6.42637e-17
0.056909
0.0415934
7.46874e-17
0.000308662
0.0361907
0.00708389
0.00155686
0.0244366
0.0237725
3.75617e-17
0.0104667
3.68363e-06
2.4443e-15
0.0320021
0.000299294
3.28324e-14
0.010918
0.038815
0.00158781
0.0185284
0.016842
0.00706297
9.51927e-15
0.00915551
0.000400184
7.355e-12
0.0144653
0.014903
0.0347904
8.8118e-17
0.00211291
1.79165e-18
7.48404e-16
1.33031e-16
5.71944e-16
1.68481e-05
8.04873e-15
1.38813e-10
8.42041e-17
1.22059e-15
5.15732e-05
0.0396398
4.18103e-15
0.0365925
9.05121e-16
6.23585e-17
6.48837e-15
0.0396204
0.000496133
1.73065e-14
2.55413e-17
1.33345e-16
1.74674e-17
0.238818
0.0684384
1.04076e-14
0.00177001
4.67506e-06
1.48665e-17
0.0349047
0.00649484
0.0129306
2.97647e-16
1.42796e-16
0.000392721
0.00106933
1.4604e-14
6.34789e-18
2.7711e-15
0.00706631
5.14457e-18
5.49466e-16
1.68224e-16
0.0385062
0.00161427
1.04125e-16
4.12146
0.142863
0.0109009
1.35138e-18
1.45582e-15
0.0566979
0.000304606
1.6558e-15
7.58698e-06
0.170107
0.00291225
0.0119098
1.58338e-14
0.0577935
0.00152091
1.21152e-17
5.87128e-15
3.12495e-16
9.55844e-18
1.35728e-17
2.40164e-16
0.0193391
1.14779e-17
2.71671e-17
7.39088e-15
0.0119174
0.0234283
5.70675e-16
9.03043e-16
0.105669
0.0133268
0.00877743
2.67087e-15
6.32716e-17
0.0345814
9.63827e-19
0.00227512
0.00240234
0.00353616
1.80151e-15
2.61336e-17
1.42672e-16
2.01024e-17
0.0158515
4.44157e-17
5.36258e-16
0.000816951
1.0404e-16
0.0211524
0.0014061
1.92109e-15
0.0358233
0.60033
0.00232292
0.0294437
0.000200101
0.0480153
2.42488e-10
4.5564e-14
0.0218654
0.0766364
0.00620482
5.50023e-15
1.32637e-09
0.51785
0.00989145
2.84411e-17
0.00291476
0.00313601
0.00143422
3.62175e-15
1.57717e-16
2.04812e-17
0.0126407
2.56779e-15
0.00232954
3.26909e-15
0.00145611
0.00127617
0.0343234
0.000535327
8.68151e-16
3.82107e-16
2.83308e-16
0.0197185
2.93585e-16
1.65851e-15
4.27197e-05
2.37817e-18
1.99553e-18
8.31612e-17
5.81041e-17
0.00897343
8.0233e-15
1.43988e-17
7.20101e-10
3.26423e-15
5.03161e-19
1.03985e-14
8.50636e-17
3.26688e-06
0.00151628
3.24752e-16
0.00333494
1.22897e-05
2.77291e-07
8.52157e-05
0.00439167
2.70733e-17
1.00204e-05
0.00927192
0.000372607
1.17676e-17
1.09307e-08
0.000752708
5.41688e-15
0.00888378
0.000300071
2.0087e-06
0.0253073
0.00867022
0.0021603
0.00553786
0.00197575
3.7156e-17
1.29704e-16
0.0301266
0.024385
4.21157e-17
0.00775844
0.0536779
0.0277382
1.37131e-15
0.00166152
1.46909e-17
0.0102801
0.0134832
6.09678e-15
0.00144138
0.000475881
1.50082e-06
0.00451092
7.06343e-16
0.0471605
1.93283e-05
0.00186045
4.0245e-05
1.3768e-05
2.60891e-17
2.567e-18
0.0083318
1.12464e-16
8.96375e-05
0.000328414
1.05857e-05
6.46116e-08
6.15975e-08
1.23013e-06
7.25038e-17
6.03265e-15
0.0216321
6.84616e-18
0.00115808
0.00234998
1.44524e-15
6.62973e-16
6.41774e-07
1.44299e-10
9.05276e-17
3.32219e-06
2.97469e-16
1.8262e-16
3.55783e-18
2.47797e-16
3.21279e-14
9.23551e-17
0.000330519
5.11938e-15
2.58144e-17
4.05054e-17
4.72957e-06
7.05619e-05
0.00204246
0.00916468
1.93977e-17
6.27905e-16
0.000232578
1.03329e-16
1.37198e-15
4.56134e-14
0.0194342
0.0407472
1.27465e-15
1.30222e-15
2.9002e-15
7.1618e-16
9.02825e-19
8.3864e-16
0.0084546
3.41893e-16
7.92135e-08
0.0269309
7.6357e-19
1.65016e-16
5.64466e-16
1.51948e-05
2.46564e-15
3.01136e-17
1.39523e-17
5.89923e-06
5.6408e-18
0.00530248
1.07093e-06
4.33121e-09
9.64724e-16
4.67293e-05
0.00260585
0.0434619
6.28309e-15
5.49245e-06
0.00721697
1.00473e-15
5.03986e-17
9.66397e-15
1.82572e-15
0.00787455
0.00174963
0.00396311
1.59487e-07
1.99523e-16
0.0222867
2.20114e-15
4.11422e-15
6.08116e-14
6.50104e-18
0.0253021
2.56044e-17
1.17188e-14
2.63544e-06
0.0487888
7.35577e-15
0.00300311
1.73025e-15
0.00112369
6.24559e-15
3.88076e-17
6.62929e-18
5.86823e-16
0.0026448
0.000683128
0.338731
5.12518e-18
4.38284e-15
0.00204998
4.68159e-17
3.22843e-14
4.50608e-16
0.0422411
5.58664e-06
0.0286687
4.84319e-16
6.47522e-06
2.96748e-05
6.91783e-14
6.93072e-05
1.35815e-15
0.00182627
0.0276319
0.0200226
0.00164814
0.000326214
1.27493e-15
2.61482e-17
3.30316e-17
1.40198e-05
2.5949e-17
0.00543236
2.17115e-17
0.175994
2.26401e-16
0.0417202
0.00354316
1.16926e-15
1.40233e-16
6.01702e-15
4.57066e-18
0.0312932
2.20841e-14
5.4627e-14
0.0129909
0.00535844
5.60638e-15
2.74774e-14
2.79624e-14
2.51185e-14
5.70187e-15
8.44572e-17
0.020372
0.000519595
4.82963e-17
1.19188e-17
2.78869e-07
1.08757e-16
0.00133098
0.000115944
4.4918e-15
0.0027101
5.33221e-16
0.000331615
4.10225e-16
0.00088955
3.16702e-15
1.27454e-07
1.80225e-06
0.000876352
0.0143939
0.0274134
1.01379e-06
3.62753e-16
0.000448311
7.68241e-16
0.00436933
1.07293e-16
3.81073e-17
3.66037e-14
7.24897e-18
1.16786e-17
7.45639e-18
0.00569685
0.00627414
1.18435e-16
1.81665e-14
1.39819e-15
0.000535228
1.76346e-05
4.36192e-17
0.0184332
0.000213164
7.10228e-15
0.0224797
0.00812067
0.00332646
0.0134627
3.36153e-17
2.06343e-16
2.60148e-17
5.53231e-18
0.0362684
6.30968e-19
0.103871
4.7318e-17
0.000216816
0.000728809
1.06763e-17
0.000670285
5.57903e-18
5.14955e-17
0.00226955
2.58807e-08
0.00590263
5.52705e-17
6.6201e-15
4.15491e-16
0.000694426
5.35708e-15
5.79897e-18
1.23714e-15
5.09924e-07
1.92238e-15
1.19041e-05
2.54718e-15
8.58532e-16
5.16035e-16
0.0178318
0.00959228
0.0176909
0.0343128
7.47092e-18
9.66251e-06
2.6445e-17
1.38705e-17
0.0107388
1.00142e-15
3.10022e-06
0.000255267
0.00628842
0.000240292
9.71694e-11
0.00242403
2.25788e-17
1.66395e-10
9.73453e-10
9.32284e-05
0.00123715
0.0134846
6.59657e-08
1.12593e-15
0.0311695
1.46071e-15
1.32672e-15
2.96332e-05
0.074535
1.01363e-07
1.2807e-16
6.18639e-17
6.0498e-07
3.61544e-16
5.18583e-16
1.01492e-05
2.90821e-14
6.39122e-15
0.0419828
0.000141284
0.000105883
0.0234502
0.00717192
9.71023e-16
3.66032e-16
3.7768e-06
0.00419914
2.05693e-16
2.4501e-14
0.0112387
6.21577e-16
2.9385e-15
6.8533e-16
3.83643e-15
3.79093e-13
2.52259
8.52083e-18
0.000184119
2.18502e-15
0.0153104
5.04885e-16
3.65398e-12
2.37253e-15
4.00136e-16
5.87066e-18
4.44717e-16
0.00336417
8.05398e-17
5.02775e-17
7.64389e-16
2.3232e-15
5.48235e-19
1.8086e-17
0.00996486
2.22695e-16
0.0110366
0.00233682
2.14911e-15
0.00172784
1.48076e-15
0.000399531
1.49543e-06
0.00406798
0.0141734
4.03639e-16
8.95198e-05
0.0093411
4.48219e-06
5.98587e-18
1.07555e-06
0.0169516
0.00475903
1.61164e-15
0.0267104
2.69208e-15
3.96532e-17
1.20788e-15
9.82717e-16
0.0082715
1.71748e-17
3.60388e-16
0.00805199
1.10057e-07
0.00278463
4.88102e-18
5.84701e-14
0.000675333
1.3137e-17
0.000147202
4.05093e-15
0.0217502
2.55058e-15
4.49619e-16
5.53965e-05
1.04154e-15
0.000101508
2.24412e-16
2.92716e-16
0.005344
0.000390581
0.00488853
0.017476
0.217324
0.019737
3.48715e-16
5.7215e-14
0.00237065
0.00669174
0.0351971
0.0133394
5.59013e-17
0.0112902
4.869e-17
8.36928e-16
0.00763554
0.00959412
2.92293e-15
0.0124355
2.2906e-18
0.0028403
0.00827144
5.81766e-15
1.48568e-16
3.9663e-18
0.00232396
2.91564e-16
1.0527e-17
0.00354787
0.0199367
3.99924e-06
0.00767558
4.95782e-15
1.85926e-17
5.47857e-05
0.000656873
2.16834e-15
0.00923736
1.26436e-14
0.00243389
6.91033e-16
9.7778e-16
0.0111179
3.73405e-17
4.50369e-05
0.00296708
3.46528e-15
2.27912e-16
0.00365229
2.68287e-11
0.0539348
1.57425e-16
0.285226
2.11243e-17
2.32006e-14
2.39815e-14
0.00643685
1.25104e-14
1.50228e-15
0.00500902
8.26535e-15
0.000161601
2.12316e-14
1.09819e-15
6.87121e-15
1.5692e-07
0.000775068
9.48461e-17
3.34653e-17
0.0359729
0.000942136
7.18594e-16
0.00059644
1.48106e-16
3.08675e-15
1.20643e-06
0.00369028
0.00117251
1.44696e-15
1.59783e-16
2.12635e-16
1.50503e-16
3.48307e-15
8.58969e-16
1.30474e-17
1.36398e-15
4.13022e-16
1.78406e-15
1.35261e-17
2.81586e-16
7.64035e-16
5.27517e-16
2.47763e-17
2.94941e-15
6.28055e-17
5.61066e-16
2.6974e-16
1.49591e-16
1.74584e-17
0.018361
2.55302e-16
1.38896e-15
1.39612e-17
0.00619329
9.21259e-18
4.54271e-16
0.194639
1.71226e-15
2.0685e-16
0.0218955
4.05198e-12
1.65522e-15
0.00436798
0.0232824
2.19445e-16
0.0012754
0.00216997
1.02264e-14
0.0111049
0.0373859
0.0165072
0.00287616
0.00975729
3.11529e-16
1.02192e-15
0.00275652
0.0101717
0.00268498
7.01492e-16
0.00559564
0.00135198
0.0186468
0.0107011
0.000640337
0.0135933
0.00106879
0.00844723
4.43835e-17
0.0265778
0.00756009
0.00181915
0.00117532
2.8788e-17
1.12866e-16
3.90098e-17
1.10479e-17
5.07629e-17
0.00873763
0.0121976
4.46685e-18
1.7682e-16
1.15253e-14
1.2031e-15
7.34171e-16
5.34926e-17
2.73809e-17
1.22397e-15
0.00409572
8.60074e-05
0.019478
4.91502e-05
7.52173e-16
2.49602e-15
0.0331386
2.8563e-06
1.3848e-16
4.30713e-16
0.0070025
1.22472e-17
1.05251e-16
3.59948e-06
0.00701465
0.0122304
0.0293447
0.0270356
1.71951e-15
0.0139832
0.000261648
3.59667e-15
3.27506e-16
0.0102089
3.08743e-16
1.97117e-15
0.0277008
0.993941
0.000149313
2.05113e-14
7.41853e-19
0.0158362
0.0222163
0.0162209
0.00577003
0.00198472
3.0949e-16
6.81675e-07
2.28372e-09
6.08895e-17
5.35167e-15
0.0169763
4.89792e-16
0.00193996
0.0258581
0.01551
0.0119725
1.15831e-17
0.00522965
2.35372e-17
7.60798e-16
8.07741e-17
7.90842e-17
0.0025098
0.709634
2.02873e-16
4.99022e-17
4.46807e-06
0.0224768
0.00046512
0.00617103
0.0312016
0.00456334
0.0197183
8.34018e-16
2.57435e-15
5.73509e-15
0.0306357
0.00510649
2.71551e-08
4.11574e-15
1.96712e-16
1.37259e-14
0.0187004
0.00268865
3.85857e-17
0.00431924
0.045018
0.00817555
0.00544352
1.51445e-17
1.25756e-13
0.00613203
0.021498
4.53099e-17
0.000238183
0.0120353
0.00085653
0.00885058
0.00411521
0.00747505
1.65122e-14
0.00346442
0.0186845
0.0364789
1.26993e-09
0.0230103
3.45547e-15
0.0159197
0.000146312
2.76444e-18
0.00249409
0.00635053
0.000312566
0.0106802
2.17703e-07
0.000192066
1.72599e-05
0.0245445
0.00311819
2.62166e-15
0.0377473
0.00105695
1.92671e-15
2.32968e-17
2.55806e-08
4.9945e-06
0.000899471
1.0132
0.0325356
0.00777324
2.56672e-07
0.0371561
4.88765e-16
4.81947e-17
0.00383234
5.86381e-15
0.00230248
0.00615073
0.00180797
0.00445523
1.53469e-16
0.000238215
0.102132
1.20117e-16
0.0596067
0.0065313
3.32586e-17
0.00341966
0.000180979
3.38826e-17
2.10574e-09
9.47288e-05
2.65388e-15
3.97141e-17
8.69936e-18
0.00427154
0.00449756
0.0132489
4.42697e-18
0.00560926
0.0296805
1.06781e-15
0.00701914
0.0108705
0.0240692
0.00130323
9.27687e-16
0.000617271
0.00895216
0.00916863
0.00780307
0.0368956
0.146404
0.00324752
1.72963e-16
5.94021e-06
0.050283
5.27193e-17
0.000374845
4.98418e-17
2.5921e-18
1.09072e-17
1.58518e-18
2.21548e-16
0.00265917
5.78311e-17
0.00612607
0.00144131
3.93481e-19
0.00408424
1.71307e-14
0.0139143
2.82157e-15
6.93571e-06
4.43983e-15
0.0206402
0.000111118
1.26301e-06
0.00357129
0.02776
0.0165533
0.00363856
0.0239604
2.34922e-12
0.0196787
0.0497307
0.00819255
1.64363e-18
0.00118919
0.000357988
0.00478979
0.0113086
0.000756815
2.99013e-17
6.67296e-15
3.6426e-16
0.00404655
1.98301e-16
4.77264e-05
0.000227738
0.000532656
0.000271982
4.59969e-17
5.92749e-18
4.52173e-16
0.00738243
0.0199884
0.00127551
7.31801e-06
0.00185311
0.00613037
0.00196807
0.000720057
0.00628176
0.00530438
0.00231702
9.57601e-15
1.08751e-17
4.05842e-18
0.013799
0.0102474
4.32796e-15
3.06426e-16
1.14195e-14
0.00707709
0.0185973
8.64109e-16
0.00188931
5.72252e-16
3.74696e-07
0.00524996
0.0741118
8.45425e-17
1.04021e-17
0.00341923
1.07373e-16
8.47412e-05
0.0109809
4.1637e-15
0.00938814
0.0313359
0.0160262
2.53989e-17
0.000660606
9.77443e-15
5.70233e-05
0.0454476
2.54903e-16
2.43256e-17
0.0107319
5.35639e-13
7.12216e-17
3.51143e-05
0.00107357
1.62436e-16
5.95819e-17
3.48406e-15
4.68377e-05
0.00124621
0.00305231
0.02017
0.00945703
1.65625e-16
3.25933e-07
0.000421004
7.16288e-17
1.92328e-17
7.66721e-17
1.80427e-15
3.9625e-15
2.60794e-15
6.18505e-15
3.68116e-17
1.09758e-14
1.07521e-15
1.38006e-09
4.8032e-15
0.000410258
1.2532e-14
8.66943e-05
1.74013e-14
6.3305e-05
1.19549e-14
1.22665e-16
0.0220061
0.00804436
1.92217e-14
0.0867147
1.39861e-09
3.28971e-11
4.84241e-16
0.00104451
1.18453e-13
0.00218746
4.7488e-06
0.000972733
3.62748e-15
4.54462e-16
0.000634632
5.84024e-08
4.18213e-16
1.39075e-17
0.0368897
1.64602e-15
0.0339087
6.57386e-15
1.16962e-17
1.09472e-06
0.0266674
0.00843981
9.29218e-17
0.000400001
8.43421e-15
0.00103071
1.2204e-05
0.00186627
0.000646107
3.6036e-18
0.0190156
0.000761106
0.00480247
3.69161e-16
6.74373e-16
6.81322e-16
0.00524799
0.00398482
0.0440483
3.4903e-18
2.35808e-07
7.04098e-16
2.41155e-16
2.5715e-15
2.04813e-16
0.00237689
0.00156323
0.00236381
0.27919
3.33903e-17
0.0287035
0.0329578
0.0174882
0.0012236
3.32616e-18
0.00544361
0.00326175
0.0047697
8.41201e-07
0.00960948
9.02666e-16
0.00172274
0.000890021
0.0303763
8.02934e-07
0.00241137
7.82955e-16
0.0166124
2.8759e-16
3.53865e-16
0.00142515
7.26889e-18
0.00695284
1.07666e-17
1.60943e-15
3.55463e-14
7.49632e-16
1.72566e-17
0.000590795
1.63277e-15
0.000599313
5.17905e-16
1.90978e-17
0.0187852
0.00592777
0.00720166
0.00808537
1.77042e-19
0.556421
2.57861e-17
0.0666432
5.2635e-15
0.018548
0.0180548
0.00183426
0.0533766
3.63192e-14
1.32656e-13
3.8998e-16
0.00205873
1.93701e-18
1.50586e-15
0.0167662
3.82866e-15
2.26421e-15
0.00404129
3.90561e-15
0.0125675
1.11163e-07
1.23572e-15
5.21716e-16
2.45762e-14
0.00142807
0.00575392
4.93525e-16
0.0207016
0.000242317
6.41897e-16
0.0942484
2.72569e-17
0.0153856
0.0170144
0.00295908
4.78801e-16
0.0154918
0.0082474
0.000598631
0.0041027
0.0110885
1.80433e-15
1.99556e-16
1.49306e-06
1.52132e-16
7.42938e-16
3.8395e-17
0.0182906
0.0359332
0.00400736
0.00175314
3.89249e-16
0.0416348
0.0429985
0.00365579
0.00300131
0.00796111
0.0201008
0.00204083
8.63571e-17
1.48714e-16
1.55154e-16
0.00504779
1.16236e-17
0.0241584
1.87695e-14
0.00063087
2.94093e-07
0.00238638
0.020873
6.83323e-16
5.60601e-17
0.00197906
0.000278548
2.43941e-16
1.16223e-15
1.23538e-18
2.70471e-05
0.000257966
0.00010595
0.000634731
0.00876422
0.0836539
6.78671e-15
5.35596e-17
1.96083e-16
0.00354695
0.0188297
0.0186804
0.0310491
0.00191454
0.00211234
7.03991e-16
2.55458e-16
2.62222e-13
8.72407e-15
0.00934475
0.0190661
8.74324e-17
2.35726e-15
2.09224e-15
1.10578e-16
4.51242e-18
1.52994e-14
0.0109354
3.54528e-15
0.00108488
0.29176
6.36328e-16
1.55223e-05
0.0208949
0.00061743
2.7662e-18
1.15691e-15
0.0036806
9.74934e-17
0.0116007
1.46068e-06
0.0218141
4.77301e-15
1.43884e-12
2.65232e-16
1.94706e-16
1.7819e-16
2.04097e-14
0.173827
8.76135e-16
0.0044087
0.00105852
4.07846e-16
2.48624e-16
0.00146262
2.83574e-16
2.15222e-16
0.0141832
5.08434e-05
1.02222e-16
2.01335e-15
2.18021e-15
0.0148023
5.44272e-17
1.36325e-16
0.000245449
0.0019672
0.00224695
9.60727e-17
1.95959e-16
1.58549e-15
0.00295075
0.00140485
0.0103492
0.00295232
1.08628e-16
0.000684414
0.0123623
0.00582436
1.13112e-18
2.82582e-17
2.41402e-16
2.04971e-17
1.97374e-16
0.028217
0.00716731
0.00426229
4.64178e-18
6.82959e-17
3.95857e-18
5.7054e-18
1.0978e-15
6.33748e-07
0.000291463
0.00230054
8.42071e-16
1.51796e-17
1.37492e-18
3.82862e-09
0.0275345
0.094732
8.00924e-17
5.26305e-11
4.11449e-13
5.2026e-16
6.67702e-18
0.00326834
0.00676232
1.12501e-15
1.29461e-15
0.002433
5.82861e-16
0.000682663
0.00115125
2.00874
8.04723e-17
2.46936e-15
0.0119801
0.000361394
1.54414e-15
0.634341
0.000509775
0.00672489
1.24359e-15
1.6759e-16
2.01437e-17
2.07558e-16
0.00695905
9.02866e-05
2.04263e-15
0.0217279
0.0159734
0.838469
3.94782e-16
6.11938e-17
1.03806e-15
6.33603e-16
0.00536006
2.83089e-08
3.41719e-16
7.02744e-15
0.0167535
0.00106297
0.00481378
4.21626e-16
1.838e-17
0.0256207
1.17931e-14
4.29479e-17
4.24327e-18
2.83845e-17
0.0227363
5.10809e-15
2.577e-16
1.60275e-15
0.0228848
0.0126255
7.64951e-17
1.9206e-17
8.36775e-16
0.0133798
7.42335e-08
9.43449e-15
8.12896e-16
2.31602e-17
1.81318e-17
0.00217186
0.0086477
1.70952e-18
0.00205517
0.000863536
0.00393016
2.49202e-17
1.20876e-17
2.01406e-16
8.63284e-18
3.49105e-16
0.0213948
5.17262e-15
0.0155214
8.26525e-16
0.00115254
9.3824e-14
0.00169982
6.84436e-17
1.12786e-18
0.0102074
0.26122
1.53936e-14
0.00259154
1.43056e-16
0.000285504
1.38006e-14
9.30924e-16
1.99151e-15
1.66565e-07
2.31656e-15
0.000358482
4.43564e-16
0.0334966
3.71911e-18
3.97525e-15
1.4484e-17
2.15675e-15
7.13568e-06
0.000111035
2.3988e-16
0.00376259
1.04283e-17
0.00351877
0.019562
0.000889725
1.02429e-17
2.96959e-06
0.000305512
1.37491e-06
0.00490671
4.92274e-07
0.00119431
9.33595e-15
1.22409e-15
3.26677e-07
0.00471782
0.000168912
7.41147e-15
4.07735e-15
3.7314e-15
0.431307
6.2796e-18
5.38138e-16
2.31202e-17
2.63205e-17
6.53208e-18
8.54084e-05
0.000121492
0.00075204
5.21796e-05
6.91218e-13
0.000911454
1.0767e-17
0.00632627
1.66383e-16
2.91159e-18
8.61535e-17
1.30912e-14
2.38408e-05
5.67812e-15
8.28643e-18
3.9304e-16
0.0145177
2.63162e-15
1.39195e-17
0.0106154
8.30094e-15
0.0363744
0.0654198
0.384511
7.31417e-17
0.204724
1.27511
1.8066
0.668997
1.22079e-15
1.75349e-16
0.0047339
0.00523695
1.8755e-15
0.00294406
2.61861e-16
0.031052
3.49126e-16
4.69447e-15
0.000470106
7.63103e-16
7.29028e-18
6.81187e-06
2.78964e-05
5.81263e-18
5.84005e-16
1.33569e-06
2.32694e-14
6.42662e-15
2.01848e-05
0.00738431
0.00113068
8.43488e-15
0.00605433
4.14354e-17
0.00337598
3.9162e-07
0.00511816
1.10085e-15
1.13185e-09
0.0046554
1.6641e-15
2.20207e-10
7.92147e-16
0.0317646
4.8125e-16
0.0101933
4.34698e-16
9.48158e-08
1.56325e-15
2.53162e-15
3.38007e-18
9.78605e-11
7.91944e-10
5.1573e-17
0.0119518
0.00671388
1.32641e-17
1.14488e-15
0.0327197
0.0177079
0.173796
1.35647e-17
4.71639e-05
0.0240819
0.0455931
2.99947e-09
2.37323e-18
0.0647166
7.49444e-16
0.21339
4.49202e-17
1.07674e-08
6.75564e-09
4.90954e-16
3.70051e-05
4.10282e-15
0.0198358
1.00552e-16
6.37519e-16
1.39261e-15
1.18463e-15
3.5674e-16
3.10372e-16
0.000366088
0.00147797
0.13765
5.0122e-15
1.6332e-14
0.0407895
7.15534e-16
6.99418e-18
1.95333e-15
4.46697e-18
8.72582e-16
0.00497308
2.58968e-16
1.22755e-17
4.48326e-16
0.00278175
1.06306e-16
1.83063e-17
3.2453e-16
0.00270477
1.05876e-16
0.00512939
0.196045
0.00380976
0.00449167
0.0226576
1.20147e-16
3.65776e-15
2.15607e-16
0.00255634
0.00167136
8.80785e-16
1.0999e-14
0.000484768
1.63339e-16
1.97313e-18
0.311792
1.06168e-15
0.021553
2.51501e-15
0.00205829
0.00365683
2.17243e-15
1.45919e-16
7.35639e-15
3.65764e-18
9.86458e-17
0.0200086
8.76445e-15
0.00382187
1.12636e-15
6.6537e-16
0.00568781
8.71137e-17
0.013778
7.37332e-15
1.52317e-17
0.00220299
7.77104e-05
0.123582
2.65155e-16
4.2026e-17
4.77089e-16
0.00357466
0.170858
2.50194e-15
1.04336e-16
8.41295e-15
0.00124891
8.40952e-16
0.0212831
0.023377
2.52568e-15
4.23689e-16
0.00583319
2.77182e-16
4.19348e-15
7.90476e-17
3.06343e-15
1.96128e-16
0.0601871
6.1384e-14
4.25391e-15
6.26802e-17
8.38069e-15
3.31262e-16
7.38746e-15
2.00961e-16
7.06584e-16
2.46876e-14
0.00753833
3.15851e-14
0.00674476
6.18227e-14
2.12761e-15
0.542345
0.00216117
9.0222e-15
9.74452e-15
8.32933e-16
0.00193513
7.25857e-15
4.49625e-17
2.22157e-15
1.07361e-15
0.00574009
1.33986e-16
0.00292942
6.65669e-18
0.0100127
3.41547e-15
0.0550955
1.45866e-14
5.71014e-17
0.0170799
4.09316e-15
2.01374e-17
0.0259876
0.000268873
7.63155e-18
9.44686e-18
0.0385704
0.0118469
0.0052697
0.000650834
0.00145279
0.0156273
0.000768803
0.00543692
4.25464e-15
0.0199466
2.3802e-16
2.16778e-15
1.72772e-16
7.62291e-15
9.57799e-16
0.00827387
4.28137e-17
1.64922e-19
1.13752e-17
5.07832e-07
1.42001e-05
2.354e-14
0.00280752
2.51304e-16
0.00408535
3.94296e-16
6.99397e-07
0.00310848
2.0594e-13
0.0398899
6.24826e-16
4.91494e-15
4.25569e-16
0.00236005
0.00142208
2.28134e-16
5.20615e-17
0.00201659
1.45515e-17
0.622432
8.7655e-17
0.0799973
5.74005e-17
8.65835e-17
1.23199e-18
8.64306e-16
0.00835921
6.56467e-16
6.05806e-05
2.79436e-17
0.0093306
1.20859e-15
1.41217e-17
8.12199e-12
1.80627e-13
1.12536e-15
5.69542e-16
3.35133e-16
3.32947e-18
0.00435597
0.227742
1.72591e-14
1.65316e-17
0.000395522
2.60452e-16
5.35403e-17
1.84327e-06
0.0165676
0.000170229
1.07509e-16
0.00054605
0.00367651
0.00442702
0.0084222
6.42437e-17
2.88608e-18
1.49364e-17
1.66028e-16
2.01411e-16
9.84426e-16
3.63661e-16
3.38544e-15
1.67371e-16
4.82094e-16
8.98345e-17
4.96072e-16
0.070744
2.02753e-16
1.97916e-16
3.90955e-09
1.63033e-17
9.03767e-17
1.05504
5.85423e-16
1.64666e-16
0.00139672
2.3174e-10
1.33743e-15
1.55746e-17
5.46772e-18
0.0206994
1.43317e-17
3.10059e-16
3.46349e-08
4.20496e-17
2.47074e-15
9.44139e-17
7.33697e-17
0.101479
7.68303e-18
0.000249444
2.31354e-17
1.13024e-16
1.73862e-16
2.03174e-16
7.60999e-17
4.31365e-08
6.51027e-08
0.000126741
2.708e-19
1.09517e-15
1.75316e-16
1.12822e-07
5.60646e-17
2.43878e-07
3.064e-08
2.39254e-16
2.63465e-14
1.79025e-14
1.29969e-08
7.59369e-16
1.3172e-15
1.18599e-09
5.89771e-15
0.0302549
5.9911e-17
0.00545882
1.51679e-15
1.747e-06
3.66327e-16
0.00156181
4.18195e-17
0.00448609
0.0193311
3.23201e-16
0.00264413
8.95037e-06
9.25729e-17
0.00817398
4.97535e-16
1.41988e-15
1.69458e-15
4.44765e-17
6.60588e-15
1.46555e-17
1.46766e-16
1.21835e-17
0.239301
4.71463e-15
7.69714e-17
1.90596e-16
1.19455e-16
9.68034e-16
0.0293308
0.779579
1.93886e-06
1.66636e-05
8.80443e-17
0.00156639
0.00104561
2.77628e-17
4.191e-15
1.4748e-14
2.50553e-16
5.65363e-16
9.16518e-16
7.38545e-15
7.54258e-16
0.000411751
4.75821e-16
7.59802e-18
9.49614e-05
1.53276e-06
4.27791e-16
0.0263823
6.24241e-16
2.99658e-15
1.31406e-17
0.165489
2.36482e-17
9.99053e-17
0.0215755
4.04433e-16
5.13618e-17
3.86029e-15
1.95287e-18
0.0481609
3.23014e-16
4.95018e-16
1.11438e-15
1.1463e-15
0.0064552
0.23057
0.026817
0.0452045
0.00266041
0.000154081
9.82468e-17
1.77386e-15
0.105704
0.00156918
4.18532e-15
4.69768e-08
4.72545e-17
1.53547e-09
3.59964e-15
0.210755
1.26447e-15
1.65711e-15
0.000165563
6.65078e-11
4.13264e-16
0.0116462
2.53467e-17
8.37325e-17
0.202177
0.0279658
4.93361e-17
3.1719e-16
1.2448e-16
2.57147e-16
1.28919e-15
1.44493e-14
1.80771e-17
7.56477e-17
0.0034399
6.44196e-18
3.32349e-17
3.74432e-16
1.00837e-05
5.2896e-16
3.50628e-15
4.97382e-17
1.09235e-16
9.25659e-15
4.56283e-15
0.00242058
3.77971e-16
6.07127e-15
0.00419591
1.62076e-17
0.000416203
0.0051012
1.13285e-15
0.00277042
1.33059e-16
9.65591e-15
2.1409e-17
7.77939e-15
2.87636e-17
5.03441e-17
4.67895e-17
2.08992e-18
0.00183658
1.30529e-15
6.79956e-17
2.64956e-18
9.83495e-15
1.82992e-16
7.12038e-15
0.0402715
6.37374e-17
6.85363e-18
0.326881
2.85612e-17
7.99978e-17
1.01301e-17
0.000956218
2.22344e-16
3.15495e-06
1.26311e-15
5.07365e-05
0.00854706
1.11378e-16
6.73532e-15
0.0375485
2.46732e-15
4.4543e-16
8.79289e-05
3.72725e-07
0.00970844
1.30145e-06
3.78127e-07
7.89827e-08
2.60817e-17
4.26867e-15
0.000742812
0.000217742
0.0206142
0.0106462
3.55116e-05
9.65355e-17
0.00536699
0.00412463
0.0159504
2.36483e-17
0.0108057
0.0157471
0.00239532
0.00111578
0.000408259
0.00451962
0.0180421
0.035679
0.00748283
0.0109629
0.00716697
1.10562e-14
0.00254712
0.00341447
0.000571626
0.00309799
0.013568
0.0121406
0.0204298
2.07666e-15
0.00733471
4.01713e-14
0.00443011