/*--------------------------------*- C++ -*----------------------------------*\
  =========                 |
  \\      /  F ield         | OpenFOAM: The Open Source CFD Toolbox
   \\    /   O peration     | Website:  https://openfoam.org
    \\  /    A nd           | Version:  10
     \\/     M anipulation  |
\*---------------------------------------------------------------------------*/
FoamFile
{
    format      ascii;
    class       volVectorField;
    location    "58";
    object      U;
}
// * * * * * * * * * * * * * * * * * * * * * * * * * * * * * * * * * * * * * //

dimensions      [0 1 -1 0 0 0 0];

internalField   nonuniform List<vector> 
111485
(
(0.200094 -0.200251 0.000397988)
(0.567966 -0.00141541 -0.00374312)
(0.561674 0.00129174 0.00175149)
(0.20048 -0.200534 8.44069e-06)
(0.584002 0.0026218 -0.000173317)
(0.199422 0.19938 3.96674e-05)
(0.573825 0.00144774 0.000318529)
(0.588467 -0.00140201 0.000859981)
(0.574397 -0.000377033 0.000376426)
(0.586139 -0.00599339 -0.00249145)
(0.565146 0.00136125 0.00162473)
(0.591923 -0.00115566 0.00283064)
(0.556685 0.000204759 0.00120278)
(0.56114 -0.00146904 -0.00378631)
(0.57025 0.00217922 0.00118551)
(0.58057 -0.00345184 -0.0021761)
(0.57236 -0.000557576 0.000668475)
(0.205453 -0.0240428 0.0333347)
(0.585415 0.0015452 -0.00134159)
(0.197959 -0.197628 -4.41296e-05)
(0.198484 -0.198474 -0.000279838)
(0.2001 0.200029 9.45007e-06)
(0.578819 0.00143935 -0.0003018)
(0.586896 -0.0038412 -0.00111512)
(0.576127 0.00280554 -0.000985975)
(0.201853 -0.201065 -0.000299898)
(0.594144 -0.00250954 0.00316061)
(0.562559 -0.000952798 1.72044e-05)
(0.586635 0.000785921 -0.00151514)
(0.199436 -0.199497 2.41786e-06)
(0.591257 0.0108899 -0.00300491)
(0.583867 -0.00106437 0.00018007)
(0.198127 -0.198603 0.000328056)
(0.199753 0.200124 -0.000504662)
(0.200772 0.0820468 0.0345292)
(0.200691 0.201823 -0.00281332)
(0.588851 0.0106287 -0.00437606)
(0.569593 0.000829365 0.0050612)
(0.58151 0.174249 0.0113018)
(0.584007 0.00302449 0.000410478)
(0.196574 0.198197 -0.00139553)
(0.590896 0.000545779 -0.0036055)
(0.583171 0.00318529 0.00114832)
(0.562574 -0.00436749 -0.000876036)
(0.589509 -0.0107051 -0.0052131)
(0.199677 -0.198553 0.00122412)
(0.590739 -0.00258449 0.00286187)
(0.586072 -0.00352923 -0.00101896)
(0.590823 0.000109748 -0.00275625)
(0.199137 -0.196931 0.00120052)
(0.197755 -0.195892 0.00126399)
(0.228037 0.191097 0.00311296)
(0.197019 -0.196415 0.000675045)
(0.590697 0.00263141 -0.00537075)
(0.196666 -0.195746 0.000169736)
(0.583412 0.00150089 -0.00060934)
(0.583099 -0.00256489 -0.0010445)
(0.200069 0.199793 4.24317e-05)
(0.531236 -0.0012066 -0.00940863)
(0.586218 0.00240925 -0.000329773)
(0.585957 0.00271477 -0.000224039)
(0.199653 -0.199984 0.000246748)
(0.542321 0.000575474 0.00361977)
(0.593628 -0.00122242 0.00455444)
(0.206086 0.18629 0.000180349)
(0.535868 0.00100583 -0.00135334)
(0.410978 -0.0373275 0.0142487)
(0.588006 -0.00186098 0.00084686)
(0.528892 0.000336034 0.00179887)
(0.499529 -0.00111913 0.00025451)
(0.565632 0.00443366 -0.00339284)
(0.523846 -0.00104466 0.00189996)
(0.214895 -0.19423 -0.0042486)
(0.536247 0.00105425 0.00423322)
(0.199885 -0.199761 7.5783e-05)
(0.58518 -0.00117148 0.000583408)
(0.200003 0.200067 -5.47008e-05)
(0.591025 -0.00123673 0.00315001)
(0.199865 0.19978 -4.90302e-05)
(0.178184 0.173614 -0.00660335)
(0.568493 -0.0088184 0.00591853)
(0.58573 0.00212898 0.000486703)
(0.198946 0.198547 -2.48673e-06)
(0.199828 -0.19979 9.21531e-05)
(0.55289 -0.000131942 0.00103585)
(0.530866 0.00144283 -0.00226784)
(0.453203 0.288762 -0.0804082)
(0.582547 0.00726699 0.000636267)
(0.560425 0.01499 0.013692)
(0.567348 0.000870008 0.0016599)
(0.599001 0.0110172 -0.00728891)
(0.584788 -0.000967327 0.00103945)
(0.545903 -0.000982638 0.00196015)
(0.554954 -0.000557654 0.000552175)
(0.591868 0.00171239 -0.00376018)
(0.199881 -0.199861 1.93864e-05)
(0.199183 -0.199043 0.000135121)
(0.582347 0.00677887 0.00203512)
(0.608294 -0.127509 0.00347398)
(0.549749 0.00534069 -0.00164351)
(0.199837 -0.199864 0.000101431)
(0.585168 -0.00319991 0.000498931)
(0.200924 0.201225 0.00109942)
(0.5801 2.21051e-05 -0.00031036)
(0.573654 -0.00258322 -0.00326208)
(0.196462 0.174367 -0.00438216)
(0.200199 0.200099 -6.88509e-05)
(0.584128 -0.00131918 -5.92245e-05)
(0.540234 -0.00302456 0.000416751)
(0.518129 -0.0152961 -0.0165525)
(0.553268 -0.000406467 0.00122406)
(0.579962 0.000846712 -0.000241473)
(0.541503 -0.000433774 0.00197577)
(0.532326 -0.00326385 0.000936047)
(0.201788 -0.200747 3.12662e-05)
(0.510891 -0.00047214 0.00148467)
(0.200955 -0.200358 -0.000264617)
(0.20082 0.199604 0.00116241)
(0.570671 0.00218355 0.00164936)
(0.200388 -0.20026 6.03651e-05)
(0.202 -0.201009 -0.000107047)
(0.264537 0.207216 0.0129401)
(0.197213 0.198144 -0.000382797)
(0.199959 0.199459 -0.000716833)
(0.557965 -0.0013383 0.00237007)
(0.160343 -0.114492 -0.0293344)
(0.252343 0.21589 0.00847322)
(0.516085 -0.000178075 0.0024822)
(0.200135 -0.20004 -8.21401e-05)
(0.585475 0.0419757 -0.0154007)
(0.587194 0.0126935 -0.00676723)
(0.581337 0.00696618 0.0020092)
(0.198972 -0.198498 -0.00113845)
(0.258834 0.224544 0.0235751)
(0.241191 0.214633 0.0107521)
(0.586545 0.00167604 -0.00144385)
(0.200324 0.200264 -8.77292e-05)
(0.581761 0.00135851 3.33697e-05)
(0.577948 0.00267037 0.00177145)
(0.568095 0.00266855 0.0026471)
(0.44245 -1.99373e-08 0.0018913)
(0.582327 0.00322477 0.000704915)
(0.577205 0.00295259 0.00183497)
(0.551138 0.000548535 -0.00226899)
(0.577514 -0.000947356 -0.000464773)
(0.569311 -0.000538585 0.00142748)
(0.200424 0.200444 -3.16701e-05)
(0.200035 -0.200068 1.32498e-05)
(0.199729 0.199949 0.000471366)
(0.583602 0.0026864 0.000491748)
(0.551673 0.000925191 -0.00199786)
(0.198531 -0.19848 0.000116951)
(0.375731 -0.0021991 0.0037809)
(0.56923 0.00289929 0.0018033)
(0.624216 0.0245265 0.010589)
(0.586556 0.0016741 -0.00125468)
(0.584119 0.00182719 -0.000563626)
(0.540784 0.000122437 -0.00129858)
(0.626023 0.0339594 0.0058501)
(0.198831 -0.200839 0.00104355)
(0.199929 -0.200087 0.000244089)
(0.585819 0.00158011 -0.00128775)
(0.573365 -0.00188811 -0.00189971)
(0.630249 0.0343563 0.00646109)
(0.620969 0.0311859 0.0084103)
(0.541516 0.000378851 0.00280762)
(0.584102 0.00687959 -0.00266239)
(0.196875 0.198965 -0.000242826)
(0.638775 0.0419446 0.00903341)
(0.608864 0.0311825 0.00880609)
(0.200026 0.200158 5.20248e-05)
(0.199609 -0.199665 9.50117e-06)
(0.465947 0.000487678 -0.00383285)
(0.200296 0.200388 2.77286e-05)
(0.581555 -0.00105327 -0.00020418)
(0.559976 0.000336489 -0.000980388)
(0.199888 0.194941 -0.00120461)
(0.215565 -0.198758 0.00201108)
(0.19887 -0.197874 -0.00044885)
(0.197163 0.185813 -0.00196266)
(0.216585 -0.200219 0.00321193)
(0.19982 -0.199952 0.000201323)
(0.582043 0.00213279 0.00068172)
(0.583548 0.00144318 -0.00120275)
(0.58129 0.00160232 -0.000755343)
(0.572324 -0.00221965 0.0023101)
(0.552073 -0.00172745 0.000298031)
(0.554224 0.000873284 0.00180628)
(0.49472 0.00634991 0.000783622)
(0.199306 -0.198529 4.63421e-05)
(0.535637 7.81661e-05 0.00077998)
(0.215043 -0.200319 0.00194046)
(0.201309 -0.201491 -3.9071e-05)
(0.558826 0.000914383 0.00188991)
(0.586378 -0.00675246 -0.00237655)
(0.582361 0.000966839 -0.00291922)
(0.559256 -0.00067073 0.000498124)
(0.569319 0.00021636 0.000285781)
(0.199355 -0.199036 0.000483603)
(0.558789 -0.00264265 0.000703859)
(0.556174 -0.000468741 -0.00309833)
(0.385019 0.119408 0.0153075)
(0.570114 -0.00485988 4.28682e-05)
(0.579149 -0.000852167 0.000486153)
(0.200418 -0.199165 -0.000505388)
(0.556283 0.00126415 0.0020146)
(0.584708 0.00128148 -5.25276e-05)
(0.218536 -0.198469 0.000679406)
(0.561461 0.00114445 0.00259568)
(0.58981 -0.00049082 0.00319941)
(0.551088 0.000630707 -0.0023071)
(0.554485 0.00141676 0.00255805)
(0.216365 -0.200784 0.00253631)
(0.198886 -0.198962 -2.18539e-05)
(0.554251 0.00149793 0.00284925)
(0.360264 0.224014 -0.0210481)
(0.595754 0.00247035 -0.00615699)
(0.199876 0.199935 -0.000138506)
(0.557964 0.00110731 0.00233425)
(0.559294 0.000284047 0.000309541)
(0.592645 -0.00194334 0.00386787)
(0.200119 -0.200078 3.04858e-05)
(0.52061 -0.000413654 0.00134396)
(0.585165 0.00897819 0.00440147)
(0.319114 0.213796 -0.0244637)
(0.200293 0.200356 -0.000146877)
(0.200005 0.200154 5.77928e-05)
(0.597531 -0.00291331 0.00595854)
(0.555383 0.0121803 -0.00331169)
(0.210466 0.176885 -0.00428535)
(0.246109 -0.191879 0.00807726)
(0.560838 0.000509051 0.00101387)
(0.579808 0.00078506 -6.43672e-05)
(0.583176 0.0012247 0.000520448)
(0.206977 0.179391 -0.00552335)
(0.20948 -0.194752 -0.00113774)
(0.562491 0.00717091 -0.00852189)
(0.199869 -0.199806 8.68421e-05)
(0.53424 0.000639403 -0.00287978)
(0.554303 0.000386063 0.00233351)
(0.560659 0.000199305 0.00134151)
(0.56125 0.00109075 0.00143417)
(0.563565 0.0005422 0.00188147)
(0.199301 0.199404 0.000611688)
(0.42622 -0.000921428 -0.0158667)
(0.569479 0.0018179 0.00172984)
(0.198214 0.198815 -3.41147e-05)
(0.200133 0.200215 5.02346e-05)
(0.592848 -0.0068958 -0.000345335)
(0.579615 0.00271146 -0.000656978)
(0.204727 0.173256 -0.00562779)
(0.528329 -0.00045659 0.00117427)
(0.568645 0.00160975 0.00147381)
(0.200285 -0.200183 -5.18663e-05)
(0.253938 0.240343 -0.00125789)
(0.584809 0.00622572 -0.00277427)
(0.201122 -0.198606 0.000172653)
(0.221726 -0.159436 -0.00381363)
(0.300884 -0.107206 -0.0107417)
(0.2005 -0.199849 -0.000125178)
(0.572811 -0.000879747 -0.000966892)
(0.556225 -0.00101959 -0.000841068)
(0.579301 0.000833682 -0.00151034)
(0.199978 -0.200056 -3.99969e-05)
(0.572458 0.00162873 0.0013849)
(0.20046 -0.200512 2.00939e-06)
(0.200322 -0.200469 0.000137247)
(0.199169 -0.198303 0.000395216)
(0.395916 0.00179223 -0.00533435)
(0.589869 -0.00259614 0.00320893)
(0.560017 0.00209855 0.00249604)
(0.570798 0.00191164 0.00133987)
(0.590097 -0.00299214 7.33639e-05)
(0.568542 0.000923827 0.00172232)
(0.582354 0.00221264 0.000792026)
(0.586567 0.0106583 -0.00100253)
(0.575693 0.000486318 -0.000198375)
(0.580116 0.000921201 -0.000301048)
(0.203842 0.200481 -0.00011749)
(0.19901 -0.199082 -0.000271537)
(0.362793 0.00245699 -0.00769175)
(0.582835 -0.00116088 0.000491541)
(0.587072 0.004794 0.00499044)
(0.555406 -0.000854797 -0.00082905)
(0.200427 -0.200294 4.66734e-05)
(0.578965 0.00191128 0.001177)
(0.581437 0.00309518 0.00148231)
(0.570585 0.00124685 0.000761357)
(0.500996 -0.000599726 -0.00233736)
(0.527066 -0.00602369 -0.0133248)
(0.57934 0.00174914 0.000510522)
(0.569317 0.00146034 0.0014225)
(0.580701 0.00539321 -0.00333868)
(0.200001 0.200097 1.01447e-05)
(0.533693 0.00296873 -6.34183e-06)
(0.199875 0.200009 -8.0354e-05)
(0.161182 0.119863 -0.0269098)
(0.226186 -0.145974 -0.0120731)
(0.602011 -0.00582128 0.0111363)
(0.590243 -0.00298175 0.000102679)
(0.5757 -0.000298202 0.000228186)
(0.200289 -0.199769 -8.26058e-05)
(0.199229 0.20034 0.0017271)
(0.578344 0.00205116 0.00123106)
(0.554251 0.000828029 -0.000703438)
(0.198663 -0.198629 5.56318e-05)
(0.200233 -0.200113 0.000231882)
(0.195409 -0.196552 0.00126624)
(0.549402 0.000655424 -6.12124e-05)
(0.577419 0.000563316 -0.000631144)
(0.550152 -0.000110212 0.00204296)
(0.530515 0.00111375 -0.00211745)
(0.587995 0.00194308 -0.00137673)
(0.229484 0.196884 0.00586558)
(0.199712 0.200194 0.000382847)
(0.19959 -0.199413 -8.40224e-05)
(0.57617 0.00214426 0.00160144)
(0.379238 -0.319738 -0.0172279)
(0.549613 -0.000553154 0.000799965)
(0.59864 -0.00377188 0.0137479)
(0.482917 0.00101382 -0.00973144)
(0.200157 0.200138 -7.30496e-07)
(0.199804 -0.200005 0.000164387)
(0.200386 -0.200497 -8.76795e-05)
(0.253533 0.21195 0.0133918)
(0.5839 0.00189599 -0.000131023)
(0.588403 -0.00295181 0.000536564)
(0.199754 0.200765 5.3524e-05)
(0.580637 0.00150291 -0.000172822)
(0.211855 0.170178 0.0125324)
(0.199683 -0.197291 -0.000302965)
(0.595446 -0.00185023 0.00497264)
(0.578776 0.0019889 0.00106609)
(0.591104 -0.000305729 0.00139939)
(0.580845 0.00156108 -0.000103648)
(0.191864 0.16898 0.0107145)
(0.251026 0.215304 0.0145632)
(0.199381 0.199641 -0.000382743)
(0.579873 0.00194735 0.000766292)
(0.579027 0.00175262 -9.26565e-05)
(0.589898 0.0115205 -0.00436712)
(0.197105 0.196605 0.000383177)
(0.403865 0.353698 -0.0872582)
(0.551162 0.00206093 0.00480072)
(0.589486 -0.00263291 0.00144104)
(0.579601 0.00204036 0.00134798)
(0.549421 0.0558079 -0.00395104)
(0.588046 0.00127049 -0.00174406)
(0.198969 0.198963 0.000117595)
(0.587751 0.00151344 -0.00139587)
(0.565418 0.000714073 0.00120742)
(0.593871 -0.0135205 5.62152e-05)
(0.597346 -0.00356558 0.00753174)
(0.574639 -0.00486925 -0.00419506)
(0.198775 0.199821 -0.000651705)
(0.19923 -0.199677 -0.000439413)
(0.200198 0.198871 0.000770292)
(0.19815 -0.198697 -5.41884e-05)
(0.587778 -0.00247696 0.00028447)
(0.582195 -0.000466205 7.44942e-05)
(0.58401 0.00266799 -0.00245876)
(0.587993 0.00155572 -0.00180354)
(0.198062 0.198239 -0.000851899)
(0.581047 -0.00375143 -0.00169463)
(0.200003 0.200023 6.12735e-05)
(0.199399 -0.199847 6.22943e-06)
(0.587787 0.00184475 -0.00133623)
(0.18439 -0.184464 0.00272954)
(0.325864 -0.0634932 -0.00350923)
(0.197001 -0.196225 -0.000205976)
(0.200341 0.19666 0.00116487)
(0.58255 0.000639277 -0.000556411)
(0.200041 0.199901 2.18369e-05)
(0.575185 0.00161581 -0.000166815)
(0.547115 0.000416707 -0.00225676)
(0.200588 0.200596 -5.46217e-05)
(0.525681 -0.0002189 -0.00251161)
(0.572852 0.000921564 0.00103143)
(0.201665 0.17618 -0.0065349)
(0.569208 0.00251833 0.00301771)
(0.540922 0.00228371 -0.000568066)
(0.57339 0.00272235 0.000978594)
(0.533643 0.00107381 0.00737318)
(0.578476 0.0015568 0.000486182)
(0.553027 0.000262826 -0.00093863)
(0.197919 0.167963 -0.000867796)
(0.198826 -0.198487 0.00123264)
(0.494717 0.000911586 0.0122012)
(0.198285 0.198926 -0.0011758)
(0.572421 0.00293889 0.00295373)
(0.596117 -0.00327859 0.00587532)
(0.200688 0.191471 0.00174919)
(0.199498 0.200387 -3.28875e-05)
(0.586209 -0.000848336 0.000436038)
(0.563581 -0.00253708 -0.00512703)
(0.566369 0.0029205 0.000296175)
(0.586953 0.00197236 -0.000772756)
(0.199968 0.199611 -7.80884e-05)
(0.597662 -0.000955338 0.0100412)
(0.589334 -0.00202133 0.00301634)
(0.200885 0.200571 1.96611e-06)
(0.576254 0.00953359 0.00784563)
(0.549792 -0.00228919 -0.00629327)
(0.199617 -0.199689 -1.30119e-05)
(0.198927 -0.198948 8.23502e-05)
(0.573979 0.00164426 -0.000502836)
(0.578218 0.000387546 -0.000918211)
(0.200122 0.200048 -0.000310856)
(0.199618 -0.199198 -0.000307142)
(0.344992 -0.189133 0.0417868)
(0.20034 -0.200472 8.21944e-05)
(0.578521 -0.00116039 -0.000203128)
(0.198569 0.199285 0.000422176)
(0.200431 -0.20051 1.02873e-05)
(0.591187 -0.000214962 0.00185816)
(0.536853 -0.00646696 -0.0153615)
(0.584117 -0.00370742 0.000835412)
(0.565439 -0.000204264 0.00100648)
(0.200765 0.200632 2.80858e-05)
(0.260974 0.200054 0.0100596)
(0.565273 0.0078758 0.0119016)
(0.244125 0.214452 0.0122079)
(0.56372 0.00251948 0.00476756)
(0.560211 -0.00490652 0.00015999)
(0.586224 -0.00219043 -0.00175296)
(0.404147 0.00703338 0.0155164)
(0.239567 0.205296 0.0106852)
(0.584102 0.000857307 -0.00561049)
(0.592499 0.0190073 -0.00577753)
(0.199877 -0.200204 0.000263386)
(0.591708 0.00144554 -0.00626039)
(0.592156 -0.00245598 0.00227479)
(0.200044 -0.199982 0.000182669)
(0.57478 0.0326789 -0.0193054)
(0.498402 0.000171728 -0.00644174)
(0.253592 0.198684 0.00801795)
(0.589823 -0.00115167 0.00238863)
(0.582341 0.00078642 -0.000778627)
(0.578463 0.00156079 -0.000407034)
(0.200001 0.199891 -5.59334e-05)
(0.575237 -0.000957496 0.00410865)
(0.592091 5.18358e-05 0.00195007)
(0.573087 0.00567464 -0.000582995)
(0.358857 -0.00572773 0.00665311)
(0.244413 0.229861 -0.00506854)
(0.339013 -0.0107437 0.0129575)
(0.199753 -0.200051 0.000188598)
(0.531203 -0.0187125 -0.0178659)
(0.575365 -0.00106614 -0.00370337)
(0.200075 0.19998 0.000281249)
(0.548729 0.00129083 -0.00389714)
(0.450113 -0.00104473 0.0088728)
(0.261079 0.229608 -0.00242648)
(0.200057 -0.199932 -3.5311e-05)
(0.233043 -0.199339 0.00631818)
(0.200323 -0.200258 -2.94826e-05)
(0.572698 0.00344669 -0.000424231)
(0.577281 0.00329534 -0.00101655)
(0.573257 -0.00167462 -0.00163309)
(0.538216 0.00114884 -0.00299204)
(0.58587 -0.0114922 -0.0023336)
(0.199811 0.198906 -0.000387726)
(0.568177 -0.000588992 -0.00120817)
(0.200774 -0.199049 -5.51073e-05)
(0.563561 0.00204539 0.00140241)
(0.200792 0.200855 -1.90771e-05)
(0.200165 -0.2 -2.91194e-05)
(0.1974 -0.197984 -0.000313763)
(0.553667 -0.00392501 0.000443315)
(0.199102 -0.199302 -0.000210904)
(0.199926 -0.200004 4.02122e-05)
(0.197022 0.128798 -0.00859173)
(0.200334 -0.20048 9.35377e-05)
(0.197567 0.200157 0.00186553)
(0.567146 -0.00227717 -0.0012496)
(0.200049 0.199861 -3.13661e-06)
(0.237868 0.174882 0.000435561)
(0.200145 0.200264 0.00028517)
(0.199054 -0.198385 7.82526e-06)
(0.199914 0.199072 -0.00034009)
(0.198845 -0.197787 -0.00105021)
(0.198432 0.198609 1.27862e-05)
(0.51583 -4.77215e-05 -0.00401817)
(0.200191 0.19904 0.000861806)
(0.53032 0.00806263 0.0113254)
(0.580421 0.00137287 -0.00082047)
(0.596444 -0.0235652 -0.00364132)
(0.200804 0.199884 -2.81246e-05)
(0.50426 0.00155846 0.00926183)
(0.200261 0.199503 0.000110323)
(0.200405 -0.200502 -8.67789e-05)
(0.569561 -0.00482611 -0.00576104)
(0.570778 -0.00409689 -0.00526648)
(0.574377 -0.00168994 -0.000816003)
(0.600022 0.0010994 -0.011155)
(0.230745 0.193579 -0.00637667)
(0.587456 0.000682365 -0.00352008)
(0.586985 0.000723114 -0.00318696)
(0.579648 0.00115901 4.45934e-05)
(0.570026 0.000686025 0.000249968)
(0.578784 -0.0058886 -0.00457898)
(0.198627 -0.198703 -0.000127904)
(0.580097 0.00102616 2.22759e-05)
(0.263409 0.227982 -0.00114655)
(0.578577 0.00140442 -0.00073295)
(0.199683 0.199432 -7.04957e-05)
(0.589365 0.00179443 -0.00329996)
(0.260513 0.215741 0.00267922)
(0.581089 0.00035913 -0.000751213)
(0.58326 -0.00300484 0.00197308)
(0.230265 -0.119345 -0.000753156)
(0.199676 0.199854 0.00230167)
(0.57065 0.00107632 0.00112778)
(0.19972 -0.199706 4.56065e-05)
(0.591682 0.00221847 -0.00408159)
(0.587491 0.00238898 -0.00264647)
(0.199863 0.199229 -0.00165247)
(0.199296 0.199312 0.000463891)
(0.195826 0.174138 -0.00407451)
(0.200066 0.200204 7.60645e-05)
(0.409288 -0.0225493 0.00972691)
(0.591962 0.00201889 -0.00390143)
(0.203276 0.198349 -0.000150013)
(0.199551 0.199992 0.000363331)
(0.506087 0.00071918 -0.00110107)
(0.200344 0.200364 2.73115e-05)
(0.582974 0.00167792 -0.00239157)
(0.200204 0.200126 1.49022e-05)
(0.576901 -0.00348529 -0.00162486)
(0.200246 -0.200293 -4.14904e-05)
(0.540604 -0.00248176 -0.0078726)
(0.443983 -0.00196241 0.000512739)
(0.543464 0.00177883 -0.00103934)
(0.581376 0.000661798 -0.000793667)
(0.200418 0.199019 -0.000641049)
(0.524793 0.000693135 -3.58548e-06)
(0.200373 0.199644 0.000194126)
(0.200174 0.200178 -0.000540752)
(0.574341 -0.00128753 -0.000690624)
(0.199809 0.199519 -7.90705e-05)
(0.488887 -2.14111e-05 -0.00484833)
(0.192387 0.17632 -0.00620956)
(0.583959 0.00173388 -0.00202334)
(0.198884 -0.199025 6.36384e-06)
(0.588668 0.000730838 -0.00129615)
(0.200561 -0.20036 2.13459e-05)
(0.239382 0.210776 0.00666971)
(0.595243 0.0221052 -0.0020974)
(0.570217 -0.00486471 -0.00589262)
(0.580501 0.00237017 -1.39576e-05)
(0.583691 -0.00620172 -0.00404077)
(0.577718 0.00128409 -0.000574568)
(0.589879 -0.00345036 -0.000301288)
(0.197822 0.199279 -0.000902154)
(0.580337 0.00333186 0.00173693)
(0.573035 -0.0054999 -0.00556853)
(0.199985 0.200078 -9.97144e-05)
(0.488633 -0.00629095 -0.0198801)
(0.593454 -0.00527778 -0.00337525)
(0.569885 0.00259354 0.00223523)
(0.197328 0.194595 -0.00115414)
(0.246635 0.0443176 -0.0398509)
(0.557178 0.00141349 0.00183158)
(0.453076 -0.00201972 0.00487386)
(0.467632 0.108903 -0.00443849)
(0.255948 -0.133853 -0.00991432)
(0.588028 -0.00576164 -0.00104134)
(0.553262 0.0022596 0.00435453)
(0.569628 -0.00529789 -0.00575101)
(0.581794 -0.0031092 -0.00108404)
(0.571636 0.00321334 0.0014089)
(0.504179 0.0629741 -0.00177113)
(0.248783 0.210305 0.00186414)
(0.513359 -0.0225274 0.00580246)
(0.49953 -0.0463873 0.0103522)
(0.199756 -0.1998 0.000142739)
(0.510924 0.00359658 -0.001486)
(0.201318 0.19744 -0.00105072)
(0.235293 0.213338 0.00203136)
(0.578449 0.000978012 -0.000203215)
(0.508919 0.0831972 -0.00157876)
(0.613888 -0.0571051 -0.00810075)
(0.556355 -0.103433 0.000403911)
(0.235133 0.222463 -0.0152575)
(0.586941 -0.00358289 -0.00098014)
(0.579323 0.0032245 0.0026247)
(0.19958 0.19903 -3.12236e-05)
(0.259491 0.142264 -0.00543696)
(0.578849 0.00454489 0.00288552)
(0.200014 -0.19925 0.000169548)
(0.2 0.199891 -4.7712e-05)
(0.199238 0.199149 1.91111e-05)
(0.200463 0.199368 0.000221756)
(0.586334 -0.00571321 -0.00244402)
(0.200172 0.200144 0.000117505)
(0.200312 -0.200516 0.00101267)
(0.576114 -0.00358784 -0.00262138)
(0.531051 0.000262129 -0.00137077)
(0.290465 -0.255503 -0.0139243)
(0.578961 0.00441116 0.00273096)
(0.234258 0.188256 0.00447312)
(0.581381 -0.00200948 -0.00110305)
(0.195643 -0.195349 -0.000636536)
(0.1996 0.20002 -7.12076e-05)
(0.585368 -0.00366083 -0.00084242)
(0.199872 0.198703 -0.000797409)
(0.200292 0.199766 8.44186e-05)
(0.229826 0.219372 0.00664977)
(0.550249 -0.00034656 -0.000444142)
(0.332773 0.277691 -0.0370643)
(0.576812 -0.00230235 -0.000989323)
(0.578147 0.00091841 -0.000217952)
(0.197851 -0.196611 -0.00155192)
(0.599001 -0.000956948 0.0191524)
(0.547274 -0.00316003 -0.00809691)
(0.57499 -4.79369e-05 -0.000479032)
(0.582286 0.0111563 0.0012603)
(0.583477 0.00426491 -0.0120719)
(0.501775 0.000247144 -0.00455191)
(0.199817 0.199503 8.64398e-05)
(0.58657 0.000594581 0.00177412)
(0.582254 0.00239869 -0.000392111)
(0.197849 -0.200443 0.000289646)
(0.540527 -0.000406785 -0.000300905)
(0.586199 0.00364791 -0.000898926)
(0.587537 0.00275991 -0.000995149)
(0.532039 -0.00237632 -0.00520143)
(0.587233 0.00264384 -0.00110218)
(0.587604 0.00324616 -0.000286656)
(0.199878 -0.197238 0.00130757)
(0.588858 -0.00104622 0.0025945)
(0.483885 -0.00361946 -0.00112509)
(0.241709 0.209127 0.013319)
(0.587323 0.00213021 -0.00154298)
(0.559957 0.000904719 -0.00129441)
(0.32328 0.262317 -0.0402889)
(0.57861 0.000923754 -0.000227655)
(0.587524 0.00188106 -0.00183023)
(0.560244 0.000543069 -0.00215586)
(0.583328 0.00241814 -0.000229147)
(0.57528 0.00638535 0.00259425)
(0.579351 0.000893317 -0.000128271)
(0.195482 0.190822 0.000270124)
(0.582958 0.00274404 -0.000359562)
(0.54608 -0.00345634 -0.00746324)
(0.223441 -0.1373 0.00509208)
(0.580149 0.00539128 0.0035624)
(0.5723 0.00514544 0.00525824)
(0.581038 0.00149397 -4.88163e-05)
(0.19936 0.198897 0.000182905)
(0.562037 0.00345826 -0.00543585)
(0.199859 -0.198719 0.000622559)
(0.200034 0.20003 -0.000198215)
(0.198786 0.197431 -0.000116727)
(0.200597 0.199344 4.30202e-05)
(0.487708 0.000261538 -0.00196653)
(0.239045 0.205903 0.00869845)
(0.449692 -0.0287543 0.0298672)
(0.198505 -0.198727 -5.49018e-05)
(0.199423 0.202054 -0.000407988)
(0.579804 0.00621352 0.00322932)
(0.584666 0.00124961 -0.0025402)
(0.199988 -0.199977 1.68392e-05)
(0.584209 -0.00376968 -0.000167493)
(0.200016 -0.199816 0.000662325)
(0.200254 -0.200102 -4.25248e-05)
(0.196507 -0.196625 0.000585125)
(0.592016 -0.00426809 -0.00047807)
(0.495659 0.00318176 -0.00120525)
(0.237859 0.212448 0.00358903)
(0.199643 -0.197802 0.0008173)
(0.199758 0.20045 -0.000297805)
(0.19956 0.199777 2.72843e-05)
(0.596403 0.00103946 -0.0068431)
(0.579891 0.00102813 -0.000244211)
(0.238023 0.223653 0.01048)
(0.590552 0.00178844 -0.00335194)
(0.549695 -0.00948761 -0.022723)
(0.199669 0.199819 -7.20493e-05)
(0.589091 0.00124843 -0.00299676)
(0.538662 0.000241115 0.00290127)
(0.571817 0.00299338 -0.00355896)
(0.200627 0.200556 2.05224e-06)
(0.199339 0.199269 9.69932e-05)
(0.56916 0.00248411 0.00326635)
(0.581781 0.0012068 -0.000294785)
(0.23762 0.215108 0.00351745)
(0.19914 0.199062 6.26337e-05)
(0.201981 0.195442 -0.000577251)
(0.578662 -0.00130231 0.000535865)
(0.199896 -0.199858 -0.00028176)
(0.199022 -0.198294 0.000171165)
(0.198667 0.198633 -4.09217e-05)
(0.588665 0.00171425 -0.00271082)
(0.513914 -0.00267518 0.000580927)
(0.200528 0.200545 2.3105e-05)
(0.224168 0.0368623 0.042394)
(0.249161 -0.0328896 -0.00947538)
(0.56781 0.0031168 7.56361e-05)
(0.19971 0.199998 -7.95861e-05)
(0.200071 0.199726 -0.000169751)
(0.589706 -0.00685176 -0.00094695)
(0.565262 0.0103068 0.00948204)
(0.240881 0.214873 0.0109627)
(0.352735 0.111072 0.00703179)
(0.555993 0.0103608 0.0170927)
(0.533416 0.00170727 -0.00357896)
(0.568679 0.000351787 -0.000367586)
(0.206265 0.193453 -0.000425132)
(0.563901 0.00132302 -0.000401508)
(0.585691 -0.00388582 0.00415073)
(0.200372 0.199754 -0.000232758)
(0.198267 -0.194918 0.000302643)
(0.198557 0.198663 3.53185e-05)
(0.199261 0.199205 -4.81384e-05)
(0.200134 0.200525 -0.000279152)
(0.200578 0.200645 -2.566e-05)
(0.590073 0.00196136 -0.00299609)
(0.200108 -0.200014 0.000105836)
(0.199003 0.199022 2.76057e-05)
(0.198925 0.196213 -0.000220404)
(0.590631 0.00189244 -0.00335334)
(0.581611 0.00122356 -0.000272341)
(0.200792 -0.198173 -3.62871e-05)
(0.197314 -0.195231 0.000441975)
(0.595104 -0.00281903 0.0053015)
(0.565356 5.88114e-05 0.000806809)
(0.564416 0.000250062 0.00088139)
(0.199895 -0.199439 -9.38788e-05)
(0.198987 0.198957 0.000115794)
(0.564901 0.000162067 0.000804432)
(0.200307 -0.200129 2.01453e-05)
(0.559251 0.0014562 0.000212725)
(0.570053 0.00123475 0.00188564)
(0.571795 0.00164755 0.00107798)
(0.19997 -0.198503 0.000480102)
(0.200285 -0.200384 3.83372e-05)
(0.200204 -0.200379 -3.73885e-05)
(0.20024 0.200278 6.30086e-05)
(0.577835 -0.00288657 -0.00148348)
(0.199928 0.200136 6.79038e-05)
(0.198423 0.198646 6.38181e-05)
(0.57671 0.0019991 -0.0029693)
(0.200291 -0.200344 0.000108365)
(0.567691 0.000362693 0.000735903)
(0.513549 -0.0056282 0.00121154)
(0.200972 0.193873 0.00110294)
(0.580634 0.00138336 -0.000221901)
(0.269942 0.0382892 -0.00538712)
(0.573382 0.00042477 0.000458355)
(0.591256 -0.00140647 0.00133998)
(0.52296 0.00204494 0.0010484)
(0.592341 -3.66564e-05 0.0042648)
(0.429935 0.0113901 -0.0160417)
(0.239146 0.189982 0.00402424)
(0.572057 6.66664e-06 0.000445318)
(0.594968 0.00422221 -2.82981e-05)
(0.580545 -0.00132161 -0.000487211)
(0.204913 0.177542 -0.00621196)
(0.268175 0.0179117 -0.00802604)
(0.309092 -0.0303715 0.0116819)
(0.572859 0.000557942 0.000233519)
(0.198831 0.199207 0.000245574)
(0.56054 -0.00104708 -0.00384036)
(0.572507 -0.000181092 -0.00102997)
(0.555598 -0.00473443 -0.00884533)
(0.214678 -0.156865 -0.0117469)
(0.20034 -0.20047 8.65142e-05)
(0.2 -0.200002 -4.91895e-06)
(0.582988 -0.00168783 7.4973e-05)
(0.234432 0.193626 -0.00251163)
(0.553531 0.00201014 0.000890617)
(0.217571 0.198074 0.00275069)
(0.549917 -0.000953338 -0.00388554)
(0.567345 -0.00133252 0.000527855)
(0.560488 -0.000820592 0.00151052)
(0.581665 0.00132999 -0.000397459)
(0.199021 0.199009 -5.08375e-05)
(0.198031 0.197418 -0.000450223)
(0.213148 -0.194706 0.000916746)
(0.580296 0.00151559 0.000122543)
(0.200388 0.199794 -1.69332e-05)
(0.231937 0.198626 -0.00905029)
(0.593765 0.0122407 -0.0102057)
(0.200118 0.199809 -0.000160045)
(0.198785 0.199721 0.000701728)
(0.198466 -0.197816 -0.00032602)
(0.200418 0.200476 4.99993e-05)
(0.554236 -0.000159141 0.00157417)
(0.203462 0.193113 0.00032557)
(0.200133 0.199973 8.47792e-05)
(0.464092 0.0618082 -0.0456476)
(0.235514 0.189589 -0.00229903)
(0.197836 0.19823 -0.00186981)
(0.284091 -0.171654 0.0114173)
(0.199862 0.199632 -0.000258712)
(0.455047 0.00225335 -0.00301123)
(0.565766 -0.00103335 0.00103734)
(0.198522 -0.198565 3.67103e-07)
(0.555859 0.000721593 -0.00174881)
(0.55353 0.0889326 -0.00798715)
(0.55154 -0.00528952 -0.00886218)
(0.606051 0.0231581 0.000285843)
(0.546971 0.000419147 -0.000777559)
(0.19991 0.198204 0.00083264)
(0.57185 -0.00533225 -0.00599969)
(0.592554 -0.00120631 0.00122439)
(0.551279 -0.00536107 -0.00885016)
(0.199999 -0.200214 1.0837e-05)
(0.598283 0.152873 0.0385721)
(0.552615 0.0010484 0.00107867)
(0.267546 0.213196 -0.0131632)
(0.548913 -2.50926e-06 0.000638357)
(0.598657 0.0071005 -0.00549508)
(0.572147 0.0115886 0.000422788)
(0.567283 -0.00157834 -0.00197412)
(0.567966 0.00178989 0.000162475)
(0.603296 0.00881747 -0.00298302)
(0.582234 -0.000839129 -0.000763805)
(0.576428 -0.000568145 0.000482596)
(0.198235 0.198999 0.000710159)
(0.198969 0.197886 0.000564755)
(0.556813 0.00149999 0.00093591)
(0.547217 0.000861464 0.000740828)
(0.199533 0.20008 -1.67351e-06)
(0.565094 0.000501798 0.000106443)
(0.590949 -0.00183752 0.000583333)
(0.577315 -0.00114075 0.000418628)
(0.19942 0.197299 -8.61819e-05)
(0.56992 0.011502 0.00236531)
(0.199226 0.199082 -1.07781e-05)
(0.576808 -0.000596294 0.0004364)
(0.57799 -0.000608544 0.000298901)
(0.199898 0.199798 -2.82205e-05)
(0.552269 0.0030702 -0.00175248)
(0.5764 -0.00034823 -4.68092e-05)
(0.567836 0.0104841 0.000580898)
(0.557712 0.00020845 0.00204111)
(0.204427 0.200447 -0.000332763)
(0.584654 -0.00174549 0.00173853)
(0.569683 0.0130412 -7.94976e-05)
(0.602344 -0.015983 0.00345879)
(0.508087 0.00692086 0.00110867)
(0.453005 0.00143386 -0.00583381)
(0.199833 0.197661 -0.000274503)
(0.199466 0.1993 6.59785e-05)
(0.55988 0.00788726 0.00104582)
(0.200428 0.200427 -9.01662e-05)
(0.487488 -0.00136102 -0.00142821)
(0.562596 -0.00284936 -0.00408597)
(0.339811 0.0441057 -0.0134319)
(0.625555 -0.0423142 0.0167711)
(0.552605 -0.0250988 0.00779945)
(0.614311 -0.0235201 0.00582978)
(0.200349 0.200366 -5.82821e-05)
(0.27355 0.232361 0.00152406)
(0.582685 0.00153086 -0.000347977)
(0.199286 -0.200195 -0.000805093)
(0.114271 -0.0814768 0.0313291)
(0.574704 -0.0107336 -0.00809087)
(0.198568 0.198157 -0.000468142)
(0.200459 0.20021 2.41179e-05)
(0.517219 -0.00989451 -0.000142225)
(0.418524 -0.0299828 0.00105571)
(0.200472 0.200502 -3.0906e-05)
(0.517986 -0.0105688 0.00200255)
(0.198522 0.198276 8.88919e-06)
(0.200031 0.200393 -0.000333483)
(0.200059 -0.200037 -5.10358e-05)
(0.200137 -0.199662 0.000477284)
(0.19596 -0.194323 0.000603585)
(0.199488 -0.199077 -4.26187e-06)
(0.52049 0.00478955 -0.00172539)
(0.197576 0.196057 -0.000149891)
(0.199999 0.200131 8.11759e-05)
(0.198319 0.1995 0.000473161)
(0.484852 -0.108432 -0.0278885)
(0.548573 -0.00492583 -0.0107411)
(0.530496 -2.44066e-05 -0.00490655)
(0.5827 0.00146997 -0.000397712)
(0.198599 0.197391 5.55746e-05)
(0.201082 0.200335 2.04653e-05)
(0.558207 -0.00955611 -0.011633)