/*--------------------------------*- C++ -*----------------------------------*\
  =========                 |
  \\      /  F ield         | OpenFOAM: The Open Source CFD Toolbox
   \\    /   O peration     | Website:  https://openfoam.org
    \\  /    A nd           | Version:  10
     \\/     M anipulation  |
\*---------------------------------------------------------------------------*/
FoamFile
{
    format      ascii;
    class       volScalarField;
    location    "55";
    object      T;
}
// * * * * * * * * * * * * * * * * * * * * * * * * * * * * * * * * * * * * * //

dimensions      [0 0 0 1 0 0 0];

internalField   nonuniform List<scalar> 
59698
(
286.622
283.285
293.186
286.493
299.932
283.15
292.523
286.534
303.15
303.15
303.15
293.144
283.15
293.768
300.113
303.15
294.067
293.362
293.107
293.813
303.282
302.123
303.149
303.15
295.69
293.355
293.104
298.34
295.706
295.333
300.29
303.15
303.15
298.818
302.37
293.184
283.381
283.467
283.15
297.577
296.225
283.15
296.567
293.849
283.15
296.592
293.239
295.259
294.641
293.558
293.057
293.26
292.349
294.535
294.389
293.121
294.282
302.177
294.246
282.976
291.246
294.3
299.61
293.121
286.787
294.465
303.15
293.135
293.131
303.15
283.15
293.779
283.136
298.547
283.15
297.774
294.535
287.694
291.646
294.153
299.957
292.582
303.15
293.383
303.704
294.504
294.181
285.837
298.893
293.881
303.15
294.734
298.994
293.54
293.769
293.514
299.071
284.199
298.919
283.15
299.124
283.128
285.895
284.491
291.628
283.15
293.391
291.124
303.15
283.15
291.831
291.905
298.876
283.15
283.151
283.15
283.151
283.151
283.151
303.15
283.15
292.838
283.151
283.15
283.15
283.15
295.477
303.15
283.15
283.15
287.531
283.15
303.15
292.786
290.252
291.652
283.15
303.15
293.066
293.464
293.422
293.765
290.853
292.122
283.15
293.582
283.15
283.15
283.15
301.183
283.138
303.15
288.08
283.15
294.056
293.369
293.211
283.214
296.95
283.15
289.67
283.15
290.774
299.552
297.792
296.67
292.846
280.922
299.359
292.2
300.361
283.151
300.929
300.991
285.547
292.809
303.15
283.238
303.15
298.91
302.764
300.404
298.622
283.15
298.736
300.856
300.762
293.86
283.15
294.719
294.357
293.669
296.603
297.467
299.385
292.508
293.945
296.582
303.155
299.377
283.15
284.151
292.427
292.799
299.291
290.951
297.321
295.415
293.577
298.025
293.136
293.708
299.138
303.15
294.872
283.15
285.715
294.063
297.842
296.002
282.051
296.31
291.845
299.27
295.288
299.324
295.84
291.352
295.618
284.999
283.15
296.171
295.179
295.844
283.15
294.823
295.97
293.736
285.699
295
283.15
293.995
289.911
303.15
294.644
285.367
282.928
285.616
293.631
293.242
293.828
294.94
295.144
303.15
293.512
294.746
294.12
295.305
292.653
283.15
303.12
283.15
294.462
294.342
294.821
295.29
291.795
303.15
293.412
283.15
293.226
286.642
303.101
283.15
287.337
293.71
283.15
293.633
294.001
303.15
303.15
286.715
293.278
289.111
295.085
290.702
292.949
303.15
286.044
294.609
301.417
291.286
293.335
293.333
294.887
287.494
292.714
293.621
295.098
291.03
291.441
283.15
283.15
292.611
293.187
293.155
287.819
293.657
294.63
293.019
283.15
283.151
288.567
283.15
293.714
292.675
283.15
293.727
283.15
293.59
293.875
293.392
294.002
303.15
298.327
286.256
294.107
293.715
292.433
283.15
300.171
290.666
298.871
281.564
303.15
293.808
293.697
292.555
298.463
293.825
295.133
295.539
292.377
294.982
298.948
283.15
295.606
301.433
293.73
289.168
292.838
283.647
301.347
303.15
284.213
300.755
302.082
283.15
293.631
303.15
285.379
293.85
303.15
295.006
283.15
283.15
293.448
290.471
293.322
282.759
292.677
283.15
283.721
283.15
296.428
303.15
293.324
283.15
283.15
303.15
283.15
292.063
293.148
293.515
293.319
283.148
293.503
283.15
283.15
293.259
293.819
303.15
294.601
290.762
303.133
301.993
301.79
284.306
291.098
291.224
288.508
295.725
291.153
284.227
285.32
283.968
295.927
293.244
295.684
302.249
297.877
303.15
295.278
303.15
283.15
289.819
283.152
283.574
302.292
302.826
294.384
283.15
290.793
281.995
283.15
283.15
303.15
294.394
283.293
283.15
295.497
302.787
285.305
291.842
287.587
303.15
303.15
298.656
283.794
291.951
283.15
292.191
303.15
293.61
285.507
302.913
294.882
283.15
293.362
299.21
291.028
293.218
294.105
286.318
294.009
293.559
290.651
303.15
284.308
283.15
290.068
283.166
283.966
293.904
303.15
293.569
293.407
291.881
294.114
294.992
295.11
283.15
283.15
283.15
294.051
293.142
302.758
292.131
293.711
294.014
283.161
293.599
293.374
283.15
300.933
293.363
293.511
293.381
291.959
292.879
299.05
290.508
291.391
293.479
292.098
293.492
288.435
293.51
289.575
283.15
283.15
295.18
299.053
294.679
283.15
303.15
283.153
303.15
283.161
290.266
294.706
290.694
283.158
283.15
291.619
283.163
283.15
283.164
283.15
283.15
289.542
293.959
283.164
283.15
283.15
302.995
294.93
292.491
289.849
288.753
283.15
301.491
303.15
293.42
288.161
283.15
283.15
286.368
293.385
303.15
290.013
292.977
285.435
281.269
289.381
291.844
282.225
283.132
290.845
283.147
283.269
303.15
283.293
303.15
291.953
283.305
283.15
295.583
291.515
291.826
283.15
303.15
283.299
283.123
285.822
303.15
286.398
283.275
291.205
303.15
292.067
293.406
283.15
291.899
290.956
293.524
283.15
292.287
295.526
303.15
283.15
288.651
285.285
293.113
292.359
283.15
292.429
293.104
289.737
291.642
291.953
296.414
293.009
293.047
283.15
283.388
303.15
282.783
283.15
283.15
290.922
290.974
283.15
283.292
291.045
291.623
292.815
283.15
291.077
283.15
283.15
292.535
283.15
292.11
291.11
291.143
283.15
297.831
285.638
283.15
283.15
291.151
291.925
302.958
295.263
293.733
290.901
292.232
292.025
292.084
295.599
283.15
293.152
291.365
293.011
292.142
292.075
283.15
283.16
286.909
293.496
292.775
283.15
303.15
292.04
294.039
291.009
293.721
293.611
283.15
283.15
293.138
288.563
291.779
292.001
293.159
283.15
303.147
293.583
292.388
293.669
293.392
291.006
283.791
301.83
291.634
293.689
293.773
291.802
288.933
283.15
293.522
292.744
293.534
292.775
291.681
283.15
295.311
293.221
292.817
292.429
293.516
283.15
283.15
291.896
283.15
291.901
292.909
291.991
295.759
290.797
297.19
293.964
291.73
290.813
293.619
293.624
292.588
283.15
292.822
283.15
283.15
292.549
291.772
293.198
303.15
296.534
285.488
292.09
283.15
293.664
283.15
293.753
283.15
283.15
297.642
289.34
285.79
303.15
283.15
297.839
297.947
285.795
292.062
295.615
297.213
295.511
283.15
296.21
285.432
282.86
283.15
290.548
300.331
283.15
291.069
292.813
303.15
297.638
287.936
292.817
293.821
283.262
297.043
294.589
294.531
283.596
283.45
292.466
286.012
283.15
296.888
293.731
298.131
283.15
292.918
290.241
295.058
303.15
285.453
296.894
283.15
298.215
295.936
292.319
293.834
296.738
283.15
283.15
294.926
294.555
283.15
283.15
292.345
283.15
289.441
285.619
292.411
294.527
294.543
297.378
283.15
293.677
290.469
294.872
295.29
295.317
283.15
284.363
298.824
285.57
288.639
297.669
301.096
293.492
302.767
283.15
283.15
283.15
292.666
292.762
283.15
292.53
285.789
298.047
283.164
292.522
291.712
283.15
282.349
283.15
283.15
292.537
283.15
303.101
298.495
303.15
292.506
284.563
288.643
292.49
282.179
285.285
283.228
283.15
283.15
291.271
294.721
296.693
283.15
295.803
291.451
291.637
283.15
291.672
291.722
283.162
283.15
283.133
283.174
303.15
283.15
283.15
283.15
283.15
291.18
286.747
291.045
283.15
294.64
288.318
283.15
285.406
283.15
288.688
283.15
299.444
295.181
291.976
292.503
283.778
295.89
303.15
295.89
284.016
283.15
292.597
283.149
293.232
283.15
292.047
283.15
284.104
283.15
290.382
283.15
293.463
291.774
294.912
292.687
291.904
283.836
292.1
283.15
283.15
283.987
293.471
283.906
293.21
283.15
294.321
296.329
296.016
283.15
294.114
295.074
285.93
296.743
303.15
283.15
295.886
292.366
283.15
283.15
293.416
283.15
295.882
283.15
283.15
293.575
283.15
283.15
283.15
283.15
303.15
283.15
283.15
283.15
295.896
297.653
293.999
296.707
290.215
294.983
295.611
293.485
291.432
290.744
286.584
292.082
283.15
289.763
283.15
296.543
295.757
291.92
290.3
283.15
283.15
297.549
291.279
290.057
296.131
296.764
283.15
295.391
285.34
294
293.112
283.15
283.15
293.38
292.936
293.242
283.15
293.226
283.15
303.15
293.248
293.494
294.479
303.15
293.565
296.67
294.177
293.514
293.856
294.464
295.687
292.888
303.15
303.15
283.15
295.558
283.15
293.571
291.457
302.708
298.556
293.044
295.02
302.158
297.862
294.937
295.854
293.722
285.332
295.692
293.879
290.675
287.755
294.115
283.15
283.15
303.15
283.169
294.723
300.394
294.705
303.15
303.15
292.727
293.391
294.906
292.727
283.15
292.611
283.15
293.741
285.441
298.334
283.15
294.559
295.252
302.796
293.05
293.697
302.792
283.15
283.274
302.801
283.68
294.557
295.189
296.448
295.372
295.991
295.197
283.234
292.911
303.15
295.488
296.536
293.257
283.15
293.209
297.707
292.972
293.629
283.15
295.326
292.728
287.744
294.507
290.915
292.731
303.15
293.571
288.103
283.15
303.15
294.04
294.205
295.975
294.322
289.326
303.15
303.15
293.098
283.15
295.02
294.441
294.312
294.426
293.95
303.15
303.15
284.108
294.313
295.121
303.15
294.083
296.134
303.15
282.445
292.915
283.57
291.988
294.357
292.879
285.322
294.107
303.15
293.783
291.73
284.639
292.877
283.15
284.708
294.389
301.065
303.15
297.26
302.915
293.025
301.673
287.093
291.086
295.269
297.734
297.144
289.458
289.171
293.268
283.15
288.102
292.879
303.15
293.272
300.979
293.075
294.507
294.324
294.94
283.15
302.397
289.609
294.815
294.648
292.52
283.15
303.15
293.462
286.773
283.15
292.943
292.984
294.666
293.425
304.934
293.291
295.047
283.274
295.299
293.356
287.086
294.945
303.15
283.329
283.312
283.319
290.195
284.516
300.813
301.116
284.344
295.896
299.102
302.606
293.686
293.281
283.15
302.578
287.72
300.25
291.912
292.138
295.942
295.797
295.404
293.309
295.262
303.15
286.058
298.845
295.797
293.749
292.99
297.24
293.716
299.008
293.77
283.851
293.661
293.572
303.15
293.362
303.15
292.584
292.796
294.036
292.086
293.06
285.398
292.72
303.15
294.481
291.951
288.948
292.44
293.381
303.15
303.15
293.553
293.425
283.15
303.15
293.047
293.51
294.142
283.15
303.15
292.818
283.15
283.15
283.15
285.264
292.347
283.15
284.961
303.15
283.15
283.15
303.143
303.15
297.274
290.552
293.144
297.374
296.695
292.342
303.15
283.15
283.15
296.92
282.324
296.653
283.15
303.15
287.615
303.15
296.775
284.582
283.15
291.176
297.6
293.492
302.761
297.488
295.752
297.453
291.413
297.623
283.15
283.15
297.487
297.421
294.319
303.15
285.356
291.921
293.736
293.665
294.082
294.364
294.16
293.257
291.255
287.703
300.608
285.6
297.026
303.023
293.129
303.15
294.74
283.15
299.947
303.15
303.15
293.482
283.15
300.65
293.156
283.15
303.15
292.053
292.863
303.15
293.494
291.788
293.042
293.673
302.959
303.15
297.493
293.757
283.15
289.055
292.016
285.893
283.097
303.15
284.987
303.15
285.68
303.15
285.039
297.883
297.78
296.972
297.556
294.29
285.184
286.802
293.745
283.15
292.032
298.05
294.822
296.656
283.15
301.149
285.706
303.15
285.708
297.029
296.292
303.15
303.15
285.164
288.938
287.339
294.302
289.22
289.627
303.15
303.15
283.15
292.113
287.797
303.15
299.755
303.15
287.574
303.15
303.15
303.15
291.698
290.766
299.278
303.15
292.586
292.932
303.15
291.924
287.303
282.678
293.724
283.734
295.845
291.689
292.132
283.309
293.66
292.227
303.15
303.15
285.173
288.649
292.711
283.57
283.278
283.181
289.882
293.124
283.15
295.283
291.705
294.638
287.716
285.228
293.968
303.15
292.221
284.068
290.957
294.004
300.937
291.982
292.389
292.523
293.45
298.099
292.205
283.15
283.176
283.903
286.788
283.77
292.98
284.853
292.867
284.215
303.15
294.048
290.563
288.476
292.619
303.112
303.15
283.15
284.405
294.769
300.64
284.977
285.127
298.424
294.551
284.949
282.309
294.007
303.15
287.368
283.15
283.128
285.157
303.15
297.657
283.152
283.151
303.15
284.93
300.026
303.15
283.15
289.26
295.129
296.515
297.864
283.517
303.15
285.257
291.854
285.3
283.15
293.965
283.15
303.125
285.223
303.15
294.343
285.145
292.608
285.654
285.417
285.604
300.152
298.995
285.917
283.138
299.314
285.185
299.447
303.15
283.15
283.15
296.288
285.773
292.942
292.787
288.106
293.755
293.564
283.156
285.443
285.709
296.751
303.15
293.673
286.046
303.15
288.565
285.809
283.15
288.197
303.15
296.124
285.662
303.15
296.85
302.682
290.219
292.504
286.914
288.127
303.15
283.15
303.15
283.15
283.15
294.164
285.504
283.14
291.903
283.208
303.15
288.304
288.774
287.966
294.281
288.263
294.9
289.062
286.225
303.15
287.431
291.767
292.992
303.15
300.566
292.905
289.592
303.228
303.15
299.155
285.78
290.462
303.15
285.436
290.513
285.444
297.732
297.175
290.168
295.076
303.15
303.15
290.271
290.296
283.93
295.159
283.153
283.576
303.15
283.799
290.226
303.15
283.15
283.003
283.15
290.351
299.829
303.15
290.325
303.15
303.15
283.678
293.804
283.15
283.149
303.15
293.254
292.424
303.15
303.15
291.367
283.127
290.96
303.15
283.139
293.464
290.991
290.992
300.706
283.15
290.995
303.15
294.756
294.265
303.15
303.15
303.15
292.524
283.15
291.125
291.864
303.15
283.14
291.298
303.15
303.15
303.15
292.417
283.15
293.579
283.15
293.786
291.629
283.15
296.133
303.15
283.15
291.547
291.429
291.41
294.11
283.15
293.469
291.777
291.823
293.857
283.14
283.15
303.15
283.15
283.15
283.15
283.151
303.15
293.618
294.241
303.15
285.309
293.663
293.198
285.101
292.945
293.552
297.185
283.151
296.725
295.929
292.532
293.474
283.15
292.19
292.277
293.48
292.183
298.961
293.64
287.288
283.15
304.958
284.032
292.368
300.347
283.134
293.553
291.728
303.15
294.391
296.499
295.231
292.627
301.439
296.235
292.198
298.945
293.105
302.821
297.688
300.381
292.317
285.25
294.223
289.327
294.342
295.91
297.491
292.776
296.667
283.15
283.15
294.751
292.785
283.143
299.541
292.608
288.102
293.089
283.15
297.878
293.711
283.15
293.605
292.485
283.15
295.062
283.15
293.107
298.437
293.728
300.333
292.885
294.445
292.868
293.624
298.452
291.685
292.486
284.618
293.491
292.675
293.36
283.15
303.15
292.479
297.125
298.069
301.568
283.46
292.498
285.845
293.359
292.405
292.397
303.151
291.676
292.653
292.527
283.139
292.52
292.521
283.151
301.986
293.903
291.775
303.188
293.706
283.15
283.15
298.999
291.918
302.102
302.823
294.648
291.636
289.97
292.055
283.57
288.37
293.537
283.15
283.15
290.076
295.153
302.943
293.046
288.181
287.871
298.909
293.006
283.158
283.791
292.334
293.464
287.634
295.255
292.097
302.927
293.266
287.993
291.266
298.232
302.944
292.661
292.719
292.742
298.506
294.066
294.315
288.185
289.74
283.152
294.455
289.085
294.121
283.884
289.337
302.814
284.326
293.353
289.435
293.385
283.265
294.017
299.704
283.15
294.6
292.218
283.158
283.15
293.135
283.15
295.052
287.188
298.568
299.516
289.33
283.15
283.15
294.785
295.975
293.357
283.15
283.15
298.713
285.523
288.554
283.15
283.15
283.15
283.15
296.204
288.001
296.579
283.15
292.864
283.386
299.566
303.15
293.413
283.15
292.994
296.955
292.082
299.686
283.15
283.216
283.15
283.15
299.647
293.627
283.15
301.3
292.079
283.15
293.158
294.343
292.004
289.347
293.416
303.15
294.297
301.438
283.15
283.15
283.15
283.15
283.15
301.37
287.255
290.347
292.986
283.15
283.227
295.971
283.15
283.15
298.92
291.967
290.403
290.57
283.15
303.15
298.532
293.43
294.389
295.706
295.032
301.376
293.37
301.178
295.291
293.023
292.081
303.15
293.611
300.061
295.457
295.697
291.922
302.835
286.648
295.646
293.889
292.407
296.222
295.414
283.15
291.135
292.612
295.755
294.106
283.15
293.358
291.596
296.433
296.075
295.22
296.197
294.309
295.75
294.788
283.15
291.995
295.613
295.816
296.777
300.253
297.335
297.453
297.951
301.232
283.15
303.146
283.145
290.485
283.15
292.634
301.778
303.556
295.261
303.009
303.129
291.143
283.15
292.105
291.236
290.857
283.15
300.591
283.15
291.104
303.15
283.15
293.474
287.112
301.074
295.239
283.15
302.015
294.057
289.245
302.278
286.675
295.408
291.736
292.616
294.625
300.557
302.961
293.229
289.822
289.039
294.073
295.288
294.65
295.88
283.15
283.15
292.515
294.211
294.251
295.779
291.133
283.15
283.15
293.771
292.975
283.15
290.952
294.07
292.898
292.179
283.157
293.401
294.702
283.157
283.156
293.549
286.563
302.175
291.95
299.934
296.658
294.705
283.151
295.965
303.15
283.15
283.15
283.15
295.296
296.772
295.481
294.345
298.692
288.437
283.15
283.142
292.525
291.361
291.603
283.156
283.156
292.668
283.15
296.163
297.855
300.893
295.602
294.839
283.231
283.15
293.846
295.388
293.746
295.51
294.698
289.675
293.413
295.691
300.95
296.71
283.15
303.15
292.587
295.697
293.366
294.72
283.15
293.637
292.38
293.471
290.611
283.15
293.639
293.601
292.916
293.277
295.198
283.151
295.386
290.865
292.434
293.637
283.15
293.636
292.253
293.737
293.568
295.106
295.189
283.15
284.465
295.48
283.15
283.15
296.651
296.181
292.157
297.945
283.15
293.912
283.15
293.695
293.67
292.316
296.018
293.075
296.427
295.431
294.962
299.988
292.9
296.15
295.108
296.789
295.657
293.662
292.866
283.159
283.155
283.154
293.412
303.15
294.007
289.363
283.15
283.15
292.51
283.155
283.367
299.288
283.15
283.398
293.55
293.785
283.405
292.616
286.691
300.846
286.352
287.371
293.279
293.893
293.731
285.923
294.221
285.904
283.15
285.91
291.735
295.917
283.704
283.15
285.49
284.189
288.499
292.318
294.621
283.15
290.416
303.15
283.15
293.609
293.773
293.251
292.014
283.15
290.703
283.205
303.15
287.167
291.353
293.44
290.484
291.97
292.019
283.205
291.374
290.503
283.15
283.15
294.589
293.409
291.668
294.158
293.507
291.605
290.224
290.368
290.423
303.15
283.41
292.611
290.331
290.627
292.542
295.858
293.203
292.068
285.202
292.972
289.286
295.577
291.023
293.907
302.021
294.389
293.606
283.15
294.286
293.173
296.905
293.817
300.496
291.956
301.25
292.647
297.601
292.671
294.612
283.15
293.75
283.15
293.951
295.03
292.918
283.15
293.365
292.925
283.15
292.203
283.15
283.15
283.15
283.15
292.766
292.069
299.349
293.97
293.884
283.15
283.15
291.125
292.775
294.357
294.574
294.048
291.619
292.199
293.624
292.326
294.095
289.769
292.8
292.178
292.133
283.15
283.15
293.604
290.943
293.086
302.663
290.515
292.683
296.795
293.323
285.561
293.405
298.654
303.389
296.195
293.645
292.997
293.118
298.421
293.782
290.075
292.88
293.94
286.387
285.986
283.453
292.751
293.014
283.15
294.03
283.15
292.772
293.738
293.554
293.048
294.73
294.95
283.15
292.26
292.252
293.063
293.691
293.672
283.15
292.731
292.942
283.15
293.263
283.15
283.152
303.15
303.15
292.776
291.982
295.689
293.268
292.87
293.101
297.009
293.317
291.969
293.54
293.504
291.247
290.808
292.8
290.87
292.734
293.674
292.617
295.402
295.467
293.304
294.524
294.508
293.757
292.728
303.243
283.15
303.15
283.15
291.765
292.739
296.101
292.964
283.15
293.151
292.606
291.114
294.381
294.511
283.15
303.15
282.892
292.772
301.987
284.046
303.15
292.812
300.869
294.272
283.15
291.754
293.049
292.882
283.15
303.15
303.15
293.353
283.15
296.669
283.15
295.558
294.346
294.943
293.899
292.697
296.772
283.15
283.15
300.782
303.15
303.15
297.754
293.862
294.85
294.734
283.15
283.15
300.954
292.103
283.15
291.236
291.784
303.15
283.15
292.95
283.15
291.014
292.792
300.841
292.804
292.668
292.656
294.448
292.2
292.684
283.15
292.166
293.716
292.687
296.702
301.948
302.708
293.58
295.796
293.647
293.211
291.447
292.105
300.576
293.038
283.15
291.818
290.467
290.342
290.516
291.802
290.477
283.15
303.15
297.127
283.15
292.498
295.101
291.547
297.944
283.146
292.603
283.661
283.826
293.464
287.949
283.15
283.15
283.15
292.172
294.952
303.15
295.672
284.942
292.873
297.801
298.036
293.77
292.085
283.15
298.075
283.15
296.183
283.15
292.441
298.675
292.778
294.566
298.116
294.131
296.546
293.869
283.15
283.15
296.994
284.25
283.15
291.939
292.562
293.08
293.301
288.306
291.936
291.514
291.253
293.709
295.864
292.069
283.15
292.533
283.338
291.861
299.687
291.872
294.098
286.322
291.134
290.767
292.061
293.869
292.802
283.28
292.376
283.3
292.745
284.333
283.15
290.828
284.76
296.854
292.612
296.33
294.093
295.968
297.507
295.578
287.434
297.249
294.011
295.384
293.2
294.175
297.506
292.754
292.606
284.323
292.774
290.559
294.811
284.243
293.84
293.544
283.15
290.077
292.471
293.581
284.211
293.168
293.261
292.307
283.15
293.676
283.15
295.598
298.739
292.826
302.763
301.08
303.15
293.804
294.234
293.402
295.416
293.446
295.136
293.736
293.673
292.106
302.512
283.15
298.129
290.018
294.423
292.76
300.332
283.15
288.34
300.867
287.182
290.684
290.297
283.152
283.118
291.998
289.962
282.4
293.564
283.434
293.611
296.768
292.32
284.904
291.391
302.416
292.655
292.301
297.38
303.182
287.293
291.649
294.862
290.932
292.731
283.196
284.512
284.318
293.245
294.576
293.1
293.173
291.425
293.449
293.841
283.15
292.816
287.636
300.292
293.151
283.612
287.876
294.656
300.415
290.235
287.679
283.15
298.931
283.15
292.403
283.15
283.221
283.15
297.219
293.226
285.057
297.044
283.144
291.983
292.086
298.608
293.42
292.453
290.656
293.258
283.15
283.149
292.381
293.223
282.637
291.911
292.099
292.434
303.151
293.612
284.256
293.665
285.993
293.089
292.385
292.093
297.345
286
283.742
293.365
284.418
283.288
293.773
293.658
293.803
292.322
284.348
293.845
283.15
289.463
297.412
287.169
291.303
291.966
293.558
295.698
283.15
296.346
293.142
283.15
293.361
296.767
292.731
303.15
287.461
295.001
285.593
293.84
285.806
292.045
296.628
287.993
293.078
303.15
286.251
292.077
288.237
285.274
285.175
290.773
285.468
288.564
291.91
294.53
295.585
292.58
289.257
294.61
294
293.049
294.638
293.004
293.063
293.932
288.526
299.557
288.969
288.387
287.419
292.953
286.464
302.41
291.906
295.179
292.976
283.152
294.833
291.012
291.252
293.347
283.15
295.85
283.15
292.508
291.779
293.25
283.15
283.15
302.589
296.428
286.885
293.376
293.617
294.454
293.925
303.106
283.15
292.348
283.15
294.41
292.464
292.739
283.15
292.133
284.087
299.057
291.815
293.566
291.556
293.929
290.924
293.93
300.083
292.613
299.596
291.837
299.153
299.225
302.347
302.079
299.496
299.688
299.541
289.053
293.376
292.457
291.828
292.88
288.852
293.542
294.177
290.624
292.553
285.594
292.303
292.824
291.586
290.015
293.518
291.231
301.033
293.609
299.966
301.463
289.117
287.143
293.754
291.982
290.309
299.048
290.776
292.415
293.638
292.126
283.15
292.031
292.1
293.181
293.888
283.17
292.123
290.844
292.779
290.852
292.178
293.901
293.114
292.83
292.119
297.39
293.44
291.738
292.889
292.463
292.186
295.932
283.15
292.866
293.105
292.13
293.594
290.962
291.191
292.853
293.007
301.89
302.255
294.633
293.481
301.102
304.626
292.447
302.211
302.155
283.15
292.459
283.151
293.158
302.348
294.181
283.15
284.169
302.346
289.607
293.31
292.609
292.48
285.982
294.117
283.15
303.081
286.095
296.17
292.787
292.504
292.55
292.544
293.105
292.496
290.519
292.509
293.153
283.216
283.993
294.123
293.049
299.281
291.352
291.401
283.15
287.053
301.445
283.15
301.102
291.154
300.531
283.15
301.546
283.15
298.686
283.15
290.916
290.4
296.691
298.664
297.846
294.225
283.15
293.568
300.212
283.15
291.798
298.937
283.15
283.151
287.814
284.221
299.032
287.913
299.049
291.66
293.104
293.782
295.789
293.199
293.195
291.297
296.741
289.174
295.214
283.15
297.343
283.15
283.15
298.132
297.08
291.271
291.797
297.143
290.265
287.452
297.546
298.821
303.15
292.209
285.565
293.557
304.292
291.272
287.614
296.076
283.15
296.478
283.15
291.653
294.761
297.499
283.15
292.293
293.739
292.174
292.235
293.895
294.095
301.817
283.15
296.485
286.154
297.297
291.956
294.451
292.017
301.915
294.084
295.011
294.898
288.697
295.595
300.135
292.041
292.065
285.778
293.61
299.373
296.638
292.548
292.538
290.751
283.15
294.539
294.229
303.144
295.584
295.692
290.647
299.179
290.291
293.489
303.15
293.355
283.15
284.686
283.15
286.949
294.937
292.373
293.182
292.325
291.102
283.15
293.513
287.953
292.804
294.376
291.291
292.802
289.728
283.323
298.274
295.802
300.582
291.777
283.15
293.017
294.071
284.602
296.43
297.111
292.205
296.632
293.729
296.613
297.104
300.25
295.156
294.381
290.565
283.43
283.458
303.107
303.15
283.498
295.389
290.325
283.152
283.162
303.15
303.15
293.948
294.789
283.175
295.099
295.232
287.264
295.088
294.703
295.178
295.234
295.834
289.764
291.715
292.533
298.642
293.482
293.977
293.035
283.15
302.513
290.592
293.62
292.546
294.036
283.15
283.15
292.607
292.347
283.15
293.992
291.648
283.15
302.717
283.15
283.15
298.256
295.638
303.15
288.097
297.62
300.9
293.545
292.391
295.832
295.989
293.49
294.073
293.255
294.734
292.654
283.15
291.694
296.368
292.355
293.711
297.257
293.396
297.041
293.496
292.403
286.501
291.781
283.15
294.055
295.572
295.033
293.491
300.801
295.224
292.185
292.246
283.15
293.378
293.271
293.099
292.349
289.489
293.281
291.997
303.15
288.403
293.55
294.249
294.706
283.15
283.604
302.455
295.146
297.426
289.872
289.796
283.15
283.15
293.787
293.697
294.154
290.417
283.15
293.288
293.339
292.913
293.003
290.767
293.351
283.15
294.278
295.606
285.175
291.738
291.993
294.499
294.384
284.826
295.974
295.667
295.903
295.669
295.005
295.666
293.419
295.399
295.333
290.223
292.132
291.502
295.213
283.15
294.781
283.746
302.969
294.672
295.688
296.864
285.484
295.171
290.263
285.422
283.15
290.277
293.737
292.034
282.851
283.15
295.032
292.765
292.884
300.069
297.32
283.146
297.869
292.749
300.962
290.297
293.525
283.15
293.579
301.329
296.122
293.604
291.781
295.249
293.154
283.15
294.647
292.585
293.59
293.081
295.621
292.574
283.15
292.314
283.15
293.675
291.945
295.025
292.803
290.909
283.15
283.15
291.119
293.485
290.424
289.481
292.983
296.97
293.173
297.627
286.653
283.15
299.371
290.2
283.15
303.199
283.158
283.153
283.15
294.596
283.151
283.15
289.772
283.15
293.143
294.367
292.626
290.818
291.366
287.3
290.084
297.476
295.796
293.538
297.282
283.594
292.695
288.665
303.15
297.6
293.006
292.28
292.77
294.255
293.109
294.303
292.826
298.152
290.139
303.15
290.132
289.598
287.551
289.974
289.549
291.991
286.342
303.15
292.122
289.716
286.585
292.772
284.319
292.437
293.043
289.994
296.717
293.362
283.15
292.809
293.841
293.766
301.587
292.624
288.663
283.219
293.503
296.618
292.549
294.98
293.39
300.898
292.987
292.828
294.085
293.351
293.876
286.235
295.42
293.769
295.887
283.311
293.824
293.23
302.452
283.15
293.32
295.441
303.114
283.191
294.447
283.15
293.829
296.743
289.412
283.15
291.566
292.976
295.698
287.165
293.881
295.702
294.577
296.614
283.613
293.732
284.456
293.003
303.15
293.604
283.15
293.547
292.846
293.722
293.283
283.15
292.645
287.501
283.187
292.53
293.897
283.15
293.68
290.31
294.442
293.455
293.454
283.15
283.15
283.15
283.15
283.15
283.15
292.976
294.286
283.15
283.15
293.128
294.407
292.363
298.839
290.603
293.748
296.543
292.964
293.777
296.894
297.081
296.912
283.15
292.749
291.795
292.286
293.029
292.172
297.204
287.572
301.634
293.571
292.284
293.774
293.099
292.926
291.729
291.548
283.15
291.697
292.807
293.593
287.033
294.357
288.476
295.191
283.15
292.013
293.542
283.15
283.15
283.15
283.15
292.893
290.048
296.736
283.15
283.15
283.15
292.993
283.15
290.966
296.127
293.56
291.732
283.15
293.706
293.593
291.636
290.994
286.712
287.812
288.537
291.266
291.325
297.695
294.16
294.193
294.441
300.988
285.028
295.929
294.454
285.056
284.937
293.02
293.199
290.692
291.432
296.45
293.161
283.15
291.204
293.435
297.506
285.023
293.305
291.134
295.809
296.944
289.227
292.232
293.935
300.238
293.378
301.686
294.033
292.72
292.561
293.827
290.682
294.119
291.095
293.632
284.092
291.123
293.64
292.663
294.005
283.254
283.15
293.336
283.295
293.652
292.342
293.037
283.714
292.131
293.159
293.942
293.619
284.777
292.07
291.418
283.15
293.385
294.181
294.106
283.32
283.15
293.748
293.201
293.669
301.232
283.574
292.911
288.403
283.15
283.312
288.452
283.3
283.275
293.871
283.15
287.038
283.316
283.15
283.15
293.907
293.197
283.249
283.15
293.817
286.959
293.967
283.158
293.377
283.15
283.15
293.963
292.772
294.095
283.15
283.15
286.225
283.15
293.23
294.244
293.183
293.874
293.721
286.995
293.672
291.837
294.578
294.162
294.017
294.106
294.468
293.463
290.615
294.084
293.623
292.17
294.139
293.775
294.2
283.15
302.498
294.505
295.221
297.198
283.55
295.384
283.15
292.84
283.15
293.665
293.342
295.689
283.15
291.746
296.672
293.404
290.916
298.881
292.077
291.805
290.551
290.809
294.231
290.659
292.482
283.15
283.15
283.15
288.439
292.526
292.522
292.5
292.515
286.234
293.636
293.764
283.15
293.661
293.747
283.19
283.196
293.157
292.22
292.816
283.193
292.423
292.488
283.187
290.783
283.15
295.008
283.15
292.541
294.629
294.112
293.609
294.376
292.506
293.645
293.575
293.72
283.201
284.883
293.72
292.788
283.15
283.163
283.727
290.326
293.319
283.216
284.916
283.15
293.402
293.448
283.744
293.164
293.12
283.15
285
290.1
283.15
283.194
292.739
293.801
294.094
294.193
294.095
294.112
294.164
283.204
290.258
291.05
285.297
290.143
289.573
285.5
285.341
290.976
293.996
293.651
290.178
294.118
294.046
294.463
283.15
290.276
283.807
293.588
293
291.618
294.141
293.391
293.097
294.294
293.889
292.959
292.915
294.037
283.177
291.418
292.974
293.366
293.835
294.355
293.049
293.594
283.15
292.662
283.15
283.914
283.17
290.625
293.972
292.307
289.992
283.907
292.892
283.911
291.482
288.735
291.641
289.234
301.693
295.524
289.026
283.15
283.15
296.052
283.15
292.966
290.263
283.15
289.022
284.472
291.682
293.279
296.348
288.939
303.15
293.519
291.801
294.051
288.74
295.604
291.085
293.787
290.806
290.978
300.449
283.209
290.838
295.201
293.573
293.784
293.522
290.599
294.368
293.773
293.094
293.62
291.43
293.562
289.68
291.998
293.975
283.15
284.897
289.154
291.542
293.795
291.372
292.2
292.3
292.454
283.72
285.767
287.99
292.51
293.685
293.701
294.262
303.15
292.411
293.656
296.852
303.15
288.262
293.287
294.028
283.511
290.425
291.729
292.232
288.981
294.027
292.388
285.251
295.336
283.15
293.666
293.239
293.585
293.442
293.558
294.198
293.548
293.766
293.141
293.869
299.044
292.602
292.032
292.15
294.9
292.314
283.159
286.518
293.018
294.087
292.392
303.15
293.625
293.611
283.195
292.351
283.921
293.521
291.239
283.15
283.15
283.15
293.842
283.15
294.737
283.15
292.665
291.902
293.306
291.785
283.15
293.559
293.591
283.15
294.367
283.15
293.968
283.214
294.053
293.954
294.06
293.123
283.171
293.212
292.325
293.729
283.152
288.341
298.852
293.881
293.98
283.15
293.804
283.15
283.217
293.313
295.293
293.836
293.205
294.073
294.11
292.748
293.104
283.15
288.383
283.15
289.495
283.15
293.437
293.072
283.15
283.15
292.37
293.226
294.032
293.525
302.57
293.96
293.907
293.368