/*--------------------------------*- C++ -*----------------------------------*\
  =========                 |
  \\      /  F ield         | OpenFOAM: The Open Source CFD Toolbox
   \\    /   O peration     | Website:  https://openfoam.org
    \\  /    A nd           | Version:  10
     \\/     M anipulation  |
\*---------------------------------------------------------------------------*/
FoamFile
{
    format      ascii;
    class       volVectorField;
    location    "55";
    object      U;
}
// * * * * * * * * * * * * * * * * * * * * * * * * * * * * * * * * * * * * * //

dimensions      [0 1 -1 0 0 0 0];

internalField   nonuniform List<vector> 
59698
(
(0.584671 0.00595236 -0.00172865)
(0.564787 -0.00115087 -0.00086053)
(0.566524 -0.000684368 0.00170069)
(0.57879 -0.0034339 -0.00125635)
(0.56299 0.000788794 -0.002955)
(0.197725 0.198052 -0.00634732)
(0.566923 0.000236686 0.000406231)
(0.564026 0.000847161 -0.00029167)
(0.19988 -0.199527 -0.000424332)
(0.201227 -0.200788 -1.38493e-05)
(0.200369 -0.198721 -0.000624429)
(0.567013 -0.000302077 -0.000405126)
(0.199801 0.200489 -0.000578392)
(0.561607 -0.000760492 -0.000195471)
(0.56206 0.00112543 -0.00258836)
(0.203965 -0.19711 0.00182374)
(0.564676 0.000134276 0.000202113)
(0.566071 -0.0012599 0.000385388)
(0.567636 -0.000511354 0.000298831)
(0.567343 -0.000372274 -8.04786e-05)
(0.142924 -0.0998597 -0.0248398)
(0.536201 -0.00144913 -0.00279601)
(0.26493 -0.172472 -0.00682131)
(0.198823 -0.199921 -0.00136796)
(0.570328 0.000604988 0.00107502)
(0.566224 -0.00115584 0.000431779)
(0.566464 -0.000341405 -0.000427872)
(0.557296 -0.000196548 -0.00122245)
(0.570287 0.00133944 0.000898915)
(0.572446 -0.000459524 0.000440626)
(0.548151 -0.000337616 -0.00039026)
(0.198524 -0.198574 -0.000187749)
(0.201158 -0.197947 0.00230019)
(0.559791 0.00124476 -0.000866154)
(0.549083 0.011446 -0.00750605)
(0.566735 -0.000914353 -0.000386974)
(0.275031 0.0658231 -0.0384667)
(0.539509 0.000724813 0.00013936)
(0.561694 0.000132233 0.000559942)
(0.568114 0.001467 -0.00273595)
(0.563907 0.000427477 -8.90886e-05)
(0.1949 0.197809 -0.00173729)
(0.5624 0.000589003 -0.000621317)
(0.563702 0.000445196 0.000106396)
(0.196729 0.199572 -0.000252605)
(0.560913 0.00367224 0.005144)
(0.567066 -0.000863205 0.000370818)
(0.561583 -0.000323468 0.00148545)
(0.562939 0.000328541 0.000878499)
(0.565361 -0.000694679 0.000232913)
(0.567927 0.000157844 -0.000168828)
(0.566901 -0.000871247 0.000348385)
(0.566563 -8.44174e-05 -0.000780595)
(0.560453 -0.000164126 0.00045038)
(0.572383 0.00289128 0.00102702)
(0.567406 -0.000516946 -0.000143629)
(0.562749 -0.000992771 0.000606857)
(0.524699 -0.0018927 -0.000247695)
(0.564641 -0.000790526 -0.000384486)
(0.268496 0.121023 -0.0194322)
(0.55916 0.00459778 -0.00253015)
(0.564608 0.00134532 0.000531341)
(0.577826 0.0147992 0.00652598)
(0.567582 -0.000558355 0.000377437)
(0.561823 0.000238401 0.000726443)
(0.56141 0.00018864 0.00206009)
(0.19952 -0.199945 -1.2611e-05)
(0.567129 -0.000561034 -0.000631807)
(0.566979 -0.00046359 -0.000635634)
(0.199516 -0.19921 -7.81758e-05)
(0.209134 0.182369 -0.0079324)
(0.565281 -0.000727554 1.76137e-05)
(0.166523 0.11847 -0.0342757)
(0.594134 -0.0105509 0.0196354)
(0.202915 0.203539 -0.000369549)
(0.589813 -0.0252766 0.0206928)
(0.561153 0.000256322 0.000989949)
(0.561038 0.000252292 -0.00163363)
(0.566859 0.000818364 -0.000635792)
(0.571461 0.00154646 0.000125317)
(0.552677 -0.00188033 -4.7755e-05)
(0.567922 0.000239108 -0.000123445)
(0.201249 -0.200758 -6.14097e-05)
(0.565106 -0.000730342 0.000604211)
(0.399795 -0.103749 0.0147696)
(0.562813 0.00019082 -9.49389e-05)
(0.563146 -0.00122769 0.00162227)
(0.557678 0.00048546 0.00715075)
(0.561933 0.00122641 0.000963284)
(0.560506 -0.000174514 0.00159915)
(0.199535 -0.199173 -0.000163355)
(0.560432 0.000900574 0.000575231)
(0.560648 -0.000416099 0.00162713)
(0.565881 -0.000352407 0.000406237)
(0.561542 0.00116709 0.000995583)
(0.563532 -0.00368251 0.0012872)
(0.558573 0.000581209 0.00123834)
(0.562345 0.000544787 0.000558432)
(0.559204 0.000526418 0.00123752)
(0.199678 0.200038 -3.16472e-06)
(0.556343 0.00143279 0.000824031)
(0.567471 0.00514591 0.00629537)
(0.563004 1.75117e-05 0.000214954)
(0.563056 -0.00167667 -0.00453257)
(0.567135 -0.000588118 0.000826264)
(0.198838 0.198574 0.000130781)
(0.56544 -0.00100146 0.000609041)
(0.56725 -0.000358113 -0.000411455)
(0.200747 -0.200888 -6.75437e-05)
(0.199793 0.199689 -0.000370104)
(0.566321 -0.00079132 -0.000375396)
(0.570419 -0.0104241 -7.13174e-05)
(0.561671 0.00138298 0.00157599)
(0.200896 0.198779 -0.0003377)
(0.561058 -0.000132267 0.000248944)
(0.567444 -3.96982e-05 0.000151376)
(0.567175 0.00135468 -0.00137247)
(0.565192 0.00306574 0.000776227)
(0.563751 -0.000834437 0.00205068)
(0.200914 -0.200446 0.000445157)
(0.56565 -6.95687e-05 -2.41255e-05)
(0.558246 -0.00636725 -0.00375948)
(0.563153 -0.00497188 0.00571923)
(0.564566 -6.33154e-05 0.000123602)
(0.564033 0.000121646 0.000194909)
(0.566043 -0.000315837 -0.000131788)
(0.56594 -6.86534e-05 -0.00051624)
(0.199564 -0.199512 0.000486508)
(0.562053 -0.000612402 -0.000196179)
(0.567534 0.000319229 -0.00199055)
(0.567351 0.000341569 0.000569841)
(0.567214 -0.000175978 -0.00107548)
(0.201401 -0.200547 -1.34543e-05)
(0.579337 0.00683592 0.000495255)
(0.572782 -0.000124075 0.00013979)
(0.568492 -0.000184974 -0.000183305)
(0.569795 0.00383439 -0.00108606)
(0.201038 -0.20069 0.000303753)
(0.567415 -0.000354063 -0.000271339)
(0.568539 -1.39434e-05 -0.000357963)
(0.565296 -0.000269594 0.00088702)
(0.562618 0.00317298 -0.00101578)
(0.566091 -0.000852423 -0.000464408)
(0.5674 -0.000331493 -0.000308096)
(0.566007 0.00220308 -0.000447797)
(0.567418 -0.00027306 2.11043e-05)
(0.56363 -0.00394716 0.000299502)
(0.566478 -0.00371648 -0.000536049)
(0.56234 0.000383823 0.000896604)
(0.552234 -0.000208413 0.000109773)
(0.408622 0.144126 0.073207)
(0.200198 -0.199653 0.000118943)
(0.562147 -0.000108694 7.5179e-05)
(0.55659 -0.00218044 -0.00379878)
(0.563085 -0.000269179 -0.000180142)
(0.560674 0.000202674 -0.000464751)
(0.566475 -0.00105329 -0.000265909)
(0.558782 -0.00096757 0.00305244)
(0.563542 -0.000288539 -0.000354371)
(0.199698 0.199541 -0.00010906)
(0.564892 0.000103169 0.00017577)
(0.562822 -0.000373968 0.00024011)
(0.567892 -0.00061413 -0.000239599)
(0.554693 0.00186334 -0.0011108)
(0.562863 -0.000521312 -0.000207801)
(0.566831 -3.09441e-05 -0.000238503)
(0.56703 -0.000204028 -0.000690114)
(0.412162 0.0870619 0.00611071)
(0.55476 -0.000550028 -0.000401033)
(0.567032 -0.000132561 -0.000504712)
(0.55935 0.00179961 -0.00255038)
(0.21092 0.173719 0.000745362)
(0.55317 0.0014206 -0.00218432)
(0.552704 0.00131779 -0.00210164)
(0.578346 0.00133193 -0.00549502)
(0.562498 0.000266502 0.000357598)
(0.199574 -0.198906 0.000797004)
(0.538431 0.00499065 0.00299708)
(0.198955 -0.197825 -0.00579363)
(0.562006 0.000598349 -0.0005081)
(0.510521 -0.00190922 0.00521194)
(0.548394 -0.000531566 -0.000520958)
(0.562687 0.000408596 -0.00100872)
(0.565401 1.06182e-05 -0.000268424)
(0.564588 0.000572413 -0.000830971)
(0.543608 -0.000255324 -0.000242572)
(0.543516 7.23361e-05 -0.000916535)
(0.559578 0.00373246 0.00123235)
(0.566672 -5.07144e-05 0.0001631)
(0.563909 0.0015205 0.000731325)
(0.56159 0.000223517 0.000714376)
(0.562576 -0.000321516 0.000623937)
(0.562838 0.000555604 0.000508736)
(0.561872 -0.000376989 -0.000494481)
(0.554578 0.000273314 -0.000437867)
(0.557257 0.00327337 0.000801219)
(0.576579 0.00574605 -0.0136276)
(0.575753 0.003747 -0.00217573)
(0.152183 -0.144112 -0.0195658)
(0.554218 -0.000541259 9.80164e-05)
(0.20303 0.205886 0.00271375)
(0.546014 0.000556213 0.000870633)
(0.573201 0.000336484 0.000277088)
(0.566607 -0.000364093 -0.000487441)
(0.55286 0.000953896 0.00114031)
(0.566787 0.000155542 0.00015768)
(0.563923 0.000386236 -0.000756604)
(0.55713 -0.00209219 0.00125948)
(0.554558 0.0115076 0.000472811)
(0.562324 0.000304724 -0.000193205)
(0.566004 0.000189657 0.000207747)
(0.564891 0.000212998 0.000470616)
(0.554728 0.000441137 0.00221622)
(0.199003 -0.197044 -0.00110258)
(0.565304 -0.000277057 -0.000191712)
(0.560065 0.000618682 -0.000145148)
(0.566178 -0.000786195 5.04193e-05)
(0.560982 -0.000619283 -0.00185709)
(0.561533 -0.000677523 -0.00016807)
(0.56493 0.000506562 -0.000596111)
(0.581909 0.0243364 0.0226944)
(0.563831 -0.000264137 0.000349221)
(0.565022 4.42714e-05 0.000104681)
(0.557006 0.000934014 0.00287465)
(0.565098 -0.000400046 -0.000235015)
(0.553689 0.0026055 0.00294376)
(0.564357 5.11888e-05 -7.09117e-05)
(0.56605 0.000584593 -0.000492204)
(0.577988 0.00285281 -0.000880566)
(0.59345 0.0122452 0.00972993)
(0.199023 0.198603 -0.000390478)
(0.563331 1.01043e-05 0.00045607)
(0.565712 0.000394299 9.66104e-05)
(0.564457 0.000122792 -0.000357047)
(0.563563 -0.000541072 0.000474144)
(0.567912 -0.000503271 -2.15045e-05)
(0.565017 0.00161592 0.00153416)
(0.564061 0.000336588 0.00017949)
(0.558517 0.00136818 0.00349067)
(0.562145 -0.000906987 0.000490607)
(0.564879 -0.00020696 -8.21325e-05)
(0.563765 -0.00122603 -0.000499332)
(0.570461 7.29342e-05 -5.57674e-05)
(0.197427 -0.19788 0.0033443)
(0.566671 -0.000289939 -5.56426e-05)
(0.564053 0.000203667 0.00390137)
(0.582414 0.0051034 0.0161804)
(0.591341 -0.00756958 0.0132023)
(0.566261 2.95038e-05 0.000154988)
(0.56702 -0.000822406 0.000428582)
(0.561341 0.00107064 0.00400851)
(0.562567 -0.000473731 0.000448268)
(0.563395 0.00101951 0.000873178)
(0.198216 -0.193517 0.00311979)
(0.566486 -0.00138984 -9.71314e-05)
(0.56335 0.000351402 0.000414007)
(0.560513 0.00210016 0.000591728)
(0.561256 -0.000663805 0.000603623)
(0.566128 -0.000484659 -0.000122937)
(0.565006 -0.000163876 -3.48219e-05)
(0.19738 -0.108419 -0.000886023)
(0.200409 0.200051 0.000136638)
(0.56353 -0.000939066 0.000583953)
(0.559877 0.000580099 -0.00117108)
(0.558097 -0.00146203 0.00230204)
(0.586982 0.00751023 0.00246252)
(0.565408 4.31464e-05 -5.01617e-05)
(0.196917 -0.198431 -0.00165554)
(0.565464 -0.001176 0.000419381)
(0.564888 -0.000180714 -0.000151162)
(0.566645 -0.000980937 -9.4843e-05)
(0.563102 -0.00125341 -0.00072236)
(0.545924 -0.11838 0.0772211)
(0.564762 -0.000124964 -0.000241149)
(0.565037 -0.000277848 5.56436e-05)
(0.5576 0.000376603 0.00140976)
(0.564903 -0.00164676 -0.0037354)
(0.564271 -0.000620374 0.00150103)
(0.570063 0.000246383 0.000195855)
(0.200811 -0.200142 0.000136573)
(0.19599 -0.195353 0.00168479)
(0.567551 8.61305e-06 -2.79461e-05)
(0.56704 -0.000896271 0.000494052)
(0.581572 0.00203255 0.00127551)
(0.587069 0.00644926 0.000892341)
(0.577933 -0.00119164 0.00144717)
(0.566055 -0.000292837 -0.000688572)
(0.299219 -0.213218 -0.0187831)
(0.574322 0.00136401 0.000524927)
(0.563435 0.00229129 0.00300788)
(0.586243 0.0173355 0.000963548)
(0.567499 0.000352835 0.000316171)
(0.565282 -0.000873846 0.000553773)
(0.567009 -0.00100383 0.000161581)
(0.569823 -0.00107559 0.000835875)
(0.560548 -0.00149603 0.000715846)
(0.568317 -0.000256856 -0.000619336)
(0.568037 0.00156969 -0.000609731)
(0.565026 -4.47575e-06 -0.000140655)
(0.562987 0.00118805 0.00367249)
(0.566215 0.00163762 -6.22493e-05)
(0.19873 0.198913 -9.89796e-05)
(0.195968 0.197806 0.00149905)
(0.567158 -0.000164607 -0.000407712)
(0.567244 -0.000474111 -0.000162692)
(0.567048 -0.000208707 -0.000280051)
(0.569038 0.000299739 -0.00146555)
(0.560492 -0.00111775 -0.000320744)
(0.562302 -0.000376678 0.000259197)
(0.567292 -0.000133503 -0.000247921)
(0.565309 6.74347e-05 0.000152565)
(0.563438 -0.00200778 0.000541612)
(0.566185 0.000356435 0.000112177)
(0.200736 0.200934 0.00131615)
(0.561462 -0.00328278 0.00169617)
(0.566934 0.000692653 -0.000101464)
(0.202035 0.202597 -0.000457542)
(0.566735 -0.000208272 0.000183806)
(0.195215 0.197029 -0.00207445)
(0.565268 0.00249445 -0.00204134)
(0.562537 0.00303741 -0.00304882)
(0.594586 -0.00984288 0.0185798)
(0.564557 -0.000555656 8.44353e-05)
(0.199744 -0.199403 0.000629946)
(0.600338 -0.0137385 0.0182798)
(0.555751 -0.000173849 0.000660437)
(0.564241 -6.87096e-06 -0.000330072)
(0.566686 -0.000328027 0.000455164)
(0.567176 0.000551723 -0.000201154)
(0.199172 0.199228 -0.000186703)
(0.548375 -0.000121277 -0.00208155)
(0.564059 -0.000934987 0.000321764)
(0.558957 0.000241914 -0.000693128)
(0.582445 -0.0109002 0.0166793)
(0.199616 -0.199995 -0.000182042)
(0.567465 0.000535452 0.000618117)
(0.562772 -0.000629083 0.000173612)
(0.566411 -6.5551e-05 0.000228707)
(0.557072 -0.0012346 -0.000432199)
(0.567956 0.000260784 -0.000134506)
(0.563849 0.00125069 0.000964834)
(0.566789 0.00258952 -0.00169557)
(0.564946 -0.000399295 0.000207706)
(0.56544 7.1434e-05 3.14543e-05)
(0.557797 0.000821432 -0.00118708)
(0.564929 -0.000176007 -0.000125923)
(0.564364 0.000210094 -6.68175e-05)
(0.540942 0.0012611 -0.00105622)
(0.562783 4.94472e-05 -0.000217414)
(0.562773 0.000129526 0.000279029)
(0.567644 0.000154206 0.000117165)
(0.561901 -0.00101216 0.000659209)
(0.569785 -0.00319404 -0.00102594)
(0.199482 -0.199203 -0.000145804)
(0.58986 0.00266241 0.00631969)
(0.546893 0.000631752 -0.000835767)
(0.554166 0.00248595 -0.00698811)
(0.564793 -0.000162862 0.000108572)
(0.562222 0.000371043 0.000738899)
(0.199412 -0.199034 3.03927e-05)
(0.566508 0.00106107 -0.000579816)
(0.559169 -0.000279215 0.000663926)
(0.203242 -0.194654 0.000341593)
(0.565665 -5.62483e-05 0.00027555)
(0.199996 0.20004 -5.73691e-05)
(0.196477 0.201286 0.000519328)
(0.56324 -5.53747e-05 9.04357e-05)
(0.564632 -0.000682585 0.00118439)
(0.564543 -0.000405861 0.00018446)
(0.490901 -0.00575832 0.002692)
(0.567831 0.000233407 0.000294111)
(0.197989 0.198558 0.000296728)
(0.566113 0.000193373 -0.000317642)
(0.197309 0.199025 0.00130164)
(0.562915 9.63904e-05 -0.000547481)
(0.200085 -0.200252 -1.47785e-05)
(0.564368 -0.000393112 0.000384325)
(0.565344 0.000227937 2.69816e-05)
(0.198903 0.198363 -1.14544e-05)
(0.199022 -0.199213 0.000129767)
(0.201361 0.198084 -0.00338406)
(0.56306 -7.50568e-05 -0.000268678)
(0.565886 0.0013563 0.000397947)
(0.560206 0.000768794 -0.000374)
(0.566712 -0.000262044 6.91852e-06)
(0.277706 0.14203 -0.00531006)
(0.563274 -0.000403583 0.000952579)
(0.199302 0.199501 3.05634e-05)
(0.199579 0.200006 -5.59213e-05)
(0.564981 0.00258345 0.00093605)
(0.560077 -0.000457825 5.83046e-05)
(0.199363 -0.196652 0.000738507)
(0.563767 0.000313671 0.00116919)
(0.574338 0.000236443 -8.32634e-06)
(0.379722 -0.14734 0.0155552)
(0.526811 -0.00158933 -0.00033188)
(0.551535 0.0161736 -0.0117378)
(0.562561 0.00273032 0.00160709)
(0.561084 -0.000266979 -0.00249183)
(0.563481 -0.0016857 0.0013036)
(0.562493 0.000480965 -0.000499508)
(0.563742 0.000123515 -0.000173247)
(0.564999 -2.24358e-05 -0.000430066)
(0.564702 -0.000548646 -0.000502951)
(0.553117 -0.00291215 -0.00064312)
(0.560738 0.00442997 0.000762604)
(0.575963 0.00425032 -0.0028616)
(0.581592 0.00305819 -0.000781561)
(0.564372 0.000350001 -0.00135546)
(0.530797 0.000410886 -0.00303644)
(0.571607 0.00241759 -0.0016488)
(0.198922 -0.199129 1.77007e-06)
(0.56019 0.000616638 -0.00129714)
(0.199601 -0.199554 0.00019733)
(0.561372 -4.52467e-05 0.000208164)
(0.584035 0.00151115 0.00227204)
(0.56717 1.48741e-05 -0.000119347)
(0.567472 -0.027644 0.012776)
(0.532951 -0.00242536 0.000924778)
(0.535257 7.41778e-05 -0.00645612)
(0.561637 -0.000524998 0.000202548)
(0.563032 -0.000244132 0.000697773)
(0.563943 0.00123032 0.00238213)
(0.587293 0.0133551 0.0116448)
(0.563709 -3.4082e-05 7.7238e-05)
(0.563965 -0.00024458 0.000177644)
(0.200005 -0.199862 0.000343795)
(0.561595 -9.71895e-05 -0.000230582)
(0.558011 -0.00162586 1.76645e-05)
(0.199437 0.199208 -3.98211e-05)
(0.564302 -0.00146954 0.000764021)
(0.575475 0.0178226 0.00841465)
(0.572408 -0.00469069 0.00676154)
(0.565 7.82017e-05 -0.00135345)
(0.5613 -0.000276858 0.00152065)
(0.200482 -0.200414 -0.000922218)
(0.205311 -0.202249 0.000306481)
(0.57463 0.00513175 -0.00139432)
(0.565975 -0.000365625 -0.000493022)
(0.563242 -0.00104518 -0.00402286)
(0.202961 0.200382 -0.00178363)
(0.565222 -0.000608064 -0.000404599)
(0.200615 -0.199906 0.000295679)
(0.562055 -0.000429316 -0.000189448)
(0.563663 -0.000814011 -0.00100943)
(0.516717 -0.00741832 -0.00338827)
(0.580698 -0.00168472 0.00291809)
(0.200021 0.199741 -4.24187e-05)
(0.565386 -0.00104924 0.000624838)
(0.554045 -0.000117676 0.000332386)
(0.562404 -9.78742e-05 -0.00190813)
(0.566118 -0.000700813 -0.000179424)
(0.563981 0.00101074 -0.000925808)
(0.565147 -0.00125194 -0.000138322)
(0.562656 0.00165249 0.000103162)
(0.562259 0.000230889 2.71524e-06)
(0.580681 0.00139014 0.00229894)
(0.199644 -0.199555 0.000247634)
(0.546999 0.00041466 -0.00030162)
(0.561544 -0.000221151 0.00108933)
(0.57765 -0.00116213 0.00146464)
(0.564682 -0.00013587 -5.70883e-05)
(0.555144 -0.00145111 0.00160113)
(0.576999 8.40038e-05 0.000608313)
(0.200504 -0.19944 -0.000184884)
(0.560187 0.00514108 0.00197411)
(0.559707 0.007334 0.00688542)
(0.567503 -0.000215188 -0.000145276)
(0.563854 0.000631871 -0.000598961)
(0.565741 0.000158777 7.74696e-06)
(0.560563 -0.00508415 -5.39343e-05)
(0.198389 0.198596 -0.000301566)
(0.199873 0.1998 1.50787e-06)
(0.19896 0.199802 2.61455e-05)
(0.563777 0.0021453 0.00288638)
(0.554095 -0.00311076 -0.0080004)
(0.504345 -0.0018098 0.00080136)
(0.577112 0.0010317 0.000576077)
(0.566686 -0.00296203 0.000960586)
(0.562932 -0.00050822 0.000676006)
(0.563137 0.00069858 -6.77149e-05)
(0.560043 0.000138573 0.000583789)
(0.563474 -0.00014643 0.000179803)
(0.202953 0.198911 -0.000341475)
(0.55592 -0.00673003 -8.47919e-06)
(0.562453 -0.000570755 -0.000104593)
(0.560001 0.000884752 0.00130264)
(0.562511 -0.000575234 0.000595455)
(0.571973 0.000479607 0.000481737)
(0.567419 0.000773235 9.75236e-05)
(0.560638 0.00069761 -0.000739816)
(0.590291 -0.00136526 0.00683906)
(0.574144 0.000898087 0.000255363)
(0.55986 -0.000554622 -0.00130496)
(0.571357 0.000340083 -0.000111598)
(0.559641 0.000800329 0.00146224)
(0.562079 -1.76435e-05 -0.000154655)
(0.556083 0.00348751 0.00266719)
(0.56655 -0.000210031 -0.000458437)
(0.197299 0.196543 0.000418967)
(0.1988 0.19875 -9.41668e-05)
(0.57366 -0.00182613 0.000787184)
(0.557064 0.000336873 0.000304858)
(0.566082 7.31909e-05 0.000488216)
(0.199187 0.200506 0.000238081)
(0.20001 -0.199959 -0.000255661)
(0.56275 -0.000771445 -0.000140396)
(0.200485 -0.200706 -9.66736e-06)
(0.564084 0.000274669 -2.47581e-06)
(0.567271 -1.27246e-05 -1.54341e-05)
(0.565725 -0.000249019 0.000112538)
(0.570643 0.000210648 0.000268677)
(0.561089 -0.00428042 -0.00121625)
(0.197936 0.200093 0.0014855)
(0.568058 -0.000716476 5.33814e-05)
(0.564782 -0.00020283 -5.47668e-06)
(0.198153 0.198359 0.000185348)
(0.563496 0.000303481 0.000466945)
(0.19828 0.200199 0.000328854)
(0.197313 0.196193 9.50673e-05)
(0.566805 0.000234879 -0.000497037)
(0.56747 0.000658964 -0.000131394)
(0.564249 -6.66305e-05 4.87923e-05)
(0.199167 0.198899 -0.000638708)
(0.199052 0.199097 0.00012072)
(0.48658 -0.00042166 -0.000836372)
(0.565742 -0.000499246 0.000991086)
(0.566207 0.000111663 -0.00024803)
(0.567084 -0.000405248 -0.000366361)
(0.564103 0.000505623 -0.000729683)
(0.56597 0.000246973 -0.000460826)
(0.564003 0.0209166 -0.0146421)
(0.199761 -0.200313 -0.000235359)
(0.56414 -0.000505882 2.05769e-05)
(0.56083 2.15479e-05 0.000173222)
(0.19943 0.199453 -3.99382e-05)
(0.200328 0.19868 -0.000271664)
(0.557024 -0.000214295 0.000160995)
(0.5637 -0.000376243 5.52037e-05)
(0.198437 -0.198838 0.000602522)
(0.566659 -0.000300025 -7.80983e-05)
(0.564931 0.000194982 -0.00018503)
(0.564932 -3.75344e-05 -0.00108169)
(0.590517 0.0429732 -0.0160324)
(0.563177 0.000476519 8.1209e-05)
(0.568914 -0.000440469 -2.72691e-05)
(0.558966 0.0243829 -0.00301451)
(0.637461 0.129742 -0.0577799)
(0.566483 1.28666e-05 0.00011425)
(0.25564 0.159922 -0.00765602)
(0.561679 0.000567297 -0.000145033)
(0.200367 -0.199998 -5.53757e-06)
(0.5581 9.18193e-05 0.000966331)
(0.199712 -0.19953 0.000628982)
(0.565536 0.000148825 -0.000477136)
(0.563664 0.000434855 -0.000421646)
(0.199494 0.200297 -0.000230891)
(0.560794 0.000598818 0.000717374)
(0.565819 -0.000614259 -0.000279445)
(0.568217 -0.000301625 -0.000267987)
(0.199419 0.199112 4.8889e-05)
(0.198756 -0.199014 -0.00022981)
(0.561694 -0.000552132 0.000767782)
(0.163243 0.116073 0.0440556)
(0.567009 -0.00122485 -0.000653594)
(0.20042 -0.199736 0.000193893)
(0.582349 -0.00106606 0.00722827)
(0.56172 0.000459848 -0.000119308)
(0.56717 9.07631e-05 -0.000291752)
(0.200403 -0.198004 -0.00141029)
(0.568142 -0.000300555 -0.000172968)
(0.56551 -0.000988961 0.00059953)
(0.207183 0.195907 -0.00105891)
(0.568367 0.000180503 -0.00072393)
(0.566339 0.000267291 -0.00121363)
(0.567655 0.000312502 7.01107e-05)
(0.566569 -0.000303892 -9.42849e-05)
(0.568048 -6.36448e-05 -0.000197085)
(0.566132 -0.00043209 -0.000480453)
(0.200167 -0.20066 -0.000272683)
(0.192469 0.193548 0.000609799)
(0.560469 0.000412707 0.000974895)
(0.565512 0.00082477 0.00219741)
(0.56472 -5.87769e-05 -0.000361937)
(0.568097 0.000100086 -0.000358687)
(0.199523 0.199447 2.16049e-05)
(0.566058 -0.000204378 -3.7412e-05)
(0.565362 0.000123602 -0.00101048)
(0.570992 -0.000299933 0.00040458)
(0.566701 0.000209747 -0.000269981)
(0.568432 -4.89886e-05 -0.000363531)
(0.560417 0.000816629 0.000754208)
(0.565353 0.000522803 -0.00111361)
(0.56503 0.000518314 -0.000810964)
(0.198827 0.198663 -0.000342264)
(0.558639 0.000460102 -0.000136451)
(0.227812 -0.191957 -0.00759836)
(0.553872 -0.0035056 0.000487687)
(0.196659 0.191303 -0.00190575)
(0.198302 0.198717 -5.3479e-05)
(0.565705 -2.94556e-05 0.00014876)
(0.564828 1.14799e-05 0.000234431)
(0.199255 0.198913 -5.13891e-05)
(0.555861 -0.000485238 0.000464524)
(0.565508 -0.000626796 4.37023e-05)
(0.566357 -0.000484954 -0.000127119)
(0.566307 2.42469e-05 -0.000542055)
(0.1992 0.198407 0.000744396)
(0.564954 0.000280204 6.89745e-05)
(0.559993 -4.13602e-05 0.000664415)
(0.560545 5.99668e-05 0.00057946)
(0.567149 0.000209065 -0.000307753)
(0.562443 3.57835e-05 0.000387291)
(0.567027 -0.000104625 -0.000373286)
(0.565623 6.66797e-06 -0.000119257)
(0.565845 0.000167899 -0.000113841)
(0.562377 -7.72332e-05 0.000274672)
(0.573748 -0.000822753 0.000490423)
(0.157255 0.0631321 -0.071821)
(0.562821 -3.03071e-05 0.000369113)
(0.198256 0.198721 0.00026937)
(0.565511 0.000174689 0.000907842)
(0.566688 -0.000176076 -0.000689621)
(0.562937 0.00225234 -0.000388639)
(0.558046 -0.00216425 0.00389404)
(0.56443 -0.00102129 0.0021098)
(0.568202 0.000401976 6.57988e-05)
(0.567416 -9.67493e-05 -0.000809959)
(0.566902 -0.000262761 -0.000270881)
(0.567043 -0.000810638 -0.000895494)
(0.561137 -0.00110263 0.000859333)
(0.197992 0.199508 -0.00289811)
(0.566708 -0.000238543 0.00023379)
(0.565994 0.000338261 0.000330233)
(0.567891 -0.000307829 9.30827e-05)
(0.566019 -0.000101012 -0.000395488)
(0.566384 -0.000737515 -0.00062655)
(0.562658 -7.67317e-05 0.00038209)
(0.556426 0.00647059 -0.00109058)
(0.572265 0.000818934 0.000662289)
(0.558274 0.00181625 -0.000918427)
(0.562507 0.000321874 -0.000890361)
(0.199325 0.199332 8.52086e-05)
(0.200509 -0.199733 -3.2317e-06)
(0.566808 0.000176418 0.000171414)
(0.567761 0.000429289 0.00032098)
(0.562598 -0.000529305 0.000431121)
(0.558832 0.000711316 -0.00209837)
(0.561464 -0.000866295 6.11282e-05)
(0.198839 0.199071 -0.000327616)
(0.199095 0.199301 -0.000156032)
(0.566909 -0.000823621 -0.000889147)
(0.564121 -0.000434319 0.000152493)
(0.5656 -0.00028078 -0.000326648)
(0.565728 -1.77621e-05 -0.000196737)
(0.565 -0.00013079 -0.000729976)
(0.566434 -0.00037257 -0.000193788)
(0.220688 -0.153163 -0.0146334)
(0.568011 0.000179849 -2.88948e-05)
(0.561832 -0.00114559 0.000862236)
(0.55995 0.00051373 -0.000825467)
(0.556672 3.45356e-05 -0.00177767)
(0.568206 -0.000142219 -0.000105966)
(0.541682 0.00364021 -0.0128235)
(0.556968 0.0158916 -0.0107908)
(0.568002 0.000108079 3.49122e-05)
(0.562173 -0.000834427 0.000830887)
(0.560596 -0.000280044 0.000385843)
(0.563115 -0.00062446 0.000635384)
(0.573263 0.000264248 -0.0010224)
(0.199323 0.199349 4.77778e-06)
(0.55652 0.00231534 -0.00216196)
(0.567249 -5.69517e-05 -5.26207e-06)
(0.550598 -0.00211566 -0.00584805)
(0.56615 0.000122057 -0.000589431)
(0.566918 8.03769e-05 -0.000594947)
(0.19973 0.197602 -0.0008123)
(0.563209 -0.000959934 0.00411141)
(0.573329 -0.000456424 0.000104904)
(0.567118 -1.14831e-05 -0.000598)
(0.56114 0.000314762 0.00099363)
(0.553652 -0.000175075 -0.0016764)
(0.199309 0.20511 -0.00187079)
(0.19782 0.195524 -0.00103409)
(0.566088 0.000347602 0.000184139)
(0.566565 -0.00022076 -0.000158207)
(0.566539 -0.000106182 4.00614e-05)
(0.567784 -5.83074e-05 3.70695e-05)
(0.566362 0.000151693 3.02259e-06)
(0.565463 0.00056912 0.000452528)
(0.562495 -0.000642178 0.000807956)
(0.566458 0.00157261 -0.00272945)
(0.565638 -0.000236987 -0.00083812)
(0.566168 0.000866477 -0.00028323)
(0.564126 -0.00127566 0.00227408)
(0.561245 0.00117595 -0.000711874)
(0.562859 -0.00065053 0.000145034)
(0.566442 0.000200491 -0.000405744)
(0.19862 0.198615 0.000116019)
(0.56693 4.46726e-05 -0.000299378)
(0.200427 0.200579 -0.000125906)
(0.199606 0.199142 3.12038e-05)
(0.565825 0.000949875 -0.000462009)
(0.562748 8.59236e-05 0.000180509)
(0.566945 -0.000833421 0.000530177)
(0.200415 -0.200246 -3.59505e-05)
(0.564494 -2.11406e-05 0.000424227)
(0.560785 0.0010676 -0.00171916)
(0.567622 0.000530379 -0.00108446)
(0.199547 0.199646 9.24654e-05)
(0.565093 -0.000317601 -0.000184642)
(0.197084 0.198847 -0.000606138)
(0.563449 -0.000299188 0.00336219)
(0.198066 0.196978 -0.000120947)
(0.561757 -0.000291437 0.0010363)
(0.558433 -0.000241136 0.00106432)
(0.563694 -0.000147556 2.32432e-05)
(0.565584 0.000777459 -2.97635e-05)
(0.200338 -0.200254 0.000102829)
(0.198372 0.198348 -0.000169863)
(0.566873 0.00269352 -0.0030349)
(0.555299 -0.000245032 0.00186881)
(0.567471 8.24045e-05 -0.000856812)
(0.566227 7.41788e-05 -0.000354576)
(0.565184 4.71076e-05 -0.000748698)
(0.563979 0.00117031 -0.000344214)
(0.574612 0.00322644 -0.00128122)
(0.199741 0.199935 -0.000289411)
(0.582013 0.00707935 -0.000894044)
(0.565135 -0.000519475 -0.000742017)
(0.541592 0.063543 -0.0393102)
(0.198089 0.196663 0.00052976)
(0.567622 0.00126305 -0.00161155)
(0.546561 0.000439073 0.00147158)
(0.19941 0.197821 0.00170484)
(0.581604 0.00232912 0.00104527)
(0.567738 -0.000248448 -0.000529521)
(0.199678 -0.199564 -6.93103e-05)
(0.558477 3.20406e-06 0.00128001)
(0.596248 0.00831511 0.0014938)
(0.566721 -0.000490123 -0.000170091)
(0.561979 -0.00146409 0.00245785)
(0.57625 0.00515185 0.0274297)
(0.560364 0.000819914 -0.000468154)
(0.563964 -0.00013888 -0.00039859)
(0.560374 0.000104373 -0.00196651)
(0.539748 -0.000120157 -6.81626e-05)
(0.566898 -0.0230914 0.025888)
(0.564238 0.000310225 0.0007952)
(0.555483 -0.00110304 -0.000190775)
(0.566448 1.20346e-05 -0.000164378)
(0.575442 -0.00144813 0.000989055)
(0.567318 -3.60307e-05 7.70907e-05)
(0.567613 0.00218413 -0.00158354)
(0.199412 0.199488 2.5442e-05)
(0.566516 0.000727567 -0.000310231)
(0.580691 0.000469385 0.00147622)
(0.591063 0.00556425 0.00832002)
(0.19974 -0.19976 -7.56873e-05)
(0.562165 -0.00107917 0.00108829)
(0.569021 0.000424343 -0.000190789)
(0.197201 0.195144 0.000401536)
(0.557992 0.000405906 -7.5503e-05)
(0.562283 0.000169196 -0.000477832)
(0.566145 0.000407334 -0.000615974)
(0.568927 0.000379187 8.74414e-05)
(0.562048 -0.000548832 -0.000352692)
(0.565472 -0.000232809 0.000200986)
(0.198911 0.199226 -0.000233103)
(0.562283 -0.000272738 -0.00176113)
(0.570688 6.54313e-05 -0.000294806)
(0.198981 0.198968 0.000237181)
(0.200022 0.199453 -0.000105926)
(0.565786 0.000425893 0.000314799)
(0.199432 0.199778 -0.000112681)
(0.564456 -0.00018898 0.000391425)
(0.560182 -0.00405325 -0.000331519)
(0.566238 0.000269795 -0.000310094)
(0.56237 -0.000600801 -0.00228869)
(0.562331 5.83173e-06 -0.00182407)
(0.283883 -0.019629 0.0422837)
(0.199424 0.19967 0.000193338)
(0.571497 0.000330613 -1.39055e-05)
(0.566144 4.90773e-05 0.000153134)
(0.562956 0.000580896 -0.000467946)
(0.560644 0.00273018 -0.00192354)
(0.563181 -0.000138321 -0.000786347)
(0.199139 0.199304 -0.000233256)
(0.544474 -2.29654e-05 -0.000740107)
(0.560742 -0.000166211 -0.000921464)
(0.55599 0.0016554 0.00417926)
(0.56707 -0.000232135 0.00111325)
(0.563781 -0.00106391 -0.000320413)
(0.555191 0.0175294 -0.02074)
(0.56654 -0.00164633 5.47897e-05)
(0.551143 0.00576021 -0.0110294)
(0.198615 0.195271 -0.00119328)
(0.199633 0.199568 0.000184706)
(0.199096 0.1991 -5.06969e-05)
(0.566949 0.000302311 -0.000108514)
(0.565949 -0.000499554 -0.000507437)
(0.199124 0.198568 -9.78717e-05)
(0.564228 -0.000117094 0.00081688)
(0.557591 0.00377028 0.00296146)
(0.557159 -0.000749822 -0.000596791)
(0.501147 0.0706708 -0.0406531)
(0.559336 -0.000791824 -0.000490531)
(0.565778 0.000201498 0.000124935)
(0.199892 0.204331 0.000284879)
(0.556973 0.0130233 -0.0208363)
(0.19987 0.199844 0.000141342)
(0.198919 0.198381 0.000353774)
(0.56618 -0.000226025 -3.0237e-05)
(0.317951 0.243285 0.0367304)
(0.289912 -0.117975 -0.00417063)
(0.56266 -0.00132913 -0.000132319)
(0.194326 -0.197747 0.000260659)
(0.566253 0.000125278 -7.32491e-05)
(0.560726 -0.0025511 -0.00519987)
(0.569983 0.019324 -0.0138483)
(0.565765 -0.000195549 0.000359591)
(0.575712 0.0110209 -0.00372131)
(0.56384 0.000345907 0.000190359)
(0.570694 -0.0366167 -0.0106866)
(0.199031 0.198992 6.50564e-05)
(0.198893 0.198029 0.000209066)
(0.564641 -0.000986407 -5.0475e-05)
(0.563577 -0.000704168 0.00107411)
(0.566993 -0.00041955 0.000188651)
(0.19587 0.198987 -0.00154629)
(0.560185 0.0011499 8.34065e-06)
(0.565581 -0.000417946 0.000104988)
(0.565884 -6.83779e-05 -0.000266183)
(0.199254 0.19948 0.000837706)
(0.565642 0.000220722 -0.000592886)
(0.565817 -0.000243711 -0.000262639)
(0.510885 0.0571178 0.0378142)
(0.19912 0.19915 -0.000145237)
(0.645154 0.172851 -0.00642297)
(0.522235 0.0736188 -0.0535143)
(0.2002 -0.199484 4.3516e-05)
(0.199808 0.199085 0.000343328)
(0.198918 0.198531 5.48236e-05)
(0.20047 0.199847 0.000420816)
(0.200016 0.199731 -0.000783858)
(0.565851 0.000582117 -0.000109843)
(0.566383 -0.000147218 0.000212595)
(0.564943 0.000510562 0.000160553)
(0.199458 0.198449 0.000167063)
(0.56503 -0.000330122 -0.000142086)
(0.567494 3.32674e-05 0.000409756)
(0.199651 0.198945 0.000263964)
(0.579163 -0.00452128 0.00997438)