/*--------------------------------*- C++ -*----------------------------------*\
  =========                 |
  \\      /  F ield         | OpenFOAM: The Open Source CFD Toolbox
   \\    /   O peration     | Website:  https://openfoam.org
    \\  /    A nd           | Version:  10
     \\/     M anipulation  |
\*---------------------------------------------------------------------------*/
FoamFile
{
    format      ascii;
    class       surfaceScalarField;
    location    "2.7";
    object      phi;
}
// * * * * * * * * * * * * * * * * * * * * * * * * * * * * * * * * * * * * * //

dimensions      [0 3 -1 0 0 0 0];

internalField   nonuniform List<scalar> 
214403
(
-0.00515814
0.00395459
0.000218773
0.000984771
-0.00244557
-0.00827611
0.000671177
0.0100505
-0.00765195
4.08892e-05
-9.92892e-05
0.00771035
0.00678872
-0.00455811
-0.0113811
0.00915054
0.0091224
-0.0115174
0.00272245
-0.000327473
-0.00396845
0.004136
-4.34732e-05
-0.000124082
-0.000640613
-0.00121852
-0.00684474
0.00870387
-0.0124776
0.00712469
-0.00187358
0.00722651
-0.0174625
0.0123063
0.0124455
-0.00728936
0.0105004
0.001254
-0.0117879
3.34717e-05
0.00376559
-0.00745568
0.00155095
0.00213914
-0.00766123
0.00238381
0.003989
0.00128843
0.000353113
-0.00862595
0.0104074
-0.00213459
-0.00739758
0.00740727
-9.69175e-06
0.00143508
0.00887613
-0.0113915
0.00108026
-0.00882095
0.00734723
0.00222113
-0.000747412
-0.00893769
0.00869675
0.000240942
0.00294552
-3.35691e-05
-0.000711394
-0.00220056
0.011597
-0.00692908
-0.0154413
0.0107734
-5.83026e-05
-0.00237651
6.98273e-05
0.00236499
0.00489447
-0.00477779
-0.000116677
-0.00911356
-0.00315102
0.00313303
0.00913155
-0.00169999
0.0101255
-0.00815571
-0.000269773
0.0049632
0.000500554
0.0017176
-0.00718136
-0.00760626
-0.00369308
0.00984778
0.00145156
0.00704452
-0.00891827
5.56306e-05
0.00181812
0.00238653
-0.00206585
0.00783565
-0.00815634
0.00579186
0.00754553
-0.00909787
-0.00423952
0.00828226
-0.00518478
-0.000237924
-0.00285955
-0.00448682
0.00457457
-8.77479e-05
0.00179446
-0.00377351
0.0101482
-0.00816912
0.0102449
0.000493447
-0.00176893
-0.00896945
-0.00430145
-0.00441602
0.00452126
0.00419622
-0.000883316
-0.00499291
0.00441943
0.0014568
0.00325863
-0.00216332
-0.00702323
0.00592792
-0.00126005
0.00629782
-0.00227431
-0.00276346
0.0120162
-0.000326162
-0.0116901
-0.00507588
0.00997859
-0.00490271
0.000912801
-0.0110228
0.00640805
0.00370196
0.00180684
-0.000726873
0.00444878
-0.00552875
0.00421316
-3.75065e-05
-0.00417566
0.00762115
-0.000171123
0.00135531
-0.00880533
-0.00959493
0.00119516
0.0102066
0.000678475
0.000663481
0.00648018
-0.00782214
-0.00312042
-0.0201896
0.0196129
0.00369711
0.00438003
0.000793774
0.000988383
-0.00616219
0.00314823
0.00239176
-0.00771663
0.00217665
0.00984375
0.005877
-0.0107575
0.000894585
0.00843667
-0.00171011
0.00140045
-0.00522299
-0.00308336
0.0069059
0.00238063
0.00365444
0.00108638
-0.00712144
0.00137641
-0.00103587
-0.0031617
0.00282115
0.00526055
-0.00951705
0.00663713
0.00888862
-0.00837804
-0.00284549
0.00233491
0.00815052
-0.00148952
-0.00632165
0.00856547
-0.000344632
-0.00189919
0.00651751
-0.00835606
0.00011004
0.00172851
-0.00612224
0.000407622
0.00978085
-0.00406623
-0.0114489
-0.0108825
0.00907747
0.0132539
-0.00606452
0.0061008
0.00119195
-0.00122823
0.000949908
-0.0077413
-0.00656337
-0.000135584
0.00341097
0.00328799
-0.0100541
0.00431875
0.00645898
-0.000723668
0.0117815
-0.00949601
0.000587038
-0.00287255
0.000537475
0.000205207
-0.00764964
0.00690696
0.000434464
-0.00223228
0.0109986
-0.00920075
-0.0265118
0.00296906
0.00292176
0.020621
-0.0023467
0.00699513
-0.00221983
-0.0024286
0.0035304
-0.00185351
-0.00763644
0.00595955
0.000866697
0.00560913
-0.00708773
0.000611907
-0.000101783
0.00640437
0.00219967
-0.00850226
-0.0012945
-0.000210697
-0.0027565
0.0042617
-0.00688784
0.00752295
-0.000281279
-0.000353836
0.000269477
-0.00679315
-0.00486825
0.00431458
0.0013096
-0.000755932
-0.0123332
-0.000782559
0.00599739
0.00711838
-0.00378183
-0.00160944
0.0032129
0.00217837
0.00560419
-0.0187939
0.00258022
0.0106095
-0.00290711
0.00584381
-0.00319309
0.000256389
0.00413981
-0.00322393
0.000409625
-0.00132551
0.000102352
-0.00796226
0.00785991
3.05861e-05
0.00641921
-0.0064498
0.00560759
-0.00109477
0.000738072
-0.00525089
-0.0034792
0.00496573
0.00164566
-0.00313219
-0.0024132
0.0103471
-0.00248978
-0.00544408
0.00495798
-0.00850801
-0.000289242
0.00383927
0.00552524
0.00580673
-0.011332
0.00812965
-0.00914323
0.00235616
-0.00134258
0.000782609
-0.00146689
0.0106588
-0.00997448
0.000332254
-0.00170546
0.00761097
-0.00623777
0.00189086
0.0160631
0.00456871
-0.0225227
-0.0139174
0.0122263
0.00794982
-0.0062588
0.000648153
0.005042
-0.00675822
0.00106806
0.00664313
0.00735598
-0.00239201
-0.0116071
0.0120953
-0.00736277
-0.000211911
-0.00452059
0.000541045
-0.0015899
-0.00499521
0.00604407
-0.00505055
2.70049e-05
0.00502355
0.00738081
0.000247681
0.000501165
0.00923161
0.000785903
-0.0141027
0.00408516
-0.00746393
0.00162011
0.00131597
0.00452785
-0.00477125
0.001184
0.000586811
0.00300044
0.00111881
0.000819155
-0.00965123
0.00771327
-0.00196651
-0.0114333
0.00729054
0.00610925
0.00462146
-0.00548217
-0.00356848
0.00442919
0.00741217
-4.61934e-05
-0.00741196
4.59838e-05
0.00567118
-0.00800857
-0.00275438
0.00509177
0.01468
-0.00444635
-0.00228761
-0.00794602
0.00817716
-1.58436e-05
-0.00749836
-0.000662955
-0.00440604
0.00516872
0.0107041
-0.0114668
0.00917091
-0.00318483
-0.00882739
0.00284131
0.00173451
-0.00254189
0.0110301
-0.0102227
-0.0118625
0.0107866
0.0102598
-0.00918386
0.00055572
-0.00955158
0.00367825
0.00531761
0.012037
-0.000624013
-0.000277917
-0.011135
0.00846159
-0.00164256
0.00163263
-0.00845166
-0.0104653
-0.00957155
0.0113151
0.0087218
-0.00186185
0.00533854
0.00145017
-0.00492686
-0.00404501
0.000220606
0.00783954
-0.00401513
-0.000893187
0.0102147
-0.00948774
0.000166207
-0.00909288
0.00844355
0.00164274
-0.000993417
-0.000300077
-0.00529811
0.0126427
0.00162867
-0.00540204
-0.00397227
0.00774563
-0.00427939
5.51466e-05
0.00422425
0.00131279
0.00596931
-0.00552248
-0.00175961
0.00969148
-0.00559004
-0.00149503
-0.00260641
0.00010595
-0.00296592
0.00285997
-0.0053909
-0.00145864
0.00204053
0.004809
0.000609371
0.00338585
-0.00754263
0.00354742
0.012089
-0.00109259
0.00472003
-0.0157165
0.000843015
-0.00111735
-0.0143059
0.0145803
0.000903014
-0.00412932
-0.00539127
0.00861758
0.000337127
0.0074414
-0.000397723
2.81049e-05
-0.00447608
0.00444798
0.009
-0.00335499
-0.00401634
-0.00544692
0.00453911
-0.00448309
0.00988862
-0.00823952
-0.0010113
-0.000637804
0.000991934
-0.00468474
0.00204976
0.00164304
-0.00795415
-0.00243131
0.00163336
0.00875209
0.00672742
-0.0108865
0.00720364
-0.0030446
-0.000279586
0.00993883
-0.0099426
0.000283357
-2.91312e-07
0.00966768
-0.00958525
-8.21412e-05
-0.0124982
0.00999514
-0.00802951
0.0105325
0.0104239
-0.0101054
-0.000318439
-0.00986758
0.0131712
-0.00236198
-0.000941664
-0.0087162
0.00211652
-0.000672286
0.00727197
-0.0142046
0.001069
0.00914584
0.00398978
0.00250748
-0.0034253
0.00190976
-0.00358585
0.00407418
0.00655745
-0.00704578
-0.00375316
-0.0016862
0.00214842
0.00329094
-0.00511028
0.00334789
-0.00642626
0.00818866
0.00153951
0.000126989
-0.0115341
-0.00519123
0.00517934
1.18818e-05
0.00574585
-0.00553916
-0.00020669
-0.00838426
-0.000547116
-0.00221642
0.00206795
-0.0110821
0.012871
-0.00385682
0.00493449
0.00843237
-0.0107495
-0.00261737
0.00937406
-0.0102053
0.000295064
0.000536212
0.00521369
0.00132939
-0.00536699
-0.00117609
-0.00801674
-0.000425288
0.01051
0.00470703
-0.000339043
-0.00573795
0.00136997
0.00530518
-0.00453838
0.00522884
-0.00599564
-0.00892743
0.00169593
0.012166
-0.00307922
-0.00421563
0.014058
-0.00676318
-0.00436308
-0.00479943
0.00114577
0.00128237
0.0034601
-0.00910555
-0.00640064
-0.000522244
0.0102945
-0.00337163
0.000954564
0.00157943
0.00548839
-0.00802238
-0.00289734
0.00708935
-0.00419201
0.00229052
-0.0111704
0.00408047
0.00662625
0.00466281
-0.0100067
-0.00927954
0.000114743
0.0115585
-0.00239366
0.00162307
0.00139324
0.00435481
-0.00737112
0.00677564
-0.00680115
2.55064e-05
0.00234976
-0.000888465
0.00788356
-0.00934485
0.00818765
-0.00257938
0.00392391
-0.00953219
0.0157206
-0.00507693
0.0117151
-0.0223587
0.00248323
0.00461427
-0.00191695
-0.00518056
-0.00710514
0.00291989
0.00372376
0.000461488
0.00509283
-0.00383743
-0.000108571
-0.00114683
-0.00319884
-0.00403218
0.0117667
-0.00453571
-0.00570089
0.00742184
0.00294632
-0.00466726
0.00860611
-0.000468848
-0.00283208
-0.0129309
0.00853084
-0.000710181
-0.0123557
0.0114234
0.00530679
-0.00437447
0.00788584
-0.00889052
-0.00127079
0.00227548
0.00437072
-0.00795334
-0.00412808
-0.00465482
-0.00427827
0.00241423
0.00651886
-0.00667575
0.00209232
0.00662168
-0.00203826
0.00783627
-0.00745344
-0.0051482
0.00476537
4.98811e-05
-6.81931e-05
-0.0073256
0.00734391
0.00020225
-0.00662261
-0.000238787
0.00665914
-0.00184902
-0.010957
0.00172693
-0.0063505
0.00570841
-0.00108485
-0.00425869
-0.0017949
-0.000622159
-9.75722e-05
0.0104899
0.000108083
-0.0252839
0.0177964
0.0128957
-0.00540814
-0.00757603
0.000515533
0.000250847
0.00680965
-0.00150666
0.023734
-0.0279532
0.00572593
0.00120959
0.00186775
-0.00418952
0.00111219
-0.01626
0.00875558
0.00116352
0.00634088
-0.000176392
-0.010673
-0.0015505
0.0123999
-0.0043327
0.0160475
-0.0111379
-0.000576841
0.00722793
0.0104764
-0.00970255
-0.00800176
-0.0084424
0.00805527
0.00997631
-0.00958918
0.00340505
0.00475495
-0.00592463
-0.00223537
0.00335747
-0.00224578
-0.00537037
-0.0170283
-0.000666863
0.0138841
0.00381102
0.00509921
0.000800877
-0.0029802
0.00515894
0.00694572
-0.00639874
-0.00570593
-0.0085145
0.00190052
0.00829237
-0.00167839
0.000992632
0.00274392
0.00943466
-0.0100105
0.00984889
0.000952785
-0.000791156
0.00623817
0.00490742
-0.00441414
-0.00017213
-0.00124553
0.00583181
-0.00656722
-0.00135098
0.00366683
-0.0125163
0.00529666
0.0035528
0.000361426
0.00678518
-0.00750454
0.000357941
-0.00258227
0.000500866
-0.00240207
0.00448348
0.0105799
-0.00755963
0.00033721
-0.00603182
-0.00473951
0.00637896
0.00439236
0.0223755
-0.0239941
0.00789674
-0.00627807
-0.00442349
0.00549622
0.00221192
-0.00328465
-0.0106063
0.0045659
0.00922106
-0.00318066
-0.0042826
0.00621256
0.0079934
-0.00992336
0.0119415
-0.00457368
-0.00791483
0.000547043
0.000206494
-0.00288444
0.0070098
-0.00433186
-0.00121715
0.00119858
-0.00926097
0.00865172
0.00277528
-0.00926408
-0.00216292
0.0109053
-0.00894534
-0.00238522
0.0022355
0.00329696
-0.0078445
0.00231204
-0.00457861
-0.00830705
0.00741998
0.00546569
-0.00137318
-0.00358827
-0.00107037
0.00438156
-0.00464961
0.010019
-0.00975097
0.0010712
-0.012116
0.0110448
0.00411782
-0.00541486
0.00353254
0.00232527
0.00135209
0.00190296
-0.00558032
-0.000254826
-0.0103163
0.0105711
-0.0057397
0.000762728
-0.00186357
0.00684055
-0.000718423
0.0080253
-0.00728037
-2.65151e-05
-0.00537289
-0.00288829
0.00313287
0.00512831
-0.0019722
-0.00477386
-0.00437584
-0.00643321
0.00537829
0.00543076
0.000243415
-0.00659145
0.0111325
-0.0045751
-0.000593656
-0.00596375
0.00616435
-0.000624295
-0.00448985
-0.0010502
-0.000909276
0.00831099
-0.0104084
0.00300671
0.00536804
0.000207394
0.00261261
-0.00818804
-0.000201106
-0.00441453
0.00213459
0.00248105
-0.00311579
0.00403836
0.0077445
-0.00866706
-0.0107913
-0.00279966
-0.00302469
0.00994216
-0.0100277
0.00026419
0.00312292
0.00664057
0.000919339
-0.00336551
-0.00586845
0.00831462
-0.00440325
-0.00859668
0.00216988
0.0108301
-0.00390161
-0.00431091
0.00448733
0.00372518
-0.010119
0.0097437
0.0103155
-0.00994017
-0.00140206
-0.00246067
-0.00741564
0.0112784
-0.010181
0.000992344
0.010352
-0.00116336
-0.00178066
0.0046861
-0.00290544
-0.00411118
0.00760044
-0.00572125
0.00223199
-0.000155334
0.0132256
-0.00495932
-0.00811097
-0.0048386
-0.00238201
0.00970175
-0.00248114
0.00151055
-0.00396591
0.00896058
-0.00650521
0.000429642
0.00608404
-0.00106575
-2.50461e-06
-0.00961074
0.00960881
4.43594e-06
0.0113875
-0.002021
-0.016646
0.00727955
-0.0105195
-0.00102669
0.0131309
-0.00158469
-0.00570325
0.00862018
0.000704786
-0.00362172
0.005185
-0.00514991
-3.50883e-05
-0.00593436
0.000595479
-0.00507544
0.0104143
-0.00851882
0.0117479
-0.00240599
-0.000823113
0.00531217
-0.00221247
-0.00640524
0.00330554
-0.0102369
0.0102939
-5.70086e-05
0.00848561
-0.0123147
0.000986118
0.00284298
-0.0094511
-0.00259936
0.0161967
-0.00414624
0.00714215
-0.000311677
-0.00148689
-0.00534358
-0.00401497
-0.00680749
0.015204
-0.000698133
-0.00996556
0.00601408
0.0157492
-0.0175708
-0.00167105
0.00349264
0.0043662
0.00208698
-0.00483011
-0.00474028
0.0049222
-0.000181916
-0.00177274
0.00995781
-0.000651893
-0.00753317
-0.00219935
0.00261028
0.00880096
-0.00921189
0.00590964
0.0139283
-0.00805982
-0.0117781
0.0101714
-0.0121965
0.00387774
-0.00185258
0.00888158
9.63518e-05
-0.00897793
0.000152857
0.00866544
-0.0088183
0.0098696
-0.0119192
0.0105352
8.23854e-05
-6.50551e-05
0.00809897
-0.0081163
0.000150523
0.014126
-0.0140814
-0.000195214
-0.00117108
-0.00349091
-0.00712516
0.0117871
-0.00440551
-0.00259704
0.000873376
0.00835557
-0.0144836
0.00525469
-0.00692206
-0.00181387
0.00742021
0.00131572
-0.00852977
0.00940171
-0.00250596
0.00163401
0.0012902
0.00671192
-0.00228415
-0.00571797
-0.00316531
0.000737856
0.00546853
-0.00304108
-1.08822e-05
0.00256005
-0.00324798
0.000698818
-0.00352694
0.00864359
-0.00501265
-0.000103998
0.00253391
-0.00807862
-0.00469222
6.41828e-05
-0.00752527
0.00746109
-0.00288685
-0.00276842
0.0012828
0.00437247
0.00419019
-0.00241706
-0.00177313
0.0104094
-0.0103672
-0.00209336
0.00205121
-0.000989468
-0.00640971
0.00593713
0.00146205
-2.80559e-05
3.48604e-05
0.00582506
-0.00583187
0.00290742
-0.00239358
-0.00924579
0.00873195
0.00671358
-0.000175413
-0.00653816
-0.00979735
-0.00635599
0.00944353
0.00670981
0.00556167
0.0086459
-0.0149057
0.0053976
-0.00192641
0.00303399
-0.00650518
-0.00219545
0.00220502
-0.012225
0.0122154
0.00327958
-0.00648077
-0.00628803
0.00948923
-0.000673607
-0.0014976
0.00701994
-0.00484874
0.00488532
-0.00600236
0.00217578
-0.00105875
0.00277187
-0.00459744
-0.00444261
0.00626818
-0.00861196
0.00968481
-0.00255401
0.00148116
0.0100727
0.0129495
-0.0142641
-0.00875815
-0.00780512
0.00777336
3.17534e-05
-0.00091722
0.00912071
-0.0113506
0.0031471
0.000324428
-0.000532451
-0.00887935
0.00908738
0.00847744
0.000355713
-0.00975381
0.000920654
-0.00375536
-0.00634391
0.00797881
0.00212046
-0.0090657
0.0128367
-0.0045466
0.00077559
-0.00360278
-0.0044349
0.00263565
-0.000517613
-0.000102829
-0.00616692
0.00678736
-0.0202684
9.08915e-05
0.00176037
0.0184171
0.000803115
-0.00515457
-0.00266833
0.00701979
0.0126524
-0.00105486
-0.00409962
-0.00749795
-0.00222828
-0.00489156
0.000913774
0.00620607
0.00368764
-9.08467e-06
-0.00367856
0.00605133
0.0031784
-0.00201788
-0.00721185
0.00462375
-0.00365016
0.00905539
-0.010029
0.000277158
0.00949741
-0.00313114
-0.00664343
0.00227614
0.00329169
0.00708461
-0.00452534
0.000334701
0.00419064
-0.00591412
0.000852701
0.0015627
0.000986969
-0.00813719
0.00558752
-0.00767873
0.0112476
0.00337801
0.0115705
-0.00243052
-0.012518
-0.00751385
0.00734799
-0.0116474
0.0118132
-0.00110752
-0.00556067
0.00194308
0.00472512
-0.00621104
0.0117363
0.00353476
-0.00410598
0.000922244
-0.000351016
-0.00382826
-0.0121274
0.0037823
0.0121734
0.00788226
-0.00785996
-9.75194e-05
7.5227e-05
0.0064977
-0.00762992
0.00162064
-0.000488427
0.00163889
0.00646531
-0.0115223
0.0034181
3.04684e-05
0.00554743
-0.0055779
0.00360882
-0.00923423
0.0072643
-0.00351545
0.00944714
0.00799995
-0.0139316
0.0026468
-0.00275468
-0.0126967
0.0128046
-0.0038164
0.00631237
-0.0127428
0.0102468
-0.00906441
0.00720589
0.00942226
-0.00756373
-0.00564999
0.00774109
-0.00500262
0.00291152
-0.00123178
0.00537863
0.000874287
-0.00502114
0.00263056
-0.00383921
0.00395882
-0.00275017
0.0051512
0.00191585
0.00169354
-0.00876058
0.0140946
-0.00954727
-0.000610867
-0.00393648
1.43637e-05
-0.00679515
0.00678079
0.00433649
-0.0063404
-0.0194728
0.0214767
-0.000888877
-0.00936761
-0.00282151
0.013078
-0.000568125
-0.0042954
0.00486353
0.00131547
0.00623238
-0.00102483
-0.00652302
-0.00173086
-0.00625788
0.00504633
0.00294241
0.00501294
-0.00420148
-0.00737484
0.0123452
-0.00962528
0.00282086
0.00298904
-0.0058099
0.00949741
2.69393e-05
-0.00108631
-0.00843804
-0.00185328
-0.00315422
0.00500751
0.00332886
0.00221313
0.0187606
-0.0225751
-0.00793041
0.0117449
0.00285712
0.00609553
-0.00465938
-0.00429327
-0.00649088
0.0125194
0.00823497
-0.0142635
0.00756156
0.00261781
-0.000996819
-0.00918255
0.0121661
-0.00811691
0.00523163
-0.00928082
-0.00703852
0.00323161
-0.008976
0.0127829
-0.0112306
0.0200332
-0.00783318
-0.000969407
-0.00032444
-0.00472954
-0.00651372
0.0115677
0.00904458
0.00375424
-0.0105859
-0.00221288
0.00501134
-0.013341
0.00839071
-6.1017e-05
-0.0113852
-0.000438732
0.00743769
0.00438628
-0.00232261
0.00601348
0.00260222
-0.0062931
-0.00142615
0.00572317
0.0046306
-0.00892762
-0.0123207
0.00631444
-0.000546652
0.00655292
0.00106372
-0.00321356
0.00640446
-0.00425461
0.00520107
-0.00261421
0.00185634
-0.00444319
0.00495605
0.000968924
0.000490138
-0.00641511
-0.00717892
0.00770542
0.00285578
-0.00338228
-0.00172147
0.00916853
0.000166853
-0.00761392
0.00744259
-0.00436623
-0.00286585
-0.000210506
0.00635443
4.21728e-05
-0.0063966
0.00464129
0.00359328
-0.000816761
-0.00741781
0.00217854
0.00568726
0.00480813
-0.0126739
4.66558e-05
-0.0103861
0.0103394
-0.00549486
0.0210063
-0.00308592
-0.0124255
-8.1888e-05
0.00775832
-0.00767643
-0.000515883
-0.00558379
0.00100235
0.00509733
-0.0102512
0.00522809
0.00400007
0.00102305
0.00208854
0.00167817
-0.0119266
0.00815984
0.00604064
0.00953619
-0.00356292
-0.0120139
0.00919253
-0.00314036
-0.0087966
0.00274443
-0.0114173
0.00655357
0.0175747
-0.012711
-2.86923e-05
0.00451038
-0.0045107
2.90089e-05
-0.00465859
0.00461141
4.71813e-05
-0.0115446
0.000162673
0.00489105
0.00132746
0.00279801
0.00769904
-0.0118245
0.00602106
-0.00717049
0.00462849
-0.00347907
-0.00597513
0.00522493
-0.000193392
0.000943595
-0.0012041
-0.00978906
0.0124745
-0.00148135
-0.00440594
0.0021182
0.00697495
-0.00468721
0.00748556
-0.00287995
0.00108297
-0.00568858
-0.00489576
-0.000851968
0.00572891
1.88182e-05
-0.000871604
-4.46325e-05
0.00827993
-0.00736369
0.000993664
-0.000851915
0.00802847
-0.00817022
-0.00730125
0.0102052
-0.0107172
0.0078132
3.40527e-05
-0.00914424
0.00911019
-0.00326888
0.000283588
0.00828838
-0.00530309
-0.00620122
0.00725272
-0.00989388
0.00884238
-0.00637539
0.00048667
0.00191646
-0.00296371
0.00806907
0.000456647
-0.00556201
-0.002142
0.000300651
-0.00360557
-0.00316129
-0.0103397
0.0103787
0.00312231
-0.00461342
-0.000546917
-0.00116281
0.00632315
-0.0157178
0.00529871
0.00157968
0.00883937
-0.00495793
0.0114646
-0.00572483
-0.000781829
0.00342906
0.0013603
-0.00693137
0.00672016
0.00679109
-0.0135113
0.000966714
0.0150748
-0.00349191
-0.0125496
-0.000193798
-0.000276254
-0.00679766
0.00726771
-0.00724244
0.0118762
-0.0047913
0.000157581
0.00680946
-0.00427426
-0.00617068
0.00363548
0.00175202
-0.000235352
0.00214508
0.0106225
0.00293192
-0.015287
0.00173254
-0.00750593
-0.000931809
0.00244193
0.00599581
0.00271992
-0.00305163
-0.0041032
0.0126064
-0.00848999
0.00664646
-0.0107629
-0.00142695
0.00817071
-0.0141324
0.00738863
0.00480189
-0.00609359
-0.000615577
0.00190728
-0.00538843
-0.00187627
-0.000179719
0.00744442
-0.00398844
-0.00373438
0.00772282
0.00100344
-0.0108477
0.00960278
0.000241504
0.00406563
-0.00396127
-0.0040928
-0.00695559
0.00879195
-0.0016622
-0.000174155
0.00969419
0.00266013
-0.0104243
-0.00193005
-0.00378483
-0.00556321
-0.00065844
0.0100065
0.00634344
-0.00193121
0.00735571
-0.0117679
-0.00694664
-0.000354613
-0.008064
0.00432962
0.00105313
-0.00914804
0.00292653
0.00516837
0.00271552
-0.00973863
0.00533058
0.00169253
0.00149379
0.000364441
-0.00745298
0.00559475
0.00109438
0.0046982
-0.000326322
0.00831444
-0.00164255
-0.00634557
-0.00324685
-0.000357949
-0.00303879
0.00664359
-0.0019313
-0.00260106
0.0049731
-0.000440746
-0.00751756
-8.86997e-05
-0.0124885
0.00450197
0.00656034
0.0181079
-0.000181825
0.00250852
-0.0204346
-0.00815074
0.0125515
0.00257989
-0.00698069
-0.00229392
0.00122834
0.00779834
-0.00673276
0.00093631
0.00265366
-0.00205295
-0.00153702
-0.0136448
-0.00283312
0.0117769
0.00470106
0.000306872
0.00589172
-0.00118565
0.000200095
0.00290828
-0.00911497
0.0060066
-0.00556578
-1.92624e-05
0.00205352
0.00353152
-0.007899
0.0097631
-0.00155722
0.00445424
-0.00401442
-0.000439817
-0.00654597
0.000879678
-0.00505583
0.0107221
-0.00297005
0.0044723
-0.0034495
0.00194725
-0.00640069
0.00720912
-0.00297819
0.00216976
0.00281611
-0.000468301
-0.00654536
0.00419756
-0.00286367
0.0179476
-0.0241497
-0.00251534
-0.00175567
0.00171902
0.00255199
0.0083475
-0.0130489
-0.000588563
0.00528993
-0.00347444
0.00259214
0.00447008
-0.00358779
-0.0010516
0.00550089
-0.00150721
-0.00294208
-0.00617884
0.00136918
0.00144641
0.00336325
-0.00356444
0.000304669
0.00325977
0.00794657
-0.00378191
-0.00403304
-0.000131619
0.000606207
0.0041055
-0.00623483
0.00152312
-0.0042533
-0.00515276
0.00525538
0.00415068
-0.00232764
0.00592829
-0.00504633
0.00144568
0.00205576
-0.00389081
0.002681
-0.000845958
0.00758386
0.000185235
-0.00776909
0.00647781
-0.00800797
0.00397538
-0.00244522
-0.0102277
-0.000269031
0.0104967
0.00414312
-0.0034388
0.000805696
-0.00151001
-0.000316835
0.00727388
-0.00795599
0.000998949
-0.00358384
0.00448696
0.00115263
-0.00412034
0.0088109
0.00814614
-0.00681464
0.00671654
9.80974e-05
0.000140151
-0.0107264
0.0105862
0.0146025
0.00173561
-0.00307549
-0.0132626
0.00307649
-0.0119776
-0.00146312
0.0103642
0.00228811
0.00270741
0.00156026
-0.00655578
-0.00410255
-0.00407001
4.60584e-05
0.00812649
-0.00196453
0.00267224
-0.00481026
-0.00883827
0.00161721
0.0115919
-0.00437079
-0.0175926
0.012878
0.0056761
-0.000961492
0.00775801
2.16248e-05
-0.00777963
-0.0045506
-0.00612972
0.00396272
0.0067176
-0.0043916
-0.00633109
0.00188442
-0.006403
0.00347786
0.00401953
0.00259978
-0.00340822
-0.0062196
0.00702804
-0.00434898
-2.39375e-07
0.00434922
-0.0102454
0.00417812
0.00423549
0.00183181
0.00255891
-0.00686839
-0.00209352
0.00863456
-0.00275869
-0.000200966
-0.0056749
-0.00593351
0.00985111
0.00577817
-0.00969577
-0.00179252
-0.00374275
0.00144096
0.00409432
-0.00246797
-0.00198486
0.00445283
-0.00431981
-0.00910292
-0.00416984
0.00209438
2.75199e-05
0.00422143
-0.00634333
0.00837647
-0.00607944
-0.00879714
0.00650012
-0.00311082
0.00112195
0.00625638
-0.00426751
0.00583161
-0.00410686
-0.00057531
-0.00114944
-0.00668484
0.00109097
0.00522038
0.000373488
-0.00413036
0.0094771
-0.0103173
0.00402544
0.000296316
0.00599557
0.00982804
-0.0078658
-0.00617249
0.00421025
-0.00774516
0.00164927
0.0144724
-0.00747237
-0.00494641
0.00805017
0.0043686
-0.000870981
0.00778734
-0.00295763
-0.00395873
0.000460638
-0.00487189
-0.00322342
0.00763466
0.00886904
-0.00585194
-0.000359431
-0.00265767
0.00276699
0.00205317
-0.00678469
-0.0018662
0.00211334
0.00520287
-0.00545002
-0.00157386
0.0081325
-0.0100327
0.00347404
-0.00501516
0.0012109
0.00121307
0.00259119
-0.0107872
0.0109245
-0.000137218
0.00791714
-0.00782914
-8.79939e-05
0.00314802
-0.0119806
-0.0046236
0.0134562
0.00258421
0.00488631
0.00116404
-0.000120333
0.00432935
-0.00420902
0.00758952
0.00672624
-0.0143158
-0.00771835
0.00471251
0.00333034
-0.000324498
-0.00432895
0.00142856
0.00351818
-0.000617797
-0.013069
0.00612077
0.0071713
-0.000223084
-0.00419461
-0.00467995
0.00452558
0.00695713
-0.00113384
-0.00443163
-0.00139166
-0.00712452
0.00769845
-0.00470429
0.00126885
-0.00809468
-0.000415314
0.00724115
-1.26682e-05
-0.00407133
0.004084
0.0195185
0.000108474
0.0021216
-0.0217485
-0.000749407
-0.00148176
-0.0108706
0.0131018
0.00337941
-0.00457982
-0.00211339
0.0033138
0.0013431
0.0101651
-0.004129
-0.00737922
0.0109787
-0.0109576
1.46995e-05
-3.58209e-05
-0.00619637
-0.00558338
0.00872984
0.00304991
0.00360569
0.00271013
-0.00714591
0.000830091
3.60008e-05
0.00671818
-0.00684919
9.50036e-05
-0.00917288
0.00296313
0.00742774
-0.00121799
0.00701111
0.00423644
-0.00709558
-0.00415197
0.000150928
-0.00631129
0.00312752
-0.00162287
0.00947407
-0.00505572
-0.000656091
-0.00078644
0.00649825
-0.00858085
0.000398486
0.00818236
0.0125
0.00537975
-0.00402939
-0.0138503
-0.00814989
0.000162026
0.00813879
-0.000739589
-0.00191685
-0.00489177
0.0075482
-0.000915179
-0.000998679
-0.00264988
0.00456374
0.00206193
-0.010476
0.00791318
0.000500868
0.00674671
-0.00102375
-0.00658906
0.0008661
-0.00799893
0.00165202
0.000628788
0.00571812
-0.00304484
0.00202137
-0.00423957
0.00526303
0.00172824
0.00113654
-0.0102355
0.00737072
0.000339884
-0.0070028
-0.00046175
0.00712466
0.00687499
0.000941204
-0.000156093
-0.0076601
-0.00825301
0.00191089
0.00746093
-0.00585581
-0.00774064
0.0135965
0.0115021
-0.00585348
0.00249329
-0.00814186
0.000910982
0.00639088
-0.00392245
-0.00933748
0.00172587
0.00331452
0.00429709
0.0115411
-0.0118852
0.000344149
-0.00709255
-0.00240971
0.00496671
0.00453555
-0.00935217
-0.00725194
0.00487163
0.0117325
0.00926377
-0.00967226
-0.00118678
0.00159528
-0.00135369
0.00451084
-0.00355502
0.000397869
-0.0115962
0.00380434
0.00265384
0.00513807
-0.0173457
0.0214541
0.00361412
-0.00772249
0.00778528
-0.0168225
-0.000873404
0.00991059
-0.00693169
0.00883455
-0.0163116
0.0144087
-0.00716466
0.0157452
0.00156916
-0.0101497
0.000634671
0.00748534
-0.00178445
-0.00633556
0.0113432
-0.0085204
-0.000272766
-0.00255004
-0.00198605
-0.00190686
0.00291731
0.000975598
-0.00536972
-0.0111689
0.00959541
0.00694317
-0.00761694
0.0101382
0.00882193
0.00638729
-0.00469601
-0.00585301
0.00416173
0.00227813
-0.00295051
-0.00130117
0.00197355
0.00504307
-0.00499547
-0.00663437
0.00658678
-0.00204453
0.00586463
-0.000424655
-0.00339545
-0.00812359
-0.00134433
0.0101026
-0.0061306
-0.00151028
0.00758058
6.03035e-05
0.0025967
-0.00579777
0.00320107
0.00203726
-0.00267619
0.00994746
-0.00930853
0.00828629
-0.0116835
0.00173995
0.00165725
0.00506742
-0.005471
0.00040358
-0.00781027
0.000193323
0.00697854
-0.0026772
-0.00673764
0.0024363
0.00218766
0.00175097
0.00764689
-0.0115855
0.0049757
-0.00540328
0.00042758
-5.7551e-05
0.0060578
-0.00684882
0.000848565
-0.0086121
-0.000804623
0.011454
-0.00369728
-0.000626117
0.00085364
0.00346975
0.000510622
-0.0042151
0.00311272
0.000591757
0.00693174
-0.0066326
-0.00165283
0.000824496
0.011804
-0.00745575
-0.00517274
-0.00397921
0.00838438
-0.00440517
-0.0107527
0.00411023
-0.00249348
0.009136
0.00836155
-0.00756332
-0.0123945
-0.00422108
-0.00505012
0.0173488
-0.00807758
-0.0121929
0.00773446
0.0110753
-0.00661683
-0.000210554
-0.0103194
0.0105299
0.0163532
3.225e-05
-0.00943744
-0.00694802
0.00951014
-0.00612376
-0.000856172
-0.00253021
-0.00695329
0.00493837
-0.00122635
0.00324127
7.93662e-05
-0.00738466
0.00730529
-0.00514696
0.00529847
-0.000151515
-0.00377849
-0.00399652
-0.0102061
0.0179811
-0.0095917
0.00207316
-0.0010556
0.00857414
0.00228841
0.00371334
0.0102507
-0.0092362
-0.00763183
0.00661735
-0.00273383
-0.00565878
0.0062282
0.00216441
-0.00567045
-0.00287583
0.00855543
-9.14673e-06
0.00200065
-0.00113554
-0.00557915
0.00471404
0.00624859
0.00029966
-0.00799712
0.00144887
0.00191976
-0.00134162
0.00213345
-0.00257412
0.00256256
-0.0021219
0.00518168
0.00502846
-0.00515542
-0.00505472
0.00258078
0.00611607
-0.00632272
-0.00237413
0.00532655
0.00230861
-0.0042061
0.00663651
-0.00801105
0.0016742
-0.00889946
0.00623286
0.00336149
-0.000694888
0.0104731
-0.0034736
-0.0109787
-0.00279445
0.00741985
0.00373614
0.00728075
-0.00352007
-0.00619283
-0.0017287
-0.000977926
-0.00976825
0.0090698
0.000885976
-0.000187528
-0.000592889
0.0122283
-0.00125378
-0.0103817
-0.00794337
0.00161766
0.00353127
-0.0012745
-0.0080273
0.00225284
0.00704896
0.00731548
0.00100929
-2.353e-05
-0.00830124
-0.0110227
-4.79077e-05
4.03969e-05
0.0110302
-0.00286763
0.00312108
-0.00514808
0.00489463
-0.00754263
0.00950834
-0.000960244
-0.00100546
0.00988782
-0.00922711
-0.00820334
-0.00721693
0.00648873
-0.00204825
0.00277645
0.00586022
-0.000264529
-0.00184221
-0.00375348
-0.0111421
0.0107203
0.00528609
-0.00486425
0.00539992
0.00205502
-0.000686322
-0.00676862
0.00187219
0.00476117
-0.00595284
-0.000680522
-0.00352326
0.0035448
-2.15433e-05
-0.0020649
-0.0052728
0.00529317
0.00853509
-0.00848953
-4.55538e-05
-0.00450678
-0.00360385
0.00353081
-0.000471508
-0.00545993
-0.000623641
0.00655508
-0.000631002
-0.00485171
0.00432881
0.00115391
0.00738548
-0.00839266
0.00100718
-0.00950197
0.00973183
0.00892417
-0.00915403
-0.00639815
0.0049559
-0.00336294
0.00480519
-0.00263096
0.00112475
0.00238057
-0.000874359
-0.000251731
0.0115929
-0.000127048
-0.0112141
-0.00600555
0.00291151
0.00295845
0.0034352
0.0043716
-0.00762348
-0.000183327
0.000329702
-0.00947275
-0.000373999
-0.00832701
0.00835515
-2.81411e-05
-0.00587546
0.00298283
-0.00645953
0.00189413
-0.00418266
0.000175149
0.00376627
0.00163587
0.00548536
0.000105149
-0.0046902
-0.00090031
0.00459598
-0.0114679
0.00919244
-0.00232057
0.00191503
-0.00263795
0.00975898
-0.00903606
0.0117893
0.00345008
-0.00181367
-0.0134257
-0.00302029
-0.00493655
-0.00160453
0.00956137
0.00359036
0.0149946
-0.0134989
-0.00508611
0.0017413
0.0109773
-0.010607
-0.00211159
-0.00371106
0.000487436
0.00761243
-0.0043888
-0.00133847
0.010674
-0.00574519
0.00778847
-0.00616024
-0.0023968
0.000768577
0.00251592
0.00651765
-0.00903357
0.00614084
0.00136265
-0.000816474
-0.00668701
-0.00564375
0.00451252
0.000451957
0.000679275
-0.000527463
-0.00804187
0.000472199
0.00809714
-0.00583348
-0.000738561
-0.000226225
0.00679826
0.00338468
-0.00749587
7.72766e-05
0.00294558
0.00447302
5.97485e-05
0.00486377
-0.00492351
0.000624479
0.00859474
-0.0219093
0.0126901
0.00249535
-0.00629365
0.00597841
-0.00218012
0.00358035
0.00408308
-0.00282804
-0.00483538
3.10345e-05
-0.00437512
0.00434408
-0.00238156
-0.00170389
0.00964451
-0.00555906
-0.00312078
0.0104464
-0.0089925
0.00166691
0.0106889
-0.00743096
-0.0071655
0.0039076
-0.00440217
0.00301461
0.00136821
1.93583e-05
-0.000659246
0.0034936