/*--------------------------------*- C++ -*----------------------------------*\
  =========                 |
  \\      /  F ield         | OpenFOAM: The Open Source CFD Toolbox
   \\    /   O peration     | Website:  https://openfoam.org
    \\  /    A nd           | Version:  10
     \\/     M anipulation  |
\*---------------------------------------------------------------------------*/
FoamFile
{
    format      ascii;
    class       surfaceScalarField;
    location    "3.5";
    object      phi;
}
// * * * * * * * * * * * * * * * * * * * * * * * * * * * * * * * * * * * * * //

dimensions      [0 3 -1 0 0 0 0];

internalField   nonuniform List<scalar> 
214403
(
-0.00593075
0.00454731
0.00025143
0.001132
-0.00285079
-0.00963027
0.000789085
0.011692
-0.00883699
4.83603e-05
-0.000116138
0.00890476
0.00780602
-0.00524526
-0.0130854
0.0105246
0.0106092
-0.0134055
0.00317598
-0.000379653
-0.00460503
0.00479819
-4.88603e-05
-0.0001443
-0.000741083
-0.00140932
-0.00794798
0.0100984
-0.0146282
0.00834525
-0.0022023
0.00848529
-0.0201907
0.0142484
0.0143668
-0.00842451
0.0122277
0.00144888
-0.0136952
1.85939e-05
0.00435756
-0.00862119
0.00178729
0.00247635
-0.00892507
0.00279147
0.00464153
0.00149207
0.000404177
-0.00990223
0.0119457
-0.00244768
-0.00858414
0.00861318
-2.90458e-05
0.00166461
0.0102892
-0.0132029
0.0012491
-0.0103219
0.00862224
0.00259873
-0.000899085
-0.0104963
0.0102164
0.000279959
0.00342849
-4.90762e-05
-0.000787328
-0.00259209
0.013524
-0.00808179
-0.0179882
0.012546
-6.69731e-05
-0.00273265
8.01622e-05
0.00271946
0.00563439
-0.00550102
-0.000133368
-0.0105737
-0.00365634
0.00363606
0.010594
-0.00197391
0.0117715
-0.00948248
-0.000315096
0.00579652
0.000596122
0.00200983
-0.00840247
-0.00886507
-0.00429571
0.0114744
0.00168639
0.00810061
-0.0102552
5.87543e-05
0.00209581
0.00277484
-0.0024139
0.00912201
-0.00948295
0.00668246
0.00872823
-0.0105139
-0.00489678
0.00964761
-0.0060433
-0.000274499
-0.00332981
-0.00516101
0.0052624
-0.000101393
0.00209413
-0.00438132
0.0117473
-0.00946015
0.0121236
0.000578692
-0.00209649
-0.0106058
-0.00494871
-0.00508006
0.00520145
0.00482732
-0.0010262
-0.00579259
0.00513072
0.00168807
0.00378342
-0.00251932
-0.00810556
0.00684146
-0.00146513
0.00731123
-0.00264145
-0.00320465
0.0139071
-0.000366378
-0.0135407
-0.0059098
0.0115599
-0.00565011
0.00106632
-0.0127551
0.00739879
0.00428999
0.00211262
-0.000852145
0.005189
-0.00644948
0.00488768
-4.58096e-05
-0.00484187
0.00885891
-0.000198138
0.00157105
-0.0102318
-0.0111993
0.00139899
0.0119129
0.000771474
0.000762653
0.0074918
-0.00902593
-0.00358995
-0.0233468
0.0226543
0.00428244
0.00503379
0.000909993
0.00113608
-0.00707987
0.0036589
0.00276859
-0.00895434
0.00252685
0.0115046
0.00688062
-0.0125887
0.00103957
0.00980383
-0.0019845
0.00160988
-0.00600556
-0.00354141
0.00793708
0.00273191
0.00420002
0.00125312
-0.00818505
0.00159162
-0.00119738
-0.00366959
0.00327535
0.00604743
-0.0109477
0.00763214
0.0102943
-0.00969943
-0.00330524
0.00271038
0.00936832
-0.00171101
-0.0074071
0.010034
-0.000412101
-0.00221479
0.00761236
-0.00975423
0.000122466
0.0020194
-0.00710217
0.000471253
0.0113479
-0.00471699
-0.0132461
-0.0124977
0.0104674
0.0152763
-0.00707619
0.0071145
0.00139659
-0.00143489
0.00110792
-0.00903626
-0.0075479
-0.000157129
0.00392359
0.00378144
-0.0116037
0.00497611
0.00749439
-0.000866768
0.0136472
-0.0109954
0.000688075
-0.00333981
0.000623411
0.000232182
-0.00887697
0.00802137
0.000479192
-0.00251463
0.0124094
-0.0103739
-0.0304424
0.00323948
0.00342958
0.0237734
-0.00275584
0.00816729
-0.00258977
-0.00282167
0.00405304
-0.00212072
-0.00864301
0.00671069
0.000981553
0.00619527
-0.00785308
0.00067625
-0.000131239
0.00738875
0.00255336
-0.00981088
-0.00146422
-0.000239812
-0.00308295
0.00478698
-0.00792765
0.00866047
-0.000325186
-0.000407627
0.00028647
-0.00783716
-0.00560091
0.00496179
0.00150582
-0.000866708
-0.0145642
-0.00092053
0.0070901
0.0083946
-0.00438758
-0.0018688
0.0037303
0.00252608
0.00650577
-0.0218282
0.00301718
0.0123052
-0.00337086
0.00678028
-0.00370396
0.000294532
0.00481744
-0.00374624
0.000475007
-0.00154621
0.000112108
-0.00920398
0.00909187
3.35866e-05
0.00744853
-0.00748212
0.00650649
-0.0012713
0.000860323
-0.00609552
-0.00400177
0.00571055
0.00189276
-0.00360154
-0.00277694
0.0118648
-0.00285568
-0.00623215
0.00564709
-0.00965436
-0.000345402
0.00435268
0.00638664
0.00671949
-0.0131061
0.00942396
-0.0105963
0.0027237
-0.00155132
0.000914239
-0.00170201
0.0123271
-0.0115393
0.000368445
-0.0019732
0.00881215
-0.00720739
0.00213276
0.0185696
0.00532706
-0.0260294
-0.0161864
0.0142217
0.00925315
-0.00728839
0.000738778
0.00575001
-0.00771607
0.00122728
0.0076649
0.00848325
-0.00275856
-0.0133896
0.0140495
-0.00854206
-0.000259086
-0.00524836
0.000623506
-0.00183002
-0.00574691
0.00695343
-0.00581406
3.28764e-05
0.00578118
0.00854869
0.000290131
0.000585141
0.0106645
0.000898462
-0.0162549
0.00469187
-0.00858039
0.00187949
0.00151725
0.00518365
-0.00548895
0.00136145
0.000674796
0.0034527
0.00130687
0.000945719
-0.0112063
0.00895375
-0.00228016
-0.0132632
0.00845682
0.00708649
0.00536505
-0.00635994
-0.00413932
0.00513421
0.0086443
-7.00644e-05
-0.00864048
6.62433e-05
0.00657329
-0.00929217
-0.00320639
0.00592527
0.0170282
-0.0051547
-0.00265309
-0.0092204
0.00968313
-2.02569e-05
-0.00888353
-0.000779342
-0.00500489
0.00587466
0.012211
-0.0130808
0.0105817
-0.00370217
-0.0101825
0.00330297
0.00196604
-0.00290311
0.0125343
-0.0115973
-0.0138871
0.0126401
0.0120042
-0.0107572
0.000632262
-0.0108948
0.00419126
0.00607126
0.0137255
-0.000718128
-0.000305777
-0.0127016
0.0097134
-0.00188597
0.00188543
-0.00971286
-0.0114306
-0.0104317
0.0123358
0.00952647
-0.00214042
0.00613886
0.00166548
-0.00566392
-0.00469367
0.000256026
0.00909703
-0.00465939
-0.00104482
0.0118801
-0.0110391
0.000203813
-0.0104529
0.00970656
0.00188889
-0.00114258
-0.000350869
-0.00609357
0.014545
0.00188762
-0.00626874
-0.00459406
0.00897518
-0.00496477
6.31926e-05
0.00490157
0.00152332
0.00692623
-0.0064073
-0.00204225
0.0112066
-0.00645624
-0.00172332
-0.00302709
9.95663e-05
-0.00338464
0.00328507
-0.00624732
-0.00168731
0.00235782
0.0055768
0.000669359
0.00368695
-0.00824515
0.00388884
0.0138965
-0.00125572
0.00542887
-0.0180696
0.000971592
-0.00125683
-0.0165447
0.0168299
0.00105983
-0.00476856
-0.00625797
0.0099667
0.000395458
0.00862284
-0.000469608
3.35723e-05
-0.00515271
0.00511914
0.0104253
-0.00387735
-0.00466035
-0.00631322
0.00526627
-0.00520037
0.011548
-0.00961371
-0.00118122
-0.000753118
0.00115061
-0.00543672
0.00237706
0.00190905
-0.00938438
-0.00285576
0.0019191
0.010321
0.00784516
-0.0127154
0.00839793
-0.00352768
-0.000337028
0.0115332
-0.0115418
0.000345709
-1.69027e-05
0.0108042
-0.0107011
-8.62057e-05
-0.0146311
0.011687
-0.00938091
0.0123249
0.0121767
-0.0117975
-0.000379206
-0.0113186
0.0151329
-0.00273559
-0.00107866
-0.0100864
0.0024432
-0.000773523
0.00841677
-0.0164606
0.00125126
0.0105877
0.00462167
0.00290933
-0.00397307
0.00221435
-0.0041231
0.00468646
0.0075407
-0.00810406
-0.00435621
-0.00195572
0.0024934
0.00381852
-0.00597329
0.00389757
-0.00748501
0.00956073
0.00178632
0.000143002
-0.0132479
-0.0059734
0.00595949
1.39083e-05
0.00649222
-0.00625045
-0.000241768
-0.00973643
-0.000636541
-0.00256911
0.00238508
-0.0127976
0.0148821
-0.00446951
0.00574673
0.00984956
-0.012547
-0.00304927
0.0109466
-0.0119037
0.00033599
0.000621143
0.0059709
0.00152736
-0.0061463
-0.00135195
-0.00926356
-0.000508033
0.0121567
0.00541275
-0.000390383
-0.00659845
0.00157609
0.00610003
-0.00522239
0.00601646
-0.0068941
-0.0104239
0.00197487
0.0141958
-0.00355306
-0.00491366
0.0163151
-0.00784842
-0.00503684
-0.00555944
0.00133272
0.00148736
0.00400356
-0.0105278
-0.00716442
-0.000614362
0.011524
-0.00374526
0.00111051
0.001793
0.00636679
-0.0092703
-0.00336164
0.00822718
-0.00486554
0.00266151
-0.012909
0.00468804
0.00768448
0.00537591
-0.011573
-0.0107645
0.000131228
0.0134111
-0.00277783
0.00186959
0.00160234
0.00500731
-0.00847923
0.00753619
-0.00757377
3.75799e-05
0.00272492
-0.00102969
0.00914756
-0.0108428
0.00960276
-0.00303085
0.00460555
-0.0111775
0.0180021
-0.00582631
0.013425
-0.0256008
0.00288003
0.00536316
-0.00222959
-0.00601361
-0.00818183
0.00336751
0.00428804
0.000526288
0.00586181
-0.00441596
-0.000122804
-0.00132304
-0.00370937
-0.00468619
0.0136646
-0.00526902
-0.00657302
0.00853777
0.00339659
-0.00536135
0.00990071
-0.000540591
-0.00326009
-0.015074
0.00997447
-0.000873706
-0.0143907
0.0132846
0.00618573
-0.00507964
0.00917611
-0.0103583
-0.00149174
0.00267392
0.00513559
-0.00932572
-0.00485423
-0.00536078
-0.0049202
0.00278394
0.00749704
-0.00763687
0.00237762
0.00755608
-0.00229683
0.0089516
-0.00851639
-0.00587616
0.00544095
5.50534e-05
-7.75321e-05
-0.00842676
0.00844924
0.000212243
-0.00735705
-0.000272038
0.00741684
-0.00212842
-0.0126264
0.00198649
-0.00730223
0.0065632
-0.00124746
-0.0048823
-0.0020521
-0.000702469
-0.000132291
0.0122149
0.000145102
-0.0292943
0.0206185
0.0149259
-0.00625013
-0.00874502
0.000599661
0.000297983
0.00784737
-0.00173239
0.0275081
-0.032389
0.0066133
0.00139229
0.00214688
-0.00481767
0.0012785
-0.0187098
0.0100808
0.00131639
0.00731258
-0.000210924
-0.0123075
-0.00177533
0.0142938
-0.00502587
0.018545
-0.0128456
-0.00067352
0.00834437
0.0120998
-0.0112033
-0.00924092
-0.00991442
0.00946258
0.0117227
-0.0112708
0.0039161
0.00547121
-0.00681537
-0.00257194
0.00383047
-0.00257084
-0.00614193
-0.0197475
-0.000785012
0.0161176
0.00441486
0.0058852
0.000910992
-0.00342869
0.00596826
0.00800988
-0.0073882
-0.00658994
-0.00988083
0.00220233
0.00962243
-0.00194393
0.001157
0.00313714
0.0108387
-0.0114369
0.0112703
0.0010952
-0.000928534
0.00718276
0.00564305
-0.00507933
-0.000198832
-0.00143213
0.00671029
-0.00753924
-0.00152007
0.00421537
-0.0144875
0.00616273
0.0041094
0.000429783
0.00786832
-0.00870559
0.000407485
-0.00299512
0.000579914
-0.00278646
0.00520166
0.0121396
-0.00868257
0.000373427
-0.00690535
-0.0054051
0.00726822
0.00504223
0.0260123
-0.0278572
0.00914933
-0.00730441
-0.00508648
0.00631943
0.00254573
-0.00377868
-0.0117761
0.00508352
0.0102388
-0.0035462
-0.00496143
0.00720109
0.00925961
-0.0114993
0.0138319
-0.00531571
-0.00915064
0.000634478
0.000239107
-0.00334431
0.00813195
-0.00502674
-0.00141286
0.00139637
-0.010748
0.0100032
0.00322782
-0.0107099
-0.00252111
0.0125762
-0.0103209
-0.00276325
0.00260174
0.00383396
-0.00910856
0.00267286
-0.00525529
-0.00956881
0.00852727
0.00629683
-0.00157622
-0.00409564
-0.00123349
0.00511409
-0.00544465
0.0117262
-0.0113957
0.00124817
-0.0142096
0.0129614
0.00478886
-0.00628335
0.00409623
0.0026803
0.00155138
0.0021934
-0.00642508
-0.000287755
-0.0119253
0.012213
-0.00660161
0.000875891
-0.00214228
0.00786801
-0.000803507
0.00911195
-0.00828489
-2.35485e-05
-0.00612581
-0.00326121
0.0035501
0.00583692
-0.00226837
-0.00543366
-0.00501864
-0.00737917
0.00614935
0.00624846
0.000279934
-0.00756694
0.0129179
-0.00531032
-0.000687889
-0.00691968
0.00703533
-0.000691169
-0.00512786
-0.0012163
-0.00110598
0.00967566
-0.0120742
0.00350448
0.0062281
0.000240451
0.00303175
-0.00950031
-0.000229884
-0.00512074
0.00247464
0.00287599
-0.00359669
0.00467708
0.00899546
-0.0100759
-0.0126389
-0.00324987
-0.00351122
0.0115499
-0.0111772
0.000303502
0.00346603
0.00740765
0.00105547
-0.003857
-0.00680848
0.00961001
-0.00506286
-0.00988297
0.00249435
0.0124515
-0.00451508
-0.00499656
0.00520375
0.0043079
-0.0117485
0.0113095
0.0119726
-0.0115335
-0.00161556
-0.00282892
-0.0085196
0.0129641
-0.0116834
0.00115078
0.0118875
-0.00135492
-0.00204205
0.00540646
-0.00336441
-0.00472591
0.00873519
-0.0065752
0.00256592
-0.000187592
0.0153634
-0.00575232
-0.00942347
-0.00554262
-0.0026916
0.0111036
-0.00286941
0.00176887
-0.00464329
0.0105108
-0.00763633
0.000493769
0.00699731
-0.00122584
-2.15671e-05
-0.0112007
0.0111937
2.85571e-05
0.0130937
-0.00232114
-0.0191384
0.00836586
-0.0120952
-0.00118106
0.0150944
-0.00181807
-0.0065609
0.00991356
0.00081242
-0.00416508
0.00586346
-0.00580882
-5.46376e-05
-0.00688437
0.000676688
-0.0059114
0.0121191
-0.00987228
0.0136063
-0.00280881
-0.000925192
0.00616172
-0.00257221
-0.00742976
0.00384025
-0.0119203
0.0120009
-8.05612e-05
0.00982557
-0.0142629
0.00113964
0.00329768
-0.0110808
-0.00304162
0.0189706
-0.00484815
0.00825466
-0.000355244
-0.00172537
-0.00617405
-0.00467746
-0.00793821
0.0177298
-0.000823848
-0.0116752
0.00705438
0.0182769
-0.0203822
-0.00194425
0.00404961
0.00502764
0.00239813
-0.00555617
-0.0053358
0.00555509
-0.000219288
-0.00209123
0.0117207
-0.00075734
-0.00887209
-0.00256074
0.00303885
0.01023
-0.0107081
0.00674883
0.0158727
-0.00923928
-0.0133823
0.0116924
-0.0140252
0.00445955
-0.00212674
0.0103928
0.000128876
-0.0105217
0.000180958
0.0101266
-0.0103076
0.011439
-0.0138286
0.0122151
9.68094e-05
-8.73289e-05
0.00917579
-0.00918527
0.000198892
0.0163124
-0.0162597
-0.000251641
-0.00136818
-0.00408132
-0.00829087
0.0137404
-0.00508848
-0.0030127
0.00101284
0.00967414
-0.0167741
0.00608712
-0.00802988
-0.0021042
0.00860806
0.00152601
-0.00973247
0.0107362
-0.00286086
0.00185714
0.00149522
0.00778692
-0.00264948
-0.00663267
-0.00371518
0.000898162
0.00636011
-0.00354309
-1.43839e-05
0.00295494
-0.00373181
0.000791249
-0.00407982
0.0100013
-0.0057839
-0.000137607
0.00295951
-0.00940406
-0.00547575
7.57833e-05
-0.0087775
0.00870172
-0.00331971
-0.00318454
0.00147611
0.00502815
0.00485974
-0.0028036
-0.00205614
0.0122023
-0.0121305
-0.00246653
0.00239474
-0.00113044
-0.00735471
0.0068035
0.00168165
-3.16382e-05
4.12609e-05
0.00670069
-0.00671032
0.00334417
-0.00275014
-0.0106367
0.0100427
0.0077167
-0.000196214
-0.00752048
-0.0112391
-0.00727366
0.0108311
0.00768166
0.00649416
0.0101316
-0.0174496
0.00617852
-0.00222179
0.00348853
-0.00744525
-0.00250286
0.00249667
-0.0138397
0.0138459
0.00383184
-0.00756319
-0.00734702
0.0110784
-0.000775739
-0.00172933
0.00814
-0.00563493
0.00566811
-0.00696504
0.0025243
-0.00122737
0.00318845
-0.00528689
-0.00511005
0.00720849
-0.0100635
0.0113225
-0.00299454
0.00173555
0.0116262
0.0149331
-0.0164564
-0.010103
-0.00898468
0.00895474
2.99332e-05
-0.00102481
0.0105427
-0.0131456
0.00362775
0.000388487
-0.000638084
-0.0101952
0.0104448
0.00983659
0.000412743
-0.0113171
0.00106776
-0.00431645
-0.00729447
0.00917411
0.00243681
-0.0104277
0.0147697
-0.00523004
0.000888093
-0.0041828
-0.00512984
0.0030439
-0.000616122
-0.000114236
-0.00723994
0.0079703
-0.0236632
9.77238e-05
0.00208223
0.0214832
0.000931321
-0.00598055
-0.00309551
0.00814474
0.0147797
-0.00122114
-0.00479352
-0.00876506
-0.00259579
-0.00566302
0.00107192
0.00718689
0.00424307
-1.32127e-05
-0.00422986
0.00699788
0.00370218
-0.00232751
-0.00837255
0.00539232
-0.00426433
0.0105919
-0.0117199
0.000329708
0.0110675
-0.00365233
-0.0077449
0.00267044
0.00383854
0.00827074
-0.0052468
0.00038445
0.00486235
-0.00685162
0.00098151
0.00181099
0.00114495
-0.00944143
0.00648549
-0.00898258
0.0131538
0.00396337
0.01356
-0.00286054
-0.0146628
-0.00869661
0.00851864
-0.0134899
0.0136679
-0.00128701
-0.00645383
0.00225784
0.005483
-0.00716649
0.0135531
0.00406282
-0.00473026
0.00106491
-0.000397472
-0.00445572
-0.0141415
0.00442221
0.0141751
0.00926195
-0.00923774
-0.000101863
7.76591e-05
0.00752953
-0.00881477
0.00186963
-0.000584387
0.00191491
0.00755196
-0.0134431
0.00397628
3.46788e-05
0.00643505
-0.00646973
0.00420261
-0.0107729
0.00848521
-0.00405543
0.0109258
0.00920523
-0.0160756
0.00308985
-0.00318074
-0.0147253
0.0148162
-0.00443888
0.00733943
-0.0147721
0.0118715
-0.0105388
0.00838876
0.0109796
-0.00882949
-0.00655903
0.00898549
-0.00580637
0.00337991
-0.00141937
0.00618754
0.00100825
-0.00577642
0.00305368
-0.00445422
0.00459297
-0.00319243
0.00591945
0.00220336
0.00194694
-0.0100697
0.0164991
-0.0111848
-0.000697342
-0.00461692
1.03409e-05
-0.00800671
0.00799637
0.00504259
-0.00736636
-0.0226068
0.0249306
-0.00102502
-0.010921
-0.00329012
0.0152361
-0.000658816
-0.00498278
0.00564159
0.00153352
0.00725006
-0.00117384
-0.00760974
-0.00200891
-0.00726
0.0058564
0.00341251
0.00576641
-0.00483241
-0.00848191
0.0144054
-0.0112279
0.00324205
0.00343392
-0.00667597
0.010987
-0.000112282
-0.00129019
-0.00958454
-0.002132
-0.0036277
0.0057597
0.00386323
0.00256764
0.0218009
-0.0262406
-0.00923017
0.0136698
0.00331873
0.00706957
-0.00540705
-0.00498125
-0.00758729
0.0146091
0.00964295
-0.0166647
0.00866105
0.00300298
-0.00115262
-0.0105114
0.01411
-0.00941129
0.00607003
-0.0107688
-0.00799436
0.0036717
-0.0101359
0.0144585
-0.0130094
0.0232503
-0.00908708
-0.00115379
-0.000357955
-0.00549671
-0.00758115
0.0134358
0.0105074
0.0043598
-0.0123242
-0.00254296
0.00571688
-0.0152544
0.00961944
-8.1895e-05
-0.0132642
-0.000500521
0.00866207
0.00510263
-0.00267576
0.00692652
0.00300027
-0.00725103
-0.00167792
0.00672771
0.00543128
-0.0104811
-0.0140246
0.00720665
-0.000647583
0.00746553
0.00124659
-0.00373352
0.00742614
-0.00493921
0.00598244
-0.00300885
0.00213524
-0.00510883
0.00569329
0.00110967
0.000564733
-0.0073677
-0.00833483
0.00894284
0.00331515
-0.00392315
-0.00199593
0.0106528
0.000202512
-0.00885937
0.00862557
-0.00506429
-0.00333143
-0.000229854
0.00737291
4.95143e-05
-0.00742242
0.00538801
0.00417176
-0.00094791
-0.00861187
0.00254845
0.00669402
0.00567657
-0.0149191
2.36915e-05
-0.012047
0.0120233
-0.00628851
0.0242644
-0.00355302
-0.0144228
-9.60406e-05
0.00904954
-0.0089535
-0.000599604
-0.00647716
0.00116307
0.0059137
-0.0118672
0.00605123
0.00461052
0.00120545
0.00243224
0.00199175
-0.0138678
0.0094438
0.00700532
0.0110657
-0.00413432
-0.0139367
0.0106611
-0.00364755
-0.0102027
0.00318915
-0.0132568
0.00758249
0.0202968
-0.0146225
-3.39889e-05
0.0051864
-0.00518679
3.43715e-05
-0.00536163
0.00530737
5.42613e-05
-0.0134875
0.000196455
0.00570371
0.00153548
0.00325992
0.00893468
-0.0137301
0.00699644
-0.00832293
0.00536953
-0.00404305
-0.00687624
0.00602293
-0.000228541
0.00108185
-0.00140542
-0.0112812
0.014392
-0.00170538
-0.00506599
0.0024381
0.00802143
-0.00539354
0.00867555
-0.00334077
0.00126824
-0.00660303
-0.00568103
-0.000989649
0.0066492
2.1477e-05
-0.0010021
-5.35191e-05
0.00952194
-0.00846632
0.00116773
-0.00100101
0.0093668
-0.00953352
-0.0084505
0.0118111
-0.0123898
0.00902923
4.93021e-05
-0.0106273
0.010578
-0.00378081
0.000320597
0.00956519
-0.00610497
-0.00719524
0.00841335
-0.0114762
0.010258
-0.00739171
0.000565356
0.00223229
-0.003439
0.00934068
0.000526649
-0.00642832
-0.00248185
0.000350262
-0.00418163
-0.00366825
-0.0119514
0.0120093
0.00361038
-0.00532194
-0.000630237
-0.0013372
0.00728938
-0.0182467
0.00615723
0.00183769
0.0102517
-0.00570999
0.0132581
-0.00663285
-0.00091528
0.00398503
0.00156602
-0.0080329
0.00789833
0.00801852
-0.0159168
0.00109226
0.0174671
-0.0040459
-0.0145134
-0.000223749
-0.000316211
-0.00781734
0.0083573
-0.0083949
0.0137803
-0.00554934
0.000163973
0.00792665
-0.00499052
-0.00718687
0.00425074
0.00201491
-0.000270586
0.00246664
0.0122548
0.00339008
-0.0176665
0.00202166
-0.00853524
-0.00107582
0.00278428
0.00682678
0.00316691
-0.00353592
-0.00476084
0.0146816
-0.0098756
0.00769896
-0.012505
-0.00164963
0.00949443
-0.0164206
0.00857578
0.0056474
-0.007155
-0.000722972
0.00223058
-0.00625048
-0.00217563
-0.000210609
0.00863672
-0.00467079
-0.00439611
0.0090669
0.00117974
-0.0126249
0.011177
0.000268179
0.00478698
-0.00463534
-0.00482243
-0.00791946
0.0100373
-0.00191066
-0.000207167
0.0112261
0.00308441
-0.0120809
-0.00222957
-0.00436601
-0.00637351
-0.000736273
0.0114758
0.00729356
-0.0022195
0.00845612
-0.0135302
-0.00801974
-0.000430758
-0.00948258
0.00508647
0.0012206
-0.0106159
0.00339724
0.00599806
0.00313154
-0.011202
0.00614381
0.00192662
0.00169198
0.000424174
-0.00843487
0.00631872
0.00126692
0.00544405
-0.000375971
0.00956217
-0.00188894
-0.00729727
-0.00374082
-0.000403457
-0.00349952
0.0076438
-0.00222086
-0.00299113
0.00571919
-0.000507203
-0.00876277
-0.000102307
-0.0146606
0.00527898
0.00770371
0.0209697
-0.000191647
0.00289049
-0.0236685
-0.00927455
0.0143496
0.0029353
-0.00801039
-0.00263845
0.0014294
0.00903729
-0.00782824
0.0010847
0.00307879
-0.0023813
-0.00178219
-0.0158045
-0.00327962
0.0136195
0.00546456
0.000353288
0.0067757
-0.00136257
0.000220427
0.00334692
-0.0105251
0.0069578
-0.00645855
-2.12209e-05
0.002381
0.00409877
-0.00908445
0.0112301
-0.00179232
0.00512489
-0.00462022
-0.000504669
-0.00750375
0.00105078
-0.0058337
0.0122867
-0.00341622
0.00514229
-0.00396553
0.00223946
-0.00735971
0.00828849
-0.00342449
0.0024957
0.00325651
-0.000546034
-0.00763037
0.0049199
-0.0032931
0.0206353
-0.0277699
-0.00291957
-0.00203748
0.00199524
0.00296181
0.00964255
-0.0150692
-0.000681999
0.0061086
-0.00403249
0.00300841
0.0051879
-0.00416382
-0.00120922
0.00637934
-0.00175181
-0.00341831
-0.0071705
0.00159056
0.00167745
0.00390248
-0.00410078
0.000351502
0.00374928
0.0092221
-0.00438993
-0.0046802
-0.000151972
0.000695239
0.00472315
-0.00717045
0.00175206
-0.00493626
-0.00598084
0.00609998
0.00481712
-0.0026326
0.00673004
-0.00574102
0.00164359
0.00238539
-0.00451407
0.00311057
-0.000981886
0.00873818
0.000224963
-0.00896315
0.00752628
-0.00929497
0.00461183
-0.00284315
-0.0118226
-0.000329086
0.0121517
0.00481131
-0.00399167
0.00093277
-0.00175241
-0.000374069
0.00836202
-0.00913778
0.00114983
-0.00415629
0.00520377
0.00133791
-0.00473371
0.0101363
0.00936709
-0.00791076
0.00782109
8.96678e-05
0.000185752
-0.0124739
0.0122881
0.0169204
0.00201958
-0.00357344
-0.0153665
0.00355365
-0.0138529
-0.00170452
0.0120038
0.00266167
0.00314057
0.00179744
-0.00759968
-0.00475871
-0.00473496
6.20927e-05
0.00943158
-0.00227138
0.0031014
-0.00558873
-0.010374
0.00189046
0.0136132
-0.00512969
-0.0205051
0.0150263
0.00660883
-0.00112996
0.00903673
4.46093e-05
-0.00908134
-0.00523565
-0.007049
0.00455719
0.00772747
-0.0051488
-0.00744813
0.00222296
-0.00741583
0.00402801
0.00465473
0.00302026
-0.00394448
-0.00721164
0.00813586
-0.00504822
2.69565e-06
0.00504552
-0.0118622
0.00483311
0.00491132
0.00211773
0.0029689
-0.00796413
-0.0024206
0.010146
-0.0032343
-0.000242745
-0.00666897
-0.00687418
0.0113995
0.00673506
-0.0112604
-0.00205505
-0.00429846
0.00162352
0.00472998
-0.00286473
-0.00230406
0.0051688
-0.00504654
-0.0105939
-0.00486473
0.00240771
3.18816e-05
0.00485564
-0.00729523
0.00972129
-0.00706818
-0.0102148
0.00756173
-0.00360606
0.00129649
0.00726204
-0.00495248
0.0067673
-0.00476476
-0.000669074
-0.00133346
-0.00775903
0.00126304
0.00605972
0.000436275
-0.00479867
0.011014
-0.0119696
0.00466817
0.000344816
0.00695663
0.0113444
-0.00907609
-0.00713645
0.00486811
-0.00899712
0.00189796
0.0168204
-0.00867205
-0.00572848
0.00933667
0.00506385
-0.00101155
0.00903569
-0.00342997
-0.00459417
0.000524288
-0.00547874
-0.00363402
0.00858847
0.0102898
-0.00678901
-0.000416787
-0.00308402
0.00321249
0.00238356
-0.00786743
-0.00216448
0.00245024
0.00603745
-0.0063232
-0.00181547
0.00943925
-0.0116433
0.0040195
-0.00576796
0.0013921
0.00139564
0.00298023
-0.0124472
0.0126294
-0.000182261
0.00882839
-0.00872386
-0.000104531
0.00353503
-0.0135586
-0.00522329
0.0152469
0.00303673
0.00574848
0.00136081
-0.000143276
0.00502729
-0.00488401
0.00839671
0.00746876
-0.0158655
-0.00895346
0.00546603
0.00386377
-0.000376338
-0.00502833
0.00165716
0.00408722
-0.000716049
-0.0151509
0.0070905
0.00831591
-0.000255525
-0.00486904
-0.00543078
0.0052516
0.00788138
-0.00126374
-0.00504927
-0.00156837
-0.00828329
0.00894679
-0.00546217
0.00147779
-0.00939012
-0.000489279
0.00840161
-1.39581e-05
-0.00468378
0.00469774
0.0226819
0.000146361
0.00244533
-0.0252736
-0.000863424
-0.00169942
-0.0124981
0.015061
0.00391916
-0.00530968
-0.00245176
0.00384228
0.00154093
0.0117682
-0.0047658
-0.0085433
0.0127497
-0.0127378
-3.97038e-06
-8.0015e-06
-0.00718093
-0.00647414
0.010119
0.00353608
0.00418887
0.00316938
-0.00831783
0.000959576
4.88181e-05
0.00777688
-0.00793201
0.000106307
-0.0106804
0.00343877
0.00865195
-0.0014103
0.00813818
0.00491882
-0.00823774
-0.00481927
0.00018207
-0.00731418
0.00365941
-0.00188452
0.0109748
-0.00586331
-0.000761636
-0.000912593
0.00753753
-0.00990704
0.000487917
0.00941913
0.0144812
0.00624198
-0.00468898
-0.0160342
-0.009436
0.000193408
0.00942466
-0.000855824
-0.00222613
-0.00568487
0.00876682
-0.00107609
-0.00115047
-0.00306456
0.00529112
0.00237095
-0.0120717
0.00911367
0.000587103
0.00758996
-0.00116603
-0.00740648
0.000982548
-0.00923823
0.00191229
0.000719822
0.00660612
-0.00354013
0.00233713
-0.00486354
0.00606655
0.00201547
0.00131019
-0.0119272
0.00860153
0.000402852
-0.00809161
-0.000545363
0.00823412
0.00799844
0.00107437
-0.000163514
-0.0089093
-0.00957924
0.00221682
0.0086693
-0.00686702
-0.00909576
0.0159628
0.0132846
-0.00673137
0.0028753
-0.00942857
0.0010527
0.0074132
-0.00454674
-0.0107871
0.00198177
0.00382842
0.00497696
0.0133205
-0.0137374
0.000416858
-0.00815734
-0.00277181
0.00571244
0.00521671
-0.0105991
-0.0082288
0.00552079
0.0133072
0.0107487
-0.011224
-0.00137566
0.00185101
-0.00156911
0.00522894
-0.00411924
0.000459402
-0.0135708
0.00444632
0.00310993
0.00601455
-0.0200119
0.0248629
0.00416624
-0.00901727
0.00897855
-0.0194391
-0.00101034
0.0114709
-0.00797448
0.0101715
-0.0188379
0.016641
-0.00829402
0.0182443
0.00181448
-0.0117647
0.000738097
0.00869619
-0.00205549
-0.0073788
0.0132103
-0.00991795
-0.00032468
-0.00296767
-0.00230542
-0.00221236
0.00338442
0.00113336
-0.00620493
-0.0129492
0.0110897
0.00806441
-0.00886685
0.0118082
0.010269
0.00734257
-0.00540012
-0.00672612
0.00478367
0.00264492
-0.00342334
-0.00151077
0.00228918
0.00585279
-0.00579714
-0.00769951
0.00764386
-0.00237219
0.00680684
-0.000492386
-0.00394227
-0.009466
-0.00154267
0.0117468
-0.00711429
-0.00175012
0.00879578
6.86322e-05
0.00298583
-0.00666879
0.00368296
0.0023569
-0.00310596
0.0115488
-0.0107997
0.00925385
-0.0130522
0.00192453
0.00187379
0.00583831
-0.00629936
0.00046105
-0.00909874
0.000231889
0.00809575
-0.00309479
-0.00781629
0.00281533
0.00256851
0.00205642
0.00901284
-0.0136378
0.00572288
-0.00621283
0.000489949
-6.89503e-05
0.00703045
-0.00794805
0.000986547
-0.0100071
-0.000949059
0.013313
-0.00428706
-0.00073078
0.000989922
0.00402792
0.000593032
-0.00489415
0.00361218
0.000688936
0.00803696
-0.00768837
-0.0019177
0.000942216
0.013543
-0.00855738
-0.00592783
-0.0045977
0.00969379
-0.00509609
-0.0124567
0.00476949
-0.00290022
0.0105875
0.00978354
-0.00885614
-0.0144982
-0.00485125
-0.00580572
0.0199484
-0.00929139
-0.0140706
0.00895247
0.012782
-0.00766385
-0.000273404
-0.0119598
0.0122332
0.0189497
4.9831e-05
-0.0109378
-0.00806173
0.0110147
-0.00709356
-0.000984628
-0.00293647
-0.00804407
0.00569633
-0.00142012
0.00376786
8.86412e-05
-0.00833931
0.00825067
-0.00597361
0.00614909
-0.000175482
-0.00437447
-0.00462922
-0.0118592
0.0208629
-0.0111446
0.00241467
-0.00123577
0.00996574
0.00263156
0.00427038
0.0117024
-0.0105446
-0.00872435
0.00756658
-0.00317851
-0.00656318
0.00723188
0.00250981
-0.00660422
-0.003353
0.00996378
-6.55815e-06
0.00222635
-0.0012717
-0.00625142
0.00529677
0.00728556
0.000335244
-0.00930734
0.00168654
0.00223982
-0.00155847
0.00245379
-0.00296111
0.00294944
-0.00244212
0.00599811
0.0058387
-0.00597755
-0.00585926
0.00295542
0.00695376
-0.00719086
-0.00271832
0.00617714
0.00267353
-0.00486564
0.007707
-0.00932015
0.0019484
-0.0102668
0.00719097
0.00386975
-0.000793911
0.0121168
-0.00402018
-0.0126943
-0.00326592
0.00868028
0.00436917
0.00846513
-0.00411113
-0.00715115
-0.00197389
-0.00114177
-0.0113655
0.0105781
0.00101188
-0.000224462
-0.000701117
0.0142121
-0.00146703
-0.012044
-0.00929287
0.00189233
0.00413462
-0.00147944
-0.00931912
0.00262185
0.00817671
0.00850315
0.00117795
-3.1975e-05
-0.00964912
-0.0127192
-6.69379e-05
5.78012e-05
0.0127283
-0.00331538
0.00361096
-0.00591807
0.00562249
-0.00874648
0.0110466
-0.00113213
-0.00116798
0.011484
-0.0107226
-0.00950796
-0.00845189
0.00762875
-0.00241147
0.00323461
0.00679928
-0.000305582
-0.00213868
-0.00435501
-0.0129119
0.0124363
0.00612054
-0.0056449
0.00620457
0.00236296
-0.000788149
-0.00777939
0.00217735
0.00552736
-0.00690942
-0.000795294
-0.00408919
0.00411438
-2.51958e-05
-0.00239651
-0.00611462
0.00613895
0.00952662
-0.00946765
-5.89621e-05
-0.00522798
-0.00417
0.0040883
-0.000553988
-0.00629961
-0.000702265
0.00755586
-0.000726556
-0.00558641
0.00499098
0.00132199
0.00857023
-0.00974011
0.00116988
-0.0110368
0.0113195
0.0103683
-0.010651
-0.0074244
0.00575045
-0.00390939
0.00558334
-0.00302596
0.00129318
0.00273895
-0.00100617
-0.000301984
0.0134591
-0.000135676
-0.0130215
-0.00690742
0.00334708
0.00340322
0.00395068
0.00502712
-0.00876986
-0.000207951
0.000379364
-0.0108985
-0.000428476
-0.00969048
0.00970823
-1.77551e-05
-0.00664607
0.0033634
-0.00731648
0.00219792
-0.00484757
0.000197888
0.00433192
0.00188124
0.0063655
0.000123215
-0.00544276
-0.00104596
0.00533034
-0.0133018
0.010663
-0.0026915
0.0022195
-0.00304759
0.0113027
-0.0104746
0.0138078
0.00403652
-0.00212161
-0.0157227
-0.0035015
-0.00572325
-0.00185709
0.0110818
0.00416575
0.0174339
-0.0157121
-0.00588746
0.00201168
0.0126831
-0.0122427
-0.00245211
-0.00430843
0.000566099
0.00883109
-0.00508875
-0.00154247
0.0123976
-0.0066894
0.00896058
-0.00708725
-0.00276153
0.000888199
0.00294837
0.0076531
-0.0106015
0.00712673
0.00158171
-0.000948886
-0.00775956
-0.00655048
0.00523613
0.000525326
0.000789023
-0.000625831
-0.00934525
0.000549238
0.00942184
-0.00685392
-0.000867377
-0.000274701
0.007996
0.00392537
-0.0086974
8.75579e-05
0.00341893
0.0051909
7.48001e-05
0.00564046
-0.00571526
0.000708663
0.0100144
-0.0255648
0.0148417
0.00286961
-0.00723503
0.00687354
-0.00250811
0.00411859
0.00470059
-0.00325545
-0.00556373
3.65275e-05
-0.00507828
0.00504175
-0.00276631
-0.0019781
0.0112133
-0.00646888
-0.0035222
0.0117281
-0.0101051
0.00189919
0.0124038
-0.00862045
-0.00832094
0.00453757
-0.00508121
0.00347945
0.00158545
1.63109e-05
-0.00075715
0.00402117
-0.00212936
-0.00113466
0.0134338
-0.0104855
0.00619818
-0.000717086
-0.0101473
0.00466622
-0.00282974
0.00264705
0.00317131
-0.00298861
0.000132444
0.0128497
-6.0097e-05
-0.012922
-0.00942427
-0.00308284
0.0127537
-0.000246619