/*--------------------------------*- C++ -*----------------------------------*\
  =========                 |
  \\      /  F ield         | OpenFOAM: The Open Source CFD Toolbox
   \\    /   O peration     | Website:  https://openfoam.org
    \\  /    A nd           | Version:  10
     \\/     M anipulation  |
\*---------------------------------------------------------------------------*/
FoamFile
{
    format      ascii;
    class       volScalarField;
    location    "3.5";
    object      SgRate;
}
// * * * * * * * * * * * * * * * * * * * * * * * * * * * * * * * * * * * * * //

dimensions      [1 -1 -3 -1 0 0 0];

internalField   nonuniform List<scalar> 
111485
(
1.90834e-16
1.07792e-05
2.32326e-05
5.67335e-17
5.51877e-05
1.37002e-18
4.70769e-05
7.33409e-06
1.8613e-05
9.25508e-07
4.62513e-05
1.25269e-05
4.36451e-06
9.12279e-08
6.64978e-06
3.24598e-05
8.64071e-07
0.00289673
1.16453e-05
9.99232e-16
2.51875e-16
1.44043e-18
2.71579e-05
3.60599e-05
1.27106e-05
4.8024e-17
4.81215e-05
1.9131e-06
2.31725e-05
9.51835e-19
5.59065e-05
1.08393e-07
3.26765e-15
1.11453e-17
1.03272e-05
1.82363e-16
1.36492e-05
1.88215e-10
6.92989e-11
2.22502e-05
8.77141e-18
8.4711e-05
1.85084e-05
1.4781e-06
4.91436e-08
3.08267e-17
3.43414e-05
7.54815e-07
5.77933e-05
1.71878e-17
1.32429e-16
5.05351e-16
9.32945e-17
4.97228e-05
3.05912e-16
4.36178e-05
4.04943e-06
4.32931e-18
2.45099e-08
5.52168e-06
1.93632e-05
7.95321e-17
1.73746e-06
0.000117468
2.84822e-16
4.47807e-06
0.000372345
0.000120902
3.75586e-07
5.66085e-06
1.00832e-08
1.69323e-07
9.56673e-17
1.43745e-06
7.39828e-16
1.04941e-06
1.62989e-18
4.76175e-05
2.19935e-17
2.73116e-15
3.01694e-08
3.5348e-05
8.07904e-18
3.67777e-17
8.7446e-06
5.01715e-06
5.32912e-13
2.57816e-05
5.52011e-08
3.00059e-07
8.01388e-07
4.00906e-05
9.54767e-06
4.73141e-09
6.96327e-05
6.10303e-16
2.95557e-16
1.61204e-06
1.62208e-11
1.91164e-06
1.93647e-16
2.23722e-05
2.09509e-18
2.6778e-05
4.52067e-06
4.4375e-16
3.86265e-18
4.18759e-07
4.02661e-06
1.18979e-10
7.0903e-08
5.27739e-06
3.4402e-06
3.64704e-06
4.68184e-16
7.34964e-07
6.15501e-17
1.81207e-16
1.19681e-05
2.54989e-16
1.95878e-17
9.6837e-16
8.38049e-18
2.26875e-17
2.53945e-06
2.75568e-09
1.98547e-17
1.974e-07
5.32467e-17
1.38449e-07
1.55455e-06
3.24317e-05
1.9805e-17
2.34473e-15
1.72698e-16
6.09742e-05
1.03959e-17
1.65624e-05
2.63057e-05
2.51129e-06
1.78087e-07
2.42848e-06
2.5998e-05
3.33766e-06
5.34859e-06
2.63533e-11
6.05061e-18
1.2893e-16
1.69189e-16
2.98305e-05
2.35475e-06
5.19715e-17
1.37461e-10
9.41444e-12
5.78496e-10
1.08307e-05
2.07841e-05
1.47548e-05
1.30377e-10
1.54792e-17
8.72429e-17
6.27868e-05
2.44075e-05
3.72617e-09
3.26641e-10
7.08432e-06
4.93605e-06
3.19578e-17
8.46516e-09
6.62048e-08
6.84628e-18
1.93158e-16
1.101e-07
2.80461e-18
2.48518e-10
3.5359e-12
1.47823e-17
2.49838e-16
1.00157e-16
7.98929e-16
1.15562e-16
1.17096e-16
1.38807e-06
7.99288e-06
3.21408e-05
3.54105e-12
7.94346e-06
2.10381e-05
1.17796e-07
1.02519e-17
1.5702e-05
6.68435e-17
3.32202e-17
1.51489e-05
1.07453e-05
2.61845e-05
6.59186e-06
1.31878e-10
4.69605e-16
8.11045e-06
9.61222e-07
5.4486e-08
1.4335e-05
4.43536e-07
2.70041e-16
4.53855e-07
2.80477e-05
3.30197e-16
2.85416e-07
9.54239e-06
3.50082e-06
6.23192e-06
5.70097e-17
6.71734e-16
3.79232e-05
8.01226e-15
0.000143437
5.37313e-18
5.37611e-06
2.36067e-06
0.000141712
3.81995e-18
1.36043e-06
1.63653e-05
6.5827e-16
2.39597e-17
4.36985e-17
0.000189762
4.9391e-10
3.15225e-16
1.18584e-17
9.51981e-06
3.63715e-09
1.62957e-05
1.09695e-16
8.69421e-16
1.51161e-08
1.55513e-16
2.39069e-06
6.62791e-06
4.98864e-06
3.37551e-06
2.75992e-06
1.07428e-16
3.52205e-10
2.71074e-06
9.39208e-17
3.85089e-19
3.51357e-05
2.39053e-05
1.67862e-16
7.33095e-08
3.79717e-06
2.10758e-16
2.26827e-15
1.8342e-07
3.83484e-17
1.26301e-17
4.40228e-08
1.3049e-16
3.64361e-06
4.38766e-06
4.22483e-11
5.00386e-18
1.15969e-06
2.54048e-17
1.54061e-16
5.20017e-17
2.68166e-11
3.13235e-05
4.41611e-06
4.61003e-06
4.51134e-05
1.05737e-05
2.14914e-06
7.64166e-07
4.67828e-09
7.87804e-09
5.54976e-17
1.43465e-16
3.34372e-10
5.65559e-07
2.86617e-05
4.73886e-09
5.89517e-17
7.43578e-06
2.91393e-06
3.5566e-06
2.25535e-08
4.87241e-09
1.47899e-05
2.74524e-06
2.66448e-06
1.28072e-16
1.0578e-06
9.91435e-18
4.00046e-10
3.71605e-16
0.000304637
8.07824e-05
1.7028e-05
1.2902e-16
1.83509e-17
1.00148e-05
7.59366e-09
4.63957e-16
1.3973e-16
1.83382e-15
2.63507e-07
6.49938e-09
3.78758e-06
1.78247e-05
2.39548e-05
3.49547e-16
2.13311e-18
1.19626e-16
7.74848e-06
1.57564e-15
1.18437e-06
0.000224807
5.43554e-10
7.20884e-19
2.53504e-16
2.46211e-16
2.91962e-15
6.49013e-05
1.4044e-05
1.33086e-17
5.0091e-06
1.54884e-15
8.14008e-17
8.88882e-05
6.1808e-06
1.34364e-05
6.76003e-06
1.10462e-15
1.46261e-15
8.36795e-17
1.11827e-05
2.08689e-11
6.33384e-06
2.30897e-17
2.60793e-13
2.67496e-07
1.63881e-06
7.40878e-06
6.70889e-08
3.53716e-05
1.02981e-17
4.45614e-05
5.46661e-07
8.34851e-06
3.15793e-05
1.36899e-05
5.74824e-18
6.39197e-16
3.6621e-17
1.29526e-17
3.67995e-05
1.67619e-05
4.90082e-05
8.16028e-05
4.26729e-17
2.0323e-05
3.21649e-18
3.14419e-16
1.63536e-05
1.99559e-17
5.64667e-05
1.71238e-16
3.83793e-18
2.7525e-05
7.4114e-18
3.47259e-11
9.50023e-07
2.01939e-18
1.28617e-06
2.0542e-05
3.65224e-16
5.49238e-06
1.33899e-05
7.07271e-06
4.83127e-07
7.57373e-11
1.10323e-09
2.56849e-15
2.49264e-16
1.3736e-06
5.17062e-17
5.50078e-06
0.00014902
1.22557e-16
1.22164e-16
2.8924e-05
9.0382e-08
5.17975e-09
2.98539e-05
1.0165e-17
5.14414e-05
3.0992e-05
1.04039e-17
8.48313e-07
2.79827e-06
1.356e-16
2.06259e-16
3.95322e-11
5.27083e-06
8.68817e-17
2.12457e-17
1.75593e-11
3.15538e-16
1.35067e-05
9.94351e-18
2.83073e-16
2.2161e-05
2.27442e-09
1.68823e-05
2.7443e-05
1.61404e-17
1.0207e-15
1.12116e-06
2.96633e-16
1.32248e-07
1.22394e-05
0.000136744
0.00106938
3.46704e-18
9.52831e-08
3.41626e-07
1.34416e-15
4.02875e-05
4.15726e-05
2.36153e-17
1.29035e-11
1.05217e-07
1.49178e-15
2.63369e-05
3.43719e-05
2.16209e-10
1.20429e-17
1.06262e-10
2.60097e-05
1.42854e-10
7.3771e-10
7.40507e-16
1.98053e-13
1.78577e-17
1.52361e-08
1.00443e-10
5.22672e-18
1.0343e-05
8.14471e-08
6.88137e-16
5.06444e-18
9.97906e-17
3.76414e-16
6.726e-06
2.03397e-10
5.84233e-06
3.00724e-06
3.59942e-06
1.60724e-17
3.68389e-06
3.14331e-16
3.79471e-05
5.9121e-17
1.60879e-16
2.49455e-16
4.20787e-05
1.55733e-16
5.56375e-16
3.34342e-10
9.79925e-17
2.14577e-17
9.45154e-07
6.83278e-17
1.26612e-15
9.78248e-18
1.97002e-17
4.28052e-16
5.25818e-16
2.8869e-17
8.85634e-06
3.10295e-18
3.72143e-07
2.46551e-06
1.58883e-06
5.03115e-17
6.32809e-07
1.03435e-18
1.15273e-16
2.61336e-06
1.69435e-06
2.9846e-05
2.64946e-05
7.69653e-17
2.50891e-06
7.66567e-05
8.37113e-10
7.43242e-10
3.1385e-06
2.06763e-16
4.22657e-10
2.20043e-15
3.96467e-06
6.7289e-17
7.79497e-05
1.65808e-15
1.28015e-08
6.05465e-07
9.59415e-12
2.31617e-17
2.62256e-09
1.21058e-16
9.64787e-05
5.17875e-05
5.68436e-18
2.93045e-18
1.05728e-15
5.83414e-18
2.56494e-13
6.54872e-05
1.21339e-18
9.68104e-17
3.94016e-06
1.49266e-18
3.36992e-05
2.90443e-17
4.19073e-07
4.79823e-16
5.88936e-07
8.32256e-10
1.5384e-06
1.34589e-08
1.25396e-17
2.77766e-12
2.057e-16
6.72116e-18
1.60787e-05
4.84984e-18
3.65179e-08
3.32039e-16
1.59595e-06
1.0003e-15
8.04572e-05
9.87304e-17
7.83252e-16
1.77775e-05
3.10102e-06
1.59619e-06
4.12107e-06
5.86501e-06
2.50884e-05
3.20699e-17
2.10218e-05
6.62774e-06
8.39287e-18
8.37399e-11
4.10048e-05
1.30307e-05
1.0817e-15
5.92255e-06
6.35893e-06
1.37674e-06
1.50554e-06
2.27089e-13
1.53912e-05
9.30815e-07
2.11273e-07
2.7712e-05
1.28988e-08
1.06771e-06
4.21701e-16
3.31207e-12
0.000756802
2.65087e-16
5.47329e-07
2.32088e-17
1.85433e-15
4.37902e-07
3.94475e-06
1.73496e-10
1.30158e-08
3.40166e-15
1.88003e-05
1.36182e-05
1.02488e-17
1.20767e-13
3.38269e-06
1.32388e-16
3.20696e-17
5.19827e-18
2.45625e-16
1.74193e-05
1.22742e-17
2.68036e-17
1.06372e-05
9.77545e-07
3.07742e-16
1.13878e-05
4.82422e-16
6.00866e-06
8.1192e-17
8.05282e-17
6.07471e-05
1.90477e-18
8.74959e-17
3.71615e-15
6.12021e-12
9.47848e-16
3.63004e-05
6.33156e-07
1.33624e-16
9.21966e-05
2.5185e-06
3.02466e-05
2.97756e-05
1.18106e-06
8.28195e-08
1.80085e-17
7.17992e-05
4.35442e-05
1.39443e-16
7.59227e-08
5.03562e-05
6.30862e-06
9.13389e-13
3.30284e-05
3.01904e-05
1.36717e-16
1.61296e-05
4.21748e-09
3.13928e-16
3.56867e-05
3.03487e-07
5.6879e-16
1.1626e-06
4.07051e-05
1.90304e-06
2.00138e-05
1.94449e-05
1.20342e-07
2.3272e-15
1.0278e-05
3.03339e-07
1.33673e-14
1.62028e-05
1.60812e-05
2.10781e-06
8.33752e-18
1.45091e-11
4.5841e-17
1.83834e-17
1.60376e-18
9.91485e-18
1.55809e-08
1.03153e-15
1.79294e-13
5.61509e-16
3.71561e-17
3.03117e-08
4.45472e-05
2.52401e-16
4.14149e-05
2.03523e-17
9.30273e-16
5.48216e-16
4.61835e-05
5.72321e-07
1.16168e-15
1.86424e-17
1.06121e-17
2.54895e-18
0.000292792
1.40962e-06
1.57382e-15
1.98663e-06
4.04716e-09
3.65636e-17
4.10162e-05
7.19226e-06
9.38488e-09
5.29763e-18
1.9859e-17
4.60759e-07
5.02725e-07
1.53148e-15
1.23267e-17
5.1165e-16
9.8943e-06
1.41061e-17
6.45806e-16
1.68784e-17
4.72438e-05
2.35937e-06
3.17312e-18
0.00495179
0.00022666
4.8657e-09
4.44994e-17
9.39781e-17
6.42401e-05
3.26809e-07
3.53519e-16
7.70846e-09
0.000181017
3.44117e-06
2.66297e-11
1.1816e-15
7.09087e-05
1.90545e-06
4.08294e-17
1.02964e-16
8.06267e-18
2.38771e-17
3.82729e-17
1.0296e-17
2.38151e-05
4.79078e-16
2.90299e-17
5.92362e-16
1.02584e-05
2.24669e-06
8.7038e-17
7.1496e-17
0.000126721
3.25503e-06
4.3667e-06
1.22158e-15
6.40231e-18
1.03979e-06
8.12806e-17
2.94391e-06
1.72568e-06
6.58978e-07
1.52041e-17
3.1595e-16
4.43271e-16
1.97006e-19
1.57737e-05
1.81024e-20
7.9342e-18
1.21753e-06
2.67761e-17
9.03209e-06
1.53131e-06
1.82514e-16
1.78466e-06
0.000647216
4.63701e-06
3.48145e-05
2.84061e-07
5.80229e-05
1.79175e-13
2.71036e-15
7.77758e-06
9.20952e-05
5.78427e-12
1.06854e-16
1.24976e-12
0.000766794
7.71581e-10
1.92467e-17
3.60008e-06
3.20989e-06
1.55187e-06
1.49232e-17
4.16523e-16
1.63168e-17
7.43997e-07
1.46777e-15
3.37609e-08
3.62685e-16
1.08123e-06
3.59308e-10
1.5436e-07
4.52484e-07
2.75976e-17
3.4498e-17
1.87978e-17
3.07423e-06
9.745e-17
3.15502e-17
6.07413e-08
2.58871e-17
2.35482e-17
1.67324e-17
8.59294e-18
6.33034e-08
7.89624e-17
2.63969e-18
6.46704e-13
3.93986e-16
8.77461e-17
8.73261e-17
4.15981e-17
4.70719e-09
3.34638e-07
9.85749e-17
5.05487e-06
1.17153e-08
5.90788e-10
8.22631e-08
8.18357e-08
2.36199e-17
9.5574e-09
1.13642e-05
3.62507e-07
3.03859e-16
1.36129e-11
1.02814e-07
5.61511e-16
1.85471e-07
3.59082e-07
2.34409e-09
2.48867e-05
2.39499e-08
2.65587e-06
7.24702e-11
5.19525e-08
6.21086e-17
1.14283e-16
3.75352e-08
1.12005e-08
1.13748e-17
4.85954e-09
6.55071e-05
7.74097e-08
3.74388e-16
1.87462e-06
2.87064e-18
7.33336e-08
1.09126e-07
2.2181e-16
1.11474e-09
5.99253e-08
1.74155e-09
2.29991e-10
2.25368e-16
6.27966e-05
2.30908e-08
2.1704e-06
4.19195e-08
1.84461e-08
5.88456e-19
6.53034e-18
1.05064e-05
3.88828e-18
1.71307e-07
3.09981e-07
6.26191e-08
7.44559e-11
7.92003e-11
1.50633e-09
8.84896e-19
2.57096e-15
2.59559e-05
4.72726e-16
8.6067e-07
2.34001e-06
5.07827e-16
7.7515e-17
7.08342e-10
2.44102e-13
2.15395e-18
4.30591e-09
6.90374e-18
2.47519e-18
1.74688e-16
1.90962e-16
6.68414e-17
2.03755e-16
4.20907e-07
8.06525e-17
1.22367e-16
4.20373e-16
6.96318e-09
5.73599e-08
1.68746e-06
8.57987e-06
5.81908e-18
4.17587e-17
2.08165e-07
2.34244e-17
4.24124e-17
4.02764e-16
2.14962e-05
4.25655e-05
3.48013e-17
6.953e-17
2.11487e-16
2.38567e-17
6.90914e-19
1.54879e-17
8.4318e-06
4.21965e-17
5.54838e-11
2.86654e-05
1.26381e-17
2.73467e-16
5.64181e-18
1.87765e-08
8.60561e-17
2.11054e-16
2.22962e-18
7.50098e-09
3.14525e-17
5.29968e-06
1.25481e-09
4.69731e-12
1.65931e-17
6.25557e-08
2.92804e-06
5.47217e-05
1.74377e-16
6.77952e-09
8.16644e-06
1.07219e-16
6.96213e-17
8.64443e-16
2.43423e-16
6.37847e-06
5.75038e-06
4.06875e-06
2.05449e-10
6.68248e-18
1.82744e-05
1.80785e-16
5.57904e-16
2.4707e-16
1.97129e-17
2.94758e-05
3.4082e-18
2.1665e-16
2.4202e-09
1.89892e-05
2.76743e-17
3.73169e-06
9.68792e-16
1.15103e-06
1.33359e-15
3.5019e-18
9.32378e-18
1.68174e-16
1.5134e-08
7.978e-07
0.000415294
2.30957e-18
4.8125e-16
2.29294e-08
6.04953e-18
8.82673e-16
3.98998e-16
5.5203e-05
7.15425e-09
2.9882e-05
1.86007e-16
7.73424e-09
3.69157e-08
2.88826e-15
8.68419e-08
1.25749e-16
2.39185e-06
2.92166e-05
2.87611e-05
1.68011e-06
3.06128e-07
8.52705e-19
2.19723e-18
4.44194e-17
1.66238e-08
2.61398e-17
6.31268e-06
9.99388e-17
0.000212243
6.92252e-17
4.83158e-05
2.951e-06
2.54017e-16
1.17764e-17
3.28998e-16
3.47232e-17
3.74425e-05
2.0899e-16
6.23872e-16
1.48647e-08
6.82784e-06
1.11494e-15
8.93588e-16
9.99493e-16
1.27606e-15
1.42143e-16
1.14256e-18
2.49304e-05
4.57794e-07
9.55333e-17
5.7392e-17
4.02635e-10
1.86194e-17
1.8857e-06
2.33692e-10
1.88437e-16
2.91332e-06
1.73956e-16
3.76202e-10
2.85924e-17
8.5498e-07
8.04416e-17
1.29587e-10
2.31163e-09
9.85861e-07
1.66154e-05
3.20391e-05
1.23827e-09
5.47666e-17
5.53074e-07
1.23471e-16
5.04977e-06
1.19736e-16
4.96208e-18
2.98546e-16
9.63516e-19
2.40904e-17
3.21414e-17
6.59607e-06
6.90711e-06
1.28784e-16
2.07187e-16
6.24484e-16
5.42741e-07
1.78962e-08
1.10068e-15
2.24976e-05
2.35899e-07
2.44427e-17
4.69941e-07
6.26056e-08
3.86989e-06
1.53435e-05
1.47482e-17
4.86827e-18
5.67012e-19
3.41229e-18
4.17479e-05
2.40298e-18
0.000125131
1.44462e-17
2.32297e-07
7.94313e-07
1.89259e-17
7.14904e-07
1.49737e-17
6.52933e-18
2.50293e-06
3.44648e-11
8.19866e-06
5.77124e-18
1.026e-16
2.46556e-17
4.62651e-07
1.16108e-16
5.62538e-17
4.18121e-16
5.22452e-10
4.01942e-16
1.17468e-08
3.33701e-16
2.49544e-16
5.31032e-17
4.49974e-07
2.81246e-07
2.39097e-05
3.94983e-05
1.22514e-18
8.37079e-09
1.03715e-17
1.24256e-16
1.06886e-08
1.24511e-16
3.07407e-09
2.78983e-07
2.92592e-08
2.71921e-07
1.65087e-13
3.37589e-06
1.48479e-17
4.77911e-13
9.48074e-13
9.48782e-08
1.44824e-06
1.92567e-05
7.92122e-11
1.04914e-16
3.19437e-05
6.4583e-17
1.06018e-16
2.65876e-08
9.86657e-05
9.51289e-11
3.51673e-18
1.61606e-18
6.19884e-10
1.2197e-16
5.73155e-18
9.93513e-09
3.29945e-17
4.00028e-16
4.21202e-05
1.48047e-07
1.18725e-07
2.58533e-05
2.96073e-06
4.08076e-17
4.49427e-20
9.11802e-09
5.34092e-06
2.36961e-18
1.44341e-16
1.47003e-05
2.52846e-16
3.59597e-16
8.38467e-16
9.85562e-16
7.32661e-16
0.00308387
1.37593e-18
3.18244e-07
9.87452e-17
1.91275e-05
9.49015e-18
7.94901e-16
1.08066e-15
3.5312e-16
7.11773e-17
7.09122e-17
5.0909e-06
1.25833e-17
2.88718e-17
6.1056e-16
4.99234e-17
7.8589e-17
2.06654e-17
1.12377e-05
1.36498e-17
1.21144e-05
2.61888e-06
3.07543e-17
2.87087e-06
8.8361e-18
4.49636e-07
2.06588e-09
6.67689e-09
3.40942e-08
5.43267e-17
2.64901e-08
1.19953e-05
7.92577e-09
5.53234e-16
1.54825e-09
1.29028e-05
2.20963e-10
1.19201e-15
8.98433e-10
5.41884e-16
9.58157e-17
1.81279e-17
1.85314e-17
2.46701e-10
1.37937e-17
4.67824e-17
4.482e-10
7.34395e-11
3.26843e-11
2.06474e-17
3.07e-17
9.60708e-07
2.04197e-17
1.34704e-07
2.29645e-17
2.1297e-08
1.11609e-16
9.1828e-17
9.01302e-08
1.12373e-16
1.17438e-07
2.36914e-16
4.8683e-17
6.59476e-06
5.33748e-07
3.48542e-06
2.24157e-05
0.000264448
2.24453e-05
2.3987e-17
5.03616e-15
2.35119e-06
3.03371e-06
4.02719e-05
1.51419e-05
8.21488e-18
1.34168e-05
4.46004e-18
5.64334e-17
8.42585e-06
1.28618e-05
2.96037e-17
9.38481e-06
4.32353e-17
3.10061e-06
1.72334e-06
1.26018e-16
1.91351e-18
1.15428e-18
2.6532e-06
2.05786e-17
2.76637e-18
3.84921e-06
5.37544e-06
5.16932e-09
6.89964e-10
6.57813e-17
8.13931e-18
7.26206e-08
8.6343e-07
1.6803e-16
9.5308e-06
2.48291e-15
2.25334e-06
7.19797e-17
7.75065e-17
1.19954e-05
4.94919e-17
4.0033e-08
3.13629e-06
9.49033e-17
9.50994e-18
3.69646e-06
3.47845e-14
5.62581e-05
3.53476e-16
0.000317329
3.12799e-16
3.39865e-16
3.98815e-16
6.72635e-06
1.00981e-15
8.09082e-17
5.64386e-06
3.31148e-16
2.30396e-07
1.32871e-15
1.58966e-16
2.66456e-17
1.78361e-10
6.37995e-07
1.80498e-18
8.29363e-18
3.7786e-05
7.35767e-07
1.74795e-17
6.93512e-07
8.49467e-18
2.01576e-16
1.24935e-09
4.86997e-06
1.14756e-12
4.30268e-17
1.01198e-17
2.53387e-17
6.58681e-18
6.64274e-17
5.56483e-17
3.82863e-17
1.6139e-17
7.2765e-17
1.74382e-17
6.42581e-18
1.1961e-16
7.35935e-18
1.7392e-17
1.66495e-17
3.46701e-17
1.13365e-18
1.27361e-17
5.1904e-17
7.25343e-19
1.19509e-16
2.01529e-05
1.38299e-18
2.71624e-17
2.20773e-17
6.80597e-06
5.5811e-17
7.40915e-17
0.000262617
8.35785e-16
1.21261e-17
2.42203e-05
8.1092e-15
1.05964e-17
6.3016e-06
2.73505e-05
6.2932e-18
1.74579e-06
3.0823e-06
4.18401e-16
1.49247e-05
4.57664e-05
1.79923e-05
2.09668e-06
3.44287e-06
5.96808e-16
9.78973e-17
3.7845e-06
1.458e-05
1.71391e-06
8.82416e-18
3.43434e-06
1.983e-06
1.8388e-05
1.96826e-09
5.9848e-10
1.33108e-05
1.31593e-06
7.1984e-06
9.3676e-17
3.09782e-05
8.60323e-06
2.60401e-06
9.25298e-07
2.4083e-18
3.45966e-17
7.41285e-17
2.28305e-16
3.7075e-18
1.35324e-05
1.40119e-05
3.31676e-18
9.82872e-18
3.65344e-16
4.81045e-18
9.87414e-17
7.56778e-17
2.31015e-17
2.8513e-16
4.76557e-06
1.42279e-07
2.19047e-05
6.57741e-08
5.58624e-17
1.58067e-15
3.44654e-05
5.22164e-09
7.04831e-18
1.30782e-17
1.01263e-05
4.06779e-16
1.4535e-17
1.29158e-08
7.41019e-06
1.7112e-05
3.11684e-05
2.99313e-05
1.46767e-16
1.06922e-11
2.98996e-07
6.42615e-17
3.04386e-17
1.08801e-05
5.42409e-16
4.51908e-17
2.90284e-05
0.00123388
2.57755e-07
5.01218e-16
1.98809e-16
1.31254e-05
3.23923e-05
1.92176e-11
5.40402e-06
2.96993e-06
3.81303e-17
1.81889e-09
2.84844e-12
6.87438e-16
3.07857e-16
2.4034e-05
1.7832e-17
2.71216e-06
5.76287e-11
1.7144e-05
8.88718e-06
6.98886e-16
2.98086e-05
9.32869e-17
3.40526e-16
2.10044e-16
2.47676e-18
7.46606e-08
0.000911292
9.8483e-19
1.16841e-17
9.86701e-09
2.91439e-05
6.79499e-07
6.02965e-06
3.59708e-05
1.67525e-08
1.90582e-05
1.19642e-16
2.11184e-16
4.68435e-16
3.63309e-05
3.22302e-06
2.76842e-11
5.43863e-17
7.30703e-17
4.71053e-16
2.27813e-05
4.32303e-06
1.21652e-17
2.6433e-06
5.94764e-05
1.05233e-05
3.95812e-06
1.00978e-16
3.29995e-16
1.86248e-06
2.93937e-05
9.21194e-18
2.42075e-07
1.41809e-05
1.35533e-06
1.20979e-05
1.15715e-05
2.19429e-06
5.05545e-16
9.69948e-09
1.79648e-05
1.73351e-05
1.30806e-12
2.72961e-05
1.48391e-16
1.73845e-05
4.63857e-06
1.59474e-18
1.52694e-09
6.93593e-06
5.40716e-06
1.13934e-05
4.03151e-10
2.04888e-07
2.29289e-08
3.27613e-05
3.09256e-06
4.90544e-17
3.54278e-08
6.8659e-06
1.579e-17
2.45261e-18
3.69569e-11
8.82708e-09
1.54978e-06
0.00123777
4.38505e-05
1.08965e-05
2.69146e-10
4.96356e-05
6.99728e-17
3.15236e-16
6.46058e-06
3.42688e-18
1.38506e-06
6.01939e-06
5.88775e-06
2.47205e-09
6.40008e-17
1.64244e-07
0.00011028
5.37365e-17
4.36131e-05
3.23638e-06
3.25925e-16
2.18928e-05
1.95795e-07
1.15674e-15
3.49737e-12
5.84227e-08
3.5584e-16
1.19403e-17
1.23406e-17
1.29345e-09
4.73728e-06
1.5499e-05
1.13259e-17
6.54263e-06
6.88863e-07
4.26375e-16
4.44332e-07
5.33375e-07
4.15668e-08
1.69534e-06
1.58977e-17
3.03391e-07
5.64985e-09
8.54153e-07
1.59899e-06
7.81996e-08
0.000175896
5.36287e-06
8.58489e-16
1.75082e-12
1.84978e-07
1.01923e-16
4.84e-07
6.72457e-17
5.22781e-18
4.40262e-16
1.6696e-16
1.2418e-17
3.61049e-06
4.61198e-18
1.01813e-06
2.08518e-06
5.71416e-16
5.62146e-06
3.26415e-15
5.84496e-08
1.92508e-17
1.69425e-08
4.54657e-16
2.16482e-05
1.75738e-07
2.14892e-09
2.04352e-06
1.21461e-07
1.93966e-05
1.43098e-08
6.54986e-07
3.29895e-15
2.55141e-06
6.1157e-05
1.62548e-06
1.50592e-16
1.07411e-06
3.49483e-07
1.61757e-06
1.46227e-05
8.62073e-07
9.13714e-16
9.36944e-16
6.74645e-18
5.29103e-06
2.24802e-16
7.42865e-08
2.62177e-10
7.29803e-07
4.38183e-07
5.1823e-17
2.01005e-16
1.24217e-17
3.05482e-06
2.8284e-05
1.97449e-07
1.05438e-08
1.02304e-09
6.05102e-06
7.82185e-07
1.45332e-06
4.93889e-08
7.37014e-06
2.94981e-06
1.47044e-16
4.49079e-18
9.85158e-18
1.50269e-05
1.15789e-05
5.77055e-16
8.19268e-18
7.95485e-16
4.8927e-05
2.4664e-07
1.60441e-16
3.47157e-06
1.2563e-16
5.406e-10
7.0481e-06
9.97597e-05
9.48158e-17
8.5188e-17
5.25844e-06
1.65585e-16
1.19731e-07
2.22891e-07
1.43209e-16
1.14352e-05
3.84032e-05
5.72478e-09
5.56062e-17
1.1769e-06
1.17569e-16
6.92375e-08
5.68298e-05
4.63356e-16
4.13921e-16
6.74896e-07
1.33551e-15
6.7591e-17
5.23821e-07
2.7995e-10
1.60857e-16
5.0791e-17
1.00697e-16
1.62938e-05
1.89594e-06
4.40752e-06
2.22999e-05
1.20025e-05
2.52029e-16
5.16419e-10
6.45021e-07
1.08212e-17
2.0366e-17
5.67669e-17
2.4019e-16
1.12468e-16
1.06344e-16
2.8212e-16
1.30265e-16
1.59326e-16
1.1494e-15
4.30593e-12
2.22645e-16
5.26004e-07
7.23783e-16
1.28152e-07
7.63556e-17
7.28269e-08
2.78035e-16
1.97434e-16
2.42596e-05
1.03086e-05
1.10225e-16
0.000102133
4.72715e-13
7.84257e-13
1.20554e-17
1.25545e-06
3.80515e-15
2.64663e-06
7.05243e-09
1.25982e-06
3.48005e-16
1.79432e-16
6.51403e-07
5.37049e-11
3.87013e-17
2.76048e-16
4.55515e-05
7.27431e-16
4.39013e-05
9.93719e-17
2.57038e-18
4.16482e-11
3.16613e-05
9.05997e-06
1.91706e-17
4.95001e-07
1.51454e-15
1.63715e-06
1.67034e-08
6.17471e-07
6.64045e-07
4.91016e-18
2.34026e-05
1.06734e-06
7.38289e-06
1.3283e-17
8.85568e-18
2.53608e-17
7.74346e-06
9.59461e-07
4.49643e-05
1.48955e-16
3.13259e-10
5.86908e-17
4.97541e-18
2.97143e-16
2.08196e-17
2.54829e-06
1.46633e-06
3.99434e-06
0.0003489
5.52076e-17
3.60936e-05
3.9344e-05
5.14301e-06
1.1445e-06
3.84943e-17
4.58917e-06
3.38108e-06
6.48261e-06
7.58676e-10
9.65647e-06
2.03353e-16
2.33404e-06
9.07397e-07
3.77127e-05
7.31814e-10
3.30361e-06
2.29774e-16
2.31872e-05
3.00088e-16
9.58553e-16
2.07109e-06
9.42466e-16
9.66494e-06
4.13751e-16
4.09563e-17
1.50143e-15
9.81689e-18
2.4059e-16
6.33995e-07
1.46818e-16
7.23315e-07
2.81126e-16
8.16454e-18
2.46518e-05
6.87261e-06
5.36635e-06
1.07648e-05
9.18294e-17
0.000635466
2.17663e-16
7.55257e-05
4.33992e-18
2.33992e-05
2.03865e-05
1.93387e-06
6.64329e-05
2.22189e-16
8.10063e-17
3.06742e-17
2.32386e-06
1.35484e-17
2.17879e-17
1.29608e-05
1.54993e-16
4.40474e-17
4.60878e-06
1.53254e-16
1.042e-05
1.06829e-10
3.44528e-17
1.00272e-16
5.02775e-17
8.72132e-07
6.49897e-06
2.09142e-16
3.87289e-11
2.52663e-07
4.08815e-16
0.000123779
1.07176e-16
9.17454e-06
1.78859e-05
2.306e-05
4.38472e-16
2.12828e-05
1.06043e-05
9.29189e-07
4.58559e-06
1.65883e-05
5.97718e-17
3.58423e-16
1.87758e-09
1.60447e-16
1.30534e-17
1.14842e-16
1.55955e-05
4.92086e-05
5.49943e-06
1.65723e-06
1.31446e-16
4.64235e-05
4.89201e-05
4.91454e-06
3.77562e-06
8.32451e-06
2.43135e-05
2.18838e-06
6.21913e-18
2.24116e-18
2.48784e-18
5.564e-06
1.45729e-17
2.93415e-05
7.46958e-16
8.14848e-07
3.6474e-10
2.03085e-06
1.57041e-07
4.12203e-18
3.96659e-16
2.46038e-06
3.56305e-07
1.85404e-16
2.13286e-17
5.4048e-17
1.57775e-07
1.9093e-07
1.04824e-07
6.63866e-07
6.30386e-09
9.52002e-05
2.275e-16
4.82663e-17
1.04358e-17
1.99918e-09
1.67022e-05
1.54183e-11
3.25821e-05
2.03792e-06
2.23396e-06
4.08052e-17
1.40087e-16
4.30378e-16
6.8146e-17
1.52224e-09
2.35646e-05
3.3016e-17
2.51225e-16
5.99759e-16
8.87116e-17
4.39268e-17
3.4315e-16
1.2056e-05
1.19794e-15
1.41495e-06
0.000403228
1.28466e-16
1.77185e-08
6.79636e-11
2.09577e-07
2.68093e-17
2.85563e-16
4.27502e-06
6.72576e-17
1.48951e-05
1.34107e-09
2.04743e-05
7.34422e-17
3.92825e-15
9.31664e-18
2.03192e-17
1.94975e-16
5.45362e-16
0.000217741
9.5628e-17
4.73849e-06
9.61888e-07
5.12756e-17
1.32873e-15
2.11471e-06
1.80857e-16
9.32364e-19
1.47758e-05
5.7804e-08
5.61556e-17
6.11303e-16
4.30359e-17
6.78302e-07
2.72633e-16
3.28477e-16
3.76452e-07
2.15834e-06
2.74686e-06
1.51105e-16
1.1493e-16
4.68499e-17
3.12316e-06
1.53125e-06
1.04881e-05
3.07827e-06
1.90517e-17
4.97187e-07
2.96071e-11
4.1867e-10
9.325e-17
1.20646e-15
1.68551e-16
3.09846e-17
4.24047e-16
3.05159e-05
5.82848e-06
4.56263e-06
8.65487e-17
1.03333e-17
3.8466e-16
2.51921e-16
5.49694e-17
9.77884e-10
2.90866e-11
2.31822e-12
8.55688e-18
9.10571e-16
3.86365e-17
3.74371e-12
3.32001e-05
0.000124238
3.10799e-18
3.85798e-13
1.77566e-15
8.42631e-17
4.36023e-16
2.68595e-06
7.09345e-06
7.87091e-17
2.74024e-16
3.88929e-06
4.18745e-16
5.2818e-07
8.21077e-07
0.00244694
6.66779e-17
2.45248e-16
9.23382e-06
3.91028e-07
6.8328e-17
0.000770222
4.87025e-11
8.74735e-06
1.94885e-16
1.48797e-16
1.60657e-16
2.29958e-17
1.50153e-08
2.00923e-08
4.84958e-16
3.01282e-05
1.84554e-05
0.00099729
4.28127e-17
2.88127e-17
2.08801e-16
9.59401e-17
5.70851e-06
5.61637e-11
3.60198e-16
1.582e-16
7.42767e-07
1.60727e-06
6.72852e-07
1.01444e-16
1.10295e-16
3.05415e-05
1.14173e-16
1.45054e-16
1.3635e-18
8.28004e-17
2.78092e-05
1.87212e-16
1.38858e-17
2.88776e-17
6.87015e-07
1.94459e-05
4.96031e-17
1.81805e-16
4.66712e-18
1.74182e-05
1.19572e-10
4.92641e-17
2.292e-17
6.2961e-16
1.71616e-16
2.69659e-06
1.00832e-05
6.2065e-18
2.22228e-06
8.34908e-07
4.37466e-06
1.84638e-16
8.06145e-16
7.17443e-18
1.34045e-16
1.34731e-17
2.82859e-05
1.43834e-15
1.81606e-05
3.79907e-17
1.29951e-06
1.85876e-16
1.84889e-06
1.53326e-16
1.35405e-17
1.31838e-05
0.000261846
1.10084e-15
2.68897e-06
2.35213e-16
2.92255e-07
2.29995e-17
1.92434e-16
1.97862e-16
1.92638e-10
1.48086e-16
4.56254e-07
2.68807e-16
3.85692e-05
2.14426e-17
1.18776e-15
7.32784e-18
1.49127e-16
8.08472e-07
1.75705e-07
2.09619e-18
5.12243e-06
1.12421e-17
4.7473e-06
2.09032e-05
1.05976e-06
1.41467e-17
4.28915e-09
3.37576e-07
1.47264e-09
7.29429e-06
4.37829e-10
1.22721e-06
5.55228e-16
4.5422e-17
4.06985e-10
1.11938e-05
1.92138e-07
2.60103e-17
4.34354e-17
3.31265e-16
0.000561181
4.1656e-16
2.35937e-17
1.62556e-16
6.0727e-16
7.2587e-18
9.96612e-08
1.52183e-07
9.20345e-07
1.76395e-06
8.08276e-17
1.26394e-06
1.53647e-16
8.36275e-06
2.91181e-16
1.15509e-16
6.31131e-19
2.17115e-16
2.29341e-08
1.05909e-16
9.80147e-17
3.14731e-16
1.59825e-05
4.03914e-16
1.49586e-17
1.38714e-05
5.72232e-16
5.25317e-05
9.09966e-05
0.000499281
2.04853e-16
0.000245733
0.0014764
0.001965
0.000803891
7.42391e-17
3.18204e-18
4.92616e-06
6.49555e-06
1.04651e-16
4.70818e-06
1.55142e-17
3.10299e-05
3.80466e-16
2.62973e-16
5.32997e-07
4.80611e-16
7.15789e-16
1.0079e-08
2.98427e-08
6.84551e-17
3.27537e-17
2.50014e-09
5.08888e-16
2.78412e-16
2.45178e-08
8.36259e-06
1.19941e-06
5.24454e-16
7.25163e-06
7.27434e-16
2.59491e-06
4.98687e-10
6.50561e-06
4.72945e-17
4.35198e-12
5.77817e-06
2.63508e-16
5.57746e-13
1.30306e-17
3.54376e-05
3.48692e-17
1.1225e-05
6.4675e-17
4.4754e-10
1.04843e-17
1.52375e-16
8.14984e-18
1.33362e-13
3.79787e-13
1.76407e-16
1.12954e-05
7.13044e-06
2.69474e-17
2.0395e-17
4.01218e-05
5.66748e-11
0.000214247
1.76708e-16
6.29158e-08
2.45593e-05
5.23671e-05
4.03194e-12
2.43555e-17
7.13234e-05
5.03579e-17
0.000260393
2.80773e-16
2.46934e-11
2.68036e-11
2.67135e-17
5.9271e-07
4.8471e-16
2.61298e-05
8.24752e-18
2.86447e-16
6.17985e-17
2.589e-16
5.33013e-16
9.2054e-17
3.26299e-07
2.42244e-06
0.000164429
3.35617e-16
1.7634e-17
4.89274e-05
2.40838e-16
4.36114e-19
7.00277e-17
1.84212e-16
3.55588e-16
9.70005e-12
1.61906e-17
3.15061e-16
3.37464e-19
1.47527e-11
6.74356e-16
1.06983e-17
6.95718e-17
5.24584e-09
1.68891e-17
8.58803e-09
0.000246788
5.23379e-06
1.00079e-08
1.17653e-08
1.35582e-16
1.18536e-16
1.52372e-16
1.84235e-09
4.52564e-07
2.75291e-17
5.00194e-15
5.32117e-09
2.40369e-15
2.26304e-16
0.000374615
7.78656e-17
2.27402e-05
1.06378e-16
1.60687e-08
3.84285e-06
1.95998e-16
1.89334e-18
2.96301e-17
7.63097e-18
2.11357e-16
2.0685e-05
1.80424e-16
1.28964e-08
1.30165e-16
1.21444e-16
1.51014e-06
1.08051e-17
1.74766e-05
4.13605e-16
6.38301e-17
1.88365e-06
1.9484e-07
0.00015228
1.11305e-15
7.19463e-17
1.00188e-16
4.14769e-07
0.000197681
6.43251e-17
2.28393e-18
7.42469e-16
2.80997e-05
2.86203e-16
2.62643e-05
3.01722e-05
9.82216e-16
1.69562e-17
1.65103e-05
1.07976e-15
2.77963e-16
6.01498e-18
4.9938e-17
7.24055e-17
7.15677e-05
3.65359e-16
8.17398e-16
6.16161e-17
1.7677e-16
7.80769e-17
6.81617e-18
8.98299e-17
5.06979e-17
5.04109e-16
8.9496e-06
4.70363e-16
9.91332e-06
5.02431e-16
1.82815e-16
0.000663115
7.41688e-06
6.81396e-17
1.19307e-16
8.79274e-17
1.31763e-05
2.98595e-16
4.05902e-16
7.5659e-16
3.42742e-16
1.10513e-05
3.82117e-18
3.44017e-06
2.50112e-16
1.39759e-05
1.73678e-16
6.0461e-05
1.68706e-16
4.78983e-16
1.81897e-05
1.4646e-16
1.42488e-16
3.79593e-06
3.15026e-07
1.10577e-16
7.89121e-17
4.41224e-05
1.5104e-05
5.68409e-06
3.45609e-06
4.01939e-06
1.84376e-05
1.59873e-06
5.68982e-06
9.28723e-17
2.61344e-05
2.4682e-16
2.00818e-16
3.88778e-18
7.96419e-16
4.52577e-16
9.46778e-06
3.43088e-16
1.88607e-17
1.39839e-16
1.15161e-09
1.70625e-08
1.75538e-15
3.93285e-06
3.04498e-16
5.82625e-06
1.2785e-17
8.41325e-10
8.65139e-07
9.77811e-16
5.00642e-05
4.91274e-17
3.40241e-17
2.71402e-18
7.91521e-06
1.35451e-06
6.66155e-17
2.95923e-17
6.84864e-06
9.89169e-16
0.000741935
2.39165e-16
9.90891e-05
8.08626e-17
2.46671e-17
8.03443e-16
4.32429e-17
5.1492e-06
6.51291e-18
5.47204e-08
2.34182e-18
8.59255e-06
1.35434e-16
1.21654e-17
6.13115e-15
1.25479e-15
7.51947e-17
1.53676e-15
8.4157e-16
1.85674e-17
4.16147e-06
0.00024788
5.03727e-16
4.33269e-17
4.98226e-07
8.91748e-18
9.52463e-18
2.16759e-09
2.0156e-05
2.15414e-07
4.42759e-17
7.10924e-08
4.69994e-06
5.46002e-06
1.05853e-05
3.22e-16
2.40406e-18
2.1535e-17
8.14589e-17
1.38439e-18
2.79956e-17
1.92158e-17
1.4624e-17
2.69842e-17
7.85895e-18
4.36007e-17
2.06299e-18
8.4934e-05
1.38601e-17
9.02152e-18
2.41485e-12
8.67896e-17
1.80155e-16
0.00125647
2.46905e-17
1.78759e-17
1.62847e-06
3.56946e-13
5.97016e-17
3.06803e-16
7.36617e-17
2.17459e-05
2.49978e-16
2.52447e-16
4.07848e-11
1.9082e-19
9.285e-17
6.30439e-17
1.66785e-16
0.000124746
1.17105e-17
2.3443e-07
8.62918e-17
1.064e-17
5.63957e-17
2.44803e-16
2.48712e-17
3.64565e-11
6.19385e-11
8.10467e-08
1.78597e-16
1.6891e-16
3.59939e-16
1.15301e-10
1.89382e-17
3.25022e-10
2.33798e-11
7.26778e-19
4.09254e-17
3.11389e-16
1.60484e-11
2.78609e-17
2.521e-16
1.91765e-12
3.54924e-15
3.53224e-05
2.29943e-17
7.76422e-06
1.09768e-15
2.26462e-09
9.94079e-17
1.66165e-06
9.61746e-18
3.8573e-06
2.27653e-05
1.50852e-16
2.45034e-06
1.13986e-08
3.16724e-17
9.61793e-06
2.46474e-17
2.4478e-17
2.59003e-16
1.12611e-16
1.88025e-16
1.65878e-18
3.41598e-17
2.36099e-16
0.000303113
5.16731e-17
6.86049e-17
3.13881e-17
4.4017e-17
3.822e-18
3.55801e-05
0.00094698
2.43668e-09
1.63894e-08
2.13624e-17
1.70954e-06
1.14794e-06
6.48805e-16
8.48135e-16
1.88604e-15
2.46231e-17
4.76526e-17
3.92748e-16
3.92094e-16
7.63659e-17
3.78978e-07
1.55181e-15
3.71033e-16
1.34288e-07
2.15122e-09
4.30934e-18
3.33116e-05
1.10132e-16
4.29435e-16
2.4537e-16
0.000187525
5.37471e-16
1.503e-18
3.05335e-05
1.61565e-18
2.29986e-17
8.50302e-17
2.857e-16
6.26437e-05
2.72867e-17
1.69407e-16
9.15351e-17
1.29176e-16
5.71122e-06