/*--------------------------------*- C++ -*----------------------------------*\
  =========                 |
  \\      /  F ield         | OpenFOAM: The Open Source CFD Toolbox
   \\    /   O peration     | Website:  https://openfoam.org
    \\  /    A nd           | Version:  10
     \\/     M anipulation  |
\*---------------------------------------------------------------------------*/
FoamFile
{
    format      ascii;
    class       volVectorField;
    location    "3.5";
    object      U;
}
// * * * * * * * * * * * * * * * * * * * * * * * * * * * * * * * * * * * * * //

dimensions      [0 1 -1 0 0 0 0];

internalField   nonuniform List<vector> 
111485
(
(2.5408 -2.54044 0.00166982)
(7.24614 -0.013376 -0.0330248)
(7.17103 0.012232 0.0181938)
(2.54083 -2.5425 3.08051e-05)
(7.43941 0.0237668 -0.00211477)
(2.5847 2.58328 0.000667209)
(7.31658 0.0128777 0.00113294)
(7.49557 -0.00652733 0.0125946)
(7.34181 -0.00929964 0.00459922)
(7.48181 -0.0642654 -0.0225216)
(7.21651 0.00909218 0.0164726)
(7.55204 -0.00584791 0.0326083)
(7.13174 0.000904005 0.0132961)
(7.15524 -0.016957 -0.0332408)
(7.27198 0.0203747 0.0131871)
(7.39461 -0.0236517 -0.0290363)
(7.32424 0.00708091 0.00265622)
(2.60318 -0.242285 0.420564)
(7.45746 0.0114945 -0.0153148)
(2.52202 -2.51886 -0.00120817)
(2.52603 -2.52528 -0.00176763)
(2.59122 2.59049 0.00133091)
(7.37955 0.0135055 -0.00429604)
(7.46734 -0.0387533 -0.00959505)
(7.37259 0.0429357 -0.0180111)
(2.55941 -2.55038 -0.00188277)
(7.58024 -0.0188442 0.0385959)
(7.24966 0.00472223 -0.00913177)
(7.4837 0.00168724 -0.0164148)
(2.53256 -2.53342 0.00150463)
(7.57589 0.137672 -0.0392513)
(7.40553 -0.00435883 0.00257006)
(2.52064 -2.52549 0.00343958)
(2.58911 2.59232 -0.00546712)
(2.61085 1.053 0.426686)
(2.60357 2.62065 -0.0389656)
(7.53911 0.135169 -0.0548226)
(7.2318 0.0105571 0.0597111)
(7.48628 2.25693 0.130418)
(7.44336 0.0291588 0.00711821)
(2.55464 2.57883 -0.0255124)
(7.54821 0.00392347 -0.0425067)
(7.43579 0.0331975 0.0130977)
(7.24541 -0.0342086 -0.00895978)
(7.5573 -0.138039 -0.071339)
(2.55467 -2.53423 0.0102344)
(7.54844 -0.0254717 0.0399504)
(7.45807 -0.033927 -0.00856287)
(7.54688 -0.00258377 -0.0338597)
(2.52668 -2.50084 0.0113823)
(2.51826 -2.49287 0.0175105)
(2.94937 2.47455 0.0429124)
(2.50661 -2.49619 0.00850237)
(7.54224 0.025078 -0.0607922)
(2.50167 -2.49107 0.00267336)
(7.42032 0.0102222 -0.00808561)
(7.42069 -0.0211684 -0.00671317)
(2.58873 2.58668 0.00217932)
(6.79781 -0.020227 -0.11053)
(7.46579 0.0230531 -0.00356468)
(7.46476 0.025939 -0.00224747)
(2.53313 -2.53818 0.00238028)
(6.92439 0.00874705 0.0354257)
(7.59347 -0.00725155 0.0530342)
(2.67258 2.41824 0.00350553)
(6.95567 0.00681892 -0.00433684)
(5.28577 -0.457476 0.190005)
(7.48147 -0.0105526 0.0127508)
(6.82114 -0.000946415 0.0149908)
(6.62244 -0.0128366 -0.0079838)
(7.27428 0.0569526 -0.0521223)
(6.79159 -0.0101792 0.0124263)
(2.73612 -2.4696 -0.0552066)
(6.86427 0.0109229 0.0385326)
(2.53692 -2.5371 -0.000575517)
(7.43673 -0.00414132 0.00601297)
(2.59012 2.58928 -0.00203489)
(7.54145 -0.0139148 0.0353112)
(2.58795 2.58879 0.000390031)
(2.32828 2.26331 -0.0797239)
(7.28874 -0.113249 0.0756721)
(7.50387 0.0319557 0.00587471)
(2.58012 2.57606 -0.000916484)
(2.53809 -2.53849 0.000716037)
(7.09588 -0.00647251 0.00900925)
(6.88236 0.0130231 -0.0138666)
(5.81337 3.76114 -1.01727)
(7.44531 0.07904 0.00718177)
(7.18201 0.185236 0.15732)
(7.22778 0.00439111 0.00902657)
(7.68285 0.140813 -0.0938531)
(7.45593 -0.00801831 0.0112537)
(7.02396 -0.0130001 0.00892467)
(7.19057 0.0037442 -0.0019497)
(7.55898 0.0123789 -0.0402273)
(2.53834 -2.53783 -6.68465e-05)
(2.53197 -2.53246 0.00173109)
(7.44224 0.075395 0.0237366)
(7.71384 -1.54168 0.105585)
(7.03384 0.0194678 0.0474982)
(2.53882 -2.53867 0.00277961)
(7.4637 -0.0288114 0.00688343)
(2.60099 2.60677 0.0136729)
(7.42365 -0.00568665 -0.000906987)
(7.30984 -0.0195045 -0.0304766)
(2.53999 2.26297 -0.0548291)
(2.58963 2.58881 -0.000691154)
(7.40602 -0.00713475 -0.000894104)
(6.99769 -0.0351737 0.00107052)
(6.64635 -0.196096 -0.204803)
(7.16767 0.0066 0.00104131)
(7.40037 0.00673391 -0.00114832)
(6.95423 -0.00835802 0.0177587)
(6.89644 -0.0298659 0.00275639)
(2.56272 -2.5496 0.00218576)
(6.77245 -0.00161163 0.00285601)
(2.54787 -2.54004 -0.00367566)
(2.60102 2.59007 0.0110882)
(7.27211 0.0157508 0.0120011)
(2.54133 -2.54075 0.000218349)
(2.55989 -2.54914 -0.00128899)
(3.4205 2.6819 0.161864)
(2.55815 2.57249 -0.00402062)
(2.59506 2.58853 -0.00629114)
(7.16625 -0.0220451 0.035677)
(2.03841 -1.4503 -0.373052)
(3.2613 2.79883 0.102549)
(6.81596 -0.0035771 0.0163865)
(2.53897 -2.53729 -0.00195224)
(7.51827 0.540835 -0.201362)
(7.51566 0.153056 -0.0856104)
(7.42806 0.076797 0.0221306)
(2.52576 -2.51579 -0.0128321)
(3.34849 2.90715 0.305511)
(3.11991 2.784 0.13516)
(7.47357 0.0121349 -0.0139185)
(2.59245 2.59275 -0.00265954)
(7.38737 0.00861112 0.000649014)
(7.3635 0.023734 0.0141736)
(7.24412 0.0221771 0.0245359)
(5.87002 -0.00124458 0.0124983)
(7.42206 0.0304926 0.00753517)
(7.35921 0.0277287 0.0182815)
(7.08176 0.00549576 -0.0184574)
(7.3975 -0.0041488 -0.00110872)
(7.24993 -0.0115667 0.00470027)
(2.59159 2.59333 -0.00113742)
(2.53831 -2.54003 0.000908678)
(2.58484 2.58643 0.00575676)
(7.43366 0.0272324 0.00512845)
(7.09287 0.00945692 -0.0160329)
(2.52741 -2.52718 1.37006e-06)
(4.91934 -0.0240014 0.0427135)
(7.28593 0.0224333 0.0245457)
(7.97601 0.306298 0.141121)
(7.47233 0.0135752 -0.0128293)
(7.4384 0.0154228 -0.00499805)
(7.03148 0.0154097 -0.0259709)
(8.0378 0.380366 0.0950489)
(2.52448 -2.54778 0.0103464)
(2.53675 -2.53978 0.00241924)
(7.4641 0.0114458 -0.0148819)
(7.31363 -0.0162044 -0.0169506)
(8.08984 0.43247 0.104221)
(7.97599 0.378295 0.144233)
(6.96729 0.00283855 0.0227346)
(7.48338 0.0806449 -0.0284669)
(2.55679 2.57857 0.000703488)
(8.1881 0.533712 0.127361)
(7.80864 0.376101 0.118759)
(2.58834 2.58824 0.00213389)
(2.53314 -2.53287 0.000836738)
(6.17161 0.0111346 -0.0311028)
(2.5914 2.59247 0.000921551)
(7.37038 -0.00549294 -0.000636912)
(7.21724 0.00220718 -0.0066711)
(2.58994 2.52651 -0.0153671)
(2.74007 -2.52064 0.0273055)
(2.53099 -2.51807 -0.00468077)
(2.5529 2.40569 -0.0260064)
(2.75387 -2.54223 0.0445928)
(2.53455 -2.53876 0.0027009)
(7.41907 0.0159076 -0.00794699)
(7.43689 0.00770782 -0.012582)
(7.41175 0.0136685 -0.00363317)
(7.27733 -0.0420652 0.0277197)
(7.07679 -0.0219788 0.00345481)
(7.09848 0.00413739 0.0137449)
(6.38663 0.068807 0.00281527)
(2.53469 -2.52429 0.000941498)
(6.92285 -0.006334 0.00137067)
(2.73708 -2.53798 0.0268663)
(2.55575 -2.55907 0.000515188)
(7.14362 0.00303106 0.0156653)
(7.48615 -0.0720046 -0.0234444)
(7.44665 0.00530528 -0.0353932)
(7.22463 0.00300086 -0.00495391)
(7.28769 0.00568123 0.00637681)
(2.53305 -2.52798 0.00808764)
(7.20991 -0.0230077 0.00474051)
(7.11718 -0.00387791 -0.0276108)
(4.97468 1.55742 0.208001)
(7.29884 -0.0640658 -0.00192461)
(7.38306 -0.00101402 0.00313614)
(2.54518 -2.53312 -0.00487388)
(7.1149 0.00573905 0.0156471)
(7.47793 0.0172777 -0.000730282)
(2.77943 -2.51286 0.00901577)
(7.19918 0.0103741 0.0306126)
(7.53973 0.000608939 0.0274368)
(7.08154 0.00569064 -0.0183512)
(7.09245 0.0114635 0.0210405)
(2.75175 -2.55066 0.0354981)
(2.53041 -2.53186 -0.00156283)
(7.08997 0.0117859 0.0256122)
(4.64087 2.89795 -0.286342)
(7.61321 0.0210958 -0.071354)
(2.58917 2.58948 -0.00178617)
(7.12706 0.00860872 0.0208701)
(7.16059 3.21674e-06 0.0036518)
(7.56704 -0.00877845 0.0423417)
(2.54041 -2.53851 0.00199292)
(6.85985 -0.00480365 0.000579218)
(7.48758 0.106728 0.056613)
(4.09471 2.7338 -0.300055)
(2.5914 2.59084 -0.00127271)
(2.58813 2.58863 0.00151105)
(7.6604 -0.0321979 0.0744204)
(7.16172 0.161141 -0.0186273)
(2.72389 2.29378 -0.0559335)
(3.1374 -2.43877 0.0962141)
(7.18507 0.00341376 0.00785106)
(7.36193 0.00673648 0.000716501)
(7.43476 0.0101066 0.0101368)
(2.68365 2.3281 -0.0678356)
(2.67424 -2.46438 -0.00923331)
(7.22445 0.0929956 -0.111736)
(2.53725 -2.53751 0.00243964)
(6.89708 0.00398588 -0.0298392)
(7.10977 0.00347549 0.0171978)
(7.175 0.00148485 0.0110042)
(7.17054 0.00643449 0.0111381)
(7.19286 0.0053949 0.0134099)
(2.58091 2.58155 0.00949427)
(5.50061 -0.012564 -0.199721)
(7.25123 0.0171604 0.0145897)
(2.5768 2.58331 -0.00521882)
(2.58976 2.59289 -0.000358393)
(7.59303 -0.0751439 -0.00420582)
(7.39542 0.0295973 -0.00474287)
(2.65161 2.25411 -0.0729216)
(6.97556 -0.00995126 -0.0106576)
(7.23976 0.00942996 0.0148212)
(2.53935 -2.53883 -0.000874606)
(3.28526 3.09642 -0.0200382)
(7.48617 0.0828783 -0.0372242)
(2.54911 -2.51743 -0.00063795)
(2.81178 -2.01527 -0.0502423)
(3.84478 -1.36286 -0.132521)
(2.54232 -2.5363 -0.00151518)
(7.29604 -0.00646918 -0.00633904)
(7.13836 -0.0119981 -0.00772009)
(7.34934 0.00267214 -0.0156234)
(2.53636 -2.5366 -0.000864615)
(7.27661 0.0131456 0.0125039)
(2.54199 -2.54255 -0.00117085)
(2.54009 -2.54235 0.00174536)
(2.53313 -2.52359 0.0043)
(5.12666 0.0200695 -0.0670613)
(7.53972 -0.0210011 0.0337927)
(7.14695 0.0208962 0.0234888)
(7.27128 0.0167675 0.0145545)
(7.53555 -0.0295255 0.00100073)
(7.2537 0.0107759 0.0123815)
(7.4127 0.0204196 0.00783695)
(7.52502 0.120312 -0.00570583)
(7.33372 0.0017881 -0.00386326)
(7.36593 0.00475876 0.00109009)
(2.63649 2.59359 -0.00130781)
(2.52961 -2.53094 -0.00298487)
(4.69381 0.0298567 -0.108254)
(7.40144 -0.00617829 0.00293744)
(7.50224 0.0546663 0.062294)
(7.17174 -0.00306549 -0.00368237)
(2.54082 -2.54012 0.0023802)
(7.37134 0.0171159 0.00767488)
(7.41076 0.0311116 0.0134204)
(7.27592 0.00704301 0.00845692)
(6.5876 0.00114978 -0.0450518)
(6.75267 -0.0695201 -0.155644)
(7.37506 0.0160638 0.00110566)
(7.25759 0.0107678 0.0131985)
(7.43668 0.070233 -0.0440296)
(2.58913 2.59137 0.00371861)
(6.90966 0.0303167 0.00269344)
(2.5895 2.58972 -0.000131071)
(2.09143 1.57345 -0.344734)
(2.85228 -1.84868 -0.183008)
(7.71521 -0.0599743 0.110757)
(7.53779 -0.0296481 0.000825691)
(7.36762 -0.00923112 0.00464092)
(2.54059 -2.53551 -0.00139369)
(2.57868 2.59336 0.0201635)
(7.35113 0.0174612 0.0120618)
(7.17842 0.00167006 -0.00273555)
(2.53045 -2.52939 -0.000340354)
(2.5405 -2.53877 0.00297468)
(2.48287 -2.49817 0.0162546)
(7.12718 -0.000243285 0.00450775)
(7.34912 -0.00264781 -0.00629123)
(7.05519 -0.001473 0.0168605)
(6.91278 0.0115256 -0.02068)
(7.49383 0.0162806 -0.0142048)
(2.97046 2.54952 0.0677041)
(2.58493 2.59065 0.0043974)
(2.53792 -2.53459 -0.000315922)
(7.32907 0.0170939 0.0112627)
(4.82773 -4.09324 -0.291644)
(7.09125 -0.0101764 0.0146764)
(7.66609 -0.0439185 0.16674)
(6.2139 0.00760795 -0.114278)
(2.58982 2.59356 0.000321347)
(2.53717 -2.53904 0.00163432)
(2.53923 -2.54062 -0.000838995)
(3.27693 2.74114 0.171907)
(7.4238 0.0144281 -0.00101748)
(7.50278 -0.0302897 0.0110151)
(2.59418 2.6012 0.000849815)
(7.38562 0.010779 -0.00435508)
(2.73739 2.20579 0.160565)
(2.54255 -2.50973 -0.00159576)
(7.61121 -0.0129441 0.0565068)
(7.36084 0.0156298 0.00998451)
(7.54396 0.00240263 0.0172296)
(7.38319 0.0134717 -0.00661771)
(2.48743 2.1965 0.137175)
(3.24674 2.78348 0.18453)
(2.58464 2.58635 -0.00408301)
(7.37474 0.016764 0.00783548)
(7.35395 0.0130841 0.000602005)
(7.5531 0.145607 -0.0527085)
(2.56029 2.55188 0.00446885)
(5.15893 4.56079 -1.10102)
(7.09732 0.0660275 0.0666995)
(7.51135 -0.0218177 0.0177417)
(7.36658 0.02025 0.0126235)
(7.05746 0.707533 -0.0541819)
(7.49579 0.00974466 -0.0182848)
(2.58225 2.57939 0.00261374)
(7.4925 0.0129573 -0.0110304)
(7.21855 0.00427067 0.00906385)
(7.61008 -0.166518 0.00237251)
(7.63319 -0.0350531 0.090218)
(7.326 -0.0436417 -0.040611)
(2.57739 2.59049 -0.00898574)
(2.53208 -2.53612 -0.00322541)
(2.5947 2.57793 0.0103316)
(2.51861 -2.52568 -0.00133549)
(7.48006 -0.0215786 0.00427226)
(7.41412 0.00326518 -0.000679234)
(7.46864 0.0231929 -0.0270519)
(7.49498 0.00917806 -0.0198224)
(2.56718 2.57127 -0.0106471)
(7.4072 -0.0387443 -0.013055)
(2.58761 2.58806 0.00327274)
(2.5303 -2.53703 -0.000909102)
(7.49049 0.0143873 -0.0147363)
(2.33981 -2.34193 0.032837)
(4.16174 -0.791191 -0.0498675)
(2.50815 -2.49881 0.000881332)
(2.61052 2.5771 0.0208617)
(7.43477 0.00507649 -0.00873867)
(2.58826 2.58646 0.000947094)
(7.32514 0.00802672 -0.00485456)
(7.03126 0.00822688 -0.0204507)
(2.59488 2.59492 -0.000679813)
(6.80007 0.00175602 -0.0199262)
(7.3038 0.00506312 0.00543861)
(2.60971 2.28437 -0.0861418)
(7.25067 0.0232893 0.0313953)
(7.00624 0.0254421 0.010452)
(7.2973 0.022966 0.0114323)
(6.83573 0.0231031 0.0830404)
(7.33863 0.0119673 0.00587745)
(7.13327 0.00280605 -0.00273322)
(2.55826 2.17998 -0.00999557)
(2.52966 -2.5239 0.0143414)
(6.34074 0.00737706 0.136697)
(2.57164 2.57894 -0.0141802)
(7.30229 0.0253488 0.0317813)
(7.61948 -0.0272409 0.0704487)
(2.60237 2.48371 0.0214227)
(2.58306 2.59426 -0.00264585)
(7.45561 -0.00135768 0.00430443)
(7.20232 -0.0261734 -0.0586557)
(7.21594 0.030026 -0.0021515)
(7.49226 0.0323666 -0.013501)
(2.59067 2.58805 0.00124284)
(7.65341 -0.00898842 0.118161)
(7.52324 -0.0153714 0.0319896)
(2.59851 2.59415 -0.000575118)
(7.36908 0.112212 0.0932261)
(7.03491 -0.0188563 -0.0599613)
(2.53483 -2.53302 -0.000582189)
(2.53038 -2.5291 -0.00135915)
(7.30206 0.00879498 -0.00391149)
(7.37508 -0.00116681 -0.0109649)
(2.5996 2.59934 -0.00351972)
(2.53619 -2.53227 -0.00455478)
(4.43764 -2.40901 0.54443)
(2.54008 -2.54151 0.000666286)
(7.40759 0.00452355 0.0104197)
(2.57251 2.58076 0.00490728)
(2.54006 -2.54186 0.000579067)
(7.54682 0.00387553 0.0238938)
(6.87243 -0.0736497 -0.187707)
(7.47546 -0.041542 0.00782478)
(7.23296 -0.00974578 0.0080141)
(2.59664 2.59395 0.000896732)
(3.36774 2.5883 0.130767)
(7.22867 0.0881343 0.138238)
(3.1548 2.78026 0.152484)
(7.20835 0.0239824 0.0500894)
(7.18069 -0.0595293 0.00135704)
(7.48477 -0.0329417 -0.0199706)
(5.22612 0.129657 0.20257)
(3.10148 2.66566 0.139176)
(7.4141 0.00129361 -0.0724166)
(7.60777 0.238597 -0.0685326)
(2.53735 -2.54004 0.00321112)
(7.55765 0.0110026 -0.0718208)
(7.54502 -0.0219899 0.0270112)
(2.54103 -2.5397 0.00333853)
(7.30065 0.400725 -0.214741)
(6.42823 0.000908249 -0.0714231)
(3.2744 2.5677 0.106011)
(7.52139 -0.00821519 0.0277492)
(7.44946 0.00138814 -0.0068015)
(7.33512 0.0105606 -0.00680995)
(2.59145 2.58616 -0.000412518)
(7.2965 -0.0212978 0.0493037)
(7.55741 0.00908876 0.0213716)
(7.26833 0.0612312 -0.0084098)
(4.63718 -0.0658713 0.0706959)
(3.15974 2.97452 -0.0596276)
(4.36452 -0.110491 0.145939)
(2.53649 -2.5397 0.00255571)
(6.81401 -0.225571 -0.210739)
(7.29941 -0.022596 -0.0492537)
(2.59109 2.58835 0.00395685)
(7.0338 0.0153725 -0.0394013)
(5.83692 -0.0138564 0.0931597)
(3.3705 2.97587 -0.0295867)
(2.53747 -2.53625 0.000118838)
(2.96726 -2.52696 0.0815686)
(2.54034 -2.53969 0.000527679)
(7.33357 0.0554588 -0.0174959)
(7.33115 0.0304818 -0.0106472)
(7.32123 -0.0113992 -0.0115408)
(6.91829 0.00981424 -0.0205096)
(7.49505 -0.135899 -0.0260812)
(2.58778 2.57699 -0.00421941)
(7.28357 0.00434134 -0.00646127)
(2.5469 -2.52529 -0.000190588)
(7.19135 0.0178381 0.0130436)
(2.59756 2.5979 0.000568586)
(2.53906 -2.53638 -0.000249539)
(2.51042 -2.51704 -0.00442312)
(7.14846 -0.0366461 0.00559789)
(2.52685 -2.53226 -0.00127967)
(2.53985 -2.54067 0.0016597)
(2.55814 1.68231 -0.10923)
(2.54144 -2.54207 0.00104121)
(2.56033 2.596 0.0238985)
(7.26005 -0.0343841 -0.0165746)
(2.58919 2.58573 -0.000343584)
(3.07348 2.26559 0.0022677)
(2.59221 2.59166 0.00352703)
(2.52992 -2.5214 -0.00065564)
(2.59085 2.58006 -0.00522819)
(2.52932 -2.51562 -0.0122211)
(2.57403 2.57676 -0.000594326)
(6.67896 -0.0110814 -0.0306958)
(2.59444 2.58126 0.0104698)
(6.77685 0.0896025 0.134169)
(7.43045 0.0245238 -0.0103267)
(7.64325 -0.302664 -0.0488073)
(2.59358 2.58394 -8.94753e-06)
(6.45459 0.0142366 0.0991012)
(2.59449 2.58545 0.00197773)
(2.54077 -2.54107 -0.000665894)
(7.26064 -0.0538952 -0.063737)
(7.28048 -0.0446699 -0.0593322)
(7.32165 -0.00679423 -0.0126193)
(7.67703 0.00905248 -0.126807)
(2.98663 2.50331 -0.0809391)
(7.49515 -0.00237978 -0.0398311)
(7.48875 -0.00144782 -0.0395003)
(7.35217 0.00372141 -9.24506e-05)
(7.29495 0.00153606 0.00316886)
(7.38289 -0.0596816 -0.0376848)
(2.53019 -2.53103 7.20361e-06)
(7.35928 0.00293893 0.000617628)
(3.40592 2.96352 -0.0208193)
(7.38925 0.0104644 -0.0119328)
(2.58531 2.58316 -0.00166956)
(7.52142 0.00827646 -0.0275163)
(3.36452 2.78853 0.0271176)
(7.3743 -0.00293935 -0.00920264)
(7.4615 -0.0285424 0.0240171)
(2.92296 -1.50033 -0.0136538)
(2.58966 2.59183 0.0280423)
(7.29884 0.00504656 0.0174447)
(2.53747 -2.53608 -0.000351953)
(7.55153 0.0206754 -0.0493851)
(7.49578 0.0181633 -0.0283897)
(2.58706 2.58076 -0.0210267)
(2.58127 2.58227 0.00548212)
(2.53349 2.26338 -0.0516466)
(2.58799 2.59088 0.000397578)
(5.24765 -0.284191 0.14601)
(7.55684 0.0172432 -0.0427575)
(2.62866 2.56647 -0.00303688)
(2.58498 2.58731 0.00156314)
(6.60925 0.00423504 -0.00503175)
(2.59139 2.59283 -0.00137596)
(7.43856 0.00945465 -0.0246701)
(2.58938 2.59017 0.00245269)
(7.3687 -0.0313136 -0.0290871)
(2.5407 -2.54047 0.00109541)
(6.91011 -0.0310855 -0.0831126)
(5.90023 -0.0210445 -0.00862802)
(7.05536 0.0122584 -0.0066069)
(7.37524 -0.000769803 -0.0114358)
(2.60131 2.57934 -0.00715677)
(6.93305 0.0111774 -0.0164268)
(2.59572 2.5866 0.00261845)
(2.59227 2.59121 -0.00802824)
(7.33431 -0.00884588 0.00128386)
(2.58765 2.58457 -0.00156731)
(6.32572 -0.00185192 -0.0559959)
(2.49812 2.29602 -0.0746224)
(7.44946 0.00957864 -0.022619)
(2.53033 -2.53091 0.000563062)
(7.52036 0.00966632 -0.0145359)
(2.54279 -2.53936 -0.000864172)
(3.10013 2.72539 0.0851131)
(7.63366 0.281168 -0.0235749)
(7.27905 -0.0531879 -0.0614128)
(7.41059 0.0217612 -0.00204131)
(7.44756 -0.0651673 -0.0428427)
(7.38066 0.00573967 -0.0113996)
(7.52909 -0.0360594 -0.00327539)
(2.57185 2.59316 -0.012626)
(7.40581 0.0354384 0.0248684)
(7.30737 -0.0603439 -0.0581585)
(2.591 2.59077 -0.00181105)
(6.27772 -0.0937628 -0.216206)
(7.59204 -0.0645145 -0.0405974)
(7.27385 0.0216216 0.0250615)
(2.55903 2.52464 -0.0142185)
(3.20062 0.604795 -0.524865)
(7.12787 0.0122864 0.0192529)
(5.91122 -0.025146 0.0493462)
(6.04116 1.5336 -0.00894689)
(3.27626 -1.68984 -0.131921)
(7.51452 -0.0688633 -0.0134174)
(7.06237 0.0192657 0.0442506)
(7.26961 -0.0557122 -0.0614943)
(7.42529 -0.0297492 -0.0122609)
(7.28462 0.0349737 0.020608)
(6.49553 0.818812 -0.0359783)
(3.21708 2.71742 0.0249962)
(6.62738 -0.255156 0.06317)
(6.41231 -0.57434 0.124853)
(2.53507 -2.53757 0.000783048)
(6.62469 0.0375832 -0.0120036)
(2.6027 2.55455 -0.0142802)
(3.03932 2.76645 0.023719)
(7.36719 0.00519183 0.000117606)
(6.5443 1.08608 -0.0312887)
(7.91162 -0.683065 -0.128733)
(7.14502 -1.24836 0.0237982)
(3.03817 2.88566 -0.218467)
(7.48693 -0.0339237 -0.0105977)
(7.38665 0.0350516 0.0308948)
(2.58584 2.57747 -0.000765393)
(3.34943 1.83897 -0.0794063)
(7.38458 0.0481913 0.0333199)
(2.5395 -2.53076 0.0023545)
(2.58837 2.58677 -0.000648561)
(2.5816 2.58058 0.000518349)
(2.59411 2.57706 0.0020027)
(7.47961 -0.0631935 -0.0240771)
(2.58974 2.58899 0.00122663)
(2.54708 -2.5464 0.0125115)
(7.34944 -0.0314639 -0.0292117)
(6.94881 -0.00103245 -0.004457)
(3.71344 -3.2571 -0.172912)
(7.3841 0.0453024 0.0321757)
(3.02402 2.43313 0.0576422)
(7.37592 -0.0139238 -0.0100784)
(2.48836 -2.48801 -0.0108793)
(2.584 2.58936 -0.00270432)
(7.47 -0.0359381 -0.0105891)
(2.58972 2.57409 -0.00895023)
(2.5903 2.5844 0.000366755)
(2.97441 2.84492 0.0790093)
(7.13937 -0.00976277 0.00521823)
(4.2908 3.58753 -0.479756)
(7.36412 -0.0188858 -0.00847169)
(7.36533 0.00487916 -0.000571729)
(2.5156 -2.49906 -0.0196297)
(7.68286 -0.0187572 0.240787)
(7.00345 -0.0335435 -0.0876558)
(7.34019 -0.00581282 -0.00746578)
(7.44678 0.131927 0.0153442)
(7.48609 0.0632303 -0.160934)
(6.51794 0.00089796 -0.0402739)
(2.58497 2.58273 0.00182886)
(7.49281 0.00513255 0.0244001)
(7.42064 0.0237802 -0.00680065)
(2.51389 -2.54652 0.00388363)
(7.0584 0.00520094 -0.0137055)
(7.5 0.0503809 -0.00622776)
(7.48932 0.0263286 -0.0117636)
(6.97198 -0.0305593 -0.0551948)
(7.48753 0.0252363 -0.0139036)
(7.48958 0.0349074 -0.00371871)
(2.54148 -2.50857 0.0157877)
(7.51776 -0.000718463 0.0312508)
(6.29311 -0.0382447 -0.0189673)
(3.13134 2.71322 0.174159)
(7.48668 0.0174391 -0.019346)
(7.18224 0.00822586 -0.00907565)
(4.18184 3.39491 -0.517956)
(7.36497 0.00454376 0.000104992)
(7.49369 0.0121556 -0.0243732)
(7.1851 0.00450408 -0.01887)
(7.43068 0.0270784 0.00223539)
(7.3421 0.0720672 0.0322566)
(7.36736 0.00526973 -0.000167253)
(2.53147 2.47354 0.00295097)
(7.43093 0.0324377 0.000801198)
(6.98421 -0.0397627 -0.0755771)
(2.838 -1.72446 0.0622008)
(7.39423 0.0630134 0.0388639)
(7.30501 0.0610851 0.0607992)
(7.37817 0.00956443 -0.00411912)
(2.58589 2.57871 0.00172767)
(7.20921 0.0348551 -0.0609578)
(2.53921 -2.5271 0.00781704)
(2.58901 2.58903 -0.0016865)
(2.57567 2.558 -0.000776435)
(2.59592 2.5812 0.00218199)
(6.3891 0.00154206 -0.0142534)
(3.09977 2.66124 0.113261)
(5.60314 -0.402827 0.459466)
(2.5234 -2.52629 -0.000985281)
(2.5833 2.62011 -0.00508186)
(7.40667 0.0690807 0.0395394)
(7.44778 0.00999356 -0.034122)
(2.53959 -2.54002 0.000748529)
(7.47606 -0.0382151 -0.00405667)
(2.53956 -2.53619 0.00842514)
(2.53985 -2.53798 -0.000507864)
(2.49627 -2.4996 0.00710242)
(7.56729 -0.0469344 -0.00629011)
(6.44442 0.0319609 -0.00830057)
(3.07904 2.7516 0.0418732)
(2.56319 -2.53491 0.00627859)
(2.5862 2.59511 -0.00356798)
(2.58864 2.59117 -0.00130599)
(7.63424 0.0104431 -0.0850233)
(7.37655 0.00437277 0.000949521)
(3.08276 2.89792 0.133025)
(7.5335 0.0123213 -0.040521)
(7.0379 -0.0980609 -0.288576)
(2.58405 2.58622 0.000920991)
(7.51449 0.00924878 -0.0359125)
(6.89484 -0.00152888 0.0325582)
(7.28922 0.0293319 -0.0385868)
(2.59289 2.59264 0.000579816)
(2.58606 2.58301 0.000210908)
(7.25303 0.024322 0.0321508)
(7.3904 0.00743081 -0.00204815)
(3.06972 2.78528 0.0391746)
(2.58028 2.58134 0.000812239)
(2.6173 2.53799 -0.0088119)
(7.38446 -0.0142435 0.00276831)
(2.53749 -2.53773 -0.00283555)
(2.53057 -2.52276 0.00218176)
(2.57462 2.57414 0.00121577)
(7.51045 0.0124264 -0.0306735)
(6.7325 -0.0312299 0.00165279)
(2.5926 2.59302 6.23044e-05)
(2.89755 0.545662 0.529771)
(3.19887 -0.390599 -0.114877)
(7.25543 0.0318197 0.00517222)
(2.58667 2.59146 -0.00114316)
(2.59085 2.58604 -0.00170771)
(7.52919 -0.0808797 -0.00924536)
(7.24132 0.120722 0.104649)
(3.11729 2.77926 0.139042)
(4.55427 1.45009 0.105324)
(7.15491 0.139527 0.213127)
(6.85425 0.0224217 -0.0310697)
(7.29097 0.00154347 0.000275164)
(2.67909 2.51246 -0.00538543)
(7.22998 0.0216652 -0.00277389)
(7.49339 -0.0389492 0.046813)
(2.59374 2.58683 -0.00364566)
(2.52102 -2.47704 0.00389315)
(2.57521 2.57709 -0.000420114)
(2.58473 2.58491 -0.000397839)
(2.58954 2.59458 -0.00248931)
(2.59416 2.59331 -0.000548042)
(7.52774 0.0109394 -0.0297731)
(2.53762 -2.53771 0.002452)
(2.58283 2.5831 0.00116984)
(2.57732 2.54386 0.00132995)
(7.535 0.0140009 -0.038738)
(7.38911 0.00614545 -0.000836136)
(2.54944 -2.51651 0.000306944)
(2.50792 -2.48249 0.0049472)
(7.595 -0.0225685 0.0640935)
(7.22987 0.000261242 0.00909213)
(7.21747 0.00442441 0.0103821)
(2.53744 -2.53074 -0.00114278)
(2.57972 2.58423 0.00118285)
(7.22706 0.00278988 0.00872561)
(2.53992 -2.53727 0.000756738)
(7.18755 0.0115404 0.00722311)
(7.25343 0.0111368 0.0188856)
(7.2705 0.0114734 0.00927594)
(2.54719 -2.52796 0.0059137)
(2.53904 -2.54165 0.00186721)
(2.53923 -2.54083 0.0003463)
(2.59055 2.59302 0.00136876)
(7.36544 -0.0212659 -0.0112793)
(2.58935 2.59162 0.00329399)
(2.58338 2.58205 0.00174769)
(7.38681 0.0317592 -0.0357772)
(2.53936 -2.54039 0.00139953)
(7.25116 -0.00697356 0.00732248)
(6.67542 -0.0648363 0.0173682)
(2.60596 2.51645 0.0136283)
(7.37432 0.00737945 -0.000612554)
(3.49162 0.497656 -0.0731276)
(7.31585 0.00330062 0.000185512)
(7.55484 -0.0126557 0.0151759)
(6.78686 0.0191505 0.0151979)
(7.57107 0.00291514 0.0480173)
(5.50394 0.105338 -0.215803)
(3.08948 2.46455 0.0523275)
(7.30236 -0.000422509 0.00129547)
(7.59976 0.0486803 0.00974318)
(7.36104 -0.0113484 -0.0026094)
(2.6534 2.30188 -0.0803228)
(3.38289 0.322571 -0.178337)
(3.97884 -0.324696 0.141586)
(7.31243 0.00225907 -0.0058542)
(2.58216 2.58503 0.00347052)
(7.17806 -0.0107294 -0.0443776)
(7.33599 -0.00376341 -0.0104704)
(7.10885 -0.0498353 -0.102456)
(2.76519 -1.97371 -0.145396)
(2.54006 -2.5416 0.00119227)
(2.53667 -2.53726 -0.000700663)
(7.39309 -0.0112383 0.00292006)
(3.02228 2.49824 -0.0340426)
(7.11585 0.0167795 0.00399258)
(2.81183 2.56202 0.0333521)
(7.03256 -0.0102852 -0.0331781)
(7.28926 -0.000587163 -0.00174892)
(7.18005 -0.000283934 0.0068074)
(7.39144 0.00867673 -0.00317225)
(2.57903 2.58156 -0.000602268)
(2.56953 2.56369 -0.00421889)
(2.7236 -2.47848 0.0121736)
(7.36791 0.00699511 -0.00288481)
(2.59426 2.58716 -0.000928515)
(2.99763 2.57216 -0.117452)
(7.60572 0.149995 -0.124401)
(2.59805 2.59422 -0.00269283)
(2.5765 2.58797 0.00839043)
(2.52411 -2.5172 -0.00523939)
(2.59316 2.59224 0.00333667)
(7.13691 -0.00109949 0.0107939)
(2.64249 2.5085 0.00282775)
(2.59151 2.58837 0.000542571)
(6.04315 0.846454 -0.596475)
(3.03899 2.44998 -0.0318156)
(2.57752 2.5794 -0.0209585)
(3.63557 -2.15419 0.128332)
(2.58865 2.58692 -0.00203958)
(5.95133 0.0112312 -0.037639)
(7.28458 -0.00488924 0.00256266)
(2.52806 -2.52796 -0.00142849)
(7.18108 0.0147879 -0.0341793)
(7.16647 1.14101 -0.153204)
(7.05971 -0.0547487 -0.101537)
(7.76593 0.276601 0.00309818)
(7.09842 0.000418693 -0.00222328)
(2.58719 2.57075 0.00657938)
(7.29899 -0.0537143 -0.0644848)
(7.59147 -0.011378 0.0170278)
(7.05362 -0.0554803 -0.100481)
(2.53764 -2.53603 -0.00175908)
(7.68903 1.99967 0.542993)
(7.11833 0.00325843 0.0120005)
(3.46548 2.75315 -0.165927)
(7.08052 -0.00414445 0.00381901)
(7.67057 0.0862437 -0.0662505)
(7.34574 0.140781 0.0108645)
(7.24586 -0.0157033 -0.0175849)
(7.24823 0.0195904 -0.00373623)
(7.72889 0.107166 -0.0339656)
(7.36752 -0.000748161 -0.00906226)
(7.34989 0.00160866 0.00307536)
(2.56821 2.57679 0.0102061)
(2.57707 2.56221 0.00806467)
(7.15278 0.0119671 -0.00159316)
(7.08035 0.0030722 0.0036418)
(2.58362 2.59012 -0.00172512)
(7.23169 0.00394157 -0.00275513)
(7.54421 -0.0168442 0.00931611)
(7.35083 -0.00424503 0.00239892)
(2.58812 2.56092 -0.00146443)
(7.3164 0.14146 0.0336633)
(2.5829 2.58001 -0.000222401)
(7.3544 0.0016852 0.00356086)
(7.35725 0.0023061 0.00180865)
(2.58882 2.58737 -0.000676739)
(7.07444 0.0338952 -0.0286652)
(7.34185 0.00483182 -0.000671853)
(7.29012 0.128584 0.014766)
(7.14631 -0.00640368 0.0190274)
(2.64602 2.59371 -0.00390872)
(7.45882 -0.00827554 0.0179307)
(7.31521 0.16212 0.00516865)
(7.71173 -0.191468 0.0489324)
(6.51824 0.0784318 0.0255067)
(5.8681 0.0233183 -0.0739271)
(2.5907 2.56444 -0.00453434)
(2.58264 2.57985 0.00424807)
(7.19844 0.0874011 0.016687)
(2.59088 2.59382 -0.00159816)
(6.44314 -0.0123948 -0.0409024)
(7.20055 -0.0265472 -0.0435506)
(4.37995 0.587245 -0.161361)
(8.00958 -0.521816 0.18928)
(7.06197 -0.324282 0.0895806)
(7.8625 -0.292797 0.0752703)
(2.59034 2.59117 0.000428332)
(3.52412 2.99009 0.0280014)
(7.4048 0.0089927 -0.00805394)
(2.52622 -2.53525 -0.00926501)
(1.42096 -1.00589 0.397795)
(7.34601 -0.123619 -0.0966914)
(2.57941 2.57217 -0.00501758)
(2.59439 2.58938 -0.00057153)
(6.60521 -0.134115 -0.00859672)
(5.37929 -0.348688 0.0774953)
(2.5913 2.59246 0.000686612)
(6.67931 -0.125531 0.0148634)
(2.58068 2.57724 0.00283253)
(2.58878 2.59393 -0.00482253)
(2.53687 -2.53938 0.000392134)
(2.54097 -2.53499 0.00542519)
(2.49105 -2.46979 0.00613058)
(2.53559 -2.52969 -0.000798454)
(6.69851 0.0545055 -0.012548)
(2.56831 2.55202 -0.0015856)
(2.58848 2.58868 0.00135106)
(2.57173 2.58745 0.00384447)
(6.21881 -1.38554 -0.366244)
(7.01228 -0.0487412 -0.117978)
(6.82019 0.00225153 -0.0474708)
(7.4064 0.00637486 -0.00769505)
(2.57398 2.55699 -0.000809065)
(2.60169 2.58966 -0.000489889)
(7.13168 -0.112712 -0.136366)
(2.58937 2.5904 -0.00335222)
(2.5889 2.58465 -0.00112117)
(4.15558 2.36556 0.0863731)
(7.59034 -0.0901263 0.001757)
(7.40502 0.0109464 -0.00437105)
(2.587 2.58583 -0.000769001)
(2.5865 2.58011 0.00491491)
(2.57541 2.56666 -0.00509789)
(2.58058 2.57448 0.00025229)
(2.59157 2.58905 -0.00228079)
(2.59734 2.5919 0.00124478)
(7.4222 -0.15974 -0.0984971)
(2.59458 2.58664 -0.0010132)
(5.16557 0.0710554 0.170492)
(7.48706 -0.00993713 0.0200121)
(2.58866 2.59325 -0.000971187)
(2.51892 -2.5314 -0.0065186)
(2.50406 -2.47645 0.00116159)
(6.30117 0.073413 0.341755)
(2.48447 -2.4824 -0.00934278)
(2.53565 -2.53822 0.00125788)
(2.57457 2.5772 -0.017065)
(6.75903 -0.103497 -0.00169947)
(2.58005 2.57977 -0.000748326)
(7.39146 -0.0842774 -0.0518927)
(5.99307 0.0852692 -0.0288786)
(4.86685 0.00420007 0.193968)
(2.57968 2.58203 0.000801634)
(5.09787 -1.33371 0.1092)
(7.45766 -0.00866437 0.0122619)
(7.4841 0.00967797 -0.0160622)
(2.7223 -2.59889 -0.0305763)
(7.23698 -0.126979 -0.0195856)
(7.37982 -0.0182812 -0.0040991)
(2.54046 -2.52087 0.00280956)
(2.68163 2.53872 0.0100657)
(3.56184 -2.75384 -0.230773)
(2.57089 2.57465 -0.00123311)
(7.40252 0.00506989 -0.00293263)
(7.43935 -0.00285367 0.010282)
(7.56944 -0.0835113 0.0397132)
(4.97867 -0.00429834 0.272467)
(2.59375 2.59211 -0.000887435)
(7.4038 0.00528341 -0.00232356)
(2.66032 2.52614 -0.00696071)
(3.24725 2.74366 -0.00957557)
(3.4011 -2.65288 -0.110679)
(2.5892 2.58873 0.000917592)
(7.44212 0.0131366 -0.00586609)
(2.57872 2.57548 0.000117095)
(2.51157 -2.46707 0.00130547)
(6.83415 -0.0854054 -0.162359)
(7.34396 -0.00731556 0.000629025)
(2.51231 -2.47169 -0.00606671)
(7.3687 0.00303492 -0.00210199)
(2.76033 2.69879 -0.0150312)
(7.46207 -0.0549639 -0.026258)
(2.43016 2.31526 0.0258402)
(2.59026 2.59026 -2.14373e-05)
(2.60223 2.59416 0.00984521)
(2.54002 -2.54176 0.00144325)
(7.24225 0.00177892 -0.0053037)
(6.61355 0.0103481 -0.0163785)
(7.49579 -0.0292311 0.165134)
(2.57865 2.58144 0.000363255)
(2.57098 2.5221 0.0168568)
(7.22801 0.00119338 -0.00248997)
(2.59282 2.5929 -0.00157462)
(3.03839 2.72577 0.0573359)
(2.53817 -2.53696 0.00208811)
(7.204 0.0342092 -0.000993826)
(7.63441 -0.187122 -0.0561134)
(7.42559 0.00922459 -0.00847263)
(2.53282 -2.52823 0.00682734)
(5.91294 -0.0123309 0.15965)
(6.17004 0.00317631 0.155988)
(2.32891 2.04515 0.016492)
(6.66964 0.0856402 0.132755)
(2.59375 2.57985 0.00387404)
(7.09726 0.0531547 -0.000448667)
(7.54779 -0.0080238 0.0478657)
(7.33705 0.0164683 -0.018846)
(7.56551 -0.0850924 0.012903)