/*--------------------------------*- C++ -*----------------------------------*\
  =========                 |
  \\      /  F ield         | OpenFOAM: The Open Source CFD Toolbox
   \\    /   O peration     | Website:  https://openfoam.org
    \\  /    A nd           | Version:  10
     \\/     M anipulation  |
\*---------------------------------------------------------------------------*/
FoamFile
{
    format      ascii;
    class       surfaceScalarField;
    location    "88";
    object      phi;
}
// * * * * * * * * * * * * * * * * * * * * * * * * * * * * * * * * * * * * * //

dimensions      [0 3 -1 0 0 0 0];

internalField   nonuniform List<scalar> 
109758
(
-3.3092e-06
0.00121991
-0.0012166
-0.00125268
0.00128852
-3.58399e-05
0.000104111
-0.00114987
0.00104576
-0.00144
8.78772e-05
0.00135213
0.00146228
-0.000168344
-0.00125774
-3.61914e-05
-0.000405294
0.000396327
8.96716e-06
-0.00110845
-6.46674e-06
0.00111492
0.00202382
-0.000255906
-0.00038488
-0.00138304
-2.37273e-05
0.000849312
1.44664e-05
-0.000840051
0.00046646
-7.22154e-05
0.000596538
-0.000990783
-3.94296e-06
0.000586479
-0.000582536
0.00187435
-0.00152687
-0.00143887
0.00109139
0.000320905
0.00125913
-0.0014378
-0.000142233
0.00118864
-0.00121937
3.07281e-05
-0.000973972
0.00110812
0.00132813
0.000691442
-0.000946142
-0.000684482
0.000939182
0.000819587
-0.00157362
0.00140327
-0.00064923
0.00148429
0.000242355
-0.00110138
-0.000625269
0.00150006
0.000227957
-0.00121147
-0.000516549
-0.00144002
0.000171261
-0.000108848
0.00137761
0.000215318
-0.000290265
7.49469e-05
-2.63735e-05
-0.0011964
0.000285629
0.000937149
-0.000275556
0.000847348
-0.000571792
0.000251248
-0.000301532
0.00102946
0.00116216
0.000420118
-0.000405391
-0.00117688
1.77036e-05
0.000563455
0.000903134
0.0012414
0.00151639
-0.00194185
-0.000815935
-0.00109124
0.00108147
9.76714e-06
3.44262e-05
0.00112773
0.00149201
-0.00102648
0.000795193
-0.00126072
-0.00146103
0.00152965
-8.42796e-05
1.56549e-05
-4.98852e-05
0.000604483
-0.000554598
-1.45603e-05
0.000898733
-3.47434e-05
-0.000849429
-0.000827331
0.00082428
3.05073e-06
-0.000123756
-0.00131745
0.00110491
0.000336289
-0.00115982
0.00212098
-0.000718805
0.000577798
0.000170641
-0.000748439
0.000198039
0.00103968
-0.00147407
0.000236348
-0.000252272
-0.00111667
8.16224e-06
0.00136078
0.00114052
5.0685e-06
-0.00114559
0.00167386
-0.00110248
0.000734939
-0.00130633
-0.000392233
-0.000504919
0.000676483
0.000220668
-3.41453e-05
3.32921e-05
0.00167472
-0.0014472
0.00142462
1.32292e-05
9.34413e-06
0.000796994
-0.00079802
1.02539e-06
0.000330576
-0.0021499
-0.000329078
0.0021484
0.000997938
-0.000282625
-0.000251219
-0.000464094
-0.00111256
0.00138817
-0.000195413
-8.01944e-05
1.65519e-05
0.00102435
-0.0010409
-0.00224761
0.000142298
0.000187789
0.00191752
0.00107968
-0.00052235
0.000520001
-0.00107733
0.000398921
0.00061672
1.43413e-05
0.00140048
-0.00141482
-0.00105836
0.0010619
-3.53107e-06
-0.00121983
0.00125426
-0.000329718
-0.00175406
-0.000430748
0.00251453
-0.00228283
0.00318366
-0.000667421
-0.000233409
-0.00111404
0.000982942
0.00117056
-0.00103946
-0.00180371
0.000708474
-5.9239e-05
0.00115448
-0.000719043
0.000263872
0.000646083
-0.000190912
-0.00149365
0.00142215
7.15028e-05
-0.00323424
0.000189527
0.00163172
0.00141299
-0.000314022
0.00130139
-0.00124952
0.000262159
0.00156926
0.00151351
-0.001891
-0.0011379
0.00151539
-0.00190103
0.000921673
0.000514706
0.000464648
0.0013926
-0.00153986
-0.000857904
0.00100516
-0.00147634
9.8563e-05
0.00034915
0.00102863
-0.00112267
-0.000798876
0.000445208
0.00107497
-7.64976e-05
-9.37241e-05
-0.000904745
0.00100559
-0.000589982
0.000372914
-0.000788522
0.00141975
5.18529e-05
0.000602381
-0.00207399
-0.000520233
0.00019226
0.000327973
-0.00211851
0.00134713
0.00158373
-0.00081235
0.00080301
-0.000759555
-4.34558e-05
-0.000627244
0.000199926
-0.0016912
0.000106497
-0.000881214
-0.000283646
-0.000270525
5.60372e-05
-0.000860691
0.00107518
0.00174248
-0.0015831
-0.000333485
0.000174103
-0.00170469
0.00153673
-0.00105187
0.00119809
-0.000810886
-0.00100328
0.000616076
-0.000650736
0.00269959
-0.00135003
-0.000698824
-0.000152312
8.23084e-05
0.00152945
-0.00145945
3.6398e-05
0.00216825
0.000227604
-0.00243225
0.00086672
-0.00157258
-0.000133135
0.000838992
0.00123807
-0.000233153
-0.000898423
0.000128782
0.000991276
-0.00135853
0.000238475
0.000543378
0.0020482
0.00012954
-0.00272112
0.00096184
-0.0011339
0.000180237
-8.17674e-06
0.000655161
0.000735463
-0.00276354
0.00137291
0.000933334
-0.000103681
6.16199e-05
-0.000891273
0.00199178
-0.00149348
-0.00296907
0.00247077
0.00169078
-0.00190368
0.000844364
-0.000631467
2.063e-05
-0.00159275
0.00146395
0.000108176
0.00164641
-0.00115281
-0.00036311
-0.000130487
0.000889512
2.08703e-05
-0.000910382
-0.00170031
0.000294018
0.00118712
0.000219173
0.00111501
0.000743624
0.000571257
-0.00242989
0.000918839
-0.00165731
0.00114788
0.00249095
-0.00144435
-0.00219448
0.000917306
1.5333e-06
-0.000367533
0.0011939
0.00119888
-0.00202524
0.00105168
0.000300496
-0.000149017
-0.00120316
8.14815e-05
0.000922165
-0.00100365
0.00141396
-0.000116793
5.5322e-05
-0.00135249
-0.000577877
-1.89673e-06
0.000579774
-0.00132411
0.0010215
-0.000798768
-0.000237707
0.00179641
-0.00188909
0.000330385
0.000431878
-0.00036275
-0.00145275
0.00138362
0.000287592
-0.000293292
-0.000681618
0.000687318
-0.000368696
-0.000989327
0.00123682
0.000121201
0.000447995
-0.00121949
0.00126886
-0.000497368
0.000927771
0.000283552
-9.27812e-06
-0.00054947
-9.87635e-05
0.000657512
0.000179575
0.000352957
-0.00203725
0.00150472
-0.00131194
0.000166439
0.00134822
-0.00020272
0.000973617
0.000158177
9.90389e-05
-0.00123083
0.000205011
0.000768606
0.00143165
0.000288442
-0.00156191
-0.00076662
-0.000873104
0.00130309
0.000336637
0.00135803
0.000183637
0.000199573
-0.00174124
-0.00146802
0.00125526
-0.0004118
0.000624562
0.00134627
0.000290393
-0.00104609
0.00117848
-0.00108771
0.000955315
0.00146317
-0.000211191
-0.000286438
-0.000965541
4.01879e-05
-0.0016066
0.001742
-0.000175587
-0.0015293
-3.7578e-05
-0.000422844
0.00198973
0.000938756
0.000505931
-0.00148564
4.09538e-05
-0.00101894
9.45175e-05
0.000894839
2.95848e-05
0.000184212
5.68983e-05
-0.00188305
0.00164194
-0.000930504
-6.15621e-06
0.00093666
0.00019316
0.0013321
-0.00134105
-0.00106141
0.00142124
-0.000773867
0.00041404
-0.00121317
-0.000777861
0.00157806
0.000412964
0.00127432
0.00024434
-0.000722713
-0.000795942
-0.00201022
-2.81378e-05
-0.000282938
0.00232129
-0.00129462
-0.000777597
0.000565873
0.00150635
0.0017765
-0.00174076
-0.000112088
7.63519e-05
-0.000263756
-0.000789096
-0.000701213
0.00146079
0.00108168
0.000271137
-0.00281361
0.00211354
0.000267151
-0.0023443
0.000214721
0.00110499
-0.00131971
3.51877e-05
-0.00108864
0.00105345
-0.00103479
-0.000214737
0.000197572
0.00105196
9.21864e-05
0.00134678
-0.00128485
-0.000154108
-0.00221981
-0.000254854
0.000576581
0.00189808
0.00122521
-0.00129639
0.0011086
-0.00103743
0.000159162
0.000143143
0.000922905
-0.000874115
0.00084754
2.65754e-05
-0.000919463
3.01939e-05
0.0013331
-0.000443829
0.000264086
-0.000672359
-0.000492401
0.000900674
0.000674458
-0.000702072
2.76145e-05
-0.000961835
0.000910032
-0.000218721
-5.08484e-05
-0.00101117
-1.05851e-05
0.0010726
0.00171117
-0.000192318
-0.00108589
-0.00043296
-0.000408177
-0.00186735
0.00250691
-0.000231389
-0.00162342
0.000562164
-0.00135662
0.00151468
-0.00015806
-0.000731692
0.000659177
-0.00102717
0.00109969
0.000547794
-0.000670686
-0.000497611
0.000620503
-0.000920524
-0.00126233
0.00100161
0.00118124
5.03239e-05
0.00141134
-0.000139974
-0.00132169
-0.000358619
0.0017098
-0.000286497
-0.00106468
-0.00159254
0.00134666
-9.65238e-05
0.000342403
-0.00117008
0.00093327
-0.00100756
0.00124438
0.00121556
6.5634e-06
-0.00122213
-0.00180189
0.000389469
0.00176157
-0.000345975
0.00142208
-0.00107611
8.78144e-05
0.00143507
-0.00152289
0.000197939
0.00123675
-0.00189564
0.000460945
-0.000951454
-0.000989318
0.00106186
0.000878909
0.000694404
-0.000199779
0.000510965
-0.00142033
0.00148354
-3.81088e-05
-2.51021e-05
-0.00141789
1.42975e-05
-1.67303e-05
0.000751974
-0.000450941
0.0018499
-0.00215094
-6.85844e-05
0.0018046
-0.00173602
-0.00118324
0.000849675
-6.58704e-06
0.000340155
-0.00090254
-0.00109815
0.00200069
-0.000674703
-0.000253301
0.000928004
0.00100462
1.26231e-05
-0.00101724
-0.00159618
-2.5725e-05
0.00131295
0.000308957
-0.000461681
0.000638618
0.000839062
-0.001016
-0.00176761
0.000484128
0.000821797
0.00172075
-0.00271128
0.000575303
0.000415225
-0.00144931
0.00146271
-3.97282e-05
2.63264e-05
0.00193035
-0.00192975
-1.5239e-05
1.46463e-05
-0.00109044
1.53599e-05
0.000269017
0.000806062
7.65199e-05
-0.00113688
0.00106036
-0.00123427
-0.00175227
0.00118842
0.00179812
0.000148944
0.00161165
-0.000746178
-0.00101441
2.03171e-05
-0.00155706
-2.33105e-05
0.00156006
0.000256095
0.00139846
0.00032989
-0.00198445
0.000203746
0.00139803
-0.001473
-0.000128769
-7.465e-05
-0.00109369
0.00137209
-0.000894704
-0.000757661
0.000384943
0.00126742
0.000841569
4.83609e-05
-0.00088993
0.00135915
0.00130345
-0.00157436
-0.00108824
1.70472e-05
-0.00108193
0.00106488
0.000302702
0.000132602
5.92326e-05
-0.000494537
-0.00142043
-2.28229e-05
0.000469942
0.000973309
-0.0010463
-0.000536674
0.00158298
0.000845674
-0.00111036
0.000393907
-0.00012922
-0.00146894
0.000185127
0.00134018
-5.63686e-05
-0.00147998
0.00179846
-0.00141291
0.00109442
-5.90375e-06
-0.0008888
-0.00114274
0.00111069
3.20417e-05
-0.00147871
-0.00077076
0.000146064
0.00210341
-0.000136588
0.00130041
-0.00116382
0.00103752
-0.000815792
-0.00022173
0.000925021
-0.000930925
-0.00111198
-1.80216e-07
0.00111216
0.000508605
0.00138602
-1.33939e-05
-0.00188123
-0.00113547
0.000172983
0.000962486
-0.0012633
-0.000444589
0.00131581
0.000392083
-0.00190958
0.000262475
0.00186421
-0.000217105
0.000944198
-0.000916796
-2.74017e-05
-0.000726223
-0.0010191
0.00390906
-0.00216374
-0.00148232
0.000543011
-0.0003734
0.00131271
-0.000750858
-0.000179458
-0.00117521
0.00210553
-4.23783e-06
2.66885e-06
0.00130696
-0.00130539
0.000708111
-0.00209643
0.00285892
-0.0014706
-0.00121628
0.00121204
0.0015571
0.000401068
-0.00190737
-5.07975e-05
0.00108537
0.00014847
-0.0013633
0.000129459
0.000950329
0.000445365
-0.00159416
0.000198465
0.000903686
0.000181686
-0.000541817
0.00169139
-8.92395e-05
-0.00106033
0.000326678
-0.00148648
0.00190082
-0.000741018
-0.00167237
0.000121685
-5.24764e-07
0.00155121
0.000973304
0.00374374
-0.000594363
-0.00412268
0.000450125
0.000343071
-0.000596687
-0.000196509
0.000310171
0.00112358
-0.000508285
-0.000925461
-0.000905589
0.000884277
-0.000520506
-5.07757e-06
0.00169149
4.97792e-06
0.0013353
-0.00135023
0.000213995
-0.000199056
0.000316212
-0.000105714
0.000806881
-0.00101738
-0.00130101
0.00126669
0.000182788
0.000392569
-0.000768653
-0.000879936
0.00125602
0.000542001
0.00150815
-0.00150678
0.00112912
-0.00147853
0.000199701
0.000149714
0.00111297
2.04365e-07
-0.00111318
0.00242808
-0.00249728
0.00202059
-0.00195139
0.000370301
-0.000955392
-0.000476606
0.0010617
0.000384902
0.000204411
-0.00163414
0.000974096
-0.000580753
0.00124079
-0.00200266
0.000452142
0.00168512
-0.000134602
-0.00156196
-0.000862062
0.00313213
-0.000159347
0.00191896
-0.000633424
-0.00112619
0.000924589
-0.000466555
0.00171247
-0.0021705
0.000184431
-0.000870266
0.000741012
-5.51766e-05
-0.000382612
-0.00125569
0.00144248
0.000195826
0.00108111
-0.000611853
-0.000439655
-2.96022e-05
0.000548057
0.000229688
0.000290584
-0.00106833
-0.000776213
0.000995615
-0.000219403
0.000889417
-0.00082853
0.000123543
3.05212e-05
-0.00135781
0.00132728
0.00104326
-0.00121556
-0.000210311
0.000264637
0.00118145
-0.000265088
-0.001181
-4.00766e-06
-0.000963831
0.000967839
0.000524872
0.00161287
-0.000883497
-0.00125424
-8.9688e-05
-0.000628769
-0.000429013
0.00114747
-0.000294727
-0.00162192
1.07381e-05
0.00190591
-0.00102994
0.00041698
0.00125933
-0.000646366
7.62728e-05
0.000966985
-0.000857663
0.000933936
0.00092609
0.000247614
9.99282e-05
-0.00127363
-0.000489272
0.00218877
-0.000142399
-8.90998e-05
-0.000621721
0.000566737
0.000144085
-0.000206145
0.0024352
-0.000115514
0.00197589
-0.00102621
-0.000424807
0.00225369
-0.000275427
-0.00120927
0.00180736
-0.000322666
-0.00227981
0.00191516
0.000937112
-0.000572465
5.77192e-05
0.00104784
0.00087033
-0.001004
-0.00131887
0.00139237
-0.000716494
-0.000988296
0.0019098
-0.00020501
0.000740357
0.000843271
-0.00158363
2.62051e-05
0.000168861
0.00222427
-0.00241933
-0.00117467
0.000993025
0.00144018
-0.00125854
0.00135765
-0.00214585
0.0017248
-0.000936598
0.000449865
-2.2857e-05
-0.000427008
-0.000923937
-0.000517194
0.00017194
0.00126919
-0.000473728
-0.000679163
8.9438e-05
0.00117076
-0.000969159
-0.000291041
0.000984309
-0.00102511
4.08037e-05
0.000109642
-0.00130643
0.00137847
-0.000181677
0.00114615
-0.00282833
0.00139765
0.000284528
0.000655224
-0.00087421
0.000218986
0.000867526
-0.000110844
-0.00085978
0.000103098
-0.000174009
-0.0028695
0.00259035
0.00045315
-0.00113286
0.000195137
0.00132052
-0.000382794
-0.00118631
3.82097e-05
0.0011481
0.00118296
0.000200056
0.000785238
-0.000590194
-4.90272e-05
0.00152864
0.000102819
-0.00168139
0.00140457
-6.39741e-05
0.00116672
-0.00110274
-0.000816959
0.000505911
0.00135506
-0.00104401
-0.00018601
0.00155267
-4.38246e-05
-0.00132283
-0.000187236
0.00144232
-0.0009754
-0.000279684
-0.00100246
-2.22422e-05
0.00118138
-0.000156677
0.00083243
-0.0017401
0.000949969
-4.22956e-05
-0.000891563
0.000696981
-0.000716469
0.000911052
0.000863737
3.41367e-05
-0.000100879
0.000132407
-0.00125903
-0.000303373
0.00143
-0.000258129
-0.00138332
0.00061834
0.00102311
0.000493548
-2.10837e-05
0.00113425
0.000275095
-0.00138826
0.000581739
-0.000410092
0.00117228
-0.00134393
-0.000751436
0.000930949
0.00124244
-0.00142195
0.00203439
0.000510704
-0.00205154
1.61056e-07
-0.00121048
0.00121032
7.49046e-06
-0.00122642
0.00127537
-5.64417e-05
2.39889e-05
0.00131084
-0.00117887
-0.000155959
0.000394341
-0.00198937
-6.49569e-05
0.00165999
-0.00110095
0.00132101
-0.000220059
0.00020226
-9.2428e-05
0.0013259
-0.00143573
-0.00102586
0.000227836
-0.000709004
0.00107355
-0.00143077
0.00106622
-0.000327225
-8.10695e-05
0.000408295
0.00324052
-0.00158161
-0.000703461
-0.000955447
0.00130479
0.00334326
-0.00140753
0.00216109
-0.00199883
0.000188989
0.00110084
-0.000852267
0.00121914
-0.000386532
1.96622e-05
-0.000254914
4.79342e-05
0.00179071
-0.00125116
0.000471064
0.000960802
-0.000180702
-0.00105227
0.00174107
0.000130785
0.00122123
-0.00139806
0.000708611
-0.000531782
0.000181402
0.00245659
-0.00243573
0.000735104
6.38698e-07
-0.000735743
-4.51698e-07
-0.00095673
0.000957182
0.00170507
0.000137872
-0.000381596
-0.00146135
0.00221047
-0.000712144
-0.00093556
-0.000562767
-0.000139724
-0.00280345
0.000846742
-8.61104e-06
-0.000679288
0.000687899
0.00147047
-0.00134925
-0.00133356
0.00121235
0.00106482
0.000444024
-0.00125275
0.000864082
-0.000532509
-0.00131813
0.000986554
-0.00104286
-9.47913e-06
-0.000803451
0.00185579
-0.00159308
-6.78687e-06
0.00159986
0.00099301
9.3758e-05
-0.00105662
-3.01469e-05
-0.00127232
-2.08272e-05
0.00129315
6.42934e-05
0.00107032
-0.00113462
-0.000782612
0.00173421
-0.000125973
-0.000825626
-0.00187861
0.00226252
0.00142711
-0.00181102
0.000901205
0.000769379
-0.000208424
0.00133806
-0.000865005
-0.000264635
-0.000229807
-7.79076e-05
-0.00115529
0.00146301
0.00130449
-0.00114736
0.000912642
-0.00106978
-0.00123775
0.00128822
-5.04685e-05
-0.00151433
0.000253325
0.00130057
-3.95572e-05
-0.00264277
0.00052865
0.0020105
0.000103627
0.000260692
-0.00033453
-0.00130878
0.00138262
0.00190152
0.000181185
-0.00109222
-0.000990483
0.00103408
-0.000786145
-0.00104155
0.000793615
0.00119102
1.18399e-05
-0.00120286
0.000109835
-0.00202572
0.00148222
0.000433656
0.000752767
0.000448905
-0.000300466
0.000273711
-0.000881908
0.00128587
-0.00067767
-0.000545331
0.000529509
-0.000121952
0.000137775
-0.00362619
0.00437318
0.00141029
-0.00215728
0.0018197
-1.18943e-05
-0.00181893
1.1119e-05
9.17687e-06
0.00146348
-0.00157287
0.000100222
-0.00219281
0.00192112
-0.000510926
0.000974477
0.0012197
-0.00110397
-0.00109022
-0.000967717
-6.94975e-05
-0.000105247
0.00114246
0.00101053
5.27157e-05
-0.00106324
0.00128827
-7.10635e-05
-0.00121721
-0.00227761
0.0021463
8.44929e-05
4.6814e-05
7.04199e-05
0.00146767
-7.19041e-05
-0.00146619
0.000909427
0.000458551
-0.00297751
0.00160954
-0.000630631
0.000630643
-1.18603e-08
0.000924179
2.11589e-06
-0.000926295
-4.66132e-07
-0.000556873
0.000557339
-0.000530743
0.0010803
0.000725884
-0.00127544
3.5383e-06
-0.00114345
0.000897108
0.000242808
-0.00128321
-0.000526049
-0.000468355
3.25601e-06
-0.000888553
-0.000132238
0.00101753
-0.00068738
1.28524e-05
0.000674528
0.000235015
0.000729253
-0.000237599
-0.000726669
0.00050284
-0.000895073
0.000392233
-0.000243037
-0.000833084
-0.00031044
0.00138656
0.000709508
0.000940558
0.000138615
-0.00178868
0.00185642
-0.000675178
-0.000601584
-0.000579658
-6.80728e-05
-0.00153316
0.0017869
-0.000185672
0.0007361
0.000387823
0.000212491
-0.00133641
0.0023203
0.00103344
-0.00217625
-0.00117749
-2.84177e-06
0.000587578
-0.000584736
-0.0013732
4.09292e-05
0.000317689
0.00101458
-0.00134581
-0.000149411
0.00153109
-3.58634e-05
0.000374603
-0.000468981
0.00191408
-0.000476422
0.000629233
-0.000152811
0.000937431
2.69512e-05
-0.000964382
0.000194461
0.000122384
-0.00123673
0.000919888
0.00131885
-0.000130088
-0.00122708
3.83246e-05
-0.00111343
-6.11436e-07
0.000237827
0.000321593
-0.00146027
0.000900846
-0.00135677
9.78273e-05
0.00125895
-5.32515e-05
-0.000949213
-0.000123769
0.00208952
0.000147245
-0.002113
0.00111652
-0.00118253
6.60106e-05
-0.00119416
0.00118139
1.27743e-05
0.000959587
-0.00108336
0.00026254
0.000876308
0.0010891
-0.00222795
-0.00117263
-0.000640139
0.00181277
-9.07516e-06
0.000836219
-0.000827144
-1.94794e-05
-0.000909646
0.000929125
0.00111464
-0.00110762
-7.02347e-06
-0.00123531
4.73906e-05
0.00124199
-5.40708e-05
0.000302151
-0.00139083
0.0010623
0.000693646
0.000583308
-0.00233817
0.00106121
0.000721229
4.94719e-06
-0.000726176
4.73552e-05
0.00136519
-0.00141254
0.000672029
2.42865e-06
-0.00153955
0.00137048
0.00129889
-0.00112982
-0.000969613
0.000122947
0.00124337
-0.000396703
0.00169646
-0.00244431
0.000590937
0.000156914
-0.00218902
0.000487334
-0.0010459
0.00115601
-0.000110101
2.57553e-05
-0.00116008
0.00113432
-0.00100319
-1.97944e-05
0.00102298
-0.00117457
6.32557e-06
0.00116825
0.00112361
-0.00123201
0.000108402
1.39773e-05
0.00173456
-0.00174854
-0.000256878
-0.000234221
0.00124387
0.00123783
-0.00129279
-0.000883961
0.000938927
-0.000698742
0.000127459
0.0013565
-0.000785213
0.000666926
-0.00156868
-0.000101433
-7.2887e-05
0.00153345
-0.00146056
0.000454912
0.000424167
-0.000580046
-0.000299034
-0.000706409
0.00115819
-0.00139177
0.000939987
-0.00112418
-0.000426755
0.00155094
0.0022762
-0.00140362
-0.000872579
-0.000432104
0.00163507
0.00107133
-0.00227429
-0.00118653
0.00143902
-0.00143586
0.00118337
0.000508897
-0.0003823
-0.000584576
0.000457979
2.12493e-05
-1.36442e-05
-0.00127992
0.00127231
-0.000118507
-0.00180191
0.00192041
0.000404993
5.3317e-05
-0.00152678
0.00106847
-0.00150305
0.00116637
0.000336682
-0.000702811
-0.000351916
0.00101383
4.08981e-05
-0.000991032
0.000985983
5.04916e-06
0.000963434
-0.00081483
0.00120904
-1.03703e-05
-0.00157775
0.00158066
7.45692e-06
0.00304721
-0.000787981
-0.00152944
-0.00072979
-0.000471308
0.00166314
7.99179e-06
-0.00119983
-0.000550296
0.000819085
0.000457468
-0.000726257
-0.00132476
0.000778043
0.00137623
-0.000829506
0.000727328
-0.000868483
-0.0003394
0.00150744
3.97826e-05
-0.00120783
0.000906336
-0.000999645
0.00010355
-0.00213752
2.41651e-05
-2.11172e-05
0.00213448
-0.000297124
-8.38411e-05
-0.000799632
0.0011806
-0.00108437
0.00139485
-0.00110864
0.000798151
-0.00247905
-0.00033465
0.00260755
-0.00160748
2.28051e-05
0.00160916
-2.44871e-05
0.00100649
0.000162805
-0.000678796
-0.000490497
-0.000317527
-0.00123377
0.00065562
0.000895673
0.00106764
-0.000418625
-0.0014072
0.000758182
-0.00138753
-0.000357582
-3.10159e-05
0.00177612
0.00111012
-0.000136198
-0.00101856
4.46337e-05
0.000940163
-0.00094414
3.97703e-06
-0.00074542
0.00242688
-0.0020162
0.000334737
0.000156319
0.00143145
-0.00230349
0.000715723
-0.00094533
-0.000307832
0.000993454
0.000259709
0.000330075
-0.000316893
-0.000958513
0.000822376
3.3171e-05
0.000161043
-0.00101659
-8.8198e-05
0.000615753
-0.00266508
-0.00138856
2.84957e-05
0.001782
-0.00042194
-0.000995178
0.00116128
-0.000166097
0.000489791
-0.00045934
-0.000649097
0.000618647
-0.000700631
-0.00128679
0.000808963
0.00117846
-0.000577193
0.00179594
-0.000661472
-0.000557271
-0.0014804
1.02954e-05
-0.00129561
0.00161539
-3.9035e-05
3.43871e-05
-0.00128128
0.00128593
0.00123739
0.00132703
-0.00141029
-0.00115413
0.000982111
-0.001013
3.08937e-05
0.00125367
-7.85971e-06
-0.00124581
0.00106974
-0.00124165
0.000351283
-0.000179378
-0.000312143
-0.0009151
0.0022207
-0.00164465
0.00141174
-0.000212798
0.000445707
0.000547126
-0.000744604
0.00176773
-0.00157026
-0.00157591
-0.00114991
0.00187357
0.000852255
-8.45265e-05
-0.00173661
0.000176485
0.000274844
-0.00144882
-1.18842e-05
0.00118586
0.00133499
0.000351593
0.00180881
-0.00158398
-0.000594384
0.000369559
-0.00133912
0.00132917
0.00108383
-0.00107389
0.00101478
0.000503006
-0.00115192
-0.000365866
0.000508396
-0.00111702
0.000927819
-0.000319197
0.00139176
-0.00114098
-0.00181297
0.00156218
0.00145935
-0.00162443
8.05575e-05
-0.000901051
0.000905034
-3.98296e-06
0.000112618
-0.000102094
0.0015107
-0.00180487
0.00170266
-0.00140849
0.00111973
-0.00100711
0.00113739
-0.0012299
-3.75963e-05
0.000130102
-2.44465e-05
-0.000519487
0.000543933
-0.000123563
-0.00103694
0.00124387
-8.3369e-05
0.00191015
-0.00171912
0.000135764
-0.00032679
0.000204314
-0.00226695
0.000184024
0.00169606
-0.001736
-0.000187507
0.000227442
0.000371553
0.000279053
0.000461247
-0.00111185
-0.000100998
0.00094867
0.00092388
-0.00177155
-8.04596e-05
-0.00117135
-0.000325274
0.00157709
-0.00057027
0.00170886
-0.000464642
-0.00067395
-0.00106834
0.000453084
0.001685
0.00104573
-0.00211858
0.000232244
0.000840607
-0.000305329
7.13918e-05
0.00193
0.000313058
0.00142703
-0.000488597
-0.00125149
-5.18274e-05
5.41836e-05
-0.00123874
0.00123638
0.00185861
0.00010445
-1.30837e-05
-0.00194998
0.00103637
0.000454103
-0.000412055
-0.00107842
-0.00112278
-0.000479896
0.000534341
9.1932e-05
0.000648198
-0.00065784
-8.22905e-05
0.000189502
1.635e-05
-0.0014475
0.00100858
-0.000527318
-0.000136939
-0.000344323
0.000148166
0.000701588
-9.81238e-05
-0.00075163
-0.00112206
0.000962847
0.00120494
0.0007433
-0.00323127
0.00062997
0.001858
0.000176842
-2.97874e-05
3.30001e-05
0.00127206
-0.00127528
0.00220461
-0.000708033
-0.000732171
-0.000764409
-0.00107585
1.36864e-05
0.00147783
-0.000415664
-0.000136312
-0.00103833
0.00125232
-7.76755e-05
0.00104301
-0.00142211
-0.000694694
0.0010738
-0.000986774
0.000958615
2.81587e-05
-2.94855e-05
0.000952365
-0.000922879
-0.000466134
-0.00109054
-0.000402454
0.00195913
-0.000810745
0.000908601
-9.78556e-05
-0.000152964
-0.00132768
-0.0003346
0.00181524
-0.0023432
0.000863877
-0.00127881
0.00275814
-0.00160391
3.71529e-05
0.00156676
0.000757878
0.000839144
-0.000810991
-0.000786031
0.000976153
-0.00055923
-0.000184669
-0.000232254
0.00130382
2.84936e-05
-0.00133231
0.00124571
-0.00372526
0.000136344
0.000845561
-3.13718e-05
-0.000814189
-0.00144438
-0.000573074
0.00194084
7.66176e-05
-0.000876875
0.00452866
-0.00277262
-0.000879169
-0.00263805
0.00317648
-0.000465198
-7.32342e-05
0.00157624
-0.000909192
0.00219188
-0.000771854
-0.00168097
0.00248292
-3.00948e-05
-4.85246e-06
-0.000121761
-0.000680355
0.000806968
0.00148766
0.00190734
-0.0021686
-0.0012264
-0.00152903
0.00180793
0.000496143
-0.000775035
0.00169576
-0.00031094
-0.000663189
-0.000721634
0.000144939
-0.00108555
-0.000188497
0.00112911
-0.00322223
9.97337e-05
0.00164919
0.0014733
-0.000591306
0.00225045
-0.000872478
-0.000786669
0.000382046
-0.000937496
0.00178658
-0.00123113
-0.000193153
-0.000553027
0.00104584
-0.000299664
-0.000918784
0.000977619
-6.24476e-05
3.61209e-06
0.00160061
-0.00180674
-8.67057e-05
0.000292832
-4.87246e-05
-0.0015958
0.00160843
3.60939e-05
0.000130401
-0.000116272
-0.00152642
0.00151229
0.00220871
-0.000362553
9.40496e-05
-0.0019402
-0.00145324
-0.000305386
0.000372917
0.00138571
0.000491614
-0.00049163
1.57714e-08
0.00108931
-0.000741139
0.000726794
0.000226323
0.0020868
-0.000124772
-0.00218835
-0.000332957
0.000224034
0.000277888
-0.000168965
-0.00162885
-0.00202537
0.002928
-0.00115806
0.00132611
0.00126298
-0.00143103
-6.49187e-05
0.00129245
-0.00162996
0.000402429
-0.00123957
-0.00129808
-8.23608e-05
-0.000334368
0.00171481
-7.02369e-06
-0.000660541
0.000667565
-7.59394e-06
-0.000952225
0.00221977
-0.00125996
0.000650559
0.000916159
0.00163377
-0.000818594
7.65613e-05
-0.000891736
0.000717865
-0.000199444
-0.00119857
0.000680146
0.000901561
4.28924e-05
-0.00137382
0.000429371
-0.000648993
0.000537514
0.00203442
-0.00192294
0.00174325
0.00124582
0.000163174
-0.00315225
-0.00155847
-9.83692e-05
0.000315745
0.00134109
-0.00130656
0.00139168
-8.51189e-05
-9.11241e-05
0.000865388
-0.000129784
-0.00064448
-0.00026796
0.000551179
-0.000283219
0.00109026
0.00154932
-0.000695664
-0.00194392
0.000933164
-0.000934239
1.07468e-06
-0.00264369
0.000617085
0.0014772
0.000549408
0.000107168
-4.72286e-05
0.00128426
-0.0013442
0.000822252
3.41561e-06
-0.000825667
0.00168881
-0.00187531
-0.00120429
0.00139079
-0.00148673
-0.00287191
0.00171495
-0.000290425
0.000187582
0.00119568
-0.00109284
-0.000512313
0.00155843
-0.000164333
-0.000881784
0.000320286
-0.000846601
0.00124418
0.000973895
4.67338e-05
-0.00102063
0.00289244
-0.00069937
0.000171897
-0.00236496
0.00109291
0.000312796
0.000699757
-0.00167179
0.00080347
0.000168561
-0.00175983
4.97648e-05
0.0013195
0.000390568
-0.000328116
-0.000724035
0.000767029
0.000285122
0.00103104
-0.00132793
0.000296894
-0.000365138
-0.000709917
0.00107506
0.000910576
-0.000589642
-0.00103367
0.000712734
-0.000390024
-0.000216994
0.00156007
-0.000953051
-0.000766347
-0.00122497
0.000947771
0.00104355
-0.00150507
0.00137441
-2.53332e-05
0.000156003
-8.76374e-06
-0.000928732
-0.000225007
-0.000820706
0.00103525
1.04634e-05
0.00157
-0.00147644
0.000428707
-0.000522272
0.00238292
-0.00237115
0.00108114
-0.000415476
0.000456075
-4.05994e-05
-0.00087101
0.000859704
1.13066e-05
-7.8677e-05
0.00109046
0.000372556
-0.00138434
-0.000691255
-0.00108918
-0.000429702
0.00221014
-0.00064552
-0.000496059
0.00224166
-0.00110008
0.00110986
0.000297614
-0.00148615
-0.000214389
0.00165447
-0.000752241
-0.000687837
0.000235194
-0.00109262
-0.000478901
0.00133633
-0.000304486
0.000187165
-0.00152328
0.0016406
0.00151747
-0.00109887
-0.000839831
-0.000626635
-0.000186859
0.00165332
0.000452966
-0.000229851
-0.00022684
3.7249e-06
-0.00177937
0.00207582
-0.000211449
-8.50008e-05
0.000581177
0.000641816
-0.000610882
-0.000612111
-0.000244571
0.0012686
2.66631e-05
-0.00105069
0.00141763
6.04685e-05
-0.00126686
-0.000211236
-0.000175098
-0.00174073
-0.000431566
0.00234739
-0.00015027
0.00125955
-0.00110928
0.00152474
0.00129505
-0.00173591
-0.00108388
0.00101103
8.08857e-07
-0.00101184
0.000111313
-0.00133188
-0.000333242
0.00155381
0.00238338
-0.000340054
-0.00112025
-0.000923074
3.39255e-05
0.00239627
-4.68197e-05
0.00117146
-0.00111948
-5.19793e-05
-0.000421888
-0.000821553
0.00124344
0.00217766
-0.000581105
-0.0013686
-0.00101851
-0.000995941
0.0016744
9.48106e-05
0.000402987
-0.00157212
0.00107432
5.64997e-05
-0.00135669
0.000848709
0.000451477
-6.63417e-06
0.00118251
6.86131e-06
-0.00118273
-0.000230258
-3.16406e-05
-0.00111783
-0.00029417
0.001412
-1.87842e-05
-0.000970235
0.000989019
0.00207615
0.000157779
-0.000133189
-0.00210074
0.000869586
-0.00161068
0.0003882
0.000352899
0.000548514
1.34161e-06
-0.000549855
-0.00158317
0.000258325
-6.39438e-05
0.00138879
0.000566931
4.18924e-05
0.00123644
-0.00184527
-0.000582833
0.000629053
-0.00174775
0.00170153
0.000174476
-0.000229337
-0.00163484
0.0016897
0.00116269
-0.00108617
-0.00249664
0.000284746
0.000736548
-0.000751322
-0.000762024
0.000776798
-0.000672315
0.000675193
-2.87829e-06
-0.00159846
-0.000564547
0.0023954
-0.000343242
-0.00148761
-0.000931591
-0.00028328
0.00126393
-4.90557e-05
0.000268456
0.00151826
-0.0005814
-0.00120532
-0.00300912
-0.00252847
0.000197112
0.00242342
-9.20653e-05
0.000179538
0.000129835
-0.00104299
0.000733614
0.00166675
-0.0015399
-0.00171993
0.00121511
0.00034806
-0.00156317
0.0017316
-0.00032017
-0.00123901
-0.000172425
-0.00103541
-5.73682e-05
-0.000699107
0.00179189
0.00170076
-0.00143864
-0.000506279
0.000244156
7.44859e-05
0.000527563
-0.00162479
0.00102274
5.51594e-06
0.000884227
0.000136011
-0.00102575
-0.000824968
0.00105042
0.000296723
-0.000522173
1.23396e-05
0.00145331
-1.14942e-05
-0.00145415
-0.00109796
0.0011103
-0.00102338
-2.28538e-06
0.00102567
-0.00167023
-0.000154159
0.000417813
0.00140658
0.00117466
-0.00114862
0.000687406
-0.000713442
0.000289876
0.00102039
-0.00110177
-0.000208501
-0.00141381
0.00206931
-0.000238197
-0.000417301
0.00082344
-0.000786858
-3.65824e-05
1.60502e-05
0.000652577
0.00171429
-0.00138145
0.00117765
0.000507083
-0.000303281
-0.000340573
0.000758879
-0.000418306
-3.54556e-05
0.00118656
-0.00115111
-0.00185959
0.000705312
0.000361772
0.000792506
-0.00333999
0.00243422
0.000921821
0.00247912
-0.000296431
-0.000424097
-0.0017586
0.000991698
0.000121618
0.000634621
-2.94359e-05
-0.000665032
5.98475e-05
0.000686736
-0.00053857
2.68062e-05
-0.00159544
0.00156863
-0.00275522
0.00197
-0.000875208
0.00211122
-0.00142883
0.00019281
0.00144122
-0.00194934
0.000602926
0.00110791
-0.00202365
0.000390126
0.000525621
-0.00102913
0.00123603
-0.000206906
0.00214741
0.00044958
-5.3002e-06
-0.00259169
-0.00103148
0.0010404
-8.92098e-06
0.0028067
-0.00251559
0.000324646
0.00166339
-5.42824e-05
-0.00160911
0.00119367
-0.00121682
2.31575e-05
-0.00119337
0.000134078
0.00105929
-0.000459963
-0.00112921
0.0003958
-0.00244195
0.00160147
0.000439523