/*--------------------------------*- C++ -*----------------------------------*\
  =========                 |
  \\      /  F ield         | OpenFOAM: The Open Source CFD Toolbox
   \\    /   O peration     | Website:  https://openfoam.org
    \\  /    A nd           | Version:  10
     \\/     M anipulation  |
\*---------------------------------------------------------------------------*/
FoamFile
{
    format      ascii;
    class       volScalarField;
    location    "88";
    object      SgRate;
}
// * * * * * * * * * * * * * * * * * * * * * * * * * * * * * * * * * * * * * //

dimensions      [1 -1 -3 -1 0 0 0];

internalField   nonuniform List<scalar> 
59698
(
0.0162445
0.00198812
0.00252355
0.00271586
0.0303779
0.00145199
0.00463368
3.03681e-05
1.98491e-09
3.92301e-09
0.000586477
0.000299385
1.57799e-09
0.00229237
0.000360607
4.27221e-07
6.99263e-06
0.000146072
4.51662e-05
0.000251375
0.00175176
0.0141948
0.000499019
8.81923e-08
0.0422613
6.77772e-05
0.00034287
0.0101067
0.00918463
0.00746544
0.00479514
0.000600704
6.66397e-08
0.0165502
0.00245137
0.000163841
0.0195149
0.0204391
3.09302e-05
0.0251452
0.00864999
2.30473e-07
0.00372163
0.000641156
0.000402107
0.0322589
7.40478e-05
0.000730222
0.0031578
0.000173246
0.00151975
0.000119332
0.00206556
0.00273442
0.0114023
7.68627e-05
0.00132435
0.000211841
0.00080534
0.00286602
0.0052316
0.000501553
0.122499
7.04056e-05
0.0125593
0.00160683
1.75297e-09
0.000399653
5.59006e-05
6.78424e-09
6.38435e-07
0.000251228
0.00036315
0.0421946
0.000411948
0.0395338
0.000118673
0.00923313
0.000356656
0.00614803
0.00885065
0.000479799
4.03667e-09
1.6154e-05
0.00848299
0.000551759
3.7143e-06
4.22045e-05
0.0633247
0.000129217
4.4972e-09
0.00206569
0.0147307
9.84659e-06
7.34049e-05
0.00375159
0.00529659
6.1175e-05
0.000272183
8.59765e-10
0.0765759
0.00179698
0.0161911
0.0152998
0.000121385
0.000564776
4.40343e-05
3.67489e-05
2.7133e-09
4.40265e-10
0.000250149
7.28876e-06
0.0379395
1.56281e-07
2.62117e-05
4.5081e-05
4.00954e-05
0.00353827
2.36729e-05
1.14655e-08
3.6385e-05
0.000708544
1.16201e-06
6.14783e-06
2.12684e-05
3.34833e-05
0.0108071
7.20059e-09
2.78067e-05
2.97967e-05
0.0448817
3.73465e-05
1.10278e-09
0.100165
0.00430953
0.00438208
2.14671e-06
2.55803e-10
0.000255634
0.000131429
0.000109224
0.00231877
0.00270029
0.0026675
1.00111e-05
0.000692469
6.38852e-06
2.20865e-05
0.00448985
0.0292936
0.000299516
0.000434377
0.0014879
7.58447e-06
0.000162157
0.000342518
4.75637e-05
0.00162925
0.0123897
5.33104e-10
0.000856803
5.11058e-05
0.0164536
0.00164356
0.00342573
0.0345861
0.000238276
0.0717111
0.00200389
0.000411384
0.0120218
1.53116e-06
0.0108142
0.0148582
0.0795869
0.0019468
4.36696e-09
0.00144673
0.000326021
0.00928451
0.00945575
0.0182815
0.0147784
1.98373e-05
0.0456438
0.000236214
0.011448
0.0024798
6.52185e-06
0.00118247
0.000402512
6.70074e-05
0.00268325
0.0387453
0.00407144
0.00417145
0.00984488
0.0581665
2.70038e-05
0.0076893
0.000227086
0.00628446
0.0210618
6.59864e-05
0.0104521
0.00277381
0.00615246
0.0028575
0.00782451
0.0114625
0.00256105
2.36743e-05
0.00278777
1.56803e-08
0.00406569
0.00336754
3.74157e-05
3.64542e-05
0.0127791
0.00664938
0.00559971
0.00268733
2.96911e-05
0.0664092
0.000819272
0.0264332
0.00732599
0.00323448
0.00686151
0.158012
7.57534e-09
0.00470844
0.00293271
0.00319667
1.38564e-05
0.00963322
0.0829551
1.91197e-05
8.96254e-07
0.000450319
0.00262481
0.00147185
0.0135096
0.000664542
0.00609697
0.000120838
0.00378209
0.22813
0.00122297
0.000427072
0.000703415
0.00163807
0.000628336
0.000233554
0.000618611
0.0023908
0.00600805
0.00128764
0.00364387
4.09846e-05
1.46086e-05
1.82451e-09
0.000389851
0.00591804
0.0047184
0.0475698
2.31939e-05
1.0738e-07
0.00016506
1.62868e-05
0.000141661
0.0438209
0.000222416
1.84206e-05
0.0180392
0.0002058
0.00146596
0.000511656
0.00207634
1.2179e-09
0.00057414
0.000193393
0.000212385
0.104853
0.0490636
0.0203137
0.00013532
0.000647395
0.072859
0.000444654
0.0901954
0.00234115
0.00018821
0.000164785
0.000320299
0.00273551
0.00035694
0.000804249
0.00421408
1.18312e-05
0.00272183
2.35775e-09
6.86656e-08
0.000824166
6.46245e-05
5.27878e-05
0.0520936
0.00101539
2.03368e-06
0.00026772
0.0019797
7.07806e-05
3.8264e-05
2.37986e-08
0.00193964
0.00514055
0.000403389
0.000393413
0.000829308
0.000805433
0.000340241
0.323639
0.000321284
2.90999e-09
0.0482307
0.0105646
0.000328378
0.000353543
0.00044245
0.000361923
0.00949562
0.00415453
0.0203668
0.205017
0.000430952
1.88204e-05
9.86284e-06
0.000663078
0.00908586
0.00448509
0.0102444
0.00206606
0.00253462
0.00148041
9.69326e-05
6.77537e-06
0.000102648
0.0396162
4.76091e-05
0.00204827
0.00798632
9.16368e-05
0.0401065
7.95854e-10
0.245123
0.00216988
0.0141011
0.000125972
3.82082e-05
1.82556e-09
2.75369e-05
8.88222e-06
1.10338e-07
0.000894057
1.11713e-10
1.04124e-07
0.00281297
0.00203079
0.000156007
0.00165792
0.00189576
0.000533996
0.0036739
0.000651131
0.00619287
2.98354e-09
0.000153354
2.44887e-05
0.000460524
2.49198e-09
0.000347123
0.000102734
5.63825e-05
0.000527106
0.000140077
1.95731e-05
0.00021188
0.000544824
7.93786e-10
0.000143773
8.76116e-05
0.000457463
0.00457252
0.00263751
0.00133923
0.00227885
0.0477302
0.00184027
0.0027207
0.000145675
0.00284884
0.00238672
0.00258648
3.98592e-05
0.00148703
0.00420652
0.0854109
0.0283122
2.29863e-05
0.00541164
0.0314851
0.000404302
0.00178325
0.000434526
4.8865e-08
0.0590924
2.73496e-06
0.0103334
0.00240268
0.00184155
0.00303727
0.00218733
0.00252732
0.311252
3.75674e-05
1.30418e-05
7.76747e-09
0.000218571
0.00143132
5.65831e-10
0.000260969
0.00214573
0.0163859
0.00303028
0.00211555
1.42972e-08
1.39586e-08
0.21292
0.000123458
0.00317772
1.92325e-07
0.0032572
5.04726e-09
2.19163e-05
4.04603e-05
0.00239474
0.070084
4.51498e-10
6.45783e-05
0.00907757
0.00256153
0.000125207
5.94055e-05
0.0327615
0.000284846
9.71616e-05
0.108608
1.38725e-09
0.00976636
2.89227e-05
0.0543628
8.70175e-06
0.0158973
0.013323
2.20201e-09
0.000975926
0.000446525
0.00847419
3.34273e-05
0.00805464
0.00292404
4.40608e-09
2.1253e-10
6.90938e-09
0.000386502
0.000817729
0.00111292
0.0688993
0.0062275
0.00220409
3.50439e-05
0.000499337
3.93908e-05
1.9069e-08
0.00536919
4.55546e-05
5.57004e-05
9.38494e-05
0.0657244
0.0017961
0.023012
0.0663141
0.00110567
0.000163506
0.05869
6.16937e-05
5.49866e-07
0.00237023
0.00944927
0.000365619
9.76138e-10
0.0641495
0.00717668
0.00459888
1.71064e-08
1.11809e-09
3.84602e-05
2.13902e-09
1.24771e-05
0.00314176
0.000585179
0.0748046
0.00737804
5.41924e-08
0.00909707
5.58385e-05
6.8755e-09
3.85604e-05
7.03569e-08
2.48317e-08
0.00542028
0.00378572
1.17009e-05
3.85174e-09
2.18971e-09
0.00126498
0.00955147
1.04351e-05
0.0107092
0.0039041
3.88355e-05
0.0428136
1.82756e-08
2.22919e-05
0.00145197
3.55262e-10
1.35536e-08
0.00185452
0.000138628
0.000384878
0.00974332
0.000357096
0.000148034
0.0674382
0.00819134
0.0135401
0.00999932
0.000173299
0.011717
7.83668e-06
4.19776e-05
2.28733e-09
3.92307e-05
1.90914e-09
0.000282517
3.02185e-06
1.92837e-08
0.00116413
0.00688861
0.000451363
0.000768506
1.72002e-09
3.30949e-05
9.31517e-05
5.57193e-05
1.81057e-09
0.0745622
5.27438e-05
0.00551053
0.000539254
0.00288042
6.42914e-05
1.90793e-07
0.00259818
0.00286861
0.00338064
6.78942e-05
0.00402278
0.00211795
2.31661e-09
0.000732636
7.56959e-05
0.00520166
5.45054e-05
0.00404786
0.000313351
0.0024299
1.77933e-05
0.00413884
0.00268389
0.00216289
0.00332641
0.000371816
0.000167838
8.51455e-10
1.90746e-05
9.27117e-07
0.00432001
0.000349775
7.33793e-09
0.00515184
3.36761e-05
2.85149e-09
0.00340495
0.00148635
0.00216356
0.000164861
0.00108747
0.00393105
6.54197e-07
8.11116e-06
0.000548488
1.0168e-05
0.00433995
0.00140854
0.00278945
2.21454e-05
0.226026
1.87888
2.06926e-05
5.04223e-09
0.000598498
0.00214327
0.000966995
0.00248037
4.88828e-05
0.00711272
0.00246415
0.00318844
0.00156698
0.00276875
0.00021126
9.22339e-05
0.00114619
0.000108051
0.00132736
0.000236234
2.43547e-05
0.00156773
0.109721
0.000238405
5.07719e-06
0.000607886
1.45204e-09
0.0024301
0.00380497
4.14487e-05
0.00244447
0.000120843
1.7597e-09
0.000439478
0.000176642
0.00829214
0.000806455
0.000588346
0.000114562
4.06259e-05
7.90656e-06
0.000325122
0.00202916
0.000309105
0.000814626
0.000881841
0.0196281
0.0898912
0.00136976
3.34417e-05
0.0023333
0.00319731
0.0415598
3.86496e-09
2.13798e-05
0.000460564
0.00354648
0.000144053
0.00168197
0.000428463
0.0107883
0.0473345
0.000145466
0.000422591
8.03157e-05
3.53427e-07
0.000378101
0.00140721
1.5663e-05
0.00215154
0.000195053
0.000191312
0.0113612
0.00441402
0.0391774
0.000808733
0.00138487
0.00211588
0.00244214
0.000241857
0.00117925
0.000650613
0.000159456
2.29904e-10
9.45603e-10
0.00661127
0.000820874
4.49095e-05
1.48091e-09
0.00637698
2.8831e-05
4.41996e-06
2.72697e-09
0.00342985
4.18095e-08
0.00050333
0.000362127
2.82927e-05
0.00194923
0.0091764
3.44339e-05
1.36738e-09
0.000646936
0.0624226
0.00321948
3.85056e-05
0.000957148
0.00145417
0.0257501
0.00882385
1.34551e-09
0.0558476
5.18699e-05
0.00256759
0.000344565
0.0093933
6.57181e-05
1.48142e-07
0.0111579
0.00449484
0.000532167
0.00308807
0.0598774
0.000585107
6.92651e-05
0.24486
0.00232582
0.000745608
0.00239909
0.00191778
0.00173452
5.24516e-06
0.0152964
1.89189e-05
0.0600162
0.00317587
0.0245659
7.43882e-10
0.000212117
0.105102
0.238249
0.000599773
6.87191e-05
0.0499946
0.000383644
0.00225596
0.00516537
0.00194316
0.00827307
0.00405191
5.95683e-05
0.000401563
0.00198517
0.014239
0.000373921
3.51171e-10
0.00269247
2.55014e-09
0.00433359
3.87021e-05
0.000224065
0.00607675
0.00523484
1.23429
3.75625e-09
0.0245674
0.00973491
0.021042
0.001061
0.00478604
0.00032609
0.000957834
0.00159772
0.00140192
0.00656463
0.011139
0.103832
0.00219029
0.00546734
0.000541599
7.04294e-09
0.000383092
0.00036638
0.000232789
1.59338e-09
0.00320354
2.16438e-06
0.00948072
0.000214994
0.000730462
0.00158249
1.6572e-07
0.00682246
3.51555e-09
0.00100438
6.13054e-05
0.00130366
0.000119033
0.0137362
0.000651796
0.00179571
0.0198725
0.211135
8.1283e-05
0.00865179
0.000129109
0.000694561
0.000444791
0.000428758
0.00378147
0.000844344
0.00746552
0.000561236
0.00627151
0.00227908
2.03839e-06
0.000401152
7.30433e-05
8.29172e-05
3.33053e-05
0.000503653
0.000274059
0.000314472
7.69071e-09
5.1165e-09
2.1098e-09
0.000487217
2.11013e-09
0.00554069
0.00492849
0.00153388
0.000499721
0.00406291
1.66174e-05
2.91879e-09
0.0157567
0.000469631
0.000153184
1.30938e-09
0.0355401
0.00488359
0.000881844
9.0082e-06
2.46727e-05
0.0106193
2.63805e-07
0.00984421
0.000131697
0.000532569
0.000483801
0.00012835
3.3194e-05
2.50102e-09
0.0013412
1.50861e-09
0.00884815
8.98232e-08
0.00204702
0.000108819
7.01293e-05
0.00163666
0.0016495
0.000598715
0.00192349
5.99998e-06
0.00202211
0.000307139
1.24506e-09
0.00206033
6.28613e-05
3.31404e-05
0.00423798
3.06317e-09
0.000267487
0.0037251
0.0182849
0.000319936
0.00105841
0.00298445
9.16312e-05
0.00462157
0.000633464
0.000584059
0.00448771
0.000148513
0.000379941
0.00255483
0.00162237
8.57908e-09
0.00262672
0.000106353
1.22376e-05
0.0654365
0.000412233
0.00145649
0.00262429
1.49184e-07
2.03621e-09
0.00272533
0.00403388
0.00521602
0.0202747
0.00399464
6.88986e-07
0.0409854
9.34769e-05
0.00132648
0.115349
0.000230481
0.00457618
0.00452373
0.0323068
0.0587823
7.37015e-09
0.00254317
1.613e-09
0.0246784
0.000269316
0.000347489
0.00142122
3.86407e-10
0.000761135
0.00243432
0.00057732
0.00195258
0.00682931
0.00279976
0.00316837
8.41748e-05
0.0250907
0.000752291
0.000142082
4.70306e-05
0.000826008
5.68687e-05
0.00238102
0.00107187
2.05659e-05
4.84239e-05
0.0053313
0.000295092
0.00016416
0.00010687
0.00542385
1.45849e-09
0.000142048
0.00961335
0.00358231
0.000295221
0.00041509
0.000264689
0.000128243
0.000425254
2.39193e-08
7.54898e-09
0.000429221
0.00234349
0.000466221
0.000396245
0.0140851
0.0188499
0.0178187
7.57304e-06
0.00184149
0.002949
0.00271893
0.00484035
0.00597634
0.000398839
4.64409e-05
0.00255675
4.38272e-05
0.0111028
0.0566192
0.00198465
0.000443773
6.94042e-07
0.000538422
0.000106138
0.00115012
0.00226711
0.00234867
0.000608739
6.88654e-09
0.000122841
0.00236864
0.00236376
0.00232044
0.00365577
0.0471319
0.000395619
0.00190296
0.00135654
0.0230044
5.67725e-10
0.000398056
1.46102e-05
0.00463729
0.00045389
0.00160484
0.0047149
3.41997e-05
0.00347792
0.0035683
0.00366877
0.0054942
0.00952896
0.0100855
0.00817035
0.00523914
0.00589646
1.51597e-07
0.000149265
0.00047526
0.00596508
0.0047508
0.00222917
5.68103e-10
0.00174203
0.00390661
0.000245658
0.00160703
6.3468e-05
0.0147644
0.000126933
0.0406754
0.003149
0.7378
7.56023e-06
1.55982e-08
0.00211452
0.00317175
1.78387e-07
0.000760542
0.00399882
0.00701696
0.00433692
0.000636151
0.00677945
0.000542247
1.04724e-09
0.0197744
0.000765803
0.000928838
0.00116185
0.00267871
0.000323581
0.00112615
3.11727e-09
0.000534597
0.00817504
0.0027127
0.0923292
9.36323e-09
0.00241161
0.0817832
2.56117e-10
0.00874921
0.00276428
0.0251148
0.00130932
0.00363019
3.48187e-05
6.74564e-06
0.00132354
1.54749e-08
0.00123268
4.22515e-05
0.000118217
0.000126202
9.21516e-06
0.00171767
0.00323724
0.00965025
2.94144e-08
0.00224664
0.000520051
0.00016138
0.0363222
0.0544498
0.00500174
0.000373071
0.00425265
0.456895
0.0240092
0.0262644
0.000460147
0.00044909
0.102592
0.00013679
2.28795e-07
1.511e-06
0.0166078
0.000213571
0.00170687
0.000329917
0.00174748
2.99177e-08
0.00458537
0.00904007
0.00287784
0.000649626
0.000738769
0.000477735
2.26717e-09
0.000130821
0.00364221
2.52808e-10
0.0011445
0.000583785
0.00778579
0.000354281
0.109622
4.50601e-05
0.00118771
3.40005e-07
0.00566962
9.29557e-05
0.00110956
0.00256854
0.000380629
0.00242491
1.23614e-05
0.000137652
0.00285815
3.81842e-05
0.0186672
0.0121897
1.04209e-05
0.00150383
0.0841195
0.00295947
0.00399542
0.000114565
1.82651e-05
0.00370629
0.036206
0.00901297
0.00264939
0.000183352
0.00191508
0.0033663
0.00297426
0.00374123
0.00536824
7.54487e-09
0.116241
0.0515699
0.00048658
1.06175e-06
3.05167e-05
0.00312975
0.00244972
0.0261303
0.00113171
7.42967e-07
0.00230549
0.000371733
2.89842e-09
0.00355851
4.2241e-09
0.00269099
2.67309e-05
0.00148233
0.00376646
9.24506e-05
0.0196598
0.000151118
0.000434431
0.00364134
0.00413252
0.00205124
0.00210452
0.0118235
0.000579702
0.000345167
0.00037559
0.000264537
9.35575e-06
2.32727e-09
0.000190452
7.30285e-05
9.6939e-05
0.000781454
0.000646969
0.000853015
5.19227e-06
1.83643e-05
1.86649e-05
0.000318161
0.00267073
0.000496413
4.49166e-05
0.000238787
2.92586e-05
0.000315424
0.000232144
0.000223578
0.00390185
0.103331
5.29451e-05
0.00479307
0.00168061
0.00412627
4.89734e-09
3.54389e-06
4.40541e-05
0.00833214
0.0198881
0.00479225
0.00232806
2.20229e-08
8.50371e-05
0.000377623
0.00475883
0.00937367
1.05118e-08
0.005143
0.00282746
0.001075
0.00352612
0.00264105
0.0145804
0.00190348
0.003859
9.39098e-05
4.66335e-10
1.39677e-09
5.2821e-05
0.00564092
8.29099e-06
6.24256e-10
3.49573e-05
0.0050289
0.000210797
0.00100984
0.00101809
6.06515e-05
0.00191164
4.84576e-05
0.00389525
9.73687e-05
0.00209101
0.0285271
0.00211841
0.00122287
6.12151e-05
2.25163e-07
0.001016
0.000983776
0.01469
3.2065e-10
1.21766e-07
0.00122182
1.22671e-07
0.000888567
0.000216879
1.58172e-07
6.88524e-09
0.000215475
0.000284243
0.000584267
0.00220031
0.00208094
0.000277606
0.000574446
2.58448e-05
1.07313e-08
0.00592864
0.000202676
6.72439e-10
0.0472284
6.54586e-05
3.27514e-05
0.000281029
6.10867e-08
1.62931e-05
0.000547246
8.79569e-05
0.0005637
9.62057e-06
0.000946052
0.0003373
0.00274071
0.00427911
0.00128691
1.55902e-05
0.0626742
0.0023829
2.10608e-07
0.00608082
0.00288871
0.00670094
1.12964e-05
2.306e-07
0.351979
1.64438e-06
2.46703e-08
3.4775e-05
0.0253888
0.00306331
0.000635588
0.000492195
2.07548e-05
0.00321922
0.0361484
0.00481508
0.00867529
0.0143376
5.59404e-08
0.000340299
1.63902e-09
3.66064e-05
0.00832078
0.000746768
0.0751248
4.1723e-10
0.00048896
6.35367e-10
0.000532962
0.000313595
0.000378023
0.0105507
0.0180985
0.000544606
0.00185157
0.00451341
6.09172e-09
0.000239554
0.000994164
0.00200666
0.000393007
0.000815021
0.00749039
0.0106511
0.000590047
0.00170043
0.00265649
3.70045e-05
6.40307e-09
0.000432451
0.0137251
0.0116583
0.00502307
0.0474293
0.00268588
0.000172208
0.00525227
0.000185514
0.000681539
0.00106858
0.0223003
0.00028422
0.020616
0.0116809
0.0339855
1.82276e-09
0.100983
0.00887336
0.00172308
0.00460061
0.0653067
0.000404293
0.00281441
0.00239127
0.00228863
0.00810494
0.00112601
3.13294e-05
1.82106e-06
0.00203423
0.0249008
0.292874
0.000157248
0.0090202
0.000290338
0.00126567
0.00044488
0.189357
0.000621733
0.286821
0.778676
0.000103958
2.23713e-09
7.60872e-06
0.0013718
0.0106613
0.00562048
0.0101563
0.0632082
0.0344315
0.00184599
0.00163625
0.01037
0.0113427
1.2161e-08
0.000512023
0.000427673
0.000356382
0.000429529
0.000637652
0.137871
0.000274799
0.00289618
0.000398953
0.00308322
0.00201791
0.00221777
4.47184e-10
0.477884
0.0314384
0.185524
0.148486
0.00219588
2.01708e-09
0.00669208
0.00124968
2.83005e-05
0.000761567
0.0853938
8.91481e-10
0.00178731
6.99181e-05
0.000207822
0.0165289
4.78732e-05
0.00854922
5.3505e-05
6.51896e-05
0.00165014
0.000632527
0.00112865
0.0130117
2.92447e-05
0.00243084
0.00138477
0.0179332
4.81608e-09
0.000502801
0.00149892
0.0152538
0.00164614
0.000166148
0.00226573
0.0315019
0.000501977
0.000197022
3.05336e-05
0.00148126
0.00177417
0.00304662
1.4509e-08
3.14673e-05
2.45737e-05
0.000298101
0.00380942
0.00135494
8.20563e-08
0.00269182
8.53736e-10
0.0107035
0.00108924
0.000804591
0.00190743
0.00167935
0.00953416
0.000577769
0.0138417
0.000304885
0.000423293
1.1697e-09
0.00037871
0.000405408
0.000581333
0.00196217
4.91475e-07
0.00163182
0.00947886
0.00173038
0.000460533
0.0188604
0.0022514
0.00130539
0.0145124
0.00750963
0.012306
0.0130786
0.0062829
1.64007e-07
0.320082
0.0620791
0.000813494
0.00057343
0.0147039
0.000912859
0.0242273
0.000104514
0.000403311
0.0142924
5.67534e-06
0.00678381
0.000614678
0.000132144
0.00757094
1.64519e-05
0.031232
0.357459
0.00114412
0.0573749
8.43361e-10
0.000256109
0.00435201
1.62735e-06
0.10241
0.00244196
0.00164733
0.000460645
2.47029e-09
0.00340746
0.00279639
5.07084e-10
0.000489116
0.0263825
0.000618779
5.79086e-05
0.0621689
5.12771e-07
0.00271302
7.72381e-11
0.00034576
0.00238254
0.000153413
1.19278e-09
0.00218464
1.11155e-08
0.00248846
0.000523395
1.87558e-09
7.87724e-08
0.00439921
0.00209875
0.00279572
5.47823e-10
0.00221489
0.000628092
0.00279546
5.0725e-05
0.0317672
4.58802e-08
5.60172e-05
2.75121e-09
0.00164757
0.037105
5.0334e-09
2.79126e-07
0.00027472
0.0025455
0.000453104
0.00196658
0.296457
2.56765e-09
0.000231884
0.00232215
8.81591e-10
3.74647e-09
3.97745e-08
0.000175679
0.000502527
0.000848694
0.000529731
0.000106295
0.000199376
5.85528e-11
0.0115013
0.000221089
0.000394062
0.00147981
0.00394897
0.00385044
0.0443875
3.06401e-10
0.000173204
0.000124017
8.55091e-05
0.000106837
0.00277745
0.000620035
0.000514079
0.000120027
0.000348244
0.000381681
1.1166e-05
4.26848e-08
8.50211e-05
0.0226883
1.88859e-08
0.00849401
0.000123635
0.0156042
0.00113906
0.000119214
4.63284e-05
0.00437124
2.82022e-05
0.00409281
0.0192969
0.00222078
6.18879e-05
2.54757e-05
0.000149913
0.000856672
0.000348749
0.00386247
0.0164
7.1909e-05
0.010485
4.62745e-06
0.876639
0.440682
0.000109633
0.0409523
9.55985e-05
0.000391079
0.00940504
1.03964e-05
0.604804
0.0442033
0.00759917
0.00062015
0.0283342
0.39296
0.00291632
0.0248757
0.00440324
0.00219117
0.125363
0.0440827
0.000576099
0.000961038
0.0260281
0.0486659
0.00412845
0.000311859
0.0328651
0.000205529
0.0139596
1.08178e-08
1.11148e-05
0.00658391
0.000214771
0.00421521
0.00391618
0.000125617
0.000127979
0.000295208
1.07949e-09
0.00783829
0.00603038
2.81458e-09
0.000444433
0.00171921
0.00222391
0.00403967
0.000384393
0.0115262
0.0636614
4.45292e-07
0.0329961
0.000140175
0.00431061
0.000143943
0.00224176
0.030097
0.00416226
0.000221922
0.0273062
0.000303802
7.62224e-05
0.000365474
0.000259144
0.000626649
0.00749408
0.0259559
0.0147026
0.00743603
0.00553713
0.00104241
0.000133193
8.14102e-05
0.000136027
0.00413601
2.77627e-06
0.00483377
3.64402e-07
3.57594e-06
0.00159362
0.00144797
0.00175691
5.66514e-05
0.0101886
0.00187374
2.20218e-06
0.00339187
0.000275722
0.00180016
0.000459319
0.00684334
0.00231247
0.00506323
0.000449526
0.0063609
0.00228951
4.33806e-05
0.00238867
0.00312689
0.00180925
0.00153331
4.34967e-09
4.7198e-05
8.91059e-05
0.0345755
0.00179517
0.00702389
0.00183989
0.000177169
0.00334692
0.00837009
0.00228145
0.0025068
0.00361831
1.23721e-06
0.00165494
0.00189982
0.000365492
4.06402e-05
0.00299531
0.00262067
0.00799427
0.0291123
0.00167432
8.11525e-05
0.00297502
0.000330343
0.00427155
7.53954e-05
0.0061684
0.000352248
0.00279892
2.83949e-05
0.00073081
0.000923262
0.00721253
6.15002e-05
0.0201293
0.00611278
0.000237509
0.00138542
0.00158758
0.000252234
2.92278e-05
0.00248454
0.0218642
3.41018e-06
0.0376404
0.0020836
7.02744e-08
0.000109218
0.00188594
9.9762e-06
0.000875563
0.0137239
0.0232883
0.00207002
0.0118282
0.00155165
7.64536e-05
0.00439692
0.01433
0.000448477
0.00157784
2.48805e-05
0.0822209
0.0418191
0.00010438
0.00240752
0.00149691
7.76391e-06
0.000114048
0.0337882
0.00867215
0.0158586
3.88261e-05
0.00100713
2.84936e-05
0.0193777
2.4973e-09
0.00337334
2.5336e-05
0.00104315
0.020331
7.44542e-05
0.000399847
0.00433177
0.00147498
0.00257611
0.0015554
0.0236449
0.000227832
0.00201343
0.0200073
2.03772e-05
0.000410059
0.000437658
0.000364164
0.00236919
0.0134184
0.000466811
2.30262e-08
5.27832e-05
0.00141141
1.47319e-06
5.63052e-06
2.09695e-05
2.70033e-09
2.6402e-05
3.72502e-05
0.0116017
0.0049986
0.000370427
0.000460606
0.000289639
0.0623005
3.7903e-05
5.0237e-09
0.0181275
0.00281081
0.00186093
0.00332205
0.00051818
1.49307e-07
0.0182617
0.00216771
0.0229421
0.000780545
0.0500846
0.0142552
0.000125568
0.0258034
0.00326316
0.0891436
0.007473
5.62103e-09
3.52353e-05
0.256978
0.00670053
0.000998203
0.00310514
0.000161058
0.00332543
0.0308474
0.0109015
0.00289945
0.144537
0.00636682
1.35893e-09
0.0178487
0.0639988
0.0349097
0.00132623
0.00256394
0.000210659
0.00282812
0.000679822
0.0190875
0.0196963
0.000894223
0.0524351
0.0230952
0.000617512
0.00253885
0.0137102
0.00325441
0.000726342
0.0506358
0.00260714
0.000112204
0.0107496
0.0108417
0.0217451
0.00258693
0.00027035
0.00277098
0.016321
0.000357995
9.44771e-05
0.172907
0.00337164
0.00123791
0.00160465
4.69506e-05
0.00434178
2.65621e-09
0.0185694
0.00253517
0.0140779
3.29464e-05
0.00568376
1.12189e-08
0.0164982
0.000301471
0.000118669
0.00874467
0.00244235
0.00662474
0.00772628
0.00207138
0.0158349
0.000134347
0.0156689
0.00662909
0.00932084
0.0563662
0.00558491
0.0291613
0.0345806
0.0168898
0.00114108
0.0045385
0.00265607
0.000968743
0.000916967
0.00398587
0.00221852
0.000642663
8.94816e-06
3.31297e-05
0.00237297
0.00133909
0.00127765
0.0539615
0.00324061
0.00269885
0.00011048
2.36727e-05
0.0004519
8.93808e-06
0.00258966
0.0298936
0.00253249
0.00192717
5.23537e-05
0.0170036
0.00255102
3.28122e-05
1.89007e-06
0.000216308
0.0346914
0.00686693
0.000521192
0.00229087
0.00447851
0.000220356
8.80098e-05
0.00492359
0.000429645
1.55511e-05
8.47846e-05
2.54739e-05
0.0018722
0.00221732
0.00104545
0.00867236
0.103314
0.000248535
1.81887e-05
0.00356684
0.000327624
0.0111163
0.00240374
5.3482e-05
5.17395e-05
0.00318873
4.86262e-05
0.010103
0.0759379
0.0449784
0.000173337
0.000523583
8.88546e-06
0.000115603
0.00263401
0.00392029
0.000451105
0.00273306
0.0142414
0.00192522
0.00027865
0.00230912
0.000409251
0.029785
9.6065e-07
3.70087e-08
0.0110311
0.00234376
0.000562221
0.00469647
0.000616035
0.000105767
0.000513965
0.0024769
0.0226654
3.99898e-05
0.000114457
0.000299969
0.00699628
7.85183e-05
0.000696941
0.000108493
0.0012789
0.0095325
3.58309e-05
0.0285884
1.02779e-09
5.10997e-05
0.00241518
7.43961e-05
0.000338524
0.00347946
0.00119469
0.00237161
9.30852e-06
0.00181412
3.65271e-05
7.57573e-05
0.00226732
0.00331497
0.00329101
0.300503
0.0017305
0.000953521
0.00223772
0.00295731
0.000283799
0.000247032
0.00371992
0.00215483
0.00308744
7.41347e-05
0.000905944
0.0140419
0.00278433
0.111942
0.000865349
0.0100658
0.0103793
0.0123634
0.00126224
3.18068e-05
8.01942e-05
9.50373e-05
0.000101608
5.06744e-09
0.000257896
0.0115932
3.11308e-11
3.36084e-09
0.00375322
2.28806e-05
3.19679e-05
0.01503
0.00192449
0.00290921
0.00191017
0.00227831
5.0935e-05
0.00158848
4.28242e-05
0.0242528
0.0134
0.0102335
0.00190449
0.000139608
0.0015867
0.000293003
5.90733e-06
4.19775e-05
1.41432e-07
0.00168962
0.0110152
0.00696024
0.00145665
0.00179173
0.00219805
0.00232391
0.00176662
0.000341569
0.00412256
8.4028e-06
4.08679e-05
7.59309e-09
5.034e-05
0.00277203
6.69794e-05
0.000334961
0.00227631
5.32791e-05
9.97495e-05
7.11319e-06
3.15501e-06
0.0535846
0.000478123
0.000672019
3.62394e-05
0.00284222
0.00221582
0.00185484
0.00343706
4.00458e-05
7.52661e-07
0.00105424
2.82452e-05
0.0194709
0.00321409
0.0242113
0.0016084
0.0512389
0.00010446
0.00110639
0.000236503
4.18329e-08
0.00373299
7.58066e-05
0.0013368
0.000103844
0.00221719
0.0192755
0.00166045
0.00232471
0.00874596
0.00239358
0.0108073
0.00360441
0.00163463
0.000932918
0.00504773
0.0296567
0.000302009
5.00736e-10
0.0633848
0.00889217
0.00639589
4.19427e-05
0.0650835
0.00193564
0.0150974
3.23708e-05
0.0172938
0.00325415
0.00136149
0.00237176
0.00235324
5.51022e-06
0.0402178
0.0145301
0.0145714
0.00303727
0.00231985
0.00159461
0.00321596
0.000948931
0.000104056
0.00160693
0.00303406
3.83808e-07
0.000130072
0.00169066
0.0359577
0.00308864
0.000346905
9.92218e-08
0.000406273
0.00168813
0.000456205
0.00151663
0.000733299
1.55641e-06
0.0141019
0.000252164
0.000665222
0.00204909
0.00125304
0.000125668
7.53692e-05
0.000176818
0.00205106
0.00284491
1.34803e-05
0.000108494
0.000666973
0.000103423
1.25831e-06
0.016808
0.000216042
0.0032934
0.00153
0.00150493
0.00211287
0.0069471
0.00426845
0.000582563
0.00398171
7.11616e-05
0.00228182
0.0043945
9.34218e-06
0.00749678
0.000392207
0.00296595
0.00188448
0.0996597
5.4563e-05
0.000193496
0.000519106
3.76611e-05
0.0013788
0.00287016
0.000199169
1.61494e-05
0.00138494
0.00541995
0.000585196
0.00287233
1.10529e-06
0.00046378
0.00952297
0.00241581
0.000141728
0.00214483
2.47174e-05
0.00419964
0.00338276
2.16975e-05
0.000293131
0.00352901
0.000101151
8.50291e-07
0.000344637
0.000198951
0.120356
7.83031e-06
0.000566821
0.0032371
0.000105574
0.0117563
8.31999e-06
0.002751
0.000122117
7.93946e-05
0.000514865
1.92035e-05
0.000206086
0.0029516
3.93875e-06
0.000108772
0.000122584
0.0185655
0.000603609
0.000357069
0.000358433
0.00217769
4.46442e-05
0.00311701
0.00454119
3.07991e-05
0.000360672
2.98912e-06
0.00116545
1.48896e-05
0.012307
0.000292677
0.00152613
0.00218867
0.000127367
0.0841307
0.000379743
0.00306144
0.00110992
4.80812e-08
0.00237192
0.00498811
0.0265589
0.0113015
0.000410459
3.05923e-05
0.0378736
0.040007
0.000563894
0.0179195
0.00842612
0.000396565
0.000129712
0.000636544
0.000341714
0.000316785
0.000460454
0.00441858
1.50778e-05
0.000163158
2.62184e-05
5.72624e-05
0.00603694
7.72321e-05
0.00247068
3.92048e-05
1.38779e-08
0.000196158
1.22013e-07
1.66457e-09
1.0006
0.000185707
0.0193797
0.00305714
1.10656e-05
0.000297091
0.017859
0.00188719
1.99645e-05
0.00238253
0.00564919
3.69836e-08
5.43919e-06
0.000397313
1.69714e-05
0.00222783
0.000555804
0.00248921
0.00486712
5.66327e-06
6.96273e-05
0.0199016
0.00283378
0.00306331
0.000394485
0.00355262
9.61351e-05
9.39539e-05
0.00236521
0.0092368
0.0126009
0.00606126
0.00075469
0.000178447
0.00252319
0.00191453
0.00204406
0.00267543
0.000228955
0.000310639
0.00367394
0.00168947
0.00333253
0.00271135
0.000751661
0.00465649
1.07751e-09
1.47463e-09
0.0226899
1.10863e-05
0.000903518
0.00209076
0.00330697
0.00981223
0.0038502
8.8588e-05
0.00704127
0.00316025
0.000125242
0.00326558
4.37248e-06
1.27466e-05
1.7567e-05
0.00362389
0.0128718
4.63591e-08
0.00606693
0.001616
0.151381
0.000167659
0.00370675
3.06826e-05
0.0120859
1.14411e-05
8.57705e-05
2.58381e-05
0.0222012
1.19839e-05
0.00275216
0.00262124
0.00311649
0.00678908
0.00215792
0.00219388
0.0168387
0.00694778
5.48509e-05
3.79664e-05
0.0122213
0.000135791
4.4548e-05
0.00189893
0.00359447
0.00188842
2.11905e-05
0.000112
0.00464914
0.00325588
0.00206734
2.81747e-05
0.00320066
0.00192144
0.000624951
7.58715e-05
2.51057e-06
0.00269171
0.0184261
0.00284618
0.00155057
0.00714661
0.000487105
0.0313658
0.00131844
0.00741884
0.000252228
1.04426e-05
0.00023728
2.75993e-05
0.000447579
5.94845e-06
2.70096e-08
0.00366066
0.000153881
0.0371851
0.000765398
0.00789112
0.00214228
0.00740093
0.00331822
0.0148143
0.0174779
0.00140661
0.00978522
1.06863e-05
0.000373406
0.00130018
0.00181728
0.000219203
0.00404037
6.19288e-05
0.00307657
9.86743e-05
0.00264096
2.10491e-05
0.00265531
0.00133714
0.000427439
0.0265312
0.000162098
0.00130572
3.39038e-05
3.10912e-05
0.000138737
0.00540245
0.00245755
0.0020213
3.438e-05
0.0015915
0.00312257
0.000253223
0.0157817
0.0133942
6.18874e-09
0.000207534
0.00174045
9.9775e-05
0.000291149
0.000471172
0.000447328
2.36995e-05
0.00320018
0.000450222
0.00536706
0.000526645
0.0011736
0.0005344
0.00839263
0.00526302
0.00874036
2.06812e-05
0.053875
0.0218674
0.0972453
0.0018639
0.0001452
3.69336e-05
0.000285129
0.00676173
0.0102685
0.0297241
0.0246938
9.26141e-06
1.56443e-05
0.00781736
0.000405368
0.0173054
0.301936
0.0172951
0.000344061
0.000448352
0.0161603
0.00158643
0.000243096
0.000727433
0.161713
1.37819
6.94077e-05
1.05013e-06
6.37669e-05
0.00486913
0.00105029
0.0018563
0.00269857
0.00196895
0.00438065
0.000879852
0.00222075
3.11058e-05
0.00255954
0.00263977
0.00256182
0.00044446
2.80913e-05
9.28669e-07
0.0046855
0.0145985
0.00403464
0.00249346
1.07868e-05
0.00159942
0.00132265
6.57516e-05
3.00507e-05
0.00874138
5.46588e-09
0.0314157
0.000107296
0.0488495
0.0150049
0.000242966
0.00495369
9.98411e-06
0.00233795
0.000136725
0.00087241
0.0840579
1.12215e-05
3.11023e-08
8.30477e-06
0.00388117
0.00345044
0.00151303
0.000985403
0.00098103
0.00125232
0.00104062
0.00183074
6.37707e-05
0.0681076
0.0265472
0.0028578
0.00150302
0.00287349
0.0669824
0.0119285
0.00407236
0.0002885
0.00718572
0.00267556
8.215e-05
5.19299e-05
0.00479774
0.00681699
0.017227
0.0052348
5.86927e-05
0.00451483
0.0371132
0.0245582
0.00324
7.65836e-05
2.89907e-05
0.0398136
0.0015681