/*--------------------------------*- C++ -*----------------------------------*\
  =========                 |
  \\      /  F ield         | OpenFOAM: The Open Source CFD Toolbox
   \\    /   O peration     | Website:  https://openfoam.org
    \\  /    A nd           | Version:  10
     \\/     M anipulation  |
\*---------------------------------------------------------------------------*/
FoamFile
{
    format      ascii;
    class       surfaceScalarField;
    location    "9";
    object      phi;
}
// * * * * * * * * * * * * * * * * * * * * * * * * * * * * * * * * * * * * * //

dimensions      [0 3 -1 0 0 0 0];

internalField   nonuniform List<scalar> 
109758
(
-3.22274e-06
0.00121999
-0.00121676
-0.00124931
0.00128641
-3.70975e-05
0.000104565
-0.00114953
0.00104497
-0.00144088
8.7075e-05
0.00135381
0.00146314
-0.000168609
-0.00125849
-3.60451e-05
-0.00040529
0.000396322
8.9685e-06
-0.0011045
-6.97466e-06
0.00111148
0.0020254
-0.000256904
-0.000385129
-0.00138337
-2.37223e-05
0.000849284
1.44847e-05
-0.000840046
0.000466484
-7.24125e-05
0.000596717
-0.000990788
-3.85839e-06
0.000586416
-0.000582557
0.00187334
-0.00152612
-0.00143757
0.00109035
0.000320903
0.00125914
-0.00143778
-0.000142261
0.0011893
-0.00122031
3.10159e-05
-0.000974561
0.00110866
0.00132905
0.000691428
-0.00094617
-0.000684484
0.000939226
0.000819863
-0.00157514
0.0014047
-0.000649426
0.00148449
0.000242128
-0.00110155
-0.000625068
0.00149882
0.000227947
-0.00121083
-0.000515937
-0.00143344
0.000170205
-0.000108304
0.00137154
0.000214717
-0.00028878
7.40638e-05
-2.62989e-05
-0.00119771
0.000285754
0.00093826
-0.000276472
0.000849519
-0.000573046
0.000251248
-0.000301532
0.00102946
0.00116169
0.000414591
-0.000400375
-0.0011759
1.77046e-05
0.000563264
0.000903518
0.00124111
0.00151495
-0.00194068
-0.000815378
-0.00110325
0.00109186
1.13901e-05
3.81756e-05
0.00112351
0.0014902
-0.00102506
0.000793212
-0.00125835
-0.00147038
0.00154198
-8.76901e-05
1.6099e-05
-4.98543e-05
0.000604466
-0.000554612
-1.45063e-05
0.000898736
-3.4793e-05
-0.000849436
-0.000825953
0.000823117
2.8356e-06
-0.000123627
-0.0013176
0.00110503
0.000336197
-0.00115961
0.00212039
-0.00071866
0.000576826
0.000171738
-0.000748563
0.000198084
0.0010398
-0.00147458
0.000236695
-0.000252736
-0.00111855
8.1043e-06
0.00136318
0.00114151
7.73321e-06
-0.00114925
0.00167591
-0.00110655
0.000734876
-0.00130424
-0.000392233
-0.000504916
0.000676485
0.000220664
-3.47806e-05
3.36876e-05
0.001677
-0.00144852
0.00142605
1.29168e-05
9.55451e-06
0.000797
-0.000798018
1.01756e-06
0.000333506
-0.00214466
-0.000331537
0.00214269
0.000997384
-0.00028228
-0.000251204
-0.0004639
-0.00111451
0.00139024
-0.000195529
-8.01982e-05
1.6754e-05
0.00102421
-0.00104097
-0.00224769
0.000142729
0.000188011
0.00191695
0.00107893
-0.000522094
0.000519546
-0.00107638
0.000398397
0.000616692
1.41317e-05
0.00139989
-0.00141402
-0.00105786
0.00106156
-3.70248e-06
-0.00121691
0.00125509
-0.000329019
-0.00175286
-0.00043032
0.0025122
-0.0022839
0.0031839
-0.000667489
-0.000232506
-0.00111373
0.000982789
0.00117048
-0.00103954
-0.00180408
0.000708788
-5.9223e-05
0.00115451
-0.000718695
0.000263568
0.000646307
-0.000191179
-0.00149435
0.00142266
7.16952e-05
-0.00323418
0.00018936
0.00163229
0.00141253
-0.0003149
0.00130161
-0.00124987
0.000263154
0.0015682
0.00151952
-0.00189678
-0.00114135
0.00151861
-0.00190155
0.000923749
0.000514614
0.000463188
0.00139249
-0.00153979
-0.000857833
0.00100513
-0.00147534
9.85375e-05
0.000348493
0.00102831
-0.00112217
-0.000798479
0.00044531
0.00107507
-7.65341e-05
-9.37523e-05
-0.000904784
0.00100465
-0.000590244
0.000371818
-0.000786229
0.00141813
5.15022e-05
0.000601596
-0.00207122
-0.000522012
0.000191382
0.00033063
-0.00211881
0.00134739
0.001582
-0.000810581
0.000803015
-0.000759573
-4.34422e-05
-0.000628782
0.00020161
-0.00169164
0.000106374
-0.000880913
-0.000283317
-0.000271553
5.70058e-05
-0.000865925
0.00108047
0.00174129
-0.00158169
-0.000333293
0.000173692
-0.00170128
0.00153881
-0.00105444
0.00119706
-0.000809758
-0.00100284
0.000615531
-0.000650281
0.00269765
-0.00134922
-0.000698149
-0.000152364
8.24066e-05
0.00152945
-0.0014595
3.65164e-05
0.00216834
0.000227529
-0.00243239
0.000866578
-0.0015735
-0.00013382
0.000840746
0.00123864
-0.000233088
-0.000899177
0.000128176
0.000992161
-0.00135961
0.000239275
0.000545822
0.00205109
0.000130171
-0.00272708
0.000960502
-0.001131
0.000179423
-8.92597e-06
0.000654567
0.00073552
-0.00276327
0.00137319
0.000933388
-0.000103767
6.15821e-05
-0.000891203
0.00199676
-0.00149758
-0.00297639
0.00247721
0.00168766
-0.00190187
0.000844952
-0.000630734
2.03329e-05
-0.00159105
0.00146301
0.000107699
0.00164585
-0.00115189
-0.000363612
-0.000130348
0.000889143
2.04931e-05
-0.000909636
-0.00169789
0.000292435
0.00118731
0.000218141
0.00111549
0.000745544
0.00057177
-0.00243281
0.000916467
-0.00165385
0.00114811
0.00249092
-0.00144453
-0.0021945
0.000916081
3.85257e-07
-0.000367689
0.00119379
0.00119827
-0.00202436
0.00105265
0.000300572
-0.000149332
-0.00120389
8.06256e-05
0.000922619
-0.00100324
0.00141325
-0.000116647
5.54152e-05
-0.00135201
-0.000577877
-1.89441e-06
0.000579771
-0.00132444
0.00102192
-0.000799028
-0.000237316
0.0017948
-0.00188798
0.000330502
0.000431857
-0.000362737
-0.00145277
0.00138365
0.00028764
-0.000293315
-0.000681624
0.0006873
-0.000368831
-0.000988758
0.00123628
0.000121311
0.00044895
-0.00122095
0.00127037
-0.00049837
0.000926999
0.000281518
-9.27608e-06
-0.000549471
-9.87663e-05
0.000657513
0.000179553
0.000354019
-0.00203914
0.00150557
-0.0013118
0.000166729
0.00134786
-0.000202789
0.000973953
0.000157965
9.88912e-05
-0.00123081
0.000205468
0.000768485
0.0014332
0.000289345
-0.00156458
-0.000766621
-0.000873106
0.00130309
0.000336635
0.00135812
0.000183799
0.000199567
-0.00174149
-0.00147086
0.00125799
-0.000411824
0.000624694
0.00134764
0.000291031
-0.00104635
0.00117784
-0.00108729
0.0009558
0.00146425
-0.000211168
-0.000286925
-0.000966153
4.05586e-05
-0.00160589
0.00174098
-0.000175643
-0.00152984
-3.64027e-05
-0.000421857
0.0019881
0.000938759
0.000505932
-0.00148565
4.0954e-05
-0.00101906
9.52018e-05
0.000895022
2.8834e-05
0.00018381
5.70227e-05
-0.0018794
0.00163857
-0.000926603
-8.38652e-06
0.00093499
0.000192932
0.00133031
-0.00133943
-0.0010612
0.00142069
-0.00077285
0.000413359
-0.00121256
-0.000778095
0.00157835
0.000412308
0.00126602
0.000244303
-0.000718754
-0.000791573
-0.00200498
-2.80227e-05
-0.000284458
0.00231746
-0.00129201
-0.000776783
0.000565276
0.00150351
0.00177657
-0.00174081
-0.000112106
7.63464e-05
-0.000264114
-0.000788501
-0.000700243
0.00146017
0.00108168
0.000270981
-0.00281283
0.00211413
0.000267479
-0.00234509
0.000213676
0.00110499
-0.00131866
3.53332e-05
-0.00108738
0.00105204
-0.00103117
-0.000214742
0.000197448
0.00104846
9.19317e-05
0.00134517
-0.0012827
-0.000154399
-0.00221945
-0.000255037
0.000576516
0.00189797
0.00122663
-0.00129785
0.00110975
-0.00103853
0.000159678
0.000143264
0.000923686
-0.000875717
0.000849162
2.65548e-05
-0.000919845
3.01167e-05
0.00132945
-0.00043972
0.000264077
-0.000670795
-0.000492388
0.000899106
0.000674778
-0.000702186
2.7408e-05
-0.00096581
0.000914707
-0.000220449
-5.07216e-05
-0.00101289
-1.05293e-05
0.00107414
0.00171245
-0.000192385
-0.00108681
-0.000433247
-0.000408857
-0.00186854
0.00250905
-0.000231657
-0.0016232
0.000562132
-0.00135825
0.00151793
-0.000159683
-0.000732588
0.000662558
-0.00103103
0.00110106
0.000547764
-0.00067071
-0.000497618
0.000620564
-0.000920446
-0.00126242
0.00100255
0.00118031
5.03528e-05
0.00141296
-0.000140347
-0.00132297
-0.000358833
0.00171006
-0.000286476
-0.00106475
-0.00162244
0.00137402
-0.000100512
0.000348929
-0.00117143
0.000935321
-0.00101219
0.0012483
0.00121041
7.51982e-06
-0.00121793
-0.00180089
0.000388724
0.00176065
-0.000345953
0.00142275
-0.0010768
8.88319e-05
0.00146073
-0.00154956
0.000197905
0.001235
-0.00189298
0.000460077
-0.000952658
-0.000991624
0.00106502
0.000879258
0.000693689
-0.000199847
0.000510812
-0.00142271
0.00148776
-3.89745e-05
-2.60748e-05
-0.00142097
1.60524e-05
-1.77934e-05
0.000752781
-0.00045121
0.00184902
-0.00215059
-6.86426e-05
0.00180797
-0.00173933
-0.00118324
0.000849676
-6.5948e-06
0.000340155
-0.00090224
-0.00109759
0.00199983
-0.000675102
-0.000252949
0.000928051
0.00100224
1.23149e-05
-0.00101456
-0.00159472
-2.6139e-05
0.00131186
0.000309006
-0.000460608
0.000637074
0.000839881
-0.00101635
-0.00176397
0.000483387
0.000819976
0.00172198
-0.00271318
0.000575644
0.000415564
-0.00145222
0.00146658
-4.24818e-05
2.81278e-05
0.00192871
-0.00192738
-1.75816e-05
1.62482e-05
-0.00109025
1.5098e-05
0.000268352
0.000806797
7.68622e-05
-0.00113835
0.00106149
-0.00123278
-0.00175033
0.0011871
0.001796
0.000149081
0.00161278
-0.000747034
-0.00101483
2.05185e-05
-0.00155899
-2.35496e-05
0.00156202
0.000255723
0.00139945
0.000329924
-0.00198509
0.000204048
0.00139622
-0.00147115
-0.000129116
-7.53973e-05
-0.00109118
0.00137062
-0.000908913
-0.000770074
0.000389063
0.00128992
0.000843226
4.79176e-05
-0.000891144
0.0013589
0.00130398
-0.00157467
-0.00108821
1.69388e-05
-0.00108231
0.00106537
0.00030132
0.000132575
5.89597e-05
-0.000492855
-0.00144571
-2.28889e-05
0.00047988
0.000988721
-0.00104567
-0.000535678
0.00158135
0.000844879
-0.0011093
0.000392634
-0.000128212
-0.001449
0.000183571
0.00132158
-5.61588e-05
-0.00147927
0.00179788
-0.00141246
0.00109385
-6.06491e-06
-0.000902848
-0.00114032
0.00110813
3.21889e-05
-0.00148041
-0.000772104
0.000146239
0.00210628
-0.00013706
0.00130379
-0.00116673
0.00103529
-0.000813561
-0.000221729
0.000927799
-0.000933864
-0.00111156
2.99364e-07
0.00111127
0.000508997
0.0013873
-1.36612e-05
-0.00188264
-0.00114899
0.000175068
0.000973919
-0.0012633
-0.000444591
0.00131581
0.000392085
-0.00191098
0.000263193
0.00186531
-0.000217522
0.000946226
-0.000918479
-2.77467e-05
-0.000727175
-0.00101894
0.00391252
-0.0021664
-0.00148338
0.000543918
-0.000374165
0.00131363
-0.000753693
-0.000181267
-0.00118126
0.00211622
-4.44527e-06
3.00705e-06
0.00130554
-0.0013041
0.00070773
-0.002095
0.00285786
-0.00147059
-0.00121676
0.00121231
0.00155528
0.000400728
-0.0019057
-5.03055e-05
0.00109866
0.000146594
-0.00137778
0.000132526
0.000947674
0.000444407
-0.00159041
0.000198326
0.000915291
0.000183364
-0.000542191
0.00169178
-8.95718e-05
-0.00106001
0.000325992
-0.0014857
0.00190027
-0.000740568
-0.00167288
0.000121633
-8.05829e-07
0.00155205
0.000972365
0.00374405
-0.000594043
-0.00412237
0.000450165
0.000343184
-0.000596734
-0.000196615
0.000310221
0.00112427
-0.000508534
-0.000925958
-0.000905271
0.000884266
-0.000521186
-5.3946e-06
0.00169204
5.13481e-06
0.00133679
-0.00135173
0.000214387
-0.000199448
0.000315391
-0.00010502
0.000804819
-0.00101519
-0.00130028
0.00126047
0.000186405
0.000392433
-0.000768604
-0.000880557
0.00125673
0.000544722
0.00151139
-0.00151029
0.00113051
-0.00148126
0.000200577
0.000150177
0.0011131
-1.56997e-07
-0.00111295
0.00242056
-0.00249036
0.00201656
-0.00194676
0.000366221
-0.000943615
-0.00047198
0.00104937
0.000384902
0.000204411
-0.00163364
0.000973628
-0.000581541
0.00124155
-0.00200529
0.000450498
0.00168946
-0.000134668
-0.00156199
-0.000862176
0.0031319
-0.000158682
0.00191807
-0.000633408
-0.00112598
0.000924604
-0.000466496
0.00171174
-0.00216985
0.000184603
-0.000869791
0.000740364
-5.51762e-05
-0.000383417
-0.00125774
0.00144514
0.000196013
0.00108152
-0.000611506
-0.000440161
-2.98486e-05
0.000548615
0.000229782
0.000290969
-0.00106937
-0.000776529
0.000996426
-0.000219898
0.000889121
-0.000828451
0.000123933
3.10962e-05
-0.00135808
0.00132698
0.00104537
-0.00121809
-0.000210696
0.000264643
0.00118315
-0.000265384
-0.00118241
-3.45171e-06
-0.000962539
0.00096599
0.000525209
0.00161337
-0.000883701
-0.00125488
-8.86481e-05
-0.000624064
-0.000424364
0.00113708
-0.000294647
-0.00162187
1.06919e-05
0.00190582
-0.00102876
0.000416711
0.00125781
-0.000645766
7.65286e-05
0.000968838
-0.000859423
0.000935952
0.000926549
0.000247416
9.93895e-05
-0.00127335
-0.000488546
0.00218691
-0.000143087
-8.93281e-05
-0.000621718
0.000566797
0.000144249
-0.000206259
0.0024358
-0.000115412
0.00197676
-0.00102653
-0.000425015
0.00225334
-0.000275496
-0.00120995
0.00180827
-0.000322822
-0.00228196
0.00191714
0.000937163
-0.000572344
5.76634e-05
0.00104867
0.000870429
-0.00100278
-0.001315
0.00139118
-0.000717571
-0.000990248
0.00191301
-0.000205187
0.000739581
0.000841716
-0.0015813
2.67821e-05
0.000168839
0.00222574
-0.00242136
-0.00116467
0.000983791
0.00142593
-0.00124505
0.00135856
-0.0021463
0.00172492
-0.000937185
0.000449863
-2.28548e-05
-0.000427008
-0.000922621
-0.000516098
0.000172139
0.00126658
-0.00047333
-0.000678741
8.96425e-05
0.0011704
-0.000967907
-0.00029213
0.00098452
-0.00102499
4.04701e-05
0.000109507
-0.00130594
0.00137833
-0.000181894
0.001146
-0.00282924
0.00139804
0.000285204
0.000655968
-0.000874026
0.000218058
0.000867639
-0.000111565
-0.000859987
0.000103913
-0.000173364
-0.00287434
0.00259387
0.000453835
-0.00113323
0.000195106
0.00132116
-0.000383027
-0.00118276
3.77789e-05
0.00114498
0.00118346
0.000199707
0.000785174
-0.000590247
-4.89803e-05
0.00152835
0.000103925
-0.00168402
0.00140673
-6.45924e-05
0.00116882
-0.00110422
-0.000815593
0.000505287
0.00135281
-0.0010425
-0.000185331
0.00155056
-4.41389e-05
-0.00132109
-0.00018811
0.00144458
-0.000976577
-0.000279897
-0.00100178
-2.26904e-05
0.00118051
-0.000156041
0.000832442
-0.0017401
0.00094981
-4.21537e-05
-0.000891555
0.000696972
-0.000716483
0.000911065
0.000863744
3.41466e-05
-0.000100891
0.000131812
-0.0012572
-0.000303049
0.00142844
-0.000258261
-0.00138188
0.000617485
0.00102265
0.000492908
-1.65604e-05
0.00113711
0.000271007
-0.00139156
0.000582597
-0.000410811
0.00117471
-0.0013465
-0.000752261
0.000932308
0.00124361
-0.00142366
0.00203275
0.000510457
-0.0020503
3.01311e-07
-0.00120959
0.00120929
7.3978e-06
-0.00122623
0.00127475
-5.59188e-05
2.38995e-05
0.00130955
-0.00117723
-0.000156211
0.000394323
-0.00198936
-6.49597e-05
0.00165999
-0.00110104
0.00132147
-0.000220428
0.000201665
-9.21868e-05
0.00132344
-0.00143292
-0.00102586
0.000227842
-0.000709034
0.00107303
-0.00143038
0.00106638
-0.000327222
-8.10782e-05
0.0004083
0.0032398
-0.0015811
-0.000703511
-0.000955185
0.00130438
0.00334309
-0.00140768
0.00216108
-0.00199971
0.000189647
0.00110103
-0.000852278
0.00121915
-0.000386506
1.96349e-05
-0.000258608
5.14421e-05
0.00178917
-0.0012681
0.000477082
0.000974064
-0.000183045
-0.00105327
0.00174243
0.000130706
0.00122074
-0.00139768
0.000708785
-0.000531844
0.000181053
0.0024521
-0.00243149
0.00073511
6.34083e-07
-0.000735744
-4.86379e-07
-0.000958853
0.000959339
0.00170588
0.000138409
-0.000381695
-0.0014626
0.00221142
-0.000715066
-0.000934883
-0.000561469
-0.000139537
-0.00280345
0.000847988
-8.63603e-06
-0.000679247
0.000687884
0.00146578
-0.00134475
-0.00132937
0.00120834
0.00106507
0.000443715
-0.00125306
0.000861716
-0.000530799
-0.00131589
0.00098497
-0.00105808
-9.17345e-06
-0.000811726
0.00187898
-0.00158309
-7.76023e-06
0.00159085
0.000992754
9.37288e-05
-0.00105596
-3.052e-05
-0.00127397
-2.06092e-05
0.00129458
6.42181e-05
0.00107043
-0.00113464
-0.000783211
0.00173623
-0.000125886
-0.000827137
-0.00190594
0.00229613
0.00145022
-0.00184041
0.000901775
0.000769261
-0.000209178
0.00134106
-0.000866465
-0.000265419
-0.000234077
-7.97351e-05
-0.00115792
0.00147173
0.00130552
-0.00114805
0.000912795
-0.00107026
-0.0012399
0.00129049
-5.05909e-05
-0.0015066
0.000252579
0.00129308
-3.90643e-05
-0.00264201
0.000528806
0.00201094
0.000102272
0.000261081
-0.000334192
-0.00130943
0.00138254
0.00190152
0.000181185
-0.00109222
-0.000990484
0.00103447
-0.000786319
-0.00104209
0.000793937
0.00119133
1.36024e-05
-0.00120493
0.000109808
-0.00202569
0.00148264
0.000433245
0.000753379
0.00044893
-0.000300534
0.000274047
-0.000881357
0.00128478
-0.000677468
-0.000545349
0.000529512
-0.000121924
0.000137761
-0.00362949
0.00437557
0.00141185
-0.00215793
0.00182073
-1.16728e-05
-0.00181992
1.08539e-05
8.80747e-06
0.00146064
-0.00157005
0.000100602
-0.00219509
0.00192325
-0.000511372
0.000974407
0.00121961
-0.00110386
-0.00109016
-0.00096772
-6.9496e-05
-0.000105247
0.00114246
0.0010104
5.31107e-05
-0.00106351
0.00128792
-7.05889e-05
-0.00121733
-0.00227817
0.00214628
8.44976e-05
4.73997e-05
7.03986e-05
0.00146811
-7.20012e-05
-0.00146651
0.000903425
0.00045484
-0.00295825
0.00159999
-0.00063076
0.000630733
2.69646e-08
0.000922096
3.02569e-06
-0.000925122
-4.64397e-07
-0.000556871
0.000557336
-0.000532534
0.00108279
0.000727987
-0.00127824
3.53757e-06
-0.00114347
0.000897111
0.000242817
-0.00128321
-0.000526132
-0.000468833
2.55136e-06
-0.000886765
-0.000131285
0.0010155
-0.000687403
1.28399e-05
0.000674563
0.000235013
0.000729285
-0.000237618
-0.00072668
0.000502842
-0.000895074
0.000392232
-0.000243263
-0.000833446
-0.000310166
0.00138688
0.00070964
0.000939545
0.000138495
-0.00178768
0.00185996
-0.000676722
-0.000602566
-0.000580671
-6.75575e-05
-0.00153271
0.00178642
-0.000186159
0.000735178
0.000388873
0.000212508
-0.00133656
0.002322
0.00103433
-0.00217823
-0.00117809
-2.83544e-06
0.000587568
-0.000584732
-0.00137304
4.0762e-05
0.000317958
0.00101432
-0.0013456
-0.000148877
0.0015303
-3.58228e-05
0.000374434
-0.000468301
0.0019146
-0.000476426
0.000629241
-0.000152815
0.000937246
2.692e-05
-0.000964166
0.000194301
0.000121657
-0.00122763
0.000911669
0.00132012
-0.000129194
-0.00122995
3.90171e-05
-0.0011136
-1.32324e-07
0.0002374
0.000322141
-0.00146033
0.000900788
-0.00135803
9.8454e-05
0.00125958
-5.34692e-05
-0.000948313
-0.000123473
0.00208949
0.000146891
-0.00211291
0.00111904
-0.001185
6.59587e-05
-0.00119579
0.00118307
1.27207e-05
0.000959245
-0.00108272
0.00026219
0.000877559
0.00108965
-0.0022294
-0.00117587
-0.000640704
0.00181657
-1.00365e-05
0.000837286
-0.00082725
-1.95171e-05
-0.000909891
0.000929408
0.00111516
-0.00110818
-6.97905e-06
-0.00123597
4.76422e-05
0.00124255
-5.42249e-05
0.000302331
-0.00139176
0.00106313
0.000693817
0.000583556
-0.00233924
0.00106187
0.000721141
4.94961e-06
-0.000726091
4.77171e-05
0.00136804
-0.00141576
0.000672112
2.66653e-06
-0.00154274
0.00137327
0.00130138
-0.00113191
-0.000969751
0.000122857
0.00124364
-0.000396745
0.00169466
-0.00244161
0.000590321
0.000156626
-0.00218929
0.00048776
-0.00104713
0.00115697
-0.000109836
2.53584e-05
-0.00115959
0.00113423
-0.00100418
-1.97398e-05
0.00102392
-0.00117556
6.15591e-06
0.00116941
0.00112382
-0.00123225
0.000108428
1.41308e-05
0.00173393
-0.00174806
-0.000257123
-0.000234487
0.00124499
0.00123846
-0.00129394
-0.000884582
0.000940064
-0.000698815
0.000126283
0.00135825
-0.000785722
0.000667646
-0.00157016
-0.000101662
-7.1574e-05
0.00153468
-0.00146311
0.000454909
0.000424176
-0.000580068
-0.000299017
-0.000707624
0.00116073
-0.00139483
0.000941721
-0.00112383
-0.00042823
0.00155206
0.00227513
-0.00140412
-0.000871009
-0.000432367
0.00163515
0.00107126
-0.00227404
-0.00118629
0.00143904
-0.00143582
0.00118307
0.000508869
-0.00038229
-0.000584583
0.000458003
2.14509e-05
-1.38439e-05
-0.00128122
0.00127362
-0.000117068
-0.00180433
0.0019214
0.000404351
5.22534e-05
-0.00152354
0.00106693
-0.00149366
0.00115908
0.000334581
-0.000702812
-0.000351914
0.00101383
4.08957e-05
-0.000989533
0.000985018
4.51448e-06
0.000965412
-0.000815833
0.00120898
-1.07538e-05
-0.00157775
0.00158078
7.72031e-06
0.00305393
-0.000789474
-0.00153166
-0.000732789
-0.000470878
0.00166299
7.87435e-06
-0.00119999
-0.000549868
0.000819307
0.000457243
-0.000726683
-0.00132476
0.000778044
0.00137622
-0.000829504
0.000727323
-0.000868306
-0.000343999
0.00153166
4.04479e-05
-0.00122811
0.000905775
-0.000999103
0.000103226
-0.00214008
2.4886e-05
-2.22453e-05
0.00213744
-0.000297608
-8.37151e-05
-0.000799906
0.00118123
-0.00108641
0.00139656
-0.00110985
0.000799703
-0.00248046
-0.000334519
0.00260872
-0.00160727
2.25155e-05
0.00160918
-2.44255e-05
0.00100649
0.000162805
-0.000678795
-0.000490497
-0.000316966
-0.00123279
0.000654588
0.000895164
0.00106932
-0.000419501
-0.00140948
0.000759656
-0.00138728
-0.000357581
-3.07659e-05
0.00177563
0.00111108
-0.000136562
-0.00101943
4.4919e-05
0.00093928
-0.000942622
3.34179e-06
-0.000742833
0.00242729
-0.00201845
0.000333997
0.000156307
0.00143147
-0.00230352
0.00071575
-0.000946072
-0.000308697
0.000995283
0.000259485
0.000330881
-0.000316872
-0.00096008
0.000817874
3.2781e-05
0.000160841
-0.0010115
-8.68602e-05
0.000616316
-0.00266953
-0.00138915
2.90575e-05
0.00178154
-0.000421451
-0.000995348
0.00116085
-0.000165499
0.000489422
-0.000459232
-0.00064911
0.000618919
-0.000700613
-0.00128678
0.000808927
0.00117847
-0.000577452
0.00179658
-0.000661713
-0.000557415
-0.00148197
1.08158e-05
-0.00129797
0.00161804
-3.88703e-05
3.42861e-05
-0.00128034
0.00128492
0.00123782
0.00132781
-0.00141102
-0.0011546
0.000979246
-0.00100988
3.06298e-05
0.00125218
-8.04211e-06
-0.00124413
0.001071
-0.00124338
0.000351777
-0.000179405
-0.000313045
-0.000916215
0.00222454
-0.00164676
0.00141341
-0.000213075
0.000446433
0.000545837
-0.000743146
0.00176704
-0.00156973
-0.00157654
-0.00114933
0.00187422
0.000851649
-8.44991e-05
-0.0017385
0.000176231
0.000275075
-0.00145121
-1.14783e-05
0.00118761
0.00133625
0.000352235
0.0017933
-0.00157173
-0.000589272
0.000367699
-0.00133397
0.0013241
0.00107965
-0.00106978
0.00101421
0.000503858
-0.00115187
-0.000366193
0.00050887
-0.00111701
0.00092745
-0.000319313
0.00137297
-0.00112564
-0.00178907
0.00154173
0.00146183
-0.00162656
8.02342e-05
-0.000890004
0.00089348
-3.47578e-06
0.000113317
-0.000102701
0.00151528
-0.00180959
0.0017068
-0.00141248
0.00112171
-0.00100839
0.00113317
-0.00122575
-3.70061e-05
0.000129586
-2.44779e-05
-0.000519468
0.000543946
-0.000123565
-0.00103687
0.00124381
-8.33764e-05
0.0019104
-0.00172003
0.000136794
-0.000327158
0.000207293
-0.00230395
0.000190716
0.00169547
-0.00173546
-0.00018781
0.000227797
0.000371551
0.00027905
0.000461251
-0.00111185
-0.000101079
0.000948745
0.000923905
-0.00177157
-8.02243e-05
-0.00117281
-0.000325951
0.00157899
-0.000570362
0.00170905
-0.000464658
-0.000674032
-0.00106945
0.000453847
0.0016866
0.00104121
-0.00210799
0.000231748
0.000835035
-0.000305559
7.1671e-05
0.00192936
0.000312113
0.00141836
-0.000485851
-0.00124462
-5.20534e-05
5.42404e-05
-0.00123846
0.00123627
0.00185861
0.00010445
-1.3084e-05
-0.00194998
0.0010322
0.000452039
-0.000410199
-0.00107404
-0.00112369
-0.000480005
0.000534251
9.19124e-05
0.0006482
-0.000657845
-8.22679e-05
0.000189403
1.63928e-05
-0.00144917
0.00100859
-0.00052732
-0.000136937
-0.00034433
0.00014817
0.000701589
-9.81258e-05
-0.000751634
-0.00111776
0.000960184
0.00119879
0.000743385
-0.00322933
0.000628772
0.00185717
0.000176788
-2.96855e-05
3.30082e-05
0.00127198
-0.00127531
0.00220462
-0.000708033
-0.000732172
-0.000764414
-0.00107656
1.35056e-05
0.00147754
-0.000414481
-0.00013541
-0.00103501
0.0012483
-7.78738e-05
0.00103977
-0.00141906
-0.000693622
0.00107292
-0.000982639
0.000955417
2.72216e-05
-2.91339e-05
0.000952629
-0.000923495
-0.000466234
-0.00109015
-0.000402279
0.00195866
-0.000809496
0.000906131
-9.66356e-05
-0.000152963
-0.00132768
-0.0003346
0.00181524
-0.00234396
0.000864272
-0.00127892
0.00275861
-0.00160787
3.6222e-05
0.00157165
0.000757883
0.000839168
-0.000811001
-0.00078605
0.000976152
-0.000559231
-0.000184668
-0.000232253
0.00132034
2.91464e-05
-0.00134948
0.00124699
-0.00372728
0.000136328
0.000845533
-3.13784e-05
-0.000814154
-0.00144031
-0.000571016
0.00193437
7.69554e-05
-0.000876751
0.00452961
-0.00277407
-0.000878788
-0.00263942
0.00317803
-0.000466534
-7.20789e-05
0.00157574
-0.000909454
0.00219157
-0.000772517
-0.00168313
0.00248566
-3.00149e-05
-5.26418e-06
-0.000121091
-0.000677617
0.000803972
0.00148727
0.00190798
-0.00216809
-0.00122716
-0.00152913
0.00180757
0.00049583
-0.000774276
0.00169307
-0.00031093
-0.000662228
-0.000719915
0.000145658
-0.00108452
-0.000187814
0.00112667
-0.00322452
9.83888e-05
0.00165011
0.00147603
-0.000591165
0.00225081
-0.000872826
-0.000786822
0.000384
-0.000938259
0.00178837
-0.00123411
-0.000193154
-0.000553014
0.00104584
-0.000299674
-0.000916999
0.000975808
-6.26784e-05
3.86986e-06
0.00160171
-0.00180885
-8.68912e-05
0.000294032
-4.81987e-05
-0.00159589
0.00160836
3.57248e-05
0.000130961
-0.000116795
-0.00153167
0.0015175
0.00220652
-0.000362885
9.40718e-05
-0.00193771
-0.00145023
-0.000304934
0.00037255
0.00138261
0.000491619
-0.000491626
6.574e-09
0.00108941
-0.000741234
0.000726896
0.000225717
0.00209081
-0.000125959
-0.00219057
-0.000333626
0.000224405
0.000278866
-0.000169645
-0.00162876
-0.00202652
0.00292811
-0.00115806
0.00132611
0.00126298
-0.00143103
-6.49054e-05
0.00129176
-0.00163006
0.000403207
-0.00123881
-0.00129636
-8.20269e-05
-0.000334274
0.00171266
-7.01303e-06
-0.000660634
0.000667647
-7.8517e-06
-0.000949865
0.0022154
-0.00125768
0.000650943
0.000916546
0.00163384
-0.000817802
7.59727e-05
-0.000892009
0.000716789
-0.000199304
-0.00119675
0.000679264
0.000900899
4.28773e-05
-0.00137271
0.000428938
-0.000648844
0.000537142
0.00203366
-0.00192196
0.00174173
0.00124493
0.000162981
-0.00314964
-0.00155416
-9.82789e-05
0.000314732
0.00133771
-0.0013099
0.00139488
-8.49808e-05
-9.11231e-05
0.000865388
-0.000129784
-0.000644481
-0.000267959
0.00055118
-0.000283221
0.00109177
0.001554
-0.000695924
-0.00194985
0.000933064
-0.000933308
2.43888e-07
-0.00264469
0.000617192
0.0014779
0.000549601
0.000107053
-4.71433e-05
0.00128243
-0.00134234
0.000822199
3.47491e-06
-0.000825674
0.00168884
-0.00187505
-0.00120429
0.0013905
-0.00148788
-0.00287308
0.00171628
-0.000288613
0.000184823
0.00119175
-0.00108796
-0.000511268
0.00155566
-0.000163998
-0.000880394
0.000319726
-0.000845531
0.00124259
0.000977535
4.66867e-05
-0.00102422
0.00289422
-0.000699602
0.000172253
-0.00236687
0.00109345
0.000312882
0.000699782
-0.00167176
0.000803526
0.000168456
-0.00176187
4.96443e-05
0.00132215
0.000390076
-0.000327842
-0.000723308
0.000765814
0.000285336
0.00103087
-0.0013277
0.000296839
-0.000365142
-0.000709916
0.00107506
0.000910457
-0.000589616
-0.0010336
0.000712758
-0.000388606
-0.000217054
0.00155649
-0.000950834
-0.000765918
-0.00122412
0.000946922
0.00104311
-0.00150517
0.00137466
-2.5336e-05
0.000155842
-7.57828e-06
-0.000930681
-0.000224612
-0.000819403
0.00103378
1.02391e-05
0.00156651
-0.00147347
0.000427925
-0.000520966
0.00238302
-0.00237051
0.00108095
-0.000415409
0.00045602
-4.0611e-05
-0.000869861
0.000858413
1.14481e-05
-7.86526e-05
0.00109208
0.000373052
-0.00138648
-0.000691809
-0.00109079
-0.000429888
0.00221248
-0.000645535
-0.0004955
0.00224005
-0.00109902
0.00111086
0.000297954
-0.00148746
-0.000214313
0.00165259
-0.000751325
-0.000686956
0.000234838
-0.0010915
-0.000478355
0.00133501
-0.000304502
0.000187198
-0.00152236
0.00163966
0.00151868
-0.00109963
-0.000837847
-0.000629118
-0.000186975
0.00165394
0.00045388
-0.000229193
-0.000229531
4.84402e-06
-0.00178079
0.00207761
-0.000211594
-8.52322e-05
0.000581274
0.000641826
-0.000610954
-0.000612146
-0.000244351
0.00126839
2.64397e-05
-0.00105048
0.00141532
6.07553e-05
-0.00126494
-0.000211135
-0.000176153
-0.00174176
-0.000430422
0.00234834
-0.000150086
0.00126259
-0.0011125
0.00152441
0.00129433
-0.0017355
-0.00108324
0.00100305
3.73033e-07
-0.00100342
0.000110732
-0.00132952
-0.000332564
0.00155135
0.00237972
-0.000339097
-0.00111886
-0.000921765
3.35613e-05
0.00239244
-4.62791e-05
0.00117555
-0.00112345
-5.20947e-05
-0.000421537
-0.000820114
0.00124165
0.00217599
-0.000580223
-0.00136782
-0.00101658
-0.000994523
0.00167201
9.38887e-05
0.00040306
-0.00157043
0.00107348
5.65328e-05
-0.00135438
0.000847326
0.000450524
-6.86408e-06
0.00118029
6.98728e-06
-0.00118041
-0.000230218
-3.18928e-05
-0.00111844
-0.000295323
0.00141377
-1.82453e-05
-0.000970201
0.000988446
0.00208018
0.000158393
-0.000133718
-0.00210485
0.000870402
-0.00161117
0.000387722
0.000353042
0.000548434
1.29919e-06
-0.000549733
-0.00158337
0.00025888
-6.39977e-05
0.00138849
0.000566065
4.16482e-05
0.00123645
-0.00184416
-0.00058051
0.000627413
-0.0017424
0.0016955
0.000174662
-0.000228978
-0.0016349
0.00168922
0.00116494
-0.00108808
-0.00249762
0.000284641
0.000736481
-0.000751313
-0.00076193
0.000776762
-0.000672316
0.00067519
-2.87386e-06
-0.00159787
-0.000564777
0.0024029
-0.000344431
-0.00149369
-0.00092928
-0.000283357
0.00126076
-4.81212e-05
0.000267794
0.0015156
-0.000580214
-0.00120318
-0.00301055
-0.0025259
0.000196677
0.00242131
-9.2081e-05
0.000180984
0.000128122
-0.00104266
0.000733555
0.00165747
-0.00152972
-0.00171085
0.00121736
0.000347857
-0.00156522
0.00173444
-0.000321175
-0.00124084
-0.000172422
-0.00103774
-5.81146e-05
-0.000700404
0.00179626
0.0016953
-0.00143375
-0.00050477
0.000243217
7.43305e-05
0.000526961
-0.00162426
0.00102297
5.27465e-06
0.000884266
0.000136657
-0.0010262
-0.000822705
0.00104756
0.000296006
-0.000520864
1.28778e-05
0.00145367
-1.19914e-05
-0.00145456
-0.00109787
0.00111074
-0.00102234
-2.2904e-06
0.00102463
-0.00167075
-0.000153877
0.000417015
0.00140761
0.00117466
-0.00114861
0.000687391
-0.000713431
0.000290033
0.00102244
-0.00110358
-0.000208889
-0.00141238
0.0020675
-0.000238472
-0.000416643
0.000824942
-0.000787925
-3.70166e-05
1.66188e-05
0.000652579
0.00171382
-0.00138058
0.00117668
0.000505905
-0.000302001
-0.000340572
0.000758879
-0.000418306
-3.46809e-05
0.00118634
-0.00115166
-0.00185287
0.00070244
0.000360164
0.000790266
-0.00333751
0.00243233
0.000921804
0.00248314
-0.000296719
-0.000424613
-0.00176181
0.000993561
0.000121414
0.000634621
-2.9436e-05
-0.000665033
5.98478e-05
0.000686743
-0.000538573
2.72988e-05
-0.00159484
0.00156754
-0.00275254
0.00196836
-0.000873691
0.00210895
-0.00142838
0.000193119
0.00143945
-0.00194731
0.000601751
0.00110784
-0.00202282
0.00038968
0.000525296
-0.00102898
0.00123653
-0.00020755
0.00214833
0.000449693
-5.24229e-06
-0.00259278
-0.00103444
0.00104238
-7.9415e-06
0.00280796
-0.00251795
0.000326311
0.00166234
-5.49193e-05
-0.00160742
0.00119274
-0.00121623
2.34931e-05
-0.00119552
0.000134783
0.00106074
-0.000460243
-0.00113123
0.000395955