/*--------------------------------*- C++ -*----------------------------------*\
  =========                 |
  \\      /  F ield         | OpenFOAM: The Open Source CFD Toolbox
   \\    /   O peration     | Website:  https://openfoam.org
    \\  /    A nd           | Version:  10
     \\/     M anipulation  |
\*---------------------------------------------------------------------------*/
FoamFile
{
    format      ascii;
    class       volScalarField;
    location    "9";
    object      SgT;
}
// * * * * * * * * * * * * * * * * * * * * * * * * * * * * * * * * * * * * * //

dimensions      [1 -1 -3 -1 0 0 0];

internalField   nonuniform List<scalar> 
59698
(
8.32503e-17
4.58259e-14
2.4887e-13
3.58328e-14
1.13381e-15
5.53946e-19
4.2465e-14
1.34182e-13
4.15682e-09
2.90197e-16
3.53671e-05
8.37778e-14
5.78027e-17
4.5434e-13
1.08611e-16
1.02028e-16
6.7992e-14
1.71524e-13
2.12306e-13
1.30547e-15
0.00075307
3.62986e-15
0.000615885
5.20669e-18
3.77526e-15
2.86576e-13
9.99569e-13
5.1779e-15
8.36444e-16
1.16984e-15
1.75889e-14
1.07972e-16
1.28991e-16
7.38357e-16
5.18887e-13
2.07054e-13
2.84302e-09
1.41691e-14
3.30459e-14
4.45403e-15
4.38275e-14
1.03552e-18
4.84099e-14
7.36647e-14
3.01235e-17
2.7312e-15
2.76456e-13
4.31433e-14
1.45402e-13
1.37591e-13
8.59761e-14
1.18822e-13
3.45254e-13
2.24948e-14
8.68972e-16
9.13006e-14
1.70536e-12
1.31261e-15
8.08435e-13
4.72324e-09
1.70448e-14
2.43584e-13
5.81591e-13
1.73793e-13
7.58206e-16
8.99085e-14
1.45949e-09
2.87028e-13
1.49526e-13
6.45119e-08
1.15425e-15
8.30015e-13
1.34914e-10
1.48199e-07
5.3665e-18
2.08957e-07
2.16643e-14
2.73892e-14
1.20423e-14
1.01013e-15
1.62294e-15
3.01385e-13
2.2552e-16
6.58483e-14
4.19264e-05
1.09953e-13
4.08764e-14
2.65607e-13
6.30655e-15
2.93125e-14
1.38527e-15
4.40381e-14
6.26907e-16
1.13375e-13
7.1015e-13
3.25494e-13
2.60834e-15
5.95771e-13
8.46866e-15
4.85057e-18
3.2922e-15
9.6504e-11
1.25166e-14
1.10201e-13
6.24602e-13
2.73384e-16
1.6038e-13
1.37522e-13
2.81257e-14
5.37253e-17
1.26333e-12
1.33161e-13
1.27538e-14
2.69389e-18
1.04509e-13
1.91315e-14
1.50864e-13
2.85517e-14
1.76388e-13
5.16239e-16
3.19004e-14
9.45057e-13
1.83474e-14
2.67771e-14
8.8381e-14
1.05513e-13
1.18984e-15
1.6347e-16
2.93412e-14
1.72089e-14
6.2978e-15
4.85927e-14
0.000444076
2.64826e-14
9.01459e-15
6.17088e-15
4.09477e-15
3.1664e-16
2.6669e-13
2.82426e-13
1.14262e-13
2.71513e-14
1.55061e-15
9.53549e-14
7.88096e-15
4.69203e-13
3.51378e-14
2.23856e-14
3.84195e-14
6.33483e-16
7.88005e-14
0.000653309
2.28399e-13
3.87986e-14
2.02161e-13
7.59036e-13
5.39465e-14
3.79772e-14
2.14402e-15
6.55132e-17
8.12608e-16
4.13866e-15
9.92548e-16
4.24242e-14
3.81262e-15
2.72332e-16
8.55243e-14
5.04835e-09
3.67719e-15
1.25774e-13
1.04905e-15
2.36916e-15
4.82978e-15
4.74874e-15
1.09518e-14
1.3647e-13
1.20168e-17
9.89427e-14
0.0215184
1.48424e-15
6.18116e-16
1.11122e-15
1.638e-15
6.159e-15
6.8107e-15
1.13313e-16
1.15684e-15
1.86273e-13
2.23483e-13
2.99663e-13
1.0228e-13
3.87943e-13
1.65264e-16
1.00389e-15
6.41896e-15
1.89049e-13
2.48768e-15
2.29551e-14
0.00171759
3.81265e-15
6.40547e-15
2.43297e-15
3.14056e-15
3.74958e-13
1.23331e-15
2.94852e-15
2.5364e-15
1.42119e-13
4.67211e-15
2.82477e-15
3.91976e-13
9.2421e-14
1.90017e-15
4.20669e-17
3.42432e-14
3.2661e-14
1.1464e-13
4.67703e-14
5.71685e-15
3.80086e-15
1.90847e-09
1.58066e-15
1.44338e-13
9.61079e-15
7.92251e-15
3.136e-15
5.75704e-15
4.64239e-14
3.06291e-15
1.99141e-08
3.08653e-16
3.39916e-15
1.17383e-14
3.12795e-15
7.29623e-15
1.89269e-14
1.05065e-15
1.76084e-13
3.4276e-13
2.64926e-14
3.40677e-14
2.64411e-15
2.5868e-15
4.01599e-18
4.83007e-14
3.63518e-14
1.16316e-09
3.81721e-08
4.38014e-13
7.86831e-13
6.41377e-14
4.10149e-13
2.46472e-13
0.000461253
4.79109e-13
8.48621e-14
3.55573e-13
1.53942e-13
6.53796e-13
5.59617e-15
0.00205726
1.15413e-16
5.44761e-13
3.09772e-13
2.39462e-13
1.54535e-14
1.68237e-13
1.07769e-07
8.48704e-14
1.25945e-14
1.78255e-13
1.02092e-15
3.32561e-05
1.33918e-14
1.19977e-14
2.44442e-13
8.74324e-15
8.09804e-14
5.73786e-16
0.000475865
2.89536e-17
2.23951e-13
2.51627e-13
8.45092e-15
5.83937e-15
5.85237e-15
4.76782e-13
0.000323756
9.10596e-16
1.80917e-13
1.60252e-08
2.07901e-15
1.38853e-13
1.65131e-13
7.47077e-14
5.6201e-14
4.71085e-14
6.9329e-13
1.10148e-14
2.93685e-13
2.7945e-14
2.1964e-17
3.70118e-17
4.48914e-13
1.68518e-14
1.1255e-13
2.55765e-15
4.59802e-13
1.5511e-13
7.91416e-14
3.29161e-15
2.77497e-13
8.13531e-14
1.29068e-18
6.17227e-13
6.16484e-13
2.53543e-17
5.32513e-13
1.67196e-18
6.55556e-13
3.94144e-13
8.46682e-08
2.78944e-13
3.69426e-17
1.67804e-06
3.22543e-15
3.86544e-13
4.24661e-13
5.84601e-14
3.27922e-16
7.38864e-16
4.34662e-14
7.59566e-16
5.34234e-08
2.75101e-10
5.19198e-14
7.0655e-14
2.48842e-13
2.46096e-14
1.15359e-14
8.11396e-14
2.86879e-14
2.90627e-14
3.09672e-14
4.04572e-16
2.65864e-15
1.61926e-13
7.74216e-16
1.34599e-13
1.9835e-14
1.87557e-14
2.03453e-13
1.1245e-14
5.07542e-19
2.44706e-10
6.28444e-16
1.24815e-14
3.13934e-15
4.44749e-15
5.90317e-16
1.84564e-13
8.78902e-14
0.0350083
6.15369e-14
3.87081e-17
1.24233e-18
2.35118e-14
3.46925e-14
1.57547e-13
5.56685e-12
1.56026e-14
4.61907e-16
4.73376e-13
4.34771e-18
6.05951e-14
2.41252e-17
2.45005e-13
2.84802e-14
2.77862e-16
2.60198e-10
1.37902e-17
1.10809e-13
1.14913e-13
3.77899e-14
5.875e-14
3.68794e-12
6.15503e-14
1.93177e-17
9.79383e-16
1.9201e-13
1.54586e-14
5.26836e-18
1.3799e-14
4.65664e-16
0.000126516
9.14918e-16
6.7735e-10
3.01867e-13
1.30159e-13
1.84927e-13
1.50895e-14
8.26301e-15
2.36934e-14
1.96007e-13
2.54881e-13
6.99843e-13
6.09662e-15
6.68162e-16
2.41833e-14
9.70097e-15
1.21589e-14
1.1431e-09
4.58331e-14
0.00330139
1.64334e-14
2.22336e-15
2.24658e-14
2.83095e-09
2.95782e-16
6.94307e-15
4.30697e-13
1.49865e-15
7.22291e-14
3.29573e-08
3.14977e-15
3.71135e-14
0.000194031
4.25785e-13
3.20057e-13
1.56554e-15
2.4634e-15
6.42883e-07
2.90455e-10
8.68777e-14
1.18204e-15
6.84488e-16
0.0161443
8.50606e-07
4.26855e-13
5.81829e-15
2.55203e-19
2.77878e-13
0.000263541
2.40187e-14
1.11017e-13
4.75575e-15
2.94599e-15
3.22575e-17
4.17977e-14
5.19095e-15
8.49381e-14
1.13628e-13
3.10735e-15
6.34496e-15
2.00633e-14
5.172e-14
3.12455e-15
6.9505e-17
7.91639e-15
5.30913e-14
2.57863e-16
3.94756e-14
1.52787e-14
9.83327e-16
8.77098e-17
1.68931e-13
4.27028e-13
4.88368e-14
1.28921e-14
3.6319e-16
1.15334e-14
4.59845e-16
5.97777e-16
1.19754e-16
4.3845e-14
1.2049e-13
5.17483e-15
3.07898e-15
3.51814e-14
5.28275e-14
8.04968e-14
6.90358e-14
6.49032e-14
2.57196e-16
1.20922e-14
2.6143e-14
3.84464e-14
5.91492e-14
4.98664e-15
2.18623e-14
4.42665e-16
1.74401e-14
1.83459e-15
1.76414e-14
6.83914e-17
9.4734e-15
1.69828e-15
8.10631e-15
1.34503e-14
6.11578e-16
2.40665e-16
8.47764e-16
1.07109e-15
5.69813e-14
1.49074e-16
3.20301e-12
1.13215e-13
1.0892e-16
4.02417e-14
8.30205e-15
7.22631e-14
2.98847e-15
7.83401e-13
3.90167e-18
7.57341e-14
1.02061e-13
4.83249e-17
9.47275e-14
5.2866e-18
2.14607e-17
1.17238e-14
3.80735e-15
3.82304e-14
9.09306e-18
1.00918e-16
1.50214e-13
2.46561e-14
2.32796e-13
6.19396e-15
9.13881e-15
1.73145e-14
9.75853e-08
3.77856e-18
8.08549e-14
2.64313e-16
2.80854e-16
2.60949e-19
1.63874e-15
1.1117e-13
3.84447e-15
8.85702e-16
2.07013e-13
3.5864e-13
1.45904e-08
2.72985e-14
2.65414e-15
5.97834e-09
1.15246e-12
7.41373e-14
3.81246e-14
2.92093e-14
3.88376e-06
3.47061e-14
9.18342e-17
1.63339e-13
1.68368e-15
2.12807e-15
2.83396e-14
8.1503e-14
1.33832e-13
3.94187e-16
2.975e-08
5.13178e-14
7.90315e-11
4.48449e-14
4.47466e-18
6.73552e-12
1.77848e-14
6.46356e-14
2.53829e-05
7.23857e-14
3.93382e-14
4.34532e-16
2.73454e-13
7.11555e-14
2.35254e-13
1.69454e-13
1.34119e-13
5.37143e-15
2.97617e-17
1.12368e-18
3.69349e-15
3.9764e-15
8.97778e-14
2.11079e-13
5.86765e-16
6.24021e-14
2.69047e-14
1.67207e-15
5.15017e-14
2.23764e-13
1.20878e-14
1.5507e-13
5.07065e-14
1.86207e-17
1.18682e-13
0.0104683
1.96647e-11
5.85655e-18
5.49046e-17
1.75929e-13
7.4333e-14
3.91588e-16
9.35616e-14
4.89913e-12
3.96921e-13
3.82993e-14
5.24348e-19
3.61782e-13
4.20305e-14
1.0379e-13
2.62715e-13
6.15613e-14
9.06162e-13
3.67823e-14
1.01708e-12
1.1128e-13
1.84299e-15
7.64653e-06
8.22183e-14
2.85363e-16
7.68567e-13
6.50156e-14
3.09751e-07
2.03674e-13
7.26495e-14
7.88667e-15
9.65262e-14
1.04834e-13
1.68458e-13
6.21093e-15
2.61626e-15
1.19341e-13
1.4847e-13
1.38748e-13
2.58513e-13
5.55563e-14
4.72329e-14
6.38999e-14
2.19523e-14
9.44874e-14
9.95369e-14
2.28139e-15
3.29959e-06
1.29826e-13
5.10828e-14
9.99212e-14
1.33615e-13
1.66527e-13
4.63139e-16
6.43299e-17
2.31143e-13
2.31398e-14
5.75817e-13
7.19682e-14
7.69964e-14
3.28232e-14
0.00212415
2.94238e-15
1.56371e-13
9.11164e-14
1.66203e-13
9.44822e-15
2.55457e-10
2.7648e-08
5.2085e-14
8.41102e-14
7.65853e-14
2.98108e-14
1.21206e-15
3.44753e-17
1.01384e-13
2.10921e-13
1.63569e-13
7.28952e-14
4.02709e-13
3.09238e-18
2.24938e-14
5.86318e-16
1.19093e-13
4.96611e-13
1.94357e-13
1.36386e-18
7.48567e-18
9.48496e-15
1.50518e-14
8.16737e-14
1.18365e-13
1.21818e-14
1.88908e-15
4.82747e-15
1.33473e-15
1.54564e-15
1.13518e-14
7.61955e-14
3.97336e-13
5.48217e-13
5.24242e-14
3.36304e-17
9.99721e-14
1.03533e-16
9.63096e-17
1.56398e-13
8.46077e-13
2.34074e-14
6.74752e-05
1.06325e-15
1.78484e-13
7.08915e-15
2.23912e-17
4.7431e-14
2.6322e-19
2.57416e-13
1.6997e-17
2.47654e-14
4.70239e-16
2.85143e-14
4.49447e-14
1.91709e-06
2.61244e-16
5.58188e-15
2.54908e-15
2.46499e-14
2.04865e-13
2.04938e-14
2.12844e-15
1.92261e-15
4.71157e-16
5.25904e-16
2.07244e-13
1.33248e-09
2.29456e-17
2.94696e-16
2.12273e-15
1.81145e-19
5.88385e-15
3.33496e-13
2.56804e-08
2.46495e-15
2.63364e-09
2.03748e-12
1.34346e-13
3.27617e-07
2.16976e-14
6.4127e-14
2.05226e-14
2.46371e-14
3.6818e-10
2.06821e-13
2.47205e-15
1.35991e-13
2.16059e-15
1.04573e-13
1.12657e-14
5.75545e-18
1.71577e-13
2.53364e-15
4.05605e-07
7.4065e-09
1.43884e-13
1.58231e-15
5.58092e-17
6.09977e-15
2.57152e-15
3.18981e-13
1.00518e-14
1.81823e-15
2.76374e-14
2.77392e-16
1.60483e-14
7.57457e-16
1.39391e-16
2.26731e-16
2.38663e-13
7.27346e-16
1.89536e-14
1.15569e-13
5.21896e-14
2.48424e-14
5.6338e-14
1.47904e-05
3.66471e-18
1.12444e-15
4.62788e-14
1.42939e-13
1.49142e-15
3.01147e-14
2.55992e-17
6.17486e-17
2.32381e-16
4.3084e-13
5.24381e-16
5.70998e-15
8.71396e-07
1.0875e-13
3.09543e-09
2.51804e-15
1.32258e-15
2.26825e-15
2.18149e-13
6.86671e-14
1.88426e-15
1.91665e-14
1.00536e-13
1.38851e-14
1.09606e-10
1.40281e-13
1.35235e-13
3.01791e-17
9.05059e-10
1.57212e-16
2.12227e-16
3.0446e-14
2.03372e-15
0.00012669
5.47103e-15
1.65006e-16
1.00443e-14
1.10588e-12
4.79359e-08
1.57877e-13
1.30618e-09
1.05897e-13
1.99506e-10
1.72293e-15
7.23935e-16
1.49471e-13
4.96398e-13
1.05388e-14
3.27241e-18
6.72972e-14
1.01894e-13
5.02118e-14
2.58127e-16
3.62665e-13
9.4579e-14
1.55384e-12
1.92595e-15
6.05101e-12
6.56313e-11
2.26699e-06
5.53176e-16
2.8548e-15
4.37534e-15
1.88315e-16
3.39651e-13
1.27316e-13
3.16922e-13
5.73899e-17
7.31007e-14
3.65322e-15
1.603e-16
5.39726e-10
1.80486e-17
1.35443e-13
1.93584e-16
7.5914e-15
4.67375e-14
1.49192e-13
2.81568e-15
2.20607e-13
4.18319e-16
1.78477e-18
2.00521e-14
4.18165e-14
3.40242e-16
1.03408e-13
2.72098e-13
4.90691e-14
3.40965e-15
2.19875e-13
8.191e-17
1.5875e-11
4.59128e-18
2.83806e-13
1.25522e-17
7.6549e-14
3.15247e-13
3.20556e-15
6.2213e-14
6.08276e-13
3.48498e-14
5.51731e-13
7.90584e-18
1.69387e-16
1.09917e-13
2.7881e-13
2.02582e-13
5.30531e-16
1.46052e-15
1.19116e-14
4.31664e-15
1.34679e-14
2.89256e-17
7.943e-14
2.67101e-14
1.2225e-13
1.56308e-16
5.94215e-10
9.27139e-18
8.3553e-15
1.72596e-13
2.10926e-18
5.419e-13
8.35269e-14
1.09017e-17
2.18248e-16
2.20116e-13
4.89423e-14
2.3493e-15
2.37173e-16
1.71611e-14
2.37227e-14
2.87197e-17
5.31968e-18
2.76632e-14
1.03881e-14
6.77972e-14
2.01078e-15
9.36974e-16
1.64212e-13
3.93224e-15
8.86967e-16
5.67942e-14
4.45185e-14
3.86272e-13
7.6992e-14
1.32605e-13
2.25106e-13
2.22009e-16
6.11643e-16
1.23468e-14
3.1201e-16
3.05078e-15
3.14203e-14
1.94261e-13
7.93524e-14
9.92948e-18
1.80989e-16
4.30671e-15
8.55659e-14
1.20864e-13
2.09017e-15
1.77053e-14
2.82378e-14
9.74244e-13
6.79607e-16
4.51993e-15
1.67923e-13
1.35585e-13
6.95992e-16
5.13591e-14
7.8051e-15
9.36151e-14
5.52381e-15
8.95944e-14
3.29693e-14
0.0439986
2.27612e-13
5.05958e-14
3.63898e-15
1.12657e-16
3.70515e-14
4.79311e-15
7.02826e-14
3.35263e-14
1.13199e-13
7.13304e-14
1.94868e-14
9.35383e-14
8.67759e-18
1.40247e-16
2.08367e-16
3.4931e-14
2.82412e-19
2.32301e-13
3.70946e-14
6.6846e-16
5.42397e-16
4.98622e-14
3.37604e-14
6.39996e-10
1.35572e-14
1.02542e-14
2.60468e-14
1.14936e-14
5.66032e-14
2.50887e-14
1.11912e-13
2.05009e-15
8.77801e-16
1.44056e-13
1.98541e-16
1.24918e-13
1.52452e-17
4.28271e-11
1.43122e-13
5.38807e-15
2.7696e-13
2.9259e-11
2.45807e-11
3.22631e-14
1.04154e-13
6.63623e-14
1.02611e-13
3.26542e-14
4.37498e-15
1.23562e-16
6.22032e-14
8.59759e-14
9.31105e-16
1.09619e-17
2.50159e-13
4.12094e-13
2.95241e-15
3.02098e-13
9.60564e-14
1.09606e-14
1.69666e-14
9.59021e-14
4.60732e-15
1.11875e-13
3.5373e-15
4.34524e-14
1.55948e-14
1.0827e-14
3.10684e-14
5.18364e-16
6.07812e-15
1.24118e-13
2.34708e-17
1.31294e-14
3.04534e-14
2.79601e-13
1.24282e-17
5.33365e-13
1.21471e-15
1.59594e-13
5.3221e-14
1.09957e-16
1.11594e-15
4.55139e-14
6.11487e-15
5.77525e-15
1.05056e-05
2.07364e-14
3.7704e-16
8.44003e-14
1.53837e-14
4.33345e-15
0.00136018
1.19519e-12
2.32655e-13
3.04045e-14
1.28795e-13
6.46714e-15
1.06357e-16
5.07257e-18
7.06008e-16
1.57573e-16
3.80269e-13
3.10568e-14
3.54941e-14
3.04591e-13
1.81917e-13
1.22194e-12
5.9139e-15
4.43231e-10
1.56892e-13
1.48969e-09
0.00543118
3.47545e-13
1.93742e-15
6.59183e-16
1.00317e-09
1.9058e-13
2.37459e-15
1.14717e-13
4.63165e-13
7.51979e-14
6.04998e-14
5.72859e-13
1.15589e-18
9.22861e-14
2.15724e-13
6.91628e-13
1.28952e-13
4.97087e-14
7.37263e-14
1.20836e-13
1.78904e-06
2.05551e-16
1.10797e-08
4.57981e-07
8.72801e-14
1.15983e-06
1.27734e-14
7.75475e-14
2.48742e-13
6.11769e-16
9.71622e-08
2.84149e-14
6.75296e-15
4.26168e-13
9.95966e-19
5.57051e-10
5.63124e-13
1.4413e-17
6.78614e-14
2.70077e-15
7.53586e-14
2.15393e-14
2.67028e-13
3.46436e-14
1.50475e-17
4.4297e-15
4.25274e-14
1.23726e-13
2.33628e-14
1.5714e-12
2.10468e-18
9.42657e-17
2.11421e-13
6.10522e-16
5.90149e-17
1.05569e-12
4.1375e-13
2.3196e-13
2.5945e-13
7.44408e-05
1.4181e-13
4.50934e-14
2.64519e-13
2.23445e-15
8.05808e-14
9.01432e-16
2.79667e-13
5.36765e-17
9.88928e-14
7.51396e-15
1.4924e-13
1.63674e-14
1.41181e-14
3.99309e-06
1.94885e-15
3.63539e-13
4.69956e-15
9.34699e-16
8.36551e-09
3.24711e-14
1.2317e-13
2.4632e-15
1.14452e-09
4.80379e-16
1.32191e-15
1.16942e-13
2.98522e-13
5.77767e-15
5.87978e-15
1.51814e-14
1.67457e-13
3.00685e-14
6.14635e-18
3.82292e-15
1.73781e-14
1.82098e-14
2.55471e-15
6.83178e-14
5.32125e-14
1.19668e-14
7.15764e-15
3.46705e-15
2.04761e-13
4.69364e-14
6.53474e-14
1.34045e-16
7.23225e-14
1.29829e-17
2.56671e-14
9.57407e-14
1.70325e-13
3.30005e-14
1.26059e-13
2.18018e-14
8.70635e-14
4.21789e-17
4.33873e-15
4.3444e-15
5.90277e-15
3.61896e-14
1.90699e-15
7.35045e-18
1.42e-18
8.98653e-14
3.57896e-14
1.07763e-14
2.91852e-05
1.50175e-13
9.38932e-13
1.4089e-13
2.55668e-18
1.97173e-17
9.77465e-14
4.58912e-14
1.94496e-14
9.47776e-16
4.76368e-15
3.86145e-14
4.56295e-18
5.67742e-15
0.00316761
2.05693e-14
6.96366e-15
4.41179e-05
0.000947122
1.31825e-14
3.2227e-15
1.44863e-13
3.59471e-15
9.97851e-15
2.22466e-15
1.8235e-16
2.87189e-14
2.27944e-14
1.5631e-14
4.05134e-08
4.37536e-16
1.0835e-14
9.281e-16
1.11354e-14
3.98187e-06
1.16938e-14
2.8953e-15
5.48008e-17
1.72213e-13
1.92561e-14
5.68892e-14
1.65963e-09
2.3143e-14
6.05964e-15
1.79831e-14
1.63039e-13
7.1234e-15
2.22601e-17
3.0096e-17
1.73755e-14
4.48844e-14
9.92451e-14
9.29106e-17
2.22544e-13
8.76293e-16
3.47057e-13
2.60463e-13
9.72777e-13
6.98942e-14
1.64077e-15
7.42881e-14
7.79958e-13
8.6075e-15
1.43566e-15
4.9782e-15
3.30975e-13
0.000233978
9.76418e-14
2.75437e-18
4.0617e-13
9.75582e-18
5.08912e-15
1.20768e-08
0.0254219
4.92016e-16
1.63254e-17
4.28014e-15
1.49621e-13
2.04847e-15
1.09799e-18
1.63201e-12
1.95379e-13
8.76466e-17
2.82993e-13
1.47961e-13
1.16917e-13
2.52386e-13
2.40793e-14
1.11423e-16
8.29628e-09
1.49882e-13
5.00575e-17
1.56222e-15
3.03654e-13
7.65283e-14
1.14976e-10
4.56106e-18
9.4539e-14
1.1839e-16
5.48336e-14
5.71577e-17
6.59707e-14
3.98693e-16
2.45525e-15
7.82678e-15
1.13194e-15
5.51693e-14
1.61192e-13
3.90782e-15
1.59836e-14
3.76512e-16
6.5489e-15
1.36354e-15
6.58839e-14
8.35975e-15
1.16679e-14
6.34607e-10
8.16292e-14
0.0181988
3.43219e-13
2.36983e-16
2.20011e-14
6.09532e-08
4.19261e-17
3.99868e-14
5.42802e-17
3.57101e-10
1.84457e-14
1.56781e-14
1.0182e-14
2.95148e-17
6.59623e-16
4.01873e-16
2.07646e-14
3.25197e-14
3.90102e-13
2.32877e-15
2.43643e-16
2.22287e-14
2.56796e-08
1.99892e-08
1.06031e-15
1.44981e-14
3.14423e-16
3.55207e-14
1.7187e-16
7.07181e-15
1.7213e-13
1.5286e-16
6.64641e-13
6.18222e-14
4.91168e-10
5.72377e-13
1.52178e-13
1.81355e-14
3.44569e-14
3.76066e-14
1.01155e-09
5.24076e-14
2.5233e-14
2.98431e-17
9.23255e-19
4.8384e-15
2.55963e-15
2.14045e-15
5.18699e-15
1.64706e-13
1.94765e-13
1.9734e-15
4.1091e-13
9.12048e-16
5.95569e-13
4.15732e-15
3.19877e-13
1.16142e-15
1.63039e-15
9.34777e-11
1.08302e-19
5.05681e-09
2.77802e-15
3.59764e-15
1.81074e-14
6.61487e-07
4.99243e-14
1.12618e-15
5.70736e-14
6.37544e-14
3.15141e-15
3.90093e-13
6.092e-14
5.83114e-14
1.20614e-14
3.65906e-15
2.12832e-08
2.13832e-13
1.22646e-14
3.65514e-13
3.45662e-15
2.94095e-17
2.79911e-08
1.11701e-13
1.11842e-07
5.47565e-07
9.08311e-06
4.87699e-14
1.41003e-13
6.48086e-16
7.40198e-14
6.57639e-15
8.93857e-16
1.38166e-08
8.58201e-16
1.19286e-12
1.51141e-15
1.73423e-09
8.68316e-15
2.88293e-16
1.25935e-15
1.35975e-17
5.42348e-10
3.66485e-15
7.52952e-18
2.41633e-10
6.12745e-12
1.92417e-14
0.000164996
2.48483e-16
1.73825e-15
3.71636e-18
4.15127e-16
1.11528e-07
5.76224e-15
2.55017e-07
1.13563e-06
1.13676e-15
0.00140551
4.90846e-16
5.02512e-13
1.94873e-13
4.04028e-18
9.78406e-11
5.96044e-17
1.24159e-05
2.78425e-13
9.01102e-18
1.82282e-15
2.61637e-14
7.3137e-15
7.1063e-14
1.05555e-13
5.69143e-14
4.96549e-16
1.55581e-14
4.19333e-15
9.38265e-14
2.50482e-14
3.89566e-14
5.17558e-16
1.96928e-16
2.94955e-16
8.81739e-15
1.6701e-14
1.19665e-15
3.46165e-13
1.42283e-13
6.64143e-15
5.93966e-13
1.3471e-13
7.41241e-14
7.83282e-14
8.81511e-14
3.35844e-14
4.13558e-16
5.36598e-16
3.09155e-14
0.0037648
4.22786e-16
1.41638e-13
1.62525e-15
7.02218e-15
1.85051e-13
1.54394e-14
1.04147e-13
1.35866e-13
2.37911e-15
3.85182e-10
1.15923e-15
5.76535e-13
3.59795e-15
6.40545e-15
1.42203e-16
5.16682e-17
5.39443e-17
2.13997e-16
5.51918e-17
5.14961e-14
1.3136e-13
7.08753e-12
1.06698e-14
1.55444e-10
3.03573e-06
1.89786e-14
6.44508e-16
4.26545e-14
1.31649e-14
2.10586e-14
4.13509e-14
1.8618e-14
4.23035e-16
5.20621e-18
3.92869e-08
1.25352e-15
1.2e-13
4.89225e-17
3.39036e-16
1.06736e-13
9.40461e-15
5.80811e-08
2.33831e-16
2.43381e-16
8.74905e-14
8.61566e-15
9.69725e-13
1.05175e-13
2.06525e-13
1.44093e-13
4.60383e-15
5.59962e-11
3.46002e-13
5.57898e-16
2.55874e-12
2.00815e-06
3.70777e-14
5.3276e-15
3.14321e-09
1.54532e-13
8.99766e-10
6.00283e-10
6.88518e-13
1.25611e-11
2.04636e-13
1.35677e-12
5.31225e-16
6.74557e-10
3.38375e-19
8.37101e-15
5.06894e-16
0.0179899
7.62579e-14
1.49171e-17
1.30411e-07
8.45316e-11
2.47874e-13
1.50975e-15
1.27365e-13
1.71279e-05
2.5238e-14
5.06031e-13
0.000312388
2.29451e-17
3.73591e-12
2.00895e-12
5.55364e-13
6.88597e-13
4.86571e-13
8.46774e-14
1.32371e-13
1.80284e-13
2.96441e-14
1.87049e-18
6.23405e-13
5.94728e-13
1.29363e-15
2.36746e-15
6.18881e-08
0.0324799
7.51985e-16
2.86798e-13
3.19628e-16
4.59675e-13
4.53228e-10
6.00142e-11
2.77837e-11
6.43988e-13
8.7732e-17
1.94375e-13
3.77491e-17
2.79271e-13
4.92478e-16
1.96624e-13
8.56762e-17
2.83817e-14
1.25072e-13
3.71233e-17
1.27263e-14
1.52428e-16
1.16176e-17
9.15474e-14
8.6785e-14
5.01026e-13
5.27783e-16
3.74299e-16
6.52402e-14
1.08093e-13
1.11106e-13
3.49335e-14
9.06741e-12
1.37454e-15
3.11832e-06
3.53562e-12
3.36535e-16
2.28282e-16
3.82363e-14
1.74654e-11
2.9202e-13
1.81072e-15
0.00307462
1.30769e-14
1.15821e-13
8.55233e-16
1.00594e-13
1.56723e-13
9.97102e-14
4.37636e-16
6.72346e-15
3.28656e-14
1.37692e-14
1.8253e-13
5.84728e-14
1.99001e-14
2.20083e-14
1.01937e-12
2.34368e-13
4.96822e-13
9.9224e-15
1.28409e-13
5.7662e-15
5.32875e-16
4.88019e-05
4.6744e-08
6.01322e-13
1.23611e-15
3.26572e-11
1.71083e-13
6.81772e-15
0.00267226
3.90361e-08
5.81916e-16
6.9913e-14
3.45381e-13
1.13062e-15
2.26236e-07
1.11699e-13
2.55235e-15
1.72712e-14
1.60987e-14
1.36713e-06
5.85768e-10
5.06144e-13
1.97909e-16
6.5127e-17
1.16246e-14
4.0503e-13
1.15557e-13
2.7248e-09
1.87568e-13
5.7262e-15
4.04451e-15
3.09256e-14
2.5153e-14
2.84064e-13
1.15433e-13
6.71163e-16
5.11479e-13
9.63154e-15
2.70634e-13
1.88415e-16
2.6987e-15
1.01716e-15
1.60143e-16
5.32012e-13
4.84565e-15
1.84035e-13
7.67124e-15
1.15133e-15
1.05305e-15
2.73692e-15
2.32775e-14
5.18294e-16
2.49577e-13
6.55318e-14
9.97772e-14
7.55087e-16
1.47562e-16
2.38766e-14
3.62693e-14
5.23666e-15
3.51176e-13
2.34901e-14
2.31872e-14
5.1489e-16
2.74823e-16
2.41833e-16
4.92222e-15
8.99684e-16
6.81887e-15
2.48133e-15
1.76495e-13
1.44399e-13
1.72926e-13
1.80069e-13
1.10496e-13
0.00276641
9.31599e-14
8.48688e-14
8.78377e-15
3.01441e-14
1.9578e-14
6.96888e-15
7.83397e-14
2.04495e-09
9.91141e-14
2.18764e-13
4.94431e-09
1.6108e-13
9.19602e-15
3.60563e-17
3.9537e-16
1.01033e-14
9.50262e-10
4.69742e-15
3.88906e-16
5.2205e-14
1.88218e-14
3.28841e-13
6.72884e-14
3.10248e-14
5.03011e-13
1.5146e-15
2.24776e-14
5.64239e-14
3.90273e-15
7.4729e-16
1.07331e-13
8.26188e-15
2.36146e-14
3.02022e-15
1.50706e-15
1.80721e-16
1.58777e-15
2.14846e-13
1.73918e-13
4.11865e-14
4.31276e-14
1.26873e-12
7.435e-15
1.58328e-13
2.53326e-14
1.69025e-13
1.04205e-14
2.05878e-15
2.1204e-13
4.40798e-16
3.27874e-13
1.70216e-16
1.67891e-13
5.12831e-14
4.27639e-14
3.65018e-15
9.92264e-14
4.0641e-13
9.77635e-16
2.86531e-14
3.14863e-13
6.21356e-16
3.2561e-15
2.08137e-13
2.96682e-13
3.79463e-14
3.22711e-13
4.74954e-14
1.23303e-12
7.51936e-15
3.19423e-15
4.42118e-16
1.31901e-13
1.94164e-14
6.49955e-14
5.36508e-13
4.00965e-13
5.17802e-14
1.09568e-14
2.00394e-15
9.56916e-16
9.0854e-15
5.38564e-14
9.59524e-14
5.91111e-14
2.31811e-16
2.3546e-13
6.5386e-14
3.21345e-14
5.48132e-15
1.03669e-16
2.87593e-14
2.48181e-14
1.02335e-14
3.58099e-14
5.57721e-13
2.13979e-15
2.93187e-14
4.42383e-16
7.82334e-14
2.76061e-13
1.54169e-13
1.06798e-14
1.48224e-18
5.80749e-13
3.55052e-15
4.22288e-13
1.68473e-15
4.72406e-13
6.73469e-15
5.57018e-14
2.64803e-14
8.66111e-14
8.77343e-14
1.32456e-14
1.05874e-13
2.07659e-14
2.34391e-16
1.26857e-14
3.19775e-17
3.25486e-13
1.18674e-13
2.70835e-14
1.00594e-14
3.11317e-13
3.34177e-18
1.33094e-13
1.00631e-15
5.07737e-15
9.31631e-15
2.72109e-14
2.22672e-16
3.05518e-15
7.5743e-16
5.48685e-15
1.98486e-15
1.27521e-12
6.35786e-17
3.43382e-15
4.11363e-15
2.34316e-14
2.97353e-16
7.53639e-16
7.50151e-13
9.25063e-14
6.53352e-14
8.60585e-15
4.49382e-18
1.33359e-15
5.42893e-13
3.04967e-14
4.26639e-14
4.4674e-15
2.57797e-16
1.94293e-13
1.75922e-15
9.39737e-14
3.19202e-16
3.09419e-14
1.21298e-06
2.50556e-14
6.81114e-07
1.46787e-14
1.51427e-14
1.54103e-14
2.40805e-16
3.19305e-15
3.5759e-14
1.45123e-14
1.2888e-14
4.57311e-15
8.86674e-13
5.79538e-19
1.59218e-16
1.56693e-15
7.4337e-16
3.31031e-13
2.64621e-14
2.44562e-14
2.06377e-13
3.771e-15
1.69369e-15
1.12503e-14
4.75496e-15
3.9946e-15
2.17515e-15
1.0881e-15
6.30441e-15
1.03346e-14
6.32209e-16
1.05359e-15
4.39442e-15
6.6796e-15
1.64013e-14
1.5647e-14
2.15193e-14
8.93854e-16
1.36889e-14
0.000654911
5.41951e-15
6.73427e-15
1.22114e-16
3.18186e-13
7.99504e-08
3.36117e-07
2.06294e-13
8.5577e-07
1.1491e-06
1.22192e-13
1.61564e-16
1.43173e-14
2.54445e-13
2.55138e-14
2.53084e-14
1.55392e-15
1.2356e-17
7.50334e-15
0.0484989
4.39811e-14
2.48014e-16
1.23702e-14
1.17425e-15
1.50429e-14
3.46769e-14
2.50562e-15
1.34091e-13
1.30226e-14
1.09132e-14
1.93616e-15
8.09212e-16
1.06323e-13
3.13314e-15
1.63254e-14
8.78574e-15
2.48354e-15
1.8629e-14
5.45405e-14
6.50702e-16
7.78185e-13
7.55739e-14
3.05164e-12
3.03853e-14
5.37694e-15
1.00758e-14
6.05434e-14
1.21101e-12
1.17011e-12
1.71147e-15
2.31804e-14
1.22484e-14
5.47922e-14
2.81878e-14
8.78331e-14
7.34393e-15
3.23139e-14
6.7656e-16
1.18277e-12
7.53977e-13
6.37385e-14
1.80472e-13
1.4056e-13
3.24425e-14
1.44663e-14
2.62721e-14
1.72711e-15
1.0114e-06
1.3507e-14
2.41371e-15
3.725e-15
4.86504e-14
7.18226e-14
2.23895e-14
7.58904e-13
5.57743e-14
4.47459e-14
2.54517e-14
1.11179e-12
2.73009e-15
3.3598e-14
1.75198e-15
5.49606e-12
1.70376e-15
5.13722e-14
1.27786e-11
5.84609e-13
3.25515e-14
5.49508e-14
7.62415e-14
1.0491e-13
2.65927e-14
5.94737e-14
3.16964e-15
4.1237e-06
2.02687e-15
4.3236e-15
1.06748e-12
2.06266e-14
8.23966e-15
1.58774e-13
1.0942e-14
9.99021e-14
3.24631e-14
3.93902e-16
6.64955e-14
6.66458e-15
3.45423e-14
5.39192e-16
3.40602e-15
5.16914e-17
2.06611e-18
3.80138e-14
2.8425e-14
8.3554e-14
5.62753e-15
2.06842e-16
3.30997e-13
4.09824e-13
1.5754e-15
5.56393e-14
2.13817e-15
9.34036e-14
1.74221e-13
2.73133e-15
2.31363e-13
2.28107e-13
7.21381e-14
1.15418e-13
2.17351e-15
7.0802e-13
4.44426e-15
1.30611e-16
2.51326e-13
3.64359e-15
4.27884e-14
6.28366e-14
1.59298e-14
4.29027e-14
2.18833e-14
2.48776e-13
1.24417e-14
6.89375e-15
3.8026e-14
2.29326e-14
8.31437e-15
9.95119e-14
2.20587e-10
4.7982e-14
6.60386e-14
1.14752e-14
2.67227e-13
3.53711e-14
7.59813e-14
5.7458e-14
4.3406e-14
4.43045e-14
3.38605e-13
2.13844e-13
1.04258e-14
1.56836e-13
7.97069e-15
5.20435e-13
8.18806e-15
4.66511e-16
8.30173e-15
5.77828e-14
3.21557e-14
4.4939e-14
1.53468e-13
1.36384e-12
2.46553e-17
5.32252e-13
2.81702e-14
5.24329e-16
1.46926e-17
9.40288e-15
3.62541e-14
1.76902e-13
6.23614e-16
1.52979e-13
5.50351e-13
3.74686e-13
2.08387e-14
3.07467e-14
5.6617e-14
6.90846e-15
1.07185e-14
4.05827e-16
2.68987e-14
4.34368e-13
7.54457e-14
1.86074e-13
2.48966e-13
3.43785e-15
3.46774e-14
5.18348e-19
7.12439e-14
3.01607e-15
6.58227e-15
1.17452e-14
9.10723e-15
2.33681e-14
1.22821e-15
6.79438e-16
1.25895e-13
1.84302e-15
2.00212e-13
4.6699e-14
0.00773449
1.22093e-13
4.32976e-15
5.9171e-13
4.48752e-14
5.60107e-13
9.49011e-15
5.13796e-14
4.06341e-15
5.43648e-18
7.73113e-15
2.36952e-15
8.64145e-14
1.42816e-14
5.23723e-14
1.66739e-14
1.86876e-14
7.4108e-14
1.2382e-14
3.10551e-18
2.1963e-18
3.12613e-15
3.48806e-15
2.86456e-14
1.02867e-14
2.5054e-14
8.90984e-16
1.42402e-14
4.2227e-14
1.43347e-13
4.3583e-18
4.49577e-12
6.11978e-13
9.93049e-14
6.927e-15
1.60752e-13
1.05023e-14
8.66298e-14
1.54266e-14
1.16396e-14
1.11259e-13
1.04394e-15
1.02358e-13
3.93887e-13
6.48718e-13
1.40629e-14
1.02551e-15
3.19988e-13
1.21765e-16
1.05875e-15
5.7741e-17
7.06224e-16
1.23463e-13
1.61518e-15
3.23075e-15
3.96911e-15
2.5671e-13
7.38568e-16
2.72751e-13
2.97059e-13
2.90809e-15
7.86914e-15
7.96586e-15
2.82253e-15
6.48023e-16
4.76747e-16
3.28155e-15
8.72592e-14
9.07793e-14
3.32611e-15
2.19224e-15
3.69125e-13
6.37494e-15
3.5706e-15
1.77835e-15
1.52456e-13
3.04247e-13
5.2705e-15
4.07374e-13
1.75273e-13
2.99717e-16
2.13034e-15
1.07356e-12
2.23456e-13
4.39597e-13
6.63908e-13
1.63994e-13
4.90017e-15
5.32583e-14
8.42764e-13
1.46721e-13
1.26169e-13
2.20897e-14
5.68924e-14
4.77893e-14
5.01444e-14
8.40614e-14
6.31676e-15
7.54997e-14
1.22116e-14
4.55048e-14
5.58837e-15
2.01044e-14
7.64244e-14
1.60951e-14
6.36463e-14
1.80851e-16
9.22021e-13
2.0237e-14
2.32872e-07
4.24076e-15
5.85444e-13
4.93525e-14
1.06768e-13
5.21471e-14
7.80481e-15
5.72789e-14
3.68408e-13
6.38499e-14
6.66001e-15
8.62768e-15
2.1128e-13
1.15722e-13
8.36514e-13
5.49273e-14
7.45922e-14
4.59309e-14
2.57857e-14
4.29171e-14
8.07547e-13
1.45263e-15
1.14302e-13
3.11516e-13
4.37594e-15
6.51942e-13
3.40284e-14
2.42068e-14
9.80255e-13
5.03222e-14
2.21469e-13
1.74724e-14
3.58182e-13
1.46037e-13
1.30335e-14
3.31162e-14
3.99919e-14
0.0283435
3.09883e-17
4.32312e-13
3.09052e-15
1.44368e-14
6.49689e-13
8.25804e-14
1.02236e-13
3.50509e-14
4.34165e-16
3.41835e-13
5.10132e-14
8.48801e-14
4.23331e-14
3.02617e-13
3.49788e-13
1.41803e-13
1.96904e-15
2.89163e-14
3.60418e-13
1.17484e-14
4.094e-14
2.66346e-14
2.22168e-13
1.02919e-14
5.91564e-15
3.97138e-13
3.7706e-05
8.59996e-14
5.0396e-17
1.2296e-13
1.66798e-12
3.92709e-14
2.59541e-14
4.16307e-13
2.14855e-14
3.26671e-13
1.18578e-13
3.06081e-15
1.39043e-12
5.34542e-15
4.76897e-18
4.05838e-18
7.38616e-13
1.38335e-13
6.70461e-15
1.81172e-15
3.70894e-09
2.50234e-14
1.0742e-13
1.30455e-14
2.83668e-18
2.95983e-14
8.51194e-13
1.47734e-13
3.50006e-14
5.71541e-17
6.02392e-17
2.39818e-13
1.26863e-15
5.24921e-15
1.83716e-14
2.92919e-14
1.52946e-15
2.84542e-14
1.35371e-14
1.29008e-13
2.08495e-14
1.053e-14
4.27944e-19
3.61878e-16
7.4287e-18
1.64275e-15
7.9732e-06
2.98654e-13
2.06721e-14
2.13308e-14
6.79175e-15
4.23346e-17
1.5732e-15
1.08798e-13
8.36698e-14
1.6531e-13
1.20669e-14
3.7006e-07
6.71612e-14
6.88397e-13
1.80066e-15
3.57174e-13
8.07013e-14
2.06573e-16
3.54665e-14
6.99395e-13
4.75025e-13
4.59866e-14
2.33393e-14
4.64069e-13
1.72561e-18
1.1227e-13
4.50741e-14
8.89809e-13
1.92499e-15
1.31034e-13
1.28737e-13
1.23094e-17
1.60733e-14
2.44073e-14
5.44676e-13
1.95903e-13
4.81678e-13
5.17553e-15
3.05237e-13
2.93021e-18
7.86174e-14
1.17688e-13
1.45395e-13
9.72755e-14
1.4805e-13
7.75815e-14
2.04992e-16
0.000218567
2.51169e-15
1.1727e-13
1.95053e-13
1.37295e-13
3.9952e-14
1.8268e-14
2.19451e-13
1.21532e-12
1.23104e-14
1.1967e-13
9.78944e-14
3.10217e-15
4.31463e-14
2.49863e-14
3.88407e-14
3.77417e-14
1.10127e-14
3.91702e-19
3.7062e-15
6.83327e-16
7.82946e-09
2.84879e-15
1.42571e-14
5.06293e-15
3.5281e-12
1.36632e-14
3.75997e-15
1.68765e-14
6.09249e-15
3.73574e-15
5.39269e-14
2.93705e-14
6.47214e-14
5.55356e-15
2.01798e-15
3.80208e-14
9.13311e-15
1.37382e-14
5.63028e-14
1.86533e-14
1.50068e-14
1.69972e-14
1.97899e-14
2.504e-13
8.64604e-14
3.0223e-14
3.36701e-13
3.44038e-14
9.1424e-14
1.32211e-14
1.28616e-13
2.74142e-14
1.17535e-14
1.19882e-14
9.11117e-18
5.85954e-14
3.35711e-14
5.27574e-13
4.39316e-15
4.56296e-13
9.93414e-14
5.26953e-15
7.39005e-14
3.80067e-15
2.46791e-14
2.05433e-14
9.2839e-14
1.31732e-14
1.50893e-13
8.50909e-15
2.02574e-13
1.50782e-13
1.42303e-17
1.20547e-15
1.4622e-13
4.61559e-15
8.05818e-14
4.19233e-15
1.38763e-14
1.09332e-14
2.26932e-15
8.28884e-15
4.52603e-14
1.78961e-14
2.51291e-15
2.14043e-13
4.55837e-13