/*--------------------------------*- C++ -*----------------------------------*\
  =========                 |
  \\      /  F ield         | OpenFOAM: The Open Source CFD Toolbox
   \\    /   O peration     | Website:  https://openfoam.org
    \\  /    A nd           | Version:  10
     \\/     M anipulation  |
\*---------------------------------------------------------------------------*/
FoamFile
{
    format      ascii;
    class       volVectorField;
    location    "22";
    object      U;
}
// * * * * * * * * * * * * * * * * * * * * * * * * * * * * * * * * * * * * * //

dimensions      [0 1 -1 0 0 0 0];

internalField   nonuniform List<vector> 
111485
(
(0.200076 -0.200211 0.00034846)
(0.568359 -0.00156732 -0.00388637)
(0.561825 0.00136607 0.00177058)
(0.200482 -0.200534 9.30868e-06)
(0.583988 0.0026342 -0.000174227)
(0.199422 0.199381 3.96917e-05)
(0.574078 0.00153556 0.000349867)
(0.588501 -0.00167507 0.000827078)
(0.57463 -0.000245907 0.000390357)
(0.586126 -0.00600059 -0.00252986)
(0.565465 0.00142328 0.00168441)
(0.591902 -0.00114089 0.00283185)
(0.557111 0.000244206 0.00123783)
(0.561645 -0.00158859 -0.00394205)
(0.570521 0.00224653 0.0012282)
(0.580751 -0.00363715 -0.00224681)
(0.57314 -9.79731e-05 0.000329098)
(0.205459 -0.0240406 0.0333545)
(0.58547 0.00166658 -0.00131244)
(0.197959 -0.197628 -4.37338e-05)
(0.198487 -0.198478 -0.000278454)
(0.200101 0.200029 1.01912e-05)
(0.578975 0.0015348 -0.000278722)
(0.586983 -0.00402114 -0.00120822)
(0.57603 0.00276352 -0.000956129)
(0.201851 -0.201065 -0.000300375)
(0.59414 -0.00250102 0.00315077)
(0.562108 -0.00106985 9.1213e-05)
(0.586612 0.000837333 -0.00151533)
(0.199437 -0.199496 2.00537e-06)
(0.591196 0.0109052 -0.00301551)
(0.583658 -0.00053664 0.000164143)
(0.198128 -0.198601 0.000329363)
(0.199753 0.200123 -0.000504567)
(0.200772 0.0820368 0.0345354)
(0.200691 0.201823 -0.00281334)
(0.588795 0.010646 -0.00439832)
(0.568597 0.00088905 0.00510923)
(0.581428 0.174271 0.0113114)
(0.583986 0.00310653 0.000439114)
(0.196574 0.198197 -0.00139469)
(0.590884 0.000549334 -0.00360314)
(0.583178 0.00323295 0.00115665)
(0.562558 -0.00436339 -0.000854137)
(0.589497 -0.0107421 -0.00525627)
(0.199677 -0.198553 0.00122414)
(0.590735 -0.0025833 0.00286585)
(0.586166 -0.00371355 -0.00110764)
(0.590813 0.000114394 -0.00275438)
(0.199137 -0.196931 0.00119948)
(0.197743 -0.195896 0.0012588)
(0.228038 0.191106 0.00311305)
(0.197023 -0.196415 0.000674725)
(0.590697 0.00263371 -0.00537173)
(0.196667 -0.195744 0.000170378)
(0.583368 0.001392 -0.000579051)
(0.58323 -0.00272862 -0.00112743)
(0.200069 0.199793 4.24332e-05)
(0.531269 -0.00120372 -0.00941194)
(0.586247 0.00246014 -0.000347461)
(0.585964 0.00277192 -0.000226088)
(0.199653 -0.199984 0.000246721)
(0.541555 0.000603831 0.00359018)
(0.593631 -0.00114979 0.00452058)
(0.206087 0.186286 0.000178378)
(0.536133 0.000985057 -0.00124546)
(0.410987 -0.0374448 0.0141687)
(0.58787 -0.00208109 0.00077283)
(0.528596 0.000380873 0.00166823)
(0.499401 -0.00104109 0.000665207)
(0.565666 0.00449638 -0.00364151)
(0.523643 -0.000971668 0.00165484)
(0.214872 -0.194271 -0.00422624)
(0.535556 0.00100151 0.00412383)
(0.199885 -0.199761 7.58266e-05)
(0.585119 -0.000930837 0.000574392)
(0.200002 0.200066 -5.57043e-05)
(0.591025 -0.0012185 0.00314759)
(0.199865 0.19978 -4.90922e-05)
(0.178098 0.173617 -0.00661679)
(0.568493 -0.00880881 0.00591453)
(0.585727 0.00212282 0.000465507)
(0.198946 0.198547 -2.7679e-06)
(0.199829 -0.199791 9.27843e-05)
(0.552982 -0.00015758 0.0011248)
(0.53085 0.00148439 -0.00220553)
(0.453197 0.28879 -0.0804249)
(0.582546 0.00727121 0.000634104)
(0.560374 0.0149764 0.0136413)
(0.565488 0.00061107 0.00134265)
(0.599004 0.0110104 -0.00729552)
(0.584732 -0.00103402 0.000972119)
(0.545996 -0.000909784 0.00202625)
(0.557361 -0.000197058 0.000168893)
(0.591858 0.00171683 -0.00376027)
(0.199881 -0.199861 1.96373e-05)
(0.199196 -0.199063 0.000152267)
(0.582346 0.00677871 0.0020291)
(0.60961 -0.127181 0.00385988)
(0.549767 0.00532585 -0.0016459)
(0.199804 -0.199792 8.80058e-05)
(0.585149 -0.00318572 0.00049347)
(0.200924 0.201225 0.00109941)
(0.580086 2.65699e-05 -0.000310809)
(0.573967 -0.00275697 -0.00345349)
(0.196378 0.174319 -0.00434844)
(0.200198 0.200099 -6.94217e-05)
(0.583863 -0.000729443 -6.95159e-05)
(0.540201 -0.00302229 0.000351583)
(0.518131 -0.0152935 -0.0165505)
(0.553776 -0.000309355 0.000847454)
(0.579915 0.000729378 -0.000189381)
(0.541926 -0.000421264 0.00195608)
(0.532347 -0.00326783 0.000947833)
(0.201787 -0.200748 3.18153e-05)
(0.51089 -0.000403675 0.0012566)
(0.200954 -0.200359 -0.000263767)
(0.20082 0.199604 0.00116241)
(0.570589 0.00204849 0.0015551)
(0.200388 -0.20026 6.10704e-05)
(0.202001 -0.201008 -0.00010694)
(0.264547 0.207209 0.0129378)
(0.197212 0.198143 -0.000382408)
(0.199959 0.199459 -0.000716833)
(0.557955 -0.00134072 0.0023748)
(0.16035 -0.114502 -0.0293318)
(0.252349 0.215885 0.00847161)
(0.515503 -0.000220106 0.00190522)
(0.200135 -0.20004 -8.20683e-05)
(0.585448 0.0420198 -0.0153876)
(0.587237 0.01268 -0.00677947)
(0.581335 0.00696634 0.00201094)
(0.198972 -0.198498 -0.00113887)
(0.258839 0.224543 0.0235774)
(0.241186 0.214632 0.0107576)
(0.586584 0.00180731 -0.00142966)
(0.200324 0.200264 -8.74664e-05)
(0.58141 0.00108716 -1.4893e-05)
(0.578046 0.0026436 0.00178884)
(0.568215 0.0026343 0.00271761)
(0.442502 -3.00866e-06 0.00188687)
(0.582413 0.00323545 0.000682166)
(0.577319 0.00290446 0.00188346)
(0.551107 0.000478635 -0.00225592)
(0.577639 -0.000904091 -0.000558826)
(0.568182 -0.000613712 0.00146265)
(0.200424 0.200445 -3.19623e-05)
(0.200035 -0.200069 1.18291e-05)
(0.199729 0.199949 0.000471469)
(0.58373 0.00275865 0.000508541)
(0.551592 0.000868093 -0.00200709)
(0.198553 -0.198507 0.000115994)
(0.375662 -0.00219818 0.00374766)
(0.569949 0.00259667 0.0018537)
(0.624223 0.0245347 0.0106016)
(0.5866 0.00177928 -0.00124454)
(0.584236 0.00191827 -0.000549209)
(0.539514 -0.000127399 -0.00104687)
(0.626019 0.0339777 0.005857)
(0.198831 -0.200839 0.00104357)
(0.199926 -0.200088 0.000242899)
(0.585826 0.00170431 -0.00124524)
(0.573395 -0.00193419 -0.00193191)
(0.630255 0.0343714 0.0064628)
(0.620989 0.0311836 0.00839841)
(0.53794 0.0001023 0.00239406)
(0.58409 0.00687284 -0.00265487)
(0.196875 0.198965 -0.000242826)
(0.638779 0.0419684 0.00903706)
(0.608862 0.0311993 0.00882292)
(0.200026 0.200158 5.2045e-05)
(0.199609 -0.199664 9.56435e-06)
(0.465895 0.000478033 -0.00378656)
(0.200298 0.20039 2.87968e-05)
(0.58071 -0.000596062 2.17579e-05)
(0.55966 0.000458477 -0.00112087)
(0.199889 0.194934 -0.0012124)
(0.215581 -0.198764 0.00198889)
(0.198868 -0.197868 -0.000447193)
(0.197118 0.185796 -0.0019777)
(0.21657 -0.200239 0.00319286)
(0.19982 -0.199954 0.000200427)
(0.582174 0.00221493 0.000712176)
(0.583623 0.00155861 -0.00116799)
(0.581442 0.00171334 -0.00071921)
(0.572231 -0.00283068 0.00245203)
(0.552094 -0.00171398 0.000307502)
(0.553249 0.000775831 0.00187412)
(0.494814 0.00629478 0.000767771)
(0.199304 -0.198529 4.81876e-05)
(0.532996 -2.00928e-05 0.00076883)
(0.215042 -0.20033 0.00192719)
(0.201308 -0.201491 -3.918e-05)
(0.557996 0.000789531 0.00185917)
(0.586391 -0.0067849 -0.00238079)
(0.582354 0.000981819 -0.00292297)
(0.559046 -0.000716047 0.000498443)
(0.569062 6.08541e-05 0.000361405)
(0.199355 -0.199036 0.000483638)
(0.558431 -0.00284992 0.000624405)
(0.556221 -0.000486181 -0.00304844)
(0.385033 0.119392 0.0152568)
(0.57013 -0.00485738 5.59539e-05)
(0.579671 -0.00041374 0.000341095)
(0.200418 -0.199165 -0.000505388)
(0.555325 0.00114762 0.00205709)
(0.584695 0.0012933 -5.48214e-05)
(0.218569 -0.198465 0.000661306)
(0.561462 0.00114643 0.00258865)
(0.589721 -0.0004906 0.00325387)
(0.551066 0.000592364 -0.00227986)
(0.553247 0.00131846 0.00258435)
(0.216374 -0.200802 0.00251702)
(0.198884 -0.198962 -2.27744e-05)
(0.553123 0.00145957 0.0028478)
(0.360271 0.224023 -0.0210448)
(0.595754 0.00246628 -0.00617155)
(0.199879 0.199932 -0.000147034)
(0.557001 0.00104938 0.00236491)
(0.558166 0.000229663 0.000462093)
(0.592656 -0.0019338 0.00384994)
(0.200119 -0.200078 3.04876e-05)
(0.520292 -0.000447038 0.001569)
(0.585159 0.00898424 0.00440068)
(0.319118 0.213787 -0.0244631)
(0.200293 0.200356 -0.000146595)
(0.200005 0.200154 5.78413e-05)
(0.59754 -0.00292676 0.00594745)
(0.555403 0.0121945 -0.00331902)
(0.210484 0.176876 -0.00428319)
(0.246124 -0.191892 0.00808197)
(0.559869 0.000459386 0.00106459)
(0.579602 0.000864466 -0.000128365)
(0.583127 0.00108478 0.000551644)
(0.20698 0.179391 -0.00553399)
(0.209612 -0.194352 -0.00101657)
(0.562561 0.00717788 -0.00853193)
(0.19987 -0.199806 8.73089e-05)
(0.534578 0.000630086 -0.00294708)
(0.552757 0.000283349 0.00225356)
(0.559439 -3.54619e-06 0.00146254)
(0.559771 0.00092812 0.00140433)
(0.562147 0.000340832 0.00190227)
(0.199301 0.199404 0.000611693)
(0.425819 -0.000857139 -0.0161542)
(0.567766 0.00149503 0.00144601)
(0.198214 0.198815 -3.41076e-05)
(0.200135 0.200216 4.95136e-05)
(0.593183 -0.00691511 -0.000572256)
(0.579573 0.00258796 -0.000606522)
(0.20473 0.173247 -0.00563232)
(0.529539 -0.000525795 0.000500324)
(0.566761 0.00129621 0.00127674)
(0.200285 -0.200183 -5.19215e-05)
(0.253939 0.240346 -0.00125735)
(0.584792 0.00622416 -0.00276719)
(0.201121 -0.198607 0.000172295)
(0.221707 -0.159451 -0.00382207)
(0.300903 -0.107204 -0.0107451)
(0.2005 -0.19985 -0.000124219)
(0.572466 -0.000577294 -0.000887366)
(0.556157 -0.00103971 -0.000820353)
(0.578935 0.000791845 -0.00150247)
(0.199978 -0.200056 -3.99975e-05)
(0.570872 0.00132117 0.00118108)
(0.200459 -0.200511 4.53102e-06)
(0.200322 -0.200469 0.000137401)
(0.199169 -0.198303 0.000395215)
(0.395571 0.00184157 -0.00529593)
(0.589868 -0.00259987 0.00321157)
(0.559557 0.00197397 0.00238219)
(0.570773 0.00180062 0.00114983)
(0.590086 -0.00298377 7.1869e-05)
(0.568535 0.000778484 0.00155951)
(0.582348 0.00206012 0.000762497)
(0.586566 0.0106433 -0.00102866)
(0.57571 0.000445597 -0.000349089)
(0.57994 0.000883143 -0.000308093)
(0.203842 0.20048 -0.000117644)
(0.199011 -0.199083 -0.000272128)
(0.362326 0.00258307 -0.0075895)
(0.582507 -0.000695511 0.000340549)
(0.587067 0.00479608 0.00498884)
(0.55561 -0.0004605 -0.000571269)
(0.200428 -0.200295 4.75972e-05)
(0.578908 0.00172998 0.00105115)
(0.581488 0.00315119 0.00150095)
(0.570619 0.001188 0.000693399)
(0.501096 -0.000564677 -0.00237674)
(0.527074 -0.00581641 -0.0133978)
(0.579304 0.00163712 0.000536804)
(0.569363 0.00140907 0.001315)
(0.580686 0.00539325 -0.00333443)
(0.200001 0.200097 1.01483e-05)
(0.533692 0.00296526 -1.00361e-05)
(0.199884 0.200001 -7.26972e-05)
(0.161185 0.119852 -0.0268794)
(0.226181 -0.146008 -0.0120618)
(0.60201 -0.00582809 0.0111328)
(0.590233 -0.00297346 9.93583e-05)
(0.575565 -0.000222755 0.00020094)
(0.200289 -0.199769 -8.1244e-05)
(0.199229 0.20034 0.0017271)
(0.578241 0.00201479 0.0010659)
(0.556278 0.000666567 -0.000589274)
(0.198673 -0.198641 5.48255e-05)
(0.200233 -0.200112 0.000231809)
(0.19541 -0.196552 0.00126583)
(0.550841 0.000529007 7.20504e-05)
(0.577622 0.000475577 -0.000674732)
(0.550686 -5.58194e-05 0.00219113)
(0.530585 0.00097546 -0.00212642)
(0.587966 0.00198278 -0.0013838)
(0.229506 0.196893 0.00584587)
(0.199712 0.200194 0.000382878)
(0.19959 -0.199413 -8.37688e-05)
(0.575961 0.00211466 0.00156243)
(0.377621 -0.318463 -0.0157048)
(0.549125 -0.000472688 0.000714289)
(0.598639 -0.00375882 0.0137488)
(0.482898 0.00105328 -0.00971042)
(0.200157 0.200137 1.27823e-07)
(0.199803 -0.200001 0.000164837)
(0.200386 -0.200496 -8.74764e-05)
(0.253535 0.211948 0.0133903)
(0.583842 0.00181446 -0.000133669)
(0.588405 -0.00297951 0.000544679)
(0.199754 0.200765 5.35254e-05)
(0.580573 0.00144931 -0.000203471)
(0.211855 0.170181 0.0125344)
(0.199681 -0.197291 -0.000303648)
(0.595451 -0.00185101 0.00498016)
(0.578648 0.00193088 0.00100966)
(0.591079 -0.000307279 0.00139168)
(0.58076 0.00149429 -0.000138032)
(0.191854 0.168993 0.0106997)
(0.251025 0.215299 0.0145612)
(0.199381 0.199641 -0.000382734)
(0.57978 0.00186801 0.00071412)
(0.578912 0.00173991 -7.0151e-05)
(0.589839 0.0115064 -0.0043587)
(0.197104 0.196604 0.000379503)
(0.403863 0.353702 -0.0872408)
(0.551176 0.00202694 0.00481695)
(0.589476 -0.00264994 0.00144222)
(0.579439 0.00200146 0.00135482)
(0.549405 0.0558449 -0.00397914)
(0.588016 0.00131728 -0.00173706)
(0.19897 0.198964 0.000117216)
(0.587716 0.00155625 -0.00139734)
(0.565228 0.00067702 0.00112899)
(0.593858 -0.0135188 5.60318e-05)
(0.59734 -0.00356658 0.00755132)
(0.57464 -0.00489893 -0.00418529)
(0.198775 0.199821 -0.000651723)
(0.19923 -0.199677 -0.000439161)
(0.200197 0.198871 0.000770327)
(0.198179 -0.198747 -3.09148e-05)
(0.587754 -0.0026702 0.000171776)
(0.582054 -0.000591575 9.98617e-05)
(0.58399 0.0026701 -0.00245341)
(0.587977 0.00161517 -0.00179598)
(0.198062 0.198239 -0.000851973)
(0.580955 -0.00385981 -0.00162386)
(0.200003 0.200023 6.12786e-05)
(0.199399 -0.199847 6.11757e-06)
(0.587774 0.00191063 -0.00133018)
(0.184394 -0.184464 0.00272985)
(0.325942 -0.0635109 -0.00351324)
(0.197001 -0.196225 -0.000205977)
(0.200341 0.19666 0.00116487)
(0.582564 0.000823978 -0.00058357)
(0.200041 0.199901 2.18398e-05)
(0.575464 0.00133765 -0.000552856)
(0.547067 0.000421596 -0.00225179)
(0.200588 0.200596 -5.48103e-05)
(0.525847 -0.000293253 -0.00283953)
(0.572767 0.000876421 0.000981052)
(0.201696 0.176187 -0.00653436)
(0.568931 0.00242057 0.00289614)
(0.540847 0.00229067 -0.000568217)
(0.573147 0.0026352 0.000868237)
(0.533669 0.00108117 0.00737243)
(0.578115 0.00155709 0.000367914)
(0.552214 0.000352054 -0.000668876)
(0.197774 0.167957 -0.000867974)
(0.198827 -0.198487 0.00123274)
(0.49465 0.000895643 0.0121865)
(0.198285 0.198926 -0.0011758)
(0.572611 0.00291536 0.00282694)
(0.596132 -0.00327965 0.00588064)
(0.200697 0.191459 0.00175655)
(0.199498 0.200387 -3.28847e-05)
(0.586176 -0.000924993 0.000441186)
(0.563551 -0.0025671 -0.00520706)
(0.565674 0.00280295 0.000512076)
(0.586973 0.00194638 -0.000748523)
(0.199968 0.199612 -7.80361e-05)
(0.597657 -0.000977157 0.0100256)
(0.58933 -0.00199313 0.00302585)
(0.200885 0.200571 2.26772e-06)
(0.576255 0.0095291 0.00784313)
(0.549753 -0.00228268 -0.00628031)
(0.199625 -0.199692 -1.69292e-05)
(0.198882 -0.198902 7.65209e-05)
(0.573688 0.00135999 -0.000413275)
(0.578287 0.000419134 -0.000945718)
(0.200122 0.200048 -0.000310842)
(0.199615 -0.199199 -0.000299499)
(0.344986 -0.18918 0.0417876)
(0.200332 -0.200473 7.44592e-05)
(0.578528 -0.00113959 -0.00010003)
(0.198569 0.199285 0.000422179)
(0.20043 -0.200513 1.26873e-05)
(0.591159 -0.000208435 0.00185058)
(0.536831 -0.0064838 -0.015363)
(0.584107 -0.00370558 0.000843156)
(0.56552 -0.000185326 0.000958656)
(0.200765 0.200632 2.83217e-05)
(0.260983 0.200053 0.0100584)
(0.565275 0.00786709 0.0118794)
(0.244129 0.214447 0.0122159)
(0.563765 0.0025253 0.00479771)
(0.56028 -0.00493371 0.000172117)
(0.586214 -0.00217762 -0.00175398)
(0.404219 0.0071166 0.0154716)
(0.239606 0.205291 0.0107087)
(0.583611 0.000677146 -0.00563293)
(0.592497 0.0189934 -0.00577321)
(0.199878 -0.200203 0.000261496)
(0.591705 0.00144512 -0.00626351)
(0.592142 -0.00245258 0.00227437)
(0.200044 -0.199982 0.000182669)
(0.574755 0.0326661 -0.0192961)
(0.498368 0.000177355 -0.00644106)
(0.253584 0.19869 0.00802051)
(0.589794 -0.00113825 0.00237977)
(0.582318 0.000786164 -0.000771935)
(0.578052 0.00151802 -0.000446723)
(0.200002 0.199892 -5.583e-05)
(0.574708 -0.00101861 0.00409296)
(0.592092 0.000122332 0.00194112)
(0.572521 0.00564354 -0.000596741)
(0.35895 -0.00566918 0.00661764)
(0.244414 0.229863 -0.0050683)
(0.338754 -0.0109262 0.0125717)
(0.199753 -0.200051 0.000188608)
(0.531271 -0.0187078 -0.0178544)
(0.574933 -0.00114427 -0.00371498)
(0.200075 0.199981 0.000280888)
(0.548685 0.00129977 -0.00389603)
(0.450069 -0.001061 0.00884932)
(0.261081 0.229611 -0.00242598)
(0.200057 -0.199932 -3.53078e-05)
(0.233048 -0.19932 0.00631714)
(0.200322 -0.200261 -3.07717e-05)
(0.572622 0.00343387 -0.000399106)
(0.577145 0.00320603 -0.000945881)
(0.573223 -0.00166554 -0.00163023)
(0.538172 0.00115804 -0.00299423)
(0.585873 -0.0114987 -0.0023421)
(0.199811 0.198906 -0.00038703)
(0.56814 -0.000579932 -0.00120758)
(0.200774 -0.199049 -5.50981e-05)
(0.563639 0.00206994 0.00139005)
(0.200792 0.200854 -1.8804e-05)
(0.200165 -0.2 -2.9055e-05)
(0.1974 -0.197984 -0.000313822)
(0.553722 -0.00391016 0.000455072)
(0.199103 -0.199302 -0.000210409)
(0.199916 -0.199974 2.03859e-05)
(0.196992 0.128814 -0.00858311)
(0.200334 -0.20048 9.3498e-05)
(0.197567 0.200157 0.00186555)
(0.567147 -0.00227656 -0.00124265)
(0.200049 0.199861 -3.13325e-06)
(0.237842 0.174882 0.000422844)
(0.200145 0.200264 0.000285131)
(0.199053 -0.198378 1.14755e-05)
(0.199914 0.199072 -0.000340069)
(0.198845 -0.197787 -0.00105019)
(0.198432 0.198609 1.28298e-05)
(0.515782 -3.80289e-05 -0.00401038)
(0.200191 0.199039 0.000861791)
(0.530318 0.00808971 0.0112948)
(0.580405 0.00139867 -0.000881455)
(0.596516 -0.0231426 -0.00344194)
(0.200797 0.19988 1.1576e-05)
(0.504209 0.00155977 0.00925021)
(0.200261 0.199503 0.00011031)
(0.200404 -0.200501 -8.65006e-05)
(0.569554 -0.00480036 -0.00577905)
(0.570834 -0.00412768 -0.00549261)
(0.574347 -0.00167841 -0.000810935)
(0.60003 0.00109115 -0.011143)
(0.230748 0.193579 -0.00637571)
(0.587455 0.0006942 -0.00351934)
(0.586981 0.000733248 -0.00318854)
(0.579338 0.00112838 4.83332e-06)
(0.570812 0.000576139 0.000257472)
(0.578777 -0.00589145 -0.00458383)
(0.198628 -0.198703 -0.00012786)
(0.579846 0.000975352 -9.47269e-06)
(0.263412 0.227984 -0.00115042)
(0.578574 0.00141848 -0.000739324)
(0.199683 0.199434 -7.2088e-05)
(0.589359 0.00180477 -0.00329687)
(0.260515 0.215742 0.00267765)
(0.580908 0.000277514 -0.000752663)
(0.583283 -0.00298555 0.00198639)
(0.230281 -0.119387 -0.0007155)
(0.199676 0.199854 0.00230177)
(0.571342 0.00095846 0.00117465)
(0.19972 -0.199708 4.58304e-05)
(0.591684 0.00222416 -0.00407615)
(0.587487 0.00239763 -0.00264444)
(0.199863 0.199229 -0.00165247)
(0.199296 0.199312 0.000463887)
(0.195805 0.174176 -0.00406801)
(0.200066 0.200204 7.59515e-05)
(0.409485 -0.0229174 0.00903096)
(0.591961 0.00202292 -0.00389941)
(0.203275 0.198348 -0.000153862)
(0.199551 0.199992 0.000363335)
(0.505964 0.000723662 -0.00105829)
(0.200344 0.200363 2.77593e-05)
(0.582975 0.00168185 -0.00239514)
(0.200204 0.200126 1.47274e-05)
(0.576908 -0.00348432 -0.00162383)
(0.200238 -0.200298 -8.29392e-05)
(0.540618 -0.0024801 -0.00787265)
(0.443999 -0.00195584 0.000509857)
(0.543738 0.00174019 -0.000934546)
(0.581175 0.000569865 -0.00081012)
(0.200418 0.199018 -0.000641201)
(0.526443 0.000776739 -0.000303391)
(0.200369 0.199651 0.000199703)
(0.200174 0.200178 -0.000539978)
(0.57432 -0.0012823 -0.000694354)
(0.199809 0.199521 -7.97652e-05)
(0.488852 -1.16709e-05 -0.0048292)
(0.192333 0.176354 -0.00614839)
(0.583959 0.00173974 -0.00201874)
(0.198884 -0.199026 5.84116e-06)
(0.588647 0.000740016 -0.00129073)
(0.200565 -0.200361 1.89758e-05)
(0.239381 0.210819 0.00666634)
(0.595215 0.0220162 -0.00206168)
(0.570203 -0.00485634 -0.00589094)
(0.580506 0.00238346 -1.45823e-05)
(0.583682 -0.00619527 -0.00403996)
(0.577723 0.00129439 -0.000580498)
(0.589858 -0.00347024 -0.000305637)
(0.197822 0.199279 -0.000902267)
(0.58035 0.00335142 0.00174417)
(0.573021 -0.00548961 -0.00556731)
(0.199989 0.200069 -9.80692e-05)
(0.488655 -0.00618709 -0.0195551)
(0.593417 -0.00529482 -0.00336874)
(0.569892 0.00260065 0.00223766)
(0.197328 0.194595 -0.00115403)
(0.246644 0.0442989 -0.0398505)
(0.557262 0.00143637 0.00181402)
(0.453127 -0.0020233 0.00487587)
(0.467637 0.108947 -0.00444766)
(0.255939 -0.133875 -0.0099098)
(0.587978 -0.00574071 -0.00103457)
(0.553425 0.00229132 0.00437773)
(0.56962 -0.00528762 -0.00575253)
(0.581783 -0.00309158 -0.00106472)
(0.571952 0.00314032 0.00139675)
(0.504191 0.0629936 -0.00174418)
(0.248775 0.21032 0.00184339)
(0.513601 -0.0223772 0.00572954)
(0.49944 -0.0463043 0.010375)
(0.19976 -0.199804 0.000144311)
(0.510916 0.00359376 -0.00149251)
(0.201318 0.19744 -0.00105071)
(0.235315 0.21335 0.00203138)
(0.578523 0.000691997 -0.000209072)
(0.508825 0.0831604 -0.00156989)
(0.613392 -0.0574195 -0.00793831)
(0.556045 -0.10409 0.000222518)
(0.235129 0.222475 -0.0152823)
(0.586932 -0.00355833 -0.000967908)
(0.579299 0.00321166 0.00262097)
(0.199577 0.199016 -2.11464e-05)
(0.259513 0.142227 -0.00544991)
(0.57876 0.00458119 0.00291055)
(0.200014 -0.199251 0.000169677)
(0.2 0.199892 -4.76861e-05)
(0.199239 0.19915 1.67982e-05)
(0.200454 0.199374 0.000218197)
(0.586344 -0.00571359 -0.00245594)
(0.200172 0.200144 0.000117589)
(0.200312 -0.200516 0.00101267)
(0.576113 -0.00358235 -0.00262263)
(0.532461 5.28143e-05 -0.00131764)
(0.290362 -0.255565 -0.013883)
(0.578923 0.00442765 0.00271785)
(0.23425 0.188255 0.0044746)
(0.581021 -0.00183272 -0.00108764)
(0.195642 -0.195352 -0.000636428)
(0.1996 0.20002 -7.12043e-05)
(0.585358 -0.00364223 -0.000832283)
(0.199872 0.198703 -0.000797619)
(0.20029 0.199776 9.03026e-05)
(0.22983 0.219376 0.00665101)
(0.552215 -0.000511452 -0.000360644)
(0.332776 0.277698 -0.0370586)
(0.576806 -0.00229866 -0.00100026)
(0.578199 0.000658096 -0.000205547)
(0.197851 -0.196611 -0.00155194)
(0.599012 -0.00103129 0.0192115)
(0.547265 -0.00315749 -0.0081026)
(0.575033 -2.56234e-05 -0.000513772)
(0.582287 0.0111588 0.00126136)
(0.583477 0.00426415 -0.0120744)
(0.501853 0.000245118 -0.00453976)
(0.199816 0.199503 9.01151e-05)
(0.586563 0.000604814 0.00176967)
(0.582221 0.00240514 -0.000399177)
(0.197849 -0.200443 0.000289645)
(0.540138 -0.000434885 -0.000279205)
(0.586302 0.00358473 -0.000983884)
(0.587495 0.00277325 -0.000995448)
(0.531092 -0.00244053 -0.00483453)
(0.58719 0.00265744 -0.00109584)
(0.587564 0.00326269 -0.000270415)
(0.199878 -0.197237 0.00130759)
(0.588886 -0.00103556 0.00260198)
(0.483834 -0.00362495 -0.00116883)
(0.241715 0.209126 0.0133279)
(0.587295 0.00215217 -0.00156503)
(0.55995 0.000911123 -0.00129474)
(0.323288 0.262326 -0.0402868)
(0.578564 0.000663903 -0.000195648)
(0.587494 0.00187715 -0.00185981)
(0.560242 0.00054846 -0.0021543)
(0.583362 0.00263725 -0.000338615)
(0.575511 0.0058633 0.00242868)
(0.579121 0.00070773 -0.00018635)
(0.195488 0.190842 0.00028482)
(0.5828 0.00309873 0.000249258)
(0.546082 -0.00345178 -0.00746832)
(0.223443 -0.137309 0.00510247)
(0.580157 0.00538949 0.00356343)
(0.572288 0.0051427 0.0052598)
(0.580507 0.00116409 -0.000149813)
(0.19936 0.198898 0.000183219)
(0.562674 0.0033246 -0.00530675)
(0.199859 -0.198719 0.000622562)
(0.200036 0.200029 -0.000201953)
(0.198786 0.197431 -0.000116681)
(0.200589 0.199339 4.6482e-05)
(0.487663 0.000256806 -0.00193661)
(0.238994 0.205875 0.00872384)
(0.449195 -0.0289597 0.0298873)
(0.198505 -0.198727 -5.55655e-05)
(0.199423 0.202054 -0.000407956)
(0.579804 0.00625906 0.00324507)
(0.584679 0.00126178 -0.00253772)
(0.19999 -0.199977 1.47773e-05)
(0.584175 -0.00378782 -0.000164662)
(0.200015 -0.199816 0.000662193)
(0.200254 -0.200102 -4.25426e-05)
(0.196516 -0.196624 0.000587578)
(0.592028 -0.00429219 -0.000463248)
(0.495652 0.00317812 -0.00121194)
(0.237878 0.212491 0.0035803)
(0.199643 -0.197802 0.000817304)
(0.199759 0.200451 -0.000298311)
(0.199561 0.199777 2.77503e-05)
(0.596407 0.001045 -0.00683687)
(0.57969 0.00073704 -0.000241625)
(0.238015 0.223658 0.0104777)
(0.590549 0.00179468 -0.00334956)
(0.549699 -0.00948487 -0.0227216)
(0.199669 0.199819 -7.20398e-05)
(0.589089 0.0012578 -0.00299543)
(0.538637 0.000254574 0.00289629)
(0.572095 0.00290331 -0.00353275)
(0.200627 0.200555 2.52539e-06)
(0.199339 0.199269 9.68787e-05)
(0.568862 0.00242356 0.00313522)
(0.581564 0.000951832 -0.000293611)
(0.237616 0.215123 0.00348961)
(0.199141 0.199062 6.37087e-05)
(0.201995 0.195466 -0.000578741)
(0.578633 -0.00126932 0.000513885)
(0.199896 -0.199858 -0.000281819)
(0.199022 -0.198294 0.000171692)
(0.198671 0.198631 -3.87843e-05)
(0.58867 0.00171623 -0.00270442)
(0.513555 -0.00269026 0.00041884)
(0.200528 0.200545 2.27481e-05)
(0.224179 0.0368382 0.0423921)
(0.249169 -0.032894 -0.00946658)
(0.568306 0.00295779 0.000185292)
(0.19971 0.199998 -7.95902e-05)
(0.200071 0.199727 -0.000169886)
(0.589736 -0.00688275 -0.000971532)
(0.56527 0.0103122 0.00949136)
(0.240872 0.214873 0.010979)
(0.352735 0.11106 0.00703335)
(0.555813 0.0104538 0.0171486)
(0.53342 0.00171259 -0.003581)
(0.568789 0.000268434 -0.000407179)
(0.206265 0.193453 -0.000424959)
(0.563874 0.00131533 -0.000367871)
(0.585703 -0.00387895 0.00415795)
(0.200372 0.199754 -0.000232755)
(0.19826 -0.194922 0.000300713)
(0.198557 0.198664 3.5486e-05)
(0.199254 0.199201 -5.08304e-05)
(0.200134 0.200525 -0.000279175)
(0.200578 0.200645 -2.54453e-05)
(0.590064 0.00196653 -0.00300113)
(0.200107 -0.200013 0.000106059)
(0.199003 0.199022 2.80309e-05)
(0.198917 0.196222 -0.000232395)
(0.59063 0.00189313 -0.00335084)
(0.581459 0.000855749 -0.000286025)
(0.200807 -0.198169 -5.05855e-05)
(0.197317 -0.19523 0.000442649)
(0.595092 -0.00282327 0.00529998)
(0.564368 -0.000110178 0.000485282)
(0.563394 0.000116696 0.000638123)
(0.199895 -0.199439 -9.3561e-05)
(0.198987 0.198957 0.000115997)
(0.563946 1.56064e-06 0.000543474)
(0.200306 -0.200129 2.03757e-05)
(0.559244 0.00145364 0.000212817)
(0.568261 0.000857669 0.00158454)
(0.57018 0.00136975 0.000747796)
(0.19997 -0.198505 0.000479976)
(0.200285 -0.200385 3.69368e-05)
(0.200202 -0.200379 -3.55544e-05)
(0.20024 0.200278 6.32239e-05)
(0.577856 -0.00291605 -0.00152014)
(0.199928 0.200136 6.88846e-05)
(0.198422 0.198646 6.43135e-05)
(0.576697 0.00198037 -0.00296515)
(0.200285 -0.200351 9.90759e-05)
(0.567603 0.000446622 0.000823744)
(0.513533 -0.00561813 0.00121456)
(0.200977 0.193865 0.0011063)
(0.580045 0.00094184 -0.000188709)
(0.26995 0.0383015 -0.00538739)
(0.573418 0.000408455 0.00046719)
(0.591242 -0.00143314 0.00129976)
(0.522966 0.0020428 0.00104355)
(0.592336 -3.18126e-05 0.00426139)
(0.429935 0.0113648 -0.0160601)
(0.239141 0.189995 0.00402214)
(0.572086 7.0888e-05 0.000489799)
(0.594962 0.00422189 -2.45228e-05)
(0.579152 -0.00098776 -0.000410592)
(0.20492 0.177538 -0.00621784)
(0.268183 0.017916 -0.00804214)
(0.309112 -0.0303618 0.0116846)
(0.57255 0.000369811 0.000101985)
(0.198831 0.199207 0.000246685)
(0.560546 -0.00104291 -0.00384099)
(0.572507 -0.000174235 -0.00102954)
(0.555599 -0.00472974 -0.00884581)
(0.214678 -0.156864 -0.0117375)
(0.20034 -0.20047 8.51211e-05)
(0.2 -0.200002 -4.92059e-06)
(0.58241 -0.00115546 0.000159503)
(0.234433 0.193626 -0.00251168)
(0.551895 0.00183047 0.00067028)
(0.217566 0.198072 0.00274385)
(0.550306 -0.00110646 -0.00402585)
(0.56826 -0.000966904 0.000232909)
(0.55947 -0.000516585 0.000774845)
(0.58145 0.00096756 -0.000378707)
(0.19902 0.199009 -5.04458e-05)
(0.198033 0.197416 -0.000447755)
(0.213144 -0.194663 0.000899829)
(0.579567 0.00118537 1.12365e-05)
(0.200389 0.199795 -1.78209e-05)
(0.231939 0.198628 -0.00904984)
(0.593812 0.0122564 -0.0102705)
(0.200118 0.199809 -0.000160044)
(0.198785 0.199721 0.00070173)
(0.198465 -0.197816 -0.000325729)
(0.200418 0.200475 4.96425e-05)
(0.553288 -0.000166268 0.00118391)
(0.203462 0.193114 0.000324558)
(0.200133 0.199973 8.52733e-05)
(0.464097 0.0617995 -0.0456476)
(0.235517 0.18959 -0.00229944)
(0.197836 0.19823 -0.00186981)
(0.284067 -0.171684 0.0114148)
(0.199861 0.199633 -0.000258938)
(0.455034 0.00225819 -0.00299789)
(0.567254 -0.000697413 0.000509827)
(0.19852 -0.198561 4.94124e-06)
(0.555753 0.00069226 -0.00175143)
(0.553613 0.0889174 -0.00800906)
(0.551546 -0.00528946 -0.0088658)
(0.606044 0.0231531 0.000236316)
(0.547947 0.000462659 -0.000454241)
(0.19991 0.198204 0.00083263)
(0.571853 -0.0053263 -0.00599622)
(0.592492 -0.00122849 0.00111893)
(0.551282 -0.0053617 -0.00885366)
(0.199999 -0.200214 1.10955e-05)
(0.598289 0.152871 0.0385731)
(0.551272 0.000799697 0.00093266)
(0.267552 0.213198 -0.0131656)
(0.547348 -7.38274e-05 0.000425038)
(0.598642 0.00709622 -0.00549079)
(0.572152 0.0116026 0.00040981)
(0.56737 -0.00144156 -0.00221949)
(0.566953 0.00177725 -8.07025e-06)
(0.603295 0.00880332 -0.00296802)
(0.581232 -0.000330121 -0.000659262)
(0.577076 -0.000116503 0.000284964)
(0.198235 0.198999 0.000710134)
(0.19896 0.197795 0.000612269)
(0.555895 0.00149308 0.000742828)
(0.5465 0.000890241 0.000599011)
(0.199533 0.20008 -1.66966e-06)
(0.564213 0.000556837 -7.08123e-05)
(0.590941 -0.00184126 0.00057459)
(0.577822 -0.000648424 0.000274636)
(0.199414 0.197291 -8.4205e-05)
(0.569902 0.0116117 0.00230498)
(0.199226 0.199082 -1.07724e-05)
(0.577451 -0.000131297 0.000221129)
(0.578429 -8.16995e-05 0.000148417)
(0.199898 0.199797 -3.00307e-05)
(0.5511 0.00272638 -0.00225011)
(0.576923 0.000178169 -0.000213577)
(0.56785 0.0105021 0.000555449)
(0.556652 0.000199564 0.00211242)
(0.204427 0.200448 -0.000329888)
(0.584625 -0.0017944 0.0017486)
(0.569691 0.0130692 -0.000107255)
(0.60235 -0.0159604 0.00346647)
(0.508055 0.00702184 0.0010646)
(0.452858 0.00143825 -0.00582662)
(0.199833 0.197661 -0.000274504)
(0.199466 0.1993 6.59465e-05)
(0.55989 0.00788696 0.00103208)
(0.200427 0.200427 -8.92352e-05)
(0.487567 -0.00133304 -0.00149955)
(0.562611 -0.00285267 -0.00409088)
(0.339815 0.0440847 -0.0134299)
(0.625542 -0.0423124 0.0167186)
(0.552594 -0.0249938 0.00784564)
(0.614297 -0.0235074 0.00580391)
(0.200348 0.200367 -5.74986e-05)
(0.273551 0.23236 0.00152863)
(0.582532 0.00136205 -0.000343934)
(0.199286 -0.200195 -0.000805113)
(0.114285 -0.0814917 0.0313265)
(0.574678 -0.0107447 -0.00810747)
(0.198567 0.198157 -0.000467847)
(0.200459 0.20021 2.35654e-05)
(0.517174 -0.00985019 -0.000137454)
(0.418405 -0.0298032 0.000998933)
(0.200472 0.200502 -3.11852e-05)
(0.517995 -0.0105219 0.00202502)
(0.198523 0.198274 6.43232e-06)
(0.20003 0.200393 -0.000333623)
(0.200059 -0.200037 -5.10248e-05)
(0.200137 -0.199662 0.000477115)
(0.195962 -0.194325 0.00060235)
(0.199488 -0.199077 -4.32258e-06)
(0.520483 0.00478463 -0.00172354)
(0.19757 0.196048 -0.000150256)
(0.199999 0.200131 8.11874e-05)
(0.198319 0.1995 0.000473329)
(0.484849 -0.108433 -0.0278914)
(0.548565 -0.00493379 -0.0107409)
(0.530866 -7.3916e-05 -0.00492472)
(0.582544 0.00130802 -0.000382767)
(0.198599 0.197391 5.55765e-05)
(0.201083 0.200335 2.02146e-05)