/*--------------------------------*- C++ -*----------------------------------*\
  =========                 |
  \\      /  F ield         | OpenFOAM: The Open Source CFD Toolbox
   \\    /   O peration     | Website:  https://openfoam.org
    \\  /    A nd           | Version:  10
     \\/     M anipulation  |
\*---------------------------------------------------------------------------*/
FoamFile
{
    format      ascii;
    class       volVectorField;
    location    "69";
    object      U;
}
// * * * * * * * * * * * * * * * * * * * * * * * * * * * * * * * * * * * * * //

dimensions      [0 1 -1 0 0 0 0];

internalField   nonuniform List<vector> 
59698
(
(0.584676 0.00599049 -0.00174241)
(0.564785 -0.00115151 -0.00086177)
(0.566518 -0.000687284 0.00170025)
(0.578758 -0.00343253 -0.00126764)
(0.562951 0.000766175 -0.00293382)
(0.197724 0.198053 -0.00634651)
(0.566923 0.000237232 0.000406407)
(0.564018 0.000854928 -0.000296519)
(0.199879 -0.199527 -0.000424571)
(0.201227 -0.200795 -1.89519e-05)
(0.200369 -0.198721 -0.000624269)
(0.567009 -0.000303952 -0.00040726)
(0.199806 0.200486 -0.000570816)
(0.561609 -0.000762084 -0.000194446)
(0.562021 0.00110311 -0.0025684)
(0.203951 -0.197117 0.00176733)
(0.564674 0.000134146 0.0002038)
(0.566068 -0.00125953 0.000386899)
(0.567634 -0.000511095 0.000300066)
(0.567342 -0.000376507 -8.06364e-05)
(0.142929 -0.0998579 -0.0248027)
(0.536145 -0.00146259 -0.00276628)
(0.264941 -0.17242 -0.00684027)
(0.198823 -0.199921 -0.00136797)
(0.570378 0.000695558 0.00101968)
(0.566222 -0.00115629 0.000433512)
(0.566467 -0.000344878 -0.000424903)
(0.557285 -0.000198392 -0.00121971)
(0.570312 0.00125901 0.000887488)
(0.572449 -0.000445736 0.000441369)
(0.548157 -0.000341953 -0.000409435)
(0.198551 -0.198587 -0.000175189)
(0.201152 -0.197953 0.00228488)
(0.559813 0.00126297 -0.00087855)
(0.549129 0.0114622 -0.00747392)
(0.566733 -0.000913459 -0.000384247)
(0.275134 0.0659844 -0.0384283)
(0.539437 0.000733038 0.000153187)
(0.561696 0.00013106 0.000560673)
(0.56815 0.00148509 -0.00274987)
(0.563922 0.000432654 -0.00011086)
(0.1949 0.197809 -0.00173715)
(0.562414 0.000593296 -0.000615433)
(0.563703 0.000444131 0.000106311)
(0.196729 0.199572 -0.000252536)
(0.560925 0.00368232 0.00514913)
(0.567059 -0.000863269 0.000371776)
(0.561583 -0.000323624 0.00148627)
(0.562937 0.000329576 0.000876691)
(0.565363 -0.000693761 0.000229393)
(0.567927 0.00015866 -0.000169156)
(0.566894 -0.00087094 0.000350009)
(0.566563 -8.52362e-05 -0.000781676)
(0.560447 -0.000165029 0.000453243)
(0.572385 0.00292917 0.00104672)
(0.567405 -0.000516956 -0.000142332)
(0.562755 -0.000986543 0.000602954)
(0.524709 -0.00188954 -0.000216205)
(0.564637 -0.00078493 -0.000385896)
(0.268079 0.121058 -0.0186295)
(0.559162 0.00460066 -0.00253124)
(0.564616 0.00135819 0.000527686)
(0.577827 0.014812 0.00653276)
(0.567578 -0.000559732 0.000379059)
(0.561851 0.000222557 0.000743297)
(0.561399 0.000193037 0.00205209)
(0.199519 -0.199946 -1.25834e-05)
(0.567123 -0.00056001 -0.000631633)
(0.566976 -0.000464895 -0.00063732)
(0.199516 -0.19921 -7.80601e-05)
(0.209316 0.182556 -0.00798608)
(0.565289 -0.000731213 1.89703e-05)
(0.166393 0.118397 -0.0342281)
(0.593203 -0.0118909 0.0202201)
(0.202915 0.203538 -0.000369203)
(0.590037 -0.0249258 0.0214504)
(0.561146 0.000255845 0.000991661)
(0.561042 0.000246538 -0.00163691)
(0.56686 0.000818964 -0.000636838)
(0.571456 0.00151111 0.000133318)
(0.552665 -0.00189261 -1.59192e-05)
(0.567921 0.000239578 -0.000122041)
(0.201247 -0.20076 -6.03723e-05)
(0.565105 -0.000731988 0.000601888)
(0.399752 -0.103783 0.0148198)
(0.562811 0.000190374 -9.42173e-05)
(0.563147 -0.00122682 0.00162324)
(0.557676 0.000482004 0.0071474)
(0.562004 0.00129396 0.000970265)
(0.560501 -0.000173272 0.0015918)
(0.199535 -0.199174 -0.00016282)
(0.560432 0.00089996 0.000574852)
(0.5606 -0.000355108 0.0016396)
(0.565875 -0.0003491 0.000403391)
(0.561538 0.0011678 0.000999562)
(0.563533 -0.00368563 0.00128748)
(0.558641 0.000631705 0.00124547)
(0.562342 0.000538943 0.000562407)
(0.559266 0.000589827 0.00124755)
(0.199678 0.200038 -3.3123e-06)
(0.556451 0.00147 0.000840861)
(0.567522 0.00511436 0.00636021)
(0.563047 8.70635e-07 0.000193514)
(0.563127 -0.00152954 -0.00445845)
(0.567143 -0.00056127 0.000847452)
(0.198839 0.198574 0.000130254)
(0.565439 -0.00100121 0.000609343)
(0.567257 -0.000354662 -0.000409661)
(0.200749 -0.200888 -6.92987e-05)
(0.199793 0.199688 -0.000369636)
(0.566324 -0.000765015 -0.000348347)
(0.570402 -0.0104492 -7.2018e-05)
(0.561756 0.00139278 0.00158168)
(0.200896 0.198779 -0.000337615)
(0.561059 -0.000133678 0.000251153)
(0.567443 -4.31786e-05 0.000154843)
(0.567175 0.00135426 -0.00137142)
(0.565193 0.00306591 0.000775767)
(0.56375 -0.000834649 0.00205327)
(0.200912 -0.20044 0.000443693)
(0.56565 -7.05402e-05 -2.52178e-05)
(0.55825 -0.00636415 -0.00377037)
(0.563155 -0.00497259 0.0057225)
(0.564552 -6.26945e-05 0.000116699)
(0.56403 0.000123421 0.000199369)
(0.566043 -0.000317255 -0.000137624)
(0.565937 -6.9014e-05 -0.000509419)
(0.199564 -0.199513 0.000484154)
(0.562048 -0.000612269 -0.000200066)
(0.56754 0.000318121 -0.001993)
(0.567327 0.000353391 0.000579052)
(0.567219 -0.000177765 -0.00107697)
(0.201402 -0.200546 -1.32041e-05)
(0.57931 0.00685806 0.000401584)
(0.572766 -0.000135644 0.000160366)
(0.568492 -0.000183864 -0.000180364)
(0.5698 0.00383404 -0.00108842)
(0.201042 -0.200686 0.000306203)
(0.567413 -0.0003534 -0.000270177)
(0.568537 -1.71097e-05 -0.000353796)
(0.565295 -0.000271644 0.000885649)
(0.56262 0.00317341 -0.00101238)
(0.566091 -0.00085363 -0.000465545)
(0.567399 -0.000330001 -0.00030701)
(0.566012 0.00220284 -0.000449961)
(0.567418 -0.00027304 2.17082e-05)
(0.563625 -0.00395106 0.000303093)
(0.566473 -0.00372103 -0.000532278)
(0.562334 0.000381897 0.00089915)
(0.552208 -0.000226938 7.77921e-05)
(0.408623 0.144123 0.0731521)
(0.200198 -0.199653 0.000118613)
(0.562154 -0.000110147 6.54364e-05)
(0.556582 -0.00217898 -0.00379721)
(0.563098 -0.000281609 -0.000191956)
(0.560674 0.000197581 -0.000464434)
(0.566471 -0.00105503 -0.000264379)
(0.558784 -0.000967032 0.00305277)
(0.563534 -0.000290993 -0.000345278)
(0.199707 0.199538 -0.000108411)
(0.564898 9.97428e-05 0.000170568)
(0.562823 -0.000372993 0.000238185)
(0.567885 -0.00060001 -0.000245616)
(0.554678 0.00186293 -0.00109647)
(0.562845 -0.000526339 -0.00020098)
(0.566818 -3.60794e-05 -0.000235454)
(0.56703 -0.000203378 -0.000691415)
(0.412412 0.0872014 0.00612654)
(0.554754 -0.000547711 -0.000391158)
(0.567033 -0.000133689 -0.000505205)
(0.559356 0.00181082 -0.00255861)
(0.210864 0.173709 0.000623156)
(0.553177 0.00142834 -0.00219052)
(0.5527 0.00132061 -0.00210198)
(0.578354 0.00135616 -0.00551758)
(0.5625 0.000270444 0.000357058)
(0.199574 -0.198905 0.000796636)
(0.538456 0.00495055 0.00302737)
(0.198955 -0.197826 -0.00579308)
(0.561981 0.000595762 -0.000495366)
(0.510501 -0.00191981 0.00520256)
(0.548386 -0.000541184 -0.000502978)
(0.562662 0.000386762 -0.000990045)
(0.5654 1.08165e-05 -0.000263266)
(0.564622 0.000580333 -0.000841251)
(0.543596 -0.000273471 -0.000245907)
(0.543488 7.08885e-05 -0.000870948)
(0.559556 0.0037345 0.00123166)
(0.566673 -5.15339e-05 0.00016232)
(0.563907 0.00153044 0.000731841)
(0.561584 0.000225457 0.000720178)
(0.562579 -0.000322059 0.000623381)
(0.562854 0.000566507 0.000521875)
(0.561896 -0.000355718 -0.000481877)
(0.554555 0.000266895 -0.000425956)
(0.557247 0.00328682 0.000815744)
(0.576532 0.0059744 -0.0139509)
(0.575737 0.00371655 -0.00216736)
(0.152187 -0.144125 -0.0195245)
(0.554202 -0.000541678 0.000110234)
(0.203029 0.205887 0.00271565)
(0.546021 0.000550263 0.000850701)
(0.573203 0.000343125 0.000287887)
(0.5666 -0.000373896 -0.00048748)
(0.552833 0.000944136 0.00115239)
(0.56679 0.000153711 0.000156286)
(0.563908 0.000379275 -0.000746593)
(0.557129 -0.0020914 0.00126056)
(0.554556 0.0114991 0.00047032)
(0.562296 0.000300811 -0.000176408)
(0.566007 0.000189042 0.000206998)
(0.564891 0.000213671 0.000470848)
(0.554726 0.000447143 0.0022264)
(0.199003 -0.197044 -0.00110267)
(0.565302 -0.000273221 -0.000191716)
(0.560063 0.000617711 -0.000142286)
(0.56618 -0.000784469 4.99802e-05)
(0.56098 -0.000619435 -0.00185468)
(0.561523 -0.000677091 -0.000159759)
(0.56493 0.000507202 -0.000595481)
(0.581967 0.024713 0.0227349)
(0.56383 -0.000264309 0.000351046)
(0.565027 4.30904e-05 0.000106217)
(0.557001 0.000926016 0.00286244)
(0.565101 -0.00039834 -0.000236323)
(0.553686 0.00259776 0.00293257)
(0.564361 5.12662e-05 -7.15929e-05)
(0.566051 0.000584567 -0.000493672)
(0.577975 0.00283333 -0.000873005)
(0.593285 0.0124161 0.00992762)
(0.199027 0.198602 -0.000393577)
(0.563336 1.13113e-05 0.000455244)
(0.565715 0.000394275 9.4929e-05)
(0.564461 0.00012411 -0.000359182)
(0.563563 -0.000541385 0.000474249)
(0.567917 -0.000501489 -2.06303e-05)
(0.565011 0.00160812 0.00152828)
(0.564064 0.000333463 0.000182801)
(0.558516 0.00137622 0.00348422)
(0.562145 -0.000907248 0.000491081)
(0.564871 -0.000210886 -8.16042e-05)
(0.563764 -0.00122474 -0.000497625)
(0.570459 8.14459e-05 -5.15974e-05)
(0.197427 -0.19788 0.00334431)
(0.566669 -0.000291972 -5.83512e-05)
(0.564054 0.000205866 0.00390347)
(0.582407 0.00513756 0.0162544)
(0.591419 -0.00762927 0.01308)
(0.56626 2.96996e-05 0.000155899)
(0.567013 -0.000822087 0.000426899)
(0.561339 0.00107544 0.00401551)
(0.562561 -0.000457357 0.000445718)
(0.563369 0.00100552 0.00088068)
(0.198217 -0.193517 0.00311984)
(0.566483 -0.00138928 -9.74579e-05)
(0.563344 0.000354523 0.000419086)
(0.560511 0.00210583 0.000594457)
(0.561263 -0.000650953 0.000610068)
(0.566126 -0.000479095 -0.000122115)
(0.565004 -0.000163943 -3.44782e-05)
(0.197236 -0.108468 -0.000906379)
(0.200404 0.200043 0.000140208)
(0.563533 -0.000939103 0.000583274)
(0.559875 0.00058408 -0.00116813)
(0.558099 -0.00145018 0.00230608)
(0.586951 0.00753812 0.00243675)
(0.565414 4.16857e-05 -4.92914e-05)
(0.196925 -0.198416 -0.00162255)
(0.565463 -0.00117616 0.000420035)
(0.564887 -0.000182135 -0.000151192)
(0.566643 -0.000980004 -9.28081e-05)
(0.563106 -0.00122943 -0.000699683)
(0.545917 -0.118387 0.0771963)
(0.56476 -0.000126093 -0.000240794)
(0.565005 -0.00026491 6.45347e-05)
(0.557602 0.000378063 0.00141006)
(0.564908 -0.00164664 -0.00373765)
(0.564273 -0.000617795 0.00149851)
(0.570066 0.000250224 0.000195733)
(0.20081 -0.200143 0.000132474)
(0.195991 -0.195353 0.00168453)
(0.567554 6.96036e-06 -2.88403e-05)
(0.567034 -0.000895568 0.000492537)
(0.581562 0.00204888 0.00127439)
(0.587044 0.00649627 0.000883799)
(0.577938 -0.0012107 0.00144663)
(0.566055 -0.00028946 -0.000689557)
(0.299196 -0.213213 -0.0187785)
(0.574315 0.00139356 0.000532704)
(0.563412 0.00230012 0.00300464)
(0.586038 0.0174353 0.000954773)
(0.5675 0.0003519 0.000315295)
(0.565281 -0.000875127 0.000552229)
(0.567005 -0.00100474 0.000162139)
(0.569801 -0.00107502 0.00082336)
(0.560522 -0.00148834 0.00071065)
(0.568325 -0.000255059 -0.000628456)
(0.568047 0.00157083 -0.000585968)
(0.565025 -3.26902e-06 -0.000138582)
(0.562977 0.00119315 0.00367013)
(0.566216 0.00163861 -6.31123e-05)
(0.198734 0.198914 -9.51591e-05)
(0.195968 0.197806 0.0014991)
(0.567154 -0.00016587 -0.000403814)
(0.567241 -0.000475843 -0.000161531)
(0.567044 -0.000209589 -0.000280585)
(0.569068 0.000279525 -0.00145282)
(0.560491 -0.00111783 -0.000320143)
(0.562305 -0.000376866 0.000257766)
(0.567292 -0.00012829 -0.000250934)
(0.565305 7.26375e-05 0.000152687)
(0.563432 -0.00200198 0.000543784)
(0.566079 0.000327751 0.000126208)
(0.200736 0.200934 0.00131601)
(0.561464 -0.00328221 0.00169615)
(0.566939 0.000693002 -0.0001009)
(0.202035 0.202597 -0.000457516)
(0.566735 -0.000209106 0.000183488)
(0.195215 0.197029 -0.0020742)
(0.565267 0.00249287 -0.00204027)
(0.562536 0.0030356 -0.00304702)
(0.594322 -0.0100682 0.0187117)
(0.564555 -0.000557182 8.47647e-05)
(0.199743 -0.199401 0.000624436)
(0.601035 -0.0126517 0.0172731)
(0.555764 -0.000182524 0.00064418)
(0.564239 -7.44732e-06 -0.000328248)
(0.566686 -0.000328754 0.000455944)
(0.567181 0.000553751 -0.000201194)
(0.199172 0.199228 -0.00018643)
(0.548404 -0.000121971 -0.00208823)
(0.564058 -0.0009346 0.000322719)
(0.558969 0.000253348 -0.000701242)
(0.582491 -0.0107491 0.0167354)
(0.199616 -0.199995 -0.000182312)
(0.567465 0.000534514 0.000618407)
(0.562774 -0.000629285 0.000172831)
(0.566407 -6.50877e-05 0.000227038)
(0.557075 -0.00123771 -0.00044216)
(0.567955 0.000264075 -0.000135453)
(0.563848 0.00124862 0.000965695)
(0.566788 0.0025895 -0.001695)
(0.564945 -0.000399375 0.000208733)
(0.565438 7.05429e-05 3.2028e-05)
(0.557805 0.000822726 -0.00119354)
(0.564927 -0.000175756 -0.00012603)
(0.564364 0.000208665 -6.70756e-05)
(0.540978 0.00127144 -0.00108654)
(0.562786 5.04843e-05 -0.000219061)
(0.562775 0.000130325 0.000276998)
(0.567643 0.000152686 0.000116642)
(0.561864 -0.00100448 0.000737694)
(0.569713 -0.0032083 -0.000944105)
(0.199482 -0.199203 -0.000146001)
(0.590011 0.00244447 0.00603939)
(0.546859 0.000618988 -0.000814435)
(0.554121 0.00270165 -0.00705623)
(0.564789 -0.000162272 0.000110654)
(0.562224 0.000384643 0.000735475)
(0.199411 -0.199034 2.98732e-05)
(0.56651 0.00106375 -0.000579765)
(0.559153 -0.000282839 0.000652611)
(0.203242 -0.194654 0.000342306)
(0.565663 -5.73535e-05 0.00027597)
(0.19999 0.200041 -4.85982e-05)
(0.196477 0.201286 0.000519251)
(0.56324 -5.86769e-05 9.14153e-05)
(0.564629 -0.000682676 0.001186)
(0.564542 -0.000408004 0.000183359)
(0.490886 -0.00574272 0.00272139)
(0.567833 0.00024274 0.00029307)
(0.19799 0.198556 0.000297438)
(0.566113 0.000193508 -0.000319189)
(0.19731 0.199025 0.00130101)
(0.562917 0.00010586 -0.00055337)
(0.200085 -0.200255 -1.26371e-05)
(0.564368 -0.000394565 0.0003843)
(0.565345 0.000225575 2.30149e-05)
(0.198896 0.198358 -1.16483e-05)
(0.199021 -0.199213 0.00012978)
(0.201361 0.198084 -0.00338413)
(0.56306 -7.7557e-05 -0.000267706)
(0.565884 0.00134138 0.000400402)
(0.560206 0.000769985 -0.000373532)
(0.566713 -0.000264599 5.50267e-06)
(0.277741 0.142024 -0.00529577)
(0.563271 -0.000401347 0.000956046)
(0.199301 0.199501 2.97786e-05)
(0.199593 0.200014 -6.00813e-05)
(0.564976 0.00258218 0.000936715)
(0.560059 -0.000462408 4.76513e-05)
(0.199362 -0.196652 0.000737233)
(0.563766 0.000312288 0.00116971)
(0.574331 0.000249 -4.74944e-06)
(0.3797 -0.147355 0.0155843)
(0.52682 -0.00158714 -0.000301017)
(0.551445 0.0161413 -0.0117945)
(0.562556 0.00272427 0.00161131)
(0.561085 -0.000268503 -0.00249468)
(0.563483 -0.00168483 0.00130314)
(0.562498 0.00048288 -0.000506846)
(0.563741 0.000122637 -0.000173381)
(0.565001 -2.14696e-05 -0.000430613)
(0.564701 -0.000549939 -0.000503832)
(0.553119 -0.00291244 -0.000643717)
(0.560737 0.00442808 0.000770782)
(0.57594 0.00422424 -0.002848)
(0.581588 0.00303978 -0.000786276)
(0.56438 0.000353918 -0.00135828)
(0.530758 0.000401698 -0.00300472)
(0.571582 0.00238789 -0.00163158)
(0.198921 -0.199129 1.64125e-06)
(0.560191 0.000616476 -0.00129592)
(0.199601 -0.199554 0.000197138)
(0.561369 -4.53191e-05 0.000210249)
(0.584026 0.00155578 0.00228195)
(0.567168 1.70284e-05 -0.000121965)
(0.567369 -0.0275405 0.0126828)
(0.532888 -0.0024397 0.000898678)
(0.535251 9.48798e-05 -0.00649755)
(0.561614 -0.000526546 0.000236328)
(0.563033 -0.000243927 0.000694795)
(0.563951 0.00124018 0.00237046)
(0.587774 0.0134224 0.0121337)
(0.563706 -3.49534e-05 7.9479e-05)
(0.563967 -0.000242472 0.000178235)
(0.199998 -0.199859 0.000343053)
(0.561629 -5.85303e-05 -0.000224332)
(0.558024 -0.00162724 2.05806e-05)
(0.199433 0.199201 -3.9408e-05)
(0.564299 -0.00146884 0.000766835)
(0.575347 0.0178024 0.0085131)
(0.572405 -0.004725 0.00676657)
(0.565001 7.96423e-05 -0.00135417)
(0.56131 -0.000276183 0.00151748)
(0.200476 -0.20041 -0.000917482)
(0.20531 -0.202249 0.000306886)
(0.574401 0.00492041 -0.000654236)
(0.565974 -0.000365717 -0.000494193)
(0.563243 -0.0010446 -0.00402217)
(0.202961 0.200382 -0.00178364)
(0.565224 -0.000610817 -0.000411933)
(0.200612 -0.199902 0.00029904)
(0.562051 -0.00042908 -0.000183463)
(0.563663 -0.000813261 -0.00100905)
(0.516663 -0.00743447 -0.00334864)
(0.580701 -0.00170839 0.00291965)
(0.200021 0.19974 -4.20527e-05)
(0.565385 -0.00104837 0.000624973)
(0.554057 -0.000115887 0.00031908)
(0.562406 -9.62814e-05 -0.00191083)
(0.566114 -0.000701716 -0.000173456)
(0.563948 0.00101888 -0.000949554)
(0.565137 -0.00123887 -0.000130371)
(0.56265 0.00166318 9.62011e-05)
(0.562262 0.000231364 2.76391e-06)
(0.580692 0.0013546 0.00229748)
(0.199644 -0.199555 0.000249934)
(0.547037 0.000404242 -0.000328412)
(0.561538 -0.000220324 0.00109049)
(0.57766 -0.00119293 0.00146036)
(0.564684 -0.000135685 -5.84162e-05)
(0.555184 -0.00150705 0.00156879)
(0.576995 0.000110897 0.00059805)
(0.200504 -0.199439 -0.000188885)
(0.560186 0.00514338 0.00195818)
(0.559699 0.00734061 0.0068777)
(0.567503 -0.000215037 -0.000144739)
(0.56383 0.000644805 -0.000619466)
(0.56574 0.000156865 8.21607e-06)
(0.560565 -0.00508571 -5.13991e-05)
(0.198388 0.198585 -0.000311646)
(0.199865 0.199792 2.33619e-06)
(0.198965 0.1998 2.5402e-05)
(0.563761 0.0021509 0.0028581)
(0.554092 -0.0031151 -0.00800281)
(0.504321 -0.00181571 0.000795305)
(0.57712 0.00100026 0.000564685)
(0.566687 -0.00296377 0.000958655)
(0.562932 -0.000510236 0.00067673)
(0.563138 0.00069851 -6.83971e-05)
(0.560049 0.000140457 0.000575666)
(0.563478 -0.000145726 0.000179761)
(0.202954 0.198921 -0.000334149)
(0.555867 -0.00675174 2.26668e-05)
(0.562456 -0.000569645 -0.000100158)
(0.560009 0.000884339 0.00130165)
(0.562515 -0.000575288 0.000595099)
(0.571978 0.000471402 0.000491181)
(0.567419 0.000770906 9.62731e-05)
(0.560649 0.000674881 -0.000770202)
(0.590285 -0.00139424 0.00687088)
(0.574146 0.000894989 0.000256045)
(0.559866 -0.000554552 -0.00130197)
(0.571353 0.000351748 -0.000109816)
(0.559648 0.000799819 0.00146238)
(0.562077 -1.2844e-05 -0.000154998)
(0.556089 0.00348686 0.0026681)
(0.566556 -0.000212485 -0.000462887)
(0.197299 0.196543 0.000418743)
(0.198805 0.19875 -9.19217e-05)
(0.573655 -0.00182088 0.000787639)
(0.557072 0.000341471 0.000298539)
(0.566084 7.34949e-05 0.000487618)
(0.199187 0.200506 0.000238344)
(0.20001 -0.199959 -0.000255105)
(0.562748 -0.000773467 -0.000139034)
(0.200485 -0.200706 -1.0594e-05)
(0.564086 0.000274284 -3.55957e-06)
(0.567274 -1.35774e-05 -1.79328e-05)
(0.565727 -0.000248809 0.000111993)
(0.570645 0.000201969 0.000265995)
(0.561029 -0.00426333 -0.00126145)
(0.197936 0.200093 0.00148551)
(0.568057 -0.00071477 5.43571e-05)
(0.564783 -0.000202305 -6.63825e-06)
(0.198152 0.19836 0.000185555)
(0.563498 0.000304264 0.000466798)
(0.198281 0.200198 0.000328722)
(0.197312 0.196193 9.46444e-05)
(0.566809 0.000233337 -0.000498308)
(0.567472 0.000660713 -0.000131393)
(0.564251 -6.65541e-05 4.77592e-05)
(0.19917 0.198911 -0.000637356)
(0.199052 0.199096 0.000121174)
(0.486579 -0.000415622 -0.000818473)
(0.565746 -0.000496526 0.000991212)
(0.566211 0.000112332 -0.000247176)
(0.567094 -0.000411186 -0.00037011)
(0.564111 0.000504018 -0.000735945)
(0.565968 0.000244392 -0.000458674)
(0.564248 0.0214678 -0.0145996)
(0.199761 -0.200313 -0.000235385)
(0.564149 -0.000510614 1.92663e-05)
(0.560831 2.15404e-05 0.000178165)
(0.199429 0.199453 -4.00729e-05)
(0.200328 0.19868 -0.00027165)
(0.557025 -0.000216556 0.000150461)
(0.563698 -0.000375647 5.48844e-05)
(0.198435 -0.198835 0.000601747)
(0.566655 -0.000297299 -8.12186e-05)
(0.564931 0.000196349 -0.000184322)
(0.564931 -3.62674e-05 -0.00108251)
(0.590625 0.0430885 -0.0159504)
(0.563177 0.000475623 8.16785e-05)
(0.568914 -0.000438861 -2.19991e-05)
(0.559089 0.024358 -0.00291839)
(0.637537 0.129775 -0.0577192)
(0.566482 1.25257e-05 0.000115413)
(0.255659 0.159988 -0.00756977)
(0.561678 0.000570254 -0.000147284)
(0.200367 -0.199997 -6.23742e-06)
(0.558108 9.69566e-05 0.000961965)
(0.199712 -0.19953 0.000629234)
(0.565531 0.00014982 -0.000477414)
(0.56366 0.000440256 -0.000420148)
(0.199497 0.200295 -0.00023455)
(0.560791 0.000599134 0.00071828)
(0.565818 -0.000615839 -0.000279015)
(0.568216 -0.000300991 -0.000267646)
(0.199421 0.199113 4.55629e-05)
(0.198756 -0.199015 -0.000229712)
(0.561697 -0.000550568 0.000768334)
(0.163203 0.115934 0.0440673)
(0.567013 -0.00122489 -0.000655694)
(0.20042 -0.199736 0.000193502)
(0.582352 -0.00103728 0.0072562)
(0.561717 0.000464364 -0.000121909)
(0.567169 9.13992e-05 -0.000291338)
(0.200404 -0.198004 -0.00141031)
(0.568141 -0.0002994 -0.00017242)
(0.565509 -0.000987977 0.00059996)
(0.207236 0.195968 -0.00111309)
(0.568368 0.000181004 -0.00072384)
(0.56634 0.000266153 -0.00121279)
(0.567655 0.000313052 6.99433e-05)
(0.566567 -0.000304017 -9.68515e-05)
(0.568049 -6.38716e-05 -0.000196012)
(0.566135 -0.000431391 -0.000482691)
(0.200167 -0.200661 -0.000273345)
(0.192469 0.193548 0.000609853)
(0.560476 0.000417812 0.00098161)
(0.565487 0.000833535 0.00220912)
(0.564718 -6.18221e-05 -0.000361604)
(0.568096 0.000101125 -0.000358063)
(0.199525 0.199453 2.10906e-05)
(0.566062 -0.000205474 -3.94042e-05)
(0.565361 0.000123783 -0.00101319)
(0.57098 -0.000291917 0.000408841)
(0.566701 0.000209485 -0.000270497)
(0.568432 -4.93899e-05 -0.000363695)
(0.560415 0.000818459 0.000756989)
(0.565349 0.000521847 -0.00111563)
(0.565024 0.000517032 -0.000812338)
(0.198826 0.198663 -0.000342)
(0.558655 0.000467286 -0.000112912)
(0.227804 -0.191962 -0.00759423)
(0.553844 -0.00346791 0.000527558)
(0.196659 0.191302 -0.00190575)
(0.1983 0.198713 -5.15304e-05)
(0.565702 -2.71586e-05 0.000148939)
(0.564832 1.19724e-05 0.000231206)
(0.199241 0.198892 -3.83949e-05)
(0.555876 -0.000469075 0.000470895)
(0.565509 -0.000626632 4.36656e-05)
(0.566357 -0.000484606 -0.000126499)
(0.566301 2.17931e-05 -0.000542122)
(0.199203 0.198402 0.000740834)
(0.564957 0.000278697 6.90862e-05)
(0.559976 -3.95799e-05 0.000667347)
(0.560543 5.58097e-05 0.000581605)
(0.567151 0.000212757 -0.000308144)
(0.562436 3.29347e-05 0.000389915)
(0.567027 -0.0001034 -0.000372872)
(0.565624 6.77754e-06 -0.000119356)
(0.565845 0.000166993 -0.000114479)
(0.562373 -7.99597e-05 0.000275257)
(0.573735 -0.000818134 0.000493302)
(0.157231 0.0629982 -0.0718858)
(0.562821 -3.12196e-05 0.00036977)
(0.198255 0.198718 0.000269353)
(0.565511 0.000175046 0.000908497)
(0.566688 -0.000176976 -0.00069078)
(0.562902 0.00236738 -0.000378911)
(0.558047 -0.00216486 0.00389321)
(0.56443 -0.00100849 0.00208952)
(0.568196 0.000411181 6.54023e-05)
(0.567417 -9.74958e-05 -0.00081045)
(0.566902 -0.000263506 -0.000271339)
(0.567044 -0.000811624 -0.000896162)
(0.561137 -0.00110306 0.000858723)
(0.197996 0.199516 -0.00288265)
(0.566708 -0.000238452 0.000234104)
(0.565993 0.000338096 0.000330075)
(0.567886 -0.000306483 9.35406e-05)
(0.566019 -9.98347e-05 -0.000394792)
(0.566384 -0.000736841 -0.000626541)
(0.562658 -7.79394e-05 0.000383441)
(0.556431 0.00647443 -0.00109405)
(0.572294 0.000805218 0.000654272)
(0.558227 0.00181623 -0.000926864)
(0.562509 0.000322442 -0.000890434)
(0.199321 0.199327 8.27568e-05)
(0.20051 -0.199732 -3.89278e-06)
(0.566792 0.000170066 0.000190249)
(0.567762 0.000430767 0.000320638)
(0.5626 -0.000526731 0.000430804)
(0.558776 0.000715643 -0.00210478)
(0.561468 -0.000865893 6.0747e-05)
(0.198845 0.199068 -0.000325116)
(0.199095 0.199301 -0.000156931)
(0.566904 -0.000824068 -0.00089512)
(0.564127 -0.000437174 0.000146832)
(0.565602 -0.000281464 -0.000328497)
(0.565729 -1.80602e-05 -0.000197276)
(0.565001 -0.000128771 -0.000730283)
(0.566435 -0.000371678 -0.000196307)
(0.220676 -0.153195 -0.0146423)
(0.568009 0.000182647 -2.96338e-05)
(0.561833 -0.00114532 0.000862106)
(0.559905 0.000517987 -0.000840435)
(0.556672 3.38464e-05 -0.00177837)
(0.56821 -0.000147049 -0.000107007)
(0.541676 0.00369539 -0.0127468)
(0.556903 0.0158877 -0.0107224)
(0.568003 0.000107824 3.41807e-05)
(0.562175 -0.000832753 0.000828672)
(0.560598 -0.000279045 0.000383867)
(0.563116 -0.000623257 0.00063582)
(0.573253 0.000278074 -0.00102682)
(0.19932 0.199351 3.01108e-06)
(0.55651 0.00231715 -0.00215949)
(0.56725 -5.52222e-05 -5.67519e-06)
(0.55059 -0.00211609 -0.00584853)
(0.566146 0.000118422 -0.000588599)
(0.566918 8.05021e-05 -0.000595171)
(0.19973 0.197602 -0.000812299)
(0.563209 -0.000959762 0.00411206)
(0.57333 -0.000448163 0.000107005)
(0.567119 -1.09112e-05 -0.000599367)
(0.56114 0.000314854 0.000993211)
(0.553644 -0.000173925 -0.00167487)
(0.199309 0.20511 -0.00187077)
(0.19782 0.195524 -0.00103415)
(0.566087 0.000348189 0.00018426)
(0.566564 -0.000220714 -0.000160831)
(0.566539 -0.000106239 4.02186e-05)
(0.567784 -5.83931e-05 3.57087e-05)
(0.566359 0.00015179 2.25538e-06)
(0.565484 0.000564843 0.000443689)
(0.562494 -0.000642672 0.000807808)
(0.566453 0.00155511 -0.00272475)
(0.565639 -0.000229643 -0.000852466)
(0.56617 0.000868084 -0.000281735)
(0.564123 -0.00127555 0.00227466)
(0.561233 0.00117578 -0.000710545)
(0.562847 -0.000651064 0.000146796)
(0.566442 0.000200477 -0.000405156)
(0.198622 0.198608 0.000100043)
(0.56693 4.80813e-05 -0.000302247)
(0.200428 0.200576 -0.000123913)
(0.199606 0.199181 -1.91197e-05)
(0.565825 0.000951415 -0.0004616)
(0.562747 8.58664e-05 0.000181338)
(0.56694 -0.000831173 0.000528898)
(0.200415 -0.200246 -3.66864e-05)
(0.564492 -1.41989e-05 0.000432338)
(0.560785 0.00106841 -0.0017191)
(0.567618 0.000527371 -0.00108976)
(0.199547 0.199645 9.23568e-05)
(0.565098 -0.000311207 -0.000180333)
(0.197084 0.198847 -0.000606417)
(0.563427 -0.000305925 0.0033616)
(0.198064 0.196977 -0.000126449)
(0.561778 -0.000283719 0.00101313)
(0.558426 -0.000240727 0.00106769)
(0.563687 -0.000146553 2.67491e-05)
(0.565584 0.000778006 -2.99893e-05)
(0.200337 -0.200254 0.000102487)
(0.198373 0.198348 -0.000168399)
(0.566862 0.00269276 -0.00303197)
(0.555295 -0.00024533 0.00187119)
(0.567468 8.20095e-05 -0.000859285)
(0.566229 7.38701e-05 -0.000355189)
(0.565177 3.37012e-05 -0.000754062)
(0.563996 0.00117888 -0.00035251)
(0.574608 0.00323283 -0.0012822)
(0.199763 0.199926 -0.000267366)
(0.582023 0.0071302 -0.000895676)
(0.565136 -0.000516315 -0.000742699)
(0.541689 0.0635428 -0.0392817)
(0.198089 0.196662 0.000529788)
(0.567623 0.00126498 -0.00161376)
(0.546566 0.000438563 0.00145186)
(0.19941 0.19782 0.00170451)
(0.58161 0.00231835 0.00104694)
(0.567737 -0.000244463 -0.000525966)
(0.199677 -0.199563 -6.94919e-05)
(0.558473 3.77772e-06 0.00128432)
(0.596148 0.0083715 0.00152633)
(0.566721 -0.000489691 -0.000167442)
(0.561978 -0.00146241 0.00245512)
(0.576311 0.0051278 0.0274653)
(0.560329 0.000780746 -0.000523696)
(0.563963 -0.000140308 -0.000398141)
(0.560375 0.000104676 -0.00196635)
(0.539727 -0.000119159 -5.0049e-05)
(0.566909 -0.0229887 0.0259685)
(0.564232 0.000323435 0.000798015)
(0.555489 -0.00111056 -0.000206206)
(0.566448 1.1863e-05 -0.000164563)
(0.575442 -0.0014583 0.0009915)
(0.567318 -3.50785e-05 7.71982e-05)
(0.567606 0.00216184 -0.00157616)
(0.199415 0.199487 1.84049e-05)
(0.566556 0.000722336 -0.000274918)
(0.5807 0.000441152 0.00147251)
(0.591045 0.00555086 0.00862417)
(0.19974 -0.199759 -7.56406e-05)
(0.562164 -0.00107889 0.00108752)
(0.569028 0.000430213 -0.000191568)
(0.197202 0.195144 0.000401328)
(0.55799 0.000405961 -7.38188e-05)
(0.562281 0.000165975 -0.00047865)
(0.566145 0.000403779 -0.000612568)
(0.568925 0.000382607 8.36892e-05)
(0.562048 -0.00054683 -0.000353873)
(0.565471 -0.000237008 0.000198775)
(0.198909 0.199227 -0.000230254)
(0.562286 -0.000270442 -0.00176054)
(0.57069 7.5287e-05 -0.000295866)
(0.198981 0.198968 0.00023671)
(0.200023 0.199453 -0.000105879)
(0.565785 0.000425419 0.00031577)
(0.199432 0.199794 -0.000112766)
(0.56445 -0.000187743 0.000394963)
(0.56018 -0.00405195 -0.000334841)
(0.566238 0.000268557 -0.000310561)
(0.56237 -0.000597936 -0.0022884)
(0.562334 7.49517e-06 -0.0018195)
(0.283828 -0.0194464 0.0420692)
(0.199424 0.19967 0.000192967)
(0.571499 0.000344398 -1.52696e-05)
(0.566141 5.08525e-05 0.000155332)
(0.562958 0.000581868 -0.000466683)
(0.560643 0.00273073 -0.00192272)
(0.563188 -0.000138323 -0.000781627)
(0.19914 0.199303 -0.000233255)
(0.544451 -2.25667e-05 -0.000764603)
(0.560717 -0.000192042 -0.000907641)
(0.555993 0.00165632 0.0041791)
(0.567078 -0.000233633 0.00111195)
(0.56379 -0.00105788 -0.000330411)
(0.555972 0.0179918 -0.0210498)
(0.566546 -0.00164655 5.42704e-05)
(0.55115 0.00578406 -0.0110172)
(0.198629 0.195303 -0.00118326)
(0.199641 0.199576 0.000183991)
(0.199107 0.199128 -8.82547e-05)
(0.566949 0.000300316 -0.00011007)
(0.565949 -0.000497575 -0.000507527)
(0.199126 0.198568 -0.000102009)
(0.564229 -0.000117549 0.000817583)
(0.557593 0.00377371 0.00296172)
(0.55716 -0.000754079 -0.000606447)
(0.501163 0.0707135 -0.040564)
(0.55934 -0.000791164 -0.000489037)
(0.565779 0.000201394 0.000124769)
(0.19985 0.204304 0.000342645)
(0.556943 0.0130829 -0.0207729)
(0.199902 0.19984 0.000161632)
(0.19892 0.198381 0.000351231)
(0.566184 -0.000224738 -2.63995e-05)
(0.318044 0.243323 0.0367504)
(0.289834 -0.117958 -0.00416181)
(0.562679 -0.00132056 -0.000145966)
(0.194327 -0.197746 0.000260226)
(0.566256 0.000126677 -7.09562e-05)
(0.560774 -0.00246756 -0.00512531)
(0.570015 0.0192752 -0.013794)
(0.565768 -0.000193879 0.000360674)
(0.575613 0.0109992 -0.00372676)
(0.563832 0.000351192 0.000188592)
(0.570599 -0.0364535 -0.0105897)
(0.199022 0.198986 5.08838e-05)
(0.198884 0.198034 0.000211292)
(0.564641 -0.00098373 -4.87e-05)
(0.563573 -0.000707581 0.00107773)
(0.566998 -0.00041511 0.000181903)
(0.195871 0.198987 -0.00154609)
(0.560198 0.00113757 4.53469e-06)
(0.565587 -0.000415215 0.000102682)
(0.56589 -6.81152e-05 -0.000265005)
(0.199254 0.199481 0.000836762)
(0.565648 0.000221861 -0.00059229)
(0.565823 -0.000242942 -0.000263278)
(0.510906 0.0571318 0.0378454)
(0.199119 0.199149 -0.000147667)
(0.645241 0.17288 -0.0063713)
(0.522263 0.0736616 -0.0534836)
(0.2002 -0.199484 4.36289e-05)
(0.199816 0.199087 0.000340932)
(0.198923 0.19853 5.48659e-05)
(0.200488 0.199849 0.000422592)
(0.199973 0.199685 -0.000782663)
(0.56585 0.00058221 -0.000108298)
(0.56638 -0.000146821 0.000213521)
(0.564949 0.000509488 0.000160853)
(0.199452 0.198443 0.000167266)
(0.56503 -0.000327232 -0.000142134)
(0.567497 3.23654e-05 0.000423048)
(0.199646 0.19894 0.000264498)