/*--------------------------------*- C++ -*----------------------------------*\
  =========                 |
  \\      /  F ield         | OpenFOAM: The Open Source CFD Toolbox
   \\    /   O peration     | Website:  https://openfoam.org
    \\  /    A nd           | Version:  10
     \\/     M anipulation  |
\*---------------------------------------------------------------------------*/
FoamFile
{
    format      ascii;
    class       surfaceScalarField;
    location    "98";
    object      phi;
}
// * * * * * * * * * * * * * * * * * * * * * * * * * * * * * * * * * * * * * //

dimensions      [0 3 -1 0 0 0 0];

internalField   nonuniform List<scalar> 
109758
(
-3.16667e-06
0.00121985
-0.00121668
-0.00125267
0.00128852
-3.58446e-05
0.000104122
-0.00114988
0.00104576
-0.00144006
8.7877e-05
0.00135219
0.00146236
-0.000168325
-0.00125782
-3.62146e-05
-0.000405294
0.000396327
8.96714e-06
-0.00110845
-6.47633e-06
0.00111492
0.0020238
-0.000255898
-0.000384864
-0.00138304
-2.37271e-05
0.000849311
1.44667e-05
-0.00084005
0.000466412
-7.21905e-05
0.00059654
-0.000990761
-3.94123e-06
0.000586478
-0.000582537
0.00187436
-0.00152688
-0.00143887
0.00109139
0.000320907
0.00125913
-0.0014378
-0.000142233
0.00118864
-0.00121936
3.07217e-05
-0.000974013
0.00110821
0.00132817
0.00069134
-0.000946093
-0.000684577
0.00093933
0.000819586
-0.00157363
0.00140327
-0.000649229
0.00148429
0.000242367
-0.00110138
-0.000625277
0.00150007
0.000227947
-0.00121147
-0.000516548
-0.00144003
0.000171262
-0.000108863
0.00137763
0.000215692
-0.000290301
7.46085e-05
-2.63693e-05
-0.0011964
0.00028565
0.000937116
-0.000275573
0.000846569
-0.000570995
0.000251248
-0.000301533
0.00102946
0.00116211
0.000420192
-0.000405489
-0.00117681
1.76985e-05
0.000563463
0.00090313
0.00124141
0.00151638
-0.00194186
-0.00081593
-0.00109122
0.00108142
9.79471e-06
3.43401e-05
0.00112777
0.00149192
-0.00102644
0.000795221
-0.00126071
-0.00146095
0.00152969
-8.43059e-05
1.55593e-05
-4.98941e-05
0.000604441
-0.000554547
-1.45432e-05
0.000898695
-3.47482e-05
-0.000849404
-0.000827261
0.00082411
3.15028e-06
-0.0001238
-0.00131746
0.00110495
0.000336309
-0.00115981
0.00212098
-0.0007188
0.000577986
0.000169904
-0.00074789
0.000198043
0.00103984
-0.00147425
0.000236367
-0.000252274
-0.00111668
8.1659e-06
0.00136079
0.00114047
5.10977e-06
-0.00114558
0.00167382
-0.00110248
0.000734924
-0.00130627
-0.000392233
-0.000504919
0.000676483
0.000220669
-3.41658e-05
3.33104e-05
0.00167468
-0.00144721
0.00142462
1.32356e-05
9.3534e-06
0.000796995
-0.00079802
1.02557e-06
0.000330629
-0.00214983
-0.000329159
0.00214836
0.000997936
-0.000282628
-0.000251212
-0.000464097
-0.00111255
0.00138815
-0.000195403
-8.01924e-05
1.65534e-05
0.00102434
-0.00104089
-0.0022476
0.0001423
0.000187785
0.00191751
0.00107968
-0.000522349
0.000520002
-0.00107733
0.000398917
0.000616718
1.43396e-05
0.00140048
-0.00141482
-0.00105835
0.0010619
-3.54985e-06
-0.0012199
0.00125424
-0.000329721
-0.00175407
-0.000430748
0.00251454
-0.00228281
0.00318364
-0.000667435
-0.000233405
-0.00111419
0.000983056
0.00117051
-0.00103939
-0.00180371
0.000708469
-5.92423e-05
0.00115449
-0.00071896
0.000264451
0.000646137
-0.000191628
-0.00149364
0.00142215
7.14858e-05
-0.00323421
0.000189505
0.0016317
0.001413
-0.00031405
0.00130125
-0.00124945
0.000262254
0.00156927
0.00151346
-0.00189094
-0.00113796
0.00151544
-0.00190105
0.000921693
0.000514711
0.000464647
0.00139261
-0.00153986
-0.000857906
0.00100516
-0.00147633
9.85662e-05
0.000349154
0.00102862
-0.00112267
-0.000798876
0.000445208
0.00107496
-7.64961e-05
-9.37209e-05
-0.000904746
0.00100519
-0.000590496
0.000373037
-0.000787731
0.00141975
5.18395e-05
0.000602382
-0.00207397
-0.000520675
0.000192151
0.000328525
-0.00211892
0.00134927
0.00158149
-0.000811839
0.00080301
-0.000759553
-4.34577e-05
-0.000627838
0.000201416
-0.00169249
0.000106483
-0.000881201
-0.000283631
-0.000270522
5.60041e-05
-0.000860651
0.00107517
0.00174248
-0.00158309
-0.000333495
0.000174104
-0.00170476
0.00153665
-0.00105179
0.00119819
-0.000810918
-0.00100333
0.000616057
-0.000650734
0.00269959
-0.00135003
-0.000698825
-0.000152304
8.22882e-05
0.00152946
-0.00145944
3.64026e-05
0.00216824
0.0002276
-0.00243225
0.000866224
-0.00157261
-0.000132439
0.000838829
0.00123805
-0.000233152
-0.000898416
0.000128777
0.000991277
-0.00135853
0.000238479
0.000543367
0.00204819
0.000129532
-0.00272109
0.000961836
-0.00113391
0.000180263
-8.18445e-06
0.000655161
0.000735477
-0.00276352
0.00137288
0.000933331
-0.000103678
6.16131e-05
-0.000891267
0.00199179
-0.00149349
-0.00296906
0.00247077
0.00169106
-0.00190386
0.000844421
-0.00063162
2.06051e-05
-0.00159271
0.00146395
0.000108163
0.00164642
-0.00115281
-0.000363116
-0.000130491
0.000889513
2.08724e-05
-0.000910385
-0.00170033
0.000293931
0.00118718
0.000219223
0.00111498
0.000743625
0.00057125
-0.00242986
0.000918799
-0.0016573
0.00114788
0.00249095
-0.00144436
-0.00219448
0.000917293
1.5058e-06
-0.000367502
0.00119336
0.00119916
-0.00202502
0.00105163
0.000300449
-0.000149015
-0.00120306
8.13584e-05
0.000922114
-0.00100347
0.00141391
-0.000116772
5.53562e-05
-0.00135249
-0.000577879
-1.89549e-06
0.000579775
-0.00132411
0.0010215
-0.000798767
-0.000237712
0.00179642
-0.00188909
0.000330389
0.000431876
-0.000362743
-0.00145276
0.00138363
0.000287591
-0.000293293
-0.000681617
0.000687318
-0.000368722
-0.000989326
0.00123682
0.000121224
0.000448002
-0.00121951
0.00126884
-0.000497334
0.000927658
0.000283566
-9.27815e-06
-0.00054947
-9.87634e-05
0.000657512
0.000179573
0.000352962
-0.00203726
0.00150473
-0.00131194
0.000166439
0.00134822
-0.00020272
0.000973623
0.000158178
9.90394e-05
-0.00123084
0.000205015
0.000768609
0.00143166
0.000288446
-0.00156193
-0.000766626
-0.000873106
0.00130306
0.000336671
0.00135803
0.000183631
0.000199572
-0.00174123
-0.001468
0.00125525
-0.000411793
0.000624541
0.00134628
0.000290397
-0.00104609
0.00117848
-0.00108772
0.000955322
0.00146317
-0.000211187
-0.00028644
-0.000965544
4.01896e-05
-0.00160661
0.00174201
-0.000175589
-0.00152933
-3.75935e-05
-0.00042282
0.00198974
0.000938749
0.000505947
-0.00148563
4.0929e-05
-0.00101894
9.45165e-05
0.000894838
2.95895e-05
0.000184212
5.68988e-05
-0.00188305
0.00164194
-0.00093054
-6.1639e-06
0.000936704
0.00019316
0.0013321
-0.00134105
-0.00106141
0.00142124
-0.000773869
0.000414041
-0.00121296
-0.000778041
0.00157796
0.000413043
0.00127429
0.000244342
-0.000722727
-0.000795908
-0.00201021
-2.81362e-05
-0.000282958
0.00232131
-0.00129462
-0.000777597
0.000565874
0.00150635
0.00177653
-0.0017408
-0.000112092
7.63605e-05
-0.000263764
-0.000789096
-0.000701209
0.00146078
0.00108169
0.000271142
-0.00281361
0.00211354
0.00026715
-0.00234429
0.000214714
0.00110499
-0.0013197
3.5185e-05
-0.00108863
0.00105344
-0.00103479
-0.000214748
0.000197583
0.00105195
9.21864e-05
0.00134677
-0.00128485
-0.000154108
-0.00221981
-0.000254857
0.000576583
0.00189809
0.00122521
-0.00129638
0.0011086
-0.00103743
0.000159162
0.000143143
0.000922903
-0.000874122
0.000847544
2.65781e-05
-0.000919694
3.0236e-05
0.0013331
-0.000443644
0.000264832
-0.000672131
-0.000493086
0.000900385
0.00067446
-0.000702072
2.76123e-05
-0.000961831
0.000910023
-0.000218714
-5.08485e-05
-0.00101117
-1.05855e-05
0.00107261
0.00171109
-0.000192234
-0.00108594
-0.000432924
-0.000408183
-0.00186734
0.00250691
-0.000231385
-0.00162341
0.000562169
-0.00135661
0.00151467
-0.00015806
-0.00073168
0.000659188
-0.00102721
0.0010997
0.000547793
-0.000670689
-0.000497649
0.000620545
-0.000920529
-0.00126231
0.00100161
0.00118123
5.03275e-05
0.00141135
-0.000139987
-0.00132169
-0.000358595
0.0017098
-0.000286491
-0.00106472
-0.00159266
0.00134675
-9.64224e-05
0.00034233
-0.00117005
0.000933232
-0.00100753
0.00124435
0.00121549
6.62579e-06
-0.00122212
-0.00180189
0.000389472
0.00176157
-0.000344821
0.00142175
-0.00107693
8.78361e-05
0.00143508
-0.00152292
0.000197942
0.00123674
-0.00189564
0.000460951
-0.000951341
-0.00098909
0.00106158
0.000878847
0.000694038
-0.000200515
0.000511666
-0.00142013
0.00148319
-3.79993e-05
-2.50618e-05
-0.00141767
1.41405e-05
-1.66053e-05
0.000752228
-0.000450982
0.00184956
-0.0021508
-6.85841e-05
0.00180461
-0.00173603
-0.00118324
0.000849685
-6.60926e-06
0.000340162
-0.000902704
-0.00109784
0.00200054
-0.000674699
-0.000253288
0.000927987
0.00100461
1.25659e-05
-0.00101717
-0.00159627
-2.56948e-05
0.00131312
0.000308842
-0.000461679
0.000638598
0.000839058
-0.00101598
-0.00176764
0.000484162
0.000821795
0.00172075
-0.00271128
0.000575304
0.000415226
-0.00144933
0.00146274
-3.97991e-05
2.63835e-05
0.00193047
-0.0019298
-1.54586e-05
1.4789e-05
-0.00109048
1.53897e-05
0.000268956
0.000806139
7.64635e-05
-0.00113679
0.00106033
-0.00123427
-0.00175227
0.00118841
0.00179812
0.000148973
0.00161165
-0.000746215
-0.00101441
2.03233e-05
-0.00155704
-2.3313e-05
0.00156003
0.000256091
0.00139847
0.000329893
-0.00198446
0.000203737
0.00139803
-0.00147291
-0.000128854
-7.47716e-05
-0.00109355
0.00137206
-0.000894746
-0.000757651
0.000384941
0.00126746
0.000841565
4.83583e-05
-0.000889923
0.00135845
0.00130363
-0.00157388
-0.00108819
1.71868e-05
-0.0010821
0.00106491
0.000302665
0.000131736
5.96974e-05
-0.000494099
-0.00142042
-2.27978e-05
0.00046992
0.000973296
-0.00104622
-0.000536685
0.0015829
0.000845598
-0.00111026
0.000393635
-0.000128973
-0.00146892
0.000185115
0.00134018
-5.63711e-05
-0.00148
0.00179846
-0.0014129
0.00109443
-5.93503e-06
-0.000888811
-0.00114271
0.00111068
3.20307e-05
-0.00147872
-0.00077075
0.00014606
0.00210341
-0.000136586
0.00130041
-0.00116382
0.00103751
-0.000815793
-0.000221719
0.000925044
-0.000930979
-0.00111198
-1.74444e-07
0.00111216
0.000508602
0.00138602
-1.33934e-05
-0.00188123
-0.0011355
0.000172984
0.000962514
-0.0012633
-0.000444589
0.0013158
0.000392083
-0.00190957
0.000262472
0.00186421
-0.000217114
0.0009442
-0.0009168
-2.73992e-05
-0.000726224
-0.00101909
0.00390905
-0.00216374
-0.00148232
0.000543015
-0.000373404
0.00131271
-0.000750829
-0.000179472
-0.00117523
0.00210553
-4.26878e-06
2.69501e-06
0.00130692
-0.00130534
0.000708389
-0.00209672
0.00285826
-0.00146993
-0.00121626
0.00121199
0.00155709
0.000401066
-0.00190736
-5.07948e-05
0.00108531
0.000148459
-0.00136322
0.000129453
0.000950339
0.000445361
-0.00159416
0.000198458
0.000903625
0.000181687
-0.000541828
0.00169141
-8.92329e-05
-0.00106035
0.000326677
-0.00148646
0.00190081
-0.000741023
-0.00167251
0.000121827
-4.52842e-07
0.00155113
0.000970634
0.0037438
-0.0005933
-0.00412113
0.000450124
0.000343074
-0.000596688
-0.000196511
0.000310164
0.00112359
-0.000508282
-0.00092547
-0.00090561
0.000884289
-0.000520507
-5.06997e-06
0.00169151
4.96829e-06
0.00133531
-0.00135025
0.000213997
-0.000199057
0.000316198
-0.000105676
0.000806871
-0.00101739
-0.00130099
0.00126668
0.000182771
0.00039257
-0.000768658
-0.00087994
0.00125603
0.000541999
0.00150815
-0.00150678
0.00112912
-0.00147853
0.000199699
0.000149715
0.00111297
2.03422e-07
-0.00111317
0.00242812
-0.00249728
0.00202065
-0.00195149
0.000370261
-0.000955482
-0.000476577
0.0010618
0.000384902
0.000204412
-0.00163414
0.000974107
-0.000580774
0.00124081
-0.00200265
0.000452159
0.00168508
-0.000134596
-0.00156274
-0.000862141
0.00313327
-0.000157512
0.00191701
-0.000633305
-0.0011262
0.000924593
-0.000466555
0.00171247
-0.00217051
0.000184431
-0.000870266
0.000741012
-5.51767e-05
-0.000382716
-0.00125564
0.00144249
0.000195863
0.00108111
-0.000611882
-0.000439644
-2.95874e-05
0.000548035
0.000229708
0.000290586
-0.00106833
-0.000776209
0.000995615
-0.000219405
0.000889419
-0.000828526
0.000123538
3.05462e-05
-0.0013578
0.00132725
0.00104323
-0.00121553
-0.000210421
0.00026466
0.00118146
-0.000265069
-0.00118105
-4.00146e-06
-0.00096385
0.000967852
0.000524869
0.00161287
-0.000883498
-0.00125424
-8.50483e-05
-0.000630793
-0.000423605
0.00113945
-0.000294682
-0.00162197
1.07395e-05
0.00190592
-0.00102994
0.000416975
0.00125932
-0.000646359
7.62047e-05
0.000967029
-0.000857703
0.000933907
0.000926199
0.000247629
9.96742e-05
-0.0012735
-0.000489272
0.00218877
-0.000142402
-8.91173e-05
-0.000621722
0.000566742
0.000144097
-0.000206148
0.0024352
-0.000115509
0.00197589
-0.00102621
-0.000424804
0.00225369
-0.000275457
-0.00120935
0.00180757
-0.000322764
-0.00228083
0.00191521
0.000937663
-0.000572047
5.77244e-05
0.00104783
0.000870329
-0.00100406
-0.00131894
0.00139246
-0.00071648
-0.000988298
0.00190979
-0.000205009
0.000740356
0.000843269
-0.00158363
2.61975e-05
0.000168856
0.00222427
-0.00241932
-0.00117464
0.000992986
0.00144021
-0.00125856
0.00135764
-0.00214585
0.00172481
-0.000936598
0.000449863
-2.28592e-05
-0.000427004
-0.000923931
-0.000517184
0.00017193
0.00126919
-0.000473729
-0.000679165
8.94506e-05
0.00117078
-0.000969006
-0.000291221
0.000984388
-0.001025
4.06081e-05
0.00010945
-0.00130638
0.00137853
-0.000181599
0.00114614
-0.00282831
0.00139765
0.000284522
0.000655328
-0.000874109
0.000218781
0.000867568
-0.000110862
-0.000859809
0.000103103
-0.000174079
-0.0028696
0.00259047
0.000453213
-0.00113301
0.000195219
0.00132071
-0.000382923
-0.0011863
3.82087e-05
0.00114809
0.00118296
0.000200057
0.000785229
-0.0005902
-4.90231e-05
0.00152864
0.000102755
-0.00168149
0.00140466
-6.40087e-05
0.00116675
-0.00110274
-0.000816948
0.000505898
0.00135504
-0.00104399
-0.000185975
0.00155264
-4.38338e-05
-0.00132283
-0.000187236
0.00144232
-0.000975389
-0.000279693
-0.00100248
-2.22564e-05
0.00118143
-0.000156696
0.000832419
-0.0017401
0.000949972
-4.22933e-05
-0.000891562
0.000696977
-0.000716467
0.000911051
0.000863737
3.41365e-05
-0.000100879
0.000132396
-0.00125903
-0.000303372
0.00143001
-0.000258146
-0.00138333
0.000618356
0.00102312
0.000493547
-2.11772e-05
0.00113426
0.000275171
-0.00138825
0.000581745
-0.000410097
0.00117228
-0.00134393
-0.000751402
0.00093092
0.00124243
-0.00142195
0.0020344
0.000510691
-0.00205154
1.24798e-07
-0.00121045
0.00121033
7.49029e-06
-0.00122642
0.00127536
-5.64292e-05
2.39303e-05
0.00131064
-0.00117892
-0.000155656
0.00039434
-0.00198937
-6.4957e-05
0.00165999
-0.00110095
0.00132102
-0.000220067
0.00020226
-9.24261e-05
0.0013259
-0.00143573
-0.00102586
0.000227836
-0.000709005
0.00107355
-0.00143077
0.00106623
-0.000327225
-8.1069e-05
0.000408294
0.00324053
-0.00158162
-0.000703459
-0.000955452
0.00130479
0.00334327
-0.00140753
0.00216239
-0.00199884
0.000188991
0.00110084
-0.000852255
0.00121911
-0.000386514
1.96615e-05
-0.000256994
5.05698e-05
0.00178791
-0.00125099
0.000470915
0.00096067
-0.000180592
-0.00105227
0.00174107
0.000130784
0.00122123
-0.00139806
0.000708614
-0.000531783
0.000181391
0.00245661
-0.00243574
0.000735105
6.38491e-07
-0.000735744
-3.93347e-07
-0.00095662
0.000957013
0.00170507
0.00013789
-0.000381595
-0.00146137
0.00221025
-0.000712146
-0.000935302
-0.000562798
-0.000139742
-0.0028028
0.000845818
-8.61311e-06
-0.000679286
0.000687899
0.00147048
-0.00134928
-0.00133354
0.00121234
0.00106482
0.000444021
-0.00125275
0.000864078
-0.0005325
-0.00131813
0.000986548
-0.00104282
-9.40738e-06
-0.000803494
0.00185572
-0.00159304
-6.82709e-06
0.00159987
0.000993016
9.37478e-05
-0.00105663
-3.01369e-05
-0.00127232
-2.08197e-05
0.00129314
6.42951e-05
0.00107032
-0.00113462
-0.000782631
0.00173423
-0.000125974
-0.000825623
-0.00187844
0.00226234
0.00142707
-0.00181098
0.000901211
0.00076938
-0.000208423
0.00133807
-0.000865032
-0.000264618
-0.000229715
-7.78984e-05
-0.00115526
0.00146288
0.0013045
-0.00114736
0.000912643
-0.00106978
-0.00123773
0.00128823
-5.04941e-05
-0.00151432
0.00025332
0.00130058
-3.95828e-05
-0.00264303
0.000528605
0.00201076
0.000103663
0.000260793
-0.000334595
-0.00130894
0.00138274
0.00190151
0.000181185
-0.00109221
-0.00099049
0.0010341
-0.000786321
-0.00104144
0.000793654
0.00119115
1.19923e-05
-0.00120314
0.000109741
-0.00202596
0.00148253
0.000433685
0.000752766
0.000448908
-0.000300463
0.000273703
-0.000881888
0.00128585
-0.000677665
-0.000545329
0.000529509
-0.000121953
0.000137773
-0.00362618
0.00437318
0.00141028
-0.00215728
0.00181969
-1.18895e-05
-0.00181891
1.11076e-05
9.12243e-06
0.00146342
-0.0015728
0.000100259
-0.00219283
0.00192113
-0.00051093
0.000974412
0.00121973
-0.00110391
-0.00109023
-0.000967717
-6.94978e-05
-0.000105247
0.00114246
0.00101053
5.27215e-05
-0.00106325
0.00128827
-7.1062e-05
-0.00121721
-0.0022776
0.0021463
8.44855e-05
4.68171e-05
7.05197e-05
0.00146791
-7.19518e-05
-0.00146648
0.000909413
0.000458525
-0.00297751
0.00160957
-0.000630633
0.000630642
-8.81682e-09
0.000924175
2.11664e-06
-0.000926292
-4.68454e-07
-0.000556875
0.000557343
-0.000530733
0.0010803
0.000725872
-0.00127544
3.54072e-06
-0.00114344
0.000897092
0.000242809
-0.0012832
-0.000526045
-0.000468352
3.25579e-06
-0.000888554
-0.000132238
0.00101754
-0.000687378
1.28543e-05
0.000674524
0.000235016
0.000729253
-0.0002376
-0.00072667
0.00050284
-0.000895073
0.000392233
-0.000243039
-0.000833081
-0.000310436
0.00138656
0.000709487
0.000940634
0.000138601
-0.00178872
0.00185643
-0.000675192
-0.000601585
-0.000579649
-6.80741e-05
-0.00153315
0.0017869
-0.000185674
0.000735787
0.000387672
0.00021232
-0.00133578
0.00232031
0.00103339
-0.00217624
-0.00117745
-2.84177e-06
0.000587579
-0.000584738
-0.00137317
4.08757e-05
0.000317697
0.0010146
-0.00134583
-0.000149406
0.0015311
-3.58607e-05
0.0003746
-0.000468897
0.00191398
-0.000476424
0.000629246
-0.000152823
0.000937427
2.69447e-05
-0.000964372
0.000194435
0.000122405
-0.00123672
0.000919878
0.00131837
-0.000129912
-0.00122635
3.7894e-05
-0.00111339
-7.91457e-07
0.000237735
0.000321864
-0.00146055
0.000900948
-0.00135677
9.78376e-05
0.00125893
-5.32579e-05
-0.000949219
-0.000123766
0.00208953
0.000147244
-0.00211301
0.00111649
-0.00118252
6.60307e-05
-0.00119419
0.0011814
1.27876e-05
0.000959592
-0.00108336
0.000262532
0.000876314
0.0010891
-0.00222794
-0.00117262
-0.000640139
0.00181276
-9.07489e-06
0.000836212
-0.000827137
-1.95197e-05
-0.000909651
0.000929171
0.00111457
-0.00110768
-6.89094e-06
-0.0012353
4.73855e-05
0.00124198
-5.40591e-05
0.000302173
-0.00139083
0.00106229
0.000693753
0.000583334
-0.00233836
0.00106128
0.000721229
4.94787e-06
-0.000726177
4.73452e-05
0.00136519
-0.00141253
0.000672029
2.43048e-06
-0.00153956
0.00137048
0.0012989
-0.00112983
-0.000969641
0.000122999
0.00124334
-0.000396694
0.00169647
-0.00244433
0.000590928
0.000156925
-0.00218972
0.00048724
-0.00104572
0.00115591
-0.00011019
2.54361e-05
-0.00115984
0.0011344
-0.00100327
-1.9724e-05
0.001023
-0.00117456
6.30943e-06
0.00116825
0.00112361
-0.00123202
0.00010841
1.40293e-05
0.0017344
-0.00174843
-0.000256879
-0.000234227
0.00124387
0.00123782
-0.00129281
-0.000883971
0.000938956
-0.000698737
0.000127465
0.00135649
-0.000785214
0.00066701
-0.00156852
-0.000101759
-7.29164e-05
0.00153348
-0.00146057
0.000454907
0.000424168
-0.000580048
-0.000299027
-0.000706416
0.00115822
-0.00139179
0.000939988
-0.00112416
-0.000427253
0.00155141
0.00227589
-0.0014031
-0.000872783
-0.000432103
0.00163506
0.00107133
-0.00227429
-0.0011864
0.00143892
-0.00143575
0.00118323
0.00050887
-0.000382359
-0.00058454
0.000458029
2.12538e-05
-1.36381e-05
-0.00127993
0.00127232
-0.000120053
-0.00179869
0.00191874
0.000404992
5.3316e-05
-0.00152678
0.00106847
-0.00150305
0.00116642
0.000336636
-0.000702811
-0.000351916
0.00101383
4.08982e-05
-0.000991043
0.00098598
5.06275e-06
0.00096343
-0.000814837
0.00120905
-1.03734e-05
-0.00157776
0.00158067
7.46019e-06
0.00304722
-0.000787985
-0.00152945
-0.000729786
-0.000471265
0.00166303
7.96897e-06
-0.00119973
-0.000550125
0.000819075
0.000457377
-0.000726327
-0.00132476
0.000778044
0.00137623
-0.000829507
0.000727339
-0.00086849
-0.000339354
0.0015074
3.97566e-05
-0.00120781
0.000906334
-0.000999646
0.000103574
-0.00213752
2.41615e-05
-2.11442e-05
0.00213451
-0.000297335
-8.37862e-05
-0.000799625
0.00118075
-0.00108436
0.00139483
-0.00110862
0.000798142
-0.00247903
-0.000334647
0.00260753
-0.0016074
2.2678e-05
0.00160907
-2.43475e-05
0.00100648
0.000162804
-0.000678804
-0.000490484
-0.000317249
-0.00123365
0.00065537
0.000895529
0.00106764
-0.000418625
-0.0014072
0.000758182
-0.00138742
-0.000357712
-3.08876e-05
0.00177602
0.00111012
-0.000136197
-0.00101856
4.46346e-05
0.000940121
-0.000944009
3.8874e-06
-0.000745527
0.0024268
-0.00201598
0.000334706
0.000156328
0.00143142
-0.00230351
0.000715764
-0.000945314
-0.00030784
0.00099342
0.000259734
0.000330103
-0.000316883
-0.000958534
0.000822375
3.31612e-05
0.000161052
-0.00101659
-8.8231e-05
0.000615793
-0.00266509
-0.00138856
2.8494e-05
0.00178203
-0.000421961
-0.000995177
0.00116128
-0.000166107
0.00048979
-0.000459338
-0.000649098
0.000618647
-0.000700636
-0.00128679
0.000808949
0.00117848
-0.000577191
0.00179593
-0.000661467
-0.000557272
-0.00148043
1.02831e-05
-0.00129567
0.00161549
-3.9195e-05
3.45771e-05
-0.00128146
0.00128608
0.00123734
0.00132707
-0.00141034
-0.00115406
0.000982107
-0.001013
3.08971e-05
0.00125368
-7.86524e-06
-0.00124582
0.00106974
-0.00124165
0.000351286
-0.000179379
-0.000312111
-0.000915183
0.00222071
-0.00164465
0.00141174
-0.000212795
0.000445703
0.000547179
-0.000744636
0.00176751
-0.00157006
-0.00157605
-0.0011499
0.0018738
0.000852146
-8.45221e-05
-0.00173661
0.000176486
0.00027484
-0.00144882
-1.18827e-05
0.00118586
0.00133499
0.000351588
0.0018088
-0.00158398
-0.000594429
0.000369609
-0.00133912
0.00132917
0.00108382
-0.00107387
0.00101484
0.000503233
-0.00115207
-0.000366003
0.000508238
-0.00111698
0.000928058
-0.000319318
0.00139174
-0.00114095
-0.00181291
0.00156212
0.00145934
-0.00162443
8.05589e-05
-0.000901078
0.000905034
-3.956e-06
0.000112618
-0.000102092
0.00151072
-0.0018049
0.00170268
-0.0014085
0.00111973
-0.00100711
0.0011374
-0.00122991
-3.76022e-05
0.00013012
-2.44465e-05
-0.000519487
0.000543933
-0.000123573
-0.00103694
0.00124388
-8.33709e-05
0.00191014
-0.00171908
0.000135745
-0.000326805
0.000204319
-0.00226689
0.000184136
0.00169606
-0.001736
-0.000187502
0.000227441
0.000371553
0.000279054
0.000461247
-0.00111185
-0.000100993
0.000948669
0.00092388
-0.00177156
-8.04593e-05
-0.00117136
-0.000325272
0.00157709
-0.000570275
0.00170886
-0.000464644
-0.000673944
-0.00106834
0.000453082
0.001685
0.00104578
-0.00211861
0.000232256
0.00084058
-0.000305331
7.13944e-05
0.00193
0.000313024
0.00142701
-0.000488564
-0.00125147
-5.16105e-05
5.38894e-05
-0.00123898
0.0012367
0.00185861
0.00010445
-1.30837e-05
-0.00194998
0.00103639
0.000454096
-0.000412048
-0.00107844
-0.00112278
-0.000479899
0.000534343
9.19308e-05
0.000648199
-0.000657839
-8.22909e-05
0.000189502
1.63515e-05
-0.0014475
0.00100858
-0.000527318
-0.000136939
-0.000344326
0.000148166
0.000701587
-9.81236e-05
-0.00075163
-0.00112206
0.000962911
0.00120493
0.0007433
-0.00323126
0.000629973
0.00185799
0.000176843
-2.97997e-05
3.30007e-05
0.00127208
-0.00127528
0.00220461
-0.00070803
-0.000732173
-0.000764411
-0.00107607
1.36284e-05
0.00147792
-0.000415474
-0.000136292
-0.00103831
0.00125229
-7.76921e-05
0.00104301
-0.00142211
-0.000694699
0.00107381
-0.000986746
0.000958575
2.81713e-05
-2.95065e-05
0.000952351
-0.000922844
-0.000466134
-0.00109054
-0.000402454
0.00195913
-0.000809863
0.000907901
-9.80386e-05
-0.000152963
-0.00132768
-0.000334601
0.00181524
-0.0023432
0.000863877
-0.0012788
0.00275812
-0.00160391
3.71479e-05
0.00156676
0.000757879
0.000839144
-0.000810991
-0.000786032
0.000976153
-0.00055923
-0.000184669
-0.000232254
0.0013038
2.83877e-05
-0.00133219
0.00124571
-0.00372525
0.000136342
0.000845563
-3.13705e-05
-0.000814192
-0.00144438
-0.000573028
0.00194081
7.65965e-05
-0.000876876
0.00452866
-0.00277262
-0.000879162
-0.00263805
0.00317648
-0.000465199
-7.32224e-05
0.00157634
-0.000908472
0.00219039
-0.000771834
-0.00168097
0.00248289
-3.00873e-05
-4.8385e-06
-0.000121779
-0.000680358
0.000806975
0.00148764
0.0019063
-0.00216826
-0.00122567
-0.00152917
0.00180801
0.000495829
-0.000774672
0.00169576
-0.000310944
-0.000663186
-0.000721624
0.000144907
-0.00108552
-0.000188317
0.00112893
-0.00322221
9.9732e-05
0.00164919
0.00147329
-0.000591306
0.00225045
-0.000872477
-0.00078667
0.000382038
-0.000937507
0.0017866
-0.00123113
-0.00019315
-0.000553028
0.00104585
-0.00029967
-0.000918779
0.000977624
-6.24428e-05
3.5976e-06
0.00160063
-0.00180676
-8.66817e-05
0.000292814
-4.87084e-05
-0.0015958
0.00160844
3.60635e-05
0.000130413
-0.000116285
-0.00152643
0.0015123
0.00220871
-0.000362559
9.40487e-05
-0.0019402
-0.00145324
-0.000305387
0.000372923
0.0013857
0.000491614
-0.000491627
1.25855e-08
0.00108931
-0.000741139
0.000726793
0.000226324
0.00208679
-0.00012477
-0.00218834
-0.000333485
0.000222686
0.000278888
-0.000168089
-0.00162885
-0.00202537
0.00292799
-0.00115806
0.00132611
0.00126298
-0.00143103
-6.50422e-05
0.00129228
-0.00162983
0.0004026
-0.00123954
-0.00129808
-8.23587e-05
-0.000334378
0.00171482
-7.02225e-06
-0.000660541
0.000667564
-7.60267e-06
-0.00095222
0.00221979
-0.00125996
0.000650563
0.000916148
0.00163404
-0.000818259
7.66114e-05
-0.000892388
0.000717864
-0.000199439
-0.00119857
0.000680142
0.000901566
4.28881e-05
-0.00137383
0.000429371
-0.000648997
0.000537521
0.00203442
-0.00192294
0.00174325
0.00124582
0.000163176
-0.00315224
-0.00155846
-9.83744e-05
0.000315746
0.00134109
-0.00130656
0.00139166
-8.51067e-05
-9.11256e-05
0.000865385
-0.000129781
-0.000644478
-0.00026796
0.000551179
-0.000283219
0.00109027
0.00154931
-0.000695663
-0.00194392
0.000933238
-0.00093417
9.31874e-07
-0.00264369
0.000617076
0.00147718
0.000549429
0.000107169
-4.72211e-05
0.00128425
-0.0013442
0.000822261
3.40108e-06
-0.000825662
0.0016888
-0.00187529
-0.00120429
0.00139077
-0.00148675
-0.00287191
0.00171497
-0.000290451
0.000187582
0.0011957
-0.00109283
-0.000512313
0.00155843
-0.000164334
-0.000881781
0.000320289
-0.000846603
0.00124418
0.000973899
4.67192e-05
-0.00102062
0.00289246
-0.000699384
0.000171903
-0.00236498
0.00109291
0.00031281
0.000699757
-0.00167179
0.000803469
0.000168562
-0.00175988
4.98547e-05
0.00131953
0.000390494
-0.000328111
-0.000724049
0.000767051
0.000285109
0.00103128
-0.0013282
0.000296925
-0.000365138
-0.000709917
0.00107506
0.00091057
-0.000589652
-0.00103368
0.000712757
-0.000390016
-0.000217005
0.00156008
-0.000953059
-0.000766326
-0.00122495
0.000947753
0.00104353
-0.0015052
0.00137446
-2.53517e-05
0.000156091
-8.78527e-06
-0.000928722
-0.000225009
-0.000820704
0.00103525
1.04681e-05
0.00157
-0.00147643
0.000428706
-0.000522275
0.00238292
-0.00237116
0.00108114
-0.000415482
0.000456079
-4.05971e-05
-0.000870993
0.000859692
1.13009e-05
-7.86986e-05
0.00109045
0.000372536
-0.00138429
-0.000691254
-0.00108918
-0.000429703
0.00221014
-0.000645515
-0.000496051
0.00224166
-0.00110009
0.00110986
0.000297604
-0.00148616
-0.000214392
0.00165447
-0.000752228
-0.000687847
0.000235174
-0.00109262
-0.000478884
0.00133633
-0.00030448
0.000187173
-0.0015233
0.0016406
0.00151748
-0.00109887
-0.000839964
-0.000626564
-0.00018686
0.00165339
0.000452897
-0.000229214
-0.000226938
3.25553e-06
-0.00177937
0.00207582
-0.000211454
-8.50024e-05
0.000581183
0.00064182
-0.000610885
-0.000612119
-0.000244579
0.0012686
2.66736e-05
-0.00105069
0.00141763
6.04579e-05
-0.00126685
-0.000211232
-0.000174721
-0.00174026
-0.000431364
0.00234635
-0.00015027
0.00125955
-0.00110928
0.00152476
0.00129502
-0.00173589
-0.00108388
0.00101109
7.52181e-07
-0.00101184
0.000111317
-0.00133188
-0.000333244
0.00155381
0.00238337
-0.000340063
-0.00112024
-0.000923067
3.39342e-05
0.00239627
-4.68342e-05
0.00117146
-0.00111949
-5.19718e-05
-0.000421777
-0.000821528
0.0012433
0.00217767
-0.000581123
-0.0013686
-0.00101852
-0.000995941
0.0016744
9.48283e-05
0.000402996
-0.00157214
0.00107432
5.6504e-05
-0.00135669
0.000848712
0.000451474
-6.62969e-06
0.00118251
6.85676e-06
-0.00118273
-0.000230247
-3.16456e-05
-0.00111782
-0.000294176
0.00141199
-1.89645e-05
-0.000970222
0.000989187
0.00207574
0.000157878
-0.000133149
-0.00210047
0.000869594
-0.00161069
0.000388198
0.000352903
0.00054853
1.34223e-06
-0.000549873
-0.00158317
0.000258324
-6.3943e-05
0.00138879
0.000566895
4.19134e-05
0.00123644
-0.00184525
-0.000582828
0.000629064
-0.00174775
0.00170151
0.000174485
-0.000229341
-0.00163485
0.00168971
0.00116247
-0.00108601
-0.00249662
0.000284739
0.000736543
-0.000751321
-0.00076202
0.000776798
-0.000672315
0.000675194
-2.87872e-06
-0.00159846
-0.000564543
0.00239531
-0.000343169
-0.0014876
-0.000931588
-0.000283281
0.00126392
-4.90555e-05
0.000268457
0.00151826
-0.000581399
-0.00120532
-0.00300912
-0.00252846
0.00019711
0.00242342
-9.20679e-05
0.000180024
0.000129649
-0.00104284
0.000733162
0.00166677
-0.00153987
-0.00171994
0.0012151
0.000348062
-0.00156316
0.00173144
-0.000320089
-0.0012388
-0.00017255
-0.00103542
-5.73677e-05
-0.000699102
0.00179189
0.00170073
-0.00143858
-0.000506293
0.000244144
7.4652e-05
0.000527745
-0.00162528
0.00102288
5.69924e-06
0.000884222
0.00013583
-0.00102575
-0.000824977
0.00105042
0.000296722
-0.000522169
1.23402e-05
0.00145331
-1.14956e-05
-0.00145415
-0.00109795
0.00111029
-0.00102338
-2.28691e-06
0.00102566
-0.00167021
-0.000154196
0.000417777
0.00140663
0.00117466
-0.00114862
0.000687408
-0.000713445
0.000289871
0.00102036
-0.00110172
-0.000208504
-0.00141381
0.00206931
-0.0002382
-0.000417305
0.000823427
-0.000786838
-3.65886e-05
1.60428e-05
0.000652588
0.00171429
-0.00138145
0.00117765
0.000507083
-0.000303278
-0.000340573
0.000758879
-0.000418306
-3.54452e-05
0.00118655
-0.00115111
-0.00185958
0.000705293
0.000361779
0.000792511
-0.00334
0.00243422
0.000921818
0.00247912
-0.000296434
-0.000424103
-0.00175859
0.000991672
0.000121626
0.000634621
-2.94359e-05
-0.000665032
5.98475e-05
0.000686736
-0.00053857
2.68029e-05
-0.00159544
0.00156864
-0.00275522
0.00197001
-0.000875203
0.00211122
-0.00142883
0.000192814
0.00144122
-0.00194934
0.000602942
0.00110791
-0.00202365
0.000390125
0.000525616
-0.00102912
0.00123611
-0.000206986
0.00214739
0.000449581
-5.28381e-06
-0.00259169
-0.00103167
0.00104047
-8.80068e-06
0.00280672
-0.00251557
0.000324638
0.00166339
-5.4283e-05
-0.0016091
0.00119367
-0.00121683
2.31612e-05
-0.00119334
0.000134077
0.00105927
-0.000459948
-0.00112918
0.000395787
-0.00244196