/*--------------------------------*- C++ -*----------------------------------*\
  =========                 |
  \\      /  F ield         | OpenFOAM: The Open Source CFD Toolbox
   \\    /   O peration     | Website:  https://openfoam.org
    \\  /    A nd           | Version:  10
     \\/     M anipulation  |
\*---------------------------------------------------------------------------*/
FoamFile
{
    format      ascii;
    class       volScalarField;
    location    "98";
    object      SgP;
}
// * * * * * * * * * * * * * * * * * * * * * * * * * * * * * * * * * * * * * //

dimensions      [1 -1 -3 -1 0 0 0];

internalField   nonuniform List<scalar> 
59698
(
0.00309489
0.00183543
0.00231273
0.00271405
1.14381e-06
0.00145199
0.00249697
1.07507e-07
1.9821e-09
3.93986e-09
0.000586477
1.78624e-09
1.58177e-09
0.00228614
2.78984e-08
4.27953e-07
9.40805e-09
3.79378e-09
1.61845e-09
5.95519e-10
0.000365516
1.56092e-06
0.000499415
8.81904e-08
2.02022e-07
1.19361e-09
1.1937e-09
0.00248165
0.00239436
2.15583e-09
1.35434e-07
0.000600623
6.68563e-08
0.00403444
1.1126e-06
3.79232e-09
0.000464842
5.04034e-07
1.73395e-08
0.00245257
2.96133e-08
2.30474e-07
2.30035e-08
2.46667e-08
0.000402108
1.04895e-07
2.70486e-09
4.88655e-08
0.00290841
3.14467e-08
2.97063e-10
2.35061e-09
0.00172825
0.00272941
0.00216803
2.05779e-09
8.4524e-08
1.55196e-08
1.77068e-08
2.74592e-05
0.00178288
6.27604e-08
1.98422e-07
1.56454e-09
5.00279e-07
4.17687e-08
1.75306e-09
3.24322e-09
4.20436e-09
6.77995e-09
6.07756e-07
2.79013e-08
0.000360033
1.64367e-06
0.000411946
1.09682e-06
2.15435e-08
2.21354e-08
6.39076e-09
1.01741e-08
4.77737e-07
9.85511e-10
4.05492e-09
8.06472e-09
1.69232e-05
3.14284e-08
9.13964e-09
2.22903e-07
2.33384e-06
2.31944e-08
4.50209e-09
6.3591e-08
1.73577e-07
6.55006e-09
6.07166e-08
0.00359106
1.351e-07
6.19572e-08
5.21434e-08
8.59505e-10
0.00353666
2.07815e-05
2.95581e-07
0.0032918
5.42327e-08
0.000564778
2.32764e-09
2.28918e-09
2.73105e-09
4.40875e-10
3.71764e-08
2.62969e-06
1.34738e-06
1.56281e-07
9.75907e-08
3.45616e-08
3.49065e-07
0.00353385
2.92559e-07
1.15421e-08
2.26715e-09
2.98685e-07
2.25775e-07
3.34286e-09
1.61337e-09
7.73626e-09
8.3814e-09
7.20721e-09
1.28035e-08
3.86453e-07
0.00335622
3.86523e-09
1.10321e-09
1.77143e-07
6.54088e-08
3.23765e-09
4.91659e-07
2.6185e-10
1.72961e-09
5.64434e-09
2.08908e-08
0.00231722
0.00252084
1.58161e-09
1.90733e-07
7.94092e-10
5.35037e-07
3.78875e-07
0.00448819
7.09624e-07
0.000257376
0.000434377
2.7971e-08
2.54846e-07
9.62249e-09
1.04529e-07
7.44882e-09
0.00162891
6.72094e-08
5.99453e-10
3.08259e-09
7.70867e-09
2.19987e-08
9.66745e-08
1.88746e-08
0.0022288
1.06885e-09
0.000566806
0.0015253
6.91964e-09
2.55907e-07
1.46539e-06
2.1835e-07
9.28186e-07
5.75895e-07
0.00121903
4.38614e-09
0.0013955
0.000326009
0.00293258
2.25441e-06
7.44633e-07
4.01176e-07
1.12292e-08
2.51382e-07
7.01134e-08
3.70557e-07
0.00238015
1.37362e-10
1.7959e-08
6.45803e-09
7.03311e-09
2.31123e-08
6.05643e-07
1.22105e-07
0.00416745
1.82594e-06
0.00294464
1.27015e-05
9.05783e-08
0.000227082
6.749e-07
1.47229e-09
2.55518e-09
0.00356799
0.0024469
3.55861e-08
0.00205809
0.00270786
0.00350352
0.00242676
6.10908e-09
0.00262732
1.56768e-08
2.34333e-09
0.00336708
9.86558e-09
4.54571e-08
1.5489e-07
4.65691e-09
1.37162e-05
0.00217438
1.72856e-09
5.10018e-07
8.95023e-09
0.00274698
2.12668e-08
5.49046e-09
4.86142e-08
6.80699e-07
7.56653e-09
1.87178e-08
7.44782e-09
1.1393e-08
9.52919e-09
8.9232e-09
3.07798e-07
1.95314e-08
1.76472e-07
8.19824e-09
0.00261371
1.18972e-07
3.45419e-08
0.000664542
8.64071e-09
2.15118e-07
2.30687e-05
3.43833e-06
5.2906e-09
4.95366e-09
6.16183e-08
6.39251e-09
3.1032e-08
0.000233554
1.93168e-08
0.00169896
1.10014e-07
5.36766e-08
0.00314722
2.88247e-09
7.32159e-06
1.83302e-09
7.84244e-09
0.00270866
0.003578
8.5627e-07
1.0891e-09
1.07061e-07
1.9839e-08
6.00478e-10
3.11839e-09
1.53404e-06
6.90827e-05
6.64697e-10
1.23985e-07
5.01367e-08
0.0014658
3.97866e-08
2.91997e-09
1.21694e-09
0.00057413
1.78536e-09
1.66567e-09
4.68143e-07
0.00334942
1.02453e-07
5.27469e-09
0.000647175
3.81082e-07
1.01001e-07
2.61715e-06
0.00232506
9.25342e-09
1.35463e-09
7.0374e-07
0.00273235
4.76971e-10
1.52268e-07
1.4497e-08
6.43446e-07
3.07384e-09
2.3625e-09
6.86686e-08
5.71245e-10
1.06021e-09
1.14762e-09
3.62818e-07
2.19589e-08
5.34812e-09
5.26516e-10
0.00190123
4.18734e-08
3.67875e-09
2.37997e-08
0.001915
5.51013e-09
0.000403389
8.30972e-09
0.000829308
8.51888e-08
9.52999e-08
2.82928e-07
1.67396e-08
2.97694e-09
1.41444e-06
2.54604e-07
1.60761e-08
8.69871e-09
4.29492e-10
0.000361923
0.00289888
4.02049e-08
3.59123e-07
2.39817e-06
0.000430952
1.03788e-08
7.76118e-09
4.28079e-09
1.4005e-07
0.00122087
2.13409e-08
0.00206212
0.00250592
4.95143e-09
9.99155e-08
1.36258e-09
2.66697e-10
1.25026e-06
1.35457e-09
0.00203385
9.28281e-10
1.45965e-08
1.25273e-06
7.95347e-10
9.80853e-07
0.0019164
2.6823e-06
1.43705e-08
3.30815e-08
1.82215e-09
2.10076e-08
1.08638e-08
1.10757e-07
3.59616e-09
1.41625e-10
1.04124e-07
0.00279682
0.00201717
2.81352e-08
9.8027e-07
1.13215e-07
0.000533996
0.00366891
0.000651137
2.09022e-08
2.9758e-09
3.62781e-08
2.04414e-09
0.00046052
2.49362e-09
0.000347123
4.46387e-08
4.3527e-08
5.15489e-08
8.49005e-10
6.77545e-06
1.09255e-08
0.000544826
8.51191e-10
3.38033e-08
2.05723e-08
0.000457509
0.00330051
3.28755e-09
5.39285e-05
0.00179784
3.64972e-06
0.00182709
0.00269791
8.14973e-08
0.00243865
0.00236496
0.00257384
5.40977e-09
0.00148346
0.00417841
0.00384
0.00276283
5.90586e-09
8.24672e-07
1.8808e-07
0.000404302
0.00163743
0.000434527
4.71857e-10
2.07387e-07
2.01083e-09
2.28794e-06
0.00189685
0.00175715
0.00292216
0.00218231
0.00249154
0.00166492
7.80907e-09
2.05705e-09
7.78478e-09
1.34285e-08
0.00138454
5.68533e-10
7.79689e-09
0.00196146
0.00116528
2.34646e-08
3.69435e-08
1.40856e-08
1.39367e-08
0.00125919
3.3389e-09
0.00211836
1.92324e-07
0.00321069
5.08062e-09
4.399e-08
1.86311e-07
2.02644e-06
8.71353e-08
4.51316e-10
2.14254e-09
1.2924e-07
0.00254332
6.58535e-09
7.32268e-08
1.96922e-06
6.1631e-07
1.15128e-07
3.41834e-07
1.40958e-09
1.15344e-06
1.65047e-07
6.08216e-08
4.61306e-09
0.00320809
6.3482e-09
2.19021e-09
2.01965e-07
3.50547e-07
9.28924e-09
4.46806e-08
6.16347e-09
0.00247468
4.41044e-09
2.04362e-10
6.93752e-09
6.33123e-08
2.03779e-06
8.22465e-07
2.17374e-09
0.00300893
0.00194625
2.34602e-08
2.14703e-07
1.5907e-08
1.94412e-08
2.51913e-07
4.11881e-08
4.43314e-08
1.96737e-08
1.68976e-09
1.64746e-09
2.50081e-07
4.04696e-07
3.96864e-10
4.23306e-08
0.00402041
2.12634e-07
1.53577e-08
0.00236662
3.71175e-08
0.000365619
9.71392e-10
1.18642e-07
2.04132e-07
1.2128e-08
1.71094e-08
1.11785e-09
8.17047e-08
2.13274e-09
5.24812e-09
8.29568e-09
5.76476e-09
7.9402e-09
1.35363e-06
5.41925e-08
1.60333e-08
2.67536e-09
6.87074e-09
1.00398e-08
7.0382e-08
2.48243e-08
1.70863e-08
3.46815e-09
5.06561e-09
3.86938e-09
2.18705e-09
6.30362e-06
3.29824e-08
2.80907e-09
0.00339739
0.0037079
2.91027e-09
0.00383937
1.82778e-08
5.45976e-09
0.00145126
3.56439e-10
1.35536e-08
0.00178826
1.87984e-09
0.000384881
4.29218e-08
2.56908e-09
4.50363e-08
2.99516e-06
1.48316e-08
5.17973e-09
8.95202e-06
0.000166992
1.87312e-08
7.41824e-06
1.82481e-08
2.28905e-09
3.07827e-08
1.91414e-09
5.05936e-09
1.46689e-08
1.92314e-08
1.61893e-08
2.57802e-09
2.23179e-09
0.0007685
1.71746e-09
1.65644e-08
1.00475e-05
1.51189e-08
1.81224e-09
1.21172e-06
2.25934e-08
8.56579e-09
0.000539254
7.7843e-10
7.61477e-09
1.9648e-07
1.57945e-09
4.39996e-08
1.30218e-09
3.19513e-10
4.36758e-10
0.00200336
2.31036e-09
0.000732636
3.91122e-08
0.00320781
1.49536e-08
3.28011e-09
0.000313347
1.15057e-09
1.35641e-08
1.79563e-08
1.6365e-08
1.98813e-09
0.00316742
8.11222e-09
1.68177e-08
8.51299e-10
4.13144e-08
9.2857e-07
0.00264966
0.000349775
7.35388e-09
7.94804e-09
1.64883e-09
2.90672e-09
0.00337486
1.35319e-08
4.42911e-09
2.47923e-09
0.00108744
0.00385602
1.53277e-08
1.25823e-08
1.57115e-09
1.1341e-08
4.29081e-09
4.12519e-09
5.14194e-09
4.92761e-09
3.63848e-08
7.87318e-05
7.32363e-09
5.02907e-09
7.88174e-09
1.82613e-08
2.53518e-05
0.00241926
1.09e-08
0.00266353
1.63148e-09
8.78892e-09
4.32835e-09
0.00269464
0.000211209
9.5632e-10
8.42458e-09
6.88327e-10
2.85922e-08
6.3211e-09
2.8496e-09
0.00151549
0.0032368
1.25297e-07
1.62409e-07
0.000607916
1.45312e-09
5.24055e-09
1.60702e-09
4.12462e-07
0.00210613
3.38694e-08
1.76084e-09
0.000439476
7.65155e-09
3.19008e-08
3.32325e-09
2.38083e-09
4.36301e-09
9.36203e-10
7.68753e-06
1.01492e-09
0.00182038
5.11827e-08
1.12045e-07
6.85307e-09
1.54029e-06
3.44502e-06
5.38732e-09
2.079e-08
0.00230811
0.00311018
7.30676e-08
3.86926e-09
7.57505e-07
1.5655e-09
0.00343736
3.11786e-10
1.95669e-08
0.000428463
0.00255407
4.12779e-09
1.60134e-09
1.96527e-07
5.87421e-07
3.53427e-07
0.000378101
0.00139637
1.13631e-10
6.61303e-09
7.84001e-10
4.64264e-09
0.00277529
2.71781e-08
0.00302987
1.00728e-08
0.00131534
0.00209609
0.00236424
6.19522e-08
4.12044e-09
0.000650603
1.2721e-09
2.33164e-10
9.6991e-10
4.35403e-09
1.81554e-08
4.52362e-09
1.48652e-09
9.1717e-08
6.73098e-08
7.52915e-09
2.72201e-09
0.00186397
4.18163e-08
3.68832e-08
0.000362167
1.00145e-08
3.48429e-08
3.82063e-08
1.94143e-09
1.36862e-09
0.00064694
0.00196309
0.00241493
3.87191e-09
1.11418e-08
6.86258e-09
1.63832e-07
0.00194561
1.39653e-09
5.70029e-07
2.58887e-08
1.31766e-05
0.000344566
0.00169856
2.2547e-07
1.4815e-07
2.23586e-08
0.00430847
0.000532164
1.88928e-08
8.85924e-07
3.5291e-09
6.81323e-08
3.45541e-06
0.00231962
2.45238e-08
1.20642e-07
1.00847e-07
1.59271e-05
2.50339e-08
0.00185618
2.48984e-09
5.17368e-08
1.16403e-08
0.00213069
7.06689e-10
6.56642e-09
2.079e-07
4.47504e-06
0.000599772
1.09256e-07
7.06121e-08
0.000383644
4.15026e-08
2.56519e-09
0.0019061
0.00219665
5.42521e-09
7.56332e-09
0.00040156
1.0152e-08
1.76294e-08
0.000373922
3.51334e-10
0.00265404
2.5936e-09
1.92883e-08
1.81587e-07
3.9787e-09
3.95825e-08
3.56381e-08
4.98214e-05
3.75425e-09
6.1467e-09
7.08612e-09
1.172e-08
9.70787e-08
1.52746e-08
0.000326091
6.75421e-09
2.03848e-08
0.00140036
5.73604e-08
9.83037e-08
9.36295e-06
0.00187032
2.40693e-06
0.000541423
6.92204e-09
0.000382985
1.5935e-08
4.1868e-09
1.56618e-09
0.00314075
3.78702e-07
3.25878e-08
7.12208e-05
6.44023e-08
0.00157968
1.67526e-07
9.82849e-06
3.53178e-09
0.00100439
3.15366e-09
0.00130439
5.38156e-05
2.44775e-07
0.000651795
0.00179453
1.22991e-06
1.10972e-05
4.11441e-09
1.13853e-06
2.51336e-08
4.09028e-05
0.000444794
0.00042878
0.00211174
3.52807e-08
3.21611e-08
0.000561237
4.60575e-08
0.00227711
6.84802e-10
0.000401155
2.28582e-09
2.67073e-09
2.93902e-05
0.000503639
0.000206113
0.000108542
7.69253e-09
5.11299e-09
1.84157e-09
0.000487196
2.06269e-09
0.00350804
0.00473707
2.47939e-09
0.000499717
2.07673e-09
9.77034e-10
2.9361e-09
3.13054e-06
0.000469637
2.93923e-09
1.2995e-09
1.05201e-06
4.44529e-09
1.12211e-07
3.78945e-09
2.99163e-09
8.89451e-08
2.63807e-07
3.13052e-08
1.04084e-08
0.000532567
8.11218e-10
0.000127644
2.69226e-10
2.48561e-09
0.00124247
1.50435e-09
7.77284e-06
8.98229e-08
7.44606e-09
0.00010882
1.25302e-08
0.00157163
2.7237e-08
4.59071e-10
0.00174583
5.70022e-09
1.13421e-08
0.000307138
1.24132e-09
0.00205968
1.69401e-08
1.42208e-09
0.00423001
3.05436e-09
5.25378e-09
1.49867e-08
1.6343e-08
0.000319936
8.27782e-09
5.60355e-09
1.65108e-07
0.00180902
0.000633463
0.000584062
2.2463e-08
1.77692e-09
0.000379941
0.00237001
6.79727e-09
8.57924e-09
5.57945e-08
1.16136e-08
2.827e-09
2.5738e-08
0.000412261
0.00144848
0.00262295
1.49183e-07
2.04006e-09
0.00267083
0.00400967
0.00520958
5.10182e-08
1.8091e-08
1.56809e-07
4.40667e-07
1.8098e-08
2.83938e-08
7.87734e-07
2.81599e-08
7.50565e-09
8.15775e-09
1.35006e-06
7.22162e-08
7.37978e-09
0.00254233
1.68357e-09
6.0062e-08
1.87545e-08
2.82298e-08
6.50198e-09
3.87e-10
0.000761136
1.89201e-08
3.11704e-09
0.00193674
1.90498e-08
2.39498e-08
0.00316676
2.90472e-08
3.33355e-07
5.71021e-09
1.99657e-08
2.4386e-08
0.000825683
3.03377e-08
0.0022005
1.82803e-07
1.98674e-07
3.66127e-08
0.0053311
0.000294948
4.59763e-09
5.48437e-09
9.92124e-07
1.44347e-09
1.11616e-08
8.55787e-09
0.00167349
1.16986e-09
2.29539e-09
8.16702e-09
2.47377e-09
3.57698e-08
2.36474e-08
7.52002e-09
0.000429221
0.00219275
0.000466221
6.29616e-08
0.00314145
0.00256242
5.62732e-08
1.76116e-09
0.00183296
6.44556e-06
0.0015463
0.00208209
0.00203123
3.32722e-09
5.88741e-08
0.00237827
1.94627e-07
3.34246e-08
1.90249e-07
2.64364e-08
0.000443748
2.09078e-08
0.00053842
1.69223e-05
2.57345e-08
0.00196237
2.00259e-08
0.000608738
6.89284e-09
1.72774e-08
1.19787e-09
3.99895e-08
0.00153624
0.00364919
1.26711e-09
0.000395622
0.00188714
0.00135368
0.00278213
5.67421e-10
1.01171e-08
1.17446e-09
0.00355409
7.64656e-10
1.29658e-07
0.00356033
5.34064e-09
0.00346985
0.00351585
0.00366741
1.54472e-08
5.72262e-08
4.62571e-08
8.7575e-09
1.10708e-08
6.15424e-08
1.26568e-08
5.08723e-09
0.000475229
4.13118e-09
3.70697e-08
2.76041e-07
5.23227e-10
0.00162321
2.92347e-08
4.63486e-09
6.67106e-08
2.68892e-10
7.0032e-08
3.89661e-09
2.02908e-07
0.00306601
3.13421e-05
8.91157e-10
1.56512e-08
0.00210099
0.00314921
1.78431e-07
0.000760361
1.00686e-08
7.81754e-09
0.00257389
2.20838e-08
0.00322072
0.000542245
1.04718e-09
7.20268e-08
0.0007658
1.71853e-08
2.51364e-08
0.00250174
6.35496e-09
1.36404e-08
3.11601e-09
0.000534599
3.14565e-06
0.00193141
1.82708e-07
9.36364e-09
0.00175023
1.24927e-07
2.59421e-10
5.9482e-06
2.18892e-09
7.18783e-07
0.00129385
2.76903e-09
9.49139e-10
1.13603e-08
5.90962e-09
1.54791e-08
5.86192e-09
1.26466e-08
1.00023e-06
9.51237e-10
1.24766e-09
0.00169856
4.66249e-09
5.45241e-06
2.92851e-08
3.93858e-06
1.36054e-06
1.17156e-06
5.37035e-06
1.26239e-06
5.34639e-09
1.65894e-08
0.00100312
2.5213e-06
2.49046e-08
2.26237e-08
2.49678e-08
0.00044909
1.3655e-06
7.87926e-08
2.28943e-07
3.45177e-09
0.00226352
4.72903e-09
1.22712e-08
2.08667e-08
1.18501e-08
2.99174e-08
0.00212657
5.58128e-08
2.40612e-08
1.86673e-08
4.76732e-09
0.000477735
2.24914e-09
5.18587e-09
3.35709e-08
2.51593e-10
1.41782e-09
6.15512e-09
9.36267e-09
1.37949e-08
0.000332606
1.14166e-08
1.31707e-08
2.3669e-09
2.0007e-08
1.24317e-08
1.01008e-08
5.84677e-08
0.000380629
0.00242459
1.54558e-08
7.85834e-09
0.00284486
1.66375e-09
4.30261e-05
0.00203065
4.95759e-09
7.12288e-07
1.53024e-06
0.00186592
2.20569e-08
3.18932e-08
2.17544e-07
1.74068e-05
8.68805e-07
2.15343e-07
1.4011e-09
3.71852e-09
4.26945e-07
1.0918e-07
5.63904e-09
1.52551e-09
1.25557e-08
7.54015e-09
3.00565e-06
0.00129371
6.41305e-08
3.59169e-08
5.10979e-08
0.002646
0.00244625
9.13301e-07
1.51461e-08
3.26839e-08
4.01426e-08
4.45925e-09
2.89638e-09
1.81466e-07
4.22201e-09
3.4574e-08
2.02121e-09
1.26646e-08
2.26777e-08
3.32312e-09
4.1592e-07
2.80996e-09
0.00043443
9.50186e-08
0.00394815
0.0016521
1.12395e-07
2.14915e-08
0.000579702
0.00034517
2.7828e-08
2.34688e-08
9.2819e-06
2.32181e-09
1.87879e-09
2.36449e-08
1.72757e-08
0.000781455
0.000646989
9.58585e-09
1.1797e-08
7.75818e-09
3.33312e-07
5.14414e-08
0.00267067
0.000496398
1.451e-08
0.000238788
7.04392e-09
0.000315416
0.000227735
0.000223585
2.81228e-08
1.04586e-07
1.75576e-09
1.01889e-07
2.54031e-08
0.00240348
4.88305e-09
4.1292e-08
6.87684e-09
7.70184e-08
2.2759e-05
0.0019451
0.00227798
2.25237e-08
2.97605e-08
0.000377608
3.99258e-08
1.03577e-06
1.04906e-08
0.00304786
4.06979e-08
2.2622e-08
8.54114e-06
0.0026231
6.83877e-08
2.28909e-08
0.00131291
2.01748e-08
4.65219e-10
1.3916e-09
4.46352e-09
3.16067e-08
1.3306e-08
6.35177e-10
2.21893e-08
3.71495e-08
1.15894e-08
6.06741e-08
1.8491e-08
5.51845e-07
0.00191142
2.8477e-09
1.60818e-08
5.63911e-08
0.00200065
8.73444e-07
2.01821e-08
0.000374795
2.87569e-09
2.25156e-07
1.4651e-07
0.000983775
3.60813e-07
3.19395e-10
1.22184e-07
1.40128e-08
1.22673e-07
5.10164e-08
2.91193e-09
1.48113e-07
6.8845e-09
8.695e-08
8.25839e-10
0.000584267
5.05202e-08
0.00207399
1.31008e-09
6.36327e-08
2.17055e-06
1.07264e-08
4.78371e-06
4.80499e-09
6.72659e-10
2.4452e-07
4.18437e-08
4.85067e-09
1.72011e-05
6.10941e-08
7.41965e-08
0.000547247
2.99722e-09
0.000563699
3.16068e-08
2.27104e-09
7.65349e-09
5.79899e-09
1.98102e-08
3.90801e-07
3.13467e-07
1.50785e-07
0.00237871
2.10847e-07
0.00393249
0.00209519
0.00329185
8.4942e-08
2.12955e-07
0.00143523
3.83775e-09
2.47972e-08
2.97846e-08
0.00236982
9.81081e-09
0.000635586
0.000492206
2.77224e-09
0.00262598
5.09775e-06
0.00264007
1.88978e-08
0.00249642
5.58891e-08
0.00034026
1.61793e-09
3.90706e-09
4.26869e-08
0.000746777
7.66186e-07
4.16061e-10
2.68408e-08
6.34656e-10
0.000532959
0.00031362
5.69974e-08
0.00190917
4.55537e-07
0.000544716
3.19657e-08
5.59164e-10
6.34784e-09
2.60204e-09
8.94449e-08
2.03612e-05
5.69141e-09
1.34173e-06
4.44522e-08
4.22344e-08
4.66435e-09
9.88273e-05
2.24317e-07
1.8677e-09
6.40075e-09
0.000432447
1.09271e-06
7.81798e-08
0.00152072
1.76172e-06
1.48586e-06
7.41437e-09
8.47883e-09
3.91531e-09
0.000681489
2.64518e-08
5.47521e-09
1.50247e-08
3.62637e-07
9.99659e-07
2.06767e-07
1.82181e-09
3.17065e-06
6.70154e-07
7.43865e-09
5.9823e-09
5.5053e-06
2.51808e-09
5.24286e-09
0.00238709
0.00220926
6.17958e-08
4.50387e-09
1.14281e-09
3.33748e-08
0.00192988
2.57834e-07
1.36626e-06
5.46678e-10
5.49499e-07
3.25991e-08
0.00112015
0.000444876
6.66525e-07
2.37811e-08
3.47404e-06
5.40022e-07
0.000100681
2.23793e-09
1.83119e-08
0.00118808
2.54998e-08
7.79983e-07
5.89879e-07
2.02641e-06
1.22788e-06
1.16776e-08
0.00162289
1.31061e-05
2.45581e-09
1.20845e-08
4.68147e-09
0.000427673
0.000113603
1.87592e-08
0.000637651
1.22937e-07
7.26064e-05
0.00282738
0.000398954
0.00281997
0.00183694
0.00221777
4.5591e-10
2.82952e-06
8.49768e-08
3.45649e-06
1.50279e-05
2.21391e-06
2.01853e-09
3.98543e-07
1.46731e-08
3.20269e-07
0.000761567
2.88325e-07
9.15136e-10
0.00178463
1.39274e-07
0.000207826
1.83734e-07
4.11115e-07
4.77702e-09
3.87614e-07
2.1211e-07
0.00151227
2.09716e-07
3.58126e-08
1.49537e-07
2.5965e-05
0.00129746
0.00131391
0.00293892
4.95019e-09
0.000502802
0.00149671
0.00175327
0.0014947
2.28939e-07
0.00217389
2.67857e-07
4.74677e-09
5.3813e-09
6.47072e-09
0.00147152
0.0017686
5.63679e-09
1.46986e-08
8.41604e-09
4.08735e-07
0.000298092
0.00368285
0.00135431
8.22521e-08
0.00247916
8.58652e-10
3.61172e-08
0.0010892
0.000804589
5.36358e-09
2.76153e-06
1.22448e-08
6.37406e-09
0.00352033
6.35083e-09
0.000423314
1.17159e-09
0.00037871
0.000405408
0.000581335
0.00190917
3.24501e-07
0.00161698
1.26917e-08
1.18277e-05
0.000460548
0.00124696
0.00220787
0.00109661
7.53623e-09
0.00124434
9.00975e-09
1.59398e-08
0.00292725
1.64016e-07
6.66264e-06
5.62596e-08
5.20193e-08
0.000573413
1.43368e-06
3.3342e-09
1.49064e-07
4.34927e-07
0.000403271
0.00219808
2.72747e-07
7.63418e-09
0.000614682
1.86451e-08
1.56979e-08
5.11373e-08
6.04933e-07
0.00214102
3.82454e-09
0.00241652
8.39037e-10
0.000256108
0.00433597
8.69179e-09
3.0269e-06
0.00242903
4.99745e-05
5.17375e-06
2.47164e-09
0.00177884
0.00277878
5.10795e-10
0.0004891
8.32715e-07
0.000618779
1.4912e-08
8.52147e-07
5.12155e-07
3.52739e-08
7.75097e-11
0.000345759
0.00131341
6.51374e-09
1.20989e-09
0.00218108
1.11133e-08
2.21054e-09
3.73718e-08
1.87561e-09
7.87773e-08
0.00354114
0.00209418
2.6593e-08
5.44472e-10
0.00221122
1.99331e-07
0.00270355
2.78047e-09
1.90419e-06
4.59009e-08
7.42719e-09
2.75135e-09
1.0884e-08
0.00333575
5.05844e-09
2.8047e-07
0.000274717
0.00237604
0.00045309
1.37838e-08
1.17553e-06
2.567e-09
0.000229224
0.00228076
8.91534e-10
3.7621e-09
3.97901e-08
3.3087e-08
0.00050253
2.61946e-07
0.000529724
1.92221e-07
6.6182e-09
5.8696e-11
4.96939e-08
0.000221086
0.000394062
5.42795e-09
0.00384295
0.00245682
8.68562e-09
3.17217e-10
3.92699e-09
7.33451e-09
3.80249e-09
1.52836e-08
0.00275142
0.000619943
0.000514081
7.76041e-05
0.000348204
0.000381682
2.75361e-09
4.27068e-08
1.56207e-09
3.02263e-08
1.88919e-08
0.00234601
1.07049e-08
4.9199e-09
0.00111864
1.90238e-08
7.62531e-08
8.77647e-08
1.65519e-09
8.36825e-08
3.50515e-08
0.00219884
5.36875e-09
1.44389e-08
4.17236e-09
1.58549e-08
2.14223e-08
0.00375555
4.52648e-07
1.14686e-07
7.35894e-08
1.05918e-09
4.52161e-05
1.20077e-06
3.16548e-09
5.76571e-07
1.24972e-05
1.01601e-08
1.13428e-08
1.0341e-05
3.30575e-06
2.49566e-07
0.00304069
3.87978e-09
3.97286e-07
1.45215e-06
0.00282691
2.23697e-07
4.24693e-10
1.92075e-06
1.56194e-05
3.43767e-07
1.00795e-08
1.6991e-07
4.59905e-08
6.61629e-08
1.99155e-08
3.31296e-08
0.00183423
2.17766e-09
1.18301e-08
1.06859e-08
6.92596e-10
4.60337e-09
9.4861e-10
0.00421407
1.25328e-07
1.95283e-09
3.30969e-09
3.13839e-09
1.07977e-09
4.96173e-08
5.14429e-09
2.81668e-09
5.34323e-08
1.33783e-08
0.00220951
3.05292e-09
0.000384345
3.54919e-08
1.18677e-07
1.8112e-08
1.20933e-06
1.01785e-09
0.00315761
9.45002e-09
0.00178974
2.96299e-07
4.04445e-08
1.35704e-08
1.8218e-06
2.74967e-09
3.62434e-09
2.93623e-09
0.000259125
0.00062665
0.0021366
1.01274e-07
1.56833e-07
0.00227822
1.72214e-06
3.37402e-09
1.37648e-08
2.87303e-07
1.03375e-08
0.00411989
2.81706e-06
0.00307944
2.82111e-08
7.67206e-09
0.00158796
0.00144431
0.00174765
1.6615e-08
1.4739e-06
0.00186871
1.67457e-09
1.23084e-05
1.51517e-07
0.00177478
0.000459331
1.81307e-07
0.00230819
2.04492e-05
6.22166e-07
0.00205402
0.00216973
1.91721e-08
0.00237785
0.00300975
0.00180853
2.49423e-08
4.37977e-09
6.09245e-09
7.48359e-10
2.92788e-09
0.00163013
0.00275219
0.00182467
2.58731e-09
0.00303334
2.76697e-09
0.00228067
0.00249127
5.76885e-09
3.66909e-08
0.00165391
2.45861e-08
1.3358e-08
3.19457e-07
4.46571e-10
0.00256031
0.00199031
8.3046e-07
0.00163474
4.20715e-09
3.05143e-09
7.10282e-09
3.31407e-08
6.712e-08
3.13245e-07
1.20999e-09
5.65447e-09
1.41952e-08
8.12695e-09
6.25575e-09
1.04385e-07
3.66244e-10
2.32524e-08
2.11224e-06
1.15395e-08
3.43848e-08
2.77778e-09
1.23114e-07
1.56338e-09
5.11002e-09
2.22443e-07
1.55668e-09
3.04531e-09
0.00188087
3.46117e-08
5.18181e-09
6.52806e-07
3.12835e-09
1.47563e-08
4.83025e-08
0.00185694
9.31605e-08
0.00220804
0.00148587
1.73799e-08
2.07488e-08
5.79876e-08
6.57391e-09
0.00157707
4.94894e-08
2.25104e-07
3.66251e-07
2.9057e-08
0.00235742
0.00149677
1.88395e-09
3.12852e-09
7.05432e-09
6.37352e-08
5.88356e-08
7.44866e-09
4.16137e-07
5.32186e-09
1.49201e-06
2.49223e-09
1.52218e-09
6.3239e-09
1.5538e-08
2.33308e-07
8.0646e-09
1.88928e-08
0.00429575
0.00144845
0.00257013
0.00155371
1.48874e-06
1.18683e-08
0.00201319
6.96276e-07
6.75963e-09
0.000410059
1.31921e-09
1.44723e-07
0.00235104
4.39804e-08
1.25377e-07
2.30287e-08
4.27449e-08
0.00139987
8.20499e-09
9.37216e-10
2.03703e-07
2.66174e-09
4.6857e-07
5.9711e-06
6.71668e-08
0.00211102
4.18297e-08
0.000460455
2.65514e-07
0.00209869
3.87113e-10
5.06068e-09
2.68126e-07
3.85114e-09
0.00183883
3.83328e-07
0.000517907
1.49302e-07
1.84386e-07
1.33834e-07
2.66308e-08
8.53413e-09
4.94666e-08
3.01755e-06
4.04854e-08
2.60582e-06
0.0032475
5.37064e-08
0.00421542
5.61691e-09
2.44861e-09
4.61847e-06
0.00186418
1.40672e-08
1.32569e-09
9.05048e-07
5.72282e-08
3.37653e-08
0.0023397
1.34772e-08
6.09761e-07
0.00262079
1.35914e-09
8.0855e-09
4.18225e-07
9.95596e-10
8.1532e-09
0.00253087
5.33758e-09
0.00276767
2.31969e-08
2.15547e-07
3.90298e-08
0.000894196
6.00927e-08
2.79028e-08
1.48661e-07
0.00253483
1.58909e-06
1.25702e-08
9.33939e-09
1.2472e-07
0.00207267
3.46019e-09
5.17643e-08
6.29794e-08
1.59044e-06
0.00252798
0.000270147
0.00119102
1.75359e-08
0.000358005
1.31718e-08
8.95799e-07
0.000789376
1.15712e-08
0.000880778
3.29323e-06
4.85222e-09
2.64063e-09
1.20147e-08
0.00253348
1.53093e-08
2.42966e-09
2.59585e-07
1.12171e-08
5.6594e-09
0.000301389
2.716e-09
4.5024e-08
0.00242972
1.26344e-06
4.53539e-09
0.00203794
3.25769e-06
6.50469e-09
1.37388e-08
1.20248e-05
4.29416e-08
2.25188e-07
1.67318e-08
4.13196e-08
6.01963e-08
4.73773e-06
0.00109783
4.84349e-08
0.00248243
1.50798e-08
3.79751e-08
0.00271653
3.08404e-08
7.83739e-08
9.57219e-09
1.29804e-07
0.00237011
2.98587e-08
2.12489e-08
0.00163484
5.79644e-09
0.00266884
1.40058e-09
7.66667e-09
1.05002e-09
9.14018e-09
0.00151682
5.3996e-08
1.41117e-09
2.58197e-09
1.43733e-08
5.28547e-08
0.00255059
4.76674e-09
4.62515e-09
1.88849e-09
1.55165e-07
5.30453e-06
5.03296e-09
0.00156978
3.50563e-08
1.0141e-08
6.28893e-09
5.11652e-08
0.000429642
6.49683e-07
1.61838e-10
1.00495e-09
0.00182631
0.00217025
6.14539e-08
3.84575e-09
0.00183581
1.68759e-08
9.06877e-10
0.00356011
9.064e-09
0.0027531
2.89675e-07
1.75185e-08
2.0157e-08
9.7695e-09
9.55083e-09
4.41986e-09
3.04885e-05
7.4218e-07
2.26737e-09
4.01372e-08
5.55079e-08
5.32195e-09
0.00257883
8.69501e-09
1.33415e-08
0.00197397
2.61759e-08
3.59108e-08
2.89777e-10
0.00228719
2.82111e-08
1.33022e-07
3.28746e-09
3.69998e-08
4.03212e-09
0.00233771
5.92953e-09
6.97924e-09
0.000612288
1.07406e-08
7.10891e-09
0.00233158
6.53118e-08
3.86414e-10
3.13052e-08
5.95985e-09
0.00188353
4.41505e-07
5.98792e-08
3.4588e-09
4.03054e-07
1.41518e-07
8.68004e-09
1.37506e-09
1.02861e-09
3.4023e-08
1.04667e-08
8.73544e-10
7.81362e-09
7.08483e-09
1.05582e-08
0.00231613
6.96472e-07
1.48098e-08
2.04813e-09
9.42387e-10
0.00219993
1.94665e-08
0.00327813
9.35656e-07
0.00158578
7.84e-10
0.00215251
0.0029264
8.71618e-09
9.38213e-09
8.96007e-08
0.0021051
0.00251641
3.07017e-07
7.53728e-09
2.50185e-07
1.05273e-09
2.22895e-07
8.6373e-09
9.43068e-08
1.66318e-08
1.47249e-09
3.90078e-09
8.50832e-10
6.21021e-09
9.26227e-09
3.7976e-09
5.0816e-09
1.52466e-08
9.00876e-08
3.33933e-11
3.36194e-09
7.39856e-10
5.68728e-09
1.52602e-09
1.74859e-07
0.00189957
0.00279691
4.50609e-09
0.00222574
1.39918e-08
3.072e-09
4.4785e-09
1.64397e-06
1.8103e-07
7.18481e-08
9.92315e-10
1.1039e-08
2.14241e-09
7.92992e-09
1.60386e-09
1.28318e-08
1.41445e-07
0.00158849
2.43823e-09
2.11861e-08
0.00140344
0.00178429
0.00219801
0.00206384
0.00176517
4.66195e-08
3.7793e-08
2.88551e-09
7.89232e-09
7.60846e-09
1.34099e-06
3.94495e-09
2.93646e-08
3.41227e-08
7.1942e-09
2.23324e-09
2.65709e-09
7.43433e-07
3.15508e-06
3.96503e-07
5.99443e-09
1.67337e-09
3.22754e-09
0.00284209
2.54227e-09
0.0018527
1.05656e-07
8.77479e-09
7.52675e-07
0.00105424
6.75842e-08
4.06998e-10
3.78042e-09
3.21264e-08
1.50922e-09
2.37828e-08
8.30193e-10
0.00110408
3.45641e-10
4.18272e-08
0.00284451
2.92278e-09
0.00133037
5.86604e-08
0.00216661
9.95406e-08
0.00121971
3.54999e-10
0.00289481
0.00232084
2.79802e-08
4.27892e-09
0.00158363
1.96254e-08
0.00187001
1.70343e-08
7.78906e-09
5.0904e-10
1.66412e-08
2.04728e-08
1.50434e-08
6.36731e-07
0.00292399
0.00166192
1.21628e-06
3.74569e-09
3.48111e-07
0.00305625
0.00136148
0.00236578
0.00234399
5.3107e-09
6.04685e-08
2.75701e-08
1.25178e-08
0.00303581
6.5096e-09
0.00148775
0.00321499
5.46264e-09
3.1406e-09
0.00160518
0.00302784
2.82718e-08
9.24999e-10
0.00169035
9.04124e-08
2.55843e-09
4.67105e-07
9.72841e-08
0.000406459
7.13685e-08
5.63931e-08
2.47634e-07
2.69524e-07
9.07425e-08
3.89619e-09
4.86234e-09
1.06257e-08
2.02629e-09
2.06003e-08
8.68188e-09
1.79229e-10
2.2677e-09
0.00200652
0.00284307
3.41722e-10
2.54442e-08
6.63641e-09
2.78951e-09
4.79221e-07
1.94956e-08
2.35341e-09
0.00270664
0.00150582
0.00144864
0.00162329
4.86713e-08
0.00136254
2.54934e-07
0.00376678
7.33774e-10
0.00227613
2.73053e-08
3.6471e-08
1.55543e-07
6.19461e-10
0.00294104
1.8541e-07
0.00423729
5.91764e-09
9.41168e-10
9.10005e-09
8.96454e-09
0.00133978
0.00286832
1.39137e-10
3.4267e-09
2.43546e-08
0.0016744
3.88472e-09
0.00280308
3.40403e-07
1.9307e-09
5.78983e-09
0.00241509
3.5086e-08
0.002136
8.20497e-08
0.00383023
0.00319964
7.75387e-08
3.72557e-09
0.00352896
8.63671e-09
8.52449e-07
0.000344637
1.5489e-08
1.39648e-07
2.28428e-08
8.85057e-09
0.00300982
3.93694e-09
7.39731e-08
3.87417e-10
7.036e-08
4.53397e-09
5.33015e-09
1.5144e-08
1.00658e-08
1.71098e-08
0.00294979
2.14148e-08
2.76915e-08
4.71903e-09
1.43812e-08
8.9327e-09
9.44458e-09
1.16521e-08
0.0021742
8.6328e-09
0.00293682
0.0018958
4.91003e-09
0.000360669
2.9459e-09
3.31692e-09
2.61273e-08
3.48608e-08
3.00751e-08
0.00152604
0.00202693
1.10344e-07
1.04253e-07
8.31611e-08
0.00305482
0.00110992
4.82287e-08
0.00216367
0.00439076
1.23806e-06
0.00258961
0.000410463
6.30372e-09
7.82279e-07
2.53376e-08
0.000563894
6.74193e-10
0.00252482
3.30989e-10
2.32253e-09
0.00063646
0.00034171
1.94671e-08
0.000460442
4.23206e-08
1.04512e-07
2.57943e-08
2.68553e-09
3.94074e-07
2.87595e-09
4.7787e-09
0.00243089
1.32382e-08
1.38689e-08
4.41343e-09
1.21996e-07
1.66641e-09
4.58149e-05
2.96481e-08
2.03245e-08
7.89025e-08
1.641e-07
0.000297091
0.00227272
4.17876e-08
6.91002e-09
0.00236629
0.00234101
3.69971e-08
2.28485e-08
1.24008e-08
3.15355e-09
3.05971e-08
1.10493e-08
0.00200151
0.00433476
6.10564e-09
2.04094e-09
3.80997e-09
6.01635e-09
0.00246899
0.000394486
1.7606e-09
1.81035e-08
1.53383e-08
0.00211915
1.04957e-05
1.09125e-06
0.00194328
2.49421e-08
2.50647e-08
4.87767e-09
4.11858e-08
2.53083e-08
0.0022046
5.2574e-08
0.00031065
5.51818e-09
6.25486e-09
0.00320555
0.00260272
7.55635e-09
0.00306977
1.08055e-09
1.47522e-09
4.53111e-07
4.95896e-09
3.5717e-09
0.00179283
2.67172e-08
1.23831e-07
0.00385012
1.21667e-08
0.00155112
0.00300648
1.55673e-08
0.00319276
1.44514e-08
1.27444e-08
1.78581e-08
1.87122e-07
9.82274e-09
4.63639e-08
5.97749e-09
2.43826e-08
4.82914e-07
1.95491e-08
0.00232333
6.50973e-09
0.00301313
8.37673e-10
1.1509e-08
5.30986e-09
0.00231064
8.48832e-09
0.00223804
0.00192356
0.00309694
1.5697e-08
0.00209364
1.44414e-07
2.13895e-08
3.14972e-09
7.91243e-09
1.27043e-08
7.64308e-08
1.4218e-07
2.84731e-07
3.41994e-09
0.00282195
3.20311e-08
1.17176e-09
9.02186e-10
4.46256e-09
7.02255e-10
0.00200403
3.58757e-08
0.00294253
2.69796e-08
0.000624957
3.59846e-09
3.64297e-09
0.00176862
0.00346412
6.6585e-08
3.73054e-09
0.00375495
1.56777e-08
1.07864e-09
3.32853e-09
1.31528e-08
6.28366e-10
1.37727e-08
1.50808e-09
1.40836e-08
2.85135e-09
5.93671e-08
2.70097e-08
0.0024622
5.49219e-07
1.02169e-07
1.12185e-08
4.64563e-09
0.0020884
1.39829e-08
0.00298254
4.13289e-08
2.80394e-08
6.63908e-09
6.182e-09
7.96542e-08
7.42752e-07
0.00129735
0.00121784
7.98857e-09
0.00369086
2.41546e-08
0.00276916
9.04015e-09
1.26954e-08
2.94375e-09
0.00259955
0.00127755
0.000427454
4.44675e-08
2.02847e-09
0.0012897
5.29179e-09
3.3107e-09
8.97922e-09
5.34063e-09
0.00237148
0.00202094
1.78906e-08
3.15055e-08
5.16292e-08
3.90786e-09
3.26147e-06
1.81671e-06
6.20023e-09
2.43478e-08
0.00157767
8.78164e-09
3.11608e-08
1.09063e-09
3.00237e-08
4.49384e-09
0.00226812
4.55582e-09