/*--------------------------------*- C++ -*----------------------------------*\
  =========                 |
  \\      /  F ield         | OpenFOAM: The Open Source CFD Toolbox
   \\    /   O peration     | Website:  https://openfoam.org
    \\  /    A nd           | Version:  10
     \\/     M anipulation  |
\*---------------------------------------------------------------------------*/
FoamFile
{
    format      ascii;
    class       volScalarField;
    location    "23";
    object      SgT;
}
// * * * * * * * * * * * * * * * * * * * * * * * * * * * * * * * * * * * * * //

dimensions      [1 -1 -3 -1 0 0 0];

internalField   nonuniform List<scalar> 
59698
(
0.0131364
5.02232e-15
8.81167e-14
1.9866e-14
0.0302631
2.82077e-19
8.13599e-15
6.32696e-14
2.10066e-16
1.93068e-17
5.55864e-16
7.15467e-14
1.47925e-17
1.1249e-14
0.000356266
9.51128e-17
5.5975e-15
1.81958e-13
6.75824e-14
3.35945e-15
0.00135721
0.0140217
1.20445e-07
1.58646e-18
0.0423157
1.24008e-13
5.05728e-15
0.000792038
0.00679273
0.00742882
0.00480701
9.01957e-17
2.31454e-16
0.0125044
0.00240507
1.17362e-13
0.018683
0.02048
6.5783e-14
0.0227214
1.63302e-15
2.59663e-18
2.17528e-15
2.0293e-15
9.38723e-18
0.031882
2.29038e-13
8.82885e-16
2.58523e-16
9.05992e-15
6.76227e-16
1.21515e-13
4.89429e-14
1.98342e-16
0.00927675
1.11075e-13
3.1067e-15
0.000212264
2.6089e-15
0.0028182
3.42806e-15
6.62534e-15
0.122508
8.39488e-14
0.0126225
5.58126e-15
9.13808e-17
1.46512e-13
1.15527e-13
4.09904e-15
7.93581e-10
5.86737e-15
3.02963e-06
0.0418211
2.38815e-18
0.0393768
3.52512e-16
0.000302178
8.74997e-15
0.00614445
0.00888396
2.23107e-15
2.29607e-17
6.88909e-14
0.00839329
1.62774e-16
1.02201e-16
1.81299e-14
0.0635697
2.62096e-15
2.44266e-16
4.41305e-16
0.0147688
3.36126e-14
3.84171e-14
2.09008e-14
0.00535333
2.57915e-14
0.000271652
1.73041e-18
0.0733028
0.00178199
0.0162158
0.0120811
3.0861e-14
1.78633e-16
1.46879e-13
3.93193e-15
4.53346e-17
1.75753e-17
4.5876e-14
1.60091e-15
0.0380258
3.14249e-18
4.87077e-14
6.69365e-14
3.46957e-14
2.79684e-14
2.24754e-14
6.16244e-17
7.0713e-15
1.1405e-15
2.12955e-14
6.26292e-17
2.02697e-16
1.15105e-15
6.20757e-09
2.54689e-17
2.34133e-16
6.50984e-15
0.0412453
1.41526e-14
1.75907e-16
0.100066
0.00422874
4.0846e-16
8.21636e-15
4.51243e-17
6.33621e-14
2.81224e-15
4.91165e-14
2.7791e-14
6.05821e-16
4.18659e-15
1.20947e-14
9.13121e-16
4.94389e-14
2.93651e-14
8.14023e-16
0.0293528
4.2326e-05
1.00238e-15
0.00066098
1.46939e-14
4.01184e-15
3.85525e-15
1.35535e-13
1.08275e-14
0.0123953
7.82913e-17
0.000353539
2.48536e-14
0.0164017
0.00175726
0.00330671
0.0323406
1.85528e-13
0.0713351
0.000758346
2.07061e-15
0.0120455
2.34268e-08
0.0108066
0.0147612
0.0793937
9.56617e-15
1.48411e-17
5.02848e-05
2.17103e-16
0.00635943
0.00944164
0.0182063
0.0147937
1.07146e-14
0.0460338
0.000237553
0.0114806
1.45929e-15
2.18755e-14
1.38725e-15
1.22665e-14
6.09873e-15
0.00266825
0.0388454
0.00404434
3.57238e-16
0.00982815
0.054876
1.40827e-05
0.00774553
5.69654e-16
0.00626943
0.021061
1.08249e-13
0.00686784
3.08014e-16
0.00603487
4.50309e-15
0.00306099
0.0079718
1.20608e-14
3.73188e-15
0.000191895
4.25202e-17
2.03697e-12
3.64299e-15
1.08731e-14
2.2596e-14
0.0126247
5.54892e-12
0.00559075
3.09996e-12
9.31231e-17
0.0660926
5.73523e-16
0.0235544
1.88951e-15
3.08758e-16
0.00682648
0.158184
9.42388e-17
7.38094e-16
1.68057e-15
7.52413e-16
1.50997e-14
7.39759e-16
0.0825812
5.74874e-14
2.70606e-14
9.78503e-16
4.98125e-15
0.00143705
0.0135495
1.9199e-18
2.61573e-15
4.55199e-14
0.00376694
0.227243
3.25984e-15
1.44435e-13
1.92134e-14
3.527e-15
9.82608e-16
1.14435e-15
1.40784e-13
9.89505e-16
3.1645e-14
1.93411e-15
2.12773e-14
1.94101e-14
6.80783e-06
4.71969e-17
1.8065e-15
4.63678e-15
4.83284e-16
0.0473099
9.58764e-16
7.65781e-15
1.51285e-13
7.2229e-14
1.40967e-13
0.0438231
0.000154343
1.5708e-14
0.0179647
4.81217e-15
2.7119e-15
8.68311e-15
0.00424091
1.44238e-16
5.35707e-16
8.91581e-15
1.26547e-13
0.104371
0.0453496
0.0202629
5.24233e-16
3.36882e-10
0.0727868
1.33106e-15
0.0906213
2.26258e-15
1.42687e-13
8.17054e-14
7.73437e-16
2.77442e-14
1.15947e-14
9.12377e-16
7.31698e-11
7.85279e-15
9.70872e-15
1.04084e-17
8.10887e-18
2.46238e-14
9.53091e-14
8.19851e-14
0.0522125
1.39073e-15
2.02623e-16
7.61392e-14
2.44424e-14
1.51616e-14
4.3384e-14
1.00003e-19
1.27826e-14
2.27917e-16
1.85051e-17
2.92048e-15
6.87591e-19
1.30924e-14
6.84528e-15
0.323472
9.24169e-15
6.4376e-18
0.0488054
0.0104657
1.90953e-15
5.69608e-15
1.49389e-16
8.76366e-17
0.0066701
4.58413e-16
0.0204874
0.204724
5.05165e-16
1.25056e-15
1.65124e-14
1.92241e-15
0.0112998
9.0945e-13
5.93237e-16
4.50843e-15
4.523e-14
2.17938e-14
9.23976e-05
6.51234e-14
3.30391e-15
0.0397019
8.7229e-15
5.53923e-13
4.99479e-16
6.8658e-15
0.0400358
8.74483e-19
0.24471
0.000257727
0.0140301
8.62795e-14
1.96194e-14
2.51679e-16
1.1424e-14
3.99781e-15
1.32446e-15
1.9507e-15
2.08592e-17
1.45961e-18
6.92458e-14
7.88568e-17
3.54518e-14
0.00165148
0.00189996
8.94944e-17
4.90518e-14
4.6696e-18
3.25796e-15
2.76847e-17
2.71675e-14
2.26531e-14
2.6045e-17
6.61642e-16
1.43077e-18
2.63556e-14
9.87933e-14
5.36905e-15
5.19636e-14
1.30814e-05
3.28133e-14
1.35683e-17
5.11072e-18
6.48208e-14
8.77927e-16
1.79337e-17
6.07954e-16
0.00265258
0.00128761
0.00048481
0.0482772
3.56303e-14
1.21501e-14
9.96267e-15
0.000137076
1.55098e-15
5.47038e-15
1.74973e-14
2.38947e-14
8.03612e-15
0.0812084
0.0254794
1.74942e-16
0.00538786
0.0313527
7.7785e-16
3.24345e-16
9.20238e-16
3.06557e-14
0.0593993
7.25681e-14
0.0103034
0.000509482
8.23585e-05
7.97767e-15
1.08526e-14
3.80591e-16
0.308974
3.88406e-14
4.26288e-14
2.12423e-15
2.74178e-14
2.28178e-14
3.45596e-17
1.03767e-15
0.000189446
0.0151958
1.6527e-14
0.00210105
1.40233e-16
3.17039e-16
0.211569
3.24199e-14
0.0010856
6.24393e-19
6.53673e-14
1.19014e-16
2.54131e-14
1.08606e-14
0.00239581
0.0699666
8.18421e-20
6.71517e-14
0.00894688
8.35765e-15
9.51022e-14
1.09391e-15
0.0328229
4.08132e-15
7.25852e-14
0.108694
3.44595e-18
0.00981225
9.67556e-14
0.0542806
1.65516e-14
0.0127824
0.0133242
3.08497e-17
3.90175e-15
6.38548e-15
2.97971e-16
2.63487e-15
2.29726e-16
8.05179e-16
2.97409e-17
5.33855e-17
1.31432e-16
7.00913e-15
6.97059e-15
0.00112279
0.0689273
3.99997e-16
3.05292e-16
9.44246e-15
4.28439e-15
3.56999e-15
1.74591e-16
0.00539309
1.87734e-14
9.03163e-15
8.42646e-15
0.0657762
1.69988e-15
0.0229994
0.0659498
0.00112536
3.22375e-15
0.0500543
3.70641e-15
3.08422e-14
7.1734e-15
0.000982434
1.26958e-16
6.57686e-18
0.0638526
0.00750958
2.1597e-16
4.19584e-16
1.54583e-17
3.30282e-14
6.99365e-17
6.72623e-15
0.000619117
2.22262e-15
0.0747926
0.00726642
1.88605e-18
7.187e-17
2.40447e-14
1.92119e-17
1.97212e-14
2.32312e-17
1.58271e-18
0.000769536
1.26198e-15
1.56083e-14
3.2949e-17
4.72266e-18
0.00126938
2.05398e-15
1.19209e-13
8.23398e-09
1.27996e-09
1.31799e-14
0.0392766
8.74721e-19
5.78807e-14
2.06734e-14
1.27515e-17
1.35309e-18
6.87925e-05
2.99415e-14
7.41242e-16
2.39116e-08
2.6117e-14
8.86644e-15
0.0672286
5.95549e-15
7.57102e-08
0.00991388
6.2668e-06
9.76141e-16
3.84733e-07
4.07548e-14
6.87443e-17
1.59516e-14
7.82807e-17
3.40053e-14
2.81504e-14
1.47159e-16
3.71861e-15
1.37185e-15
4.02534e-14
1.27677e-16
1.99015e-15
1.99916e-14
8.27567e-05
1.49958e-14
2.56063e-17
0.0739728
3.77124e-14
4.80925e-15
8.47814e-16
1.68834e-14
3.25975e-13
3.50901e-16
1.36474e-15
3.3439e-16
8.82677e-16
3.72134e-15
1.06764e-15
2.49695e-16
7.19869e-17
5.28545e-19
1.33267e-13
0.00195576
9.04166e-14
3.62152e-15
2.30712e-16
3.66844e-15
1.61843e-13
0.00415327
9.73461e-16
8.53572e-16
5.05056e-16
1.57387e-13
4.68815e-14
3.82578e-18
1.12484e-14
1.3144e-12
0.00167736
1.07364e-17
8.15962e-17
1.75281e-14
2.65817e-16
9.63354e-17
2.37975e-14
3.32017e-15
3.56949e-16
2.31031e-13
7.10931e-18
1.22729e-15
1.02119e-14
1.26365e-14
9.73437e-16
1.49545e-14
3.97039e-15
2.58122e-15
2.07362e-15
1.98032e-14
0.225349
1.87742
1.73777e-14
1.05739e-16
7.22343e-16
7.32113e-15
0.000923467
4.02959e-16
2.77359e-14
0.00011604
8.62369e-16
2.94739e-16
8.69856e-16
7.07164e-16
2.74287e-16
4.29262e-14
2.69428e-15
5.61507e-14
2.99413e-15
1.90593e-16
2.77815e-14
6.43299e-15
0.106582
4.97702e-17
6.29021e-15
2.64662e-15
5.05245e-17
1.62625e-15
4.84242e-16
2.933e-14
1.29241e-15
4.25324e-14
1.83801e-16
3.97166e-17
5.69471e-14
0.00343904
3.64236e-15
1.71666e-14
8.09475e-14
2.99774e-15
2.80039e-07
9.48925e-13
1.17576e-16
3.58656e-15
8.35489e-18
2.201e-07
0.019833
0.0904647
2.18681e-14
3.27617e-15
2.67081e-15
1.31712e-15
0.0415668
9.4013e-18
1.35295e-14
2.85897e-13
8.78333e-15
2.10868e-13
2.91547e-15
4.24489e-18
2.93045e-14
0.0473963
1.19717e-13
6.381e-16
8.17763e-15
3.74573e-19
9.47329e-18
1.47608e-15
3.90439e-15
2.88181e-15
9.67328e-14
7.91673e-16
0.00852163
1.69446e-15
0.0363034
1.08562e-15
1.91551e-15
1.48325e-15
2.44484e-14
5.1792e-14
8.72948e-18
5.43231e-18
1.68022e-13
5.21644e-17
6.08012e-17
4.46394e-14
4.01269e-15
8.62905e-14
2.02283e-15
0.00643328
1.61082e-14
1.49985e-14
2.59118e-17
7.46952e-15
1.57785e-18
6.62636e-14
6.16088e-17
5.58551e-15
0.000461921
4.36872e-15
6.73304e-15
7.77514e-16
2.8201e-17
0.0600466
0.000231587
7.97532e-15
4.26254e-14
3.45178e-16
0.0230063
0.00683971
4.09691e-17
0.0554145
1.16036e-14
0.00253961
4.72412e-18
0.00771727
6.78743e-05
2.69748e-18
0.0111986
6.19837e-15
8.28136e-16
0.000456465
0.0604574
7.00787e-14
3.79393e-14
0.244566
1.29381e-14
6.06966e-16
1.60722e-15
0.00190638
0.00167755
9.14434e-14
0.0133404
1.7924e-14
0.0600017
1.47022e-14
0.0225139
1.78603e-16
8.37804e-14
0.105194
0.236401
1.0796e-15
1.06212e-14
0.0424548
3.26543e-17
0.000535027
0.0002986
4.59957e-15
0.000561776
0.000384717
2.40578e-14
4.21613e-16
0.00108527
0.0143798
4.78224e-17
2.04503e-18
1.48283e-15
8.70715e-17
8.9905e-15
1.89228e-14
4.21865e-14
0.00203585
0.00137775
1.23204
1.44581e-17
0.0252042
4.16813e-16
0.00857362
6.36424e-15
0.00190632
2.40297e-18
0.000954053
0.00162985
4.46214e-14
0.00663581
0.0111576
0.104811
1.387e-16
0.00545852
1.52282e-16
8.36887e-17
1.67476e-16
2.80059e-14
5.08212e-15
2.36294e-16
4.11771e-14
4.66383e-14
0.00800739
0.00014536
1.4333e-15
4.95321e-15
1.94124e-17
0.00682428
1.11044e-16
1.18857e-16
9.29156e-14
8.3698e-11
6.14628e-05
0.0137957
5.82167e-17
6.51847e-14
0.0199883
0.210064
1.16489e-13
0.00862027
2.56018e-14
0.000633552
5.08628e-17
1.29463e-16
1.23934e-15
9.8908e-17
0.00742846
1.92964e-17
3.26557e-14
5.52667e-16
4.06333e-16
4.69587e-17
6.39229e-16
8.17377e-15
3.83942e-06
2.96517e-16
7.06827e-05
0.00020423
2.12327e-17
2.14649e-16
1.2719e-16
3.64939e-17
5.27706e-17
1.17214e-14
5.90754e-15
1.87678e-15
1.42977e-16
3.98927e-13
4.53991e-14
4.57647e-17
0.0155118
2.16003e-17
1.02818e-13
3.29511e-17
0.0357195
3.25698e-13
2.59858e-15
5.67246e-14
2.5239e-14
0.00987032
8.34435e-19
0.00852459
3.67564e-14
3.08265e-17
4.70936e-15
8.08107e-07
2.09256e-13
4.75742e-16
1.15639e-15
7.382e-18
0.00883175
9.49802e-19
1.72277e-14
1.13604e-18
5.77715e-14
1.73564e-15
8.07637e-15
1.65554e-15
2.81403e-15
2.6506e-14
3.17804e-15
1.6923e-18
1.64645e-17
6.023e-15
1.51783e-13
1.15022e-14
4.23151e-14
5.33135e-17
1.11695e-15
1.38629e-07
4.11372e-08
2.59654e-17
1.66498e-15
1.54621e-16
2.20002e-14
8.08393e-07
6.23758e-16
1.15074e-17
1.80009e-06
1.00102e-15
4.33096e-18
9.01994e-14
2.20381e-15
1.13736e-18
9.00393e-07
1.10102e-13
1.7772e-15
0.0583462
1.12068e-17
1.65535e-14
1.1717e-14
3.27951e-17
8.23832e-18
1.01735e-15
2.07082e-15
1.18976e-15
0.018296
1.03947e-06
5.41416e-16
0.0410966
1.92573e-16
9.39593e-16
0.115532
2.44582e-13
3.66504e-16
3.86468e-16
0.0327079
0.0586151
4.35667e-17
1.4716e-15
3.10635e-18
0.0244834
9.76369e-17
5.36481e-15
2.04927e-16
1.78266e-17
1.35845e-18
1.59563e-06
2.45455e-15
1.07507e-15
0.00452895
1.03765e-06
9.5307e-15
6.99679e-16
0.0250144
0.00114626
1.18071e-13
4.02148e-15
5.76721e-14
1.10124e-15
1.00202e-14
1.03738e-16
2.03401e-14
8.77828e-14
1.5511e-14
1.29264e-15
1.5817e-13
4.91645e-14
1.78411e-06
7.68033e-17
2.18753e-14
2.22235e-06
2.0394e-16
1.02424e-15
2.64206e-15
1.40856e-15
5.2881e-16
5.9513e-16
6.36359e-16
1.97253e-16
2.69615e-18
2.56486e-16
2.53299e-18
7.13916e-15
2.60458e-09
0.0165547
0.0178515
4.91406e-14
1.87173e-17
0.00293241
4.59972e-08
3.96576e-16
1.4404e-16
8.77792e-16
9.38653e-15
2.01795e-16
7.27544e-16
0.0110589
0.0566233
8.64731e-16
1.00309e-16
2.38668e-15
5.81612e-17
8.77177e-05
2.53833e-15
0.000302451
8.04043e-15
2.28068e-15
1.81116e-15
6.05448e-15
4.03609e-15
6.81234e-16
2.73478e-15
3.06231e-14
0.0471796
7.55815e-17
1.20281e-16
1.24289e-14
0.020061
1.26149e-18
1.32402e-15
1.10701e-15
0.00106473
3.88275e-14
4.96149e-15
0.00113534
3.60167e-14
2.2832e-14
4.99034e-05
1.70388e-14
2.85171e-09
2.89448e-09
1.9827e-08
2.27111e-08
2.67997e-09
0.00581735
4.52345e-15
9.5775e-15
3.20076e-17
3.14889e-09
5.8201e-15
1.28432e-15
1.36481e-16
5.49197e-15
4.67791e-09
1.02675e-13
1.94885e-14
2.31698e-14
0.0146162
8.1876e-14
0.0405129
4.60198e-15
0.739312
1.19302e-13
2.58391e-17
4.13009e-15
0.000167561
4.96017e-16
2.33491e-10
5.04769e-15
4.33805e-15
4.57487e-17
1.14445e-15
0.00148032
8.41742e-18
4.79645e-18
0.0197112
1.75057e-16
9.72962e-16
6.35928e-16
2.22313e-16
3.49343e-16
7.04588e-15
1.18643e-16
1.13993e-16
0.00817862
7.13494e-16
0.092587
5.63802e-16
3.20214e-16
0.0818231
8.11113e-17
0.00876145
4.07246e-15
0.0251604
7.03851e-16
1.63349e-15
2.69245e-13
1.12788e-14
1.00877e-16
1.22321e-19
6.36396e-16
2.0161e-14
3.95156e-14
7.59676e-14
3.9362e-14
1.80183e-14
1.78198e-15
0.00969921
2.50176e-17
0.00232205
0.000518928
1.73221e-14
0.036345
0.0545896
8.22792e-16
7.07371e-15
0.00322302
0.456681
0.00300675
0.0165925
1.03971e-13
5.49847e-18
0.102664
1.21624e-14
3.70142e-18
1.60744e-13
0.0142944
7.46135e-14
2.39903e-15
2.96496e-15
3.40761e-15
6.28801e-18
0.00247771
0.00831135
4.58127e-16
6.27262e-15
1.4597e-14
8.20784e-19
4.89971e-17
7.68052e-14
0.00366218
1.27778e-16
3.27022e-14
3.73346e-14
1.45538e-14
5.40356e-14
0.112564
4.57495e-14
5.68819e-15
6.22185e-15
0.00498274
5.21119e-14
0.00114715
4.56556e-15
2.18619e-17
2.70813e-15
4.47829e-15
5.8686e-15
2.1334e-15
1.68263e-14
0.0186485
0.0101138
2.48443e-14
1.51399e-15
0.0836304
0.00109196
1.33248e-15
1.11941e-13
3.29233e-14
0.00373872
0.036253
0.00900852
1.7522e-14
4.28247e-14
5.10859e-15
1.8642e-15
2.26843e-16
5.03849e-16
3.92576e-16
3.27101e-17
0.116651
0.0500997
1.54711e-16
2.5279e-16
3.62704e-16
4.20632e-16
1.39668e-14
0.0262211
1.21434e-15
7.15429e-15
2.13132e-15
2.68468e-15
2.56096e-17
1.77475e-14
4.92019e-18
1.61405e-14
2.24522e-13
3.25696e-15
1.4908e-14
6.67533e-14
0.0198227
8.70426e-14
1.24058e-17
7.70021e-15
1.70651e-15
1.02951e-16
5.62807e-15
0.0106296
5.12473e-18
6.13027e-18
3.60041e-15
3.48477e-15
3.41489e-10
6.49978e-16
1.49705e-13
2.13509e-14
1.10728e-14
7.83351e-18
4.35182e-17
8.35538e-16
3.11877e-14
6.33055e-15
1.5284e-14
0.000308307
2.93487e-14
7.08805e-18
4.38253e-05
1.28725e-16
1.15789e-14
6.00326e-16
4.39058e-06
7.52463e-16
0.00438338
0.103532
5.798e-14
0.00179208
3.67549e-15
5.18605e-07
1.31304e-16
6.09578e-15
1.04324e-14
1.3717e-06
0.0198227
4.25224e-09
1.21636e-14
1.32569e-16
8.578e-14
4.15358e-16
6.80466e-10
0.00950424
1.31816e-17
7.94895e-16
7.63202e-10
1.24728e-15
0.00354381
3.60699e-11
0.0145876
6.03864e-11
5.17725e-16
1.24646e-09
1.05725e-17
6.00407e-17
4.18211e-11
7.23673e-11
1.08718e-15
7.12033e-17
4.59551e-15
0.000309656
1.52929e-15
3.71367e-15
2.63109e-15
5.54376e-15
5.67859e-16
8.92056e-14
1.52588e-15
4.16707e-14
8.32882e-05
0.0285664
3.78786e-16
0.000833148
7.95132e-14
2.1701e-18
1.76773e-15
2.16108e-17
0.0147284
3.33326e-17
1.06989e-16
0.0016449
1.02821e-17
0.000868326
8.43856e-14
4.47861e-12
5.48909e-19
8.57445e-15
6.25593e-14
1.67386e-18
1.99675e-15
4.23503e-16
6.89737e-14
9.06056e-15
2.31732e-05
3.39881e-18
0.00570858
9.52861e-16
2.3442e-17
0.047003
1.26236e-15
1.25249e-14
0.000263769
4.30322e-19
7.84693e-15
7.2686e-17
5.97359e-15
3.26412e-17
1.5923e-14
6.46065e-05
3.89009e-05
1.35576e-05
4.99384e-05
1.79942e-16
1.21864e-14
0.0630631
9.38743e-15
2.80923e-14
1.77531e-14
2.18416e-05
6.90951e-16
3.51408e-16
5.13944e-15
0.350179
1.51399e-14
3.30397e-15
2.13027e-14
0.022758
9.50662e-09
4.54658e-15
4.57541e-17
4.54243e-15
1.43166e-06
0.0361605
6.81139e-16
3.67492e-13
0.00743145
9.33946e-18
7.5096e-17
6.17517e-17
5.46076e-14
0.00324177
1.14986e-15
0.0750093
9.61524e-17
0.00117328
1.53373e-19
1.59366e-15
5.53752e-16
5.15085e-16
0.00864355
0.017926
1.35454e-16
0.00161966
3.44954e-16
3.58555e-17
3.15782e-15
0.000344646
0.00199092
2.91536e-15
0.000788594
2.82981e-09
1.55529e-15
6.61325e-17
0.00159081
4.08159e-16
4.58841e-16
3.142e-17
1.18965e-17
0.0138429
0.0116358
2.1118e-08
0.0477181
0.00271718
2.61531e-14
1.02234e-16
8.86197e-14
5.75651e-15
3.13592e-15
1.16556e-08
5.71603e-15
0.0204047
0.0115601
0.0344304
9.43028e-19
0.101411
0.00879101
1.03902e-08
0.000760519
0.0650147
2.76056e-15
6.21167e-08
3.34762e-14
1.45724e-13
0.00815167
1.31647e-15
1.44403e-14
9.39682e-15
0.000102295
0.025062
0.294757
1.43806e-14
0.00908705
7.71133e-16
0.000140119
9.35048e-17
0.188589
1.63959e-15
0.286145
0.777525
3.31338e-06
1.8775e-16
4.99254e-16
0.000178976
2.51377e-15
0.00568059
0.0101894
0.0629043
0.0344191
4.44107e-15
1.48302e-05
0.0103516
2.26826e-08
2.84359e-16
0.000477829
8.28182e-19
0.000240341
0.000422954
3.38412e-18
0.138919
0.000200408
5.50993e-14
1.1324e-16
0.000259338
0.000181158
4.31665e-18
4.5999e-16
0.47663
0.0314904
0.185034
0.148076
0.00216228
7.37313e-17
0.0065732
7.82312e-15
1.41784e-14
7.9345e-18
0.0856428
2.6294e-17
3.30341e-06
2.26445e-14
8.86709e-18
5.93076e-09
4.0733e-15
1.61788e-09
1.17067e-14
2.8592e-14
1.00081e-14
0.000634737
0.00121821
0.0129749
3.31006e-06
0.00121599
1.46466e-14
0.0151425
1.89903e-18
5.69915e-17
4.19085e-15
0.0126793
0.00015664
5.32028e-14
1.46808e-14
0.031333
4.04002e-15
1.46418e-14
1.04589e-14
2.8359e-14
1.3647e-14
0.00278383
2.23097e-16
4.97542e-05
1.11338e-14
4.63668e-15
1.03417e-08
1.19931e-14
9.71099e-16
1.21874e-05
1.70238e-16
0.0106815
1.21158e-14
2.31141e-16
0.00191016
0.00172811
0.00315997
1.53838e-16
0.0102856
0.000594655
5.48676e-17
8.86285e-19
2.13558e-17
6.46806e-17
7.10371e-17
2.30245e-15
3.059e-14
1.49772e-05
0.002537
0.00171602
5.83247e-16
0.00473801
1.94441e-08
0.000358111
0.0142947
0.0023947
3.38631e-12
1.72716e-14
0.003357
2.22245e-18
0.321702
0.0620476
1.09613e-16
1.75218e-17
0.0146648
4.27495e-16
0.0242207
0.000101848
1.81344e-16
0.011926
3.46159e-14
6.50866e-15
1.42102e-16
1.83031e-14
3.75224e-15
4.75016e-14
0.0313477
0.355493
1.48596e-15
0.0551881
3.26338e-16
8.93044e-16
1.13031e-15
7.10301e-16
0.10179
5.81194e-16
0.00155902
0.000426818
6.41396e-17
0.00161071
2.18203e-14
2.22498e-16
3.17156e-16
0.025999
2.29008e-18
2.19483e-15
0.0619642
9.32525e-14
5.33082e-15
6.38057e-18
1.82176e-16
0.0010556
4.64874e-15
9.86629e-17
3.3915e-06
2.74176e-16
9.22877e-11
3.73045e-15
4.87403e-16
2.60145e-16
4.12941e-15
5.50707e-06
3.71374e-15
5.20069e-17
3.5513e-06
5.15755e-15
1.47835e-16
4.04361e-16
0.0315758
4.87101e-18
4.70433e-16
1.08628e-16
0.00161581
0.0337841
2.27565e-15
2.0355e-14
1.50695e-16
3.56441e-16
7.28346e-17
4.81294e-16
0.296401
1.1447e-15
2.54749e-06
2.44887e-15
3.04796e-18
2.69759e-16
1.10903e-16
3.16776e-16
1.16722e-16
9.7646e-15
1.0789e-19
1.85505e-15
2.28189e-16
8.21207e-17
4.97443e-11
5.68577e-17
2.51868e-18
1.6371e-15
1.26868e-15
9.19521e-15
0.044375
1.6792e-15
6.3772e-16
7.31075e-16
6.21444e-16
4.5898e-16
2.62613e-05
5.83188e-17
9.54001e-17
4.25105e-05
8.71287e-17
6.16131e-17
2.98261e-14
1.51656e-16
1.07444e-15
0.0226642
1.78674e-16
0.00612737
2.89385e-15
1.01327e-11
2.5432e-14
3.634e-16
9.22873e-15
0.0043322
4.74746e-14
1.4725e-15
0.013034
1.45479e-14
3.62731e-15
1.82445e-16
5.24557e-14
2.5291e-16
7.55365e-15
3.48474e-14
0.0162999
2.52068e-15
0.01045
1.70564e-14
0.878027
0.43943
9.86167e-14
0.0414941
8.43046e-05
5.28006e-14
1.50005e-15
9.28808e-10
0.602449
0.0442912
1.02863e-13
1.43721e-14
0.0283462
0.39294
5.73331e-14
0.0248754
1.39352e-09
0.00219999
0.126764
0.0440123
3.48625e-14
0.000954055
0.0260431
0.0484381
2.27445e-15
3.39805e-15
0.0306975
1.83359e-13
1.01424e-06
2.4915e-16
1.41247e-14
1.97926e-10
2.03043e-14
9.35011e-07
0.00392753
9.73075e-15
0.000259222
1.74238e-14
5.76969e-17
0.0078033
0.00590942
5.44294e-18
1.67539e-15
5.19456e-12
3.62846e-14
0.00161264
4.66507e-16
0.000322482
0.0632083
3.62068e-14
0.0329781
3.03462e-16
7.97239e-16
5.22268e-14
2.95432e-16
0.0300864
1.0119e-09
1.18353e-13
0.0273941
2.09422e-15
1.88377e-14
7.56092e-16
2.34139e-16
3.97136e-16
0.00559354
0.025735
0.0147343
0.00516177
0.00552124
9.34082e-16
1.2514e-14
1.18446e-13
7.75467e-15
4.49998e-15
1.31711e-08
2.25717e-15
1.42999e-14
1.64253e-14
4.80305e-06
5.82876e-14
5.88971e-14
9.98457e-15
0.0103272
1.54995e-16
1.12957e-15
0.00339777
8.16318e-16
1.74051e-14
2.31095e-16
0.00665152
2.1427e-16
0.00505788
0.000443351
0.00259814
4.12218e-15
2.30302e-14
2.05152e-15
5.5244e-15
7.39222e-15
2.62497e-16
2.61201e-16
3.26986e-14
1.17801e-14
0.000123721
0.00016551
1.88287e-15
1.8306e-05
2.6045e-14
0.00172308
0.000105243
1.93714e-07
9.18647e-15
1.28773e-15
3.38017e-14
1.02626e-14
3.32315e-15
1.02819e-14
4.10093e-05
8.04206e-15
3.19097e-14
5.74432e-16
0.0289271
3.81527e-05
1.87424e-14
0.000881131
2.19945e-14
0.00423427
7.86989e-15
5.72503e-15
0.000549368
0.00231317
2.8547e-14
9.01272e-17
0.000303321
5.83523e-16
9.36785e-15
0.0125857
0.00611001
5.7059e-14
9.48692e-15
3.51833e-05
5.16225e-15
3.93335e-14
1.60178e-15
0.021862
9.73512e-15
0.0377206
2.90804e-17
6.8227e-15
1.38941e-14
1.82234e-16
3.37132e-14
9.53302e-15
0.0138098
0.0213324
0.00207672
0.00707302
4.11589e-15
6.6465e-16
6.99793e-15
0.0145609
2.84536e-15
6.22438e-15
6.58447e-14
0.0824621
0.0418735
3.73192e-14
2.09452e-14
1.74436e-15
2.27907e-14
6.34506e-14
0.0337581
0.00529922
0.015816
5.81784e-15
2.5713e-15
5.25768e-15
0.0193281
4.68126e-18
2.21934e-15
2.35839e-15
1.70126e-14
0.0202216
2.90105e-15
0.000398795
9.36316e-15
2.61302e-14
6.10274e-15
2.25952e-14
0.0235115
1.14001e-14
6.24531e-14
0.019999
1.99336e-15
1.25488e-16
1.16857e-15
4.57487e-15
2.06986e-15
0.00967702
2.92687e-15
1.4655e-19
2.47297e-15
1.05296e-05
4.96133e-14
4.85037e-15
1.59618e-14
3.66374e-17
2.99129e-14
3.02215e-05
0.011723
4.48766e-07
4.88006e-15
9.56262e-10
0.000292277
0.0601722
6.73708e-14
1.49277e-15
0.0181227
1.10719e-14
3.42394e-17
1.33045e-15
2.06804e-15
1.0883e-18
0.0184246
8.75588e-16
0.0214536
7.36781e-16
0.049743
0.0141941
1.84838e-14
0.0258242
7.62188e-16
0.0893907
6.66068e-17
1.4198e-15
3.301e-14
0.256611
1.39882e-16
9.08081e-18
1.87495e-16
0.000162157
0.00336571
1.46719e-07
1.12335e-07
2.53778e-07
0.144718
9.28933e-17
1.82477e-19
0.0178489
0.0639445
0.0347932
3.24387e-15
1.51619e-14
1.58746e-15
8.55765e-16
6.66337e-16
0.0190501
0.0197233
7.08044e-16
0.0523183
0.0230374
4.45748e-17
3.28678e-14
0.0134615
1.06085e-15
0.000713568
0.050555
0.000540648
1.34065e-10
0.00251743
0.00269311
0.0217114
1.31557e-14
4.97925e-07
0.00160892
4.48466e-15
2.67456e-16
1.87459e-13
0.172947
0.00253972
1.27627e-15
0.000711447
4.31694e-05
1.62001e-15
1.09804e-16
0.0199592
1.66169e-15
0.00496537
5.45385e-15
0.00564038
2.67547e-17
5.27168e-07
2.01635e-11
1.25188e-14
0.00870705
2.73196e-14
0.00662114
6.13402e-16
9.49445e-15
0.0158847
3.25398e-15
0.0141843
0.00667827
0.00923294
0.0563584
4.56877e-15
0.0217064
0.0344691
0.0169476
4.31788e-05
7.83458e-15
2.40861e-16
0.00105998
4.07745e-15
2.85213e-15
8.2482e-15
1.13008e-15
2.5576e-15
9.11776e-14
4.90862e-14
4.23763e-15
5.63366e-15
0.0520956
3.39266e-15
4.11916e-14
1.04e-13
4.65188e-16
7.56173e-14
1.48722e-14
2.2846e-17
0.0298605
8.59136e-16
3.49402e-16
2.28526e-14
6.64657e-16
5.23069e-16
8.08763e-15
7.33688e-15
1.72856e-16
0.034679
0.00670716
1.23593e-15
0.000731634
6.05207e-16
9.14745e-16
3.75699e-14
7.78409e-18
7.90093e-16
2.66719e-14
4.21441e-14
4.45762e-14
1.04412e-15
1.82264e-16
2.90531e-14
0.00659123
0.101093
1.65901e-08
5.2801e-14
6.68883e-06
1.53788e-14
3.32733e-16
4.647e-16
2.08259e-14
9.10192e-15
6.34675e-15
1.93391e-14
1.95594e-08
0.0734206
0.045491
1.39172e-15
2.75316e-15
2.75954e-14
2.94313e-14
1.1312e-14
5.01176e-15
1.9201e-16
4.67246e-16
0.0142574
1.43427e-13
1.6355e-16
4.34624e-14
0.000440152
0.0297848
4.48615e-14
1.34244e-18
0.011022
3.64607e-15
1.26719e-17
0.00467515
2.01267e-09
5.99411e-14
1.45226e-13
4.41185e-14
0.0226368
1.43377e-14
9.08383e-15
3.36793e-14
4.05317e-14
2.76271e-14
1.91757e-15
6.85308e-14
1.48258e-15
0.00958476
2.20243e-15
0.0286128
1.42191e-16
3.3321e-14
0.00164102
1.65802e-15
4.48235e-15
7.38281e-16
9.6186e-16
5.27896e-14
2.11614e-14
4.34936e-16
3.85947e-14
6.4338e-14
3.34645e-16
7.66227e-15
2.328e-15
0.301527
1.12253e-13
1.843e-15
5.27403e-15
3.53503e-16
9.28013e-16
2.47466e-15
1.64423e-15
5.51636e-16
8.97499e-13
1.71916e-15
9.15376e-16
0.0140699
7.31133e-15
0.111968
1.2621e-15
0.0101479
0.0102575
1.31905e-11
1.80961e-16
1.84471e-14
7.16116e-14
1.021e-13
1.66123e-14
3.21536e-17
8.7651e-16
0.00281033
4.37666e-17
1.22561e-19
9.90618e-10
4.20884e-14
1.97995e-15
0.01498
5.2746e-14
1.28969e-15
3.0234e-15
3.44695e-15
1.72386e-15
2.66493e-17
9.06314e-15
0.0242183
0.0134043
0.0090659
8.52969e-16
4.2309e-16
1.10976e-15
8.2471e-15
1.64853e-15
9.70803e-15
7.58848e-19
1.10026e-14
1.75776e-06
3.43824e-15
1.01078e-14
2.59616e-14
3.83908e-15
0.000262178
8.60772e-07
1.33979e-16
1.44948e-16
3.15161e-15
7.97845e-15
9.98809e-17
5.96273e-15
2.44794e-16
7.96613e-15
2.17327e-16
7.31167e-16
4.24762e-14
2.07821e-14
2.73083e-14
2.43596e-18
0.0531786
6.96669e-16
2.32475e-15
9.55264e-15
4.39458e-15
4.89948e-15
1.1285e-14
6.6326e-16
4.78562e-16
8.09226e-19
4.8249e-18
1.15632e-16
0.00218081
2.77412e-15
2.85064e-15
3.12347e-15
0.0512145
3.81728e-14
3.23995e-14
4.28729e-14
5.92782e-19
0.000891633
2.96152e-14
9.30582e-15
5.2466e-15
1.61908e-14
0.0192901
1.90725e-14
4.70981e-15
0.00591117
1.88306e-16
0.0107179
1.03318e-14
7.58566e-16
5.84151e-16
0.00314773
0.029662
1.4511e-15
4.77348e-18
0.0632342
0.00894378
0.00645338
4.80962e-15
0.0620457
9.38398e-16
0.0150213
6.32604e-15
0.0173429
1.08192e-13
3.06764e-16
7.0779e-14
5.84406e-15
5.10564e-14
0.0403098
0.0144288
0.0145165
4.05864e-14
8.81012e-16
5.66509e-14
2.15033e-14
0.000926587
6.23705e-14
4.67034e-14
1.36003e-14
3.69545e-14
1.19714e-14
5.45498e-16
0.0359779
2.53582e-15
2.77296e-15
4.70929e-16
2.8883e-16
4.59311e-15
1.7629e-15
4.17864e-15
1.38394e-15
1.01338e-14
0.000933756
2.41602e-14
9.25316e-15
8.42986e-16
5.16425e-15
9.45992e-16
1.89166e-14
7.56525e-16
7.51014e-16
2.48172e-14
5.99446e-14
7.67479e-15
0.000847554
7.96652e-15
5.61598e-07
0.0102118
4.75803e-14
3.65363e-08
6.33322e-15
5.77438e-05
3.42424e-15
0.00442991
0.00287017
5.31862e-16
4.03477e-14
6.19962e-14
7.05769e-14
0.00204178
1.13048e-14
0.00176874
4.3225e-14
5.85798e-15
0.00190959
0.0953716
5.41577e-15
1.97177e-14
5.10342e-14
2.60802e-15
7.82262e-15
4.26215e-14
3.68856e-14
4.78088e-14
1.42392e-15
0.00458814
4.02965e-16
1.07744e-15
1.53089e-14
1.49964e-15
0.00250893
7.57939e-16
9.12951e-14
1.75928e-14
9.86847e-14
2.87686e-15
7.13593e-14
1.27484e-13
5.70522e-15
2.50668e-14
5.41696e-14
7.75588e-13
4.73742e-17
4.35126e-14
0.120441
8.78047e-16
1.49664e-15
6.96734e-15
4.70626e-15
1.79776e-05
8.70374e-15
1.5391e-16
1.97481e-14
2.61781e-14
2.27381e-15
9.15771e-16
3.7035e-14
1.15073e-15
4.25146e-14
2.25948e-14
3.20574e-14
3.47957e-05
2.93031e-16
1.15502e-14
8.95844e-17
3.00726e-15
9.57226e-15
3.92656e-14
0.00264078
2.28288e-13
4.38051e-17
5.08845e-15
2.92576e-15
5.96433e-14
5.8381e-16
6.34517e-14
2.53149e-14
1.41549e-14
1.28324e-15
0.0841013
2.59138e-14
1.42779e-15
2.15816e-17
8.38814e-18
0.000206283
1.98602e-14
0.0266566
0.00873351
3.69763e-16
3.68534e-15
0.0376152
3.50765e-05
1.78841e-17
0.0099513
9.21071e-16
1.60702e-16
2.20276e-14
2.39008e-17
1.38727e-18
2.35785e-14
3.45379e-16
0.000227019
1.76955e-14
6.71967e-16
2.11335e-17
3.34135e-15
3.5909e-05
1.02791e-14
1.74029e-15
2.02346e-14
6.06029e-18
0.000193803
1.1931e-18
4.85744e-16
1.00225
1.53082e-15
0.00783706
1.49243e-15
2.11469e-15
7.31181e-18
0.0154708
5.08602e-16
1.04116e-13
3.35984e-16
0.00338864
2.782e-16
7.53376e-14
6.69216e-14
1.56061e-14
1.18001e-15
7.79388e-15
0.00049263
9.68398e-15
1.65562e-15
5.5293e-15
0.0197936
2.29888e-15
2.26668e-16
1.70158e-17
4.23022e-15
1.59997e-15
4.69119e-15
1.43598e-06
0.00922886
0.0125721
1.80124e-16
9.06015e-16
1.79205e-14
3.89921e-15
7.95262e-16
1.64945e-15
0.000463395
2.51944e-14
7.83692e-19
2.22379e-14
4.28026e-15
4.5858e-15
4.15422e-15
3.86682e-15
8.96491e-15
1.86368e-17
3.52813e-17
0.0225788
2.79854e-14
1.20864e-14
7.85718e-16
2.85593e-15
0.00990234
3.49811e-07
3.17725e-14
0.00557483
1.0343e-14
1.84242e-14
1.99399e-14
1.57721e-14
5.56175e-14
1.25803e-14
0.00370987
2.72995e-08
1.6901e-19
0.000287561
0.00159916
0.150882
0.000740397
0.000592934
5.7404e-16
4.82232e-15
1.47001e-14
0.000325951
1.33765e-14
0.0198864
3.46222e-14
1.21472e-14
0.000701514
8.04744e-15
6.52517e-12
2.85904e-05
0.00210017
0.000883821
2.54233e-07
4.75213e-14
5.37178e-14
0.00798901
3.47883e-14
1.80681e-14
1.21571e-15
4.30429e-16
2.5208e-15
1.51332e-14
1.56829e-14
2.76969e-15
6.89361e-16
3.79348e-16
3.47768e-14
6.82238e-17
1.55444e-15
3.15762e-18
1.56193e-16
1.13308e-14
3.85548e-16
0.015151
4.74431e-15
3.66581e-15
0.00338215
6.15813e-16
0.0312833
6.2519e-15
2.51361e-15
3.19753e-16
2.54567e-14
1.98676e-16
2.11525e-14
2.03406e-15
2.38344e-14
3.39409e-17
0.00119744
2.90524e-14
0.0372897
7.58069e-16
2.48392e-15
5.91147e-17
6.84572e-09
1.41262e-09
0.00906874
0.0117011
5.0692e-10
0.00468059
2.42536e-16
4.81565e-14
3.88616e-15
1.744e-10
5.45119e-15
2.61987e-16
1.64028e-14
1.26941e-15
1.04654e-15
1.64516e-15
2.39979e-14
7.09586e-16
5.96463e-15
6.6413e-18
0.0267007
1.22853e-16
1.98343e-14
2.39823e-14
1.14309e-14
6.00103e-15
5.49132e-16
2.48476e-14
2.96676e-14
2.14567e-15
1.29072e-15
0.00469554
2.16985e-14
0.0157083
0.0133185
4.22487e-17
9.31911e-15
2.40546e-15
1.37182e-15
3.10249e-15
9.85531e-18
2.02553e-15
6.31034e-16
3.71858e-16
2.01112e-14
0.00533761
5.57071e-17
1.57834e-06
1.31867e-09
0.00838258
4.09705e-14
0.00883427
3.06456e-14
0.05431
0.0219981
0.0968946
1.9204e-17
1.25957e-14
5.00618e-14
0.000286136
6.51257e-15
0.0101674
0.0299153
0.0183837
1.98851e-14
1.15967e-13
0.00015138
1.0335e-15
0.0173576
0.301134
0.0172172
3.04848e-15
2.36099e-16
0.0160162
0.00160857
8.46827e-14
2.51408e-15
0.162755
1.37825
5.24236e-14
1.46116e-14
3.07303e-14
0.00345422
3.15065e-15
1.11518e-15