/*--------------------------------*- C++ -*----------------------------------*\
  =========                 |
  \\      /  F ield         | OpenFOAM: The Open Source CFD Toolbox
   \\    /   O peration     | Website:  https://openfoam.org
    \\  /    A nd           | Version:  10
     \\/     M anipulation  |
\*---------------------------------------------------------------------------*/
FoamFile
{
    format      ascii;
    class       volScalarField;
    location    "22";
    object      T;
}
// * * * * * * * * * * * * * * * * * * * * * * * * * * * * * * * * * * * * * //

dimensions      [0 0 0 1 0 0 0];

internalField   nonuniform List<scalar> 
59698
(
286.62
283.15
283.15
283.15
299.924
283.15
283.15
283.15
303.15
303.15
303.15
283.15
283.15
283.15
300.106
303.15
283.15
283.15
283.15
283.15
303.282
302.12
303.148
303.15
295.699
283.15
283.15
283.336
295.718
295.33
300.291
303.15
303.15
298.818
302.365
283.15
283.382
283.469
283.15
297.575
283.15
283.15
283.15
283.15
283.15
296.467
283.15
283.15
283.15
283.15
283.15
283.15
283.15
283.15
294.389
283.15
283.15
302.177
283.15
282.976
283.15
283.15
299.616
283.15
286.791
283.15
303.15
283.15
283.15
303.15
283.15
283.15
283.135
298.558
283.15
297.748
283.15
283.332
283.15
294.151
299.957
283.15
303.15
283.15
303.703
283.15
283.15
283.15
298.898
283.15
303.15
283.15
298.998
283.15
283.15
283.15
299.075
283.15
298.924
283.15
299.127
283.129
285.885
284.491
283.15
283.15
283.15
283.15
303.15
283.15
283.15
283.15
298.88
283.15
283.15
283.15
283.15
283.15
283.15
303.15
283.15
283.15
283.15
283.15
283.15
283.15
283.15
303.15
283.15
283.15
287.521
283.15
303.15
292.785
290.24
283.15
283.15
303.15
283.15
283.15
283.15
283.15
283.15
283.15
283.15
283.15
283.15
283.15
283.15
301.185
283.138
303.15
283.38
283.15
283.15
283.15
283.15
283.15
296.535
283.15
283.378
283.15
290.782
299.376
296.953
296.052
283.15
280.92
298.057
283.15
300.368
283.151
300.934
300.997
285.541
283.15
303.15
283.238
303.15
298.905
302.763
300.411
298.613
283.15
298.732
300.859
300.769
283.15
283.15
283.15
283.15
283.15
296.604
297.463
298.903
283.15
293.956
296.567
303.155
298.522
283.15
284.149
292.137
283.15
298.918
283.15
296.815
283.15
288.612
297.583
283.15
283.15
298.342
303.15
283.15
283.15
283.15
283.15
297.045
283.15
282.051
283.15
283.15
299.241
283.15
299.294
283.15
283.15
295.608
285.002
283.15
283.15
283.15
283.15
283.15
283.15
295.967
283.15
283.15
283.15
283.15
293.129
288.925
303.15
283.15
283.15
282.927
285.617
283.15
283.15
283.15
283.15
283.15
303.15
283.15
283.15
283.15
283.15
283.15
283.15
303.12
283.15
283.15
283.15
283.15
295.297
283.15
303.15
283.15
283.15
283.15
286.649
303.101
283.15
287.327
283.15
283.15
283.15
287.319
303.15
303.15
283.15
283.15
289.112
295.092
290.694
283.15
303.15
286.05
283.15
301.431
283.15
283.15
283.15
283.15
283.15
283.15
283.15
283.15
283.15
283.15
283.15
283.15
283.15
283.15
283.15
287.822
283.15
283.15
283.15
283.15
283.15
283.15
283.15
283.15
283.15
283.15
283.15
283.15
283.15
283.15
293.38
283.15
303.15
298.337
286.213
283.15
283.15
283.15
283.15
300.18
283.15
298.871
281.564
303.15
283.15
283.15
283.15
292.29
283.15
283.15
283.15
283.15
283.15
295.703
283.15
283.15
301.435
283.15
283.15
283.15
283.15
301.345
303.15
284.231
300.758
302.076
283.15
283.15
303.15
283.15
283.15
303.15
283.15
283.15
283.15
283.15
283.15
283.15
282.757
292.555
283.15
283.15
283.15
283.15
303.15
283.15
283.15
283.15
303.15
283.15
283.15
283.15
283.15
283.15
283.148
283.15
283.15
283.15
283.15
283.15
303.15
283.15
290.754
303.133
301.993
301.77
283.15
283.15
283.15
283.462
283.15
283.15
283.15
283.15
283.15
295.915
293.236
283.15
302.248
297.865
303.15
283.15
303.15
283.15
289.826
283.15
283.577
302.293
302.826
283.15
283.15
283.15
281.984
283.15
283.15
303.15
283.15
283.15
283.15
283.15
302.787
285.304
283.15
287.599
303.15
303.15
298.66
283.15
291.194
283.15
283.15
303.15
283.15
283.15
302.913
294.874
283.15
283.15
291.314
283.15
283.15
283.15
286.316
283.15
283.15
290.638
303.15
284.304
283.15
290.058
283.15
283.963
293.911
303.15
283.15
283.15
283.15
283.15
283.15
283.15
283.15
283.15
283.15
283.15
283.15
302.757
292.116
283.15
283.15
283.15
283.15
283.15
283.15
300.935
283.15
283.15
283.15
291.901
283.15
299.037
290.495
291.323
283.15
289.031
283.15
283.15
283.15
283.323
283.15
283.15
295.178
295.609
283.15
283.15
303.15
283.15
303.15
283.15
283.287
283.15
290.599
283.154
283.15
283.15
283.15
283.15
283.15
283.15
283.15
283.268
283.15
283.15
283.15
283.15
302.995
283.15
283.15
283.15
283.15
283.15
301.5
303.15
283.15
283.15
283.15
283.15
286.34
283.15
303.15
283.15
283.15
283.15
281.266
283.15
283.15
282.227
283.132
283.15
283.147
283.15
303.15
283.15
303.15
283.15
283.15
283.15
283.15
283.15
283.15
283.15
303.15
283.15
283.123
283.15
303.15
286.388
283.15
283.15
303.15
283.15
283.15
283.15
283.15
283.15
283.15
283.15
283.15
283.15
303.15
283.15
283.15
285.282
283.15
283.15
283.15
283.15
283.15
289.733
283.15
283.15
283.15
283.15
283.15
283.15
283.15
303.15
282.782
283.15
283.15
283.15
283.15
283.15
283.15
283.15
283.15
283.15
283.15
283.15
283.15
283.15
283.15
283.15
283.15
283.15
283.15
283.15
297.835
285.647
283.15
283.15
283.15
283.15
302.961
283.15
283.15
283.236
283.15
283.15
283.15
283.15
283.15
283.15
283.15
283.15
283.15
283.15
283.15
283.15
286.913
283.15
283.15
283.15
303.15
283.15
283.15
283.15
283.15
283.15
283.15
283.15
283.15
283.676
283.15
283.15
283.15
283.15
303.147
283.15
283.15
283.15
283.15
283.15
283.795
301.831
283.15
283.15
283.15
283.15
288.932
283.15
283.15
283.15
283.15
283.15
283.15
283.15
283.15
293.216
283.15
283.15
283.15
283.15
283.15
283.15
283.15
283.15
283.15
283.15
295.765
283.15
297.177
283.15
283.15
283.15
283.15
283.15
283.15
283.15
283.15
283.15
283.15
283.15
283.15
283.15
303.15
296.53
283.15
283.15
283.15
283.15
283.15
283.15
283.15
283.15
283.24
283.15
283.15
303.15
283.15
297.843
283.225
283.15
283.15
283.15
293.184
295.518
283.15
296.214
283.15
282.861
283.15
290.555
300.336
283.15
291.069
283.15
303.15
283.254
287.944
283.15
283.15
283.264
283.15
283.15
283.15
283.596
283.45
283.15
285.985
283.15
296.888
283.15
298.115
283.15
283.15
290.231
295.049
303.15
283.15
290.908
283.15
283.25
283.264
283.15
283.328
283.247
283.15
283.15
285.025
291.671
283.15
283.15
283.15
283.15
283.15
283.15
283.15
284.923
285.331
297.399
283.15
291.477
283.15
284.689
283.15
285.108
283.15
284.364
298.817
283.15
288.645
297.665
301.107
283.15
302.772
283.15
283.15
283.15
283.15
283.15
283.15
283.15
283.15
290.956
283.164
283.15
283.15
283.15
282.346
283.15
283.15
283.15
283.15
303.102
298.492
303.15
283.15
284.563
288.605
283.15
282.175
283.15
283.228
283.15
283.15
283.15
283.15
296.688
283.15
283.15
283.15
283.15
283.15
283.15
283.15
283.162
283.15
283.132
283.174
303.15
283.15
283.15
283.15
283.15
283.15
283.15
283.15
283.15
283.15
283.15
283.15
285.404
283.15
283.15
283.15
299.446
283.15
283.15
283.15
283.15
292.02
303.15
289.977
283.15
283.15
283.15
283.149
283.15
283.15
283.15
283.15
284.11
283.15
283.15
283.15
283.15
283.15
283.15
283.15
283.15
283.15
283.15
283.15
283.15
283.15
283.15
283.15
283.15
283.15
283.15
283.15
283.15
283.15
283.15
283.15
283.15
283.15
303.15
283.15
283.151
283.15
283.15
283.15
283.15
283.15
283.151
283.15
283.15
291.339
283.15
283.15
283.15
283.15
303.15
283.15
283.15
283.15
292.943
283.151
283.15
296.717
283.15
283.15
295.618
283.15
283.15
283.15
286.591
292.073
283.15
283.15
283.15
295.768
283.15
283.15
283.15
283.15
283.15
283.151
283.15
283.15
292.613
283.151
283.15
283.15
285.343
283.712
283.15
283.15
283.15
283.15
283.15
283.15
283.15
283.15
283.15
303.15
283.15
283.15
283.151
303.15
283.15
283.151
283.15
283.15
283.15
283.15
283.15
283.15
303.15
303.15
283.15
283.15
283.15
283.15
283.15
302.709
298.56
283.15
283.15
302.153
283.15
283.15
283.15
283.15
283.15
283.15
283.15
290.634
287.748
283.15
283.15
283.15
303.15
283.168
283.15
300.396
283.15
303.15
303.15
283.15
283.15
283.15
283.15
283.15
292.596
283.15
283.15
283.15
298.339
283.15
283.15
283.15
302.797
283.15
283.15
302.793
283.15
283.15
302.802
283.15
283.15
283.15
283.15
283.15
283.15
295.201
283.15
283.15
303.15
283.15
283.15
283.15
283.15
283.15
283.15
283.15
283.15
283.15
295.31
283.15
287.75
283.15
290.895
283.15
303.15
283.15
283.437
283.15
303.15
283.15
283.15
283.15
283.15
283.362
303.15
303.15
293.101
283.15
283.15
283.15
283.15
283.15
283.15
303.15
303.15
284.102
283.15
295.123
303.15
283.15
296.135
303.15
282.446
283.15
283.572
283.15
283.15
283.15
283.15
283.15
303.15
283.15
283.15
283.15
283.15
283.15
283.15
283.15
301.058
303.15
297.296
302.914
283.15
301.668
287.092
283.15
283.15
296.116
297.22
283.424
284.715
283.15
283.15
288.097
283.15
303.15
283.15
300.981
283.15
283.15
283.15
283.15
283.15
302.395
284.646
283.15
283.15
283.15
283.15
303.15
283.15
286.554
283.15
283.15
283.15
283.15
283.15
304.963
283.15
283.15
283.15
292.17
283.15
286.466
283.15
303.15
283.15
283.15
283.15
283.15
283.15
300.819
301.115
283.15
283.15
299.109
302.608
283.15
283.15
283.15
302.577
287.726
300.258
283.15
283.15
283.15
283.15
283.15
283.15
283.15
303.15
286.061
298.851
283.15
283.15
283.15
283.15
283.15
299.013
283.15
283.15
283.15
283.15
303.15
283.15
303.15
283.15
283.15
283.15
283.15
283.15
285.39
283.15
303.15
283.15
283.15
283.15
283.15
292.46
303.15
303.15
283.15
283.15
283.15
303.15
283.15
283.15
283.15
283.15
303.15
283.15
283.15
283.15
283.15
285.261
283.15
283.15
284.965
303.15
283.15
283.15
303.143
303.15
289.93
290.562
283.15
289.176
283.15
283.15
303.15
283.15
283.15
283.151
282.321
283.15
283.15
303.15
283.15
303.15
283.15
284.582
283.15
283.15
283.15
283.15
302.758
283.15
295.745
283.15
283.15
283.15
283.15
283.15
283.15
283.15
283.15
303.15
283.15
283.232
283.15
283.15
283.15
283.15
283.15
283.15
283.15
283.15
300.616
285.592
283.15
303.022
283.15
303.15
283.15
283.15
299.954
303.15
303.15
293.095
283.15
300.657
283.15
283.15
303.15
283.15
283.15
303.15
283.15
283.15
283.15
283.15
302.959
303.15
297.493
283.15
283.15
289.04
283.15
283.15
283.096
303.15
283.15
303.15
283.15
303.15
283.15
283.164
283.159
283.154
283.162
283.15
283.15
286.798
283.15
283.15
283.15
283.155
283.15
283.15
283.15
301.143
283.15
303.15
283.15
295.984
283.15
303.15
303.15
283.15
283.151
287.365
283.15
283.15
284.46
303.15
303.15
283.15
283.15
283.982
303.15
299.758
303.15
283.942
303.15
303.15
303.15
283.15
290.773
298.857
303.15
285.846
283.15
303.15
283.15
284.164
282.68
283.15
283.73
283.15
283.15
283.15
283.31
283.15
283.15
303.15
303.15
285.177
288.659
283.15
283.571
283.277
283.15
283.15
283.15
283.15
283.15
283.15
283.15
287.713
285.225
293.946
303.15
292.217
284.067
283.15
284.319
300.932
283.15
283.15
283.15
283.15
298.096
283.15
283.15
283.15
283.903
286.794
283.764
283.15
284.854
283.15
284.216
303.15
294.043
283.15
288.489
292.607
303.112
303.15
283.15
284.405
283.15
300.643
284.977
285.116
298.43
283.15
284.947
282.312
283.15
303.15
286.384
283.15
283.129
285.155
303.15
297.634
283.152
283.15
303.15
284.929
299.999
303.15
283.15
289.24
295.13
296.489
297.829
283.516
303.15
285.253
283.15
283.15
283.15
293.938
283.15
303.125
283.15
303.15
283.15
283.15
283.15
283.15
283.15
283.15
300.146
298.597
285.917
283.138
298.994
283.15
299.446
303.15
283.15
283.15
292.414
285.772
283.15
283.15
288.099
283.15
283.15
283.15
283.15
283.15
296.595
303.15
293.002
283.15
303.15
283.15
283.15
283.15
283.159
303.15
295.952
283.15
303.15
296.619
302.679
283.508
283.15
286.907
283.539
303.15
283.15
303.15
283.15
283.15
283.15
283.15
283.14
283.614
283.208
303.15
283.572
283.15
283.484
294.241
283.649
283.15
283.15
286.234
303.15
287.426
291.77
283.15
303.15
300.569
283.15
289.596
303.228
303.15
291.738
283.15
283.15
303.15
283.15
283.15
283.15
297.725
297.17
283.15
295.073
303.15
303.15
283.15
283.15
283.933
283.15
283.152
283.577
303.15
283.802
283.15
303.15
283.15
283.003
283.15
283.15
299.83
303.15
283.15
303.15
303.15
283.676
283.15
283.15
283.149
303.15
283.15
283.15
303.15
303.15
283.15
283.127
283.15
303.15
283.139
283.15
283.15
283.15
300.698
283.15
283.15
303.15
294.752
294.258
303.15
303.15
303.15
283.15
283.15
283.15
291.863
303.15
283.14
283.15
303.15
303.15
303.15
283.15
283.15
283.15
283.15
283.15
283.15
283.15
283.15
303.15
283.15
283.15
283.15
283.15
294.105
283.15
283.15
283.15
283.15
283.15
283.14
283.15
303.15
283.15
283.15
283.15
283.15
303.15
283.15
294.239
303.15
285.312
283.15
283.15
283.15
283.15
283.15
296.524
283.15
283.15
289.009
283.15
283.15
283.15
283.15
283.15
283.15
283.15
298.651
283.15
287.277
283.15
304.956
284.024
283.15
300.335
283.134
283.15
283.15
303.15
294.367
296.508
283.15
283.15
301.442
296.237
283.15
298.935
283.15
302.821
297.627
300.375
283.15
285.253
294.222
289.342
283.15
283.15
297.408
283.15
283.151
283.15
283.15
283.15
283.15
283.143
299.538
283.15
283.47
283.15
283.15
297.875
293.06
283.15
283.15
283.15
283.15
284.469
283.15
283.239
298.424
283.15
300.327
283.15
283.15
283.15
283.15
298.445
283.15
283.15
284.623
283.15
283.15
283.15
283.15
303.15
291.596
297.125
298.057
301.571
283.458
283.15
283.15
283.15
283.15
283.15
303.151
283.15
283.15
283.15
283.139
283.15
283.15
283.15
301.985
283.15
283.15
303.187
283.15
283.15
283.15
296.943
283.15
302.099
302.823
283.664
283.15
283.15
283.15
283.15
283.15
283.15
283.15
283.15
283.15
283.173
302.942
283.15
286.471
283.15
284.87
283.179
283.158
283.15
283.15
283.15
283.15
283.15
283.15
302.926
283.15
283.15
283.15
298.22
302.943
283.15
284.633
283.15
298.492
283.15
283.15
283.466
288.422
283.15
283.15
284.689
283.15
283.15
284.424
302.813
283.15
283.15
283.161
283.15
283.15
283.15
299.701
283.15
294.598
283.15
283.15
283.15
283.15
283.15
283.15
287.112
298.554
299.511
284.238
283.15
283.15
283.15
295.977
283.15
283.15
283.15
298.696
285.522
283.15
283.15
283.15
283.15
283.15
296.202
284.857
296.568
283.15
283.15
283.15
299.555
303.15
283.15
283.15
283.15
296.956
283.15
299.681
283.15
283.15
283.15
283.15
299.649
283.15
283.15
301.3
283.15
283.15
283.15
283.15
283.15
285.389
283.15
303.15
283.15
301.439
283.15
283.15
283.15
283.15
283.15
301.37
287.268
283.15
283.15
283.15
283.228
295.981
283.15
283.15
298.921
283.15
283.15
283.15
283.15
303.15
298.539
283.15
291.233
283.15
295.025
301.376
283.15
301.174
283.15
293.016
283.15
303.15
283.15
300.075
283.15
283.15
283.15
302.834
286.591
283.15
283.15
283.15
296.22
283.15
283.15
291.136
292.624
295.746
283.15
283.15
283.15
283.15
283.15
296.073
295.167
283.15
294.305
295.753
283.15
283.15
291.666
283.15
295.807
296.771
300.261
283.15
283.614
283.959
301.222
283.15
303.146
283.145
283.15
283.15
283.15
301.792
303.554
283.15
303.01
303.129
283.15
283.15
288.141
283.15
284.792
283.15
300.6
283.15
283.15
303.15
283.15
293.486
283.15
301.074
283.15
283.15
302.013
283.15
285.216
302.279
286.672
295.421
283.15
291.989
294.466
300.552
302.96
283.15
283.15
288.698
283.15
283.15
283.15
283.15
283.15
283.15
283.15
283.15
283.15
295.792
283.15
283.15
283.15
283.15
283.15
283.15
283.15
293.446
283.15
283.15
283.15
283.15
283.15
283.15
283.15
283.15
286.453
302.175
283.15
299.91
283.15
283.15
283.15
283.15
303.15
283.15
283.15
283.15
283.15
283.15
283.15
285.76
298.695
283.15
283.15
283.142
283.15
283.15
283.15
283.15
283.15
283.15
283.15
283.15
297.89
300.888
283.15
283.15
283.15
283.15
283.15
283.15
283.15
283.15
294.692
283.15
283.15
283.15
300.954
296.705
283.15
303.15
292.497
283.15
283.15
294.665
283.15
283.15
283.15
283.15
290.609
283.15
283.15
283.15
283.15
283.15
283.15
283.15
283.15
290.871
283.15
293.595
283.15
283.15
289.438
283.15
283.15
283.15
283.15
283.15
283.15
283.15
283.15
283.15
283.15
283.15
283.15
297.937
283.15
283.15
283.15
283.15
283.15
283.15
283.15
283.15
283.15
283.15
283.15
299.979
283.15
296.164
283.15
296.771
295.649
283.15
283.15
283.15
283.15
283.15
283.15
303.15
283.15
283.526
283.15
283.15
283.15
283.15
283.15
299.285
283.15
283.15
283.15
283.15
283.15
283.15
283.15
300.843
286.337
285.368
283.15
283.15
283.15
283.15
283.15
283.15
283.15
283.15
283.151
283.15
283.15
283.15
283.15
284.19
283.151
283.15
283.15
283.15
283.15
303.15
283.15
283.15
283.15
283.15
283.15
283.15
283.15
283.15
303.15
287.155
283.15
283.15
283.15
283.15
283.15
283.15
283.15
283.15
283.15
283.15
283.15
283.385
283.15
283.15
283.15
291.604
283.15
283.15
283.15
303.15
283.411
283.15
283.15
283.15
283.15
295.866
283.15
283.15
285.196
283.15
289.294
283.15
283.15
283.15
302.02
294.388
283.15
283.15
294.275
293.168
296.895
283.15
300.487
283.15
301.24
283.15
297.597
283.15
283.15
283.15
283.15
283.15
293.942
295.022
292.915
283.15
283.15
283.15
283.15
292.19
283.15
283.15
283.15
283.15
283.15
283.15
299.347
283.15
283.15
283.15
283.15
283.15
283.15
283.15
283.15
283.15
283.291
283.15
283.15
283.15
283.15
283.15
283.15
283.15
283.15
283.15
283.15
283.15
284.67
283.15
302.664
284.51
283.15
283.15
283.15
285.562
283.15
285.729
303.388
283.15
283.15
283.15
283.15
285.635
283.15
283.991
283.15
283.15
286.396
285.99
283.15
283.15
283.15
283.15
283.15
283.15
283.15
283.15
283.15
288.191
283.15
283.15
283.15
283.15
284.648
283.15
283.15
283.15
283.15
283.15
283.15
283.15
283.15
283.15
283.15
303.15
303.15
283.15
291.993
283.15
283.15
283.15
283.15
283.155
283.15
283.15
283.15
283.15
283.15
283.15
283.15
283.15
283.15
283.15
283.15
283.156
283.15
283.15
283.15
283.15
283.15
283.15
303.242
283.15
303.15
283.15
283.15
283.15
283.15
283.15
283.15
283.15
283.15
291.122
283.15
283.15
283.15
303.15
282.892
283.15
301.989
284.044
303.15
283.15
300.877
283.158
283.15
285.007
283.15
283.15
283.15
303.15
303.15
283.15
283.15
283.2
283.15
283.15
283.15
283.15
283.156
283.15
283.15
283.15
283.15
300.789
303.15
303.15
297.74
283.15
284.92
283.15
283.15
283.15
300.948
283.15
283.15
283.15
291.798
303.15
283.15
283.15
283.15
283.15
283.15
300.842
283.15
283.15
283.15
294.382
283.15
283.15
283.15
283.15
283.15
283.15
283.151
301.949
302.713
283.15
283.15
283.15
283.15
283.15
283.15
300.583
283.15
283.15
283.15
283.15
283.15
283.15
283.15
283.15
283.15
303.15
296.872
283.15
283.15
283.15
283.15
297.789
283.146
283.15
283.662
283.15
283.15
283.15
283.15
283.15
283.15
284.624
283.15
303.15
283.219
284.94
292.883
283.197
283.373
283.15
283.15
283.15
283.19
283.15
296.189
283.15
283.15
283.357
283.15
283.15
283.157
285.386
283.298
283.15
283.15
283.15
288.479
283.15
283.15
283.15
283.15
283.15
283.15
283.15
283.15
283.15
283.15
283.15
283.15
283.15
283.15
283.15
283.15
283.15
299.681
283.15
283.15
286.329
283.15
290.731
283.15
283.15
283.15
283.15
283.15
283.15
283.15
283.15
283.15
290.84
283.15
296.823
283.15
283.15
283.15
283.15
283.15
287.25
284.29
283.15
284.12
283.15
283.15
283.15
283.15
283.15
283.15
283.15
283.15
283.15
283.15
283.15
283.15
283.15
283.15
289.194
283.15
283.15
283.15
283.15
283.15
283.15
283.15
283.15
283.15
283.15
288.449
283.15
302.763
301.083
303.15
283.15
283.15
283.15
283.15
283.15
283.15
283.15
283.15
283.15
302.514
283.15
283.151
283.15
294.436
283.15
300.337
283.15
288.348
300.87
287.185
283.15
283.15
283.15
283.117
283.15
289.963
282.397
287.714
283.15
283.15
283.193
283.15
284.908
291.395
302.413
283.15
283.15
297.37
303.182
283.15
283.15
294.853
290.938
283.15
283.15
283.15
284.317
283.15
283.15
283.15
283.15
283.15
283.15
283.15
283.15
283.15
283.15
300.29
283.15
283.15
283.15
283.15
300.411
283.15
283.15
283.15
289.786
283.15
283.15
283.15
283.222
283.15
297.22
283.15
285.056
288.823
283.144
283.15
283.15
298.613
283.15
283.15
290.663
283.15
283.15
283.149
283.15
283.156
282.636
291.676
283.15
283.15
303.151
283.15
283.15
293.667
285.986
283.15
283.15
283.15
297.346
286.005
283.74
283.15
284.416
283.286
283.15
283.15
283.15
283.15
284.35
288.506
283.15
289.48
297.393
287.15
283.15
283.15
283.15
295.69
283.15
291.178
283.15
283.15
293.283
291.997
283.15
303.15
287.469
287.651
285.596
283.248
285.81
283.15
283.15
287.996
293.064
303.15
286.251
283.15
288.232
285.279
285.179
283.15
285.461
288.558
283.15
287.891
283.15
283.15
289.269
283.15
283.15
283.15
283.15
283.15
283.15
283.15
288.534
299.565
288.928
288.302
287.067
283.15
286.377
302.411
283.15
283.15
283.15
283.15
283.15
283.15
283.15
283.15
283.15
283.15
283.15
283.15
283.15
283.15
283.15
283.15
302.583
283.15
286.88
283.15
283.15
294.388
283.15
303.105
283.15
283.15
283.15
283.15
292.255
291.048
283.15
283.15
284.086
298.334
283.15
283.15
283.15
283.15
283.15
283.15
300.084
283.15
299.232
283.15
298.751
299.225
302.345
302.078
299.232
299.448
298.98
287.709
283.15
283.15
283.15
283.15
283.464
293.556
283.15
283.15
283.15
285.594
283.15
283.15
283.15
290.02
283.15
283.15
301.033
283.15
299.966
301.461
283.15
283.15
283.15
283.15
290.313
299.051
283.15
283.15
283.15
283.15
283.15
283.15
283.15
283.15
283.15
283.15
283.15
283.15
283.15
283.15
283.15
283.15
283.15
283.15
283.15
283.15
283.15
283.15
283.15
283.15
283.15
295.94
283.15
283.15
283.15
283.15
283.15
283.15
283.15
283.15
283.15
301.889
302.255
283.15
283.15
301.089
304.627
283.15
302.208
302.153
283.15
283.15
283.15
283.15
302.345
283.15
283.15
283.15
302.344
283.15
283.15
283.15
283.15
283.15
283.15
283.15
303.08
283.15
283.15
283.15
283.15
283.15
283.15
283.15
283.15
283.15
283.15
283.15
283.15
283.15
283.15
283.15
299.275
283.15
283.15
283.15
287.049
301.447
283.15
301.106
291.148
300.532
283.15
301.549
283.15
298.63
283.15
283.15
290.408
296.663
298.661
297.74
287.557
283.15
283.15
300.209
283.15
283.15
290.46
283.15
283.151
283.15
284.222
289.56
287.91
288.976
283.15
283.15
283.15
295.785
283.15
283.15
283.15
283.15
283.29
290.114
283.15
289.89
283.15
283.15
283.176
289.919
283.15
291.634
289.947
290.271
287.448
284.865
284.972
303.15
283.15
285.568
283.15
304.303
283.15
287.61
284.829
283.15
285.382
283.15
283.15
283.15
288.606
283.15
283.15
283.15
283.15
283.15
283.15
283.15
301.82
283.15
293.977
286.149
294.238
283.15
283.15
283.15
301.914
283.15
283.15
293.028
288.365
293.228
300.138
283.15
283.15
283.15
283.15
299.373
296.629
283.15
283.15
283.15
283.15
283.15
283.15
303.144
283.15
283.15
283.15
299.174
283.15
283.15
303.15
283.15
283.15
283.15
283.15
286.949
287.52
283.15
283.15
283.15
283.15
283.15
283.15
283.461
283.15
286.579
283.15
283.15
289.716
283.15
283.412
283.15
300.59
283.15
283.15
283.15
283.15
284.597
283.22
283.295
283.15
283.317
283.15
283.282
283.289
300.253
283.15
283.15
283.15
283.15
283.15
303.106
303.15
283.15
283.15
283.15
283.15
283.15
303.15
303.15
283.15
283.15
283.15
283.15
283.15
285.803
283.15
283.15
283.15
283.15
283.192
289.782
283.15
283.15
298.583
283.15
283.15
283.15
283.15
302.512
283.15
283.15
283.15
283.15
283.15
283.15
283.15
283.15
283.15
283.15
283.15
283.15
302.713
283.15
283.15
283.365
283.15
303.15
288.094
283.339
300.903
283.15
283.15
283.15
283.15
283.15
283.15
283.15
283.15
283.15
283.15
283.15
296.363
283.15
283.15
283.15
283.15
283.15
283.15
283.15
283.15
283.15
283.15
283.15
283.15
283.15
283.15
300.807
283.15
283.15
283.15
283.15
283.15
283.15
283.15
283.15
283.15
283.15
283.15
303.15
283.15
283.15
283.15
283.15
283.15
283.15
302.477
283.15
289.861
283.15
286.151
283.15
283.15
283.15
283.15
283.15
283.15
283.15
283.15
283.15
283.15
283.15
283.15
283.15
283.15
294.265
283.15
285.173
283.15
283.15
283.15
283.15
283.15
283.15
283.15
283.15
283.15
283.15
283.15
283.15
283.15
283.15
283.151
283.15
283.15
283.15
283.15
283.15
283.15
302.966
283.157
283.15
296.869
285.482
283.15
283.15
285.42
283.15
283.15
293.372
283.15
282.85
283.15
295.021
283.15
283.15
300.058
297.321
283.146
295.927
283.15
300.958
283.15
283.15
283.15
283.151
301.332
283.15
283.15
283.15
283.15
283.15
283.15
283.15
283.15
283.15
283.15
288.521
283.15
283.15
283.15
283.15
283.15
283.15
295.029
283.152
283.179
283.15
283.15
283.15
283.15
290.424
283.403
283.15
283.15
283.15
291.92
286.644
283.15
297.521
283.466
283.15
303.202
283.15
283.15
283.15
283.15
283.15
283.15
283.15
283.15
283.15
283.15
283.15
283.15
283.15
284.895
288.217
283.15
283.15
283.15
283.15
283.595
283.15
288.435
303.15
283.15
283.15
283.15
283.15
283.15
283.15
283.15
283.15
283.15
289.959
303.15
283.15
283.15
287.538
283.15
283.15
283.15
286.336
303.15
283.15
289.713
286.575
283.15
283.15
283.15
283.15
283.15
283.15
283.15
283.15
283.15
283.15
283.15
301.586
283.15
288.648
283.15
283.15
283.15
292.534
283.15
283.15
300.901
283.15
283.15
283.15
283.15
283.15
286.222
283.15
283.15
295.903
283.15
283.15
283.15
302.447
283.15
283.15
283.15
303.115
283.15
283.15
283.15
284.59
283.15
283.15
283.15
283.15
283.15
283.15
283.15
283.15
283.15
283.15
296.623
283.15
283.15
283.15
283.15
303.15
283.15
283.15
283.15
283.15
283.15
283.15
283.15
283.15
287.493
283.186
283.15
283.15
283.15
293.672
283.15
283.15
283.15
283.15
283.15
283.15
283.15
283.15
283.15
283.15
283.15
283.15
283.15
283.15
283.22
283.15
290.932
298.844
283.15
283.15
283.15
283.15
283.15
283.15
283.15
283.15
283.15
283.15
283.15
283.15
283.15
283.15
297.209
283.803
301.637
283.15
283.15
283.15
283.15
283.15
283.15
283.15
283.15
283.15
283.15
293.578
287.025
283.15
288.464
283.15
283.15
292.004
283.15
283.15
283.15
283.15
283.15
283.15
283.15
283.15
283.15
283.15
283.15
283.15
283.15
290.953
283.633
283.15
284.154
283.15
283.15
283.15
283.15
290.951
286.699
287.819
283.151
283.15
283.15
283.15
283.15
283.15
283.15
300.988
285.034
283.15
283.15
285.062
284.943
283.15
283.15
283.15
283.15
283.15
283.15
283.15
283.15
283.15
289.044
285.029
283.15
283.15
283.15
296.933
289.22
283.15
283.15
300.244
283.15
301.679
283.15
283.15
283.15
283.15
283.15
283.15
283.15
283.15
284.089
283.15
283.15
283.15
283.15
283.15
283.15
283.15
283.15
283.15
283.15
283.15
283.71
283.15
283.15
283.15
283.15
284.782
283.15
283.15
283.15
283.15
283.15
283.15
283.15
283.15
288.972
283.15
283.15
301.235
283.575
283.15
288.403
283.15
283.15
288.473
283.15
283.15
293.864
283.15
283.15
283.15
283.15
283.15
283.15
283.15
283.15
283.15
283.15
286.903
283.15
283.15
283.15
283.15
283.15
283.15
283.15
283.15
283.15
283.15
283.15
283.15
283.154
283.15
283.15
283.15
283.15
287.004
283.15
283.15
283.15
283.15
283.15
283.15
283.15
283.15
283.15
283.15
283.15
283.15
283.15
283.15
283.15
283.15
302.496
283.15
290.292
297.191
283.15
283.15
283.15
283.15
283.15
283.15
283.15
295.685
283.15
283.15
296.057
283.15
283.15
298.232
283.15
283.151
283.151
283.151
283.15
283.15
283.15
283.15
283.15
283.15
283.15
283.15
283.15
283.15
283.15
283.15
283.15
283.15
283.15
283.15
283.15
283.15
283.15
283.15
283.15
283.15
283.15
283.15
283.15
283.15
283.15
283.15
283.15
283.15
283.15
283.352
283.15
283.15
283.15
283.15
283.15
283.15
283.15
283.15
284.884
283.15
283.15
283.15
283.15
283.725
283.15
283.15
283.216
284.917
283.15
283.15
283.15
283.745
283.15
283.15
283.15
284.999
283.15
283.15
283.15
283.15
283.15
283.15
283.15
283.15
283.15
283.15
283.15
283.15
283.15
285.303
283.15
283.15
285.508
285.348
283.15
283.15
283.15
283.15
283.15
283.15
283.15
283.15
290.123
283.15
283.15
283.15
283.15
283.15
283.15
283.15
283.15
283.15
283.15
283.15
283.15
283.15
283.15
283.15
283.15
283.15
283.15
283.15
283.15
283.15
283.15
283.15
283.15
283.15
283.15
283.15
283.15
283.15
283.15
283.15
283.15
283.15
283.15
283.15
283.15
301.694
283.15
283.15
283.15
283.15
285.597
283.15
283.15
283.15
283.15
283.15
283.15
283.15
283.15
295.528
283.15
303.15
283.15
283.15
283.15
283.15
283.15
283.15
283.15
283.15
283.15
300.443
283.21
283.15
283.15
283.15
283.15
283.15
290.604
283.15
283.15
283.15
283.15
283.15
283.15
289.678
283.15
283.15
283.15
284.897
286.499
283.15
283.15
283.15
283.15
283.15
283.15
283.15
285.771
287.809
283.15
293.637
283.15
283.15
303.15
283.15
283.15
296.838
303.15
288.252
283.15
283.15
283.15
284.224
291.739
283.15
285.897
283.15
283.15
285.255
283.15
283.15
283.15
283.15
283.15
283.15
284.572
283.15
283.15
283.15
283.15
283.15
292.465
286.966
283.15
283.15
283.15
283.15
283.15
286.481
283.15
283.15
283.15
303.15
283.15
283.15
283.195
283.15
283.15
283.15
283.15
283.15
283.15
283.15
283.15
283.15
283.15
283.15
283.15
283.15
283.15
283.15
283.15
283.15
283.15
283.15
283.15
283.15
283.15
283.15
283.15
283.15
283.15
283.15
283.15
283.15
283.15
283.15
283.15
283.19
298.859
283.15
283.15
283.15
283.15
283.15
283.15
283.15
283.15
283.15
283.15
283.15
283.15
283.15
283.15
283.15
283.15
283.15
288.023
283.15
283.15
283.15
283.15
283.15
283.15
283.15
283.15
283.15
302.576
283.15
283.15
283.15
283.15
283.15
283.15
283.15
283.15
283.15
294.126
283.152
283.15
283.15
283.15
283.15
283.15
283.15
283.15
283.15
283.15
283.15
283.15
283.15
283.15
283.15
283.15
283.15
283.15
283.15
283.15
283.15
283.15
283.198
283.15
283.15
283.15
296.227
283.15
283.15
283.15
283.15
283.15
283.15
283.266
283.15
283.15
283.15
283.15
283.15
283.15
283.15
283.15
283.15
283.15
283.15
283.15
283.15
283.15
283.15
283.15
283.15
283.15
283.15
283.15
283.15
283.15
283.15
283.15
283.15
283.15
283.15
283.15
283.15
283.15
283.15
283.15
283.151
283.15
283.15
283.15
283.15
283.15
283.15
283.15
283.15
283.15
283.15
283.15
283.15
283.15
283.15
283.15
283.15
283.15
283.15
283.15
283.15
302.654
283.15
283.15
283.15
283.15
283.15
283.15
283.15
302.761
283.15
302.966
302.578
297.031
283.15
283.15
283.15
283.15
283.15
283.15
286.764
303.15
283.15
283.15
283.15
283.15
283.15
283.15
283.15
283.15
283.15
303.15
283.15
283.15
283.15
283.15
283.15
283.15
283.15
283.15
283.15
283.15
283.15
283.15
283.15
283.167
283.15
283.15
283.15
283.15
283.15
302.728
283.15
283.15
283.15
283.15
283.15
283.15
283.15
283.15
283.15
283.15
283.15
283.15
283.15
283.167
283.15
283.15
283.15
283.15
283.15
283.15
283.15
283.15
283.15
283.15
283.15
283.15
283.15
283.15
283.15
283.15
283.15
283.15
290.218
283.15
283.15
295.43
284.15
283.15
289.886
293.441
283.15
296.336
283.15
283.149
303.15
293.558
283.15
283.15
283.15
283.15
283.15
283.15
283.15
290.876
286.481
299.05
283.15
303.15
283.15
283.15
283.15
283.15
283.15
283.15
283.15
283.15
283.15
283.15
284.644
283.15
289.611
283.15
283.15
298.609
283.15
283.15
283.15
283.15
283.15
283.15
283.15
283.15
283.15
283.15
283.15
283.15
283.15
283.15
283.15
283.15
290.636
283.15
283.15
283.153
289.718
283.15
286.538
285.131
282.274
283.15
283.15
283.15
283.15
283.15
283.15
296.751
297.882