/*--------------------------------*- C++ -*----------------------------------*\
  =========                 |
  \\      /  F ield         | OpenFOAM: The Open Source CFD Toolbox
   \\    /   O peration     | Website:  https://openfoam.org
    \\  /    A nd           | Version:  10
     \\/     M anipulation  |
\*---------------------------------------------------------------------------*/
FoamFile
{
    format      ascii;
    class       volScalarField;
    location    "4";
    object      p;
}
// * * * * * * * * * * * * * * * * * * * * * * * * * * * * * * * * * * * * * //

dimensions      [0 2 -2 0 0 0 0];

internalField   nonuniform List<scalar> 
111485
(
8.75508
2.03786
2.37093
8.67935
2.44917
8.54913
2.07674
1.80856
2.08438
3.05696
2.059
2.64221
2.09271
2.03718
2.10455
2.1402
0.682759
8.80498
2.07834
8.65015
8.63168
8.61477
2.10461
2.11999
2.44199
8.49732
2.93772
1.16192
2.36144
8.80319
4.02384
0.476912
8.69665
8.80381
8.7202
8.92323
3.98743
0.128943
4.67844
2.16887
8.89913
3.05682
2.16732
3.54285
4.39879
8.97595
3.34446
2.1141
3.0491
8.50916
8.50907
8.23389
8.51127
3.60422
8.51234
1.31094
2.10599
8.94774
3.34966
2.16436
2.17064
8.75349
1.67939
3.93491
8.38861
1.48023
7.04905
1.92466
1.6993
1.81792
4.27245
1.52766
8.34373
1.69324
8.89454
0.880464
8.65852
2.93734
8.61365
8.56711
4.08367
3.44393
8.70889
8.86454
1.67223
2.23427
5.57474
3.62349
4.16588
0.631876
4.42185
2.23764
1.68145
0.254054
3.06209
8.85956
8.75964
3.61713
4.28537
3.80323
8.72833
2.95706
8.88278
2.89373
1.97647
8.50185
8.83652
0.555738
2.28341
4.35289
0.380403
1.51623
2.23232
2.75187
8.49563
0.830121
8.52794
8.948
1.71098
8.65388
8.49455
7.8844
8.70993
8.95041
3.19145
8.87367
7.87367
0.640964
8.91526
4.82185
3.99088
3.61315
8.88722
7.81102
7.95694
2.02871
8.6735
0.879026
1.86094
1.88386
3.09139
1.88503
1.88339
2.33961
3.2542
0.0940705
8.67071
8.84658
8.88615
1.98285
2.34708
8.63369
4.02964
0.0104992
4.29507
1.96872
1.94837
2.08737
4.35634
8.95421
8.67995
1.96296
2.35163
4.38171
4.335
0.7688
3.86204
8.95112
4.40574
4.4179
8.88555
8.83483
2.54773
8.76796
0.149199
0.0281699
8.4495
8.33831
8.51246
8.47619
8.32836
8.67433
1.9865
1.99185
1.9705
0.0391756
2.94355
1.05493
3.97511
8.72036
0.925183
8.34109
8.76593
1.06288
3.04373
3.8428
1.40226
0.120749
8.89384
1.99387
2.31741
7.19158
3.4343
0.608062
8.92531
1.07052
2.80748
8.33376
3.82518
3.33101
2.32842
1.0432
8.3182
8.77809
1.05592
7.06422
3.61256
8.75805
1.07093
0.911062
3.10642
8.97147
1.18574
3.76281
7.55516
8.76507
8.89092
4.26287
4.32853
8.41871
8.09662
0.919273
0.242379
1.47775
8.4138
8.39368
3.93108
8.90854
1.97925
0.914313
0.921086
0.915344
0.9215
8.89972
4.11712
0.729325
8.92014
8.70026
3.62088
1.52596
8.43798
0.457675
0.684925
8.84115
7.74539
3.39069
8.49826
8.44916
8.01727
8.57488
0.800794
0.904719
0.0706133
8.97786
0.697876
8.68964
8.74762
8.91974
3.95408
2.94721
1.60184
1.62149
2.74934
1.60307
1.63468
4.13235
0.238385
0.250204
8.41935
8.8345
4.15347
0.558034
3.07031
0.296846
8.66428
1.62906
1.99281
1.59418
2.80715
4.1417
1.58641
1.61387
3.42052
8.9519
2.92124
8.76899
8.83702
8.4733
4.25032
2.76151
2.14273
8.54605
8.96618
1.25641
0.404146
8.625
8.78596
8.51888
0.904091
0.255288
1.9437
2.03816
2.20558
8.17279
8.84798
8.87761
1.25986
6.17318
2.15845
4.17737
3.91248
8.70285
8.74733
8.75735
7.95059
1.35689
2.42539
8.94533
1.33868
8.42169
8.49575
3.69062
1.34799
2.72326
1.32892
8.51861
7.93725
8.90228
1.34336
0.0739787
4.06092
8.47137
4.97836
4.03926
2.45956
1.19636
5.27887
2.22004
8.64902
2.22255
1.37101
4.14545
3.67991
2.48322
8.82357
8.87922
8.86384
8.68414
1.91989
1.16312
2.73676
2.22123
8.80424
2.58919
8.84997
8.76147
2.21955
8.54546
7.9168
8.97913
8.93488
1.97286
8.95137
0.0597131
2.55712
8.61582
1.78372
1.4136
8.47298
1.38818
2.61278
1.3929
3.83352
0.125684
0.264783
8.53079
8.84392
3.52642
8.93193
2.69657
3.73585
8.42506
8.91804
1.32088
2.66792
0.229504
2.56971
8.66314
4.01235
2.64109
8.52515
3.54057
2.67428
8.77959
8.66534
0.0595976
2.44746
8.91898
8.53301
7.38701
8.72602
2.50225
8.75964
8.71242
2.6508
4.01555
3.26146
2.44597
8.55768
7.95571
3.54758
8.01411
3.53745
3.56341
3.02644
7.1376
8.05069
0.228017
4.40101
8.79981
3.68577
2.57289
8.97384
4.44672
3.09248
8.02823
2.72449
2.63974
0.137624
8.5799
0.20535
2.7892
0.133973
4.32967
7.86737
4.25667
8.88976
4.02713
0.0594427
8.87831
2.72485
3.38236
7.77616
8.97238
8.19733
8.62926
2.45862
0.143958
2.69111
2.71129
3.81616
8.76829
2.75514
8.76179
2.45198
8.4996
8.76024
8.83598
2.71167
8.8546
8.77686
8.65304
8.76051
8.90559
3.39113
8.95264
8.241
8.85306
8.78034
8.54199
8.8849
8.63145
2.73773
8.85719
3.4238
2.80898
4.50009
8.50343
3.42131
8.85881
8.75063
2.71333
2.68588
2.74031
4.1831
8.21648
3.12917
3.13708
0.177581
0.302722
2.80365
8.82764
0.175846
7.77926
3.15311
8.78507
3.15988
7.88844
0.353324
2.68695
8.55263
8.88316
0.304264
8.60919
3.12795
3.14328
8.91367
8.85838
8.50252
8.8695
4.11441
3.11904
8.43992
8.93875
2.45466
8.61605
3.13555
8.64796
3.29769
8.75623
3.06197
3.14024
1.36699
0.340337
8.46303
0.0182126
8.48745
8.78903
2.87717
8.78939
3.07977
8.50896
3.17167
8.81253
2.88526
8.62424
8.03903
4.4907
2.89288
3.12094
2.89365
3.13464
2.66957
8.88148
3.1328
2.89509
8.74318
4.23854
3.91262
3.13517
8.45503
8.45939
2.43933
3.21342
6.41237
8.28297
2.90005
2.43586
2.94499
2.94924
0.380657
5.85889
7.99053
4.21872
6.13875
8.69147
3.11334
8.93513
8.0588
0.624471
5.84367
4.23941
5.30007
7.99412
2.96812
2.43962
8.49525
8.22547
2.43209
8.55384
8.60802
8.63213
8.4869
2.96958
8.84834
8.90899
2.99643
0.939801
7.48345
2.42125
8.2017
0.924969
8.50809
8.89166
2.98728
8.78172
8.51112
8.04237
0.0975789
6.92237
3.06043
0.632507
8.54287
4.43719
3.07484
2.52391
3.85556
4.72863
2.46658
8.79633
3.05465
2.5162
8.92789
1.43729
3.43822
2.58025
0.0933953
2.59134
2.58386
8.88934
3.13164
3.8181
8.02389
2.58895
3.14493
7.01392
0.629067
2.58259
3.15668
2.73174
2.74651
0.633811
8.47039
2.7499
3.09147
8.53866
2.9274
2.93274
0.67474
8.79457
0.0851253
8.94722
8.68399
8.82493
8.48702
2.51436
8.08424
4.08998
8.76925
8.52588
2.93586
2.94519
8.6061
3.14391
8.7523
8.91832
8.51608
3.21779
3.11906
8.05618
8.9511
8.78018
8.80575
3.92627
0.677317
7.96634
2.87164
4.35985
8.91285
2.87308
3.33788
0.372032
8.58903
8.75988
1.49262
0.664605
8.02419
8.87803
8.4149
1.1048
8.83961
8.53902
8.74844
2.84563
2.25823
8.62014
8.6538
8.52772
0.394358
8.93439
8.53111
3.23397
3.93601
8.01083
7.48853
5.15911
3.29486
0.018077
8.3706
2.41785
3.392
8.95317
8.50469
8.68043
8.76877
8.8578
8.63548
2.85336
8.74977
8.67757
8.4619
2.85992
0.65954
8.4968
8.50953
3.30555
0.66586
0.683307
8.55968
8.68622
0.672189
8.85224
2.87904
0.663383
0.692281
8.4929
8.72532
8.72465
8.81792
2.44952
8.70161
8.64974
3.60894
8.71772
1.16218
3.37775
8.41676
0.641261
8.37584
1.16082
2.98796
3.0945
3.27669
4.06357
8.16303
1.15248
3.3129
0.0162496
8.44262
3.68072
8.01807
0.198387
8.8292
3.4121
3.33408
3.4089
8.47821
8.73581
8.97621
0.665862
8.20808
0.437738
8.29838
2.20332
0.185647
0.47412
0.671157
8.63753
8.48054
8.34507
0.681364
8.51006
8.16952
4.38514
8.93415
8.93236
8.72152
8.68488
0.485138
8.38539
8.75691
3.92872
8.19381
8.94808
7.97851
8.73965
3.40325
0.468962
8.63722
2.46573
5.17423
3.4193
4.42005
0.585709
8.86823
3.01959
3.88612
3.42175
8.87265
3.54799
0.485293
7.79296
0.452216
4.18995
4.33666
1.80018
0.317952
4.2434
0.0966242
0.423613
8.81187
8.47847
0.316816
0.316332
8.90537
0.320878
2.69363
0.419692
8.44665
4.30045
8.82896
0.43832
0.419823
8.57234
0.196108
0.416349
4.29806
0.109268
8.41525
1.93968
4.3097
4.57411
4.27251
3.69766
8.79824
8.83252
3.61882
8.6782
2.76401
3.72784
7.84011
4.3835
4.21516
4.45686
8.68449
7.75522
0.996598
8.91417
9.12147
3.68325
8.49199
8.54904
4.2618
4.15814
8.68144
4.33142
8.76577
8.77972
8.92461
8.7584
8.50761
8.84685
3.71744
8.47237
8.88563
8.9137
3.96495
3.68788
2.2878
0.987517
8.59226
8.51137
3.84692
8.73156
8.54904
7.46411
3.76048
1.28833
8.59653
8.53809
8.49874
8.53149
8.85031
8.51538
3.81821
8.51128
4.29834
2.21177
8.80332
8.74245
8.50544
4.32433
8.50446
8.68225
8.81632
4.33131
8.84083
3.80892
3.96797
4.26394
8.62414
7.12506
3.83212
2.13032
8.33334
4.31531
3.18011
8.54781
8.39068
7.90357
8.53642
0.994409
1.92179
3.90984
4.31723
8.57897
0.98932
8.36721
7.97581
7.88561
8.89126
1.74138
8.74661
8.50495
4.04806
1.28832
8.50486
3.10318
8.24396
3.90775
8.54041
8.78561
8.84862
8.70963
0.461693
1.90112
4.77918
8.59131
8.44893
0.468309
8.68195
8.10267
8.76247
2.84234
4.33902
2.45297
8.54059
4.09303
4.0731
8.63518
4.08748
8.48897
3.55379
3.19818
1.86436
4.06528
4.04979
8.70664
8.7709
8.77296
4.08111
8.98256
4.11192
8.94234
4.95847
8.52926
2.1463
2.20989
8.50882
8.65832
8.50873
8.92915
4.11306
8.50793
7.90831
0.463132
4.12195
8.48986
8.08466
8.36168
8.09763
8.48888
8.71508
4.13628
3.20553
8.67642
8.49197
4.27639
8.76424
4.13455
0.474166
8.44663
3.61434
8.71784
0.282555
8.46322
2.37489
8.56539
4.32071
4.30559
4.22504
3.63002
3.62664
6.90932
8.37499
3.65503
8.50651
1.7364
8.5807
8.861
8.25846
8.85289
8.88573
8.9005
3.62518
3.62435
8.71999
7.78284
8.54708
3.68268
4.31039
8.7829
1.74543
4.28194
8.50738
0.613974
0.429825
1.66377
4.24415
8.67891
8.74191
8.81825
8.64153
1.75272
8.82947
3.70415
8.71868
3.72598
2.38261
8.8394
3.703
8.89713
8.66961
3.74044
3.93339
5.66461
8.71949
8.50145
8.52568
1.80904
8.3083
8.9595
8.37306
5.1122
7.92235
4.32938
8.08299
8.3518
8.39564
0.526023
0.464321
2.67398
1.99202
8.93341
3.72904
8.78885
8.9065
0.45291
8.4596
4.30814
3.71789
0.327418
3.76326
4.13057
2.64124
8.87716
3.92416
3.30284
3.22185
3.83591
1.33524
7.30809
8.74942
2.55541
8.55726
8.54178
4.4608
3.05359
4.14661
8.78313
8.71889
4.04102
8.50638
8.47323
3.78874
8.50702
8.50853
1.59161
3.79861
3.87789
1.56543
0.795687
8.50506
8.70148
4.43773
1.54454
8.63153
8.50677
2.72735
8.48922
7.76358
7.94527
7.96715
6.78895
7.76377
8.63163
2.59144
8.52152
3.86719
8.56539
6.35694
8.46399
8.46457
8.88253
8.67577
2.40669
8.68161
8.67614
8.0275
8.54313
8.87336
8.78072
1.46631
8.69469
1.3294
3.88591
8.46316
2.63508
8.60476
3.29295
4.29919
0.348242
0.361712
8.49378
0.390419
2.41226
4.21956
8.91591
3.96618
1.15922
0.17828
8.24807
0.226277
8.45826
8.87453
8.55073
8.62281
0.227501
8.76579
8.55263
0.179889
3.94646
0.175462
8.91172
7.29166
2.62413
8.82863
4.4358
8.50528
0.379848
8.45442
8.48054
2.61217
8.563
3.97943
8.76513
8.56528
1.14786
3.37088
0.842709
1.86639
4.36155
1.48355
8.57047
8.54996
2.23529
0.876766
1.45248
3.95481
8.68019
1.34477
8.66084
8.53136
2.27682
3.99846
8.4954
0.894704
8.87318
0.85152
0.785643
8.34848
8.62724
8.81758
2.23482
8.76107
8.76159
2.25124
0.847813
3.81773
0.212134
8.57956
8.86107
2.78393
2.26199
8.57684
2.24823
8.46274
2.23943
8.60699
8.58555
2.23679
8.68717
3.20605
2.0605
8.50255
8.62944
2.06525
7.76144
2.49639
8.74936
3.85918
8.76556
7.7951
7.69361
2.08077
8.04661
7.99485
1.91719
7.98744
6.64332
7.73015
8.45111
8.55431
4.22352
2.49594
8.77164
8.79041
2.46808
2.48247
8.50063
2.25623
8.64012
8.5523
2.87082
2.73563
0.0844596
8.60161
8.79239
8.76633
8.67758
8.4902
8.495
8.79716
8.51482
8.52826
8.62977
8.77212
8.55631
8.71536
8.58914
8.53258
8.45348
8.58704
8.62811
8.69635
8.74938
8.88553
2.52909
8.74217
8.59152
8.90488
1.72513
8.95724
8.55009
6.03277
8.41987
8.36714
1.73736
8.61494
8.36662
6.28616
1.74744
8.71637
7.82043
8.05888
8.54576
3.53291
1.75729
1.76552
1.69894
1.04018
8.5496
8.55446
1.3007
1.3656
1.6941
8.65838
1.54421
3.41389
1.67382
0.276348
0.312511
1.71013
0.535539
1.67035
8.92572
1.90026
1.54332
2.37289
1.54766
8.82287
8.78088
8.86752
8.72029
8.81693
1.35422
1.5665
8.81427
8.53246
8.5113
8.46067
8.55892
8.5807
8.44301
8.55706
1.54619
4.28568
1.56051
2.60433
8.45505
8.37096
3.49114
4.37707
8.6222
8.67772
2.49265
8.94768
8.74913
1.5381
1.54785
1.55102
2.45999
3.45972
8.56986
0.0203179
1.85741
7.91048
8.56028
1.83593
8.55269
8.47299
5.78218
5.22848
2.62556
8.44591
8.92931
3.94317
1.88516
0.0339876
1.36146
6.24981
8.72658
3.68549
8.54761
8.94259
8.37006
2.45809
8.55382
1.35295
0.061402
1.81207
1.87626
8.83184
1.19017
8.86991
8.31911
8.84191
8.52491
0.438925
6.76249
8.68358
8.6677
8.58539
1.35987
7.86679
1.21813
1.35666
0.426091
1.35885
8.46036
8.4444
7.88054
2.43301
1.0207
4.1656
8.50457
8.75162
7.87127
3.50878
2.60946
8.68082
1.00196
5.82171
1.88626
1.01574
8.69711
7.78047
1.0219
1.35253
8.78501
3.0567
2.96096
2.6144
1.19866
1.06598
1.09939
7.90573
0.401522
1.10225
0.933486
8.47422
1.807
7.94856
2.38394
1.15281
8.97565
0.285904
1.10195
1.20183
1.42983
8.82131
5.65109
3.8837
6.66363
1.10889
8.27573
0.343325
1.09687
8.5085
8.69982
4.46293
4.24757
1.58241
8.78432
2.66839
4.35149
4.10774
4.011
8.47892
8.94565
1.34669
8.62236
1.21457
4.29075
1.09869
0.333032
8.64322
3.2431
1.33765
8.54942
7.94072
0.848981
8.83794
0.853981
0.799419
8.76024
8.80428
1.89271
8.59465
8.59349
8.95836
0.327161
4.57642
2.4462
8.95796
2.37904
0.587401
8.41228
0.58326
0.61467
0.369136
4.26979
8.63952
1.20378
0.242548
0.601161
0.605634
0.384415
4.18436
2.18127
8.74769
0.0398164
0.41752
8.69806
0.607491
8.90825
8.75245
8.88755
8.94233
8.66092
3.51094
8.86016
0.585412
2.85582
8.93036
2.75145
8.47353
0.415014
8.54726
4.15744
8.31971
2.29469
3.64777
4.34848
0.631866
0.415696
2.37227
0.370783
0.642792
5.95321
0.632087
1.51753
0.647481
8.93051
1.35224
4.26793
0.655771
2.12179
4.28777
8.9141
7.93991
8.51205
2.40046
8.6541
7.54348
0.412907
8.59984
2.94688
8.54481
8.89693
8.6807
1.49471
2.50256
0.705445
3.7327
0.343554
1.28098
1.21541
1.53054
0.481532
1.20938
1.25844
8.49038
8.83321
8.97252
1.89811
1.32368
8.44194
8.67937
7.61448
1.21545
0.49422
8.62775
1.25886
8.78108
4.38374
2.41038
3.86972
8.69324
8.75795
1.50153
8.71744
3.19539
0.647948
8.28364
1.69133
2.12547
0.269051
8.51927
3.98547
8.03859
3.05722
2.4447
8.7029
8.90448
0.623136
7.33915
8.86182
0.811831
0.310991
8.74354
8.51755
8.00033
1.22518
7.58993
1.9137
3.5226
3.00713
8.75469
7.95664
3.45197
8.76181
8.77673
8.8204
8.65179
8.02939
8.3452
8.26461
8.54521
8.42692
8.23392
8.60785
8.30045
3.19835
8.30034
7.82167
7.65916
8.85502
7.90124
8.75786
3.51569
8.13106
8.33103
3.6065
8.51816
8.7001
8.44384
3.52787
8.60533
3.51435
3.87177
3.01293
8.15062
8.62655
3.51162
4.36905
8.45688
8.92824
1.89388
8.10334
1.88307
8.06306
8.78962
8.34416
1.87953
1.86736
8.79939
2.73123
8.50105
8.12403
4.14479
0.978795
3.5116
8.9192
1.88669
8.04395
2.94267
8.63623
8.52749
8.58894
7.92876
0.972406
1.18391
8.85998
4.21472
8.5442
8.54756
8.54185
8.66012
3.30885
3.30954
1.20827
4.54502
8.95708
2.42229
1.92224
0.892259
3.30564
8.93288
0.954924
3.30042
1.70867
4.38548
1.78632
8.51726
2.27873
3.35454
1.90468
3.37247
3.53043
8.5156
3.56284
8.41421
8.76655
1.56401
8.86281
2.40555
8.81531
8.50935
8.34972
8.52499
8.89574
3.3572
8.51017
2.79482
8.15845
8.8133
2.34351
3.2357
1.26905
2.70575
8.89023
4.93209
8.86364
2.95556
8.50878
2.34268
3.29609
3.3491
2.9828
8.50705
8.51047
8.46258
1.02853
8.81931
8.55032
1.02704
8.44629
8.55788
3.34243
8.5065
1.83192
4.35938
8.14094
8.21077
8.17674
1.20931
2.02595
8.65334
0.0413403
2.89064
8.0664
3.39867
8.83204
1.05073
2.37876
0.907033
8.63154
2.50887
1.3139
3.51834
3.26965
2.77242
8.70579
8.73513
4.25272
8.57119
8.63677
8.78957
1.0631
3.43001
1.38021
2.17657
7.98966
2.49884
1.91054
2.04842
2.45132
2.50275
3.13075
2.74859
8.6775
8.66971
8.67187
2.76107
8.8168
2.89929
7.21037
2.75373
4.31245
1.06439
0.522483
8.56418
8.79976
2.76278
2.74643
8.77046
8.70517
8.95417
1.14733
2.74511
2.83996
2.86315
0.284098
1.90639
8.57227
8.87484
8.74941
0.236578
1.83896
0.0316688
2.08333
1.19374
2.87941
8.41827
8.74731
7.71858
8.46254
0.297334
2.4585
8.72474
8.51558
8.48657
8.92768
8.94538
8.32998
2.97881
8.61717
3.63287
4.50356
8.52507
2.92212
0.0915672
1.12197
8.85097
8.37044
2.96012
8.71373
2.97928
4.10921
1.21702
8.30566
7.44695
8.64808
8.61585
8.57699
8.27716
5.62558
8.51625
2.99276
1.37745
8.75164
8.74123
3.04884
8.56781
8.75662
1.66844
4.33586
8.53858
8.53489
8.34325
0.629812
8.72071
8.72937
5.17421
3.05028
3.05094
8.63995
8.52178
8.0624
3.05652
3.02378
3.05142
2.16723
8.60614
0.525936
0.109987
0.133318
8.88874
8.8934
8.75121
8.90089
8.72138
1.66596
1.70832
1.37422
8.94242
8.82484
8.7151
8.79883
8.40218
3.70391
0.239911
0.0531106
8.48723
8.69979
8.95847
4.16007
3.46053
3.96898
8.77596
3.70505
8.55054
8.48641
8.73074
1.66195
1.84474
8.55324
8.48705
2.26494
8.7337
1.22032
1.51494
5.91596
8.54611
8.46893
1.22591
3.73204
8.42206
5.82924
0.187665
2.43562
8.62042
8.56413
8.9284
8.75113
0.337237
0.848285
8.56623
3.73278
3.21854
4.68372
8.65509
8.57277
8.55703
8.56644
2.49976
8.60668
8.66124
8.41298
0.563216
2.82508
0.696311
8.43617
8.90078
3.22026
8.29395
8.73765
8.57948
8.6188
1.77124
8.34235
8.55518
8.5646
0.693584
1.847
8.56901
8.85121
8.51121
2.14474
8.49588
8.49654
8.51616
8.86636
8.8313
4.42347
2.47508
8.99207
1.96341
2.47082
1.72365
8.9471
8.91593
8.69635
8.90896
8.553
2.33827
8.65417
8.11586
8.21891
3.2219
8.26548
3.20679
8.72449
8.81409
3.84683
4.73159
8.0901
3.23472
8.64917
3.22609
8.57499
8.52002
8.58193
8.95668
8.54417
3.67349
8.54796
2.07161
8.84317
8.02113
8.83556
8.57052
0.65175
2.97122
8.66458
5.90172
8.94585
3.27682
3.67073
2.96336
8.95729
4.33515
2.95188
3.69559
2.51331
4.30726
2.98592
8.36078
8.57915
4.28295
1.04114
2.96184
8.50404
8.30968
7.75221
6.17804
8.952
8.49746
8.8573
8.92368
8.96957
8.56287
2.93162
3.89069
1.38364
7.93232
4.10391
8.85757
2.37693
8.75289
8.96256
8.7372
8.32529
3.88177
8.34989
8.94895
8.64915
2.03517
8.66805
8.79908
3.81897
8.46809
7.35139
6.96858
6.81744
8.92796
6.91986
6.832
6.89898
7.21793
8.59226
8.59206
2.01916
3.08094
8.03554
8.00335
8.62114
2.04524
8.55416
8.44021
3.8494
8.5855
8.70939
3.28419
3.88936
8.94684
8.52443
4.13812
7.97856
8.44944
4.39003
2.20189
2.14221
8.41053
2.1706
8.89209
1.35098
4.32282
2.16012
8.66684
4.33189
2.16866
8.45311
4.09251
8.50719
2.04046
8.22816
2.01955
8.42363
3.67218
8.52574
8.40074
8.84015
3.90184
3.91162
8.9004
2.22071
3.68711
8.99473
8.66082
1.67791
0.0878948
4.41685
8.93917
2.28245
2.24952
3.84841
4.17546
8.96695
4.40358
8.57062
4.25737
8.75302
3.80942
3.67959
8.5064
1.40793
8.4547
3.80839
8.66784
8.50887
8.55143
8.76423
8.55966
8.74058
3.0735
1.6931
4.23183
8.5396
7.63248
4.22258
8.55589
8.95456
8.49917
8.93667
8.53152
0.0749529
8.66615
8.88032
8.57489
0.0659577
8.52482
8.69217
8.24961
0.334932
8.73568
0.330817
4.18607
2.99739
0.333473
0.343568
8.57055
8.55435
8.68234
0.351036
0.709356
8.38285
7.62628
0.355446
8.79073
8.8944
4.21887
8.5063
2.24424
8.54268
0.347299
3.79809
8.55147
8.58638
8.54661
8.86113
8.78682
3.81996
8.55116
0.360459
8.50745
8.62951
0.802887
8.84773
2.38284
8.38001
8.79756
3.11323
1.40986
4.26891
8.85896
8.86729
8.69058
1.40354
4.12071
8.49795
8.69205
8.31112
0.878283
8.54454
2.40071
4.25428
8.62194
8.57719
0.891581
8.74607
8.29405
8.73551
8.4536
8.78879
4.24575
7.5741
8.46588
8.83387
7.6577
8.58263
7.76349
8.48111
8.52821
8.42941
1.41487
8.45328
0.867144
8.39085
8.56152
4.52081
0.877815
8.54247
8.4653
8.56945
0.851174
7.92716
8.65786
8.3841
8.56344
0.956923
8.54205
4.2949
8.95521
2.89485
8.02085
3.47701
8.49258
8.78027
2.75404
7.8362
8.54347
0.705451
2.8357
8.92795
8.85774
3.10397
3.54687
0.863284
0.867109
0.878705
3.10967
0.857474
3.61081
8.4893
4.29784
7.68101
7.63107
8.64176
8.4604
8.77102
0.849049
8.93535
8.9655
8.91998
4.04675
3.58777
7.5289
3.26091
8.88056
3.3365
8.43301
3.88575
0.927443
7.7126
2.84082
8.47457
8.49298
8.66912
0.951221
2.91274
8.68715
8.76517
0.960883
8.85719
4.37396
8.77328
4.14631
8.73495
8.66744
8.90138
8.66191
0.763628
8.66045
4.7413
8.84271
2.99017
8.64224
8.58646
6.76348
6.61779
8.57743
8.59863
8.74969
8.88697
2.83313
4.3543
7.18652
8.84275
2.90396
8.61619
8.81754
4.36494
2.19803
4.03676
8.67528
0.528655
3.09437
1.50019
2.3363
8.76005
8.96867
8.97072
8.87089
8.68394
8.66304
8.66248
8.47413
8.67544
8.66302
8.71994
8.65237
4.14162
8.66923
8.56781
8.78961
8.8717
8.6464
5.94517
8.60681
8.60127
2.34012
4.28184
8.48732
8.94789
8.71233
2.04173
8.94232
8.74125
4.25613
8.75234
8.55044
8.78678
8.83437
3.8702
8.72195
4.40477
8.83816
8.78352
8.60883
8.65049
8.58283
4.26897
4.28097
1.13186
8.87825
8.4146
8.91196
4.29101
8.54527
4.27484
4.30234
8.74292
8.45174
7.53043
4.31539
8.49989
8.06206
4.31471
7.58436
3.17948
8.83836
3.66621
7.56521
7.28189
8.72283
2.80335
8.76152
2.8213
3.86908
8.51888
2.82926
4.28721
8.73863
3.89009
8.55292
8.51962
8.55823
8.50818
8.42758
8.64271
8.54386
8.93122
4.27675
8.10721
8.67019
8.78263
8.52344
8.49812
2.0614
6.54908
4.33517
4.47652
8.55197
2.67155
2.67488
8.69265
8.06214
8.45097
8.46609
8.48531
8.49657
7.77314
8.1147
3.34237
8.6241
8.94159
7.50838
7.76124
8.6929
2.79125
8.43899
8.49673
8.86317
4.08087
8.92263
8.61187
3.14317
8.72838
8.92293
8.42636
8.98212
3.16483
8.63589
8.61584
8.58902
8.46318
3.35441
4.08383
4.07688
2.79844
3.54847
3.55691
8.76657
7.83635
4.42547
3.46515
7.83296
4.42612
8.83946
4.09512
8.48488
4.08929
8.67388
8.51403
3.56453
3.93304
8.51805
3.4587
8.66302
8.762
4.08954
3.89086
8.87594
8.64088
8.50157
8.67854
8.57898
7.88993
8.88113
8.75742
3.4452
8.88635
8.72815
8.64826
3.57579
8.55613
7.90806
8.71058
8.65441
8.22079
7.99759
3.5743
8.49315
8.0161
2.09517
8.86064
3.45387
3.42883
8.5788
2.17159
8.73892
8.31213
8.83697
7.97059
8.85205
8.9387
8.97361
8.95288
2.13769
8.89959
8.80355
8.8986
8.42724
8.66229
8.44296
4.14395
8.72476
8.84769
3.88183
8.68969
8.69169
8.95338
2.118
8.62069
4.03948
7.90771
4.38928
0.258363
8.67467
7.83676
2.07421
7.70395
8.66964
4.33725
4.31882
0.0162932
3.73688
4.46792
4.06476
8.88828
8.47058
2.60982
4.17264
4.04862
2.53287
4.39985
8.83077
0.471845
2.60428
2.59955
8.95784
2.59381
0.40012
1.49156
2.46434
4.16298
2.69606
0.566763
2.4149
0.0896581
1.10697
2.47275
7.91601
0.103811
0.0180061
2.80315
3.26227
0.14076
2.46436
0.0993618
7.98882
4.23832
7.96197
1.32597
2.61708
3.31662
1.96358
7.96107
8.68427
2.41371
1.98114
4.18434
4.08032
0.679743
2.62095
6.91963
2.62907
8.72445
4.60171
4.20463
3.72843
1.50536
4.22002
4.28711
3.01107
1.86411
1.87745
1.35642
2.63444
0.137047
7.57105
7.1876
2.64626
8.57075
8.7195
2.49568
2.53386
0.2132
8.59559
3.77922
3.89486
1.80789
7.27063
8.72319
4.20279
0.059447
4.20595
8.96958
0.662272
8.78674
1.9493
2.97611
3.61733
3.6549
8.58589
8.73775
3.95813
2.5413
2.54481
8.74086
2.04815
2.54714
3.26898
8.75052
1.84181
0.156079
7.9448
1.50407
3.99327
4.01493
8.44377
3.84544
4.49684
8.7359
3.14836
0.28857
5.3576
3.19625
3.19963
0.582591
2.79177
3.23847
0.210009
4.19536
4.06142
3.0382
0.520804
2.70195
4.31045
1.96868
3.22173
1.11273
2.47778
4.31798
0.601138
8.75998
3.20189
3.1907
4.11621
0.797155
3.71229
8.47328
3.18938
1.49895
8.76989
3.77256
0.0652979
3.2083
3.0781
0.383498
0.0519886
2.75601
3.09734
3.81457
8.76783
8.71429
3.8369
8.90143
3.84752
3.74772
8.35329
0.391041
3.27895
2.04993
8.89805
1.49727
1.7055
3.77362
4.20835
1.68119
0.730374
2.07681
3.46534
8.72046
8.51645
4.1265
3.45504
3.75522
2.17148
8.51599
3.47846
2.98858
8.34559
2.05971
2.63862
0.158504
4.42445
3.57359
2.98381
0.623424
2.29723
8.90191
3.20959
1.64879
3.051
4.4057
8.51956
3.60447
8.50757
8.68299
1.73174
2.97167
1.87872
4.64582
3.89659
5.35109
8.70391
2.96941
2.99707
1.92309
1.91518
8.54871
8.95796
8.94462
1.92944
1.92241
4.39802
1.48191
8.3027
8.5301
1.91819
2.13546
3.6801
1.91782
1.91269
2.29652
3.53694
6.70037
8.59193
2.92314
0.217385
8.52662
2.75589
2.28283
4.51602
2.91738
2.28517
3.81473
8.52794
1.97275
2.37051
8.88836
8.31586
0.136639
0.251905
0.808839
0.338818
2.29142
2.31166
0.570881
1.48241
2.11892
0.330425
8.51299
8.49871
0.0128367
0.379187
2.28275
4.36403
2.21659
2.18244
3.02635
1.86482
2.20584
8.63642
8.88937
4.33039
8.5039
7.89949
2.39423
1.52129
2.34189
4.25041
8.11655
3.61161
4.37804
8.19829
4.38163
4.35685
2.20033
2.21779
0.153373
2.55828
4.17642
0.37435
8.69784
8.17185
4.00392
0.723894
1.92214
0.747096
3.7622
3.42791
4.13059
8.18823
2.34444
0.515257
2.03807
4.37181
3.59989
4.03844
4.35991
2.35211
0.540984
8.13117
3.31154
2.2573
5.96549
7.94705
7.67784
2.03723
7.87052
0.119082
2.02942
1.90458
2.56041
3.92193
7.02419
6.07704
8.53118
7.8072
3.82468
8.6685
8.66854
4.06176
8.70637
1.48701
1.97665
1.82116
1.39293
1.47459
2.62117
7.64512
0.715122
0.31833
3.39472
2.48304
1.39114
2.3354
8.69193
4.3709
1.36095
3.04714
8.67174
3.12781
2.43865
8.66632
8.55434
3.74919
1.34315
8.8228
2.75119
2.48305
3.76279
8.83962
8.66093
0.224423
4.32006
2.59101
8.67887
8.85641
8.66613
2.98221
5.84631
5.74325
0.939821
4.31081
8.95181
0.937245
4.31402
2.10505
0.245577
0.23797
1.00974
4.39774
0.268256
8.9744
1.0673
0.55457
0.0873422
1.69106
0.399433
0.388097
0.4126
0.436736
0.108795
3.8914
4.42077
2.31065
3.81333
4.19946
4.3626
0.425521
4.41295
0.42862
0.104581
1.23126
0.75316
3.76294
0.746833
4.44379
0.874163
8.27951
2.36165
6.4473
1.75058
2.62227
8.88908
3.21754
8.2853
2.74239
8.30261
8.44165
1.81575
3.29273
7.95546
0.725747
1.91573
3.27954
8.53274
8.86347
3.83526
1.05234
4.31096
1.73542
0.587765
3.20811
4.08772
3.05816
3.23112
7.70877
2.3406
8.70358
8.48473
1.3112
0.948484
4.27787
1.25723
0.838957
3.22479
3.34206
8.41242
4.12272
0.820407
3.18605
8.40691
8.91701
2.34944
2.74976
7.54621
3.73074
0.0817193
2.82342
0.164548
0.683758
1.75601
8.55678
6.8066
1.39831
4.01297
8.98285
1.31485
3.73576
2.96179
4.56315
1.39659
4.53844
2.3491
3.87722
6.99523
3.9613
8.63296
2.71158
3.2679
0.652137
0.0369761
7.83851
0.0537269
4.02372
3.10208
3.90235
8.16131
8.6631
1.47071
3.97368
3.10596
2.6833
3.70985
1.06535
0.208524
2.02637
0.236905
0.163746
3.74927
8.05248
4.29108
3.06251
0.0169159
3.6584
8.13891
8.57175
3.57739
4.24171
8.58896
4.24166
3.40202
8.15339
7.07337
7.20245
3.33373
1.37017
4.67032
7.3826
3.72588
1.55693
8.26883
0.429272
7.88071
2.95497
1.07057
8.82393
0.296618
3.67858
3.67619
0.951714
8.61851
4.34259
3.51776
3.91666
3.67491
3.82334
3.90426
3.35258
4.41743
3.45696
0.556343
1.39151
8.52106
7.77322
7.7225
8.34562
3.16114
1.61539
1.42009
3.67491
0.819324
1.43173
2.82399
3.29011
3.1532
1.03526
3.38546
3.6728
2.97698
0.764208
8.65526
3.65232
3.64506
3.2179
3.40655
8.27837
1.90755
1.94966
2.65683
2.66832
2.14001
8.46452
2.11801
2.12561
7.89546
2.15394
3.03651
8.34936
2.1522
8.32956
8.95448
1.90362
3.28902
3.05244
2.12297
8.55776
0.344669
3.39578
8.9518
1.72807
2.20335
1.80839
3.11952
8.3453
3.30872
3.29429
2.89042
8.40942
1.51675
0.57866
2.9523
1.3042
1.64152
8.89763
8.32685
8.08186
0.117641
8.15945
1.47875
1.22854
0.408206
8.48873
0.455567
8.37298
8.65614
8.44504
1.81761
0.0447399
4.35372
2.95085
1.58919
8.18336
7.88177
3.71509
3.65521
1.21627
4.17145
1.59689
4.30506
8.64624
7.34048
7.4054
8.6295
7.43458
0.0701805
8.71404
1.47818
2.79677
1.59637
0.314504
1.90293
7.72192
1.25622
2.80075
3.26254
3.84679
7.74634
8.62273
3.3741
1.2529
4.43631
4.33591
4.14967
4.28761
4.3737
4.37802
0.942588
0.218
0.947318
4.19332
0.92836
2.81236
3.02772
0.632623
0.929582
4.13864
4.32609
4.32181
4.12675
3.99299
0.653252
3.8808
8.93877
4.08259
3.67516
0.355099
0.216913
0.0792765
2.81795
2.12221
3.58826
0.233321
4.25556
8.55623
1.48725
2.02978
2.30092
8.54591
1.72229
0.955727
0.243695
2.08254
8.94348
8.51836
3.06146
0.60057
0.568639
0.119906
8.39532
8.77122
8.77636
2.29858
2.75358
0.53212
8.76236
1.52426
8.51086
8.50575
0.239022
0.169228
8.50489
0.538515
0.554631
0.0996175
8.94339
8.85068
0.987363
2.81675
8.51228
0.48569
0.456349
0.41862
8.51583
8.51481
8.51104
0.42369
0.48554
3.69638
0.451893
8.91566
0.410586
2.65581
3.73228
3.41915
8.31847
8.61579
0.41356
3.93641
3.83492
1.94587
8.33108
4.35551
8.69683
0.662958
4.1782
2.68078
8.36133
8.02514
3.98425
4.12232
7.95231
7.97729
8.71306
1.75176
8.23955
7.81153
2.77878
2.721
8.70894
7.8908
2.368
0.439342
0.43306
1.81636
1.52564
7.94871
2.81817
7.66715
7.59092
8.40012
1.91788
3.12844
0.438817
7.61823
8.64
2.71722
4.14764
2.88337
3.15855
2.48965
2.16525
2.4646
0.452644
7.56045
2.66926
1.97766
0.448619
1.79122
3.13147
6.72847
1.76835
1.77114
1.76284
1.7644
0.608018
7.46317
8.13703
2.05324
8.15302
8.20027
2.47298
8.16873
1.47519
8.08546
8.13144
8.4011
7.95512
1.96058
0.645135
1.97294
8.05003
0.944749
1.87122
2.64106
8.11824
8.75941
1.96465
2.08784
4.27407
1.96676
7.97031
0.0231555
0.434517
0.342058
8.56345
8.41644
1.16582
0.986887
8.43591
8.14393
3.62299
0.0318186
8.0552
3.97991
3.61043
3.61953
2.17115
8.10841
2.46684
5.0998
0.227913
0.0852999
3.63546
3.5869
3.32723
1.38426
2.52608
7.9921
2.82001
2.52048
4.25658
3.90176
3.61898
8.09221
1.7319
2.57334
1.45002
2.19698
2.54047
4.16083
0.230407
3.8261
3.36895
3.63243
1.0309
3.65295
3.82903
2.50532
3.07173
8.47498
4.31381
8.96713
2.48274
2.59069
3.6536
3.82801
3.54114
2.53255
2.5412
4.03908
1.96076
0.660558
8.52434
7.45984
3.82863
3.80734
2.98936
3.83383
4.24842
3.97247
4.2457
4.27087
7.58514
0.645862
4.28889
3.85492
7.65494
0.0656099
7.43263
1.9254
2.52347
4.37626
1.7231
8.94534
2.43997
4.21186
0.171349
8.67875
4.23115
0.560683
3.3005
4.21184
4.22557
7.50884
8.6552
1.78198
2.66201
1.40728
2.6584
2.39163
2.69928
4.30028
7.83852
0.0953829
7.72381
2.68718
0.643005
2.85542
8.82692
7.23566
3.97306
2.68932
1.94408
2.8958
8.66868
2.86729
2.90051
0.110917
2.8939
5.9745
5.27219
2.87642
8.63848
8.57937
1.72207
5.91621
3.92714
8.86065
1.29313
8.38465
4.13207
8.86985
0.806996
3.78373
4.32737
2.87887
3.02845
2.60315
3.6257
4.31996
0.24118
4.34501
1.60774
4.31595
8.30982
0.932084
8.54507
3.03676
3.07917
2.42438
2.14312
3.01826
0.119333
1.89885
2.9962
2.93341
4.44076
3.55197
3.98058
8.45449
2.99117
0.678033
4.19459
0.636448
3.01243
4.17598
0.93953
4.19949
2.69022
4.22942
2.71146
1.63607
3.05086
2.45984
8.57727
8.56196
2.59189
2.64619
3.32727
8.72094
4.06855
0.196059
2.52252
1.90998
1.20392
2.00793
1.71134
2.64182
0.00950675
1.50618
3.52613
1.26874
2.28856
2.05161
1.87943
3.52173
3.01147
1.25399
4.48194
2.82271
4.37068
1.10252
3.18798
4.26608
1.42194
0.0773486
2.01354
2.64137
1.13239
0.93746
8.47719
3.13989
4.33599
4.36246
5.86866
3.14184
7.68622
1.73757
3.13705
0.445
3.35861
8.51003
3.06488
3.5362
0.00571284
3.19267
4.18293
3.50844
8.66571
2.07328
0.283959
3.39294
4.33382
4.35498
8.47232
8.68738
4.97634
8.08712
3.51918
8.5791
4.41234
4.93334
8.05823
8.09633
0.248066
8.15771
8.71573
3.5149
1.99963
8.88551
2.38874
1.81269
2.49454
3.8363
8.71717
4.02743
3.54596
3.37408
4.66352
8.72374
4.25647
3.44385
3.85918
8.65836
2.04081
3.42242
8.49913
1.78955
8.66309
8.44535
4.2368
3.38794
8.76633
4.3063
4.21592
4.26812
4.18683
2.92278
4.11279
4.08524
3.07225
3.51787
8.93592
1.62926
0.583878
1.23995
0.177703
4.17398
0.55418