/*--------------------------------*- C++ -*----------------------------------*\
  =========                 |
  \\      /  F ield         | OpenFOAM: The Open Source CFD Toolbox
   \\    /   O peration     | Website:  https://openfoam.org
    \\  /    A nd           | Version:  10
     \\/     M anipulation  |
\*---------------------------------------------------------------------------*/
FoamFile
{
    format      ascii;
    class       volScalarField;
    location    "4";
    object      SgT;
}
// * * * * * * * * * * * * * * * * * * * * * * * * * * * * * * * * * * * * * //

dimensions      [1 -1 -3 -1 0 0 0];

internalField   nonuniform List<scalar> 
111485
(
2.75152e-12
6.54156e-12
7.96023e-13
7.41813e-14
9.06674e-14
8.3952e-15
1.87176e-12
3.07219e-12
3.13528e-13
6.38959e-15
2.50589e-12
1.28585e-12
1.2381e-12
2.81711e-12
6.79493e-13
3.10354e-13
1.90203e-13
1.96117
7.78524e-13
1.36618e-12
1.12644e-13
3.92616e-14
7.92425e-13
7.49575e-14
1.27489e-12
6.08289e-13
5.71419e-13
5.48413e-13
1.3925e-12
1.103e-14
3.47839e-05
1.92133e-13
1.7477e-13
6.65601e-13
0.00431417
1.01738e-11
9.32016e-06
3.6461e-13
4.28228e-09
8.15721e-12
3.52221e-13
1.84357e-12
1.27634e-12
2.49342e-13
0.0251299
2.21659e-11
6.84461e-13
1.27011e-13
1.34165e-12
1.07231e-13
1.4877e-14
2.00456e-12
1.68108e-13
2.06697e-12
7.1629e-13
1.41761e-14
1.43651e-13
6.41834e-13
4.48075e-13
2.99735e-12
2.88273e-12
1.43449e-12
5.67321e-12
7.0778e-06
1.1107e-12
3.89407e-13
0.198636
5.33634e-12
2.57067e-12
1.66563e-12
0.0151155
3.73564e-13
4.50245e-10
4.18812e-12
6.59596e-12
7.33633e-14
3.51549e-13
6.89304e-13
2.21654e-13
6.60863e-12
7.34673e-10
6.3485e-13
3.11926e-14
1.09412e-12
8.01543e-13
6.22561e-13
9.83945e-12
8.98503e-12
0.00254301
2.43946e-13
9.53981e-06
3.71652e-12
2.14737e-12
4.10924e-15
4.74254e-13
3.96683e-12
4.18945e-14
8.99255e-12
0.00107512
5.08088e-12
6.9861e-13
1.15151e-13
5.78676e-14
1.58951e-12
9.02644e-13
3.63097e-13
4.5133e-13
1.37404e-12
2.32715e-12
1.33866e-10
1.29076e-13
2.10013e-13
5.64229e-13
2.37033e-13
1.37326e-12
2.52629e-13
4.82177e-13
1.1052e-11
3.24556e-12
9.46235e-13
4.51983e-13
1.80231e-12
2.97537e-13
1.9801e-12
1.2519e-12
0.000144865
1.77022e-13
2.40339e-13
6.59647e-13
9.52246e-07
6.28609e-05
2.75616e-12
2.84573e-12
6.8131e-12
1.23958e-12
3.78794e-12
8.55696e-13
7.61448e-16
6.68855e-12
4.35274e-12
8.15617e-13
4.45706e-12
1.81375e-12
2.55236e-13
1.06255e-12
1.6172e-13
1.88292e-12
1.31572e-13
2.69665e-12
3.47978e-13
5.5821e-14
2.82056e-12
2.74212e-06
3.81264e-14
1.09341e-08
2.65256e-12
1.06365e-11
1.59932e-12
2.02765e-09
2.10453e-12
7.16091e-14
3.8303e-12
1.40555e-12
3.48481e-08
6.22709e-09
1.10259e-12
3.76354e-10
1.27441e-12
5.55863e-08
1.89608e-06
8.284e-14
2.94952e-12
2.10773e-12
9.43241e-14
1.82513e-14
4.53773e-14
1.29834e-13
2.10228e-10
1.47369e-12
8.80939e-13
1.11695e-09
2.73091e-13
2.81072e-12
1.38213e-12
5.15468e-13
3.49772e-13
2.01289e-13
9.34839e-13
5.50536e-11
3.26952e-13
4.72985e-13
3.51733e-10
1.1904e-12
1.99637e-12
5.26807e-13
1.82166e-07
6.6469e-13
7.77524e-14
1.18365e-12
2.51433e-12
2.06527e-13
6.94324e-06
8.23225e-14
6.206e-15
4.09965e-13
9.69226e-13
7.50211e-13
2.19748e-10
4.97419e-13
4.01088e-13
2.18427e-13
2.18574e-13
4.74065e-10
7.09844e-14
1.1586e-12
1.13025e-12
2.64195e-12
2.41353e-12
3.33205e-12
3.44806e-13
4.25466e-13
5.65528e-12
5.99865e-14
2.35407e-09
7.51794e-13
1.28519e-13
1.11528e-12
0.000133366
4.12917e-09
8.59258e-13
1.24349e-06
4.46149e-13
4.86829e-14
3.55584e-13
6.3943e-14
1.81954e-10
4.0302e-06
8.52326e-13
3.46066e-12
1.84185e-12
1.56183e-12
1.3605e-12
3.69699e-13
1.23603e-12
1.43572e-11
1.16546e-13
1.10683e-11
1.16911e-13
1.30082e-13
4.53275e-13
7.27048e-13
9.91455e-14
9.70217e-13
1.59078e-12
6.76374e-12
5.09277e-14
1.30114e-14
8.73125e-07
0.00120228
2.05111e-13
1.23739e-13
4.76218e-13
6.15102e-15
7.11516e-12
1.3341e-14
2.84077e-14
2.27803e-13
3.18384e-12
7.01035e-13
4.95978e-13
1.57255e-12
2.20248e-12
1.32682e-12
1.34176e-12
2.12019e-12
1.46043e-07
5.27866e-14
2.47852e-14
2.35121e-13
1.42487e-12
2.125e-11
2.05746e-13
2.36394e-14
2.00223e-13
1.43783e-13
1.05649e-13
3.3136e-13
1.81049e-13
4.0278e-14
6.76816e-10
2.15169e-13
6.44451e-14
8.02969e-13
4.81743e-12
5.14098e-13
1.46978e-12
8.95827e-08
2.24563e-06
0.000338792
1.59576e-12
2.63902e-12
5.4371e-13
7.3077e-13
1.53991e-13
6.38803e-13
3.79303e-14
4.44954e-12
6.3916e-12
4.16538e-14
2.05832e-13
7.32276e-12
8.14061e-12
7.10324e-13
6.99492e-13
1.14044e-12
6.16376e-13
9.88118e-14
1.88919e-05
6.22061e-12
7.48323e-05
2.05464e-11
3.69865e-14
1.20067e-14
6.77641e-13
6.80578e-12
2.2439e-13
1.88111e-13
9.91254e-13
6.43338e-14
3.28131e-12
2.55288e-13
1.34419e-09
9.82905e-14
7.23697e-13
1.41782e-13
2.59762e-12
4.77406e-12
4.78193e-12
2.14988e-13
2.27679e-13
4.04587e-05
2.09873e-14
9.83281e-12
2.85664e-09
3.65463e-13
1.44806e-14
4.88236e-06
1.02761e-12
5.06776e-15
8.38361e-13
1.03164e-12
2.04906e-07
1.30643e-10
6.14671e-12
4.40424e-13
1.1419e-11
1.03039e-11
1.37316e-12
2.85173e-12
7.01133e-15
2.07642e-12
4.56432e-13
3.34304e-13
3.10629e-12
4.6375e-13
2.126e-13
1.06271e-12
2.4435e-11
0.0854789
3.86244e-12
5.155e-13
4.58604e-13
7.07287e-13
3.25878e-13
1.3006e-12
1.22083e-13
2.40018e-13
1.71596e-13
4.56584e-13
5.7085e-12
1.2806e-12
6.47971e-13
2.79048e-07
3.48653e-15
5.57232e-13
4.71996e-12
5.76539e-13
1.02191e-12
1.69811e-12
1.68208e-13
4.72873e-09
6.00703e-13
3.79098e-12
6.89677e-13
2.85894e-14
4.7189e-13
3.68052e-13
1.70982e-13
3.28021e-06
1.03712e-12
2.90984e-13
1.06845e-13
1.99775e-13
1.37261e-12
1.00716e-12
4.284e-14
8.13704e-13
1.0374e-11
7.49942e-13
0.000174011
1.43591e-13
1.30403e-12
2.80241e-13
1.84265e-12
4.48137e-13
2.46739e-11
8.43673e-13
1.09981e-12
1.80433e-14
1.84963e-12
9.2613e-13
5.37561e-13
1.64216e-13
7.77578e-13
3.73319e-13
0.372326
1.19569e-13
5.78829e-15
0.0680509
2.9413e-13
1.84015e-10
9.14427e-13
9.21383e-12
6.79029e-10
2.80633e-12
2.06509e-12
5.68397e-13
1.89934e-12
4.43423e-14
3.47834e-13
3.47136e-14
6.16284e-14
6.52725e-14
0.0499162
2.9972e-12
0.0152959
6.96518e-13
1.16991e-11
9.46185e-14
2.49366e-13
1.31392e-12
1.33147e-13
3.5739e-12
4.40618e-13
1.05902e-07
1.99892e-13
2.08681e-12
8.69097e-14
1.2214e-12
4.25484e-13
1.85649e-12
8.77362e-13
1.07462e-13
9.17558e-13
7.51894e-13
3.53265e-13
1.39681e-13
1.40813e-14
1.32979e-12
2.78443e-13
4.07557e-13
9.78553e-08
1.23119e-13
3.37038e-12
6.46631e-14
3.86608e-12
2.08485e-12
2.12151e-13
3.28964e-14
9.94498e-13
2.69469e-12
6.03514e-14
7.26827e-13
4.60737e-12
1.00666e-14
3.032e-13
3.76313e-05
2.57843e-13
2.72966e-13
1.45829e-12
6.89362e-14
1.47364e-12
8.44263e-13
1.2671e-12
0.000963863
1.99976e-13
4.75417e-13
1.45916e-12
1.5803e-14
3.90857e-14
1.62777e-13
2.65007e-13
1.77847e-14
9.6898e-12
6.61206e-14
6.66821e-13
1.20958e-12
4.55618e-12
6.19689e-13
5.908e-13
0.000254841
1.41718e-13
1.54037e-14
5.91533e-14
9.33077e-13
3.34443e-13
2.34346e-12
1.5833e-13
1.55006e-12
2.85204e-13
0.000769584
8.51203e-13
3.19454e-14
6.41933e-13
2.52721e-12
1.01079e-13
7.19018e-13
2.55916e-13
6.15776e-14
1.85118e-12
2.21132e-14
6.01098e-13
5.0217e-13
4.87038e-13
8.93329e-15
5.05159e-14
5.87983e-13
7.42908e-14
4.64316e-13
4.22724e-14
1.04696e-12
5.13857e-13
4.39161e-14
2.11977e-12
3.96939e-13
9.91372e-13
2.65171e-12
0.140598
4.01448e-13
7.08279e-14
7.47204e-13
2.5218e-13
1.84106e-12
1.76296e-12
3.49126e-13
1.28404e-12
3.10677e-13
2.87796e-11
6.75603e-06
3.24259e-14
1.53209e-12
0.00203614
1.18749e-12
1.35459e-13
0.00022917
2.0866e-05
3.35586e-13
3.20676e-12
3.53211e-13
1.37082e-12
1.67919e-13
9.83018e-05
8.36129e-13
0.00236792
0.452239
2.67075e-14
3.17538e-13
9.27419e-13
6.74051e-12
2.82565e-14
0.000235827
0.000356429
0.00235326
8.47597e-12
6.24497e-13
4.00255e-13
3.86177e-13
4.22868e-11
1.31916e-13
3.99763e-12
5.3713e-13
1.16013e-13
1.20469e-12
2.67613e-12
2.10804e-12
1.73753e-12
6.29386e-13
2.36975e-14
1.03498e-06
3.45086e-13
1.10697e-12
7.47086e-13
5.14789e-13
8.37024e-12
1.28987e-12
2.28761e-13
4.05884e-14
9.83663e-12
8.34812e-14
1.26977e-12
2.25152e-13
7.83955e-15
1.02466e-12
0.0652735
7.4108e-14
1.15469e-12
2.42928e-08
2.4072e-05
1.60877e-12
1.34778e-12
8.55495e-14
5.0607e-13
5.48872e-12
5.88983e-14
5.3922e-13
9.66947e-14
2.14121e-13
5.38028e-15
9.45706e-14
3.2579e-13
9.98415e-13
1.72708e-07
4.68562e-13
2.14012e-13
4.00715e-13
1.69151e-12
5.22725e-15
1.24007e-12
2.15154e-13
1.93612e-13
1.55177e-13
1.81287e-13
7.43166e-12
1.65572e-13
4.8865e-14
9.81661e-06
2.65082e-14
1.16196e-13
4.01089e-13
1.41881e-12
2.01169e-13
7.3104e-13
9.92427e-13
5.83459e-13
1.23517e-13
5.38392e-13
2.41609e-12
0.00866652
1.19212e-13
2.8937e-15
7.84437e-14
1.62475e-13
1.62647e-12
3.19046e-13
2.04136e-12
5.30089e-12
8.15681e-13
9.05067e-14
8.00221e-13
3.72704e-12
1.82264e-11
1.88382e-12
1.51234e-13
2.96236e-07
8.83602e-14
4.52415e-12
3.69171e-13
1.67717e-08
8.27638e-13
8.74192e-13
9.25079e-14
1.87539e-13
2.07969e-13
3.25716e-12
4.42507e-13
3.00699e-13
4.62988e-12
6.12864e-13
8.05243e-13
2.94608e-13
1.48311e-12
1.08015e-12
2.457e-13
1.23326e-12
5.26107e-12
2.77688e-14
2.88817
0.373738
1.06122e-13
5.75383e-13
1.65418e-12
2.74204e-13
6.12922e-06
1.58246e-12
8.6897e-07
0.014345
2.82305e-13
2.76504e-15
4.43757e-12
5.4359e-13
2.21538e-14
1.91723e-12
9.62071e-14
2.98671e-13
1.72322e-12
2.05578e-13
4.79282e-14
2.58436e-13
1.24031e-12
1.73779e-12
7.26801e-13
1.65254e-13
6.87353e-14
4.1677e-13
1.18749e-13
7.67914e-14
3.71757e-13
2.84844e-13
5.87326e-13
4.53808e-14
2.59741e-13
3.76418e-12
4.35138e-13
1.41564e-13
1.74176e-14
2.82299e-13
2.30615e-12
3.44127e-12
1.35828e-13
1.17661e-12
6.70314e-15
2.73775e-12
4.73273e-12
2.53732e-12
6.73271e-13
9.09554e-14
9.01766e-13
5.53049e-14
0.434349
7.85808e-13
1.55402e-12
5.72354e-13
2.57429e-13
1.14823e-11
3.9377e-12
4.55006e-13
4.6122e-14
1.95568e-14
9.65303e-14
1.26266e-11
0.659359
1.26136e-13
1.77183e-12
8.36898e-14
1.92581e-13
6.68242e-14
2.77135e-07
3.65604e-13
7.17427e-12
2.55281e-13
2.74456e-12
1.08681e-13
1.78978e-12
1.44802e-12
6.99605e-14
4.4292e-13
1.52374e-13
4.81249e-13
4.97968e-13
7.00158e-11
8.25391e-14
2.38359e-13
4.91031e-14
0.0429518
1.63856e-12
8.1453e-13
2.48628e-13
3.79886e-13
2.04397e-13
8.23663e-13
4.19114e-14
5.34927e-11
8.55554e-13
4.17165e-13
1.40094e-05
5.0676e-13
4.0547e-13
9.50554e-14
4.64752e-13
2.46233e-12
9.02929e-07
1.48182e-13
3.36041e-06
1.2473e-13
3.41015e-13
2.41524e-14
1.3464e-09
6.54731e-14
1.18978e-12
1.9303e-08
6.9662e-14
2.13223e-12
8.56326e-14
2.49914e-07
9.8005e-09
6.82813e-13
6.54557e-14
6.36526e-06
6.36746e-15
4.12796e-14
6.05563e-13
3.15148e-13
6.5556e-13
1.16906e-13
9.51053e-12
1.49128e-13
3.56527e-12
3.59677e-13
1.23936e-12
7.57418e-06
6.19143e-13
6.55168e-16
4.41806e-13
9.00734e-13
1.77132e-13
1.147e-14
7.37942e-09
6.36323e-13
3.82139e-13
6.19108e-12
1.17647e-07
0.050306
1.15709e-08
1.6593e-12
3.22667e-14
6.55602e-13
2.78964e-13
6.64599e-13
1.43639e-12
4.80251e-13
2.21219e-05
0.00378978
0.000768178
0.00586271
6.04451e-13
7.91992e-12
4.19125e-13
1.09158e-11
0.00114529
5.14149e-13
4.92558e-13
1.01087e-12
0.00984717
0.0040688
3.80683e-15
0.00866135
2.07906e-12
3.54426e-13
1.2688e-12
2.4234e-12
5.43859e-13
4.11994e-12
1.21168e-13
2.94577e-13
1.72141e-13
9.57186e-12
0.00153588
7.85422e-14
4.40102e-13
2.5998e-13
7.42848e-15
2.75341e-13
5.21684e-13
5.14134e-13
5.08493e-14
1.82284e-12
1.29758e-12
2.40799e-14
1.70968e-13
9.44778e-13
1.60622e-12
1.83058e-13
1.47514e-13
1.75463e-14
4.30307e-12
2.66634e-13
0.0160024
1.10014e-12
2.01729e-13
1.77106e-13
8.15718e-14
0.0112201
5.68104e-13
4.67451e-14
1.10654e-12
0.0695546
1.23667e-12
3.5974e-12
1.54285e-11
0.0238795
2.27538e-13
0.0331636
7.52495e-12
1.20967e-12
5.15156e-11
0.00492375
9.10276e-13
3.62234e-12
1.5363e-13
1.06363e-05
1.13808e-12
5.69809e-13
2.57766e-11
7.04246e-10
0.00474338
6.39844e-14
1.7163e-13
4.98782e-13
1.0784e-12
7.79021e-06
2.72874e-12
1.11661e-12
2.64024e-13
3.63023e-13
5.10299e-12
1.54919e-12
4.50985e-13
9.77998e-14
4.55742e-12
5.63399e-12
2.21248e-12
3.12243e-13
2.04225e-12
8.29639e-13
8.45357e-14
4.53342e-12
0.0345387
1.27619e-13
3.0235e-13
8.01079e-13
1.45871e-13
4.56857e-12
1.44612e-12
1.69069e-12
0.00756787
1.65508e-13
1.22199e-12
0.00143622
0.000169435
5.56168e-12
0.000770089
3.0918e-13
1.42803e-12
2.75369e-13
3.53157e-12
3.68886e-09
2.0896e-10
2.40801e-14
6.27372e-13
6.03646e-12
0.000143555
1.04116e-12
0.00267505
9.49243e-14
0.0207777
3.70286e-13
2.06804e-13
1.54213e-13
2.45249e-13
1.73058e-13
9.46748e-13
3.28468e-12
0.00119601
3.1359e-13
2.70793e-06
4.12944e-14
0.000518004
9.70515e-13
4.13163e-12
3.14984e-12
3.74515e-12
6.99918e-14
2.62641e-14
0.00188993
1.33653e-13
5.9185e-13
2.39812e-13
0.00361169
1.27513e-12
0.00183388
7.51129e-14
3.30058e-13
6.53863e-12
6.12743e-13
1.60994e-13
3.36349e-13
5.08913e-12
6.21567e-13
6.54866e-10
0.0409664
1.10171e-06
1.94174e-12
1.82334e-11
4.03809e-07
2.61381e-13
9.1269e-13
2.23861e-13
1.13307e-12
9.60914e-13
3.34992e-12
5.84481e-07
4.8331e-13
6.73167e-14
8.58449e-12
1.91043e-11
3.0366e-11
1.67531e-12
2.83267e-06
1.23124e-11
6.78256e-11
2.04881e-08
2.61004e-12
3.4403e-12
7.33883e-08
1.97369e-13
7.13628e-14
2.01033e-14
2.16725e-12
1.44977e-05
5.56227e-13
4.17789e-12
1.37837e-12
3.90746e-13
3.1901e-12
8.22146e-14
2.02224e-10
1.81281e-13
2.94367e-10
1.37916e-13
2.78106e-13
3.84134e-10
4.56694e-13
1.27776e-12
1.34918e-09
3.72433e-13
0.0376474
2.12572e-13
2.31038e-13
1.89576e-13
9.65659e-12
7.15285e-13
6.87013e-14
1.43349e-12
5.05391e-08
2.04895e-12
1.17556e-07
4.65885e-13
5.84711e-13
3.06063e-13
1.64983e-12
4.50052e-14
3.20769e-13
5.70273e-13
3.34062e-12
4.3465e-10
3.10756e-12
4.98856e-13
5.5114e-14
4.31437e-13
9.73614e-08
3.36226e-10
1.39229e-13
1.18098e-08
0.000518396
8.45874e-13
8.67722e-13
0.000137386
2.91122e-11
9.34299e-14
3.84578e-12
5.00553e-13
1.59915e-08
2.77359e-12
7.85693e-13
3.83601e-12
1.254e-13
2.12948e-07
3.9994e-13
2.51229e-10
7.04171e-13
3.20005e-14
6.9733e-12
5.20075e-13
4.4672e-13
8.61052e-09
5.90413e-13
2.80078e-13
5.25672e-14
7.21418e-08
1.89085e-06
3.00267e-13
4.16564e-13
1.90433e-14
1.08506e-13
0.0483918
8.21178e-14
1.9332e-13
1.55611e-12
2.54624e-12
9.60691e-14
1.42101e-05
3.92731e-12
4.64392e-12
7.48018e-12
1.47653
9.82644e-13
8.85135e-13
1.06254e-12
6.40145e-07
1.54501e-13
3.92516e-12
4.02742e-12
1.35584e-12
1.22943e-12
3.47661e-13
8.17155e-13
2.11277e-13
1.11814e-12
2.39604e-12
5.37373e-13
3.18623e-12
1.23881e-12
5.03399e-13
7.23838e-13
1.46321e-13
8.83945e-07
1.12817e-13
1.84204e-12
5.99141e-13
6.33051e-14
0.0146066
7.93765e-14
1.65283e-12
5.76073e-13
4.51134e-14
3.96241e-12
0.0290438
9.97431e-12
5.24275e-06
8.15392e-14
7.69495e-14
3.08715e-12
1.4263e-13
9.80791e-13
1.32707e-12
1.95122e-13
4.33861e-13
6.63017e-14
3.06497e-12
2.35111e-13
3.70269e-14
3.75149e-05
6.82301e-14
1.09211e-12
1.4854e-12
4.3069e-12
1.30074e-12
1.38104e-06
3.0771e-13
1.41068e-13
5.96749e-13
2.90315e-13
1.76995e-12
1.81392e-13
1.59862e-05
5.51573e-13
1.51438e-14
1.88167e-13
4.10313e-14
3.37977e-13
4.19829e-12
0.0145213
5.9017e-12
3.63584e-14
1.24838e-11
4.67871e-13
2.21918e-13
7.3982e-13
1.44005e-09
5.26878e-13
3.02752e-13
8.13544e-13
3.38437e-14
1.28069e-12
2.07997e-06
4.17306e-13
1.44864e-13
1.37053e-12
1.15828e-13
5.15894e-14
1.04036e-11
8.52949e-14
6.37256e-14
1.59387e-12
1.76502e-13
9.89773e-13
9.20518e-13
2.28026e-14
8.0263e-13
3.47576e-14
8.85611e-14
6.51166e-13
5.57115e-13
2.18006e-12
1.10635e-12
9.30109e-13
7.1761e-12
8.80884e-13
5.22442e-13
6.33434e-13
4.79112e-13
1.88939e-12
1.72961e-12
5.96122e-14
4.77683e-13
1.81214e-14
4.34452e-14
4.94721e-12
7.60835e-14
2.2318e-12
3.04898e-08
5.30981e-12
8.70382e-06
2.09667e-06
2.95785e-12
4.27294e-12
2.34455e-13
1.41936e-12
1.01557e-12
0.010353
4.43417e-12
2.96068e-13
3.17127e-13
7.26648e-11
2.43822e-13
2.73155e-14
5.35146e-14
1.5966e-13
2.5979e-13
3.99016e-13
8.27336e-13
8.04285e-14
5.31311e-13
2.88029e-13
3.43177e-12
8.4456e-13
6.28543e-13
5.57224e-13
1.16598e-12
1.63097e-14
3.98166e-13
1.68554e-13
1.53795e-12
5.2011e-14
2.11349e-13
3.07953e-13
1.60347e-13
2.64155e-13
3.25473e-13
5.20867e-14
1.30639e-13
7.62686e-14
1.47524e-13
3.56378e-14
1.21644e-12
4.0123e-15
1.20342e-12
9.30795e-13
2.00027e-13
4.61926e-14
1.29916e-12
2.37432e-12
3.92891e-12
2.98015e-12
0.162712
3.6891e-12
1.23224e-14
2.1099e-12
1.32708e-10
2.63242e-14
0.0177954
2.25963e-12
5.13601e-14
0.00341407
0.00213516
7.8419e-13
2.71421e-13
2.27451e-12
1.65267e-12
3.14891e-12
1.1648e-12
5.02188e-12
2.85202e-13
2.04482e-15
9.01305e-14
6.14221e-12
1.02532e-14
2.57877e-12
2.4456e-13
4.33578e-12
2.89841e-13
3.9288e-14
4.4277e-12
3.84552e-13
7.3346e-12
2.02568e-12
8.48524e-12
6.07752e-13
3.24185e-13
2.47776e-13
2.97499e-13
1.5747e-12
3.45736e-12
7.9221e-13
1.69769e-12
1.76495e-13
9.11474e-13
1.55054e-13
3.76365e-14
4.6643e-13
1.66215e-14
4.87632e-14
2.35388e-13
4.65925e-13
2.74487e-12
1.52998e-13
0.0200849
2.55234e-12
4.24593e-13
1.87984e-13
2.54404e-12
2.10423e-13
4.29321e-06
1.06685e-13
8.35418e-14
3.93945e-13
8.29788e-13
7.26106e-14
8.19836e-15
1.18572e-12
7.93846e-13
7.20216e-14
2.04898e-13
2.79256e-13
1.18296e-13
2.66647e-12
9.50366e-06
2.87562e-13
1.05171e-11
2.64557e-12
2.9526e-13
0.00241027
0.421454
4.01679e-13
2.44961e-12
1.28772e-12
1.04934e-07
1.93765e-11
1.29015e-12
1.85412e-13
0.0876913
1.8265e-12
5.16165e-11
3.97094e-05
1.64723e-12
3.85899e-13
2.44953e-13
1.75921e-14
1.20309e-13
2.55709e-13
1.79139e-12
1.799e-12
1.85909e-13
7.91497e-14
3.69167e-13
7.00886e-13
3.68768e-15
2.05334e-13
1.90251e-13
0.487449
1.87022e-14
6.31101e-14
0.000981203
6.21127e-14
0.00105397
7.47158e-13
7.99318e-13
1.04884e-13
1.19438e-13
3.68732e-13
2.7135e-12
1.28534e-12
1.93339e-14
1.47854e-13
0.00118076
1.20238e-13
2.81131e-14
1.66698e-06
4.13207e-13
3.01807e-12
2.11856e-13
2.27524e-12
0.090946
4.27446e-11
8.28853e-13
3.25191e-13
5.2738e-06
6.20945e-13
7.65093e-13
5.20127e-13
9.17866e-13
9.61682e-15
3.81665e-12
9.3594e-14
3.91896e-13
1.17173e-12
1.22647e-05
7.8838e-13
6.04832e-13
5.85355e-13
1.16334e-10
4.60377e-12
7.29081e-06
4.42332e-14
2.58644e-14
1.70448e-12
2.22666e-13
4.02132e-13
3.15358e-15
4.56904e-14
7.9611e-06
2.58297e-05
2.27573e-12
0.102648
7.05851e-13
3.3011e-07
1.38344e-12
1.43261e-13
4.96141e-13
2.78502e-14
0.00149579
0.00356646
1.46477e-13
0.858623
1.60506e-12
0.126677
9.58291e-10
8.20714e-05
1.01091e-13
5.70907e-12
1.39774e-13
2.97951e-09
2.14417e-12
4.72359e-06
1.1028e-13
1.113e-14
1.06361e-13
1.64798e-14
4.13087e-13
6.41911e-13
0.00348043
1.45222e-13
3.40109e-12
1.24409e-12
1.86387e-13
7.33807e-12
0.000102296
1.08263e-12
4.61632e-13
4.34851e-13
1.38758e-12
9.0799e-13
0.017488
4.49572e-14
1.15144e-12
6.19133e-13
4.52607e-13
1.15062e-12
6.49301e-13
1.56508e-12
4.75473e-13
0.00375554
1.63391e-13
1.74101e-13
5.13777e-14
1.1927e-12
3.77334e-13
1.49568e-12
0.000192113
4.10299e-13
1.57598e-12
3.35737e-14
2.75313e-12
4.12395e-13
2.92857e-14
1.23481e-12
5.26508e-13
1.66798e-12
3.10644e-13
1.53096e-13
7.21434e-14
2.84199e-13
2.55414e-13
3.42954e-13
6.25525e-12
2.09471e-12
3.43252e-12
1.30927e-13
7.24761e-13
0.00167388
7.06512e-10
1.58827e-12
1.46364e-11
0.0301931
4.52466e-15
7.7343e-13
5.45897e-14
9.29349e-14
5.46876e-13
2.22287e-05
9.02087e-14
1.05751e-12
1.96174e-13
2.25859e-12
5.56838e-13
7.1636e-08
7.59541e-14
3.05141e-13
6.40503e-06
3.02443e-12
3.7127e-12
6.58046e-13
1.0525e-12
2.20916e-13
0.00529969
1.59115e-13
0.00148211
3.03892e-13
6.67102e-13
1.08042e-12
1.19075e-12
1.04711e-12
8.59551e-13
1.65411e-13
4.66851e-10
7.93777e-14
1.20769e-13
2.87514e-13
2.60874e-13
3.06446e-14
6.81242e-14
1.28799e-13
5.38515e-13
1.21725e-12
9.87654e-12
4.21431e-12
6.8921e-13
2.7235e-12
2.23464e-13
2.24821e-05
3.75392e-13
8.24816e-14
1.89855e-12
3.02275e-14
1.62574e-12
4.15699e-08
1.03427e-12
1.5891e-08
5.06541e-13
2.93785e-13
7.9959e-13
9.50886e-14
5.97877e-13
1.0083e-14
6.14515e-13
1.35669e-12
1.58272e-12
8.93135e-13
5.65299e-13
8.69222e-05
5.4526e-14
2.23004e-13
1.24711e-12
3.51287e-14
5.13665e-13
3.06378e-14
2.44829e-12
1.57716e-12
8.67701e-14
6.50003e-14
1.3582e-13
2.63016e-13
6.19031e-13
2.43395e-14
0.00228084
1.58663e-11
2.0245e-13
1.20824e-13
1.22961e-12
0.000979859
4.92015e-14
3.28154e-13
1.21424e-13
6.92276e-13
5.60597e-14
9.91597e-07
1.63455e-10
1.9617e-09
4.77746e-13
1.69191e-10
2.31913e-12
2.09773e-05
5.67398e-09
3.20801e-12
2.41129e-09
0.000154357
2.31243e-06
0.00073343
4.58735e-06
8.31598e-13
8.34227e-14
0.00593555
5.18565e-10
7.27702e-14
4.15465e-05
9.38267e-05
2.50781e-14
5.66345e-13
6.34271e-05
2.84918e-13
9.02453e-07
1.52045e-12
1.28024e-12
7.35362e-13
8.99973e-13
2.76912e-10
1.8086e-13
1.59886e-12
9.62208e-12
5.00864e-13
1.23704e-11
1.5046e-12
5.71115e-14
6.18208e-07
1.41356e-11
1.98614e-12
6.55756e-13
4.50541e-13
2.08815e-12
0.00243331
0.00703137
1.0272e-13
3.36404e-13
2.22413e-12
3.36844e-12
0.00237267
2.81246e-12
4.47031e-15
1.01605e-12
2.75918e-14
0.0257093
2.80435e-13
8.56957e-13
2.16641e-13
0.00102697
3.63537e-13
2.0404e-12
8.56586e-12
2.28241e-13
1.91939e-13
5.22494e-14
7.60458e-13
0.113132
1.64863e-11
3.50053e-13
5.01179e-12
1.4916e-13
4.44472e-14
7.19814e-13
1.25446e-12
1.27939e-13
7.70322e-13
3.8605e-09
5.91486e-13
1.48904e-13
1.15032e-12
3.24712e-13
9.96411e-12
3.30955e-14
2.69521e-13
1.78955e-14
5.23987e-12
9.10963e-13
2.94778e-12
1.81358e-13
7.71123e-14
4.52563e-13
4.60302e-12
3.11362e-13
5.5608e-12
4.76763e-13
8.00471e-14
3.34787e-13
6.0675e-13
1.25624e-13
5.88413e-13
1.18789e-12
2.35887e-12
5.04007e-13
6.07268e-13
7.18004e-13
1.33455e-13
0.030869
1.5752e-12
5.21037e-13
5.72962e-14
4.77013e-13
1.56983e-13
8.72851e-14
7.90108e-13
7.51877e-13
1.00351e-12
2.11845e-12
3.53962e-13
2.44758e-12
3.17648e-13
2.08677e-12
5.90949e-13
3.44464e-13
3.76695e-14
8.83062e-13
5.05222e-13
4.55087e-10
5.14615e-14
1.19955e-07
1.65429e-07
2.73937e-13
5.97367e-13
3.96038e-13
2.76539e-13
4.11639e-13
2.26789e-12
2.53399e-13
2.35732e-12
1.78488e-13
1.52567e-13
2.16923e-13
4.90323e-13
9.58631e-14
2.09054e-13
5.11149e-13
2.95438e-14
7.01237e-13
1.05656e-12
1.65269e-12
0.03487
3.49259e-13
9.17184e-14
9.44382e-13
1.49693e-12
1.61053e-12
5.66909e-13
4.24742e-12
2.86536e-13
2.79018e-13
2.24671e-12
1.8432e-12
1.80004e-13
3.64221e-13
3.96872e-13
8.83551e-13
6.38196e-13
1.39587e-13
3.70963e-13
2.06432e-12
4.06802e-12
6.76072e-13
2.19645e-12
6.83938e-13
0.00609845
1.13537e-12
1.74821e-14
1.84557e-13
8.06609e-13
2.50237e-13
7.13e-14
2.97036e-12
2.01866e-13
2.68217e-12
2.8981e-13
2.71369e-13
1.86873e-13
1.14363e-12
1.27257e-13
8.8901e-12
1.35806e-12
2.38352e-12
2.89794e-12
1.47336e-14
7.58995e-12
1.07814e-13
6.9417e-13
1.92404e-13
8.73784e-13
1.53616e-11
2.59546e-12
3.18324e-12
3.15941e-13
2.95469e-13
7.25172e-15
1.65916e-13
5.37039e-13
7.82591e-13
1.47736e-13
8.0798e-12
1.02492e-09
1.27254e-13
2.42568e-12
1.94732e-13
0.149043
7.18552e-13
3.76569e-14
2.32004e-13
9.12715e-13
9.31752e-13
1.20948e-11
3.71613e-13
1.45499e-12
1.59568e-13
3.99735e-09
1.66078e-13
5.62397e-10
1.44561e-05
5.97924e-14
7.9679e-13
1.01257e-13
6.53657e-10
0.0937673
5.35711e-13
4.14921e-14
3.47075e-14
2.83835e-13
4.57292e-12
7.77431e-14
1.53793e-12
3.7369e-13
2.74869e-12
0.0360947
4.12769e-13
1.28683e-12
6.46055e-12
1.54398e-13
1.12626e-12
2.4556e-13
0.0361819
1.49841e-13
8.94289e-14
2.35133e-13
9.2303e-13
1.32493e-07
1.37044e-13
1.05397e-13
1.83431e-14
2.34439e-12
1.28796e-13
3.55879e-13
7.33055e-14
9.56063e-14
1.17607e-12
8.97784e-12
2.80874e-12
1.68267e-13
3.61433e-13
1.71492e-12
1.59005e-12
4.12052e-12
9.03497e-13
4.66433e-13
1.19223e-12
8.09192e-13
1.47635e-13
1.45797e-12
1.00372e-14
5.5582e-13
1.41633e-13
7.15919e-14
2.66569e-12
2.05924e-11
2.71019e-13
2.39908e-06
3.03784e-13
2.28189e-05
3.52316e-06
1.37232e-12
1.54023e-12
7.98913e-13
4.93132e-12
1.49658e-12
2.76817e-12
2.37444e-12
2.08678e-13
2.34223e-14
4.17441e-14
0.774901
2.15601e-13
1.24267e-12
8.67541e-13
5.35399e-10
2.4106e-08
0.382121
1.43132e-13
4.18818e-13
1.66684e-12
7.94536e-12
1.23239e-11
6.57045e-13
6.31525e-13
4.25051e-13
2.81688e-12
4.07054e-09
4.25377e-13
0.101694
1.70559e-13
4.28208e-13
2.67624e-12
9.29765e-13
4.49355e-14
0.000143932
2.81945e-13
6.52036e-13
1.21729e-12
2.25324e-13
2.42919e-13
1.46668e-12
7.83643e-13
3.97337e-13
3.57282e-10
2.1591e-13
1.37232e-12
5.18389e-12
2.89966e-12
4.6199e-10
9.75315e-14
5.18255e-14
8.99605e-13
6.3378e-12
3.33068e-13
6.54796e-13
4.38527e-13
1.81202e-12
0.000462082
3.18187e-13
5.39295e-13
1.25382e-11
1.05278e-12
0.015614
9.51077e-14
1.38807e-12
2.42465e-12
2.43488e-12
1.3236e-13
4.66381e-11
4.82222e-12
9.1499e-13
8.01753e-13
9.39534e-14
8.80038e-13
2.63485e-12
0.0157071
7.98745e-14
1.331e-13
5.37384e-07
5.24553e-13
7.81299e-14
3.79789e-12
4.55025e-08
0.0167811
4.04269e-12
2.33268e-13
3.40441e-13
1.01711e-13
1.30199e-14
2.97103e-12
2.27519e-13
2.97031e-05
7.33411e-13
2.72679e-13
1.9103e-13
1.62601e-13
2.17387e-13
2.13635e-12
1.14306e-12
4.27845e-13
2.39545e-14
3.70535e-13
8.04173e-13
0.0934439
1.24515e-12
5.65477e-13
4.51023e-13
1.9593e-12
1.4132e-12
0.00223929
1.71633e-13
7.27574e-12
2.71616e-12
1.92226e-08
1.90324e-13
1.58665e-12
1.87339e-13
1.14758e-08
3.97028e-13
3.5226e-13
5.82876e-13
2.72683e-13
2.00359e-12
0.315477
4.29203e-12
2.35771e-13
9.60581e-13
6.61862e-12
2.26965e-12
0.00143766
3.13976e-13
8.46759e-06
7.32198e-14
2.31602e-05
0.000462263
1.29683e-12
1.1811e-12
6.88308e-14
1.74601e-14
4.54658e-13
5.01377e-10
7.77025e-06
6.54448e-12
9.14937e-12
1.66244e-12
1.60215e-12
1.11878e-12
8.5931e-14
2.63919e-08
1.06314e-12
0.16358
0.224058
0.406004
1.47669e-12
0.0639941
0.31871
0.247691
0.330582
1.37712e-13
2.8093e-14
2.07182e-12
2.21535e-12
1.38747e-13
0.0500349
1.36696e-13
8.72245e-13
1.65019e-08
8.842e-13
1.27524e-06
5.79499e-13
1.29714e-12
1.45183e-13
1.22372e-06
1.09089e-13
4.34811e-13
0.00044988
2.57696e-07
3.55504e-13
9.34312e-07
2.77693e-13
4.94211e-13
4.54924e-12
1.05247e-12
1.55176e-12
3.81354e-13
0.00564535
5.47387e-12
9.66823e-13
0.00291209
2.22872e-12
3.08121e-09
0.00207124
2.92976e-13
1.25259e-12
1.24158e-07
3.76633e-12
4.34338e-13
2.47378e-11
1.22002e-13
5.43326e-13
5.07244e-12
0.000190435
0.000278633
9.93872e-13
3.57344e-13
6.65416e-11
5.66935e-12
6.4088e-13
6.60012e-13
1.80073e-13
0.0163845
2.23879e-12
9.0181e-13
4.26751e-13
8.30334e-10
0.00485105
4.14779e-12
0.00246131
3.22646e-13
0.00239062
4.84367e-13
0.00323701
0.00204748
5.41084e-13
9.40885e-14
3.72407e-13
1.74666e-08
1.73849e-13
1.94593e-12
5.52428e-12
3.27067e-12
4.71868e-13
1.1179e-12
6.71599e-13
1.57718e-12
0.00121747
6.05933e-12
5.13518e-06
0.000338813
3.39459e-12
1.60226e-13
3.88157e-13
4.24341e-12
5.41677e-12
3.57695e-13
6.56002e-13
8.10541e-13
4.37827e-14
1.6441e-13
1.58617e-12
7.32969e-14
2.89351e-08
3.08957e-13
1.50337e-13
1.90445e-13
0.0100017
5.59342e-13
7.03787e-13
1.47369e-12
1.14082e-09
3.74817e-12
5.39327e-13
5.6299e-13
2.35184e-13
4.772e-14
8.44779e-07
4.26206e-14
3.97339e-12
8.0362e-13
0.000492172
6.02797e-13
3.73987e-13
4.39555e-12
2.06023e-13
8.65596e-11
2.34597e-12
6.03177e-14
5.40652e-13
5.91407e-13
4.93449e-13
2.762e-10
3.50943e-13
6.42256e-13
7.25542e-13
6.98394e-13
4.30363e-13
9.45329e-13
1.02692e-12
9.653e-12
4.39128e-13
3.54139e-13
4.032e-13
0.000965823
5.69812e-12
3.09319e-12
4.24293e-13
6.5285e-13
4.31339e-06
1.7168e-13
4.58552e-13
1.50105e-09
1.71449e-12
1.08027e-12
2.87878e-12
0.00294103
2.21141e-12
1.64031e-13
2.61212e-13
3.90323e-12
5.00076e-10
8.32442e-14
4.10811e-09
5.50726e-12
0.000437952
1.6264e-05
2.60176e-12
1.20269e-12
1.57451e-06
2.92365e-13
2.76204e-06
1.32615e-13
1.42579e-12
1.88221e-12
1.16426e-12
1.21917e-12
1.08011e-12
5.09755e-09
6.26707e-13
0.0535225
8.20561e-14
5.77388e-13
6.30994e-13
1.29133e-13
3.37663e-13
9.94275e-13
1.31693e-12
1.5817e-12
9.80009e-13
3.0206e-13
6.32471e-13
0.00625162
4.79837e-12
6.62645e-13
7.19825e-13
8.0459e-13
6.79417e-13
4.38556e-12
4.67313e-13
1.35049e-12
4.1777e-13
1.0986e-13
1.80433e-12
1.75274e-12
4.85186e-12
2.4611e-13
4.68938e-12
2.55814e-13
7.14882e-14
8.05319e-14
2.93561e-13
2.18664e-13
8.96489e-14
1.13596e-11
0.012764
1.64378e-12
1.1862e-12
7.31615e-13
5.52005e-12
1.05272e-12
2.35831e-13
3.04117e-12
1.37853e-12
8.0967e-13
0.00018844
3.54144e-12
9.0314e-12
7.19863e-13
4.96705e-12
2.07074e-12
3.07855e-13
1.22263e-08
2.34532e-13
1.75263e-12
2.07429e-13
3.7581e-13
1.54063e-12
2.01676e-13
4.02926e-13
8.85602e-13
8.95669e-14
2.73175e-12
5.76975e-13
1.23057e-12
0.013793
2.65321e-12
0.000216511
6.4511e-14
3.70638e-12
4.04546e-12
1.88898e-13
1.64458e-13
1.42385e-13
1.55962e-06
5.96854e-13
8.58684e-13
3.58986e-12
1.31392e-13
2.57758e-12
1.21986e-13
4.6634e-13
3.04364e-13
4.49944e-14
1.24844e-12
4.72808e-13
0.00187465
7.55714e-12
9.85684e-14
3.83459e-13
9.66388e-14
2.62983e-13
0.00802338
1.52212e-12
3.4892e-09
1.28015e-12
4.25441e-14
1.91111e-13
5.57271e-12
6.68023e-14
3.54951e-13
7.54386e-12
2.99472e-11
1.86016e-12
4.2651e-14
6.5867e-13
9.49301e-13
7.54961e-13
1.36972e-12
1.38114e-12
1.13491e-12
7.81944e-13
3.31035e-05
3.92365e-13
3.46384e-13
3.17347e-10
5.02057e-12
3.86593e-13
0.506249
1.30025e-13
2.41045e-13
1.2195e-12
0.00409341
1.31985e-13
1.86944e-12
4.9612e-14
3.10288e-13
2.08408e-12
4.94941e-13
0.0119636
2.37696e-15
3.54419e-12
2.1897e-12
3.7465e-13
2.0535e-09
3.21415e-13
1.01664e-06
4.30605e-13
6.95309e-14
8.94086e-14
7.28615e-13
1.58847e-13
0.0140307
0.0606322
1.57368e-12
5.17548e-12
6.68834e-13
2.41399e-12
0.0172241
9.85093e-13
0.00459154
0.0293119
6.38806e-14
4.22246e-14
3.12296e-12
0.0113803
7.47734e-14
6.15699e-13
0.0188943
1.05467e-11
4.84724e-13
3.76741e-13
1.1007e-10
5.48315e-12
0.000887488
1.86318e-12
5.95376e-13
1.39541e-13
9.2339e-13
6.03288e-08
1.64385e-12
5.63627e-14
0.00103773
5.57046e-13
1.68671e-07
1.38396e-12
1.63942e-13
2.45314e-12
8.56849e-13
1.41364e-11
3.86234e-14
2.93337e-13
1.2357e-12
0.0802632
1.20684e-13
3.9677e-14
2.74137e-13
2.89463e-13
4.52247e-13
1.11502e-12
0.280203
0.0323682
2.08178e-07
2.10566e-14
5.75159e-13
1.18736e-13
2.02314e-12
1.85912e-12
4.1417e-12
4.65121e-15
4.29191e-13
7.90538e-12
9.10144e-13
3.22054e-13
9.89173e-15
3.10474e-13
8.67724e-13
0.00779589
0.000335785
1.56356e-13
3.11127e-13
6.33836e-09
1.6067e-12
1.49623e-12
4.77809e-06
5.8033e-12
4.1062e-14
2.40065e-12
6.71801e-14
1.44053e-11
2.15666e-13
1.34391e-11
2.85159e-13
1.6066e-12
5.34573e-14
3.67588e-13
2.23071e-13
8.9597e-14
2.75057e-05
7.41575e-05
4.30507e-13
1.24626e-13
7.98228e-13
1.97064e-13
1.57392e-12
0.11301
5.57879e-14
8.69499e-12
0.0443837
8.07055e-12
0.000195154
9.91248e-13
0.000110133
1.72186e-13
1.54078e-13
3.71842e-14
0.00149707
1.98e-13
2.73741e-14