/*--------------------------------*- C++ -*----------------------------------*\
  =========                 |
  \\      /  F ield         | OpenFOAM: The Open Source CFD Toolbox
   \\    /   O peration     | Website:  https://openfoam.org
    \\  /    A nd           | Version:  10
     \\/     M anipulation  |
\*---------------------------------------------------------------------------*/
FoamFile
{
    format      ascii;
    class       volVectorField;
    location    "4";
    object      U;
}
// * * * * * * * * * * * * * * * * * * * * * * * * * * * * * * * * * * * * * //

dimensions      [0 1 -1 0 0 0 0];

internalField   nonuniform List<vector> 
111485
(
(1.01099 -1.01019 0.00101106)
(2.84942 -0.00270473 -0.00660285)
(2.84089 0.0058541 0.00629721)
(1.0092 -1.01071 -6.71108e-05)
(2.89733 0.00651051 0.0017544)
(1.01887 1.01692 0.000499534)
(2.86793 0.00516018 0.000914296)
(2.87986 0.000385127 0.00172401)
(2.8792 0.000612759 0.00144812)
(2.92759 -0.013093 -0.00381345)
(2.85907 0.00344167 0.00492014)
(2.93749 0.00272195 0.00639493)
(2.85294 0.00469821 0.00445648)
(2.83984 -0.00538666 -0.00769935)
(2.85921 0.00546269 0.00531194)
(2.87213 -0.000414366 -0.00744292)
(2.86389 0.00363817 0.00435577)
(1.02446 -0.0862774 0.170178)
(2.88912 0.00258094 -0.000872466)
(1.00813 -1.00601 -0.000144103)
(1.00816 -1.00729 0.000302391)
(1.0176 1.01805 0.000917195)
(2.87947 0.0043848 0.000427257)
(2.88932 -0.00722466 -0.00186865)
(2.88948 0.0113956 -0.0113072)
(1.01583 -1.0132 -0.00120369)
(2.95565 -0.00175326 0.00898236)
(2.86636 -0.0004535 -0.00219973)
(2.90945 -0.00147714 -0.00305814)
(1.00919 -1.00999 0.0024198)
(2.98978 0.0536838 -0.0162735)
(2.86508 0.000179588 0.00109427)
(1.00646 -1.00758 0.0015046)
(1.02002 1.01944 -0.000764949)
(1.03623 0.416255 0.171498)
(1.02385 1.03177 -0.0172578)
(2.97507 0.0497275 -0.0203418)
(2.86327 -0.00116684 0.0192212)
(2.95788 0.886351 0.0534708)
(2.88901 0.00582363 0.00303859)
(1.00729 1.0171 -0.0137233)
(2.94894 0.00341213 -0.0126129)
(2.88955 0.00735649 0.00350638)
(2.86377 -0.00861783 -0.00641884)
(2.9867 -0.0544153 -0.028898)
(1.01776 -1.01019 0.00197656)
(2.95422 -0.00745171 0.0127173)
(2.888 -0.00543773 -0.000997132)
(2.94739 -0.000703277 -0.011179)
(1.00371 -0.993894 0.0028966)
(1.00462 -0.998417 0.00526249)
(1.16179 0.972712 0.0175916)
(1.00005 -0.996107 0.00408999)
(2.96403 0.00898889 -0.0186788)
(0.996803 -0.993341 0.001764)
(2.86583 0.000588748 -0.00147875)
(2.88191 -0.00430271 -0.00118254)
(1.01762 1.01912 0.00189723)
(2.70122 -0.00602986 -0.0343454)
(2.8915 0.00613517 0.000440542)
(2.89098 0.0066026 0.00092349)
(1.00692 -1.00939 0.000796464)
(2.85532 -0.00139429 0.000237499)
(2.98811 0.00316539 0.0165721)
(1.0551 0.957527 0.00266702)
(2.865 -0.000346855 0.000431651)
(2.10126 -0.195334 0.0606598)
(2.88225 0.000656111 -7.09914e-06)
(2.85335 -0.0004077 -0.000883512)
(2.84434 0.00140908 -0.00370532)
(2.87653 0.0283913 -0.0159268)
(2.86214 0.000168236 0.00108526)
(1.08874 -0.985694 -0.0212204)
(2.8528 -0.000948086 0.00256754)
(1.00857 -1.00987 -0.00115165)
(2.86739 -2.83855e-05 0.00148909)
(1.01769 1.01713 -0.00173954)
(2.9448 -0.0038352 0.00667843)
(1.01705 1.01838 0.000843389)
(0.92325 0.894171 -0.0310457)
(2.88194 -0.0397197 0.0265575)
(2.95347 0.0154708 0.00339074)
(1.01734 1.01758 -0.000968801)
(1.01002 -1.00957 0.00021931)
(2.86358 0.00101271 -3.16581e-05)
(2.81864 -0.00057517 0.00115707)
(2.29998 1.48701 -0.399419)
(2.92883 0.0236463 0.00262845)
(2.83775 0.0700399 0.0585329)
(2.86361 -0.00246549 9.11367e-05)
(3.03242 0.0442903 -0.0352044)
(2.89779 -0.000609992 0.000421052)
(2.86286 0.000922077 -0.00211957)
(2.86352 0.00168668 0.000465127)
(2.95083 0.00227731 -0.0101137)
(1.00941 -1.00871 -0.000296674)
(1.00772 -1.00855 0.00144055)
(2.92728 0.0242967 0.00814218)
(3.05495 -0.610023 0.0391215)
(2.8075 0.00104307 0.0190304)
(1.00953 -1.00945 0.00255976)
(2.91732 -0.00679656 -0.000480501)
(1.02398 1.02736 0.0052504)
(2.91001 -0.00289452 -0.00160034)
(2.85878 -0.00232385 -0.00521681)
(0.998605 0.887507 -0.0220872)
(1.01891 1.01837 -0.000487295)
(2.86461 -0.00137819 -0.000103408)
(2.83951 -0.00251344 -0.00330176)
(2.63541 -0.0748355 -0.0733766)
(2.86766 0.00126982 0.00114998)
(2.86464 0.000852291 -0.000322362)
(2.82188 -0.00197354 0.00466493)
(2.79597 -0.00622929 0.00157547)
(1.01823 -1.01341 0.000260573)
(2.86446 1.97806e-06 -0.000321162)
(1.01305 -1.01046 -0.00152485)
(1.02352 1.01949 0.00449717)
(2.86269 0.000777078 0.000574139)
(1.01008 -1.01065 -0.000151412)
(1.01595 -1.01253 -0.000754111)
(1.3508 1.05739 0.0674003)
(1.01189 1.01566 -0.000601853)
(1.02134 1.01865 -0.00261141)
(2.8375 -0.00616946 0.00968642)
(0.816346 -0.591121 -0.144589)
(1.28932 1.1037 0.0396854)
(2.86449 -8.23764e-05 0.00102822)
(1.01093 -1.00939 -0.00177745)
(2.97152 0.202982 -0.0825767)
(2.95929 0.0612617 -0.0350205)
(2.92132 0.0240507 0.00843597)
(1.00627 -0.999383 -0.0051833)
(1.31937 1.14634 0.118494)
(1.23204 1.09843 0.0518762)
(2.88808 0.00200165 -0.00160601)
(1.02015 1.01839 -0.000898038)
(2.86355 -0.000341396 -0.00101639)
(2.86854 0.00433503 0.00145425)
(2.85441 0.00136282 6.06311e-06)
(2.4984 -0.000579808 0.00371903)
(2.87347 0.00341293 0.000750307)
(2.8655 0.00396741 0.00201895)
(2.83231 -0.00282397 -0.00190352)
(2.91031 0.00498836 -0.00403021)
(2.86036 -0.00565838 -0.00192986)
(1.01875 1.02012 -0.000533506)
(1.0097 -1.01073 0.00113124)
(1.01602 1.01682 0.0019306)
(2.87725 0.00437752 0.00221606)
(2.83624 -0.00174146 -0.00173349)
(1.00814 -1.00769 -0.00126085)
(2.03856 -0.00310836 0.016266)
(2.86751 0.00621035 0.00837484)
(3.15255 0.113936 0.059067)
(2.88424 0.00274415 -0.00122919)
(2.8767 0.00196458 0.00121033)
(2.83772 0.00644509 -0.00407452)
(3.17431 0.143859 0.039718)
(1.00522 -1.01369 0.00479642)
(1.00721 -1.00895 -0.000109252)
(2.88282 0.000789662 -0.0016387)
(2.86795 -0.00560923 -0.00291943)
(3.1942 0.165287 0.0439897)
(3.14839 0.145648 0.0610452)
(2.86288 -0.00413045 -0.000904242)
(2.9485 0.0228807 -0.00790536)
(1.00576 1.01499 0.000264063)
(3.23538 0.204759 0.052307)
(3.07863 0.141194 0.0517026)
(1.01839 1.01706 0.00224804)
(1.00836 -1.00799 0.000461599)
(2.65451 0.00579885 -0.00513446)
(1.01885 1.01932 0.000830806)
(2.86736 -0.000613006 -0.00119581)
(2.87139 0.00116361 -0.000591887)
(1.01829 0.994181 -0.0062131)
(1.08458 -0.99982 0.0104082)
(1.01183 -1.00801 -0.00150786)
(1.00231 0.941484 -0.0103899)
(1.09292 -1.01052 0.018403)
(1.00706 -1.00959 0.000713505)
(2.8778 0.00381924 0.00175191)
(2.88228 0.00149659 -0.0011289)
(2.87656 0.00425968 0.00042502)
(2.84787 -0.0181011 0.00885493)
(2.82017 -0.00384002 0.00169703)
(2.86458 0.000583782 -0.0010715)
(2.58324 0.0192157 0.00325262)
(1.0092 -1.0057 9.52592e-05)
(2.86407 -0.0015781 -0.0056415)
(1.08467 -1.00742 0.0104768)
(1.01849 -1.01922 0.000748266)
(2.86417 0.000854196 -0.000250357)
(2.93026 -0.0181042 -0.00425748)
(2.93302 0.00231027 -0.012857)
(2.86479 0.000439169 -0.000453801)
(2.86629 0.00200493 0.00106745)
(1.00758 -1.00502 0.00343783)
(2.86959 0.00294137 0.00045274)
(2.83238 -0.00357298 -0.00425113)
(1.96177 0.609486 0.0890008)
(2.88175 -0.0163933 -0.00139277)
(2.86693 5.35202e-05 0.00110522)
(1.01301 -1.00983 -0.00278215)
(2.86438 0.000111748 -0.00145644)
(2.92865 0.00467617 -0.00271635)
(1.09788 -0.995524 0.00292033)
(2.84854 0.000202181 0.0125045)
(2.95649 0.00275428 0.00658753)
(2.8322 -0.00279487 -0.00123389)
(2.864 0.00235971 -0.0011794)
(1.09325 -1.01485 0.0124665)
(1.00815 -1.00899 -0.00125574)
(2.86245 0.000282573 -0.000179609)
(1.83201 1.14062 -0.108813)
(2.98472 0.0064889 -0.0211582)
(1.01833 1.0183 -0.00153935)
(2.86406 -0.000626518 -0.000566519)
(2.86428 0.000152372 -0.00115243)
(2.95504 -0.000386507 0.0122108)
(1.01153 -1.00935 0.00226177)
(2.86579 -4.95042e-05 -0.000771377)
(2.95119 0.0382102 0.0204767)
(1.61324 1.07353 -0.115602)
(1.01896 1.01808 -5.73588e-05)
(1.01812 1.01822 0.00183416)
(3.02945 -0.0167415 0.0395971)
(2.83981 0.0598469 -0.000809303)
(1.06889 0.900987 -0.021661)
(1.24907 -0.973066 0.035795)
(2.86369 -0.000636378 -0.0010729)
(2.86717 -0.000213852 0.000126428)
(2.87207 0.00232193 0.00550365)
(1.05835 0.916188 -0.024035)
(1.06623 -0.986257 -0.00442202)
(2.86037 0.035706 -0.0413812)
(1.00896 -1.00921 0.00127585)
(2.83483 -0.00350323 -0.00264532)
(2.86539 0.000150317 0.000638519)
(2.86524 -0.000103449 -0.000548774)
(2.86574 -0.000593016 -0.000408434)
(2.86552 -0.0006272 0.000423532)
(1.01562 1.01642 0.0048809)
(2.22613 -0.00209712 -0.0701649)
(2.86453 0.000948452 0.000124635)
(1.01296 1.01734 -0.00363495)
(1.01745 1.01976 -0.000811084)
(2.98424 -0.0246059 0.000355858)
(2.86007 0.0106251 -0.00204427)
(1.04296 0.888733 -0.0290157)
(2.86733 -0.00135444 0.00105804)
(2.86418 -1.579e-05 0.00010719)
(1.00984 -1.00964 -0.000889885)
(1.29536 1.22239 -0.00766167)
(2.94373 0.0311966 -0.0140748)
(1.01192 -1.00084 -0.000870885)
(1.11205 -0.802964 -0.0232112)
(1.52535 -0.547488 -0.0499076)
(1.01105 -1.00831 -0.000961214)
(2.86654 -0.000460132 -0.000236997)
(2.86207 -0.0007396 -0.000796989)
(2.86452 -0.000996488 -0.00629626)
(1.00936 -1.00909 -0.000964002)
(2.8658 -0.00131564 0.00102462)
(1.01099 -1.01084 -0.00167101)
(1.00958 -1.01108 0.0010526)
(1.00772 -1.00457 0.00205617)
(2.13671 0.010536 -0.0248135)
(2.94474 -0.00209731 0.00731579)
(2.86017 0.00341318 -0.000333228)
(2.86404 0.00190656 0.000391981)
(2.94492 -0.00424147 -0.00166457)
(2.86451 0.00169194 -0.000651272)
(2.86594 0.000731508 0.000722517)
(2.97067 0.0460007 0.000173237)
(2.86679 0.00102901 -0.00153186)
(2.86657 -0.000777913 0.000134163)
(1.03597 1.01879 0.000248472)
(1.00681 -1.0091 -0.000501555)
(1.94078 0.00886951 -0.0378522)
(2.86785 -0.000267196 0.000934602)
(2.94673 0.0215625 0.0262949)
(2.86705 -0.000454897 -0.000474372)
(1.00879 -1.00939 0.00251438)
(2.86204 0.000595448 0.000159364)
(2.87609 0.00666052 0.00164833)
(2.86574 0.000962225 0.0003616)
(2.71439 0.0051288 -0.0168652)
(2.67979 -0.0278724 -0.0566459)
(2.8658 0.000909029 0.000439123)
(2.86477 0.00160514 0.000524462)
(2.92808 0.0254262 -0.0161068)
(1.01814 1.02002 0.00378694)
(2.79163 0.00467864 0.00171896)
(1.01819 1.01842 0.000494415)
(0.825493 0.616325 -0.138456)
(1.13107 -0.740991 -0.0671419)
(3.04487 -0.0189926 0.0452161)
(2.94545 -0.00416862 -0.0016674)
(2.87936 -0.00498834 0.00162668)
(1.01028 -1.00928 -0.00144067)
(1.01553 1.02059 0.00674606)
(2.86447 -0.000446285 -0.000631884)
(2.86297 -0.0015193 -0.00109255)
(1.01006 -1.00864 -0.00104043)
(1.00992 -1.0093 0.00298834)
(0.992257 -0.996946 0.00472809)
(2.86475 -0.00026372 0.000271097)
(2.86548 -0.00217707 -0.00148905)
(2.84908 0.00300099 0.00349768)
(2.83925 -0.00168997 9.46615e-05)
(2.90042 0.00498067 -0.0016238)
(1.17216 1.00286 0.0255004)
(1.01682 1.0189 0.00161756)
(1.01006 -1.0081 1.00479e-05)
(2.86628 3.594e-05 0.00174564)
(1.91624 -1.62327 -0.115277)
(2.84171 -0.00430425 0.00596295)
(3.02158 -0.0112567 0.0605074)
(2.4926 0.00102634 -0.038332)
(1.01686 1.02091 0.000408059)
(1.00959 -1.0096 0.000269596)
(1.00819 -1.00875 -0.000507608)
(1.29155 1.07979 0.0700348)
(2.86289 -0.00183306 1.96322e-05)
(2.91551 -0.00486353 0.00245523)
(1.02094 1.02386 0.000369061)
(2.86624 -0.000279836 -0.00233062)
(1.07791 0.866135 0.0654042)
(1.01548 -1.00182 0.00168394)
(2.98578 -0.00468037 0.0138097)
(2.86546 3.49483e-05 -0.00013585)
(2.94276 0.00334998 0.00590351)
(2.86597 0.000434394 -0.002817)
(0.985544 0.869364 0.0539855)
(1.28037 1.09724 0.0743178)
(1.01781 1.01834 -0.00237416)
(2.86492 -0.000384425 0.00101664)
(2.86789 0.00341577 0.00107131)
(2.97961 0.0583537 -0.0235102)
(1.01195 1.00623 0.00187864)
(2.03855 1.80636 -0.434255)
(2.81292 0.0183287 0.0269445)
(2.9152 -0.00189865 0.00304711)
(2.86411 0.00279179 0.00233523)
(2.78533 0.268759 -0.0218451)
(2.90072 0.00169769 -0.00341623)
(1.01765 1.01688 0.00102711)
(2.90099 0.00247912 -0.000148184)
(2.86623 0.00113679 -5.27988e-05)
(2.99913 -0.056961 0.00284104)
(2.99528 -0.00772585 0.0300138)
(2.86475 -0.00927202 -0.00716461)
(1.01479 1.02083 -0.00344529)
(1.00796 -1.00875 -0.00016207)
(1.02128 1.01342 0.00493612)
(1.00407 -1.00669 -0.00129619)
(2.88402 -0.00289331 0.000496925)
(2.86428 -0.000729517 0.000550305)
(2.92114 0.000571338 -0.00630153)
(2.90297 0.000347784 -0.00322531)
(1.01145 1.01436 -0.00348709)
(2.89008 -0.00733232 -0.00259084)
(1.01726 1.01806 0.00286715)
(1.006 -1.00901 -0.00063003)
(2.90072 0.00287704 -0.00237671)
(0.937077 -0.935852 0.0134682)
(1.65247 -0.333165 -0.0239264)
(0.998567 -0.99468 -0.000707505)
(1.0268 1.01481 0.00837341)
(2.88619 0.00070363 -0.00119786)
(1.01831 1.01671 0.000398715)
(2.86461 0.00150386 -0.000745996)
(2.81998 0.000390872 -9.14342e-05)
(1.01997 1.02028 -7.09432e-05)
(2.84694 -0.00126639 -0.00124168)
(2.86508 0.000882753 -0.00141956)
(1.02484 0.894954 -0.0335359)
(2.86504 0.00193903 0.00323902)
(2.82702 -0.00122087 0.00223019)
(2.86476 -0.000854435 0.000789296)
(2.71268 0.00815468 0.0287741)
(2.85994 0.00239767 0.00312881)
(2.86547 0.00120773 0.00219085)
(1.00331 0.85347 -0.00167492)
(1.00919 -1.00438 0.00443469)
(2.54931 0.00603463 0.0457707)
(1.01232 1.01368 -0.00563655)
(2.86755 0.0093969 0.00981234)
(2.99304 -0.00709028 0.0223872)
(1.02907 0.982473 0.00895775)
(1.0157 1.02025 -0.00188357)
(2.86366 0.000856252 0.000151404)
(2.83001 -0.00728233 -0.00895429)
(2.8595 0.00646132 -0.00477912)
(2.92868 0.0121186 -0.00474887)
(1.0187 1.01754 0.00125163)
(3.01304 0.00144304 0.0388365)
(2.93108 2.75848e-05 0.00620043)
(1.02099 1.01871 -0.00062431)
(2.90417 0.041484 0.0352904)
(2.79028 -0.00556021 -0.0119142)
(1.01048 -1.00785 -0.000885236)
(1.00971 -1.00695 -0.00233621)
(2.86175 0.00264805 -0.000622485)
(2.88637 -7.99997e-05 -0.000686871)
(1.02337 1.02287 -0.00231048)
(1.01023 -1.01058 -0.00240204)
(1.75883 -0.96332 0.214507)
(1.00946 -1.00978 0.000530637)
(2.90107 0.00515601 -0.00263115)
(1.01396 1.01591 0.000469435)
(1.00827 -1.01014 0.000290639)
(2.94135 0.00511823 0.00557888)
(2.71886 -0.0267748 -0.0660512)
(2.93375 -0.00842813 -0.000884861)
(2.8633 -0.00584419 0.00237556)
(1.02032 1.0187 0.000964324)
(1.32645 1.01937 0.0518154)
(2.85243 0.0300772 0.0513675)
(1.24381 1.09572 0.059229)
(2.84523 0.00885918 0.0180206)
(2.84255 -0.0172224 0.000671591)
(2.92916 -0.011037 -0.00700867)
(2.06727 0.0599848 0.0776229)
(1.2229 1.05155 0.0551625)
(2.88761 -0.00415097 -0.0297336)
(3.00704 0.0913962 -0.0229459)
(1.00927 -1.00958 0.00155572)
(2.96507 0.00346036 -0.0221422)
(2.92906 -0.00167845 0.00535687)
(1.01134 -1.0102 0.00190759)
(2.88965 0.155564 -0.0845484)
(2.62897 -0.000507555 -0.0216615)
(1.29063 1.00935 0.0451446)
(2.92837 -0.00117901 0.00518306)
(2.91258 -0.00187151 -0.00159629)
(2.85828 0.00100904 -0.00256555)
(1.01983 1.0155 0.000203739)
(2.85386 -0.00883863 0.021811)
(2.94412 0.00671709 0.00384701)
(2.84238 0.0167469 -0.00582662)
(1.89008 -0.027034 0.0235822)
(1.24775 1.17414 -0.0239801)
(1.75054 -0.0439787 0.0566454)
(1.00993 -1.01105 0.00230154)
(2.70509 -0.0820893 -0.071743)
(2.8494 -0.00936732 -0.0257944)
(1.01918 1.01815 0.00191667)
(2.80649 0.00277439 -0.0092348)
(2.42498 -0.00050059 0.0342393)
(1.3317 1.17424 -0.0104873)
(1.00926 -1.00902 -0.000437663)
(1.17762 -1.00352 0.0312652)
(1.00928 -1.00905 0.000616521)
(2.88021 0.0195478 -0.0114871)
(2.86177 0.00767255 -0.00340556)
(2.87711 -0.00327962 -0.000582031)
(2.78695 -0.00225025 -0.00205454)
(2.94669 -0.0426978 -0.00778341)
(1.01849 1.01363 -0.00142674)
(2.86611 -0.000389841 0.000663434)
(1.01243 -1.00306 0.000354487)
(2.84351 0.00272985 0.0057243)
(1.02113 1.02093 0.0007691)
(1.00828 -1.00881 9.45089e-05)
(1.00039 -1.00228 -0.00195084)
(2.86001 -0.00216588 0.00346358)
(1.00654 -1.00939 0.00016818)
(1.01053 -1.0107 0.00120041)
(1.00568 0.649909 -0.0459565)
(1.01085 -1.01056 0.000929288)
(1.00685 1.02112 0.00872386)
(2.86965 -0.0130741 -0.00643624)
(1.01789 1.01699 -0.000842896)
(1.20972 0.889128 -0.00129303)
(1.02004 1.01849 0.000776569)
(1.00848 -1.00579 -0.00064966)
(1.02066 1.01635 -0.00294237)
(1.00727 -1.00094 -0.00465221)
(1.01614 1.01685 -0.000391791)
(2.73137 -0.00240721 -0.00461639)
(1.0221 1.01597 0.00422356)
(2.72638 0.0271991 0.0484475)
(2.91326 0.0115632 -0.00473338)
(3.02107 -0.108827 -0.0220407)
(1.01667 1.01495 -0.00011719)
(2.59384 0.00582112 0.0331934)
(1.02169 1.01755 0.000885318)
(1.01029 -1.00885 -0.00029717)
(2.85367 -0.0128446 -0.0148347)
(2.85903 -0.0117307 -0.0118647)
(2.87435 -0.00273621 -0.00200314)
(3.02414 -0.00263989 -0.0434401)
(1.1764 0.983081 -0.0282814)
(2.93242 -0.000440251 -0.00753615)
(2.93247 0.00123665 -0.00689221)
(2.86287 -0.00227468 0.000889809)
(2.86725 0.00129905 -0.00155206)
(2.88615 -0.0142009 -0.00869545)
(1.00834 -1.00883 -0.000241533)
(2.86289 -0.00174477 0.00280302)
(1.34344 1.1689 -0.00778282)
(2.90685 0.00456692 -0.00364254)
(1.018 1.01688 -0.00122295)
(2.94381 -0.000843598 -0.00703735)
(1.32377 1.09664 0.00996988)
(2.8664 -0.00347799 -0.00171843)
(2.91924 -0.00309348 0.00491884)
(1.16009 -0.60289 -0.00406954)
(1.01936 1.02087 0.010073)
(2.86825 0.00148306 0.00773058)
(1.0088 -1.00875 -0.000605709)
(2.95224 0.00624993 -0.0137264)
(2.93661 0.00566475 -0.00720336)
(1.01718 1.01579 -0.00910505)
(1.0159 1.01773 0.00120148)
(0.999852 0.884341 -0.0265549)
(1.01761 1.01954 -0.000499546)
(2.08778 -0.111189 0.0571502)
(2.95311 0.00585429 -0.010956)
(1.03104 1.0061 -0.000559092)
(1.01676 1.01759 0.000529679)
(2.75325 -0.000700239 0.000423913)
(1.01754 1.01945 -0.00162602)
(2.91878 0.00490589 -0.00562623)
(1.01784 1.0189 0.00218226)
(2.89187 -0.0101722 -0.00557857)
(1.01001 -1.00976 0.000626482)
(2.74008 -0.0111363 -0.0198161)
(2.50228 -0.00418968 -0.00683769)
(2.86563 -0.00153125 0.000299574)
(2.86575 -0.0017562 -0.00339413)
(1.02503 1.01628 -0.00184991)
(2.8687 0.00438883 -0.0086471)
(1.02158 1.0179 0.000895433)
(1.02022 1.01838 -0.00329837)
(2.88335 0.00076341 0.00271287)
(1.01931 1.01816 -0.000268102)
(2.60671 -0.00111798 -0.0150685)
(0.986138 0.908198 -0.0275433)
(2.92249 0.00208298 -0.00632557)
(1.00945 -1.00795 0.000527709)
(2.93687 0.00360278 -0.00187151)
(1.01002 -1.008 -0.00167834)
(1.21481 1.07359 0.0301996)
(3.01647 0.109845 -0.00847279)
(2.85776 -0.01428 -0.0148093)
(2.90806 0.00680298 0.000353688)
(2.90935 -0.0156331 -0.0111832)
(2.89874 0.00206328 0.000189791)
(2.9359 -0.00432565 -0.000979871)
(1.01212 1.02297 -0.00565607)
(2.90423 0.0134594 0.010557)
(2.86574 -0.0168117 -0.0101304)
(1.01891 1.01949 -0.00116485)
(2.50118 -0.0339498 -0.0862598)
(2.98939 -0.0232994 -0.011563)
(2.8668 0.00530017 0.00994937)
(1.00893 0.995168 -0.00554506)
(1.26395 0.239518 -0.210127)
(2.83295 0.00662191 0.00706292)
(2.47771 -0.00825422 0.0182858)
(2.39041 0.609115 -0.00020604)
(1.29883 -0.681593 -0.0521128)
(2.93196 -0.0158211 -0.00513766)
(2.8055 0.00209749 0.0119802)
(2.85213 -0.0159389 -0.0163372)
(2.90519 -0.00710421 -0.00690694)
(2.84379 0.0110486 0.00936936)
(2.57097 0.326105 -0.0127787)
(1.26631 1.06976 0.00945228)
(2.62448 -0.0956842 0.0195446)
(2.54237 -0.22814 0.0454404)
(1.00858 -1.00944 -0.000299396)
(2.71416 0.00669684 -0.00239623)
(1.02404 1.00659 -0.00670999)
(1.19902 1.09408 0.011316)
(2.86564 0.00147722 0.00102142)
(2.58735 0.417918 -0.00110901)
(3.12889 -0.265051 -0.0528913)
(2.82672 -0.490614 0.00576188)
(1.1992 1.14011 -0.0884613)
(2.91774 -0.00843392 -0.00447925)
(2.88675 0.0104827 0.00945749)
(1.01584 1.01266 -0.00108729)
(1.31916 0.716517 -0.0287288)
(2.88725 0.0126973 0.00962843)
(1.01029 -1.00715 0.000257957)
(1.01722 1.01609 -0.000685211)
(1.01736 1.01762 0.000472187)
(1.01913 1.0131 0.00133282)
(2.91917 -0.0190063 -0.00329769)
(1.01775 1.01755 0.000177126)
(1.01413 -1.01361 0.00457663)
(2.88025 -0.00731216 -0.00807189)
(2.86512 0.000731321 5.66679e-05)
(1.47654 -1.29727 -0.0722548)
(2.88584 0.0126001 0.00919414)
(1.19052 0.951921 0.0245092)
(2.86524 -0.00191373 -0.00103113)
(0.993272 -0.995664 -0.00506554)
(1.01612 1.01827 -0.00101616)
(2.91742 -0.00927549 -0.00461995)
(1.01838 1.01356 -0.00132603)
(1.0166 1.01478 0.000877384)
(1.17152 1.12213 0.0318656)
(2.85575 -0.00459372 0.00289457)
(1.69644 1.41809 -0.18734)
(2.89037 -0.00407231 -0.00332697)
(2.86696 0.000205078 2.71453e-05)
(1.00228 -0.996701 -0.00696544)
(3.03788 0.000387043 0.0910945)
(2.76445 -0.00628185 -0.0257216)
(2.88268 -0.00136847 -0.00168022)
(2.93775 0.0458115 0.00626345)
(2.95814 0.0253744 -0.0651137)
(2.71477 -0.00416577 -0.00704352)
(1.01884 1.01868 0.00185598)
(2.93246 -0.00214295 0.00626235)
(2.89679 0.00576206 0.00105685)
(1.00111 -1.01353 0.000847874)
(2.86456 0.00146857 -0.00119996)
(2.94775 0.0202207 0.000553885)
(2.91391 0.00657768 -0.00221522)
(2.85788 -0.0129624 -0.0183933)
(2.91532 0.00776378 -0.00187471)
(2.91272 0.0115667 0.00022737)
(1.01129 -0.99889 0.00640983)
(2.94544 0.00234895 0.00789359)
(2.56192 -0.0139349 -0.00875109)
(1.23516 1.07084 0.0686456)
(2.91642 0.00348718 -0.00434662)
(2.84735 0.000864469 -0.00365206)
(1.65467 1.34212 -0.203053)
(2.86638 2.55607e-05 0.000794347)
(2.91905 0.00142838 -0.00479296)
(2.849 0.000758326 -0.00465011)
(2.90488 0.0106325 -0.00118702)
(2.87143 0.0201279 0.0115301)
(2.86559 0.000282974 -0.000881454)
(0.996587 0.973121 0.000397044)
(2.90362 0.012861 0.0035443)
(2.76547 -0.0139064 -0.0230572)
(1.126 -0.686971 0.0205362)
(2.89553 0.0206983 0.0144485)
(2.87464 0.0192299 0.02091)
(2.86446 -7.92005e-05 0.000542787)
(1.01857 1.01563 0.000970455)
(2.85136 0.0134898 -0.0241415)
(1.01164 -1.00561 0.00427851)
(1.01873 1.01677 -0.00109517)
(1.01507 1.00884 0.00100072)
(1.02059 1.0155 0.0015824)
(2.70616 0.000415779 -0.000400934)
(1.21907 1.04748 0.0448286)
(2.25636 -0.153598 0.176253)
(1.00481 -1.00742 -0.000733821)
(1.01757 1.03313 -0.00141883)
(2.90873 0.0220001 0.0158613)
(2.91832 0.00210405 -0.008276)
(1.00949 -1.00977 0.000495842)
(2.92286 -0.0102711 -0.000674875)
(1.01025 -1.00845 0.00407162)
(1.01048 -1.01008 -0.000362434)
(0.995359 -0.996191 0.00399405)
(2.96544 -0.0113233 -0.0031997)
(2.66084 0.00848036 -0.00223761)
(1.20739 1.0825 0.0113318)
(1.02011 -1.00889 0.00195219)
(1.01656 1.02024 -0.0017704)
(1.01902 1.01938 -0.000812164)
(3.00206 0.00184851 -0.0303317)
(2.86507 0.00105538 0.0003731)
(1.21687 1.14301 0.053456)
(2.93855 0.00149793 -0.0094818)
(2.78511 -0.0352827 -0.106826)
(1.01667 1.01704 0.00196076)
(2.93378 0.000504805 -0.00869917)
(2.74647 -0.000793988 0.0118186)
(2.84959 0.0103227 -0.0127987)
(1.01709 1.01795 0.000875985)
(1.01709 1.01623 0.000619405)
(2.8646 0.00219723 0.0034223)
(2.86517 -0.000470506 -0.000623895)
(1.20851 1.09567 0.0165755)
(1.01597 1.01707 0.000808527)
(1.03642 1.00102 -0.0035075)
(2.86522 -0.0022001 -0.000827815)
(1.01005 -1.00994 -0.00140023)
(1.00977 -1.00757 -0.000108156)
(1.01503 1.01741 0.00124326)
(2.93062 0.00328848 -0.0084705)
(2.7941 -0.00521748 -0.00530591)
(1.01767 1.01832 0.000123206)
(1.14547 0.215823 0.209873)
(1.26521 -0.155716 -0.029266)
(2.85575 0.0115656 0.00244502)
(1.01857 1.02057 -0.000116896)
(1.01901 1.01662 -0.000264505)
(2.9512 -0.0182371 -0.00355081)
(2.85841 0.042804 0.036754)
(1.22844 1.0961 0.0543411)
(1.80154 0.572852 0.0356439)
(2.82518 0.0612218 0.0841433)
(2.75022 0.00839424 -0.00643819)
(2.8711 0.000431664 0.000608744)
(1.05985 0.994511 -0.000335358)
(2.86044 0.0012267 0.00116762)
(2.94599 -0.0094666 0.0148489)
(1.02013 1.01704 -0.00225454)
(1.00139 -0.989582 0.000555721)
(1.01602 1.01608 -0.000698925)
(1.0174 1.01764 0.000542722)
(1.018 1.0203 -0.000164537)
(1.01962 1.01798 -0.00101411)
(2.93714 0.00413915 -0.00702155)
(1.00736 -1.00864 0.00248994)
(1.01656 1.01705 0.000675627)
(1.01151 1.00272 0.00259158)
(2.93914 0.0035471 -0.00856971)
(2.86545 -0.000581377 0.000541986)
(1.01401 -1.00113 0.00190707)
(0.99994 -0.989644 0.00104003)
(2.96729 -0.00347078 0.0194201)
(2.86405 -2.69635e-05 -0.000250159)
(2.86433 0.000457526 0.000291351)
(1.00912 -1.00665 0.000771515)
(1.01554 1.02013 2.89311e-05)
(2.86489 0.000318203 -0.000300239)
(1.01037 -1.00887 0.000560883)
(2.84973 -3.02243e-05 0.00241372)
(2.86489 0.00092025 0.00234605)
(2.86288 0.000556112 -0.000113437)
(1.01627 -1.00808 0.00212138)
(1.00912 -1.0113 0.00212851)
(1.00987 -1.01049 0.000390057)
(1.01879 1.02185 0.000897847)
(2.87818 -0.00454871 -0.00111305)
(1.01852 1.01911 0.00191849)
(1.01691 1.01659 0.000116911)
(2.90814 0.0154295 -0.0126468)
(1.00911 -1.00909 0.00133036)
(2.86594 0.000977727 -0.000361806)
(2.70337 -0.0200038 0.00341127)
(1.02921 0.995309 0.00525503)
(2.8648 -0.000936006 0.000658345)
(1.3799 0.156019 -0.023742)
(2.86598 0.000991022 -0.00136018)
(2.95666 -0.00120361 0.00343977)
(2.74746 0.00202172 0.00312251)
(2.96512 -0.00135082 0.0154758)
(2.18985 0.0378988 -0.0842585)
(1.21698 0.968343 0.0216578)
(2.86594 0.00115769 -0.00127277)
(2.97147 0.0105319 0.000542375)
(2.87151 -0.000987893 -0.0015473)
(1.04174 0.903975 -0.0320956)
(1.35841 0.1253 -0.0703267)
(1.57724 -0.141648 0.0403735)
(2.86725 0.000322617 -0.00238623)
(1.01751 1.01816 0.00167965)
(2.83643 -0.00395251 -0.0118963)
(2.89231 -0.00393676 -0.00216143)
(2.8031 -0.0147623 -0.0287362)
(1.09381 -0.783604 -0.060114)
(1.01012 -1.011 0.000597841)
(1.00885 -1.00957 -0.000925975)
(2.86664 -0.000395807 0.000396548)
(1.18475 0.979174 -0.013876)
(2.87333 0.00673313 -0.00687423)
(1.10545 1.00688 0.0111411)
(2.82236 -0.006017 -0.00502756)
(2.86744 0.000999992 -0.000118714)
(2.86752 0.000539835 0.000598628)
(2.86683 -0.000423201 -0.00194451)
(1.01605 1.01681 -0.0007378)
(1.01207 1.01074 -0.000872844)
(1.08714 -0.988341 0.00317496)
(2.86525 -0.00065336 0.000151014)
(1.01986 1.01693 -0.000857052)
(1.17926 1.01317 -0.0472778)
(3.00565 0.0610439 -0.0494911)
(1.02286 1.02082 -0.00198142)
(1.01322 1.0167 0.00459845)
(1.00709 -1.00457 -0.00232172)
(1.01844 1.01944 0.00236842)
(2.86734 0.000330191 0.000885724)
(1.04614 0.99256 0.00013608)
(1.01962 1.01762 -0.00060973)
(2.40864 0.333678 -0.231101)
(1.19482 0.961204 -0.0104604)
(1.01425 1.01513 -0.00696578)
(1.44069 -0.858141 0.0489272)
(1.01984 1.01725 -0.000536545)
(2.50444 7.31449e-05 -0.00490778)
(2.86723 0.00145448 0.000975628)
(1.00909 -1.00745 -0.00109048)
(2.85436 0.0080766 -0.0114563)
(2.82998 0.440849 -0.059941)
(2.78435 -0.0174365 -0.0296377)
(3.06424 0.103748 0.00644113)
(2.86737 -0.000193657 0.000305422)
(1.01874 1.01214 0.00162827)
(2.86441 -0.0155325 -0.0177044)
(2.99812 -0.00384257 0.00503591)
(2.78014 -0.0176655 -0.0292685)
(1.00979 -1.00749 -0.00159096)
(3.04234 0.794628 0.212559)
(2.86932 1.73953e-06 -0.000918995)
(1.36778 1.08486 -0.0649334)
(2.86797 -0.00240771 -0.00135688)
(3.02174 0.0249837 -0.0228957)
(2.91533 0.0462018 0.0082164)
(2.86439 -0.00195877 -0.00327227)
(2.86898 0.00668389 -0.00351179)
(3.04654 0.0310341 -0.0114555)
(2.86652 0.000773791 -0.00419171)
(2.86511 -0.00134955 0.00173073)
(1.01224 1.01436 0.00448609)
(1.01664 1.00969 0.00320445)
(2.8673 0.00138154 -0.00632706)
(2.86786 -0.000692322 -0.000565464)
(1.01616 1.01871 -0.00113957)
(2.86859 0.00202702 -0.00150958)
(2.94017 -0.00196442 0.0033206)
(2.86408 -0.000623259 -0.000128245)
(1.02342 1.01171 -0.000761335)
(2.90073 0.0425794 0.0170089)
(1.01785 1.0171 2.03481e-05)
(2.86622 -0.00198796 0.00450494)
(2.86517 0.00178422 0.00104864)
(1.01809 1.01714 -0.000917616)
(2.84308 0.0116755 -0.0231472)
(2.85991 0.00154254 0.00346671)
(2.89093 0.0419221 0.00827572)
(2.87545 -0.00770841 0.00509107)
(1.0407 1.0202 -0.00106605)
(2.88387 0.00252224 0.000548647)
(2.90457 0.0540608 0.00578275)
(3.04958 -0.079599 0.0174259)
(2.60058 0.0277064 0.0152299)
(2.41297 0.00384037 -0.0263152)
(1.02076 1.01075 -0.00154811)
(1.01767 1.01676 0.00327036)
(2.86048 0.024468 0.00339652)
(1.01756 1.01941 -7.90472e-05)
(2.69037 -0.000534927 -0.0186309)
(2.84172 -0.00642812 -0.0123112)
(1.73045 0.218786 -0.0475382)
(3.16637 -0.206625 0.0719463)
(2.79452 -0.129422 0.0332606)
(3.11062 -0.119297 0.0268462)
(1.01768 1.01985 0.000262572)
(1.38857 1.17633 0.0106723)
(2.86614 -0.00051655 -0.00425326)
(1.00533 -1.00812 -0.00429528)
(0.57026 -0.394782 0.170699)
(2.89796 -0.0370405 -0.0278899)
(1.01901 1.01597 -0.00246521)
(1.01886 1.01656 -0.000640317)
(2.61494 -0.0549917 -0.00654385)
(2.13844 -0.135371 0.0320374)
(1.01728 1.01802 0.00125618)
(2.65364 -0.0477873 0.00248403)
(1.01688 1.0162 0.00218066)
(1.01782 1.02004 -0.00253821)
(1.00924 -1.01181 0.000627634)
(1.01074 -1.00788 0.00185546)
(0.993624 -0.985272 0.00107006)
(1.01004 -1.00762 0.00019449)
(2.70097 0.01267 -0.00460883)
(1.01653 1.0124 0.000703938)
(1.01868 1.01825 0.000651433)
(1.0118 1.01916 0.00100464)
(2.46062 -0.552948 -0.148408)
(2.77116 -0.0193816 -0.0420378)
(2.78292 -0.000823596 -0.00734068)
(2.86589 -0.00236717 -0.00277837)
(1.01439 1.00774 -0.000724781)
(1.02306 1.01581 -0.000811603)
(2.80867 -0.0395445 -0.0466136)
(1.0178 1.01813 -0.00192668)
(1.01928 1.01583 -0.00122181)
(1.6396 0.926834 0.0355649)
(2.98658 -0.0275238 0.000105742)
(2.86497 0.00142383 -3.10562e-05)
(1.01767 1.01698 -0.000185093)
(1.02054 1.01606 0.00284266)
(1.01584 1.01202 -0.00152388)
(1.01925 1.01625 0.0001538)
(1.02123 1.01906 0.000204462)
(1.01942 1.01861 0.000304124)
(2.91978 -0.0534452 -0.0329016)
(1.01896 1.0151 -0.000772766)
(2.06486 0.0291014 0.0642173)
(2.90173 -0.00123979 0.00398062)
(1.01812 1.02006 -0.000350909)
(1.00452 -1.00871 -0.000354826)
(0.997223 -0.98648 -0.000153687)
(2.49892 0.028994 0.130987)
(0.991909 -0.993076 -0.00390186)
(1.00791 -1.0092 -0.00083638)
(1.01437 1.01438 -0.0073839)
(2.68203 -0.0393124 -0.00478695)
(1.01643 1.01782 -0.000550331)
(2.90867 -0.0267545 -0.0162784)
(2.44078 0.0274239 -0.00846345)
(1.96312 0.00155091 0.0741776)
(1.01529 1.01722 0.00011173)
(2.0165 -0.533489 0.0467393)
(2.93557 -0.00409825 0.00689375)
(2.89566 0.00027327 -0.002283)
(1.07809 -1.02901 -0.0101075)
(2.86317 -0.0472743 -0.00979695)
(2.90105 -0.00677987 -0.000274845)
(1.00794 -1.00127 0.00156161)
(1.05298 0.995772 0.00320081)
(1.40854 -1.09492 -0.0894927)
(1.01343 1.01782 -0.00272044)
(2.8642 -0.00102932 -0.000607308)
(2.88314 0.00329864 -0.00102322)
(2.97798 -0.0297791 0.0146262)
(1.989 0.000468083 0.112563)
(1.01837 1.01793 -0.0011724)
(2.86461 -0.000826452 0.000787064)
(1.05374 0.999287 -0.00277629)
(1.27844 1.07921 -0.00506371)
(1.34737 -1.05516 -0.042635)
(1.01849 1.01822 0.000625213)
(2.86936 0.00112594 0.000555056)
(1.01504 1.0157 -0.000771559)
(0.998732 -0.98469 0.000591961)
(2.71005 -0.0297644 -0.0594799)