/*--------------------------------*- C++ -*----------------------------------*\
  =========                 |
  \\      /  F ield         | OpenFOAM: The Open Source CFD Toolbox
   \\    /   O peration     | Website:  https://openfoam.org
    \\  /    A nd           | Version:  10
     \\/     M anipulation  |
\*---------------------------------------------------------------------------*/
FoamFile
{
    format      ascii;
    class       volScalarField;
    location    "11.5";
    object      p;
}
// * * * * * * * * * * * * * * * * * * * * * * * * * * * * * * * * * * * * * //

dimensions      [0 2 -2 0 0 0 0];

internalField   nonuniform List<scalar> 
111485
(
7.90852
0.148899
0.166763
7.90536
0.165349
7.688
0.141902
0.13279
0.142628
0.19347
0.140032
0.175336
0.146512
0.124251
0.144794
0.172808
0.0678055
8.78991
0.147106
7.90446
7.90351
7.6952
0.140966
0.159105
0.159998
7.87149
0.201349
0.115996
0.165243
7.91199
0.177297
0.0454193
7.90875
7.70494
8.58908
7.67714
0.199425
0.0566384
0.207181
0.157592
7.75582
0.192449
0.158136
0.195509
0.0345888
7.93392
0.198855
0.154848
0.187281
7.9365
7.93478
7.43412
7.94287
0.187544
7.94766
0.106011
0.148606
7.72342
0.122517
0.154948
0.156355
7.90877
0.123847
0.183028
7.72083
0.117187
5.22631
0.138978
0.111599
0.130494
0.140858
0.125892
7.74842
0.111667
7.92179
0.0858377
7.69837
0.182401
7.69397
8.10428
0.15506
0.187794
7.70116
7.91673
0.127951
0.150512
2.01494
0.181053
0.166662
0.0773345
0.0845
0.152818
0.127413
0.058383
0.192428
7.91615
7.90929
0.196271
-0.437584
0.305706
7.90725
0.192082
7.70098
0.175703
0.13602
7.96556
7.71407
0.0489062
0.153698
-0.0442854
0.0444993
0.127137
0.157579
0.180191
7.86828
0.0803526
7.88542
7.71626
0.116886
7.90521
7.87032
6.757
7.70288
7.72378
0.200771
8.94119
6.72207
0.059099
7.91992
0.681794
0.157252
0.195169
7.92188
6.60885
6.8891
0.13931
7.6993
0.0866695
0.124816
0.144527
0.160668
0.128479
0.132558
0.166258
0.185967
0.0364472
7.69912
7.915
7.72343
0.141874
0.16244
7.90154
0.189291
0.00918686
-0.337704
0.142817
0.137138
0.140662
-0.200986
7.92642
7.90554
0.13971
0.155684
-0.162442
-0.276986
0.0734483
0.185639
7.74878
-0.125131
-0.092295
7.7185
7.91385
0.168042
7.70748
0.0350608
0.0171479
7.73445
7.72723
7.88712
7.87011
7.69923
7.90448
0.14905
0.144337
0.150398
0.0682642
0.188482
0.0934265
0.206552
7.90747
0.0735337
7.72277
7.89828
0.10122
0.186412
0.199533
0.118716
0.022846
7.92255
0.143322
0.164526
5.42314
0.1976
0.0621476
7.91492
0.0975958
0.170695
7.72137
0.193216
0.201551
0.161105
0.0798963
7.69169
7.90969
0.0938952
5.11003
0.197978
7.70665
0.0966274
0.0904746
0.194823
7.91949
0.0928614
0.180548
6.10642
7.70724
7.71898
0.163393
-0.267632
7.78535
7.32898
0.0891315
0.0385108
0.0169858
7.7833
7.82595
0.184066
7.92016
0.132182
0.0861168
0.0868175
0.0746313
0.0858123
7.72073
0.16146
0.0602157
7.72489
7.70175
0.182693
0.126446
7.84049
0.0594248
0.0722268
7.91488
6.46101
0.190584
7.90946
8.03654
7.2309
7.90039
0.075215
0.0760329
-0.0054578
7.92397
0.0696583
7.90575
7.90723
7.92367
0.179089
0.17774
0.127183
0.118924
0.173971
0.120165
0.119605
0.187864
0.0300289
0.0343542
7.64323
7.91421
0.183791
0.0539448
0.107358
0.0432663
7.9056
0.127958
0.138562
0.120541
0.194933
0.16162
0.113984
0.119902
0.194827
7.72047
0.173255
7.70774
8.75428
8.10218
0.156652
0.169668
0.145024
7.8923
7.78074
0.103195
0.050673
7.90089
7.90802
7.95148
0.0753666
0.0432319
0.142402
0.144825
0.150858
7.30319
7.71865
7.91794
0.103629
3.41468
0.132577
0.15946
0.167332
7.70196
7.90771
7.9091
6.8828
0.108209
0.170809
7.71305
0.110286
7.83689
7.88641
0.204122
0.108698
0.176119
0.109819
8.03609
6.84873
7.71279
0.107938
0.0230745
0.178873
7.72029
0.764114
0.115336
0.173188
0.102967
1.5418
0.150732
7.69588
0.145409
0.114894
0.165971
0.196719
0.165321
7.70896
7.91921
7.71477
7.90862
0.145879
0.0962582
0.161315
0.155472
7.7247
0.175545
7.7159
7.91588
0.151819
8.14921
7.00741
7.96191
7.67364
0.142403
7.7225
0.0203143
0.177892
7.69392
0.117829
0.113857
7.90847
0.111673
0.175769
0.119247
0.197749
0.0459303
0.0442215
8.04297
7.91521
0.206234
7.73763
0.175953
0.193787
7.73147
7.72045
0.106775
0.180225
0.0134416
0.184807
7.69843
0.177791
0.170495
7.68453
0.192753
0.159042
7.90885
7.90403
0.026807
0.160378
7.70018
7.88924
5.93782
7.90651
0.169006
7.70691
7.90672
0.167442
0.164509
0.199222
0.172993
7.68971
6.89944
0.217251
6.99567
0.195003
0.224791
0.19556
5.39535
7.06767
-0.444423
0.001288
7.90932
0.187063
0.173088
7.91779
-0.180794
0.194486
7.03251
0.177631
0.172632
0.044999
7.69236
0.265456
0.179734
0.0544369
0.14738
6.70028
-0.301099
7.91534
0.215045
-0.155716
7.71862
0.167632
0.205886
6.52431
7.92267
7.49962
7.90257
0.168346
0.0824212
0.180716
0.182297
0.189793
7.70784
0.132165
7.92052
0.177965
7.67429
7.91793
7.92882
0.172208
7.91678
7.90956
8.37637
7.90774
7.72792
0.197808
7.72199
7.48506
7.71101
7.8979
7.68261
7.92424
7.69648
0.172815
7.70984
0.19406
0.179383
0.20274
7.69245
0.198814
7.71853
7.90796
0.165771
0.162164
0.212637
0.148487
7.3955
0.187034
0.177575
0.0325816
0.00670386
0.177111
7.9145
0.00668447
6.53502
0.202875
7.70857
0.180927
6.75172
0.0444133
0.185715
8.29722
7.77517
-0.0104002
7.90034
0.187527
0.181048
7.72728
7.72995
7.97347
7.71692
-0.661424
0.186444
7.67815
7.72672
0.164181
7.69533
0.185569
7.69691
0.192609
7.90849
0.203244
0.205993
0.134875
0.0424908
7.66445
-0.118596
7.68001
7.7085
0.187562
7.70987
0.195195
7.97982
0.164956
7.91294
0.205552
7.9032
7.04075
0.182618
0.140183
0.182213
0.191176
0.172303
0.164629
7.72246
0.176592
0.158573
7.70497
0.222302
0.189935
0.191041
7.74783
8.06845
0.184111
0.167349
3.86353
7.74247
0.188964
0.173532
0.190231
0.187959
0.170786
2.74717
6.95016
-0.399937
3.32834
7.90604
0.206972
7.73711
7.07132
0.0678887
2.70771
-0.415204
1.65706
6.94933
0.175557
0.169248
7.70014
7.50796
0.175658
7.90444
7.69487
7.69744
7.6908
0.187314
7.7145
7.87654
0.195706
0.0847009
6.0878
0.125538
7.3819
0.0851611
7.94163
7.72102
0.183958
7.70736
7.69213
7.03917
0.0472
4.80292
0.170896
0.0750647
7.91159
0.0699708
0.13201
0.164469
0.23161
0.543588
0.156932
7.71157
0.186168
0.166491
7.92238
0.110453
0.198697
0.175918
0.0385719
0.176412
0.175165
7.92949
0.197662
0.192231
7.01898
0.177216
0.211697
4.99525
0.0757719
0.177187
0.204028
0.180046
0.189569
0.0706248
7.81937
0.183805
0.194297
8.23664
0.181867
0.175154
0.0756096
7.7111
0.0504001
7.93713
7.70033
7.72241
7.68895
0.175848
7.12872
-0.729966
7.90632
7.6342
0.188708
0.184474
7.89902
0.188397
7.90658
7.91891
7.94437
0.198483
0.205294
7.06685
7.8702
7.70933
7.71139
0.188893
0.0657663
6.89188
0.185213
-0.103338
7.72313
0.192202
0.196444
0.100956
7.69278
7.70631
0.116087
0.0717953
7.0038
7.71872
7.67266
0.0844038
7.91743
7.89503
7.70708
0.187043
0.162158
7.69518
8.49229
8.23011
0.164639
7.72403
7.68807
0.183912
0.181464
6.98825
6.05633
1.39592
0.200847
0.00323074
7.65779
0.136429
0.211382
7.7192
7.94112
7.69923
7.70765
7.71755
7.69575
0.204505
7.9075
7.69976
7.73977
0.196736
0.0585556
7.89995
7.95408
0.187299
0.0671338
0.0775843
7.89556
7.70099
0.0692567
7.91584
0.175369
0.0599583
0.0840927
7.87396
7.90717
7.90705
7.71167
0.188931
7.70217
7.69763
0.198606
7.9068
0.105177
0.221843
7.70304
0.0728267
7.87601
0.0961974
0.188284
0.175111
0.192085
-0.932135
7.30499
0.0934503
0.1936
0.00135827
7.84363
-1.73728
7.1992
0.0332735
7.7148
0.190553
0.196136
0.186577
8.09177
7.90788
7.923
0.0695219
7.37967
0.00301622
7.51379
0.163863
0.0417232
0.0394737
0.0663783
7.69552
7.70953
7.76925
0.0703041
7.68978
7.30353
0.131262
7.72145
7.72772
7.90849
7.70005
0.0406698
7.66822
7.70704
-1.21679
7.36229
7.74055
7.10548
7.70579
0.18188
0.042298
7.90174
0.171479
1.2861
0.18317
-0.0688607
0.0597988
7.71976
0.183539
0.219088
0.184675
7.91658
-2.22757
0.0404242
6.57023
0.0236196
0.157758
0.18131
0.116725
0.0463045
0.140084
0.0416434
0.0533853
7.69127
7.70016
0.0309959
0.0194473
7.72116
0.0339769
0.176618
0.0474491
7.68119
0.161549
7.71089
0.0466765
0.0395179
7.69176
-0.0505171
0.0522263
0.12625
-0.0144156
7.6403
0.138159
0.132275
0.21629
0.127025
0.198339
7.7
7.72105
0.209109
7.6995
0.203442
0.165293
6.79634
-0.170734
-0.514028
-0.00676563
7.70006
6.48599
0.0865409
7.91921
9.43298
0.189701
7.68149
7.68915
-0.415431
-0.552607
7.69984
0.16163
7.70753
7.70731
7.92136
7.90765
7.97371
7.91461
0.21336
7.68836
7.71892
7.72594
-1.11678
0.248826
0.146293
0.086727
7.70628
7.68598
0.199228
7.70464
7.69263
5.9318
0.189269
0.104702
7.69373
7.68449
7.69663
7.68809
7.663
7.68581
0.175241
7.69175
0.0834444
0.152613
7.7109
7.91809
7.95063
0.1587
7.94313
7.9062
7.72632
0.0750144
7.71113
0.181245
0.187635
0.102559
7.69337
5.39683
0.205884
0.142375
7.68921
0.0896349
0.189526
7.9064
7.65646
6.94616
7.68523
0.0854026
0.135053
0.188985
-0.0502918
7.69303
0.0875157
7.63537
6.91707
6.90438
7.71917
0.131392
7.70569
7.96055
0.195767
0.109681
7.95778
0.198123
7.38875
0.170457
8.02955
7.70833
7.68674
7.90666
0.0536506
0.141698
0.638313
7.69477
7.73022
0.0441743
7.69997
7.154
7.90891
0.177415
-0.0604734
0.198606
7.8882
0.19356
0.203004
8.28074
0.204115
7.69358
0.188405
0.180532
0.128245
0.177158
0.0897745
7.70225
7.70791
7.70763
0.19235
7.78838
0.160796
7.92244
1.00758
7.89644
0.154284
0.160649
7.96242
7.69784
7.97865
7.72786
0.158609
7.98636
6.95382
0.0340086
0.165485
7.96346
7.12075
7.76153
7.14108
7.68721
7.70259
0.168667
0.213152
7.90528
7.88853
-0.320059
7.91508
0.169075
0.0526146
7.76197
0.198662
7.90695
0.0345683
7.69279
0.16584
7.69094
-0.263707
-0.015439
0.132307
0.19448
0.19002
4.84262
7.61249
0.203316
7.938
0.125843
7.89818
7.74114
7.64869
7.72332
7.74787
7.72096
0.179843
0.168816
7.90721
6.70803
7.90366
0.184731
0.159579
7.90731
0.135114
0.134071
7.95112
0.0638506
0.052754
0.121064
0.134119
7.69981
7.7039
7.737
7.6975
0.130058
7.64654
0.203952
7.70361
0.196404
0.170764
7.71488
0.188332
7.70802
7.69892
0.195867
0.172883
2.3552
7.70386
7.97275
7.6819
0.134869
7.57247
7.96826
7.59353
1.148
6.8186
-0.212742
7.11258
7.55843
7.79143
0.0516263
0.0328901
0.181838
0.145506
7.90511
0.20822
7.70908
7.7199
0.0451044
7.66274
-0.318264
0.198001
0.0484924
0.197544
-0.645976
0.165862
7.71691
-1.10545
-2.56639
0.197859
0.211486
0.104038
5.63186
7.90418
0.164164
7.90222
7.68829
0.0616541
0.191607
-0.754179
7.69369
7.54424
0.187858
7.95059
7.68598
0.192411
7.96838
7.95824
0.205976
0.193806
0.16067
0.144001
0.0759608
7.69086
7.70191
0.0231802
0.122458
7.69734
7.96295
0.204681
7.69693
6.66632
6.85301
6.88864
4.53527
6.69543
7.69884
0.184305
7.6769
0.174121
7.69247
3.63704
7.73961
7.70721
7.71766
7.70021
0.180664
7.70042
7.6997
7.00479
7.68644
7.71762
7.70476
0.116884
7.71747
0.104911
0.170852
7.70925
0.207075
7.69481
0.184717
0.0868424
0.0385972
0.0472451
7.87023
0.0464695
0.177049
0.127281
7.92027
0.151762
0.0970938
0.0362653
7.40395
0.030531
7.75071
7.71568
7.69337
7.69544
0.0360372
7.70741
7.68143
0.0295281
0.126379
0.0157048
7.7285
5.56589
0.196205
7.71627
-0.0565686
7.94792
0.0344198
7.68078
7.68498
0.160894
7.68851
0.235358
7.91244
7.69213
0.0992592
0.177874
0.0766877
0.13762
0.152011
0.111203
7.69275
8.06762
0.155664
0.0836221
0.121406
0.163969
7.69988
0.105365
7.69845
7.82708
0.148848
0.192102
7.69788
0.07935
7.70383
0.0714104
0.080732
7.73614
7.69547
7.71165
0.154567
7.70844
7.70702
0.159206
0.0705155
0.203285
0.0354451
7.71262
7.72479
0.188213
0.171816
7.69763
0.15415
7.76616
0.149372
7.69526
7.69324
0.135672
7.69991
0.183702
0.160024
7.6929
7.69563
0.135255
6.56944
0.18977
7.90817
0.189977
7.91906
6.73325
6.51657
0.159238
7.04952
6.97541
0.133092
6.93686
4.39756
6.43815
7.73976
7.90295
0.103298
0.183762
7.74452
7.70731
0.159757
0.171978
7.69684
0.155518
7.6958
7.90766
0.185844
0.169493
0.123549
7.69361
7.71069
7.7072
7.69959
7.68104
7.68448
7.70321
7.68347
7.68788
7.69414
7.70676
7.90427
7.70574
7.69217
7.6904
7.84422
7.69257
7.6963
7.70118
7.73111
7.86409
0.17972
7.70607
7.69315
7.72786
0.135134
7.72449
7.90732
3.14411
7.67116
7.58128
0.128161
8.27879
7.63295
3.65715
0.124172
7.70353
6.81908
7.3049
7.68886
0.197189
0.125268
0.12364
0.111315
0.0965791
7.92646
7.68464
0.0991462
0.108583
0.110062
7.69593
0.119274
0.203942
0.13155
0.0377395
0.0414753
0.112035
0.0592783
0.121069
7.93155
0.142179
0.122288
0.164092
0.115223
7.7103
7.70687
7.71369
7.90704
7.70764
0.110028
0.123087
7.71253
7.68855
7.68707
7.8755
7.69201
7.90142
7.68849
7.90453
0.125752
0.0618707
0.123292
0.195045
7.66105
7.69248
0.191214
0.0346345
7.69523
7.70004
0.168216
7.93154
7.70527
0.159255
0.0975415
0.112564
0.18749
0.194195
7.92424
0.0148107
0.140232
6.95552
7.90216
0.12777
7.91998
7.69669
2.60392
1.52465
0.158677
7.8253
7.89691
0.211039
0.140562
0.0328696
0.109741
3.57019
7.90723
0.219133
8.24223
7.92052
7.62661
0.154935
7.69143
0.111287
0.011628
0.125542
0.13163
7.92009
0.110833
7.9182
7.52613
7.9149
7.89014
0.0490791
4.63418
7.70031
7.90463
8.36462
0.110711
6.9108
0.0883523
0.10542
0.0476619
0.107883
7.88057
7.88815
6.7266
0.167658
0.0888752
-0.606873
7.94079
7.90819
6.87363
0.203518
0.143043
7.69866
0.0320978
2.70221
0.134547
0.0829452
7.90578
6.69839
0.0755731
0.109544
7.70894
0.200284
0.192846
0.164213
0.0716116
0.0869668
0.106458
6.95889
0.0549729
0.0922981
0.0879505
8.01603
0.131294
7.04264
0.18363
0.0936752
7.92275
0.0381829
0.0857171
0.0884499
0.115142
8.75646
2.31326
0.198779
4.42897
0.08786
7.67132
0.0426033
0.0868416
7.90272
7.70159
-0.0689784
0.162329
0.121481
8.73202
0.176668
0.0830361
-0.818706
0.169154
7.90177
7.93843
0.107743
8.34885
0.100536
0.0703312
0.0863547
0.0523046
7.90296
0.202921
0.108151
7.89708
7.00445
0.0884991
7.92754
0.0818038
0.08148
7.91008
8.77866
0.143291
7.9003
7.69279
7.72129
0.0488025
0.325382
0.168526
7.97146
0.161646
0.0642204
7.73673
0.0665429
0.0567786
0.0468687
0.151969
7.69729
0.0946848
0.0670716
0.0672443
0.0575277
0.04864
0.11896
0.166466
7.9079
-0.0419273
0.0478085
7.90543
0.0634234
7.72319
7.70652
7.91885
7.72945
7.90565
0.226268
7.71479
0.0626284
0.165377
7.9218
0.189602
7.86333
0.0436451
7.90392
0.108036
7.67885
0.153607
0.2369
0.101064
0.0811993
0.0491846
0.167684
0.0501671
0.0771959
2.96336
0.0738877
0.10007
0.079738
7.91935
0.125542
0.154745
0.0747868
0.149365
0.11764
7.92047
6.86059
7.90086
0.166187
7.90285
6.24814
0.0502925
8.39631
0.202152
7.88961
7.88626
7.70007
0.112532
0.202257
0.0667066
0.196587
0.045864
0.100371
0.107781
0.105887
0.0452652
0.105924
0.0994716
7.93535
7.66918
7.91469
0.138413
0.11125
7.71645
7.69992
6.37102
0.120222
0.049129
7.90194
0.101494
7.90803
-0.119192
0.170281
0.184255
7.90657
7.90828
0.10647
7.9068
0.196669
0.0696189
7.52415
0.126998
0.150844
0.0425227
7.89551
0.149714
7.06586
0.171013
0.165834
7.90851
7.92834
0.0624185
5.65999
7.94498
0.0857902
0.0494369
7.90833
7.87972
7.02124
0.0901429
6.36047
0.136774
0.188501
0.190637
7.90848
7.07945
0.186429
7.90756
7.71329
7.91405
7.90662
7.1828
7.74807
7.59802
7.89823
7.90801
7.37466
8.39975
7.6648
0.205886
7.67413
6.81341
6.45397
8.89445
6.94427
7.90868
0.191106
7.43049
7.7325
0.196797
8.21693
8.56961
7.83043
0.183704
8.37005
0.193578
0.166642
0.202797
7.24572
7.90483
0.20136
-0.143208
7.85806
7.91184
0.140107
7.16852
0.139432
7.09532
7.69196
7.77948
0.137824
0.140801
7.90981
0.178881
7.95178
7.42925
0.0870094
0.101952
0.194398
7.71537
0.141031
7.27319
0.166155
7.69746
7.89632
7.69272
7.04122
0.0956405
0.104116
7.91651
-0.458304
7.90611
7.91903
7.90578
7.9047
0.187883
0.174906
0.107096
0.270517
7.88248
0.164915
0.134498
0.0921923
0.181714
7.76504
0.0843876
0.209244
0.104272
-0.115181
0.135561
7.94492
0.13226
0.191317
0.143014
0.192444
0.180028
7.92462
0.187168
7.80211
7.9132
0.118872
7.92165
0.177438
7.90963
7.95871
7.61896
7.90339
7.91752
0.169358
7.90115
0.166875
7.27438
7.7138
0.170306
0.2038
0.10736
0.157067
7.93327
0.968405
7.9167
0.168825
7.95983
0.163948
0.181595
0.198052
0.185788
7.98835
7.99513
7.90025
0.0921416
7.7245
7.89163
0.0878748
7.67531
7.69032
0.214611
7.98813
0.126962
-0.12723
7.22745
7.52755
7.46722
0.0878495
0.140987
7.90349
0.00978335
0.174764
7.07526
0.19789
7.91139
0.0845313
0.173266
0.0951248
7.90479
0.171181
0.102619
0.197628
0.205823
0.184483
7.90782
7.9075
0.17158
7.89468
7.69502
7.90878
0.081053
0.200745
0.106219
0.102406
6.95719
0.155666
0.136917
0.141595
0.0999824
0.177513
0.182934
0.18735
7.69956
7.69943
7.69942
0.206385
7.71111
0.154237
5.38965
0.178261
-0.253568
0.0751546
0.0458003
7.69006
7.91196
0.179512
0.177977
7.9237
7.69631
7.92116
0.083569
0.180665
0.186641
0.186317
0.0456063
0.135472
7.89988
7.91641
7.90807
0.0527274
0.12304
0.00412983
0.147767
0.106767
0.18477
7.86859
7.90811
6.4448
7.7246
0.0421366
0.182757
7.90275
7.92784
7.92281
7.92129
7.8852
7.73895
0.182957
7.90363
0.185487
0.177856
7.69538
0.184975
0.030313
0.0910704
7.95732
7.78474
0.183397
7.90698
0.182227
-0.857258
0.0946115
7.69063
6.02486
7.69725
7.90573
7.8955
7.63014
2.32608
7.90903
0.198693
0.0836056
7.91136
7.9087
0.185211
7.90487
7.70677
0.119602
0.0860788
7.88731
7.88747
7.7003
0.0807955
7.90696
7.90712
1.41515
0.171933
0.184475
7.9025
7.69449
7.2452
0.180838
0.183393
0.182454
0.143296
7.69435
0.0857119
0.0184006
0.0165434
7.6645
7.91349
7.90807
7.87196
7.90702
0.128869
0.127061
0.0953664
7.93568
7.91288
7.90642
7.90864
7.7488
0.199368
0.117129
0.0214909
7.68913
7.90643
7.9717
-0.667495
0.180549
0.190397
7.70632
-1.62873
8.26266
7.86275
7.90673
0.127248
0.148602
7.9004
7.92729
0.155209
7.90853
0.090191
0.124563
2.93263
7.89601
7.73118
0.0989189
0.181408
7.92754
2.743
0.0636441
0.184509
7.90311
7.90279
7.92771
7.91687
0.0456539
0.0791225
7.90318
0.191315
0.193334
0.491877
7.90384
7.89872
7.89919
7.90353
0.167853
8.38763
7.90536
7.79146
0.0587235
0.172148
0.0726469
7.86634
7.91653
0.187359
7.64965
7.90843
7.90187
7.90354
0.131739
7.72017
7.67683
7.69401
0.0656937
0.140576
7.89592
7.91584
7.88006
0.150644
8.1633
7.90045
7.88214
7.9167
7.91433
0.0932077
0.179604
7.96193
0.145228
0.171239
0.12778
7.92515
7.92015
7.90729
7.88061
7.6906
0.179528
7.9047
7.41962
7.4065
0.190094
7.67568
0.181648
7.90707
7.71249
0.227442
0.575168
7.11849
0.201497
7.90567
0.195991
8.16806
7.91442
7.94738
9.08584
7.90501
0.19941
7.89619
0.141364
7.71432
7.02155
7.92008
7.89471
0.0552006
0.21963
7.69866
2.85022
7.71744
0.137907
0.196351
0.197631
7.72258
-0.0547706
0.164334
0.189305
0.182009
-0.3007
0.16399
7.65891
7.6926
-0.417889
0.0868744
0.188027
7.93067
7.58259
6.47768
3.4432
7.92161
7.69189
7.91661
7.92066
7.9239
8.31196
0.205946
0.179844
0.115111
7.01467
0.174447
7.91629
0.161146
7.90817
7.92793
7.70514
7.73491
0.148675
7.7176
7.71463
7.90344
0.144964
7.90288
7.91141
0.192973
7.8846
5.85178
5.05903
4.73202
7.92234
4.9432
4.78708
4.89394
5.57133
7.69342
7.69358
0.138321
0.182627
7.04377
7.18763
7.69177
0.1342
8.19894
7.77543
0.150606
7.90232
7.90681
0.17482
0.167943
7.88678
7.68977
0.235487
7.0754
7.67689
-0.0895167
0.147086
0.185747
7.83337
0.159151
7.91856
0.100419
-0.0969726
0.15322
7.90469
-0.0917204
0.157985
7.9825
-0.71744
7.88827
0.147045
7.55837
0.160092
7.82635
0.189252
7.89797
7.64266
7.71339
-1.15325
-1.14715
7.92941
0.150889
0.246223
7.96643
7.90407
0.101195
0.0278073
0.167065
7.92635
0.160506
0.1522
0.200007
-0.535514
7.92387
0.121476
7.69997
0.129457
7.9083
-1.3881
-1.65257
7.87746
0.110442
7.74136
0.201019
7.69797
7.88174
7.91045
7.92668
7.87818
7.89538
0.193485
0.134187
0.124877
7.90665
6.40592
0.13694
7.90596
7.87874
7.9267
7.9133
7.92706
0.0268151
7.90473
7.91767
7.69224
0.0198737
7.88303
7.70095
7.56918
0.0552467
7.70483
0.0295926
-0.461292
0.142226
0.0535978
0.00784724
8.22808
7.9033
7.90411
0.087692
0.0744814
7.61315
6.37356
0.0331121
7.91107
7.9194
0.147239
7.88741
0.158269
7.89998
0.0109914
0.190524
7.90626
7.69239
7.89963
7.91714
7.9086
0.22073
7.89692
0.0343811
7.96275
7.90405
0.0747549
7.70691
0.159373
7.79651
7.91126
0.187479
0.119624
0.161323
7.9161
7.91693
7.90596
0.117569
0.182075
7.96946
7.70007
7.66789
0.0687203
7.8918
0.166805
0.145939
7.90128
7.8957
0.0774355
7.90263
7.66918
7.70479
7.9751
7.70881
0.126555
6.28657
7.70784
7.91412
6.44493
7.89575
6.65951
7.86999
7.89147
7.78957
0.107323
7.8471
0.0654711
7.8778
7.89371
0.228181
0.0613274
7.88833
7.8822
7.9011
0.0799947
6.79806
7.90521
7.75766
7.89708
0.0785029
7.88966
0.106245
7.92155
0.176057
7.00434
0.197007
7.91104
7.90842
0.181178
6.64464
7.9048
0.0721429
0.173744
7.93751
7.91705
0.181943
0.17333
0.0750127
0.0706782
0.0623342
0.191316
0.0770622
0.194152
7.9665
0.0971446
6.36605
6.25602
7.90405
7.89219
7.9081
0.0879055
7.92097
7.91611
7.92035
0.144038
0.188545
6.06751
0.172615
7.91899
0.197042
7.68027
0.194865
0.0805998
6.43676
0.189473
7.88817
7.86995
7.69967
0.101606
0.175858
7.90576
7.70681
0.0919854
7.91579
0.156487
7.95002
0.18845
7.90755
7.70004
7.89806
7.69854
0.0717586
7.69869
0.566129
7.71444
0.186463
7.90331
7.89681
4.48877
4.1762
7.917
7.89788
7.9083
7.91671
0.175177
0.145312
5.35696
7.91793
0.18596
7.69383
7.71955
-0.126467
0.151403
0.194988
7.70063
0.0583186
0.178674
0.119432
0.162551
7.90942
7.92335
7.92749
7.91863
7.70116
7.69856
7.69924
7.86405
7.70094
7.69942
7.90694
7.69864
0.163775
7.69889
7.89929
8.64045
7.91711
7.90377
2.91797
7.69453
7.90033
0.143968
0.189849
7.87248
7.89963
7.9071
0.146952
7.75169
7.89666
0.170081
7.70651
7.89889
7.90704
7.91687
0.20428
7.70284
0.120249
7.91748
7.89622
7.90024
7.9033
7.89729
0.17711
0.138937
0.0919556
7.91754
7.70309
7.95252
0.16045
7.89766
0.136294
0.203632
7.70286
7.89723
6.05929
-0.107366
7.87916
7.09994
-0.0951285
6.13716
0.192643
7.74209
0.197818
6.10378
5.70641
7.90688
0.178875
7.70723
0.168587
0.196589
7.90478
0.180391
0.0077195
7.90595
0.18515
7.6932
7.88152
7.89198
7.87701
7.88696
7.69569
7.89734
7.91815
0.131109
7.18698
7.90474
7.90816
7.8953
7.89788
0.146463
4.20531
0.154422
0.00732861
7.89736
0.1836
0.173831
7.90552
7.07947
7.84683
7.88379
7.92023
7.97963
6.53543
7.24156
0.188518
7.90366
7.92423
6.1793
6.69541
7.70112
0.171415
7.8997
7.69976
7.91666
0.186928
7.9218
7.69482
0.185852
7.70414
7.68199
7.82198
7.96668
0.18709
7.90379
7.90158
7.89948
7.89816
0.193386
0.200167
0.208069
0.17619
0.197966
0.191276
7.70735
6.64321
0.131323
0.191594
6.6341
0.137463
7.90964
-0.75807
7.70617
0.178374
7.90713
7.69261
0.199073
-1.05431
7.90066
0.191103
7.90725
7.91271
0.172355
0.196335
7.91552
7.69725
7.93799
7.69959
7.89681
6.90859
7.91698
7.90848
0.189639
7.91699
7.9037
7.90209
0.206652
7.90961
6.94957
7.70292
7.69812
7.37465
7.00619
0.205121
7.69043
7.01626
0.138071
7.90884
0.181573
0.196391
7.90137
0.137634
7.90697
7.5259
7.97272
6.87816
7.71549
7.899
7.91418
7.92292
0.155308
7.9188
7.91227
7.91592
7.79444
7.90362
7.84265
0.159205
7.90716
7.91848
0.183062
7.90618
7.70165
7.72012
0.164871
7.90368
0.105875
6.7974
-0.0799198
0.031517
7.69668
6.63876
0.13982
6.37795
7.70017
0.0916154
-0.0798207
-0.000335547
0.185775
0.0383688
-0.844255
7.73836
7.68988
0.174519
0.171925
0.180134
0.178017
-0.0835069
7.70983
0.0483157
0.164555
0.170598
7.72353
0.172584
0.046353
0.116529
0.16116
0.151101
0.186095
0.0759125
0.149713
0.0169726
0.0947789
0.167381
6.96259
0.0921008
0.00814148
0.177525
0.185051
0.0306965
0.169018
0.0196101
7.11878
0.164737
7.06886
0.117566
0.176487
0.164273
0.127297
7.05798
7.69884
0.166159
0.140224
0.148129
0.201348
0.0668323
0.166218
4.95769
0.175293
7.90707
0.290827
0.163715
0.193267
0.124158
0.139268
0.108809
0.190144
0.124109
0.114262
0.115463
0.169514
0.129439
6.23964
5.49293
0.17032
7.90289
7.90745
0.160847
0.181869
0.0350963
7.90164
0.173294
0.196673
0.131944
5.68887
7.90662
0.0701146
0.0120689
0.157722
7.92359
0.0686418
7.91024
0.131757
0.184677
0.18776
0.190946
7.8994
7.90974
0.217088
0.173663
0.187479
7.90171
0.138759
0.188571
0.183482
7.71008
0.138889
0.0309593
7.05071
0.116593
-1.12798
0.156833
7.65325
0.187408
0.191905
7.90762
0.204372
0.0332812
1.65801
0.19143
0.212762
0.0586388
0.199145
0.174423
-0.00654154
0.0487415
0.155833
0.191936
0.0548241
0.158383
0.113896
0.14523
0.18675
0.127773
0.171331
0.126753
0.0755963
7.90897
0.202254
0.192148
0.164474
0.0856813
0.200142
7.71046
0.199182
0.118366
7.90516
0.171628
-0.00563838
0.200331
0.200194
0.0452039
-0.03911
0.189116
0.181322
0.19349
7.90905
7.9067
0.199437
7.72048
0.202917
0.235624
7.72982
0.0459822
0.190283
0.0963761
7.91589
0.119614
0.119048
0.182585
0.133306
0.126233
0.0888604
0.139189
0.212982
7.907
7.87998
0.173631
0.191498
0.186052
0.158047
7.87969
0.187931
0.204694
7.72988
0.128313
0.177962
-0.0682347
0.076081
0.200595
0.154622
0.0763704
0.141043
7.72576
0.208712
0.108099
0.192974
0.0942285
7.88102
0.210347
8.02858
7.9055
0.122673
0.1797
0.124864
0.420695
0.138961
1.70655
7.70411
0.164536
0.217817
0.186745
0.130656
7.90454
7.72249
7.71179
0.121296
0.12562
0.0694903
0.117047
7.65273
7.88463
0.113488
0.140156
0.19514
0.134543
0.12957
0.174205
0.179323
4.50272
7.69329
0.183082
0.0351971
7.88395
0.172233
0.169261
0.222471
0.196489
0.154782
0.204798
7.88421
0.150307
0.156744
7.7181
7.66928
0.0365946
0.0888706
0.0670427
0.0413853
0.163195
0.159673
0.0674725
0.122247
0.158009
0.0347922
7.87963
7.87169
0.00938007
0.0531298
0.161796
0.187484
0.16125
0.135021
0.188892
0.140518
0.156744
7.69934
7.72469
0.171682
7.87796
6.91014
0.165171
0.116281
0.147992
0.182663
7.23977
0.198695
0.205698
7.36786
0.185856
0.0825696
0.159681
0.162791
0.028529
0.184294
0.131373
0.0437592
7.90611
7.31292
0.180647
0.0737127
0.126806
0.0725874
0.139313
0.187279
0.160867
7.33824
0.174296
0.0835144
0.143372
0.165686
0.194449
0.1685
0.0872831
0.153138
0.0561437
7.23329
0.206613
0.169309
3.00049
6.88039
6.34686
0.165614
6.72994
0.0189879
0.151667
0.127631
0.185444
0.149234
5.17269
3.23958
8.105
6.79034
0.200331
7.69882
7.69864
-0.934337
7.90428
0.121743
0.137371
0.157148
0.109841
0.116157
0.172585
6.36896
0.0669588
0.0441756
0.188484
0.172884
0.121076
0.161814
7.70074
0.0880007
0.114849
0.104396
7.69927
0.19266
0.150609
7.69889
7.89062
0.164175
0.105194
7.94666
0.187656
0.170678
0.162086
7.91465
7.6984
0.0369742
0.0819628
0.186901
7.69966
7.69909
7.69892
0.193242
2.76037
2.52866
0.0563223
-0.0728033
7.92811
0.0852264
-0.050999
0.150912
0.0379434
0.0216252
0.0811911
-0.179547
0.0431044
7.76782
0.0783023
0.0730752
0.0223481
0.127088
0.0384579
0.0579402
0.0416846
0.03853
0.0346326
0.189153
-0.0722244
0.159347
0.163983
0.144208
-0.140817
0.0311773
-0.0573991
0.0441249
0.0341059
0.0991314
0.0863754
0.190639
0.0810842
-0.0605556
0.0771564
7.53801
0.160347
3.98275
0.126191
0.161475
7.71869
0.19041
7.53801
0.170922
7.56544
7.92224
0.159426
0.186573
6.93285
0.0676177
0.140938
0.187526
7.88555
7.9164
0.260023
0.0673061
0.106203
0.127324
0.067858
0.183477
0.201398
0.186786
0.189414
6.56876
0.158454
7.70125
7.8665
0.112567
0.0886903
0.183534
0.109209
0.0840071
0.199519
0.193037
7.80465
0.158423
0.0721226
0.192258
7.81643
7.92521
0.159445
0.173688
6.23085
0.198443
0.0338844
0.181515
-0.116596
0.0748268
0.133083
7.89019
4.71179
0.110201
0.186434
7.78468
0.121306
0.193078
0.176304
0.187412
0.104676
0.155928
0.159157
0.211393
4.98835
0.207112
7.90379
0.172775
0.190562
0.0713998
0.011195
6.67103
0.0170237
0.178332
0.185059
0.147654
7.47229
7.69869
0.12117
0.185325
0.19563
0.174993
0.197894
0.0883281
0.0113917
0.135816
0.0549856
0.0340464
0.192682
7.11359
0.152236
0.174484
0.000731805
0.19515
7.30135
7.6917
-1.99339
0.161861
8.19636
0.137586
0.192915
7.40143
5.14669
5.55598
0.17047
0.109192
0.462983
5.93276
0.164995
0.127252
7.64188
0.239904
6.93821
0.175076
0.0886442
7.74133
-0.00768877
0.211038
0.207328
0.0863894
7.69469
0.0287822
0.187274
0.178554
0.216199
0.226628
0.210675
0.20438
0.120591
0.198672
0.0566608
0.109508
7.89628
6.54786
6.61928
7.74955
0.172833
0.123153
0.119772
0.17498
0.0720231
0.118642
0.174396
0.191892
0.185966
0.0884976
0.204318
0.155267
0.192629
0.0721161
7.90398
0.193969
0.176051
0.190977
0.2082
7.63491
0.123434
0.128774
0.203916
0.172388
0.148551
7.70192
0.157232
0.147849
6.9267
0.160469
0.185246
7.74425
0.135527
7.73481
7.71835
0.123751
0.152295
0.189479
0.148997
7.69337
0.0545699
0.18127
7.72214
0.14002
0.152555
0.13249
0.186408
7.7733
0.180691
0.184893
0.192706
7.75713
0.135658
0.0558997
0.187496
0.108275
0.116354
7.9443
7.52602
7.14122
0.0331616
7.26687
0.121669
0.0925715
0.0495474
7.8924
0.0489712
7.71704
7.90472
7.86398
0.138583
-0.00945427
0.0852425
0.19096
0.133515
7.55076
6.93644
0.199536
0.189789
0.115072
0.111487
0.124588
-0.0972729
7.90615
5.8302
5.94735
7.69522
6.01795
0.0213888
7.90689
0.130163
0.171602
0.127196
0.0337164
0.140647
6.42143
0.0805512
0.182572
0.192774
0.203234
6.46193
7.90385
0.198229
0.0963727
0.00805163
-0.227219
0.162258
0.131299
0.0311767
0.0948119
0.106699
0.0227114
0.0965127
-0.49099
0.0844814
0.184125
0.181385
0.0735327
0.0836814
0.154341
-0.29482
-0.196845
-0.639483
-0.937268
0.0486605
0.193878
7.72449
-0.740165
-1.66226
0.0522834
0.0380631
0.00844386
0.179895
0.168475
-1.84689
0.0364191
0.168241
7.93405
0.124867
0.126713
0.150901
7.90472
0.108932
0.0702703
0.0394315
0.142986
7.92586
7.93544
0.186144
0.0676038
0.0606477
0.0121447
7.8612
7.90873
7.70845
0.157739
0.172692
0.0489024
7.911
0.109748
7.94028
7.96318
0.0464891
0.0351441
7.68677
0.0529218
0.0588999
-0.016984
7.71256
7.9151
0.0833642
0.184594
7.94898
0.0484129
0.0834347
-0.0260345
8.00299
8.00922
7.97759
-0.0338017
0.0480261
0.20653
0.0722169
7.70571
0.0486512
0.164931
0.201083
0.197808
7.70617
7.90054
0.0886047
0.193063
0.189986
0.140017
7.70198
0.0965377
7.70212
0.0608075
0.16577
0.169219
7.75368
7.18964
0.182756
0.218789
7.04906
7.09325
7.70258
0.151045
7.58708
6.75072
0.17149
0.172073
7.70291
6.93678
0.160675
0.0928819
0.0627315
0.135739
0.118221
7.0518
0.185862
6.48616
6.32567
7.92398
0.132223
0.197041
0.0487053
6.36327
8.46793
0.185798
0.159585
0.201295
0.197071
0.159274
0.158221
0.162102
0.0873319
6.24855
0.156713
0.109875
0.0765202
0.139745
0.182968
4.56806
0.122759
0.12345
0.126346
0.12514
0.0626758
6.05053
7.20436
0.14373
7.26192
7.34784
0.162605
7.2749
0.121348
7.11003
7.19437
7.73461
6.91774
0.142036
0.0645507
0.131095
7.09478
0.0929039
0.134167
0.148202
7.20972
7.90887
0.144165
0.145122
0.155309
0.142506
6.876
-0.00214585
0.0699182
0.0436134
7.69069
7.77982
0.104404
0.0783586
7.80723
7.23358
0.189146
0.0103684
7.07787
0.197692
0.17722
0.186492
0.154986
7.15275
0.162998
1.27365
0.0539215
0.0991823
0.208766
0.176534
0.191103
0.0906045
0.176444
6.99867
0.18153
0.172871
0.114582
0.185795
0.191
7.19149
0.114582