/*--------------------------------*- C++ -*----------------------------------*\
  =========                 |
  \\      /  F ield         | OpenFOAM: The Open Source CFD Toolbox
   \\    /   O peration     | Website:  https://openfoam.org
    \\  /    A nd           | Version:  10
     \\/     M anipulation  |
\*---------------------------------------------------------------------------*/
FoamFile
{
    format      ascii;
    class       surfaceScalarField;
    location    "11.5";
    object      phi;
}
// * * * * * * * * * * * * * * * * * * * * * * * * * * * * * * * * * * * * * //

dimensions      [0 3 -1 0 0 0 0];

internalField   nonuniform List<scalar> 
214403
(
-0.00336624
0.00258113
0.000142928
0.000642187
-0.00166563
-0.00560813
0.000477009
0.00679676
-0.00511218
3.444e-05
-7.05798e-05
0.00514832
0.0044277
-0.00297714
-0.00742197
0.00597142
0.00612848
-0.00774638
0.00184698
-0.000229078
-0.00268661
0.00279785
-2.65737e-05
-8.46596e-05
-0.000425014
-0.000807551
-0.00459836
0.00583093
-0.00850813
0.00483871
-0.00127379
0.0049432
-0.0116011
0.0081888
0.00826587
-0.00485358
0.00709242
0.000841413
-0.00792667
-7.16241e-06
0.00251326
-0.00497717
0.0010228
0.00144111
-0.00515886
0.00162274
0.00267232
0.000863799
0.000237757
-0.00570591
0.0068707
-0.00140255
-0.00497835
0.00501197
-3.36192e-05
0.000956323
0.00595676
-0.00763263
0.000719545
-0.00603664
0.00504795
0.00152841
-0.000539719
-0.00607636
0.00592957
0.000146795
0.00196985
-6.50532e-06
-0.0005032
-0.00146015
0.0078156
-0.00467803
-0.0103924
0.00725481
-3.81095e-05
-0.0015585
4.51074e-05
0.0015515
0.00321226
-0.00313612
-7.61399e-05
-0.00615585
-0.00212999
0.00211804
0.00616781
-0.00113953
0.00679816
-0.00547986
-0.00017877
0.003363
0.000353642
0.00117379
-0.00489043
-0.00513988
-0.00245696
0.00664744
0.0009494
0.00459489
-0.00581891
3.56157e-05
0.00118841
0.00161306
-0.0014071
0.00527435
-0.0054803
0.00381649
0.00499005
-0.00601311
-0.00279343
0.00557195
-0.00349576
-0.000157925
-0.00191826
-0.00293516
0.00299169
-5.65311e-05
0.00122537
-0.0025437
0.00676911
-0.00545079
0.00706812
0.000334428
-0.00123296
-0.00616958
-0.00281846
-0.00289335
0.00296337
0.00274844
-0.000599028
-0.00337672
0.00299065
0.000985095
0.00221753
-0.00153218
-0.00470284
0.00401749
-0.000854674
0.00426361
-0.00154037
-0.00186856
0.00801289
-0.000190314
-0.00782257
-0.003451
0.00673255
-0.00328155
0.000620922
-0.0073655
0.0042633
0.00248128
0.00122906
-0.000493486
0.00300435
-0.00373993
0.00285236
-3.02392e-05
-0.00282212
0.00511497
-0.000107839
0.000904756
-0.00591189
-0.0065038
0.000815909
0.00691695
0.000429534
0.000443402
0.00430242
-0.00517535
-0.00205218
-0.0134266
0.0130156
0.00246324
0.00284659
0.000516977
0.000641613
-0.00400518
0.0021113
0.00160626
-0.00516679
0.00144924
0.00668327
0.00400528
-0.00732555
0.000604765
0.00565796
-0.00114775
0.000909057
-0.00340117
-0.00200543
0.00449755
0.00155331
0.002389
0.000709986
-0.0046523
0.000925017
-0.000694031
-0.00213909
0.00190811
0.00343944
-0.00622307
0.00433694
0.00593893
-0.00559232
-0.00191885
0.00157223
0.00532146
-0.000972959
-0.0042889
0.00581383
-0.000246104
-0.00127883
0.00441973
-0.00565186
6.41385e-05
0.00116799
-0.00413929
0.000273869
0.00661454
-0.00274911
-0.00766786
-0.0072066
0.00605129
0.00882318
-0.00409254
0.00411768
0.000810035
-0.000835176
0.000644009
-0.00523004
-0.00428369
-8.85309e-05
0.00222629
0.00214592
-0.00672953
0.00288663
0.00435755
-0.000514647
0.00785874
-0.0063266
0.000401919
-0.00193406
0.00036016
0.000132572
-0.00518737
0.00469464
0.000259278
-0.00142814
0.00705177
-0.00588291
-0.0174139
0.00181663
0.00193027
0.013667
-0.00160203
0.00472275
-0.00149914
-0.00162158
0.00232865
-0.00122253
-0.0049748
0.00386868
0.000556911
0.00347475
-0.00441704
0.000385379
-8.85894e-05
0.00424694
0.00147353
-0.00563188
-0.000848856
-0.000136443
-0.00175175
0.00273705
-0.004514
0.00493082
-0.000185787
-0.000231029
0.000157464
-0.00455834
-0.00318169
0.00281833
0.000854945
-0.000491588
-0.00845745
-0.000527414
0.0041258
0.00485906
-0.00255517
-0.00108857
0.00217399
0.00146975
0.00375303
-0.0125851
0.00174435
0.00708773
-0.00196264
0.00394993
-0.00215717
0.000169871
0.00283411
-0.00219984
0.000281303
-0.000915581
6.88017e-05
-0.00530555
0.00523675
1.66016e-05
0.00431329
-0.00432989
0.00380003
-0.000743115
0.000503147
-0.00356006
-0.00227326
0.0032424
0.00107543
-0.00204457
-0.00160389
0.00682355
-0.00164029
-0.00357937
0.00322463
-0.00549723
-0.000210223
0.00248283
0.00368427
0.00390091
-0.00758518
0.00543928
-0.00611426
0.00156659
-0.000891619
0.000525628
-0.000981509
0.00710637
-0.00665049
0.000205962
-0.00115266
0.00512398
-0.00417728
0.00121617
0.0106956
0.00307738
-0.0149891
-0.00933942
0.00821907
0.00532475
-0.0042044
0.000430353
0.00329719
-0.00443323
0.000705686
0.00438218
0.00486828
-0.00159692
-0.00765354
0.00810304
-0.00492359
-0.0001619
-0.00301755
0.000354968
-0.00103992
-0.00326432
0.00394927
-0.00330831
1.88104e-05
0.0032895
0.00492835
0.000170457
0.000340483
0.00613057
0.000518312
-0.00931331
0.00266443
-0.00491129
0.00108272
0.000873689
0.00295488
-0.00311737
0.000772949
0.000383016
0.0019614
0.000762734
0.00054669
-0.00647247
0.00516304
-0.0013289
-0.00773238
0.00492943
0.00413186
0.00309831
-0.00366315
-0.00238914
0.00295398
0.00502136
-5.45553e-05
-0.00502086
5.40627e-05
0.0038379
-0.00541325
-0.00188866
0.00346401
0.00992039
-0.00300114
-0.0015456
-0.00537364
0.00564285
-7.15823e-06
-0.00519325
-0.000442443
-0.00283924
0.00334175
0.00696289
-0.0074654
0.00608562
-0.00213057
-0.00585561
0.00190055
0.00112056
-0.00163484
0.00711342
-0.00659915
-0.00804975
0.00734069
0.0069517
-0.00624264
0.000362975
-0.00626001
0.00241599
0.00348104
0.00783419
-0.000415051
-0.000160194
-0.00725894
0.00552252
-0.0010773
0.00106796
-0.00551318
-0.00643425
-0.00584989
0.00692541
0.00535873
-0.00121408
0.00348578
0.000944624
-0.00321633
-0.00273639
0.000149092
0.00530468
-0.00271739
-0.000610335
0.00689197
-0.00641616
0.000134522
-0.00592811
0.00550486
0.001072
-0.000648745
-0.000197768
-0.00345807
0.00825072
0.00109582
-0.00364928
-0.00266456
0.00521802
-0.00290271
3.80539e-05
0.00286466
0.000887932
0.00403877
-0.00373584
-0.00119086
0.0064549
-0.00372284
-0.000990292
-0.00174177
4.93007e-05
-0.00191032
0.00186102
-0.00363325
-0.000978269
0.00136256
0.00324897
0.000375379
0.00206947
-0.00464245
0.0021976
0.00788873
-0.00071232
0.00308363
-0.01026
0.000567825
-0.000701142
-0.00955021
0.00968353
0.000620717
-0.00272992
-0.00362525
0.00573446
0.000229226
0.00497639
-0.000277272
2.02586e-05
-0.00293247
0.00291221
0.00606207
-0.00224517
-0.00272108
-0.00367578
0.00307218
-0.00302966
0.00668261
-0.00556215
-0.000672813
-0.000447648
0.000669217
-0.0031648
0.00138342
0.00111217
-0.00546512
-0.00165433
0.00111024
0.0060092
0.00454107
-0.00739039
0.00490605
-0.00205673
-0.00020072
0.00668307
-0.00669257
0.000210229
-2.12199e-05
0.00609779
-0.00604448
-3.20841e-05
-0.00851045
0.00678877
-0.0054476
0.00716928
0.00709869
-0.00686557
-0.000233123
-0.00648637
0.00868597
-0.00158911
-0.000610487
-0.00579156
0.00139302
-0.000436448
0.00483499
-0.00955536
0.000730305
0.00615304
0.00267201
0.0016942
-0.00231406
0.00128907
-0.00234004
0.00266052
0.00428137
-0.00460185
-0.00253848
-0.00113908
0.00145211
0.00222545
-0.00343884
0.00225099
-0.00434811
0.00553597
0.00103362
8.56076e-05
-0.0076056
-0.00340145
0.00339404
7.41182e-06
0.00372339
-0.00357959
-0.000143803
-0.00559862
-0.000366362
-0.00148895
0.00137975
-0.0073738
0.00858082
-0.00258678
0.00331503
0.00570551
-0.00725403
-0.00176652
0.00633079
-0.00687677
0.000184432
0.000361543
0.00338575
0.000881154
-0.00350033
-0.000766575
-0.00533866
-0.000294488
0.0070129
0.00307532
-0.000222791
-0.00374852
0.000895992
0.00346177
-0.00296386
0.00341407
-0.00391199
-0.0060263
0.00113234
0.00820899
-0.00203828
-0.00285812
0.00943638
-0.00453998
-0.00290791
-0.00320474
0.000773985
0.000862974
0.00230383
-0.00607471
-0.00413903
-0.000364119
0.0066485
-0.00214535
0.000640808
0.00101574
0.00367368
-0.00533023
-0.00195982
0.00479725
-0.00283743
0.00154828
-0.00745014
0.00269712
0.00443286
0.00309813
-0.00666801
-0.00627233
7.58928e-05
0.00781571
-0.00161927
0.00106374
0.000909749
0.00284718
-0.00482066
0.00425393
-0.00428512
3.11951e-05
0.00158739
-0.000599266
0.0053266
-0.00631473
0.00558391
-0.00176857
0.0026839
-0.00649924
0.0102623
-0.0032969
0.00765446
-0.0146199
0.00168119
0.00312532
-0.0013015
-0.00350501
-0.00464506
0.00190933
0.00243697
0.000298754
0.00334778
-0.00252321
-6.85282e-05
-0.000756042
-0.00215551
-0.00273393
0.00796003
-0.00307059
-0.00373223
0.00484532
0.00193348
-0.00304657
0.00561959
-0.000306997
-0.00185082
-0.00873413
0.00577462
-0.000479326
-0.00831026
0.00766622
0.00356035
-0.00291631
0.00530018
-0.00597535
-0.000861663
0.00153683
0.00300615
-0.00542834
-0.00284809
-0.00308955
-0.00283549
0.00160207
0.00432296
-0.00441727
0.00137229
0.00435771
-0.00131273
0.0051042
-0.00485737
-0.00334287
0.00309604
3.09886e-05
-4.40647e-05
-0.00479142
0.00480449
0.000117498
-0.00422068
-0.000159413
0.0042626
-0.00121078
-0.00716651
0.00112774
-0.00415178
0.00373523
-0.000711194
-0.00282622
-0.00119201
-0.000399036
-9.46962e-05
0.0070874
9.97073e-05
-0.0169011
0.0118861
0.00859167
-0.00357663
-0.00499914
0.000340973
0.000183154
0.00447501
-0.000990751
0.0157942
-0.0185878
0.00378432
0.000790351
0.00121893
-0.00273622
0.000726942
-0.0106889
0.00575279
0.000744044
0.00419204
-0.000124572
-0.00710927
-0.00101166
0.0082455
-0.00294435
0.0106939
-0.00739828
-0.000351309
0.00480108
0.00698191
-0.00645131
-0.00533169
-0.00572768
0.00546071
0.00677648
-0.00650952
0.00222552
0.00311044
-0.00387417
-0.0014618
0.00221759
-0.00149628
-0.00354753
-0.0113718
-0.000444497
0.00928966
0.00252668
0.00334299
0.000513729
-0.00194739
0.00343596
0.00459865
-0.00424621
-0.0037884
-0.00568862
0.00126769
0.00554584
-0.00112491
0.000674329
0.00178534
0.0062263
-0.00661694
0.00653523
0.000631844
-0.000550139
0.00407894
0.00320336
-0.0028907
-0.000114212
-0.000813354
0.00381827
-0.00437239
-0.000872254
0.00242832
-0.00840437
0.00357367
0.00240238
0.000254897
0.00453378
-0.00503076
0.000242083
-0.00174557
0.000337251
-0.00162268
0.003031
0.00703858
-0.00503246
0.00021147
-0.00397588
-0.00310483
0.00418435
0.00289636
0.0150129
-0.0160638
0.00524879
-0.0041978
-0.00288925
0.00359019
0.00144597
-0.00214691
-0.0066109
0.00287179
0.00576398
-0.00202487
-0.00286167
0.00415939
0.0053429
-0.00664062
0.00801462
-0.00309947
-0.00530439
0.00038924
0.000138877
-0.00194648
0.00473603
-0.00292843
-0.000823651
0.000816847
-0.00626553
0.00576433
0.00187062
-0.00617256
-0.0014624
0.00723842
-0.00593822
-0.00159469
0.00152061
0.00224493
-0.00531512
0.00154958
-0.0029834
-0.00545756
0.00485673
0.00358423
-0.000906667
-0.00235485
-0.00071437
0.00294435
-0.00315288
0.00678367
-0.00657514
0.000716544
-0.00826532
0.00754877
0.00280861
-0.00367395
0.00238595
0.00152678
0.000888356
0.00125293
-0.00366807
-0.000147098
-0.00687502
0.00702212
-0.00374901
0.000497249
-0.00121668
0.00446844
-0.000449265
0.00520081
-0.00474078
-1.07651e-05
-0.00352712
-0.00186895
0.00204187
0.0033542
-0.00131385
-0.00311994
-0.00290287
-0.00425925
0.00355328
0.00360885
0.000153102
-0.00436983
0.00753035
-0.00309572
-0.000400791
-0.00403384
0.00401155
-0.000384658
-0.00292621
-0.000700681
-0.000645031
0.0056419
-0.00704415
0.00204728
0.00363065
0.000138819
0.0017676
-0.00553707
-0.000131583
-0.00298165
0.0014394
0.00167384
-0.00207107
0.0026955
0.00520725
-0.00583169
-0.00733321
-0.0018978
-0.00204888
0.0067553
-0.00626986
0.000148107
0.00196589
0.00415586
0.000603256
-0.00222103
-0.00395882
0.00557659
-0.00287346
-0.00560983
0.0014151
0.00706819
-0.00262115
-0.00290634
0.0030262
0.00250128
-0.00679505
0.00653986
0.00689457
-0.00663938
-0.000917231
-0.00160255
-0.00483676
0.00735655
-0.00660783
0.000672828
0.00672509
-0.000790088
-0.00115897
0.00309653
-0.00193756
-0.00268049
0.00495291
-0.0037304
0.00145798
-0.000113819
0.00888763
-0.00330116
-0.00547265
-0.00318367
-0.00153768
0.00638988
-0.00166852
0.00102933
-0.00269586
0.00611518
-0.00444864
0.000280309
0.0039751
-0.000696383
-2.20403e-05
-0.00652484
0.00652253
2.43561e-05
0.00742732
-0.00131526
-0.0108566
0.00474454
-0.00686213
-0.000672109
0.00856746
-0.00103321
-0.00372828
0.00563227
0.000462888
-0.00236688
0.00333389
-0.00329375
-4.01426e-05
-0.00396093
0.000383267
-0.00341854
0.00699621
-0.00574083
0.00790879
-0.00164629
-0.000521664
0.00356875
-0.00149598
-0.00430184
0.00222907
-0.00691107
0.00697364
-6.25703e-05
0.00567058
-0.00824964
0.000670501
0.00190855
-0.00644354
-0.00176267
0.0110189
-0.00281269
0.00474767
-0.000201682
-0.000996724
-0.00354926
-0.00270192
-0.00458256
0.0102288
-0.000486947
-0.00675685
0.00409092
0.0106318
-0.0118569
-0.00113087
0.00235594
0.00286245
0.00136324
-0.00316195
-0.00301055
0.00313492
-0.000124368
-0.00121634
0.00679681
-0.000431268
-0.0051492
-0.00148461
0.001761
0.0059276
-0.00620399
0.0038579
0.00906186
-0.0052997
-0.00762005
0.00663085
-0.00795523
0.00252906
-0.00120469
0.00603915
8.41497e-05
-0.0061233
0.000110639
0.00588568
-0.00599632
0.00660615
-0.00799592
0.00706035
7.49367e-05
-6.13744e-05
0.00515704
-0.0051706
0.000124655
0.00938466
-0.00934908
-0.00016023
-0.000798001
-0.00236936
-0.00478869
0.00795605
-0.00293019
-0.00175069
0.000588369
0.00555244
-0.00967018
0.00352937
-0.00468105
-0.00122746
0.0050188
0.000889715
-0.00553059
0.006106
-0.00163277
0.00105735
0.000869919
0.00453605
-0.00154283
-0.00386313
-0.0022164
0.000555569
0.00375149
-0.00209065
-5.24356e-06
0.00168601
-0.00211804
0.000437271
-0.00235851
0.00576309
-0.00332086
-8.37218e-05
0.00172744
-0.00545442
-0.00318409
3.75542e-05
-0.00508655
0.00504899
-0.00188559
-0.0018088
0.000839732
0.00285466
0.0028336
-0.001635
-0.00119859
0.00710623
-0.00705586
-0.00144044
0.00139008
-0.000646837
-0.00420168
0.00387344
0.000975085
-1.72798e-05
2.38791e-05
0.003815
-0.0038216
0.00189935
-0.00155985
-0.00603865
0.00569915
0.00439222
-0.00011277
-0.00427945
-0.00642601
-0.00415956
0.00619975
0.00438582
0.00374423
0.00587208
-0.0101033
0.00356205
-0.00128135
0.00200481
-0.00428551
-0.00142831
0.00141244
-0.00785053
0.00786641
0.00222265
-0.00437661
-0.00425779
0.00641174
-0.000447148
-0.00100647
0.00474325
-0.00328963
0.00330198
-0.00405896
0.00147103
-0.000714046
0.00181137
-0.00300319
-0.00290276
0.00409458
-0.00584744
0.0065843
-0.00175223
0.00101537
0.00665023
0.00856015
-0.00942446
-0.00578592
-0.00515426
0.00512925
2.5006e-05
-0.000571564
0.00606457
-0.00758353
0.00209052
0.000235099
-0.000382232
-0.00584381
0.00599094
0.00572662
0.000241342
-0.00658991
0.000621953
-0.00245043
-0.00414153
0.00520817
0.00138379
-0.00591742
0.0083849
-0.00296969
0.000502209
-0.00243823
-0.00297865
0.0017676
-0.000362737
-6.04863e-05
-0.00420224
0.00462546
-0.0137388
5.95057e-05
0.00123408
0.0124452
0.000542574
-0.00348677
-0.0018044
0.0047486
0.00855884
-0.000704012
-0.00277025
-0.00508458
-0.00152447
-0.00329581
0.000640642
0.00417964
0.00241808
-9.34578e-06
-0.00240873
0.00402275
0.00214386
-0.00133529
-0.00483132
0.00311639
-0.00247124
0.00615392
-0.00679906
0.000202163
0.0064096
-0.00211595
-0.00449581
0.00155232
0.00221471
0.00479181
-0.00307323
0.000215914
0.00285731
-0.00397913
0.000562632
0.00105618
0.000666941
-0.00550393
0.0037808
-0.00520709
0.00761947
0.00230754
0.00787333
-0.0016688
-0.00851208
-0.00500901
0.00492171
-0.00778632
0.00787362
-0.000753693
-0.00377424
0.0013206
0.00320733
-0.00415989
0.00784416
0.00232899
-0.00271243
0.000609627
-0.000226186
-0.00256513
-0.0081975
0.00256486
0.00819777
0.00539429
-0.00538399
-4.78078e-05
3.75055e-05
0.00434157
-0.00507852
0.001084
-0.000347049
0.00111743
0.00436373
-0.00778072
0.00229956
1.92876e-05
0.00375715
-0.00377644
0.00243097
-0.00623722
0.00492369
-0.0023486
0.00631372
0.00531825
-0.00928337
0.00179288
-0.00183026
-0.00850668
0.00854406
-0.00255763
0.00424194
-0.00851356
0.00682926
-0.00612099
0.00487375
0.00638719
-0.00513995
-0.00382671
0.00524437
-0.00338837
0.00197071
-0.000807496
0.00351804
0.000571789
-0.00328233
0.00178064
-0.00259644
0.00267834
-0.00186254
0.00336549
0.00125318
0.00110662
-0.00572529
0.00958004
-0.00650811
-0.000391777
-0.00268015
-6.27782e-06
-0.00465994
0.00466622
0.00289688
-0.00424303
-0.0130086
0.0143548
-0.000583883
-0.00630714
-0.00191199
0.00880301
-0.000384383
-0.00291007
0.00329446
0.000887613
0.00419694
-0.000667917
-0.00441664
-0.00117156
-0.00422971
0.00341292
0.00198835
0.00327335
-0.00274114
-0.00481589
0.00834029
-0.00649321
0.00184509
0.00195389
-0.00379898
0.00630367
-0.000157597
-0.000764868
-0.0053812
-0.00121221
-0.00206168
0.00327389
0.00225271
0.00149703
0.0125727
-0.0151218
-0.00534004
0.0078891
0.00193455
0.00412154
-0.00315222
-0.00290388
-0.0044141
0.0084421
0.00561443
-0.00964243
0.00497184
0.00172563
-0.000665271
-0.0060322
0.00821246
-0.00547643
0.00353427
-0.00627031
-0.00461943
0.00211155
-0.005796
0.00830388
-0.00749539
0.0134329
-0.0052614
-0.000676078
-0.000199527
-0.00320955
-0.00441813
0.00782721
0.00610489
0.00252039
-0.00716105
-0.00146423
0.00326218
-0.00869178
0.00548214
-5.2544e-05
-0.00768876
-0.000290545
0.00503078
0.00294852
-0.00154319
0.00398804
0.00173373
-0.00417858
-0.000978773
0.00392401
0.00315579
-0.00610103
-0.00800687
0.00411658
-0.000390112
0.00428041
0.000733241
-0.00217832
0.00432274
-0.00287766
0.00340497
-0.00170879
0.00121482
-0.00291099
0.00329937
0.000634395
0.00032058
-0.00425435
-0.00486087
0.0052162
0.00193102
-0.00228635
-0.00114977
0.00616612
0.000124571
-0.00514092
0.00496601
-0.00291393
-0.00192557
-0.000126513
0.00430956
3.36893e-05
-0.00434325
0.00314141
0.00243213
-0.000551679
-0.00502186
0.00147054
0.00388279
0.00332112
-0.00867445
-7.00689e-06
-0.00697511
0.00698212
-0.00363693
0.014085
-0.00205467
-0.00839339
-6.86906e-05
0.005261
-0.0051923
-0.000349833
-0.00377452
0.000678989
0.00344536
-0.00683761
0.00348678
0.00264448
0.000706357
0.00139306
0.00115784
-0.0079908
0.00543989
0.00407649
0.00643892
-0.00240647
-0.00810894
0.00616499
-0.00210876
-0.00590119
0.00184496
-0.00769124
0.00438477
0.0117381
-0.00843166
-1.9315e-05
0.00294907
-0.00294881
1.90559e-05
-0.00305343
0.00302183
3.1604e-05
-0.00782663
0.000119896
0.00329264
0.000872548
0.00188593
0.00516573
-0.00792421
0.00408161
-0.00485409
0.00313027
-0.00235779
-0.00391602
0.00342997
-0.000129015
0.000615068
-0.000815899
-0.0064437
0.00824004
-0.000980441
-0.00287471
0.00138394
0.00455241
-0.00306164
0.00498227
-0.00192195
0.000736996
-0.00379732
-0.00331565
-0.00057896
0.00388301
1.16061e-05
-0.000568778
-3.03271e-05
0.00540209
-0.00480298
0.000690598
-0.000580565
0.00542107
-0.0055311
-0.00487593
0.00680963
-0.00713383
0.00520014
2.34233e-05
-0.00614552
0.0061221
-0.00218312
0.000192683
0.00550489
-0.00351446
-0.00418784
0.004896
-0.00667748
0.00596932
-0.00430124
0.00032856
0.00130811
-0.00198969
0.00539696
0.00030213
-0.0037094
-0.00143807
0.000200832
-0.00243854
-0.00212246
-0.00689744
0.00692821
0.00209169
-0.00307254
-0.00035804
-0.00077429
0.00420487
-0.0105145
0.0035512
0.001037
0.00592628
-0.00333643
0.00764321
-0.00379091
-0.000515869
0.00232998
0.000910169
-0.00467821
0.00459961
0.00468951
-0.00928912
0.000622101
0.0100626
-0.00233657
-0.00834809
-0.000127321
-0.00017958
-0.00443734
0.00474425
-0.0048259
0.00794951
-0.0032066
8.29867e-05
0.00458289
-0.00289361
-0.00415406
0.00246478
0.00114476
-0.000153604
0.00140114
0.00705043
0.00195985
-0.0101984
0.00118816
-0.00489529
-0.00063749
0.00160368
0.0039291
0.001849
-0.00204857
-0.00277908
0.00847489
-0.00570255
0.00443305
-0.00720539
-0.000940263
0.00547547
-0.00946913
0.00493393
0.00329791
-0.00416532
-0.000423239
0.00129065
-0.00363963
-0.00126796
-0.000122724
0.00503032
-0.00272517
-0.00257581
0.00530098
0.000680632
-0.00728479
0.00646305
0.000141113
0.00280232
-0.002704
-0.00282349
-0.00457066
0.00579991
-0.00110355
-0.000125697
0.00652347
0.00179661
-0.00703034
-0.00128975
-0.00252483
-0.00369558
-0.000424506
0.00664491
0.00414194
-0.0012613
0.00480131
-0.00768195
-0.00462241
-0.000253525
-0.00554192
0.00296611
0.000710082
-0.0061853
0.00197936
0.00349585
0.00179827
-0.00644391
0.00354855
0.00109709
0.00096638
0.000252041
-0.00484536
0.00362693
0.000737497
0.00316482
-0.000213831
0.00543221
-0.00107318
-0.00414519
-0.00213248
-0.00021803
-0.00198883
0.00433934
-0.00126004
-0.00169671
0.00324433
-0.000287582
-0.00506668
-7.31972e-05
-0.00854822
0.00306977
0.00449968
0.0121074
-0.000100731
0.00164758
-0.0136542
-0.00530936
0.00824384
0.00167463
-0.00460912
-0.00151417
0.000828567
0.00521921
-0.00453361
0.000631668
0.00179516
-0.001388
-0.00103883
-0.00911208
-0.00188689
0.00785982
0.00313914
0.000198767
0.00384631
-0.000771728
0.00011677
0.00193661
-0.00607904
0.00402566
-0.00376023
-1.35311e-05
0.00138596
0.0023878
-0.00515695
0.00637354
-0.00101783
0.002917
-0.00263028
-0.000286716
-0.00429656
0.000616621
-0.0033339
0.00701384
-0.00194325
0.00292565
-0.00225486
0.00127245
-0.00417761
0.00470461
-0.00194401
0.001417
0.00187868
-0.00031368
-0.00445509
0.00289009
-0.00186706
0.0117078
-0.0157581
-0.00170359
-0.0011887
0.00116363
0.00172865
0.0055661
-0.00868598
-0.000394567
0.00351445
-0.00235113
0.00175458
0.00302346
-0.00242692
-0.000697036
0.00371195
-0.001024
-0.00199091
-0.00417852
0.000927434
0.000976004
0.00227509
-0.00233413
0.00020092
0.00213321
0.005383
-0.00256244
-0.00273311
-8.74516e-05
0.000393401
0.00268447
-0.00407457
0.000996696
-0.00288283
-0.00349752
0.00356537
0.00281498
-0.00149213
0.00385084
-0.00330062
0.00094191
0.00139013
-0.00263186
0.00181371
-0.000571988
0.00505194
0.000133515
-0.00518546
0.00433861
-0.00534139
0.00264364
-0.00164086
-0.00681735
-0.000194801
0.00701215
0.00280101
-0.00232325
0.000542406
-0.00102017
-0.000217928
0.00483806
-0.00528245
0.000662312
-0.00242225
0.00303184
0.000780537
-0.00268507
0.00575409
0.00531587
-0.00459795
0.00455816
3.97849e-05
9.30183e-05
-0.0072952
0.00720218
0.0097733
0.00117903
-0.00207986
-0.00887247
0.00204576
-0.00797165
-0.000989511
0.0069154
0.00154834
0.00183475
0.00103441
-0.00441749
-0.00274101
-0.00273974
3.79083e-05
0.00544285
-0.00130851
0.00179346
-0.00322596
-0.00603734
0.00108855
0.00792452
-0.00297572
-0.0118655
0.00869139
0.00382194
-0.000647819
0.00525602
4.31705e-05
-0.00529919
-0.00297783
-0.00400771
0.00259261
0.00439293
-0.00298949
-0.00434518
0.00129733
-0.00429964
0.00233709
0.00270005
0.00173965
-0.00228447
-0.00413932
0.00468414
-0.00294704
2.80439e-06
0.00294424
-0.00688571
0.00278289
0.00282982
0.00127301
0.00173061
-0.00463222
-0.00139803
0.00589577
-0.0018686
-0.000148507
-0.00387867
-0.00395127
0.00654946
0.00388519
-0.00648339
-0.0011616
-0.00243703
0.000896629
0.002702
-0.0016718
-0.00134559
0.00301739
-0.00292076
-0.00613429
-0.00281046
0.00136696
1.86609e-05
0.00275846
-0.00414408
0.00559994
-0.00407566
-0.00590342
0.00437914
-0.00207763
0.000740108
0.0041988
-0.00286127
0.0039458
-0.0027781
-0.000391263
-0.000776439
-0.00452779
0.000734792
0.00353725
0.000255747
-0.00281854
0.00645691
-0.00697399
0.00271867
0.000201737
0.00405358
0.00655289
-0.00523287
-0.00412311
0.00280309
-0.00520215
0.00108304
0.00971905
-0.00504794
-0.00332934
0.00543396
0.00294331
-0.000592872
0.00526912
-0.00199775
-0.0026785
0.000298635
-0.00311086
-0.00204661
0.00485883
0.00599091
-0.00395239
-0.000242399
-0.00179612
0.0018506
0.00138293
-0.00454204
-0.00126028
0.00142771
0.00351759
-0.00368502
-0.00104584
0.00546127
-0.00673051
0.00231508
-0.00327392
0.000789541
0.00079267
0.0016917
-0.00719771
0.00731766
-0.00011995
0.00496657
-0.00489447
-7.20936e-05
0.00199262
-0.00768995
-0.00295274
0.00865007
0.00176292
0.00335231
0.000780552
-8.49106e-05
0.00293821
-0.0028533
0.00471441
0.00422694
-0.00894135
-0.00521518
0.00318435
0.00224985
-0.000219019
-0.00292887
0.000964971
0.00238157
-0.00041767
-0.00874323
0.00408222
0.0047879
-0.000126884
-0.00284384
-0.0031674
0.00306421
0.00451292
-0.000711216
-0.00290745
-0.000894246
-0.00485827
0.00524093
-0.0032012
0.00084395
-0.00538357
-0.000274972
0.00481459
-6.35031e-06
-0.00266579
0.00267214
0.0130716
0.000102364
0.00139421
-0.0145682
-0.000490983
-0.000962132
-0.00708768
0.0085408
0.00226921
-0.00307367
-0.001433
0.00223747
0.000877909
0.00678437
-0.00273636
-0.00492592
0.00739833
-0.00740262
-1.57793e-05
2.0076e-05
-0.00414061
-0.00373415
0.00583738
0.00203738
0.00242262
0.00185894
-0.0048315
0.000549946
3.25573e-05
0.00448037
-0.00457905
6.61214e-05
-0.00618974
0.00198197
0.00501487
-0.000807094
0.00474488
0.00286986
-0.00480396
-0.00281077
0.000110372
-0.00421843
0.00213647
-0.00110759
0.00636944
-0.00341397
-0.000444644
-0.000532621
0.00439123
-0.00571825
0.000312996
0.00540526
0.00833854
0.00360804
-0.00270576
-0.00924083
-0.00544908
0.000115088
0.00544436
-0.000499492
-0.00130191
-0.00332092
0.00512232
-0.000658616
-0.00065216
-0.00175759
0.00306837
0.00137493
-0.00696753
0.00525331
0.000339291
0.00434169
-0.000676562
-0.00422427
0.000559147
-0.00535374
0.00111926
0.000433805
0.00380067
-0.00203798
0.00133408
-0.00275397
0.00345787
0.00117282
0.000768455
-0.00694498
0.0050037
0.000241911
-0.00468796
-0.000326562
0.00477261
0.0046533
0.00060925
-8.05409e-05
-0.00518201
-0.00553605
0.00128849
0.0050103
-0.00398788
-0.00529741
0.00928529
0.00767442
-0.00390311
0.00164835
-0.00541966
0.000601682
0.00430981
-0.00264228
-0.00620533
0.00114519
0.00219552
0.00286461
0.00766478
-0.00790047
0.000235696
-0.00463142
-0.00157469
0.00324269
0.00296342
-0.00602106
-0.00467701
0.00313689
0.00756117
0.0062676
-0.006545
-0.000801149
0.00107854
-0.000912112
0.00304258
-0.0023967
0.000266227
-0.00782215
0.00255356
0.00179613
0.00347245
-0.0115415
0.0143579
0.00238571
-0.00520216
0.00515599
-0.0111758
-0.000568052
0.0065879
-0.00458708
0.00582596
-0.010795
0.00955614
-0.00481326
0.0106147
0.00105183
-0.00685323
0.000423798
0.00502676
-0.00117516
-0.0042754
0.0076654
-0.00575173
-0.000192319
-0.00172135
-0.00134257
-0.00128996
0.00197103
0.000661505
-0.00361431
-0.00751967
0.00641801
0.00471598
-0.0051434
0.00685568
0.00595312
0.0041654
-0.00306262
-0.0038149
0.00271213
0.00154176
-0.00199423
-0.000880915
0.00133339
0.00341844
-0.00338267
-0.00449936
0.00446359
-0.00138271
0.00396607
-0.000286635
-0.00229672
-0.00549765
-0.000879023
0.00680047
-0.00414585
-0.00101904
0.00512515
3.97379e-05
0.00169638
-0.00378979
0.0020934
0.00135138
-0.0017943
0.00669077
-0.00624785
0.00524495
-0.00737322
0.00106767
0.0010606
0.00333694
-0.00359887
0.000261927
-0.00528388
0.000140482
0.00470456
-0.00179236
-0.00454063
0.00162843
0.00148518
0.0012033
0.00527198
-0.00796046
0.00325964
-0.00353877
0.000279129
-3.94611e-05
0.00409835
-0.00463332
0.000574436
-0.00578596
-0.000556721
0.00769406
-0.00250043
-0.000427362
0.000578165
0.00234962
0.00034549
-0.00285129
0.00210258
0.000403216
0.00467802
-0.00447934
-0.0011108
0.000537232
0.00773615
-0.00487365
-0.00339974
-0.00265637
0.00562149
-0.00296512
-0.00718656
0.0027512
-0.00168627
0.00612163
0.00564514
-0.00511174
-0.00835555
-0.00275685
-0.00330263
0.0113434
-0.00528395
-0.00808961
0.00515457
0.00735001
-0.00441498
-0.000177348
-0.006915
0.00709235
0.0109383
2.12404e-05
-0.00630239
-0.00465715
0.00636528
-0.00410347
-0.000566509
-0.0016953
-0.00463183
0.00328543
-0.000830667
0.00217707
6.32351e-05
-0.00477808
0.00471485
-0.00348473
0.00358726
-0.000102527
-0.00252521
-0.00266807
-0.00683078
0.0120241
-0.00644258
0.00140673
-0.00071638
0.00575222
0.00149556
0.00242634
0.00664202
-0.00599563
-0.00495574
0.00430935
-0.0018386
-0.00379298
0.0041825
0.00144908
-0.00381353
-0.00193884
0.00575868
-6.31136e-06
0.00125279
-0.0007207
-0.00354796
0.00301587
0.00420752
0.000187114
-0.00538009
0.00098546
0.00129917
-0.000905174
0.00139505
-0.00168414
0.00167823
-0.00138915
0.00343862
0.00336878
-0.00343994
-0.00336746
0.0016968
0.00396518
-0.00410025
-0.00156173
0.00359685
0.00155799
-0.00282487
0.00444401
-0.00538976
0.00113286
-0.00591166
0.00413272
0.00222621
-0.000447271
0.00703146
-0.00232619
-0.00736164
-0.00188027
0.00500875
0.00251667
0.00488587
-0.0023807
-0.00411879
-0.00112351
-0.000669365
-0.00657646
0.00615004
0.000580539
-0.000154117
-0.000409308
0.00822706
-0.000851985
-0.00696576
-0.00536852
0.00109494
0.00239331
-0.000857496
-0.00543493
0.00152773
0.0047647
0.00491157
0.000683679
-1.6337e-05
-0.00557891
-0.00734317
-5.97312e-05
5.00501e-05
0.00735285
-0.00188545
0.00206502
-0.00335185
0.00317228
-0.00505618
0.00639465
-0.000660935
-0.000677538
0.00665528
-0.00621218
-0.00549927
-0.00490542
0.00442661
-0.00140303
0.00188184
0.00396825
-0.000179156
-0.00124801
-0.00254109
-0.00744828
0.00718396
0.00351913
-0.0032548
0.00352368
0.00134221
-0.000447909
-0.00441798
0.00127089
0.00322154
-0.00402881
-0.000463619
-0.00238842
0.00240257
-1.41527e-05
-0.00139501
-0.00356108
0.00357338
0.00540637
-0.00535674
-4.96259e-05
-0.00303598
-0.00241175
0.00237405
-0.000314565
-0.00365519
-0.000398183
0.00436794
-0.000414055
-0.00318293
0.00284726
0.000749728
0.00499792
-0.00568416
0.000686244
-0.00639552
0.00655649
0.00601226
-0.00617322
-0.00429144
0.00331269
-0.00225495
0.00323371
-0.00171774
0.000733938
0.00155539
-0.000571591
-0.000179671
0.00775003
-6.72071e-05
-0.00750316
-0.00392127
0.0019011
0.00193163
0.00224336
0.00285541
-0.00498181
-0.000116959
0.00021635
-0.00619684
-0.000242579
-0.00561581
0.00561506
7.49781e-07
-0.00376807
0.00189777
-0.00415076
0.00127472
-0.00282043
0.000112702
0.00246163
0.0010687
0.00370829
7.23616e-05
-0.00317179
-0.00060886
0.00310533
-0.00774928
0.00621313
-0.00156919
0.00128568
-0.00175097
0.00651025
-0.00604497
0.00796121
0.00235252
-0.00122389
-0.00908984
-0.00203268
-0.0033355
-0.00108301
0.00645119
0.00241542
0.0100599
-0.00908495
-0.00339034
0.00115733
0.00729991
-0.00704721
-0.00141002
-0.00251081
0.000330769
0.00514718
-0.00296714
-0.000880375
0.00715508
-0.00385928
0.0051835
-0.00409185
-0.00159753
0.000505889
0.00170286
0.004457
-0.00615986
0.00414871
0.000921129
-0.000552721
-0.00451712
-0.00382251
0.00305546
0.000307297
0.000459748
-0.000368709
-0.00541669
0.000317397
0.005468
-0.00396747
-0.000504477
-0.000163347
0.0046353
0.00228463
-0.0050681
5.02459e-05
0.00199149