/*--------------------------------*- C++ -*----------------------------------*\
  =========                 |
  \\      /  F ield         | OpenFOAM: The Open Source CFD Toolbox
   \\    /   O peration     | Website:  https://openfoam.org
    \\  /    A nd           | Version:  10
     \\/     M anipulation  |
\*---------------------------------------------------------------------------*/
FoamFile
{
    format      ascii;
    class       volScalarField;
    location    "11.5";
    object      SgP;
}
// * * * * * * * * * * * * * * * * * * * * * * * * * * * * * * * * * * * * * //

dimensions      [1 -1 -3 -1 0 0 0];

internalField   nonuniform List<scalar> 
111485
(
5.61274e-10
0.000110886
2.63557e-05
1.17956e-10
7.94831e-06
2.88536e-08
1.43515e-05
2.15019e-07
1.02148e-05
2.69889e-06
2.41365e-05
8.63182e-07
6.48535e-06
0.284693
6.28688e-06
1.53481e-05
0.201835
0.00101156
8.68928e-07
4.75702e-08
0.0363599
1.42129e-09
3.04446e-06
1.0548e-05
3.91079e-05
3.25242e-08
4.76474e-07
1.3389e-05
1.03891e-06
0.047049
4.02336e-06
4.79743e-07
2.16513e-07
1.40097e-06
0.000718146
8.75887e-05
0.13195
0.19835
0.0023979
8.18601e-07
0.0415613
1.15989e-06
2.76362e-06
0.000104299
2.10285e-05
1.54351e-06
6.24831e-06
4.14987e-07
5.94853e-06
4.14033e-07
1.09681e-06
1.66554e-05
4.62762e-07
8.93453e-06
1.45872e-06
1.73693e-07
2.56928e-06
3.88138e-08
4.65114e-05
3.875e-07
5.41893e-07
2.5902e-07
8.15434e-05
6.53684e-06
6.33022e-06
1.98922e-05
0.000407877
2.23141e-06
6.76509e-05
0.000132242
4.80402e-05
8.15303e-05
1.08333e-05
8.75374e-05
4.08014e-08
1.87272e-06
1.62414e-08
6.82695e-07
2.77119e-08
3.04761e-05
0.27112
0.507712
4.59428e-08
5.3129e-09
1.50481e-05
3.5547e-05
0.138153
8.76897e-06
0.000238157
4.1814e-06
1.18915e-06
6.28229e-06
4.38029e-05
4.94598e-07
1.91992e-06
6.62098e-09
0.0264404
1.13171e-05
0.00148705
0.000544154
1.31402e-09
2.57757e-06
1.87358e-06
1.39453e-05
5.79238e-06
1.58872e-05
6.7198e-09
2.79032e-07
1.37112e-05
0.00069141
3.87597e-05
1.303e-06
1.26602e-05
7.10692e-05
1.02454e-07
1.26933e-07
2.88036e-08
6.26546e-06
2.13278e-05
2.96397e-09
8.92792e-08
0.000184982
0.0718599
2.15208e-06
5.51926e-05
0.027443
0.000103951
1.21894e-05
2.69597e-10
0.000310537
0.000132903
1.64476e-05
0.0461205
0.000170274
7.62786e-05
7.79728e-07
1.34631e-09
2.64907e-07
9.63599e-06
2.34251e-05
6.78276e-05
3.86265e-07
0.173969
9.16162e-05
3.97435e-05
2.26075e-06
4.0617e-09
8.35741e-10
4.80507e-08
4.59055e-07
3.11469e-05
0.0278945
0.111329
1.21505e-05
3.57028e-05
5.23416e-07
5.3987e-06
0.000143323
0.000790169
5.31187e-06
1.03115e-09
7.04483e-07
3.76041e-05
7.15783e-05
6.28995e-05
3.6047e-05
6.57365e-06
0.0258518
0.00149556
0.000125453
1.17606e-09
1.29347e-08
0.192539
2.7433e-10
2.42112e-07
2.57079e-06
5.28061e-07
9.29778e-06
3.36464e-08
5.62055e-06
9.54684e-06
3.66745e-08
2.5822e-06
4.85784e-07
2.19351e-06
1.96965e-05
9.43144e-06
5.20607e-05
0.000366705
1.54818e-07
5.03714e-05
5.62048e-06
6.96319e-06
3.57684e-05
4.85965e-06
1.16005e-05
2.11267e-06
1.24219e-06
8.33311e-07
7.71466e-06
2.67797e-06
0.00160153
7.787e-05
8.75503e-07
1.75818e-06
3.92438e-06
1.16e-05
1.14396e-05
1.71478e-05
2.60363e-06
5.1031e-06
9.40449e-06
8.25158e-06
7.49828e-09
6.63449e-05
0.000301388
3.89089e-07
8.2691e-09
1.11333e-05
1.65345e-05
8.50336e-07
8.26973e-08
1.49896e-05
1.61334e-05
0.000269751
8.02907e-09
6.10655e-10
2.99824e-05
0.00398525
2.28733e-05
9.01171e-05
1.31883e-05
2.33374e-06
0.140801
3.73359e-05
1.98793e-05
0.155428
4.83936e-08
5.68038e-05
2.06455e-05
2.529e-05
3.06638e-05
4.54285e-06
3.77302e-06
0.00183095
8.22369e-07
7.48225e-06
1.15458e-08
5.1105e-06
0.1316
1.76376e-05
1.03735e-05
2.03693e-05
6.60733e-10
0.000186574
4.34441e-07
2.69662e-07
6.3811e-05
0.0968227
1.89699e-08
4.23307e-06
4.98117e-05
2.34092e-06
3.52649e-09
1.12527e-05
5.25731e-11
6.07471e-08
4.93385e-07
0.160888
4.18058e-06
2.96772e-05
1.35952e-06
0.171032
1.86996e-05
1.32008e-06
0.000237829
4.46624e-06
1.26963e-06
4.59501e-07
5.44888e-09
0.109287
4.13304e-07
3.89089e-05
1.88764e-05
1.3731e-09
0.209933
0.256489
1.49362e-06
0.000304638
3.1513e-05
2.99399e-06
8.52389e-06
1.18062e-05
2.61399e-08
6.70358e-06
3.13276e-09
0.000350667
0.000265724
1.37157e-05
1.57808e-06
0.334245
1.76547e-08
0.0821022
9.52854e-07
6.91323e-06
3.82291e-09
1.11448e-07
0.0240675
4.33708e-06
1.50775e-06
5.5903e-06
0.000159166
7.4845e-07
2.94658e-05
2.87059e-08
3.29938e-08
5.12788e-06
0.00418034
0.241561
3.19011e-06
0.000743067
4.16069e-10
8.9499e-09
1.33233e-08
8.24586e-05
5.26018e-07
5.22052e-07
2.0685e-06
8.84848e-07
6.92547e-05
0.059413
5.16172e-06
1.13898e-07
1.82768e-06
2.12404e-06
0.0460475
4.84968e-05
7.14478e-07
6.98015e-07
7.83515e-07
1.3153e-05
6.05038e-08
0.145442
0.000161855
7.25812e-07
3.01474e-06
0.000293117
4.30322e-07
0.0373386
5.26855e-07
1.00886e-05
6.05461e-06
3.81115e-07
1.95537e-05
8.78294e-06
1.82789e-07
5.32521e-07
6.8987e-07
1.72562e-06
0.349257
2.82214e-05
1.72197e-07
0.0505529
1.56715e-05
1.8182e-08
4.02544e-07
3.8423e-07
0.0459215
0.000602361
0.0448502
0.0473954
2.74284e-07
2.22802e-08
2.57842e-06
3.52282e-06
8.75334e-10
6.80764e-06
2.89409e-06
1.53002e-05
2.50139e-05
0.000132309
5.17547e-06
0.0006805
4.611e-07
7.27136e-06
4.14946e-05
1.21343e-06
0.000645236
3.74922e-07
1.41092e-05
2.54161e-06
0.0289753
1.11371e-07
1.62553e-07
0.149234
4.46543e-06
0.295682
6.33046e-08
4.59851e-06
3.38224e-06
5.73612e-09
4.90686e-06
4.31752e-05
3.70297e-09
0.0313085
2.75865e-06
2.71186e-06
4.40191e-07
2.47454e-08
0.000731081
4.62266e-09
9.70067e-06
3.40408e-06
3.27524e-10
1.15737e-06
3.6936e-05
0.237952
0.000128986
1.78886e-09
7.73987e-05
9.76057e-05
9.59202e-05
3.71629e-05
0.000607128
2.43482e-06
0.00108545
5.32065e-05
0.197314
0.000196422
4.33625e-08
6.85543e-06
9.76459e-07
1.95696e-07
0.00137465
0.000205822
8.09801e-05
1.41784e-06
1.42399e-06
9.29929e-06
3.49105e-08
0.338533
8.72036e-07
3.23763e-05
0.00427142
8.83433e-05
0.00123606
3.58012e-08
0.244925
0.320082
2.61912e-08
3.32239e-05
0.000254274
0.000100203
3.5758e-09
2.90864e-05
4.87734e-09
0.275309
6.96191e-05
1.96117e-05
0.000101224
2.05723e-05
1.76229e-07
1.51297e-06
4.92885e-07
6.5997e-05
1.5455e-07
5.88024e-07
0.0512046
9.17711e-05
3.79312e-08
1.05879e-09
0.000369735
8.26778e-08
1.50569e-06
3.49529e-06
2.51089e-08
6.01172e-05
6.42921e-08
0.0724646
6.65976e-08
1.62321e-06
1.56559e-08
0.000222883
4.0258e-07
0.216685
1.86481e-05
0.228403
8.56138e-09
6.23641e-05
2.45743e-06
2.92613e-09
0.356502
0.138067
2.46558e-05
3.1309e-06
2.98717e-05
6.61575e-07
1.13307e-05
7.50117e-07
4.34498e-05
0.279274
2.21055e-08
2.23804e-06
0.000105136
1.72404e-05
0.0563831
5.39462e-06
0.000111719
2.30624e-06
1.31376e-06
0.000747274
0.0782405
1.66801e-05
2.19457e-08
1.22515e-06
3.20444e-06
3.43068e-06
1.09471e-06
1.89995e-05
2.03478e-09
0.00166709
1.4702e-07
3.25931e-07
1.833e-07
8.72587e-05
2.19713e-09
9.12219e-06
2.97714e-08
8.46218e-06
3.41831e-10
0.112278
0.110958
1.81821e-05
1.0446e-06
0.0622991
0.0787769
4.82653e-08
2.3511e-07
1.41753e-05
4.67491e-08
0.000158022
1.71878e-05
1.06199e-05
0.0416777
1.52522e-06
3.01462e-09
4.54372e-05
4.08815e-05
6.11823e-05
1.6075e-06
1.49651e-05
1.03725e-05
9.71708e-07
9.32934e-07
2.03195e-05
3.24902e-05
1.8372e-09
0.122545
6.59205e-05
4.14884e-05
1.27958e-06
0.00113342
3.02509e-05
0.000444201
0.00291136
0.000373676
4.0326e-06
8.24943e-05
1.03411e-05
2.06168e-05
0.110838
0.000203302
7.20483e-05
0.00349289
0.074435
3.10627e-08
6.19117e-05
4.37254e-06
3.94794e-05
3.25613e-07
0.00050202
0.00269286
0.000416484
0.000161526
2.52533e-05
2.21987e-06
6.24551e-08
0.000192207
3.31465e-06
2.92642e-08
9.93883e-10
4.75518e-08
3.64859e-08
9.63472e-06
3.36902e-09
0.0339595
1.22461e-05
2.33423e-05
0.0962007
0.308192
5.86816e-05
2.89636e-06
0.0363143
5.29913e-08
1.80765e-05
1.76396e-07
1.67454e-08
4.63894e-05
2.23285e-05
0.116542
2.50124e-05
1.33598e-07
2.62792e-06
2.80225e-05
0.138743
6.71338e-06
2.64475e-05
6.69271e-05
0.190983
0.039677
2.64529e-06
1.65873e-05
5.75204e-06
2.2467e-06
5.80289e-06
1.09057e-06
3.02387e-05
3.94187e-06
2.04262e-06
1.10503e-06
4.23615e-06
0.000639826
3.17807e-05
4.07842e-06
4.5623e-06
0.000639311
3.50029e-07
4.90739e-07
1.64389e-05
2.93394e-06
1.56879e-05
2.76705e-06
3.18971e-06
3.37001e-06
2.98894e-05
0.000189045
1.35333e-05
1.93474e-05
2.76577e-06
4.95346e-07
4.09303e-05
4.36199e-06
4.17307e-09
0.0742681
2.01047e-08
0.132891
5.70917e-05
0.0114664
8.05294e-08
0.0281615
1.7108e-06
1.24877e-05
8.21903e-10
7.56281e-06
2.90426e-07
1.50469e-08
8.17496e-07
0.272742
0.000122275
2.87303e-05
0.0402446
1.00947e-07
2.27659e-09
3.88823e-06
1.70895e-06
8.11881e-05
5.55782e-07
0.000123649
6.01364e-08
7.11047e-06
0.000119193
0.162164
1.49861e-09
5.74141e-09
3.1182e-06
7.49874e-07
0.00012906
3.75251e-07
0.0602807
1.08661e-06
2.82452e-08
1.21256e-07
0.0435417
6.13959e-06
0.000132794
5.61696e-10
0.00488452
0.00100697
0.175685
1.79237e-08
1.84387e-08
3.5582e-06
2.21171e-05
3.84051e-05
0.000565012
0.00032222
0.000242329
4.49787e-06
0.0607258
2.50724e-05
7.96296e-07
6.18646e-08
1.17619e-06
1.2521e-08
8.27722e-09
7.261e-08
7.01014e-10
3.12274e-06
6.40614e-08
1.43341e-08
3.39573e-07
2.06336e-07
1.50586e-06
1.04757e-07
5.67744e-07
2.31877e-07
1.3969e-05
1.54544e-05
2.64728e-08
6.2805e-09
2.01707e-05
5.79738e-10
8.42557e-05
1.9854e-06
4.61796e-06
1.02918e-07
4.16251e-10
1.1489e-09
1.58483e-09
1.47481e-05
2.06144e-08
6.53072e-08
2.02136e-05
6.07739e-09
1.30829e-05
8.0164e-05
2.25247e-06
1.61361e-06
0.000509063
4.21012e-06
0.243278
0.000104672
7.99969e-06
0.202808
8.00057e-05
5.55166e-06
2.6888e-05
9.00269e-07
1.98114e-05
0.0864001
0.000676242
5.65953e-07
3.88967e-08
1.21517e-05
7.59161e-05
9.43628e-05
8.87271e-05
1.3544e-09
1.71848e-10
1.26519e-06
3.76024e-05
8.70163e-06
3.79742e-06
0.000189633
2.09995e-06
2.76252e-05
1.45993e-07
1.80424e-08
0.0320539
7.89991e-06
2.22627e-07
2.6415e-08
4.83963e-05
0.000127331
1.70351e-06
3.24777e-07
0.0397817
9.18479e-10
2.56515e-05
0.0610998
1.22922e-08
0.0701978
4.17881e-05
0.0355195
0.000588104
8.71894e-08
2.33264e-05
2.09274e-05
0.0448212
5.40696e-05
0.00127042
0.156212
0.000135772
1.04745e-05
9.46339e-07
1.23744e-06
0.469786
0.156538
4.04137e-08
0.233029
1.29809e-05
0.000157724
2.34522e-05
2.10698e-05
0.00115363
3.66768e-05
1.29666e-05
6.6813e-06
1.68963e-07
1.62391e-06
0.0437268
7.77051e-08
5.14945e-05
2.61085e-05
9.34778e-08
3.49171e-06
0.209776
3.87183e-06
2.87674e-07
0.000608728
1.49684e-08
3.60652e-06
0.205023
2.0507e-08
0.171891
0.330705
0.00128276
1.68975e-05
1.04496e-06
3.33872e-06
5.88558e-05
0.000221153
0.00114159
0.00029808
4.11446e-06
0.0434643
0.000105407
7.12576e-10
0.000293456
0.000281638
0.000591377
0.000455128
0.000841579
0.000167891
1.31714e-09
6.66479e-05
9.83398e-07
3.94917e-07
0.00160476
0.337495
1.72243e-07
2.92931e-08
0.00315106
0.00321272
1.14363e-09
0.000589683
8.52133e-08
1.4508e-08
1.35569e-08
4.45646e-07
4.80953e-06
1.64782e-07
7.41306e-05
0.0496949
2.05551e-09
5.11433e-07
0.00437294
0.112153
6.94836e-05
6.99943e-07
0.031218
3.85033e-09
0.000127643
4.56847e-09
2.44974e-09
0.000556174
0.125482
2.46068e-06
4.86004e-09
7.17095e-08
0.0342266
1.66523e-08
0.0221796
4.41028e-08
9.98434e-05
4.71086e-09
0.00191587
3.00554e-06
2.95714e-09
7.35758e-07
5.54518e-07
0.0013638
6.084e-07
2.53645e-08
1.99972e-06
0.00431489
0.051855
6.95288e-05
0.00057966
0.001047
4.51573e-08
0.00128055
9.805e-06
3.50325e-07
2.92058e-06
0.000213808
2.12942e-05
1.23867e-07
9.05539e-06
0.00014477
9.34263e-08
1.27326e-06
6.19089e-07
1.56186e-05
0.0706882
1.11473e-09
8.22643e-07
0.0583712
0.00011833
7.45519e-05
6.99109e-09
8.1614e-07
2.2314e-08
1.0819e-06
2.55953e-05
4.97105e-05
5.33651e-07
2.88963e-05
2.66855e-05
7.92746e-05
1.61277e-05
1.13858e-08
3.67824e-06
1.58407e-09
4.71819e-07
6.21603e-05
0.000177369
2.92134e-08
5.86663e-07
3.85488e-06
4.18478e-10
4.65499e-05
4.47562e-07
6.85425e-05
0.000802737
7.17987e-05
1.08559e-08
0.00136131
0.000114469
6.11956e-05
0.000152989
4.97402e-08
0.000154343
2.65547e-06
0.113402
3.34856e-05
9.36473e-05
6.13858e-08
6.16316e-10
1.8873e-08
0.180599
0.0716951
4.30791e-05
1.14641e-09
0.000133661
2.73776e-08
0.167345
0.000149925
7.20044e-07
7.67836e-08
3.23944e-06
5.99978e-07
8.55523e-05
2.05098e-06
0.000118484
0.302354
3.93287e-06
7.04022e-05
3.29717e-05
6.71163e-05
5.04771e-05
2.60628e-08
6.17844e-10
2.63581e-06
3.28588e-05
8.52743e-09
1.87465e-07
0.000603097
4.40184e-07
1.31534e-06
0.410901
1.83888e-06
6.53096e-05
4.49323e-10
3.02865e-06
2.62903e-07
0.320742
3.2426e-09
0.115578
0.00540211
0.000130357
1.65958e-05
1.50919e-05
0.000917624
2.49871e-06
3.29371e-06
2.18576e-06
9.04308e-07
5.50158e-08
1.80557e-06
8.25862e-05
2.29446e-06
0.067754
2.66648e-07
4.27715e-06
0.000296746
2.26027e-09
0.000371546
8.58423e-08
3.79378e-05
0.000790182
6.61138e-08
1.88841e-06
6.61505e-05
5.40474e-07
8.50599e-06
0.176238
7.40054e-07
9.44306e-06
7.29454e-10
0.0447007
8.63369e-06
1.88147e-07
1.98276e-07
4.76542e-06
6.96241e-06
7.66524e-09
0.147338
1.45198e-06
1.84358e-09
0.000121306
3.97351e-07
2.71702e-09
4.3954e-05
0.000960696
0.000867184
1.04667e-08
1.08271e-06
4.46595e-08
4.64912e-05
4.89656e-05
0.0335646
6.18519e-06
0.000875205
6.59174e-05
0.00110817
3.00347e-05
3.36868e-06
1.0305e-06
4.72089e-07
4.59928e-05
1.98047e-06
6.98394e-06
0.0430695
0.000247417
0.0460054
5.38079e-10
7.2103e-06
1.19605e-07
6.14962e-05
9.81139e-05
1.0775e-05
4.73439e-05
0.000554597
0.000140885
1.94463e-09
0.00699157
0.00807891
8.46351e-05
4.49641e-05
6.80822e-07
0.000962807
1.672e-06
2.83402e-06
1.35467e-07
5.50803e-09
0.000243073
9.51333e-06
0.000962168
6.29169e-07
0.0455188
0.000636875
7.0142e-07
1.25073e-07
0.000559387
2.79106e-06
0.0544946
0.271779
0.000126367
0.000227384
1.57293e-06
4.76097e-07
4.79566e-08
7.6693e-09
6.1398e-05
4.72573e-06
0.0335112
0.0539405
2.96387e-05
2.51612e-08
0.000311289
0.0400953
2.68843e-05
0.00112098
0.00249656
0.042328
0.118456
0.0492394
0.000121416
1.7249e-09
0.00197469
6.42784e-07
1.43561e-07
1.8037e-07
9.25661e-09
2.70486e-05
2.6385e-09
2.60255e-09
8.87229e-05
5.08694e-08
6.00325e-09
9.24651e-07
5.33227e-07
0.0575282
6.09948e-06
2.96105e-05
0.0742667
0.25466
4.60075e-09
0.182284
0.000161938
0.377841
3.48392e-07
1.09548e-07
7.93093e-08
4.2331e-05
0.254207
1.71554e-09
0.00113397
6.43749e-08
3.65604e-06
1.59411e-05
7.53516e-06
1.07058e-06
2.26644e-07
0.0755993
1.11426e-08
6.58635e-06
1.12985e-07
7.53166e-07
1.58102e-06
0.000445987
0.000110924
1.11776e-06
0.000378497
2.03907e-05
4.085e-07
0.000136426
7.27654e-07
2.24136e-05
1.40384e-07
1.35607e-07
0.24728
0.0426936
0.000393383
3.16676e-07
5.15181e-09
3.9197e-06
0.188611
2.78131e-07
1.09713e-05
6.17631e-07
2.70025e-06
1.80505e-09
0.0347817
0.000105007
6.99157e-07
5.51725e-07
1.7093e-05
7.49227e-09
0.174579
1.7121e-09
0.0396648
7.56151e-05
5.01576e-06
1.53872e-08
3.06757e-06
1.26681e-06
1.03121e-06
3.39734e-06
4.93205e-06
3.29839e-10
4.25937e-09
9.25414e-05
0.0784242
2.22674e-09
3.26601e-05
4.78371e-06
9.09605e-05
3.60895e-07
0.047079
2.23855e-06
5.05392e-05
5.34487e-05
6.40188e-08
5.61546e-05
1.93634e-06
1.65128e-05
2.87532e-08
2.09769e-08
1.0097e-05
5.037e-09
0.000170287
3.80794e-05
3.47662e-08
6.91354e-08
0.000128236
0.000533868
0.29578
1.16238e-07
4.9693e-06
1.80804e-06
0.000357934
0.000165122
2.57215e-05
8.16122e-05
0.0772764
3.2965e-06
5.31575e-05
0.000807676
0.0653013
7.95013e-07
4.14733e-08
0.000405465
3.01005e-06
0.0405337
1.93836e-07
6.6852e-06
3.423e-06
2.01654e-08
0.224215
1.03462e-08
1.6559e-07
7.33481e-07
2.58734e-05
0.301349
0.0559631
4.43181e-07
2.19211e-08
1.24553e-09
1.09735e-07
1.02662e-07
6.22259e-07
1.13127e-07
5.17709e-09
6.62183e-08
9.94964e-09
1.79074e-07
0.0613617
0.0363946
2.36015e-09
1.33711e-05
6.24058e-09
5.80286e-08
1.04924e-08
0.0356738
0.0805541
5.68381e-06
3.77391e-08
1.25933e-08
7.94566e-07
1.20899e-06
3.91157e-06
1.3213e-07
0.000326276
2.66598e-07
3.07305e-06
3.23206e-06
0.000185224
5.08241e-06
0.000778639
1.6876e-06
3.05084e-08
0.000477829
0.00044528
1.58191e-08
2.27018e-05
3.90243e-06
1.30149e-05
4.15506e-05
9.75596e-06
3.67738e-06
1.12393e-07
0.320618
4.85291e-07
3.82071e-05
0.0614007
0.000112379
1.1787e-05
1.40357e-05
1.51628e-06
2.08581e-06
2.13852e-05
6.37563e-05
5.42294e-05
3.32174e-06
4.23431e-05
7.09895e-06
3.63856e-06
1.8817e-06
5.27201e-09
6.03298e-08
4.19074e-08
5.22879e-10
1.74089e-07
3.18634e-08
6.91401e-06
2.07359e-08
4.69347e-09
1.74651e-07
1.67753e-05
1.06852e-08
9.37687e-09
8.05226e-07
1.0838e-06
9.02784e-07
8.56455e-05
6.05983e-06
0.239993
1.23647e-07
1.12994e-05
1.49777e-05
3.81279e-06
4.18293e-09
1.76182e-08
0.217558
5.41689e-07
4.17749e-09
2.32427e-06
0.218396
1.59443e-06
5.61887e-05
5.59301e-05
1.07698e-06
7.43233e-06
9.70495e-06
0.000372451
1.83397e-08
4.15983e-05
4.85306e-06
1.84488e-07
0.000312394
0.000379708
0.191026
6.62747e-06
1.35074e-06
7.17137e-06
3.57515e-05
1.48877e-05
1.9188e-07
0.00252869
1.26405e-08
0.000617384
0.000403606
0.05971
9.57234e-06
0.250236
2.72743e-08
1.34907e-07
4.66981e-06
2.51163e-05
6.69918e-05
3.19249e-06
0.000109982
3.33339e-08
9.39193e-06
1.1191e-09
1.50579e-08
1.47478e-06
0.000468011
9.46466e-08
5.69743e-09
0.00040829
1.956e-07
0.000528389
3.35196e-06
1.82356e-06
1.45799e-06
4.50558e-07
1.95157e-05
4.31912e-06
0.000199813
5.95829e-07
7.67389e-06
0.00323584
1.19268e-06
7.61168e-09
0.000152471
2.16764e-06
3.81835e-05
4.21591e-09
0.139345
0.000114977
6.76369e-05
1.68807e-06
7.11899e-09
0.000189947
4.41009e-06
2.2602e-07
9.29613e-10
6.18651e-05
6.87107e-05
7.66581e-05
0.189559
2.70736e-06
5.54238e-06
0.000239004
8.78702e-06
6.52645e-06
2.37786e-06
8.01502e-05
3.36332e-06
0.000115858
0.177496
1.37352e-05
3.65416e-10
1.53516e-06
4.87422e-05
1.48109e-05
2.38565e-07
0.00045952
0.000850944
0.000456258
0.00085533
1.61875e-05
5.08923e-05
6.72712e-06
1.88068e-05
9.69328e-08
1.1441e-08
0.0990021
0.000496722
2.65679e-06
0.00162528
4.87983e-06
2.35512e-05
0.000419912
3.3455e-06
2.22199e-06
3.14026e-06
3.70196e-07
4.06125e-05
2.79826e-05
0.000145117
2.62938e-05
4.82764e-07
5.91428e-09
2.69508e-05
8.46695e-07
1.78024e-08
0.000305972
2.76615e-06
7.88378e-06
3.59974e-05
6.38768e-06
4.58868e-08
0.000571508
0.134113
4.91311e-08
5.60515e-09
2.04268e-08
0.139864
0.239011
4.15135e-07
0.0521199
5.20587e-06
1.89202e-05
7.83988e-06
7.78498e-06
1.09585e-05
1.26483e-05
2.83437e-05
0.112899
0.32963
0.379756
1.12124e-05
2.96522e-05
6.06867e-06
7.13406e-06
0.349753
1.23837e-08
0.170015
4.00657e-06
1.02537e-08
7.27453e-07
5.56259e-07
3.13812e-08
3.53819e-08
2.22817e-07
2.30597e-08
0.132479
5.11745e-08
2.72601e-05
0.000185875
2.09116e-08
4.52604e-06
7.13127e-06
5.90811e-06
6.80416e-08
0.000570135
6.23561e-06
8.03126e-07
6.58641e-05
4.19236e-06
2.80853e-05
4.45599e-06
1.17058e-06
4.67498e-07
1.91695e-05
0.0032672
4.44854e-05
9.57692e-07
1.26977e-05
8.18351e-07
2.31963e-05
9.65947e-05
1.09575e-05
2.14891e-06
5.20524e-06
1.14516e-06
5.63096e-05
1.0573e-07
7.7661e-06
0.0402798
0.000408932
0.318905
0.000742656
0.000103702
1.74622e-08
0.0601463
7.31489e-10
4.61132e-05
1.51951e-05
7.68583e-07
8.39087e-05
1.44936e-06
8.77432e-07
4.17983e-05
7.75448e-07
1.50762e-07
1.7911e-05
6.49146e-07
2.17102e-05
0.0753915
3.46781e-07
3.37316e-05
1.31785e-06
7.44109e-07
2.3512e-09
0.000251849
8.60158e-05
3.38434e-06
1.20231e-08
6.73884e-07
0.043385
0.000202508
9.33043e-06
1.46694e-05
1.7252e-09
1.39621e-10
8.61719e-07
3.2872e-09
4.63073e-05
3.3165e-07
2.11371e-05
1.60039e-06
2.44167e-07
5.44983e-07
3.25678e-08
4.71541e-05
8.79251e-05
4.29283e-05
4.98504e-07
2.89676e-08
9.63781e-07
2.07259e-06
0.000521181
9.58114e-07
0.156955
2.02177e-05
2.90884e-08
4.03959e-08
0.000224223
1.22771e-05
0.0011079
4.73384e-07
9.28336e-05
0.226297
1.63187e-10
0.000320554
2.58398e-05
0.0415621
1.68509e-06
0.0464121
0.081182
0.000115209
7.23538e-06
1.94758e-05
1.12693e-08
1.54818e-05
2.61883e-05
0.000362412
1.84059e-05
6.1661e-06
2.52217e-05
0.000412926
0.000333891
0.000481918
0.000125646
1.30638e-08
8.52901e-05
0.000857756
6.35106e-06
3.71342e-06
0.000236725
0.000205522
1.34242e-05
1.79205e-05
0.000253685
1.4937e-05
0.000365914
0.000233912
1.88515e-05
2.04818e-08
3.3226e-05
0.000400849
0.0653337
2.07228e-06
5.07781e-07
4.77163e-05
1.84547e-07
8.25382e-05
8.12919e-07
0.000380878
5.92404e-07
7.10983e-05
2.39012e-08
9.54373e-08
1.08255e-05
0.000888234
0.00117171
0.328289
3.93803e-05
1.93426e-06
1.789e-07
0.00039548
2.22471e-05
0.032284
0.06881
9.72595e-10
0.000764503
5.89471e-05
6.2509e-06
5.79724e-09
0.00111142
5.59888e-07
0.0417755
5.0016e-08
2.68166e-09
2.85421e-05
8.95041e-07
1.25489e-06
3.78423e-05
0.038645
1.92179e-05
2.07388e-07
7.47763e-05
0.211771
0.0412548
5.80741e-06
0.000271846
2.78197e-05
0.000546921
2.70253e-06
0.0365597
3.61584e-05
0.000178553
2.2202e-07
8.45864e-07
4.35755e-06
5.0814e-07
2.33939e-05
2.25529e-06
7.72905e-07
2.42367e-06
4.05794e-06
9.39387e-05
2.49639e-08
3.50391e-07
0.0769388
9.613e-09
7.11802e-08
4.13229e-05
5.92071e-08
0.000170999
3.45744e-05
0.0628683
2.21083e-05
0.25195
1.20494e-05
1.99942e-05
0.0390056
0.00015309
1.93843e-10
2.60394e-06
0.0273491
1.51009e-05
7.58711e-05
1.61534e-05
1.5357e-07
6.719e-06
7.19225e-06
8.0984e-07
0.12285
1.05467e-06
9.75943e-08
1.62985e-06
6.7152e-07
1.46429e-08
8.42707e-05
2.43034e-06
0.264248
7.75743e-05
3.3985e-05
4.43347e-05
5.65191e-05
1.54072e-05
2.76373e-06
1.55945e-10
7.79215e-07
7.1211e-05
2.08494e-05
6.35027e-06
6.78711e-08
1.07755e-05
1.22534e-06
3.80924e-05
3.15506e-08
1.34746e-07
1.23316e-06
2.7341e-05
2.09976e-05
3.13258e-05
3.05923e-08
2.12706e-08
0.00161976
2.15326e-08
1.03545e-09
3.04648e-09
1.38777e-06
0.29815
7.41286e-07
0.000109225
6.71344e-05
1.96355e-05
1.66442e-07
1.16471e-06
0.000212919
7.07068e-06
3.31237e-07
3.6e-05
3.95727e-09
2.00193e-09
4.15123e-09
9.39179e-05
1.05267e-07
0.317154
0.000511217
3.37899e-05
0.00178232
6.37309e-07
1.51958e-05
4.81403e-09
0.0579159
7.71602e-06
6.03466e-06
1.51947e-06
3.77765e-07
1.54454e-07
0.463668
1.58775e-05
0.000418482
6.40844e-05
1.23863e-06
0.117966
3.15193e-07
3.13438e-07
5.05865e-07
6.64017e-07
3.22433e-05
4.64783e-07
2.33196e-05
1.7e-05
0.000481537
3.44185e-06
5.26587e-10
0.000184739
3.74048e-07
0.151402
3.20282e-06
2.28223e-07
1.22928e-06
1.86796e-05
0.0592531
0.0290681
1.77387e-05
4.61991e-05
0.0884691
3.28714e-06
2.49373e-05
0.0451753
1.1736e-05
5.33043e-06
0.166989
0.0182152
1.01937e-05
3.19146e-05
1.35755e-08
3.72465e-05
0.00165177
9.63552e-06
1.07868e-05
0.000366335
1.90853e-09
0.022595
8.92156e-09
2.75554e-05
0.187786
1.19558e-07
1.15073e-05
4.48277e-06
3.73973e-07
4.85232e-08
4.68224e-05
4.22868e-07
1.09943e-07
2.93096e-05
9.61508e-06
1.30331e-08
0.0227457
0.0430363
4.87647e-06
4.00506e-10
1.92415e-09
0.000139854
1.34364e-05
5.19335e-06
4.21494e-09
9.43285e-08
0.000128102
6.68869e-05
4.57221e-05
8.03219e-05
0.351141
6.13375e-10
0.135958
1.55364e-05
4.96377e-06
0.0536465
1.05385e-06
2.1737e-08
0.0222848
9.58189e-10
6.46107e-06
5.75559e-06
7.32706e-06
1.07408e-06
9.03418e-09
4.37402e-09
1.61742e-08
1.99754e-05
0.129185
0.205456
2.91524e-05
2.4296e-06
1.79816e-10
0.0544643
0.217509
0.000271383
9.23446e-07
1.29847e-07
0.000942012
0.000235484
2.48623e-07
1.34169e-08
1.99803e-06
7.54387e-06
3.37511e-08
1.07918e-05
6.5635e-05
0.0585818
0.19761
5.16767e-05
0.000826766
9.74481e-09
3.4804e-07
3.02772e-05
0.000170174
3.2475e-05
0.000431616
7.41793e-06
1.36851e-05
1.05916e-08
8.50379e-08
1.23859e-05
0.0569071
1.01207e-06
0.172113
1.88528e-08
1.16854e-05
2.26001e-06
1.64537e-05
1.05633e-08
1.65111e-09
1.11527e-07
3.70143e-08
1.18943e-06
0.000311412
8.64636e-09
0.0364401
1.66033e-05
0.153863
1.73439e-06
2.84337e-06
1.61263e-06
1.92627e-06
1.295e-05
3.41729e-08
1.77087e-08
1.37307e-08
3.01097e-06
8.93755e-06
0.0555479
0.0537746
4.76077e-06
8.8809e-07
6.67353e-09
1.94687e-09
2.5558e-08
1.64511e-06
0.000240752
1.91759e-07
3.59515e-08
3.30843e-09
0.0214293
2.6812e-05
4.2257e-05
0.03944
7.98747e-07
0.300329
9.65336e-06
4.30507e-07
5.44981e-10
2.5652e-07
0.0522208
5.71943e-10
2.13313e-05
1.1333e-08
0.000674716
4.36013e-05
8.02296e-05
0.000140042
2.74086e-05
6.08202e-09
1.35692e-08
0.346816
3.25978e-05
3.39314e-05
0.000223983
4.15895e-07
8.25182e-05
9.39662e-05
2.94692e-06
3.20165e-06
0.000288236
8.04958e-08
0.000676934
0.0382431
1.30564e-06
1.97113e-07
8.0888e-05
8.87523e-07
0.0332915
0.175551
2.0972e-05
1.08487e-09
0.00397887
3.30238e-07
2.13007e-05
1.51644e-06
0.000115597
1.08452e-08
0.000855801
8.38867e-05
0.000128143
1.99649e-05
0.000117272
2.74005e-05
5.2131e-06
1.62944e-09
0.000153029
4.4093e-05
5.59071e-05
6.37961e-07
9.34592e-06
0.000118862
0.000435308
8.7468e-09
3.59997e-08
3.51333e-08
6.15554e-10
1.25481e-07
0.0210788
0.000401385
0.000138581
3.86006e-05
0.000198295
8.04622e-05
3.28019e-10
1.09852e-05
5.20699e-09
5.24955e-07
1.00453e-08
2.50143e-05
0.00196919
1.49845e-05
1.11048e-07
1.2478e-08
1.42615e-06
1.24127e-07
7.69585e-09
0.141439
8.97628e-06
0.000647668
0.000980766
0.000717519
7.29893e-09
0.00064939
0.000714639
0.00129422
0.000708222
1.93235e-09
6.88328e-10
3.0552e-06
8.56389e-06
6.61226e-05
0.000312631
0.0405266
7.8445e-06
3.15174e-05
4.32672e-06
0.000538344
3.22325e-08
1.61992e-09
0.00010763
0.000359848
0.0254918
1.0262e-08
0.113833
0.000122216
3.20756e-07
8.87031e-05
4.75644e-06
8.46033e-05
2.1887e-06
9.26707e-05
5.04154e-09
8.76061e-06
0.0021136
3.50348e-05
5.42842e-08
0.00171344
4.26001e-05
1.02374e-05
0.00314114
8.02399e-08
7.47695e-06
5.48068e-05
8.79695e-05
8.77878e-07
0.186671
5.46398e-08
8.30169e-07
2.63604e-08
0.11412
0.117028
2.02861e-06
1.7399e-06
0.000151778
0.0537941
3.41766e-08
1.01536e-05
1.88917e-05
1.26163e-05
1.25259e-06
0.189002
6.92744e-06
1.61103e-05
0.00345847
1.55899e-07
6.84577e-06
1.62001e-06
2.37045e-06
1.51514e-09
0.00236814
0.00388459
1.17971e-07
7.10831e-07
1.24878e-06
9.8095e-05
9.51889e-09
0.0388696
2.75633e-07
9.79972e-06
1.08721e-06
5.22971e-07
4.64469e-06
3.35921e-05
1.24897e-06
4.99663e-06
0.000238087
1.47113e-06
1.29916e-06
0.0420115
7.51746e-07
3.3362e-06
2.47239e-06
1.91004e-05
2.07677e-10
3.64208e-09
1.41233e-09
5.27125e-06
5.43123e-08
0.0645717
2.14345e-05
1.13437e-05
3.8356e-09
2.99752e-05
0.113388
7.6983e-05
1.30501e-05
5.77131e-05
1.2048e-05
1.99621e-07
7.91442e-08
2.34349e-05
3.92204e-06
2.67975e-06
0.000526325
9.09344e-06
4.75056e-08
2.37317e-08
2.02741e-06
6.81768e-08
6.52512e-06
3.82946e-08
1.13855e-05
1.56965e-05
1.88735e-07
1.49461e-09
0.0446499
6.21486e-09
2.26822e-09
2.37474e-05
0.0551482
1.86693e-05
2.17508e-06
1.87356e-08
9.35097e-06
5.1397e-06
2.11995e-05
5.83106e-06
8.15728e-09
1.66434e-06
1.47608e-06
5.37796e-06
4.25119e-09
5.75178e-09
4.66014e-09
5.14148e-06
1.65117e-05
9.25024e-07
1.53836e-08
7.23634e-06
4.88183e-05
2.1265e-08
2.36641e-05
4.31765e-07
4.02058e-08
8.55708e-09
3.62424e-05
2.48646e-07
1.97264e-05
9.39717e-10
2.46224e-05
6.77455e-09
1.51027e-06
0.000337614
1.32722e-07
5.67331e-09
0.0669753
3.2812e-08
0.0551008
2.48076e-07
4.12392e-08
9.42824e-06
2.36371e-05
0.0448131
5.4346e-05
0.0487674
0.0592659
9.23901e-05
1.06587e-05
0.0394398
1.05576e-05
1.73177e-08
3.99324e-05
0.134975
0.0361642
0.0412236
9.9951e-09
9.59851e-06
1.56937e-08
5.58114e-06
9.64474e-07
7.65374e-06
0.000166031
6.84906e-06
5.14067e-07
1.43512e-08
3.63075e-06
0.000285171
2.31741e-08
1.10432e-05
3.57187e-05
1.93497e-06
8.88676e-10
5.97411e-05
2.50337e-05
2.43835e-05
1.69308e-05
1.52424e-05
2.09251e-06
6.9598e-06
0.000146173
8.51706e-06
6.63894e-06
0.00012173
0.000444252
3.61909e-09
6.25381e-07
2.79403e-08
1.8463e-05
8.65804e-08
2.26975e-06
8.60315e-11
0.000383844
0.378246
0.0852653
0.000140698
3.76785e-09
1.16626e-05
0.0527717
0.0992909
2.36952e-06
0.00026282
2.13376e-06
5.34956e-07
1.16245e-07
2.2438e-09
8.86707e-06
4.08778e-05
4.3095e-08
4.9125e-09
1.67453e-05
1.62311e-07
0.170162
0.0526861
1.14212e-05
6.15359e-09
1.13762e-08
0.0411124
4.61115e-09
2.38123e-05
1.16259e-08
0.000594482
1.75911e-08
4.91474e-06
5.09528e-08
6.29373e-09
0.00104727
0.148766
0.0631532
1.46649e-08
0.0674152
4.3156e-08
1.28669e-05
1.55812e-06
0.11315
2.38074e-07
0.000152086
4.03318e-09
1.88265e-06
0.000267674
1.60894e-06
0.000155894
9.17949e-09
1.04432e-05
3.05751e-05
1.96722e-05
5.0155e-06
3.60264e-07
3.21773e-07
3.27877e-06
6.02018e-07
8.80402e-09
3.1801e-09
0.0718803
0.0363056
1.61185e-08
0.080595
6.02946e-10
1.91996e-08
5.07874e-05
5.61133e-09
4.48093e-09
0.038177
2.17286e-08
5.76365e-10
0.000613835
2.15285e-09
7.83876e-10
4.82019e-05
0.0892081
1.19797e-07
0.0362807
9.50305e-09
4.33012e-06
0.0480462
6.13511e-06
0.000831392
4.53424e-10
6.99638e-08
1.02146e-06
1.76839e-07
0.202377
0.0435341
0.000105018
3.02892e-08
0.0452301
7.27943e-10
1.76351e-08
3.26949e-09
0.098693
0.00173702
8.34196e-06
1.37897e-09
1.25992e-06
0.0470465
0.000878263
3.74502e-07
0.000246587
0.104547
0.0822653
3.39268e-05
0.0817196
0.000902305
0.041709
4.07886e-05
0.0632442
0.00033346
4.55901e-06
1.4181e-06
2.19851e-06
0.000444387
0.000895933
7.75581e-10
3.56593e-06
7.60398e-08
4.32678e-05
7.19185e-06
9.9209e-07
7.73614e-06
0.000285602
1.72258e-07
7.82846e-06
8.27303e-08
2.43062e-08
2.94145e-08
4.40039e-08
4.86215e-06
4.16035e-08
5.01821e-08
7.10883e-08
1.05292e-05
4.18891e-05
1.59505e-10
1.65885e-09
5.87317e-08
1.02614e-07
1.10107e-06
0.00123528
0.00202001
0.000125823
9.07584e-09
3.08466e-05
5.4593e-06
0.0452998
3.10947e-05
1.26847e-05
5.46644e-07
1.03721e-06
2.36587e-06
0.000216231
0.000113769
0.173062
0.0656486
8.01131e-08
0.000799451
0.000286359
4.87472e-09
2.54719e-06
4.48409e-06
3.71287e-08
1.67269e-06
3.74225e-06
0.0607453
2.28938e-10
8.11397e-05
1.35768e-08
0.0465457
4.99657e-05
0.0346965
3.20496e-05
4.90195e-09
9.67123e-09
2.64377e-08
2.42776e-05
2.30659e-05
3.98078e-06
7.05493e-06
9.63899e-07
0.000737655
0.000276479
7.50785e-10
0.000113074
4.55772e-05
4.94983e-05
9.23667e-05
0.0028694
3.98486e-06
0.0957355
5.25703e-08
5.66105e-06
0.0374815
1.02097e-08
0.000254681
0.00699125
4.01526e-08
9.82495e-05
1.49917e-08
1.84495e-07
2.44568e-06
3.67616e-06
5.29106e-08
6.10584e-09
6.51588e-07
3.49901e-09
4.51326e-09
0.000121885
2.34196e-08
5.99168e-10
2.78706e-05
7.08262e-09
9.62843e-08
2.59328e-07
0.000208364
2.12717e-07
0.000162849
1.07364e-07
4.59122e-08
2.18783e-05
6.3892e-05
0.000222208
0.0412248
7.81647e-05
4.07382e-05
2.2443e-06
0.308397
0.299859
1.24461e-07
2.76975e-05
1.50216e-08
0.0438041
0.0371617
0.000390677
0.0862859
0.0669362
6.97968e-06
1.40916e-09
0.000109731
1.7244e-08
1.64161e-09
4.00722e-07
1.52394e-05
6.27921e-09
1.67677e-05