/*--------------------------------*- C++ -*----------------------------------*\
  =========                 |
  \\      /  F ield         | OpenFOAM: The Open Source CFD Toolbox
   \\    /   O peration     | Website:  https://openfoam.org
    \\  /    A nd           | Version:  10
     \\/     M anipulation  |
\*---------------------------------------------------------------------------*/
FoamFile
{
    format      ascii;
    class       volScalarField;
    location    "11.5";
    object      SgRate;
}
// * * * * * * * * * * * * * * * * * * * * * * * * * * * * * * * * * * * * * //

dimensions      [1 -1 -3 -1 0 0 0];

internalField   nonuniform List<scalar> 
111485
(
5.61276e-10
0.0082387
0.0235164
1.17956e-10
0.0487903
2.88536e-08
0.0455068
0.00614324
0.0187159
0.00118014
0.0458237
0.00937943
0.00466413
0.285448
0.00641169
0.0308935
0.203224
2.58562
0.0102756
4.75703e-08
0.0363599
1.42129e-09
0.0261599
0.0349603
0.00851939
3.25242e-08
0.0399478
0.00176624
0.0159475
0.047049
0.0440196
0.0192604
2.16513e-07
1.40097e-06
0.0078617
8.75887e-05
0.142429
0.202488
0.00239795
0.0235818
0.0415613
0.071108
0.0157602
0.00155236
7.87495e-05
1.54351e-06
0.0303898
0.00071565
0.0476724
4.14033e-07
1.09681e-06
1.66554e-05
4.62762e-07
0.0499125
1.45872e-06
0.0433447
0.00321661
3.88138e-08
6.82168e-05
0.00477823
0.0160259
2.5902e-07
0.00465873
0.0948189
6.33022e-06
0.00330635
0.313487
0.0946699
0.00112414
0.00599574
6.1378e-05
0.00641601
1.08333e-05
0.00286429
4.08014e-08
0.000698339
1.62414e-08
0.0412904
2.77119e-08
3.04761e-05
0.271123
0.541494
4.59428e-08
5.31291e-09
0.00904803
0.00403945
0.138153
0.0248134
0.000294646
0.00729223
0.000320668
0.0405398
0.0115455
5.84657e-05
0.0529417
6.621e-09
0.0264404
0.00176012
0.00148708
0.00174427
1.31402e-09
0.0184594
1.87358e-06
0.0185751
0.00465897
1.58872e-05
6.7198e-09
0.00759098
0.00395821
0.000691478
0.00561165
0.00474001
0.00364629
0.00316665
1.02454e-07
3.33001e-05
2.88036e-08
6.26546e-06
0.0125057
2.96398e-09
8.92792e-08
0.000184982
0.0718599
2.15208e-06
0.00163025
0.0274457
0.000103951
0.00166807
2.69598e-10
0.000349993
0.00148957
0.0319985
0.0461205
0.000170274
7.62786e-05
0.0485794
1.34631e-09
0.0424096
0.0249753
0.00267534
0.000302418
0.00199906
0.196338
0.00287784
0.0038934
0.0129112
4.06171e-09
8.35747e-10
4.80507e-08
0.0277894
0.00166811
0.0278945
0.111329
0.0048904
3.61792e-05
0.0105972
0.0163836
0.0105422
0.000790239
5.31187e-06
1.03115e-09
0.0522639
0.0233681
7.3518e-05
6.32458e-05
0.00566693
0.00353134
0.0258518
0.00150035
0.000173775
1.17607e-09
1.29347e-08
0.192671
2.7433e-10
0.00566576
0.00213071
5.28061e-07
9.29778e-06
3.36464e-08
5.62055e-06
9.54684e-06
3.66745e-08
0.00147053
0.00679055
0.0293933
0.00420243
0.00741089
0.00393366
0.000449608
1.54818e-07
0.00468692
5.62048e-06
6.96319e-06
0.00637482
0.01055
0.0274184
0.0110316
0.00490948
8.33311e-07
0.00656176
0.000548716
0.00164522
0.0136989
0.00230966
1.75818e-06
0.00368325
0.0258151
1.14396e-05
0.000192956
0.00763129
0.00211797
0.0003645
8.25158e-06
7.49829e-09
0.00806441
0.000301388
0.119753
8.2691e-09
0.0065083
0.0201358
0.119831
8.26973e-08
0.00314133
0.0135962
0.000269751
8.02907e-09
6.10656e-10
0.154795
0.00398555
2.28733e-05
9.01171e-05
0.00928563
0.00789106
0.155633
3.73359e-05
1.98793e-05
0.15544
4.83936e-08
0.00252047
0.0092985
0.0163104
0.0114173
0.009485
3.77302e-06
0.00183122
0.000615269
7.48225e-06
1.15458e-08
0.030935
0.15234
1.76376e-05
0.00628783
0.0105413
6.60738e-10
0.000186574
0.000119213
2.69662e-07
6.3811e-05
0.0968648
1.89699e-08
0.0150354
0.0110026
0.00370288
3.52649e-09
0.0117343
5.25735e-11
6.07471e-08
4.93385e-07
0.160888
0.0226379
0.00603794
0.00526857
0.207847
0.012011
0.00160426
0.00081894
0.0329867
0.00895349
4.59501e-07
5.44888e-09
0.109287
0.022583
0.0242673
0.0121336
1.3731e-09
0.216834
0.258551
0.00295398
0.000306486
3.52629e-05
0.0135178
0.00215918
0.00189032
2.61399e-08
0.000696136
3.13276e-09
0.000350805
0.000265724
0.245815
0.0686142
0.346425
1.76547e-08
0.0821022
0.0088922
0.00177016
3.82292e-09
1.11448e-07
0.0240675
0.000308779
0.0580629
0.00386377
0.0142045
0.0192834
2.94658e-05
2.87059e-08
3.29939e-08
0.00375675
0.00418034
0.242388
0.18634
0.000743408
4.16071e-10
8.94991e-09
1.33233e-08
8.24586e-05
0.0594935
0.0120415
2.0685e-06
0.00516915
6.92547e-05
0.059413
0.0666283
0.00581597
0.0113884
0.00913321
0.0460475
4.84968e-05
7.14478e-07
0.00929587
0.0189203
0.00467941
6.05038e-08
0.145442
0.000331953
0.00209041
0.00794364
0.000330408
0.0285489
0.0373386
0.0376223
0.00348164
0.00769933
0.0247113
0.013579
8.78294e-06
1.82789e-07
5.32521e-07
6.8987e-07
0.0317109
0.358935
0.0339216
0.0674261
0.0505529
0.0189374
1.8182e-08
4.02544e-07
0.0163685
0.0459215
0.0723908
0.0448502
0.0473954
0.0230246
2.22802e-08
0.0137834
0.000310084
8.75334e-10
0.00103221
0.0162794
1.53002e-05
0.00869562
0.00970769
0.00799864
0.00132302
0.0027716
0.00574322
4.14946e-05
1.21343e-06
0.00251112
3.74922e-07
0.00605526
0.115185
0.0289753
1.11371e-07
0.0272989
0.149345
0.00810873
0.316376
6.33046e-08
0.0453322
0.0188765
5.73612e-09
0.000810221
0.00255087
3.70298e-09
0.0313085
0.0111548
0.00519861
4.40191e-07
2.47454e-08
0.000731112
4.62268e-09
0.0119909
3.40408e-06
3.27526e-10
0.0169631
3.86735e-05
0.250537
0.0291764
1.78886e-09
7.73987e-05
0.00151324
9.59202e-05
0.000191387
0.0143756
0.121695
0.856577
5.32065e-05
0.200048
0.000662585
4.33625e-08
0.0381798
0.0316599
1.95696e-07
0.00137466
0.000300283
8.09801e-05
0.0241017
0.0246739
0.0140713
3.49105e-08
0.339195
0.0174024
0.0229439
0.00427224
8.83433e-05
0.00123606
3.58012e-08
0.244938
0.3517
2.61912e-08
0.0086527
0.000349544
0.000100203
3.5758e-09
2.90864e-05
4.87735e-09
0.278986
0.00976727
0.00650226
0.00228823
0.00285151
1.76229e-07
0.00207959
4.92885e-07
0.039771
1.5455e-07
5.88024e-07
0.0512046
0.0360508
3.79312e-08
1.0588e-09
0.000369928
8.26778e-08
1.50569e-06
0.00104351
2.51089e-08
6.01172e-05
6.42921e-08
0.0724646
6.65976e-08
1.62321e-06
1.56559e-08
0.00745667
4.0258e-07
0.217181
0.0018985
0.22937
8.56138e-09
0.000904252
2.45743e-06
2.92613e-09
0.35928
0.139885
0.027606
0.0242724
2.98717e-05
0.00201447
0.0801412
0.0084951
0.00108427
0.282534
2.21055e-08
0.023438
0.000105136
0.00489502
0.0563831
0.0746396
0.000111719
0.0211493
0.000239237
0.000747737
0.0782405
0.00203259
2.19457e-08
0.0799734
0.0479448
3.43068e-06
1.09471e-06
1.89995e-05
2.03478e-09
0.00166709
0.0550308
3.25931e-07
1.833e-07
0.00267799
2.19713e-09
0.0331596
2.97714e-08
0.00034521
3.41837e-10
0.112775
0.110959
0.00106267
0.0126658
0.0622991
0.079173
4.82653e-08
2.3511e-07
0.0152003
4.67491e-08
0.000189288
1.71878e-05
0.00161315
0.0416777
0.0642984
3.01463e-09
4.54372e-05
0.0165041
0.00338736
0.00169388
0.00395532
0.00669521
0.0209202
9.32934e-07
0.0244531
0.00628001
1.8372e-09
0.122545
0.0392126
0.0148561
1.27958e-06
0.00517106
0.00658004
0.00212894
0.00398725
0.000373677
0.0137243
0.00124539
0.000149461
0.0241577
0.124755
0.00087178
7.20483e-05
0.0034929
0.717249
3.10627e-08
0.000435661
4.37254e-06
3.94794e-05
0.0073188
0.00341428
0.00269307
0.000430955
0.000161526
0.0166492
0.0109801
6.24551e-08
0.000192207
0.00164913
2.92642e-08
9.93884e-10
4.75518e-08
3.64859e-08
0.0135761
3.36902e-09
0.0339595
0.00892292
0.00201716
0.0962007
0.318569
5.86816e-05
0.00854843
0.0363143
5.29913e-08
0.0536287
1.76396e-07
1.67454e-08
4.63894e-05
0.00437143
0.116542
0.0296083
0.00626836
2.62792e-06
0.0849308
0.141183
0.0280952
0.0273989
0.000587341
0.191062
0.039677
0.0542289
0.0454328
5.75204e-06
0.000312183
0.0403989
0.0076915
0.00148081
0.0273915
0.0258638
1.10503e-06
0.0106232
0.000645792
3.17807e-05
0.0342891
0.000262831
0.000639311
0.0109939
0.0400877
0.0013822
0.0210369
0.0191522
0.00725169
3.18971e-06
0.0102113
0.000349221
0.000189045
0.0166256
0.017319
0.0356294
4.95346e-07
0.00193483
4.36199e-06
4.17307e-09
0.0742681
2.01047e-08
0.132905
5.70917e-05
0.0114664
8.05294e-08
0.0281615
7.78303e-05
0.0425509
8.21916e-10
0.0326093
2.90426e-07
1.5047e-08
8.17496e-07
0.311678
0.000546896
2.87303e-05
0.0402446
1.00947e-07
2.27659e-09
0.212784
0.0694908
8.11881e-05
0.00193186
0.000125927
6.01365e-08
0.0367994
0.00824451
0.173995
1.49861e-09
5.74142e-09
0.000409131
0.00106058
0.00012906
3.75251e-07
0.0602807
0.00718308
2.82452e-08
1.21256e-07
0.0435417
0.0413025
0.00212589
5.61696e-10
3.94185
0.312408
0.185652
1.79237e-08
1.84387e-08
0.0559677
0.000427659
3.84051e-05
0.000571399
0.123187
0.0027863
0.0114977
0.0607258
0.0537496
0.00182952
6.18646e-08
1.17619e-06
1.2521e-08
8.27722e-09
7.261e-08
7.01015e-10
0.0216678
6.40614e-08
1.43341e-08
3.39573e-07
0.0115158
0.023909
1.04757e-07
5.67744e-07
0.105611
0.0140498
0.00968585
2.64728e-08
6.2805e-09
0.0364478
5.79741e-10
0.00183997
0.00260056
0.00388931
1.02918e-07
4.16251e-10
1.1489e-09
1.58483e-09
0.0150347
2.06144e-08
6.53072e-08
0.000998335
6.07739e-09
0.0227098
0.00189305
2.25247e-06
0.0367872
0.388487
0.00248676
0.272666
0.000258005
0.0445281
0.202808
8.00057e-05
0.0232007
0.0696084
0.00606739
1.98114e-05
0.0864001
0.723162
0.009942
3.88967e-08
0.00263136
0.00269441
0.00132578
8.87271e-05
1.3544e-09
1.71849e-10
0.0133306
3.76024e-05
0.00265097
3.79742e-06
0.00142505
0.00138379
0.0360081
0.000584602
1.80424e-08
0.0320539
7.89991e-06
0.0203736
2.6415e-08
4.83963e-05
0.000190779
1.70351e-06
3.24777e-07
0.0397817
9.1848e-10
0.00978029
0.0610998
1.22922e-08
0.0701978
4.17881e-05
0.0355195
0.000588104
8.71894e-08
2.64741e-05
0.00161486
0.0448212
0.00391047
0.0012776
0.156213
0.000198569
0.00411326
9.46339e-07
1.03798e-05
0.479815
0.156921
4.04137e-08
0.233029
0.000834529
0.000157724
0.00966094
0.000218611
0.00115533
0.0236811
0.00924046
0.00224178
0.00499087
0.00196945
0.0437268
7.77051e-08
0.0321351
0.0258886
9.34778e-08
0.00826164
0.264345
0.0281919
2.87674e-07
0.00193486
1.49684e-08
0.0101386
0.21886
2.0507e-08
0.173432
0.331153
0.001284
0.00482773
1.04496e-06
0.04816
7.4059e-05
0.00174804
0.00117397
0.000311132
4.11446e-06
0.0434643
0.00732013
7.12577e-10
0.000407667
0.000544835
0.000877807
0.000455178
0.000841648
0.000168329
1.31714e-09
6.66479e-05
0.0224144
3.94917e-07
0.00174145
0.339548
1.72243e-07
2.92931e-08
0.00315163
0.00321272
1.14363e-09
0.000594426
8.52133e-08
1.4508e-08
1.35569e-08
4.45646e-07
4.80953e-06
1.64782e-07
0.000366126
0.0496949
2.05552e-09
5.11433e-07
0.00437909
0.112205
0.00181829
0.00908671
0.031218
3.85033e-09
0.000298306
4.56848e-09
2.44974e-09
0.000556174
0.144203
0.0419819
4.86004e-09
7.17095e-08
0.0342266
1.66523e-08
0.0221796
4.41028e-08
0.00715797
4.71086e-09
0.00191591
0.0264776
2.95714e-09
7.35758e-07
5.54518e-07
0.0013897
6.084e-07
2.53645e-08
1.99972e-06
0.00432366
0.051855
0.0045002
0.000580638
0.001047
4.51573e-08
0.00134929
0.00213766
0.044255
2.92058e-06
0.000221595
0.005535
1.23867e-07
9.05539e-06
0.00014477
9.34263e-08
0.00802413
0.00167263
0.0033846
0.0706884
1.11473e-09
0.0235972
0.0583712
0.00011833
7.45519e-05
6.99109e-09
0.0260689
2.2314e-08
1.0819e-06
2.73678e-05
0.0509516
5.33651e-07
0.00244264
2.66855e-05
0.000952007
1.61277e-05
1.13858e-08
3.67824e-06
1.58407e-09
0.00254426
0.000679556
0.318083
2.92134e-08
5.86663e-07
0.00220797
4.18479e-10
4.65499e-05
4.47562e-07
0.037114
0.000811554
0.0312504
1.08559e-08
0.00137142
0.000160561
6.11956e-05
0.000270263
4.97402e-08
0.0014421
0.0253678
0.133308
0.00127481
0.000332881
6.13858e-08
6.16316e-10
1.8873e-08
0.18062
0.0716951
0.00722735
1.14642e-09
0.175183
2.73776e-08
0.209032
0.00322408
7.20044e-07
7.67836e-08
3.23944e-06
5.99978e-07
0.039888
2.05098e-06
0.000118484
0.314308
0.00655119
7.04022e-05
3.29717e-05
6.71163e-05
5.04771e-05
2.60628e-08
6.17844e-10
0.024784
0.000449815
8.52743e-09
1.87465e-07
0.00060358
4.40184e-07
0.00148795
0.41101
1.83888e-06
0.00341823
4.49328e-10
0.000370676
2.62903e-07
0.321793
3.2426e-09
0.115578
0.00540419
0.000788471
0.0176188
0.0331216
0.00091879
2.49871e-06
0.000509791
2.18576e-06
0.00454716
5.50158e-08
1.80557e-06
8.25862e-05
2.29446e-06
0.067754
2.66648e-07
0.00697576
0.00807709
2.26027e-09
0.000371546
8.58423e-08
0.000790339
0.000803699
6.61139e-08
0.0181649
0.000249236
5.40474e-07
0.0231731
0.184275
0.00359195
0.0118104
7.29456e-10
0.0447007
8.63369e-06
1.88147e-07
0.0368042
4.76542e-06
0.111457
7.66524e-09
0.147631
0.000729031
1.84358e-09
0.00103602
3.97351e-07
2.71702e-09
0.00296899
0.00096072
0.00936097
1.04667e-08
1.08271e-06
4.46595e-08
0.000845356
4.89656e-05
0.0335646
6.18519e-06
0.000875516
6.59174e-05
0.00111569
3.00347e-05
3.36868e-06
1.0305e-06
0.0182784
0.00966448
0.0180752
0.0355782
0.0430695
0.000261546
0.0460054
5.38084e-10
0.00981698
1.19605e-07
6.38415e-05
0.00043012
0.00661562
0.000398921
0.000554598
0.00210844
1.94463e-09
0.00699158
0.00807891
0.000206033
0.000866608
0.0148858
0.000962865
1.672e-06
0.0305782
1.35467e-07
5.50803e-09
0.00025816
0.0737374
0.000962228
6.29169e-07
0.0455188
0.000637232
7.0142e-07
1.25073e-07
0.000575845
2.79106e-06
0.0544946
0.311434
0.000340283
0.000393496
0.0224424
0.00722191
4.79566e-08
7.6693e-09
7.8303e-05
0.00412853
0.0335112
0.0539405
0.0099824
2.51612e-08
0.000311289
0.0400953
2.68843e-05
0.00112098
2.57274
0.042328
0.11866
0.0492394
0.0204578
1.7249e-09
0.00197469
6.42784e-07
1.43561e-07
1.8037e-07
9.25662e-09
0.00299802
2.6385e-09
2.60256e-09
8.87229e-05
5.08694e-08
6.00325e-09
9.24651e-07
0.00971355
0.0575282
0.0107905
0.00300993
0.0742667
0.25614
4.60075e-09
0.182772
0.000163881
0.381733
0.0133409
1.09548e-07
9.25473e-05
0.00785834
0.254215
1.71554e-09
0.00113653
0.0189318
0.00467174
1.59411e-05
0.0259891
1.07058e-06
2.26644e-07
0.0755993
1.11426e-08
0.00811412
1.12985e-07
7.53166e-07
0.00829026
0.000446267
0.00274885
1.11776e-06
0.000378497
0.000644772
4.085e-07
0.000211484
7.27654e-07
0.0229761
1.40384e-07
1.35607e-07
0.247332
0.0426936
0.000526166
3.16676e-07
5.15181e-09
0.00483996
0.189042
0.00475
0.0155506
0.218022
0.0200854
1.80505e-09
0.0347817
0.00295701
0.00675263
0.0366047
0.0111311
7.49227e-09
0.186874
1.7121e-09
0.0396648
0.00892812
0.0107949
1.53872e-08
0.0130801
1.26681e-06
0.00275297
0.00891823
4.93205e-06
3.29839e-10
4.25937e-09
0.00282693
0.0784242
2.22674e-09
0.00409795
0.0212114
9.47662e-05
0.00744869
0.047079
2.23855e-06
0.000133662
0.000813597
6.40188e-08
0.0100654
1.93634e-06
0.00253325
2.87532e-08
2.09769e-08
0.011993
5.037e-09
0.000209197
0.00353499
3.47662e-08
6.91354e-08
0.00437126
0.000533868
0.348665
1.16238e-07
0.258113
1.80804e-06
0.000357934
0.000165122
0.00727828
8.16122e-05
0.0772764
0.00545059
5.31575e-05
0.00104511
0.0653013
7.95013e-07
4.14733e-08
0.000405569
0.000770921
0.0405337
1.93836e-07
0.0353708
0.000932411
2.01654e-08
0.22463
1.03462e-08
1.6559e-07
2.34915e-06
0.00301372
0.302603
0.0559631
4.43181e-07
2.19211e-08
1.24553e-09
1.09735e-07
1.02662e-07
6.22259e-07
1.13127e-07
5.17709e-09
6.62183e-08
9.94964e-09
1.79074e-07
0.0613617
0.0363946
2.36015e-09
1.33711e-05
6.24059e-09
5.80286e-08
1.04924e-08
0.0356738
0.0805541
0.0176114
3.77391e-08
1.25933e-08
7.94566e-07
0.00647077
3.91157e-06
1.3213e-07
0.27087
2.66598e-07
3.07305e-06
0.0227344
0.000185224
5.08241e-06
0.00777229
0.0240692
3.05084e-08
0.0029617
0.00422153
1.58191e-08
0.0128621
0.0388608
0.0174063
0.00327219
0.0104839
3.67738e-06
1.12393e-07
0.323593
0.0107577
0.00311266
0.0614007
0.00658923
0.00171221
0.0207446
0.0102422
0.000681087
0.0150878
0.00107403
0.00986211
3.32174e-06
0.0250646
0.00824661
0.00168946
0.00133328
5.27202e-09
6.03298e-08
4.19074e-08
5.22882e-10
1.74089e-07
0.00937935
0.0132492
2.07359e-08
4.69347e-09
1.74651e-07
1.67753e-05
1.06852e-08
9.37687e-09
8.05226e-07
1.0838e-06
0.0045751
0.000253975
0.0211797
0.240061
1.23647e-07
1.12994e-05
0.0309037
9.82544e-06
4.18293e-09
1.76182e-08
0.224522
5.41689e-07
4.17749e-09
5.31586e-06
0.225967
0.0134041
0.0324019
0.0329329
1.07698e-06
0.0139975
0.000333936
0.000372451
1.83397e-08
0.0114506
4.85306e-06
1.84488e-07
0.0178033
1.02244
0.191186
6.62747e-06
1.35074e-06
0.0165646
0.0204441
0.0175383
0.0054332
0.00615938
1.26405e-08
0.000618288
0.000403609
0.05971
9.57234e-06
0.266795
2.72743e-08
0.00196194
0.0250251
0.01702
0.0112192
3.19249e-06
0.00580394
3.33339e-08
9.39193e-06
1.1191e-09
1.50579e-08
0.00248768
0.845405
9.46466e-08
5.69743e-09
0.000411615
0.0231207
0.00155556
0.00668129
0.0321968
0.00464846
0.0195444
1.95157e-05
4.31912e-06
0.000199813
0.0296554
0.00546137
0.00323586
1.19268e-06
7.61169e-09
0.000152471
0.0213221
0.0025671
4.21591e-09
0.144029
0.0547457
0.00646723
0.00593214
7.11899e-09
0.000189947
0.00663236
0.0224035
9.29614e-10
0.000386644
0.0141297
0.000995786
0.198713
0.00449725
0.00766373
0.000239004
0.0032964
0.0201083
0.0354629
8.01507e-05
0.0220696
0.000115858
0.193539
0.000156539
3.65417e-10
0.00246211
0.00715408
0.000393413
0.0111155
0.00045977
0.000985487
0.000472104
0.0371871
0.00347647
5.08923e-05
0.0375262
0.00121628
9.69328e-08
1.1441e-08
0.0990021
0.000506766
0.0010019
1.06155
0.0337338
0.0107049
0.000420118
0.0421154
2.22199e-06
3.14026e-06
0.00389449
4.06125e-05
0.00198532
0.00439109
0.00206252
0.00451756
5.91428e-09
0.000220728
0.104111
1.78024e-08
0.0208518
0.00714344
7.88378e-06
0.00374819
0.000162374
4.58868e-08
0.000571515
0.134201
4.91311e-08
5.60515e-09
2.04268e-08
0.144
0.243355
0.013595
0.0521199
0.00466687
0.0311397
7.83988e-06
0.00757006
0.0117244
0.0233679
0.00144282
0.112899
0.330138
0.388555
0.00985626
0.00849985
0.0360652
0.155044
0.352833
1.23837e-08
0.170022
0.0487763
1.02537e-08
0.000396488
5.56259e-07
3.13812e-08
3.53819e-08
2.22817e-07
2.30597e-08
0.135567
5.11745e-08
0.00665134
0.00135113
2.09116e-08
0.00383895
7.13127e-06
0.0135128
6.80416e-08
0.000589818
6.23561e-06
0.020634
0.000205323
6.08835e-06
0.00394492
0.0274868
0.0161177
0.00374594
0.0254687
0.0032672
0.0215539
0.0519894
0.00908934
8.18351e-07
0.00110489
0.000354047
0.00524956
0.0103217
0.000602357
1.14516e-06
5.63096e-05
1.0573e-07
0.00347377
0.0402798
0.000621021
0.319114
0.00218344
0.00034267
1.74622e-08
0.0601463
7.31493e-10
0.00812161
0.0199411
0.0012007
9.20327e-05
0.00179827
0.00647128
0.00177721
0.000828782
0.0066003
0.00570574
0.00248836
2.17102e-05
0.0753915
3.46781e-07
0.012792
0.0104026
7.44109e-07
2.3512e-09
0.000251849
0.00789993
0.017818
1.20231e-08
0.0020612
0.043385
0.000203116
0.00458722
0.0832252
1.7252e-09
1.39622e-10
0.0035833
3.28721e-09
0.000107361
0.0114398
2.11371e-05
0.0101963
0.031164
0.0177858
3.25678e-08
0.00133484
8.79251e-05
0.000126704
0.046069
2.89676e-08
9.63781e-07
0.0103302
0.000521181
9.58114e-07
0.156994
0.000966816
2.90884e-08
4.03959e-08
0.000224223
7.72761e-05
0.00228534
0.00309858
0.0235249
0.234546
1.63193e-10
0.000321201
0.000661083
0.0415621
1.68509e-06
0.0464121
0.081182
0.000115209
7.23538e-06
1.94758e-05
1.12693e-08
1.54818e-05
2.61883e-05
0.000362416
1.84059e-05
0.00033128
2.52217e-05
0.000617997
0.000333891
0.000537858
0.000125646
1.30638e-08
0.026143
0.00955529
6.35106e-06
0.0833207
0.000236734
0.000205522
1.34242e-05
0.00110858
0.000253685
0.00253125
0.000371145
0.00109117
1.88515e-05
2.04818e-08
0.00111355
0.000400875
0.0653337
2.07228e-06
0.0367319
4.77163e-05
0.0352014
8.25382e-05
8.12919e-07
0.000382512
0.026321
0.007744
2.39012e-08
0.000292365
1.08255e-05
0.00354252
0.00118861
0.329997
4.32735e-05
1.93426e-06
0.0191715
0.00148322
0.0047932
0.032284
0.06881
9.72596e-10
0.0165103
0.00375183
0.0486536
5.79724e-09
0.00111183
5.59888e-07
0.0417755
5.0016e-08
2.68168e-09
0.00304472
0.00194929
0.00277887
0.295185
0.038645
0.0258144
0.0337631
0.0163995
0.213294
0.0412548
0.00508309
0.00441956
0.00462915
0.000547287
0.00960203
0.0365597
0.00152384
0.00132872
0.030795
1.82796e-06
0.00307269
5.0814e-07
0.0168072
2.25529e-06
7.72905e-07
0.00155973
4.05794e-06
0.00601351
2.49639e-08
3.50391e-07
0.0769388
9.613e-09
7.11802e-08
0.000787353
5.92071e-08
0.00071568
3.45744e-05
0.0628683
0.0170532
0.256994
0.00730791
0.00723688
0.0390056
0.544716
1.93846e-10
0.0652021
0.0273491
0.0167908
0.0219078
0.00218646
0.0529018
6.719e-06
7.19225e-06
8.0984e-07
0.124898
1.05467e-06
9.75943e-08
0.016735
6.7152e-07
1.46429e-08
0.00502905
2.43034e-06
0.276061
7.76411e-05
3.3985e-05
4.43347e-05
5.65191e-05
0.001443
0.00626182
1.5595e-10
0.0217866
0.000387438
2.08494e-05
0.0943167
6.78711e-08
0.0148906
0.0170192
0.00339503
3.15506e-08
0.0168986
0.00932524
0.000815563
0.00491373
0.011355
3.05923e-08
2.12706e-08
0.00162143
2.15326e-08
1.03545e-09
3.04648e-09
0.0186367
0.344267
0.00420569
0.00208598
6.71344e-05
0.0462703
0.0430881
0.00397497
0.00243814
0.00862442
0.0195352
0.00252178
3.95727e-09
2.00193e-09
4.15123e-09
0.00657197
1.05267e-07
0.34114
0.000511217
0.000744128
0.00178281
0.00249451
0.0206256
4.81403e-09
0.0579159
0.00234703
0.000354524
1.51947e-06
3.77765e-07
1.54454e-07
0.463703
0.000294746
0.000552146
0.000817001
0.00942575
0.201016
3.15193e-07
3.13438e-07
5.05865e-07
0.00364433
0.0172792
0.0190221
0.0326354
0.00175888
0.00321368
3.44185e-06
5.26597e-10
0.000184739
3.74048e-07
0.160299
0.0207262
2.28223e-07
1.22928e-06
1.86796e-05
0.0592531
0.0290681
1.77387e-05
0.0127769
0.0884691
0.00099319
0.378749
0.0451753
2.57054e-05
0.0214024
0.167649
0.0182152
1.01937e-05
0.00468136
1.35755e-08
0.0134027
0.00165279
0.0229513
1.07868e-05
0.000366335
1.90853e-09
0.022595
8.92156e-09
2.75554e-05
0.373945
1.19558e-07
0.00555495
0.00116666
3.73973e-07
4.85232e-08
0.00193183
4.22868e-07
1.09943e-07
0.0127187
0.000121912
1.30331e-08
0.0227457
0.0430363
0.0159183
4.0051e-10
1.92416e-09
0.00052883
0.00248682
0.00292625
4.21494e-09
9.43285e-08
0.000128102
0.00362367
0.00179047
0.0121366
0.354599
6.13375e-10
0.136684
0.0115039
0.00610082
0.0536465
1.05385e-06
2.1737e-08
0.0222848
9.58191e-10
0.0292091
0.00514671
0.0053679
1.07408e-06
9.03418e-09
4.37402e-09
1.61742e-08
1.99754e-05
0.129186
0.20567
0.00217594
2.4296e-06
1.79822e-10
0.0544643
0.217509
0.0326783
0.107977
1.29847e-07
0.000942012
0.000235484
2.48623e-07
1.34169e-08
0.00361198
0.00635046
3.37511e-08
1.07918e-05
0.00273679
0.0585818
0.198268
0.00109582
2.02572
9.74481e-09
3.4804e-07
0.0112953
0.00066689
3.2475e-05
0.641496
0.000560448
0.00626213
1.05916e-08
8.50379e-08
1.23859e-05
0.0569071
0.00773463
0.172206
1.88528e-08
0.0233725
0.0179553
0.835999
1.05633e-08
1.65111e-09
1.11527e-07
3.70143e-08
0.00631927
0.000311473
8.64637e-09
0.0364401
0.0176393
0.154641
0.00476242
2.84337e-06
1.61263e-06
0.0273381
1.295e-05
3.41729e-08
1.77087e-08
1.37308e-08
0.0210429
8.93755e-06
0.0555479
0.0537746
0.0245704
0.0118098
6.67353e-09
1.94688e-09
2.5558e-08
0.0146032
0.000240921
1.91759e-07
3.59515e-08
3.30843e-09
0.0214293
0.00228587
0.0103638
0.03944
0.00196238
0.301347
0.00451448
4.30507e-07
5.44984e-10
2.5652e-07
0.0522208
5.71943e-10
0.0189955
1.13331e-08
0.0149084
4.36013e-05
0.00151278
0.000140042
0.00226318
6.08202e-09
1.35692e-08
0.356518
0.165263
3.39314e-05
0.00356308
4.15895e-07
0.000436523
9.39662e-05
2.94692e-06
3.20165e-06
0.000288392
8.04958e-08
0.000993652
0.0382431
0.0338316
1.97113e-07
8.0888e-05
8.87523e-07
0.0332915
0.175558
0.000147179
1.08487e-09
0.00897926
3.30238e-07
0.00281543
0.0179267
0.0013059
1.08452e-08
0.000860125
0.00049754
0.000130137
0.00432182
0.000117611
0.00157914
5.2131e-06
1.62944e-09
0.000153445
0.00532264
0.000283312
6.37961e-07
9.34592e-06
0.000118862
0.530791
8.7468e-09
3.59997e-08
3.51333e-08
6.1556e-10
1.25481e-07
0.0211156
0.000570007
0.00107719
0.000100456
0.000198295
0.00136648
3.28022e-10
0.00543679
5.207e-09
5.24955e-07
1.00453e-08
2.50143e-05
0.00198495
1.49845e-05
1.11048e-07
1.2478e-08
0.0140431
1.24127e-07
7.69585e-09
0.151222
8.97628e-06
0.0656918
0.113994
0.515901
7.29894e-09
0.191893
1.11946
1.18446
0.626718
1.93235e-09
6.88328e-10
0.00465202
0.00444952
6.61226e-05
0.00823345
0.0405266
0.0305145
3.15174e-05
4.32672e-06
0.00118925
3.22326e-08
1.61992e-09
0.000117265
0.000396445
0.0254918
1.0262e-08
0.113835
0.000122216
3.20756e-07
0.000107951
0.00767524
0.00146713
2.1887e-06
0.00724431
5.04154e-09
0.00327756
0.00211398
0.00674519
5.42842e-08
0.00171345
0.00525148
1.02374e-05
0.00314114
8.02399e-08
0.0306837
5.48068e-05
0.00932304
8.77878e-07
0.186672
5.46398e-08
8.30169e-07
2.63604e-08
0.11412
0.117028
2.02861e-06
0.0114379
0.00841258
0.0537941
3.41766e-08
0.0307064
0.0165759
0.172493
1.25259e-06
0.189065
0.0236051
0.0436513
0.00345852
1.55899e-07
0.0540002
1.62001e-06
0.212502
1.51515e-09
0.00236818
0.00388463
1.17971e-07
5.39929e-05
1.24878e-06
0.0188314
9.51889e-09
0.0388696
2.75633e-07
9.79972e-06
1.08721e-06
5.22971e-07
0.000253786
0.00179055
0.127033
4.99663e-06
0.000238087
0.0385086
1.29916e-06
0.0420115
7.51746e-07
3.3362e-06
2.47239e-06
0.00534365
2.07678e-10
3.64209e-09
1.41233e-09
0.00295917
5.43123e-08
0.0645717
2.14345e-05
0.00294556
3.8356e-09
0.00548235
0.328486
0.00487246
0.00508493
0.0240705
1.2048e-05
1.99621e-07
7.91442e-08
0.00289123
0.0016575
2.67975e-06
0.000526325
0.000543867
4.75056e-08
2.37317e-08
0.30999
6.81768e-08
0.0204312
3.82946e-08
0.00215708
0.00316697
1.88735e-07
1.49461e-09
0.0446499
6.21487e-09
2.26824e-09
0.0175745
0.0551482
0.00418901
2.17508e-06
1.87356e-08
0.00623875
5.1397e-06
0.0119584
5.83106e-06
8.15728e-09
0.00214994
6.76804e-05
0.129275
4.2512e-09
5.75178e-09
4.66015e-09
0.00311351
0.16421
9.25024e-07
1.53836e-08
7.23634e-06
0.0013676
2.1265e-08
0.0182997
0.0282772
4.02058e-08
8.55708e-09
0.00641527
2.48646e-07
1.97264e-05
9.39717e-10
2.46224e-05
6.77455e-09
0.0622838
0.000337614
1.32722e-07
5.67331e-09
0.0669753
3.2812e-08
0.0551008
2.48076e-07
4.12392e-08
9.42824e-06
0.00688516
0.0448131
0.00762683
0.0487674
0.0592659
0.540633
0.00244576
0.0394398
1.05576e-05
1.73177e-08
0.00217673
0.134975
0.0361642
0.0412236
9.9951e-09
0.00656821
1.56937e-08
0.00439623
9.64474e-07
0.00906697
0.000166031
0.0530015
5.14067e-07
1.43512e-08
0.019271
0.000285171
2.31741e-08
0.0250501
0.000305457
1.93497e-06
8.8868e-10
0.0342378
0.0095185
0.00579024
0.000745938
0.00161371
0.0160432
0.000905106
0.0047956
8.51706e-06
0.0256274
0.00012173
0.000444252
3.61909e-09
6.25381e-07
2.79403e-08
0.00922196
8.65804e-08
2.26975e-06
8.60343e-11
0.000386783
0.378254
0.0852653
0.002363
3.76785e-09
0.00379049
0.0527717
0.099292
0.00290523
0.00026282
0.0408012
5.34956e-07
1.16245e-07
2.2438e-09
0.0026337
0.00124636
4.3095e-08
4.9125e-09
0.00221665
1.62311e-07
0.782124
0.0526861
0.0914544
6.15361e-09
1.13762e-08
0.0411124
4.61115e-09
0.00895653
1.16259e-08
0.000631286
1.75911e-08
0.00897948
5.09528e-08
6.29373e-09
0.00104727
0.148766
0.0631532
1.46649e-08
0.0674152
4.31561e-08
0.00396115
0.179612
0.11315
2.38074e-07
0.000506178
4.03318e-09
1.88265e-06
0.000268782
0.0157912
0.00029871
9.1795e-09
0.000596627
0.00319147
0.00475266
0.00768228
3.60264e-07
3.21773e-07
3.27877e-06
6.02018e-07
8.80402e-09
3.1801e-09
0.0718803
0.0363056
1.61185e-08
0.080595
6.02946e-10
1.91996e-08
0.0692516
5.61134e-09
4.48093e-09
0.038177
2.17286e-08
5.76368e-10
1.02287
2.15285e-09
7.83877e-10
0.00182205
0.0892081
1.19797e-07
0.0362807
9.50305e-09
0.0210265
0.0480462
6.13511e-06
0.000831437
4.53424e-10
6.99638e-08
1.02146e-06
1.76839e-07
0.311275
0.0435341
0.000268288
3.02892e-08
0.0452301
7.27944e-10
1.76351e-08
3.26949e-09
0.098693
0.00173706
0.000116232
1.37897e-09
1.25992e-06
0.0470465
0.000878354
3.74502e-07
0.000246859
0.104547
0.0822653
3.39268e-05
0.0817196
0.000902311
0.041709
4.07886e-05
0.0632442
0.00033346
0.0294158
1.4181e-06
0.00636071
0.000444387
0.000898083
7.75583e-10
0.00137871
7.60398e-08
0.00393176
0.0234075
9.9209e-07
0.00239443
0.000298081
1.72258e-07
0.00981238
8.27303e-08
2.43062e-08
2.94145e-08
4.40039e-08
4.86215e-06
4.16035e-08
5.01821e-08
7.10883e-08
0.259682
4.18891e-05
1.59511e-10
1.65885e-09
5.87317e-08
1.02614e-07
0.0300328
0.776211
0.00202282
0.000137036
9.07584e-09
0.00192299
0.00132026
0.0452998
3.10947e-05
1.26847e-05
5.46644e-07
1.03721e-06
2.36587e-06
0.000216231
0.000113769
0.173431
0.0656486
8.01131e-08
0.000990257
0.000289422
4.87473e-09
0.0248605
4.48409e-06
3.71287e-08
1.67269e-06
0.161261
0.0607453
2.28938e-10
0.0239321
1.35768e-08
0.0465457
4.99657e-05
0.0346965
0.0513418
4.90195e-09
9.67123e-09
2.64377e-08
2.42776e-05
0.00574167
0.226781
0.0282037
0.0426292
0.004226
0.000505543
7.50785e-10
0.000113074
0.131167
0.00133641
9.23667e-05
0.00286948
3.98486e-06
0.0957355
5.25703e-08
0.207313
0.0374815
1.02097e-08
0.000469717
0.00699125
4.01526e-08
0.0102267
1.49917e-08
1.84495e-07
0.198118
0.0289176
5.29107e-08
6.10584e-09
6.51588e-07
3.49901e-09
4.51326e-09
0.000121885
2.34196e-08
5.9917e-10
0.00315286
7.08263e-09
9.62844e-08
2.59328e-07
0.000221318
2.12717e-07
0.000162849
1.07364e-07
4.59122e-08
2.18783e-05
6.3892e-05
0.00336728
0.0412248
7.81647e-05
0.00482266
2.2443e-06
0.308766
0.304478
1.24461e-07
0.00327377
1.50216e-08
0.0438041
0.0371617
0.000390677
0.0862859
0.0669362
6.97968e-06
1.40916e-09
0.00232353
1.7244e-08
1.64162e-09
4.00722e-07
1.52394e-05
6.27922e-09
1.67677e-05
0.0368897
4.98371e-09
2.56285e-08
0.337703
1.25235e-09
0.0164864
7.93076e-06
0.00124905
8.98155e-09
0.000428269
0.000141486
0.231337
0.00822196
0.0228779
0.000177135
0.0396
0.000260428
0.0719675
0.000140977
0.000223272
0.00981079
0.0559572
0.000313661
0.00125946
4.11886e-06
1.62607e-07
0.00104615
0.00023176
0.0170616
0.0117989
0.000146368
1.79774e-06
0.00547767
0.00495067
0.0179438
1.26217e-09
0.012046
0.0165568
0.00263188
0.00141363
0.00114201
0.00332706
0.0189529
0.0395472
0.00725541
0.0110251
0.00787098
8.73045e-05
0.00283651
0.00358667
0.00101158
0.00278659
0.0143208
0.0134106
0.0197131
0.000117779
0.0104103
0.000406426
0.00489953
0.00272635
0.000376792
0.00245042
0.000195981
0.0723295
0.00394778
0.00118566
0.00013493
0.000708935
0.0162229
0.00232061
0.195638
0.00337461
1.2793e-09
0.2239
0.0430905
0.0226531
0.0068979
0.0200729
0.000392168
0.00870818
0.448227
0.00202794
0.00145611
0.00235982
0.169724
0.00124286
0.0726333
7.15034e-05
7.22907e-08
1.22366e-08
0.00211133
0.00587924
0.0117851
0.0693196
0.00725252
0.0606418
0.0550696
0.0601462
2.75479e-08
0.00778873
0.00276367
0.027815
1.03276e-06
0.00620753
9.08159e-08
0.217948
0.0113315
0.00715079
0.213881
8.48046e-09
8.61197e-08
0.00205548
0.000105516
0.000714678
1.49513e-07
0.00652557
0.000913677
0.0805595
8.98894e-07
0.0217314
0.00308155
0.000337414
0.000134171
0.00231836
0.0014238
2.3943e-07
0.00172898
5.22885e-05
9.97723e-09