/*--------------------------------*- C++ -*----------------------------------*\
  =========                 |
  \\      /  F ield         | OpenFOAM: The Open Source CFD Toolbox
   \\    /   O peration     | Website:  https://openfoam.org
    \\  /    A nd           | Version:  10
     \\/     M anipulation  |
\*---------------------------------------------------------------------------*/
FoamFile
{
    format      ascii;
    class       volScalarField;
    location    "11.5";
    object      T;
}
// * * * * * * * * * * * * * * * * * * * * * * * * * * * * * * * * * * * * * //

dimensions      [0 0 0 1 0 0 0];

internalField   nonuniform List<scalar> 
111485
(
303.15
285.12
301.004
303.15
298.461
283.15
298.97
293.433
296.377
286.256
300.551
296.248
300.241
284.58
300.015
286.761
299.353
298.039
294.104
303.15
303.15
283.15
297.295
288.715
301.598
303.15
293.232
300.651
288.883
303.15
300.806
294.358
303.15
283.15
283.456
283.15
302.326
297.666
283.149
296.647
283.15
289.622
297.067
302.882
303.19
303.15
287.409
288.573
289.657
303.15
303.15
283.15
303.15
298.966
303.15
293.564
287.917
283.15
283.324
295.492
295.894
303.15
302.074
300.286
283.15
284.582
300.366
291.572
302.124
302.533
303.161
301.908
303.15
302.124
303.15
295.407
283.15
293.505
283.15
283.15
283.239
293.378
283.15
303.15
300.343
284.24
283.15
301.574
303.121
299.15
283.358
289.641
300.889
300.408
289.845
303.15
303.15
301.574
303.149
283.423
303.15
286.678
283.15
285.189
285.744
283.15
283.15
293.097
301.458
283.146
298.931
288.066
301.306
301.699
303.15
301.989
303.15
283.15
300.17
303.15
303.15
283.15
283.15
283.15
283.396
303.152
283.15
301.827
303.15
283.177
303.101
301.962
303.15
283.15
283.15
292.554
283.15
294.255
298.84
301.13
303.136
296.858
299.017
284.798
302.293
297.857
283.15
303.15
283.15
297.182
284.965
303.15
303.144
287.356
283.156
293.762
295.679
302.532
283.154
303.15
303.15
292.233
286.269
283.153
283.157
301.213
283.695
283.15
283.152
283.152
283.15
303.15
283.21
283.15
291.56
287.209
283.15
303.15
303.15
283.15
303.15
303.15
297.689
293.55
295.832
289.8
301.388
300.453
283.191
303.15
301.469
303.15
303.15
300.192
286.284
301.423
301.348
295.794
303.15
300.893
284.615
283.161
300.784
297.094
303.15
300.446
288.272
303.15
283.229
300.205
284.838
300.72
303.15
303.15
300.734
283.15
292.842
283.15
300.64
298.72
290.401
303.15
301.757
300.569
283.15
283.15
283.15
289.549
283.157
283.15
303.15
298.672
291.437
289.916
283.15
303.15
303.111
303.15
284.347
300.125
299.291
299.547
299.419
283.15
283.144
298.912
283.15
283.15
288.781
288.386
283.15
301.193
298.93
303.15
283.15
301.087
303.15
303.15
303.122
303.15
288.289
285.876
290.829
303.15
298.386
303.15
303.15
303.15
283.148
298.106
301.002
299.458
291.232
299.512
296.281
283.213
290.384
291.635
283.15
303.15
283.149
292.472
298.783
286.487
303.15
298.044
297.303
298.926
302.963
283.166
297.142
299.395
302.039
283.15
283.62
283.15
283.149
303.15
283.902
290.293
286.296
303.15
283.15
297.637
285.282
303.15
303.15
303.15
284.596
290.3
301.08
284.429
293.043
283.15
283.15
303.15
298.399
303.15
283.821
289.566
283.153
283.15
303.15
303.15
283.15
294.379
289.982
283.15
295.757
283.15
303.15
301.078
297.34
294.026
295.864
283.15
283.15
283.15
296.653
291.058
302.397
283.15
283.15
283.15
290.101
296.991
283.215
290.495
283.15
292.812
299.591
284.202
298.702
285.26
283.15
303.15
283.15
303.15
290.694
296.708
287.992
291.99
283.15
286.36
283.15
303.15
293.843
303.15
301.797
303.15
283.15
292.003
283.15
288.817
284.648
283.15
283.995
298.066
283.15
300.183
284.709
298.881
303.025
291.099
286.021
283.15
303.15
303.145
283.15
301.008
300.863
283.15
283.15
294.749
284.37
298.244
296.917
283.15
295.169
296.133
283.15
302.078
283.9
303.15
303.15
288.28
298.625
283.15
303.15
303.15
303.15
300.762
283.15
303.15
293.999
283.171
286.9
299.988
283.15
283.15
302.632
283.15
302.471
301.444
297.895
288.971
283.15
293.949
303.38
303.15
298.675
292.325
303.15
283.15
283.309
283.15
290.08
286.109
291.695
283.15
292.919
296.618
293.112
303.147
283.15
303.15
303.15
283.169
292.779
283.15
284.339
303.132
283.15
303.15
303.15
303.15
301.868
290.557
286.022
284.211
284.316
283.15
285.727
303.15
300.749
283.15
303.15
303.15
300.677
303.15
303.15
283.151
303.15
283.15
300.685
283.15
283.15
283.15
303.15
283.15
303.15
283.15
283.678
283.15
303.13
301.886
283.755
283.15
303.087
283.15
303.15
284.71
284.683
286.141
297.576
283.15
297.525
297.635
292.339
286.837
285.266
303.15
291.802
283.15
299.885
283.15
296.834
283.15
292.125
298.585
303.151
283.15
286.818
303.15
295.561
299.114
283.15
283.15
283.15
283.15
303.15
293.718
283.15
283.15
283.241
283.15
299.838
283.15
284.811
303.15
283.435
303.12
284.667
291.953
283.15
301.473
283.15
283.15
285.712
283.15
283.26
283.15
299.7
303.15
290.731
303.15
283.15
302.413
284.469
300.106
285.657
300.105
289.487
283.15
300.644
284.548
283.15
283.14
300.355
301.604
283.15
282.436
301.076
303.062
283.117
303.15
287.584
302.186
284.404
285.397
288.216
282.54
283.15
303.15
300.725
303.15
283.561
283.15
283.15
291.832
282.671
303.15
303.118
283.15
286.287
299.622
283.15
283.15
299.637
303.15
283.15
283.15
283.15
286.165
283.15
303.15
284.83
284.244
303.15
299.738
283.15
289.262
303.15
283.15
286.167
283.15
283.15
283.15
285.398
283.15
285.463
292.027
303.15
300.41
283.449
298.737
300.974
283.325
283.462
283.15
289.015
298.483
303.15
302.272
296.048
296.914
284.732
297.478
297.228
303.15
300.259
303.135
283.15
297.18
284.861
283.15
292.439
295.76
284.876
298.801
300.654
292.398
283.15
298.941
283.469
303.15
300.615
301.987
294.161
283.15
286.511
303.15
283.15
283.15
283.15
283.306
283.15
303.15
303.15
283.15
300.448
299.281
303.15
285.636
303.15
303.15
303.15
290.047
283.428
283.15
303.15
283.15
283.15
286.861
292.447
283.15
295.181
283.136
283.15
295.354
302.227
287.796
283.15
283.15
300.282
292.15
283.15
283.15
283.15
294.029
303.15
303.15
283.15
296.281
302.378
283.15
282.431
301.831
286.559
283.15
283.15
287.479
302.971
283.15
283.16
287.385
283.773
288.84
283.15
285.732
300.306
283.15
303.15
283.15
283.15
283.15
283.15
295.709
303.15
283.15
283.15
295.324
291.868
303.15
303.15
289.883
298.45
298.349
303.15
283.15
298.019
303.15
283.842
298.879
298.392
303.15
303.15
303.15
283.15
286.067
283.15
283.15
302.718
303.15
297.85
302.275
283.15
294.115
283.259
296.482
292.006
283.427
289.828
283.15
283.15
296.925
288.116
290.855
283.15
283.15
297.907
295.013
283.15
283.919
284.612
283.478
303.15
303.15
303.15
290.757
283.15
300.086
283.15
284.377
297.614
298.546
292.328
283.15
283.15
303.15
295.436
283.15
283.15
303.104
283.15
283.15
303.15
283.15
299.35
283.15
283.15
283.15
283.15
283.15
303.15
283.15
283.172
298.786
303.15
302.544
283.13
283.398
283.094
285.551
283.15
284.451
290.566
283.398
303.15
283.149
299.768
283.15
300.28
283.151
283.143
286.231
297.537
283.217
291.898
298.035
283.15
283.15
299.097
299.825
283.15
297.388
291.294
297.602
283.15
283.246
283.15
297.908
297.035
283.15
300.114
297.683
283.149
299.816
283.15
295.672
283.144
303.123
283.162
283.16
283.15
283.15
284.453
283.15
302.971
283.594
283.061
303.148
303.149
303.147
283.15
283.15
293.867
303.15
303.176
283.868
283.15
283.15
303.154
303.15
283.15
303.165
283.15
283.15
303.15
303.15
303.15
303.15
283.37
283.15
283.15
283.15
303.158
283.306
283.895
293.523
283.15
283.15
283.336
283.15
283.15
283.15
287.252
293.647
283.15
283.15
283.15
283.15
283.15
283.15
284.007
283.15
303.15
291.613
283.15
303.15
303.15
303.153
303.15
303.15
283.15
303.17
283.15
283.701
283.144
303.152
283.15
303.063
284.419
292.128
303.15
303.128
284.453
303.15
283.15
303.15
283.15
294.094
293.517
284.655
303.148
283.15
293.277
283.15
283.15
303.15
283.15
294.889
283.15
303.15
283.163
298.176
303.15
284.391
283.15
283.585
283.15
283.15
283.15
303.15
285.859
283.478
284.286
283.15
283.15
285.655
283.15
283.15
303.15
284.355
303.164
298.593
303.15
303.128
303.128
283.15
303.13
283.15
283.451
289.19
301.06
283.809
283.166
283.15
283.15
283.15
303.182
283.15
302.908
303.15
292.894
303.15
288.732
283.836
303.15
283.15
303.15
283.15
301.807
303.15
303.15
286.433
300.584
283.15
283.15
283.15
283.15
283.15
283.15
300.835
283.583
303.15
303.15
303.157
303.15
300.226
284.435
283.15
302.123
303.15
301.644
283.15
302.581
283.15
283.148
303.152
283.318
302.131
300.257
283.147
283.15
289.383
303.15
293.433
303.15
283.15
303.15
283.15
283.15
283.15
300.829
302.066
303.15
303.15
303.15
302.913
283.15
303.15
292.94
283.084
303.15
297.54
298.357
296.541
283.382
283.15
283.15
283.15
283.15
294.668
283.15
294.905
283.15
303.062
289.861
283.15
302.868
283.15
283.15
302.746
283.148
302.92
283.15
303.15
283.15
302.403
283.15
303.15
283.15
283.148
283.15
283.172
283.15
283.15
303.15
293.021
301.111
296.156
297.061
303.15
303.117
283.15
283.15
285.703
283.15
283.158
302.853
298.813
302.945
303.15
283.365
283.15
303.15
283.15
302.994
283.326
298.355
283.15
303.15
288.115
303.15
283.15
283.124
295.125
283.147
283.15
283.15
283.149
303.15
283.15
303.142
303.15
303.15
289.95
302.989
302.998
289.024
293.313
283.15
283.15
303.089
289.096
283.15
303.15
284.751
283.15
303.15
283.15
283.15
283.15
297.586
283.15
302.942
283.15
300.518
283.15
283.15
283.15
283.15
283.15
283.15
285.036
283.15
283.15
283.15
283.15
283.15
283.15
292.038
283.15
298.424
302.941
283.15
302.353
283.15
302.528
303.145
292.331
288.81
303.15
292.195
284.785
303.112
303.15
303.139
295.108
288.699
283.15
287.919
283.15
283.15
283.15
283.15
287.554
283.15
283.15
291.676
303.136
285.332
283.15
283.15
302.54
283.15
283.185
303.15
299.918
283.15
283.15
302.831
283.15
303.178
303.15
283.15
289.098
298.054
292.742
285.675
292.634
294.163
283.15
283.15
302.297
290.619
292.815
284.433
283.15
294.429
283.15
303.15
300.755
298.805
283.15
297.455
283.15
292.799
297.264
303.15
283.15
283.15
301.791
283.15
283.15
300.529
296.17
283.198
291.251
283.15
283.15
302.8
300.548
283.15
300.671
283.15
300.528
283.15
283.15
300.829
283.15
283.228
301.62
283.15
283.15
302.446
283.15
287.931
303.15
290.451
303.15
303.15
303.15
300.97
283.15
283.15
299.573
283.15
302.99
283.15
283.15
303.15
283.151
288.22
283.15
283.15
288.081
288.262
283.15
283.683
283.15
303.15
302.433
283.722
301.591
283.15
283.15
283.15
283.15
283.15
283.15
283.15
283.15
283.15
283.15
283.15
303.15
283.15
283.15
283.15
283.15
283.15
283.15
283.15
283.15
303.15
286.963
283.15
283.15
283.15
294.757
283.15
303.15
302.966
283.15
283.15
294.765
283.15
283.15
301.884
295.24
283.15
303.636
303.591
283.15
301.508
294.013
297.591
301.497
298.192
303.15
283.15
296.446
291.787
301.441
283.15
302.157
302.43
300.899
288.06
287.33
301.086
301.791
301.803
303.15
285.905
297.592
285.528
297.297
283.15
283.15
283.15
303.15
283.15
292.018
297.967
283.15
283.15
283.15
283.15
283.15
303.15
283.15
303.15
292.167
303.12
299.063
302.849
283.15
283.15
285.407
283.168
283.15
283.15
301.748
303.15
283.15
298.204
299.553
297.573
298.691
300.832
303.15
291.067
302.59
303.15
303.15
300.349
303.15
283.15
282.962
295.607
302.95
283.15
303.15
289.638
286.202
297.191
292.217
302.445
303.15
303.137
303.15
303.15
283.15
299.02
283.15
291.818
290.504
299.726
284.776
303.15
301.942
303.15
283.15
303.15
303.15
291.533
299.714
283.15
303.15
303.133
291.797
303.034
299.395
292.872
288.345
292.962
283.15
303.15
283.15
291.305
298.354
303.151
303.15
303.15
303.15
297.535
302.578
283.15
300.014
301.178
284.877
299.562
303.15
303.15
298.734
293.01
283.15
302.904
299.752
302.621
291.999
297.364
298.296
303.15
287.002
298.222
291.401
283.15
289.112
303.15
288.409
301.084
303.15
288.735
301.301
300.141
293.22
283.149
283.159
283.242
301.723
300.945
303.15
288.836
301.498
303.15
283.15
303.15
303.21
298.799
290.893
296.813
303.254
283.149
297.571
303.15
303.15
292.848
303.15
300.334
283.306
301.34
291.558
303.15
283.663
293.274
303.15
283.048
298.736
303.15
300.732
286.281
303.15
303.15
284.005
303.15
283.15
283.15
285.926
299.37
291.242
303.15
285.215
297.529
283.15
298.905
298.939
288.993
303.113
283.15
301.538
299.674
298.905
300.125
288.677
290.832
302.501
303.15
301.575
288.741
303.15
298.915
283.15
283.15
303.15
283.15
303.15
297.482
283.15
300.567
283.651
303.15
283.81
283.15
289.872
303.15
303.145
303.15
294.196
303.004
303.12
299.899
290.434
289.466
290.61
298.461
303.15
299.432
292.209
298.989
303.15
283.886
283.456
299.295
287.208
283.518
303.15
283.15
303.15
285.324
303.15
303.319
284.706
303.352
302.962
303.15
303.15
283.15
300.577
300.692
285.505
303.089
287.014
295.728
301.895
292.551
288.194
302.096
296.158
283.15
283.15
303.15
285.843
289.731
283.15
283.15
303.15
302.002
288.749
303.15
296.447
303.15
283.156
285.186
301.177
303.15
303.15
292.325
303.15
283.303
290.638
283.15
297.204
294.682
296.144
303.15
302.723
283.15
302.679
293.481
303.15
303.15
288.815
283.15
303.15
301.821
284.464
303.15
303.15
283.15
302.355
303.458
289.498
299.731
298.138
303.15
303.159
302.606
303.15
283.15
303.15
303.15
303.15
303.15
303.15
303.15
303.15
283.15
303.15
303.15
283.344
303.15
303.332
303.15
303.16
303.15
303.15
300.948
303.684
303.15
292.071
303.15
303.15
283.15
302.568
303.15
302.161
303.116
283.294
283.15
303.15
302.584
283.149
303.15
303.15
291.397
283.15
292.623
283.15
283.15
283.153
291.25
284.852
303.15
296.699
283.15
303.718
303.134
284.33
302.603
283.15
292.198
303.084
301.688
283.15
303.15
283.15
304.066
284.838
296.928
303.15
303.15
303.15
303.15
303.15
303.15
302.37
302.819
297.654
292.142
303.15
287.191
292.674
285
303.208
283.15
286.938
302.765
284.786
283.148
287.491
303.15
283.389
302.927
292.565
302.856
301.904
303.15
302.262
303.15
303.15
297.995
303.15
284.495
303.15
303.15
283.15
303.15
303.15
302.855
303.15
283.301
283.15
283.15
285.853
284.867
300.947
286.158
303.15
294.863
303.15
290.491
303.15
287.189
300.709
301.502
293.389
303.15
303.15
303.15
289.832
283.15
303.15
289.584
283.15
283.15
301.837
303.15
286.192
283.148
283.15
303.15
303.15
300.68
298.236
303.15
293.499
303.038
283.15
298.639
303.15
286.423
288.253
302.155
303.15
296.338
296.802
302.958
301.901
301.675
303.15
303.15
303.147
303.15
283.15
303.15
289.587
300.231
294.372
302.142
283.15
300.4
291.428
298.28
283.601
298.367
289.661
302.177
283.15
283.15
283.15
302.222
283.15
290.473
283.15
301.281
303.161
289.742
298.087
283.15
303.15
301.269
301.246
303.15
283.15
303.15
286.434
301.465
302.981
302.354
298.046
288.453
303.15
303.15
303.15
294.312
286.012
289.865
295.935
283.972
302.962
303.15
303.15
283.15
283.15
285.439
299.637
303.15
303.15
283.15
303.15
303.15
303.15
300.289
303.15
285.387
292.575
283.15
283.251
293.431
285.703
303.15
303.15
301.907
303.15
299.266
283.146
297.603
303.15
303.15
283.15
303.15
303.15
303.15
305.296
303.15
301.858
301.148
303.15
303.15
301.636
303.15
283.15
287.278
303.107
303.15
303.15
303.15
297.995
303.15
303.15
302.485
302.501
301.798
303.15
283.15
303.15
302.061
302.525
301.545
302.547
283.15
300.705
287.539
297.482
283.15
303.15
303.15
303.15
303.15
294.417
287.59
299.704
303.15
303.15
303.15
303.15
283.15
303.148
284.801
285.168
283.15
303.15
303.15
283.148
299.611
294.99
283.15
303.15
303.15
303.15
303.15
289.635
289.732
303.15
303.15
302.419
303.15
301.481
283.964
291.939
303.15
283.15
301.203
303.124
303.15
303.171
301.346
286.895
303.15
303.15
303.15
303.15
293.328
284.166
303.15
302.706
298.119
289.584
303.15
303.15
303.15
303.15
299.593
303.151
303.15
303.15
298.326
302.61
288.401
303.15
303.15
297.813
303.15
303.15
303.15
303.15
288.849
303.15
283.15
283.15
296.003
291.155
303.15
303.15
303.15
297.055
303.146
303.15
303.15
303.15
303.15
303.416
300.898
303.15
287.381
302.655
299.435
303.15
303.15
303.15
303.15
283.15
285.699
303.15
302.839
283.15
302.193
303.15
303.136
303.15
283.15
301.972
285.802
283.15
302.84
303.15
302.428
283.15
303.15
303.15
303.151
303.15
283.276
303.15
290.879
283.15
283.15
303.15
303.15
298.9
302.382
283.15
302.447
283.15
284.122
288.027
302.706
283.15
303.155
302.988
303.134
284.415
283.156
302.987
283.15
283.15
283.156
302.096
302.306
303.15
283.15
283.15
295.572
303.15
283.15
303.15
303.15
303.15
303.107
303.049
302.93
302.456
303.15
302.916
303.15
284.807
303.15
303.15
283.15
303.15
303.111
303.15
283.15
303.15
288.336
303.15
303.15
303.18
283.15
302.935
302.16
296.863
303.15
289.56
294.805
283.881
290.176
283.15
283.15
287.223
284.327
283.15
303.789
283.15
286.418
303.15
283.15
303.156
303.15
303.15
303.019
303.155
303.15
283.15
303.139
303.15
283.15
283.104
298.775
302.708
303.15
301.856
303.15
285.711
303.152
301.198
303.15
303.15
301.062
303.15
303.15
303.15
287.714
303.15
285.159
303.15
303.147
303.15
283.15
283.15
303.15
303.15
303.15
288.744
302.555
303.15
303.15
288.65
286.541
291.329
303.15
302.705
287.689
287.559
303.15
303.15
287.775
283.15
291.975
303.15
303.152
303.149
303.15
300.56
283.15
302.338
283.15
303.15
303.15
303.15
303.15
303.15
284.332
302.257
291.125
303.15
303.15
290.652
303.15
303.15
303.15
303.15
303.15
300.197
303.15
303.15
283.15
299.51
303.15
283.15
303.15
301.394
283.15
300.002
290.748
302.692
300.064
299.491
303.15
303.15
303.15
300.885
288.53
283.15
303.15
300.354
303.15
303.15
292.064
303.15
287.518
303.15
297.893
284.344
303.15
283.15
303.15
303.15
303.15
285.294
303.15
300.52
303.15
303.15
299.744
283.15
284.736
303.15
303.15
288.172
301.57
296.496
303.15
303.15
303.15
301.587
292.277
303.15
283.15
303.15
300.707
303.15
284.759
296.379
303.15
303.15
301.164
303.15
303.15
283.15
303.15
283.15
294.654
303.15
283.15
303.15
303.15
303.15
303.15
303.15
303.15
283.15
301.537
283.15
302.09
303.15
303.15
296.172
300.507
303.15
283.15
303.15
300.908
283.15
303.15
303.15
303.15
300.749
303.15
297.738
303.15
285.864
283.15
286.742
303.15
303.15
298.546
283.15
303.15
287.891
283.249
303.15
303.15
285.119
283.85
300.874
301.749
301.209
293.208
301.754
283.855
303.15
297.777
283.15
283.15
303.15
303.15
303.15
301.239
303.15
303.15
303.15
303.132
283.169
283.15
283.571
303.15
302.024
283.15
303.142
296.15
283.15
294.619
303.15
303.15
283.15
299.921
283.934
303.15
283.15
299.95
303.15
297.774
303.15
295.314
303.15
283.15
303.15
283.15
299.45
283.15
283.228
283.15
286.208
303.15
303.15
283.15
283.15
303.15
303.15
303.15
303.15
284.879
284.777
283.15
303.15
283.235
283.15
283.15
303.154
289.931
283.548
283.15
301.521
284.91
300.489
288.224
303.15
303.15
303.15
303.15
283.15
283.15
283.15
303.15
283.15
283.15
303.15
283.15
297.269
283.15
303.15
283.15
303.15
303.15
283.392
283.15
303.15
301.957
303.149
303.15
303.15
303.15
288.745
283.15
303.15
303.149
283.15
303.15
303.15
303.15
295.36
283.15
283.183
303.15
303.15
303.15
303.15
303.15
303.149
303.147
284.121
303.15
283.15
303.15
303.149
303.15
303.148
303.149
283.15
283.15
283.15
303.15
303.15
283.15
303.149
283.15
287.726
283.15
301.824
283.15
303.154
303.15
284.61
283.15
284.454
297.439
303.15
284.692
303.172
303.15
297.45
283.15
303.15
303.15
303.15
303.15
283.15
303.15
303.15
299.202
283.15
303.15
303.15
303.15
303.15
292.361
290.59
303.17
283.165
303.15
301.832
302.334
303.15
283.15
283.15
303.15
303.15
303.15
283.15
283.15
283.817
303.15
303.15
303.196
303.151
283.15
288.915
303.15
283.15
303.15
288.072
303.15
283.15
302.122
283.15
283.15
283.15
303.15
299.688
303.15
303.15
303.15
283.15
284.504
293.607
295.263
289.601
303.12
303.019
283.15
283.15
301.098
283.69
283.15
303.149
303.15
303.15
283.15
294.574
303.15
283.15
302.98
303.15
303.15
283.792
303.15
303.15
288.422
289.598
303.15
283.15
303.15
283.15
303.15
303.15
303.15
303.15
283.948
303.15
303.15
303.15
302.929
303.15
303.15
283.15
283.15
283.15
283.15
302.942
283.15
283.15
300.98
303.15
284.767
284.927
303.15
301.142
303.15
283.15
303.15
283.15
283.15
303.15
303.15
303.15
302.672
303.15
303.15
303.15
283.15
303.15
283.15
286.392
303.15
303.15
291.629
303.15
283.15
283.15
302.428
303.15
303.147
283.15
303.194
286.692
283.15
283.15
299.232
283.15
283.15
303.056
303.161
293.365
303.167
303.151
303.152
283.15
283.15
302.648
283.456
285.861
300.886
283.158
283.15
291.071
301.589
301.495
283.15
300.255
290.717
300.168
302.222
302.753
284.684
295.542
299.252
286.268
293.391
300.144
303.15
298.017
297.635
302.788
283.677
292.409
301.179
287.345
303.15
301.054
303.15
300.735
301.51
283.647
285.014
303.15
283.15
302.303
301.697
283.145
303.173
288.57
302.687
301.883
300.844
303.15
303.229
301.167
295.111
300.459
289.024
302.916
301.677
302.212
302.287
284.233
302.509
301.611
283.181
303.15
302.898
303.15
303.15
302.101
302.011
294.37
303.15
284.701
292.309
292.368
300.965
303.15
284.026
285.213
284.408
303.15
298.84
303.15
296.448
295.412
300.763
303.142
303.15
303.15
301.953
301.274
302.787
303.15
292.65
302.753
290.025
283.15
298.405
294.035
303.15
300.543
283.15
283.205
283.15
302.58
303.101
303.15
302.988
298.428
283.148
300.54
302.236
295.368
283.535
295.888
297.106
283.465
303.134
284.763
296.379
283.322
296.927
300.518
300.275
300.39
301.999
289.888
301.592
303.15
302.732
302.663
302.676
296.574
302.9
283.15
302.029
293.476
303.15
283.433
286.854
301.226
302.597
290.55
284.839
287.73
302.622
296.41
303.15
303.15
295.025
283.15
292.676
283.429
303.15
290.585
290.273
283.921
303.15
297.318
298.558
284.252
301.262
294.224
290.195
300.553
303.114
303.15
303.15
283.544
302.621
283.347
285.835
303.15
303.025
303.038
303.15
285.429
300.872
297.913
283.249
299.583
302.371
300.527
286.957
283.15
303.106
301.821
283.744
283.141
303.15
303.076
303.15
303.15
284.2
302.544
296.451
283.041
283.153
303.15
283.15
302.957
303.046
302.513
301.432
303.15
283.15
283.15
301.839
301.894
283.218
295.95
303.15
303.15
301.637
285.533
283.262
301.699
301.8
301.74
284.403
303.15
283.15
298.536
297.791
303.15
302.705
302.089
284.769
285.012
302.121
303.062
303.15
298.192
284.435
283.15
303.15
300.607
301.248
302.027
289.672
302.083
285.698
300.2
300.328
290.368
297.605
303.15
303.15
300.965
284.486
302.1
283.151
300.522
301.718
283.638
288.312
302.426
283.15
283.15
283.029
303.15
303.15
299.98
298.966
302.29
283.147
283.15
283.956
283.151
283.15
283.151
303.082
300.947
299.201
295.947
283.368
303.097
300.17
303.15
283.15
302.57
289.269
300.825
292.736
283.515
303.061
283.148
283.15
302.838
301.239
302.616
283.156
291.324
284.905
303.15
284.258
301.055
283.15
283.31
284.97
284.242
283.15
283.15
301.657
283.15
289.444
302.536
302.707
301.802
283.48
298.445
290.239
283.15
303.333
292.103
283.15
283.15
283.15
303.15
301.232
302.423
299.206
301.483
299.952
288.9
283.155
291.018
290.184
303.063
291.148
300.038
292.109
283.15
286.319
301.101
301.584
283.15
284.006
299.69
283.15
303.15
283.188
301.295
303.15
284.02
302.279
303.021
303.15
283.15
292.839
303.153
301.71
283.15
283.15
283.15
302.197
297.651
303.142
302.203
303.166
303.15
288.425
303.166
290.471
300.258
300.217
296.628
283.157
301.717
283.15
290.627
301.439
289.518
290.519
299.016
300.743
301.618
287.198
291.172
285.049
283.173
302.224
286.136
283.15
283.144
300.231
283.078
300.332
287.046
296.117
299.48
289.276
299.326
283.12
299.197
283.15
289.993
289.27
298.688
283.331
283.15
300.583
283.15
302.801
283.15
303.15
286.486
286.49
283.15
299.041
298.622
287.078
303.15
303.15
301.735
289.815
303.006
283.74
301.597
287.163
303.147
284.196
288.239
303.15
301.443
283.15
283.15
287.592
287.054
283.145
285.286
301.519
286.28
301.253
303.15
285.16
301.764
291.244
303.15
303.15
301.633
302.057
303.15
293.044
294.325
283.666
296.464
286.82
290.077
303.15
302.825
297.08
285.046
283.15
287.752
291.902
299.668
283.164
283.764
282.936
301.963
303.122
283.151
303.134
303.15
300.608
293.112
298.882
293.921
283.15
291.975
296.049
285.608
283.213
291.845
283.15
300.323
303.164
292.614
284.118
303.144
291.897
298.656
288.306
300.386
291.363
287.386
283.15
303.142
285.346
289.97
293.531
283.15
283.15
283.15
303.141
283.15
283.136
286.453
303.15
283.15
303.166
283.173
291.147
289.087
303.492
302.914
289.929
303.15
297.044
303.175
302.024
287.321
283.15
292.977
303.145
303.094
286.211
283.15
283.15
283.473
286.073
303.054
303.144
287.528
289.511
283.489
283.163
289.884
293.255
303.15
283.15
303.098
303.15
302.344
285.027
302.35
303.094
284.076
283.787
284.066
302.866
302.183
297.44
294.074
303.071
291.333
291.062
303.15
303.098
302.596
285.471
283.383
303.15
285.974
283.392
302.936
301.713
302.186
283.15
300.368
301.87
303.15
302.162
285.408
303.15
297.942
303.15
283.15
300.724
302.686
286.352
302.5
283.15
285.204
303.008
283.15
302.312
285.37
294.923
284.344
303.15
303.023
302.888
286.516
283.15
287.161
284.273
289.829
285.756
302.264
303.15
283.15
283.15
293.166
283.15
301.071
302.175
290.383
283.15
294.064
283.15
303.15
283.15
300.114
298.623
283.151
285.302
301.752
303.081
303.156
291.931
294.27
301.222
283.209
301.825
283.145
303.15
303.142
299.165
283.15
301.08
294.849
303.15
300.965
287.325
301.975
284.915
288.209
283.15
302.233
287.755
298.455
303.083
283.15
303.15
291.697
302.174
283.076
283.147
286.805
298.396
303.149
284.52
301.048
301.02
301.27
303.153
299.929
287.671
284.933
301.606
299.921
283.729
283.102
303.159
303.149
303.15
297.409
283.163
283.15
303.15
303.149
289.945
298.94
300.302
287.804
302.802
303.15
286.439
301.613
303.15
300.974
283.807
301.474
303.15
284.569
301.404
295.558
302.773
303.15
303.15
285.196
295.145
296.433
287.426
303.15
303.15
283.15
287.235
302.402
296.222
303.15
285.59
303.15
303.15
300.479
288.745
283.15
295.604
295.933
299.105
283.15
303.15
292.702
287.233
303.15
297.999
300.547
300.45
303.15
303.15
303.15
300.26
298.377
302.797
299.927
283.15
292.906
287.703
290.657
300.585
303.15
303.15
300.792
303.097
286.597
296.136
303.15
303.147
283.15
286.457
298.963
285.594
303.15
303.15
283.346
303.124
303.15
303.15
283.15
290.537
303.15
303.15
284.59
299.326
283.15
303.15
284.621
301.344
300.189
287.018
294.987
303.15
283.506
303.15
303.15
283.305
300.553
290.418
300.416
303.15
303.131
302.178
292.725
299.796
301.354
284.451
283.458
300.886
298.43
303.15
302.758
284.146
299.771
301.393
287.736
303.15
297.442
301.422
301.507
301.547
292.91
303.15
283.15
299.192
283.15
283.15
287.751
283.15
284.016
283.15
283.15
283.15
283.15
302.754
288.14
302.703
283.15
295.706
290.951
284.754
283.15
303.15
302.678
301.741
303.173
302.636
283.15
294.878
300.285
290.176
283.15
283.15
299.813
285.931
283.15
283.15
303.149
290.606
283.15
287.16
303.149
303.152
284.315
283.15
288.238
292.558
300.809
294.625
302.956
285.658
302.507
295.263
286.282
283.15
283.547
291.644
303.079
289.141
302.653
283.15
292.389
287.749
301.033
301.302
284.916
303.106
284.925
297.112
302.991
303.146
285.133
303.145
303.005
293.315
302.691
283.15
303.15
303.15
294.781
291.076
283.155
301.095
284.672
284.152
284.631
303.145
288.351
300.479
283.15
283.15
302.501
303.15
294.571
302.897
303.182
299.814
303.22
302.884
283.15
301.31
302.88
283.15
303.15
301.321
303.15
284.325
298.767
283.164
291.492
283.15
287.577
303.014
299.784
283.15
303.025
290.907
301.221
303.127
303.079
283.15
283.15
301.953
302.005
283.807
302.818
302.416
302.383
303.141
283.15
293.746
283.15
302.795
287.876
302.986
303.15
283.15
302.823
285.156
291.489
302.053
283.15
302.58
301.998
301.575
302.482
303.05
303.208
303.009
303.15
283.15
301.517
297.875
303.088
303.15
289.917
284.98
303.15
283.15
285.33
303.184
303.165
302.916
301.132
284.263
303.097
290.733
294.231
303.148
289.07
303.164
283.15
289.861
283.15
299.967
298.153
284.802
288.206
299.606
296.69
295.3
299.17
293.772
303.153
293.895
296.42
283.159
299.375
293.866
303.15
298.944
299.138
303.15
291.212
303.17
301.666
303.15
286.917
286.001
302.797
289.665
283.15
283.15
300.34
301.177
283.726
283.15
303.15
300.229
302.32
300.631
299.884
302.785
292.581
289.635
286.649
292.495
284.295
290.375
283.308
295.733
290.427
293.906
287.116
284.292
303.163
283.276
303.147
285.57
300.709
283.151
300.428
298.413
288.733
302.111
285.416
299.071
283.15
302.951
283.155
283.115
287.717
299.65
303.15
300.36
303.02
299.924
302.758
303.15
301.257
284.945
294.949
302.042
303.149
283.702
283.15
290.325
285.244
285.741
303.133
303.149
283.15
283.15
283.176
303.15
293.425
303.15
303.15
294.393
303.445
303.15
300.432
303.15
303.15
293.628
290.605
303.15
289.826
302.06
289.551
303.15
303.15
285.969
283.338
290.327
303.223
303.15
303.146
285.458
283.251
283.15
288.996
287.601
303.15
284.31
303.15
303.15
303.132
287.317
303.15
303.147
283.276
303.152
302.657
287.905
283.152
283.592
297.393
290.709
303.15
285.927
284.44
301.33
287.122
302.2
290.573
293.865
303.15
303.15
284.007
303.149
302.948
295.908
302.948
302.739
287.181
283.15
285.337
283.219
297.146
302.599
285.367
303.15
283.804
286.701
303.126
283.176
303.15
286.417
283.15
300.142
303.15
299.716
299.888
283.301
283.359
302.329
290.867
301.383
303.15
301.389
301.742
303.15
303.15
298.335
293.447
283.15
288.811
303.15
295.251
283.36
303.15
296.904
298.73
288.982
303.15
302.753
294.25
295.374
284.457
303.161
298.707
296.135
283.99
303.125
302.799
287.39
298.447
289.812
290.805
289.73
283.15
302.95
303.152
303.15
303.173
293.117
296.32
302.979
301.286
303.15
284.448
303.15
303.042
302.855
303.15
293.568
296.248
303.15
285.38
303.096
303.15
303.09
303.157
286.036
293.334
291.117
288.392
293.404
303.15
301.222
291.468
295.36
293.41
303.141
303.15
300.549
303.189
284.236
303.189
303.15
303.15
303.143
303.15
284.946
303.15
284.229
303.146
303.15
290.244
303.144
292.456
295.522
303.134
295.339
285.98
283.445
303.125
302.942
284.7
283.15
297.112
303.15
285.514
302.909
302.043
303.023
298.474
287.062
303.15
298.685
289.895
299.33
283.15
283.627
303.15
303.145
303.19
294.069
303.15
292.434
289.341
303.195
303.15
284.803
298.781
293.226
299.602
302.471
301.608
300.393
303.15
284.717
296.999
302.374
285.625
298.373
292.28
284.474
291.663
303.15
286.675
291.809
290.113
299.443
303.15
286.429
284.094
303.15
302.432
288.126
302.109
283.15
303.15
299.836
301.694
289.01
301.986
301.944
301.816
303.15
289.346
285.124
301.961
302.236
297.149
303.15
283.201
303.15
301.986
303.15
302.804
303.15
291.657
303.15
296.575
283.15
289.527
303.15
283.15
292.19
301.452
300.423
289.189
300.505
303.15
302.491
303.15
302.373
285.217
303.15
300.409
290.404
303.15
300.811
303.15
303.15
293.191
283.15
285.503
293.248
300.925
303.15
291.177
293.872
288.19
289.646
288.097
299.232
300.285
300.797
287.391