/*--------------------------------*- C++ -*----------------------------------*\
  =========                 |
  \\      /  F ield         | OpenFOAM: The Open Source CFD Toolbox
   \\    /   O peration     | Website:  https://openfoam.org
    \\  /    A nd           | Version:  10
     \\/     M anipulation  |
\*---------------------------------------------------------------------------*/
FoamFile
{
    format      ascii;
    class       volVectorField;
    location    "11.5";
    object      U;
}
// * * * * * * * * * * * * * * * * * * * * * * * * * * * * * * * * * * * * * //

dimensions      [0 1 -1 0 0 0 0];

internalField   nonuniform List<vector> 
111485
(
(1.44212 -1.44185 0.000558653)
(4.2089 -0.0106339 -0.0252612)
(4.14345 0.0109228 0.0126311)
(1.44156 -1.44183 9.84219e-05)
(4.30315 0.0203718 0.000613145)
(1.5074 1.50606 -0.000140911)
(4.22717 0.0126642 0.00120739)
(4.35354 -0.0123367 0.00567835)
(4.224 -0.00239324 0.00325585)
(4.33556 -0.0464439 -0.0189962)
(4.16667 0.00967031 0.0125919)
(4.35822 -0.0112685 0.0197344)
(4.10459 0.00368948 0.00941119)
(4.16024 -0.00946168 -0.0303272)
(4.20456 0.0168826 0.00902302)
(4.30312 -0.0287774 -0.0222157)
(4.24541 -0.00431223 0.00659002)
(1.4933 -0.111898 0.220591)
(4.30864 0.0130132 -0.00923209)
(1.43838 -1.43683 0.000200394)
(1.44002 -1.43967 -0.00146378)
(1.50865 1.50851 -2.0447e-05)
(4.26369 0.0161828 -0.00355679)
(4.34207 -0.0277306 -0.00939389)
(4.26533 0.014368 -0.00336718)
(1.45178 -1.4465 -0.00201188)
(4.375 -0.0195005 0.0207827)
(4.15207 -0.00747543 0.00119656)
(4.32411 0.00647561 -0.0111043)
(1.44001 -1.43988 -0.000140442)
(4.37153 0.0689047 -0.0178829)
(4.31748 -0.00912494 0.00131332)
(1.43508 -1.43767 0.00203604)
(1.50817 1.51142 -0.00339072)
(1.51461 0.631431 0.240703)
(1.51761 1.528 -0.0221594)
(4.3491 0.0688867 -0.0276027)
(4.21146 0.00951612 0.038433)
(4.31737 1.31141 0.0727765)
(4.31679 0.020858 0.00147663)
(1.49096 1.50465 -0.0106819)
(4.35518 0.00735218 -0.0266112)
(4.31668 0.0216018 0.00745774)
(4.15076 -0.0249993 0.00134475)
(4.34559 -0.0753525 -0.0399274)
(1.4427 -1.43099 0.00518488)
(4.3521 -0.0188205 0.0179094)
(4.33551 -0.0264048 -0.00847726)
(4.35738 0.00100467 -0.0219905)
(1.43194 -1.41344 0.00783357)
(1.42907 -1.41567 0.00833978)
(1.71421 1.44168 0.026208)
(1.42389 -1.41914 0.00479566)
(4.34884 0.0198255 -0.0346948)
(1.42067 -1.4155 0.000875319)
(4.29673 0.0109325 -0.00499694)
(4.30276 -0.0184261 -0.00968828)
(1.50985 1.50703 0.000962715)
(3.9311 -0.00824641 -0.0684749)
(4.3222 0.0181265 -0.00246745)
(4.3205 0.0199603 -0.000650972)
(1.43728 -1.44033 0.00211407)
(4.02813 0.00399196 0.0262324)
(4.37258 -0.0113069 0.033028)
(1.56147 1.41554 0.0036588)
(3.95011 0.00879012 -0.00817417)
(3.03672 -0.242469 0.106189)
(4.33266 -0.0149429 0.00603833)
(3.91935 0.00134076 0.0150617)
(3.71317 -0.00615116 0.002288)
(4.17877 0.0349267 -0.0136558)
(3.87928 -0.0105796 0.0209163)
(1.55974 -1.40655 -0.0310831)
(3.9831 0.00635129 0.0307424)
(1.44144 -1.44072 -0.00018082)
(4.31719 -0.00992266 0.0086462)
(1.50855 1.50883 -0.000240562)
(4.34786 -0.00936866 0.0224872)
(1.50815 1.50729 0.000104645)
(1.36612 1.33493 -0.0443108)
(4.20042 -0.0623733 0.0417284)
(4.34683 0.0157912 0.00166356)
(1.50615 1.50399 0.000292472)
(1.44147 -1.44121 0.000836596)
(4.07981 -0.000615517 0.00895869)
(3.91749 0.0107553 -0.0171458)
(3.35926 2.1805 -0.585144)
(4.29617 0.052114 0.00480573)
(4.14042 0.105464 0.0899768)
(4.19886 0.00576904 0.0139325)
(4.42884 0.0868852 -0.0553179)
(4.30031 -0.00751362 0.00690251)
(4.03097 -0.00697999 0.0138396)
(4.11552 -0.00406331 0.00523171)
(4.35795 0.0134743 -0.0238608)
(1.4416 -1.44107 -0.00023922)
(1.44101 -1.44068 0.000844236)
(4.29343 0.0483044 0.0156395)
(4.42447 -0.872211 0.0614791)
(4.02184 0.0139582 0.0255112)
(1.44177 -1.44146 0.0004787)
(4.31161 -0.0227652 0.00201518)
(1.51632 1.51905 0.00836385)
(4.27901 0.000959622 -0.00257441)
(4.25351 -0.0227478 -0.0275379)
(1.47998 1.32486 -0.0309516)
(1.50867 1.50841 -0.000201558)
(4.32424 -0.0123721 -0.00102602)
(3.98676 -0.0220545 0.00467909)
(3.82278 -0.112835 -0.118219)
(4.07757 -0.00323334 0.0086203)
(4.29032 0.00633743 -0.00269339)
(3.99974 -0.00236276 0.0154045)
(3.93587 -0.0193062 0.00887559)
(1.45473 -1.44737 0.000537755)
(3.80493 -0.00458468 0.0112194)
(1.44685 -1.44204 -0.00210892)
(1.51652 1.51021 0.00615187)
(4.22095 0.0171956 0.0134299)
(1.44135 -1.44043 0.0005278)
(1.45273 -1.44685 -0.00142207)
(1.98571 1.56278 0.0944435)
(1.49873 1.50505 -0.00216319)
(1.51308 1.50937 -0.00348562)
(4.12432 -0.00914611 0.0183987)
(1.15373 -0.817036 -0.213221)
(1.89403 1.62972 0.0571399)
(3.84148 -0.00126068 0.0177714)
(1.44134 -1.44068 -0.000492454)
(4.33254 0.32397 -0.117441)
(4.33213 0.0800394 -0.0427903)
(4.2856 0.049274 0.0163469)
(1.43756 -1.43396 -0.00683785)
(1.94468 1.69343 0.170952)
(1.81694 1.62155 0.0763522)
(4.32368 0.0136985 -0.00710332)
(1.50931 1.50943 -0.00039989)
(4.29879 0.0105394 0.000709706)
(4.27034 0.0143413 0.00622093)
(4.20623 0.0179859 0.0153384)
(3.30556 0.000429911 0.0141592)
(4.31248 0.0226713 0.00454173)
(4.27616 0.0277271 0.0159257)
(4.06629 0.00324317 -0.0171168)
(4.24758 -0.00822163 0.00363435)
(4.20133 -0.000920369 0.00769585)
(1.50939 1.50978 -0.000385195)
(1.44128 -1.44142 0.000148513)
(1.5063 1.50709 0.00280066)
(4.30044 0.0171523 0.00232991)
(4.06835 0.00632568 -0.0158331)
(1.44003 -1.43906 0.000531057)
(2.82084 -0.0161462 0.0279112)
(4.19625 0.0194048 0.0094585)
(4.59744 0.180798 0.0818253)
(4.32289 0.0123635 -0.00853848)
(4.30047 0.0132418 -0.00307623)
(3.99966 0.000789678 -0.00585715)
(4.63678 0.223583 0.0559747)
(1.43393 -1.4473 0.00578175)
(1.43951 -1.4409 0.00124667)
(4.31225 0.0119985 -0.00922769)
(4.22774 -0.0144582 -0.0148052)
(4.66636 0.2525 0.0606872)
(4.60101 0.221191 0.0835764)
(4.02452 0.0073777 0.0207824)
(4.30678 0.0519156 -0.0193314)
(1.4912 1.50362 0.00034953)
(4.72317 0.313022 0.075118)
(4.50083 0.221805 0.0680671)
(1.50815 1.5089 0.000455735)
(1.43984 -1.43954 -0.000170244)
(3.47101 0.00426172 -0.0258846)
(1.50894 1.50975 7.65704e-05)
(4.28041 -0.00874738 -0.00196356)
(4.12001 0.00254039 -0.00947961)
(1.50914 1.47416 -0.00716184)
(1.55558 -1.42784 0.0135679)
(1.44474 -1.43724 -0.00229475)
(1.48571 1.40319 -0.0139692)
(1.56585 -1.44235 0.0245084)
(1.43958 -1.44059 0.00101046)
(4.29402 0.0168122 0.00466272)
(4.29107 0.0106968 -0.00797709)
(4.27614 0.0140956 -0.00353418)
(4.24115 -0.0123981 0.0163014)
(4.07683 -0.00932362 0.00319685)
(4.09463 0.00837719 0.0134639)
(3.63579 0.0456835 0.00463001)
(1.44069 -1.43552 -6.32418e-05)
(3.97915 0.000806658 0.00403724)
(1.55203 -1.44153 0.014186)
(1.45337 -1.45575 -0.000855842)
(4.13334 0.00926826 0.014074)
(4.33735 -0.0522764 -0.0184797)
(4.29112 0.00913612 -0.0194204)
(4.12685 -0.00367388 0.00625045)
(4.18666 -0.00160344 0.00485692)
(1.43877 -1.43614 0.00322606)
(4.11498 -0.0174743 0.00683047)
(4.10858 -0.00526642 -0.0248673)
(2.87199 0.912853 0.117742)
(4.20672 -0.0326351 0.00296125)
(4.2659 -0.00681689 0.00377493)
(1.44653 -1.43865 -0.00230761)
(4.11638 0.0116691 0.0143708)
(4.30639 0.00896149 -0.00375682)
(1.57789 -1.4262 0.00519711)
(4.1382 0.0102711 0.0146549)
(4.33946 -0.00403906 0.0240594)
(4.06628 0.00340941 -0.0181144)
(4.10599 0.0103635 0.0183994)
(1.56353 -1.44657 0.0194568)
(1.44035 -1.44071 -0.000273167)
(4.10684 0.0102713 0.0183829)
(2.68533 1.68431 -0.166303)
(4.38914 0.0190132 -0.0415585)
(1.50852 1.50922 -0.000961001)
(4.13058 0.0076272 0.0156727)
(4.12141 0.0063277 0.00467013)
(4.36405 -0.0140346 0.0267207)
(1.44287 -1.44212 0.000647361)
(3.85809 -0.000327491 0.0104173)
(4.32238 0.0610308 0.0302757)
(2.37315 1.59407 -0.174031)
(1.5092 1.50914 -0.00111274)
(1.50819 1.50891 0.000431169)
(4.41827 -0.0264388 0.0405241)
(4.12358 0.0962166 -0.0109783)
(1.58848 1.34141 -0.0305512)
(1.7891 -1.38661 0.0545)
(4.13588 0.00310582 0.00546234)
(4.25988 0.00987405 0.000869701)
(4.32687 0.0109669 0.00239194)
(1.56689 1.36559 -0.0397707)
(1.52343 -1.40858 -0.00525885)
(4.15987 0.0481018 -0.0557876)
(1.44135 -1.44091 0.000808859)
(3.94253 0.00522919 -0.024265)
(4.0878 0.00440137 0.013063)
(4.13343 0.00150239 0.00730663)
(4.14101 0.0102275 0.00861644)
(4.15642 0.00827 0.0115288)
(1.5046 1.50468 0.00485811)
(3.14288 -0.0098426 -0.120219)
(4.21765 0.0103899 0.0158138)
(1.50178 1.50483 -0.00213471)
(1.50814 1.50865 -0.000416101)
(4.38893 -0.0510876 -0.00489246)
(4.28948 0.0182657 -0.00712193)
(1.5465 1.31994 -0.0407418)
(3.91058 -0.00227548 0.0110559)
(4.20058 0.0116497 0.012302)
(1.44182 -1.44104 -0.000467195)
(1.91036 1.79957 -0.0119593)
(4.32293 0.0381498 -0.0168951)
(1.44514 -1.42693 0.000608271)
(1.59785 -1.13471 -0.02718)
(2.20615 -0.774257 -0.077814)
(1.44232 -1.43843 -0.000276809)
(4.21807 -0.00695969 -0.00746039)
(4.10554 -0.00810904 -0.00909161)
(4.27773 0.00684689 -0.0122169)
(1.44076 -1.44093 -0.000126474)
(4.23873 0.0127564 0.0106845)
(1.44168 -1.44192 4.92429e-05)
(1.44159 -1.44228 0.000285626)
(1.43918 -1.43381 0.00248718)
(2.90921 0.0104839 -0.0448643)
(4.34221 -0.0201689 0.0239636)
(4.14894 0.0150508 0.0207849)
(4.21544 0.0133677 0.0105806)
(4.37399 -0.0258633 -0.00118286)
(4.19214 0.00957511 0.00965485)
(4.3065 0.0158576 0.00562907)
(4.33062 0.0707558 -0.00733741)
(4.22895 0.00897488 -0.000561253)
(4.27041 0.0093926 0.000824233)
(1.53323 1.50808 -0.00104432)
(1.43954 -1.43943 -0.00160393)
(2.65864 0.0156427 -0.0641246)
(4.29295 -0.00947884 0.00158241)
(4.34516 0.0334208 0.0371001)
(4.08983 -0.00535863 -0.00705528)
(1.44136 -1.44057 0.000514792)
(4.28629 0.0136114 0.00837348)
(4.30973 0.0213661 0.0103134)
(4.20477 0.00792561 0.00698506)
(3.71121 -0.00377156 -0.0184225)
(3.88426 -0.0439121 -0.0959591)
(4.26871 0.0144435 0.00228832)
(4.19638 0.0107999 0.00941763)
(4.28586 0.0318812 -0.0197216)
(1.50962 1.50984 0.000395806)
(3.929 0.0200246 -0.000592033)
(1.50813 1.50872 -0.000575268)
(1.23073 0.939934 -0.194312)
(1.62217 -1.04132 -0.103944)
(4.4469 -0.039936 0.0556518)
(4.37485 -0.0256218 -0.000973231)
(4.27161 -0.00169249 3.98938e-05)
(1.44358 -1.44003 -0.000616707)
(1.50394 1.51243 0.0121631)
(4.27893 0.0147017 0.00812684)
(4.09905 0.00688465 -0.00651475)
(1.44075 -1.43981 6.31959e-05)
(1.44201 -1.4412 0.00138781)
(1.41163 -1.41905 0.0108258)
(4.07474 0.00560998 -0.00322921)
(4.25223 0.00465405 -0.00502876)
(4.06312 0.000627918 0.0145083)
(3.9308 0.00701821 -0.0212919)
(4.33625 0.0101649 -0.00999887)
(1.7288 1.48673 0.0392406)
(1.50585 1.50941 0.00295263)
(1.44159 -1.4394 -0.000799063)
(4.26517 0.0154006 0.01132)
(2.76666 -2.34106 -0.166276)
(4.06611 -0.00447212 0.00404152)
(4.41669 -0.0305652 0.0939772)
(3.5626 0.00209216 -0.0725344)
(1.50871 1.509 -0.000144188)
(1.44005 -1.44137 0.000739002)
(1.44153 -1.44235 -0.000794941)
(1.90251 1.59704 0.0971856)
(4.31137 0.0140211 -0.000408435)
(4.35204 -0.0244946 0.00151961)
(1.51253 1.51627 0.000543122)
(4.27506 0.0112202 -0.00125971)
(1.59442 1.29264 0.0908206)
(1.4488 -1.43231 -0.00213189)
(4.38464 -0.0151913 0.0353892)
(4.26883 0.0150049 0.00683551)
(4.37055 -0.00600102 0.0109725)
(4.27827 0.0116686 -0.0011544)
(1.45536 1.29273 0.0781611)
(1.88367 1.62098 0.103492)
(1.50616 1.50811 -0.00235675)
(4.27188 0.0145804 0.00587675)
(4.26712 0.0126663 -0.000118318)
(4.35502 0.0746939 -0.0246763)
(1.49602 1.49286 0.00349529)
(2.98366 2.64381 -0.631113)
(4.07881 0.039588 0.0354012)
(4.34939 -0.0200876 0.0103381)
(4.28942 0.0162225 0.0102828)
(4.06949 0.415523 -0.0355457)
(4.33405 0.0104048 -0.00985547)
(1.5061 1.50577 0.000259726)
(4.33778 0.0120617 -0.00825956)
(4.16449 0.00527745 0.00824849)
(4.39219 -0.100483 0.000734017)
(4.39704 -0.0261354 0.0521151)
(4.26069 -0.0325379 -0.0287161)
(1.50412 1.51053 -0.00587461)
(1.43988 -1.4416 -0.00269159)
(1.51213 1.50391 0.00558517)
(1.43238 -1.43645 -0.000536228)
(4.34562 -0.020587 0.000177106)
(4.32094 -0.00732919 0.00261819)
(4.29706 0.019511 -0.0142302)
(4.33083 0.0120393 -0.0128153)
(1.49954 1.50107 -0.00625239)
(4.29327 -0.0280852 -0.00873354)
(1.50733 1.508 0.000741661)
(1.43527 -1.43955 0.000232545)
(4.3328 0.0122473 -0.00935327)
(1.33065 -1.33231 0.0194164)
(2.38614 -0.424752 -0.0325291)
(1.42564 -1.42029 0.00121264)
(1.52256 1.50235 0.012013)
(4.2857 0.00739746 -0.00564564)
(1.50904 1.50814 0.000641486)
(4.24362 0.0105289 -0.00304383)
(4.0367 0.00232945 -0.0183164)
(1.51002 1.50995 -0.000345456)
(3.89985 -0.00188915 -0.018529)
(4.21623 0.00660492 0.0074137)
(1.51911 1.33345 -0.0497216)
(4.21157 0.0185435 0.0191347)
(3.97772 0.0194356 -0.00292278)
(4.23376 0.0232948 0.00655524)
(3.94305 0.015141 0.0487932)
(4.27345 0.0123665 0.00226603)
(4.07905 0.000449226 -0.00837116)
(1.48821 1.27352 -0.00574438)
(1.44083 -1.43511 0.00532807)
(3.6639 0.00820618 0.0869437)
(1.49925 1.5043 -0.00866136)
(4.22702 0.0221525 0.0199215)
(4.38699 -0.0223339 0.0426128)
(1.5203 1.45385 0.0122173)
(1.5059 1.51216 -0.000447392)
(4.33559 -0.0084319 0.00325028)
(4.17338 -0.0189253 -0.0380053)
(4.19119 0.0218046 0.00213284)
(4.35215 0.00961802 -0.00223741)
(1.50883 1.5071 -0.000453227)
(4.40694 -0.0121375 0.0686694)
(4.33448 -0.0145327 0.0212208)
(1.51191 1.50907 5.35419e-05)
(4.2603 0.0650546 0.0530219)
(4.06093 -0.0165545 -0.0413157)
(1.44059 -1.43945 -0.000349704)
(1.4405 -1.44023 7.6551e-05)
(4.23951 0.013068 -0.0041264)
(4.25854 0.00397662 -0.00578187)
(1.51578 1.51607 -0.00195184)
(1.44354 -1.43941 -0.00159169)
(2.5442 -1.37185 0.310771)
(1.44125 -1.44215 0.00051435)
(4.26093 -0.00255419 0.00876514)
(1.50124 1.50597 0.00350202)
(1.44157 -1.44202 2.66979e-05)
(4.37214 -0.00429088 0.0141528)
(3.95841 -0.0465565 -0.112192)
(4.32502 -0.02326 0.00596651)
(4.16816 -5.45114e-05 0.00789764)
(1.51058 1.50939 9.19686e-05)
(1.95801 1.51051 0.07345)
(4.17448 0.0528231 0.0798698)
(1.83542 1.62068 0.0857924)
(4.15847 0.018341 0.0323742)
(4.13932 -0.0330838 0.00334648)
(4.31704 -0.0129643 -0.0105727)
(3.01136 0.0939795 0.106358)
(1.80293 1.55372 0.0768564)
(4.32803 0.00698726 -0.0407267)
(4.37877 0.132618 -0.045693)
(1.43968 -1.4423 0.00249316)
(4.35779 0.0110936 -0.0419681)
(4.36482 -0.0204016 0.0155077)
(1.44339 -1.44302 0.00155397)
(4.20851 0.235771 -0.131212)
(3.69048 -0.000670297 -0.0506666)
(1.90459 1.49769 0.0616908)
(4.34062 -0.00886531 0.018082)
(4.29051 0.00617881 -0.00594051)
(4.27683 0.0115999 -0.00201852)
(1.50848 1.50707 -0.000416586)
(4.2657 -0.00714622 0.0293185)
(4.36395 -0.00342075 0.013897)
(4.24925 0.0406873 -0.0044433)
(2.67877 -0.0366549 0.0442436)
(1.83533 1.73271 -0.0364773)
(2.52541 -0.0644593 0.0849377)
(1.43994 -1.44174 0.0010508)
(3.93239 -0.127626 -0.125819)
(4.26672 -0.00771807 -0.0280396)
(1.5096 1.50864 0.00203365)
(4.04935 0.00943267 -0.0299704)
(3.3465 -0.00845596 0.0600795)
(1.95651 1.73029 -0.0181175)
(1.44162 -1.44064 0.000181714)
(1.68807 -1.43229 0.044945)
(1.44122 -1.44063 0.000197034)
(4.24826 0.0247021 -0.000451714)
(4.27535 0.0219697 -0.00744564)
(4.22329 -0.0130705 -0.0116283)
(3.97586 0.00969417 -0.0216195)
(4.32923 -0.0874983 -0.017317)
(1.50824 1.50235 -0.00317963)
(4.19983 -3.34468e-05 -0.00893603)
(1.44502 -1.43429 0.000524212)
(4.15558 0.0158311 0.0096664)
(1.51356 1.51317 -0.000840393)
(1.4406 -1.4395 2.23682e-05)
(1.42972 -1.43373 -0.00204519)
(4.08448 -0.0274542 0.00559422)
(1.43814 -1.43872 -0.000939164)
(1.44194 -1.44172 0.000487642)
(1.48764 0.989365 -0.0630516)
(1.44148 -1.4426 0.000490082)
(1.49417 1.51484 0.0140535)
(4.18553 -0.014751 -0.00622823)
(1.51007 1.50788 0.000513021)
(1.78739 1.32035 0.00192455)
(1.51034 1.51027 0.00165787)
(1.43936 -1.43528 -0.000962871)
(1.50987 1.50604 -0.000991208)
(1.43737 -1.43001 -0.00750844)
(1.50429 1.50515 0.000144231)
(3.82019 -4.73273e-05 -0.0316889)
(1.51228 1.50411 0.00623473)
(3.92006 0.0551809 0.0777132)
(4.27856 0.00517196 -2.4026e-06)
(4.41774 -0.173131 -0.0293988)
(1.51049 1.50394 -0.0001313)
(3.73089 0.0118304 0.0603604)
(1.51214 1.50668 0.001764)
(1.44164 -1.44242 -0.000733607)
(4.23115 -0.0404591 -0.0444952)
(4.22922 -0.0336424 -0.034743)
(4.22669 -0.00933925 -0.011705)
(4.42013 0.011509 -0.073877)
(1.73347 1.45813 -0.0472357)
(4.32443 0.00362082 -0.0229606)
(4.32302 0.0015459 -0.0211526)
(4.28057 0.00917751 0.000281167)
(4.21627 0.00481381 0.000617802)
(4.29754 -0.0430989 -0.0282215)
(1.43846 -1.43876 -0.000509828)
(4.28661 0.00750511 -0.0011566)
(1.97322 1.71777 -0.0117817)
(4.26479 0.00754808 -0.00834672)
(1.50919 1.50791 0.000120552)
(4.34655 0.0153356 -0.0231141)
(1.95179 1.62025 0.0152106)
(4.2845 0.00395971 -0.00579066)
(4.29269 -0.0197849 0.0153231)
(1.663 -0.836705 -0.00889811)
(1.51143 1.51316 0.0165513)
(4.2227 0.00740183 0.00673097)
(1.44139 -1.44023 0.000139739)
(4.3599 0.018304 -0.0253309)
(4.32581 0.021906 -0.0174275)
(1.5087 1.50469 -0.0123409)
(1.50679 1.50618 0.00357727)
(1.47759 1.32304 -0.0379045)
(1.50813 1.50927 0.000859588)
(3.02941 -0.161354 0.0831104)
(4.36217 0.0158891 -0.0249277)
(1.52822 1.49246 -0.00120016)
(1.50647 1.50908 0.00168398)
(3.74165 0.00230382 -0.0108797)
(1.50893 1.50933 -0.000357947)
(4.2958 0.0145298 -0.0171048)
(1.50888 1.50839 0.00031871)
(4.25554 -0.0268248 -0.0172834)
(1.442 -1.44185 0.000497992)
(4.00111 -0.0205876 -0.0588709)
(3.31474 -0.0123713 0.00417077)
(4.00429 0.0113722 -0.00927439)
(4.28656 0.00541217 -0.00719306)
(1.51829 1.50674 -0.00444247)
(3.90852 0.00316508 -0.000753784)
(1.51192 1.50659 0.00133181)
(1.50932 1.51007 -0.00386178)
(4.23126 -0.0160779 -0.00891016)
(1.50938 1.50797 -0.000198081)
(3.62144 -0.000346671 -0.0366871)
(1.46031 1.34353 -0.0426048)
(4.30697 0.0241777 -0.0141274)
(1.44053 -1.44091 -0.000203179)
(4.33266 0.00944462 -0.0092523)
(1.44192 -1.44048 -0.000101706)
(1.78939 1.58459 0.0451182)
(4.39452 0.155174 -0.0105435)
(4.22515 -0.0345906 -0.0454406)
(4.27472 0.0162958 0.000973963)
(4.32195 -0.0510157 -0.0318627)
(4.255 0.00884605 -0.00441464)
(4.3675 -0.0283541 -0.00464205)
(1.49947 1.51113 -0.00672233)
(4.27208 0.0220314 0.0145742)
(4.23892 -0.0385044 -0.0432675)
(1.50842 1.50924 -0.000808205)
(3.59495 -0.0457044 -0.153964)
(4.3724 -0.0309825 -0.0216344)
(4.20025 0.018734 0.0158406)
(1.49576 1.47475 -0.00870182)
(1.85942 0.371488 -0.294852)
(4.11082 0.0109927 0.0126268)
(3.37629 -0.0137473 0.0336987)
(3.4867 0.89628 -0.00608913)
(1.8681 -0.950592 -0.0781493)
(4.3524 -0.0453727 -0.00655988)
(4.09124 0.0161634 0.0293218)
(4.22278 -0.0402252 -0.0432215)
(4.29132 -0.0241704 -0.00961641)
(4.23538 0.0251453 0.0103324)
(3.74854 0.483541 -0.0249424)
(1.86478 1.58262 0.0127842)
(3.81365 -0.143712 0.033036)
(3.68911 -0.325969 0.0747095)
(1.43966 -1.44036 0.000795074)
(3.76561 0.02489 -0.0111325)
(1.51763 1.48955 -0.00769729)
(1.77195 1.61042 0.0148622)
(4.24816 0.00508533 -0.00230432)
(3.77224 0.63607 -0.0206578)
(4.54625 -0.386586 -0.0726019)
(4.09906 -0.706952 0.0151865)
(1.76704 1.67962 -0.122176)
(4.3284 -0.0253843 -0.00747935)
(4.28395 0.0247668 0.0187692)
(1.50573 1.50132 -0.00038128)
(1.94071 1.07698 -0.0438904)
(4.28613 0.0314152 0.0186638)
(1.44016 -1.43505 0.000993326)
(1.50871 1.50855 -7.21069e-05)
(1.50721 1.50681 0.00023509)
(1.51025 1.50201 0.00149902)
(4.33181 -0.0438229 -0.019722)
(1.50917 1.50891 0.000812881)
(1.44733 -1.44727 0.00772624)
(4.25194 -0.0264786 -0.0216316)
(3.92846 -0.000143031 -0.0121213)
(2.12269 -1.85857 -0.0973913)
(4.28691 0.0307173 0.0180848)
(1.75329 1.41677 0.0317325)
(4.30451 -0.016292 -0.00836762)
(1.4175 -1.41661 -0.00632838)
(1.50598 1.50898 -0.000704808)
(4.31549 -0.0265914 -0.00791304)
(1.50973 1.50099 -0.00595115)
(1.50854 1.50528 0.000737127)
(1.72981 1.65704 0.0486459)
(4.0736 -0.00284567 -0.00240456)
(2.48652 2.08316 -0.274849)
(4.25401 -0.0181708 -0.00864296)
(4.24516 0.00463443 -0.00287504)
(1.43097 -1.42166 -0.0116007)
(4.41975 -0.0142237 0.137575)
(4.05345 -0.0242718 -0.0590864)
(4.23474 0.00100749 -0.00212321)
(4.30335 0.0768655 0.0101332)
(4.31463 0.0413813 -0.0914207)
(3.73148 0.00149256 -0.0349945)
(1.5074 1.5066 0.00061577)
(4.31918 0.00357186 0.0111134)
(4.28903 0.0172691 0.000381383)
(1.42839 -1.44708 0.00276828)
(4.01171 -0.00236158 -0.000268645)
(4.33813 0.0261187 -0.00799347)
(4.32815 0.0200573 -0.00665041)
(3.95664 -0.0173453 -0.0396821)
(4.32529 0.0212169 -0.00530211)
(4.33012 0.0217074 -0.00395675)
(1.44568 -1.42663 0.00858782)
(4.32704 -0.00965058 0.0212822)
(3.59217 -0.0218898 -0.00560127)
(1.82066 1.58144 0.0986742)
(4.32329 0.0173673 -0.00915954)
(4.13124 0.00407601 -0.00924589)
(2.41906 1.97092 -0.296079)
(4.24854 0.00598025 -0.00122181)
(4.3257 0.0149631 -0.0130277)
(4.13309 0.000633407 -0.0165016)
(4.29542 0.0217088 0.00026345)
(4.24716 0.0460892 0.0178922)
(4.25451 0.00578471 0.000740319)
(1.47603 1.44343 0.00166163)
(4.29476 0.0222581 -0.000337692)
(4.0367 -0.0264791 -0.0534718)
(1.61172 -0.966927 0.0379573)
(4.27491 0.0371812 0.0246045)
(4.2286 0.0383417 0.0369823)
(4.27932 0.0122691 -0.0018643)
(1.50812 1.50458 0.00150021)
(4.16513 0.0246153 -0.0394243)
(1.44166 -1.43532 0.00378805)
(1.50898 1.50931 -0.0007761)
(1.50444 1.49264 -2.77365e-05)
(1.51073 1.50288 0.00101815)
(3.61899 0.00202193 -0.0174226)
(1.79568 1.54816 0.0619421)
(3.26166 -0.227118 0.26886)
(1.43778 -1.43767 0.000209209)
(1.50814 1.52665 -1.15238e-05)
(4.29153 0.0406313 0.0229455)
(4.29867 0.0115009 -0.0183293)
(1.44217 -1.44203 1.44025e-05)
(4.30766 -0.0271279 -0.00331038)
(1.44135 -1.44002 0.00481583)
(1.44242 -1.44136 -0.000738748)
(1.41989 -1.42039 0.00440852)
(4.37915 -0.0357034 -0.00727562)
(3.65318 0.0189337 -0.0103532)
(1.77774 1.60224 0.0196922)
(1.45653 -1.44034 0.00382595)
(1.50702 1.51156 -0.00199001)
(1.50804 1.50915 -0.000297349)
(4.39874 0.00876312 -0.0477135)
(4.26353 0.00712699 -0.00291576)
(1.79571 1.68882 0.0781132)
(4.34838 0.0139671 -0.02327)
(4.05275 -0.0570376 -0.164534)
(1.50654 1.50712 -0.000751509)
(4.33618 0.0121198 -0.0198935)
(3.98046 0.00344071 0.0214848)
(4.23939 0.0231225 -0.0279087)
(1.50995 1.5091 -0.000301695)
(1.50769 1.50695 -6.85338e-05)
(4.20512 0.0185586 0.0224479)
(4.28391 0.00782021 -0.00119544)
(1.78338 1.62215 0.0253725)
(1.50372 1.50395 0.00021967)
(1.53148 1.4865 -0.0031293)
(4.24831 -0.00868245 0.00461095)
(1.43986 -1.44001 -0.00199886)
(1.44169 -1.43704 0.00121784)
(1.50451 1.50515 0.000760673)
(4.33462 0.0134429 -0.0167801)
(3.80357 -0.0185432 0.00608871)
(1.5095 1.50962 0.000114204)
(1.67954 0.335913 0.292907)
(1.83178 -0.19592 -0.0661769)
(4.21512 0.0220631 -0.00184647)
(1.50667 1.50939 -0.000725166)
(1.50893 1.50619 -0.000753646)
(4.36421 -0.0433099 -0.00985071)
(4.17442 0.0710017 0.0645752)
(1.80938 1.61731 0.0757019)
(2.6345 0.859258 0.0617561)
(4.11228 0.0923042 0.117053)
(3.93989 0.0110094 -0.0278011)
(4.17542 0.00324207 -0.00317679)
(1.5657 1.46903 -0.0024151)
(4.15839 0.0105227 -0.000325941)
(4.30912 -0.0286693 0.0296154)
(1.5126 1.50864 -0.00180499)
(1.432 -1.40914 0.00185759)
(1.50466 1.50556 -0.000179609)
(1.50737 1.50765 -0.000506654)
(1.50927 1.51152 -0.0016443)
(1.51 1.51013 -9.1917e-05)
(4.34433 0.0143636 -0.0184121)
(1.44031 -1.44033 0.0011446)
(1.50752 1.50779 -6.15886e-05)
(1.50029 1.48037 4.772e-05)
(4.34755 0.0144872 -0.0239113)
(4.2798 0.00904888 -0.00286262)
(1.44744 -1.42861 -0.000420087)
(1.42492 -1.41049 0.00216923)
(4.3829 -0.0207673 0.0373656)
(4.16602 0.00270898 0.00524389)
(4.15965 0.00441473 0.00667187)
(1.44221 -1.43829 -0.000736486)
(1.50664 1.50735 0.000717978)
(4.16312 0.00266417 0.00609116)
(1.4418 -1.44075 2.50755e-05)
(4.11439 0.010986 0.000517496)
(4.22124 0.00729998 0.0149296)
(4.22868 0.0148511 0.00621538)
(1.45098 -1.44062 0.0043992)
(1.44113 -1.4418 0.000486615)
(1.44097 -1.44187 0.000380155)
(1.50901 1.50947 0.000433505)
(4.26947 -0.0183422 -0.0113727)
(1.50737 1.50856 0.00028837)
(1.50645 1.50687 0.000246164)
(4.24982 0.01181 -0.0158559)
(1.441 -1.44168 0.00065929)
(4.17993 -0.00153857 0.00503227)
(3.8238 -0.0315494 0.0132354)
(1.52177 1.47263 0.0072389)
(4.27834 0.0133558 -0.00235701)
(2.02158 0.302714 -0.052795)
(4.217 0.00309515 0.00388509)
(4.37649 -0.0152144 0.00933574)
(3.85926 0.0151201 0.00399509)
(4.3634 -0.00125286 0.0279319)
(3.15952 0.0680284 -0.118963)
(1.79576 1.43791 0.0295022)
(4.20796 0.000428346 0.00244383)
(4.3795 0.0330068 0.00570504)
(4.2762 -0.0118749 -0.00469901)
(1.54542 1.34515 -0.0459953)
(1.92468 0.188003 -0.0987087)
(2.28852 -0.160068 0.0765614)
(4.20846 0.00667382 0.00290507)
(1.50671 1.50883 0.00198067)
(4.13928 -0.00991853 -0.0302698)
(4.22668 -0.00418554 -0.00988303)
(4.10592 -0.0365883 -0.0651911)
(1.57516 -1.11578 -0.0831056)
(1.44153 -1.44183 0.000766521)
(1.44108 -1.44111 -5.53642e-05)
(4.30172 -0.0135856 -0.00218203)
(1.75729 1.45698 -0.0182156)
(4.08297 0.0135128 0.00649969)
(1.63614 1.4908 0.0201384)
(4.06656 -0.00768951 -0.0269814)
(4.16998 -0.00711587 0.0045512)
(4.13106 -0.00327642 0.0147704)
(4.2806 0.0101918 -0.00386908)
(1.50787 1.50685 -0.00054413)
(1.49974 1.4958 -0.00214245)
(1.54068 -1.40491 0.00655145)
(4.27606 0.0139661 0.000212664)
(1.50965 1.5058 -0.000181811)
(1.73933 1.49807 -0.0653307)
(4.37809 0.077946 -0.067091)
(1.51486 1.51306 -0.000838794)
(1.50277 1.50991 0.00447432)
(1.43833 -1.43268 -0.00359141)
(1.50905 1.50974 0.000502919)
(4.08698 -0.00254047 0.0144546)
(1.54608 1.46515 0.00474366)
(1.50919 1.50749 0.000273996)
(3.48113 0.492087 -0.35497)
(1.76311 1.42608 -0.0194214)
(1.50334 1.50416 -0.0125031)
(2.0753 -1.23097 0.0747735)
(1.50896 1.50666 -0.0013636)
(3.35772 0.0126251 -0.0297368)
(4.16874 -0.0050781 0.0110572)
(1.44044 -1.4401 -0.000387005)
(4.0997 0.00499202 -0.00999559)
(4.13809 0.668545 -0.0941037)
(4.07851 -0.0396416 -0.0639021)
(4.47721 0.162371 0.00171103)
(4.02984 0.00431466 -0.00686852)
(1.50908 1.49861 0.00465903)
(4.23579 -0.0401099 -0.0446761)
(4.39062 -0.0157425 0.0105239)
(4.07773 -0.0398219 -0.0643672)
(1.44089 -1.44121 -0.000190739)
(4.4429 1.17226 0.309252)
(4.07776 0.00526553 0.00738697)
(2.00851 1.60466 -0.0943884)
(4.05187 0.00137457 0.00574633)
(4.41914 0.0543183 -0.0418197)
(4.22192 0.0827386 0.00422545)
(4.18517 -0.0142094 -0.0173764)
(4.18487 0.0140974 0.00091928)
(4.454 0.06243 -0.0236155)
(4.29994 -0.00639007 -0.00662064)
(4.2676 -0.00697775 0.00458495)
(1.49903 1.50393 0.00595609)
(1.50474 1.49757 0.00473706)
(4.10549 0.0109325 0.00532425)
(4.03964 0.00418204 0.00590266)
(1.50602 1.50972 -0.000392183)
(4.15968 0.0059762 0.000803502)
(4.37182 -0.0176472 0.00527504)
(4.28986 -0.0110468 0.00427234)
(1.51329 1.49822 8.64734e-05)
(4.20655 0.082958 0.0185887)
(1.50705 1.50555 0.00030393)
(4.27107 -0.00608274 0.00330515)
(4.29444 -0.00749181 0.00313482)
(1.50777 1.50703 -0.000199962)
(4.09246 0.0183069 -0.0147093)
(4.28498 -0.00520031 0.0012936)
(4.19032 0.077361 0.00600912)
(4.13331 0.00128848 0.013411)
(1.53712 1.50798 -0.00226256)
(4.29896 -0.0128287 0.0139529)
(4.20345 0.0941732 0.000675997)
(4.4336 -0.105317 0.0259459)
(3.73812 0.0470714 0.0145193)
(3.34118 0.00978005 -0.0469031)
(1.51076 1.49523 -0.00270487)
(1.50565 1.50439 0.00155211)
(4.13429 0.0547207 0.00698198)
(1.50901 1.50954 -0.000381677)
(3.6223 -0.0101611 -0.0104568)
(4.15013 -0.0216928 -0.0312588)
(2.53129 0.351924 -0.0912425)
(4.60083 -0.293514 0.108869)
(4.06067 -0.182398 0.0506053)
(4.52106 -0.162969 0.0423908)
(1.50907 1.50948 -0.000298106)
(2.04801 1.73819 0.014584)
(4.29232 0.012167 -0.00377697)
(1.43545 -1.44072 -0.00444528)
(0.7966 -0.557531 0.235188)
(4.26129 -0.0791339 -0.063493)
(1.50906 1.50514 -0.00284258)
(1.50959 1.50774 -9.61411e-05)
(3.8 -0.0759498 -0.00505038)
(3.10676 -0.200738 0.0423074)
(1.50948 1.50962 -0.000165937)
(3.84614 -0.070316 0.0121183)
(1.5079 1.50641 0.000386661)
(1.50814 1.51025 -0.00249681)
(1.44067 -1.44095 -0.000162349)
(1.44257 -1.43904 0.00349963)
(1.41455 -1.40392 0.0049845)
(1.44063 -1.438 2.93217e-05)
(3.84237 0.0297934 -0.0145293)
(1.50684 1.49814 -0.00123825)
(1.50804 1.50858 0.000454248)
(1.50024 1.50916 0.00269439)
(3.57566 -0.792396 -0.208664)
(4.0531 -0.034002 -0.0742496)
(3.92939 -0.000941025 -0.038651)
(4.29229 0.012225 -0.0038032)
(1.50352 1.49374 0.00024404)
(1.51252 1.50696 -2.7914e-06)
(4.11764 -0.0696267 -0.0840678)
(1.50876 1.50968 -0.00137693)
(1.5083 1.50693 0.000544435)
(2.40112 1.37729 0.050297)
(4.38577 -0.0578676 -0.00451393)
(4.2791 0.0102048 -0.00307517)
(1.50721 1.50703 -1.86269e-05)
(1.50907 1.50601 0.00178171)
(1.50516 1.50097 -0.00205583)
(1.50716 1.50455 -0.00031273)
(1.51108 1.51078 -0.00159353)
(1.51164 1.50765 0.000148373)
(4.29723 -0.0981638 -0.0614629)
(1.50978 1.50541 -0.000137674)
(2.98013 0.0429427 0.0988766)
(4.31835 -0.00976194 0.011251)
(1.50785 1.50998 -0.000303666)
(1.43206 -1.43805 -0.00380837)
(1.42248 -1.40912 0.00150485)
(3.63111 0.0425149 0.19497)
(1.41523 -1.41362 -0.00563025)
(1.4393 -1.44051 0.00138635)
(1.50135 1.5035 -0.00948746)
(3.89049 -0.0594529 0.00284702)
(1.50584 1.50588 -0.000466384)
(4.26298 -0.0549487 -0.0345192)
(3.40982 0.0534105 -0.017693)
(2.80702 0.00373913 0.111822)
(1.50619 1.50661 0.000477575)
(2.92147 -0.749722 0.0601686)
(4.29664 -0.0089536 0.000983268)
(4.3247 0.0098619 -0.0116046)
(1.54524 -1.47461 -0.0182098)
(4.16523 -0.0661734 -0.0117196)
(4.24995 -0.00806613 -0.00673075)
(1.44151 -1.43158 0.00141424)
(1.55681 1.47623 0.00708657)
(2.03553 -1.56822 -0.128116)
(1.50423 1.50345 3.1052e-05)
(4.30309 0.00963044 -0.00159075)
(4.28682 -0.00539483 0.00631923)
(4.36663 -0.0522094 0.0216667)
(2.87763 -0.00308375 0.155989)
(1.50932 1.50872 -0.000185467)
(4.30522 0.00984943 -0.00263111)
(1.55347 1.4778 -0.00168924)
(1.88473 1.59456 -0.00771479)
(1.93639 -1.50677 -0.0607237)
(1.50832 1.50865 0.000538583)
(4.30663 0.0124052 -0.00285859)
(1.50592 1.5026 0.00137941)
(1.42661 -1.40286 0.000374534)
(3.93298 -0.0538714 -0.0965027)
(4.21157 -0.00961091 0.00582587)
(1.42666 -1.40374 -0.00429855)
(4.23563 0.00740848 -0.00282041)
(1.60909 1.57246 -0.0101172)
(4.30181 -0.0366165 -0.0185085)
(1.42207 1.36033 0.0155283)
(1.50952 1.51005 -0.000577828)
(1.51737 1.51226 0.00514365)
(1.44169 -1.44199 0.000493395)
(4.18356 0.00846303 -0.00723687)
(3.75286 0.00620357 -0.0161008)
(4.33545 -0.00538961 0.0790876)
(1.50437 1.50473 0.000899501)
(1.50486 1.47585 0.00945025)
(4.16521 0.008946 -0.0066327)
(1.50934 1.50962 -0.000503088)
(1.7483 1.58542 0.0216178)
(1.44086 -1.43985 0.000697576)
(4.1199 0.0253905 -0.00281916)
(4.39032 -0.107309 -0.0334467)
(4.29338 0.0111694 -0.00411332)
(1.44399 -1.44039 0.00222166)