/*--------------------------------*- C++ -*----------------------------------*\
  =========                 |
  \\      /  F ield         | OpenFOAM: The Open Source CFD Toolbox
   \\    /   O peration     | Website:  https://openfoam.org
    \\  /    A nd           | Version:  10
     \\/     M anipulation  |
\*---------------------------------------------------------------------------*/
FoamFile
{
    format      ascii;
    class       volScalarField;
    location    "21";
    object      p;
}
// * * * * * * * * * * * * * * * * * * * * * * * * * * * * * * * * * * * * * //

dimensions      [0 2 -2 0 0 0 0];

internalField   nonuniform List<scalar> 
111485
(
7.87132
0.0285426
0.0186819
7.87254
0.0117866
7.61135
0.0118963
0.0198735
0.0122648
-0.000735916
0.0113134
0.00834959
0.0155997
0.000864418
0.0135322
0.0394788
0.0267749
8.7936
0.0170712
7.87326
7.8735
7.6142
0.00976614
0.0283835
0.00633872
7.84729
0.0150925
0.0463041
0.0171114
7.87222
-0.0826609
0.0167336
7.87507
7.6094
8.57545
7.56982
-0.0577198
0.0520327
-0.116677
0.0226644
7.65664
-0.000440694
0.0233591
-0.0309757
-0.259273
7.88537
-0.0147416
0.0240864
-0.00536703
7.91547
7.9136
7.36293
7.92207
-0.0460994
7.92704
0.0256477
0.0175811
7.61798
-0.0945739
0.0200264
0.0212304
7.87177
0.0197979
-0.0718712
7.65919
0.0254868
5.10195
0.0182752
0.00644366
0.0177787
-0.141509
0.0315931
7.72549
0.0064965
7.87729
0.0313257
7.61387
-0.00381263
7.61267
8.05823
-0.111824
-0.0331749
7.61343
7.87367
0.0242314
0.0104137
1.74842
-0.0523808
-0.104101
0.038804
-0.21139
0.0124554
0.0232285
0.0462157
-0.000202623
7.87337
7.8718
-0.0358078
-0.735354
0.0685891
7.87173
0.00659932
7.59888
-0.00795928
0.0122617
7.91386
7.61662
0.0158876
0.0100467
-0.347112
0.0214733
0.0338314
0.0179322
0.00727642
7.84387
0.0303117
7.8603
7.61022
0.0131824
7.87426
7.84629
6.66419
7.61432
7.61817
-0.0015472
8.9572
6.62693
0.019313
7.87412
0.392296
-0.102635
-0.0374121
7.8778
6.51111
6.80019
0.0117777
7.61371
0.0329136
0.00861126
0.0285797
-0.0375318
0.0095205
0.0185772
0.0183933
-0.0217961
0.0329598
7.61366
7.87288
7.62294
0.0181255
0.0149828
7.87116
-0.0711989
0.00924358
-0.663384
0.0200086
0.0156081
0.0106135
-0.521016
7.87871
7.87282
0.0172143
0.00880863
-0.480847
-0.600616
0.0256348
-0.0634931
7.64519
-0.443204
-0.40871
7.61766
7.8724
0.00749725
7.61522
0.0290085
0.0177519
7.66909
7.70418
7.8631
7.81301
7.67516
7.87189
0.0249542
0.0202428
0.0270812
0.0700543
0.00236757
0.0287451
-0.0488197
7.87244
0.0162102
7.69922
7.86007
0.0367297
-0.00793165
-0.0473315
0.0326099
0.0161618
7.87813
0.0239337
0.0191818
5.29078
-0.0217718
0.0257127
7.86828
0.0325691
-0.0087251
7.69825
-0.0532619
-0.017342
0.0167661
0.0152364
7.668
7.8713
0.029065
4.95767
-0.0373014
7.61491
0.031613
0.0344811
-0.0027066
7.87037
0.0209695
-0.0616163
5.98972
7.61497
7.61778
-0.117743
-0.589636
7.72636
7.29683
0.0327192
0.0233941
-0.0811759
7.72419
7.80504
-0.0699371
7.87499
0.0083802
0.0300963
0.030456
0.0179055
0.0296153
7.61898
-0.103077
0.0166635
7.6218
7.61357
-0.0510952
0.0328628
7.78379
0.0308421
0.0305005
7.87307
6.35499
-0.0264852
7.88756
8.02423
7.18658
7.87329
0.0260854
0.0198346
-0.0105072
7.87469
0.029468
7.87237
7.8705
7.87775
-0.0778407
-0.0102988
0.0262027
0.0174734
0.00207036
0.0200248
0.0176352
-0.0797999
0.0105591
0.0212781
7.57333
7.87279
-0.0839173
0.0199779
-0.0926663
0.0258694
7.87375
0.026883
0.0138073
0.0204589
0.0181706
-0.112339
0.0155968
0.0188358
-0.0238227
7.61452
-0.0119902
7.61529
8.73828
8.09115
-0.122429
-0.0099111
0.010591
7.86654
7.67862
0.0279794
0.0270093
7.87087
7.86909
7.93067
0.0188882
0.0305378
0.021235
0.0178165
0.0137036
7.22657
7.62085
7.87416
0.0301579
3.23099
-0.0029518
-0.112675
-0.087153
7.61434
7.87101
7.87175
6.79359
0.0248493
0.0187216
7.60695
0.0277437
7.78142
7.86331
-0.0338326
0.0253675
0.0037454
0.0278419
7.9863
6.7578
7.61009
0.0251454
0.0198428
-0.0837477
7.652
0.450303
-0.150777
0.0190981
0.0299822
1.27059
0.0123586
7.61216
0.00725747
0.0311147
-0.101359
-0.0398937
0.00862488
7.61226
7.87553
7.61527
7.87577
0.0270231
0.0251478
-0.0134764
0.0170032
7.63008
0.0127369
7.61769
7.87884
0.0134688
8.13924
6.9501
7.9146
7.56516
0.0185825
7.61662
0.0173455
0.0178425
7.61245
0.00596926
0.0270109
7.85459
0.0267012
0.012512
0.0326834
-0.0488484
0.0407833
0.0300025
7.99474
7.87351
-0.0199555
7.63469
0.00587978
-0.0462837
7.66782
7.6172
0.0272107
0.0104453
-0.000445985
0.0244685
7.61357
-0.0802816
0.00406081
7.60936
-0.0340208
-0.0105991
7.87032
7.87211
0.0248674
0.00679333
7.59503
7.86425
5.85794
7.87108
0.0117565
7.61517
7.87202
0.000798973
-0.0962976
-0.00828465
0.0198401
7.61247
6.8115
-0.00665155
6.90912
-0.0294423
-0.00252661
0.00550589
5.27634
6.98213
-0.48845
-0.314986
7.86973
-0.049039
0.0111377
7.86846
-0.509457
-0.0011899
6.94782
0.00569248
0.00748311
0.0386974
7.61367
0.268533
0.00444863
0.0491003
-0.135797
6.60313
-0.604508
7.87078
-0.042533
-0.168936
7.61827
-0.00521885
-0.00958338
6.4211
7.87364
7.4711
7.87247
0.0136867
0.0782865
0.0115996
0.0112218
-0.0559625
7.61548
-0.0446372
7.88363
0.024646
7.60049
7.88099
7.8881
0.00177125
7.87435
7.87128
8.34636
7.87021
7.62622
-0.0185501
7.61601
7.41803
7.61211
7.85885
7.60608
7.88041
7.61455
-0.000483843
7.61063
-0.0218086
0.00228468
-0.102985
7.6205
-0.0191447
7.61975
7.87105
-0.00397979
-0.00503185
0.042435
-0.124016
7.32319
-0.0117007
-0.0216368
0.0231056
-0.0129745
-0.00166532
7.87354
-0.00415305
6.43229
0.0047711
7.61472
-0.0188329
6.65653
0.0231842
0.0160404
8.29166
7.67921
-0.0313823
7.87123
-0.0113292
-0.0191818
7.62498
7.63217
7.92245
7.61709
-0.981193
-0.0116466
7.60964
7.62232
0.00994066
7.61418
-0.0146047
7.61312
-0.0180056
7.87129
0.0089573
0.00740834
0.0522103
0.0221284
7.5928
-0.12818
7.60774
7.61448
0.00386439
7.61582
-0.000974517
7.92855
-0.0327685
7.87279
0.024019
7.87353
6.95604
-0.108054
-0.0459734
-0.0155799
0.0082436
-0.0274663
-0.00366461
7.62203
-0.0230016
-0.02679
7.61437
-0.05138
-0.0630507
-0.00812509
7.68306
8.03722
0.0325511
-0.03911
3.67765
7.71979
9.99329e-05
0.0209939
0.00504905
0.00186221
0.157013
2.52578
6.86239
-0.702965
3.13937
7.8727
0.00977931
7.63397
6.98686
0.0306814
2.48352
-0.723578
1.42385
6.86048
-0.0125491
0.0163028
7.62895
7.44527
0.0233782
7.87897
7.61419
7.61491
7.61919
-0.000336811
7.61624
7.82886
0.00626036
0.0267606
6.01191
-0.0290479
7.30991
0.0276898
7.92095
7.61992
-0.00548772
7.61377
7.61919
6.95369
0.0460074
4.63809
-0.0245331
0.0381032
7.88721
-0.22601
-0.067719
0.00532764
-0.0140559
0.254777
0.00105157
7.61712
-0.00699564
0.00814732
7.87585
0.0213668
-0.0215173
0.0138593
0.0358691
0.0138424
0.0128697
7.88575
-0.000296489
-0.054637
6.93313
0.0146263
0.0139366
4.83749
0.039345
0.0150627
0.0048156
0.00780181
0.0165178
0.0337058
7.7589
0.0102828
-0.000669804
8.23022
-0.00448353
-0.0186008
0.0366133
7.61634
0.0494339
7.89038
7.61409
7.62666
7.61727
0.0175823
7.04653
-1.04933
7.86826
7.55481
0.00504289
-0.00080637
7.8701
-0.00978709
7.86954
7.87284
7.92328
-0.00701657
0.00749427
6.98341
7.81967
7.61614
7.61636
-0.0648044
0.0208298
6.80157
0.00284687
-0.413368
7.62056
0.0104621
-0.0163166
0.083932
7.61344
7.61451
0.0229024
0.0315814
6.91746
7.61827
7.60533
0.0174447
7.87584
7.86989
7.61624
0.0068713
0.0213665
7.61354
8.48017
8.2128
0.150129
7.61972
7.61309
-0.0216406
-0.0736545
6.90174
5.94637
1.13524
-0.0113036
0.00241444
7.59253
-0.0191544
-0.00360161
7.613
7.9207
7.61322
7.61528
7.61872
7.61285
0.0237807
7.87066
7.61393
7.67373
0.0147467
0.0164073
7.87757
7.93397
-0.0237115
0.0258897
0.0351298
7.86916
7.61454
0.0258761
7.87346
-0.00712426
0.0190323
0.0425993
7.85011
7.87181
7.87166
7.61546
0.0363348
7.61448
7.61374
-0.0323226
7.87177
0.0352202
0.00679154
7.63774
0.0353702
7.84082
0.0248529
-0.00460319
-0.0231571
-0.0164388
-1.27342
7.23023
0.0228854
-0.0180585
0.000895125
7.78714
-2.1101
7.1465
0.0238905
7.61813
-0.0277997
-0.0126114
-0.0311939
8.07962
7.87185
7.87379
0.0293989
7.30688
-0.0261594
7.44403
0.0258178
0.0341981
0.0100121
0.0245638
7.61249
7.64024
7.7478
0.0272069
7.61644
7.22792
-0.15742
7.61698
7.6239
7.87329
7.61366
0.0105786
7.6031
7.61554
-1.57582
7.28928
7.63648
7.06679
7.61568
-0.03619
0.0138258
7.87103
0.0172864
1.00444
-0.0361628
-0.385327
0.0244499
7.62035
-0.00769794
-0.0307588
-0.035242
7.87305
-2.64889
0.0105899
6.46894
-0.00346357
-0.116368
-0.101991
0.00417175
0.0274156
-0.138991
0.0383389
0.0281668
7.59396
7.63038
0.0116277
2.15938e-05
7.61912
0.0142227
0.00657969
0.0224805
7.61206
-0.120236
7.61405
0.0201018
0.0140193
7.61355
-0.065985
0.0277905
-0.158358
-0.021626
7.57058
0.0165947
-0.152552
-0.0752472
-0.156199
-0.0387413
7.6045
7.62456
-0.0222567
7.61365
0.0296454
-0.0770453
6.72055
-0.473597
-0.826944
-0.304384
7.61357
6.38134
0.0264569
7.87337
9.46284
-0.0467485
7.60898
7.61259
-0.725764
-0.863282
7.61376
-0.121412
7.6153
7.61388
7.87509
7.87031
7.95498
7.87251
-0.0246674
7.61814
7.61804
7.62385
-1.44242
0.0151115
0.00200652
0.0274649
7.62782
7.61261
-0.0484488
7.61485
7.61637
5.81122
-0.0526598
0.0253717
7.61358
7.60854
7.62526
7.61282
7.56027
7.61181
-0.0716068
7.61822
-0.201687
0.0141811
7.61598
7.8822
7.93064
-0.123236
7.9228
7.87324
7.63163
-0.210626
7.61281
-0.0645544
-0.0689519
-0.179758
7.6111
5.28985
-0.0399986
0.00889416
7.66441
-0.19797
-0.0128091
7.88145
7.58972
6.89803
7.6093
0.0249163
0.0146452
-0.0633794
-0.347628
7.61443
0.0277354
7.56866
6.82789
6.85485
7.61792
0.0207125
7.61482
7.94123
-0.0644778
0.0305206
7.93833
0.000605158
7.31371
-0.0833291
7.97915
7.61457
7.58617
7.8721
0.0262039
0.0229553
0.35764
7.61535
7.66479
0.0164451
7.6139
7.07184
7.87134
-0.00222206
-0.335955
0.0464681
7.86278
-0.0719638
-0.0597265
8.2427
-0.0594864
7.62212
-0.0397784
-0.0243425
0.0086605
-0.0864823
-0.177509
7.61434
7.61528
7.61493
-0.0715298
7.68549
-0.108432
7.87524
0.735912
7.87196
0.0202498
0.0215951
7.94289
7.61336
7.96023
7.62432
-0.110192
7.96832
6.90587
0.00574806
-0.103266
7.91247
7.03779
7.70672
7.05828
7.61516
7.61407
-0.101846
0.00779422
7.87258
7.86587
-0.62937
7.8778
-0.101514
0.0239461
7.69845
-0.0333696
7.87202
0.0182395
7.6233
0.0171713
7.6134
-0.585012
-0.306876
-0.145946
-0.0387353
-0.043181
4.68588
7.54398
-0.0313761
7.91732
0.0148549
7.87063
7.64406
7.62326
7.62539
7.64941
7.61913
-0.053364
-0.0648133
7.87229
6.65228
7.8786
-0.0517364
-0.123314
7.86851
0.0264447
-0.149169
7.93106
0.0270579
0.0268005
0.0177568
-0.145786
7.61389
7.61335
7.64283
7.61422
0.0209516
7.54414
-0.0333832
7.61443
-0.043498
0.0220487
7.61724
-0.0508476
7.60549
7.61364
-0.0440209
-0.0821219
2.1352
7.61512
7.95446
7.60665
0.0224163
7.50599
7.92246
7.5238
0.863294
6.7267
-0.527931
7.02901
7.48728
7.76862
0.0199256
0.00535164
0.0136137
0.0210742
7.8575
-0.026814
7.61509
7.61746
0.0176001
7.59091
-0.644089
-0.0396061
0.0328197
-0.0445317
-0.964059
-0.00110014
7.61659
-1.41997
-2.97025
-0.0073328
-0.0343343
0.0241815
5.51898
7.86716
0.00269296
7.87624
7.61241
-0.243949
-0.000543089
-1.11766
7.5989
7.44344
-0.0734496
7.9307
7.61515
-0.050245
7.94957
7.93849
0.113269
-0.0508997
-0.0915433
0.0488597
0.0274577
7.61797
7.61387
-0.275112
0.0271214
7.61489
7.94377
0.0343236
7.62579
6.60926
6.7613
6.79789
4.36141
6.62702
7.6164
0.0221806
7.60142
-0.0767373
7.61486
3.42996
7.6733
7.63863
7.61695
7.61458
0.0308384
7.61434
7.61406
6.91777
7.61023
7.61761
7.61112
0.025657
7.63172
0.0224978
-0.0815473
7.64093
0.0432659
7.6145
-0.0262379
-0.202714
0.0180601
0.0265812
7.84609
0.023797
0.0265602
-0.149966
7.87447
-0.106672
0.0264575
0.0262526
7.32952
0.0179004
7.68577
7.61531
7.61697
7.61352
0.0235449
7.61513
7.60408
0.0200807
-0.133973
0.00812325
7.6264
5.42913
0.0319951
7.61976
-0.369052
7.92789
0.0135253
7.6111
7.61351
-0.00354376
7.61087
-0.0190318
7.87495
7.61441
0.029055
-0.0369864
0.0252044
0.021026
-0.133904
0.0195644
7.61476
8.0211
0.0156267
0.0298467
0.0314633
-0.0932967
7.61384
0.0232061
7.61371
7.79874
0.00619517
-0.0667032
7.62642
0.0246663
7.6028
0.0198357
0.0321046
7.71244
7.61337
7.61557
0.0147728
7.61668
7.61499
0.0180437
0.0202145
-0.0410701
0.0230061
7.63577
7.62626
0.0126038
0.0305251
7.61952
0.0129247
7.70231
0.00900381
7.61456
7.61422
-0.00556216
7.61335
-0.0219505
0.0323148
7.6204
7.61274
0.00612675
6.4729
0.0332105
7.8714
-0.0588754
7.88186
6.67834
6.45453
0.0294614
6.9656
6.89091
0.013212
6.84873
4.25877
6.33472
7.67581
7.87728
-0.178018
0.0268488
7.65489
7.61312
0.00337811
0.0148
7.62484
0.0148683
7.61246
7.88238
0.00598725
-0.00392172
0.126031
7.61341
7.61611
7.61499
7.61379
7.60869
7.61189
7.60805
7.60918
7.61299
7.61175
7.61393
7.87861
7.61731
7.61274
7.61534
7.78687
7.61323
7.61343
7.61393
7.64211
7.81707
0.0209924
7.61565
7.61353
7.62623
0.0284878
7.61838
7.8823
2.94826
7.60336
7.51096
0.0197914
8.24446
7.56684
3.48218
0.0149275
7.61503
6.76006
7.25912
7.61266
-0.0282296
0.0171067
0.0134411
0.00591442
0.033724
7.90231
7.60753
0.0187325
0.0250783
0.00477806
7.6114
0.0235037
-0.0141807
0.0284168
0.0219441
0.0231325
0.00665208
0.0264392
0.0177263
7.88573
0.0241292
0.0278508
0.0150599
0.0207448
7.61369
7.61333
7.61378
7.87213
7.61129
0.0266562
0.0266815
7.6169
7.61294
7.6135
7.82001
7.61519
7.87414
7.62009
7.87882
0.031475
-0.225925
0.0274495
0.033195
7.58968
7.63035
-0.0320917
-0.262237
7.61347
7.6144
0.0101708
7.88445
7.61408
0.0661412
0.00030515
0.0171641
0.0341461
-0.0280573
7.89862
0.014398
0.0236426
6.90764
7.87601
0.0125627
7.89544
7.62687
2.38489
1.27304
-0.00750134
7.76718
7.84904
-0.0421024
0.02363
0.032883
0.0259518
3.39331
7.8717
-0.0164976
8.23623
7.87325
7.56132
0.00538159
7.61471
0.0277064
0.00912548
0.0136177
0.0151318
7.87911
0.0375862
7.87499
7.45532
7.8731
7.86556
0.0225146
4.48964
7.61397
7.8725
8.35872
0.0283427
6.85715
0.0123027
0.0215049
0.0220402
0.0240907
7.82532
7.8682
6.63054
0.0152172
0.0279235
-0.923003
7.92019
7.87142
6.82309
-0.021948
-0.0234161
7.61259
-0.0322768
2.49125
0.0166231
0.0213095
7.87201
6.64234
0.0135532
0.0264647
7.61535
0.00741833
0.00608743
-0.00116449
-0.00359199
0.0219723
0.0391154
6.91073
0.0319851
0.0261547
0.0301674
7.9752
0.0190494
6.99736
0.0348966
0.0220318
7.87355
0.0214345
0.017666
0.012839
0.0264737
8.73981
2.08213
-0.0511642
4.27909
0.0195437
7.64779
0.02284
0.0195981
7.87987
7.6141
-0.365099
-0.114561
0.0219027
8.73114
0.00855384
-0.206753
-1.16537
-0.0813486
7.88064
7.89173
0.0244894
8.34612
0.0259274
-0.217171
0.019059
0.0334025
7.87213
9.70837e-05
0.0259232
7.87134
6.93189
0.0368373
7.8866
0.0288093
0.0333084
7.87278
8.78883
0.0241492
7.87232
7.61311
7.61484
0.029851
0.032036
0.0150609
7.92586
0.0120055
0.0293053
7.67472
0.0324968
0.0204927
0.0254068
-0.129104
7.61417
0.0200796
0.0541127
0.0324068
0.0205915
0.0267103
-0.157965
0.0311267
7.87115
-0.0493618
0.0228979
7.87166
0.0278336
7.6207
7.61525
7.87457
7.62495
7.87386
0.00399481
7.6156
0.0276654
-0.0163592
7.8752
0.016147
7.80598
0.0178987
7.87887
-0.16632
7.65335
0.00951359
0.00481631
-0.187069
0.0443729
0.0243837
0.0193432
0.0292039
0.040315
2.75857
0.0365689
0.00701815
0.0429732
7.87259
0.0423196
-0.12454
0.0368939
0.0159976
-0.166801
7.87481
6.77098
7.87715
0.0155499
7.87145
6.16674
0.0255348
8.3892
0.0109816
7.86379
7.8399
7.61402
0.019497
0.0457291
0.0238625
-0.0437311
0.025368
0.0243841
0.0339624
0.0108244
0.0164419
0.0320697
0.0225174
7.88189
7.56841
7.86525
0.0192744
0.0302656
7.65093
7.61389
6.30443
0.0466812
0.0192742
7.87196
0.0244185
7.86936
-0.433946
0.0194174
-0.0655122
7.87289
7.871
0.0124423
7.87166
-0.00628059
0.0306839
7.45599
0.0219898
0.0183011
0.027619
7.87147
-0.110071
6.98256
-0.0244305
0.0120247
7.87444
7.88365
0.0279139
5.52729
7.90359
0.0346808
0.0322236
7.87194
7.85491
6.93864
0.0148783
6.28402
0.0174841
-0.033747
0.000371235
7.87139
7.03461
-0.0349953
7.87011
7.62066
7.87348
7.87539
7.14678
7.72576
7.57211
7.87282
7.8898
7.29893
8.39841
7.64097
0.003259
7.65058
6.75447
6.39038
8.90682
6.89595
7.87149
-0.0331136
7.38952
7.71013
-0.0338606
8.20886
8.57357
7.77276
-0.0426801
8.36765
-0.031687
-0.0842537
0.0136316
7.16691
7.87495
-0.023246
-0.4568
7.83522
7.86484
0.0224344
7.08767
0.0223168
7.0124
7.59695
7.73059
0.0209614
0.0244972
7.87015
0.00663348
7.89911
7.38835
-0.187128
0.0444589
-0.03104
7.61144
0.023699
7.22987
-0.0214606
7.61454
7.87192
7.6134
6.98723
0.0422881
0.0326867
7.87365
-0.771044
7.88143
7.89451
7.88112
7.87304
-0.0242898
-0.0385406
0.0344883
-0.0167542
7.83225
0.0132249
0.0145744
0.03749
-0.0302159
7.66427
0.028609
0.000935585
-0.00298773
-0.430132
0.0240065
7.92377
-0.0120852
-0.0231308
0.0245639
-0.0226963
-0.046537
7.90254
-0.0393115
7.77825
7.87568
0.0224839
7.87898
0.0277865
7.86914
7.93883
7.5531
7.8794
7.87272
-0.0461712
7.87808
-0.0131381
7.19772
7.61851
0.0218763
-0.00174226
0.0313143
-0.0152884
7.88958
0.700051
7.87377
-0.0186171
7.94003
0.0160956
-0.0289649
-0.0156004
-0.00326534
7.97056
7.97752
7.87985
0.0298419
7.62953
7.86555
0.0254294
7.60605
7.61292
0.00241941
7.97026
0.0102217
-0.436839
7.14775
7.49973
7.4383
0.0127407
0.0146175
7.87216
0.00747012
-0.0103952
6.99049
-0.0204433
7.87002
0.02185
0.0242912
0.0401141
7.87434
0.0137226
0.0214744
-0.0274405
-0.00211703
0.00928309
7.87357
7.87182
-0.102912
7.86779
7.61182
7.86965
0.0155074
-0.0171124
0.0199425
-0.0343812
6.87083
-0.00165035
0.0178267
0.0139332
-0.0581619
0.0204634
-0.0166856
0.014481
7.61371
7.61412
7.61388
0.0325918
7.6153
-0.0314338
5.24573
0.00446617
-0.559679
0.00927894
0.0140525
7.61257
7.87243
0.00543085
0.00468606
7.88652
7.60793
7.87316
0.012314
0.00702211
0.003634
0.0096977
0.0298442
0.0162657
7.87302
7.87275
7.87127
0.0402725
0.00753801
0.00254818
0.0175764
0.0343006
0.00556715
7.84918
7.87149
6.34234
7.65743
0.0247287
0.0291956
7.86712
7.906
7.8689
7.87484
7.8358
7.71683
-0.00486989
7.87428
-0.0487623
-0.116617
7.62105
0.00106637
0.0271854
0.0229719
7.91719
7.76318
-0.00381281
7.87226
-0.00565959
-1.23021
0.0203249
7.66702
5.95414
7.61353
7.87648
7.86816
7.60492
2.11288
7.88615
0.0100673
-0.00212835
7.87459
7.87207
-0.00772083
7.87856
7.61523
0.013931
-0.201724
7.86163
7.86216
7.67542
0.0431149
7.87182
7.87152
1.16662
-0.0228869
-0.00874207
7.87188
7.62042
7.20738
-0.0132475
-0.00845185
-0.010669
0.00758156
7.614
0.0541835
0.0127784
-0.000520499
7.55891
7.86861
7.87133
7.82448
7.87197
0.0252929
0.0214848
0.0036115
7.88915
7.87194
7.87157
7.86902
7.68807
-0.0381239
0.108161
0.0192698
7.61768
7.87241
7.9261
-1.00927
-0.0403349
-0.0688011
7.61308
-1.94654
8.25691
7.83883
7.87084
0.0242951
0.0361109
7.87465
7.90699
0.013578
7.87287
0.0149131
0.0304175
2.73719
7.87045
7.66379
0.0241609
-0.0592193
7.91107
2.54411
0.0547822
0.0335641
7.87365
7.87651
7.88154
7.88057
0.0264068
0.0273651
7.87684
-0.0495052
-0.0122518
0.205396
7.87237
7.87168
7.87312
7.8771
0.0109131
8.38382
7.87358
7.76799
0.0251053
-0.00708792
0.0302139
7.84559
7.87137
-0.0183897
7.62501
7.87231
7.87467
7.87382
0.0216074
7.69581
7.59899
7.6166
0.0206775
0.027883
7.86906
7.87357
7.85537
0.017138
8.15149
7.87811
7.85741
7.8736
7.87313
-0.199567
0.0248297
7.91385
0.022164
0.0170723
0.0214644
7.87777
7.87432
7.87363
7.83309
7.61392
0.030058
7.87328
7.37954
7.33471
-0.0156255
7.65286
-0.0234492
7.87172
7.61677
-0.0201016
0.29299
7.03485
-0.00436878
7.87462
-0.00857112
8.12594
7.89151
7.9224
9.10696
7.87993
-0.036206
7.8704
0.0116574
7.61636
6.93684
7.87886
7.86773
0.015169
0.0347925
7.61371
2.64657
7.6117
-0.0717518
-0.0395892
0.0122164
7.61634
-0.349969
-0.0220108
-0.048134
0.0250036
-0.624362
-0.0282109
7.59484
7.61397
-0.748263
0.0231537
-0.000337633
7.90967
7.5168
6.37374
3.25595
7.87369
7.61918
7.87405
7.87439
7.87511
8.30285
0.0363765
-0.0720069
0.0312485
6.96796
-0.0923353
7.87364
0.0117103
7.87119
7.87987
7.615
7.71261
-0.104122
7.69302
7.60833
7.87205
0.0187829
7.87056
7.8718
-0.0542248
7.8291
5.75171
4.92661
4.58662
7.87593
4.80678
4.64555
4.75453
5.45871
7.61369
7.61403
0.0130401
-0.0119254
6.95904
7.13881
7.60981
0.0079543
8.19107
7.71403
-0.0998631
7.87473
7.87227
-0.0360784
-0.0871055
7.83744
7.61516
-0.0305017
7.03262
7.60721
-0.403975
0.00878697
0.0531955
7.81194
0.0235885
7.87403
0.0166527
-0.395028
0.0182741
7.87256
-0.388947
0.0228498
7.96729
-1.04278
7.86451
0.0221324
7.53099
0.0290987
7.80429
-0.0465265
7.87373
7.57419
7.61564
-1.46674
-1.47407
7.88507
0.0114599
0.0135657
7.91842
7.87218
-0.00402047
0.0242564
-0.121324
7.87955
0.0169528
0.0113053
-0.049913
-0.852695
7.87526
-0.169019
7.62282
-0.150008
7.87126
-1.73129
-2.0079
7.85288
0.023374
7.6768
-0.0428772
7.61292
7.85708
7.88551
7.88989
7.8509
7.85847
-0.000527594
0.0299828
-0.153939
7.88205
6.3487
-0.141875
7.88033
7.82847
7.90568
7.86591
7.90506
0.0230598
7.87264
7.87375
7.61381
0.0160998
7.85802
7.61424
7.54131
0.0371872
7.61472
0.00912164
-0.782505
-0.0505061
0.0348007
-0.0147638
8.2213
7.87767
7.87097
0.0700151
0.0315337
7.5443
6.30985
0.0109329
7.87204
7.87489
-0.131759
7.8636
0.0178084
7.87484
-0.0117789
-0.0544319
7.88102
7.61333
7.87439
7.87433
7.86976
-0.0235138
7.87105
0.0121858
7.94357
7.87499
0.0249704
7.60806
0.009469
7.77505
7.87172
-0.0109457
0.0325452
-0.117387
7.87334
7.87372
7.87249
0.0310816
-0.0861379
7.95118
7.61309
7.64277
0.0140854
7.86605
0.0161769
-0.132916
7.8717
7.86827
0.0230586
7.86594
7.64536
7.61485
7.95947
7.61493
-0.151107
6.21741
7.63924
7.8727
6.38019
7.86792
6.60186
7.84701
7.86693
7.73028
0.0193734
7.78988
0.0121422
7.86144
7.86721
-0.05246
0.006642
7.86255
7.8267
7.87437
0.027424
6.70297
7.87385
7.73336
7.87055
0.0198836
7.86379
-0.178059
7.87354
-0.00808618
6.91918
-0.0252538
7.88949
7.86977
0.00709415
6.54625
7.8799
0.0296891
-0.00606437
7.89186
7.87439
-0.0163708
-0.0522677
0.0215528
0.017851
0.00815593
-0.00509251
0.0232166
-0.0373961
7.94885
-0.187953
6.25878
6.14439
7.87336
7.87145
7.87014
0.0359566
7.87408
7.86715
7.8743
-0.120528
-0.0411347
5.95022
-0.0369991
7.8751
-0.0176784
7.61245
-0.0580998
0.0237845
6.33238
0.00421084
7.86634
7.84595
7.61445
0.0421044
-0.00933536
7.87266
7.61457
0.0325512
7.87315
-0.131802
7.91407
-0.0807143
7.8715
7.61494
7.85196
7.6138
0.0254404
7.61403
0.27475
7.61652
-0.00310474
7.87252
7.86894
4.31326
3.98854
7.89081
7.86935
7.87188
7.87238
-0.005595
-0.140342
5.21318
7.87621
0.00257543
7.61233
7.62405
-0.427605
0.0142452
-0.0661458
7.61505
0.0264258
-0.0192834
0.0272972
0.0165241
7.87207
7.87464
7.87886
7.87532
7.61483
7.61374
7.61448
7.84045
7.61538
7.61468
7.87177
7.6144
-0.106591
7.61369
7.8726
8.61712
7.87367
7.87284
2.70742
7.6138
7.87176
-0.00346822
-0.0921399
7.84881
7.85079
7.87242
0.0203649
7.64902
7.85974
-0.106804
7.61542
7.87323
7.86806
7.87593
-0.0458794
7.61377
-0.173251
7.87597
7.85675
7.87134
7.8721
7.86995
-0.102497
-0.141125
0.0225977
7.87392
7.63806
7.90863
-0.123492
7.87227
-0.136342
-0.0794602
7.61232
7.84311
5.94052
-0.403817
7.85549
7.01725
-0.391108
6.01945
-0.00963122
7.64679
-0.0381365
5.98632
5.61309
7.87155
0.0013203
7.61538
-0.0116119
-0.053544
7.88151
0.000142719
-0.281575
7.86968
-0.0669299
7.61656
7.85662
7.8655
7.85252
7.86788
7.61229
7.87215
7.87128
-0.151587
7.10734
7.87232
7.86944
7.87117
7.87525
0.0210295
4.04156
-0.130022
-0.303943
7.87151
0.0159586
0.00517177
7.87229
6.99503
7.78966
7.86244
7.89962
7.96241
6.43328
7.16592
-0.0332455
7.87409
7.87715
6.09859
6.63854
7.6136
-0.00463531
7.88075
7.6282
7.87373
-0.0776862
7.8757
7.61374
-0.0144507
7.61439
7.57508
7.76508
7.91944
-0.0144512
7.87339
7.87188
7.87183
7.84421
-0.0135934
-0.0640508
-0.0550079
-0.00104912
-0.0291026
-0.0374972
7.61504
6.54464
-0.162047
-0.0307761
6.53455
-0.149205
7.86775
-1.08613
7.63612
-0.0872799
7.87438
7.61881
-0.0297901
-1.39897
7.87708
-0.0310422
7.87565
7.87556
-0.0936087
-0.0535152
7.87181
7.61422
7.91749
7.61371
7.86933
6.85957
7.87309
7.87125
-0.0313816
7.87264
7.8679
7.87085
-0.0226521
7.88428
6.90169
7.61455
7.61384
7.30022
6.92211
-0.0242053
7.61821
6.93089
0.00709223
7.86562
-0.0407025
-0.0235941
7.87424
0.00199696
7.87074
7.45603
7.9342
6.78561
7.61683
7.85072
7.86464
7.87517
0.0219715
7.87418
7.8726
7.87083
7.73525
7.87173
7.7858
-0.113781
7.87172
7.87655
-0.0677603
7.87282
7.61476
7.61394
0.033494
7.87428
-0.160967
6.70411
-0.382462
0.0159082
7.61095
6.53929
0.00955953
6.26889
7.61503
-0.196127
-0.377741
-0.00277181
-0.0549494
-0.258319
-1.16721
7.63888
7.6196
0.0101616
-0.099626
-0.081966
0.0190478
-0.396352
7.61264
0.0203256
0.000328127
0.00676844
7.6173
0.00937321
0.0228743
0.0247657
0.00608343
-0.121208
0.0168023
0.0430372
-0.00267268
0.0075795
0.0275537
0.0127602
6.91539
0.0912469
0.006262
-0.000201302
-0.0231872
0.0236381
0.0143244
0.0123117
7.07619
-0.112615
7.02479
0.0361422
0.0124139
-0.0484468
0.00421167
7.01353
7.61222
0.014526
0.0168435
-0.125451
-0.0620153
0.0251752
0.00096406
4.82838
0.0106181
7.87171
0.00153965
-0.111277
-0.046298
0.0321456
-0.139225
-0.174073
-0.000747563
0.00776567
-0.00119906
0.0328071
0.00320749
0.123718
6.13902
5.39472
0.00340826
7.87625
7.87239
0.00299685
0.0235717
0.0236024
7.8735
-0.0710057
-0.0546348
0.019062
5.58458
7.8712
-0.213411
0.00865405
-0.117701
7.87482
0.0300879
7.87146
0.00967205
-0.00339971
-0.0448805
-0.044046
7.87207
7.87365
-0.0357327
0.0141179
0.0290593
7.86509
0.00993528
0.0290397
-0.0246218
7.62195
0.034039
0.0487586
7.00686
0.0242663
-1.50072
-0.104099
7.58219
-0.0605021
-0.100994
7.87161
0.00433786
0.018279
1.39243
-0.012045
0.0103153
0.0235056
0.0231872
-0.0328156
-0.0228619
-0.233777
-0.108724
0.0340309
0.0228196
-0.0131383
-0.175105
0.0223349
-0.0184752
0.061072
0.0162442
-0.158645
0.0409289
7.87166
-0.000991602
-0.0109872
-0.104126
0.0393715
-0.0391353
7.64142
-0.00317736
0.0258234
7.86705
-0.0730162
-0.00875653
-0.00321208
0.00396874
0.0230692
-0.044636
0.0143271
-0.0155409
-0.0515657
7.87127
7.87194
-0.0475719
7.61858
-0.0442735
-0.00285671
7.70601
0.0230357
-0.0186491
0.041893
7.87086
0.0274834
0.0125685
-0.0612191
-0.142218
0.0220387
0.0456679
0.0102204
-0.00787553
7.87188
7.85518
-0.0945207
-0.0307284
-0.057122
0.0224634
7.85487
-0.0315349
0.0173877
7.70648
0.00269545
0.0123994
-0.0832502
-0.217059
-0.029138
-0.0369051
0.0393636
-0.00465219
7.62354
0.0048344
0.00455699
0.00180736
-0.201262
7.85607
-0.0203573
8.0131
7.87279
0.0137619
-0.0106437
0.00712034
0.126064
-0.116404
1.48791
7.61661
-0.0296417
0.0275002
0.0674662
0.0109765
7.87942
7.61615
7.60565
-0.000172869
0.00479247
-0.22769
0.0265476
7.62705
7.85938
-0.00775518
0.00769361
-0.0412316
0.0152636
0.0102058
0.0312759
-0.0484481
4.37399
7.61356
-0.00260842
0.0233239
7.85888
-0.00275617
0.0267932
-0.073578
0.0125696
0.0115379
-0.0402376
7.85902
0.027548
0.00803171
7.61697
7.64353
0.0289577
0.0798594
0.0143263
0.0215175
0.0200957
0.0148811
0.0340401
0.0313458
0.0267107
0.014675
7.85483
7.84728
0.00998447
0.0318078
0.019125
-0.0984786
0.0227693
-0.00119818
-2.47552e-05
0.0254778
0.01905
7.61671
7.62419
-0.112716
7.85358
6.86176
0.0149962
0.0213443
0.0027489
-0.0939725
7.16371
-0.0331429
-0.0799687
7.29478
-0.101459
-0.207947
0.0222449
0.0244109
0.0202535
0.0295086
-0.143237
0.0213605
7.87226
7.23776
-0.07816
0.030299
0.00670741
0.0271356
-0.106663
-0.0312296
-0.108577
7.26388
0.0273025
0.0537344
0.0160924
-0.122027
-0.035036
-0.0939141
-0.201307
0.00489992
0.0230206
7.15555
-0.00247252
0.0286464
2.78951
6.7918
6.24083
0.0397267
6.6365
0.0137118
0.0253353
0.00715081
0.0247338
-0.10628
5.04412
3.04425
8.06279
6.72948
-0.0456381
7.61367
7.61339
-1.2779
7.86988
0.0297418
0.0131766
0.0193446
0.0239272
0.0246713
0.00746375
6.26909
0.0237449
0.0258959
-0.0295273
0.0165314
0.0361996
0.0156338
7.61379
-0.204125
0.0312399
-0.0942327
7.61379
-0.0068743
-0.0034814
7.61368
7.86424
-0.0788893
0.0205217
7.90767
0.0142599
0.0185989
-0.0816658
7.87286
7.61373
0.0207637
-0.207051
0.0247663
7.6138
7.59898
7.6138
0.00155831
2.55184
2.32231
-0.000458804
-0.367636
7.88059
0.0276463
-0.344854
0.0206883
0.0240214
0.00758132
0.0214155
-0.501584
0.0287653
7.66394
0.0122768
0.0405912
0.018075
0.0219513
0.014734
0.0358099
0.0178096
0.0104986
0.0298602
-0.0611629
-0.385171
0.0138885
-0.0833679
-0.131325
-0.456019
0.0105286
-0.369837
0.0201774
0.0304931
0.0234767
0.0401637
-0.0521208
0.0353875
-0.375819
0.0241834
7.47145
0.0121544
3.81497
0.0152902
-0.0043993
7.61766
-0.0146747
7.47093
-0.00238924
7.499
7.90438
0.0449109
-0.0253604
6.84758
0.0242424
0.0219907
-0.0222177
7.86018
7.87342
0.0167443
0.00216103
-0.180693
0.017431
0.0330541
-0.0226939
-0.0628465
-0.00618766
-0.0154338
6.50801
0.0117065
7.61341
7.80814
0.0323499
0.030882
-0.0951058
0.0316239
0.0323935
-0.00779901
-0.0212484
7.78151
-0.110104
0.0214292
-0.0109417
7.79393
7.8794
0.0117177
7.76706e-05
6.15968
-0.0401737
0.0290514
0.00257558
-0.134995
0.0335073
0.0243111
7.86358
4.57468
0.0232137
-0.0726416
7.68151
0.0413679
-0.0467549
-0.0112585
-0.118454
0.0181596
-0.148625
0.0114216
-0.0366362
4.83353
-0.0470691
7.87343
0.00162292
-0.0185394
0.0311842
0.0097747
6.57418
0.0142986
-0.0788123
-0.0119209
-0.107982
7.42308
7.61391
0.0310508
-0.0720926
-0.00237888
0.0060494
-0.040533
0.0228395
-0.00211476
0.0100768
0.0417859
0.0261978
-0.0487402
7.03331
-0.130701
-0.0213841
-0.000757741
-0.0395966
7.22837
7.61346
-2.38238
-0.114015
8.15514
-0.14052
-0.023054
7.37022
4.99882
5.45779
-0.0430546
0.025239
0.175908
5.84031
-0.075185
0.0326655
7.6164
0.227712
6.88667
-0.0116172
0.0231001
7.64743
-0.0278033
-0.0244741
-0.0282608
0.0280843
7.61324
-0.266986
-0.0390772
-0.0750596
-0.0187708
-0.0182082
-0.039272
-0.00784601
-0.174823
-0.0215226
0.0223292
0.0247411
7.87221
6.44696
6.55641
7.72709
-0.0292467
0.0268736
0.0327323
-0.0623636
0.0217012
0.0308903
-0.00436242
-0.0186441
-0.0148365
0.0257381
-0.0128059
-0.0842632
0.00476538
0.0261421
7.87258
-0.0408986
-0.0593719
-0.0154256
-0.00887422
7.61015
0.00302548
0.00552474
0.037297
0.00448697
0.014678
7.63314
0.0254439
0.0147743
6.87788
0.0258963
-0.00953083
7.72106
0.00063786
7.71268
7.61193
0.00451398
-0.0602691
-0.00526954
0.0160467
7.61653
0.0354706
-0.0375772
7.6163
0.0315534
0.0141655
0.0198437
-0.011005
7.75241
-0.0310528
-0.0256616
0.0113084
7.69606
0.0474965
0.0210888
-0.000642675
0.0283702
0.014375
7.90072
7.45471
7.06065
0.0265087
7.19047
0.0303041
0.0168814
0.0255921
7.83624
0.0220009
7.65669
7.87317
7.80911
0.0123312
-0.0125539
-0.207413
0.005019
0.0355467
7.5166
6.88369
-0.0389852
-0.044111
0.0379207
-0.164919
0.025883
-0.399751
7.87542
5.73677
5.8495
7.61262
5.92517
0.0181976