/*--------------------------------*- C++ -*----------------------------------*\
  =========                 |
  \\      /  F ield         | OpenFOAM: The Open Source CFD Toolbox
   \\    /   O peration     | Website:  https://openfoam.org
    \\  /    A nd           | Version:  10
     \\/     M anipulation  |
\*---------------------------------------------------------------------------*/
FoamFile
{
    format      ascii;
    class       volScalarField;
    location    "21";
    object      SgP;
}
// * * * * * * * * * * * * * * * * * * * * * * * * * * * * * * * * * * * * * //

dimensions      [1 -1 -3 -1 0 0 0];

internalField   nonuniform List<scalar> 
111485
(
1.03479e-09
0.000121134
2.81496e-05
5.50579e-11
8.55683e-06
3.18836e-08
1.51753e-05
2.51282e-07
1.04932e-05
2.9454e-06
2.56058e-05
9.15235e-07
6.8538e-06
0.295306
6.7341e-06
1.61082e-05
0.208976
0.00105422
8.79087e-07
4.80309e-08
0.0372282
3.20796e-09
3.16216e-06
1.13454e-05
4.0983e-05
3.512e-08
5.92676e-07
1.4629e-05
1.06392e-06
0.0481645
4.316e-06
5.0466e-07
2.18023e-07
1.47089e-06
0.000743755
9.16883e-05
0.136585
0.205702
0.00246204
8.964e-07
0.0435126
1.20631e-06
3.00052e-06
0.00010799
1.87424e-05
1.58763e-06
6.57051e-06
4.40723e-07
6.19262e-06
4.29366e-07
1.09543e-06
1.73319e-05
4.63185e-07
9.93995e-06
1.50642e-06
1.75671e-07
2.79976e-06
4.42666e-08
5.06046e-05
3.87963e-07
5.81105e-07
2.65398e-07
8.6437e-05
7.1238e-06
6.51613e-06
2.13934e-05
0.00042637
2.38322e-06
7.17334e-05
0.000142656
4.93735e-05
8.74181e-05
1.12521e-05
9.24799e-05
4.65626e-08
1.79719e-06
1.5447e-08
7.20994e-07
2.84257e-08
3.13072e-05
0.280876
0.526215
4.6508e-08
5.24394e-09
1.59761e-05
3.8099e-05
0.143607
9.21799e-06
0.000247708
4.41928e-06
1.36378e-06
6.61624e-06
4.65412e-05
4.75863e-07
2.31983e-06
6.69949e-09
0.027075
1.18875e-05
0.00153708
0.000576784
1.38985e-09
2.63044e-06
1.96468e-06
1.43952e-05
6.1319e-06
1.64787e-05
5.95212e-09
2.80839e-07
1.51859e-05
0.000729133
4.21859e-05
1.38007e-06
1.32788e-05
7.42165e-05
1.02761e-07
1.71027e-07
3.05911e-08
6.54968e-06
2.31436e-05
5.1295e-09
9.15899e-08
0.000189918
0.0752295
2.26721e-06
5.82296e-05
0.0280369
0.000107087
1.33913e-05
2.93591e-10
0.000322624
0.000137357
1.76326e-05
0.0472224
0.000175252
7.81652e-05
8.45949e-07
1.00281e-09
3.20534e-07
9.64394e-06
2.45761e-05
7.14982e-05
3.42386e-07
0.180283
9.91377e-05
4.12367e-05
2.40594e-06
1.70483e-09
9.02215e-10
4.76331e-08
5.10271e-07
3.35258e-05
0.0285591
0.115567
1.41361e-05
3.54016e-05
5.73141e-07
5.66564e-06
0.000154382
0.000822811
5.43887e-06
9.61458e-10
7.30212e-07
4.0319e-05
7.41903e-05
6.38719e-05
3.85411e-05
7.30399e-06
0.0270621
0.00156432
0.000127247
1.57695e-09
1.52431e-08
0.197939
1.01554e-10
2.67796e-07
2.83667e-06
5.25049e-07
9.58926e-06
3.59538e-08
5.81891e-06
9.87144e-06
3.71573e-08
2.65475e-06
5.08596e-07
2.37277e-06
2.06003e-05
9.8535e-06
5.55961e-05
0.000386765
1.78921e-07
5.44335e-05
5.76603e-06
7.13855e-06
3.74325e-05
5.10659e-06
1.21029e-05
2.08943e-06
1.39595e-06
8.46398e-07
8.90654e-06
2.98045e-06
0.00166396
8.07563e-05
9.3298e-07
1.82985e-06
4.10999e-06
1.25345e-05
1.18442e-05
1.82705e-05
2.45368e-06
5.66905e-06
9.88288e-06
8.64287e-06
7.79276e-09
7.04593e-05
0.000311873
4.53158e-07
7.64745e-09
1.2028e-05
1.77199e-05
8.65887e-07
8.33617e-08
1.62486e-05
1.65729e-05
0.000277935
6.92806e-09
4.26998e-10
3.15173e-05
0.00417788
2.35584e-05
9.36213e-05
1.39307e-05
2.3713e-06
0.146083
3.87037e-05
2.08415e-05
0.160866
4.66866e-08
6.18573e-05
2.21805e-05
2.70798e-05
3.30377e-05
4.84686e-06
3.89607e-06
0.0019486
9.41514e-07
7.83618e-06
1.20445e-08
5.10136e-06
0.136531
1.82211e-05
1.09143e-05
2.19926e-05
7.90615e-10
0.000193182
4.6865e-07
2.7805e-07
6.68099e-05
0.0997029
1.85611e-08
4.65554e-06
5.47541e-05
2.51904e-06
3.36653e-09
1.20224e-05
6.44863e-11
6.09325e-08
5.10282e-07
0.165023
4.34751e-06
3.23369e-05
1.39371e-06
0.177367
1.98274e-05
1.4187e-06
0.000255665
4.72763e-06
1.18867e-06
4.52098e-07
5.3672e-09
0.111602
4.27919e-07
4.02492e-05
2.09383e-05
1.91329e-09
0.217652
0.265878
1.57705e-06
0.000319957
3.12707e-05
3.1713e-06
8.90109e-06
1.19404e-05
2.02565e-08
7.48569e-06
3.01406e-09
0.000360954
0.000274579
1.55171e-05
1.68336e-06
0.346622
1.77331e-08
0.0859473
9.97808e-07
7.76232e-06
3.00677e-09
1.1507e-07
0.0246338
4.86498e-06
1.52279e-06
5.93401e-06
0.000171444
7.71348e-07
3.0503e-05
3.0609e-08
3.53395e-08
5.45522e-06
0.00443851
0.250238
3.40163e-06
0.000791248
1.76943e-09
8.68512e-09
1.4069e-08
8.46422e-05
5.66259e-07
5.84778e-07
2.17167e-06
8.76146e-07
7.15956e-05
0.0608314
5.55782e-06
1.24777e-07
1.89794e-06
2.29891e-06
0.048243
4.99903e-05
7.37107e-07
7.26873e-07
7.88518e-07
1.3515e-05
7.03893e-08
0.151213
0.000173272
8.53157e-07
3.17335e-06
0.000304361
4.76498e-07
0.0390795
5.37995e-07
1.07564e-05
6.17396e-06
3.91511e-07
2.02016e-05
9.10008e-06
1.97796e-07
5.46479e-07
7.13805e-07
1.76759e-06
0.362108
2.98018e-05
1.72445e-07
0.0529377
1.65304e-05
1.74878e-08
4.07773e-07
3.77836e-07
0.0469396
0.000622486
0.0459182
0.0496133
2.82476e-07
2.49135e-08
2.80313e-06
4.01987e-06
4.23857e-10
7.73937e-06
3.03834e-06
1.58637e-05
2.64622e-05
0.000141406
5.60697e-06
0.000708543
4.76686e-07
8.18559e-06
4.32259e-05
1.16189e-06
0.000673011
3.89192e-07
1.47248e-05
2.83395e-06
0.0303327
1.17363e-07
2.0848e-07
0.154718
4.76719e-06
0.306373
6.50268e-08
4.6681e-06
3.53939e-06
7.59811e-09
5.17038e-06
4.61726e-05
3.75294e-09
0.0320546
3.18092e-06
2.83998e-06
4.53916e-07
2.6177e-08
0.00075742
3.77022e-09
1.03662e-05
3.62034e-06
4.35602e-10
1.13571e-06
3.88233e-05
0.246731
0.000135012
1.95312e-09
7.9572e-05
0.000102722
9.92894e-05
3.90797e-05
0.000631576
2.38703e-06
0.00112418
5.60903e-05
0.204782
0.000200292
4.58731e-08
7.41319e-06
1.0578e-06
2.03862e-07
0.00141879
0.000222139
8.31194e-05
1.48883e-06
1.37726e-06
9.58249e-06
3.68951e-08
0.351439
8.3792e-07
3.36367e-05
0.00438528
9.16035e-05
0.00127382
3.56719e-08
0.253442
0.332294
2.5688e-08
3.54994e-05
0.000262353
0.000103501
4.06172e-09
3.01413e-05
3.58611e-09
0.284929
7.23594e-05
2.12812e-05
0.00010827
2.11048e-05
1.9362e-07
1.76901e-06
4.99863e-07
6.95041e-05
1.54632e-07
5.98529e-07
0.0524238
9.61268e-05
4.04053e-08
1.56663e-09
0.000385008
8.46648e-08
1.60225e-06
3.63718e-06
2.74482e-08
6.14467e-05
6.72988e-08
0.0741857
6.94775e-08
1.65993e-06
3.69024e-08
0.000238999
4.296e-07
0.224018
1.97769e-05
0.236899
9.44881e-09
6.67507e-05
2.58595e-06
2.67477e-09
0.369635
0.14315
2.62486e-05
3.05587e-06
3.06285e-05
6.39426e-07
1.19494e-05
7.89435e-07
4.59748e-05
0.289745
2.54811e-08
2.41173e-06
0.000108399
1.78031e-05
0.0590205
5.67126e-06
0.00011498
2.45348e-06
1.38064e-06
0.000782756
0.0819102
1.77843e-05
2.14886e-08
1.31542e-06
3.48898e-06
3.55122e-06
1.14333e-06
1.96448e-05
1.75359e-09
0.00169563
1.70579e-07
3.53808e-07
1.78843e-07
9.56365e-05
4.28239e-09
1.0031e-05
3.02332e-08
9.29047e-06
1.95422e-09
0.116229
0.114653
1.99864e-05
1.16756e-06
0.06521
0.081338
4.76316e-08
2.54662e-07
1.50832e-05
4.52608e-08
0.000173471
1.79211e-05
1.0962e-05
0.0426685
1.68953e-06
2.39648e-09
4.69106e-05
4.6849e-05
6.27129e-05
1.62887e-06
1.58425e-05
1.03695e-05
1.18452e-06
9.77099e-07
2.11758e-05
3.38361e-05
2.53456e-09
0.126526
6.73664e-05
4.33728e-05
1.34644e-06
0.00118847
3.20027e-05
0.000463994
0.00302039
0.000385447
4.16661e-06
8.64358e-05
1.15977e-05
2.11663e-05
0.115017
0.000211697
7.4393e-05
0.00358793
0.0770261
3.16144e-08
6.60394e-05
4.58807e-06
4.07228e-05
3.69113e-07
0.000517153
0.00274565
0.000436056
0.000167213
2.66699e-05
2.35839e-06
5.55203e-08
0.000198697
3.45782e-06
2.90698e-08
5.58242e-10
5.45331e-08
3.21369e-08
9.94833e-06
1.79328e-09
0.0347665
1.27971e-05
2.5556e-05
0.0989201
0.319303
6.03575e-05
3.03801e-06
0.0371647
5.5211e-08
1.8702e-05
1.87479e-07
1.9085e-08
4.77833e-05
2.36771e-05
0.121396
2.64565e-05
1.58966e-07
2.6936e-06
2.8774e-05
0.143778
7.07879e-06
2.7516e-05
7.05911e-05
0.196856
0.0415349
2.83976e-06
1.77184e-05
5.96382e-06
2.40872e-06
6.03239e-06
1.07555e-06
3.18589e-05
4.20003e-06
2.16672e-06
1.14096e-06
4.39882e-06
0.0006601
3.24842e-05
4.24836e-06
5.04722e-06
0.000659857
3.91568e-07
5.153e-07
1.81151e-05
3.07105e-06
1.65611e-05
2.98777e-06
3.26805e-06
3.42959e-06
3.28124e-05
0.000197877
1.25893e-05
1.84262e-05
3.11628e-06
4.65539e-07
4.47442e-05
4.4556e-06
4.11199e-09
0.0777401
1.61618e-08
0.136766
5.87781e-05
0.0117589
8.03053e-08
0.0294841
1.44103e-06
1.13313e-05
1.34539e-09
7.20068e-06
3.01208e-07
1.65481e-08
8.16934e-07
0.282797
0.000130715
2.95599e-05
0.0412024
1.04702e-07
2.86348e-09
3.73657e-06
1.8991e-06
8.36373e-05
5.3546e-07
0.000128414
6.47507e-08
7.3621e-06
0.000125321
0.16826
6.54004e-10
4.62781e-09
3.32847e-06
8.42852e-07
0.000132809
4.11394e-07
0.0630967
1.19428e-06
2.65829e-08
1.23043e-07
0.0455795
6.48376e-06
0.000139509
6.19421e-10
0.00504306
0.00104715
0.182251
1.61182e-08
1.88137e-08
3.58616e-06
2.28656e-05
3.95753e-05
0.000586272
0.000331459
0.000260024
5.0129e-06
0.0635579
2.69045e-05
8.06116e-07
6.88114e-08
1.20315e-06
1.36902e-08
9.2379e-09
7.7012e-08
9.20289e-10
3.39245e-06
7.12767e-08
1.95785e-08
3.27146e-07
2.09865e-07
1.65396e-06
1.0738e-07
5.82479e-07
2.82622e-07
1.50246e-05
1.6713e-05
2.69751e-08
7.40517e-09
2.23402e-05
7.96989e-10
9.18248e-05
2.11993e-06
5.39133e-06
1.24166e-07
1.25376e-10
9.50548e-10
1.59095e-09
1.5659e-05
1.87009e-08
6.59109e-08
2.10494e-05
4.79837e-09
1.40854e-05
8.24917e-05
2.34987e-06
1.72005e-06
0.000527716
4.59422e-06
0.25225
0.000111242
8.28495e-06
0.209856
8.25152e-05
6.17674e-06
2.86972e-05
9.67949e-07
2.03395e-05
0.0890299
0.000706589
6.21174e-07
3.86867e-08
1.27728e-05
8.00901e-05
9.9552e-05
9.23086e-05
1.86025e-09
1.56306e-10
1.31291e-06
3.8653e-05
9.37158e-06
3.91551e-06
0.00020677
3.42138e-06
2.99754e-05
1.35893e-07
1.53155e-08
0.0335497
8.16993e-06
3.62282e-07
2.79182e-08
4.98233e-05
0.000131446
1.78461e-06
3.46978e-07
0.0407249
1.55737e-09
2.74575e-05
0.0639476
9.86905e-09
0.0726373
4.30377e-05
0.0371827
0.000610098
9.93155e-08
2.48527e-05
2.20438e-05
0.0458897
5.70629e-05
0.00131591
0.161793
0.000145208
1.14898e-05
9.99001e-07
1.48642e-06
0.487051
0.162147
4.30656e-08
0.241995
1.39163e-05
0.000162641
2.52808e-05
2.21187e-05
0.00121216
3.98049e-05
1.3986e-05
6.82124e-06
1.33898e-07
1.78873e-06
0.0457751
8.1795e-08
5.56686e-05
2.81847e-05
9.77816e-08
3.96993e-06
0.217559
4.4664e-06
2.95443e-07
0.000645179
1.54899e-08
4.0576e-06
0.212576
2.29536e-08
0.178062
0.342796
0.00135162
1.77801e-05
1.0975e-06
3.78016e-06
6.30679e-05
0.000225293
0.00120166
0.000317513
4.29468e-06
0.0454933
0.000111891
8.86809e-10
0.000304269
0.00029902
0.000612109
0.00046716
0.00086452
0.000171693
9.79417e-10
6.8842e-05
1.02024e-06
4.12512e-07
0.00170986
0.34992
1.74872e-07
3.29122e-08
0.00324358
0.00330037
3.11845e-09
0.000605732
8.69488e-08
1.58036e-08
1.25046e-08
4.49464e-07
5.06884e-06
1.65649e-07
7.83135e-05
0.052017
1.46954e-09
5.28162e-07
0.00451103
0.116127
7.50797e-05
7.87982e-07
0.0326817
1.04171e-08
0.000134191
4.15916e-09
2.29576e-09
0.000574536
0.130103
2.56844e-06
5.87696e-09
6.72322e-08
0.0358262
1.83414e-08
0.0232182
4.72993e-08
0.000104019
6.73351e-09
0.001962
3.18524e-06
2.74073e-09
7.57309e-07
5.60187e-07
0.00140788
6.27223e-07
2.36624e-08
2.09005e-06
0.00444647
0.0542873
7.24917e-05
0.000613627
0.00107069
4.31265e-08
0.00132728
1.03072e-05
3.44121e-07
3.55513e-06
0.000216224
2.26551e-05
1.17667e-07
9.55401e-06
0.000150912
1.00707e-07
1.3687e-06
7.54974e-07
1.65409e-05
0.0733956
1.34508e-09
8.94856e-07
0.0610986
0.000121882
7.74341e-05
5.46456e-09
8.87525e-07
2.08445e-08
1.13778e-06
2.74621e-05
5.34211e-05
5.53239e-07
3.02378e-05
2.76445e-05
8.32708e-05
1.68948e-05
7.1459e-09
3.82975e-06
1.672e-09
4.99815e-07
6.71092e-05
0.00018569
3.12554e-08
5.06904e-07
4.57713e-06
1.74776e-10
4.79866e-05
4.46745e-07
7.3045e-05
0.000841243
7.54242e-05
1.47361e-08
0.00139671
0.000119473
6.33132e-05
0.000159485
4.70809e-08
0.000164183
2.57743e-06
0.117441
3.49364e-05
9.77998e-05
6.24921e-08
6.63902e-10
2.34406e-08
0.18685
0.0750525
4.47134e-05
6.76868e-10
0.000140658
2.99794e-08
0.173624
0.000159861
7.64857e-07
9.21388e-08
3.41967e-06
6.17399e-07
9.00739e-05
2.13448e-06
0.000123191
0.313348
4.18726e-06
7.22223e-05
3.35071e-05
7.13561e-05
5.18292e-05
3.2638e-08
3.46436e-10
2.84341e-06
3.67318e-05
8.19062e-09
2.0227e-07
0.000610297
4.59584e-07
1.44307e-06
0.423641
1.76354e-06
6.86196e-05
4.0087e-10
3.3413e-06
2.64405e-07
0.331804
2.73769e-09
0.119365
0.00554292
0.00013772
1.72365e-05
1.58007e-05
0.000947969
2.57555e-06
3.35614e-06
2.31483e-06
1.0293e-06
6.21555e-08
1.86928e-06
8.5967e-05
2.40158e-06
0.0709286
2.76422e-07
4.36245e-06
0.000308675
2.06908e-09
0.000384892
8.60579e-08
3.98017e-05
0.000830987
6.86528e-08
2.11024e-06
7.05032e-05
5.52035e-07
9.44117e-06
0.182562
7.96665e-07
9.94906e-06
3.53875e-10
0.0467907
8.99667e-06
1.93081e-07
1.92712e-07
4.95112e-06
7.28527e-06
9.42481e-09
0.15241
1.49693e-06
2.0744e-09
0.000125505
4.0944e-07
2.62125e-09
4.58824e-05
0.0010205
0.000885876
8.47398e-09
1.12266e-06
4.64447e-08
4.9046e-05
5.06466e-05
0.034362
6.27319e-06
0.000916006
6.78302e-05
0.00117605
3.09405e-05
3.53024e-06
1.08896e-06
4.74809e-07
5.1678e-05
2.10162e-06
7.38987e-06
0.044094
0.000252345
0.0481492
1.2623e-09
7.96177e-06
1.17446e-07
6.06724e-05
0.000102511
1.19118e-05
4.91978e-05
0.000540646
0.00015172
8.24752e-10
0.00721722
0.00841595
8.73172e-05
4.76326e-05
8.44973e-07
0.000991481
1.68789e-06
2.88859e-06
1.381e-07
5.99133e-09
0.000253145
9.82345e-06
0.000998744
6.63373e-07
0.0476505
0.000672301
7.22842e-07
1.38696e-07
0.000582108
2.92015e-06
0.0557733
0.281971
0.000132576
0.000237369
1.63863e-06
5.2719e-07
2.16321e-08
1.38077e-08
6.26477e-05
5.03861e-06
0.0350812
0.055194
3.17728e-05
3.21546e-08
0.000323339
0.0418774
2.76764e-05
0.00115883
0.00261324
0.0443102
0.122291
0.0515431
0.000122889
1.15852e-09
0.00204141
6.6382e-07
1.63984e-07
1.94705e-07
7.51417e-09
2.87934e-05
4.06019e-09
2.15702e-09
9.21488e-05
4.93829e-08
6.69452e-09
9.56536e-07
5.59003e-07
0.0602227
6.46755e-06
3.08748e-05
0.0777495
0.263423
5.93204e-09
0.188676
0.000161916
0.392222
3.76272e-07
1.09459e-07
6.93294e-08
4.48822e-05
0.263254
1.74643e-09
0.00118596
7.35472e-08
3.98082e-06
1.638e-05
7.77917e-06
1.09643e-06
2.41583e-07
0.0791445
1.00323e-08
7.17659e-06
1.22423e-07
9.20845e-07
1.75444e-06
0.000460979
0.00012138
1.1644e-06
0.000391106
2.18417e-05
4.24091e-07
0.000143114
7.5149e-07
2.53165e-05
1.43251e-07
1.2917e-07
0.255578
0.0446882
0.000401029
3.33074e-07
6.29742e-09
4.478e-06
0.195344
2.56035e-07
1.16851e-05
4.90604e-07
2.96312e-06
2.49356e-09
0.0364603
0.0001114
7.58726e-07
6.19595e-07
1.77499e-05
7.90642e-09
0.181042
1.13029e-09
0.0406087
7.97587e-05
5.19988e-06
1.42178e-08
3.35602e-06
1.33343e-06
1.03056e-06
3.66953e-06
5.16587e-06
2.86281e-10
4.73545e-09
9.64635e-05
0.0820822
2.37456e-09
3.44216e-05
5.18971e-06
9.84107e-05
3.92304e-07
0.0492876
2.33938e-06
5.19003e-05
5.56012e-05
6.11071e-08
5.89107e-05
1.98242e-06
1.72771e-05
2.90033e-08
2.72652e-08
1.07749e-05
6.23761e-09
0.000184676
4.0199e-05
3.05758e-08
8.28324e-08
0.000135873
0.000549131
0.306854
1.18155e-07
4.98877e-06
1.84708e-06
0.000371317
0.000171572
2.73143e-05
8.34464e-05
0.08069
3.52468e-06
5.51834e-05
0.000835593
0.0681477
7.09283e-07
5.02418e-08
0.000426494
2.93452e-06
0.0424296
1.9129e-07
6.98763e-06
3.5198e-06
1.49848e-08
0.23213
9.83467e-09
1.70412e-07
6.33949e-07
2.75032e-05
0.310735
0.0585814
4.87782e-07
2.45411e-08
1.81597e-09
1.11227e-07
1.09185e-07
6.60687e-07
1.21146e-07
6.45468e-09
6.41376e-08
1.17591e-08
1.84922e-07
0.0642459
0.0380984
2.89237e-09
1.38366e-05
8.23028e-09
7.81295e-08
1.31226e-08
0.0373446
0.0824695
5.66221e-06
4.36667e-08
1.20684e-08
8.37179e-07
1.2894e-06
4.0863e-06
1.37246e-07
0.000334332
2.69106e-07
3.13229e-06
3.58054e-06
0.000190353
5.35129e-06
0.000806471
1.80341e-06
3.0252e-08
0.000494305
0.000453062
1.80738e-08
2.30823e-05
4.02229e-06
1.37509e-05
4.39576e-05
1.04904e-05
3.75207e-06
1.12669e-07
0.332443
5.03798e-07
4.03803e-05
0.0642749
0.000120198
1.22249e-05
1.50531e-05
1.67306e-06
2.37499e-06
2.28444e-05
6.72517e-05
5.75637e-05
3.37764e-06
4.55998e-05
7.58678e-06
3.93475e-06
2.17866e-06
5.49728e-09
6.45194e-08
4.72204e-08
6.73935e-10
1.78529e-07
3.45181e-08
7.42686e-06
1.92919e-08
3.24125e-09
1.84021e-07
1.73618e-05
4.36834e-09
9.80519e-09
8.24282e-07
1.12724e-06
1.01469e-06
8.69499e-05
6.5727e-06
0.247982
1.19621e-07
1.15814e-05
1.5625e-05
4.25686e-06
4.08111e-09
1.8097e-08
0.225224
5.62486e-07
6.04695e-09
2.35942e-06
0.22633
1.74729e-06
5.92055e-05
5.90683e-05
1.10087e-06
7.70225e-06
9.18427e-06
0.000387507
1.96517e-08
4.4143e-05
4.97173e-06
1.89216e-07
0.000322549
0.000397949
0.1972
6.80675e-06
1.37804e-06
7.73567e-06
3.85385e-05
1.61902e-05
1.97682e-07
0.00261849
1.1955e-08
0.000641197
0.000416372
0.0611282
1.00306e-05
0.259174
3.11641e-08
1.31345e-07
5.15252e-06
2.50566e-05
7.43017e-05
3.26867e-06
0.000117604
3.60737e-08
9.82052e-06
1.11821e-09
2.03255e-08
1.62585e-06
0.000492621
1.01048e-07
5.0531e-09
0.000423635
2.16997e-07
0.000550951
3.48164e-06
2.01273e-06
1.50349e-06
4.56725e-07
2.01065e-05
4.58341e-06
0.000205811
6.42537e-07
8.2862e-06
0.00331558
1.22088e-06
7.25453e-09
0.000157626
2.2492e-06
4.08403e-05
4.98718e-09
0.144402
0.000117092
7.19203e-05
1.78294e-06
7.3264e-09
0.000196815
4.707e-06
2.47766e-07
8.60801e-10
6.64599e-05
7.22654e-05
8.08039e-05
0.196692
2.91012e-06
6.09741e-06
0.000247138
1.00998e-05
7.38894e-06
2.69861e-06
8.89986e-05
3.61867e-06
0.000120462
0.184132
1.51019e-05
5.41617e-10
1.70489e-06
5.31775e-05
1.5077e-05
2.7362e-07
0.000460988
0.000887319
0.000486051
0.000879921
1.73833e-05
5.28716e-05
7.17593e-06
2.04625e-05
1.11521e-07
1.08636e-08
0.10227
0.000508984
2.8912e-06
0.00166551
5.16233e-06
2.46906e-05
0.000435584
4.34786e-06
2.26296e-06
3.23367e-06
4.09138e-07
4.22503e-05
3.01994e-05
0.000152641
2.85953e-05
5.58253e-07
6.44424e-09
2.82088e-05
9.83373e-07
2.03467e-08
0.00031327
3.01074e-06
8.05186e-06
3.81653e-05
7.5241e-06
4.06044e-08
0.000599882
0.138951
4.79129e-08
5.50305e-09
2.11708e-08
0.144867
0.247263
4.28412e-07
0.05336
5.39403e-06
2.04412e-05
8.00766e-06
8.37873e-06
1.18106e-05
1.38627e-05
3.01403e-05
0.118193
0.340654
0.392944
1.20579e-05
3.20158e-05
6.5704e-06
7.39753e-06
0.36161
1.40038e-08
0.175434
4.09209e-06
1.11033e-08
7.25915e-07
5.95791e-07
2.86176e-08
3.74682e-08
2.29456e-07
1.75014e-08
0.137216
4.45132e-08
2.90817e-05
0.000197371
2.2983e-08
4.56722e-06
7.35459e-06
6.37111e-06
6.52924e-08
0.000586938
6.44726e-06
8.57298e-07
6.91646e-05
4.25464e-06
3.11558e-05
4.65653e-06
1.18897e-06
5.26913e-07
2.02432e-05
0.00338783
4.82629e-05
8.94578e-07
1.38028e-05
8.35464e-07
2.53615e-05
0.000100883
1.20167e-05
2.22663e-06
5.45192e-06
1.15384e-06
5.80204e-05
1.26849e-07
8.16813e-06
0.0412348
0.000425445
0.3291
0.000775302
0.00011508
1.67309e-08
0.0615774
1.14155e-09
4.97172e-05
1.59834e-05
8.26637e-07
8.77022e-05
1.65502e-06
9.86506e-07
4.48695e-05
7.94835e-07
2.04443e-07
1.97401e-05
6.51264e-07
2.24162e-05
0.0789235
3.56219e-07
3.78525e-05
1.38787e-06
8.03482e-07
7.81236e-10
0.00026132
9.16353e-05
3.71169e-06
1.40339e-08
7.2699e-07
0.0444134
0.000212044
9.85681e-06
1.47069e-05
1.70132e-09
8.37063e-11
9.34231e-07
4.16186e-09
4.90344e-05
3.55579e-07
2.17529e-05
1.69811e-06
2.00698e-07
6.02956e-07
3.09196e-08
4.80611e-05
9.04834e-05
4.4127e-05
5.11553e-07
2.92442e-08
9.82513e-07
2.29519e-06
0.000536533
1.00114e-06
0.162035
2.18329e-05
2.9155e-08
4.16103e-08
0.000230827
1.28323e-05
0.00114242
5.21141e-07
9.88942e-05
0.234375
3.95672e-10
0.000334094
2.70517e-05
0.0425489
1.7619e-06
0.0475188
0.0831121
0.000119961
7.66635e-06
2.01602e-05
1.12977e-08
1.59661e-05
2.70983e-05
0.000379267
1.92587e-05
6.84149e-06
2.61068e-05
0.00043063
0.000345374
0.000514287
0.000130649
1.68081e-08
8.97842e-05
0.000890909
6.28631e-06
3.8952e-06
0.000249723
0.000214128
1.38087e-05
1.87438e-05
0.000265867
1.56889e-05
0.000381089
0.000250031
1.95157e-05
2.49427e-08
3.48946e-05
0.000420349
0.0669083
2.13464e-06
5.3078e-07
4.93912e-05
1.99735e-07
8.53399e-05
8.38051e-07
0.000396986
6.03005e-07
7.02469e-05
2.51806e-08
9.69913e-08
1.10608e-05
0.000924114
0.00120547
0.339012
4.16995e-05
2.04731e-06
1.86788e-07
0.000410558
2.34844e-05
0.0338013
0.07045
4.37046e-10
0.00078869
6.4518e-05
6.81105e-06
5.6504e-09
0.00114787
5.70538e-07
0.0427673
4.97121e-08
4.88094e-09
3.01477e-05
1.14403e-06
1.32323e-06
3.73704e-05
0.0395652
2.03813e-05
2.28588e-07
8.40451e-05
0.219169
0.043187
6.76589e-06
0.000284706
3.02744e-05
0.000579821
3.01874e-06
0.0374216
3.85647e-05
0.000186825
2.27591e-07
8.85024e-07
4.73895e-06
5.21868e-07
2.42059e-05
2.37193e-06
7.6994e-07
2.55251e-06
4.15403e-06
0.000101245
2.46264e-08
3.66728e-07
0.080504
9.76822e-09
7.74316e-08
4.335e-05
6.32252e-08
0.000183946
3.56113e-05
0.065806
2.3588e-05
0.261222
1.28642e-05
2.16594e-05
0.0399348
0.00015987
2.42666e-10
2.04921e-06
0.027994
1.58021e-05
7.90659e-05
1.69331e-05
1.65857e-07
7.05282e-06
7.47338e-06
8.51421e-07
0.12751
1.09508e-06
1.02734e-07
1.7686e-06
6.68363e-07
1.51192e-08
8.70581e-05
2.45484e-06
0.274209
8.18252e-05
3.54229e-05
4.62942e-05
5.85894e-05
1.67797e-05
2.9579e-06
1.50272e-10
8.95446e-07
7.41247e-05
2.15083e-05
6.58329e-06
6.92732e-08
1.13057e-05
1.24478e-06
4.03944e-05
3.21861e-08
1.37208e-07
1.23804e-06
2.86733e-05
2.19784e-05
3.31433e-05
2.90353e-08
2.26515e-08
0.00165795
2.22427e-08
1.40412e-09
2.76891e-09
1.46382e-06
0.308755
9.40231e-07
0.000115975
6.90935e-05
2.09875e-05
1.6608e-07
1.24881e-06
0.000226196
7.36947e-06
3.61187e-07
3.76103e-05
4.00314e-09
2.71016e-09
4.14925e-09
9.91025e-05
1.1197e-07
0.328858
0.000526729
3.54746e-05
0.00184069
6.82156e-07
1.71655e-05
2.4604e-09
0.0593012
8.24854e-06
6.22893e-06
1.55239e-06
4.11311e-07
1.61764e-07
0.481138
1.69076e-05
0.000437403
6.59801e-05
1.38517e-06
0.122408
3.1719e-07
3.20473e-07
4.99812e-07
7.21717e-07
3.54555e-05
5.01323e-07
2.44965e-05
1.80777e-05
0.000502924
3.61824e-06
4.92789e-10
0.000190408
3.7846e-07
0.15676
3.45191e-06
2.40983e-07
1.2522e-06
1.89572e-05
0.0606647
0.0297609
1.83837e-05
4.8549e-05
0.0905875
3.5545e-06
2.54612e-05
0.0472867
1.25363e-05
5.93774e-06
0.173137
0.0186496
1.04288e-05
3.34051e-05
1.5395e-08
3.85335e-05
0.00172368
1.03709e-05
1.13562e-05
0.000380071
1.28136e-09
0.0231319
1.03672e-08
2.88397e-05
0.194426
1.21955e-07
1.22088e-05
4.56053e-06
3.74867e-07
4.02664e-08
4.81984e-05
4.17509e-07
1.18479e-07
3.15649e-05
9.73443e-06
1.39909e-08
0.0232864
0.0440786
4.97737e-06
2.68948e-10
1.91215e-09
0.000143753
1.41343e-05
5.38925e-06
3.34744e-09
9.81877e-08
0.000132652
6.958e-05
4.75296e-05
8.33418e-05
0.363336
1.37064e-09
0.140765
1.76426e-05
6.82386e-06
0.056156
1.08583e-06
2.10858e-08
0.0228142
7.34673e-10
6.8403e-06
6.43207e-06
7.22107e-06
1.10223e-06
9.2589e-09
3.9381e-09
1.62993e-08
2.03817e-05
0.133916
0.212219
3.13703e-05
2.54596e-06
1.75136e-10
0.0557638
0.225377
0.000279601
1.03189e-06
1.46192e-07
0.000969342
0.000247098
2.38056e-07
1.32342e-08
2.17281e-06
7.99882e-06
3.69908e-08
1.10703e-05
6.98853e-05
0.0599693
0.204272
5.60852e-05
0.000858447
1.00163e-08
3.73731e-07
3.28623e-05
0.000180051
3.37043e-05
0.000430176
8.22607e-06
1.50596e-05
6.93234e-09
8.64302e-08
1.26607e-05
0.0582629
1.15655e-06
0.177693
1.9773e-08
1.21634e-05
2.36405e-06
1.66484e-05
1.06639e-08
1.256e-09
1.10152e-07
3.54231e-08
1.22011e-06
0.000327467
1.01922e-08
0.0373202
1.78833e-05
0.159152
1.94463e-06
3.01695e-06
1.65293e-06
1.97189e-06
1.33253e-05
3.07226e-08
2.38073e-08
1.33248e-08
3.31969e-06
9.55194e-06
0.0581554
0.0562951
5.19248e-06
1.00712e-06
5.99572e-09
2.41363e-09
2.48685e-08
1.72726e-06
0.000249901
2.0135e-07
3.65914e-08
3.5854e-09
0.0219394
2.67842e-05
4.4582e-05
0.040379
8.72444e-07
0.310668
9.93216e-06
4.39899e-07
4.25132e-10
2.5937e-07
0.0534635
9.61166e-10
2.28517e-05
2.24961e-08
0.000702875
4.50236e-05
8.46699e-05
0.000145896
2.92831e-05
4.0216e-09
1.58693e-08
0.358949
3.29828e-05
3.51132e-05
0.000234584
4.22372e-07
8.60195e-05
9.62092e-05
3.00293e-06
3.3001e-06
0.000303981
8.24286e-08
0.000717624
0.0391573
1.42568e-06
2.0646e-07
8.32758e-05
9.06665e-07
0.0340805
0.182032
2.16934e-05
9.1316e-10
0.00410932
3.42715e-07
2.22315e-05
1.56025e-06
0.000126749
1.1223e-08
0.000880565
8.7528e-05
0.000132289
2.14041e-05
0.000122963
3.05594e-05
5.35758e-06
7.60084e-10
0.000155758
4.75128e-05
5.83228e-05
6.65306e-07
9.66071e-06
0.000121728
0.000454288
9.44698e-09
1.88876e-08
3.48449e-08
3.49436e-10
1.27426e-07
0.02162
0.000405409
0.00014424
4.05341e-05
0.000206104
8.31804e-05
2.79301e-10
1.16236e-05
6.74341e-09
5.39043e-07
7.78667e-09
2.63108e-05
0.00204128
1.54742e-05
1.11496e-07
1.33137e-08
1.4997e-06
1.22526e-07
6.94266e-09
0.146416
9.25554e-06
0.000676081
0.00102837
0.000731948
9.01062e-09
0.000676555
0.000753637
0.00135749
0.000733714
2.72383e-09
3.92088e-10
3.42928e-06
8.68389e-06
6.8289e-05
0.000322153
0.0424202
8.31873e-06
3.29042e-05
4.47639e-06
0.000558745
3.40405e-08
1.22937e-09
0.000114593
0.000372321
0.0260979
6.91054e-09
0.117832
0.000126635
3.40105e-07
9.35278e-05
4.96831e-06
8.98068e-05
2.2851e-06
9.86283e-05
6.73633e-09
9.58265e-06
0.00216791
3.65961e-05
5.84015e-08
0.00175735
4.484e-05
1.0604e-05
0.00321639
8.72717e-08
7.70227e-06
5.70887e-05
0.000103097
8.60544e-07
0.192946
5.65395e-08
8.55026e-07
2.71928e-08
0.118045
0.120943
2.06878e-06
1.8185e-06
0.000155418
0.0550766
3.32409e-08
1.09883e-05
2.14897e-05
1.33718e-05
1.2806e-06
0.195272
7.20137e-06
1.72775e-05
0.00363824
1.60685e-07
7.20567e-06
1.72874e-06
2.52016e-06
1.83103e-09
0.00240652
0.00398104
1.08108e-07
7.64381e-07
1.27367e-06
0.000102181
7.68192e-09
0.0398083
2.90146e-07
1.00049e-05
1.09941e-06
5.3065e-07
4.98762e-06
3.37633e-05
1.29547e-06
5.07181e-06
0.000247054
1.59055e-06
1.34951e-06
0.0430103
7.7152e-07
3.381e-06
2.48043e-06
1.99022e-05
1.85962e-10
5.03968e-09
7.12798e-10
5.98253e-06
5.61794e-08
0.0675918
2.22392e-05
1.21103e-05
3.97035e-09
3.28307e-05
0.117413
7.92257e-05
1.38851e-05
6.18964e-05
1.25486e-05
2.00531e-07
7.89857e-08
2.43972e-05
4.38563e-06
2.71335e-06
0.000546251
9.72617e-06
4.64703e-08
2.99029e-08
2.31365e-06
7.64483e-08
6.9942e-06
4.13153e-08
1.20946e-05
1.6294e-05
1.91916e-07
8.13468e-10
0.0457143
7.12565e-09
2.56917e-09
2.51527e-05
0.0564673
2.0664e-05
2.24719e-06
1.43053e-08
1.00765e-05
5.35601e-06
2.23124e-05
6.00331e-06
7.42605e-09
1.79334e-06
1.58442e-06
5.50876e-06
4.03878e-09
4.98637e-09
4.38503e-09
5.31123e-06
1.71404e-05
9.68732e-07
1.67708e-08
7.5705e-06
5.22507e-05
1.95903e-08
2.49178e-05
4.63295e-07
5.25227e-08
4.41772e-09
3.95807e-05
2.39965e-07
2.05751e-05
1.5174e-09
2.56366e-05
1.04374e-08
1.55994e-06
0.000350561
1.35211e-07
5.50664e-09
0.0688172
2.98424e-08
0.0565853
2.49903e-07
4.62048e-08
9.49007e-06
2.58332e-05
0.0469401
5.91516e-05
0.0499398
0.0606739
9.05138e-05
1.15154e-05
0.0403826
1.08946e-05
1.67199e-08
4.31815e-05
0.140977
0.037021
0.0422212
1.19036e-08
1.05498e-05
1.41824e-08
5.55179e-06
9.90343e-07
7.91741e-06
0.000171175
7.05354e-06
5.2968e-07
1.65445e-08
3.74708e-06
0.000294761
2.38202e-08
1.21166e-05
3.84918e-05
1.97769e-06
9.84528e-10
6.35976e-05
2.62941e-05
2.60992e-05
1.78891e-05
1.65952e-05
2.13773e-06
7.59498e-06
0.000153646
8.68389e-06
6.75529e-06
0.000125969
0.000457803
3.84953e-09
6.30267e-07
2.77829e-08
2.00615e-05
9.06029e-08
2.31359e-06
1.03553e-10
0.000397185
0.391625
0.0889346
0.000149625
5.04347e-09
1.23197e-05
0.0552294
0.102835
2.48307e-06
0.000271554
2.10609e-06
5.58029e-07
1.23693e-07
2.90196e-09
9.33619e-06
4.45802e-05
3.86203e-08
4.43478e-09
1.77872e-05
1.65756e-07
0.176252
0.0539329
1.17396e-05
5.24078e-09
1.14169e-08
0.0420928
4.79277e-09
2.56053e-05
9.54995e-09
0.000613597
2.18144e-08
4.93712e-06
5.16444e-08
6.10621e-09
0.0010818
0.154789
0.0646588
1.44681e-08
0.0690046
4.24541e-08
1.36995e-05
1.63853e-06
0.117917
2.40085e-07
0.000162588
3.80953e-09
1.969e-06
0.000277257
1.71268e-06
0.000164896
9.93266e-09
1.17061e-05
3.29037e-05
2.07153e-05
5.53518e-06
3.66821e-07
3.32683e-07
3.3864e-06
6.1069e-07
9.91059e-09
3.38684e-09
0.0752548
0.0371784
1.4102e-08
0.0843759
2.97646e-10
2.12016e-08
5.28343e-05
4.67071e-09
4.82237e-09
0.0401564
1.8179e-08
7.20994e-10
0.000649917
2.00105e-09
1.29782e-09
5.06921e-05
0.0928313
1.30753e-07
0.0371466
8.45054e-09
4.66053e-06
0.0502987
6.28157e-06
0.000867548
5.89951e-10
7.27196e-08
1.04573e-06
1.8043e-07
0.209709
0.0455747
0.000109487
3.27171e-08
0.0463125
1.04985e-09
2.05339e-08
1.83035e-09
0.102842
0.00175975
9.17387e-06
1.26683e-09
1.28895e-06
0.0481645
0.000911656
3.6452e-07
0.000255678
0.108914
0.086124
3.44911e-05
0.0852544
0.000926878
0.0426971
4.20858e-05
0.0657439
0.000345017
4.79931e-06
1.47862e-06
2.31722e-06
0.000458463
0.000930686
6.8879e-10
3.89901e-06
7.48908e-08
4.6278e-05
7.50707e-06
9.99923e-07
8.10649e-06
0.000298043
1.74597e-07
7.98516e-06
9.22272e-08
2.66448e-08
2.73346e-08
4.51555e-08
5.05693e-06
4.46324e-08
4.87984e-08
7.45231e-08
1.07562e-05
4.3238e-05
2.03915e-10
1.80347e-09
5.5168e-08
1.00416e-07
1.08329e-06
0.00129606
0.00209937
0.000130831
9.62805e-09
3.2231e-05
5.76735e-06
0.0463757
3.20489e-05
1.29759e-05
5.66758e-07
1.10696e-06
2.47768e-06
0.000222908
0.00011701
0.179381
0.0672089
8.23872e-08
0.000828487
0.000296388
1.45428e-08
2.69767e-06
4.6113e-06
3.78718e-08
1.73186e-06
3.92893e-06
0.0621872
1.23143e-09
8.37133e-05
1.36078e-08
0.0487277
5.12104e-05
0.0355223
3.33039e-05
5.0694e-09
6.71184e-09
2.32362e-08
2.50744e-05
2.44212e-05
4.21879e-06
7.26985e-06
9.67674e-07
0.000764244
0.000289954
9.72775e-10
0.000117081
4.84275e-05
5.2867e-05
9.54076e-05
0.00296111
4.05355e-06
0.0991385
4.85281e-08
5.9051e-06
0.0383776
1.29146e-08
0.000261408
0.00717935
4.04165e-08
0.000102891
1.39997e-08
1.86034e-07
2.57304e-06
4.01769e-06
5.32896e-08
8.44576e-09
6.95526e-07
2.5566e-09
6.08189e-09
0.000126557
2.45605e-08
5.6381e-10
2.93413e-05
7.71613e-09
9.7567e-08
2.70251e-07
0.000215223
2.19714e-07
0.000169302
1.05031e-07
4.68991e-08
2.26086e-05
6.61152e-05
0.000231723
0.043163
8.07388e-05
4.29251e-05
2.30097e-06
0.319786
0.310957
1.24816e-07
2.90938e-05
1.79024e-08
0.0458244
0.0380459
0.000405487
0.0903171
0.0685306
7.16619e-06
1.10624e-09
0.000115665
1.1328e-08
1.22318e-09
3.97803e-07
1.59847e-05
7.18674e-09
1.73281e-05
3.37719e-05