/*--------------------------------*- C++ -*----------------------------------*\
  =========                 |
  \\      /  F ield         | OpenFOAM: The Open Source CFD Toolbox
   \\    /   O peration     | Website:  https://openfoam.org
    \\  /    A nd           | Version:  10
     \\/     M anipulation  |
\*---------------------------------------------------------------------------*/
FoamFile
{
    format      ascii;
    class       volScalarField;
    location    "21";
    object      T;
}
// * * * * * * * * * * * * * * * * * * * * * * * * * * * * * * * * * * * * * //

dimensions      [0 0 0 1 0 0 0];

internalField   nonuniform List<scalar> 
111485
(
303.15
285.073
300.946
303.15
298.375
283.15
298.882
293.352
296.253
286.204
300.481
296.147
300.166
284.544
299.941
286.708
299.31
297.122
293.98
303.15
303.15
283.15
297.194
288.645
301.575
303.15
293.12
300.607
288.804
303.15
300.771
294.29
303.15
283.15
283.441
283.15
302.304
297.544
283.149
296.568
283.15
289.54
296.991
302.869
303.193
303.15
287.305
288.505
289.574
303.15
303.15
283.15
303.15
298.872
303.15
293.442
287.843
283.15
283.317
295.398
295.799
303.15
302.036
300.189
283.15
284.538
300.072
291.462
302.087
302.509
303.157
301.865
303.15
302.087
303.15
295.336
283.15
293.363
283.15
283.15
283.235
293.297
283.15
303.15
300.269
284.201
283.15
301.527
303.113
299.051
283.324
289.518
300.822
300.369
289.741
303.15
303.15
301.527
303.149
283.414
303.15
286.588
283.15
285.144
285.701
283.15
283.15
293.025
301.405
283.147
298.846
287.999
301.251
301.656
303.15
301.948
303.15
283.15
300.101
303.15
303.15
283.15
283.15
283.15
283.39
303.151
283.15
301.78
303.15
283.175
303.099
301.912
303.15
283.15
283.15
292.446
283.15
294.141
298.764
301.076
303.135
296.78
298.944
284.747
302.265
297.736
283.15
303.15
283.15
297.088
284.907
303.15
303.144
287.258
283.156
293.655
295.583
302.513
283.154
303.15
303.15
292.115
286.196
283.153
283.157
301.149
283.68
283.15
283.152
283.153
283.15
303.15
283.207
283.15
291.481
287.123
283.15
303.15
303.15
283.15
303.15
303.15
297.601
293.427
295.719
289.69
301.334
300.377
283.19
303.15
301.413
303.15
303.15
300.112
286.232
301.369
301.314
295.665
303.15
300.839
284.571
283.159
300.718
297.025
303.15
300.371
288.144
303.15
283.223
300.133
284.784
300.65
303.15
303.15
300.664
283.15
292.715
283.15
300.57
298.619
290.279
303.15
301.714
300.519
283.15
283.15
283.15
289.464
283.157
283.15
303.15
298.571
291.295
289.841
283.15
303.15
303.108
303.15
284.312
300.04
299.195
299.453
299.324
283.15
283.144
298.813
283.15
283.15
288.715
288.302
283.15
301.134
298.828
303.15
283.15
301.055
303.15
303.15
303.12
303.15
288.211
285.826
290.704
303.15
298.281
303.15
303.15
303.15
283.148
297.995
300.942
299.375
291.152
299.427
296.188
283.21
290.252
291.494
283.15
303.15
283.149
292.386
298.725
286.416
303.15
297.957
297.223
298.834
302.954
283.167
297.04
299.309
302.016
283.15
283.604
283.15
283.149
303.15
283.85
290.219
286.248
303.15
283.15
297.543
285.222
303.15
303.15
303.15
284.557
290.172
301.02
284.39
292.956
283.15
283.15
303.15
298.308
303.15
283.805
289.394
283.153
283.15
303.15
303.15
283.15
294.288
289.904
283.15
295.638
283.15
303.15
300.984
297.238
293.935
295.746
283.15
283.15
283.15
296.544
290.931
302.375
283.15
283.15
283.15
290.015
296.89
283.211
290.409
283.15
292.726
299.503
284.18
298.568
285.216
283.15
303.15
283.15
303.15
290.612
296.657
287.9
291.88
283.15
286.3
283.15
303.15
293.75
303.15
301.706
303.15
283.15
291.87
283.15
288.707
284.602
283.15
283.968
297.961
283.15
300.112
284.657
298.791
303.018
290.977
285.962
283.15
303.15
303.144
283.15
300.953
300.776
283.15
283.15
294.685
284.336
298.129
296.87
283.15
294.994
296.014
283.15
302.046
283.877
303.15
303.15
288.181
298.533
283.15
303.15
303.15
303.15
300.714
283.15
303.15
293.913
283.17
286.871
299.904
283.15
283.15
302.608
283.15
302.444
301.392
297.771
288.43
283.15
293.831
303.377
303.15
298.579
292.22
303.15
283.15
283.302
283.15
289.946
286.054
291.565
283.15
292.79
296.523
292.982
303.147
283.15
303.15
303.15
283.168
292.649
283.15
284.3
303.131
283.15
303.15
303.15
303.15
301.849
290.441
285.946
284.175
284.286
283.15
285.655
303.15
300.674
283.15
303.15
303.15
300.614
303.15
303.15
283.151
303.15
283.15
300.618
283.15
283.15
283.15
303.15
283.15
303.15
283.15
283.659
283.15
303.128
301.859
283.74
283.15
303.084
283.15
303.15
284.676
284.646
286.066
297.45
283.15
297.42
297.533
292.205
286.757
285.228
303.15
291.676
283.15
299.809
283.15
296.727
283.15
291.995
298.478
303.151
283.15
286.738
303.15
295.45
299.031
283.15
283.15
283.15
283.15
303.15
293.618
283.15
283.15
283.236
283.15
299.762
283.15
284.758
303.15
283.425
303.119
284.62
291.823
283.15
301.413
283.15
283.15
285.644
283.15
283.255
283.15
299.622
303.15
290.586
303.15
283.15
302.381
284.437
300.033
285.608
300.031
289.416
283.15
300.578
284.512
283.15
283.141
300.258
301.556
283.15
282.484
301.015
303.058
283.124
303.15
287.523
302.154
284.375
285.338
288.123
282.595
283.15
303.15
300.552
303.15
283.545
283.15
283.15
291.698
282.692
303.149
303.114
283.15
286.212
299.552
283.15
283.15
299.573
303.15
283.15
283.15
283.15
286.098
283.15
303.15
284.784
284.207
303.15
299.677
283.15
289.192
303.15
283.15
286.091
283.15
283.15
283.15
285.333
283.15
285.399
291.893
303.15
300.315
283.438
298.637
300.926
283.298
283.451
283.15
288.886
298.39
303.15
302.249
295.968
296.823
284.69
297.389
297.148
303.15
300.183
303.133
283.15
297.082
284.802
283.15
292.304
295.65
284.819
298.716
300.593
292.264
283.15
298.864
283.458
303.15
300.554
301.952
294.025
283.15
286.434
303.15
283.15
283.15
283.15
283.3
283.15
303.15
303.15
283.15
300.394
299.189
303.15
285.565
303.15
303.15
303.15
289.972
283.416
283.15
303.15
283.15
283.15
286.774
292.311
283.15
295.063
283.137
283.15
295.232
302.197
287.709
283.15
283.15
300.215
292.019
283.15
283.15
283.15
293.907
303.15
303.15
283.15
296.175
302.349
283.15
282.358
301.687
286.489
283.15
283.15
287.423
302.958
283.15
283.159
287.129
283.748
288.726
283.15
285.659
300.217
283.15
303.15
283.15
283.15
283.15
283.15
295.597
303.15
283.15
283.15
295.208
291.738
303.15
303.15
289.742
298.341
298.24
303.15
283.15
297.908
303.15
283.82
298.778
298.286
303.15
303.15
303.15
283.15
286.005
283.15
283.15
302.701
303.15
297.741
302.246
283.15
293.983
283.272
296.361
291.914
283.416
289.685
283.15
283.15
296.806
287.995
290.773
283.15
283.15
297.533
294.877
283.15
283.888
284.557
283.465
303.15
303.15
303.15
290.675
283.15
299.998
283.15
284.344
297.527
298.435
292.195
283.15
283.15
303.15
295.305
283.15
283.15
303.097
283.15
283.15
303.15
283.15
299.253
283.15
283.15
283.15
283.15
283.15
303.15
283.15
283.172
298.716
303.15
302.523
283.132
283.39
283.096
285.481
283.15
284.421
290.47
283.39
303.15
283.149
299.675
283.15
300.196
283.142
283.144
286.158
297.417
283.206
291.833
297.988
283.15
283.15
298.995
299.738
283.15
297.269
291.201
297.555
283.15
283.243
283.15
297.859
296.985
283.15
300.019
297.635
283.149
299.72
283.15
295.561
283.145
303.128
283.161
283.16
283.15
283.15
284.41
283.15
302.963
283.575
283.063
303.147
303.149
303.148
283.15
283.15
293.743
303.15
303.213
283.849
283.15
283.15
303.154
303.149
283.15
303.165
283.15
283.15
303.15
303.15
303.15
303.15
283.361
283.15
283.15
283.15
303.157
283.3
283.872
293.397
283.15
283.15
283.328
283.15
283.15
283.15
287.191
293.52
283.15
283.15
283.15
283.15
283.15
283.15
283.987
283.15
303.15
291.488
283.15
303.15
303.15
303.154
303.15
303.15
283.15
303.171
283.15
283.68
283.145
303.152
283.15
303.061
284.363
292.013
303.15
303.128
284.425
303.15
283.15
303.15
283.15
293.971
293.388
284.598
303.148
283.15
293.164
283.15
283.15
303.15
283.15
294.784
283.15
303.15
283.163
298.091
303.15
284.359
283.15
283.563
283.15
283.15
283.15
303.15
285.798
283.465
284.096
283.15
283.15
285.595
283.15
283.15
303.15
284.317
303.165
298.49
303.15
303.127
303.127
283.15
303.129
283.15
283.44
289.053
301.035
283.78
283.165
283.15
283.15
283.15
303.184
283.15
302.893
303.15
292.563
303.15
288.674
283.812
303.15
283.15
303.15
283.15
301.76
303.15
303.15
286.363
300.513
283.15
283.15
283.15
283.15
283.15
283.15
300.765
283.568
303.15
303.15
303.157
303.15
300.147
284.397
283.15
302.09
303.15
301.592
283.15
302.56
283.15
283.148
303.152
283.309
302.091
300.179
283.147
283.15
289.304
303.15
293.311
303.15
283.15
303.15
283.15
283.15
283.15
300.76
302.033
303.15
303.15
303.15
302.899
283.15
303.15
292.818
283.087
303.15
297.472
298.313
296.438
283.371
283.15
283.15
283.15
283.15
294.572
283.15
294.725
283.15
303.056
289.789
283.15
302.853
283.15
283.15
302.725
283.148
302.909
283.15
303.15
283.15
302.374
283.15
303.15
283.15
283.148
283.15
283.17
283.15
283.15
303.15
292.951
301.071
296.027
296.952
303.15
303.115
283.15
283.15
285.643
283.15
283.158
302.836
298.762
302.934
303.15
283.357
283.15
303.15
283.15
302.987
283.313
298.308
283.15
303.15
288.02
303.15
283.15
283.127
294.991
283.147
283.15
283.15
283.149
303.15
283.15
303.141
303.15
303.15
289.87
302.981
302.988
288.944
293.184
283.15
283.15
303.08
289.015
283.15
303.15
284.716
283.15
303.15
283.15
283.15
283.15
297.281
283.15
302.933
283.15
300.426
283.15
283.15
283.15
283.15
283.15
283.15
284.991
283.15
283.15
283.15
283.15
283.15
283.15
291.935
283.15
298.379
302.926
283.15
302.336
283.15
302.504
303.145
292.263
288.742
303.15
292.127
284.752
303.107
303.15
303.14
295.044
288.62
283.15
287.842
283.15
283.15
283.15
283.15
287.469
283.15
283.15
291.609
303.135
285.284
283.15
283.15
302.524
283.15
283.182
303.15
299.873
283.15
283.15
302.82
283.15
303.178
303.15
283.15
289.006
298
292.668
285.622
292.471
294.047
283.15
283.15
302.266
290.542
292.715
284.383
283.15
294.371
283.15
303.15
300.689
298.734
283.15
297.396
283.15
292.716
297.157
303.15
283.15
283.15
301.747
283.15
283.15
300.458
296.101
283.196
291.177
283.15
283.15
302.786
300.477
283.15
300.606
283.15
300.461
283.15
283.15
300.764
283.15
283.225
301.572
283.15
283.15
302.419
283.15
287.857
303.15
290.28
303.15
303.15
303.15
300.907
283.15
283.15
299.491
283.15
302.982
283.15
283.15
303.15
283.151
288.15
283.15
283.15
288.013
288.193
283.15
283.668
283.15
303.15
302.408
283.705
301.534
283.15
283.15
283.15
283.15
283.15
283.15
283.15
283.15
283.15
283.15
283.15
303.15
283.15
283.15
283.15
283.15
283.15
283.15
283.15
283.15
303.15
286.897
283.15
283.15
283.15
294.641
283.15
303.15
302.882
283.15
283.15
294.645
283.15
283.15
301.763
295.122
283.15
303.68
303.602
283.15
301.445
293.895
297.484
301.446
298.1
303.15
283.15
296.396
291.7
301.388
283.15
302.121
302.406
300.837
287.994
287.276
301.026
301.756
301.758
303.15
285.834
297.498
285.488
297.2
283.15
283.15
283.15
303.15
283.15
291.922
297.881
283.15
283.15
283.15
283.15
283.15
303.15
283.15
303.15
292.089
303.107
298.979
302.838
283.15
283.15
285.367
283.168
283.15
283.15
301.727
303.15
283.15
298.12
299.479
297.486
298.591
300.766
303.15
290.996
302.568
303.15
303.15
300.274
303.15
283.15
282.994
295.503
302.941
283.15
303.15
289.526
286.124
297.143
292.121
302.36
303.15
303.136
303.15
303.15
283.15
298.977
283.15
291.73
290.397
299.647
284.735
303.15
301.899
303.15
283.15
303.15
303.15
291.437
299.433
283.15
303.15
303.132
291.71
303.026
299.311
292.746
288.277
292.853
283.15
303.15
283.15
291.177
298.253
303.151
303.15
303.15
303.15
297.448
302.563
283.15
299.936
301.102
284.836
299.477
303.15
303.15
298.638
292.904
283.15
302.894
299.663
302.604
291.9
297.263
298.191
303.15
286.942
298.172
291.27
283.15
289.003
303.15
288.343
301.021
303.15
288.658
301.243
300.069
293.117
283.151
283.16
283.237
301.578
300.879
303.15
288.775
301.445
303.15
283.15
303.15
303.208
298.702
290.539
296.727
303.26
283.149
297.371
303.15
303.15
292.728
303.15
300.281
283.298
301.284
291.491
303.15
283.648
293.151
303.15
283.071
298.633
303.15
300.658
286.215
303.15
303.15
283.978
303.15
283.15
283.15
285.882
299.203
291.113
303.15
285.181
297.41
283.15
298.804
298.838
288.919
303.101
283.15
301.511
299.64
298.804
300.04
288.617
290.692
302.483
303.15
301.519
288.67
303.15
298.815
283.15
283.15
303.15
283.15
303.15
297.413
283.15
300.489
283.63
303.15
283.787
283.15
289.789
303.15
303.144
303.15
294.071
302.997
303.116
299.813
290.361
289.389
290.54
298.348
303.15
299.336
292.11
298.888
303.15
283.86
283.441
299.197
287.119
283.503
303.15
283.15
303.15
285.287
303.15
303.345
284.664
303.387
302.954
303.15
303.15
283.15
300.508
300.659
285.45
303.084
286.961
295.617
301.866
292.447
288.093
302.069
296.051
283.15
283.15
303.15
285.777
289.646
283.15
283.15
303.15
301.972
288.638
303.15
296.351
303.15
283.155
285.149
301.157
303.15
303.15
292.218
303.15
283.297
290.564
283.15
297.114
294.58
296.095
303.15
302.698
283.15
302.659
293.351
303.15
303.15
288.748
283.15
303.15
301.774
284.42
303.15
303.15
283.15
302.327
303.479
289.429
299.647
298.092
303.15
303.159
302.582
303.15
283.15
303.15
303.15
303.15
303.15
303.15
303.15
303.15
283.15
303.15
303.15
283.336
303.15
303.351
303.15
303.163
303.15
303.15
300.883
303.676
303.15
291.903
303.15
303.15
283.15
302.546
303.15
302.13
303.113
283.288
283.15
303.15
302.561
283.149
303.15
303.15
291.31
283.15
292.535
283.15
283.15
283.153
291.159
284.81
303.15
296.599
283.15
303.785
303.133
284.296
302.582
283.15
292.11
303.083
301.639
283.15
303.15
283.15
304.142
284.795
296.858
303.15
303.15
303.15
303.15
303.15
303.15
302.338
302.805
297.559
291.958
303.15
287.103
292.587
284.95
303.209
283.15
286.87
302.748
284.732
283.148
287.431
303.15
283.38
302.917
292.475
302.842
301.853
303.15
302.242
303.15
303.15
297.909
303.15
284.459
303.15
303.15
283.15
303.15
303.15
302.841
303.15
283.295
283.15
283.15
285.789
284.851
300.912
286.065
303.15
294.551
303.15
290.379
303.15
287.109
300.642
301.452
293.255
303.15
303.15
303.15
289.764
283.15
303.15
289.516
283.15
283.15
301.795
303.15
286.142
283.148
283.15
303.15
303.15
300.628
298.143
303.15
293.361
303.032
283.15
298.576
303.15
286.376
288.181
302.125
303.15
296.259
296.74
302.948
301.862
301.629
303.15
303.15
303.147
303.15
283.15
303.15
289.518
300.183
294.271
302.106
283.15
300.334
291.338
298.198
283.591
298.265
289.552
302.144
283.15
283.15
283.15
302.191
283.15
290.397
283.15
301.224
303.162
289.673
298.025
283.15
303.15
301.212
301.189
303.15
283.15
303.15
286.391
301.414
302.974
302.325
297.969
288.394
303.15
303.15
303.15
294.176
285.938
289.735
295.817
283.944
302.953
303.15
303.15
283.15
283.15
285.395
299.572
303.15
303.15
283.15
303.15
303.15
303.15
300.212
303.15
285.313
292.148
283.15
283.247
293.304
285.659
303.15
303.15
301.865
303.15
299.173
283.147
297.509
303.15
303.15
283.15
303.15
303.15
303.15
305.121
303.15
301.816
301.112
303.15
303.15
301.588
303.15
283.15
287.198
303.098
303.15
303.15
303.15
297.885
303.15
303.15
302.391
302.476
301.753
303.15
283.15
303.15
302.024
302.501
301.498
302.522
283.15
300.627
287.434
297.4
283.15
303.15
303.15
303.15
303.15
294.29
287.527
299.662
303.15
303.15
303.15
303.15
283.15
303.148
284.749
285.12
283.15
303.15
303.15
283.148
299.521
294.78
283.15
303.15
303.15
303.15
303.15
289.561
289.608
303.15
303.15
302.399
303.15
301.453
283.937
291.759
303.15
283.15
301.173
303.121
303.15
302.959
301.285
286.792
303.15
303.15
303.15
303.15
293.236
284.132
303.15
302.676
298.011
289.208
303.15
303.15
303.15
303.15
299.527
303.151
303.15
303.15
298.218
302.596
288.295
303.15
303.15
297.701
303.15
303.15
303.15
303.15
288.754
303.15
283.15
283.15
295.879
291.022
303.15
303.15
303.15
296.977
303.146
303.15
303.15
303.15
303.15
303.386
300.833
303.15
287.287
302.636
299.35
303.15
303.15
303.15
303.15
283.15
285.638
303.15
302.844
283.15
302.162
303.15
303.133
303.15
283.15
301.946
285.545
283.15
302.826
303.15
302.404
283.15
303.15
303.15
303.151
303.15
283.27
303.15
290.783
283.15
283.15
303.15
303.15
298.799
302.355
283.15
302.391
283.15
284.09
287.909
302.689
283.15
303.155
302.981
303.133
284.381
283.156
302.98
283.15
283.15
283.156
302.055
302.275
303.15
283.15
283.15
295.144
303.15
283.15
303.15
303.15
303.15
303.108
303.044
302.921
302.428
303.15
302.898
303.15
284.782
303.15
303.15
283.15
303.15
303.11
303.15
283.15
303.15
288.267
303.15
303.15
303.169
283.15
302.784
301.933
296.623
303.15
289.138
294.188
283.762
289.829
283.15
283.15
287.164
284.3
283.15
303.855
283.15
286.367
303.15
283.15
303.155
303.15
303.15
303.011
303.155
303.15
283.15
303.138
303.15
283.15
283.106
298.671
302.69
303.15
301.813
303.15
285.671
303.152
301.14
303.15
303.15
301.001
303.15
303.15
303.15
287.644
303.15
285.111
303.15
303.147
303.15
283.15
283.15
303.15
303.15
303.15
288.645
302.532
303.15
303.15
288.538
286.466
291.093
303.15
302.687
287.625
287.493
303.15
303.15
287.569
283.15
291.849
303.15
303.153
303.149
303.15
300.488
283.15
302.314
283.15
303.15
303.15
303.15
303.15
303.15
284.306
302.227
290.987
303.15
303.15
290.515
303.15
303.15
303.15
303.15
303.15
300.108
303.15
303.15
283.15
299.411
303.15
283.15
303.15
301.335
283.15
299.911
290.748
302.674
299.976
299.393
303.15
303.15
303.15
300.807
288.423
283.15
303.15
300.272
303.15
303.15
291.924
303.15
287.425
303.15
297.777
284.291
303.15
283.15
303.15
303.15
303.15
285.209
303.15
300.447
303.15
303.15
299.654
283.15
284.712
303.15
303.15
288.039
301.544
296.374
303.15
303.15
303.15
301.56
292.191
303.15
283.15
303.15
300.633
303.15
284.735
296.254
303.15
303.15
301.103
303.15
303.15
283.15
303.15
283.15
294.494
303.15
283.15
303.15
303.15
303.15
303.15
303.15
303.15
283.15
301.511
283.15
302.052
303.15
303.15
296.055
300.432
303.15
283.15
303.15
300.841
283.15
303.15
303.15
303.15
300.694
303.15
297.608
303.15
285.808
283.15
286.686
303.15
303.15
298.478
283.15
303.15
287.797
283.245
303.15
303.15
285.053
283.83
300.806
301.702
301.149
293.116
301.708
283.827
303.15
297.642
283.15
283.15
303.15
303.15
303.15
301.178
303.15
303.15
303.15
303.129
283.168
283.15
283.554
303.15
301.983
283.15
303.142
296.026
283.15
294.472
303.15
303.15
283.15
299.837
283.908
303.15
283.15
299.866
303.15
297.648
303.15
295.205
303.15
283.15
303.15
283.15
299.376
283.15
283.222
283.15
286.151
303.15
303.15
283.15
283.15
303.15
303.15
303.15
303.15
284.84
284.698
283.15
303.15
283.232
283.15
283.15
303.154
289.818
283.536
283.15
301.465
284.85
300.441
288.127
303.15
303.15
303.15
303.15
283.15
283.15
283.15
303.15
283.15
283.15
303.15
283.15
297.192
283.15
303.15
283.15
303.15
303.15
283.288
283.15
303.15
301.917
303.149
303.15
303.15
303.15
288.668
283.15
303.15
303.149
283.15
303.15
303.15
303.15
295.283
283.15
283.177
303.15
303.15
303.15
303.15
303.15
303.149
303.147
284.088
303.15
283.15
303.15
303.149
303.15
303.148
303.149
283.15
283.15
283.15
303.15
303.15
283.15
303.149
283.15
287.664
283.15
301.762
283.15
303.154
303.15
284.576
283.15
284.421
297.328
303.15
284.658
303.174
303.15
297.337
283.15
303.15
303.15
303.15
303.15
283.15
303.15
303.15
299.088
283.15
303.15
303.15
303.15
303.15
292.283
290.122
303.171
283.164
303.15
301.791
302.305
303.15
283.15
283.15
303.15
303.15
303.15
283.15
283.15
283.805
303.15
303.15
303.199
303.151
283.15
288.807
303.15
283.15
303.15
287.991
303.15
283.15
302.082
283.15
283.15
283.15
303.15
299.595
303.15
303.15
303.15
283.15
284.473
293.525
295.151
289.496
303.117
303.012
283.15
283.15
301.025
283.68
283.15
303.149
303.15
303.15
283.15
294.48
303.15
283.15
302.972
303.15
303.15
283.776
303.15
303.15
288.341
289.481
303.15
283.15
303.15
283.15
303.15
303.15
303.15
303.15
283.931
303.15
303.15
303.15
302.919
303.15
303.15
283.15
283.15
283.15
283.15
302.932
283.15
283.15
300.917
303.15
284.734
284.891
303.15
301.082
303.15
283.15
303.15
283.15
283.15
303.15
303.15
303.15
302.652
303.15
303.15
303.15
283.15
303.15
283.15
286.335
303.15
303.15
291.53
303.15
283.15
283.15
302.4
303.15
303.147
283.15
303.184
286.609
283.15
283.15
299.141
283.15
283.15
303.049
303.162
293.279
303.167
303.151
303.153
283.15
283.15
302.629
283.44
285.761
300.83
283.157
283.15
290.989
301.545
301.446
283.15
300.193
290.648
300.117
302.191
302.714
284.651
295.419
299.171
286.218
293.261
300.08
303.15
297.976
297.512
302.774
283.656
292.276
301.128
287.286
303.15
300.969
303.15
300.684
301.46
283.63
284.959
303.15
283.15
302.283
301.651
283.146
303.173
288.502
302.669
301.788
300.779
303.15
303.235
301.081
294.92
300.416
288.816
302.901
301.645
302.192
302.255
284.199
302.486
301.556
283.178
303.15
302.887
303.15
303.15
302.065
301.973
294.225
303.15
284.65
292.215
292.281
300.769
303.15
283.981
285.159
284.38
303.15
298.737
303.15
296.39
295.279
300.678
303.141
303.15
303.15
301.908
301.218
302.772
303.15
292.556
302.737
289.907
283.15
298.348
293.935
303.15
300.504
283.15
283.202
283.15
302.546
303.093
303.15
302.98
298.321
283.148
300.491
302.207
295.293
283.526
295.754
296.989
283.449
303.132
284.721
296.326
283.315
296.757
300.448
300.197
300.314
301.959
289.597
301.539
303.15
302.714
302.644
302.655
296.531
302.889
283.15
301.991
293.404
303.15
283.424
286.804
301.178
302.578
290.467
284.796
287.632
302.603
296.312
303.15
303.15
294.93
283.15
292.585
283.42
303.15
290.513
290.219
283.897
303.15
297.226
298.512
284.214
301.201
294.147
290.124
300.498
303.112
303.15
303.15
283.519
302.598
283.34
285.763
303.15
303.018
303.033
303.15
285.378
300.842
297.795
283.242
299.482
302.344
300.459
286.864
283.15
303.103
301.779
283.726
283.135
303.15
303.071
303.15
303.15
284.166
302.52
296.4
283.034
283.153
303.15
283.15
302.948
303.041
302.487
301.38
303.15
283.15
283.15
301.797
301.853
283.21
295.901
303.15
303.15
301.588
285.471
283.257
301.651
301.757
301.694
284.375
303.15
283.15
298.475
297.706
303.15
302.686
302.052
284.619
284.946
302.086
303.056
303.15
298.111
284.399
283.15
303.15
300.566
301.18
301.987
289.561
302.046
285.632
300.113
300.298
290.292
297.486
303.15
303.15
300.898
284.441
302.063
283.151
300.441
301.672
283.62
288.251
302.4
283.15
283.15
283.029
303.15
303.15
299.913
298.893
302.258
283.148
283.15
283.916
283.151
283.15
283.151
303.076
300.882
299.102
295.814
283.362
303.09
300.085
303.15
283.15
302.537
289.193
300.768
292.666
283.502
303.057
283.148
283.15
302.825
301.174
302.595
283.155
291.156
284.862
303.15
284.237
301.002
283.15
283.304
284.923
284.077
283.15
283.15
301.61
283.15
289.322
302.512
302.688
301.767
283.468
298.098
289.934
283.15
303.352
292.007
283.15
283.15
283.15
303.15
301.198
302.396
299.12
301.432
299.903
288.808
283.154
290.939
290.115
303.057
290.993
299.967
292.026
283.15
286.274
301.041
301.544
283.15
283.972
299.627
283.15
303.15
283.186
301.241
303.15
283.994
302.255
303.015
303.15
283.15
292.741
303.153
301.665
283.15
283.15
283.15
302.165
297.501
303.144
302.173
303.167
303.15
288.327
303.167
290.396
300.179
300.138
296.529
283.156
301.666
283.15
290.534
301.38
289.394
290.44
298.919
300.664
301.563
287.133
291.102
284.974
283.171
302.192
286.09
283.15
283.144
300.156
283.081
300.253
286.952
296.05
299.384
289.136
299.229
283.121
299.159
283.15
289.93
288.842
298.601
283.325
283.15
300.511
283.15
302.785
283.15
303.15
286.434
286.437
283.15
298.939
298.571
286.981
303.15
303.15
301.681
289.745
302.982
283.72
301.543
287.041
303.147
284.171
288.125
303.15
301.388
283.15
283.15
287.518
286.977
283.145
285.225
301.465
286.19
301.226
303.15
285.089
301.717
291.151
303.15
303.15
301.581
302.02
303.15
292.954
294.251
283.656
296.337
286.738
289.955
303.15
302.745
296.98
284.964
283.15
287.678
291.83
299.576
283.161
283.741
282.957
301.924
303.114
283.151
303.132
303.15
300.549
292.969
298.779
293.776
283.15
291.903
295.877
285.543
283.211
291.309
283.15
300.292
303.165
292.463
284.087
303.143
291.805
298.554
288.197
300.346
291.296
287.275
283.15
303.141
285.306
289.838
293.393
283.15
283.15
283.15
303.141
283.15
283.137
286.376
303.15
283.15
303.168
283.172
291.086
288.698
303.562
302.905
289.804
303.15
296.923
303.177
301.986
287.226
283.15
292.851
303.144
303.091
286.145
283.15
283.15
283.463
285.967
303.049
303.143
287.475
289.429
283.473
283.162
289.8
293.175
303.15
283.15
303.094
303.15
302.316
284.98
302.328
303.091
284.045
283.764
284.03
302.856
302.15
297.377
293.994
303.066
291.196
290.985
303.15
303.095
302.571
285.398
283.374
303.15
285.907
283.382
302.926
301.69
302.152
283.15
300.3
301.83
303.15
302.127
285.367
303.15
297.84
303.15
283.15
300.666
302.666
286.274
302.475
283.15
285.143
303.001
283.15
302.283
285.329
294.813
284.311
303.15
303.016
302.879
286.459
283.15
287.081
284.235
289.718
285.695
302.231
303.15
283.15
283.15
293.098
283.15
301.031
302.138
290.311
283.15
294.003
283.15
303.15
283.15
300.082
298.512
283.151
285.239
301.726
303.063
303.155
291.792
294.138
301.162
283.198
301.799
283.145
303.15
303.143
298.844
283.15
300.635
294.71
303.15
300.921
287.253
301.953
284.872
288.14
283.15
302.198
287.665
298.378
303.079
283.15
303.15
291.609
302.137
283.079
283.147
286.713
298.266
303.149
284.428
300.986
300.957
301.213
303.153
299.843
287.577
284.883
301.552
299.837
283.706
283.107
303.16
303.149
303.15
297.292
283.163
283.15
303.15
303.149
289.848
298.886
300.256
287.716
302.788
303.15
286.389
301.569
303.15
300.93
283.786
301.423
303.15
284.526
301.371
295.503
302.759
303.15
303.15
285.135
295.011
296.309
287.326
303.15
303.15
283.15
287.15
302.376
296.096
303.15
285.522
303.15
303.15
300.446
288.66
283.15
295.473
295.804
299.061
283.15
303.15
292.611
287.158
303.15
297.885
300.464
300.367
303.15
303.15
303.15
300.173
298.268
302.78
299.836
283.15
292.834
287.6
290.533
300.516
303.15
303.15
300.714
303.091
286.491
296.017
303.15
303.147
283.15
286.39
298.85
285.531
303.15
303.15
283.334
303.121
303.15
303.15
283.15
290.458
303.15
303.15
284.555
299.257
283.15
303.15
284.583
301.281
300.105
286.933
294.926
303.15
283.491
303.15
303.15
283.308
300.485
290.343
300.338
303.15
303.129
302.141
292.532
299.706
301.293
284.417
283.447
300.851
298.319
303.15
302.741
284.116
299.675
301.34
287.612
303.15
297.358
301.37
301.456
301.498
292.837
303.15
283.15
299.107
283.15
283.15
287.684
283.15
283.988
283.15
283.15
283.15
283.15
302.737
288.086
302.685
283.15
295.599
290.874
284.704
283.15
303.15
302.659
301.7
303.161
302.615
283.15
294.733
300.202
290.098
283.15
283.15
299.735
285.886
283.15
283.15
303.149
290.498
283.15
287.071
303.149
303.152
284.283
283.15
288.137
292.006
300.77
294.568
302.946
285.567
302.483
295.158
286.206
283.15
283.532
291.509
303.067
288.995
302.636
283.15
292.31
287.682
300.99
301.277
284.869
303.099
284.87
296.951
302.983
303.146
285.089
303.145
302.999
293.194
302.679
283.15
303.15
303.15
294.652
290.927
283.155
301.019
284.641
284.123
284.584
303.145
288.272
300.401
283.15
283.15
302.475
303.15
294.437
302.884
303.183
299.714
303.224
302.871
283.15
301.247
302.867
283.15
303.15
301.28
303.15
284.289
298.652
283.163
291.416
283.15
287.509
303.006
299.689
283.15
303.018
290.832
301.174
303.123
303.076
283.15
283.15
301.929
301.967
283.785
302.803
302.39
302.356
303.141
283.15
293.613
283.15
302.779
287.799
302.979
303.15
283.15
302.805
285.088
291.413
302.016
283.15
302.559
301.958
301.519
302.458
303.041
303.212
303.003
303.15
283.15
301.477
297.759
303.086
303.15
289.83
284.816
303.15
283.15
285.268
303.184
303.166
302.907
301.074
284.237
303.094
290.66
294.161
303.148
288.956
303.164
283.15
289.774
283.15
299.886
298.035
284.749
288.092
299.519
296.64
295.198
299.08
293.641
303.154
293.813
296.264
283.161
299.287
293.789
303.15
298.843
299.044
303.15
291.089
303.171
301.619
303.15
286.849
285.975
302.781
289.592
283.15
283.15
300.267
301.15
283.706
283.15
303.15
300.157
302.289
300.567
299.798
302.769
292.489
289.564
286.573
292.414
284.267
290.289
283.302
295.666
290.349
293.833
287.03
284.254
303.164
283.271
303.148
285.526
300.64
283.15
300.399
298.369
288.655
302.083
285.355
298.977
283.15
302.943
283.154
283.118
287.507
299.552
303.15
300.312
303.014
299.856
302.744
303.15
301.199
284.91
294.819
302.007
303.149
283.688
283.15
290.215
285.202
285.694
303.123
303.148
283.15
283.15
283.175
303.15
293.359
303.15
303.146
293.843
303.441
303.15
300.394
303.15
303.15
293.562
290.506
303.15
289.75
302.022
289.479
303.15
303.15
285.836
283.33
290.232
303.228
303.15
303.145
285.413
283.24
283.15
288.886
287.494
303.15
284.276
303.15
303.15
303.131
287.265
303.15
303.147
283.269
303.152
302.636
287.845
283.153
283.578
297.334
290.634
303.15
285.885
284.399
301.274
287.043
302.159
290.498
293.746
303.15
303.15
283.981
303.146
302.938
295.854
302.938
302.722
287.104
283.15
285.273
283.215
297.035
302.577
285.319
303.15
283.77
286.651
303.123
283.175
303.15
286.335
283.15
300.107
303.15
299.631
299.75
283.296
283.353
302.299
290.733
301.35
303.15
301.339
301.699
303.15
303.15
298.243
293.313
283.15
288.698
303.15
295.199
283.348
303.15
296.8
298.651
288.912
303.15
302.737
294.117
295.285
284.426
303.16
298.598
296.016
283.96
303.122
302.787
287.293
298.343
289.738
290.711
289.658
283.15
302.936
303.151
303.15
303.177
292.989
296.206
302.971
301.229
303.15
284.416
303.15
303.036
302.843
303.15
293.438
296.166
303.15
285.322
303.093
303.15
303.085
303.158
285.997
293.231
291.007
288.324
293.338
303.15
301.158
291.337
295.226
293.336
303.14
303.15
300.484
303.191
284.21
303.191
303.15
303.15
303.143
303.15
284.886
303.15
284.182
303.146
303.15
290.098
303.144
292.368
295.405
303.133
295.232
285.934
283.434
303.123
302.933
284.649
283.15
297.02
303.15
285.449
302.896
302.005
303.017
298.421
286.968
303.15
298.618
289.817
299.225
283.15
283.606
303.15
303.145
303.191
293.997
303.15
292.321
289.238
303.196
303.15
284.733
298.672
293.122
299.503
302.447
301.581
300.313
303.15
284.677
296.95
302.349
285.549
298.328
292.171
284.425
291.546
303.15
286.532
291.714
290.044
299.35
303.15
286.38
284.064
303.15
302.404
288.06
302.083
283.15
303.15
299.755
301.647
288.901
301.944
301.917
301.77
303.15
289.234
285.073
301.92
302.202
297.036
303.15
283.199
303.15
301.944
303.15
302.785
303.15
291.575
303.15
296.421
283.15
289.394
303.15
283.15
292.126
301.398
300.347
289.106
300.431
303.15
302.466
303.15
302.352
285.167
303.15
300.333
290.298
303.15
300.742
303.15
303.15
293.115
283.15
285.481
293.128
300.859
303.15
291.064
293.736
288.093
289.575
288.035
299.165
300.249