/*--------------------------------*- C++ -*----------------------------------*\
  =========                 |
  \\      /  F ield         | OpenFOAM: The Open Source CFD Toolbox
   \\    /   O peration     | Website:  https://openfoam.org
    \\  /    A nd           | Version:  10
     \\/     M anipulation  |
\*---------------------------------------------------------------------------*/
FoamFile
{
    format      ascii;
    class       volScalarField;
    location    "54";
    object      SgT;
}
// * * * * * * * * * * * * * * * * * * * * * * * * * * * * * * * * * * * * * //

dimensions      [1 -1 -3 -1 0 0 0];

internalField   nonuniform List<scalar> 
111485
(
8.68013e-17
0.00901952
0.0210417
1.45536e-18
0.0449936
3.79836e-16
0.0416772
0.00587259
0.0183789
0.00112874
0.0418601
0.00916044
0.00424858
0.000835625
0.00592518
0.0316584
0.00129319
1.99778
0.0100215
4.24656e-16
2.94878e-16
2.07361e-17
0.0234606
0.03553
0.00846764
4.0293e-17
0.0401181
0.00174101
0.0159364
9.762e-18
0.0436173
0.0173578
1.83595e-16
1.17674e-17
0.00967039
1.24647e-18
0.0105247
0.00388866
6.45957e-08
0.0215863
4.14073e-18
0.0719977
0.014432
0.000998255
3.66635e-05
6.14929e-18
0.0328388
0.00072134
0.0475658
7.7905e-16
1.14425e-16
8.70288e-15
5.90596e-15
0.0444938
7.03954e-16
0.0430429
0.00355394
2.00514e-18
2.70524e-05
0.00449174
0.0149334
6.38607e-17
0.00401809
0.0883096
1.32106e-15
0.00359166
0.301015
0.0972413
0.000921356
0.00512165
6.61214e-06
0.00547862
4.19811e-15
0.00244549
2.58183e-17
0.000638026
2.84028e-16
0.0425216
1.99115e-16
3.14486e-15
5.2344e-05
0.0316033
2.41597e-16
4.3967e-17
0.00813181
0.00442601
5.75998e-10
0.0225499
4.62724e-05
0.00678396
0.000866333
0.0410746
0.0103459
6.13682e-05
0.0559726
1.83341e-16
4.15126e-17
0.00145404
8.64633e-09
0.00147966
1.13841e-15
0.0195157
1.10985e-17
0.0214666
0.00482789
2.67146e-15
1.54803e-17
0.00748071
0.00318703
1.50002e-07
0.00562185
0.00507061
0.0031381
0.00264611
4.79382e-16
3.05356e-05
1.48199e-16
5.94324e-19
0.0113604
3.26508e-17
8.54639e-17
6.10546e-16
1.29567e-17
1.86496e-18
0.00233663
2.33077e-06
1.15991e-15
0.00149854
3.92588e-18
0.000173344
0.000987677
0.0280794
2.13869e-18
9.87101e-15
7.62897e-15
0.0491769
1.45587e-17
0.0409721
0.0225345
0.00255253
0.000171818
0.00186909
0.0204524
0.00310531
0.00380394
0.0122029
5.66292e-18
2.9175e-18
8.04397e-18
0.0262379
0.00183031
2.62441e-16
1.33321e-07
0.00502686
4.79527e-07
0.0106351
0.0154568
0.00943297
1.69024e-07
2.52397e-18
4.26856e-17
0.0527034
0.0252309
5.16182e-06
2.3178e-07
0.00518792
0.00369273
3.31716e-18
9.96745e-06
6.5871e-05
1.49512e-18
4.2547e-17
0.000148422
9.64396e-18
0.00613839
0.00226943
1.93737e-16
8.846e-15
1.71033e-16
4.35346e-15
6.94041e-15
7.53127e-17
0.00134102
0.00671455
0.0277212
0.00415998
0.00641689
0.00356731
9.48462e-05
3.57222e-17
0.00425216
2.11266e-15
2.65865e-17
0.00582211
0.0110726
0.0227989
0.0103178
0.00463095
5.35071e-18
0.00604991
0.000573151
4.52048e-05
0.0111902
0.00230505
1.3747e-17
0.00325952
0.0275229
7.68347e-15
0.000230423
0.00651038
0.00228017
0.000309745
2.51467e-15
6.12424e-17
0.0072856
7.22909e-12
0.123854
3.1798e-17
0.00601127
0.0190227
0.121827
1.61247e-18
0.00267202
0.011997
1.62849e-13
3.2341e-17
5.13089e-18
0.166581
4.19351e-07
3.97843e-15
2.01082e-15
0.00914375
0.0084711
0.0160007
3.91362e-15
1.0309e-15
9.33216e-06
1.41406e-17
0.0027251
0.00833095
0.0149814
0.0107818
0.00917503
1.61422e-18
3.21899e-07
0.000565352
2.06765e-18
1.63802e-16
0.0307106
0.0214613
1.52704e-15
0.00559802
0.00978923
8.83788e-19
5.53978e-15
0.000153259
3.78784e-16
1.16506e-15
3.91661e-05
2.9368e-16
0.0156124
0.0117301
0.00336245
1.04241e-17
0.0109664
7.28178e-18
9.55489e-18
8.24842e-19
3.72244e-08
0.022579
0.0055305
0.00466538
0.0369463
0.0109674
0.00149765
0.000591093
0.0340422
0.00941733
1.14077e-17
4.10156e-17
3.36769e-07
0.0220538
0.0215166
0.0128347
2.87741e-17
0.00633021
0.00195019
0.00276304
6.19503e-06
4.40022e-06
0.0122113
0.00211516
0.00186247
4.82909e-18
0.000778888
4.52116e-17
5.28955e-07
2.14912e-13
0.266482
0.0682719
0.0138378
1.93515e-16
2.95391e-18
0.00830949
0.00190201
1.04876e-15
1.83678e-17
9.27187e-17
0.000416403
0.0622568
0.00334116
0.0154395
0.0182908
8.95198e-16
2.16919e-18
1.68617e-17
0.00351195
7.95105e-13
0.001327
0.187108
5.82454e-07
1.81499e-17
9.31832e-17
1.50663e-17
4.17753e-15
0.0574339
0.0123249
6.69143e-18
0.00486235
2.49451e-15
1.05466e-15
0.0671748
0.00538585
0.0107236
0.00854869
2.33864e-14
5.85112e-15
2.60666e-18
0.00872318
0.0189784
0.00469612
5.13104e-17
2.03199e-10
0.000225161
0.00177435
0.00734241
6.34757e-05
0.0284751
1.36196e-16
0.0370407
0.00315891
0.00787478
0.0230877
0.0147345
6.03335e-17
4.24159e-16
1.82145e-17
2.21115e-16
0.0321026
0.00856883
0.0370841
0.0669821
3.57396e-17
0.0201505
9.79324e-19
1.86129e-16
0.0161338
4.77014e-16
0.0399592
1.62466e-18
4.7068e-18
0.0237372
1.19244e-19
0.0140959
0.000335054
5.10115e-17
0.001124
0.0150699
3.61457e-15
0.00797783
0.0106725
0.00739027
0.000435065
0.00291638
0.00613832
8.99515e-15
1.75266e-16
0.00136264
2.42493e-18
0.00500694
0.112076
2.814e-16
6.62059e-18
0.0256132
0.000127449
0.00759339
0.0224737
2.43795e-16
0.0389737
0.0197383
7.19583e-18
0.000696718
0.00281846
2.61061e-17
1.06255e-16
0.011803
0.00487643
8.31729e-19
4.56155e-16
1.08817e-08
1.12909e-16
0.0105622
7.00341e-18
3.50913e-18
0.0177347
2.47756e-06
0.0146353
0.0266918
1.79033e-16
6.15062e-15
0.00108195
2.00865e-15
0.000107691
0.0108123
0.121701
0.905606
3.82004e-15
0.00260347
0.000234457
9.54203e-17
0.0350466
0.0331012
4.68993e-18
1.14247e-08
0.000108611
2.15366e-15
0.0256924
0.0268947
0.0127505
1.734e-16
0.000590622
0.0206203
0.0212248
6.05363e-07
5.81441e-15
9.36934e-11
7.57916e-18
2.07986e-05
0.0318411
2.71951e-18
0.00957659
6.81023e-05
7.80705e-15
3.64627e-18
3.92174e-14
1.10861e-16
0.00429353
0.00951051
0.00711343
0.00244059
0.00339045
1.23412e-16
0.00228202
4.13129e-17
0.0356547
5.31494e-17
2.22768e-17
3.19468e-18
0.0318035
4.02048e-18
5.41685e-17
3.36918e-07
1.86059e-17
2.63558e-17
0.000876015
2.00031e-18
2.17663e-15
4.00536e-18
3.69657e-17
1.68527e-15
7.82608e-18
1.94182e-16
0.00815483
2.71806e-17
0.000392305
0.00165787
0.00267126
3.09599e-16
0.000624437
4.41803e-18
1.14994e-17
0.00310893
0.00205113
0.0293998
0.0222501
2.31728e-15
0.00186925
0.0726797
0.00841942
0.00110945
0.00365888
2.22497e-17
0.0223937
3.03297e-15
0.00428267
8.03862e-17
0.0691311
2.03926e-15
0.0210604
0.000322779
7.65299e-08
2.71678e-17
0.00233331
1.50125e-16
0.0759183
0.0443201
1.17643e-18
5.31728e-18
1.3355e-14
1.5645e-17
1.78064e-10
0.054587
1.64387e-15
2.34678e-18
0.00288039
2.21121e-17
0.0304244
3.0148e-17
0.000351142
1.25839e-16
0.000586186
7.47733e-07
0.00112113
0.0124549
5.01323e-16
0.000365813
6.70073e-16
7.65554e-18
0.0162772
9.06704e-17
3.57179e-05
1.13078e-14
0.00147698
3.88168e-17
0.0661522
6.85714e-17
6.16812e-15
0.012126
0.00387711
0.00150504
0.00430608
0.00591115
0.0208846
1.47934e-17
0.0207472
0.0070821
2.30133e-17
5.69581e-08
0.0314757
0.0125548
2.95299e-15
0.00550412
0.00543796
0.00127819
0.0013935
1.4718e-10
0.0137928
0.000983485
0.000166866
0.0267676
0.0141791
0.00109343
1.04815e-14
3.09383e-09
0.619712
8.09251e-19
0.000418065
1.01596e-18
7.47314e-15
0.00729827
0.0036371
1.25842e-07
8.45678e-06
3.3799e-16
0.0185017
0.00994228
2.07804e-16
9.98274e-12
0.00204372
1.47894e-15
1.63505e-16
9.52534e-17
1.15851e-15
0.0152548
1.20723e-17
1.98202e-17
0.00987387
0.00233887
9.63768e-15
0.00937446
2.23265e-15
0.00860237
1.11623e-15
6.73193e-18
0.0571364
6.9178e-17
1.8333e-16
2.78362e-16
0.00490116
6.37465e-15
0.0328313
0.00638826
3.84527e-17
0.0728325
0.00283321
0.0261277
0.0235756
0.000929512
9.17532e-05
4.388e-17
0.0569092
0.0415994
6.55258e-17
0.000308827
0.0361852
0.00708608
0.00155618
0.024432
0.0237696
7.74693e-17
0.0104635
3.67444e-06
3.51837e-15
0.0320011
0.000299424
4.81762e-14
0.0109169
0.0388237
0.00158847
0.0185243
0.0168373
0.00706614
3.74915e-15
0.00915377
0.00040031
8.26907e-12
0.014461
0.0148989
0.0347944
3.42113e-17
0.00211376
2.05009e-18
2.18823e-17
9.53533e-17
1.00853e-15
1.68491e-05
3.4913e-15
1.29249e-10
2.45768e-16
1.29743e-16
5.12319e-05
0.0396511
2.83929e-16
0.0366136
1.69723e-16
2.34136e-17
4.46883e-16
0.0396481
0.000496265
9.08334e-15
7.6074e-18
5.80838e-18
3.47974e-18
0.238311
0.0684507
4.08087e-15
0.00176947
4.67882e-06
5.13889e-18
0.0349053
0.00649273
0.0129306
2.65747e-17
1.30726e-17
0.00039247
0.0010696
1.33054e-14
1.20697e-17
4.72226e-16
0.00706813
8.31243e-18
2.24592e-16
7.93012e-18
0.0385091
0.00161385
1.76261e-17
4.12143
0.142702
0.0108983
1.26414e-18
1.62742e-15
0.0567658
0.000304545
8.61748e-15
7.58906e-06
0.170095
0.00291186
0.0119158
3.55985e-15
0.0578128
0.00152199
4.8746e-19
2.63519e-15
1.09823e-17
1.22165e-17
1.23474e-18
3.90965e-17
0.0193372
1.73059e-16
1.06604e-16
1.42697e-15
0.0119193
0.0234253
1.70914e-15
1.86695e-15
0.105673
0.0133296
0.00877919
2.00907e-16
8.06791e-18
0.0345922
8.51369e-18
0.00227511
0.00240322
0.0035357
1.18904e-15
7.16939e-17
3.20165e-17
5.10171e-19
0.0158543
5.18984e-17
1.04288e-16
0.000816724
6.31776e-16
0.0211457
0.00140618
9.65912e-16
0.035825
0.600948
0.00232173
0.0294359
0.000200156
0.0480017
2.40862e-10
2.23217e-14
0.0218622
0.0766135
0.00619962
4.21531e-15
1.31199e-09
0.517727
0.00988821
2.79843e-18
0.00291305
0.00313602
0.00143399
3.65893e-14
6.95901e-17
3.44112e-18
0.0126395
5.99988e-16
0.00232954
7.08149e-16
0.0014559
0.00127581
0.0343189
0.000534748
4.73882e-17
2.37277e-16
1.44994e-15
0.0197171
2.58348e-16
1.5263e-15
4.27159e-05
2.15476e-18
1.72438e-19
1.4098e-17
2.27322e-17
0.00897809
3.00216e-15
4.98551e-17
7.31757e-10
1.91153e-15
1.31714e-18
1.20664e-14
3.57333e-17
3.26329e-06
0.00151567
1.55948e-16
0.0033308
1.23025e-05
2.78434e-07
8.5227e-05
0.00439042
2.29113e-17
1.00238e-05
0.00926855
0.000372542
8.96712e-18
1.09452e-08
0.000752955
2.16593e-15
0.00888303
0.000299704
2.01208e-06
0.0253043
0.00867004
0.00215887
0.00553386
0.00197625
4.16585e-17
1.83764e-15
0.0301308
0.0243832
2.45753e-18
0.0077594
0.0536747
0.0277421
9.22532e-15
0.00166086
2.20605e-18
0.0102802
0.0134845
9.27495e-16
0.00144195
0.000475798
1.50103e-06
0.00451177
3.94961e-16
0.0471534
1.9351e-05
0.00185997
4.02199e-05
1.37739e-05
6.14226e-17
4.74978e-17
0.00833189
3.13295e-17
8.97666e-05
0.00032868
1.07372e-05
6.45709e-08
6.18449e-08
1.23105e-06
1.0219e-17
3.44522e-15
0.0216337
1.6241e-17
0.00115837
0.00234998
8.21059e-16
3.44166e-16
6.42172e-07
1.55189e-10
7.15207e-18
3.3373e-06
6.32079e-17
2.42655e-17
1.2994e-18
1.14677e-16
1.22643e-15
3.29703e-17
0.000330589
1.77708e-15
4.67593e-18
9.42746e-18
4.72687e-06
7.05343e-05
0.00204214
0.00916379
8.47598e-17
2.26297e-16
0.000232607
4.08242e-17
4.54727e-16
8.12892e-14
0.0194412
0.0407483
3.35393e-16
2.87263e-16
6.09416e-16
2.077e-15
1.39787e-18
2.24412e-16
0.00845537
2.96891e-16
7.97564e-08
0.0269258
2.69581e-17
1.70218e-16
3.26126e-15
1.52118e-05
3.03324e-15
1.11436e-16
9.02482e-18
5.88241e-06
3.44762e-17
0.00530301
1.06922e-06
4.35188e-09
8.93056e-17
4.67738e-05
0.00260524
0.043467
1.41309e-15
5.52991e-06
0.00722064
3.17624e-16
2.62469e-16
6.863e-14
2.82961e-16
0.00787341
0.00174726
0.00396527
1.59617e-07
2.00577e-18
0.0222922
5.1979e-16
3.9445e-15
6.78118e-14
1.60857e-18
0.0252994
1.20443e-16
3.87943e-15
2.63372e-06
0.0488105
9.19679e-16
0.00300218
1.03408e-15
0.00112406
1.09951e-14
2.6309e-18
1.67008e-18
7.29834e-17
0.00264501
0.000683015
0.338609
1.61987e-17
1.12247e-15
0.00204998
4.76429e-17
2.79656e-15
6.24722e-17
0.0422379
5.60074e-06
0.0286778
3.10951e-15
6.46007e-06
2.96192e-05
9.20554e-14
6.91404e-05
2.94254e-16
0.00182548
0.0276354
0.0200101
0.00164655
0.000326407
8.5089e-18
1.03686e-17
3.25579e-18
1.39948e-05
2.88116e-18
0.00542907
2.94701e-18
0.175884
6.42412e-17
0.041719
0.00354258
6.82431e-15
7.77281e-17
4.48182e-14
2.08741e-18
0.0313041
7.34815e-15
4.44022e-14
0.0129913
0.00536244
5.34007e-15
2.28704e-14
2.15662e-14
4.32354e-15
5.19491e-15
9.39106e-18
0.0203953
0.000519908
2.06768e-16
3.05475e-16
2.78672e-07
2.10768e-16
0.00132999
0.000116003
1.06662e-15
0.00271267
1.23098e-17
0.000331765
5.25753e-16
0.000890475
2.51356e-16
1.27438e-07
1.79435e-06
0.000876834
0.0143975
0.0274195
1.01247e-06
1.00056e-16
0.000449154
2.53312e-16
0.00436807
1.83445e-16
1.56623e-18
5.31042e-14
3.00476e-18
1.28149e-17
1.39271e-17
0.00569811
0.00627896
7.58073e-18
6.0858e-14
1.63385e-16
0.000536009
1.76343e-05
3.41469e-17
0.0184345
0.000213061
2.66632e-15
0.0224824
0.00812279
0.00332015
0.0134653
5.84248e-18
6.56237e-17
3.44891e-17
3.86664e-16
0.0362724
7.3246e-18
0.103853
2.11858e-17
0.000217005
0.000729062
1.4644e-17
0.000670773
4.18992e-18
1.91613e-16
0.00227131
2.58727e-08
0.00590129
5.42551e-17
1.22941e-15
1.58316e-16
0.000694297
5.00967e-15
5.33265e-18
4.44565e-16
5.10373e-07
2.08187e-15
1.19085e-05
9.31291e-15
2.01532e-15
8.95053e-16
0.0178291
0.00958628
0.017689
0.0343015
2.33645e-18
9.68746e-06
1.70213e-17
1.121e-18
0.0107391
8.01947e-17
3.10648e-06
0.000255484
0.00628841
0.000240526
9.59676e-11
0.00242387
3.81166e-19
1.69127e-10
9.79854e-10
9.33514e-05
0.00123621
0.0134795
6.58958e-08
2.57898e-16
0.031174
1.19603e-15
1.91353e-16
2.96633e-05
0.0745179
1.01425e-07
3.57292e-17
5.55697e-17
6.04359e-07
2.2851e-16
2.00824e-15
1.01805e-05
3.92233e-16
1.67291e-16
0.0419795
0.000141628
0.000105756
0.0234454
0.00717138
1.38154e-15
5.61128e-17
3.718e-06
0.00419995
2.70171e-17
5.1875e-17
0.0112383
1.72941e-16
6.82708e-14
2.37609e-15
3.16964e-15
3.34761e-13
2.52195
1.94427e-16
0.000184253
5.27704e-17
0.0153194
1.11326e-16
3.48317e-12
3.11109e-15
2.54436e-15
1.24567e-17
3.41426e-16
0.00336475
3.78373e-17
1.73288e-16
5.02259e-15
2.01303e-16
9.9246e-18
4.88282e-17
0.00996417
4.63473e-17
0.0110394
0.00233642
1.23018e-15
0.00172898
6.77042e-16
0.000398599
1.50094e-06
0.00406596
0.0141721
5.02252e-16
8.95397e-05
0.00934107
4.4986e-06
5.85611e-18
1.07296e-06
0.0169616
0.00476342
5.96601e-16
0.0267177
3.77292e-16
1.07538e-17
4.44627e-16
1.12165e-16
0.00827332
3.97728e-16
4.89813e-16
0.00805245
1.09554e-07
0.00278659
3.14651e-18
6.39917e-14
0.000675467
1.31973e-17
0.000147372
1.32506e-15
0.0217478
6.82078e-17
5.30778e-17
5.54192e-05
1.70193e-16
0.000101611
1.68489e-16
2.02966e-16
0.00534124
0.000390751
0.00489181
0.0174797
0.217413
0.0197341
3.44804e-16
2.98496e-14
0.00236928
0.00669276
0.0351994
0.0133362
1.04078e-16
0.0112868
8.06024e-17
1.16267e-16
0.00763148
0.00960083
1.77128e-15
0.0124346
6.3564e-18
0.00284076
0.00827345
4.32136e-15
3.21185e-17
2.78492e-18
0.00232346
1.71379e-16
2.03053e-17
0.00354696
0.019934
3.99722e-06
0.00767526
2.3085e-16
1.75285e-17
5.48779e-05
0.000656472
4.08967e-16
0.00924189
6.99933e-15
0.00243586
3.36415e-17
2.2082e-16
0.0111179
4.09588e-18
4.50605e-05
0.00296697
2.06655e-15
6.78171e-17
0.00365164
2.64207e-11
0.0539338
5.91389e-17
0.285351
9.10689e-17
6.36101e-14
1.7519e-14
0.00643017
2.3143e-15
1.50915e-15
0.0050161
6.76162e-15
0.000161625
1.01408e-14
1.14749e-15
1.57675e-16
1.57363e-07
0.000775508
3.78764e-17
2.80133e-17
0.0359688
0.000942353
2.4914e-16
0.000596298
5.38088e-16
3.58576e-16
1.20483e-06
0.00369054
0.00117221
3.7065e-16
5.81244e-17
4.96316e-17
1.51889e-17
1.43316e-15
3.32661e-15
6.35731e-17
6.2061e-17
1.00747e-16
6.3506e-16
6.66445e-18
1.9752e-16
1.13271e-16
2.03846e-16
2.96236e-17
1.72582e-15
3.47997e-16
1.50958e-16
8.50865e-17
8.34868e-18
7.57349e-18
0.0183586
9.39359e-17
5.73882e-16
6.46773e-19
0.00619359
1.33978e-18
2.03211e-16
0.194693
7.25729e-16
4.03267e-16
0.0219057
2.93519e-12
6.3371e-16
0.00437518
0.0232885
9.31745e-18
0.00127608
0.00216871
1.71875e-15
0.0111
0.037389
0.0165216
0.00287561
0.00975735
4.42468e-16
2.2245e-16
0.0027538
0.0101723
0.00268401
1.28977e-16
0.00559895
0.00135197
0.0186427
0.0107021
0.00064114
0.0135898
0.00106947
0.0084455
6.48326e-18
0.0265771
0.00755949
0.00181913
0.00117334
7.14501e-18
4.73485e-17
4.96916e-18
9.34143e-18
1.78495e-17
0.00873713
0.0121999
3.82056e-18
3.10952e-17
6.23629e-15
3.78891e-16
4.06477e-16
9.59575e-16
1.02195e-15
9.13674e-17
0.00409452
8.66719e-05
0.0194751
4.90518e-05
9.9156e-18
1.0204e-14
0.0331281
2.86123e-06
1.56364e-16
9.79046e-17
0.00700566
5.63348e-18
3.80368e-17
3.61205e-06
0.00701617
0.0122268
0.0293513
0.0270247
4.84928e-17
0.0139825
0.000260747
7.05471e-16
1.23727e-15
0.0101831
1.91441e-16
1.04801e-16
0.0277157
0.994013
0.000149464
3.82369e-14
1.14341e-19
0.0159717
0.0222142
0.0162242
0.00577064
0.00198843
4.44361e-17
6.81197e-07
2.27854e-09
3.27742e-17
1.0758e-15
0.0169779
3.25795e-17
0.00193962
0.0258683
0.015507
0.0119774
9.1438e-18
0.00522997
5.78102e-18
5.47726e-16
3.86913e-17
1.67216e-16
0.00250808
0.710187
2.08735e-17
1.25507e-16
4.35408e-06
0.0224776
0.000465469
0.00617044
0.0312021
0.00456374
0.0197351
2.91352e-15
1.46172e-15
5.46706e-15
0.0306401
0.00510662
2.70884e-08
9.82154e-16
1.6077e-17
8.37388e-14
0.0186979
0.00268919
9.17468e-18
0.00431959
0.0450124
0.00817913
0.00544351
3.16888e-17
4.52119e-15
0.00613193
0.0214988
1.49915e-17
0.000237978
0.0120291
0.000856076
0.00885026
0.00411528
0.00747574
4.6688e-14
0.00346528
0.0186872
0.0364765
1.27666e-09
0.0230086
4.66379e-15
0.0159153
0.000146798
2.17993e-18
0.0024955
0.00635004
0.000312478
0.0106842
2.17122e-07
0.000192242
1.72535e-05
0.0245871
0.0031172
1.32912e-14
0.0377542
0.00105738
6.57944e-17
7.09209e-18
2.551e-08
4.98457e-06
0.000900726
1.0133
0.0325264
0.00776401
2.56628e-07
0.0371435
5.80768e-16
6.13174e-18
0.00383092
4.37668e-15
0.00231412
0.00615171
0.00180804
0.00445505
1.09059e-16
0.000238437
0.102138
4.81629e-17
0.0596517
0.00653331
3.85747e-17
0.00341978
0.000180531
7.08684e-19
2.11875e-09
9.47867e-05
8.72128e-17
1.61405e-16
6.37745e-18
0.00427444
0.0044893
0.0132467
3.45704e-17
0.00560859
0.0296813
4.40402e-17
0.00701831
0.0108692
0.0240707
0.00130204
1.61315e-16
0.000617327
0.00894421
0.00916836
0.00780012
0.0368983
0.146453
0.00324809
6.65114e-17
5.92703e-06
0.0502718
1.54019e-17
0.000374857
7.10028e-18
3.09709e-17
1.16412e-18
5.09141e-19
5.60735e-17
0.00265746
7.93401e-18
0.00612427
0.00144113
6.23928e-19
0.00408305
1.23058e-15
0.0139152
3.83115e-16
6.98396e-06
2.45633e-15
0.0206382
0.000111218
1.26143e-06
0.00356845
0.0277556
0.0165636
0.00364025
0.0239584
3.21613e-12
0.0196682
0.0497299
0.00818705
6.23961e-18
0.0011892
0.000357577
0.00478979
0.0113078
0.0007552
3.94752e-18
2.18498e-15
6.88487e-16
0.00404665
1.67558e-16
4.76538e-05
0.000227857
0.000531716
0.000271701
1.08329e-17
2.51131e-18
1.35395e-16
0.00738246
0.0199975
0.00127554
7.32635e-06
0.00185388
0.00613049
0.00196741
0.000719924
0.0062818
0.00530338
0.00231805
5.23949e-15
5.41729e-18
3.95915e-18
0.0137978
0.0102463
1.62068e-15
1.71482e-16
7.48297e-14
0.00707671
0.0185982
2.75024e-17
0.00189066
2.08451e-17
3.77109e-07
0.00525014
0.0741111
7.2473e-17
1.53262e-18
0.00342076
1.70026e-17
8.47588e-05
0.0109777
1.51377e-15
0.00938551
0.0313623
0.0160245
1.90339e-16
0.000658733
1.57287e-15
5.69429e-05
0.045436
1.97532e-16
2.09718e-17
0.0107285
4.81942e-13
5.33172e-17
3.51262e-05
0.00107333
7.32301e-17
6.57732e-16
2.48983e-15
4.66052e-05
0.00125055
0.00305317
0.0201794
0.00948594
7.71119e-17
3.26179e-07
0.000421625
5.88063e-17
4.24188e-17
1.88822e-17
2.23812e-16
1.96631e-14
2.69544e-15
3.68866e-15
1.4595e-16
4.84987e-15
1.05038e-16
1.37317e-09
1.91578e-16
0.000410223
6.29122e-15
8.66638e-05
7.0655e-14
6.32931e-05
2.32968e-14
1.33128e-17
0.021995
0.00804219
1.67037e-15
0.0867083
1.43146e-09
3.61231e-11
3.88519e-16
0.00104517
5.08893e-14
0.00218781
4.75457e-06
0.000973078
5.59532e-16
2.4952e-16
0.00063329
5.83581e-08
3.95818e-16
2.11513e-18
0.0368809
1.61942e-15
0.0339061
1.50323e-15
1.27745e-17
1.10522e-06
0.0266698
0.00843843
1.13524e-16
0.000398438
8.01248e-15
0.00103054
1.22332e-05
0.0018672
0.000645006
2.20371e-18
0.019018
0.000760228
0.00480366
4.42487e-17
1.46648e-16
7.27801e-17
0.00524966
0.00398642
0.0440379
1.75556e-16
2.36283e-07
2.91419e-16
8.95827e-17
3.10899e-16
1.55182e-16
0.00237626
0.00156345
0.00236449
0.279249
1.73601e-17
0.0287001
0.0329599
0.0174948
0.00122328
2.12437e-18
0.00544523
0.00326238
0.00476966
8.41628e-07
0.009615
5.17225e-16
0.001723
0.000889594
0.0303838
8.02699e-07
0.00241247
3.44512e-16
0.0166071
2.56946e-16
5.24012e-17
0.00142542
5.25273e-17
0.00695368
1.41338e-17
2.70973e-15
2.15192e-15
2.7193e-17
2.78443e-18
0.000590454
2.89487e-16
0.000599204
7.29036e-16
1.56116e-17
0.018787
0.00592865
0.00729308
0.00808415
1.43798e-17
0.556262
2.95573e-18
0.0666323
1.3704e-15
0.018549
0.0180492
0.00183348
0.0533961
2.57237e-14
6.37487e-15
3.92522e-16
0.00205785
4.21346e-17
4.71542e-17
0.0167663
5.34673e-16
1.4776e-17
0.0040406
8.43144e-15
0.0125722
1.11068e-07
4.71247e-15
3.86253e-15
1.07374e-14
0.0014335
0.00574817
6.59899e-17
0.0207071
0.000242429
2.22403e-15
0.0941807
3.16495e-17
0.0153875
0.0170119
0.00295879
1.72599e-16
0.01549
0.00824517
0.000598786
0.00410267
0.0110857
4.12023e-17
9.73614e-17
1.4919e-06
1.42368e-16
2.96869e-17
3.44488e-18
0.0182914
0.0359419
0.00400677
0.00175132
6.84928e-15
0.0416409
0.0429949
0.00365632
0.00300105
0.00796288
0.0200889
0.00204073
1.35097e-16
5.63918e-17
4.46113e-17
0.00504925
8.03266e-18
0.0241636
3.94155e-15
0.000631827
2.94542e-07
0.0023866
0.0208688
4.37911e-17
3.98366e-18
0.00198052
0.00027885
3.23404e-18
4.51803e-16
6.73156e-19
2.71039e-05
0.000257497
0.000105837
0.000634723
0.00876585
0.0836501
1.3301e-15
7.27344e-17
1.01239e-15
0.00354695
0.0188306
0.0186878
0.0309945
0.0019139
0.00211183
2.53329e-15
9.99652e-17
3.06201e-13
3.93852e-16
0.0093488
0.0190659
9.11353e-17
1.70737e-16
1.06961e-15
6.45584e-18
1.91069e-18
2.8834e-15
0.0109341
2.73772e-16
0.001085
0.291801
1.69886e-16
1.55227e-05
0.0208892
0.000618319
1.7741e-18
4.55289e-15
0.00367965
8.45802e-17
0.0116014
1.45949e-06
0.0218177
1.42716e-14
1.21039e-12
9.08442e-17
1.13496e-16
2.85537e-16
3.25411e-15
0.174327
3.29746e-17
0.00440817
0.00105904
3.37803e-16
6.47709e-17
0.00146098
4.39773e-17
8.88559e-17
0.0141907
5.05881e-05
3.17969e-16
1.91383e-15
2.28361e-15
0.0148022
1.31311e-17
2.20015e-18
0.000245842
0.00196808
0.00224599
6.42916e-16
1.93767e-16
1.36651e-15
0.0029519
0.00140576
0.0103628
0.00295216
2.50336e-17
0.000684114
0.0123573
0.00582156
3.29906e-18
1.59507e-17
4.60818e-18
2.70843e-18
8.14764e-18
0.0282307
0.00717479
0.00426534
2.19534e-18
8.76604e-17
5.9047e-18
1.2799e-17
4.67538e-16
6.33662e-07
0.000291362
0.00230048
7.98061e-16
1.16247e-17
2.81302e-18
3.84761e-09
0.0275347
0.0947059
3.65725e-17
5.44336e-11
2.39589e-13
6.05338e-16
5.48266e-18
0.00326746
0.00675889
5.44493e-16
2.46295e-15
0.00243391
4.26504e-17
0.000683753
0.00115134
2.00838
6.95088e-17
1.18765e-15
0.011991
0.000361526
2.39091e-16
0.634562
0.000509836
0.00672706
1.14419e-15
4.29263e-16
3.06296e-18
1.55746e-16
0.00696166
9.02726e-05
5.22833e-16
0.021724
0.0159715
0.838451
3.0965e-17
1.04183e-17
2.37049e-16
1.407e-16
0.00536281
2.82822e-08
8.94731e-17
5.18307e-15
0.0167531
0.0010626
0.00481279
2.36639e-16
3.28314e-17
0.0256098
8.61234e-15
2.54755e-16
9.79956e-17
2.35219e-16
0.0227453
1.92298e-16
1.34539e-16
2.80573e-16
0.02289
0.0126169
3.92494e-17
5.28975e-18
4.98883e-16
0.013385
7.41942e-08
4.4272e-16
2.78078e-16
1.39168e-18
4.14901e-17
0.00217533
0.00864564
4.72368e-19
0.00205543
0.000864378
0.00392788
3.36403e-17
7.45846e-17
4.69333e-16
5.80634e-18
2.87229e-17
0.0213952
1.12363e-15
0.0155221
3.33971e-16
0.00115255
4.26204e-14
0.00170047
2.03083e-16
4.15907e-18
0.0101647
0.261356
8.68008e-15
0.00259385
8.12501e-17
0.000285823
2.07589e-14
1.87623e-16
8.07559e-16
1.66136e-07
1.03997e-15
0.000358573
4.35205e-16
0.0334924
7.51963e-19
7.06531e-15
4.43559e-18
6.52368e-16
7.13997e-06
0.000111011
8.22428e-17
0.00376301
5.9666e-19
0.00351861
0.0195657
0.000889401
6.98971e-19
2.96684e-06
0.000305532
1.3768e-06
0.00490654
4.9441e-07
0.00119376
1.23738e-14
2.05731e-17
3.26184e-07
0.0047184
0.000168872
2.9108e-17
7.03512e-16
1.93991e-15
0.431098
8.04521e-18
8.63472e-16
2.90777e-17
1.81588e-17
3.82974e-18
8.54166e-05
0.000121623
0.000753159
5.20164e-05
7.02152e-13
0.000911857
1.22505e-18
0.00632656
2.41555e-16
3.82362e-18
1.79155e-17
9.11555e-17
2.40476e-05
1.91796e-15
7.96163e-19
4.23048e-16
0.0145156
1.40809e-15
3.68132e-18
0.010623
1.03231e-14
0.0363977
0.0654171
0.384671
9.09431e-17
0.204785
1.27544
1.80641
0.668946
1.0433e-15
1.36025e-17
0.00473357
0.00523658
5.88704e-16
0.00294622
4.05098e-17
0.0310486
2.93734e-15
1.79936e-16
0.000470178
1.6724e-16
2.9828e-17
6.79568e-06
2.79122e-05
2.62091e-18
3.2515e-17
1.33081e-06
1.68019e-15
6.7482e-17
2.01391e-05
0.00739176
0.00113166
1.72261e-15
0.00605606
4.6505e-17
0.00337588
3.89485e-07
0.00512278
5.55036e-16
1.15718e-09
0.00465559
2.57404e-15
2.18115e-10
1.66438e-16
0.0317536
4.2593e-16
0.0101919
6.82376e-16
9.48752e-08
5.52757e-17
5.65767e-16
1.58352e-18
1.00776e-10
7.80286e-10
2.29879e-17
0.0119468
0.00671745
1.43583e-17
3.88548e-15
0.0327225
0.0177087
0.173806
3.14292e-18
4.71926e-05
0.0240787
0.0455682
3.023e-09
6.34432e-19
0.0647316
4.46119e-16
0.213488
2.11936e-17
1.06457e-08
6.64049e-09
1.80166e-16
3.71156e-05
2.44755e-15
0.0198562
3.17033e-16
7.06503e-16
1.87761e-16
5.55153e-17
5.4285e-17
1.82347e-16
0.000365519
0.00147682
0.137679
3.26129e-16
5.59037e-14
0.0407758
1.51473e-16
1.21905e-18
2.78091e-16
3.93974e-18
7.53039e-16
0.00497328
7.14694e-16
9.30116e-19
3.12787e-18
0.00278219
2.62536e-16
1.90174e-16
3.37205e-15
0.00270488
2.56646e-17
0.00513097
0.196015
0.00380737
0.00449257
0.0226596
1.4567e-16
8.17769e-16
1.49567e-16
0.00255686
0.0016711
2.01828e-17
8.05167e-15
0.000484847
2.21362e-17
4.84385e-17
0.311813
4.53237e-16
0.021548
8.25582e-17
0.00205744
0.00365687
2.95986e-15
2.96342e-16
1.91639e-16
1.0592e-17
1.09351e-16
0.0200199
1.36773e-15
0.00382336
8.00339e-16
1.54501e-16
0.00569021
2.72154e-17
0.0137781
1.08593e-15
1.88511e-17
0.00220341
7.7777e-05
0.123581
1.25181e-16
8.47328e-17
2.0475e-16
0.00357602
0.170824
8.71413e-16
3.02847e-17
5.62397e-16
0.00124823
6.65091e-17
0.0212827
0.0233343
1.74666e-15
9.02277e-17
0.00583485
8.03127e-18
1.55564e-14
1.19778e-17
3.04504e-14
3.22271e-17
0.0601814
1.66258e-13
1.8325e-15
7.25814e-18
7.59883e-14
7.95999e-16
1.31952e-14
5.61643e-16
7.8131e-16
2.09221e-14
0.00754212
7.31446e-15
0.00674776
5.55484e-14
3.40192e-16
0.542265
0.00216279
4.03942e-16
5.95205e-15
2.02763e-17
0.00193567
7.65838e-15
7.69811e-17
2.23961e-15
1.93281e-16
0.00573963
2.615e-17
0.00292582
2.62487e-18
0.0100148
9.24477e-15
0.0551164
2.53373e-16
4.16868e-18
0.0170831
3.6249e-15
2.97966e-16
0.0259857
0.0002688
6.84329e-19
9.66608e-18
0.0385852
0.011847
0.00526996
0.000651039
0.00145303
0.0156337
0.00076912
0.00543647
6.2717e-15
0.0199296
1.07009e-15
1.49467e-15
1.58664e-18
4.29418e-15
6.20148e-16
0.00827635
2.53244e-18
7.81715e-19
7.56421e-19
5.14115e-07
1.41938e-05
9.22082e-15
0.00280759
7.66914e-17
0.00407891
5.8111e-16
6.99336e-07
0.00310829
1.48962e-13
0.0398768
2.03785e-16
9.54108e-16
4.66163e-16
0.00236109
0.00142157
2.63089e-16
1.26277e-17
0.00201676
6.28362e-17
0.622497
1.00396e-16
0.0800234
4.25781e-17
2.74833e-17
6.31597e-18
1.57996e-16
0.00835945
2.1294e-16
6.05794e-05
1.73895e-17
0.00932079
1.03798e-16
2.02444e-16
7.75793e-12
1.7725e-13
3.14693e-16
1.55538e-16
5.67643e-16
9.73729e-18
0.00435436
0.227569
3.76697e-14
1.3638e-17
0.000395569
5.76614e-17
5.51783e-17
1.84164e-06
0.0165627
0.000170293
2.46299e-16
0.000546114
0.00367794
0.00442646
0.00842381
5.59685e-18
8.49155e-19
6.64848e-18
1.96422e-17
2.4315e-17
3.90106e-17
7.24653e-17
4.86731e-16
9.8502e-19
4.73224e-17
2.30475e-16
3.39889e-17
0.0706167
2.24342e-16
2.32174e-16
3.90746e-09
6.31924e-17
9.60181e-17
1.05478
1.83913e-16
5.87447e-17
0.00139578
2.27982e-10
5.22927e-16
2.51323e-18
1.15394e-17
0.0207069
5.60773e-18
1.56612e-16
3.47387e-08
7.29746e-18
8.07782e-16
1.22321e-17
4.21056e-17
0.101363
1.81742e-17
0.000249208
5.16262e-18
5.44973e-17
1.16274e-17
2.62338e-16
8.15823e-18
4.38985e-08
6.39834e-08
0.000126705
2.41111e-18
7.44852e-16
4.00335e-18
1.11923e-07
1.15709e-16
2.44731e-07
3.14962e-08
1.51902e-16
1.39338e-14
3.18452e-15
1.29314e-08
9.23713e-16
1.82808e-15
1.16028e-09
8.35962e-15
0.0302592
5.29865e-17
0.00546205
1.11932e-14
1.74863e-06
5.50009e-17
0.00156139
4.03193e-17
0.00448451
0.0193087
8.25885e-16
0.00264313
8.98729e-06
2.02169e-16
0.00818816
4.1608e-16
9.23734e-17
3.10352e-16
4.33472e-16
1.22131e-14
4.63312e-17
1.59742e-16
1.07452e-17
0.239558
1.41494e-15
2.7607e-16
5.82439e-18
1.08872e-17
2.6721e-16
0.0293228
0.779316
1.93462e-06
1.66483e-05
1.3924e-16
0.00156605
0.00104597
8.70128e-18
1.79366e-15
4.04439e-16
1.09397e-16
1.253e-15
3.87388e-15
5.65417e-15
5.98338e-16
0.000411922
2.7531e-16
2.726e-18
9.50357e-05
1.53486e-06
5.35203e-16
0.0263795
1.28751e-15
1.50193e-15
1.08282e-16
0.165451
1.44497e-16
1.92023e-17
0.0215651
6.19954e-17
4.13275e-18
2.4691e-15
4.06879e-18
0.0481373
6.17161e-17
1.48462e-16
2.29464e-17
1.0436e-15
0.00645785
0.230654
0.026814
0.0452027
0.00265875
0.000153704
2.25446e-17
1.3588e-15
0.10572
0.00156884
6.07195e-16
4.73777e-08
1.8083e-17
1.51407e-09
2.63371e-15
0.210781
4.64412e-17
1.7136e-16
0.000165692
6.21221e-11
1.02753e-15
0.0116453
6.92415e-17
1.90089e-17
0.202153
0.0279438
3.34913e-18
5.55074e-17
1.50487e-15
3.37828e-17
9.12158e-18
4.76541e-15
4.68145e-18
2.05353e-17
0.00344061
5.12572e-18
1.10811e-16
3.0265e-16
1.00799e-05
1.06137e-15
3.1867e-14
7.41196e-17
7.00536e-17
2.44745e-15
2.21151e-15
0.00241914
2.55007e-16
1.58745e-15
0.00419167
2.08866e-17
0.000416387
0.00510115
2.35785e-16
0.00277175
9.37489e-17
1.56185e-15
9.93849e-18
3.44813e-15
7.81883e-18
3.48341e-17
2.62649e-17
2.94906e-18
0.00183666
5.98256e-16
1.11939e-17
6.52376e-18
7.76235e-16
1.93573e-16
3.8347e-15
0.0402482
2.10931e-17
4.18714e-18
0.324074
4.88051e-18
3.02687e-17
6.00252e-19
0.000956958
9.42458e-17
3.15708e-06
2.49172e-16
5.07209e-05
0.00854435
1.16295e-17
4.81127e-15
0.0375557
1.03209e-14
4.21916e-17
8.75209e-05
3.71026e-07
0.00970875
1.30332e-06
3.7991e-07
7.81011e-08
3.23886e-18
2.30725e-15
0.000742675
0.00021753
0.0206152
0.0106437
3.54622e-05
9.12327e-19
0.00536755
0.00412321
0.015948
3.56492e-18
0.0108046
0.0157512
0.00239618
0.001117
0.000410786
0.00452042
0.0180404
0.0356753
0.00748301
0.0109613
0.00716619
1.4572e-14
0.00254773
0.00341361
0.000572441
0.00309751
0.0135492
0.0121416
0.0204288
2.05573e-14