/*--------------------------------*- C++ -*----------------------------------*\
  =========                 |
  \\      /  F ield         | OpenFOAM: The Open Source CFD Toolbox
   \\    /   O peration     | Website:  https://openfoam.org
    \\  /    A nd           | Version:  10
     \\/     M anipulation  |
\*---------------------------------------------------------------------------*/
FoamFile
{
    format      ascii;
    class       volVectorField;
    location    "54";
    object      U;
}
// * * * * * * * * * * * * * * * * * * * * * * * * * * * * * * * * * * * * * //

dimensions      [0 1 -1 0 0 0 0];

internalField   nonuniform List<vector> 
111485
(
(0.20005 -0.200205 0.000376697)
(0.567966 -0.00141609 -0.00374472)
(0.561685 0.00129008 0.00174449)
(0.20048 -0.200533 8.49424e-06)
(0.584002 0.00262288 -0.000174298)
(0.199422 0.19938 3.95975e-05)
(0.573815 0.00144667 0.000314134)
(0.588464 -0.00139757 0.000858088)
(0.574408 -0.000342786 0.000384746)
(0.58614 -0.00599502 -0.00250127)
(0.565133 0.00137047 0.00162259)
(0.591921 -0.00116215 0.00283271)
(0.55668 0.000201255 0.0011921)
(0.561142 -0.00147031 -0.00378797)
(0.570252 0.00217797 0.00118033)
(0.580554 -0.0034664 -0.00217296)
(0.57236 -0.000555342 0.000667094)
(0.205455 -0.0240479 0.033331)
(0.585417 0.0015384 -0.00133866)
(0.197958 -0.197627 -4.39313e-05)
(0.198484 -0.198474 -0.000279642)
(0.2001 0.200029 9.55651e-06)
(0.578816 0.00143403 -0.000302069)
(0.586902 -0.00384362 -0.00111563)
(0.576143 0.00279563 -0.000985649)
(0.201851 -0.201067 -0.000299442)
(0.594142 -0.00251343 0.00316017)
(0.562566 -0.000955286 1.56844e-05)
(0.586636 0.000787335 -0.00151309)
(0.199437 -0.199497 2.30352e-06)
(0.591277 0.0108934 -0.00303048)
(0.583869 -0.00106866 0.000181013)
(0.198127 -0.198603 0.000328179)
(0.199753 0.200124 -0.000504754)
(0.200775 0.0820137 0.0345223)
(0.200691 0.201823 -0.00281334)
(0.588846 0.0106717 -0.00441497)
(0.569594 0.000829048 0.0050611)
(0.58152 0.174237 0.0112998)
(0.584005 0.0030235 0.00040997)
(0.196574 0.198197 -0.00139522)
(0.590894 0.000544881 -0.00360568)
(0.583171 0.00318379 0.00114828)
(0.562579 -0.00435732 -0.000857822)
(0.589499 -0.0107216 -0.00525185)
(0.199677 -0.198553 0.00122414)
(0.590739 -0.00258483 0.00286288)
(0.586076 -0.00353157 -0.00102019)
(0.590822 0.000108403 -0.00275522)
(0.199137 -0.196931 0.00119993)
(0.197755 -0.195892 0.00126407)
(0.228041 0.191101 0.00311281)
(0.197019 -0.196416 0.000674972)
(0.590699 0.00263322 -0.00537138)
(0.196666 -0.195747 0.000169709)
(0.583412 0.0014995 -0.000611218)
(0.583096 -0.00256967 -0.00104897)
(0.200069 0.199793 4.24281e-05)
(0.531239 -0.00120674 -0.00940926)
(0.586218 0.00240598 -0.000332456)
(0.585956 0.00271123 -0.000227561)
(0.199653 -0.199984 0.000247015)
(0.542315 0.000571712 0.00361841)
(0.593623 -0.00117962 0.00456531)
(0.206085 0.18629 0.000181998)
(0.535867 0.00100603 -0.00135342)
(0.410945 -0.0373642 0.0141735)
(0.588005 -0.00179709 0.000831181)
(0.528884 0.000332596 0.00179523)
(0.499524 -0.00111995 0.000248028)
(0.565532 0.00453916 -0.00364127)
(0.523838 -0.00102735 0.00190318)
(0.214896 -0.19428 -0.00421335)
(0.536243 0.00105294 0.00423355)
(0.199885 -0.199761 7.57952e-05)
(0.585179 -0.00117248 0.000582729)
(0.200003 0.200066 -5.54543e-05)
(0.591028 -0.00122956 0.00314889)
(0.199865 0.19978 -4.89529e-05)
(0.178095 0.173604 -0.00654049)
(0.568489 -0.00881882 0.00591909)
(0.585731 0.00212687 0.000485467)
(0.198946 0.198546 -2.8417e-06)
(0.199828 -0.19979 9.28112e-05)
(0.552887 -0.000130303 0.00103176)
(0.530866 0.00144118 -0.00226952)
(0.453192 0.288776 -0.0804214)
(0.582545 0.00727051 0.000633393)
(0.560404 0.0149853 0.0136613)
(0.567347 0.00086837 0.00165882)
(0.599 0.0110022 -0.00729643)
(0.584811 -0.000969849 0.00104162)
(0.545893 -0.000981334 0.00196238)
(0.554949 -0.000559055 0.000554302)
(0.591867 0.0017102 -0.00376416)
(0.199881 -0.199861 1.94701e-05)
(0.199195 -0.199047 0.000141988)
(0.582346 0.00677809 0.00202702)
(0.609125 -0.126541 0.0035593)
(0.549746 0.00534198 -0.0016439)
(0.19981 -0.199819 0.000117467)
(0.585174 -0.00319439 0.000498262)
(0.200924 0.201225 0.00109942)
(0.580099 2.22065e-05 -0.000310232)
(0.573657 -0.00258307 -0.00326195)
(0.196377 0.174309 -0.00433826)
(0.200198 0.200099 -6.90671e-05)
(0.584127 -0.0013206 -5.84693e-05)
(0.540217 -0.00302553 0.000422727)
(0.518136 -0.0152965 -0.0165544)
(0.553262 -0.000411582 0.00122579)
(0.579963 0.00084547 -0.000240607)
(0.541498 -0.000420148 0.001975)
(0.532326 -0.00325734 0.000938897)
(0.201789 -0.200747 3.24503e-05)
(0.510894 -0.000471857 0.00148589)
(0.200955 -0.200359 -0.000263885)
(0.20082 0.199604 0.00116241)
(0.570669 0.00218151 0.00164815)
(0.200388 -0.200259 6.00605e-05)
(0.202001 -0.20101 -0.000106752)
(0.264536 0.207206 0.0129401)
(0.197212 0.198144 -0.000383218)
(0.199959 0.199459 -0.000716835)
(0.557953 -0.00133961 0.0023736)
(0.160351 -0.114497 -0.0293314)
(0.252352 0.215885 0.00846854)
(0.516086 -0.00017829 0.00247476)
(0.200135 -0.20004 -8.20816e-05)
(0.585471 0.0419533 -0.0153942)
(0.587206 0.0126986 -0.00676293)
(0.581335 0.00696607 0.00200528)
(0.198972 -0.198498 -0.00113883)
(0.258838 0.224546 0.0235793)
(0.241179 0.214634 0.010748)
(0.586543 0.00167357 -0.00144112)
(0.200324 0.200263 -8.82195e-05)
(0.58176 0.00135898 3.35905e-05)
(0.577942 0.00265897 0.00177828)
(0.568097 0.00267854 0.00266908)
(0.442462 -3.29189e-06 0.00189171)
(0.582334 0.00322766 0.000690865)
(0.577224 0.00292611 0.00185754)
(0.551137 0.000549341 -0.00227028)
(0.577535 -0.000944044 -0.000461979)
(0.569311 -0.000540002 0.00143281)
(0.200424 0.200444 -3.1767e-05)
(0.200035 -0.200069 1.21985e-05)
(0.199729 0.199949 0.000471343)
(0.583598 0.00268714 0.000492347)
(0.551674 0.000924301 -0.00199842)
(0.198522 -0.198478 0.000116531)
(0.375657 -0.00219875 0.00372947)
(0.56921 0.00287308 0.00179704)
(0.624218 0.0245261 0.0105854)
(0.586552 0.00167365 -0.00125754)
(0.584115 0.00182993 -0.000565953)
(0.540809 0.000126043 -0.00130235)
(0.626023 0.0339656 0.00584618)
(0.198831 -0.200839 0.00104356)
(0.199935 -0.200085 0.000251872)
(0.585819 0.00158366 -0.00129275)
(0.573363 -0.001887 -0.00189199)
(0.630252 0.0343553 0.00645275)
(0.620976 0.0311753 0.00838718)
(0.541512 0.000375176 0.00280489)
(0.584104 0.00688437 -0.00266177)
(0.196875 0.198965 -0.000242829)
(0.638769 0.0419454 0.00903308)
(0.608873 0.0311696 0.00881936)
(0.200026 0.200158 5.20113e-05)
(0.199609 -0.199665 9.76451e-06)
(0.465947 0.00048767 -0.00383451)
(0.200296 0.200389 2.76073e-05)
(0.581557 -0.00105343 -0.000205394)
(0.559983 0.000339054 -0.000986434)
(0.199888 0.194934 -0.00121116)
(0.215546 -0.198767 0.00202541)
(0.198869 -0.197873 -0.000448886)
(0.197138 0.1858 -0.00196877)
(0.216597 -0.200222 0.00319489)
(0.199821 -0.199942 0.000205132)
(0.582038 0.00213178 0.00068133)
(0.583552 0.00145251 -0.00120762)
(0.581292 0.00161159 -0.000760283)
(0.572326 -0.00221036 0.00230264)
(0.552082 -0.00173073 0.000304156)
(0.554228 0.00087454 0.00180672)
(0.494719 0.00635214 0.000783284)
(0.1993 -0.198529 5.0185e-05)
(0.535633 7.93788e-05 0.000783825)
(0.215052 -0.200312 0.00194852)
(0.201309 -0.201491 -3.88762e-05)
(0.558828 0.000916025 0.00189032)
(0.586384 -0.00674052 -0.00237616)
(0.582366 0.000989664 -0.00291816)
(0.559279 -0.000666443 0.000494282)
(0.569353 0.000205187 0.000309816)
(0.199355 -0.199036 0.000483622)
(0.558794 -0.00264894 0.000704015)
(0.556171 -0.000467623 -0.00309543)
(0.385002 0.119445 0.0153013)
(0.570122 -0.00485479 5.16875e-05)
(0.579153 -0.000853 0.000481949)
(0.200418 -0.199165 -0.00050539)
(0.556286 0.00126556 0.00201521)
(0.58471 0.00128302 -5.10613e-05)
(0.21855 -0.198467 0.000673361)
(0.561458 0.00114286 0.00259712)
(0.58958 -0.000491333 0.00325921)
(0.551087 0.000631976 -0.0023068)
(0.55449 0.00141792 0.00255974)
(0.216377 -0.200783 0.00252406)
(0.198885 -0.198961 -2.22293e-05)
(0.554255 0.00149922 0.00285069)
(0.360269 0.224046 -0.021039)
(0.595753 0.00247095 -0.00615719)
(0.199883 0.199934 -0.000149217)
(0.557968 0.00110842 0.00233496)
(0.559303 0.000285682 0.00031283)
(0.592657 -0.00196755 0.00385987)
(0.200119 -0.200078 3.04896e-05)
(0.520604 -0.000414876 0.00133667)
(0.585158 0.00898825 0.00440317)
(0.319104 0.213711 -0.0244473)
(0.200293 0.200356 -0.000146872)
(0.200005 0.200154 5.77702e-05)
(0.597532 -0.00291174 0.00595123)
(0.555408 0.0121875 -0.00331412)
(0.210477 0.176885 -0.00428246)
(0.246107 -0.191888 0.0080698)
(0.560842 0.000508747 0.00101824)
(0.579799 0.000828046 -8.05484e-05)
(0.583176 0.00122142 0.000522665)
(0.206977 0.179387 -0.00553943)
(0.209844 -0.194333 -0.00102606)
(0.562516 0.00718438 -0.00853515)
(0.19987 -0.199806 8.75493e-05)
(0.534242 0.000640486 -0.0028819)
(0.554307 0.000390165 0.00233907)
(0.560662 0.000201707 0.00135444)
(0.561247 0.00109204 0.00143609)
(0.563562 0.000538314 0.00189055)
(0.199301 0.199404 0.000611687)
(0.42633 -0.00086878 -0.0157182)
(0.569479 0.00181618 0.00172837)
(0.198214 0.198815 -3.41194e-05)
(0.200134 0.200215 4.99429e-05)
(0.592856 -0.00683655 -0.000353073)
(0.579614 0.00270929 -0.000655406)
(0.204724 0.173255 -0.00562823)
(0.528331 -0.000475722 0.00116428)
(0.568643 0.00160853 0.00147305)
(0.200285 -0.200183 -5.19642e-05)
(0.253927 0.240363 -0.00124896)
(0.58481 0.006222 -0.00277035)
(0.201122 -0.198606 0.000172529)
(0.221737 -0.159452 -0.00380831)
(0.300881 -0.107237 -0.0107251)
(0.2005 -0.199849 -0.000125575)
(0.57281 -0.000881091 -0.000966405)
(0.556224 -0.0010177 -0.000842782)
(0.579305 0.000840764 -0.00152858)
(0.199978 -0.200056 -3.99944e-05)
(0.572457 0.00162753 0.00138418)
(0.20046 -0.200512 5.15075e-06)
(0.200322 -0.200469 0.00013781)
(0.199169 -0.198303 0.000395213)
(0.39592 0.00179266 -0.00534082)
(0.589871 -0.00261791 0.00319098)
(0.560016 0.00210295 0.00249924)
(0.570814 0.00191543 0.0013132)
(0.590095 -0.00300002 7.33028e-05)
(0.568539 0.000911451 0.00171168)
(0.582355 0.00221505 0.000792132)
(0.586554 0.0106516 -0.000999606)
(0.575624 0.000507279 -0.000242177)
(0.580101 0.000922124 -0.000312772)
(0.203841 0.200479 -0.000117514)
(0.199011 -0.199083 -0.000271785)
(0.362812 0.00253889 -0.00776546)
(0.582834 -0.00116255 0.000492958)
(0.587071 0.00479888 0.00499289)
(0.555398 -0.000853246 -0.000827644)
(0.200425 -0.200295 4.79134e-05)
(0.578974 0.00190906 0.00118058)
(0.581432 0.00309264 0.00148141)
(0.570583 0.00125183 0.000766144)
(0.501002 -0.000597423 -0.00233516)
(0.527036 -0.00596343 -0.0133419)
(0.579335 0.00174813 0.000514146)
(0.569345 0.00146718 0.00141431)
(0.580702 0.00539793 -0.00333871)
(0.200001 0.200097 1.01392e-05)
(0.533697 0.00296773 -6.37413e-06)
(0.19988 0.2 -7.86308e-05)
(0.161191 0.119864 -0.0268613)
(0.226214 -0.14596 -0.0120601)
(0.602005 -0.00582059 0.0111329)
(0.590242 -0.00299 0.00010098)
(0.575698 -0.000296337 0.000226797)
(0.200289 -0.199769 -8.23183e-05)
(0.199229 0.20034 0.0017271)
(0.578345 0.0020516 0.00123043)
(0.554244 0.000829954 -0.000704387)
(0.198662 -0.198631 5.10601e-05)
(0.200233 -0.200112 0.000232068)
(0.19541 -0.196553 0.00126585)
(0.5494 0.000656623 -6.24007e-05)
(0.577411 0.000557918 -0.000636748)
(0.550161 -0.000106178 0.0020476)
(0.530514 0.00111305 -0.00211732)
(0.587988 0.00194219 -0.00137973)
(0.229475 0.196874 0.00587149)
(0.199712 0.200194 0.000382865)
(0.19959 -0.199413 -8.38031e-05)
(0.57617 0.00214442 0.00160081)
(0.378118 -0.317997 -0.016294)
(0.549614 -0.000553421 0.000800692)
(0.598634 -0.00376732 0.0137439)
(0.482923 0.00101366 -0.00973851)
(0.200157 0.200138 -9.32238e-07)
(0.199804 -0.200003 0.000165734)
(0.200386 -0.200496 -8.73629e-05)
(0.253546 0.211929 0.0133903)
(0.583897 0.00189459 -0.000131662)
(0.588411 -0.00294615 0.000563333)
(0.199754 0.200765 5.35191e-05)
(0.580638 0.00150161 -0.000175718)
(0.211852 0.170173 0.012532)
(0.199683 -0.197291 -0.000303424)
(0.595459 -0.00184711 0.00498037)
(0.578775 0.00198773 0.00106395)
(0.591109 -0.000316183 0.0013994)
(0.580848 0.00156015 -0.000107515)
(0.191859 0.168967 0.0107232)
(0.251025 0.215296 0.0145561)
(0.199381 0.199641 -0.000382749)
(0.579873 0.00194651 0.0007638)
(0.579009 0.00177421 -9.56551e-05)
(0.589895 0.0115243 -0.00437001)
(0.197104 0.196604 0.000381084)
(0.40385 0.353686 -0.087245)
(0.551163 0.00205869 0.00480254)
(0.58949 -0.00263588 0.00144036)
(0.579603 0.00204094 0.00134788)
(0.549416 0.0557964 -0.00394016)
(0.58805 0.00127332 -0.00174768)
(0.19897 0.198964 0.000117534)
(0.587754 0.00150995 -0.00139771)
(0.565415 0.000713332 0.00120604)
(0.593859 -0.013523 5.04115e-05)
(0.597351 -0.0035666 0.00753552)
(0.574642 -0.00486511 -0.00418568)
(0.198775 0.199821 -0.0006517)
(0.199229 -0.199677 -0.000439254)
(0.200198 0.198871 0.00077042)
(0.198123 -0.198688 -3.90171e-05)
(0.587809 -0.00248784 0.000305143)
(0.582198 -0.000470552 7.57236e-05)
(0.584009 0.0026687 -0.00245686)
(0.587994 0.00155667 -0.0017981)
(0.198062 0.198239 -0.00085205)
(0.581046 -0.0037611 -0.00169494)
(0.200003 0.200023 6.13026e-05)
(0.199399 -0.199848 6.30301e-06)
(0.587795 0.00183077 -0.00133816)
(0.184393 -0.184467 0.00272912)
(0.325822 -0.0634974 -0.00353143)
(0.197001 -0.196225 -0.000205976)
(0.200341 0.19666 0.00116487)
(0.582549 0.000639253 -0.000558514)
(0.200041 0.199901 2.18328e-05)
(0.575099 0.00162323 -0.000180731)
(0.547118 0.000418133 -0.0022571)
(0.200588 0.200596 -5.4615e-05)
(0.525677 -0.000202597 -0.0025027)
(0.572851 0.000920453 0.00103021)
(0.201696 0.176189 -0.00652824)
(0.569201 0.0025175 0.00301568)
(0.540917 0.00228489 -0.000567794)
(0.573381 0.00272166 0.000978451)
(0.533676 0.00109139 0.00737662)
(0.578464 0.00156441 0.000465732)
(0.553025 0.000261136 -0.000937055)
(0.197782 0.167951 -0.000858182)
(0.198827 -0.198487 0.00123274)
(0.49463 0.000895085 0.0121757)
(0.198285 0.198926 -0.0011758)
(0.572416 0.00293995 0.00295396)
(0.596128 -0.00328841 0.00586316)
(0.200683 0.191479 0.00175138)
(0.199498 0.200387 -3.28922e-05)
(0.586208 -0.000847135 0.000437807)
(0.563564 -0.00258317 -0.00522805)
(0.566375 0.00292281 0.000297528)
(0.586953 0.00196734 -0.000772001)
(0.199968 0.199611 -7.80841e-05)
(0.59766 -0.000933165 0.0100127)
(0.589329 -0.00202174 0.00302071)
(0.200885 0.200571 1.93349e-06)
(0.576259 0.00952799 0.00784259)
(0.549792 -0.00228852 -0.00628264)
(0.199616 -0.199688 -1.28976e-05)
(0.198944 -0.198956 7.92539e-05)
(0.573944 0.00164507 -0.000553068)
(0.578219 0.000388838 -0.000920317)
(0.200122 0.200048 -0.000310855)
(0.199618 -0.199198 -0.000307177)
(0.344993 -0.189167 0.041788)
(0.200341 -0.200471 8.16656e-05)
(0.578518 -0.00116396 -0.000204293)
(0.198569 0.199285 0.000422285)
(0.200431 -0.200508 1.18478e-05)
(0.591188 -0.000215806 0.00186319)
(0.536848 -0.00647122 -0.0153663)
(0.584115 -0.00370897 0.000839583)
(0.565441 -0.000205532 0.00100446)
(0.200766 0.200632 2.81127e-05)
(0.260974 0.200053 0.0100543)
(0.565275 0.00785453 0.0118861)
(0.244108 0.214461 0.0122094)
(0.563761 0.00252015 0.00478798)
(0.560249 -0.00492786 0.000167677)
(0.586222 -0.00219407 -0.00175085)
(0.404195 0.0070799 0.015524)
(0.239547 0.205304 0.0106911)
(0.584097 0.000858075 -0.005619)
(0.592469 0.0189832 -0.00575919)
(0.199878 -0.200203 0.000262635)
(0.591707 0.00144494 -0.00626083)
(0.592168 -0.00244954 0.00227012)
(0.200044 -0.199982 0.00018267)
(0.574776 0.0326838 -0.0193062)
(0.498404 0.000171309 -0.00644331)
(0.25361 0.198668 0.00801753)
(0.589823 -0.00114848 0.00238324)
(0.582341 0.000787101 -0.000779162)
(0.578453 0.00156294 -0.00040756)
(0.200001 0.199891 -5.59544e-05)
(0.575231 -0.000959484 0.00410916)
(0.592085 4.6827e-05 0.00194134)
(0.573082 0.00567188 -0.000583123)
(0.35891 -0.0056907 0.0067005)
(0.244421 0.229859 -0.00508344)
(0.338703 -0.01087 0.0126677)
(0.199753 -0.200051 0.000188609)
(0.531203 -0.0187196 -0.0178707)
(0.575358 -0.00106969 -0.00370293)
(0.200075 0.19998 0.000280857)
(0.548728 0.00129087 -0.00389635)
(0.450112 -0.00104515 0.00885321)
(0.261086 0.229646 -0.0024471)
(0.200057 -0.199932 -3.53064e-05)
(0.233036 -0.199334 0.00632)
(0.200323 -0.200259 -2.9315e-05)
(0.572702 0.00344875 -0.000419915)
(0.577277 0.00328699 -0.00102768)
(0.573256 -0.00167623 -0.00163389)
(0.538216 0.00115055 -0.00299255)
(0.585872 -0.0114877 -0.0023424)
(0.199811 0.198906 -0.000387258)
(0.568176 -0.000587879 -0.00120744)
(0.200774 -0.199049 -5.46907e-05)
(0.563568 0.00204481 0.00140199)
(0.200792 0.200854 -1.90223e-05)
(0.200165 -0.2 -2.87597e-05)
(0.1974 -0.197984 -0.000313853)
(0.553648 -0.00391758 0.000454592)
(0.199103 -0.199302 -0.000210722)
(0.199919 -0.199974 2.56765e-05)
(0.196979 0.128822 -0.00858785)
(0.200334 -0.20048 9.3862e-05)
(0.197567 0.200157 0.00186552)
(0.567137 -0.00227701 -0.00124854)
(0.200049 0.199861 -3.14256e-06)
(0.237856 0.174887 0.000432598)
(0.200145 0.200264 0.000285168)
(0.199051 -0.198389 9.46061e-06)
(0.199914 0.199072 -0.000339519)
(0.198845 -0.197787 -0.00105021)
(0.198432 0.198609 1.27953e-05)
(0.515828 -4.67164e-05 -0.00401762)
(0.200191 0.19904 0.000861821)
(0.530299 0.00806288 0.0113201)
(0.580407 0.00137355 -0.000813004)
(0.596519 -0.0230138 -0.00336608)
(0.200804 0.199878 -4.00914e-05)
(0.50421 0.00155928 0.00924891)
(0.200261 0.199503 0.000110338)
(0.200405 -0.200502 -8.64312e-05)
(0.569566 -0.00478963 -0.0057928)
(0.570849 -0.00414136 -0.00547887)
(0.574377 -0.00169016 -0.000815665)
(0.600027 0.00113159 -0.0111521)
(0.230742 0.193579 -0.0063737)
(0.587453 0.00068521 -0.00352292)
(0.58698 0.000728112 -0.0031901)
(0.579654 0.00115379 3.38799e-05)
(0.570026 0.000687375 0.00024654)
(0.578782 -0.00588933 -0.00457981)
(0.198627 -0.198702 -0.000127844)
(0.580115 0.00101622 1.51547e-05)
(0.263456 0.228031 -0.0011634)
(0.57857 0.00141023 -0.000738234)
(0.199683 0.199432 -7.12175e-05)
(0.589359 0.00179244 -0.00330069)
(0.260502 0.215625 0.00268304)
(0.581086 0.000359923 -0.000751429)
(0.583261 -0.00299919 0.00197935)
(0.230167 -0.119338 -0.000803483)
(0.199676 0.199854 0.00230154)
(0.57065 0.00107884 0.00112528)
(0.199718 -0.199706 4.65614e-05)
(0.591689 0.00221983 -0.00408721)
(0.587492 0.00239005 -0.00264298)
(0.199863 0.199229 -0.00165248)
(0.199296 0.199312 0.000463888)
(0.195793 0.174185 -0.00406375)
(0.200066 0.200204 7.60155e-05)
(0.409304 -0.0227435 0.00932094)
(0.591964 0.00201845 -0.00390639)
(0.203272 0.198348 -0.000152465)
(0.199551 0.199992 0.000363323)
(0.506087 0.000718883 -0.00110296)
(0.200344 0.200363 2.73874e-05)
(0.582973 0.00168036 -0.00239277)
(0.200204 0.200126 1.49384e-05)
(0.576903 -0.0034861 -0.00162529)
(0.200249 -0.200296 -6.30759e-05)
(0.540606 -0.00248137 -0.00787271)
(0.443982 -0.00196423 0.000522013)
(0.543463 0.0017786 -0.00103863)
(0.581374 0.000663421 -0.000794576)
(0.200418 0.199019 -0.000640991)
(0.52479 0.000693085 -8.54822e-06)
(0.200384 0.199639 0.000178623)
(0.200174 0.200177 -0.00054073)
(0.574338 -0.00128913 -0.000689358)
(0.199809 0.199519 -7.93483e-05)
(0.488889 -2.19401e-05 -0.00484972)
(0.192301 0.176377 -0.00611291)
(0.58395 0.00173977 -0.00202211)
(0.198883 -0.199025 6.2722e-06)
(0.58867 0.000731623 -0.0012948)
(0.200562 -0.20036 2.0482e-05)
(0.239369 0.21086 0.00665497)
(0.595373 0.0218555 -0.00214438)
(0.570211 -0.00486309 -0.00588957)
(0.580502 0.00237381 -1.43448e-05)
(0.583685 -0.0061939 -0.00403827)
(0.577717 0.00128636 -0.0005764)
(0.589875 -0.00345693 -0.000305237)
(0.197822 0.199279 -0.000902123)
(0.580338 0.00333669 0.00173783)
(0.573028 -0.00549829 -0.00556668)
(0.199989 0.200071 -9.93945e-05)
(0.488624 -0.00629055 -0.019879)
(0.593442 -0.0052671 -0.00338389)
(0.569887 0.00259577 0.0022347)
(0.197328 0.194596 -0.00115555)
(0.246641 0.0443005 -0.0398523)
(0.557183 0.00141105 0.0018318)
(0.453137 -0.00202479 0.00488922)
(0.467647 0.108963 -0.00448784)
(0.25595 -0.133859 -0.0099122)
(0.588016 -0.00575103 -0.00103534)
(0.553276 0.00226007 0.00435578)
(0.569625 -0.00529274 -0.00574645)
(0.581797 -0.00310546 -0.00108419)
(0.571636 0.00321831 0.00140843)
(0.504163 0.0629972 -0.00175899)
(0.24876 0.210302 0.0018411)
(0.513553 -0.0224185 0.00563146)
(0.499526 -0.0463674 0.0103515)
(0.199753 -0.19981 0.000126073)
(0.510924 0.00359596 -0.00148825)
(0.201318 0.19744 -0.00105071)
(0.235284 0.213351 0.00201464)
(0.57845 0.00097605 -0.000202854)
(0.508952 0.083209 -0.00157871)
(0.613588 -0.0572231 -0.00803535)
(0.556245 -0.103942 8.89814e-05)
(0.234943 0.222652 -0.0157458)
(0.586945 -0.00357773 -0.000981643)
(0.579326 0.00322293 0.0026225)
(0.19957 0.199031 -3.85406e-05)
(0.259579 0.142154 -0.00542966)
(0.578848 0.00454548 0.00288506)
(0.200014 -0.19925 0.000169531)
(0.2 0.199891 -4.80415e-05)
(0.199239 0.199151 1.62528e-05)
(0.200461 0.199369 0.000221015)
(0.586331 -0.0057096 -0.0024466)
(0.200172 0.200144 0.000117393)
(0.200312 -0.200516 0.00101267)
(0.576112 -0.00358426 -0.00261949)
(0.53105 0.000262754 -0.0013719)
(0.29045 -0.255444 -0.013941)
(0.578963 0.00441489 0.00273233)
(0.23425 0.188259 0.00446891)
(0.581382 -0.00201139 -0.00110263)
(0.195644 -0.19535 -0.000636687)
(0.1996 0.20002 -7.12188e-05)
(0.585373 -0.00365958 -0.000840179)
(0.199872 0.198704 -0.000796697)
(0.200292 0.199767 8.37735e-05)
(0.229826 0.219371 0.00665294)
(0.550238 -0.000344506 -0.000437229)
(0.332763 0.277698 -0.0370588)
(0.576813 -0.00230222 -0.000988493)
(0.578147 0.000916536 -0.000217526)
(0.197851 -0.196611 -0.00155189)
(0.59899 -0.00098935 0.0191854)
(0.547278 -0.00316189 -0.00809787)
(0.574985 -4.71518e-05 -0.000482689)
(0.582282 0.0111602 0.00126046)
(0.583477 0.00426214 -0.0120632)
(0.501775 0.000247304 -0.00455299)
(0.199815 0.199502 8.75788e-05)
(0.586577 0.000596559 0.00175904)
(0.582251 0.00240063 -0.00039404)
(0.197849 -0.200443 0.000289646)
(0.540552 -0.000402502 -0.000303172)
(0.586201 0.00364688 -0.000898837)
(0.587535 0.00276298 -0.000991257)
(0.532038 -0.0023764 -0.00520424)
(0.587232 0.00264745 -0.00110119)
(0.587604 0.00324723 -0.000286964)
(0.199878 -0.197238 0.00130758)
(0.588829 -0.00105775 0.0026164)
(0.483822 -0.00362903 -0.00117088)
(0.241702 0.209124 0.0133244)
(0.587321 0.00213186 -0.00154208)
(0.559958 0.00090311 -0.00129601)
(0.323305 0.262329 -0.0402358)
(0.578611 0.000921905 -0.00022756)
(0.587523 0.00188196 -0.00183029)
(0.560245 0.000541001 -0.0021566)
(0.583322 0.00242319 -0.000224397)
(0.575277 0.00638605 0.00259515)
(0.579352 0.000891962 -0.000128498)
(0.195488 0.190824 0.000261134)
(0.582957 0.00274519 -0.00036102)
(0.546082 -0.003457 -0.00746433)
(0.22344 -0.137305 0.00509401)
(0.580157 0.0053697 0.00355865)
(0.572318 0.00513064 0.00527267)
(0.581037 0.00149257 -4.96357e-05)
(0.19936 0.198897 0.000182889)
(0.562008 0.00344849 -0.00543058)
(0.199859 -0.198719 0.000622564)
(0.200036 0.200029 -0.000200237)
(0.198786 0.197431 -0.00011667)
(0.200596 0.199345 4.12685e-05)
(0.487707 0.000261781 -0.00196733)
(0.238968 0.205924 0.00870939)
(0.449101 -0.0289481 0.0301493)
(0.198504 -0.198726 -5.55331e-05)
(0.199423 0.202054 -0.000407981)
(0.579803 0.00605468 0.00318186)
(0.584672 0.00124603 -0.0025403)
(0.199987 -0.199976 1.62695e-05)
(0.584207 -0.0037772 -0.000167241)
(0.200016 -0.199816 0.000662543)
(0.200254 -0.200102 -4.25372e-05)
(0.196507 -0.196625 0.000584992)
(0.59201 -0.00428591 -0.000459934)
(0.49566 0.00318115 -0.00120768)
(0.237914 0.212534 0.00359857)
(0.199643 -0.197802 0.000817307)
(0.199758 0.20045 -0.000296926)
(0.19956 0.199776 2.73458e-05)
(0.596405 0.00104893 -0.00683876)
(0.579892 0.00102618 -0.000243734)
(0.238023 0.223653 0.0104773)
(0.590555 0.0017868 -0.00335146)
(0.549691 -0.00949587 -0.0227275)
(0.199669 0.199819 -7.20615e-05)
(0.589094 0.00124776 -0.00299538)
(0.538643 0.000252634 0.00288422)
(0.571822 0.00299591 -0.00356036)
(0.200627 0.200555 2.06701e-06)
(0.199339 0.199269 9.71156e-05)
(0.569157 0.00246343 0.00324327)
(0.581781 0.00120458 -0.000295292)
(0.237603 0.215111 0.00349763)
(0.199141 0.199062 6.30402e-05)
(0.201982 0.195458 -0.000582518)
(0.578665 -0.00130328 0.000535034)
(0.199896 -0.199858 -0.000281879)
(0.199022 -0.198295 0.000170946)
(0.198671 0.198631 -4.04689e-05)
(0.588668 0.00171333 -0.00271017)
(0.51391 -0.00267194 0.000592022)
(0.200528 0.200545 2.301e-05)
(0.224178 0.036813 0.0424574)
(0.249152 -0.0329018 -0.00948108)
(0.567812 0.00311771 7.46824e-05)
(0.19971 0.199998 -7.96017e-05)
(0.200071 0.199727 -0.000169472)
(0.589722 -0.0068646 -0.000969844)
(0.565272 0.0103162 0.00948635)
(0.240865 0.214868 0.0109607)
(0.352738 0.111072 0.00703663)
(0.555901 0.010393 0.0171265)
(0.533416 0.00170824 -0.00357876)
(0.568656 0.000378988 -0.00037496)
(0.206264 0.193453 -0.00042554)
(0.563902 0.00132503 -0.000403368)
(0.585701 -0.00387811 0.00416312)
(0.200372 0.199754 -0.000232763)
(0.198266 -0.194918 0.000302395)
(0.198557 0.198664 3.54952e-05)
(0.199262 0.199205 -4.77538e-05)
(0.200134 0.200525 -0.000279159)
(0.200578 0.200645 -2.56413e-05)
(0.590075 0.00196043 -0.0029953)
(0.200108 -0.200014 0.000106274)
(0.199003 0.199022 2.7542e-05)
(0.198921 0.196221 -0.000225179)
(0.590634 0.00189094 -0.00335291)
(0.581611 0.00122181 -0.000272832)
(0.200824 -0.198156 -7.25458e-05)
(0.197314 -0.195231 0.000441666)
(0.595102 -0.00281973 0.00530376)
(0.565351 5.56906e-05 0.000806061)
(0.564411 0.000247049 0.000880991)
(0.199895 -0.199439 -9.3778e-05)
(0.198986 0.198957 0.000116153)
(0.564896 0.000158918 0.000803823)
(0.200306 -0.200129 2.02043e-05)
(0.559254 0.00145318 0.000216334)
(0.570052 0.00123332 0.00188399)
(0.571794 0.00164656 0.00107748)
(0.199971 -0.198504 0.000479153)
(0.200285 -0.200384 3.84163e-05)
(0.200203 -0.200379 -3.69409e-05)
(0.200239 0.200278 6.29422e-05)
(0.577835 -0.00288791 -0.00149232)
(0.199928 0.200136 6.89957e-05)
(0.198422 0.198646 6.38741e-05)
(0.576703 0.00198612 -0.00295793)
(0.200291 -0.200343 0.000108452)
(0.567681 0.000358357 0.000735258)
(0.513518 -0.00561811 0.00120211)
(0.200974 0.193875 0.00110508)
(0.580634 0.0013818 -0.000223295)
(0.269942 0.0382815 -0.00538474)
(0.573376 0.000422851 0.00045748)
(0.591246 -0.00142502 0.0013589)
(0.522961 0.00204392 0.00104698)
(0.592336 -3.61356e-05 0.00426224)
(0.429937 0.0113689 -0.0160622)
(0.239146 0.189989 0.00403251)
(0.572049 2.91976e-06 0.000445263)
(0.594967 0.00422316 -2.62307e-05)
(0.580548 -0.00132284 -0.000484559)
(0.204907 0.177544 -0.00621348)
(0.268187 0.0179107 -0.00804282)
(0.309089 -0.0303809 0.0116863)
(0.572878 0.000520369 0.000235574)
(0.198831 0.199207 0.000245652)
(0.560542 -0.00104674 -0.00384084)
(0.572506 -0.000179481 -0.00102962)
(0.555599 -0.00473486 -0.00884633)
(0.214674 -0.156873 -0.0117533)
(0.200342 -0.200471 8.65412e-05)
(0.2 -0.200002 -4.91592e-06)
(0.582985 -0.00168715 7.47331e-05)
(0.23443 0.193628 -0.00251229)
(0.553536 0.00201183 0.000890961)
(0.217563 0.198074 0.00273406)
(0.549952 -0.00105184 -0.00391302)
(0.567345 -0.00133221 0.000530866)
(0.56049 -0.000823323 0.00150616)
(0.581665 0.00132851 -0.000398017)
(0.199021 0.199009 -5.07895e-05)
(0.198031 0.197417 -0.000449391)
(0.213139 -0.194678 0.000906577)
(0.580296 0.00151409 0.000121292)
(0.200388 0.199793 -1.69592e-05)
(0.231932 0.198628 -0.00904759)
(0.593795 0.0122224 -0.0102307)
(0.200118 0.199809 -0.000160045)
(0.198785 0.199721 0.000701724)
(0.198462 -0.197816 -0.000325503)
(0.200418 0.200475 4.99282e-05)
(0.554234 -0.00015866 0.00156775)
(0.203462 0.193113 0.000325995)
(0.200133 0.199972 8.50583e-05)
(0.464082 0.0618075 -0.0456438)
(0.235514 0.189591 -0.00230091)
(0.197836 0.19823 -0.00186982)
(0.284083 -0.171681 0.0114132)
(0.199862 0.199632 -0.000258693)
(0.455047 0.00225378 -0.00301128)
(0.565764 -0.00103501 0.00103539)
(0.198526 -0.198568 7.44129e-07)
(0.555861 0.000714973 -0.00174975)
(0.553492 0.0889349 -0.00797385)
(0.551541 -0.00529034 -0.008863)
(0.606022 0.0231519 0.000258075)
(0.54697 0.000422304 -0.000776509)
(0.19991 0.198204 0.000832601)
(0.571853 -0.00532777 -0.00599349)
(0.592352 -0.0015923 0.00118609)
(0.551281 -0.00536209 -0.00885093)
(0.199999 -0.200214 1.10354e-05)
(0.598272 0.152872 0.0385759)
(0.552614 0.00104982 0.00107668)
(0.267565 0.213256 -0.0132363)
(0.548919 -7.82668e-07 0.000637961)
(0.598656 0.0071038 -0.00549599)
(0.572151 0.0115881 0.000422848)
(0.567273 -0.00156691 -0.0019784)
(0.567971 0.0017914 0.000163931)
(0.603293 0.00880256 -0.00298805)
(0.582235 -0.000837898 -0.000762517)
(0.576424 -0.000574212 0.000483724)
(0.198235 0.198999 0.000710154)
(0.198969 0.197885 0.000564594)
(0.55682 0.00150146 0.000937897)
(0.547224 0.000863229 0.000743104)
(0.199533 0.20008 -1.68219e-06)
(0.565099 0.000502672 0.000106689)
(0.590948 -0.00184275 0.00058113)
(0.577314 -0.00114518 0.000419616)
(0.199411 0.197286 -8.56643e-05)
(0.569917 0.0115022 0.00236624)
(0.199226 0.199082 -1.08302e-05)
(0.576804 -0.000601265 0.00043581)
(0.577989 -0.000612201 0.000299441)
(0.199898 0.199797 -2.91407e-05)
(0.552275 0.00307198 -0.00175004)
(0.576399 -0.000351455 -4.62701e-05)
(0.567845 0.010481 0.000573389)
(0.557713 0.000207278 0.00204207)
(0.204423 0.200447 -0.000334139)
(0.58465 -0.0017417 0.00174667)
(0.569682 0.0130351 -7.98257e-05)
(0.602342 -0.0159734 0.00346662)
(0.508083 0.00692157 0.00110968)
(0.453003 0.00143399 -0.00583109)
(0.199834 0.197661 -0.000274486)
(0.199466 0.1993 6.60131e-05)
(0.559883 0.0078793 0.00104474)
(0.200427 0.200426 -9.06841e-05)
(0.487492 -0.00135477 -0.00143497)
(0.562595 -0.0028515 -0.00409008)
(0.339795 0.0441076 -0.0134539)
(0.625528 -0.0423404 0.0167272)
(0.552591 -0.0250386 0.00779363)
(0.61431 -0.0235359 0.00580665)
(0.200348 0.200366 -5.83429e-05)
(0.273558 0.232363 0.00159689)
(0.582685 0.00153199 -0.000346928)
(0.199286 -0.200195 -0.000805129)
(0.114277 -0.0814786 0.0313257)
(0.574687 -0.010731 -0.00809761)
(0.198568 0.198157 -0.00046815)
(0.200459 0.20021 2.33771e-05)
(0.517192 -0.00987832 -0.000149429)
(0.418454 -0.0299254 0.000945004)
(0.200472 0.200502 -3.1313e-05)
(0.517973 -0.0105283 0.00202021)
(0.198522 0.198276 8.95983e-06)
(0.200031 0.200393 -0.0003335)
(0.200059 -0.200037 -5.10184e-05)
(0.200137 -0.199662 0.000477425)
(0.19596 -0.194324 0.000602936)
(0.199488 -0.199077 -4.27289e-06)
(0.520484 0.00478733 -0.00173783)
(0.197572 0.196048 -0.00014722)
(0.199999 0.200131 8.1159e-05)
(0.198319 0.1995 0.000473227)
(0.484839 -0.108436 -0.0278873)
(0.548571 -0.00492699 -0.010739)
(0.530489 -2.30481e-05 -0.00490367)
(0.582699 0.00147117 -0.000396746)
(0.198599 0.197391 5.55532e-05)
(0.201083 0.200335 2.0488e-05)
(0.558206 -0.00955667 -0.0116364)