/*--------------------------------*- C++ -*----------------------------------*\
  =========                 |
  \\      /  F ield         | OpenFOAM: The Open Source CFD Toolbox
   \\    /   O peration     | Website:  https://openfoam.org
    \\  /    A nd           | Version:  10
     \\/     M anipulation  |
\*---------------------------------------------------------------------------*/
FoamFile
{
    format      ascii;
    class       volScalarField;
    location    "2.8";
    object      p;
}
// * * * * * * * * * * * * * * * * * * * * * * * * * * * * * * * * * * * * * //

dimensions      [0 2 -2 0 0 0 0];

internalField   nonuniform List<scalar> 
111485
(
34.1922
6.41904
7.47694
33.9569
7.71623
33.4612
6.54696
5.71264
6.57683
9.61713
6.4898
8.3204
6.60295
6.41314
6.63796
6.75335
2.17225
35.192
6.56106
33.8671
33.8078
33.6712
6.62839
6.68133
7.69142
33.3618
9.24712
3.69887
7.46055
34.344
12.5825
1.52256
34.015
34.2673
34.7626
34.6148
12.4846
0.444615
14.6822
6.83562
34.6087
9.60626
6.83078
11.1115
13.6066
34.8968
10.5004
6.67685
9.58825
33.4614
33.4565
32.2578
33.4714
11.3028
33.479
4.15258
6.63645
34.7306
10.4659
6.82166
6.83556
34.1886
5.33567
12.3088
32.9972
4.67317
26.5399
6.0744
5.33202
5.73407
13.3064
4.83359
32.7843
5.32859
34.6341
2.79312
33.8105
9.23785
33.6658
33.8989
12.7632
10.8123
33.9725
34.5377
5.28175
7.04291
19.1022
11.3696
13.0079
2.01989
13.7278
7.05758
5.32358
0.83115
9.61705
34.5214
34.2082
11.3514
12.8025
12.0232
34.1091
9.30693
34.5094
9.10028
6.21449
33.5709
34.3774
1.77594
7.193
13.4055
1.2167
4.80041
7.05095
8.65823
33.3533
2.64592
33.4722
34.7245
5.37958
33.8778
33.3554
30.5558
33.9761
34.7393
10.0364
35.5068
30.4896
2.04738
34.6964
15.5128
12.4655
11.3427
34.6096
30.1983
30.9009
6.39817
33.8576
2.79708
5.86233
5.93673
9.6902
5.9217
5.90311
7.37247
10.1984
0.317783
33.8493
34.4802
34.5393
6.22534
7.39766
33.812
12.6168
0.040391
12.969
6.20128
6.14756
6.58602
13.2831
34.8229
33.9596
6.18421
7.39867
13.3926
13.1449
2.44326
12.088
34.7623
13.4979
13.5676
34.5329
34.4404
8.02002
34.1579
0.485163
0.0937703
33.1969
32.7423
33.429
33.4044
32.6818
33.9422
6.22636
6.27718
6.17759
0.179555
9.24563
3.35836
12.4753
34.0843
2.91865
32.7451
34.2184
3.3753
9.57004
12.0467
4.43804
0.398552
34.6329
6.28701
7.31033
27.1885
10.7855
1.93214
34.7223
3.39487
8.82594
32.7268
11.9871
10.4332
7.32715
3.31112
32.6508
34.2658
3.36041
26.5182
11.3276
34.1273
3.39232
2.90333
9.77243
34.8694
3.75681
11.7874
28.9398
34.1489
34.5502
13.3229
13.1353
33.1521
31.6307
2.92659
0.785486
4.58006
33.1339
33.0094
12.3105
34.676
6.23336
2.90538
2.92793
2.91222
2.93184
34.579
12.8687
2.31452
34.6462
33.9428
11.3378
4.82844
33.2578
1.46538
2.18827
34.4635
29.8584
10.6578
33.4076
33.3672
31.3158
33.6321
2.55777
2.84049
0.209161
34.8919
2.2207
33.9889
34.1689
34.7129
12.3769
9.2475
5.06411
5.1339
8.64213
5.06978
5.15816
12.9525
0.770444
0.813476
33.0191
34.439
12.9809
1.78207
9.56833
0.968586
33.9113
5.14646
6.2831
5.04609
8.84036
12.9422
5.00784
5.10325
10.7291
34.74
9.17538
34.162
35.3159
33.5084
13.3051
8.6751
6.7471
33.5355
34.8387
3.97786
1.29006
33.7862
34.2884
33.5016
2.8724
0.834056
6.13261
6.41075
6.95055
31.9462
34.4165
34.579
3.99144
22.0573
6.7895
13.0431
12.2382
33.9508
34.1671
34.1998
30.872
4.29149
7.65465
34.7128
4.24291
33.197
33.3692
11.5799
4.26914
8.57417
4.21209
33.6842
30.8045
34.5799
4.25283
0.245953
12.6909
33.2507
16.1232
12.5621
7.74657
3.81353
17.7331
6.99517
33.778
7.00037
4.33782
12.9503
11.5427
7.81768
34.3316
34.585
34.4633
33.9735
6.06554
3.69244
8.58932
7.00197
34.2832
8.15608
34.4203
34.2195
6.99428
33.7709
30.8334
34.9335
34.6477
6.22055
34.7404
0.198693
8.07896
33.6742
5.60518
4.46408
33.4253
4.39222
8.22756
4.41681
12.0165
0.428057
0.841945
33.731
34.4716
11.0789
34.6942
8.48966
11.7095
33.1225
34.6358
4.17656
8.36912
0.732198
8.10626
33.8254
12.5431
8.27135
33.384
11.106
8.39071
34.2692
33.913
0.199932
7.70804
34.6233
33.4921
28.176
34.1003
7.89663
34.1315
34.0601
8.34239
12.5479
10.2569
7.72088
33.4898
30.9087
11.1431
31.1763
11.0981
11.2096
9.52883
26.965
31.3603
0.345464
13.5083
34.3319
11.5515
8.10213
34.8753
13.5799
9.73171
31.2467
8.57766
8.30632
0.465261
33.5617
0.826395
8.76649
0.455402
13.4994
30.451
12.8482
34.6138
12.621
0.0841423
34.5127
8.56519
10.6269
30.0093
34.8742
32.0923
33.8002
7.72649
0.510451
8.4708
8.53343
11.9538
34.1605
8.62836
34.2243
7.73051
33.2968
34.2164
34.4611
8.53848
34.5039
34.2596
34.4162
34.2085
34.6029
10.6576
34.7442
32.3227
34.426
34.2616
33.4318
34.6072
33.7242
8.61198
34.4369
10.7545
8.83163
14.0593
33.3253
10.7536
34.45
34.179
8.56425
8.51802
8.65517
13.0511
32.1622
9.83353
9.84226
0.570337
0.958127
8.83073
34.4212
0.553587
30.029
9.99409
34.2085
9.95697
30.5637
1.12629
8.46895
33.9361
34.5748
0.933983
33.7354
9.8337
9.8828
34.6249
34.459
33.5803
34.4815
12.0721
9.80321
33.1163
34.7044
7.72763
33.6771
9.84336
33.7773
10.3451
34.1963
9.64942
9.87535
4.35891
1.0885
33.1742
-0.0856547
33.2631
34.2242
9.05391
34.2245
9.70056
33.6058
9.98821
34.3738
9.10715
33.785
31.2853
14.0203
9.06502
9.80694
9.08287
9.81525
8.38859
34.5244
9.8203
9.09367
34.0802
13.2762
12.2672
9.8546
33.2255
33.5016
7.70264
10.0765
23.3562
32.5948
9.02724
7.68357
9.25791
9.26528
1.33825
20.6203
31.0661
12.6397
21.9911
33.9936
9.80013
34.7036
31.382
1.99419
20.5268
12.687
17.8718
31.0693
9.32727
7.68651
33.304
32.281
7.66315
33.5683
33.6491
33.7277
33.2723
9.34376
34.4141
34.6366
9.44165
2.98266
28.5918
7.60302
32.1088
2.93454
33.4637
34.5548
9.3964
34.1982
33.3497
31.3021
0.344528
25.8048
9.59789
2.01927
33.5427
13.7542
9.60549
7.94516
12.1139
15.1024
7.75149
34.2501
9.59681
7.92751
34.7376
4.54666
10.7988
8.1307
0.32427
8.1413
8.13246
34.6255
9.844
11.9712
31.2236
8.12372
9.89678
26.2618
2.01252
8.11073
9.93193
8.60405
8.65454
2.02588
33.3447
8.65926
9.73123
33.8406
9.1981
9.20484
2.15455
34.2435
0.304587
34.8118
33.8929
34.3465
33.2707
7.91773
31.5033
11.9356
34.2353
33.3289
9.23346
9.25972
33.7247
9.87181
34.1826
34.7057
33.4908
10.0919
9.83408
31.3562
34.7621
34.1975
34.2738
12.2948
2.16572
30.9363
9.03121
13.3725
34.6214
9.04397
10.4651
1.22441
33.59
34.1331
4.7092
2.12432
31.2093
34.5081
33.0416
3.49433
34.4613
33.5177
34.1
8.94667
7.12138
33.6892
34.4535
33.8344
1.37123
34.6896
33.4055
10.1689
12.3272
31.1513
28.6858
17.2206
10.3275
0.0561024
32.8839
7.61101
10.6657
34.7448
33.4497
33.8788
34.1606
34.4469
33.737
8.99096
34.1757
33.8703
33.2413
9.00695
2.10483
33.3892
33.4793
10.3771
2.12833
2.17085
33.5794
33.8979
2.14325
34.4987
9.05224
2.1083
2.20836
33.354
34.1001
34.0979
34.3166
7.73546
33.9469
33.7715
11.3393
34.0766
3.67904
10.6397
33.068
2.04633
33.0826
3.67986
9.39814
9.70522
10.2913
11.7294
31.919
3.65216
10.4061
0.0529998
33.2742
9.81953
31.3333
0.646218
34.3568
10.7181
10.483
10.7043
33.5027
34.1332
34.8856
2.1212
32.1213
1.37427
32.5323
6.96015
0.607117
1.51145
2.14832
33.7506
33.2648
32.7923
2.17161
33.3436
31.9311
13.6507
34.6863
34.6866
34.09
33.893
1.54809
32.9318
34.1238
11.0777
32.0637
34.7476
31.0706
34.0681
10.6779
1.49927
33.8244
7.77272
17.1873
10.7335
13.601
1.87519
34.4803
9.47817
12.2124
10.7365
34.5629
9.02543
1.54443
30.1013
1.42931
13.0748
13.5533
5.66981
1.0075
13.2264
0.327249
1.35441
34.2813
33.2495
1.00047
0.999141
34.5973
1.01821
8.48178
1.3514
33.1398
13.4206
34.3514
1.39362
1.33424
33.5369
0.57934
1.34333
13.3781
0.309388
33.0017
6.13088
13.4229
14.3089
13.2986
11.5874
34.2446
34.371
11.3649
33.8717
8.73547
11.6582
30.4353
13.3383
12.5181
13.747
33.8955
29.9105
3.16891
34.692
36.7341
11.5479
33.2782
33.4633
12.7602
12.3128
33.8823
13.522
34.1511
34.1946
34.7255
34.201
33.4901
34.4806
11.6922
33.2235
34.5339
34.6252
11.1873
11.6271
7.21408
3.13706
33.6114
33.3427
12.0669
34.0428
33.4657
28.5031
11.7929
4.08858
33.6141
33.4223
33.3157
33.4045
34.3746
33.355
11.9497
33.3487
13.3477
6.96488
34.2707
34.1641
33.4643
13.4946
33.453
33.9677
34.3249
13.4316
34.387
11.927
12.4303
13.2526
33.7
26.8929
12.0196
6.70805
32.6909
13.3953
9.9906
33.5511
32.9423
30.6923
33.4196
3.16279
6.06465
12.2376
13.2965
33.5595
3.14127
32.8403
30.9924
30.5968
34.5508
5.49941
34.091
33.4727
12.6848
4.08409
33.471
9.77068
32.2405
12.2194
33.752
34.2144
34.3912
34.0523
1.49284
6.00819
15.3323
33.598
33.1868
1.4883
33.8829
31.59
34.2153
8.93894
13.329
7.76844
33.5102
12.8112
12.7613
34.2634
12.8085
33.2803
11.1482
10.0304
5.86479
12.7165
12.5936
33.9638
34.1676
34.1729
12.778
34.8944
12.8589
34.7816
16.222
33.4863
6.75564
6.97934
33.4846
33.81
33.499
34.6814
12.8539
33.5035
30.7098
1.46846
12.88
33.5267
31.4871
32.946
31.5474
33.2733
33.9897
12.9212
10.0667
33.9494
33.361
12.8936
34.2272
12.9243
1.51257
33.2156
11.3401
34.0768
0.903185
33.2005
7.48493
33.5133
13.1175
13.2693
13.1678
11.3883
11.3722
25.7753
32.8565
11.4718
33.4538
5.48053
33.6454
34.4788
32.4323
34.436
34.5601
34.5818
11.3515
11.3385
34.0835
30.1029
33.5464
11.5308
13.4502
34.2787
5.51193
13.3377
33.4677
1.95501
1.3754
5.24208
13.2163
33.8744
34.0739
34.3423
33.7564
5.5331
34.2942
11.6265
34.0024
11.6635
7.51761
34.3862
11.6055
34.5595
33.8434
11.7252
12.2983
19.6361
34.005
33.4726
33.3827
5.71163
32.6064
34.8785
32.8292
16.8741
30.7372
13.1848
31.4927
32.7334
32.9769
1.67866
1.47766
8.42403
6.27503
34.7391
11.6942
34.2259
34.599
1.44818
33.164
13.0257
11.6494
1.05743
11.8
12.1371
8.28949
34.5055
11.0724
7.90025
10.1322
12.0386
4.22613
27.7397
34.1728
8.04226
33.5774
33.4404
13.8332
9.5953
12.1474
34.1929
33.8648
12.6434
33.4664
33.2248
11.8776
33.4862
33.4812
5.08326
11.8926
12.1241
4.97907
2.53451
33.3275
33.9472
13.7247
4.88112
33.7231
33.479
8.60506
33.2884
30.0057
30.8255
30.9356
25.1456
30.0667
33.7285
8.164
33.3664
12.093
33.5167
22.997
33.2416
33.216
34.5216
33.8659
7.59743
33.8842
33.8662
31.2283
33.4403
34.495
34.1941
4.63968
33.9393
4.21104
12.16
33.2103
8.3293
33.6422
10.3362
13.3804
1.11954
1.17224
33.3512
1.24841
7.61198
13.1394
34.6986
12.3834
3.67873
0.572269
32.2673
0.733844
33.2349
34.4975
33.4739
33.6962
0.738493
34.1528
33.4655
0.587883
12.3013
0.579766
34.6229
27.6351
8.28435
34.3525
13.6472
33.4612
1.2142
33.1607
33.2471
8.20633
33.5054
12.5092
34.2283
33.5142
3.64487
10.5745
2.68274
5.8893
13.5814
4.69541
33.5322
33.8116
7.05881
2.77628
4.59019
12.3589
33.8794
4.2494
33.8193
33.4276
7.14484
12.5238
33.3051
2.84374
34.48
2.71218
2.50457
32.7824
33.7103
34.316
7.05464
34.1362
34.1393
7.0892
2.69158
11.9705
0.684925
33.5794
34.462
8.80728
7.1243
33.5549
7.08159
33.2667
7.05314
33.6482
33.576
7.02132
33.9011
10.0537
6.49462
33.3246
33.717
6.48251
29.9908
7.88323
34.1739
12.0905
34.2353
30.164
29.647
6.56887
31.3186
31.0901
6.04295
31.0435
24.5106
29.7978
33.208
33.5704
13.1309
7.87706
34.2037
34.2274
7.7515
7.82408
33.3225
7.15926
33.7515
33.5683
9.03648
8.61047
0.407217
33.6294
34.2355
34.153
33.8701
33.2739
33.2921
34.2433
33.3509
33.397
33.7168
34.1701
33.5747
33.9955
33.5936
33.4117
33.3095
33.587
33.7142
33.9322
34.122
34.5578
7.96713
34.0767
33.6002
34.5991
5.43697
34.7636
33.559
21.498
33.0469
32.804
5.48947
34.2012
32.8477
22.7444
5.52483
33.9963
30.3407
31.5248
33.4536
11.083
5.55542
5.57142
5.33672
3.30142
33.5792
33.4741
4.12211
4.31889
5.32654
33.8032
4.8847
10.7283
5.29669
0.883457
1.00575
5.36749
1.68953
5.27778
34.7361
6.0005
4.88376
7.48027
4.89183
34.331
34.1971
34.4732
34.0843
34.3115
4.27913
4.95749
34.3031
33.4101
33.3432
33.3583
33.4955
33.6494
33.1341
33.5764
4.8921
13.4744
4.93379
8.21407
33.1461
32.9156
10.9479
13.5463
33.6944
33.8717
7.88017
34.8068
34.0975
4.91277
4.85157
4.8916
7.77328
10.8642
33.64
0.0696762
5.865
30.718
33.588
5.78448
33.5843
33.233
20.2601
17.5364
8.26351
33.2671
34.7168
12.3581
5.95687
0.13911
4.30897
22.5443
34.1034
11.588
33.8614
34.782
32.8383
7.70315
33.4782
4.27535
0.197679
5.71589
5.91115
34.4388
3.7469
34.5559
32.6027
34.4656
33.4664
1.39895
25.1114
33.8894
33.9209
34.1065
4.30308
30.5624
3.86293
4.2921
1.3632
4.30157
33.3619
33.2185
30.5188
7.66628
3.24042
12.2808
33.4524
34.1815
30.5223
11.0121
8.18643
33.8778
3.15618
20.4463
5.94681
3.23021
34.0112
30.0914
3.24362
4.27746
34.2122
9.6231
9.29693
8.21466
3.76387
3.38246
3.51181
30.7138
1.2845
3.49083
2.97016
33.5173
5.70383
30.9216
7.5243
3.65564
34.8837
0.916944
3.47469
3.79782
4.54637
35.2478
19.5897
12.1695
24.6191
3.5042
32.4988
1.09951
3.46645
33.4231
33.9409
13.6998
13.2648
5.01899
35.0885
8.39889
13.5033
11.9535
12.5366
33.3395
34.8091
4.26209
34.1925
3.85693
13.3058
3.47416
1.08483
33.8419
10.2156
4.2292
33.5497
30.9355
2.71363
34.4658
2.71907
2.54351
34.2109
35.1649
5.98228
33.6891
33.6038
34.761
1.04627
14.3923
7.71248
34.8764
7.49274
1.88036
33.0848
1.8691
1.96167
1.18673
13.32
33.7493
3.81115
0.8014
1.91609
1.93012
1.22533
13.0237
6.89082
34.1701
0.0773839
1.33902
34.0158
1.9358
34.6068
34.1124
34.6098
34.7185
33.9005
11.0142
34.4508
1.86929
8.96981
34.7448
8.67756
33.3866
1.32429
33.5472
12.9136
32.6382
7.22782
11.4619
13.513
2.02221
1.33534
7.47426
1.18552
2.05462
20.9747
2.02378
4.79086
2.07212
34.7429
4.28755
13.3539
2.09529
6.67921
13.3402
34.692
30.8239
33.4317
7.56353
33.8751
28.9723
1.32066
34.1879
9.27752
33.5283
34.6023
33.8815
4.7004
7.87155
2.24439
11.713
1.1084
4.05269
3.86409
4.83572
1.52923
3.84092
3.97843
33.5054
34.3265
34.8679
5.98776
4.19414
33.156
33.8768
29.2797
3.8863
1.57556
33.7963
3.9823
34.2734
13.4419
7.59971
12.1261
34.0004
34.2014
4.74012
34.0759
10.0427
2.06753
32.4849
5.33811
6.69616
0.868165
33.4541
12.4333
31.3164
9.59055
7.70332
34.0322
34.6737
1.97674
27.8683
34.5538
2.60031
1.0099
34.1577
33.4362
31.1469
3.8743
29.2069
6.0293
11.0355
9.46851
34.1915
30.9884
10.8048
34.2129
34.19
34.4007
33.8762
31.2852
32.782
32.4021
33.5374
33.1826
32.1997
34.1948
32.5755
10.0546
32.5805
30.3457
29.496
35.424
30.6825
34.2012
11.027
31.8721
32.726
11.3134
33.755
34.6483
33.2646
11.0614
34.1656
11.0262
12.1092
9.48079
31.8339
33.7945
11.0297
13.4318
33.2344
34.7287
5.97309
31.6001
5.94005
31.415
34.2084
32.8916
5.92796
5.88352
34.3319
8.58812
33.5576
31.8403
12.8729
3.12726
11.0105
34.6347
5.95346
31.4432
9.24469
33.7407
33.48
33.5894
30.8807
3.10251
3.75818
34.5238
12.5797
33.5381
33.5622
33.5325
33.8973
10.3808
10.3723
3.82067
14.2802
34.7915
7.62863
6.06248
2.89129
10.3695
34.7201
3.02696
10.381
5.36118
13.5125
5.63745
33.4949
7.15193
10.534
6.00217
10.5988
11.0561
33.4721
11.1665
33.036
34.2322
4.93947
34.536
7.58946
34.3792
33.4851
32.7766
33.4804
34.6324
10.5287
33.4312
8.77258
31.8763
34.305
7.38872
10.1833
4.02752
8.48204
34.6326
16.1331
34.5343
9.29119
33.482
7.38947
10.3456
10.511
9.38325
33.5049
33.5199
33.286
3.26553
34.3325
33.5433
3.26036
33.1321
33.491
10.4967
33.5033
5.77724
13.4386
31.7747
32.1647
32.0089
3.83745
6.39893
33.8753
0.130336
9.06753
31.4056
10.6887
34.4329
3.32064
7.49789
2.90829
33.8103
7.90389
4.15546
11.0354
10.2764
8.72778
34.0409
34.1287
13.2977
33.6128
33.7394
34.2994
3.36158
10.8176
4.36924
6.83121
31.0627
7.87206
6.0194
6.46003
7.67107
7.89683
9.83288
8.66081
33.8707
33.8462
33.8512
8.68056
34.3107
9.09356
27.2295
8.66338
13.0689
3.36987
1.66396
33.5111
34.3341
8.69266
8.63742
34.2551
33.9527
34.8178
3.63312
8.62941
8.93338
9.0086
0.915252
6.01543
33.6236
34.5718
34.1772
0.789848
5.78097
0.103986
6.58182
3.78605
9.06796
33.1189
34.169
29.7604
33.2279
0.96342
7.74802
34.0952
33.4708
33.4809
34.7362
34.7555
32.7301
9.36475
33.7645
11.3903
14.0699
33.395
9.18412
0.304171
3.53567
34.5332
32.8943
9.31185
34.0651
9.35043
11.9375
3.85
32.6122
28.4353
33.7774
33.7614
33.632
32.4573
19.5033
33.4581
9.42954
4.35267
34.1857
34.1496
9.58579
33.6143
34.1224
5.26658
13.4149
33.5057
33.4961
32.7436
2.01537
34.0857
34.1113
17.2654
9.56812
9.59515
33.8329
33.3845
31.4581
9.60106
9.50649
9.58643
6.83175
33.6426
1.68126
0.355682
0.433966
34.4959
34.6211
34.1783
34.6073
34.0874
5.27022
5.40057
4.34286
34.7968
34.4108
34.0683
34.3287
33.0617
11.6146
0.854915
0.189568
33.2692
34.021
34.8793
12.2468
10.8427
12.4264
34.1818
9.92262
33.8961
33.3252
34.1177
5.24693
5.8173
33.5633
33.3849
7.11702
34.1284
3.87687
4.79154
20.9402
33.5382
33.2501
3.89315
11.72
33.1865
20.5143
0.631968
7.70143
33.7742
33.601
34.7445
34.1913
1.08019
2.68232
33.608
11.699
10.098
14.8988
33.8812
33.6227
33.5742
33.6084
7.89696
34.2047
33.9006
33.0316
1.7994
8.86239
2.2187
33.1783
34.6461
10.0991
32.5389
34.14
33.6468
33.7684
5.5876
32.7482
33.475
33.5142
2.20553
5.81513
33.6093
34.4956
33.4129
6.75844
33.6545
33.3893
33.4314
34.5433
34.4293
13.7285
7.79385
34.9729
6.19769
7.79312
5.4476
34.7999
34.6988
34.0144
34.6387
33.476
7.3808
33.8783
31.8198
32.1821
10.1128
32.4721
10.0641
34.098
34.3053
12.0706
15.1193
31.5172
10.1688
33.8647
10.1385
33.9799
33.4796
33.6971
35.9182
33.5403
11.5206
33.5351
6.52385
34.3975
31.2202
34.4512
33.6111
2.0746
9.36417
33.8304
20.8095
34.7185
10.2036
11.5101
9.32108
34.7586
13.3142
9.27098
11.5762
7.92646
13.0415
9.37126
32.8515
33.5592
12.8606
3.28488
9.3135
33.4335
32.62
29.8965
22.2285
34.8114
33.3079
34.5142
34.7226
34.8677
34.0002
9.24213
12.1734
4.37084
30.8531
12.8314
34.5155
7.4843
34.1857
34.8479
34.062
32.706
12.1186
32.757
34.7261
33.8621
6.42235
33.9175
34.3318
11.9555
33.3938
28.0307
26.1381
25.3934
34.7382
25.8993
25.4781
25.8012
27.3702
33.5992
33.5994
6.3585
9.67685
31.285
31.2494
33.6918
6.44198
33.8475
33.2071
12.0166
33.6644
34.0512
10.2959
12.1695
34.7611
33.3858
13.0354
31.0159
33.1408
13.4877
6.93208
6.77026
33.0643
6.8562
34.623
4.28317
13.2458
6.81377
33.9165
13.2745
6.83999
33.3395
11.9494
33.4106
6.43561
32.247
6.37947
33.099
11.5148
33.4776
32.9616
34.3858
10.9608
10.9981
34.6608
6.99212
11.6141
34.9858
33.8994
5.27529
0.275044
13.7926
34.7761
7.20351
7.09777
12.0702
12.3833
34.8592
13.7076
33.543
13.254
34.1872
10.4582
9.815
33.3993
4.45285
33.2163
11.9372
33.8397
33.4122
33.5678
34.2384
33.5636
34.1376
9.65325
5.3501
13.1813
33.5261
29.3501
13.1597
33.5783
34.78
33.4201
34.7561
33.5225
0.245154
33.9156
34.5868
33.5459
0.216711
33.4626
33.9243
32.3259
1.09371
34.0551
1.05186
12.4924
9.381
1.08099
1.08858
33.9201
33.5683
33.9645
1.15374
2.26314
32.8776
29.2894
1.14757
34.3059
34.6314
13.1522
33.4051
7.06233
33.5316
1.09445
11.8974
33.5628
33.5813
33.5416
34.528
34.2908
11.9953
33.5527
1.14862
33.4819
33.8035
2.55348
34.4049
7.4973
32.9336
34.3258
9.77441
4.46358
13.3189
34.5193
34.5461
33.9926
4.44997
12.8744
33.457
33.9167
32.6014
2.78382
33.5294
7.56195
13.2638
33.7791
33.6326
2.83183
34.1582
32.5528
34.0551
33.3287
34.2234
13.2233
29.0779
33.2191
34.4396
29.4765
33.6518
30.0016
33.3109
33.4794
33.1815
4.47588
33.3121
2.7481
33.0383
33.5875
14.1966
2.77849
33.5195
33.3824
33.6122
2.70692
30.7356
33.887
32.9002
33.5926
3.03595
33.5198
13.357
34.8213
9.10949
31.1956
10.9107
33.3887
34.2704
8.67365
30.2981
33.5389
2.24433
8.92022
34.7525
34.5167
9.73715
11.1118
2.7501
2.73253
2.76998
9.77384
2.72494
11.3256
33.4303
13.3548
29.5651
29.3138
33.8395
33.2705
34.2421
2.69256
34.7589
34.8467
34.7112
12.6157
11.2518
28.8262
10.2206
34.5896
10.4727
33.094
12.19
2.95428
29.7261
8.93855
33.31
33.3435
33.8443
3.02004
9.14137
33.9822
34.1472
3.04701
34.5129
13.6335
34.288
12.9658
34.13
33.8385
34.6341
33.8201
2.4316
33.8169
15.1653
34.3965
9.40325
33.8393
33.6629
25.0247
24.2934
33.6574
33.7021
34.1769
34.6064
8.91303
13.564
27.1238
34.4715
9.1285
33.6744
34.3211
13.3423
6.92736
12.6398
33.8649
1.68331
9.7101
4.7419
7.36423
34.2106
34.8644
34.875
34.5594
33.8915
33.8234
33.8222
33.2973
33.8651
33.8228
34.0827
33.7924
12.9223
33.8428
33.6086
35.0574
34.5602
33.8528
21.0299
33.6465
33.7125
7.36664
13.3912
33.3332
34.7781
34.0613
6.44586
34.7384
34.1409
13.2944
34.1088
33.5551
34.2926
34.4426
12.1339
34.0116
13.703
34.4577
34.2696
33.7355
33.863
33.6522
13.3315
13.3491
3.5841
34.5803
33.062
34.7179
13.3928
33.5363
13.3351
13.4543
34.0793
33.3519
28.8222
13.2011
33.3803
31.4174
13.2113
29.0677
9.99085
34.4082
11.4988
28.9772
27.659
34.0919
8.8344
34.139
8.86924
12.124
33.4626
8.88676
13.2372
34.1396
12.1734
33.4791
33.4418
33.5705
33.401
33.1606
33.7606
33.5322
34.7436
13.3263
31.6362
33.9282
34.2772
33.4666
33.3978
6.49827
24.0682
13.5246
13.8331
33.5575
8.42491
8.41566
33.9991
31.4058
33.2986
33.2833
33.3722
33.4637
30.0046
31.7051
10.4722
33.79
34.7816
28.7961
30.0294
33.9206
8.77018
33.2123
33.3084
34.5329
12.7607
34.7228
33.6626
9.87233
34.0343
34.6165
33.2014
34.9471
9.9447
33.8219
33.7574
33.6722
33.3863
10.5418
12.7691
12.7528
8.79819
11.1347
11.1544
34.1539
30.3088
13.7739
10.8833
30.2829
13.7675
34.4518
11.925
33.281
12.7756
33.9392
33.3581
11.1855
11.1187
33.4553
10.8525
33.9088
34.2185
12.7794
12.1958
34.5712
33.7556
33.4393
33.874
33.642
30.6131
34.5882
34.1998
10.805
34.6039
34.1046
33.8593
11.2244
33.5827
30.6909
33.9767
33.7921
32.1586
31.1306
11.2197
33.2921
31.2011
6.58827
34.5178
10.8294
10.7637
33.6423
6.82398
34.1416
32.5773
34.5057
30.9437
34.4258
34.7488
34.8717
34.8145
6.73748
34.6477
34.3467
34.6408
33.1821
33.9028
33.2747
12.9421
34.0986
34.4876
12.1642
33.9895
33.9184
34.7459
6.68758
33.7756
12.5499
30.6656
13.4655
0.834409
33.8594
30.2975
6.54429
29.6556
33.8448
13.4626
13.2461
0.0528706
11.7222
13.8145
11.7447
34.5591
33.2194
8.23026
13.041
12.6639
7.97785
13.525
34.3556
1.50835
8.17995
8.1724
34.7602
8.14859
1.28075
4.72218
7.75756
12.9858
8.48138
1.82539
7.59452
0.253439
3.50561
7.79414
30.7189
0.415449
0.0561962
8.8072
10.235
0.461365
7.76919
0.310753
31.112
13.236
30.9817
4.21266
8.23787
10.3828
6.18763
30.9605
33.8921
7.62894
6.23401
13.0306
12.7614
2.16723
8.24951
25.8879
8.27371
34.097
14.4626
13.133
11.6792
4.76065
13.1562
13.3293
9.47982
5.84598
5.89346
4.30381
8.28392
0.580163
29.0943
27.1389
8.31816
33.621
34.0834
7.85934
7.99397
0.694458
33.6942
11.8264
12.2069
5.70928
27.6342
34.0933
13.034
0.197398
13.1423
34.8676
2.11351
34.2923
6.14301
9.36053
11.3416
11.4554
33.6637
34.1414
12.4007
8.01116
8.03573
34.1447
6.45325
8.00417
10.2461
34.1076
5.81923
0.505165
30.9201
4.75891
11.3162
12.5312
33.1028
12.0465
14.0465
34.1332
9.91368
0.933522
18.0886
10.0432
10.076
1.86546
8.814
10.1425
0.685259
12.9882
12.6529
9.54089
1.66884
8.47339
13.4111
6.20737
10.1184
3.5299
7.84139
13.4511
1.93343
34.2069
10.072
10.026
12.8423
2.5314
11.6439
33.2487
10.0227
4.73249
34.2352
11.7793
0.185111
10.0918
9.65204
1.22595
0.124114
8.68344
9.72918
11.9493
34.2322
34.0659
12.0193
34.5826
12.0486
11.7895
32.7895
1.24581
10.3213
6.34023
34.6397
4.7348
5.38901
11.8164
13.1195
5.28603
2.32419
6.5386
10.8879
34.085
33.4312
12.9051
10.835
11.7505
6.85092
33.4301
10.9173
9.40305
32.7707
6.49351
8.29888
0.431468
13.7277
11.2141
9.37381
1.99559
7.22565
34.592
10.1012
5.12802
9.59465
13.684
33.442
11.3215
33.544
33.9706
5.44032
9.33667
5.94246
14.7123
12.1605
18.0137
33.958
9.32309
9.45698
6.15331
6.04298
33.5516
34.7602
34.7098
6.03747
6.03965
13.6415
4.67816
32.5655
33.4773
6.02151
6.72837
11.5364
6.04861
6.02368
7.25864
11.1239
24.7523
33.5994
9.1969
0.705965
33.4653
8.62792
7.17574
14.1453
9.17814
7.16939
11.9697
33.4708
6.20427
7.45539
34.5401
32.6213
0.464819
0.91424
2.56691
1.08953
7.21449
7.28059
1.83574
4.69546
6.69132
1.05219
33.4197
33.3651
0.0507629
1.22787
7.16252
13.6427
6.98908
6.86684
9.51824
5.88967
6.95357
33.7389
34.5503
13.5802
33.387
30.649
7.53794
4.79378
7.36218
13.2927
31.7093
11.3372
13.7009
32.083
13.6908
13.5224
6.94401
6.99688
0.502189
8.06892
13.0176
1.18279
34.015
31.95
12.521
2.29946
6.04196
2.37334
11.7425
10.7489
12.9005
32.0208
7.41743
1.65622
6.4313
13.6388
11.2887
12.6304
13.5398
7.4013
1.71626
31.756
10.3941
7.11819
21.1694
30.864
29.5548
6.43863
30.4904
0.388142
6.41507
6.0099
8.08128
12.246
26.4125
21.7373
33.7723
30.2778
11.986
33.8399
33.8398
11.7171
34.0385
4.70796
6.23737
5.70976
4.40858
4.6671
8.23802
29.4472
2.27563
1.01458
10.6282
7.80529
4.40855
7.35664
33.9177
13.581
4.31431
9.49161
33.8524
9.84095
7.66746
33.8357
33.5571
11.7305
4.24381
34.4377
8.65993
7.81773
11.7899
34.4585
33.8181
0.728646
13.411
8.15026
33.8737
34.4242
33.8353
9.37521
20.5656
20.0276
2.97387
13.2207
34.817
2.97708
13.2543
6.64304
0.787217
0.769042
3.20141
13.4264
0.861311
34.8524
3.37498
1.77569
0.291541
5.34339
1.27314
1.24768
1.33596
1.39327
0.370141
12.1829
13.5948
7.2952
11.9211
13.0877
13.3485
1.35669
13.5913
1.37515
0.341624
3.89911
2.40287
11.791
2.37932
13.6731
2.77181
32.4871
7.4422
23.5612
5.51762
8.23157
34.5437
10.1151
32.5063
8.60718
32.5839
33.2451
5.83776
10.3244
30.9276
2.30691
6.04619
10.2952
33.4872
34.5355
12.0839
3.32643
13.4527
5.45363
1.88124
10.0609
12.8014
9.60959
10.1446
29.7535
7.37694
33.9531
33.432
4.15332
3.01501
13.371
3.97916
2.67081
10.1412
10.4941
33.0417
12.8738
2.6074
10.0163
33.0399
34.7077
7.40095
8.6474
28.9355
11.7022
0.283836
8.88406
0.407645
2.17547
5.53999
33.5725
25.3179
4.4277
12.56
34.8937
4.16038
11.7142
9.28584
14.274
4.41412
14.1672
7.39922
12.1616
26.1938
12.4223
33.8126
8.53431
10.2653
2.08265
0.120104
30.3313
0.185434
12.5818
9.75705
12.1768
32.0337
33.8248
4.65946
12.4349
9.77007
8.43191
11.6388
3.37414
0.676991
6.38677
0.779255
0.538659
11.7507
31.3965
13.3636
9.62102
0.0569318
11.4677
31.8339
33.5352
9.27014
13.2413
34.0434
13.216
10.6751
31.8685
26.5804
27.2749
10.4618
4.33416
14.8288
28.1796
11.6935
4.92549
32.4604
1.56404
30.6266
9.28261
3.39118
34.3616
0.909863
11.5541
11.5363
3.02856
33.6824
13.4455
11.0304
12.263
11.5488
12.0006
12.2449
10.5359
13.7515
10.8502
1.76992
4.40392
33.4615
30.0207
29.8459
32.7866
9.91651
5.10773
4.48709
11.5029
2.61297
4.52875
8.87403
10.3329
9.90997
3.27898
10.6427
11.4832
9.37191
2.43548
33.8823
11.4521
11.4155
10.1056
10.6974
32.4737
6.00552
6.12649
8.35448
8.40792
6.73293
33.2124
6.68543
6.68392
30.6402
6.79546
9.53622
32.7939
6.76215
32.7195
34.7464
5.99642
10.3014
9.59803
6.65988
33.4939
1.11538
10.6654
34.742
5.4601
6.92057
5.70324
9.80189
32.8154
10.3784
10.3366
9.0895
33.0891
4.78789
1.84701
9.28396
4.13171
5.14743
34.6644
32.6271
31.5155
0.401721
31.8929
4.6818
3.8924
1.30711
33.4574
1.45185
32.9418
33.8859
33.3001
5.72746
0.139607
13.5168
9.29544
5.02227
32.1283
30.6322
11.6497
11.4532
3.85705
12.9673
5.01427
13.2352
33.857
27.9612
28.2971
33.7157
28.4405
0.226374
34.0654
4.69409
8.79491
5.03875
1.00094
6.00738
29.7476
3.96809
8.81317
10.2517
12.0721
29.8611
33.783
10.5766
3.98529
13.7274
13.1962
12.963
13.3569
13.5049
13.6
2.99951
0.691186
3.00953
12.4776
2.94425
8.85438
9.51318
2.02764
2.94913
12.912
13.0952
13.1456
12.1292
11.4403
2.08588
12.1626
34.7017
11.8991
9.78529
1.13894
0.711036
0.265307
8.86779
6.70762
9.35025
0.746985
13.2886
33.606
4.7135
6.44132
7.20564
33.5439
5.40135
3.01992
0.796659
6.56769
34.79
33.489
9.63088
1.92071
1.81297
0.395037
33.0414
34.2432
34.1885
7.24905
8.68688
1.69785
34.2178
4.80904
33.4698
33.4766
0.777461
0.556719
33.3229
1.72027
1.76844
0.304558
34.707
34.4968
3.13316
8.87251
33.4788
1.54377
1.48044
1.28169
33.5463
33.5502
33.5034
1.31305
1.54067
11.5883
1.475
34.6154
1.31556
8.35012
11.7075
10.7399
32.6715
33.7566
1.37068
12.3289
12.012
6.16267
32.6944
13.5344
33.9325
2.11234
13.0435
8.41825
32.8363
31.2835
12.4662
12.924
30.9365
31.0538
33.9835
5.55647
32.315
30.2226
8.73409
8.55774
33.9714
30.6549
7.45827
1.44809
1.3949
5.72607
4.82699
30.9408
8.87976
29.5512
29.1666
33.2079
6.04763
9.85504
1.40632
29.2859
34.3794
8.57202
12.9628
9.0792
9.93845
7.84403
6.82711
7.74252
1.51741
28.989
8.396
6.19975
1.49745
5.64931
9.83032
24.8771
5.55064
5.57089
5.55489
5.54696
1.94059
28.5236
31.7567
6.4635
31.8607
32.0841
7.81158
31.9116
4.667
31.4892
31.7255
33.0396
30.9177
6.18008
2.05952
6.22351
31.3739
2.99155
5.88607
8.27966
31.6884
34.2055
6.2094
6.5632
13.331
6.2114
30.9402
0.0811624
1.40413
1.09867
33.5071
33.1361
3.6959
3.12087
33.2218
31.8132
11.3557
0.103449
31.3726
12.4662
11.3066
11.3419
6.83119
31.6236
7.76732
16.8788
0.759326
0.3506
11.4133
11.236
10.4433
4.37842
7.93995
31.1021
8.8855
7.94444
13.2487
12.212
11.3436
31.5925
5.44811
8.10643
4.58425
6.92284
8.00831
12.9624
0.84836
11.9768
10.5832
11.4009
3.24415
11.457
12.017
7.89093
9.66191
33.4634
13.1924
34.8554
7.81744
8.15711
11.4584
11.9838
11.1142
7.9251
7.94027
12.6266
6.1831
2.10189
33.3803
28.4695
11.9874
11.9463
9.40343
12.0373
13.2555
12.4148
13.2564
13.4128
29.0838
2.05849
13.4857
10.5201
29.4758
0.212145
28.3605
6.04497
7.93561
13.4713
5.4629
34.7211
7.67767
13.1063
0.305799
33.8706
13.192
1.78996
10.3863
13.135
13.1905
28.7432
33.7995
5.62597
8.38199
4.42757
8.36563
7.52739
8.48572
13.4325
30.3227
0.353249
29.7483
8.50475
2.05273
8.9944
34.4186
27.349
12.4135
8.46841
6.13249
9.09618
33.8464
9.02789
9.11821
0.414201
9.10126
21.1732
17.6811
9.08808
33.8398
33.5666
5.43887
20.906
12.2689
34.5251
4.09266
33.1206
12.2222
34.4851
2.56255
11.865
13.2984
9.04921
9.51799
8.18411
11.3379
13.3874
0.78048
13.3692
5.08448
13.2894
32.57
2.97851
33.447
9.55609
9.66405
7.64361
6.76353
9.48629
0.479785
5.98861
9.40572
9.22741
13.666
11.147
12.4765
33.4768
9.40328
2.1605
12.4987
2.04028
9.45935
12.3797
2.98614
13.1306
8.45945
12.6493
8.5334
5.18154
9.60208
7.71562
33.5585
33.5046
8.14131
8.34753
10.4534
34.0101
11.8298
0.642552
7.95506
6.01861
3.80785
6.33587
5.38958
8.33176
0.0331781
4.76422
11.0612
4.0079
7.2094
6.47147
5.92385
11.0575
9.48538
3.97174
13.8934
8.885
13.3043
3.50764
10.0029
12.7638
4.51027
0.373653
6.34361
8.3046
3.6139
2.9983
33.2335
9.86432
13.1296
13.2882
20.6691
9.87573
29.6191
5.49597
9.83786
1.42244
10.5591
33.4078
9.63439
11.0521
-0.130063
10.0342
12.3392
11.0081
33.833
6.54169
0.948199
10.6746
13.4738
13.1416
33.207
33.8995
16.2417
31.584
11.0599
33.6403
13.6715
16.1246
31.5187
31.6733
0.815917
31.9711
34.0717
11.0215
6.3023
34.6364
7.54926
5.71098
7.83326
10.5788
34.077
12.6025
11.1395
10.5856
14.7587
34.0944
13.3001
10.8043
12.0755
33.8084
6.44834
10.7454
33.3802
5.62327
33.9062
33.311
13.1953
10.6383
34.238
13.5464
13.1588
13.3263
13.0808
9.20292
12.8729
12.7631
9.65259
11.035
34.7621
5.17206
1.86409
3.92445
0.576367
13.0476
1.7561
5.57501
34.2437
33.6118
8.53966
13.027
10.9966
5.23343
11.0216
5.92006
0.608398
33.9502
0.0384588
12.8971
1.49913
10.9901
3.53862
34.2482
12.6668
9.67144
12.5808
15.4152
34.2158
4.88392
34.671
2.01398
34.6937
10.9601
12.5385
10.4634
8.02785
9.58246
0.525235
10.3972
34.2708
10.9869
11.0087
33.4618
33.4636
0.752304
9.48608
34.1778
0.0214859
33.4603
4.2012
12.6478
33.4545