/*--------------------------------*- C++ -*----------------------------------*\
  =========                 |
  \\      /  F ield         | OpenFOAM: The Open Source CFD Toolbox
   \\    /   O peration     | Website:  https://openfoam.org
    \\  /    A nd           | Version:  10
     \\/     M anipulation  |
\*---------------------------------------------------------------------------*/
FoamFile
{
    format      ascii;
    class       volScalarField;
    location    "2.8";
    object      SgT;
}
// * * * * * * * * * * * * * * * * * * * * * * * * * * * * * * * * * * * * * //

dimensions      [1 -1 -3 -1 0 0 0];

internalField   nonuniform List<scalar> 
111485
(
8.32785e-16
4.94715e-17
3.01388e-12
3.25283e-17
6.21913e-11
1.27826e-17
7.68118e-15
1.1776e-15
2.87964e-16
9.94393e-08
2.41989e-15
1.34361e-08
1.34693e-15
8.77423e-18
2.51455e-15
6.20273e-16
4.63805e-16
0.00287068
7.48731e-16
7.70993e-16
2.67044e-16
2.36985e-17
1.00216e-14
1.02778e-15
1.8991e-11
9.22427e-16
2.77475e-06
2.08363e-15
1.54969e-12
1.89215e-17
5.90886e-05
1.5947e-15
1.33943e-15
1.18164e-16
1.01874e-05
1.15899e-15
1.41189e-05
8.69062e-16
9.27999e-11
9.29097e-15
1.11891e-16
6.32894e-06
1.12526e-15
1.20131e-06
2.66856e-08
1.58912e-15
1.7786e-05
6.73965e-17
4.40607e-06
7.27819e-16
5.40984e-16
1.62286e-15
8.51339e-16
5.18425e-05
2.43157e-16
2.80103e-15
5.00581e-17
5.92796e-17
9.27354e-09
2.35801e-15
6.0899e-15
5.75528e-16
1.62574e-16
0.000125606
5.67554e-16
2.07449e-15
0.00034915
1.71273e-15
1.07422e-15
1.41942e-16
1.15849e-08
6.49754e-16
3.50684e-16
9.61285e-16
1.32577e-17
1.34062e-16
3.38677e-16
3.18949e-06
1.9577e-16
7.99016e-15
3.37905e-08
2.99482e-05
1.23228e-16
1.11901e-16
5.47689e-18
1.63759e-15
5.2124e-13
3.14585e-05
5.82552e-08
1.6985e-16
1.19858e-06
5.58113e-15
2.98102e-17
3.44248e-16
1.25239e-05
1.39477e-17
1.15288e-16
1.3927e-06
3.16818e-12
2.22043e-06
3.37298e-17
4.87889e-07
5.141e-18
1.41537e-07
2.47669e-16
8.36414e-16
2.96743e-17
2.23404e-15
7.29994e-14
1.0534e-10
1.59948e-15
9.58478e-16
4.34576e-15
2.01287e-07
1.29784e-16
1.03541e-16
3.15987e-16
1.15317e-15
1.95508e-15
3.76176e-16
1.06881e-15
3.00755e-15
7.33068e-17
1.48298e-16
2.03157e-07
2.02466e-09
1.49326e-16
7.11377e-16
3.12327e-18
1.50112e-07
1.85064e-06
3.63973e-05
8.83333e-16
6.58097e-15
4.61387e-16
1.14028e-15
2.10109e-16
1.12182e-15
7.43731e-16
3.40978e-16
3.98191e-06
8.06613e-17
6.26005e-16
2.01016e-14
1.07e-05
2.56792e-16
1.40179e-16
2.19878e-16
1.21609e-16
1.93527e-15
6.52633e-14
1.76155e-15
2.27144e-11
1.14245e-16
6.38975e-10
2.3142e-15
1.00552e-15
1.02555e-15
1.18228e-10
1.14329e-16
1.69856e-16
4.94731e-15
5.96303e-14
3.18744e-09
2.82401e-10
1.32431e-15
5.66511e-06
1.15108e-16
7.39976e-09
6.43389e-08
2.17917e-16
2.30162e-16
8.98414e-15
1.23258e-18
6.85367e-16
5.5844e-16
5.18689e-17
5.76733e-17
5.52747e-16
1.26191e-15
1.29952e-15
4.17571e-16
2.78666e-16
4.1696e-16
2.91646e-15
2.1747e-16
9.21156e-07
5.31565e-16
1.39551e-07
1.06433e-16
7.25187e-16
4.95223e-17
2.05785e-16
1.49875e-15
3.5522e-07
2.31579e-05
1.64488e-15
1.04636e-15
3.14751e-16
7.44342e-17
3.70069e-15
5.77185e-08
1.09643e-05
2.30488e-15
6.59007e-17
1.28297e-15
9.6339e-08
5.28718e-16
3.44307e-07
6.99475e-06
2.47078e-14
1.53135e-16
3.69002e-16
1.65526e-16
5.12177e-15
7.14763e-15
0.000147104
3.32973e-16
1.24685e-15
9.25729e-16
2.76905e-05
3.39992e-16
6.34488e-17
2.01401e-05
6.57429e-16
3.72517e-19
6.89611e-17
0.000184668
5.15633e-10
8.42932e-16
6.24147e-16
1.23517e-15
7.28171e-17
1.06805e-15
7.90711e-17
2.16545e-16
1.73485e-08
9.17697e-16
4.55888e-16
9.52452e-16
2.04919e-16
2.55817e-16
5.69828e-16
2.8064e-17
3.17762e-10
5.50864e-16
1.94709e-17
1.25787e-16
3.30857e-05
2.33573e-15
1.0022e-15
1.76698e-15
4.04201e-15
1.77558e-16
4.78548e-15
1.78821e-06
9.82977e-16
1.26575e-15
4.31525e-08
3.56476e-16
1.33352e-15
6.79091e-16
1.21997e-16
7.74527e-16
1.8879e-16
2.54031e-17
1.17203e-16
1.13725e-16
2.16412e-11
4.97444e-06
8.02176e-16
1.71456e-15
2.81838e-08
9.39208e-16
1.04065e-15
9.17765e-07
6.1585e-17
4.18153e-18
1.86971e-16
6.51756e-16
2.78148e-10
1.75508e-15
1.63094e-05
3.88356e-16
5.84746e-17
2.64632e-16
2.04869e-16
1.18505e-16
1.28487e-06
4.91698e-09
1.69875e-16
2.5961e-17
7.35357e-06
3.70709e-16
8.07521e-09
2.50178e-16
4.63091e-10
3.63856e-16
0.000291823
4.36615e-08
3.12293e-16
1.9155e-15
5.06806e-17
1.72759e-15
3.38537e-15
3.74987e-16
3.74042e-16
1.59402e-14
1.30263e-15
2.54218e-16
8.0949e-16
1.04831e-15
3.29921e-15
5.04623e-16
1.71982e-16
2.71672e-16
5.88571e-16
3.69768e-16
5.91416e-17
0.000226765
5.41177e-10
1.28267e-17
3.8422e-17
5.7767e-17
5.79314e-15
3.97032e-15
3.88247e-12
5.73462e-17
3.40026e-16
7.21036e-15
1.23674e-15
9.97561e-05
8.96742e-17
2.14652e-08
7.70745e-16
7.26412e-16
3.3346e-15
1.71459e-17
4.54193e-16
2.93955e-17
7.23399e-06
1.65765e-16
3.60988e-13
3.03258e-07
6.45784e-12
9.6336e-16
9.19531e-08
1.08904e-14
9.23644e-19
7.65619e-15
5.224e-16
7.71976e-06
3.48218e-05
1.24912e-12
7.66466e-17
3.11525e-16
4.45032e-16
8.49158e-16
1.73458e-15
1.29893e-16
1.13528e-07
1.37497e-14
4.37704e-17
1.36669e-10
8.26513e-18
3.47428e-16
1.57113e-14
1.94446e-16
1.64727e-05
3.33367e-16
7.36063e-17
2.95079e-16
6.0741e-17
7.32976e-17
1.70105e-11
5.22017e-17
3.95605e-17
1.88532e-16
8.88465e-16
1.06434e-15
7.76464e-10
3.35537e-16
3.79018e-07
3.0833e-17
1.95769e-15
3.24313e-15
8.94705e-17
5.4369e-07
3.18302e-16
1.62359e-08
0.000160783
6.0324e-17
1.28667e-16
2.88863e-15
2.17514e-12
1.56977e-15
3.15439e-10
1.29345e-16
5.36222e-05
8.96378e-09
3.96054e-18
1.07686e-06
1.08423e-10
2.93858e-16
2.52436e-16
1.58527e-16
3.05861e-11
5.06016e-17
2.49419e-17
2.83669e-11
2.17345e-16
1.73806e-10
9.33671e-17
4.50435e-16
5.83136e-09
2.10446e-09
4.74995e-06
8.73345e-11
5.03239e-18
2.68662e-15
1.58738e-06
1.2898e-16
1.2369e-07
3.67898e-06
2.91689e-05
0.00104654
3.21214e-16
6.11945e-16
2.88057e-07
2.85828e-16
4.09156e-05
1.51073e-09
8.9749e-16
1.61713e-11
2.04572e-09
3.04863e-15
1.83352e-08
5.2211e-09
1.72145e-16
1.47618e-16
7.8995e-18
4.13786e-07
9.51831e-17
4.2993e-10
2.21495e-15
1.42557e-13
1.14799e-16
1.11944e-08
5.41985e-18
5.8972e-17
2.22318e-09
9.55734e-05
1.92258e-15
2.54984e-17
1.79216e-15
3.46909e-16
1.37652e-11
1.08357e-16
5.58978e-10
5.5483e-10
3.45237e-06
4.83001e-17
1.12518e-08
5.24068e-16
1.53052e-10
2.52561e-16
8.22243e-17
2.0393e-16
1.6193e-08
5.28069e-16
1.298e-17
4.01107e-10
4.28943e-17
1.94187e-17
1.60216e-06
3.22292e-16
2.09019e-15
7.34395e-17
3.9729e-17
1.6407e-15
7.48334e-17
5.30445e-17
2.09747e-09
1.98661e-16
8.91406e-06
6.07115e-07
1.19978e-06
4.29635e-16
1.43906e-06
1.86411e-16
4.54161e-18
9.82971e-11
2.56846e-11
1.70822e-08
2.38832e-05
7.21225e-16
2.9808e-06
3.19643e-05
5.77349e-17
7.75389e-17
1.48904e-09
3.34742e-16
2.47158e-16
5.74476e-15
1.19518e-06
2.08301e-16
3.85704e-05
3.82153e-15
1.82095e-16
4.46632e-08
2.182e-12
1.33605e-16
2.74127e-16
5.87683e-17
4.14272e-05
3.17177e-05
2.52233e-17
2.17076e-16
2.97188e-15
8.79679e-17
2.016e-13
1.54833e-05
1.71808e-17
8.30835e-17
4.90629e-13
1.37643e-17
2.47679e-05
1.17009e-16
1.72578e-07
4.45577e-16
1.42116e-08
4.77911e-06
1.09129e-15
1.01329e-16
7.92791e-17
5.74817e-17
9.40871e-16
3.39012e-17
9.80566e-08
3.30555e-18
5.41032e-10
1.00399e-15
1.62736e-05
5.55393e-17
2.05491e-06
1.06875e-15
1.15799e-15
1.91955e-05
2.77307e-09
1.86224e-05
1.31195e-08
4.23305e-06
9.48762e-10
3.63707e-16
8.31516e-07
2.8785e-08
3.30059e-17
4.95376e-11
3.74719e-05
6.02484e-06
1.74034e-15
6.40429e-06
1.82176e-11
9.27713e-05
1.39584e-06
2.1098e-13
5.85976e-08
2.43133e-11
9.60062e-09
5.04034e-07
4.75501e-16
9.8987e-07
3.77081e-16
1.05634e-12
0.000761617
1.4293e-16
2.23964e-08
4.52675e-17
5.51299e-15
1.23595e-15
3.90976e-06
1.10625e-10
1.19824e-08
9.79265e-15
1.61525e-07
1.79716e-11
1.60842e-16
2.17188e-13
1.72749e-11
3.54433e-15
9.57672e-18
2.30291e-18
8.80138e-17
3.12562e-07
6.95768e-17
6.93404e-17
3.12866e-07
2.88325e-15
2.92483e-16
7.83012e-12
7.87579e-16
4.04043e-16
1.12084e-15
3.09569e-17
1.81942e-06
9.47322e-18
2.21193e-17
1.01743e-14
1.16392e-16
1.39379e-15
2.36803e-06
5.71154e-16
3.10662e-16
9.79444e-05
5.31113e-08
2.42118e-10
3.06144e-05
1.45453e-06
1.49408e-15
5.92988e-16
1.37957e-05
6.26878e-10
1.94979e-16
6.47304e-17
4.27023e-05
2.40574e-09
2.80608e-16
2.86509e-09
4.12229e-09
7.33002e-16
1.97494e-05
2.05711e-09
1.16203e-15
1.84524e-09
2.79893e-08
9.90862e-17
5.05099e-16
2.38807e-09
2.9333e-07
8.71209e-08
5.8254e-08
4.51243e-15
7.01966e-15
4.89603e-08
4.09077e-09
6.9501e-15
1.70762e-06
2.79217e-06
1.92877e-15
1.07048e-16
3.50126e-17
3.24974e-17
3.50777e-16
1.48934e-16
3.58746e-16
2.20511e-15
9.44264e-16
1.37272e-12
5.36202e-16
4.51861e-17
1.4892e-06
2.95943e-06
3.15105e-15
6.81971e-06
3.43505e-16
1.41802e-16
2.9384e-16
1.09755e-05
2.13621e-08
1.91897e-15
1.48795e-15
7.22992e-17
2.13344e-17
0.000313219
4.99148e-15
3.6485e-15
1.53711e-07
3.6602e-09
9.06242e-17
7.12295e-07
2.44608e-06
1.47693e-16
2.27759e-17
5.25365e-16
1.12585e-15
1.17512e-15
3.87336e-15
4.16823e-17
7.72748e-16
1.78157e-15
3.05267e-16
2.75693e-15
2.16788e-17
4.27175e-07
2.19182e-14
1.0783e-16
0.00493552
0.000177004
5.41526e-16
2.64559e-17
1.45812e-15
1.50089e-05
2.49441e-07
4.76301e-16
7.14422e-09
0.000171584
1.12784e-06
1.22958e-16
3.94329e-15
1.10287e-11
5.47062e-07
1.53468e-16
4.79225e-16
9.97476e-19
1.23596e-16
1.09046e-16
6.43802e-17
3.2547e-07
3.98832e-16
2.82794e-16
3.93765e-16
1.16484e-06
7.35724e-15
6.88925e-16
4.24755e-16
9.13322e-05
4.7484e-15
4.94741e-15
4.05428e-16
7.23366e-18
7.84545e-16
1.11183e-16
1.26394e-08
1.52695e-15
1.78304e-16
4.4649e-16
4.40519e-16
5.76119e-16
8.25212e-17
2.12791e-12
1.88928e-17
2.45399e-16
1.78427e-06
1.06171e-15
1.1514e-15
1.80856e-06
1.01696e-15
3.55275e-15
0.00107809
4.34556e-17
1.25832e-06
2.13445e-08
3.63077e-05
1.41244e-13
7.48228e-15
5.48684e-16
6.15063e-05
2.17776e-16
4.36911e-16
9.34969e-13
0.00073348
2.07769e-16
3.0309e-17
1.90448e-06
1.12005e-06
7.2036e-07
3.41376e-16
6.32674e-16
7.0698e-16
1.22112e-15
4.10899e-15
6.96455e-17
1.22705e-15
7.39008e-16
8.32213e-16
2.07869e-15
1.79966e-17
8.41882e-18
5.44088e-16
4.11268e-16
3.85758e-16
9.46672e-17
3.70523e-16
6.12192e-08
5.08188e-17
1.05612e-17
8.99164e-17
5.94981e-17
6.64357e-16
1.26383e-15
2.08955e-17
1.26145e-12
1.85149e-15
1.73409e-16
5.4507e-15
1.69613e-16
3.77352e-09
3.29699e-15
2.74915e-17
3.11882e-11
1.53233e-08
3.46134e-09
8.11368e-08
3.35073e-15
1.1652e-16
1.86589e-09
1.12494e-05
2.03096e-07
5.76333e-17
1.91898e-11
1.15128e-15
1.07355e-15
2.46996e-15
5.5075e-07
2.27091e-09
3.05708e-17
8.90592e-16
2.63627e-06
4.50973e-16
3.09287e-16
2.06632e-16
2.37473e-16
5.21817e-15
1.20691e-15
1.684e-16
8.7028e-16
1.17949e-08
2.70416e-16
8.65646e-16
2.14597e-06
2.24402e-17
3.90465e-16
6.47206e-17
6.54345e-16
3.38393e-16
9.64671e-17
1.96065e-09
1.44044e-15
4.89699e-16
1.2522e-16
2.69053e-08
2.07168e-06
3.31831e-08
2.17561e-08
3.78464e-17
2.11976e-16
1.06762e-05
3.07652e-16
2.08059e-07
3.81411e-07
3.89865e-07
8.39651e-11
5.00441e-11
1.35956e-09
1.06651e-16
6.82658e-15
6.86968e-16
1.0921e-15
3.35761e-07
2.01549e-06
5.56032e-17
4.99429e-16
5.78839e-10
9.68871e-14
1.60348e-17
4.14385e-09
3.68551e-16
1.23296e-16
1.16712e-16
1.59972e-16
8.13273e-16
1.10815e-16
4.74516e-07
1.9752e-16
5.16081e-16
6.50949e-16
7.29633e-09
4.11709e-08
2.20715e-16
8.1696e-16
2.63397e-17
7.69467e-17
1.81757e-07
1.83351e-16
1.60906e-17
6.29883e-16
2.05065e-05
4.79525e-16
1.93318e-16
1.4134e-15
7.88789e-16
1.59411e-16
3.53617e-17
1.2413e-16
7.47514e-06
4.54009e-17
3.75332e-11
4.43354e-15
1.85377e-16
1.94714e-16
1.2724e-16
9.95247e-09
6.67185e-16
3.49839e-16
3.05275e-16
4.37207e-09
3.25886e-17
4.82241e-06
1.40774e-09
5.56845e-12
1.97463e-16
5.89151e-08
2.94365e-06
1.93148e-15
4.68848e-16
5.31299e-09
1.60765e-06
1.60977e-15
8.96321e-17
1.89748e-15
1.93486e-15
1.04768e-15
2.25997e-16
3.78656e-06
1.33785e-10
3.78179e-18
7.68178e-16
2.92465e-16
6.71432e-16
1.51046e-16
6.02556e-17
1.00235e-15
3.06036e-17
1.37951e-15
2.28656e-09
3.9568e-15
4.32941e-16
2.74739e-07
4.36751e-15
1.06616e-06
1.99972e-15
1.10007e-17
1.37466e-16
8.09329e-17
4.27279e-16
1.05331e-15
0.000402038
7.90123e-17
7.51037e-16
5.93776e-15
1.74682e-17
1.03493e-15
1.19274e-16
1.40033e-07
3.42709e-09
1.50656e-10
1.21141e-15
4.18241e-09
2.49116e-08
5.27248e-15
5.37982e-08
1.72593e-16
2.35547e-06
9.78226e-06
4.23685e-16
1.55523e-06
2.73278e-07
5.35396e-17
3.16844e-17
9.95158e-16
1.30793e-08
9.47546e-17
4.93406e-06
1.90499e-16
0.000210227
7.6691e-16
1.56591e-16
1.73603e-15
1.51439e-15
2.13441e-17
1.01273e-15
1.62718e-16
3.13474e-05
1.14993e-15
8.71492e-16
2.52194e-15
6.73074e-06
8.632e-16
1.9801e-15
3.00198e-15
1.72449e-15
1.43801e-16
4.72502e-18
2.26749e-05
3.23402e-08
5.69941e-16
2.30885e-16
2.16538e-10
2.65308e-16
3.13583e-06
2.58199e-16
5.90241e-16
2.58121e-06
3.57788e-16
5.61651e-17
1.44796e-17
7.91916e-13
5.22976e-16
1.22909e-10
2.07063e-09
1.10403e-06
1.70284e-05
3.33618e-05
1.15724e-09
9.12106e-17
7.81762e-07
2.49371e-15
2.87182e-16
1.01329e-15
4.92309e-16
1.2591e-16
8.98419e-17
7.89043e-17
1.99819e-16
6.80602e-06
6.33549e-06
3.64072e-16
4.92616e-16
7.49263e-15
5.21824e-07
1.55502e-08
8.62294e-17
9.98469e-16
1.88021e-07
2.57997e-16
1.38123e-15
2.33276e-16
3.9709e-16
1.46188e-05
3.66127e-17
1.8285e-15
8.84822e-17
2.78396e-16
3.48239e-15
6.58331e-17
0.000122485
1.79671e-17
2.46792e-07
3.23198e-13
5.66627e-17
7.03911e-07
1.7398e-17
2.72758e-16
2.39892e-06
3.80943e-11
8.70161e-06
5.38662e-17
1.66469e-16
1.5807e-16
9.7328e-17
8.01964e-16
4.31622e-17
2.83882e-15
6.65859e-10
1.16435e-15
1.21587e-08
4.45672e-16
1.05462e-15
1.17744e-15
1.89234e-15
4.73034e-17
1.53319e-08
8.39335e-16
1.44022e-16
5.29138e-09
4.2633e-16
1.16881e-16
3.22386e-15
6.6441e-16
3.0472e-09
3.05633e-07
4.40816e-15
2.8675e-07
1.42955e-13
9.57258e-11
2.07741e-17
8.46766e-15
6.50942e-13
3.11505e-05
1.57357e-06
4.94184e-16
9.36559e-11
5.95554e-16
2.0268e-10
3.37279e-15
2.23364e-16
2.42545e-08
2.46684e-05
7.96966e-11
1.36702e-16
2.53419e-18
8.62807e-10
1.16279e-15
2.06234e-16
9.53212e-09
4.26624e-16
6.60994e-17
3.66796e-15
1.20765e-07
8.81428e-08
1.15978e-15
4.18899e-16
2.23792e-16
7.57159e-17
1.10987e-08
1.61337e-15
2.60078e-16
2.11888e-15
4.4062e-09
3.0305e-16
8.21125e-17
3.441e-15
3.85974e-15
1.40803e-15
0.00308644
6.09413e-16
3.10474e-09
2.22756e-15
1.69468e-05
3.86819e-17
4.93777e-16
3.54859e-15
1.47442e-15
4.3658e-16
5.98625e-17
3.12193e-13
2.78239e-17
9.32716e-17
1.59962e-15
7.12386e-16
1.02738e-16
1.54626e-16
1.15405e-15
2.82472e-16
5.01726e-16
2.25083e-06
1.63664e-16
2.24067e-09
1.95925e-16
1.84644e-06
2.25e-09
4.99096e-17
3.31955e-16
4.82141e-16
1.38695e-16
6.22826e-13
9.30661e-09
2.22544e-17
2.23437e-09
1.48448e-16
8.07063e-16
3.78687e-15
2.59719e-17
8.17874e-16
8.31281e-17
1.2585e-16
2.29329e-16
8.01915e-17
2.81051e-17
9.72512e-17
1.0351e-15
6.04872e-10
8.06878e-16
9.92163e-18
1.14078e-16
5.95263e-09
4.50285e-17
1.2649e-07
2.17494e-15
8.06633e-16
1.10906e-16
2.62275e-16
1.80364e-09
2.09766e-16
8.89129e-08
4.56445e-16
1.41021e-17
1.3039e-15
9.16202e-07
7.27515e-16
1.3848e-15
0.000264629
3.94189e-15
6.58653e-17
1.15314e-14
1.82439e-14
5.95781e-16
6.36558e-15
1.55545e-05
8.16986e-17
5.90629e-16
1.08858e-16
4.1726e-16
9.7749e-14
1.41774e-05
1.08296e-16
1.21902e-15
1.39014e-16
4.60857e-16
5.09885e-17
1.38531e-16
7.22248e-17
2.2616e-17
1.10816e-14
3.07107e-16
1.25107e-17
2.26618e-14
3.14941e-16
5.8883e-09
1.45775e-15
1.02368e-16
4.1359e-16
1.53487e-08
3.01154e-14
7.28386e-16
2.00054e-14
5.32441e-15
1.28351e-14
1.3616e-17
4.16488e-16
8.96347e-15
6.37927e-16
1.70887e-09
4.74674e-16
7.45362e-16
3.14788e-17
8.38406e-16
4.36221e-14
2.62572e-11
3.43929e-16
0.000303774
7.20351e-16
1.54138e-16
2.09386e-16
6.9684e-16
1.48313e-15
1.46302e-16
1.03346e-16
1.10624e-15
3.03721e-07
3.2653e-15
8.97875e-16
8.08176e-16
1.97069e-10
8.66103e-12
1.95619e-17
3.18823e-17
8.97329e-12
3.8506e-12
2.77911e-16
8.04265e-16
3.04701e-17
1.75731e-16
1.41214e-06
1.76936e-09
9.79653e-16
2.88682e-16
3.78368e-17
3.16637e-16
5.5189e-18
1.10073e-16
2.69783e-16
2.36118e-16
7.05001e-17
1.62332e-16
1.20056e-16
2.61863e-17
4.61667e-16
1.62852e-17
8.78392e-17
7.53765e-17
2.98692e-17
3.3389e-17
6.14589e-17
9.42406e-17
8.69549e-18
2.58174e-17
2.97e-11
1.72689e-16
7.98275e-17
1.05939e-16
1.17131e-15
4.36645e-16
4.47783e-15
0.000274477
1.17428e-15
2.65127e-17
7.24544e-16
4.78649e-13
7.9001e-17
6.81522e-06
1.0993e-15
3.17393e-17
8.57102e-07
1.49219e-06
1.77822e-15
1.82329e-05
1.07273e-15
6.22756e-16
5.87794e-16
2.07302e-15
6.32148e-15
4.40336e-16
1.10755e-16
1.87453e-15
1.27428e-15
5.95558e-18
1.7423e-15
3.94312e-06
2.33188e-15
7.90864e-16
9.979e-16
1.85173e-15
7.04842e-15
6.93315e-16
4.86135e-16
1.51255e-15
4.10412e-16
2.09384e-13
4.41613e-16
6.17468e-17
2.27744e-16
1.48196e-17
3.67854e-16
9.18928e-17
6.8539e-16
7.43712e-16
4.11653e-17
4.08827e-17
1.39292e-16
7.19167e-17
1.33389e-16
4.26322e-16
1.66931e-16
3.26131e-15
1.3297e-15
1.68695e-07
1.54174e-15
4.42207e-09
3.10864e-16
1.8174e-15
2.04359e-05
2.75791e-09
7.46337e-17
7.22594e-17
7.89483e-11
4.09331e-16
7.91446e-17
2.52507e-16
3.25119e-16
2.44394e-16
1.5092e-10
4.07011e-05
2.75633e-16
7.95492e-16
7.61939e-16
9.72258e-16
3.10579e-16
4.42524e-16
2.78359e-15
2.53907e-16
3.84042e-05
0.001288
5.67987e-09
1.41156e-15
3.43447e-16
5.84686e-06
1.69599e-16
1.79372e-16
6.57431e-16
3.20856e-06
7.50647e-16
1.81672e-07
2.82769e-12
6.36713e-16
4.70158e-16
3.97798e-11
7.69584e-17
4.95516e-16
2.22934e-15
2.11813e-15
2.84688e-16
7.05948e-16
1.20327e-14
3.1905e-16
6.31891e-16
3.53313e-16
4.53533e-16
8.83194e-16
0.000939913
8.19554e-18
3.82434e-17
9.94073e-09
4.79335e-15
3.24484e-07
1.47097e-15
4.80943e-16
7.80891e-16
2.72039e-15
3.69791e-16
9.96441e-16
1.1235e-15
3.43092e-11
5.25762e-16
2.77093e-11
2.95891e-16
8.82711e-17
3.86251e-16
2.89642e-05
5.38275e-09
9.02046e-17
9.54137e-16
6.12664e-05
1.06775e-15
3.28329e-16
1.4564e-16
1.33341e-15
7.0992e-16
7.3592e-16
1.20065e-16
3.18468e-06
2.60198e-06
2.77644e-09
6.90552e-16
7.62799e-16
2.00112e-16
1.32814e-15
2.63404e-15
2.28643e-16
6.57669e-16
1.26413e-12
9.5553e-16
3.61368e-16
2.7554e-13
1.53043e-16
1.60132e-16
7.42746e-16
5.57367e-16
5.35417e-15
1.92072e-15
1.89996e-08
2.49764e-07
2.39178e-08
3.48734e-05
6.54267e-16
2.2697e-16
4.04256e-15
1.66663e-16
1.93848e-16
2.08535e-17
4.51693e-11
9.41392e-09
1.63507e-16
0.00124014
3.20808e-08
1.29132e-05
2.25152e-10
5.3582e-05
1.06972e-16
3.20828e-17
2.89761e-16
4.12561e-15
6.49037e-15
5.41869e-06
4.80074e-16
8.28376e-16
8.63354e-16
1.04954e-08
4.89485e-16
7.87141e-16
3.62108e-05
9.06485e-16
1.37286e-16
2.10511e-15
4.61249e-15
5.79921e-16
5.17341e-12
7.11376e-18
3.9087e-16
1.10131e-16
2.66898e-16
4.39876e-16
4.94029e-06
8.24344e-12
8.56393e-17
1.40947e-13
3.04331e-15
8.92269e-16
2.25462e-15
2.04873e-15
4.47147e-15
1.83025e-06
1.05092e-17
2.05667e-15
1.4057e-15
3.65893e-15
5.80923e-15
2.98266e-15
0.000167206
6.25353e-16
3.15313e-16
1.79968e-16
2.21516e-15
1.91141e-16
3.33256e-16
1.60555e-16
2.92827e-16
7.7276e-17
1.28439e-16
8.61046e-17
4.25736e-06
9.00491e-18
3.72575e-15
3.77417e-09
3.06672e-16
3.79347e-09
5.29363e-15
3.89805e-15
1.43813e-15
2.3199e-08
1.13276e-15
1.88712e-13
1.87676e-07
2.4868e-09
3.90401e-15
2.21012e-15
4.20497e-13
6.11834e-16
4.04687e-15
1.71839e-15
5.22219e-15
4.28794e-15
1.20632e-15
2.59779e-16
6.74932e-15
3.13139e-07
2.09658e-15
2.87477e-16
1.18259e-06
1.87063e-16
2.33165e-15
5.36464e-17
2.4324e-13
1.72535e-16
1.764e-07
2.41987e-16
5.99226e-07
1.18962e-06
3.44516e-16
2.02776e-15
7.04906e-17
9.6871e-17
1.58829e-10
2.36753e-16
1.59274e-08
5.43871e-16
1.06008e-15
2.89996e-15
3.55669e-17
1.52964e-15
1.69373e-17
2.65019e-15
2.58129e-16
2.66287e-16
8.48948e-16
1.89121e-17
1.56102e-15
1.10075e-15
8.41173e-17
7.00121e-16
8.25095e-15
6.24651e-16
1.44354e-15
4.04211e-16
2.55145e-16
6.45101e-10
4.98243e-13
0.000106375
1.07428e-16
4.43466e-17
1.44193e-16
5.82616e-17
1.93846e-08
1.0779e-15
2.90915e-16
6.94563e-16
1.17516e-16
2.80331e-15
3.95053e-16
1.39529e-06
5.90304e-16
1.38196e-05
3.83937e-11
2.41234e-16
9.64031e-16
1.02321e-15
3.15699e-15
1.14462e-16
3.33699e-16
3.60554e-16
1.072e-16
1.00512e-15
6.53259e-16
5.5363e-16
4.54752e-07
9.51787e-16
2.12038e-05
4.4848e-06
2.01994e-16
2.56335e-10
6.73844e-07
3.88833e-17
1.38847e-17
2.55758e-17
2.00075e-16
2.16812e-15
3.38901e-16
1.05929e-15
3.83061e-16
1.39945e-16
3.52597e-15
3.10907e-12
9.47296e-16
5.82115e-08
2.81753e-16
1.68456e-08
6.18753e-16
5.82765e-08
4.34319e-16
1.49724e-16
3.00588e-05
1.05117e-05
4.74224e-16
9.61344e-05
4.11448e-13
1.51124e-12
4.38223e-17
2.66999e-06
6.08848e-15
4.87875e-06
7.32875e-09
1.74607e-08
3.27887e-16
1.14929e-15
1.56866e-06
8.31236e-11
2.30033e-16
1.55324e-16
2.85003e-15
1.11761e-15
3.33805e-15
2.49599e-16
2.65589e-17
3.05478e-09
2.75434e-15
1.70205e-15
6.12688e-17
5.68058e-08
2.77253e-15
1.44655e-06
1.61798e-08
1.65906e-15
9.87231e-07
3.73237e-17
1.65836e-15
4.48203e-07
2.771e-06
2.57869e-17
2.70542e-15
5.84315e-17
3.14599e-06
6.46775e-15
9.15115e-16
5.289e-18
1.79992e-10
6.85325e-16
6.80806e-16
6.53074e-15
9.39268e-16
3.3917e-06
4.43395e-06
1.94169e-15
0.000352397
1.78464e-15
9.07123e-12
2.95427e-15
4.10063e-15
4.90716e-05
7.15121e-17
1.68709e-16
6.00036e-05
8.05061e-16
1.17573e-09
9.6261e-16
1.27882e-16
3.37928e-16
1.90951e-05
2.41523e-15
2.0333e-06
3.67152e-06
4.59627e-16
2.96399e-05
9.214e-16
3.74338e-16
2.71392e-16
1.17061e-15
3.83851e-13
1.45928e-16
1.45696e-16
1.98724e-15
1.07151e-15
9.06903e-16
1.05798e-06
1.89486e-15
1.45873e-10
1.12867e-15
5.302e-16
1.12176e-13
1.26359e-06
6.79251e-16
1.06039e-08
2.50899e-16
0.000640253
3.61596e-17
1.96605e-06
8.29907e-16
3.78573e-13
1.38473e-05
2.30395e-06
4.46765e-06
1.67043e-15
1.65898e-15
3.31306e-17
7.26284e-17
3.16037e-17
2.18975e-16
2.04868e-15
3.06441e-16
5.57737e-17
2.96506e-06
3.41058e-16
1.11641e-16
1.45298e-10
2.0919e-16
2.27539e-16
1.40803e-15
1.49698e-15
8.09528e-16
2.33977e-17
1.86661e-17
4.63281e-07
1.90034e-15
0.000147928
4.92789e-16
1.35966e-15
1.06042e-13
2.62166e-15
5.71962e-16
1.22376e-10
6.60406e-16
1.50564e-06
9.54983e-06
1.0721e-07
3.78762e-16
2.04817e-16
1.75097e-09
3.3641e-17
4.75582e-17
3.79362e-16
1.31589e-15
2.71301e-05
2.00193e-16
5.04969e-16
5.99762e-16
1.33139e-10
2.86489e-15
1.64133e-15
2.45686e-14
2.14957e-10
4.59454e-06
1.26721e-07
1.76547e-16
8.85287e-18
1.01316e-16
3.35116e-07
3.01887e-16
8.0558e-08
2.05199e-15
2.0942e-07
2.11189e-10
8.35434e-16
1.51549e-15
3.86533e-17
1.85616e-17
1.69429e-07
7.26968e-08
6.6692e-16
2.72176e-16
8.14605e-17
1.858e-15
7.14631e-08
5.78808e-07
2.12266e-06
2.97337e-15
4.94646e-15
3.03714e-16
4.13964e-16
6.87018e-16
2.07587e-16
1.58238e-15
4.76876e-16
1.20722e-15
3.11202e-15
3.43856e-06
2.03782e-16
4.60314e-16
1.62652e-15
1.84823e-16
2.21255e-17
3.48464e-11
1.17153e-16
1.52795e-15
3.32803e-16
2.50081e-16
4.67539e-16
3.18955e-15
3.88837e-06
1.4323e-15
1.72667e-06
0.000410997
1.42794e-15
3.63635e-11
1.42478e-15
4.94455e-17
3.89328e-17
1.20011e-15
2.08593e-06
6.80589e-16
3.17881e-06
1.08624e-09
1.50813e-16
8.85894e-16
8.91016e-15
2.21824e-17
4.71201e-16
1.22661e-16
1.52514e-15
0.000224616
2.64616e-16
3.89834e-06
1.3616e-16
1.59049e-16
3.39606e-16
5.06722e-06
3.18478e-15
5.91172e-19
2.97949e-15
7.54445e-08
1.00906e-15
6.94564e-16
1.01934e-16
1.36289e-15
1.97587e-16
5.08841e-16
3.69012e-07
1.94817e-06
5.70031e-06
6.58323e-16
1.54873e-15
1.82824e-15
1.03e-05
7.91254e-06
1.35432e-05
1.44587e-16
2.81868e-18
2.98219e-15
2.29024e-16
9.77153e-16
2.26126e-17
8.88619e-16
3.70054e-16
1.89304e-16
1.84146e-16
2.84885e-15
1.35565e-15
2.36821e-15
2.52996e-16
2.08976e-16
4.14032e-16
2.12579e-17
1.82195e-16
1.37719e-07
7.33594e-16
3.72489e-17
1.05039e-16
3.66805e-16
7.30044e-17
3.50518e-12
1.65029e-05
0.000126973
1.01176e-17
2.91342e-14
4.60078e-15
1.88209e-16
1.24291e-16
4.78407e-16
6.71302e-17
6.76321e-16
1.29901e-15
2.73323e-14
3.94922e-17
2.95468e-17
3.30934e-15
0.00245363
2.74179e-16
1.01475e-15
1.36254e-15
4.96145e-07
1.03723e-16
0.00077865
1.17771e-16
6.55376e-12
1.39133e-15
8.5302e-15
2.7079e-16
1.67518e-16
4.82377e-15
2.09042e-15
2.65876e-15
3.56916e-05
1.6756e-05
0.000983446
5.33734e-17
1.00111e-15
4.72692e-15
1.02516e-15
8.28682e-11
8.0715e-11
3.19334e-17
7.34312e-16
6.66763e-15
3.97073e-07
5.80806e-15
1.80883e-16
1.10521e-15
3.05645e-05
4.45545e-16
2.07616e-16
2.09454e-15
4.65022e-15
3.18559e-15
6.36412e-16
1.8772e-16
7.03802e-17
4.78204e-16
1.02108e-15
3.62223e-16
2.96724e-16
3.73662e-16
1.2504e-15
1.34522e-10
1.75589e-15
1.32862e-15
4.48324e-16
1.37948e-16
2.66243e-06
1.38633e-10
1.3022e-16
1.42608e-16
3.57289e-11
1.43061e-15
3.69411e-15
1.03246e-15
1.86233e-16
1.19029e-16
1.84075e-17
1.79759e-13
2.81499e-15
1.79333e-05
2.23923e-16
1.84354e-05
8.16605e-16
4.32978e-06
4.75047e-17
2.30451e-16
1.3872e-05
0.000262918
3.36483e-15
7.52454e-05
1.55033e-16
2.72465e-05
1.19802e-16
3.6492e-15
7.20628e-16
4.73787e-10
3.57732e-17
5.14939e-07
4.31709e-17
1.77759e-17
6.72796e-17
3.4875e-15
1.79617e-16
1.63463e-16
8.37827e-16
2.99287e-06
2.12856e-16
5.38488e-06
4.08672e-17
1.97596e-06
1.84091e-05
5.35025e-06
1.64715e-16
3.97711e-09
1.58259e-06
1.61482e-06
8.48767e-12
4.55176e-10
6.43485e-06
2.0258e-15
9.41051e-17
4.39292e-10
3.12231e-15
3.96773e-06
3.18764e-15
1.90937e-16
6.16379e-16
0.000580438
3.59405e-17
7.72068e-17
1.78059e-16
8.60467e-18
3.25566e-17
8.91892e-08
3.63857e-06
7.48905e-07
2.93867e-15
8.02804e-16
1.33743e-06
2.31231e-17
3.59808e-14
4.52683e-17
5.98911e-17
8.82299e-17
7.88054e-16
4.90877e-08
1.05905e-15
8.70886e-16
1.45028e-15
3.17881e-16
7.02106e-16
1.31161e-16
1.52122e-05
1.45645e-15
5.35637e-05
7.32017e-05
0.000365069
4.00237e-16
0.000235138
0.00143226
0.00248467
0.000825314
4.76905e-17
3.95873e-17
2.4825e-16
5.62967e-07
9.32884e-17
2.69539e-06
9.72519e-17
9.27811e-16
4.76964e-15
2.8606e-16
4.21637e-07
3.59379e-16
3.04585e-16
2.67012e-06
1.93331e-08
1.78794e-17
2.03699e-16
3.40722e-09
3.82884e-15
8.16389e-17
2.33579e-08
6.16081e-15
3.09909e-16
3.14619e-15
1.60471e-17
6.57914e-16
4.12278e-16
5.00501e-10
6.94506e-15
1.49982e-16
1.88067e-11
2.78474e-15
3.27249e-16
1.18708e-13
1.92563e-16
7.119e-16
5.11487e-17
5.25362e-17
3.83596e-16
3.38802e-07
5.27623e-16
2.65933e-16
6.23864e-16
3.96235e-14
7.63941e-13
7.09844e-17
2.26716e-15
6.18665e-06
5.48978e-16
4.98822e-17
1.1429e-15
5.11667e-16
0.000227146
1.65217e-17
3.93048e-15
1.67529e-15
5.0839e-05
1.98097e-12
2.35993e-16
7.3246e-05
4.12925e-16
0.000267298
6.8598e-17
8.60409e-12
9.79404e-12
1.37531e-15
1.3661e-16
6.77044e-16
2.92625e-05
7.13738e-17
2.36096e-15
2.31999e-15
4.61223e-16
6.58813e-17
2.67967e-16
5.2034e-08
1.38485e-15
0.000175149
6.17732e-15
1.40372e-16
5.13003e-05
2.58233e-15
1.3549e-17
8.29006e-16
9.54836e-17
3.35683e-15
8.08883e-16
2.15452e-16
4.10583e-16
1.55184e-17
1.07963e-15
3.79816e-15
6.38047e-17
2.0508e-15
2.0257e-16
5.63957e-17
1.90782e-15
0.000246554
1.16442e-05
2.49557e-16
5.30804e-15
3.77691e-16
3.03937e-15
8.17604e-17
2.5037e-16
4.37669e-15
1.75323e-17
8.90585e-15
6.57351e-16
1.76638e-17
6.96069e-16
0.000368319
6.83492e-16
7.08855e-15
2.41026e-15
7.60408e-16
3.52107e-06
2.22116e-15
1.68668e-17
2.54158e-17
1.78443e-17
6.76655e-16
1.9426e-05
3.95041e-16
2.88525e-15
1.53222e-15
4.3091e-16
2.57887e-15
2.50384e-17
1.83658e-13
1.06636e-15
3.03292e-17
9.05279e-07
6.37752e-17
0.000149491
3.78445e-17
5.00552e-16
2.11158e-16
2.56191e-16
0.000188538
1.37645e-16
7.28787e-17
2.99267e-15
3.68272e-15
8.97332e-16
2.6856e-13
2.82135e-05
8.00103e-16
1.93504e-16
8.75136e-16
1.042e-15
4.27339e-15
3.85505e-17
8.70099e-16
7.52806e-16
6.45551e-05
5.25321e-16
3.04674e-15
5.09785e-16
7.93469e-17
4.7497e-17
2.09501e-16
8.2938e-16
4.77113e-16
1.92266e-15
8.8697e-17
8.06162e-16
5.47909e-16
2.09955e-15
5.37466e-16
0.000662494
1.51666e-15
1.94761e-16
3.47086e-16
8.74236e-17
2.15366e-15
1.15145e-15
5.28555e-16
6.61908e-16
1.27524e-16
4.09775e-15
4.45268e-16
3.3011e-06
1.49363e-16
2.96977e-07
3.51524e-16
3.77613e-05
5.36186e-16
9.77297e-16
8.2173e-08
3.38889e-16
7.58388e-17
6.51728e-16
2.4498e-11
3.09352e-16
2.45184e-16
4.58242e-06
1.30403e-05
1.10505e-15
1.86841e-15
1.70198e-16
5.63435e-06
5.53617e-16
4.96158e-06
1.89697e-15
2.79112e-05
1.13266e-16
2.18047e-16
3.44325e-16
8.8571e-15
2.096e-16
2.87926e-15
5.22176e-16
1.04088e-16
3.14221e-17
7.11988e-10
1.2213e-08
4.28714e-15
1.33271e-06
1.6294e-16
2.00631e-05
1.43344e-16
3.61739e-10
8.13833e-15
1.41416e-15
3.33122e-07
3.48134e-17
3.06112e-16
5.77352e-17
1.84268e-15
4.44561e-09
8.02663e-17
5.74149e-16
5.58958e-16
1.43456e-15
0.000746966
5.50728e-16
9.61299e-05
1.42544e-17
6.95396e-16
3.02453e-16
1.12948e-17
3.39453e-15
7.01107e-17
5.25056e-08
1.80615e-16
1.53675e-07
4.76897e-16
5.8403e-17
6.51835e-15
1.95184e-15
1.02213e-15
1.44316e-15
2.60479e-16
8.23149e-16
4.39756e-09
0.000250186
1.76415e-15
2.26175e-16
1.14844e-09
8.91219e-18
1.09296e-16
2.19926e-09
1.73068e-15
2.75584e-07
2.70904e-16
1.77929e-15
6.50271e-07
1.55822e-15
6.42138e-13
3.93747e-16
2.40341e-16
1.67833e-15
1.30696e-16
7.06129e-18
9.54853e-17
3.26965e-16
1.24299e-16
2.18867e-16
3.71578e-16
3.33375e-16
1.25571e-16
8.50189e-05
5.90376e-17
7.08859e-17
1.7587e-12
3.94572e-16
1.55842e-16
0.00124915
1.99754e-16
4.95552e-16
3.31802e-13
8.9686e-12
4.15661e-16
8.79115e-17
3.58541e-17
3.7963e-16
3.10973e-16
2.5249e-16
5.51116e-11
1.62617e-17
2.51947e-15
4.13657e-16
3.3388e-17
0.000127197
5.97305e-17
2.10391e-07
4.57891e-17
5.95538e-17
7.28236e-17
1.34313e-15
5.11877e-16
5.80757e-11
6.64882e-11
5.96125e-16
2.89815e-16
4.05381e-16
6.04077e-16
1.16474e-10
3.3545e-15
3.02444e-10
2.23933e-11
2.49419e-18
3.81557e-16
1.4944e-15
3.80649e-12
1.30501e-16
1.01108e-15
4.25249e-12
8.80718e-15
6.10321e-06
1.1442e-16
9.11275e-06
3.43582e-15
2.34748e-09
4.82098e-16
7.09131e-10
9.51029e-18
7.15053e-10
2.1691e-05
5.16574e-15
1.66675e-09
8.27082e-09
1.28088e-16
9.31031e-06
1.69285e-15
2.98859e-16
2.38872e-15
6.33143e-16
4.09102e-16
1.57888e-17
3.94004e-16
5.47306e-17
0.000318869
5.65248e-17
1.66324e-16
1.85153e-16
3.31115e-16
4.76875e-16
2.23725e-15
0.000949015
1.49107e-09
1.44341e-08
7.26771e-16
1.82134e-08
7.36253e-09
4.8378e-16
2.33015e-15
3.38435e-16
1.54887e-16
3.73314e-16
9.85858e-15
1.11382e-15
6.33468e-16
9.68346e-08
4.83797e-16
4.43207e-16
1.25062e-07
1.11327e-09
6.14976e-17
1.62222e-07
1.88086e-16
1.42874e-15
1.29569e-16
0.000175517
3.00238e-16
4.65728e-17
2.17915e-05
2.16222e-17
4.16547e-16
3.5126e-16
1.0452e-15
2.89606e-05
1.08605e-15