/*--------------------------------*- C++ -*----------------------------------*\
  =========                 |
  \\      /  F ield         | OpenFOAM: The Open Source CFD Toolbox
   \\    /   O peration     | Website:  https://openfoam.org
    \\  /    A nd           | Version:  10
     \\/     M anipulation  |
\*---------------------------------------------------------------------------*/
FoamFile
{
    format      ascii;
    class       volScalarField;
    location    "2.8";
    object      T;
}
// * * * * * * * * * * * * * * * * * * * * * * * * * * * * * * * * * * * * * //

dimensions      [0 0 0 1 0 0 0];

internalField   nonuniform List<scalar> 
111485
(
303.15
283.15
283.151
303.15
283.156
283.15
283.15
283.15
283.15
283.543
283.15
283.242
283.15
283.15
283.15
283.15
283.15
298.896
283.15
303.15
303.15
283.15
283.15
283.15
283.154
303.15
284.161
283.15
283.151
303.15
300.605
283.15
303.15
283.15
283.477
283.15
302.2
283.15
283.149
283.15
283.15
284.773
283.15
302.572
303.179
303.15
285.879
283.15
284.659
303.15
303.15
283.15
303.15
299.287
303.15
283.15
283.15
283.15
283.224
283.15
283.15
303.15
283.15
300.13
283.15
283.15
301.823
283.15
283.15
283.15
303.164
283.15
303.15
283.15
303.15
283.15
283.15
284.73
283.15
283.15
283.249
291.489
283.15
303.15
283.15
283.15
283.15
301.688
303.155
283.15
283.561
283.15
283.15
283.15
285.139
303.15
303.15
301.672
303.15
283.487
303.15
283.512
283.15
283.288
283.15
283.15
283.15
283.15
283.15
283.146
283.15
283.15
283.15
283.456
303.15
283.15
303.15
283.15
283.15
303.15
303.15
283.15
283.15
283.15
283.228
303.153
283.15
283.15
303.15
283.187
303.056
302.066
303.15
283.15
283.15
283.15
283.15
283.15
283.15
283.15
285.11
283.15
283.15
283.15
297.16
283.15
283.15
303.15
283.15
283.15
283.15
303.15
303.137
283.15
283.156
283.15
283.15
283.15
283.154
303.15
303.15
283.15
283.15
283.154
283.157
283.15
283.803
283.15
283.154
283.154
283.15
303.15
283.15
283.15
283.15
283.15
283.15
303.15
303.15
283.15
303.15
303.15
283.15
283.15
283.15
283.15
285.928
283.15
283.2
303.15
283.15
303.15
303.15
283.15
283.544
301.789
283.15
283.15
303.15
283.15
283.15
283.161
299.595
283.15
303.15
283.15
283.486
303.15
283.258
296.783
283.15
283.15
303.15
303.15
283.15
283.15
293.158
283.15
283.15
283.15
285.464
303.15
283.15
300.686
283.15
283.15
283.15
289.396
283.159
283.15
303.15
283.15
283.15
283.15
283.15
303.15
303.101
303.15
283.15
283.15
283.15
283.15
283.15
283.15
283.144
283.15
283.15
283.15
288.184
283.15
283.15
283.15
283.15
303.15
283.15
298.373
303.15
303.15
303.124
303.15
283.15
283.15
283.15
303.15
283.15
303.15
303.15
303.15
283.148
285.854
283.15
283.15
283.246
283.15
283.15
283.221
283.15
283.15
283.15
303.15
283.149
283.15
288.77
283.15
303.15
283.15
283.15
283.15
283.499
283.167
283.15
283.15
300.454
283.15
283.198
283.15
283.148
303.15
283.901
283.246
283.15
303.15
283.15
283.15
283.15
303.15
303.15
303.15
283.15
283.15
283.15
283.15
283.15
283.15
283.15
303.15
283.15
303.15
283.15
289.617
283.154
283.15
303.15
303.15
283.15
283.15
283.151
283.15
283.15
283.15
303.15
300.754
283.15
283.281
283.15
283.15
283.15
283.15
283.15
283.15
302.31
283.15
283.15
283.148
283.152
283.15
283.244
283.15
283.15
283.15
283.15
284.158
298.406
283.151
283.15
303.15
283.15
303.15
283.15
283.15
283.301
283.15
283.15
283.154
283.15
303.15
283.15
303.15
302.668
303.15
283.15
283.15
283.15
283.15
283.153
283.15
283.15
283.15
283.15
283.15
283.156
283.15
303.07
283.15
283.15
283.15
303.15
302.128
283.15
283.364
300.674
283.15
283.15
283.15
283.154
283.15
283.166
283.15
294.967
283.275
283.15
301.725
283.154
303.15
303.15
283.15
283.156
283.15
303.15
303.15
303.15
283.166
283.15
303.15
283.205
283.169
284.832
283.155
283.15
283.15
302.589
283.15
302.31
301.537
288.289
289.898
283.15
283.15
303.389
303.15
299.172
283.17
303.15
283.15
283.169
283.15
283.307
283.172
283.15
283.15
283.15
283.541
283.15
303.147
283.15
303.15
303.15
283.166
283.15
283.15
283.164
295.034
283.15
303.15
303.15
303.15
283.154
283.15
283.178
283.161
284.226
283.15
283.204
303.15
283.154
283.15
303.15
303.15
283.466
303.15
303.15
283.151
303.15
283.15
299.312
283.15
283.15
283.15
303.15
283.15
303.15
283.15
283.154
283.15
301.703
284.134
283.756
283.15
300.198
283.15
303.15
283.156
283.156
283.191
298.471
283.15
290.28
290.567
283.15
283.15
283.175
303.15
283.15
283.15
293.446
283.15
290.567
283.15
283.15
283.417
303.15
283.15
283.15
303.15
288.485
291.563
283.15
283.15
283.15
283.15
303.15
287.481
283.15
283.15
283.15
283.15
291.674
283.15
283.906
303.15
283.178
285.917
283.15
283.15
283.15
283.15
283.15
283.15
283.313
283.15
283.163
283.15
292.822
303.15
284.074
303.15
283.15
302.415
283.192
292.335
283.239
292.733
283.179
283.15
292.323
283.191
283.15
283.14
301.009
292.438
283.15
282.289
283.153
288.124
283.117
303.15
283.322
283.152
283.194
283.34
283.15
282.463
283.15
303.15
300.966
303.15
283.234
283.15
283.15
283.15
282.663
303.15
303.118
283.15
283.411
283.154
283.15
283.15
283.154
303.15
283.15
283.15
283.15
283.365
283.15
303.15
283.296
283.15
303.15
283.154
283.15
283.15
303.15
283.15
283.503
283.15
283.15
283.15
283.15
283.15
283.594
283.15
303.15
300.444
283.176
283.173
301.098
283.412
283.15
283.15
284.824
283.168
303.15
283.15
293.931
283.193
283.15
283.208
283.192
303.15
291.129
303.106
283.15
283.211
283.638
283.15
283.15
283.201
283.678
283.51
283.57
283.15
283.15
283.587
283.19
303.15
285.581
286.033
283.15
283.15
283.15
303.15
283.15
283.15
283.15
283.15
283.15
303.15
303.15
283.15
285.713
286.431
303.15
283.795
303.15
303.15
303.15
285.741
283.205
283.15
303.15
283.15
283.15
287.593
283.15
283.15
284.414
283.134
283.15
284.555
298.546
283.15
283.15
283.15
283.15
283.15
283.15
283.15
283.15
283.15
303.15
303.15
283.15
284.295
283.15
283.15
282.66
302.204
283.15
283.15
283.15
284.612
303.038
283.15
283.16
287.754
283.489
283.15
283.15
283.151
298.393
283.15
303.15
283.15
283.15
283.15
283.15
284.271
303.15
283.15
283.15
284.281
283.15
303.15
303.15
287.154
283.15
283.15
303.15
283.15
283.15
303.15
283.194
283.15
283.15
303.15
303.15
303.15
283.15
283.151
283.15
283.15
302.498
303.15
283.15
297.994
283.15
283.15
283.128
283.15
284.184
283.224
287.44
283.15
283.15
283.15
286.889
283.15
283.15
283.15
299.609
283.15
283.15
283.657
284.01
283.334
303.15
303.15
303.15
283.15
283.15
283.15
283.15
283.15
283.15
283.15
283.15
283.15
283.15
303.15
283.15
283.15
283.15
303.101
283.15
283.15
303.15
283.15
283.15
283.15
283.15
283.15
283.15
283.15
303.15
283.15
283.168
283.15
303.15
283.157
283.124
283.271
283.092
283.15
283.15
283.246
290.263
283.273
303.15
283.15
283.15
283.15
283.15
283.192
283.141
283.15
283.15
283.26
283.15
283.15
283.15
283.15
283.15
283.15
283.15
283.15
283.205
283.15
283.15
283.261
283.15
283.15
283.15
283.15
283.15
283.15
283.148
283.15
283.15
283.15
283.143
303.118
283.161
283.161
283.15
283.15
284.581
283.15
283.289
283.588
283.069
303.148
303.148
303.149
283.15
283.15
283.15
303.15
303.159
283.765
283.15
283.15
303.154
303.15
283.15
303.16
283.15
283.15
303.15
303.15
303.15
303.15
283.4
283.15
283.15
283.15
303.159
283.293
283.15
283.15
283.15
283.15
283.323
283.15
283.15
283.15
286.982
283.15
283.15
283.15
283.15
283.15
283.15
283.15
283.932
283.15
303.15
283.15
283.15
303.15
303.15
303.15
303.15
303.15
283.15
303.162
283.15
283.679
283.144
303.151
283.15
303.068
284.446
283.15
303.15
303.137
283.679
303.15
283.15
303.15
283.15
283.15
283.15
284.608
303.148
283.15
283.15
283.15
283.15
303.15
283.15
283.15
283.15
303.15
283.163
283.15
303.15
283.506
283.15
283.589
283.15
283.15
283.15
303.15
283.15
283.15
284.54
283.15
283.15
283.15
283.15
283.15
303.15
283.221
303.158
283.158
303.15
303.135
303.138
283.15
303.143
283.15
283.508
285.882
283.15
283.816
283.161
283.15
283.15
283.15
303.175
283.15
302.998
303.15
293.374
303.15
283.15
283.15
303.15
283.15
303.15
283.15
302.167
303.15
303.15
283.15
301.101
283.15
283.15
283.15
283.15
283.15
283.15
301.365
283.258
303.15
303.15
303.155
303.15
300.723
283.15
283.15
302.177
303.15
283.15
283.15
283.15
283.15
283.147
303.151
283.352
302.271
300.561
283.147
283.15
288.817
303.15
283.15
303.15
283.15
303.15
283.15
283.15
283.15
301.121
302.201
303.15
303.15
303.15
302.928
283.149
303.15
283.15
283.093
303.15
283.15
283.15
283.15
283.392
283.15
283.15
283.15
283.15
283.15
283.15
294.96
283.15
303.087
283.15
283.15
302.908
283.15
283.15
302.855
283.148
302.919
283.15
303.15
283.15
283.15
283.15
303.15
283.15
283.147
283.15
283.174
283.15
283.15
303.15
283.15
283.15
283.333
283.15
303.15
303.13
283.15
283.15
283.15
283.15
283.158
302.907
283.15
303.009
303.15
283.151
283.15
303.15
283.15
288.569
283.412
283.15
283.15
303.15
283.158
303.15
283.15
283.121
286.991
283.147
283.15
283.15
283.146
303.15
283.15
303.141
303.15
303.15
283.15
303.044
303.065
283.15
283.15
283.15
283.15
303.095
283.15
283.15
303.15
283.173
283.15
303.15
283.15
283.15
283.15
298.09
283.15
283.162
283.15
300.878
283.15
283.15
283.15
283.15
283.15
283.15
283.15
283.15
283.15
283.15
283.15
283.15
283.15
283.15
283.15
283.15
303.032
283.15
283.226
283.15
298.72
303.145
283.15
283.15
303.15
283.15
283.15
303.112
303.15
303.129
283.15
283.15
283.15
283.15
283.15
283.15
283.15
283.15
283.15
283.15
283.15
283.15
303.135
283.15
283.15
283.15
283.236
283.15
283.19
303.15
283.15
283.15
283.15
283.207
283.15
303.171
303.15
283.15
283.15
294.39
283.15
283.15
292.673
283.15
283.15
283.15
283.15
283.15
283.15
284.526
283.15
283.15
283.15
303.15
283.15
298.535
283.15
283.15
283.15
283.15
283.15
303.15
283.15
283.15
283.15
283.15
283.15
283.15
283.15
283.203
283.15
283.15
283.15
283.28
283.15
283.15
283.15
283.15
283.15
283.15
283.15
283.15
283.15
283.165
283.15
283.15
283.15
283.15
283.15
283.151
303.15
290.303
303.15
303.15
303.15
283.15
283.15
283.15
283.15
283.15
302.952
283.15
283.15
303.15
283.149
283.152
283.15
283.15
283.151
283.152
283.15
283.15
283.15
303.15
284.648
283.159
283.15
283.15
283.15
283.15
283.15
283.15
283.15
283.15
283.15
283.15
283.15
283.15
303.15
283.15
283.15
283.15
283.15
283.15
283.15
283.15
283.15
303.15
283.152
283.15
283.15
283.15
283.15
283.15
303.15
303.049
283.15
283.15
283.15
283.15
283.15
302.052
283.15
283.15
303.4
303.41
283.15
301.148
283.15
283.15
283.15
283.15
303.15
283.15
283.15
283.15
283.15
283.15
283.15
301.014
283.15
283.15
283.15
283.15
283.15
283.15
303.15
283.15
283.15
283.15
283.15
283.15
283.15
283.15
303.15
283.15
283.15
283.15
283.15
283.15
283.15
283.15
283.15
303.15
283.15
303.15
283.15
303.127
283.15
283.198
283.15
283.15
284.781
283.181
283.15
283.15
283.159
303.15
283.15
283.15
283.15
283.15
283.159
300.353
303.15
283.15
283.15
303.15
303.15
283.15
303.15
283.15
282.733
296.004
283.17
283.15
303.15
290.359
283.15
283.15
283.15
302.526
303.15
303.047
303.15
303.15
283.15
283.155
283.15
283.15
283.15
283.15
283.15
303.15
283.15
303.15
283.15
303.15
303.15
283.15
300.154
283.15
303.15
303.143
283.15
303.09
283.15
283.15
283.15
283.15
283.15
303.15
283.15
283.155
283.15
303.15
303.15
303.15
303.15
296.963
283.219
283.15
283.15
301.261
283.15
283.15
303.15
303.15
283.15
283.15
283.15
285.029
286.548
283.213
283.15
283.15
283.15
303.15
283.15
283.15
283.15
283.15
283.15
303.15
283.15
283.15
303.15
283.15
283.15
283.15
283.15
283.153
283.159
283.253
301.913
283.15
303.15
283.15
283.15
303.15
283.15
303.15
303.208
283.15
291.615
283.255
303.242
283.149
297.483
303.15
303.15
283.15
303.15
283.15
283.305
283.15
283.15
303.15
283.297
283.15
303.15
283.026
283.15
303.15
283.15
283.15
303.15
303.15
283.15
303.15
283.15
283.15
283.15
299.505
283.155
303.15
283.15
283.15
283.15
283.15
283.15
283.15
303.083
283.15
283.15
283.15
283.15
283.15
283.15
291.228
283.15
303.15
283.15
283.15
303.15
283.15
283.15
283.15
303.15
283.15
303.15
296.393
283.15
283.15
283.168
303.15
283.164
283.15
283.15
303.15
303.146
303.15
283.15
302.911
303.121
283.15
283.15
283.15
283.15
283.15
303.15
283.15
283.15
283.15
303.15
283.15
283.457
283.15
283.15
283.536
303.15
283.15
303.15
283.15
303.15
303.252
283.15
303.248
285.838
303.15
303.15
283.15
283.15
283.165
283.15
303.064
283.15
283.15
283.15
283.15
283.15
283.15
283.15
283.15
283.15
303.15
283.15
283.15
283.15
283.15
303.15
283.15
283.15
303.15
283.15
303.15
283.156
283.15
300.904
303.15
303.15
283.15
303.15
283.201
283.15
283.15
283.15
283.15
283.15
303.15
302.686
283.15
288.9
283.156
303.15
303.15
283.15
283.15
303.15
283.15
283.15
303.15
303.15
283.15
283.15
303.257
283.15
299.818
285.611
303.15
303.151
301.791
303.15
283.15
303.15
303.15
303.15
303.15
303.15
303.15
303.15
283.15
303.15
303.15
283.228
303.15
303.2
303.15
303.16
303.15
303.15
300.798
303.676
303.15
290.982
303.15
303.15
283.15
302.308
303.15
301.653
303.114
283.163
283.15
303.15
302.508
283.149
303.15
303.15
283.15
283.15
283.15
283.15
283.15
283.154
283.15
283.15
303.15
283.404
283.15
303.534
303.133
283.15
302.105
283.15
283.15
303.11
286.446
283.15
303.15
283.15
303.632
283.15
283.15
303.15
303.15
303.15
303.15
303.15
303.15
298.838
299.39
283.15
292.272
303.15
283.151
283.15
283.15
299.087
283.15
283.15
298.213
283.15
283.147
283.15
303.15
283.15
299.893
283.15
300.752
301.566
303.15
301.891
303.15
303.15
283.15
303.15
283.15
303.15
303.15
283.15
303.15
303.15
300.595
303.15
283.151
283.15
283.15
283.15
283.846
283.15
283.198
303.15
295.251
303.15
283.977
303.15
283.15
297.493
299.057
285.071
303.15
303.15
303.15
283.15
283.15
303.15
283.15
283.15
283.15
298.701
303.15
283.15
283.147
283.15
303.15
303.15
283.15
283.15
303.15
283.15
283.478
283.15
295.705
303.15
283.15
283.15
283.15
303.15
283.16
283.15
302.525
297.227
283.815
303.15
303.15
303.146
303.15
283.15
303.15
283.15
296.951
283.15
283.15
283.15
283.162
283.15
283.15
283.15
283.167
286.16
283.438
283.15
283.15
283.15
283.435
283.15
283.594
283.15
283.538
303.157
283.15
283.15
283.15
303.15
283.588
283.528
303.15
283.15
303.15
283.15
283.585
283.387
284.441
283.15
283.15
303.15
303.15
303.15
283.15
283.15
283.15
283.15
283.15
283.75
303.15
303.15
283.15
283.15
283.15
283.156
303.15
303.15
283.15
303.15
303.15
303.15
287.173
303.15
285.216
293.12
283.15
283.153
283.15
283.15
303.15
303.15
286.323
303.15
286.617
283.146
283.15
303.15
303.15
283.15
303.15
303.15
303.15
305.564
303.15
286.917
283.15
303.15
303.15
288.247
303.15
283.15
283.15
303.212
303.15
303.15
303.15
283.15
303.15
303.15
302.572
288.321
288.583
303.15
283.15
303.15
288.508
288.114
289.353
283.15
283.15
283.15
283.15
283.15
283.15
303.15
303.15
303.15
303.15
283.15
283.15
283.15
303.15
303.15
303.15
303.15
283.15
302.569
283.15
283.15
283.15
303.15
303.15
283.147
298.814
294.902
283.15
303.15
303.15
303.15
303.15
283.15
283.15
303.15
303.15
283.15
303.15
283.15
283.15
292.21
303.15
283.15
283.15
303.079
303.15
303.461
283.15
283.152
303.15
303.15
303.15
303.15
283.15
283.15
303.15
302.538
293.237
290.878
303.15
303.15
303.15
303.15
283.163
303.151
303.15
303.15
283.15
284.221
283.15
303.15
303.15
293.297
303.15
303.15
303.15
303.15
283.15
303.15
283.15
283.15
283.15
283.15
303.15
303.15
303.15
283.15
303.147
303.15
303.15
303.15
303.15
303.432
283.156
303.15
283.15
283.151
283.15
303.15
303.15
303.15
303.15
283.15
283.15
303.15
302.831
283.15
295.203
303.15
291.669
303.15
283.15
301.781
286.674
283.15
296.58
303.15
293.796
283.15
303.15
303.15
303.152
303.15
283.294
303.15
283.15
283.15
283.15
303.15
303.15
283.15
285.315
283.15
302.504
283.15
283.895
287.631
284.857
283.15
303.154
283.739
303.043
283.151
283.156
284.963
283.15
283.15
283.156
283.15
285.902
303.15
283.15
283.15
296.263
303.15
283.15
303.15
303.15
303.15
303.101
283.639
303.004
283.15
303.15
302.971
303.15
283.15
303.15
303.15
283.15
303.15
303.102
303.15
283.15
303.15
283.15
303.15
303.15
303.167
283.15
303.876
303.132
299.182
303.15
293.415
297.96
285.457
293.786
283.15
283.15
283.15
283.457
283.15
303.568
283.15
283.15
303.15
283.15
303.15
303.15
303.15
298.705
303.129
303.15
283.15
303.139
303.15
283.15
283.102
283.15
283.15
303.15
283.15
303.15
283.15
303.152
283.15
303.15
303.15
283.15
303.15
303.15
303.15
283.15
303.15
283.15
303.15
302.922
303.15
283.15
283.15
303.15
303.15
303.15
283.15
302.625
303.15
303.15
283.15
283.15
292.128
303.15
283.15
283.15
287.3
303.15
303.15
288.512
283.15
292.655
303.15
303.151
303.15
303.15
283.15
283.15
302.203
283.15
303.15
303.15
303.15
303.15
303.15
283.413
283.15
291.905
303.15
303.15
291.408
303.15
303.15
303.15
303.15
303.15
283.15
303.15
303.15
283.15
283.15
303.15
283.15
303.15
283.15
283.15
283.15
290.782
287.739
283.15
283.15
303.15
303.15
303.15
283.15
283.15
283.15
303.15
283.15
303.15
303.15
292.898
303.15
283.15
303.15
283.15
284.435
303.15
283.15
303.15
303.15
303.15
285.519
303.15
283.15
303.15
303.15
283.15
283.15
283.15
303.15
303.15
284.94
283.15
297.112
303.15
303.15
303.15
283.15
292.571
303.15
283.15
303.15
283.15
303.15
283.15
297
303.15
303.15
283.15
303.15
303.15
283.15
303.15
283.15
295.547
303.15
283.15
303.15
303.15
303.15
303.15
303.15
303.15
283.15
283.15
283.15
283.15
303.15
303.15
296.201
283.15
303.15
283.15
303.15
283.15
283.15
303.15
303.15
303.15
283.15
303.15
298.324
303.15
283.43
283.15
285.734
303.15
303.15
283.577
283.15
303.15
283.15
283.153
303.15
303.15
283.698
283.902
283.15
283.15
283.15
285.806
283.15
283.76
303.15
298.539
283.15
283.15
303.15
303.15
303.15
283.15
303.15
303.15
303.15
303.128
283.173
283.15
283.336
303.15
299.174
283.15
303.134
283.15
283.15
283.921
303.15
303.15
283.15
283.15
283.187
303.15
283.15
283.15
303.15
297.804
303.15
295.64
303.15
283.15
303.15
283.15
283.15
283.15
283.236
283.15
283.391
303.15
303.15
283.15
283.15
303.15
303.15
303.15
303.15
283.179
285.189
283.15
303.15
283.152
283.15
283.15
303.155
283.15
283.643
283.15
283.15
283.595
283.15
283.151
303.15
303.15
303.15
303.15
283.15
283.15
283.15
303.15
283.15
283.15
303.15
283.15
297.416
283.15
303.15
283.15
303.15
303.15
283.522
283.15
303.15
283.15
303.148
303.15
303.15
303.15
283.15
283.15
303.15
303.147
283.15
303.15
303.15
303.15
294.963
283.15
283.189
303.15
303.15
303.15
303.15
303.15
303.149
303.146
283.15
303.15
283.15
303.15
303.149
303.15
303.147
303.148
283.15
283.15
283.15
303.15
303.15
283.15
303.149
283.15
284.38
283.15
301.6
283.15
303.154
303.15
283.167
283.15
283.173
297.91
303.15
283.174
303.165
303.15
297.885
283.15
303.15
303.15
303.15
303.15
283.15
303.15
303.15
299.154
283.15
303.15
303.15
303.15
303.15
283.15
291.349
303.163
283.167
303.15
283.268
283.283
303.15
283.15
283.15
303.15
303.15
303.15
283.15
283.15
283.415
303.15
303.15
303.186
303.151
283.15
283.453
303.15
283.15
303.15
288.557
303.15
283.15
293.507
283.15
283.15
283.15
303.15
292.314
303.15
303.15
303.15
283.15
283.858
293.916
295.8
283.493
302.121
302.298
283.15
283.15
301.124
283.479
283.15
303.149
303.15
303.15
283.15
294.961
303.15
283.15
302.333
303.15
303.15
283.532
303.15
303.15
288.849
290.384
303.15
283.15
303.15
283.15
303.15
303.15
303.15
303.15
283.69
303.15
303.15
303.15
302.545
303.15
303.15
283.15
283.15
283.15
283.15
302.456
283.15
283.15
283.15
303.15
284.207
284.195
303.15
283.15
303.15
283.15
303.15
283.15
283.15
303.15
303.15
303.15
283.15
303.15
303.15
303.15
283.15
303.15
283.15
286.294
303.15
303.15
291.853
303.15
283.15
283.15
283.15
303.15
303.148
283.15
303.204
283.15
283.15
283.15
283.15
283.15
283.15
303.051
303.158
283.15
302.822
303.151
303.151
283.15
283.15
283.165
283.454
285.793
283.174
283.16
283.15
283.15
283.21
283.213
283.15
283.204
283.15
283.15
283.154
302.783
283.164
283.15
283.154
283.15
283.15
283.159
303.15
283.15
283.15
283.408
283.396
283.15
283.158
283.15
303.15
301.273
303.15
283.15
283.21
283.462
283.15
303.15
283.15
283.153
283.15
283.144
303.168
283.15
283.17
301.973
283.242
303.15
303.21
301.063
294.625
283.15
289.713
303.026
287.517
283.15
283.15
283.15
283.18
283.15
283.177
303.15
283.163
303.15
303.15
283.155
283.157
283.15
303.15
284.98
292.398
283.15
301.903
303.15
284.051
283.15
284.517
303.15
283.15
303.15
283.15
285.325
300.482
302.798
303.15
303.15
302.276
283.17
283.152
303.15
283.15
283.154
288.294
283.15
283.15
283.15
303.15
283.15
283.15
283.208
283.15
302.566
303.108
303.15
292.791
283.15
283.147
293.608
295.581
283.15
283.157
291.72
283.15
283.467
303.133
283.55
283.15
283.151
296.948
283.15
294.584
283.15
283.156
290.098
283.15
303.15
295.174
295.194
302.619
283.15
302.82
283.15
294.328
283.15
303.15
283.406
283.15
294.803
288.628
283.15
283.15
283.231
287.158
296.284
303.15
303.15
295.069
283.15
292.749
283.39
303.15
283.15
287.055
283.15
303.15
283.15
283.15
284.459
301.668
283.15
283.15
283.15
301.283
303.15
303.15
283.695
301.903
283.323
283.15
303.15
302.368
283.879
303.15
283.15
283.243
283.15
283.258
298.958
286.232
283.15
283.15
283.15
288.371
283.15
283.261
283.151
303.15
303.027
303.15
303.15
283.15
286.478
283.15
283.052
283.15
303.15
283.15
285.183
284.089
283.15
283.15
303.15
283.15
283.15
283.15
283.15
283.224
283.15
303.15
303.15
283.15
283.15
283.263
283.15
283.15
283.15
284.11
303.15
283.15
284.706
283.15
303.15
283.309
283.15
284.952
283.28
283.15
303.022
303.15
283.15
283.15
283.15
303.15
283.15
283.15
283.15
283.15
283.15
283.15
283.15
283.15
283.15
283.15
303.15
303.15
283.15
283.15
283.15
283.151
283.15
283.15
283.222
283.15
283.15
283.15
283.15
283.04
303.15
303.15
283.152
283.15
283.15
283.145
283.15
283.94
283.15
283.15
283.151
303.077
283.15
283.15
283.15
283.15
303.1
283.15
303.15
283.15
302.531
283.15
283.15
283.15
283.602
300.473
283.147
283.15
283.15
283.15
283.15
283.157
290.675
285.261
303.15
283.15
283.15
283.15
283.206
283.15
284.495
283.15
283.15
283.15
283.15
283.15
283.15
283.15
283.185
283.46
299.984
290.709
283.15
303.277
292.36
283.15
283.15
283.15
303.15
283.15
283.15
283.15
283.15
283.15
283.184
283.155
283.15
283.15
301.633
283.158
283.15
283.15
283.15
286.292
283.15
290.056
283.15
283.436
283.155
283.15
303.15
283.201
283.15
303.15
283.157
283.159
303.011
303.15
283.15
283.15
303.152
283.185
283.15
283.15
283.15
286.07
297.843
303.141
283.15
303.161
303.15
283.15
303.161
283.15
283.15
283.15
283.15
283.159
283.15
283.15
283.15
283.15
283.15
283.15
283.15
283.15
283.15
283.15
283.15
285.015
283.177
283.15
285.91
283.149
283.145
283.15
283.078
283.15
283.15
283.15
283.15
289.822
283.15
283.122
283.15
283.15
283.15
292.058
283.15
283.15
283.15
294.982
283.15
283.296
283.15
303.15
283.15
284.526
283.15
283.15
283.15
285.174
303.15
303.15
301.85
283.15
303.022
283.15
283.15
285.157
303.143
283.353
285.441
303.15
283.15
283.15
283.15
283.15
283.15
283.144
283.15
283.15
284.506
297.234
303.15
285.63
283.15
285.862
303.15
303.15
283.15
283.425
303.15
293.517
283.15
283.165
283.15
283.15
283.15
303.15
302.972
283.15
285.064
283.15
283.15
292.306
286.832
283.167
283.15
282.903
283.15
303.151
283.15
303.139
303.15
283.516
289.367
283.15
283.15
283.15
283.15
295.871
283.592
283.227
296.703
283.15
283.15
303.162
287.381
283.158
303.112
283.15
283.15
283.15
283.15
283.15
287.78
283.15
303.142
283.398
283.15
292.816
283.15
283.15
283.15
303.141
283.15
283.137
285.268
303.15
283.15
303.166
283.166
283.15
289.635
303.111
302.892
283.15
303.15
283.15
303.164
286.909
283.15
283.15
283.15
302.888
302.891
283.15
283.15
283.15
283.371
286.262
302.78
303.145
287.299
286.888
283.503
283.168
283.15
283.15
303.15
283.15
303.127
303.15
292.6
283.15
283.15
302.9
283.15
283.15
283.182
298.909
291.243
283.15
290.894
302.902
284.503
283.15
303.15
302.81
302.652
284.122
283.358
303.15
283.15
283.15
283.167
283.316
283.15
283.15
283.15
283.15
303.15
283.15
283.385
303.15
283.15
303.15
283.15
283.15
298.958
283.702
283.15
283.15
283.15
298.391
283.15
283.15
283.15
283.15
283.353
303.15
299.333
298.776
283.266
283.15
283.15
283.15
283.851
283.15
283.15
303.15
283.15
283.15
283.15
283.15
283.15
283.15
283.15
283.15
283.15
283.15
303.15
283.15
283.15
283.15
283.151
283.335
283.15
303.117
303.159
292.839
295.203
283.15
283.262
283.15
283.145
303.15
303.17
300.324
283.15
303.529
283.15
303.15
283.15
283.221
283.15
283.15
283.15
283.15
283.15
283.261
293.903
303.061
283.15
303.15
288.83
283.15
283.081
283.147
287.451
298.367
303.149
284.624
283.15
283.15
283.15
303.151
283.15
283.272
283.359
283.15
283.15
283.718
283.094
303.158
303.15
303.15
283.15
283.162
283.15
303.15
303.15
283.15
283.15
283.15
283.282
283.15
303.15
283.15
301.531
303.15
283.15
283.15
283.15
303.15
283.15
283.15
283.15
283.15
303.15
303.15
283.556
283.15
283.15
283.15
303.15
303.15
283.15
283.15
283.294
283.15
303.15
283.15
303.15
303.15
283.15
283.15
283.15
283.15
283.15
283.15
283.15
303.15
283.15
283.223
303.15
283.15
283.15
283.15
303.15
303.15
303.15
283.15
283.15
302.779
283.15
283.15
283.15
283.184
291.493
299.591
303.15
303.15
283.15
303.102
286.65
283.15
303.15
303.148
283.15
283.15
299.474
283.17
303.15
303.15
283.357
303.122
303.15
303.15
283.15
283.15
303.15
303.15
283.189
283.407
283.15
303.15
283.15
283.15
283.15
283.15
283.15
303.15
283.155
303.15
303.15
282.643
283.15
284.805
283.15
303.15
303.135
283.468
293.956
285.073
293.392
283.151
283.15
283.158
283.15
303.15
283.186
283.15
283.15
283.15
284.911
303.15
283.15
283.15
283.15
283.15
283.15
303.15
283.15
283.15
283.15
283.15
283.152
283.15
283.15
283.15
283.15
283.15
283.15
283.15
283.15
283.15
283.15
283.15
283.15
283.158
283.15
303.15
283.15
283.15
303.161
283.15
283.15
283.15
283.15
283.15
283.15
283.15
283.15
283.15
283.15
283.15
302.562
283.15
283.15
286.979
301.946
301.673
283.15
283.15
283.155
293.34
283.15
283.15
302.801
285.528
299.674
283.15
283.153
283.15
283.157
283.164
303.125
289.016
302.342
283.15
283.15
283.156
283.15
283.15
283.152
303.107
283.15
296.765
300.726
302.665
283.15
302.038
303.025
283.16
289.678
283.15
303.149
303.15
283.161
283.189
283.159
301.308
284.264
283.151
283.151
303.138
283.15
283.15
283.15
283.15
302.622
303.129
285.423
302.938
303.173
300.199
303.199
302.976
283.15
283.15
302.968
283.15
303.15
283.15
303.15
283.15
283.182
283.166
283.15
283.15
283.151
303.07
283.15
283.15
303.071
283.15
296.75
303.149
303.101
283.15
283.15
283.15
283.238
283.15
283.184
283.15
283.331
303.14
283.15
283.15
283.15
283.201
283.15
283.341
303.15
283.15
302.936
283.172
283.15
284.828
283.15
283.786
284.829
283.15
283.926
303.053
303.195
283.456
303.15
283.15
283.15
298.028
303.098
303.15
283.15
285.239
303.149
283.15
283.15
303.114
303.161
283.411
287.591
283.154
302.702
290.589
283.15
303.148
283.15
303.16
283.15
283.15
283.15
288.681
289.408
283.151
283.15
287.285
283.15
283.15
287.368
284.261
303.151
292.64
296.191
283.154
287.219
283.15
303.15
283.15
287.631
303.15
283.15
303.168
283.347
303.15
283.176
283.15
286.857
283.152
283.15
283.15
283.215
283.282
283.586
283.15
303.15
283.15
283.155
283.15
283.15
283.15
283.15
283.169
283.15
283.15
283.972
283.15
283.15
283.15
283.15
292.909
284.204
283.15
303.158
283.152
303.146
283.15
294.423
283.152
283.15
283.15
283.15
283.256
283.15
283.15
283.15
286.419
283.156
283.109
288.073
291.747
303.15
283.15
289.108
283.15
297.121
303.15
289.334
284.538
283.15
292.537
303.15
283.53
283.15
283.15
283.15
284.631
303.197
303.149
283.15
283.15
283.176
303.15
292.425
303.15
303.155
295.144
303.436
303.15
283.15
303.15
303.15
292.601
283.15
303.15
283.151
283.15
283.153
303.15
303.15
285.913
283.337
287.723
303.202
303.15
303.148
284.696
283.323
283.15
283.15
286.194
303.15
283.15
303.15
303.15
303.131
285.608
303.15
303.151
283.274
303.151
302.759
283.375
283.152
283.681
286.597
290.061
303.15
283.15
283.15
283.15
283.15
302.307
283.15
283.15
303.15
303.15
283.155
303.175
302.138
283.15
302.502
283.15
283.15
283.15
283.15
283.221
283.15
301.994
283.15
303.15
283.83
283.663
303.125
283.176
303.15
283.15
283.15
283.15
303.15
299.3
299.852
283.205
283.15
289.545
283.15
296.864
303.15
300.886
301.314
303.15
303.15
283.15
286.094
283.15
283.15
303.15
283.15
283.368
303.15
283.15
283.193
283.364
303.15
301.163
283.15
283.151
283.193
299.781
283.15
295.784
283.15
303.124
302.412
287.176
297.49
283.15
283.15
283.15
283.15
303.016
303.151
303.15
303.164
293.37
295.89
285.927
283.15
303.15
283.15
303.15
303.084
283.429
303.15
283.15
283.15
303.15
285.276
303.115
303.15
303.123
303.155
283.218
283.15
283.15
283.152
283.15
303.15
283.15
292.195
287.74
291.999
303.14
303.15
283.15
303.185
283.15
303.185
303.15
303.15
303.141
303.15
284.885
303.15
284.199
303.148
303.15
284.162
303.144
283.15
283.15
303.142
283.15
283.15
283.351
303.14
285.934
283.15
283.15
283.15
303.15
283.197
302.94
283.15
287.508
292.4
285.197
303.15
283.15
283.151
291.305
283.15
283.648
303.15
303.143
303.184
283.15
303.15
283.85
283.15
303.188
303.15
284.81
283.15
283.15
283.15
302.658
283.15
283.15
303.15
283.15
283.15
283.281
283.186
283.15
283.15
284.5
283.15
303.15
286.731
283.15
283.15
283.15
303.15
283.15
283.15
303.15
283.15
283.178
283.15
283.15
303.15
283.15
283.15
283.15
283.15
292.49
283.15
303.15
283.15
283.181
283.15
283.15
283.15
303.15
283.198
303.15
283.15
303.15
302.953
303.15
283.15
303.15
296.671
283.15
290.531
303.15
283.15
283.15
283.15
283.15
283.224
283.15
303.15
283.15
303.15
283.15
283.15
303.15
283.15
283.15
303.15
283.15
303.15
303.15
283.15
283.15
284.023
283.15
283.15
303.15
283.15
283.15
283.15
283.15
283.15
283.15
283.15
283.15
283.15
283.161
283.15
283.15
303.15
303.15
303.15
283.156
283.15
303.15
302.571
283.15
303.15
291.1
303.15
283.15
300.92
303.15
283.15
297.525
283.15
303.15
283.15
283.35
301.882
300.854
283.15
287.628
283.152
283.15
283.15
303.15
283.152
283.15
283.15
283.167
303.15
283.164
283.15
303.15
283.15
283.15
283.15
283.15
303.15
283.15
300.335
283.15
303.15
297.686
303.15
283.15
283.15
303.15
303.15
286.546
302.64
302.026
283.162
303.15
294.004
288.175
297.47
291.79
294.437
283.151
303.15
303.15
303.15
284.083
284.543
289.583
283.15
283.156
283.207
303.15
303.15
283.15
303.15
293.209
303.15
303.15
303.136
284.794
303.078
303
283.636
283.776
303.07
292.268
303.154
283.15
303.15
303.15
283.15
283.195
283.15
303.15
283.15
283.211
303.15
301.714
284.433
283.15
283.15
283.15
283.269
283.15
285.543
283.15
283.15
283.15
303.15
283.221
283.15
283.15
303.157
283.161
303.15
303.15
303.15
303.15
291.129
303.15
283.151
283.15
283.151
283.15
283.15
303.251