/*--------------------------------*- C++ -*----------------------------------*\
  =========                 |
  \\      /  F ield         | OpenFOAM: The Open Source CFD Toolbox
   \\    /   O peration     | Website:  https://openfoam.org
    \\  /    A nd           | Version:  10
     \\/     M anipulation  |
\*---------------------------------------------------------------------------*/
FoamFile
{
    format      ascii;
    class       volVectorField;
    location    "2.8";
    object      U;
}
// * * * * * * * * * * * * * * * * * * * * * * * * * * * * * * * * * * * * * //

dimensions      [0 1 -1 0 0 0 0];

internalField   nonuniform List<vector> 
111485
(
(2.26202 -2.26146 0.00152186)
(6.38716 -0.0107284 -0.0230977)
(6.35286 0.0115575 0.0155325)
(2.26146 -2.26387 -8.26095e-05)
(6.55421 0.0179387 -0.000248286)
(2.28272 2.2813 0.000951358)
(6.46269 0.0106259 0.000872193)
(6.57082 -0.000437847 0.00930442)
(6.49652 -0.00543468 0.00286488)
(6.59805 -0.0437133 -0.015654)
(6.39537 0.00475415 0.0129356)
(6.65529 -0.00242367 0.0225262)
(6.35281 0.000724531 0.0103315)
(6.30989 -0.0124749 -0.0215408)
(6.43007 0.0154007 0.0139898)
(6.48762 -0.00509124 -0.0186616)
(6.40459 0.0130162 0.000259248)
(2.28541 -0.201138 0.37959)
(6.56694 0.00824023 -0.00785231)
(2.2453 -2.2421 -0.00117977)
(2.2465 -2.24578 -0.000778993)
(2.28771 2.28733 0.00167577)
(6.50947 0.00944833 -0.00176342)
(6.55779 -0.0274441 -0.00836057)
(6.49188 0.0411644 -0.0162375)
(2.27746 -2.27115 -0.00361559)
(6.68408 -0.00997654 0.0282285)
(6.42154 0.00479956 -0.0142926)
(6.58825 -0.00174205 -0.0111821)
(2.25456 -2.25593 0.00303652)
(6.70089 0.127424 -0.0360879)
(6.42384 0.00058011 0.000784999)
(2.24368 -2.24743 0.00320914)
(2.28807 2.28871 -0.00432271)
(2.31759 0.930443 0.382091)
(2.29737 2.31499 -0.0380317)
(6.67301 0.123579 -0.0508682)
(6.39187 -0.00184177 0.0451048)
(6.63445 1.99212 0.119405)
(6.54421 0.0214164 0.0100931)
(2.25625 2.27771 -0.027526)
(6.66192 0.00308271 -0.0355135)
(6.5365 0.0264772 0.0113793)
(6.42846 -0.0276409 -0.0141216)
(6.69485 -0.127582 -0.0642878)
(2.2763 -2.2582 0.00666703)
(6.66679 -0.0198051 0.0336714)
(6.54969 -0.0224381 -0.00506304)
(6.6585 -0.0024875 -0.0298503)
(2.25071 -2.22655 0.00873988)
(2.24696 -2.22494 0.0150695)
(2.60695 2.18363 0.0383238)
(2.23226 -2.22269 0.00826159)
(6.67071 0.0216384 -0.0512831)
(2.22678 -2.21809 0.00358891)
(6.50795 0.00249903 -0.00524906)
(6.52936 -0.015811 -0.000520522)
(2.28492 2.28525 0.00277927)
(6.029 -0.0187542 -0.0937241)
(6.56398 0.0184934 -0.000194938)
(6.56392 0.0196907 0.000973537)
(2.25467 -2.25965 0.00256136)
(6.16003 0.00825662 0.0252972)
(6.71796 0.00236073 0.0429728)
(2.36085 2.13628 0.00484889)
(6.27975 0.000476838 0.000486229)
(4.69941 -0.433785 0.140887)
(6.57142 -0.00154091 0.00727879)
(6.14242 0.00170448 0.0144196)
(6.0649 -0.00539874 -0.00905794)
(6.45306 0.0581024 -0.0541964)
(6.15326 -0.00231254 0.00788634)
(2.43108 -2.19682 -0.0469383)
(6.13529 0.0094532 0.0263336)
(2.25646 -2.25863 -0.000975987)
(6.48154 0.00254301 0.00214189)
(2.28672 2.28567 -0.00276394)
(6.65909 -0.0117253 0.0253568)
(2.28477 2.28679 0.000805888)
(2.05498 1.99254 -0.0702972)
(6.45621 -0.0978399 0.0654059)
(6.62358 0.0300317 0.00971164)
(2.27783 2.27627 -0.00139024)
(2.25907 -2.25938 0.000546907)
(6.33225 -0.00449647 0.00692318)
(6.1959 0.00776013 -0.00558897)
(5.15256 3.33197 -0.898094)
(6.58264 0.0595405 0.00428121)
(6.35845 0.162864 0.137537)
(6.39177 0.000170588 0.00674883)
(6.8061 0.104886 -0.0817103)
(6.57459 -0.00338423 0.00641229)
(6.28863 -0.00533284 0.00609034)
(6.38295 0.00546731 0.00053286)
(6.67028 0.00808003 -0.0305123)
(2.25868 -2.25832 -0.000156007)
(2.25079 -2.25305 0.00224441)
(6.58092 0.0599986 0.018496)
(6.84604 -1.36968 0.0870285)
(6.26648 0.0120425 0.0427305)
(2.25944 -2.25931 0.00424353)
(6.58977 -0.0221319 0.00275786)
(2.29702 2.30318 0.0118331)
(6.55786 -0.00664409 -0.000128051)
(6.42704 -0.0102896 -0.0204863)
(2.24419 1.99276 -0.048915)
(2.28785 2.28634 -0.000848412)
(6.42141 -0.00292473 -0.00127892)
(6.27467 -0.0202577 -0.00152559)
(5.89558 -0.169638 -0.17335)
(6.44095 0.00390079 0.00110646)
(6.49279 0.00321972 0.000872882)
(6.22338 -0.00896811 0.0124679)
(6.17517 -0.0232206 0.00192113)
(2.2794 -2.26956 0.00203225)
(6.29041 0.00436634 -0.00325167)
(2.26851 -2.26145 -0.00255728)
(2.29658 2.28703 0.0100476)
(6.41727 0.0121789 0.0131704)
(2.26255 -2.26295 -0.000370191)
(2.27781 -2.26929 -0.00318214)
(3.02718 2.36844 0.1454)
(2.25847 2.27121 -0.00451286)
(2.29136 2.28552 -0.00577494)
(6.35046 -0.0190702 0.0305721)
(1.82002 -1.30871 -0.321442)
(2.88559 2.47249 0.0922759)
(6.33401 -0.00164247 0.00107017)
(2.26083 -2.25851 -0.00281865)
(6.66518 0.459675 -0.187844)
(6.64861 0.140366 -0.08051)
(6.56707 0.0614067 0.0178773)
(2.24729 -2.23828 -0.00972819)
(2.96068 2.56799 0.27321)
(2.75819 2.45963 0.121129)
(6.57169 0.00863812 -0.00909481)
(2.29023 2.28927 -0.00145789)
(6.44523 0.00400165 -4.13194e-05)
(6.47838 0.0167103 0.012301)
(6.3952 0.0138286 0.0173848)
(5.35931 -0.00296827 0.0092471)
(6.51728 0.0220821 0.00425247)
(6.47085 0.0196367 0.016002)
(6.3073 0.00189093 -0.00943874)
(6.55007 0.000650798 -0.0041774)
(6.41042 -0.0126186 -0.00247798)
(2.2887 2.29073 -0.000879314)
(2.25914 -2.26144 0.00158661)
(2.28207 2.28405 0.0048437)
(6.53742 0.02281 0.00510775)
(6.3192 0.00574884 -0.00832708)
(2.24864 -2.24884 -0.000181715)
(4.43877 -0.0121209 0.0387443)
(6.42607 0.0155103 0.0197408)
(7.069 0.267256 0.1312)
(6.57011 0.0104424 -0.00719618)
(6.54033 0.00992652 -0.000574749)
(6.27506 0.0112616 -0.0157313)
(7.11974 0.334252 0.0896865)
(2.24749 -2.26765 0.0097918)
(2.25743 -2.26151 0.00113751)
(6.56795 0.00771082 -0.00931839)
(6.46064 -0.0115263 -0.0110351)
(7.16612 0.382236 0.0985372)
(7.06429 0.335011 0.135697)
(6.3133 0.000561939 0.00861708)
(6.62657 0.0623348 -0.0211841)
(2.25696 2.27677 0.000621473)
(7.25509 0.470671 0.117573)
(6.91328 0.328881 0.117847)
(2.28587 2.28446 0.00322229)
(2.25466 -2.25452 0.00127199)
(5.66504 0.0129056 -0.0244448)
(2.28866 2.28957 0.00137791)
(6.44007 -0.000935883 -0.00204985)
(6.44779 0.00210579 -0.000984658)
(2.28612 2.23079 -0.0156257)
(2.43409 -2.24037 0.0219315)
(2.25174 -2.24117 -0.00479198)
(2.25449 2.1197 -0.0234201)
(2.44922 -2.26354 0.0399202)
(2.25415 -2.26045 0.00242605)
(6.52989 0.00812036 -0.0004957)
(6.55423 0.00449705 -0.00758714)
(6.52902 0.0136047 -0.00319284)
(6.35423 -0.0433527 0.0235191)
(6.29353 -0.0156315 0.0038031)
(6.3479 0.00541369 0.00643311)
(5.72121 0.0536128 0.00659428)
(2.25556 -2.24699 0.000411856)
(6.29 0.000491084 -0.00641421)
(2.43175 -2.26063 0.024495)
(2.27505 -2.27751 0.000934123)
(6.36082 0.00603776 0.00889147)
(6.60342 -0.0528214 -0.015488)
(6.58863 0.00251533 -0.0305569)
(6.41385 0.00658027 -0.00877024)
(6.44599 0.00233648 0.00182094)
(2.25438 -2.24953 0.00795572)
(6.41888 -0.0106149 0.00657786)
(6.31802 -0.0042816 -0.0167966)
(4.40544 1.37661 0.196602)
(6.46773 -0.0488855 -0.00243027)
(6.45066 0.00441832 -0.00123936)
(2.26494 -2.25587 -0.00529584)
(6.35077 0.00867331 0.00490846)
(6.61265 0.0128243 -0.00148865)
(2.46495 -2.23604 0.00801284)
(6.38526 0.00533952 0.0292964)
(6.66484 -0.00256264 0.0198083)
(6.30683 0.00195275 -0.00933713)
(6.32952 0.00756008 0.00746452)
(2.44754 -2.27094 0.0310763)
(2.25097 -2.25258 -0.00219679)
(6.32516 0.00369156 0.0129293)
(4.10933 2.56356 -0.247773)
(6.7274 0.0154658 -0.0578256)
(2.2863 2.28639 -0.00190523)
(6.34826 0.000309656 0.0155012)
(6.40665 0.00179718 0.00235337)
(6.678 -0.00575414 0.0353262)
(2.26179 -2.25874 0.0031971)
(6.2757 0.000586792 -0.00554721)
(6.62099 0.0945504 0.0492876)
(3.62242 2.41445 -0.261574)
(2.28868 2.28745 -0.000746073)
(2.28542 2.2857 0.00249317)
(6.78034 -0.0177964 0.0691082)
(6.35413 0.140864 -0.00921886)
(2.40488 2.02218 -0.0488823)
(2.79082 -2.17291 0.084395)
(6.40992 0.00256713 0.00338523)
(6.44325 0.000790332 0.00104918)
(6.51236 0.00839412 0.00942499)
(2.37024 2.05076 -0.057205)
(2.37224 -2.19795 -0.00999727)
(6.4053 0.0856212 -0.101536)
(2.25767 -2.25838 0.00253014)
(6.19883 -0.000925832 -0.0196403)
(6.38305 0.00448298 0.00742977)
(6.40245 0.00377708 0.00471124)
(6.39517 0.00600406 0.00596869)
(6.39797 0.00182035 0.00665005)
(2.27878 2.28019 0.00959897)
(4.91382 -0.00940956 -0.166299)
(6.38583 0.0103874 0.00683808)
(2.27531 2.282 -0.00656444)
(2.28651 2.29111 -0.000330762)
(6.70579 -0.057647 -0.00315545)
(6.48599 0.0247479 -0.0025875)
(2.33976 1.98784 -0.0649059)
(6.41212 -0.000129803 -0.000397553)
(6.40059 0.00475366 0.00625227)
(2.26036 -2.26009 -0.00112884)
(2.90386 2.73864 -0.0161649)
(6.61076 0.0756939 -0.0328647)
(2.26884 -2.24278 -0.00128447)
(2.49909 -1.8018 -0.0492705)
(3.40778 -1.21476 -0.114431)
(2.26431 -2.25838 -0.00194707)
(6.43929 -0.00270107 -0.00196165)
(6.37761 -0.0153352 -0.00219168)
(6.41756 -0.000561838 -0.011599)
(2.25769 -2.25758 -0.00140993)
(6.40107 6.25679e-05 0.00104407)
(2.26373 -2.26394 -0.00230481)
(2.26089 -2.26355 0.00167268)
(2.25435 -2.24614 0.00397199)
(4.63976 0.0212251 -0.0545882)
(6.65713 -0.0117167 0.0247945)
(6.32559 0.0173892 0.0157954)
(6.42507 0.0132286 0.0113818)
(6.63613 -0.0175953 -6.98466e-05)
(6.41793 0.0102524 0.010474)
(6.50162 0.0149125 0.00834455)
(6.66386 0.115427 0.00119282)
(6.44298 0.000740071 -0.00360897)
(6.43654 -0.00238858 0.00196375)
(2.3285 2.29021 -0.00150815)
(2.24966 -2.25367 -0.00167494)
(4.23356 0.0206757 -0.0885552)
(6.45332 -0.000523603 0.00140244)
(6.61913 0.0475085 0.0556256)
(6.43385 0.000530946 -0.00234309)
(2.26119 -2.26156 0.00362333)
(6.46733 0.0134501 0.00579609)
(6.51046 0.0251737 0.0108584)
(6.43283 0.00497937 0.00885744)
(5.92895 0.00710958 -0.0391682)
(5.99177 -0.0595584 -0.129438)
(6.48892 0.0110785 0.00298706)
(6.42117 0.00803605 0.0105296)
(6.57866 0.0610146 -0.0397134)
(2.28537 2.28867 0.00563096)
(6.18448 0.0211099 0.0024192)
(2.28691 2.28667 0.000274509)
(1.84026 1.36917 -0.310476)
(2.53516 -1.65491 -0.160262)
(6.83171 -0.0382034 0.100681)
(6.63832 -0.0191352 -0.000801171)
(6.48204 -0.00678002 0.00333103)
(2.25988 -2.25709 -0.00178984)
(2.27755 2.28969 0.0167452)
(6.44612 0.00896768 0.0062909)
(6.40199 -0.00109293 0.000570469)
(2.25227 -2.25092 -0.00105804)
(2.26055 -2.25914 0.00464158)
(2.21226 -2.22442 0.0129304)
(6.35769 -0.0055178 0.00622666)
(6.43255 -0.00666064 -0.00299155)
(6.29868 0.00206934 0.0124427)
(6.24217 0.00898494 -0.0120757)
(6.58834 0.0141581 -0.00936563)
(2.62631 2.24957 0.059587)
(2.28276 2.28769 0.00368816)
(2.25905 -2.25602 -2.06281e-05)
(6.43581 0.0116101 0.0137904)
(4.28286 -3.63719 -0.260894)
(6.30676 -0.00700139 0.0110871)
(6.7867 -0.0272738 0.145988)
(5.53202 0.00830211 -0.0928419)
(2.28593 2.29197 0.000642711)
(2.25943 -2.2602 0.00153234)
(2.25918 -2.26041 -0.000918058)
(2.89657 2.41983 0.154949)
(6.49404 0.00676773 0.0017049)
(6.59857 -0.0208362 0.00991987)
(2.29065 2.29712 0.000720639)
(6.49315 0.00510814 -0.0035452)
(2.42087 1.9436 0.142462)
(2.26285 -2.23131 0.00109662)
(6.72896 -0.00607219 0.0439424)
(6.46545 0.00712255 0.00726928)
(6.64131 0.00274808 0.0164191)
(6.48982 0.00614927 -0.00598363)
(2.2005 1.94112 0.123805)
(2.87075 2.459 0.166757)
(2.28285 2.28416 -0.00449025)
(6.47762 0.00913531 0.00825064)
(6.42874 0.00588559 0.00232281)
(6.68576 0.135694 -0.0501403)
(2.2617 2.25199 0.00359921)
(4.56972 4.04215 -0.975199)
(6.30321 0.052329 0.0615497)
(6.61049 -0.012807 0.0120007)
(6.44541 0.015087 0.00740675)
(6.25114 0.613461 -0.0505232)
(6.59171 0.00717674 -0.0128643)
(2.28072 2.27743 0.00283236)
(6.58783 0.0104051 -0.00648509)
(6.39577 0.00561175 0.007901)
(6.73279 -0.13687 0.00474042)
(6.74746 -0.024166 0.0755624)
(6.45168 -0.0336254 -0.0302063)
(2.27566 2.28789 -0.0077373)
(2.25221 -2.25524 -0.00147173)
(2.2916 2.27515 0.00983449)
(2.24279 -2.24716 -0.00127725)
(6.56121 -0.0118631 0.00388801)
(6.47313 0.00791288 -0.00119472)
(6.59693 0.0120191 -0.0184194)
(6.59562 0.00557113 -0.0136929)
(2.26721 2.26638 -0.000624537)
(6.52513 -0.0283255 -0.0101369)
(2.2848 2.28556 0.00449152)
(2.25246 -2.25823 -0.000985051)
(6.58742 0.0108935 -0.0108928)
(2.08573 -2.0854 0.0287092)
(3.69681 -0.745187 -0.0546106)
(2.23215 -2.2238 -0.000350034)
(2.30444 2.27604 0.0186111)
(6.55885 0.00207014 -0.00574977)
(2.28555 2.28304 0.000982506)
(6.42238 0.00458446 -0.000856589)
(6.26889 0.00740062 -0.0135308)
(2.29207 2.29257 -0.000474095)
(6.13004 -2.19267e-05 -0.0115372)
(6.45148 0.0055088 0.00200698)
(2.30302 2.01268 -0.0755436)
(6.38787 0.0159207 0.0273783)
(6.27944 0.00843186 0.0131641)
(6.42972 0.0102775 0.00859028)
(6.06402 0.0185768 0.07052)
(6.39901 0.00396721 0.00669937)
(6.43264 0.000882736 0.00763188)
(2.2588 1.92163 -0.00610172)
(2.25259 -2.24535 0.0112932)
(5.64942 0.00763966 0.11492)
(2.2707 2.27595 -0.012291)
(6.44628 0.0194994 0.025604)
(6.73738 -0.0174302 0.0573751)
(2.29824 2.19233 0.0176183)
(2.27996 2.28985 -0.00317164)
(6.51295 0.00287943 0.00258216)
(6.35859 -0.0175777 -0.0416307)
(6.39306 0.0145206 -0.00963488)
(6.59315 0.0297667 -0.00936595)
(2.28753 2.28566 0.00180335)
(6.77323 0.00232445 0.100656)
(6.64261 -0.0051477 0.0218892)
(2.29538 2.29084 -0.0014543)
(6.51278 0.0984378 0.0819158)
(6.23954 -0.0138741 -0.0447214)
(2.25691 -2.25358 -0.000944722)
(2.25229 -2.24875 -0.00302149)
(6.39606 0.00734923 -0.000174417)
(6.50978 -0.00300703 -0.00536179)
(2.29433 2.295 -0.00388017)
(2.25575 -2.25474 -0.00494772)
(3.93446 -2.14507 0.483193)
(2.26093 -2.26181 0.000830791)
(6.54107 0.00411115 0.00081372)
(2.27192 2.27808 0.00319369)
(2.25995 -2.26274 0.000572033)
(6.64171 0.00474177 0.0173765)
(6.0863 -0.0604892 -0.157556)
(6.59664 -0.0336663 0.0037009)
(6.41452 -0.0112424 0.00576901)
(2.2938 2.29098 0.00140028)
(2.97695 2.28461 0.117621)
(6.39633 0.0743971 0.122878)
(2.78884 2.45416 0.136919)
(6.38462 0.0208234 0.0415304)
(6.36954 -0.0493236 0.00103115)
(6.61081 -0.0291569 -0.0158403)
(4.62595 0.132411 0.184278)
(2.74432 2.35555 0.125272)
(6.45075 -0.00726556 -0.0650013)
(6.74034 0.213729 -0.0559691)
(2.25879 -2.26085 0.00287491)
(6.67789 0.00857374 -0.057718)
(6.64334 -0.0143294 0.0204787)
(2.26181 -2.26007 0.00348905)
(6.47523 0.350094 -0.185583)
(5.77071 0.00102207 -0.0585427)
(2.89529 2.26685 0.0967174)
(6.63235 -0.00527471 0.0189866)
(6.57688 -0.00234014 -0.00407243)
(6.3943 0.00308674 -0.00529716)
(2.28954 2.28247 6.48961e-05)
(6.36556 -0.0190648 0.0498487)
(6.66004 0.0102961 0.0130126)
(6.34202 0.0378271 -0.0131166)
(4.15428 -0.0596361 0.0542962)
(2.79549 2.62903 -0.0519657)
(3.88379 -0.098862 0.124241)
(2.2585 -2.26149 0.00343821)
(6.04287 -0.194592 -0.172538)
(6.35579 -0.0197133 -0.0563311)
(2.28838 2.28523 0.00393751)
(6.25684 0.0114878 -0.0308594)
(5.26796 -0.00845227 0.0791623)
(2.98317 2.63172 -0.0241587)
(2.25819 -2.25734 -0.00047971)
(2.63756 -2.2498 0.0721936)
(2.26122 -2.26063 0.00056391)
(6.45824 0.054441 -0.0144101)
(6.39092 0.0194921 -0.00674628)
(6.47946 -0.00956731 -0.00624578)
(6.18067 0.00250571 -0.0117471)
(6.62393 -0.108021 -0.0194404)
(2.28587 2.27527 -0.00251639)
(6.448 -0.000251134 -0.0022192)
(2.26697 -2.24664 0.000151444)
(6.36826 0.0114892 0.0121494)
(2.29378 2.29329 0.0011401)
(2.25883 -2.25833 0.000129058)
(2.23271 -2.23819 -0.00438071)
(6.37077 -0.0226633 0.00602612)
(2.24871 -2.25638 -0.000515101)
(2.26103 -2.26186 0.00204373)
(2.25823 1.46737 -0.0981251)
(2.26297 -2.26282 0.00153884)
(2.25951 2.29103 0.0204711)
(6.43641 -0.0324526 -0.0158305)
(2.28531 2.28279 -0.000997799)
(2.71915 1.99425 -0.00070439)
(2.28963 2.28772 0.00266751)
(2.25112 -2.24404 -0.000313968)
(2.28738 2.27624 -0.00585686)
(2.25134 -2.23838 -0.0105633)
(2.27252 2.27562 -0.000762946)
(6.00283 -0.00737238 -0.0205657)
(2.29214 2.2795 0.00899387)
(6.03493 0.0730966 0.115847)
(6.55845 0.0231895 -0.0108439)
(6.76716 -0.25123 -0.039951)
(2.2877 2.28192 0.000356319)
(5.75064 0.0111794 0.0830718)
(2.29197 2.28335 0.001447)
(2.26214 -2.26065 -0.000327793)
(6.40345 -0.0412379 -0.0483822)
(6.42906 -0.0378437 -0.0482748)
(6.47668 -0.00722705 -0.00854164)
(6.79462 -0.00466709 -0.106626)
(2.64342 2.2117 -0.0675693)
(6.61813 -0.00550151 -0.0283301)
(6.61556 -0.00577694 -0.0264138)
(6.41384 -0.0021852 0.00157069)
(6.41291 -0.0015291 -0.00114853)
(6.50051 -0.0464425 -0.0291013)
(2.25205 -2.25313 -0.000498581)
(6.41273 -0.0040495 0.00371507)
(3.01602 2.62245 -0.0190895)
(6.53788 0.00613989 -0.00921494)
(2.28218 2.28053 -0.00325182)
(6.64009 -0.00166418 -0.0255792)
(2.9747 2.46338 0.0234641)
(6.43228 -0.00714033 -0.00577398)
(6.59092 -0.0200114 0.0158113)
(2.59786 -1.35125 -0.0134989)
(2.28583 2.28786 0.0242612)
(6.41267 0.00171564 0.0174228)
(2.25797 -2.25782 -0.000903993)
(6.66588 0.0152188 -0.0396469)
(6.61951 0.0152762 -0.0235111)
(2.28363 2.27871 -0.0192253)
(2.27796 2.28048 0.00401991)
(2.2386 1.98816 -0.0551577)
(2.28511 2.28846 -0.000406669)
(4.6561 -0.251732 0.126624)
(6.66865 0.0132063 -0.0327131)
(2.32126 2.26552 -0.00129074)
(2.28259 2.28405 0.00133851)
(5.98837 0.00342471 0.00111066)
(2.28781 2.29038 -0.00233092)
(6.57342 0.0101464 -0.0187553)
(2.2863 2.28828 0.00332635)
(6.5146 -0.0224128 -0.0186894)
(2.26146 -2.26092 0.00108473)
(6.12531 -0.0272319 -0.063907)
(5.38286 -0.0155227 -0.012565)
(6.34178 -0.000946298 -0.000986811)
(6.43039 -0.0038392 -0.00835872)
(2.29759 2.27481 -0.00406615)
(6.40657 0.00852385 -0.0186101)
(2.29314 2.28483 0.00223026)
(2.29087 2.28812 -0.00767729)
(6.48839 -0.00391936 0.00668158)
(2.28513 2.28278 -0.00178468)
(5.69158 -0.000745531 -0.0393218)
(2.20725 2.02934 -0.0633271)
(6.58238 0.00841371 -0.0172907)
(2.25245 -2.2509 0.000769151)
(6.63699 0.00576329 -0.0117908)
(2.26391 -2.25977 -0.00181097)
(2.74201 2.40703 0.0767173)
(6.75524 0.257355 -0.0192982)
(6.4289 -0.0428382 -0.0452581)
(6.55181 0.0141382 -0.000422128)
(6.56454 -0.0482196 -0.0335775)
(6.52896 0.00029628 -0.00696195)
(6.62849 -0.0213462 -0.00406849)
(2.27057 2.29103 -0.0118126)
(6.54422 0.0292679 0.0243775)
(6.4528 -0.0481018 -0.0400245)
(2.28881 2.28837 -0.00218623)
(5.57841 -0.0817247 -0.176241)
(6.71741 -0.0616628 -0.0339562)
(6.43702 0.0145894 0.0208938)
(2.25756 2.2276 -0.0122831)
(2.83481 0.522176 -0.463585)
(6.32797 0.0122733 0.0157488)
(5.35805 -0.0224307 0.0405438)
(5.35478 1.36301 -0.00641485)
(2.90977 -1.51651 -0.115804)
(6.62616 -0.0509514 -0.0105101)
(6.25356 0.0119125 0.0334581)
(6.41313 -0.0447452 -0.0480497)
(6.55786 -0.0211504 -0.0133684)
(6.35225 0.0207536 0.019823)
(5.76312 0.737178 -0.0201778)
(2.84529 2.40066 0.0239752)
(5.87479 -0.223539 0.0467482)
(5.68768 -0.503853 0.106768)
(2.25671 -2.25858 0.000412671)
(5.95422 0.0280241 -0.0073951)
(2.29763 2.25708 -0.0137612)
(2.68626 2.44526 0.0228103)
(6.45924 0.00161685 0.00237882)
(5.80354 0.948899 -0.0038213)
(7.00887 -0.605538 -0.117351)
(6.33485 -1.10609 0.00991065)
(2.68671 2.55285 -0.196365)
(6.5956 -0.0222879 -0.00890776)
(6.50534 0.0282737 0.025921)
(2.2841 2.27524 -0.00219684)
(2.96591 1.62186 -0.0670433)
(6.50414 0.0380065 0.0262228)
(2.26197 -2.25401 0.00171737)
(2.28464 2.28255 -0.000983894)
(2.27933 2.27871 0.000285573)
(2.29006 2.27421 0.00211819)
(6.59289 -0.0498046 -0.0163253)
(2.28627 2.28552 0.00086098)
(2.26704 -2.26605 0.0107472)
(6.48899 -0.0240794 -0.0216823)
(6.3203 0.000667163 0.00208376)
(3.29916 -2.8967 -0.159517)
(6.50031 0.0367045 0.0272847)
(2.67584 2.14476 0.0544535)
(6.43857 -0.00641539 -0.00504935)
(2.21414 -2.2162 -0.00997077)
(2.28152 2.28571 -0.00177429)
(6.58947 -0.0256689 -0.0102908)
(2.28734 2.2739 -0.00484686)
(2.28644 2.28103 0.000916892)
(2.62882 2.51413 0.0697229)
(6.38006 -0.0108034 0.00501208)
(3.80007 3.17632 -0.422759)
(6.50916 -0.0138908 -0.00633538)
(6.46149 -0.000413227 -1.25975e-05)
(2.23866 -2.2234 -0.0165333)
(6.80836 -0.000814801 0.21242)
(6.1902 -0.0256733 -0.0702996)
(6.4917 -0.00444468 -0.00471586)
(6.58638 0.113683 0.014772)
(6.6325 0.0533209 -0.149916)
(5.88689 -0.00445627 -0.0321025)
(2.28297 2.28196 0.0024937)
(6.6201 -0.000502044 0.0191214)
(6.54477 0.0173133 -0.0066078)
(2.23777 -2.26605 0.00263527)
(6.31855 0.00883876 -0.0159803)
(6.62472 0.0412247 -0.00639583)
(6.59564 0.020514 -0.00529819)
(6.36967 -0.0275416 -0.039595)
(6.59894 0.0223363 -0.00711736)
(6.59554 0.028156 -0.00189833)
(2.26087 -2.23192 0.0144004)
(6.64548 0.00322203 0.0244838)
(5.64772 -0.0350794 -0.0215741)
(2.76892 2.39681 0.154358)
(6.59772 0.0140265 -0.0136962)
(6.37519 0.00448608 -0.00573281)
(3.70675 3.00675 -0.457782)
(6.46114 -0.000342671 0.00123507)
(6.60938 0.00328081 -0.020374)
(6.37808 0.00260744 -0.0118747)
(6.55842 0.0260659 0.00336062)
(6.47589 0.0559471 0.0267352)
(6.46015 0.000611034 -0.00090039)
(2.23563 2.18374 0.00277272)
(6.5559 0.0280383 0.00473433)
(6.1913 -0.0342966 -0.0621669)
(2.52201 -1.54003 0.0472013)
(6.52716 0.0514752 0.0313432)
(6.45352 0.0476965 0.0498478)
(6.44849 0.00775169 0.00470271)
(2.28305 2.2768 0.00179761)
(6.36594 0.0306892 -0.05431)
(2.26161 -2.24921 0.00765971)
(2.28572 2.28392 -0.00177684)
(2.27366 2.25909 -0.000234898)
(2.29285 2.28031 0.00294103)
(5.82832 0.00109706 -0.0092823)
(2.74149 2.34956 0.10427)
(4.98762 -0.355544 0.398038)
(2.24346 -2.24814 -0.00146384)
(2.2796 2.31504 -0.00499703)
(6.53413 0.0548937 0.0345194)
(6.57838 0.00587647 -0.0266408)
(2.2593 -2.26056 0.00120459)
(6.59727 -0.0298341 -0.000470459)
(2.26018 -2.25737 0.00798565)
(2.26067 -2.25965 -0.000253196)
(2.22091 -2.2244 0.00690759)
(6.67073 -0.0339985 -0.00297511)
(5.81211 0.0283667 -0.0040097)
(2.72157 2.42911 0.0350592)
(2.28126 -2.25617 0.00501681)
(2.28348 2.2912 -0.00327313)
(2.2871 2.28918 -0.00168492)
(6.75426 0.0067994 -0.072972)
(6.45879 0.003903 0.00204896)
(2.72408 2.56042 0.119092)
(6.64552 0.00585553 -0.030534)
(6.23815 -0.0814195 -0.24864)
(2.28194 2.28333 0.00224074)
(6.6317 0.00199978 -0.0266753)
(6.13113 -0.00235732 0.0276169)
(6.36378 0.0247669 -0.0277658)
(2.28861 2.28915 0.000970321)
(2.28288 2.27932 1.15897e-05)
(6.39742 0.0174256 0.0195341)
(6.45269 0.00116498 0.000455688)
(2.71508 2.46146 0.0351494)
(2.27966 2.27918 0.00206865)
(2.31149 2.23949 -0.00976496)
(6.50045 -0.00604106 -0.00264342)
(2.25999 -2.25989 -0.00289763)
(2.25195 -2.24592 0.00188824)
(2.27231 2.27331 0.000465423)
(6.62571 0.0104466 -0.0246327)
(6.08865 -0.022333 -0.0054939)
(2.28882 2.28956 5.5677e-06)
(2.56998 0.491902 0.469773)
(2.82707 -0.350455 -0.0840025)
(6.36042 0.0260272 0.00318543)
(2.28519 2.28923 -0.00073298)
(2.28888 2.28387 -0.00105097)
(6.64218 -0.0588111 -0.00597329)
(6.40905 0.10127 0.0892291)
(2.75569 2.45603 0.126399)
(4.03576 1.27774 0.0866667)
(6.33455 0.14132 0.194098)
(6.1097 0.0221562 -0.0183058)
(6.45484 0.00140836 -4.98265e-05)
(2.3661 2.21942 -0.0033279)
(6.41515 0.0123667 -0.000866516)
(6.63154 -0.028632 0.0387416)
(2.28977 2.28321 -0.00397203)
(2.24573 -2.20847 0.00296667)
(2.27354 2.27514 -0.000907959)
(2.28184 2.28229 -0.000127138)
(2.28634 2.2912 -0.00195081)
(2.29149 2.28962 -0.00101798)
(6.64038 0.00824544 -0.0219237)
(2.25749 -2.25865 0.00387746)
(2.27959 2.28008 0.0016143)
(2.27536 2.24927 0.00331818)
(6.64627 0.0100753 -0.0290479)
(6.45413 -0.000378167 0.00154636)
(2.26867 -2.2401 0.0014836)
(2.23257 -2.21093 0.0033688)
(6.70448 -0.0133195 0.0511124)
(6.42539 0.00649873 0.00271466)
(6.42569 0.00550785 0.00385832)
(2.25741 -2.25244 -0.000541526)
(2.27646 2.28364 0.000535705)
(6.42851 0.00565391 0.00116749)
(2.26122 -2.25839 0.000947246)
(6.376 0.00675078 0.00823548)
(6.39056 0.00708029 0.0101631)
(6.40086 0.0087193 0.0047654)
(2.26646 -2.24741 0.00737165)
(2.2602 -2.26345 0.00314805)
(2.26109 -2.26229 0.000298679)
(2.28784 2.29223 0.00168908)
(6.49567 -0.0148962 -0.00654182)
(2.28744 2.28894 0.00405066)
(2.28092 2.27868 0.00283033)
(6.53688 0.03314 -0.030093)
(2.26015 -2.26052 0.00206731)
(6.44385 0.00114601 0.00286509)
(5.97795 -0.0554145 0.0120732)
(2.30118 2.22316 0.0112399)
(6.44282 0.00160843 0.00306383)
(3.09106 0.363253 -0.0491986)
(6.46413 0.00347169 -0.0020109)
(6.65937 -0.00694665 0.0120395)
(6.07779 0.0121287 0.0129451)
(6.68977 -0.000237387 0.0386)
(4.88767 0.091534 -0.189241)
(2.73097 2.17318 0.04736)
(6.46609 0.00268077 -0.000313714)
(6.70977 0.0370849 0.00687716)
(6.44661 -0.00364147 -0.00307449)
(2.34179 2.02878 -0.0715971)
(3.01501 0.283778 -0.154889)
(3.5234 -0.308651 0.0948992)
(6.44986 0.000492589 -0.00498647)
(2.27981 2.2816 0.00327074)
(6.3583 -0.00945645 -0.0331896)
(6.49705 -0.0063135 -0.00997571)
(6.28676 -0.0408148 -0.0784432)
(2.45921 -1.76177 -0.128684)
(2.26143 -2.26322 0.00125873)
(2.25739 -2.25839 -0.00129387)
(6.44561 -0.00393697 -0.000307719)
(2.66859 2.20479 -0.0302776)
(6.42962 0.015977 -0.0129351)
(2.48325 2.26297 0.026886)
(6.25804 -0.0101251 -0.0189589)
(6.44346 0.00211066 -0.00159549)
(6.43354 0.00366438 0.00197083)
(6.45916 0.0025097 -0.00236334)
(2.27658 2.27941 -0.000245802)
(2.26776 2.26219 -0.00356717)
(2.42935 -2.20613 0.00871854)
(6.44315 0.00247153 0.00341764)
(2.29148 2.28469 -0.00113759)
(2.65173 2.27474 -0.104281)
(6.7371 0.140133 -0.115107)
(2.29419 2.29025 -0.00342578)
(2.27405 2.28349 0.00859593)
(2.24601 -2.24147 -0.00446216)
(2.28919 2.28987 0.00430212)
(6.42642 0.00206919 0.00289297)
(2.33358 2.21487 0.00127202)
(2.28905 2.28573 -0.000320352)
(5.37182 0.747354 -0.518177)
(2.68804 2.16364 -0.0245175)
(2.27532 2.27714 -0.0174502)
(3.22744 -1.91773 0.111781)
(2.28744 2.28415 -0.00120025)
(5.3956 0.00978498 -0.022089)
(6.44065 0.00568875 -0.000698581)
(2.24998 -2.24859 -0.00162108)
(6.37364 0.0183971 -0.0290657)
(6.34866 0.995175 -0.131579)
(6.24155 -0.0456541 -0.0816461)
(6.87646 0.240852 0.0121187)
(6.41153 -0.00378977 0.00327542)
(2.28472 2.27093 0.00460493)
(6.44223 -0.0423189 -0.0492035)
(6.71202 -0.00462304 0.0128704)
(6.23366 -0.046465 -0.080454)
(2.25904 -2.2561 -0.00231574)
(6.81376 1.76881 0.48044)
(6.42552 0.0031341 -0.000176605)
(3.06862 2.43315 -0.146604)
(6.41872 -0.00179649 -0.00019022)
(6.7906 0.06516 -0.0529379)
(6.52454 0.116415 0.0174657)
(6.41491 -0.00911355 -0.0128776)
(6.43965 0.0161083 -0.00668941)
(6.84572 0.0833788 -0.0226594)
(6.41531 0.000843126 -0.00873003)
(6.3963 5.72091e-05 0.00192139)
(2.26785 2.27419 0.00949752)
(2.27831 2.26126 0.00840427)
(6.43238 0.00661081 -0.0120392)
(6.43302 -0.00231072 -0.00146956)
(2.28079 2.28656 -0.00153695)
(6.44773 0.00500683 -0.00238374)
(6.64173 -0.0122193 0.00624041)
(6.38988 -0.000807958 -0.00328473)
(2.2865 2.26027 -0.00245985)
(6.4952 0.115312 0.0371625)
(2.28083 2.27873 0.000146995)
(6.41125 0.000320151 0.00543177)
(6.39119 0.00493628 -0.00063209)
(2.28585 2.28404 -0.00141296)
(6.34254 0.0249252 -0.0522788)
(6.37899 0.002209 0.00318084)
(6.47315 0.104616 0.0180968)
(6.41989 -0.0158944 0.0092676)
(2.33973 2.29286 -0.00283976)
(6.56759 -3.32431e-05 0.00895363)
(6.49911 0.135772 0.0114706)
(6.83114 -0.174253 0.0463555)
(5.79649 0.0681103 0.029847)
(5.27201 0.0162502 -0.0623009)
(2.28829 2.26527 -0.00363786)
(2.28125 2.27884 0.00493013)
(6.38964 0.0684796 0.0128558)
(2.28706 2.29162 -0.000880041)
(5.82724 -0.00554187 -0.040293)
(6.37432 -0.0176064 -0.0290199)
(3.88059 0.500205 -0.10941)
(7.09705 -0.467977 0.166672)
(6.25784 -0.290921 0.0797722)
(6.96449 -0.265225 0.0671947)
(2.28666 2.2897 0.000713691)
(3.11514 2.64098 0.0256053)
(6.48047 0.00494707 -0.00734979)
(2.24809 -2.25556 -0.00915655)
(1.26781 -0.876548 0.377431)
(6.49689 -0.0965921 -0.0720515)
(2.27625 2.26953 -0.00509111)
(2.29086 2.28536 -0.00133578)
(5.8537 -0.119701 -0.00900713)
(4.77231 -0.310129 0.066826)
(2.28739 2.2889 0.00145017)
(5.92352 -0.112322 0.00773636)
(2.27828 2.27501 0.00429339)
(2.28589 2.2909 -0.00495175)
(2.25823 -2.26189 0.000864156)
(2.26144 -2.25631 0.00439801)
(2.21825 -2.19869 0.003627)
(2.25791 -2.25166 -0.00120823)
(5.98147 0.042496 -0.00831429)
(2.26694 2.2562 0.00184456)
(2.28622 2.28583 0.00137741)
(2.27129 2.28498 0.00197032)
(5.51085 -1.23155 -0.325664)
(6.20257 -0.0420066 -0.0972299)
(6.10138 0.00293611 -0.0311114)
(6.47934 0.000785023 -0.00452519)
(2.27207 2.25707 -0.00095493)
(2.2995 2.28624 -0.0010252)
(6.30258 -0.0952273 -0.112879)
(2.28544 2.28677 -0.00339015)
(2.28637 2.28083 -0.00261294)
(3.68288 2.08554 0.0788543)
(6.70817 -0.0711115 0.00172992)
(6.4986 0.00490856 -0.000162688)
(2.28418 2.28288 -0.000731619)
(2.28521 2.27768 0.00496859)
(2.27192 2.26452 -0.00408805)
(2.281 2.27347 0.000467471)
(2.28928 2.28571 -0.00115285)
(2.29282 2.2899 0.00160493)
(6.55253 -0.129698 -0.0790152)
(2.29158 2.28354 -0.00136621)
(4.59044 0.0627378 0.147143)
(6.59413 -0.00483567 0.0144093)
(2.28634 2.29037 -0.000922357)
(2.24291 -2.25427 -0.00443922)
(2.23115 -2.20297 0.000149574)
(5.5845 0.0641143 0.299558)
(2.21113 -2.21066 -0.00800393)
(2.25688 -2.25868 -0.000365323)
(2.27393 2.2753 -0.0159704)
(5.99248 -0.0933909 -0.00778153)
(2.27788 2.27801 -0.000623299)
(6.53751 -0.0648022 -0.0402387)
(5.37891 0.0707215 -0.0191444)
(4.3402 0.00230112 0.168469)
(2.27634 2.2799 0.000172611)
(4.51875 -1.18959 0.102528)
(6.5994 -0.00563569 0.0161967)
(6.58478 0.00547157 -0.011016)
(2.42038 -2.30842 -0.0261923)
(6.41022 -0.113759 -0.0215075)
(6.52463 -0.016742 0.000252751)
(2.26026 -2.24202 0.00360834)
(2.36968 2.24239 0.00797105)
(3.16176 -2.44499 -0.210193)
(2.26782 2.27544 -0.00230926)
(6.4672 0.000434532 0.000130456)
(6.55983 0.000397203 0.00416416)
(6.69644 -0.068205 0.0360055)
(4.42166 -0.000652809 0.23749)
(2.29023 2.28881 -0.00171378)
(6.46522 0.000552854 0.00119619)
(2.34966 2.22966 -0.00596087)
(2.87135 2.42461 -0.00868104)
(3.02391 -2.35756 -0.102988)
(2.2863 2.28569 0.00120616)
(6.53908 0.00896365 -0.000852787)
(2.27586 2.2742 -0.000906566)
(2.2359 -2.19971 0.00129584)
(6.06016 -0.069738 -0.138455)
(6.48875 0.000155249 -0.00465269)
(2.23603 -2.20078 -0.00429059)
(6.52019 0.00132904 -0.00208728)
(2.43676 2.38256 -0.0131949)
(6.60234 -0.041805 -0.0142173)
(2.13773 2.03537 0.016803)
(2.28702 2.28557 -0.000104491)
(2.29838 2.29212 0.0102715)
(2.2606 -2.26329 0.00206376)
(6.39127 -0.00265794 -0.00349415)
(6.02202 0.00510769 -0.00659478)
(6.6872 0.0100722 0.112282)
(2.27865 2.28107 -0.000715761)
(2.27241 2.22359 0.0125912)
(6.38487 -0.00236639 -0.000514203)
(2.2908 2.29081 -0.00128739)
(2.68679 2.40408 0.0475089)
(2.25899 -2.25743 0.00277378)
(6.40455 0.0224698 -0.000209931)
(6.76332 -0.16356 -0.0517865)
(6.54373 0.00467738 -0.00347839)
(2.2533 -2.24873 0.00783847)
(5.25755 -0.0129122 0.136114)
(5.47829 0.00132333 0.13683)