/*--------------------------------*- C++ -*----------------------------------*\
  =========                 |
  \\      /  F ield         | OpenFOAM: The Open Source CFD Toolbox
   \\    /   O peration     | Website:  https://openfoam.org
    \\  /    A nd           | Version:  10
     \\/     M anipulation  |
\*---------------------------------------------------------------------------*/
FoamFile
{
    format      ascii;
    class       surfaceScalarField;
    location    "70";
    object      phi;
}
// * * * * * * * * * * * * * * * * * * * * * * * * * * * * * * * * * * * * * //

dimensions      [0 3 -1 0 0 0 0];

internalField   nonuniform List<scalar> 
109758
(
-3.36043e-06
0.00121993
-0.00121657
-0.00125267
0.00128851
-3.58357e-05
0.000104119
-0.00114988
0.00104576
-0.00144004
8.78703e-05
0.00135217
0.00146217
-0.000168269
-0.00125759
-3.63163e-05
-0.000405293
0.000396326
8.96725e-06
-0.00110845
-6.47798e-06
0.00111492
0.00202377
-0.000255903
-0.000384864
-0.00138301
-2.37262e-05
0.000849311
1.44654e-05
-0.00084005
0.000466483
-7.22186e-05
0.000596516
-0.000990781
-3.94223e-06
0.000586479
-0.000582537
0.00187436
-0.00152687
-0.00143887
0.00109139
0.000320907
0.00125913
-0.0014378
-0.000142234
0.00118864
-0.00121937
3.07276e-05
-0.000973842
0.00110809
0.00132793
0.000691387
-0.000946134
-0.000684468
0.000939215
0.000819589
-0.00157363
0.00140327
-0.000649231
0.00148429
0.000242364
-0.00110138
-0.000625274
0.00150006
0.000227956
-0.00121146
-0.000516553
-0.00144003
0.000171265
-0.000108847
0.00137761
0.000215453
-0.000290232
7.47793e-05
-2.64542e-05
-0.00119623
0.000285692
0.000936996
-0.000275573
0.000846545
-0.000570972
0.000251248
-0.000301533
0.00102946
0.00116212
0.000420127
-0.000405301
-0.00117694
1.77018e-05
0.000563467
0.000903124
0.0012414
0.00151639
-0.00194186
-0.00081593
-0.00109119
0.00108137
9.81993e-06
3.43621e-05
0.00112775
0.00149196
-0.00102643
0.000795181
-0.00126071
-0.00146097
0.00152966
-8.42988e-05
1.56127e-05
-4.987e-05
0.00060447
-0.0005546
-1.4469e-05
0.00089871
-3.48382e-05
-0.000849403
-0.000827279
0.000824177
3.10181e-06
-0.000123708
-0.00131765
0.001105
0.000336358
-0.00115981
0.00212098
-0.000718803
0.000577984
0.000170208
-0.000748192
0.000198023
0.00103951
-0.00147397
0.000236446
-0.000252273
-0.00111668
8.16563e-06
0.00136079
0.00114054
5.22015e-06
-0.00114576
0.00167388
-0.00110248
0.000734935
-0.00130633
-0.000392233
-0.000504919
0.000676484
0.000220668
-3.41622e-05
3.33401e-05
0.0016747
-0.0014472
0.00142462
1.32269e-05
9.35206e-06
0.000796994
-0.00079802
1.02533e-06
0.000330607
-0.0021499
-0.000329125
0.00214842
0.000997938
-0.000282628
-0.000251217
-0.000464093
-0.00111255
0.00138815
-0.000195403
-8.01934e-05
1.6554e-05
0.00102434
-0.00104089
-0.00224762
0.000142321
0.000187782
0.00191752
0.00107968
-0.00052235
0.000519999
-0.00107733
0.000398925
0.000616714
1.43432e-05
0.00140048
-0.00141482
-0.00105837
0.0010619
-3.53111e-06
-0.00121992
0.00125428
-0.000329721
-0.00175407
-0.000430749
0.00251454
-0.0022828
0.0031836
-0.000667407
-0.000233393
-0.00111413
0.000983013
0.00117057
-0.00103946
-0.00180372
0.000708472
-5.92512e-05
0.0011545
-0.000718986
0.000264669
0.000646453
-0.000192136
-0.00149365
0.00142215
7.14963e-05
-0.00323417
0.000189555
0.0016317
0.00141292
-0.000314013
0.00130125
-0.00124945
0.000262207
0.00156926
0.00151361
-0.00189107
-0.00113804
0.00151551
-0.00190108
0.000921699
0.000514731
0.00046465
0.00139261
-0.00153986
-0.000857908
0.00100516
-0.00147634
9.85648e-05
0.000349146
0.00102863
-0.00112268
-0.000798879
0.000445221
0.00107496
-7.64974e-05
-9.37208e-05
-0.000904746
0.00100617
-0.000591904
0.000373474
-0.000787739
0.00141974
5.187e-05
0.000602384
-0.00207399
-0.00052083
0.000192553
0.000328278
-0.00211805
0.00135
0.00158308
-0.000815025
0.000803011
-0.000759558
-4.34523e-05
-0.000626211
0.000198692
-0.00169053
0.000106497
-0.000881221
-0.000283647
-0.000270564
5.59825e-05
-0.000860601
0.00107518
0.00174249
-0.0015831
-0.000333487
0.000174097
-0.00170472
0.00153669
-0.00105189
0.00119818
-0.000811019
-0.0010033
0.000616136
-0.000650735
0.00269958
-0.00135002
-0.00069882
-0.000152303
8.22842e-05
0.00152946
-0.00145944
3.63959e-05
0.00216824
0.000227608
-0.00243224
0.000866117
-0.00157242
-0.000132409
0.00083871
0.00123807
-0.000233154
-0.00089842
0.000128779
0.000991272
-0.00135853
0.000238477
0.000543358
0.0020482
0.000129526
-0.00272109
0.000961882
-0.0011341
0.000180325
-8.10604e-06
0.000655171
0.000735448
-0.00276359
0.00137297
0.00093333
-0.000103676
6.16146e-05
-0.000891269
0.00199179
-0.0014935
-0.00296907
0.00247077
0.00169126
-0.00190432
0.000844586
-0.000631522
2.06064e-05
-0.00159273
0.00146395
0.000108177
0.00164639
-0.0011528
-0.000363103
-0.000130486
0.000889514
2.08687e-05
-0.000910383
-0.00170042
0.000294186
0.00118698
0.000219249
0.00111498
0.000743616
0.000571247
-0.00242985
0.000918995
-0.00165753
0.00114788
0.00249095
-0.00144435
-0.00219448
0.000917319
1.6763e-06
-0.000367693
0.00119371
0.00119908
-0.0020251
0.00105175
0.000300479
-0.000148962
-0.00120326
8.11494e-05
0.000922377
-0.00100353
0.00141398
-0.000116807
5.5345e-05
-0.00135252
-0.000577883
-1.89251e-06
0.000579776
-0.00132411
0.00102149
-0.00079876
-0.00023769
0.00179639
-0.00188909
0.000330394
0.000431879
-0.000362746
-0.00145276
0.00138363
0.000287592
-0.000293291
-0.000681618
0.000687317
-0.00036871
-0.000989361
0.0012368
0.000121269
0.000447802
-0.00121936
0.00126868
-0.000497127
0.000927783
0.000283722
-9.27788e-06
-0.00054947
-9.87638e-05
0.000657512
0.000179579
0.000352958
-0.00203726
0.00150472
-0.00131194
0.000166439
0.00134822
-0.00020272
0.000973621
0.000158179
9.90397e-05
-0.00123084
0.000205011
0.00076861
0.00143165
0.000288443
-0.00156192
-0.000766615
-0.000873128
0.00130308
0.000336662
0.00135802
0.000183635
0.000199571
-0.00174123
-0.00146802
0.00125526
-0.000411804
0.000624562
0.00134627
0.000290393
-0.00104608
0.00117846
-0.00108769
0.000955306
0.00146317
-0.000211185
-0.00028644
-0.000965549
4.01785e-05
-0.00160661
0.00174201
-0.000175581
-0.00152933
-3.75756e-05
-0.000422797
0.0019897
0.000938754
0.000505933
-0.00148564
4.0953e-05
-0.00101895
9.4524e-05
0.000894848
2.95746e-05
0.000184212
5.68987e-05
-0.00188305
0.00164194
-0.000930488
-6.08704e-06
0.000936575
0.000193161
0.0013321
-0.00134105
-0.00106141
0.00142123
-0.000773876
0.000414051
-0.0012128
-0.000777996
0.00157834
0.000412451
0.00127428
0.000244257
-0.000722709
-0.000795832
-0.00201022
-2.81365e-05
-0.000282961
0.00232132
-0.00129462
-0.000777597
0.000565874
0.00150635
0.00177658
-0.00174072
-0.000112055
7.61999e-05
-0.000263761
-0.000789097
-0.000701207
0.00146082
0.00108166
0.000271144
-0.00281362
0.00211354
0.00026714
-0.00234428
0.00021472
0.00110498
-0.0013197
3.5181e-05
-0.00108863
0.00105345
-0.00103479
-0.000214742
0.000197577
0.00105196
9.2187e-05
0.00134678
-0.00128485
-0.000154112
-0.00221982
-0.000254855
0.000576582
0.00189809
0.00122521
-0.00129639
0.00110861
-0.00103743
0.000159159
0.000143142
0.000922908
-0.000874112
0.000847537
2.65754e-05
-0.000919652
3.02353e-05
0.00133312
-0.000443706
0.000264609
-0.00067226
-0.000492888
0.000900539
0.00067446
-0.000702073
2.76135e-05
-0.000961836
0.000910026
-0.000218754
-5.08476e-05
-0.00101117
-1.05854e-05
0.00107261
0.00171104
-0.00019215
-0.0010859
-0.000432987
-0.00040818
-0.00186734
0.00250693
-0.000231403
-0.00162342
0.00056217
-0.00135662
0.00151467
-0.000158057
-0.000731647
0.000659112
-0.00102719
0.00109972
0.000547787
-0.000670679
-0.000497644
0.000620536
-0.000920577
-0.00126233
0.00100166
0.00118126
5.03228e-05
0.00141134
-0.000139961
-0.0013217
-0.000358634
0.00170978
-0.000286502
-0.00106465
-0.00159258
0.00134668
-9.64754e-05
0.000342372
-0.00116995
0.000933134
-0.00100747
0.00124429
0.0012154
6.67191e-06
-0.00122207
-0.00180189
0.000389465
0.00176157
-0.000345365
0.00142217
-0.00107681
8.78979e-05
0.00143503
-0.00152293
0.000197938
0.00123675
-0.00189563
0.000460947
-0.000951331
-0.000989105
0.00106161
0.000878824
0.000695268
-0.000200699
0.0005116
-0.0014201
0.00148319
-3.80026e-05
-2.50889e-05
-0.00141765
1.41464e-05
-1.65976e-05
0.000752226
-0.000450948
0.00184931
-0.00215059
-6.86138e-05
0.00180463
-0.00173601
-0.00118324
0.000849684
-6.60008e-06
0.000340159
-0.000902522
-0.00109807
0.00200059
-0.000674702
-0.00025329
0.000927992
0.00100453
1.25015e-05
-0.00101703
-0.00159612
-2.56877e-05
0.00131301
0.000308795
-0.000461543
0.000638456
0.000838995
-0.00101591
-0.00176739
0.000484099
0.000821749
0.00172074
-0.00271129
0.000575315
0.000415232
-0.00144945
0.0014629
-3.98983e-05
2.64462e-05
0.00193044
-0.00192974
-1.54662e-05
1.47698e-05
-0.00109043
1.54052e-05
0.000269052
0.000805974
7.65391e-05
-0.00113686
0.00106032
-0.00123426
-0.00175227
0.00118841
0.00179812
0.000148933
0.00161166
-0.000746187
-0.00101441
2.03113e-05
-0.00155706
-2.3304e-05
0.00156006
0.000256084
0.00139847
0.000329891
-0.00198445
0.000203762
0.00139806
-0.00147302
-0.000128801
-7.46707e-05
-0.00109373
0.00137217
-0.000894642
-0.000757637
0.000384959
0.00126732
0.000841597
4.83258e-05
-0.000889923
0.00135918
0.00130353
-0.00157436
-0.00108835
1.70293e-05
-0.00108197
0.00106494
0.000302616
0.000131867
5.96131e-05
-0.000494097
-0.00142033
-2.28047e-05
0.000469826
0.000973305
-0.00104632
-0.000536657
0.00158298
0.000845587
-0.00111024
0.000393681
-0.000129024
-0.00146888
0.000185103
0.00134023
-5.64525e-05
-0.00147998
0.00179845
-0.00141289
0.00109442
-5.87248e-06
-0.000888769
-0.00114272
0.00111068
3.20329e-05
-0.00147853
-0.000770719
0.000145995
0.00210326
-0.000136577
0.0013004
-0.00116382
0.00103751
-0.000815767
-0.000221742
0.000924976
-0.000930849
-0.00111198
-1.72251e-07
0.00111216
0.000508607
0.00138602
-1.33943e-05
-0.00188123
-0.00113553
0.000173039
0.000962491
-0.0012633
-0.000444591
0.00131581
0.000392085
-0.00190956
0.00026248
0.0018642
-0.000217114
0.000944202
-0.000916802
-2.74001e-05
-0.000726225
-0.00101909
0.00390906
-0.00216374
-0.00148232
0.000543018
-0.000373407
0.00131271
-0.000750752
-0.000179461
-0.00117525
0.00210546
-4.277e-06
2.70196e-06
0.0013069
-0.00130533
0.00070827
-0.00209683
0.00285874
-0.00147017
-0.00121625
0.00121197
0.00155709
0.000401068
-0.00190737
-5.07929e-05
0.0010853
0.000148546
-0.00136321
0.00012936
0.000950367
0.00044537
-0.00159418
0.000198448
0.000903563
0.000181736
-0.000541834
0.00169144
-8.92236e-05
-0.00106038
0.00032668
-0.00148646
0.0019008
-0.000741026
-0.00167248
0.000121919
-4.31072e-07
0.00155099
0.000970697
0.00374512
-0.000593629
-0.00412219
0.000450126
0.000343078
-0.000596688
-0.000196516
0.000310158
0.00112362
-0.000508282
-0.000925495
-0.000905626
0.000884295
-0.000520503
-5.04742e-06
0.00169153
4.95137e-06
0.0013353
-0.00135023
0.000213992
-0.000199061
0.00031621
-0.000105691
0.000806883
-0.0010174
-0.00130087
0.00126671
0.000182712
0.00039256
-0.000768646
-0.000879942
0.00125603
0.000541991
0.00150815
-0.00150679
0.00112912
-0.00147853
0.000199696
0.000149716
0.00111297
2.06859e-07
-0.00111318
0.00242812
-0.00249724
0.00202065
-0.00195153
0.000370271
-0.000955476
-0.000476578
0.00106178
0.000384902
0.000204412
-0.00163412
0.000974046
-0.000580748
0.00124082
-0.00200266
0.000452178
0.00168508
-0.0001346
-0.00156238
-0.000862448
0.0031331
-0.000157661
0.00191733
-0.0006345
-0.00112517
0.000924594
-0.000466554
0.00171247
-0.00217051
0.000184421
-0.000870262
0.000741014
-5.5173e-05
-0.000382699
-0.00125564
0.00144249
0.000195848
0.00108112
-0.000611868
-0.000439649
-2.95998e-05
0.00054805
0.000229699
0.000290573
-0.00106832
-0.000776211
0.000995616
-0.000219405
0.000889422
-0.000828529
0.000123528
3.05389e-05
-0.00135781
0.00132727
0.00104324
-0.00121554
-0.000210401
0.00026464
0.00118146
-0.00026509
-0.00118101
-4.0027e-06
-0.000963851
0.000967854
0.000524864
0.00161286
-0.000883494
-0.00125423
-8.47146e-05
-0.000631508
-0.000423494
0.00113972
-0.000294727
-0.00162193
1.0754e-05
0.0019059
-0.00102995
0.000416975
0.00125933
-0.000646361
7.62256e-05
0.000967015
-0.000857681
0.000933907
0.000926201
0.000247563
9.96976e-05
-0.00127346
-0.000489269
0.00218877
-0.000142405
-8.90969e-05
-0.000621723
0.000566739
0.000144081
-0.000206147
0.00243519
-0.000115506
0.00197588
-0.00102621
-0.000424805
0.0022537
-0.000275425
-0.00120945
0.00180748
-0.000322603
-0.00228058
0.00191512
0.000937621
-0.000572159
5.7726e-05
0.00104783
0.000870327
-0.00100391
-0.00131884
0.00139226
-0.000716493
-0.000988295
0.0019098
-0.000205007
0.000740358
0.000843268
-0.00158363
2.62042e-05
0.000168856
0.00222426
-0.00241932
-0.00117463
0.000992974
0.00144025
-0.00125859
0.00135764
-0.00214587
0.00172482
-0.000936598
0.000449863
-2.28546e-05
-0.000427008
-0.00092393
-0.000517183
0.000171929
0.00126918
-0.000473732
-0.000679158
8.94676e-05
0.00117073
-0.00096886
-0.000291332
0.000984344
-0.00102502
4.06736e-05
0.000109567
-0.00130638
0.00137846
-0.000181645
0.00114615
-0.00282831
0.00139764
0.000284527
0.00065532
-0.000874064
0.000218744
0.000867499
-0.000111006
-0.000859868
0.000103375
-0.000174054
-0.00286966
0.0025905
0.000453205
-0.00113338
0.000194882
0.00132094
-0.000382439
-0.00118631
3.81986e-05
0.00114811
0.00118295
0.000200053
0.000785231
-0.000590189
-4.90257e-05
0.00152864
0.000102803
-0.00168151
0.00140465
-6.40054e-05
0.00116671
-0.0011027
-0.000816957
0.000505916
0.00135505
-0.00104401
-0.000186005
0.0015527
-4.38754e-05
-0.00132282
-0.000187248
0.00144232
-0.000975397
-0.000279672
-0.00100246
-2.2244e-05
0.00118138
-0.000156676
0.000832426
-0.0017401
0.00094997
-4.22934e-05
-0.000891561
0.000696982
-0.00071648
0.000911059
0.000863737
3.41364e-05
-0.000100879
0.000132395
-0.00125903
-0.000303381
0.00143001
-0.000258136
-0.00138331
0.000618335
0.00102311
0.000493542
-2.10525e-05
0.00113431
0.000275058
-0.00138831
0.000581734
-0.000410089
0.00117228
-0.00134393
-0.000751427
0.000930937
0.00124243
-0.00142194
0.00203439
0.000510693
-0.00205154
1.50115e-07
-0.00121047
0.00121032
7.49169e-06
-0.00122642
0.00127537
-5.64416e-05
2.39685e-05
0.00131069
-0.00117885
-0.000155811
0.000394341
-0.00198937
-6.49564e-05
0.00165999
-0.00110096
0.00132102
-0.000220061
0.000202263
-9.24324e-05
0.0013259
-0.00143573
-0.00102586
0.000227836
-0.000709005
0.00107355
-0.00143077
0.00106622
-0.000327225
-8.10707e-05
0.000408295
0.00324053
-0.00158162
-0.000703459
-0.00095545
0.00130479
0.00334327
-0.00140753
0.00216304
-0.00199884
0.000188992
0.00110084
-0.000852254
0.00121911
-0.000386532
1.96755e-05
-0.000253301
4.91094e-05
0.00178727
-0.00125106
0.000470983
0.000960734
-0.000180656
-0.00105227
0.00174108
0.000130785
0.00122123
-0.00139806
0.000708614
-0.000531783
0.000181399
0.00245662
-0.00243576
0.000735106
6.38242e-07
-0.000735744
-4.03475e-07
-0.000956651
0.000957054
0.00170507
0.000137888
-0.000381589
-0.00146137
0.00221028
-0.000712142
-0.000935339
-0.000562796
-0.000139607
-0.00280305
0.000845823
-8.61242e-06
-0.000679285
0.000687897
0.00147047
-0.00134925
-0.00133356
0.00121235
0.00106481
0.000444013
-0.00125274
0.00086408
-0.000532503
-0.00131812
0.000986547
-0.00104283
-9.45844e-06
-0.000803461
0.00185575
-0.00159304
-6.8163e-06
0.00159986
0.000993012
9.37611e-05
-0.00105663
-3.01477e-05
-0.00127231
-2.08135e-05
0.00129312
6.42876e-05
0.00107033
-0.00113462
-0.000782621
0.00173422
-0.000125978
-0.000825621
-0.00187848
0.0022624
0.0014271
-0.00181102
0.000901209
0.000769379
-0.000208429
0.00133808
-0.000865022
-0.000264625
-0.000229885
-7.7957e-05
-0.00115531
0.00146315
0.00130449
-0.00114734
0.00091263
-0.00106978
-0.00123774
0.00128824
-5.05063e-05
-0.00151431
0.00025332
0.00130058
-3.95839e-05
-0.0026426
0.000528655
0.00201033
0.000103619
0.000260911
-0.000334602
-0.00130892
0.00138261
0.00190152
0.000181184
-0.00109221
-0.000990487
0.00103436
-0.000786735
-0.00104162
0.000793995
0.0011911
1.19409e-05
-0.00120304
0.000109842
-0.00202577
0.00148226
0.000433671
0.000752762
0.000448911
-0.000300464
0.000273711
-0.00088182
0.00128576
-0.000677652
-0.000545329
0.000529507
-0.000121953
0.000137775
-0.00362618
0.00437318
0.00141029
-0.00215729
0.00181969
-1.18924e-05
-0.00181891
1.11142e-05
9.14021e-06
0.00146344
-0.00157282
0.00010024
-0.00219281
0.00192113
-0.000510943
0.000974432
0.00121972
-0.00110392
-0.00109023
-0.000967718
-6.94973e-05
-0.000105247
0.00114246
0.00101052
5.27194e-05
-0.00106324
0.00128826
-7.10677e-05
-0.0012172
-0.00227758
0.00214627
8.44983e-05
4.68067e-05
7.03651e-05
0.00146807
-7.1701e-05
-0.00146674
0.000909462
0.000458543
-0.00297749
0.00160948
-0.000630638
0.000630643
-5.50279e-09
0.00092418
2.11561e-06
-0.000926295
-4.61708e-07
-0.00055687
0.000557332
-0.000530754
0.0010803
0.000725908
-0.00127546
3.53836e-06
-0.00114346
0.000897116
0.000242804
-0.00128319
-0.000526044
-0.000468347
3.25438e-06
-0.000888555
-0.000132237
0.00101754
-0.000687379
1.2853e-05
0.000674526
0.000235015
0.000729256
-0.000237599
-0.000726672
0.00050284
-0.000895074
0.000392234
-0.000243042
-0.000833083
-0.000310434
0.00138656
0.000709498
0.000940625
0.000138603
-0.00178873
0.00185642
-0.000675184
-0.000601582
-0.000579656
-6.80654e-05
-0.00153317
0.00178691
-0.000185674
0.000735991
0.000387909
0.000211883
-0.00133578
0.00232029
0.00103341
-0.00217624
-0.00117747
-2.84189e-06
0.00058758
-0.000584738
-0.0013732
4.09248e-05
0.000317687
0.00101459
-0.00134584
-0.000149405
0.00153111
-3.58621e-05
0.000374611
-0.000468974
0.00191405
-0.000476422
0.000629238
-0.000152817
0.000937425
2.695e-05
-0.000964375
0.000194378
0.000122384
-0.00123665
0.000919893
0.00131837
-0.000129938
-0.00122624
3.78082e-05
-0.00111344
-6.90489e-07
0.0002377
0.000322136
-0.00146149
0.000901653
-0.00135676
9.78276e-05
0.00125893
-5.3253e-05
-0.000949211
-0.000123768
0.00208953
0.000147244
-0.002113
0.0011165
-0.0011825
6.60003e-05
-0.00119418
0.0011814
1.27885e-05
0.000959589
-0.00108336
0.000262532
0.000876312
0.0010891
-0.00222794
-0.00117262
-0.000640151
0.00181277
-9.06784e-06
0.000836209
-0.000827141
-1.95995e-05
-0.000909533
0.000929133
0.00111448
-0.00110765
-6.82899e-06
-0.00123533
4.73818e-05
0.00124201
-5.40614e-05
0.000302124
-0.00139067
0.0010621
0.000693701
0.000583364
-0.00233814
0.00106107
0.00072123
4.94675e-06
-0.000726177
4.73471e-05
0.00136519
-0.00141253
0.000672031
2.4291e-06
-0.00153956
0.00137048
0.0012989
-0.00112983
-0.00096951
0.000122805
0.00124341
-0.000396702
0.00169646
-0.00244431
0.000590941
0.000156909
-0.00218983
0.00048785
-0.00104577
0.00115602
-0.000110252
2.53807e-05
-0.0011596
0.00113422
-0.0010032
-1.97819e-05
0.00102298
-0.00117458
6.32681e-06
0.00116825
0.00112363
-0.00123203
0.000108395
1.45478e-05
0.00173469
-0.00174924
-0.000256878
-0.00023423
0.00124387
0.00123783
-0.00129281
-0.000883966
0.000938948
-0.00069866
0.00012731
0.00135653
-0.000785178
0.000666916
-0.0015687
-0.000101418
-7.29039e-05
0.00153344
-0.00146054
0.000454879
0.000424181
-0.000580036
-0.000299023
-0.000706413
0.0011582
-0.00139177
0.000939986
-0.00112436
-0.000426965
0.00155133
0.00227599
-0.00140336
-0.000872627
-0.000432103
0.00163507
0.00107133
-0.0022743
-0.0011864
0.00143894
-0.00143578
0.00118324
0.000508853
-0.000382335
-0.000584561
0.000458043
2.12482e-05
-1.36356e-05
-0.00127993
0.00127231
-0.000119069
-0.00180153
0.0019206
0.000404991
5.33172e-05
-0.00152678
0.00106847
-0.00150306
0.00116644
0.000336613
-0.000702811
-0.000351916
0.00101383
4.08977e-05
-0.000991037
0.00098599
5.04622e-06
0.000963434
-0.000814841
0.00120905
-1.03672e-05
-0.00157777
0.00158069
7.45372e-06
0.00304722
-0.000787985
-0.00152945
-0.000729784
-0.000471093
0.00166284
7.9905e-06
-0.00119974
-0.000550177
0.000819086
0.000457415
-0.000726324
-0.00132476
0.000778042
0.00137623
-0.000829507
0.000727334
-0.000868493
-0.000339433
0.0015075
3.97623e-05
-0.00120783
0.000906336
-0.000999646
0.000103562
-0.00213752
2.40959e-05
-2.11483e-05
0.00213457
-0.000297263
-8.38309e-05
-0.000799614
0.00118071
-0.00108433
0.00139478
-0.00110852
0.000798074
-0.00247903
-0.000334649
0.00260753
-0.0016075
2.2842e-05
0.0016092
-2.45401e-05
0.00100649
0.000162807
-0.000678798
-0.000490501
-0.000317479
-0.00123365
0.000655559
0.000895574
0.00106765
-0.000418619
-0.00140721
0.000758184
-0.00138749
-0.00035759
-3.10053e-05
0.00177609
0.00111012
-0.000136196
-0.00101856
4.46326e-05
0.000940084
-0.000944151
4.06656e-06
-0.00074547
0.0024268
-0.00201605
0.000334725
0.000156313
0.00143146
-0.00230353
0.000715753
-0.00094535
-0.000307792
0.000993436
0.000259706
0.000330083
-0.000316872
-0.00095856
0.000822378
3.31598e-05
0.000161056
-0.00101659
-8.81659e-05
0.000615868
-0.00266522
-0.00138856
2.84888e-05
0.00178203
-0.000421957
-0.000995182
0.00116129
-0.000166108
0.000489786
-0.000459334
-0.00064912
0.000618667
-0.00070064
-0.00128678
0.000808954
0.00117846
-0.000577188
0.00179594
-0.000661475
-0.000557273
-0.00148029
1.02905e-05
-0.00129566
0.00161545
-3.92972e-05
3.46516e-05
-0.00128144
0.00128608
0.00123742
0.00132698
-0.00141026
-0.00115414
0.000982113
-0.00101301
3.08986e-05
0.00125367
-7.85464e-06
-0.00124581
0.00106974
-0.00124165
0.000351285
-0.000179381
-0.000312068
-0.000915136
0.00222064
-0.00164466
0.00141174
-0.000212792
0.000445707
0.000547221
-0.000744563
0.00176746
-0.00157011
-0.0015761
-0.00114976
0.00187379
0.000852068
-8.45301e-05
-0.00173662
0.000176487
0.000274851
-0.00144883
-1.18743e-05
0.00118585
0.00133501
0.000351586
0.0018088
-0.00158398
-0.000594384
0.000369558
-0.00133912
0.00132917
0.00108383
-0.00107389
0.0010147
0.000503151
-0.00115192
-0.000365927
0.000508463
-0.00111698
0.000927796
-0.000319277
0.00139175
-0.00114097
-0.00181293
0.00156216
0.00145935
-0.00162443
8.05528e-05
-0.000901048
0.000905045
-3.99636e-06
0.00011262
-0.000102099
0.00151071
-0.00180489
0.00170268
-0.00140849
0.00111973
-0.00100711
0.00113742
-0.00122998
-3.76008e-05
0.000130163
-2.44464e-05
-0.000519486
0.000543933
-0.00012357
-0.00103693
0.00124388
-8.33758e-05
0.00191012
-0.00171907
0.000135755
-0.000326802
0.000204296
-0.0022669
0.000184132
0.00169607
-0.00173601
-0.000187503
0.000227434
0.000371552
0.000279055
0.000461248
-0.00111185
-0.000100999
0.000948671
0.000923884
-0.00177156
-8.04597e-05
-0.00117135
-0.000325273
0.00157708
-0.000570277
0.00170887
-0.000464649
-0.000673946
-0.00106833
0.000453078
0.001685
0.00104583
-0.00211867
0.00023227
0.000840573
-0.000305327
7.13952e-05
0.00193001
0.000313043
0.00142704
-0.000488612
-0.00125147
-5.16986e-05
5.39173e-05
-0.00123914
0.00123692
0.00185861
0.00010445
-1.30837e-05
-0.00194998
0.00103639
0.0004541
-0.000412051
-0.00107844
-0.00112278
-0.000479898
0.000534347
9.19281e-05
0.000648198
-0.000657843
-8.22839e-05
0.000189504
1.63499e-05
-0.0014475
0.00100858
-0.000527317
-0.000136939
-0.000344324
0.000148166
0.000701588
-9.81241e-05
-0.00075163
-0.00112209
0.000962966
0.00120495
0.000743306
-0.00323126
0.000629967
0.00185799
0.000176844
-2.97966e-05
3.29984e-05
0.00127207
-0.00127528
0.00220461
-0.000708036
-0.000732166
-0.000764411
-0.00107602
1.36238e-05
0.00147794
-0.000415547
-0.000136304
-0.00103831
0.0012523
-7.76853e-05
0.001043
-0.00142211
-0.000694696
0.00107381
-0.000986743
0.000958593
2.81501e-05
-2.94814e-05
0.000952364
-0.000922883
-0.000466131
-0.00109054
-0.000402457
0.00195913
-0.000810319
0.000906705
-9.63861e-05
-0.000152964
-0.00132768
-0.000334601
0.00181524
-0.00234319
0.000863873
-0.0012788
0.00275812
-0.00160391
3.71367e-05
0.00156677
0.000757878
0.000839144
-0.000810991
-0.000786031
0.000976152
-0.00055923
-0.000184669
-0.000232254
0.00130378
2.84205e-05
-0.0013322
0.00124572
-0.00372525
0.000136335
0.000845563
-3.13725e-05
-0.000814191
-0.00144443
-0.000572972
0.0019408
7.66022e-05
-0.000876882
0.00452868
-0.0027726
-0.000879203
-0.00263805
0.00317648
-0.000465197
-7.32312e-05
0.00157689
-0.000908666
0.00219052
-0.00077182
-0.00168096
0.00248287
-3.00897e-05
-4.81681e-06
-0.000121811
-0.00068035
0.000806977
0.00148807
0.00190645
-0.0021685
-0.00122602
-0.00152929
0.00180812
0.000496013
-0.000774843
0.00169574
-0.000310942
-0.000663191
-0.000721608
0.000145146
-0.00108549
-0.000188185
0.00112853
-0.00322225
9.97415e-05
0.00164921
0.0014733
-0.000591307
0.00225044
-0.000872466
-0.000786671
0.000382043
-0.000937498
0.00178658
-0.00123112
-0.00019315
-0.000553035
0.00104585
-0.000299664
-0.000918768
0.000977615
-6.24441e-05
3.59745e-06
0.00160061
-0.00180674
-8.67175e-05
0.000292843
-4.87362e-05
-0.0015958
0.00160844
3.60994e-05
0.000130409
-0.000116281
-0.00152643
0.0015123
0.0022087
-0.000362553
9.40431e-05
-0.00194019
-0.00145324
-0.000305387
0.000372924
0.00138571
0.000491617
-0.000491622
5.32106e-09
0.00108931
-0.000741139
0.000726794
0.000226326
0.00208679
-0.000124766
-0.00218835
-0.00033297
0.00022299
0.000277915
-0.000167935
-0.00162885
-0.00202537
0.002928
-0.00115806
0.00132611
0.00126298
-0.00143103
-6.50368e-05
0.00129206
-0.00162997
0.000402941
-0.0012396
-0.00129809
-8.23619e-05
-0.000334377
0.00171483
-7.02334e-06
-0.00066054
0.000667564
-7.59871e-06
-0.000952225
0.00221979
-0.00125996
0.000650554
0.000916144
0.00163424
-0.000818565
7.6445e-05
-0.000892121
0.000717869
-0.000199441
-0.00119857
0.000680144
0.000901553
4.28895e-05
-0.00137382
0.000429379
-0.000648993
0.000537518
0.00203442
-0.00192294
0.00174326
0.00124581
0.000163171
-0.00315224
-0.00155844
-9.83863e-05
0.000315743
0.00134109
-0.00130656
0.00139168
-8.51193e-05
-9.11251e-05
0.00086539
-0.000129782
-0.000644483
-0.00026796
0.00055118
-0.00028322
0.00109024
0.00154931
-0.000695648
-0.0019439
0.000933143
-0.000933995
8.51987e-07
-0.00264369
0.000617085
0.00147719
0.000549412
0.000107167
-4.72195e-05
0.00128425
-0.0013442
0.000822242
3.41531e-06
-0.000825657
0.00168881
-0.00187529
-0.00120429
0.00139077
-0.00148672
-0.0028719
0.00171493
-0.000290492
0.000187634
0.00119565
-0.00109279
-0.00051232
0.00155844
-0.000164332
-0.000881786
0.00032029
-0.000846603
0.00124418
0.000973897
4.67211e-05
-0.00102062
0.00289242
-0.000699377
0.00017191
-0.00236495
0.00109293
0.000312771
0.000699757
-0.00167179
0.00080347
0.000168561
-0.00175985
4.97587e-05
0.00131953
0.000390562
-0.000328135
-0.000724021
0.000766997
0.000285159
0.00103137
-0.00132797
0.000296599
-0.000365139
-0.000709917
0.00107506
0.00091057
-0.000589641
-0.00103366
0.000712734
-0.000390015
-0.000217
0.00156008
-0.000953066
-0.000766334
-0.00122495
0.000947752
0.00104353
-0.00150509
0.00137438
-2.53515e-05
0.000156054
-8.76856e-06
-0.00092873
-0.000225009
-0.000820703
0.00103524
1.0468e-05
0.00156999
-0.00147642
0.000428706
-0.000522275
0.00238294
-0.00237115
0.00108114
-0.000415463
0.000456066
-4.06027e-05
-0.000870997
0.000859691
1.13061e-05
-7.87023e-05
0.00109046
0.000372524
-0.00138428
-0.000691258
-0.00108919
-0.000429699
0.00221015
-0.000645516
-0.000496059
0.00224166
-0.00110008
0.00110986
0.000297607
-0.00148617
-0.000214392
0.00165447
-0.000752233
-0.000687845
0.000235177
-0.00109263
-0.000478886
0.00133634
-0.000304484
0.000187168
-0.00152329
0.0016406
0.00151748
-0.00109888
-0.000839925
-0.000626573
-0.000186885
0.00165338
0.000452841
-0.000229484
-0.000226845
3.48797e-06
-0.00177938
0.00207583
-0.000211449
-8.50022e-05
0.000581175
0.000641814
-0.000610883
-0.000612107
-0.000244577
0.00126859
2.66703e-05
-0.00105069
0.00141763
6.04624e-05
-0.00126686
-0.000211236
-0.000174652
-0.00174039
-0.00043111
0.00234615
-0.000150278
0.00125957
-0.00110929
0.00152477
0.00129505
-0.0017359
-0.00108392
0.00101109
7.59601e-07
-0.00101185
0.000111314
-0.00133188
-0.00033324
0.00155381
0.00238337
-0.000340055
-0.00112024
-0.000923074
3.39296e-05
0.00239627
-4.68249e-05
0.00117146
-0.00111949
-5.19672e-05
-0.000421755
-0.000821541
0.0012433
0.00217765
-0.000581121
-0.00136857
-0.00101851
-0.000995939
0.0016744
9.48131e-05
0.000402995
-0.00157211
0.0010743
5.65036e-05
-0.00135669
0.000848713
0.000451475
-6.62947e-06
0.0011825
6.85923e-06
-0.00118273
-0.000230253
-3.16442e-05
-0.00111782
-0.000294177
0.00141199
-1.89967e-05
-0.00097027
0.000989267
0.00207605
0.000157761
-0.000133183
-0.00210062
0.000869588
-0.00161069
0.000388205
0.000352896
0.000548514
1.34372e-06
-0.000549858
-0.00158317
0.000258332
-6.39431e-05
0.00138879
0.000566918
4.1903e-05
0.00123645
-0.00184527
-0.000582827
0.000629056
-0.00174774
0.00170151
0.000174478
-0.000229339
-0.00163485
0.00168971
0.00116264
-0.0010861
-0.00249663
0.000284744
0.000736547
-0.000751327
-0.00076202
0.000776799
-0.000672316
0.000675194
-2.87889e-06
-0.00159847
-0.000564556
0.00239537
-0.000343216
-0.00148759
-0.000931591
-0.000283281
0.00126393
-4.90568e-05
0.000268458
0.00151826
-0.000581402
-0.00120532
-0.00300911
-0.00252846
0.000197115
0.00242342
-9.2074e-05
0.000180032
0.00012976
-0.00104276
0.000732969
0.00166676
-0.00153987
-0.00171993
0.0012151
0.000348061
-0.00156316
0.00173154
-0.00032019
-0.00123896
-0.00017239
-0.00103542
-5.7367e-05
-0.000699104
0.00179189
0.00170073
-0.00143857
-0.0005063
0.000244145
7.49616e-05
0.000527195
-0.00162531
0.00102315
5.59839e-06
0.000884057
0.000135284
-0.00102494
-0.000824993
0.00105043
0.000296725
-0.000522166
1.23268e-05
0.00145331
-1.14867e-05
-0.00145415
-0.00109797
0.00111029
-0.00102338
-2.28602e-06
0.00102567
-0.00167011
-0.000154222
0.000417867
0.00140647
0.00117466
-0.00114862
0.000687408
-0.000713445
0.000289875
0.00102037
-0.00110173
-0.000208514
-0.0014138
0.00206931
-0.000238204
-0.000417301
0.000823448
-0.000786852
-3.65952e-05
1.6054e-05
0.000652591
0.00171429
-0.00138145
0.00117765
0.000507083
-0.000303281
-0.000340573
0.000758879
-0.000418306
-3.5441e-05
0.00118654
-0.0011511
-0.00185958
0.000705335
0.000361748
0.000792493
-0.00334
0.00243423
0.000921827
0.00247912
-0.000296436
-0.000424097
-0.00175859
0.000991683
0.00012164
0.000634621
-2.9436e-05
-0.000665033
5.98475e-05
0.000686737
-0.000538571
2.68035e-05
-0.00159544
0.00156864
-0.00275521
0.00197001
-0.000875204
0.00211122
-0.00142883
0.000192809
0.00144122
-0.00194934
0.000602931
0.0011079
-0.00202366
0.000390127
0.000525631
-0.00102907
0.00123602
-0.000206955
0.00214738
0.000449574
-5.27228e-06
-0.00259168
-0.00103169
0.00104052
-8.83317e-06
0.00280678
-0.0025156
0.000324693
0.00166339
-5.42795e-05
-0.00160911
0.00119367
-0.00121683
2.31601e-05
-0.00119336
0.000134067
0.00105929
-0.000459965
-0.0011292
0.000395803
-0.00244196