/*--------------------------------*- C++ -*----------------------------------*\
  =========                 |
  \\      /  F ield         | OpenFOAM: The Open Source CFD Toolbox
   \\    /   O peration     | Website:  https://openfoam.org
    \\  /    A nd           | Version:  10
     \\/     M anipulation  |
\*---------------------------------------------------------------------------*/
FoamFile
{
    format      ascii;
    class       volScalarField;
    location    "70";
    object      T;
}
// * * * * * * * * * * * * * * * * * * * * * * * * * * * * * * * * * * * * * //

dimensions      [0 0 0 1 0 0 0];

internalField   nonuniform List<scalar> 
59698
(
286.612
292.869
293.305
293.543
299.957
283.15
292.538
293.494
303.15
303.15
303.15
293.178
283.15
293.767
300.137
303.15
294.065
293.448
293.174
293.801
303.281
302.131
303.148
303.15
295.679
293.447
293.104
298.353
295.698
295.351
300.291
303.15
303.15
298.832
302.369
293.265
283.382
283.464
293.444
297.542
296.225
283.15
296.566
293.85
283.15
296.592
293.303
295.264
294.65
293.578
293.062
293.339
292.348
294.54
294.386
293.195
294.281
302.176
294.241
282.978
291.245
294.299
299.618
293.202
286.792
294.462
303.15
293.177
293.175
303.15
283.15
293.78
283.135
298.549
283.15
297.796
294.54
287.694
291.645
294.145
299.954
292.579
303.15
293.441
303.703
294.507
294.184
293.555
298.875
293.881
303.15
294.739
298.98
293.54
293.77
293.512
299.055
293.521
298.903
283.15
299.105
283.127
285.914
284.501
293.371
283.15
293.469
293.134
303.15
283.15
293.403
293.656
298.859
283.15
293.42
293.235
293.408
293.42
293.44
303.15
293.252
292.837
293.439
293.293
293.376
293.246
295.477
303.15
293.381
292.889
287.511
292.984
303.15
292.758
290.223
291.66
292.897
303.15
293.123
293.463
293.464
293.765
290.847
292.129
292.907
293.58
293.379
293.385
293.45
301.183
283.138
303.15
288.084
293.269
294.056
293.369
293.308
293.475
296.966
283.15
289.677
293.438
290.767
299.551
297.822
296.703
292.906
280.914
299.359
292.194
300.38
283.151
300.947
301.013
285.529
292.809
303.15
283.237
303.15
298.942
302.765
300.417
298.65
293.241
298.704
300.855
300.767
293.859
292.993
294.717
294.358
293.667
296.595
297.457
299.392
293.591
293.924
296.59
303.155
299.388
283.15
284.144
292.45
292.801
299.3
290.943
297.344
295.414
293.592
298.043
293.134
293.707
299.127
303.15
294.872
293.455
293.279
294.061
297.844
296.023
282.052
296.33
292.639
299.29
295.27
299.343
295.826
291.35
295.659
285.009
283.15
296.155
295.169
295.829
293.43
294.814
295.993
293.739
293.564
295.002
293.236
293.983
289.948
303.15
294.636
293.581
282.929
285.598
293.629
293.301
293.827
294.941
295.146
303.15
293.591
294.752
294.119
295.305
292.851
293.302
303.12
283.15
294.455
294.34
294.822
295.347
292.667
303.15
293.473
293.291
293.325
286.646
303.101
293.309
287.324
293.709
292.905
293.633
293.967
303.15
303.15
292.903
293.335
289.064
295.135
290.69
292.951
303.15
286.013
294.611
301.405
291.291
293.396
293.414
294.889
293.604
292.717
293.627
295.101
292.674
291.441
283.15
283.15
292.613
293.236
293.2
287.827
293.657
294.63
293.058
293.117
293.316
293.371
283.15
293.714
292.674
283.15
293.724
283.15
293.586
293.872
293.408
293.999
303.15
298.326
286.25
294.105
293.712
292.431
283.15
300.182
290.667
298.882
281.565
303.15
293.799
293.696
292.553
298.462
293.85
295.125
295.548
292.633
294.981
298.954
293.306
295.601
301.429
293.729
289.168
292.817
293.044
301.358
303.15
284.201
300.746
302.091
293.327
293.638
303.15
293.301
293.849
303.15
295.005
283.15
283.15
293.551
290.469
293.543
282.756
292.669
283.15
292.739
283.15
296.427
303.15
293.54
292.915
283.15
303.15
283.15
292.713
293.304
293.513
293.505
283.148
293.503
283.15
283.15
293.408
293.817
303.15
294.608
290.727
303.133
301.991
301.761
293.518
292.672
292.794
288.505
295.72
292.732
293.361
293.549
293.484
295.965
293.293
295.673
302.254
297.902
303.15
295.28
303.15
293.441
289.818
292.981
283.574
302.299
302.832
294.384
293.422
290.792
282.012
293.369
293.327
303.15
294.394
293.273
283.15
295.498
302.787
285.303
291.841
287.573
303.15
303.15
298.657
292.866
291.93
283.15
292.19
303.15
293.651
293.149
302.914
294.855
283.15
293.463
299.205
292.737
293.295
294.104
286.327
294.008
293.625
290.653
303.15
284.307
293.324
290.065
293.388
283.963
293.929
303.15
293.569
293.407
291.9
294.112
294.982
295.101
283.15
283.15
283.15
294.051
293.141
302.758
292.128
293.701
294.02
293.38
293.599
293.38
283.15
300.933
293.369
293.505
293.384
291.944
292.866
299.051
290.502
291.369
293.475
292.097
293.489
293.436
293.507
289.592
283.15
283.15
295.191
299.058
294.678
283.15
303.15
293.341
303.15
293.358
290.288
294.704
290.692
283.148
283.15
291.635
293.351
283.15
293.388
283.15
283.15
289.564
293.961
293.395
283.15
283.15
302.994
294.944
292.607
289.842
288.753
293.262
301.433
303.15
293.428
293.559
283.15
283.15
286.364
293.393
303.15
290.005
292.983
293.115
281.265
289.378
291.833
282.229
283.132
290.838
283.147
293.352
303.15
293.475
303.15
292.889
293.312
283.15
295.584
291.513
291.836
283.15
303.15
293.5
283.123
293.32
303.15
286.369
293.343
291.211
303.15
292.077
293.455
283.15
291.906
290.96
293.528
293.093
292.276
295.525
303.15
283.15
293.565
285.257
293.206
292.368
283.15
292.431
293.184
289.72
291.653
291.959
296.415
293.078
293.122
283.15
293.37
303.15
282.782
283.15
283.15
290.932
290.972
283.15
293.461
291.041
291.615
292.895
283.15
291.076
293.318
293.296
292.538
293.302
292.114
291.114
291.146
293.267
297.854
285.619
293.263
283.15
291.153
291.922
302.963
295.262
293.734
290.927
292.229
292.02
292.078
295.602
283.15
293.222
291.362
293.063
292.148
292.081
293.252
293.2
286.961
293.495
292.773
283.15
303.15
292.039
294.052
292.803
293.72
293.658
283.15
283.15
293.17
288.565
291.777
291.998
293.251
293.018
303.147
293.606
292.389
293.668
293.391
290.99
283.798
301.815
291.642
293.687
293.772
291.801
288.922
283.15
293.523
292.812
293.535
292.861
291.679
283.15
295.324
293.219
292.88
292.428
293.517
283.15
283.15
291.898
293.009
291.899
292.953
291.993
295.744
290.799
297.159
293.962
291.728
290.814
293.62
293.625
292.589
283.15
292.869
283.15
283.15
292.549
291.772
293.24
303.15
296.515
293.124
292.092
283.15
293.672
283.15
293.755
283.15
293.441
297.638
289.345
293.162
303.15
283.15
297.88
297.945
293.191
292.059
295.603
297.222
295.564
283.15
296.227
293.303
282.86
283.15
290.523
300.33
283.15
291.12
292.812
303.15
297.634
287.954
293.091
293.824
283.27
297.043
294.591
294.53
283.596
283.45
292.466
286.006
293.061
296.877
293.742
298.1
283.15
292.92
290.279
295.084
303.15
293.417
296.899
283.15
298.222
295.934
292.317
293.865
296.74
293.147
283.15
294.934
294.571
283.15
283.15
292.343
283.15
289.445
293.558
292.408
294.536
294.555
297.445
283.15
293.697
290.457
294.878
295.29
295.322
283.15
284.361
298.844
293.572
288.636
297.671
301.038
293.495
302.766
283.15
283.15
283.15
292.667
292.765
283.15
292.553
293.573
298.05
283.164
292.523
291.712
283.15
282.348
283.15
283.15
292.575
283.15
303.103
298.497
303.15
292.55
284.572
288.63
292.545
282.177
293.471
283.228
283.15
283.15
291.277
294.728
296.696
283.15
295.799
292.658
292.671
283.15
292.656
292.684
283.162
283.15
283.132
283.174
303.15
283.15
283.15
283.15
283.15
291.193
292.95
291.045
283.15
294.639
293.275
283.15
285.399
283.15
292.754
283.15
299.429
295.185
291.976
292.586
292.759
295.898
303.15
295.881
292.893
283.15
292.6
283.149
293.311
283.15
292.046
283.15
284.111
283.15
290.386
283.15
293.503
291.775
294.916
292.689
291.904
292.716
292.103
283.15
283.15
292.71
293.545
293.046
293.216
283.15
294.323
296.325
296.011
283.15
294.117
295.07
293.418
296.749
303.15
283.15
295.896
292.366
283.15
292.945
293.415
283.15
295.892
292.792
293.137
293.592
283.15
293.261
293.338
283.15
303.15
293.039
292.954
292.888
295.909
297.65
294.001
296.693
290.215
294.987
295.622
293.564
291.429
290.736
286.605
292.123
283.15
289.768
283.15
296.571
295.754
291.92
290.298
283.15
283.15
297.546
291.279
290.051
296.142
296.761
293.397
295.391
285.343
294.015
293.186
293.36
283.15
293.38
292.941
293.24
293.064
293.291
293.395
303.15
293.34
293.499
294.49
303.15
293.565
296.663
294.178
293.519
293.859
294.466
295.684
292.888
303.15
303.15
283.15
295.552
283.15
293.57
291.467
302.709
298.556
293.047
295.018
302.162
297.859
294.934
295.852
293.722
293.132
295.692
293.882
290.642
287.754
294.115
283.15
293.134
303.15
283.168
294.721
300.398
294.707
303.15
303.15
292.731
293.395
294.908
292.727
293.006
292.616
283.15
293.741
293.22
298.387
283.15
294.561
295.254
302.804
293.054
293.698
302.801
293.208
293.537
302.809
292.739
294.557
295.189
296.446
295.365
295.996
295.225
293.479
292.907
303.15
295.488
296.538
293.256
283.15
293.209
297.703
293.095
293.628
293.127
295.361
292.793
287.747
294.509
290.995
292.827
303.15
293.569
288.106
283.15
303.15
294.044
294.206
295.99
294.324
289.341
303.15
303.15
293.09
283.15
295.022
294.443
294.313
294.429
293.95
303.15
303.15
284.108
294.318
295.121
303.15
294.082
296.131
303.15
282.443
292.912
283.568
291.985
294.357
292.922
293.208
294.106
303.15
293.775
291.731
293.102
292.933
293.001
293.566
294.39
301.06
303.15
297.23
302.917
293.024
301.676
287.115
291.096
295.279
297.728
297.109
289.463
289.148
293.327
283.15
288.114
292.877
303.15
293.336
300.981
293.128
294.508
294.323
294.939
283.15
302.392
289.602
294.812
294.646
292.521
283.15
303.15
293.513
286.769
283.15
292.946
292.986
294.664
293.474
304.934
293.336
295.044
292.736
295.302
293.402
287.085
294.942
303.15
292.729
292.91
292.918
290.192
293.281
300.809
301.125
293.371
295.893
299.15
302.602
293.683
293.371
293.055
302.575
287.714
300.265
291.919
292.139
295.94
295.794
295.387
293.304
295.256
303.15
286.069
298.863
295.793
293.754
292.991
297.24
293.72
298.994
293.77
293.133
293.663
293.57
303.15
293.359
303.15
292.583
292.863
294.043
292.086
293.173
285.404
292.805
303.15
294.482
291.967
288.948
292.44
293.369
303.15
303.15
293.554
293.425
283.15
303.15
293.131
293.509
294.143
283.15
303.15
292.82
293.319
293.284
292.955
285.235
292.618
283.15
284.976
303.15
293.431
283.15
303.143
303.15
297.274
290.557
293.22
297.351
296.698
292.318
303.15
293.341
293.347
296.902
282.331
296.653
293.035
303.15
293.387
303.15
296.78
284.59
283.15
291.185
297.603
293.496
302.763
297.496
295.759
297.462
291.4
297.624
283.15
283.15
297.493
297.425
294.318
303.15
292.809
291.91
293.736
293.665
294.08
294.361
294.159
293.332
291.255
293.251
300.615
285.599
297.025
303.023
293.203
303.15
294.745
283.15
299.957
303.15
303.15
293.501
283.15
300.656
293.197
283.15
303.15
292.054
292.898
303.15
293.494
291.79
293.094
293.672
302.96
303.15
297.472
293.752
283.15
289.037
292.017
293.17
283.097
303.15
293.122
303.15
293.203
303.15
293.152
297.884
297.78
296.962
297.556
294.28
293.144
286.811
293.75
283.15
292.02
298.048
294.839
296.661
283.15
301.155
293.202
303.15
293.316
296.998
296.293
303.15
303.15
293.283
288.943
287.341
294.315
289.22
289.607
303.15
303.15
283.15
292.115
287.789
303.15
299.771
303.15
287.569
303.15
303.15
303.15
291.702
290.751
299.278
303.15
292.603
292.929
303.15
291.921
287.297
282.677
293.72
283.731
295.845
291.704
292.135
283.312
293.655
292.23
303.15
303.15
285.19
288.651
292.717
283.578
283.284
292.914
289.885
293.124
283.15
295.281
291.708
294.634
287.693
285.208
293.946
303.15
292.246
284.06
290.956
293.999
300.947
291.98
292.382
292.556
293.508
298.097
292.207
292.922
293.494
283.9
286.79
283.775
292.978
284.863
292.867
284.223
303.15
294.046
290.56
288.493
292.639
303.112
303.15
293.394
284.407
294.784
300.622
284.976
285.124
298.431
294.549
284.945
282.307
294.005
303.15
287.372
283.15
283.129
285.152
303.15
297.594
283.151
292.995
303.15
284.927
300.028
303.15
283.15
289.27
295.128
296.522
297.862
283.514
303.15
285.245
291.855
293.361
283.15
293.917
283.15
303.125
293.453
303.15
294.348
293.464
292.61
293.424
293.425
293.573
300.119
298.993
285.917
283.138
299.321
293.6
299.422
303.15
283.15
293.377
296.287
285.77
292.942
292.789
288.097
293.753
293.563
293.152
293.547
293.539
296.752
303.15
293.695
293.546
303.15
288.561
293.573
283.15
288.199
303.15
296.126
293.572
303.15
296.85
302.675
290.223
292.505
286.905
288.128
303.15
283.15
303.15
283.15
283.15
294.162
293.576
283.14
291.907
283.208
303.15
288.303
288.774
287.966
294.287
288.259
294.901
289.065
286.217
303.15
287.442
291.776
292.992
303.15
300.56
292.907
289.595
303.228
303.15
299.149
293.498
290.461
303.15
293.43
290.511
293.501
297.733
297.124
290.167
295.02
303.15
303.15
290.271
290.295
283.934
295.154
283.154
283.575
303.15
283.797
290.226
303.15
283.15
283.004
283.15
290.352
299.842
303.15
290.327
303.15
303.15
283.68
293.806
283.15
283.149
303.15
293.273
292.423
303.15
303.15
291.361
283.127
290.958
303.15
283.139
293.464
290.991
290.991
300.717
283.15
290.994
303.15
294.701
294.211
303.15
303.15
303.15
292.523
283.15
291.126
291.881
303.15
283.14
291.298
303.15
303.15
303.15
292.416
283.15
293.58
283.15
293.787
291.629
283.15
296.146
303.15
283.15
291.55
291.432
291.413
294.059
283.15
293.468
291.775
291.82
293.856
283.14
283.15
303.15
283.15
283.15
283.15
292.968
303.15
293.616
294.224
303.15
285.304
293.661
293.207
293.484
292.945
293.562
297.22
292.993
296.723
295.914
292.535
293.473
292.957
292.191
292.281
293.479
292.185
298.953
293.639
287.278
293.244
304.958
284.037
292.369
300.336
283.134
293.555
291.735
303.15
294.398
296.511
295.246
292.629
301.433
296.24
292.198
298.939
293.104
302.824
297.69
300.389
292.317
285.249
294.214
289.321
294.342
295.908
297.481
292.779
296.645
283.15
293.222
294.764
292.784
283.143
299.574
293.016
288.104
293.086
283.15
297.882
293.735
283.15
293.605
292.508
292.974
295.056
283.15
293.101
298.398
293.737
300.33
292.877
294.441
292.872
293.601
298.437
291.699
292.484
284.612
293.489
292.676
293.367
283.15
303.15
292.513
297.146
298.049
301.571
283.455
292.507
292.851
293.563
292.406
292.4
303.151
291.673
293.654
292.541
283.139
292.589
292.568
292.803
301.988
293.901
292.685
303.188
293.706
293.172
283.15
299.012
292.84
302.105
302.828
294.666
292.77
293.239
292.053
293.428
292.682
293.535
283.15
293.224
292.677
295.157
302.942
293.04
288.181
292.999
298.904
293.011
283.158
293.133
292.342
293.463
292.696
295.254
293.326
302.926
293.273
292.682
291.265
298.25
302.944
293.281
292.703
292.74
298.524
294.067
294.317
288.186
289.743
293.35
294.464
289.061
294.119
292.92
289.317
302.813
292.836
293.351
289.44
293.385
293.299
294.024
299.713
292.778
294.615
292.218
293.466
292.812
293.138
292.792
295.054
287.184
298.583
299.534
289.313
293.072
293.176
294.787
295.99
293.359
292.772
293.336
298.674
285.528
293.077
292.928
292.82
292.811
292.819
296.224
287.988
296.563
293.336
292.864
293.168
299.581
303.15
293.419
292.859
292.991
296.973
293.405
299.697
292.873
293.41
292.857
292.86
299.658
293.625
292.895
301.302
292.077
283.15
293.157
294.341
292.002
289.327
293.416
303.15
294.295
301.439
293.456
293.189
292.89
283.15
293.295
301.372
287.263
290.356
292.986
283.15
283.231
295.972
293.133
283.15
298.925
291.966
290.404
290.57
283.15
303.15
298.532
293.43
294.388
295.699
295.009
301.377
293.37
301.194
295.297
292.991
292.1
303.15
293.613
300.079
295.449
295.687
291.919
302.833
286.645
295.632
293.864
292.384
296.219
295.423
283.15
291.141
292.619
295.758
294.101
293.069
293.355
292.66
296.434
296.08
295.189
296.198
294.292
295.796
294.784
292.94
291.976
295.616
295.817
296.784
300.267
297.34
297.455
297.952
301.24
293.07
303.146
283.15
290.486
283.15
292.641
301.794
303.552
295.267
303.01
303.129
291.145
283.15
292.096
292.667
290.831
293.136
300.602
283.15
291.096
303.15
293.066
293.485
293.614
301.067
295.24
293.165
302.015
294.057
289.213
302.273
286.672
295.418
291.733
292.613
294.635
300.55
302.96
293.229
289.819
289.042
294.068
295.288
294.648
295.879
292.847
293.225
292.549
294.208
294.247
295.802
291.135
292.942
292.973
293.774
292.976
293.432
290.951
294.096
292.895
292.177
293.344
293.396
294.699
293.336
293.347
293.553
286.562
302.179
291.965
299.926
296.663
294.706
292.824
295.979
303.15
293.175
293.139
292.954
295.299
296.776
295.48
294.313
298.71
288.435
293.319
283.143
292.922
291.34
291.612
293.348
293.348
292.664
293.355
296.161
297.915
300.887
295.602
294.844
293.511
292.831
293.844
295.388
293.748
295.508
294.703
289.673
293.417
295.69
300.953
296.728
293.435
303.15
292.58
295.696
293.367
294.692
283.15
293.639
292.377
293.48
290.628
292.994
293.641
293.603
292.93
293.276
295.197
293.161
295.382
290.841
292.431
293.597
283.15
293.638
292.259
293.739
293.57
295.097
295.177
293.165
293.158
295.48
293.016
292.992
296.654
296.182
293.434
297.952
292.878
293.911
293.363
293.693
293.668
292.312
296.018
293.075
296.423
295.426
294.962
299.986
292.908
296.172
295.107
296.779
295.665
293.658
292.868
293.027
292.97
292.815
293.411
303.15
294.006
289.365
283.15
283.15
292.521
292.94
293.223
299.29
292.976
292.901
293.547
293.788
292.917
292.617
292.831
300.857
286.346
287.368
293.274
293.893
293.729
292.937
294.224
292.821
283.15
292.969
291.719
295.92
293.282
293.195
292.71
284.192
288.496
292.318
294.619
293.442
293.312
303.15
293.168
293.611
293.774
293.252
292.014
292.972
293.165
293.493
303.15
287.153
291.366
293.439
293.292
293.654
292.016
293.512
291.373
290.502
283.15
283.15
294.585
293.429
291.659
294.161
293.513
291.597
293.116
293.614
293.098
303.15
283.411
292.812
293.591
290.628
292.719
295.832
293.207
292.074
285.204
292.975
289.288
295.578
291.021
293.909
302.025
294.38
293.608
283.15
294.242
293.217
296.877
293.815
300.494
291.968
301.255
292.647
297.619
292.807
294.611
293.398
293.749
293.437
293.897
295.041
292.924
293.41
293.357
292.989
293.457
292.155
292.986
293.458
293.454
293.46
292.772
292.067
299.355
293.97
293.879
283.15
283.15
291.123
292.775
294.358
294.574
294.045
291.647
292.2
293.62
292.324
294.094
289.773
292.797
292.178
292.133
292.796
292.992
293.603
290.945
293.094
302.665
290.506
292.684
296.799
293.348
285.565
293.405
298.648
303.388
296.196
293.645
293.174
293.118
298.424
293.781
290.081
292.882
293.94
286.382
285.953
292.733
292.757
293.283
292.94
294.028
293.385
292.773
293.743
293.556
293.058
294.725
294.95
293.373
292.259
292.247
293.063
293.691
293.71
293.383
292.729
292.94
293.27
293.266
293.392
292.94
303.15
303.15
292.774
292.024
295.68
293.266
292.881
293.106
297.003
293.319
291.966
293.541
293.511
291.255
290.81
292.798
290.875
292.732
293.681
292.616
295.398
295.463
293.311
294.527
294.51
293.763
292.726
303.244
293.154
303.15
292.833
291.766
292.737
296.086
292.963
293.375
293.149
292.605
291.149
294.381
294.514
283.15
303.15
282.89
292.775
301.982
284.041
303.15
293.365
300.864
294.271
283.15
291.748
293.052
292.88
293.047
303.15
303.15
293.357
283.15
296.678
293.319
295.554
294.341
294.944
293.895
292.699
296.772
293.28
283.15
300.787
303.15
303.15
297.825
293.857
294.849
294.732
293.014
283.15
300.976
292.101
293.208
291.233
291.807
303.15
293.165
292.947
293.21
291.013
292.795
300.84
292.806
292.666
292.654
294.428
292.199
292.681
283.15
292.165
293.717
292.685
296.681
301.944
302.709
293.557
295.793
293.648
293.211
291.447
292.102
300.579
293.042
283.15
291.82
290.471
290.345
290.517
291.798
290.475
283.15
303.15
297.115
293.293
292.501
295.104
291.546
297.946
283.146
293.499
283.671
293.458
293.466
292.985
293.295
293.358
293.35
292.183
294.94
303.15
295.687
284.939
292.871
297.803
298.037
293.774
292.088
293.352
298.079
293.375
296.166
293.419
292.437
298.682
292.774
294.559
298.115
294.139
296.561
293.845
293.349
293.352
297.008
293.302
293.053
291.94
292.562
293.074
293.3
292.748
291.936
291.519
291.253
293.718
295.878
292.069
283.15
292.533
293.419
291.864
299.656
291.871
294.104
286.315
291.133
290.729
292.064
293.857
292.799
293.494
292.374
293.396
292.747
293.201
283.15
290.85
293.397
296.814
292.617
296.332
294.102
295.967
297.508
295.566
287.429
297.25
294.01
295.385
293.199
294.176
297.508
292.759
292.612
293.417
292.772
290.558
294.817
293.356
293.842
293.57
283.15
290.116
292.472
293.605
293.402
293.172
293.275
292.308
293.097
293.711
293.275
295.595
298.737
292.843
302.765
301.087
303.15
293.801
294.232
293.401
295.412
293.445
295.141
293.734
293.676
292.106
302.512
283.15
298.122
290.02
294.402
292.775
300.308
292.96
288.351
300.869
287.184
290.684
290.298
292.991
283.116
291.994
289.943
282.4
293.562
293.486
293.61
296.776
292.315
284.919
291.399
302.404
292.655
292.302
297.404
303.181
293.035
291.647
294.832
290.945
292.734
293.496
293.226
284.314
293.24
294.577
293.105
293.176
291.427
293.445
293.84
293.038
292.964
293.587
300.293
293.148
293.539
293.596
294.647
300.452
290.229
293.588
292.965
298.925
293.377
292.401
293.478
283.222
283.15
297.224
293.223
285.058
297.046
283.145
291.992
292.09
298.602
293.576
292.452
290.648
293.316
283.15
283.149
292.388
293.217
282.639
291.896
292.099
292.442
303.151
293.613
293.217
293.648
286.008
293.095
292.388
292.099
297.337
286.008
283.744
293.36
284.423
283.287
293.773
293.674
293.8
292.314
284.347
293.852
293.376
289.461
297.388
287.144
291.299
291.974
293.571
295.708
292.822
296.342
293.143
293.34
293.335
296.762
292.713
303.15
287.447
294.976
285.613
293.849
285.81
292.046
296.631
287.971
293.033
303.15
286.261
292.078
288.225
285.272
285.173
290.775
285.463
288.542
291.915
294.505
295.592
292.6
289.246
294.609
294.001
293.042
294.637
293.011
293.072
293.931
288.529
299.549
288.962
288.381
287.412
292.962
286.462
302.408
291.908
295.186
292.962
293.45
294.83
291.01
291.25
293.361
293.455
295.857
283.15
292.503
291.786
293.251
283.15
283.15
302.586
296.431
286.895
293.387
293.62
294.45
293.923
303.103
283.15
292.356
293.454
294.411
292.478
292.766
293.442
292.133
284.078
299.071
291.817
293.567
291.559
293.921
290.921
293.929
300.073
292.615
299.602
291.843
299.154
299.183
302.339
302.086
299.491
299.691
299.539
289.066
293.381
292.465
291.828
292.884
288.849
293.569
294.171
290.627
292.547
285.596
292.291
292.826
291.579
289.985
293.516
291.232
301.041
293.606
299.979
301.473
289.116
293.457
293.753
291.98
290.289
299.052
290.779
292.413
293.636
292.125
283.15
292.029
292.099
293.184
293.888
292.966
292.121
290.843
292.78
290.854
292.179
293.903
293.117
292.826
292.127
297.39
293.437
291.748
293.32
292.635
292.187
295.93
283.15
292.869
293.088
292.132
293.625
290.962
293.086
292.852
293.01
301.897
302.26
294.633
293.483
301.12
304.618
292.447
302.213
302.157
293.47
292.457
292.988
293.156
302.35
294.175
292.908
293.122
302.348
293.524
293.69
292.606
292.478
292.78
294.119
293.206
303.081
293.484
296.166
292.788
292.506
292.552
292.545
293.107
292.498
290.507
292.512
293.141
293.048
293.035
294.125
293.049
299.248
292.822
292.671
293.219
287.06
301.44
293.435
301.092
291.201
300.511
293.207
301.531
283.15
298.679
293.282
290.922
290.454
296.675
298.691
297.844
294.203
292.807
293.569
300.207
292.813
291.798
298.931
292.834
283.151
292.944
284.223
299.025
287.921
299.04
291.656
293.104
293.784
295.765
293.196
293.251
292.675
296.74
289.164
295.196
292.977
297.324
292.859
292.882
298.137
297.06
291.27
291.806
297.132
290.325
287.461
297.55
298.817
303.15
292.207
285.554
293.552
304.276
291.268
287.625
296.085
283.15
296.476
283.15
291.651
294.77
297.509
293.027
292.296
293.74
292.175
292.233
293.89
294.098
301.829
283.15
296.494
286.16
297.306
292.654
294.451
292.661
301.926
294.084
295.022
294.922
288.684
295.617
300.13
292.676
292.648
293.461
293.613
299.366
296.616
292.564
292.556
290.752
292.793
294.537
294.234
303.144
295.584
295.693
290.641
299.17
290.289
293.485
303.15
293.357
283.15
293.308
293.316
286.959
294.897
292.377
293.181
292.326
291.091
283.15
293.514
287.954
292.802
294.348
291.282
292.808
289.733
293.408
298.282
295.802
300.581
291.78
293.4
293.028
294.058
284.597
296.419
297.133
292.199
296.645
293.736
296.63
297.124
300.246
295.156
294.376
290.555
292.721
292.737
303.109
303.15
292.879
295.385
290.316
293.447
292.979
303.15
303.15
293.947
294.789
293.44
295.101
295.23
287.266
295.087
294.703
295.175
295.231
295.847
289.75
291.714
292.532
298.626
293.484
293.975
293.046
292.968
302.505
290.589
293.623
292.561
294.036
292.965
283.15
292.827
292.348
292.965
293.993
291.636
293.244
302.704
293.251
293.244
298.27
295.651
303.15
288.104
297.619
300.901
293.643
292.392
295.847
296.003
293.487
294.073
293.256
294.753
292.658
292.948
291.695
296.359
292.356
293.724
297.255
293.399
297.035
293.496
292.416
293.086
293.108
293.45
294.053
295.573
295.032
293.492
300.819
295.228
292.184
292.245
293.245
293.368
293.267
293.103
292.347
289.489
293.281
291.995
303.15
293.492
293.549
294.255
294.71
292.804
293.26
302.456
295.148
297.41
289.858
289.765
293.275
293.465
293.79
293.699
294.145
290.406
293.449
293.291
293.341
292.916
293.005
293.46
293.352
292.96
294.257
295.594
285.179
291.719
291.994
294.5
294.386
293.147
295.972
295.659
295.901
295.663
294.998
295.658
293.429
295.38
295.33
290.232
292.116
291.504
295.208
293.124
294.779
293.029
302.97
294.666
295.679
296.87
285.487
295.169
290.261
285.43
293.312
290.282
293.756
292.035
282.849
293.297
294.995
292.763
292.905
300.07
297.295
283.145
297.862
292.748
300.967
290.298
293.523
293.244
293.563
301.324
296.122
293.602
291.781
295.246
293.154
283.15
294.643
292.584
293.592
293.069
295.586
292.575
293.195
292.309
293.256
293.661
291.95
295.002
292.784
290.918
293.238
293.395
291.119
293.484
290.434
289.491
292.985
296.961
293.22
297.626
286.677
293.32
299.377
290.224
293.371
303.202
293.392
292.771
293.291
294.592
293.039
283.15
289.775
293.349
293.144
294.368
292.624
290.824
291.371
287.295
290.098
297.475
295.795
293.541
297.287
283.603
292.693
288.68
303.15
297.598
293.006
292.29
292.771
294.255
293.119
294.308
292.828
298.144
290.159
303.15
290.134
289.597
287.533
289.977
289.547
291.986
286.332
303.15
292.124
289.708
286.59
292.77
292.838
292.436
293.038
289.997
296.715
293.365
293.244
292.81
293.842
293.767
301.588
292.632
288.68
292.759
293.5
296.617
292.567
294.977
293.394
300.9
292.989
292.825
294.082
293.363
293.878
286.241
295.419
293.768
295.876
293.476
293.823
293.605
302.449
293.041
293.369
295.442
303.114
293.145
294.439
283.15
293.815
296.743
289.413
293.299
291.566
293.659
295.697
293.553
293.878
295.7
294.578
296.614
293.323
293.733
292.998
293.655
303.15
293.606
293.345
293.567
292.85
293.727
293.284
292.979
292.64
287.482
283.186
292.539
293.899
293.071
293.662
290.307
294.444
293.666
293.454
292.829
293.313
293.212
293.27
292.975
292.974
292.975
294.287
293.332
293.402
293.117
294.408
292.393
298.832
290.608
293.75
296.532
293.659
293.78
296.887
297.075
296.904
293.345
292.751
291.794
292.28
293.661
292.911
297.218
287.57
301.621
293.573
292.28
293.764
293.109
292.924
291.729
291.548
293.335
291.697
292.811
293.586
287.045
294.357
288.482
295.192
292.988
291.966
293.544
293.204
293.024
283.15
283.15
292.893
290.043
296.741
293.08
293.184
293.037
293.008
293.206
290.984
296.135
293.567
291.739
283.15
293.704
293.589
291.628
290.997
286.732
287.809
288.537
291.264
291.322
297.69
294.161
294.194
294.446
300.989
285.014
295.939
294.457
285.045
284.927
293.025
293.197
290.686
291.434
296.453
293.16
283.15
291.203
293.432
297.488
285.012
293.645
291.137
295.807
296.926
289.184
292.231
293.919
300.25
293.381
301.695
294.021
292.718
292.559
293.833
293.449
294.114
291.093
293.666
284.095
291.121
293.636
292.665
294.002
293.471
293.003
293.336
293.484
293.716
292.342
293.037
283.717
292.131
293.16
293.939
293.63
284.774
292.07
293.45
283.15
293.382
294.178
294.104
293.484
293.377
293.742
293.201
293.67
301.233
283.573
292.911
288.409
283.15
293.534
288.447
293.534
293.433
293.869
283.15
293.07
293.245
293.301
283.15
293.905
293.234
293.438
292.896
293.819
286.956
293.969
293.466
293.375
293.32
292.785
293.969
292.786
294.103
283.15
293.356
292.96
293.418
293.236
294.246
293.176
293.875
293.722
287.004
293.673
293.444
294.581
294.165
294.02
294.107
294.466
293.459
290.611
294.085
293.623
292.171
294.144
293.775
294.207
293.399
302.489
294.506
295.207
297.19
293.364
295.384
293.392
292.841
283.15
293.667
293.343
295.689
293.321
291.758
296.681
293.527
290.913
298.885
292.075
291.784
290.552
290.806
294.235
292.681
292.626
293.45
283.15
293.318
292.677
292.59
292.605
292.605
292.521
293.393
293.641
293.765
293.341
293.657
293.749
293.476
293.339
293.159
292.221
292.814
293.472
292.425
292.487
293.465
293.089
293.382
295.013
292.966
292.638
294.619
294.113
293.608
294.377
292.638
293.646
293.576
293.72
293.448
284.893
293.721
292.79
292.966
292.901
283.728
293.207
293.321
283.215
284.926
283.15
293.404
293.451
283.749
293.166
293.122
283.15
284.993
290.096
293.366
293.455
292.742
293.801
294.096
294.199
294.097
294.114
294.162
293.27
293.418
293.351
285.298
293.469
289.57
285.503
285.344
290.981
293.993
293.647
293.29
294.118
294.045
294.463
292.974
290.266
293.523
293.584
293.665
291.616
294.135
293.404
293.611
294.299
293.889
293.503
293.627
294.03
293.477
291.421
293.594
293.366
293.834
294.351
293.049
293.592
283.15
292.662
293.152
293.343
293.49
290.62
293.964
292.308
289.993
293.416
293.608
293.167
292.671
288.736
291.638
289.235
301.691
295.532
289.024
293.262
292.796
296.053
293.459
292.964
290.265
293.126
289.021
293.441
291.686
293.281
296.32
288.942
303.15
293.524
293.386
294.051
288.742
295.595
291.085
293.785
290.81
290.983
300.424
283.21
290.838
295.203
293.576
293.783
293.527
290.604
294.367
293.775
293.097
293.618
291.43
293.565
289.67
291.999
293.977
283.15
284.932
289.145
291.542
293.796
291.372
292.735
292.616
292.634
293.57
285.765
287.996
292.51
293.682
293.703
294.26
303.15
292.61
293.653
296.837
303.15
288.249
293.288
294.027
293.276
290.411
291.748
292.653
288.967
294.028
292.687
285.25
295.328
283.15
293.665
293.242
293.584
293.446
293.544
294.195
293.549
293.76
293.144
293.871
299.044
292.571
292.024
292.149
294.897
292.313
292.774
286.514
293.017
294.087
292.391
303.15
293.621
293.609
283.195
292.35
293.229
293.519
291.233
293.421
293.101
293.056
293.841
293.439
294.736
293.44
292.664
291.9
293.306
291.782
293.435
293.563
293.589
293.421
294.364
293.426
293.968
293.314
294.051
293.951
294.06
293.122
293.079
293.212
292.315