/*--------------------------------*- C++ -*----------------------------------*\
  =========                 |
  \\      /  F ield         | OpenFOAM: The Open Source CFD Toolbox
   \\    /   O peration     | Website:  https://openfoam.org
    \\  /    A nd           | Version:  10
     \\/     M anipulation  |
\*---------------------------------------------------------------------------*/
FoamFile
{
    format      ascii;
    class       volVectorField;
    location    "70";
    object      U;
}
// * * * * * * * * * * * * * * * * * * * * * * * * * * * * * * * * * * * * * //

dimensions      [0 1 -1 0 0 0 0];

internalField   nonuniform List<vector> 
59698
(
(0.584676 0.00600532 -0.00174008)
(0.564784 -0.00115185 -0.0008615)
(0.56652 -0.000683762 0.00169985)
(0.578796 -0.00342668 -0.00127444)
(0.562919 0.000722135 -0.00289941)
(0.197724 0.198053 -0.00634645)
(0.566925 0.000230982 0.000405054)
(0.564015 0.000854614 -0.000295204)
(0.199877 -0.199527 -0.000423947)
(0.201224 -0.200793 -1.97294e-05)
(0.20037 -0.198721 -0.000624019)
(0.567011 -0.000302616 -0.000407991)
(0.199805 0.200487 -0.000570923)
(0.561612 -0.000762407 -0.000192025)
(0.561995 0.00106135 -0.00253415)
(0.203944 -0.197113 0.00178001)
(0.564677 0.000133978 0.000202118)
(0.56607 -0.00126077 0.000386784)
(0.567632 -0.000523317 0.000304416)
(0.567344 -0.000376386 -8.04085e-05)
(0.142921 -0.0999367 -0.0250257)
(0.53606 -0.00147649 -0.00273253)
(0.265038 -0.172349 -0.00711421)
(0.198824 -0.199921 -0.00136796)
(0.570356 0.000579244 0.00109369)
(0.566224 -0.00115742 0.00043309)
(0.566468 -0.00034633 -0.000423687)
(0.557256 -0.000207037 -0.00120148)
(0.57028 0.00135095 0.000921322)
(0.57243 -0.000455844 0.000450786)
(0.54814 -0.000335569 -0.000389076)
(0.198547 -0.198584 -0.000178172)
(0.201156 -0.197948 0.00229356)
(0.559756 0.00124208 -0.000853254)
(0.549152 0.0114543 -0.00753345)
(0.566732 -0.000912309 -0.000385436)
(0.275013 0.0657817 -0.0385551)
(0.539395 0.000745311 0.000195717)
(0.561696 0.000131074 0.000560754)
(0.568182 0.00154021 -0.00277867)
(0.563918 0.000432718 -0.000104084)
(0.1949 0.197809 -0.00173712)
(0.562408 0.000590705 -0.000605928)
(0.563701 0.000445462 0.000107184)
(0.196728 0.199571 -0.000252618)
(0.560921 0.00367103 0.00513765)
(0.567064 -0.000864343 0.000372114)
(0.561578 -0.000324237 0.00148714)
(0.562932 0.000328401 0.000877227)
(0.565364 -0.000692719 0.000231208)
(0.567928 0.000159056 -0.000169521)
(0.566899 -0.000873492 0.000349058)
(0.566564 -8.48621e-05 -0.000781488)
(0.560451 -0.0001653 0.000452064)
(0.572426 0.00288392 0.00102327)
(0.567404 -0.000517387 -0.00013971)
(0.562748 -0.000989705 0.00060487)
(0.524733 -0.00189234 -0.000252774)
(0.564642 -0.000791948 -0.000382982)
(0.268467 0.121436 -0.0193677)
(0.55916 0.00459687 -0.00252974)
(0.564604 0.00134876 0.000529116)
(0.577814 0.0147489 0.00650876)
(0.56758 -0.000563901 0.000377254)
(0.561874 0.000230811 0.000724145)
(0.56141 0.000188791 0.00205664)
(0.199519 -0.199947 -1.22253e-05)
(0.567124 -0.000557875 -0.000629556)
(0.566981 -0.000464 -0.000636308)
(0.199516 -0.19921 -7.79698e-05)
(0.209468 0.182784 -0.00788124)
(0.565285 -0.00072684 1.65616e-05)
(0.166386 0.118649 -0.0345055)
(0.593617 -0.0106535 0.0191941)
(0.202915 0.203538 -0.000369203)
(0.589687 -0.0253494 0.020674)
(0.56115 0.000255135 0.000991798)
(0.561044 0.00023173 -0.00162349)
(0.566859 0.000817418 -0.000635921)
(0.571476 0.00154401 0.00012591)
(0.5527 -0.00186837 7.3992e-06)
(0.567921 0.000238874 -0.000122837)
(0.201246 -0.200762 -5.47961e-05)
(0.565105 -0.000732685 0.000601495)
(0.39973 -0.10376 0.0150149)
(0.56281 0.000190654 -9.30058e-05)
(0.563146 -0.0012288 0.00162478)
(0.557672 0.000484153 0.00715244)
(0.562054 0.0013664 0.000994529)
(0.560504 -0.000171788 0.00159888)
(0.199536 -0.199172 -0.000163005)
(0.560434 0.000896302 0.000571734)
(0.560759 -0.000361568 0.00167613)
(0.565877 -0.000351531 0.000408818)
(0.56154 0.00116659 0.000996258)
(0.563533 -0.00368468 0.00128666)
(0.558681 0.000685086 0.00125805)
(0.562335 0.00054122 0.000560325)
(0.559302 0.00064879 0.00125669)
(0.199678 0.200038 -3.39379e-06)
(0.556475 0.00153005 0.000866324)
(0.5675 0.00520333 0.00624617)
(0.563063 -3.3745e-05 0.000178157)
(0.563119 -0.00167098 -0.00442549)
(0.567137 -0.000573306 0.000845388)
(0.198839 0.198574 0.000130251)
(0.56544 -0.0010018 0.000609259)
(0.567249 -0.000350744 -0.000408314)
(0.200743 -0.200884 -6.4183e-05)
(0.199793 0.199689 -0.000371052)
(0.566331 -0.00076434 -0.000348187)
(0.570322 -0.0104706 8.32008e-06)
(0.561813 0.00143562 0.00159327)
(0.200896 0.198779 -0.000337593)
(0.56106 -0.000136142 0.000250394)
(0.567444 -4.34613e-05 0.000154689)
(0.567177 0.00135284 -0.00137113)
(0.565194 0.00306388 0.0007768)
(0.563751 -0.000836157 0.00205142)
(0.200908 -0.200443 0.00044156)
(0.565649 -7.09569e-05 -2.49025e-05)
(0.558255 -0.00636911 -0.00376442)
(0.563154 -0.0049763 0.00572263)
(0.564549 -6.11412e-05 0.000116817)
(0.564029 0.000120721 0.000197539)
(0.566042 -0.000321073 -0.000137383)
(0.56594 -7.43175e-05 -0.000517629)
(0.199564 -0.199512 0.000484385)
(0.562045 -0.000614002 -0.000198054)
(0.56754 0.000318296 -0.00199285)
(0.567311 0.000379964 0.000592265)
(0.567219 -0.000177618 -0.00107667)
(0.201401 -0.200547 -1.26709e-05)
(0.579319 0.00690495 0.000528101)
(0.57275 -0.000114351 0.000186154)
(0.568495 -0.000186847 -0.000183378)
(0.5698 0.00383413 -0.00108841)
(0.201044 -0.200686 0.000306013)
(0.567411 -0.000354328 -0.000264171)
(0.568538 -1.55194e-05 -0.000356768)
(0.565296 -0.000273189 0.000884052)
(0.562618 0.00317295 -0.00101497)
(0.566083 -0.00085133 -0.000462815)
(0.5674 -0.000332045 -0.000308204)
(0.566012 0.00220271 -0.000449387)
(0.567419 -0.000273746 2.08088e-05)
(0.563624 -0.00395218 0.000303953)
(0.566472 -0.0037217 -0.000531843)
(0.562335 0.000381876 0.000898824)
(0.55218 -0.000244123 2.65725e-05)
(0.408603 0.144227 0.0731213)
(0.2002 -0.199654 0.000118521)
(0.562153 -0.000109329 5.75582e-05)
(0.556584 -0.00217823 -0.00379648)
(0.56305 -0.000241615 -0.000150558)
(0.560675 0.00020149 -0.000464772)
(0.566473 -0.00105134 -0.000265894)
(0.558784 -0.000967105 0.00305479)
(0.563533 -0.000302111 -0.00033669)
(0.199699 0.199539 -0.000117857)
(0.564906 9.22377e-05 0.000162631)
(0.562824 -0.000377381 0.000243577)
(0.567881 -0.000589796 -0.000249028)
(0.554695 0.00186107 -0.00111474)
(0.562792 -0.000552895 -0.000183431)
(0.566776 -7.02034e-05 -0.000220297)
(0.567031 -0.000202451 -0.00069176)
(0.412325 0.0870979 0.0062148)
(0.554756 -0.000544693 -0.000362958)
(0.567031 -0.000132256 -0.000503981)
(0.559258 0.00176913 -0.00252377)
(0.211073 0.173846 0.000641926)
(0.553075 0.00138826 -0.00215364)
(0.552584 0.00128159 -0.00205375)
(0.578277 0.00140803 -0.00546417)
(0.562496 0.000266414 0.000359099)
(0.199576 -0.198909 0.000796929)
(0.538391 0.00496936 0.00302302)
(0.198956 -0.197823 -0.00579227)
(0.561905 0.000549037 -0.000458633)
(0.510493 -0.00190968 0.00526521)
(0.548321 -0.000562874 -0.000476243)
(0.56261 0.000356803 -0.000973194)
(0.565401 1.17097e-05 -0.000266372)
(0.56469 0.000622326 -0.000847033)
(0.543613 -0.000292776 -0.000302662)
(0.543477 5.22956e-05 -0.000866516)
(0.559555 0.00373206 0.00122965)
(0.566672 -5.17567e-05 0.000162092)
(0.563915 0.00151584 0.000720535)
(0.561586 0.000224396 0.000716346)
(0.562579 -0.000321195 0.00062262)
(0.562862 0.000566504 0.000511487)
(0.561905 -0.000353493 -0.000485633)
(0.554533 0.000256358 -0.000418762)
(0.55725 0.00328303 0.000801952)
(0.576609 0.00590861 -0.0136389)
(0.57576 0.00369113 -0.00217017)
(0.152084 -0.144062 -0.0195115)
(0.554167 -0.000547006 0.00013343)
(0.203045 0.205886 0.00272266)
(0.545917 0.000591442 0.000929085)
(0.57321 0.000318039 0.000280116)
(0.566599 -0.000370629 -0.000488037)
(0.552816 0.000939774 0.00115177)
(0.566782 0.000156647 0.000159719)
(0.563878 0.000361295 -0.000732725)
(0.557126 -0.00209021 0.00126315)
(0.55455 0.0114939 0.000467791)
(0.562272 0.000279825 -0.000166176)
(0.566009 0.000191004 0.00020865)
(0.564892 0.000212269 0.000471256)
(0.554746 0.000453385 0.00224018)
(0.199004 -0.197044 -0.00110272)
(0.565299 -0.000271135 -0.000187764)
(0.560063 0.000616034 -0.000141549)
(0.566178 -0.000788014 5.00125e-05)
(0.560983 -0.000619393 -0.00185738)
(0.561504 -0.000686907 -0.00014559)
(0.564912 0.000495937 -0.000586744)
(0.582047 0.0242322 0.0227)
(0.563809 -0.000275775 0.00036193)
(0.565028 4.33531e-05 0.000106863)
(0.556943 0.000917246 0.00284339)
(0.56511 -0.000389989 -0.000241517)
(0.553625 0.00258554 0.00290993)
(0.564373 5.93596e-05 -7.99509e-05)
(0.566046 0.000581731 -0.000490151)
(0.577955 0.0027665 -0.000861578)
(0.593482 0.0121948 0.00964069)
(0.199027 0.198601 -0.00039464)
(0.563349 1.84512e-05 0.000448809)
(0.565724 0.000399073 8.81731e-05)
(0.564476 0.000129645 -0.000365767)
(0.563562 -0.000543352 0.000477037)
(0.567919 -0.000497586 -2.11089e-05)
(0.56498 0.00158398 0.00151617)
(0.564062 0.000335855 0.000180892)
(0.558516 0.00137175 0.00348871)
(0.562146 -0.000907227 0.000488368)
(0.564872 -0.000211973 -8.14045e-05)
(0.563778 -0.00120865 -0.000490576)
(0.570491 5.151e-05 -6.87727e-05)
(0.197427 -0.19788 0.0033443)
(0.566672 -0.000288558 -6.01486e-05)
(0.564052 0.000202716 0.00390372)
(0.582467 0.00523262 0.016185)
(0.5915 -0.00702565 0.01293)
(0.566261 3.02656e-05 0.000154389)
(0.567018 -0.000822558 0.000427939)
(0.561347 0.00106191 0.0040129)
(0.562581 -0.000460093 0.000427364)
(0.563399 0.00101577 0.000877987)
(0.198217 -0.193516 0.00312035)
(0.566485 -0.00139067 -9.75912e-05)
(0.563347 0.000342314 0.000421741)
(0.560512 0.00209558 0.000599996)
(0.561257 -0.00066328 0.000605129)
(0.56614 -0.000481276 -0.000124446)
(0.565002 -0.000164019 -3.32471e-05)
(0.197145 -0.108787 -0.00105125)
(0.20041 0.200051 0.000140978)
(0.563532 -0.00093758 0.000581)
(0.559881 0.000578191 -0.001163)
(0.558101 -0.00148213 0.00230542)
(0.586931 0.00744627 0.00248139)
(0.565415 4.23514e-05 -4.86486e-05)
(0.196918 -0.19844 -0.00166348)
(0.565463 -0.00117547 0.00041822)
(0.564885 -0.000182799 -0.000147359)
(0.566643 -0.000980022 -9.5313e-05)
(0.563148 -0.0012226 -0.000693453)
(0.545974 -0.118327 0.0772648)
(0.564759 -0.000127553 -0.000237736)
(0.564987 -0.000237854 7.76185e-05)
(0.5576 0.000377693 0.00141028)
(0.564908 -0.00164664 -0.00373721)
(0.56427 -0.000618843 0.00150022)
(0.570072 0.000276002 0.000193795)
(0.200813 -0.200142 0.000137248)
(0.195991 -0.195353 0.00168415)
(0.567552 5.65215e-06 -2.95451e-05)
(0.567038 -0.000896702 0.000493268)
(0.581541 0.0021496 0.00129038)
(0.587027 0.00641095 0.000914765)
(0.577915 -0.0011882 0.00144853)
(0.566053 -0.000290647 -0.000688222)
(0.299185 -0.213247 -0.018792)
(0.574289 0.00144957 0.000544273)
(0.563444 0.00228791 0.00300171)
(0.586213 0.0176902 0.000953613)
(0.567503 0.000349559 0.00031315)
(0.565281 -0.000873839 0.000552802)
(0.567007 -0.001006 0.000162221)
(0.569837 -0.0010763 0.000826164)
(0.560526 -0.00148799 0.0007038)
(0.568322 -0.000258187 -0.000624882)
(0.568038 0.001569 -0.000604079)
(0.565025 -5.79374e-06 -0.000134907)
(0.562992 0.00118653 0.00367299)
(0.566215 0.00163703 -6.28224e-05)
(0.198719 0.198927 -9.95832e-05)
(0.195968 0.197806 0.00149934)
(0.567156 -0.00016476 -0.000400923)
(0.567236 -0.000480522 -0.000157911)
(0.567047 -0.000206789 -0.000283643)
(0.56908 0.000282686 -0.00145652)
(0.560492 -0.00111784 -0.000321484)
(0.5623 -0.000376644 0.000259245)
(0.567293 -0.000129663 -0.000247984)
(0.565302 6.77504e-05 0.000153951)
(0.563437 -0.0020101 0.000542804)
(0.566065 0.000318319 0.00016018)
(0.200736 0.200934 0.00131604)
(0.561467 -0.00328493 0.00169646)
(0.566938 0.0006869 -0.000104932)
(0.202035 0.202597 -0.000457736)
(0.566736 -0.00020811 0.000183846)
(0.195215 0.197029 -0.00207418)
(0.565268 0.00249387 -0.00204148)
(0.562537 0.00303687 -0.00304884)
(0.594668 -0.00982419 0.0181029)
(0.564557 -0.000555697 8.3799e-05)
(0.199745 -0.199394 0.000599504)
(0.600412 -0.012649 0.0181704)
(0.555733 -0.000173418 0.000669754)
(0.564242 -6.84539e-06 -0.000330056)
(0.566687 -0.000328138 0.000455636)
(0.56718 0.00054843 -0.000202499)
(0.199172 0.199229 -0.000186499)
(0.54833 -0.000140711 -0.00206366)
(0.564062 -0.000933021 0.000317341)
(0.558909 0.000239036 -0.00066819)
(0.582472 -0.0108009 0.0167327)
(0.199614 -0.199995 -0.000180806)
(0.567466 0.000534822 0.000618087)
(0.562774 -0.000628337 0.000171735)
(0.566407 -6.48627e-05 0.000227087)
(0.557066 -0.00123323 -0.000432201)
(0.56795 0.000253934 -0.00013361)
(0.563851 0.00124863 0.000965455)
(0.566781 0.00258722 -0.00169047)
(0.564949 -0.000400295 0.000209528)
(0.565442 6.9211e-05 3.06668e-05)
(0.557788 0.000821792 -0.00116363)
(0.564925 -0.000176208 -0.000123991)
(0.564371 0.000209481 -7.20307e-05)
(0.540991 0.00128047 -0.00108633)
(0.562784 5.16558e-05 -0.000220309)
(0.562779 0.000132881 0.000266249)
(0.567643 0.000159823 0.000117997)
(0.56197 -0.00104196 0.000626065)
(0.5698 -0.00321559 -0.000906743)
(0.199481 -0.199203 -0.000145996)
(0.590265 0.00295924 0.00635312)
(0.546917 0.000630897 -0.000851065)
(0.554103 0.00277675 -0.00712276)
(0.564792 -0.000164642 0.000112267)
(0.562208 0.000379773 0.000738657)
(0.199411 -0.199033 3.01299e-05)
(0.566508 0.00106052 -0.000580055)
(0.559158 -0.000279698 0.000658207)
(0.203243 -0.194651 0.000343829)
(0.565667 -5.85779e-05 0.000273966)
(0.199987 0.200045 -4.82244e-05)
(0.196477 0.201286 0.000519241)
(0.563235 -5.71035e-05 9.04274e-05)
(0.564626 -0.00068203 0.00118772)
(0.564538 -0.000410403 0.000184905)
(0.490996 -0.00576546 0.00280782)
(0.567829 0.000246848 0.00029229)
(0.197991 0.198558 0.000297537)
(0.566115 0.000193992 -0.000317003)
(0.197306 0.199022 0.00129917)
(0.562925 0.000102396 -0.000554015)
(0.200086 -0.200256 -1.3221e-05)
(0.564363 -0.000396677 0.000385893)
(0.565345 0.000225825 2.37695e-05)
(0.198895 0.198357 -1.21657e-05)
(0.199021 -0.199214 0.000130224)
(0.201361 0.198084 -0.00338411)
(0.563062 -7.73236e-05 -0.000267078)
(0.565894 0.00135483 0.000395875)
(0.560206 0.000768174 -0.000373724)
(0.566712 -0.000264518 5.65502e-06)
(0.277687 0.142063 -0.00511333)
(0.563269 -0.000402028 0.000956223)
(0.199301 0.199501 2.968e-05)
(0.199581 0.200006 -5.53401e-05)
(0.564984 0.00258792 0.000934878)
(0.560063 -0.000458836 5.261e-05)
(0.199363 -0.196653 0.00073659)
(0.563763 0.000312706 0.0011688)
(0.574317 0.000299572 4.55444e-06)
(0.379586 -0.147299 0.0156071)
(0.526844 -0.00158751 -0.000338616)
(0.551708 0.0163559 -0.0118772)
(0.562553 0.00272692 0.00161012)
(0.561089 -0.000267927 -0.00249152)
(0.563483 -0.00168574 0.00130377)
(0.562484 0.000483505 -0.000507262)
(0.56375 0.000124385 -0.00017903)
(0.565003 -2.29434e-05 -0.000429837)
(0.5647 -0.000548791 -0.000504776)
(0.553119 -0.00291129 -0.000642724)
(0.560736 0.00442595 0.000775456)
(0.575914 0.0041692 -0.00282827)
(0.581589 0.002954 -0.000776027)
(0.564388 0.000358237 -0.00136269)
(0.530706 0.000396944 -0.00297082)
(0.57158 0.00234657 -0.00161879)
(0.19892 -0.199131 1.17252e-06)
(0.560189 0.000616848 -0.00129494)
(0.199603 -0.199555 0.000196434)
(0.56137 -4.48548e-05 0.000207729)
(0.58401 0.00164285 0.00227875)
(0.567169 1.76223e-05 -0.000120667)
(0.567473 -0.0275726 0.0127831)
(0.53281 -0.00247003 0.000850886)
(0.535119 -1.67515e-06 -0.00639011)
(0.561612 -0.000533161 0.000231882)
(0.563036 -0.000245901 0.000700693)
(0.563948 0.00123361 0.00238082)
(0.588014 0.0131089 0.0121761)
(0.563707 -3.59448e-05 8.08752e-05)
(0.563969 -0.000239615 0.000167855)
(0.200001 -0.199863 0.000344439)
(0.561632 -6.4164e-05 -0.000230031)
(0.558008 -0.0016382 1.08776e-05)
(0.199433 0.1992 -3.85033e-05)
(0.5643 -0.00147105 0.000765816)
(0.575589 0.0179993 0.00851255)
(0.572359 -0.00467874 0.00665254)
(0.565002 7.91947e-05 -0.00135485)
(0.561272 -0.000243474 0.00148662)
(0.200478 -0.20041 -0.000928754)
(0.205312 -0.20225 0.000308635)
(0.573982 0.00520111 -0.00215653)
(0.565975 -0.000365024 -0.000492747)
(0.563243 -0.00102401 -0.00402421)
(0.202961 0.200382 -0.00178364)
(0.565223 -0.000609692 -0.000409101)
(0.200616 -0.199902 0.000296393)
(0.562056 -0.000428803 -0.000187363)
(0.563663 -0.000813313 -0.00101021)
(0.516557 -0.00739157 -0.00328947)
(0.580704 -0.00166165 0.00290801)
(0.200022 0.19974 -4.25516e-05)
(0.565385 -0.0010485 0.000625268)
(0.554063 -0.000109639 0.000316111)
(0.562408 -9.85015e-05 -0.00190788)
(0.566116 -0.000702799 -0.000174222)
(0.563976 0.00101148 -0.000929684)
(0.565183 -0.00125442 -0.000163985)
(0.562651 0.00165632 0.000100755)
(0.562262 0.000231438 1.76525e-06)
(0.580695 0.00134307 0.00229631)
(0.199644 -0.199556 0.000250462)
(0.54699 0.000416159 -0.000324215)
(0.56154 -0.000219323 0.00109335)
(0.577641 -0.00119292 0.00145834)
(0.564683 -0.00013613 -5.70812e-05)
(0.555145 -0.0015763 0.00152389)
(0.576989 7.76503e-05 0.000604367)
(0.200506 -0.199438 -0.000186195)
(0.560189 0.00514295 0.00196897)
(0.559705 0.00733614 0.00689021)
(0.56751 -0.000222151 -0.000148485)
(0.563853 0.000631738 -0.000602982)
(0.565749 0.000160721 3.56692e-06)
(0.560569 -0.00508202 -5.47103e-05)
(0.19839 0.198585 -0.000313552)
(0.199875 0.199796 2.03744e-08)
(0.198964 0.199803 2.47735e-05)
(0.563771 0.00214556 0.00287935)
(0.554094 -0.00311031 -0.00800402)
(0.504342 -0.00179219 0.000902851)
(0.577121 0.000989682 0.000564063)
(0.566689 -0.00295965 0.000959434)
(0.562933 -0.000508705 0.000676728)
(0.563138 0.00069168 -6.83271e-05)
(0.560047 0.00014126 0.000580468)
(0.563477 -0.000144982 0.000180222)
(0.202962 0.198891 -0.000350105)
(0.555892 -0.00673317 6.1031e-05)
(0.562457 -0.000568207 -0.000102065)
(0.560011 0.000885374 0.00130099)
(0.562515 -0.000573202 0.000597236)
(0.571972 0.000477888 0.000493562)
(0.56742 0.000773597 9.61322e-05)
(0.560659 0.000691907 -0.00080705)
(0.590313 -0.00143328 0.00682955)
(0.574139 0.000914827 0.000252229)
(0.559867 -0.000552954 -0.00130226)
(0.571359 0.000357416 -0.000106535)
(0.559649 0.000801395 0.00146263)
(0.56208 -1.26996e-05 -0.000154657)
(0.55609 0.00348858 0.00266885)
(0.56658 -0.000226638 -0.000477411)
(0.197298 0.196543 0.000418646)
(0.198806 0.198751 -9.42634e-05)
(0.573648 -0.00182609 0.000798904)
(0.557047 0.000340935 0.000329552)
(0.566084 7.54922e-05 0.000486989)
(0.199187 0.200507 0.000238383)
(0.20001 -0.199959 -0.000254735)
(0.562745 -0.000773112 -0.000138196)
(0.200482 -0.200706 -1.20433e-05)
(0.564088 0.000273114 -2.31292e-06)
(0.567294 -2.82975e-05 -2.96334e-05)
(0.565728 -0.000246712 0.000111305)
(0.570641 0.00019729 0.000268476)
(0.561068 -0.00413629 -0.00132627)
(0.197936 0.200093 0.00148552)
(0.568064 -0.000720486 5.09683e-05)
(0.564782 -0.000203302 -4.48584e-06)
(0.198155 0.19836 0.000185269)
(0.563495 0.000301222 0.000467677)
(0.198281 0.2002 0.000328187)
(0.197312 0.196193 9.46965e-05)
(0.566836 0.000218241 -0.000509367)
(0.56747 0.000662446 -0.00013066)
(0.56425 -6.74069e-05 4.90859e-05)
(0.19917 0.198911 -0.000637545)
(0.199053 0.199096 0.000120785)
(0.486608 -0.000410116 -0.000871347)
(0.565739 -0.000501209 0.000993249)
(0.56621 0.000112989 -0.000247076)
(0.567078 -0.0004106 -0.000368823)
(0.564108 0.000500642 -0.000736194)
(0.565968 0.000243586 -0.000458648)
(0.563382 0.0207939 -0.0145071)
(0.199761 -0.200313 -0.000235186)
(0.564144 -0.000508322 1.97225e-05)
(0.560831 2.13052e-05 0.000174546)
(0.19943 0.199453 -4.0056e-05)
(0.200328 0.19868 -0.000271651)
(0.556999 -0.000215174 0.000175731)
(0.563701 -0.000376189 5.4763e-05)
(0.198435 -0.198836 0.000601652)
(0.566664 -0.000297457 -9.72966e-05)
(0.564932 0.000194767 -0.000185388)
(0.564932 -3.82135e-05 -0.00108235)
(0.590535 0.0428379 -0.0160113)
(0.563166 0.0004764 9.13858e-05)
(0.56891 -0.000422677 -2.57034e-05)
(0.559102 0.0241851 -0.00310718)
(0.637547 0.129737 -0.057774)
(0.566475 1.53322e-05 0.000121357)
(0.255634 0.159919 -0.00764901)
(0.561681 0.000572438 -0.000147828)
(0.200366 -0.199997 -5.94147e-06)
(0.558102 9.11814e-05 0.000968889)
(0.199714 -0.199532 0.00063625)
(0.56553 0.000141251 -0.000482467)
(0.563666 0.000443776 -0.000426201)
(0.199498 0.200292 -0.000233262)
(0.560795 0.000597766 0.000715327)
(0.565814 -0.000616367 -0.000277596)
(0.568219 -0.000304341 -0.000269716)
(0.199421 0.199113 4.53548e-05)
(0.198757 -0.199013 -0.000229354)
(0.561692 -0.000552705 0.000770469)
(0.162948 0.115998 0.0437044)
(0.567009 -0.00122593 -0.000654712)
(0.20042 -0.199736 0.000193633)
(0.582327 -0.000884748 0.00732867)
(0.561723 0.00046485 -0.000122067)
(0.567174 9.01782e-05 -0.000294388)
(0.200403 -0.198004 -0.00141023)
(0.568144 -0.00030153 -0.000173712)
(0.565509 -0.000987315 0.000599874)
(0.207091 0.196095 -0.00116012)
(0.568369 0.00017872 -0.000723361)
(0.566341 0.00026726 -0.00121921)
(0.567654 0.000311805 6.99331e-05)
(0.566568 -0.000305257 -9.57088e-05)
(0.568045 -5.87391e-05 -0.000193996)
(0.566132 -0.000430765 -0.000482005)
(0.200168 -0.200661 -0.000273774)
(0.192469 0.193548 0.000609862)
(0.560472 0.000414384 0.000977605)
(0.565419 0.000895088 0.0022802)
(0.564723 -6.14971e-05 -0.00035707)
(0.568098 9.82132e-05 -0.000356975)
(0.199523 0.199445 2.29472e-05)
(0.566059 -0.000203536 -4.12638e-05)
(0.565358 0.000117029 -0.0010057)
(0.570969 -0.000262435 0.000416339)
(0.566705 0.000207232 -0.00027279)
(0.568435 -5.04768e-05 -0.000363872)
(0.560418 0.000813951 0.000749496)
(0.565346 0.000521248 -0.00111303)
(0.565023 0.000514815 -0.000807593)
(0.198826 0.198662 -0.000341961)
(0.558625 0.000467032 -0.000144281)
(0.22781 -0.191968 -0.00759376)
(0.553944 -0.00346314 0.000649316)
(0.196659 0.191302 -0.00190575)
(0.198295 0.198714 -4.93903e-05)
(0.565708 -2.71996e-05 0.000143488)
(0.564824 1.22237e-05 0.000231878)
(0.199216 0.198883 -3.76205e-05)
(0.555857 -0.000491737 0.000461187)
(0.565503 -0.000625137 4.52258e-05)
(0.566353 -0.0004826 -0.000125045)
(0.566304 1.76546e-05 -0.000538875)
(0.199203 0.198401 0.000740497)
(0.56495 0.000280229 6.82194e-05)
(0.559956 -5.01411e-05 0.000665861)
(0.560549 4.62849e-05 0.000584221)
(0.567149 0.000211339 -0.000307789)
(0.562433 2.73104e-05 0.000395896)
(0.567029 -0.000103085 -0.000375419)
(0.565626 5.34702e-06 -0.000123892)
(0.565848 0.000167672 -0.000116654)
(0.562375 -8.495e-05 0.000278513)
(0.573726 -0.000843589 0.000503157)
(0.157136 0.0630103 -0.0718158)
(0.562824 -3.28325e-05 0.000370682)
(0.198255 0.198719 0.000268585)
(0.565513 0.00017476 0.000904955)
(0.566688 -0.000176485 -0.00068961)
(0.562771 0.00235222 -0.000606529)
(0.55805 -0.00216531 0.00389105)
(0.564437 -0.00101669 0.00210155)
(0.568219 0.000380785 5.8714e-05)
(0.567416 -9.73281e-05 -0.00080949)
(0.5669 -0.000263252 -0.000270774)
(0.567043 -0.000810748 -0.000894969)
(0.561141 -0.0011056 0.000853917)
(0.198 0.199509 -0.00290585)
(0.566702 -0.000243337 0.000237751)
(0.565991 0.000338118 0.000330948)
(0.567898 -0.000313536 8.97657e-05)
(0.56602 -0.000101182 -0.000396164)
(0.566385 -0.000737092 -0.000626386)
(0.562661 -7.97219e-05 0.00038625)
(0.556431 0.00647407 -0.00109331)
(0.572357 0.000722684 0.000615355)
(0.558223 0.00181659 -0.000923108)
(0.562509 0.000322217 -0.000891692)
(0.199321 0.199329 8.46946e-05)
(0.20051 -0.199734 -3.23945e-06)
(0.566806 0.000177206 0.000170489)
(0.567758 0.000427436 0.000322137)
(0.562601 -0.000529998 0.000431224)
(0.55877 0.000715254 -0.00210342)
(0.561466 -0.000866926 6.08426e-05)
(0.198844 0.199072 -0.000323676)
(0.199095 0.199301 -0.000157059)
(0.566906 -0.000822887 -0.000892087)
(0.564116 -0.000436994 0.000154719)
(0.565601 -0.000281537 -0.000327788)
(0.565727 -1.77426e-05 -0.000196582)
(0.565006 -0.000127836 -0.000733961)
(0.566435 -0.000373398 -0.000196632)
(0.220623 -0.153232 -0.014616)
(0.568004 0.000171764 -2.76464e-05)
(0.561831 -0.00114637 0.00086241)
(0.559902 0.000516292 -0.000837564)
(0.556672 3.53264e-05 -0.00177743)
(0.568194 -0.000136315 -0.000101025)
(0.541807 0.00348891 -0.012617)
(0.556916 0.0163159 -0.0107008)
(0.568007 0.000103742 3.1081e-05)
(0.562177 -0.000834537 0.000832313)
(0.560599 -0.000281441 0.000389766)
(0.563115 -0.000624482 0.000635885)
(0.573233 0.000300967 -0.00101503)
(0.19932 0.199351 3.61106e-06)
(0.556517 0.00231962 -0.0021628)
(0.567251 -5.53456e-05 -4.85953e-06)
(0.550608 -0.00211766 -0.00585098)
(0.566151 0.000118444 -0.000586561)
(0.566917 7.91549e-05 -0.000594544)
(0.19973 0.197602 -0.000812248)
(0.5632 -0.00096464 0.00411751)
(0.573328 -0.000432448 0.000111041)
(0.567122 -1.05163e-05 -0.000599431)
(0.56114 0.000314315 0.000993696)
(0.553626 -0.000176148 -0.00167432)
(0.199309 0.20511 -0.00187076)
(0.19782 0.195524 -0.00103408)
(0.566088 0.000347948 0.000183841)
(0.566565 -0.000222035 -0.000159933)
(0.566537 -0.000104888 4.12708e-05)
(0.56779 -5.08946e-05 3.95273e-05)
(0.566359 0.000152995 1.91984e-06)
(0.565483 0.000580425 0.00045726)
(0.562491 -0.000648045 0.000814072)
(0.566551 0.00159674 -0.00274561)
(0.56564 -0.000237154 -0.000839385)
(0.566166 0.000866896 -0.00028242)
(0.564124 -0.00127557 0.00227338)
(0.561233 0.00117616 -0.00071048)
(0.562848 -0.000650521 0.000146695)
(0.566443 0.000200448 -0.000405993)
(0.198623 0.19861 0.00011605)
(0.56693 4.65719e-05 -0.000301896)
(0.200421 0.200588 -0.000124059)
(0.1996 0.199184 -2.40808e-05)
(0.565825 0.000952619 -0.000462103)
(0.562747 8.55706e-05 0.000180868)
(0.566941 -0.000829716 0.00052763)
(0.200415 -0.200246 -3.49926e-05)
(0.564539 1.19161e-05 0.000449726)
(0.560786 0.00106817 -0.00171988)
(0.56762 0.000524343 -0.00109008)
(0.199547 0.199645 9.251e-05)
(0.565102 -0.000321379 -0.000197849)
(0.197084 0.198847 -0.000606449)
(0.563426 -0.000277934 0.0033777)
(0.198071 0.196991 -0.000132124)
(0.561766 -0.000287749 0.00104665)
(0.558422 -0.000235202 0.00108299)
(0.563699 -0.000147113 2.05554e-05)
(0.565584 0.000776256 -2.9469e-05)
(0.200337 -0.200252 0.000102961)
(0.198372 0.198349 -0.000169282)
(0.566767 0.00262697 -0.00298485)
(0.555286 -0.000242222 0.00188608)
(0.56747 8.29308e-05 -0.000855995)
(0.566227 7.41858e-05 -0.000354441)
(0.565186 3.6889e-05 -0.000758973)
(0.563968 0.00117309 -0.00033947)
(0.574547 0.00317059 -0.0012566)
(0.199743 0.199939 -0.000273392)
(0.581937 0.00710268 -0.000911498)
(0.565134 -0.000520561 -0.000742765)
(0.54171 0.063405 -0.0393841)
(0.198089 0.196662 0.000529471)
(0.567619 0.00130022 -0.00162858)
(0.546546 0.000443163 0.00148072)
(0.19941 0.19782 0.00170446)
(0.581618 0.00223703 0.00102934)
(0.567737 -0.000245254 -0.000526584)
(0.199674 -0.199562 -7.10713e-05)
(0.55847 7.32391e-06 0.00130475)
(0.596299 0.00821581 0.00134949)
(0.566721 -0.000485813 -0.000169358)
(0.56198 -0.00146149 0.00245727)
(0.576301 0.00510652 0.0273434)
(0.560347 0.000808857 -0.000476081)
(0.563966 -0.000142306 -0.000402922)
(0.560373 0.000106095 -0.00196421)
(0.539755 -0.000111341 4.50623e-05)
(0.56697 -0.0230912 0.0258945)
(0.564221 0.000329626 0.000790539)
(0.555454 -0.00110159 -0.000173954)
(0.566448 1.19326e-05 -0.000165009)
(0.575445 -0.00144298 0.00097004)
(0.567317 -3.75057e-05 7.8218e-05)
(0.567684 0.00222412 -0.00160599)
(0.199414 0.199488 2.15741e-05)
(0.566562 0.000730368 -0.000281479)
(0.580714 0.000373718 0.00146311)
(0.591057 0.00550011 0.00779109)
(0.199738 -0.19976 -7.46299e-05)
(0.562163 -0.00107928 0.00108752)
(0.569025 0.000429525 -0.000191784)
(0.197201 0.195144 0.000401314)
(0.557964 0.000400411 -5.40195e-05)
(0.562277 0.000172639 -0.000468293)
(0.566142 0.000405257 -0.000614252)
(0.568919 0.000352326 9.45792e-05)
(0.56203 -0.00054294 -0.000339653)
(0.56547 -0.000237614 0.000200272)
(0.19891 0.199227 -0.000231231)
(0.56228 -0.000278724 -0.00175868)
(0.570678 7.19828e-05 -0.000294577)
(0.198981 0.198968 0.000236729)
(0.200023 0.199453 -0.000105563)
(0.565788 0.000424541 0.000320098)
(0.199432 0.199778 -0.000108704)
(0.564461 -0.000188445 0.000389299)
(0.560182 -0.00405286 -0.000331602)
(0.566238 0.00026902 -0.000309117)
(0.562374 -0.000610972 -0.00229296)
(0.562335 -9.6859e-06 -0.00184414)
(0.283987 -0.0199471 0.0421295)
(0.199424 0.19967 0.00019301)
(0.571488 0.000332102 -1.45386e-05)
(0.566129 5.7264e-05 0.000160013)
(0.562954 0.00057241 -0.000470888)
(0.560645 0.00272907 -0.00192504)
(0.563174 -0.000147458 -0.000789016)
(0.199139 0.199302 -0.00023363)
(0.544413 -2.93161e-05 -0.000724689)
(0.560673 -0.000214293 -0.00089043)
(0.55599 0.00165623 0.00417967)
(0.567065 -0.000217436 0.0010895)
(0.563759 -0.00105236 -0.000318305)
(0.555356 0.018726 -0.0207571)
(0.566532 -0.00165342 5.96813e-05)
(0.551078 0.00589216 -0.0109809)
(0.198634 0.195312 -0.00113794)
(0.199652 0.199585 0.000181503)
(0.199113 0.199118 -3.89935e-05)
(0.566949 0.000300074 -0.000110904)
(0.565947 -0.000500235 -0.000509567)
(0.199136 0.198563 -9.62244e-05)
(0.56423 -0.000116133 0.000819638)
(0.557591 0.00377048 0.00295947)
(0.557149 -0.000751971 -0.000603677)
(0.501277 0.0706948 -0.0405475)
(0.559332 -0.0007924 -0.000488571)
(0.565778 0.000201795 0.000124693)
(0.199876 0.204267 0.000338865)
(0.557043 0.0130151 -0.0207765)
(0.199902 0.199838 0.000168238)
(0.19892 0.198381 0.000350374)
(0.566183 -0.000224336 -2.63434e-05)
(0.317964 0.243263 0.0366768)
(0.289969 -0.118128 -0.00406202)
(0.562646 -0.00131548 -0.000131864)
(0.194327 -0.197746 0.000260319)
(0.566255 0.000126382 -7.10662e-05)
(0.560797 -0.00256403 -0.00510509)
(0.569945 0.0194659 -0.0139091)
(0.565769 -0.000194465 0.000361324)
(0.575733 0.0110376 -0.00357995)
(0.563835 0.000346305 0.000188662)
(0.570658 -0.0365299 -0.0107253)
(0.199023 0.198995 4.10885e-05)
(0.198888 0.198031 0.000208047)
(0.564642 -0.000985679 -5.04413e-05)
(0.563573 -0.000702298 0.00107298)
(0.566981 -0.000408869 0.000195479)
(0.195871 0.198987 -0.001546)
(0.560184 0.00115084 1.07159e-05)
(0.565588 -0.000417326 0.000104773)
(0.565891 -6.78798e-05 -0.000264751)
(0.199252 0.199479 0.000836163)
(0.565647 0.000221542 -0.000592309)
(0.565823 -0.000242803 -0.000262369)
(0.510983 0.0571322 0.037861)
(0.19912 0.19915 -0.000147566)
(0.645271 0.172816 -0.00640126)
(0.522319 0.0735645 -0.0535163)
(0.200199 -0.199484 4.34475e-05)
(0.199811 0.199085 0.000340279)
(0.198922 0.198528 5.34022e-05)
(0.200472 0.199825 0.000428097)
(0.200033 0.199707 -0.000768384)
(0.565858 0.000578003 -0.000110426)
(0.566383 -0.000144379 0.000214934)
(0.56494 0.000509341 0.000159927)
(0.199455 0.198443 0.000170101)
(0.565029 -0.00032402 -0.00013904)
(0.567498 2.97911e-05 0.000428764)
(0.199649 0.198943 0.000265228)
(0.57911 -0.00405 0.0098225)