/*--------------------------------*- C++ -*----------------------------------*\
  =========                 |
  \\      /  F ield         | OpenFOAM: The Open Source CFD Toolbox
   \\    /   O peration     | Website:  https://openfoam.org
    \\  /    A nd           | Version:  10
     \\/     M anipulation  |
\*---------------------------------------------------------------------------*/
FoamFile
{
    format      ascii;
    class       volVectorField;
    location    "75";
    object      U;
}
// * * * * * * * * * * * * * * * * * * * * * * * * * * * * * * * * * * * * * //

dimensions      [0 1 -1 0 0 0 0];

internalField   nonuniform List<vector> 
59698
(
(0.584678 0.00600307 -0.0017469)
(0.564784 -0.00115096 -0.000860684)
(0.56652 -0.000686173 0.00170031)
(0.578786 -0.00343406 -0.00125662)
(0.562908 0.000729567 -0.0029002)
(0.197724 0.198053 -0.0063462)
(0.566924 0.000233971 0.000405822)
(0.564025 0.000846738 -0.000290796)
(0.199879 -0.199527 -0.000424611)
(0.201225 -0.200788 -1.72351e-05)
(0.200369 -0.198722 -0.000624745)
(0.56701 -0.000303432 -0.000408345)
(0.199805 0.200487 -0.000571283)
(0.561613 -0.000762466 -0.000193715)
(0.561983 0.00106728 -0.0025355)
(0.203958 -0.197106 0.00182668)
(0.564676 0.000134401 0.000202876)
(0.566068 -0.00125999 0.000387165)
(0.567635 -0.000512365 0.000300737)
(0.567342 -0.000379267 -8.04464e-05)
(0.142905 -0.0997812 -0.0247223)
(0.536062 -0.0014766 -0.00272471)
(0.264939 -0.172689 -0.00683579)
(0.198824 -0.199921 -0.00136793)
(0.570347 0.000702654 0.00103411)
(0.566222 -0.00115727 0.000433397)
(0.56647 -0.000347795 -0.000419444)
(0.557264 -0.000204656 -0.00120507)
(0.570288 0.00129425 0.000872616)
(0.57244 -0.000438713 0.000447559)
(0.548156 -0.000339783 -0.000414324)
(0.198524 -0.198571 -0.000187123)
(0.201164 -0.197941 0.00230435)
(0.559797 0.00127041 -0.000876689)
(0.549128 0.0114649 -0.00753564)
(0.566732 -0.000913671 -0.000383662)
(0.275122 0.0659608 -0.0384753)
(0.539384 0.000756251 0.000187461)
(0.561695 0.000131026 0.000560593)
(0.5682 0.00153438 -0.00277887)
(0.563915 0.000430187 -8.64691e-05)
(0.1949 0.197809 -0.00173709)
(0.562409 0.000591591 -0.00062054)
(0.563705 0.000447463 0.00010544)
(0.196729 0.199572 -0.000252521)
(0.560927 0.00368074 0.00514551)
(0.567062 -0.00086446 0.000371591)
(0.561581 -0.000323192 0.00148483)
(0.562938 0.000330759 0.000877284)
(0.565362 -0.000692997 0.000230489)
(0.567927 0.000158856 -0.00016872)
(0.566896 -0.000873116 0.00034895)
(0.566565 -8.58357e-05 -0.000782297)
(0.560444 -0.000169303 0.000460147)
(0.572362 0.00292903 0.00105405)
(0.567405 -0.000517147 -0.00014262)
(0.562754 -0.000985241 0.000602518)
(0.524719 -0.00188828 -0.000213835)
(0.564637 -0.000788078 -0.000387825)
(0.268079 0.121283 -0.0186291)
(0.559161 0.00459987 -0.00253146)
(0.564608 0.00136118 0.000527063)
(0.577847 0.0147712 0.00649812)
(0.56758 -0.000559582 0.000378846)
(0.561884 0.000214867 0.00074592)
(0.561412 0.000190315 0.0020541)
(0.199519 -0.199945 -1.33456e-05)
(0.567123 -0.000559504 -0.000629361)
(0.566977 -0.000464353 -0.000635322)
(0.199516 -0.19921 -7.81466e-05)
(0.209542 0.182747 -0.00797686)
(0.565285 -0.000730491 2.12371e-05)
(0.166375 0.11853 -0.0344037)
(0.593774 -0.0106511 0.0197518)
(0.202915 0.203538 -0.000369078)
(0.589957 -0.0250896 0.0204166)
(0.561143 0.000251405 0.00100018)
(0.561047 0.00023663 -0.00163314)
(0.56686 0.000818583 -0.000636758)
(0.571453 0.00150593 0.000136357)
(0.552687 -0.00188031 7.18947e-06)
(0.567921 0.000240198 -0.000121498)
(0.20125 -0.200755 -6.47024e-05)
(0.565104 -0.00073349 0.000602051)
(0.399865 -0.103883 0.0148771)
(0.562803 0.000189692 -8.41059e-05)
(0.563146 -0.00122711 0.00162229)
(0.557674 0.000488078 0.00714934)
(0.56206 0.00131562 0.000989746)
(0.560505 -0.000169996 0.00160483)
(0.199535 -0.199174 -0.00016386)
(0.560434 0.000897472 0.000573047)
(0.560657 -0.000341059 0.0016674)
(0.565871 -0.000342469 0.000395938)
(0.56154 0.00116787 0.000996862)
(0.563534 -0.00368499 0.00128624)
(0.558687 0.000651425 0.00126933)
(0.562341 0.000544608 0.000558887)
(0.559316 0.000609513 0.00127016)
(0.199678 0.200038 -3.17295e-06)
(0.556508 0.00149148 0.00086829)
(0.567585 0.00512774 0.0063177)
(0.563094 -3.10456e-05 0.000167408)
(0.563051 -0.00164421 -0.00440563)
(0.567136 -0.000552313 0.00082752)
(0.198839 0.198574 0.000130762)
(0.565438 -0.00100108 0.000610252)
(0.567257 -0.00035901 -0.000417035)
(0.200745 -0.20089 -6.75806e-05)
(0.199793 0.199687 -0.000369619)
(0.566323 -0.000779758 -0.000371312)
(0.570427 -0.0104264 -9.09459e-05)
(0.561793 0.00140972 0.00159774)
(0.200896 0.198779 -0.000337584)
(0.56106 -0.000132958 0.000251353)
(0.567444 -4.33717e-05 0.000154508)
(0.567177 0.00135514 -0.00137218)
(0.565193 0.00306664 0.000775522)
(0.563751 -0.000833426 0.00205313)
(0.200902 -0.200448 0.000440618)
(0.565649 -7.13405e-05 -2.2115e-05)
(0.558249 -0.00636902 -0.00375835)
(0.563155 -0.00497128 0.00572243)
(0.56456 -6.58673e-05 0.00012236)
(0.56403 0.000121015 0.000198595)
(0.566038 -0.000319616 -0.000135877)
(0.565936 -7.38015e-05 -0.000508901)
(0.199564 -0.199512 0.000486246)
(0.562041 -0.000619868 -0.000190931)
(0.56754 0.000318092 -0.00199331)
(0.567297 0.0003776 0.000593493)
(0.567218 -0.000177972 -0.00107702)
(0.201403 -0.200545 -1.39766e-05)
(0.579319 0.00687977 0.000610353)
(0.572748 -0.000115891 0.000169986)
(0.568494 -0.000183365 -0.000185121)
(0.5698 0.00383403 -0.00108872)
(0.201047 -0.20069 0.000307655)
(0.567413 -0.000353823 -0.000269292)
(0.568538 -1.5127e-05 -0.000357045)
(0.565295 -0.000273733 0.000884967)
(0.562618 0.0031728 -0.00101451)
(0.566087 -0.000851113 -0.000462683)
(0.567399 -0.000329924 -0.000306863)
(0.566012 0.00220287 -0.000450222)
(0.567418 -0.000273034 2.05835e-05)
(0.563624 -0.0039512 0.000302907)
(0.566472 -0.00372095 -0.000532414)
(0.562335 0.000381076 0.000900124)
(0.552294 -0.000190403 0.000169695)
(0.408623 0.144093 0.0731773)
(0.200198 -0.199654 0.000119111)
(0.562158 -0.000111362 5.37997e-05)
(0.556583 -0.00217858 -0.00379685)
(0.563055 -0.000283781 -0.00016835)
(0.560674 0.000197647 -0.000464155)
(0.566471 -0.00105374 -0.00026351)
(0.558784 -0.000967102 0.0030524)
(0.563529 -0.000297118 -0.000336638)
(0.199701 0.19954 -0.000105053)
(0.564908 9.42326e-05 0.000163734)
(0.562824 -0.000372559 0.000238241)
(0.567877 -0.000582855 -0.000250802)
(0.554677 0.00186172 -0.00109991)
(0.562808 -0.000544598 -0.000190086)
(0.56679 -5.54231e-05 -0.000226471)
(0.56703 -0.000202401 -0.000690823)
(0.412364 0.0872316 0.00629918)
(0.554752 -0.000545119 -0.000370725)
(0.567032 -0.000131526 -0.000503863)
(0.55931 0.00179464 -0.00254668)
(0.210938 0.1737 0.00057721)
(0.553128 0.00141012 -0.00217507)
(0.552638 0.00129857 -0.00207021)
(0.578314 0.00133212 -0.00550102)
(0.562501 0.000267888 0.00035718)
(0.199576 -0.19891 0.000796513)
(0.538491 0.00493898 0.00306983)
(0.198956 -0.197827 -0.00579173)
(0.561937 0.000565259 -0.000474799)
(0.510485 -0.00192286 0.00525838)
(0.548318 -0.000550184 -0.000474935)
(0.562606 0.000381322 -0.000968632)
(0.5654 1.00887e-05 -0.0002634)
(0.564692 0.000610365 -0.00085126)
(0.543605 -0.000269367 -0.000246648)
(0.543471 5.38179e-05 -0.000876088)
(0.559561 0.00375177 0.00124906)
(0.566672 -5.18304e-05 0.000162061)
(0.563917 0.00151695 0.000714811)
(0.561576 0.000227704 0.000721683)
(0.562581 -0.000320873 0.000621305)
(0.562857 0.000570134 0.000521352)
(0.561912 -0.000340258 -0.000473073)
(0.554531 0.000258479 -0.000415182)
(0.55725 0.00327988 0.000809271)
(0.576577 0.00602721 -0.0137329)
(0.575728 0.00367688 -0.00215738)
(0.152207 -0.144026 -0.0196149)
(0.554176 -0.000545034 0.000129147)
(0.203035 0.205896 0.00271608)
(0.545977 0.00056344 0.00087765)
(0.57321 0.000328165 0.000287399)
(0.566598 -0.000369117 -0.000483222)
(0.552809 0.000937809 0.00115849)
(0.566785 0.000158593 0.000161365)
(0.563884 0.000366646 -0.000734806)
(0.557127 -0.00209001 0.00126317)
(0.554552 0.0114905 0.000467075)
(0.562267 0.000285601 -0.000162857)
(0.56601 0.000187296 0.000210229)
(0.564891 0.000213083 0.000470668)
(0.554734 0.000453869 0.00223869)
(0.199003 -0.197044 -0.00110263)
(0.5653 -0.000270393 -0.000189683)
(0.560064 0.000616493 -0.000141234)
(0.566177 -0.00078487 4.92511e-05)
(0.560982 -0.000619178 -0.00185718)
(0.561509 -0.00068218 -0.000148296)
(0.564918 0.000501063 -0.000590299)
(0.582147 0.0243881 0.0227799)
(0.563816 -0.000271232 0.000357727)
(0.565028 4.36779e-05 0.000105411)
(0.556965 0.00091457 0.00284233)
(0.565112 -0.000392484 -0.000239984)
(0.553649 0.00258443 0.00291114)
(0.564371 5.67924e-05 -7.70555e-05)
(0.566049 0.000582082 -0.000493701)
(0.577953 0.0027894 -0.000863342)
(0.593604 0.0124001 0.00969389)
(0.199023 0.198601 -0.000394121)
(0.563347 1.61317e-05 0.000450315)
(0.565723 0.000397425 8.84106e-05)
(0.564471 0.000131428 -0.000365198)
(0.563562 -0.000541255 0.000474503)
(0.567919 -0.000497319 -1.97222e-05)
(0.564989 0.00158819 0.0015158)
(0.564066 0.00033849 0.000180005)
(0.558514 0.00137087 0.0034884)
(0.562146 -0.000907727 0.000488839)
(0.564871 -0.000211038 -8.11661e-05)
(0.56377 -0.00121603 -0.000492912)
(0.570474 7.11272e-05 -5.78634e-05)
(0.197427 -0.19788 0.00334429)
(0.566671 -0.000291329 -6.08432e-05)
(0.564049 0.000206593 0.00390091)
(0.582454 0.00529931 0.0161777)
(0.591455 -0.00725082 0.0133252)
(0.566261 2.92804e-05 0.000155376)
(0.567015 -0.000822944 0.000428108)
(0.56135 0.00106095 0.00400772)
(0.562571 -0.000454278 0.000417775)
(0.563391 0.00100509 0.000883044)
(0.198218 -0.193517 0.00311968)
(0.566483 -0.00139094 -9.75754e-05)
(0.563347 0.000341632 0.000428647)
(0.560515 0.0020956 0.000591747)
(0.561254 -0.00066738 0.000599859)
(0.566134 -0.000483504 -0.000125229)
(0.565003 -0.000163102 -3.44725e-05)
(0.198982 -0.108275 -0.00061166)
(0.200402 0.200045 0.000135393)
(0.563534 -0.000938497 0.000581473)
(0.559883 0.000574036 -0.00116778)
(0.558099 -0.00148302 0.0022945)
(0.586924 0.00752582 0.00246318)
(0.565414 4.22053e-05 -4.98025e-05)
(0.196929 -0.19843 -0.00162872)
(0.565462 -0.00117576 0.000419853)
(0.564885 -0.000182252 -0.000150733)
(0.566643 -0.00098101 -9.39556e-05)
(0.563119 -0.00120162 -0.000677422)
(0.545846 -0.118346 0.0771797)
(0.564758 -0.000126203 -0.00024049)
(0.564969 -0.000239015 8.11103e-05)
(0.5576 0.000380657 0.00141138)
(0.564908 -0.00164659 -0.00373791)
(0.564271 -0.000616346 0.00149895)
(0.570072 0.000263903 0.00019438)
(0.200809 -0.200142 0.000132781)
(0.19599 -0.195353 0.00168475)
(0.567552 8.37428e-06 -2.79139e-05)
(0.567036 -0.000896351 0.000493989)
(0.581549 0.002083 0.00128215)
(0.587016 0.00648122 0.00089173)
(0.577929 -0.00122216 0.00144093)
(0.56605 -0.000287375 -0.000690892)
(0.299262 -0.213238 -0.018766)
(0.574273 0.00147116 0.000574163)
(0.56344 0.00228763 0.00300083)
(0.586131 0.0177743 0.000915518)
(0.567503 0.000349503 0.000313175)
(0.565279 -0.000874928 0.000552842)
(0.567006 -0.00100555 0.000162182)
(0.569838 -0.0010781 0.000811185)
(0.560548 -0.00149586 0.000716165)
(0.568317 -0.000253669 -0.000619754)
(0.568042 0.001564 -0.000582496)
(0.565022 -3.6636e-06 -0.000134899)
(0.562979 0.00119319 0.00367012)
(0.566216 0.00163869 -6.36606e-05)
(0.198734 0.198916 -9.31987e-05)
(0.195968 0.197806 0.00149916)
(0.567155 -0.000166267 -0.000407641)
(0.567241 -0.000476997 -0.000158986)
(0.567045 -0.000208659 -0.000281505)
(0.569094 0.000263466 -0.00144339)
(0.560493 -0.00111561 -0.000318108)
(0.562297 -0.000377344 0.000267693)
(0.567292 -0.000128678 -0.000251045)
(0.565303 6.5115e-05 0.000151806)
(0.56343 -0.00200205 0.000544057)
(0.566162 0.00033493 0.00010486)
(0.200736 0.200934 0.00131598)
(0.561469 -0.00328418 0.00169576)
(0.566941 0.000690204 -0.000103276)
(0.202035 0.202597 -0.000457531)
(0.566737 -0.000208422 0.000184008)
(0.195215 0.197029 -0.00207411)
(0.565268 0.00249401 -0.00204139)
(0.562537 0.00303705 -0.00304873)
(0.594395 -0.00989945 0.0189719)
(0.564557 -0.000556102 8.44656e-05)
(0.199744 -0.199399 0.000616098)
(0.600635 -0.0137772 0.0186919)
(0.555754 -0.00018019 0.000652158)
(0.564241 -6.78266e-06 -0.000329419)
(0.566687 -0.000328037 0.000455223)
(0.567178 0.000549828 -0.000200795)
(0.199172 0.199229 -0.000186497)
(0.548388 -0.000131809 -0.00207801)
(0.564059 -0.000934201 0.000321166)
(0.558946 0.000256739 -0.000688583)
(0.582648 -0.0108348 0.0168168)
(0.199616 -0.199995 -0.00018216)
(0.567464 0.000533096 0.000618707)
(0.562775 -0.000627748 0.000170471)
(0.56641 -6.52518e-05 0.000228034)
(0.557072 -0.00123804 -0.000444826)
(0.567953 0.000260647 -0.000134545)
(0.563847 0.00124637 0.000966728)
(0.566784 0.00258813 -0.00169176)
(0.564949 -0.000399344 0.000208595)
(0.565439 6.8995e-05 3.2419e-05)
(0.557793 0.000823356 -0.00118092)
(0.564925 -0.000175014 -0.000126)
(0.564368 0.000207771 -6.96665e-05)
(0.541014 0.0012854 -0.0011149)
(0.562785 5.28411e-05 -0.000221306)
(0.562777 0.000131952 0.000270171)
(0.567643 0.000155451 0.000117129)
(0.561951 -0.00104461 0.000649955)
(0.56971 -0.0032247 -0.000885702)
(0.199482 -0.199202 -0.000145709)
(0.590078 0.0027014 0.00627188)
(0.546873 0.000620625 -0.000825662)
(0.554098 0.00285267 -0.00710968)
(0.564788 -0.000162401 0.000111634)
(0.562212 0.00037836 0.00073792)
(0.199411 -0.199034 3.03463e-05)
(0.566508 0.00106258 -0.000580534)
(0.559166 -0.000279544 0.000673131)
(0.203241 -0.194655 0.000344825)
(0.565664 -5.87973e-05 0.00027607)
(0.199992 0.20004 -5.13149e-05)
(0.196477 0.201286 0.00051922)
(0.563238 -5.73777e-05 9.07845e-05)
(0.564627 -0.000682201 0.00118877)
(0.56454 -0.000405509 0.000183691)
(0.490935 -0.0057417 0.00284458)
(0.567832 0.000248677 0.000290638)
(0.197989 0.198556 0.000297032)
(0.566115 0.000194076 -0.000317648)
(0.19731 0.199024 0.00130021)
(0.562919 0.000101848 -0.000554438)
(0.200086 -0.200254 -1.47327e-05)
(0.564365 -0.000393174 0.000383966)
(0.565344 0.000225708 2.28346e-05)
(0.198894 0.198358 -1.20745e-05)
(0.199021 -0.199212 0.000129446)
(0.201361 0.198084 -0.00338416)
(0.563062 -7.6267e-05 -0.000267754)
(0.565887 0.00135203 0.000399655)
(0.560206 0.00077029 -0.000373123)
(0.566712 -0.000263284 5.88815e-06)
(0.277744 0.14207 -0.00514421)
(0.563258 -0.000397662 0.000956168)
(0.199301 0.199502 2.96552e-05)
(0.199576 0.200004 -4.89822e-05)
(0.564978 0.00258459 0.000935201)
(0.560061 -0.000456108 5.9369e-05)
(0.199365 -0.196652 0.000739561)
(0.563767 0.000313155 0.00116951)
(0.574314 0.000286459 2.14384e-06)
(0.379788 -0.147297 0.0155551)
(0.526828 -0.00158474 -0.000301518)
(0.551562 0.0164317 -0.0119346)
(0.562556 0.00273025 0.00160683)
(0.561086 -0.000269051 -0.00249465)
(0.563484 -0.00168488 0.00130314)
(0.562488 0.000486739 -0.000513055)
(0.563746 0.000122761 -0.000175806)
(0.565002 -2.16018e-05 -0.000430423)
(0.5647 -0.000547772 -0.000503475)
(0.553116 -0.00291033 -0.000644992)
(0.560734 0.00442963 0.000762782)
(0.575911 0.0041785 -0.0028282)
(0.581581 0.00298505 -0.000783286)
(0.564387 0.000358192 -0.00136214)
(0.530702 0.000397283 -0.00296418)
(0.571561 0.00234744 -0.00161213)
(0.198921 -0.199129 1.81206e-06)
(0.560191 0.000616846 -0.00129732)
(0.199601 -0.199555 0.000197467)
(0.561369 -4.48306e-05 0.00020899)
(0.584049 0.00162509 0.00227972)
(0.567171 1.44463e-05 -0.000118979)
(0.567564 -0.0274389 0.0128994)
(0.53283 -0.00245742 0.000879277)
(0.535195 0.000152791 -0.00646565)
(0.56161 -0.000527088 0.000233359)
(0.563033 -0.00024227 0.000693474)
(0.563952 0.00123874 0.00237374)
(0.587512 0.0138908 0.0118566)
(0.563705 -3.53025e-05 8.05865e-05)
(0.563967 -0.000241098 0.000177044)
(0.200001 -0.19986 0.000342253)
(0.561625 -5.89072e-05 -0.000227411)
(0.558022 -0.00163879 1.91338e-05)
(0.199438 0.19921 -3.44053e-05)
(0.564299 -0.00147035 0.000768394)
(0.575422 0.0178191 0.0084102)
(0.572386 -0.00469372 0.00678302)
(0.565002 8.05335e-05 -0.00135487)
(0.561299 -0.000258757 0.00149812)
(0.200475 -0.200414 -0.000942883)
(0.205311 -0.20225 0.000306972)
(0.574575 0.00518021 -0.00142388)
(0.565975 -0.000365681 -0.000493386)
(0.563244 -0.001032 -0.00402338)
(0.202961 0.200382 -0.00178364)
(0.565228 -0.000610461 -0.000413919)
(0.200612 -0.199904 0.000297237)
(0.562054 -0.000429149 -0.000185345)
(0.563664 -0.000814195 -0.00100933)
(0.516594 -0.00742978 -0.00328068)
(0.580707 -0.00169743 0.00291304)
(0.200022 0.19974 -4.2103e-05)
(0.565384 -0.00104802 0.000626009)
(0.55407 -0.000110604 0.000309064)
(0.562407 -9.65008e-05 -0.00191073)
(0.566115 -0.000701864 -0.000171687)
(0.563972 0.00101132 -0.000934752)
(0.565154 -0.0012293 -0.000123239)
(0.56265 0.00165754 9.82334e-05)
(0.562259 0.000231849 2.84858e-06)
(0.580691 0.0013262 0.00229315)
(0.199644 -0.199555 0.00024855)
(0.547046 0.000398875 -0.000348526)
(0.561539 -0.00022025 0.00109065)
(0.577656 -0.00121386 0.00145427)
(0.564683 -0.000136113 -5.75608e-05)
(0.555194 -0.00157365 0.00151546)
(0.57699 0.000109207 0.000599706)
(0.200507 -0.199438 -0.000180461)
(0.560188 0.00514271 0.00196705)
(0.559704 0.00733593 0.00688903)
(0.567508 -0.000217839 -0.000146867)
(0.563851 0.000632008 -0.000608131)
(0.565744 0.000157909 5.5681e-06)
(0.560568 -0.00508305 -5.62374e-05)
(0.198388 0.198591 -0.000307271)
(0.199871 0.199797 -3.885e-07)
(0.198964 0.199801 2.61137e-05)
(0.563769 0.00214586 0.00287504)
(0.554097 -0.00311572 -0.00800185)
(0.504324 -0.00180769 0.000853652)
(0.57713 0.000970172 0.000560686)
(0.566686 -0.00295857 0.000959319)
(0.562939 -0.000511322 0.000677874)
(0.563138 0.000697971 -6.74764e-05)
(0.560046 0.000141732 0.000580516)
(0.563476 -0.000144748 0.000181539)
(0.202955 0.198906 -0.000337608)
(0.555877 -0.00674192 3.79413e-05)
(0.562456 -0.00056848 -0.000100539)
(0.560009 0.000885228 0.00130165)
(0.562514 -0.0005719 0.00059661)
(0.571977 0.000468679 0.000492253)
(0.567419 0.000770288 9.53138e-05)
(0.560564 0.000690303 -0.000753143)
(0.590315 -0.0014453 0.00685468)
(0.574143 0.000893442 0.000254224)
(0.559865 -0.000553076 -0.00130248)
(0.571355 0.00036318 -0.000106891)
(0.559648 0.000800419 0.00146293)
(0.562077 -1.82027e-05 -0.000156477)
(0.556088 0.00348945 0.00266911)
(0.566574 -0.000221762 -0.000474158)
(0.197299 0.196543 0.000418494)
(0.198806 0.198752 -9.44402e-05)
(0.573645 -0.00181623 0.000793146)
(0.55706 0.00034165 0.000310331)
(0.566085 7.48897e-05 0.000486226)
(0.199187 0.200507 0.000238509)
(0.200009 -0.199959 -0.000255453)
(0.562744 -0.000773349 -0.000138196)
(0.200481 -0.200704 -9.20634e-06)
(0.564084 0.000273897 -2.59313e-06)
(0.567287 -2.16874e-05 -2.58969e-05)
(0.565729 -0.000247265 0.000110837)
(0.570645 0.000196653 0.000267071)
(0.560901 -0.00414998 -0.00135047)
(0.197936 0.200093 0.00148551)
(0.56806 -0.000716827 5.29713e-05)
(0.564782 -0.00020327 -5.40191e-06)
(0.198152 0.19836 0.000186253)
(0.563496 0.000302958 0.000467606)
(0.198282 0.200198 0.000328646)
(0.197312 0.196193 9.448e-05)
(0.566827 0.000224685 -0.000503753)
(0.567472 0.000662483 -0.000130701)
(0.564249 -6.71671e-05 4.85736e-05)
(0.199169 0.198909 -0.000637349)
(0.199053 0.199096 0.000121303)
(0.486583 -0.000421237 -0.000859006)
(0.565744 -0.000496799 0.000991916)
(0.56621 0.000111062 -0.000247881)
(0.567092 -0.000416911 -0.000373241)
(0.564117 0.000498832 -0.000742623)
(0.565967 0.000244123 -0.000458751)
(0.563194 0.0202851 -0.014397)
(0.199761 -0.200313 -0.000235142)
(0.564145 -0.000509578 2.01394e-05)
(0.560828 2.15179e-05 0.000174166)
(0.199429 0.199453 -4.01406e-05)
(0.200328 0.19868 -0.000271644)
(0.557015 -0.000217368 0.000160178)
(0.5637 -0.000375501 5.44363e-05)
(0.198437 -0.198836 0.000602002)
(0.566669 -0.000295337 -0.00010645)
(0.564931 0.000195101 -0.000185497)
(0.564931 -3.63368e-05 -0.00108203)
(0.590696 0.0429563 -0.0159315)
(0.56317 0.000475342 8.69062e-05)
(0.568915 -0.000418089 -2.93288e-05)
(0.559139 0.0240681 -0.00294324)
(0.637592 0.129703 -0.0577309)
(0.566477 1.34327e-05 0.000119551)
(0.255774 0.159992 -0.00745651)
(0.561678 0.000569497 -0.000149073)
(0.200367 -0.199998 -6.60572e-06)
(0.558105 9.36834e-05 0.000959998)
(0.199713 -0.199532 0.000633721)
(0.565535 0.000150659 -0.000476637)
(0.563658 0.000442617 -0.00042099)
(0.199501 0.200287 -0.000232175)
(0.560793 0.000598955 0.000718018)
(0.565815 -0.000616761 -0.000277753)
(0.568218 -0.000302466 -0.000268619)
(0.19942 0.199114 4.73217e-05)
(0.198756 -0.199014 -0.000229638)
(0.561692 -0.00055049 0.000765842)
(0.163069 0.115894 0.0439184)
(0.567009 -0.00122276 -0.000655777)
(0.20042 -0.199736 0.000193875)
(0.582346 -0.000965054 0.00738623)
(0.561718 0.00046429 -0.000123457)
(0.567172 9.09308e-05 -0.00029274)
(0.200404 -0.198004 -0.00141028)
(0.568143 -0.000299867 -0.000172772)
(0.565508 -0.000987177 0.000600835)
(0.207267 0.196029 -0.00114399)
(0.568369 0.000180345 -0.00072385)
(0.566345 0.000271971 -0.00122441)
(0.567656 0.000314019 6.74172e-05)
(0.566567 -0.000304116 -9.67296e-05)
(0.568047 -6.14477e-05 -0.000194959)
(0.566135 -0.000430657 -0.000483996)
(0.200168 -0.20066 -0.000273084)
(0.192469 0.193549 0.000609876)
(0.560467 0.000413085 0.000975842)
(0.565442 0.000857 0.00223763)
(0.564722 -6.12829e-05 -0.000358031)
(0.568097 9.99172e-05 -0.000359717)
(0.199521 0.199445 1.81303e-05)
(0.566059 -0.00020369 -3.97429e-05)
(0.56536 0.000121184 -0.00100912)
(0.570964 -0.000267905 0.000417303)
(0.566704 0.000207692 -0.000271413)
(0.568435 -4.81812e-05 -0.000363212)
(0.560418 0.000817077 0.000754534)
(0.565346 0.000521785 -0.00111384)
(0.565023 0.000516251 -0.000809066)
(0.198826 0.198663 -0.000342039)
(0.558657 0.000463959 -0.000127233)
(0.227806 -0.191967 -0.00759451)
(0.553854 -0.00344206 0.000624701)
(0.196659 0.191302 -0.00190575)
(0.198307 0.198716 -5.58985e-05)
(0.565703 -2.55655e-05 0.000146009)
(0.564827 1.20446e-05 0.000232351)
(0.199218 0.198899 -5.61291e-05)
(0.555871 -0.000475219 0.000465128)
(0.565506 -0.000625898 4.44644e-05)
(0.566355 -0.000483549 -0.000125399)
(0.566302 1.93911e-05 -0.000540443)
(0.199204 0.198399 0.000739438)
(0.564953 0.000280362 6.80246e-05)
(0.559953 -4.31401e-05 0.000667917)
(0.560548 4.47791e-05 0.000582946)
(0.567148 0.00021575 -0.000309351)
(0.562431 2.86779e-05 0.000393524)
(0.567027 -0.000100748 -0.00037598)
(0.565625 5.50849e-06 -0.000124305)
(0.565847 0.000168857 -0.000117465)
(0.562373 -8.51567e-05 0.000276128)
(0.573726 -0.000834788 0.000506641)
(0.157227 0.0630564 -0.0719364)
(0.562824 -3.33281e-05 0.000371848)
(0.198254 0.19872 0.000269317)
(0.565511 0.000175059 0.000905005)
(0.566688 -0.000175799 -0.000690363)
(0.562974 0.00243126 -0.000627724)
(0.558049 -0.00216591 0.00389087)
(0.564421 -0.00101341 0.0020978)
(0.568204 0.000402366 6.16744e-05)
(0.567417 -9.6578e-05 -0.000810066)
(0.566901 -0.00026217 -0.000270605)
(0.567044 -0.000809787 -0.0008948)
(0.56114 -0.00110488 0.000855229)
(0.197977 0.199503 -0.00291065)
(0.566706 -0.000239398 0.000233938)
(0.565992 0.000339348 0.000333196)
(0.56789 -0.000308967 9.40578e-05)
(0.56602 -0.000100492 -0.000395278)
(0.566384 -0.00073735 -0.000627147)
(0.562661 -8.04322e-05 0.000385623)
(0.556434 0.0064743 -0.00109388)
(0.572339 0.000756614 0.000629626)
(0.558273 0.00180563 -0.000942829)
(0.56251 0.000323267 -0.000889662)
(0.199321 0.199328 8.39005e-05)
(0.20051 -0.199733 -2.2083e-06)
(0.566799 0.000173468 0.000180675)
(0.56776 0.000430353 0.000320866)
(0.562602 -0.000526344 0.00043061)
(0.558825 0.000716147 -0.00209897)
(0.561464 -0.000866643 6.14532e-05)
(0.198841 0.199067 -0.000329119)
(0.199095 0.199301 -0.000157231)
(0.566904 -0.000824249 -0.000893091)
(0.564126 -0.00043911 0.000146377)
(0.565602 -0.000281579 -0.000328139)
(0.565728 -1.79156e-05 -0.000197282)
(0.565005 -0.000127103 -0.000731634)
(0.566435 -0.000371898 -0.000196958)
(0.220701 -0.153161 -0.0146226)
(0.568007 0.000178346 -2.83748e-05)
(0.561833 -0.0011463 0.000862086)
(0.559942 0.000524248 -0.00084066)
(0.556672 3.591e-05 -0.00177799)
(0.568204 -0.000142133 -0.000105638)
(0.541667 0.00365729 -0.0126855)
(0.557186 0.0161727 -0.0104701)
(0.568006 0.000104993 3.17017e-05)
(0.562177 -0.000833999 0.000832086)
(0.560599 -0.000281277 0.000388212)
(0.563116 -0.000624385 0.00063565)
(0.57324 0.000304838 -0.00102707)
(0.199321 0.199351 3.07037e-06)
(0.55651 0.00231878 -0.00216181)
(0.56725 -5.55373e-05 -5.96501e-06)
(0.550602 -0.00211707 -0.00584915)
(0.566149 0.000118244 -0.000587163)
(0.566917 7.83958e-05 -0.000595151)
(0.19973 0.197602 -0.00081229)
(0.563204 -0.00096256 0.00411582)
(0.573329 -0.000432088 0.000111735)
(0.56712 -1.07408e-05 -0.000598694)
(0.561141 0.000314495 0.000992315)
(0.553622 -0.000175761 -0.00167243)
(0.199309 0.20511 -0.00187076)
(0.197819 0.195524 -0.00103413)
(0.566087 0.000348088 0.000184489)
(0.566563 -0.00022093 -0.000160509)
(0.566538 -0.000106922 4.16275e-05)
(0.567786 -5.83196e-05 3.68897e-05)
(0.566358 0.000152288 3.8987e-06)
(0.565446 0.00053455 0.000446685)
(0.562491 -0.000645659 0.000810674)
(0.566506 0.00156442 -0.00273184)
(0.565639 -0.000236765 -0.000840945)
(0.566166 0.000866163 -0.000283548)
(0.564122 -0.00127573 0.00227514)
(0.561225 0.00117374 -0.000712717)
(0.56284 -0.000653132 0.0001444)
(0.566445 0.000198952 -0.000407028)
(0.198623 0.198605 9.42919e-05)
(0.566929 4.87751e-05 -0.000303342)
(0.200425 0.200581 -0.000123596)
(0.199591 0.199156 4.68124e-06)
(0.565826 0.000952564 -0.000462318)
(0.562745 8.55935e-05 0.000181262)
(0.56694 -0.000831667 0.000528891)
(0.200416 -0.200246 -3.56091e-05)
(0.564509 2.97685e-06 0.000449392)
(0.560785 0.00106742 -0.00171914)
(0.56762 0.000529109 -0.00107751)
(0.199547 0.199645 9.26951e-05)
(0.565101 -0.000314414 -0.000201832)
(0.197084 0.198847 -0.000606541)
(0.563426 -0.00031864 0.00337163)
(0.198055 0.196973 -0.000142157)
(0.561777 -0.000268567 0.00101502)
(0.558421 -0.000236343 0.0010789)
(0.56369 -0.000145393 2.52493e-05)
(0.565584 0.000777867 -3.0144e-05)
(0.200337 -0.200252 0.000102406)
(0.198374 0.198349 -0.0001709)
(0.566804 0.00265547 -0.0030043)
(0.555287 -0.000243018 0.00188116)
(0.567469 8.2944e-05 -0.000858321)
(0.566228 7.39115e-05 -0.000355017)
(0.565181 2.74286e-05 -0.000757615)
(0.563994 0.00118181 -0.0003511)
(0.574573 0.0032037 -0.00126907)
(0.199735 0.199935 -0.000272147)
(0.581991 0.00714294 -0.000903)
(0.565135 -0.000518372 -0.000743472)
(0.541741 0.0633006 -0.0392831)
(0.198088 0.196662 0.000529788)
(0.567623 0.00127965 -0.00162403)
(0.54656 0.000439316 0.00145272)
(0.199411 0.19782 0.00170437)
(0.581613 0.00226986 0.00103724)
(0.567739 -0.00024701 -0.000526798)
(0.199678 -0.199566 -7.08932e-05)
(0.558468 9.27895e-06 0.00129634)
(0.596358 0.00844651 0.00147105)
(0.56672 -0.000486554 -0.000169879)
(0.561982 -0.00145999 0.00245406)
(0.576408 0.00508569 0.0274432)
(0.560346 0.000815941 -0.000484994)
(0.563966 -0.000141738 -0.000399867)
(0.560374 0.000105296 -0.00196548)
(0.539728 -0.000119324 6.74638e-06)
(0.56703 -0.022968 0.0259466)
(0.564243 0.000330245 0.000767574)
(0.555472 -0.00110689 -0.000191644)
(0.566448 1.19829e-05 -0.000165371)
(0.575445 -0.00145834 0.000978526)
(0.567318 -3.57314e-05 7.78431e-05)
(0.56764 0.00217367 -0.0015828)
(0.199414 0.199487 2.34696e-05)
(0.566561 0.000717539 -0.00026233)
(0.580711 0.000390283 0.00146448)
(0.591038 0.00558403 0.00794032)
(0.199738 -0.199758 -7.65176e-05)
(0.562165 -0.00107957 0.00108643)
(0.569032 0.000434033 -0.000192323)
(0.197201 0.195144 0.000400693)
(0.557974 0.000401516 -6.23246e-05)
(0.562276 0.000163021 -0.000470866)
(0.566142 0.000403719 -0.000619265)
(0.56892 0.000368473 9.00598e-05)
(0.562035 -0.000542659 -0.000348428)
(0.56547 -0.000237088 0.000199851)
(0.198914 0.199226 -0.000232499)
(0.562275 -0.000266411 -0.00174848)
(0.570687 8.02022e-05 -0.00029576)
(0.198981 0.198968 0.00023677)
(0.200023 0.199453 -0.000105916)
(0.565788 0.000428688 0.000316124)
(0.199436 0.19978 -0.000109319)
(0.564452 -0.000186558 0.000393795)
(0.56018 -0.00405264 -0.00033481)
(0.566238 0.000267174 -0.000309826)
(0.562375 -0.000601937 -0.00228602)
(0.562341 -3.80769e-06 -0.00184262)
(0.283875 -0.0198011 0.0421836)
(0.199424 0.19967 0.00019296)
(0.571496 0.000346913 -1.57982e-05)
(0.566131 5.56753e-05 0.000159677)
(0.562954 0.000576315 -0.000469095)
(0.560643 0.00273058 -0.00192274)
(0.56317 -0.000131906 -0.00077643)
(0.19914 0.199303 -0.000233538)
(0.544427 -2.72666e-05 -0.000762037)
(0.560666 -0.000190043 -0.00088101)
(0.555988 0.00165786 0.00417778)
(0.567079 -0.000226963 0.0010994)
(0.563781 -0.00104901 -0.00033219)
(0.554564 0.0173019 -0.0204818)
(0.566527 -0.00165666 5.98557e-05)
(0.55125 0.00598156 -0.0109402)
(0.198603 0.195236 -0.00125748)
(0.19967 0.199599 0.000177226)
(0.199099 0.199189 -7.355e-06)
(0.566949 0.000298962 -0.000111481)
(0.565948 -0.000500731 -0.000509116)
(0.199136 0.198572 -0.000114312)
(0.564229 -0.000116741 0.000817107)
(0.557586 0.00377296 0.00295994)
(0.557155 -0.00075572 -0.000611705)
(0.501303 0.0706988 -0.0404882)
(0.559333 -0.000793007 -0.000490328)
(0.565778 0.000201773 0.000124341)
(0.199832 0.204355 0.000335147)
(0.557149 0.0131377 -0.0206283)
(0.19988 0.199834 0.000187823)
(0.198918 0.19838 0.000350597)
(0.566183 -0.000224639 -2.71971e-05)
(0.317964 0.243319 0.0367202)
(0.289894 -0.118054 -0.00412354)
(0.562675 -0.00131035 -0.000149487)
(0.194326 -0.197747 0.000260576)
(0.566255 0.000126035 -7.20711e-05)
(0.56077 -0.00257311 -0.0051097)
(0.570029 0.0191864 -0.0138893)
(0.565767 -0.000194395 0.00036021)
(0.575816 0.0110954 -0.0034768)
(0.563836 0.000349284 0.00018789)
(0.570801 -0.0364754 -0.0106408)
(0.199019 0.198994 4.1591e-05)
(0.19889 0.198024 0.000209084)
(0.564642 -0.000982839 -4.82191e-05)
(0.563575 -0.000706263 0.00107201)
(0.566994 -0.000407529 0.000183509)
(0.195871 0.198987 -0.00154602)
(0.560197 0.0011404 4.62716e-06)
(0.565589 -0.000416522 0.000104429)
(0.56589 -6.8523e-05 -0.000265502)
(0.199254 0.199481 0.000837164)
(0.565649 0.000221296 -0.000592809)
(0.565824 -0.000243917 -0.000262527)
(0.511015 0.0570787 0.0379112)
(0.19912 0.199148 -0.000142824)
(0.645298 0.172777 -0.00638632)
(0.522352 0.0735305 -0.0534681)
(0.2002 -0.199484 4.35966e-05)
(0.19981 0.199079 0.000337904)
(0.198923 0.198527 5.44866e-05)
(0.200495 0.199837 0.000423545)
(0.199963 0.199715 -0.000801957)
(0.565854 0.000579797 -0.000108382)
(0.566381 -0.00014901 0.000213203)
(0.564944 0.000509189 0.000160165)
(0.199455 0.198445 0.000171712)
(0.56503 -0.000324217 -0.000141168)
(0.5675 3.10218e-05 0.000405378)
(0.199648 0.198943 0.000265011)