/*--------------------------------*- C++ -*----------------------------------*\
  =========                 |
  \\      /  F ield         | OpenFOAM: The Open Source CFD Toolbox
   \\    /   O peration     | Website:  https://openfoam.org
    \\  /    A nd           | Version:  10
     \\/     M anipulation  |
\*---------------------------------------------------------------------------*/
FoamFile
{
    format      ascii;
    class       volScalarField;
    location    "18";
    object      p;
}
// * * * * * * * * * * * * * * * * * * * * * * * * * * * * * * * * * * * * * //

dimensions      [0 2 -2 0 0 0 0];

internalField   nonuniform List<scalar> 
111485
(
7.87087
0.0359845
0.027875
7.87169
0.0213578
7.6171
0.0199035
0.0268985
0.0203465
0.012153
0.0191178
0.0190268
0.0236787
0.00852738
0.0215861
0.0475126
0.0286083
8.79307
0.0253102
7.87228
7.87243
7.62027
0.0176658
0.0363392
0.0161986
7.84568
0.0272624
0.0502085
0.0262816
7.87199
-0.0662635
0.0179353
7.87431
7.61651
8.57821
7.57767
-0.0414807
0.0521548
-0.0948838
0.030824
7.66389
0.011992
0.0315043
-0.0159967
-0.240421
7.88585
-0.000827853
0.0321791
0.00709522
7.91372
7.91186
7.36774
7.92034
-0.0310499
7.92533
0.0300892
0.025458
7.62565
-0.0802371
0.0282068
0.0294176
7.87131
0.0258911
-0.0557266
7.66374
0.0306081
5.1084
0.0258569
0.0133727
0.0246916
-0.122798
0.0376433
7.72404
0.0129179
7.87744
0.0345112
7.62011
0.00810861
7.6187
8.062
-0.0953124
-0.0196266
7.61995
7.87372
0.0314034
0.018973
1.76542
-0.0370621
-0.0868961
0.0410824
-0.193137
0.0210711
0.0299905
0.0467724
0.0121054
7.8734
7.87135
-0.0200985
-0.722758
0.0841309
7.87111
0.019745
7.60634
0.00379702
0.0196887
7.9182
7.62376
0.0173733
0.0189765
-0.328734
0.0223741
0.0392356
0.0266182
0.0184347
7.84221
0.0331967
7.85885
7.61794
0.0198273
7.87319
7.84466
6.66963
7.62081
7.62585
0.0114386
8.95098
6.63247
0.0211593
7.87437
0.408894
-0.0863336
-0.0212219
7.87792
6.51646
6.80494
0.0204419
7.62006
0.0356966
0.0162977
0.0355683
-0.0247706
0.0186833
0.0236849
0.0288313
-0.008508
0.03306
7.62003
7.87285
7.63031
0.0258711
0.0246164
7.8701
-0.0546689
0.00923362
-0.643865
0.0277547
0.0231757
0.0186821
-0.501905
7.87913
7.87198
0.0249753
0.0177199
-0.462059
-0.581481
0.0282361
-0.0475448
7.6527
-0.424762
-0.390108
7.62504
7.87232
0.017547
7.62199
0.0296554
0.0172281
7.67423
7.70198
7.86159
7.81763
7.67309
7.87101
0.0327576
0.0279865
0.0349182
0.0698327
0.0143891
0.0322223
-0.0326305
7.87178
0.0193253
7.6972
7.85966
0.0402373
0.00516648
-0.0320163
0.0376164
0.0164172
7.87829
0.031578
0.0282094
5.30337
-0.00734615
0.0273829
7.86861
0.0360957
0.00237734
7.6959
-0.0374116
-0.000148743
0.0237871
0.0187067
7.6658
7.87095
0.0325451
4.96805
-0.0216975
7.6217
0.0351353
0.0374414
0.00976746
7.87088
0.0248299
-0.0466876
5.99795
7.62173
7.62519
-0.100424
-0.570272
7.73155
7.29375
0.0355106
0.0234675
-0.0753826
7.72951
7.80429
-0.0538341
7.8752
0.0162533
0.0327486
0.0331313
0.0206885
0.0322501
7.62641
-0.0905699
0.0202679
7.62935
7.62006
-0.0365979
0.0383399
7.78917
0.0320173
0.0327371
7.87302
6.36198
-0.0126737
7.88591
8.02196
7.18607
7.87198
0.0285817
0.023249
-0.0102203
7.87521
0.03183
7.87157
7.87002
7.87802
-0.0612722
0.00178146
0.0324153
0.0235231
0.0134582
0.0262979
0.0239083
-0.0629297
0.0105302
0.0212218
7.5786
7.8727
-0.0690419
0.0215379
-0.0802696
0.026628
7.8728
0.0328822
0.0213213
0.0264434
0.0295419
-0.0908066
0.0214997
0.0251158
-0.00978038
7.62222
-0.000623746
7.62203
8.7404
8.08915
-0.104021
0.00129697
0.0185971
7.86512
7.68605
0.0320932
0.0275898
7.86979
7.86879
7.92887
0.0219186
0.0302179
0.0286049
0.0261287
0.0218875
7.23078
7.62801
7.87425
0.0343141
3.25576
0.0043118
-0.0957328
-0.070805
7.6208
7.8705
7.87127
6.79927
0.0292116
0.0288459
7.61465
0.0321422
7.78532
7.86164
-0.0178078
0.0298399
0.0147261
0.0323357
7.98922
6.76378
7.61761
0.0294115
0.0200573
-0.067292
7.65716
0.470505
-0.134417
0.0288236
0.0339034
1.28485
0.0207614
7.6184
0.0156328
0.0356355
-0.0851293
-0.0244044
0.018276
7.61933
7.87571
7.62255
7.87495
0.0342438
0.029105
-0.00151979
0.0254197
7.63729
0.0228836
7.62489
7.87838
0.0218922
8.13677
6.95233
7.91503
7.57307
0.0264975
7.62432
0.0174069
0.0278608
7.6185
0.0129654
0.0316399
7.8593
0.0314049
0.0229792
0.0382202
-0.0337625
0.0410147
0.030832
7.99867
7.87357
-0.0048354
7.64218
0.0167729
-0.0312153
7.67249
7.62472
0.0318759
0.0210992
4.67066e-05
0.0347398
7.61982
-0.064162
0.0146867
7.61502
-0.0184691
0.000238357
7.86998
7.87118
0.0249464
0.0164743
7.60272
7.86282
5.8572
7.87047
0.0217429
7.62154
7.87132
0.0116658
-0.0800572
0.00534151
0.0295004
7.61826
6.8164
0.00845947
6.91602
-0.0143082
0.0127724
0.0177472
5.28258
6.99417
-0.487158
-0.296718
7.86949
-0.0347504
0.0213736
7.86898
-0.489497
0.0113232
6.95369
0.0169211
0.0181421
0.0389457
7.61954
0.268319
0.0156235
0.0493376
-0.118319
6.60952
-0.585383
7.87094
-0.025691
-0.168241
7.62555
0.00617341
0.00416799
6.42793
7.87414
7.4686
7.87139
0.0232979
0.0785006
0.0219329
0.0224369
-0.0403593
7.62211
-0.0334631
7.88317
0.0345198
7.60607
7.88053
7.88799
0.012788
7.87435
7.87095
8.34829
7.86975
7.63366
-0.0047324
7.62371
7.42263
7.61936
7.85851
7.61182
7.88052
7.62065
0.0105086
7.6179
-0.00788044
0.0132933
-0.0674416
7.62614
-0.00535008
7.62699
7.87055
0.00699683
0.00585482
0.0536933
-0.106356
7.32848
0.00129427
-0.00820306
0.0235678
-0.0134575
0.00974626
7.87341
-0.00367065
6.4392
0.0169405
7.62159
-0.00608089
6.66294
0.0237032
0.0270176
8.28987
7.68627
-0.0315313
7.87004
0.00127055
-0.006332
7.63243
7.63932
7.9267
7.6244
-0.960833
0.000962224
7.61493
7.62993
0.0194646
7.62021
-0.00139575
7.61934
-0.00425685
7.87079
0.0214565
0.0201707
0.0567575
0.0227181
7.59818
-0.127978
7.61323
7.62163
0.015428
7.62271
0.0115727
7.93294
-0.0203756
7.87258
0.0352152
7.87242
6.9618
-0.0918676
-0.0344903
-0.00300301
0.0207499
-0.0144327
0.00633424
7.62937
-0.0100549
-0.0151706
7.62103
-0.0343607
-0.0469935
0.00475448
7.68816
8.03551
0.0422003
-0.0259859
3.68884
7.71754
0.00837898
0.0309966
0.0168871
0.0144917
0.156702
2.53974
6.86837
-0.68338
3.14959
7.87191
0.0224007
7.64147
6.99214
0.0322187
2.48941
-0.703856
1.43392
6.86677
-5.84261e-05
0.0258519
7.63435
7.45023
0.0329189
7.87757
7.6202
7.62102
7.62459
0.0125981
7.62342
7.8292
0.0184801
0.0299285
6.01597
-0.0193326
7.31508
0.031055
7.9192
7.6273
0.00684692
7.62067
7.62476
6.95901
0.046219
4.64912
-0.0120845
0.0397052
7.88566
-0.209483
-0.0547859
0.0152467
0.00138224
0.273109
0.0108146
7.6241
0.00520824
0.0181062
7.87616
0.0266835
-0.00907894
0.0239423
0.0362439
0.0241105
0.023066
7.88585
0.012716
-0.0388524
6.93891
0.0248932
0.0266398
4.84818
0.0407954
0.0252727
0.0175289
0.0190275
0.0274793
0.0350443
7.76365
0.0213838
0.0117701
8.22804
0.00733547
-0.00663367
0.0387875
7.62373
0.0494574
7.89075
7.62045
7.63378
7.62268
0.0273143
7.05261
-1.02592
7.86789
7.56077
0.0168275
0.0111493
7.86892
0.00301482
7.86906
7.87312
7.92156
0.0058947
0.0200949
6.9874
7.82024
7.62293
7.62331
-0.0485582
0.0228501
6.80684
0.0143857
-0.39475
7.62803
0.0219389
-0.00275447
0.0837378
7.61937
7.6212
0.0285412
0.033385
6.92255
7.62567
7.61059
0.0207765
7.87568
7.86843
7.62289
0.0183578
0.0300981
7.61959
8.48126
8.21295
0.149639
7.62734
7.61874
-0.00897247
-0.0573445
6.90842
5.95231
1.15062
0.00242465
0.00241481
7.59736
-0.00973639
0.0100484
7.62071
7.91892
7.61956
7.62206
7.62595
7.61899
0.0351832
7.8702
7.62027
7.67884
0.0265233
0.0187966
7.87589
7.93225
-0.00991573
0.0278668
0.0369882
7.86779
7.62091
0.0277986
7.87334
0.00450428
0.0212509
0.0442162
7.84835
7.8712
7.87105
7.62252
0.0456608
7.62094
7.61995
-0.017379
7.87112
0.0390303
0.0205516
7.64258
0.0370637
7.84303
0.0287646
0.0071659
-0.0105714
-0.00299459
-1.25247
7.23525
0.0266947
-0.00457656
0.0011052
7.79226
-2.08858
7.14861
0.0243201
7.62521
-0.0135809
0.000526324
-0.0170096
8.07734
7.87128
7.8743
0.0312813
7.31223
-0.0246931
7.4496
0.0335812
0.0346393
0.0112739
0.0266083
7.61864
7.64557
7.74542
0.0293343
7.62198
7.23341
-0.139893
7.62458
7.63146
7.87264
7.62003
0.0118593
7.60785
7.6222
-1.55206
7.29464
7.64407
7.06333
7.62235
-0.0221322
0.0152479
7.86999
0.0269045
1.02182
-0.0217657
-0.366755
0.0262046
7.62762
0.00352144
-0.0136017
-0.0208717
7.87313
-2.6241
0.0119055
6.47609
-0.00235065
-0.0989962
-0.0844522
0.0112127
0.0280685
-0.121282
0.0388641
0.029196
7.60105
7.63565
0.0123417
0.000766942
7.62657
0.0149358
0.0178792
0.0234979
7.61737
-0.102545
7.62108
0.0211658
0.0150184
7.61941
-0.065357
0.0288011
-0.140635
-0.0213306
7.57584
0.0241854
-0.134953
-0.0569939
-0.138349
-0.0234676
7.61148
7.63169
-0.00760751
7.61999
0.0409261
-0.0614961
6.72578
-0.4541
-0.807811
-0.284822
7.61993
6.38845
0.0296069
7.87364
9.45972
-0.0311312
7.61445
7.61835
-0.706603
-0.843221
7.62011
-0.103677
7.62205
7.62073
7.87539
7.86985
7.95318
7.87248
-0.00934069
7.62351
7.6254
7.63149
-1.42474
0.0304566
0.0107778
0.0305351
7.63368
7.61818
-0.0324926
7.62143
7.62212
5.82011
-0.0372887
0.0297918
7.61959
7.61425
7.6307
7.61849
7.56779
7.61741
-0.0558981
7.62377
-0.184203
0.0226956
7.62294
7.88164
7.92886
-0.105919
7.92103
7.8724
7.63856
-0.193259
7.62009
-0.048868
-0.0526985
-0.162414
7.6172
5.29339
-0.0242914
0.0172926
7.66318
-0.180283
0.000182523
7.87996
7.59486
6.89883
7.61501
0.0280471
0.0222021
-0.0473587
-0.32898
7.62032
0.0307639
7.57288
6.83369
6.85566
7.6253
0.0277894
7.62142
7.9394
-0.0481713
0.0349224
7.93648
0.0106845
7.3192
-0.0672131
7.98333
7.62141
7.59354
7.8714
0.0270102
0.0305106
0.375274
7.62131
7.6696
0.0172016
7.62027
7.07756
7.8709
0.00912896
-0.317177
0.0562784
7.86132
-0.0550207
-0.0430317
8.24626
-0.0427405
7.62753
-0.0245518
-0.011274
0.0193552
-0.0699079
-0.16181
7.62075
7.62205
7.6217
-0.0547473
7.69295
-0.0914546
7.87562
0.754705
7.87046
0.0283639
0.0297508
7.94114
7.61959
7.95836
7.63187
-0.0932388
7.96652
6.90673
0.00663409
-0.0864161
7.91638
7.04177
7.70962
7.06187
7.62058
7.62054
-0.0849104
0.020826
7.87172
7.86412
-0.609506
7.87734
-0.0846509
0.0251219
7.70319
-0.0180654
7.87136
0.0189032
7.6285
0.0267374
7.61921
-0.56562
-0.289091
-0.128262
-0.0236605
-0.02804
4.69603
7.54915
-0.014799
7.91545
0.0217504
7.86935
7.65115
7.62234
7.63256
7.6566
7.62656
-0.0383203
-0.0496841
7.87163
6.65357
7.87715
-0.0368313
-0.105386
7.86818
0.0332586
-0.131361
7.92931
0.0286782
0.0277412
0.0243784
-0.127701
7.62025
7.62
7.64973
7.62036
0.0277192
7.55166
-0.0181412
7.62094
-0.0274331
0.0306323
7.62438
-0.0356139
7.61287
7.61994
-0.0284495
-0.0659645
2.1468
7.62164
7.95257
7.61232
0.0296407
7.51084
7.9228
7.52904
0.880918
6.73286
-0.509
7.03405
7.49258
7.76698
0.0213524
0.00853473
0.0244984
0.0287687
7.85789
-0.0126236
7.62273
7.62493
0.0185138
7.59639
-0.624783
-0.0234992
0.0335675
-0.029223
-0.943513
0.00948593
7.62393
-1.40043
-2.94582
0.00590977
-0.018472
0.0264157
5.55555
7.86668
0.0130898
7.87489
7.61812
-0.225866
0.0119839
-1.0967
7.60566
7.45051
-0.0570523
7.92889
7.62047
-0.0346003
7.9477
7.93672
0.118722
-0.0351471
-0.0758403
0.0544663
0.0299355
7.6235
7.62034
-0.255308
0.0327112
7.62098
7.94194
0.0454155
7.63117
6.61059
6.76698
6.80331
4.37314
6.63045
7.62251
0.0326211
7.6071
-0.0608921
7.62065
3.44374
7.67841
7.64377
7.62432
7.62091
0.0402806
7.62069
7.62038
6.92383
7.61596
7.62493
7.61798
0.031433
7.63801
0.0266241
-0.0655079
7.64613
0.0538
7.6205
-0.0127012
-0.189161
0.0188904
0.0272951
7.84445
0.0247965
0.0360723
-0.133071
7.87473
-0.0901227
0.0303433
0.0270337
7.33499
0.0187373
7.6911
7.62265
7.62271
7.61959
0.0243865
7.62184
7.60988
0.0207959
-0.117341
0.00928765
7.63384
5.43847
0.0426565
7.62681
-0.35063
7.92608
0.0141915
7.61631
7.61887
0.00703668
7.61667
-0.00261289
7.87452
7.62025
0.0327502
-0.0237702
0.0278518
0.0283346
-0.116232
0.0249474
7.6206
8.02502
0.0243922
0.0328531
0.0370882
-0.0770266
7.62019
0.0283644
7.61995
7.79738
0.0148961
-0.051393
7.63192
0.0273233
7.61019
0.0225366
0.0346768
7.71044
7.61946
7.62263
0.0234541
7.62342
7.62171
0.0268956
0.0228472
-0.0258788
0.0236032
7.64153
7.6335
0.0238104
0.0393211
7.62536
0.0217253
7.70735
0.0176875
7.62055
7.6201
0.00318659
7.61974
-0.0089658
0.0402452
7.62587
7.61885
0.014014
6.47982
0.0430674
7.87091
-0.0428976
7.8814
6.67965
6.45628
0.037483
6.9689
6.8947
0.0206061
6.8532
4.26388
6.3408
7.68084
7.87587
-0.159759
0.036734
7.66157
7.62001
0.0130781
0.0246279
7.63032
0.0243871
7.61862
7.88083
0.0176231
0.007174
0.125731
7.61937
7.62312
7.62171
7.62009
7.61416
7.61736
7.615
7.61478
7.61864
7.61784
7.62074
7.87719
7.6238
7.61865
7.62101
7.79183
7.61915
7.61955
7.62035
7.6481
7.81736
0.0312537
7.62223
7.61946
7.63365
0.0350446
7.6261
7.88083
2.95869
7.60848
7.51638
0.026474
8.24738
7.57211
3.49133
0.0219655
7.62154
6.7609
7.26075
7.6184
-0.0133502
0.0235798
0.0211671
0.0127563
0.0370418
7.90089
7.61332
0.0234473
0.0294514
0.0112658
7.61764
0.0293684
-9.91487e-05
0.0346359
0.0227107
0.0238989
0.0131672
0.0280865
0.0237024
7.88601
0.031561
0.0336438
0.0244973
0.0264626
7.62077
7.62018
7.62107
7.87146
7.61834
0.0312521
0.0320282
7.62396
7.61858
7.61907
7.82493
7.62097
7.87285
7.62535
7.87739
0.0369484
-0.206508
0.032843
0.0435543
7.59523
7.63531
-0.0176382
-0.244412
7.61953
7.62073
0.019903
7.88482
7.62073
0.0718748
0.00592731
0.0228816
0.0444045
-0.0138151
7.89718
0.0145162
0.0304683
6.90842
7.87463
0.0197918
7.8939
7.63212
2.39807
1.2878
0.0030484
7.77226
7.84944
-0.0262907
0.0310292
0.0329021
0.0304272
3.40203
7.8711
-0.00101115
8.23445
7.87363
7.56494
0.0114976
7.62046
0.0329382
0.00958945
0.0207301
0.0223181
7.87897
0.041583
7.87504
7.46058
7.87304
7.86401
0.0235704
4.49739
7.62032
7.87163
8.35726
0.0322731
6.85723
0.0165229
0.0261854
0.0231098
0.0286105
7.83007
7.86614
6.63645
0.0248175
0.0311277
-0.903448
7.91836
7.87093
6.82399
-0.00672565
-0.0125747
7.61893
-0.0288673
2.50226
0.0238627
0.0245313
7.87125
6.64373
0.0168064
0.0308762
7.6222
0.0197488
0.018397
0.00948349
0.000288574
0.025508
0.0428527
6.91154
0.0328901
0.029397
0.0330293
7.97294
0.0259839
6.99795
0.0434531
0.0258159
7.87409
0.0221427
0.0212518
0.0169907
0.0316974
8.74212
2.09531
-0.0351446
4.2871
0.0231554
7.64577
0.023586
0.023102
7.87798
7.62055
-0.345315
-0.0993172
0.0277745
8.73108
0.0193361
-0.188699
-1.14541
-0.0656817
7.87885
7.89208
0.0292399
8.34343
0.0298838
-0.198762
0.0225898
0.0341798
7.87112
0.0126129
0.030459
7.86992
6.9369
0.0393746
7.88649
0.0314295
0.035673
7.87232
8.78628
0.031523
7.87106
7.61904
7.62258
0.0305413
0.0440586
0.0247263
7.92619
0.0214422
0.0310231
7.6797
0.0341981
0.0222932
0.0263472
-0.111457
7.62033
0.0242075
0.0547379
0.0340883
0.0222731
0.0274708
-0.140104
0.0400701
7.87066
-0.0493596
0.02408
7.87091
0.0295038
7.62845
7.62193
7.8747
7.63256
7.87292
0.0187985
7.62287
0.0295151
-0.00489949
7.87554
0.0271472
7.81073
0.0189797
7.8774
-0.149272
7.65124
0.0183131
0.0184977
-0.169264
0.0431903
0.0253702
0.0279696
0.0299311
0.0431995
2.78077
0.0353887
0.0127923
0.0457787
7.87293
0.0468405
-0.103584
0.0413583
0.0240853
-0.150379
7.87506
6.77684
7.87434
0.025096
7.8705
6.17005
0.0264347
8.38864
0.0227517
7.86234
7.84015
7.62039
0.0250772
0.056193
0.0259833
-0.0283623
0.0261731
0.0291806
0.0380632
0.0166135
0.0174299
0.0361396
0.0265598
7.88559
7.57583
7.86578
0.0264839
0.03472
7.65589
7.6203
6.30638
0.0506902
0.020577
7.87087
0.0285965
7.86902
-0.415344
0.0289847
-0.0490721
7.87213
7.87056
0.0179519
7.87101
0.00683538
0.0326718
7.46098
0.028439
0.0263212
0.0282144
7.87002
-0.0937696
6.98859
-0.0119082
0.0217535
7.8737
7.88383
0.0295284
5.53635
7.90291
0.0375083
0.032624
7.87141
7.85341
6.9446
0.0189521
6.2864
0.0247436
-0.0188339
0.0129857
7.87091
7.03372
-0.0204584
7.86969
7.62745
7.87331
7.87436
7.14341
7.72341
7.57004
7.87138
7.88798
7.30448
8.39546
7.63888
0.0164134
7.64836
6.7564
6.39249
8.90472
6.89678
7.87104
-0.018288
7.39112
7.7079
-0.0180737
8.20671
8.5713
7.77777
-0.0273236
8.36554
-0.0163087
-0.0683087
0.0258025
7.17314
7.87386
-0.00830542
-0.437788
7.83336
7.86518
0.029732
7.09438
0.0294314
7.01816
7.60372
7.73453
0.0281287
0.0317527
7.8699
0.0177113
7.9035
7.38959
-0.170083
0.0475067
-0.0160828
7.61909
0.0308859
7.23012
-0.0106259
7.62067
7.8704
7.61931
6.99026
0.0452991
0.0368924
7.87367
-0.750915
7.87992
7.89191
7.87954
7.87211
-0.0107456
-0.0250294
0.0384318
-0.00109415
7.83281
0.0226229
0.0220022
0.0405076
-0.0167214
7.6716
0.0316533
0.0142971
0.00369603
-0.411136
0.0309819
7.92203
-0.00319068
-0.00953866
0.0319087
-0.00900755
-0.0316098
7.90083
-0.0243536
7.77646
7.87524
0.0281263
7.87899
0.0370713
7.86892
7.93715
7.55803
7.8778
7.87288
-0.0325103
7.87646
0.00132136
7.2033
7.62557
0.0330407
0.0115862
0.0357861
-0.00333341
7.88967
0.716243
7.87376
-0.00640771
7.93842
0.0263736
-0.01303
-0.00204449
0.00904924
7.96865
7.97557
7.87799
0.0329826
7.63644
7.86415
0.0285986
7.61139
7.61871
0.0159259
7.96851
0.017391
-0.417609
7.15488
7.49741
7.43561
0.0167644
0.0224284
7.87118
0.00756408
0.00113331
6.99537
-0.006118
7.86991
0.0251821
0.0330513
0.0431402
7.87326
0.0234569
0.0263883
-0.0125201
0.0114739
0.0204953
7.87285
7.87123
-0.0866604
7.86648
7.61797
7.86938
0.0187725
-0.00330669
0.0248638
-0.026091
6.87527
0.00820177
0.0252266
0.0217078
-0.0483402
0.0304709
-0.00437438
0.0256715
7.62005
7.62041
7.62019
0.0439877
7.62238
-0.0195583
5.25542
0.0156553
-0.539627
0.0126051
0.0155237
7.61839
7.87217
0.0166173
0.0158766
7.88607
7.61438
7.87358
0.0160481
0.0184237
0.01494
0.0212288
0.0305326
0.023592
7.87169
7.87283
7.87078
0.0406227
0.0145675
0.00261861
0.0256653
0.0381143
0.0169272
7.84678
7.87099
6.34778
7.66267
0.0254944
0.0388231
7.86652
7.90427
7.8732
7.87515
7.83627
7.71464
0.00710299
7.87313
-0.0336362
-0.0990776
7.62667
0.0124656
0.0273502
0.0265606
7.91705
7.7608
0.00794496
7.87159
0.00645571
-1.20882
0.0243833
7.6646
5.94956
7.61973
7.87532
7.86686
7.60251
2.1181
7.88443
0.0219861
0.00303747
7.87412
7.87157
0.00459883
7.87719
7.62192
0.0204554
-0.183771
7.86017
7.86067
7.675
0.0449914
7.87116
7.87094
1.17961
-0.0103751
0.0036013
7.87086
7.62603
7.20705
-0.000823683
0.00376967
0.00166641
0.0159376
7.62
0.0549469
0.0131663
-0.000191732
7.56661
7.86879
7.87084
7.82481
7.87133
0.0317295
0.0280432
0.00756768
7.88949
7.87181
7.87088
7.86879
7.69278
-0.0228131
0.1105
0.0198554
7.62309
7.87167
7.92643
-0.989674
-0.0264723
-0.0527563
7.61986
-1.92776
8.25475
7.83713
7.87026
0.0307171
0.0431448
7.87327
7.90526
0.0222405
7.87228
0.0190927
0.0352841
2.74745
7.86902
7.66895
0.0283215
-0.0442146
7.90886
2.5565
0.0550751
0.0428281
7.87254
7.87518
7.88184
7.88007
0.0271358
0.0302452
7.87549
-0.0343245
0.000883104
0.223478
7.8714
7.87032
7.87174
7.87572
0.0206622
8.38218
7.87266
7.76636
0.0265429
0.00477024
0.0322858
7.84352
7.87159
-0.00529927
7.62278
7.87177
7.87337
7.8727
0.0284886
7.69387
7.60482
7.62241
0.0227589
0.0348946
7.86771
7.87355
7.85385
0.0251219
8.15066
7.87642
7.8559
7.87363
7.87303
-0.182038
0.0347293
7.91434
0.0298556
0.026282
0.0284172
7.87816
7.87458
7.87287
7.83344
7.61965
0.0428463
7.87232
7.38101
7.33997
-0.00244379
7.65017
-0.0102888
7.87111
7.62381
0.00158998
0.310083
7.0397
0.00889239
7.87365
0.00445349
8.12985
7.88977
7.92095
9.10377
7.87831
-0.021066
7.86899
0.0192881
7.62362
6.94206
7.87873
7.86642
0.017758
0.0474896
7.61998
2.65713
7.61939
-0.0610141
-0.0243047
0.0291076
7.62405
-0.331732
-0.0101462
-0.0329327
0.0345903
-0.604943
-0.0161606
7.5994
7.61983
-0.728731
0.0265744
0.0114414
7.90791
7.52166
6.37999
3.26636
7.87411
7.62466
7.87406
7.87469
7.8756
8.30252
0.0482043
-0.0561959
0.0360071
6.96877
-0.0754322
7.87363
0.021107
7.87072
7.88033
7.62159
7.71047
-0.0884974
7.69106
7.61607
7.87107
0.0263384
7.86969
7.87155
-0.0393743
7.83398
5.75553
4.9336
4.59676
7.87623
4.81596
4.65461
4.76398
5.465
7.61965
7.61999
0.0204582
0.000435051
6.96511
7.1409
7.61591
0.0156509
8.18873
7.71893
-0.0843215
7.87342
7.87157
-0.022569
-0.0712919
7.83793
7.62082
-0.0143337
7.03238
7.61239
-0.38554
0.017296
0.0617477
7.81004
0.0321435
7.87418
0.0213566
-0.376116
0.0266733
7.87162
-0.370846
0.0313393
7.96546
-1.02033
7.8629
0.0299068
7.5292
0.036983
7.80251
-0.0320094
7.87218
7.57917
7.62282
-1.44749
-1.45485
7.88523
0.0200906
0.0284718
7.91891
7.87126
0.00252461
0.0211074
-0.10347
7.8799
0.0258681
0.0199409
-0.0345217
-0.83245
7.87574
-0.151185
7.6286
-0.132289
7.87079
-1.71152
-1.98751
7.85133
0.0282082
7.68187
-0.0275186
7.6192
7.85548
7.88402
7.88941
7.84955
7.85798
0.0117099
0.0368202
-0.136231
7.88031
6.34287
-0.124259
7.87893
7.82904
7.90389
7.86629
7.90248
0.0230848
7.87173
7.87385
7.61967
0.0161495
7.8565
7.62066
7.53971
0.037916
7.62131
0.00993762
-0.763215
-0.0382515
0.0355441
-0.0139032
8.21837
7.8764
7.87016
0.0707357
0.0336299
7.54953
6.31054
0.0118529
7.87173
7.87506
-0.114068
7.86185
0.0264874
7.87341
-0.0110344
-0.0386052
7.87997
7.61925
7.87409
7.87436
7.86952
-0.00797337
7.86976
0.0130682
7.94172
7.87392
0.027524
7.6153
0.0188901
7.77279
7.87147
0.00169507
0.0376022
-0.0995969
7.87336
7.87377
7.87171
0.0361
-0.0676902
7.94938
7.61946
7.6406
0.0166939
7.86462
0.0256883
-0.115322
7.87059
7.86698
0.0253305
7.86542
7.64287
7.62146
7.95746
7.62186
-0.133442
6.21947
7.64438
7.87261
6.38209
7.86666
6.60339
7.84526
7.86562
7.73547
0.0245075
7.79493
0.0147411
7.8584
7.86586
-0.0373219
0.00902791
7.86113
7.83167
7.873
0.0297903
6.70839
7.87289
7.73176
7.86919
0.0229084
7.86239
-0.160684
7.87397
0.00362538
6.92084
-0.0107643
7.88777
7.86944
0.0182408
6.55191
7.87839
0.0317466
0.00536738
7.89214
7.87449
-0.00377499
-0.0394605
0.0238435
0.0203793
0.0103501
0.0063887
0.0253461
-0.0225104
7.94657
-0.170624
6.2664
6.15236
7.87236
7.86978
7.86975
0.0385396
7.87444
7.86765
7.87458
-0.103788
-0.0262509
5.95831
-0.0233877
7.87522
-0.00300112
7.61754
-0.0425495
0.0265809
6.33985
0.0156075
7.86454
7.84435
7.62074
0.0456039
0.00213164
7.87184
7.62131
0.0354738
7.87314
-0.113814
7.91357
-0.0632592
7.87093
7.62123
7.85223
7.62006
0.0281735
7.62028
0.29223
7.6237
0.00933524
7.87151
7.86768
4.325
4.00112
7.88948
7.86814
7.87125
7.87252
0.00587493
-0.122833
5.22298
7.87611
0.0140325
7.61838
7.63118
-0.408112
0.0222745
-0.0493533
7.62138
0.0279016
-0.00669834
0.0328526
0.0257161
7.87164
7.87513
7.87935
7.87538
7.6212
7.62002
7.62074
7.83882
7.6217
7.62094
7.87114
7.62061
-0.0891174
7.61998
7.87125
8.62013
7.87377
7.87186
2.71963
7.6198
7.87054
0.00548032
-0.079139
7.84713
7.85134
7.87173
0.0279089
7.65651
7.85926
-0.0918563
7.62211
7.87184
7.86776
7.87571
-0.0282247
7.62031
-0.154479
7.87587
7.85646
7.87017
7.87111
7.86866
-0.0908342
-0.122987
0.0261011
7.87401
7.64283
7.90878
-0.105976
7.87089
-0.112749
-0.066057
7.61891
7.8493
5.94879
-0.385855
7.85396
7.02319
-0.373026
6.02678
0.00320784
7.65394
-0.0226031
5.99404
5.61677
7.87093
0.0126821
7.62209
-0.000106905
-0.0377088
7.87983
0.0116047
-0.26394
7.86916
-0.0510354
7.62232
7.8551
7.86412
7.85097
7.86569
7.61846
7.87085
7.87161
-0.133752
7.11309
7.87148
7.86912
7.86962
7.87355
0.028599
4.05127
-0.112227
-0.286081
7.87004
0.0267239
0.0160536
7.8715
7.00079
7.79318
7.8606
7.89772
7.96025
6.44049
7.17146
-0.0191286
7.87296
7.87751
6.10063
6.63802
7.62002
0.00624778
7.87863
7.63364
7.87377
-0.0609517
7.876
7.61968
-0.00151734
7.62095
7.58286
7.76996
7.91986
-0.00141172
7.87237
7.87073
7.87054
7.84914
0.000439808
-0.0472652
-0.0384385
0.00999718
-0.0138083
-0.022067
7.62174
6.55066
-0.14547
-0.016421
6.5408
-0.131533
7.86766
-1.0663
7.64158
-0.0703872
7.87352
7.62437
-0.0143829
-1.36667
7.87549
-0.0167016
7.87469
7.8751
-0.0768297
-0.0378498
7.87191
7.62038
7.91566
7.62006
7.86804
6.86014
7.87321
7.87081
-0.0170465
7.87275
7.8673
7.86991
-0.0072173
7.88273
6.9022
7.62104
7.62006
7.30566
6.92824
-0.00878759
7.62369
6.93701
0.0151466
7.86565
-0.0262011
-0.00929477
7.87294
0.0103668
7.87019
7.46119
7.93395
6.79181
7.62393
7.85115
7.86519
7.87552
0.0302663
7.87436
7.87235
7.87101
7.74039
7.8708
7.79115
-0.102339
7.8711
7.87648
-0.051762
7.87201
7.62115
7.62167
0.0416667
7.87314
-0.144129
6.71073
-0.363029
0.0166268
7.61727
6.54557
0.017659
6.2758
7.62132
-0.177758
-0.358949
-0.00256399
-0.0394498
-0.238545
-1.14761
7.64616
7.62487
0.0206431
-0.0834704
-0.0656325
0.0291471
-0.377913
7.61975
0.0215035
0.0108381
0.0172204
7.62502
0.0197831
0.0238102
0.0301604
0.0157189
-0.104173
0.0276535
0.0444061
0.00683167
0.0137453
0.0312041
0.0219456
6.91573
0.0917536
0.00621592
0.011216
-0.0098849
0.0239852
0.0240694
0.0160061
7.07648
-0.0954138
7.02524
0.0406681
0.0228783
-0.0356595
0.0120848
7.01385
7.61861
0.0239391
0.0244768
-0.108629
-0.045321
0.0276877
0.0115351
4.83498
0.021097
7.8711
0.0192515
-0.0940739
-0.0311427
0.0377575
-0.12154
-0.156819
0.0116811
0.0156341
0.00647342
0.037733
0.0140038
0.123443
6.14464
5.4024
0.0142014
7.87494
7.87175
0.012964
0.0336386
0.0240228
7.87228
-0.0554462
-0.0389419
0.0260166
5.58993
7.87058
-0.180289
0.00847883
-0.0999206
7.8753
0.0312671
7.87115
0.0171993
0.00870521
-0.0297068
-0.0286713
7.87076
7.87311
-0.0200481
0.0242207
0.039034
7.86459
0.0175249
0.0393106
-0.0118047
7.62811
0.0334802
0.0493609
7.00491
0.0298749
-1.4789
-0.0878549
7.58757
-0.0445482
-0.0838931
7.87105
0.0171587
0.0188622
1.4106
0.000954581
0.0231968
0.0250942
0.0341645
-0.0195618
-0.0223321
-0.204733
-0.0919042
0.0461069
0.0243624
-0.00206989
-0.157221
0.0299177
-0.00545396
0.0647937
0.0260566
-0.140695
0.0424669
7.87121
0.0120144
0.00196256
-0.087421
0.0411779
-0.0237468
7.64664
0.00980619
0.0315978
7.86666
-0.0572624
-0.00797446
0.00972941
0.0166692
0.0239631
-0.0440494
0.0254724
-0.00286486
-0.0360888
7.87082
7.87127
-0.0317071
7.62601
-0.0287401
0.0124807
7.70391
0.0239016
-0.00483186
0.0496438
7.87106
0.0330247
0.0195131
-0.0454036
-0.12431
0.0285275
0.0476562
0.0179958
0.00602887
7.87125
7.85366
-0.0778387
-0.016764
-0.0414989
0.030851
7.85333
-0.0169022
0.0294789
7.70426
0.0103933
0.0229856
-0.0826731
-0.204265
-0.0140608
-0.0247793
0.0407701
0.00489006
7.63099
0.0178794
0.0111435
0.0140735
-0.183286
7.85454
-0.00493722
8.01128
7.87188
0.0204907
0.00150313
0.0140975
0.144042
-0.100008
1.49225
7.62307
-0.0173198
0.0395907
0.0743662
0.01821
7.87795
7.62388
7.61338
0.00698657
0.0118927
-0.209901
0.0320838
7.625
7.85788
-0.000530943
0.0144868
-0.0262738
0.0224938
0.0174428
0.0402916
-0.0363845
4.37826
7.61947
0.00953993
0.0239701
7.85736
0.00874205
0.0358513
-0.0563128
0.0236002
0.0205889
-0.0246222
7.85754
0.0354717
0.0169987
7.62436
7.6415
0.029613
0.0801586
0.0170678
0.0222716
0.0290898
0.0239163
0.0358343
0.0368691
0.034831
0.0152781
7.8533
7.84566
0.00990746
0.0323687
0.028272
-0.0797744
0.0313776
0.00716257
0.0121066
0.0325931
0.0276386
7.62284
7.63175
-0.0941791
7.85202
6.86208
0.0243901
0.0271145
0.0116909
-0.0761882
7.16923
-0.018171
-0.0611636
7.3001
-0.082711
-0.189984
0.0306887
0.0329825
0.0205611
0.0385812
-0.126081
0.0222323
7.87151
7.24324
-0.0619073
0.0301756
0.0140487
0.0291982
-0.0909549
-0.0170609
-0.0917516
7.26932
0.0363977
0.0546938
0.0239127
-0.103643
-0.0204952
-0.0771772
-0.183154
0.0142117
0.024644
7.16119
0.0111506
0.0373836
2.80126
6.79655
6.24625
0.0475692
6.64136
0.0140183
0.0331093
0.015364
0.0351892
-0.0900156
5.04988
3.05575
8.06579
6.73056
-0.0297637
7.61996
7.61966
-1.25653
7.86917
0.0356068
0.0207778
0.0385166
0.0287157
0.0302646
0.0179478
6.27595
0.0271275
0.0266124
-0.0154012
0.0264238
0.041611
0.0246811
7.62018
-0.186185
0.0359416
-0.0816083
7.62012
0.00581463
0.00617502
7.62003
7.86286
-0.0632909
0.0251793
7.90743
0.0253382
0.028005
-0.0662783
7.87279
7.61995
0.0213003
-0.188918
0.0351268
7.62016
7.6063
7.62011
0.0118965
2.56274
2.33312
0.00291031
-0.349746
7.881
0.0304583
-0.32714
0.0285012
0.0245875
0.00809217
0.0246688
-0.482559
0.0293715
7.67148
0.0154528
0.0421211
0.0182281
0.0284822
0.0156518
0.0366614
0.0191628
0.0115557
0.0303969
-0.0450635
-0.366687
0.0228435
-0.0675717
-0.113837
-0.437297
0.0109945
-0.351397
0.0210118
0.0305824
0.027674
0.0424284
-0.0363982
0.0377636
-0.35763
0.0265909
7.47639
0.021552
3.82654
0.0218914
0.00614425
7.62506
-0.00152095
7.47593
0.00870373
7.50394
7.90236
0.0520939
-0.0104509
6.85382
0.0265574
0.0291144
-0.00860343
7.85868
7.87346
0.0318668
0.0054917
-0.160829
0.0243699
0.034658
-0.00959094
-0.0459935
0.00605822
-0.00233165
6.50968
0.0207881
7.61981
7.81284
0.0368347
0.0335704
-0.077637
0.0358343
0.0348488
0.00529873
-0.00706206
7.77964
-0.0935195
0.0243327
0.00172361
7.79248
7.87966
0.0210783
0.0112452
6.16229
-0.0253784
0.0293532
0.013835
-0.134333
0.0355539
0.0311225
7.86221
4.58172
0.0285868
-0.0563745
7.68899
0.0458815
-0.0316262
0.00110329
-0.101206
0.0230589
-0.130904
0.0207428
-0.0209541
4.84408
-0.0309562
7.87236
0.0126811
-0.00512443
0.0330698
0.00978697
6.5811
0.0147105
-0.0625672
0.000626581
-0.0912837
7.4262
7.62017
0.0365268
-0.0553757
0.0102843
0.0171562
-0.0254394
0.026106
-0.00161959
0.0177994
0.0424392
0.0269623
-0.0330809
7.03915
-0.1143
-0.00878766
-0.000687069
-0.0228296
7.23388
7.61929
-2.35847
-0.0967473
8.15889
-0.123335
-0.00888095
7.36759
5.00992
5.46024
-0.0286379
0.0299511
0.193093
5.84394
-0.0601911
0.0383313
7.6153
0.227789
6.88632
0.000404616
0.026511
7.65427
-0.0272684
-0.00916867
-0.0130395
0.0308839
7.61928
-0.248965
-0.0244222
-0.0586231
-0.00359084
-0.00309072
-0.0226111
0.00549019
-0.156603
-0.00749853
0.0238894
0.0293274
7.87062
6.45413
6.55744
7.72489
-0.0163838
0.0333438
0.0377661
-0.0471169
0.0245495
0.0357464
0.00669417
-0.00504218
-0.00195142
0.0286575
0.000892044
-0.0687755
0.0169047
0.0290243
7.87162
-0.0256455
-0.0444003
-0.00234333
0.00520856
7.60779
0.0104536
0.0133047
0.0481687
0.0151917
0.0229748
7.63829
0.0335325
0.0228542
6.87852
0.0343741
0.00193985
7.71889
0.00886086
7.71035
7.61967
0.0117408
-0.0466017
0.00763774
0.024243
7.6223
0.0359389
-0.0235503
7.624
0.0384232
0.022581
0.0269308
0.00164566
7.74998
-0.017413
-0.0121272
0.0254654
7.70136
0.0505826
0.022575
0.0117489
0.0327022
0.0209168
7.90085
7.46008
7.06632
0.0270647
7.19892
0.035923
0.0211543
0.0264707
7.84083
0.0231018
7.66155
7.87222
7.81409
0.0320441
-0.0124496
-0.189532
0.0168417
0.0418824
7.51622
6.88449
-0.0241125
-0.029175
0.0418348
-0.147213
0.0319113
-0.381483
7.87438
5.74032
5.85394
7.61876
5.92851
0.0182918
7.87142
0.044521
0.00469165
0.0348878
0.0157223
0.0291306
6.32217
0.00810417
0.0173447
-0.001378
-0.028028
6.36315
7.87316
-0.00831241
0.0245899
-0.281
-0.528728