/*--------------------------------*- C++ -*----------------------------------*\
  =========                 |
  \\      /  F ield         | OpenFOAM: The Open Source CFD Toolbox
   \\    /   O peration     | Website:  https://openfoam.org
    \\  /    A nd           | Version:  10
     \\/     M anipulation  |
\*---------------------------------------------------------------------------*/
FoamFile
{
    format      ascii;
    class       volVectorField;
    location    "18";
    object      U;
}
// * * * * * * * * * * * * * * * * * * * * * * * * * * * * * * * * * * * * * //

dimensions      [0 1 -1 0 0 0 0];

internalField   nonuniform List<vector> 
111485
(
(1.45899 -1.45884 0.000472727)
(4.27985 -0.0101913 -0.0257246)
(4.21273 0.011042 0.0127248)
(1.45843 -1.4587 0.00013121)
(4.37627 0.0207448 0.000284587)
(1.53964 1.53848 -0.00016667)
(4.29892 0.0129897 0.00121289)
(4.42915 -0.0131462 0.0054014)
(4.29607 -0.00213202 0.00350446)
(4.41067 -0.0482669 -0.0197877)
(4.23651 0.0101923 0.0127491)
(4.43225 -0.011804 0.0203857)
(4.17308 0.00392906 0.00948377)
(4.23498 -0.00903315 -0.0296724)
(4.2752 0.0172649 0.00863107)
(4.37889 -0.030007 -0.0229532)
(4.31595 -0.00503041 0.00704456)
(1.51238 -0.0994808 0.217772)
(4.38269 0.0134903 -0.00946438)
(1.45528 -1.45364 6.19701e-05)
(1.45694 -1.45656 -0.00137358)
(1.54106 1.54078 -0.000198074)
(4.33639 0.0164182 -0.00383636)
(4.41809 -0.0290634 -0.00996766)
(4.33582 0.013427 -0.00332475)
(1.46887 -1.46339 -0.00219682)
(4.4499 -0.0213699 0.0215209)
(4.21865 -0.00801754 0.00164942)
(4.39883 0.0065575 -0.0113044)
(1.4568 -1.45674 -7.60881e-05)
(4.44344 0.0688052 -0.0177108)
(4.39314 -0.00992047 0.00128101)
(1.45188 -1.45448 0.00202475)
(1.54045 1.54389 -0.00356005)
(1.54377 0.652002 0.243597)
(1.55022 1.56085 -0.0225836)
(4.42079 0.0688476 -0.02732)
(4.28415 0.00991134 0.0394033)
(4.3988 1.3328 0.0742508)
(4.39059 0.0210689 0.00120376)
(1.52301 1.53703 -0.0108493)
(4.42985 0.00716341 -0.0272863)
(4.39036 0.0217047 0.00738161)
(4.21952 -0.025668 0.00177305)
(4.41625 -0.0750958 -0.0384314)
(1.45959 -1.44771 0.00534003)
(4.42589 -0.0188427 0.018081)
(4.41134 -0.0277134 -0.00904139)
(4.43196 0.00079046 -0.0224457)
(1.44863 -1.42979 0.00795231)
(1.44542 -1.43201 0.00834827)
(1.74961 1.47283 0.026557)
(1.44043 -1.43556 0.00481539)
(4.42234 0.0204024 -0.0356701)
(1.43713 -1.43188 0.000815717)
(4.37125 0.0114476 -0.00515596)
(4.37751 -0.0192922 -0.0104634)
(1.54239 1.53935 0.000968699)
(3.99531 -0.00816383 -0.0700675)
(4.3964 0.0183025 -0.00255825)
(4.39462 0.0202189 -0.000832176)
(1.45405 -1.45718 0.00215156)
(4.09428 0.00419851 0.0265981)
(4.44537 -0.0118329 0.0343246)
(1.59452 1.4463 0.00373683)
(4.00996 0.00917684 -0.00868178)
(3.08566 -0.24028 0.104712)
(4.40803 -0.0158598 0.00606538)
(3.98239 0.00167648 0.0155235)
(3.76867 -0.00590017 0.0033308)
(4.24834 0.035371 -0.0134843)
(3.94123 -0.0107212 0.0215862)
(1.57887 -1.42274 -0.031608)
(4.04809 0.00657014 0.031399)
(1.45836 -1.45757 -0.000143573)
(4.39199 -0.0101511 0.00802934)
(1.54082 1.54121 3.76668e-05)
(4.42163 -0.00908711 0.0229284)
(1.54066 1.53956 4.11099e-05)
(1.39633 1.36504 -0.0448025)
(4.27106 -0.0640503 0.0429686)
(4.42073 0.0156601 0.00204418)
(1.53837 1.53575 -0.000153508)
(1.45837 -1.45807 0.000756973)
(4.14775 -0.000366885 0.00913113)
(3.97722 0.0110517 -0.0176931)
(3.42068 2.22295 -0.59427)
(4.36793 0.053152 0.0045458)
(4.20843 0.106527 0.0909159)
(4.27097 0.00634172 0.0146164)
(4.50539 0.0884776 -0.0562966)
(4.37413 -0.00764676 0.00691056)
(4.0975 -0.00690217 0.0141751)
(4.17943 -0.0048 0.005093)
(4.43247 0.0144062 -0.0248747)
(1.45854 -1.45806 -0.000265424)
(1.45802 -1.45774 0.000695927)
(4.36534 0.0493365 0.0156041)
(4.49384 -0.881017 0.061866)
(4.08766 0.0140803 0.0265939)
(1.4586 -1.45833 0.000475376)
(4.38495 -0.0232956 0.00195059)
(1.54884 1.55161 0.00857193)
(4.35245 0.000669227 -0.00249448)
(4.32814 -0.0236829 -0.0285713)
(1.51197 1.3546 -0.0312987)
(1.54108 1.54076 -0.000216609)
(4.4002 -0.0133708 -0.00135024)
(4.0516 -0.0222598 0.00484642)
(3.88602 -0.114878 -0.120392)
(4.14327 -0.00389928 0.00907084)
(4.36507 0.00631168 -0.00273282)
(4.06562 -0.0021173 0.0155623)
(4.00066 -0.0200389 0.00913124)
(1.47192 -1.46437 0.000491332)
(3.86026 -0.00521576 0.0118898)
(1.46381 -1.45889 -0.00221381)
(1.5491 1.54266 0.00626729)
(4.29183 0.0179055 0.0141854)
(1.45802 -1.45712 0.000516895)
(1.46997 -1.4638 -0.00163009)
(2.025 1.59559 0.0957681)
(1.53186 1.53683 -0.00301137)
(1.54557 1.54181 -0.00355425)
(4.19419 -0.00964311 0.0191678)
(1.16456 -0.819088 -0.221438)
(1.93202 1.66341 0.0581677)
(3.89873 -0.0011183 0.0187607)
(1.45816 -1.4575 -0.000454612)
(4.4079 0.331295 -0.119476)
(4.40381 0.0806515 -0.0425124)
(4.35744 0.0502162 0.0164257)
(1.45443 -1.45088 -0.00697828)
(1.98346 1.72783 0.173421)
(1.85404 1.65516 0.0776239)
(4.39829 0.0139314 -0.00701284)
(1.54156 1.54179 -0.000417464)
(4.37386 0.0108057 0.000862986)
(4.34159 0.0157092 0.00668061)
(4.27656 0.0185108 0.0155524)
(3.357 0.000408814 0.0146897)
(4.38627 0.0229489 0.00453263)
(4.34891 0.0282673 0.0163278)
(4.13241 0.00364393 -0.0181371)
(4.31763 -0.00865698 0.00401014)
(4.27333 -0.000622582 0.00822626)
(1.54182 1.54206 -0.000367916)
(1.45814 -1.45824 0.000108763)
(1.5387 1.53944 0.00285217)
(4.37416 0.0175399 0.00225323)
(4.13397 0.00698914 -0.0163384)
(1.45691 -1.45591 0.0005433)
(2.87137 -0.0166114 0.0282645)
(4.26732 0.0204384 0.00988808)
(4.67603 0.187484 0.0835271)
(4.39749 0.0126201 -0.00880935)
(4.37435 0.0137009 -0.00324699)
(4.06187 0.00031607 -0.00546017)
(4.71839 0.229666 0.058109)
(1.4507 -1.46425 0.00580493)
(1.45639 -1.45775 0.0012359)
(4.3865 0.0124845 -0.0095049)
(4.29982 -0.0149197 -0.0154245)
(4.74883 0.258853 0.0630783)
(4.68295 0.227256 0.0865783)
(4.09043 0.00763883 0.0215467)
(4.38053 0.0533371 -0.0195081)
(1.52329 1.53593 0.000348163)
(4.80599 0.320842 0.0775445)
(4.58205 0.230138 0.0713832)
(1.54057 1.54133 0.000376361)
(1.45671 -1.45643 -0.000205)
(3.51656 0.00406294 -0.026276)
(1.54138 1.54214 9.85401e-05)
(4.35484 -0.00968803 -0.00169557)
(4.18638 0.00279031 -0.00998196)
(1.54155 1.50606 -0.0071209)
(1.57456 -1.44441 0.0132155)
(1.46172 -1.45397 -0.00243933)
(1.51784 1.43417 -0.0141747)
(1.58533 -1.45902 0.0248186)
(1.45646 -1.45747 0.000942013)
(4.36731 0.0173094 0.00452842)
(4.36479 0.0109555 -0.00821823)
(4.34969 0.0144292 -0.00372923)
(4.31508 -0.0101616 0.01562)
(4.14508 -0.00933945 0.00321001)
(4.16239 0.00879023 0.0139737)
(3.69117 0.0465813 0.00513143)
(1.45753 -1.45232 -0.000150394)
(4.04326 0.000871393 0.00412847)
(1.57099 -1.4584 0.0144263)
(1.47035 -1.47282 -0.000836727)
(4.20216 0.00966117 0.0145339)
(4.41261 -0.0542472 -0.0189121)
(4.3629 0.00889676 -0.0200739)
(4.19247 -0.00427119 0.00659509)
(4.25794 -0.00220107 0.00519351)
(1.45567 -1.453 0.00322056)
(4.18107 -0.0197953 0.00376109)
(4.17679 -0.00549988 -0.0259678)
(2.92315 0.935387 0.122287)
(4.27808 -0.0330685 0.00272367)
(4.33846 -0.00752475 0.00401773)
(1.46348 -1.45539 -0.0021795)
(4.18483 0.0121692 0.0149269)
(4.37982 0.00937814 -0.0033267)
(1.59744 -1.44253 0.00592325)
(4.20787 0.010332 0.0151743)
(4.41165 -0.00567055 0.024509)
(4.13244 0.00378643 -0.0188758)
(4.17423 0.0106899 0.0190621)
(1.58277 -1.46333 0.0196452)
(1.45717 -1.45764 -0.000215162)
(4.17507 0.0106434 0.0189469)
(2.73549 1.71927 -0.168908)
(4.46409 0.0194531 -0.0425256)
(1.54091 1.5417 -0.000913907)
(4.19939 0.00788958 0.0160877)
(4.19049 0.00664456 0.00473189)
(4.43814 -0.0143395 0.0274405)
(1.45974 -1.45902 0.000597305)
(3.91602 -0.000237085 0.0110305)
(4.39444 0.061547 0.0304163)
(2.41806 1.62739 -0.176619)
(1.54157 1.54165 -0.00118793)
(1.54051 1.54128 0.000362566)
(4.49305 -0.0285278 0.0410688)
(4.19474 0.0991517 -0.00992679)
(1.62207 1.37144 -0.0307322)
(1.81236 -1.40277 0.0554224)
(4.20548 0.00321622 0.00559746)
(4.3338 0.00833571 0.00066898)
(4.40247 0.0110822 0.002426)
(1.59999 1.39594 -0.0404249)
(1.5416 -1.42485 -0.0054144)
(4.22862 0.0483435 -0.0561538)
(1.45817 -1.45777 0.000873346)
(4.00249 0.00454088 -0.0239938)
(4.15565 0.00461036 0.0135539)
(4.20275 0.00166754 0.00740336)
(4.21056 0.010639 0.008892)
(4.22644 0.00855767 0.0119722)
(1.5369 1.53695 0.00487076)
(3.18569 -0.0100615 -0.122416)
(4.28932 0.0104177 0.0159993)
(1.53404 1.53709 -0.0020164)
(1.54053 1.54132 -0.000265782)
(4.46417 -0.0526601 -0.00514947)
(4.36419 0.0183646 -0.00735309)
(1.57941 1.34933 -0.0412063)
(3.96942 -0.00244788 0.0120826)
(4.2716 0.0119248 0.0124391)
(1.45874 -1.45792 -0.000496216)
(1.94892 1.83614 -0.0121305)
(4.39457 0.0381143 -0.0168821)
(1.4622 -1.44333 0.000651594)
(1.61791 -1.14582 -0.0276978)
(2.23843 -0.781802 -0.0795995)
(1.45916 -1.45522 -0.00021285)
(4.29069 -0.00765555 -0.00772567)
(4.17351 -0.0077231 -0.0103369)
(4.35316 0.00702424 -0.0126214)
(1.45763 -1.45785 -7.97794e-05)
(4.3117 0.0131716 0.0109645)
(1.45847 -1.45875 0.000140377)
(1.45843 -1.45911 0.000259836)
(1.45604 -1.4506 0.00250674)
(2.94529 0.0107901 -0.0452151)
(4.41559 -0.0206941 0.0245585)
(4.21865 0.0150191 0.0196978)
(4.28677 0.0137592 0.0107948)
(4.4491 -0.0285132 -0.000763905)
(4.26307 0.00950532 0.00969402)
(4.38071 0.0160683 0.00552339)
(4.40399 0.0726866 -0.00746767)
(4.30176 0.00949082 0.000573352)
(4.34482 0.0101465 0.00060843)
(1.566 1.5405 -0.000831593)
(1.45645 -1.4563 -0.00162819)
(2.68722 0.015958 -0.0646573)
(4.36784 -0.010216 0.00135818)
(4.41832 0.0335607 0.0373984)
(4.15608 -0.00521211 -0.00746382)
(1.45823 -1.45736 0.000357931)
(4.35994 0.0135324 0.00848813)
(4.38324 0.0216056 0.0104233)
(4.27633 0.00820286 0.00715454)
(3.76779 -0.00386137 -0.0181099)
(3.94671 -0.0442144 -0.0976963)
(4.34187 0.014883 0.00244932)
(4.26752 0.0111459 0.00970715)
(4.35652 0.0322111 -0.0195364)
(1.54208 1.54211 0.000165227)
(3.99059 0.0209141 -0.000529767)
(1.54064 1.54108 -0.000583119)
(1.25877 0.96438 -0.196936)
(1.64444 -1.0484 -0.107385)
(4.52292 -0.0398458 0.0583434)
(4.45137 -0.0286998 -0.00077923)
(4.34602 -0.00202477 0.000276909)
(1.46054 -1.45697 -0.000533515)
(1.53623 1.54493 0.0124978)
(4.35205 0.0145165 0.00821903)
(4.16507 0.00753846 -0.00662749)
(1.45758 -1.45661 0.00010925)
(1.45888 -1.45807 0.00131439)
(1.42809 -1.43548 0.0111952)
(4.14022 0.00594742 -0.00325091)
(4.3259 0.00596114 -0.00518933)
(4.13021 0.0007971 0.0147602)
(3.99098 0.00683005 -0.022961)
(4.41092 0.0102549 -0.0102303)
(1.76462 1.51856 0.0398335)
(1.53822 1.54185 0.00303309)
(1.45844 -1.45629 -0.000866392)
(4.33731 0.0144846 0.0119091)
(2.80385 -2.37706 -0.172005)
(4.13357 -0.00482908 0.00435969)
(4.4915 -0.0312654 0.0953654)
(3.6165 0.00228849 -0.0739773)
(1.54118 1.5412 -0.000192503)
(1.45688 -1.45826 0.000792939)
(1.45849 -1.45933 -0.000803178)
(1.9407 1.6304 0.0985629)
(4.38635 0.0142854 -0.000590143)
(4.42757 -0.0252929 0.0015711)
(1.54503 1.54884 0.000554202)
(4.34891 0.0115865 -0.00129711)
(1.62812 1.32215 0.0921639)
(1.46571 -1.44926 -0.00221805)
(4.4581 -0.0156352 0.0362628)
(4.34228 0.0154196 0.00686755)
(4.44525 -0.00679622 0.0108314)
(4.35213 0.0120801 -0.000951178)
(1.48724 1.3217 0.0789249)
(1.92167 1.65482 0.105058)
(1.53847 1.54056 -0.00236988)
(4.34559 0.014975 0.00585475)
(4.34169 0.0130098 -0.00027418)
(4.42667 0.0748082 -0.024366)
(1.52821 1.52515 0.00334843)
(3.03859 2.69449 -0.641381)
(4.14626 0.0404936 0.0367668)
(4.42458 -0.0210337 0.0107436)
(4.36344 0.0163736 0.0104794)
(4.14325 0.429983 -0.0347868)
(4.40903 0.0105092 -0.0102235)
(1.53817 1.53813 0.000340033)
(4.41234 0.0121308 -0.00866076)
(4.2347 0.00549376 0.00856768)
(4.46689 -0.103687 -0.000531201)
(4.47103 -0.0264232 0.0531581)
(4.33449 -0.0331613 -0.0298585)
(1.53647 1.54294 -0.00602454)
(1.45699 -1.45882 -0.00270889)
(1.5446 1.53629 0.00563469)
(1.44906 -1.45316 -0.000538542)
(4.42134 -0.0213703 -8.6527e-05)
(4.3954 -0.00795671 0.00279926)
(4.36979 0.020516 -0.0144078)
(4.40539 0.0123064 -0.0130342)
(1.53193 1.53356 -0.00633259)
(4.36703 -0.0287717 -0.00948975)
(1.53965 1.54034 0.000601411)
(1.45202 -1.45637 0.000243917)
(4.40731 0.0124405 -0.00951649)
(1.34545 -1.34716 0.0196192)
(2.42263 -0.422151 -0.0352439)
(1.44234 -1.43693 0.00128535)
(1.55529 1.53459 0.0122492)
(4.35943 0.00838643 -0.00575357)
(1.54148 1.54065 0.000606269)
(4.31748 0.0109492 -0.00315501)
(4.10149 0.00242062 -0.0190453)
(1.54242 1.5423 -0.000338677)
(3.96122 -0.00173853 -0.0195053)
(4.28833 0.0068836 0.00788292)
(1.55162 1.36327 -0.0502205)
(4.2826 0.0189349 0.0193623)
(4.03892 0.020639 -0.00311002)
(4.30617 0.0240867 0.00633759)
(4.00707 0.0152229 0.0495512)
(4.34893 0.0128299 0.00204321)
(4.14514 0.000593683 -0.00948543)
(1.52057 1.30339 -0.00565551)
(1.45743 -1.452 0.00547293)
(3.7227 0.00829015 0.0881263)
(1.53143 1.53669 -0.00888139)
(4.29789 0.0224727 0.0198717)
(4.46003 -0.0227671 0.0434847)
(1.55275 1.48533 0.012418)
(1.53829 1.54467 -0.000290934)
(4.41023 -0.00917441 0.00313507)
(4.2453 -0.0191944 -0.0390167)
(4.26284 0.0223371 0.0024375)
(4.42587 0.00888637 -0.00207572)
(1.5411 1.53944 -0.000484017)
(4.47982 -0.0132303 0.0707651)
(4.40818 -0.0150774 0.0219685)
(1.54435 1.54153 2.35602e-05)
(4.33102 0.0656947 0.0535336)
(4.12832 -0.0169767 -0.0425233)
(1.45738 -1.45629 -0.00026423)
(1.45733 -1.45714 0.000268804)
(4.31393 0.0138576 -0.00380074)
(4.33084 0.00414782 -0.00604782)
(1.54837 1.54867 -0.00198508)
(1.46059 -1.45593 -0.00153132)
(2.58206 -1.38845 0.31569)
(1.45809 -1.45904 0.000531968)
(4.33183 -0.00249327 0.00924009)
(1.53344 1.53841 0.00365417)
(1.45855 -1.45891 9.00005e-05)
(4.44664 -0.00493115 0.014369)
(4.02365 -0.0472533 -0.114774)
(4.39968 -0.0245646 0.00636513)
(4.23846 0.000182122 0.00805031)
(1.54292 1.54186 5.22067e-05)
(1.99719 1.5426 0.0746689)
(4.24397 0.053895 0.0794713)
(1.87319 1.65393 0.0873513)
(4.22758 0.0183599 0.0330843)
(4.21117 -0.034743 0.00349333)
(4.39028 -0.01205 -0.0103799)
(3.06303 0.103739 0.107263)
(1.84113 1.5871 0.0783309)
(4.40402 0.00770751 -0.0414201)
(4.45012 0.134623 -0.0461245)
(1.4565 -1.45926 0.00246409)
(4.43101 0.0113852 -0.043092)
(4.4397 -0.0214845 0.0158255)
(1.46028 -1.45994 0.00153189)
(4.27929 0.24528 -0.135457)
(3.74603 -0.000818395 -0.0527018)
(1.94272 1.53021 0.0627014)
(4.41478 -0.00867115 0.0188484)
(4.36421 0.00617781 -0.0061878)
(4.35248 0.0119725 -0.00225197)
(1.54071 1.53957 -0.000420269)
(4.34109 -0.00697143 0.0298451)
(4.43779 -0.00395433 0.0145666)
(4.32436 0.0417291 -0.00452774)
(2.73088 -0.0362794 0.0463655)
(1.87246 1.76855 -0.0370056)
(2.57299 -0.0650146 0.0852002)
(1.45676 -1.45854 0.00102137)
(3.99723 -0.12997 -0.129295)
(4.34213 -0.00758388 -0.0285227)
(1.54199 1.54093 0.00216666)
(4.11526 0.00968055 -0.030819)
(3.4003 -0.00841297 0.0607966)
(1.99569 1.76596 -0.0185532)
(1.45852 -1.45754 0.000159519)
(1.70955 -1.44914 0.0458491)
(1.45812 -1.45754 0.000107803)
(4.31802 0.0226932 -0.00051335)
(4.35071 0.0226534 -0.00760311)
(4.2949 -0.013331 -0.0122232)
(4.03913 0.0101832 -0.0226456)
(4.40357 -0.0900594 -0.0181132)
(1.54059 1.53455 -0.00332885)
(4.27069 0.000103613 -0.00947654)
(1.4619 -1.45115 0.000496961)
(4.22536 0.0163213 0.00971484)
(1.54602 1.54565 -0.000895085)
(1.45747 -1.45635 -2.18198e-05)
(1.44652 -1.45056 -0.00204603)
(4.15191 -0.0284269 0.00610128)
(1.45502 -1.45555 -0.000960801)
(1.45887 -1.45848 0.000469102)
(1.5182 1.0144 -0.0628871)
(1.45833 -1.45946 0.000460631)
(1.52636 1.54746 0.014382)
(4.25625 -0.0148921 -0.00656765)
(1.54258 1.54037 0.000635892)
(1.82458 1.34903 0.00240357)
(1.54276 1.54279 0.0016463)
(1.45616 -1.45207 -0.00100227)
(1.54221 1.53841 -0.00104846)
(1.45419 -1.44678 -0.00762242)
(1.53705 1.53687 -0.000221445)
(3.8786 0.000231843 -0.032644)
(1.54474 1.53636 0.00630062)
(3.9812 0.0554647 0.0783075)
(4.34959 0.00426923 0.000915381)
(4.49434 -0.170283 -0.0258946)
(1.54277 1.53609 -0.000402916)
(3.79092 0.0117134 0.0612828)
(1.54455 1.53898 0.00178668)
(1.45852 -1.45937 -0.000708067)
(4.30432 -0.0412799 -0.0457836)
(4.30156 -0.0346871 -0.0349075)
(4.29828 -0.00932253 -0.0121767)
(4.4935 0.0120114 -0.0751373)
(1.76899 1.48977 -0.0481231)
(4.39775 0.00382181 -0.0228634)
(4.39694 0.00202973 -0.0200919)
(4.35598 0.00955746 3.62456e-05)
(4.28818 0.00485062 0.000853636)
(4.37303 -0.0446052 -0.0290882)
(1.45527 -1.45554 -0.000559314)
(4.36227 0.00779731 -0.00139776)
(2.0126 1.75298 -0.0117618)
(4.33604 0.00779339 -0.0091964)
(1.54157 1.54043 0.000256214)
(4.41993 0.0156428 -0.02407)
(1.99101 1.65401 0.0154917)
(4.3598 0.00429023 -0.00607779)
(4.36562 -0.0201653 0.0158781)
(1.68462 -0.841811 -0.00965943)
(1.54395 1.5457 0.016959)
(4.29514 0.00776458 0.00685723)
(1.45825 -1.45717 0.000158495)
(4.43416 0.0185009 -0.0255719)
(4.39926 0.0219857 -0.0179734)
(1.54119 1.53698 -0.0125797)
(1.53923 1.53848 0.0037208)
(1.50939 1.35283 -0.0385803)
(1.54061 1.54162 0.000916016)
(3.0838 -0.163517 0.0827165)
(4.43645 0.0159957 -0.0257146)
(1.56089 1.52439 -0.00110208)
(1.53878 1.54154 0.00178928)
(3.79659 0.00212046 -0.0110171)
(1.54161 1.54143 -6.40269e-05)
(4.36833 0.0150932 -0.0174324)
(1.54142 1.54068 0.000116246)
(4.32867 -0.0265411 -0.018311)
(1.45915 -1.45867 0.000496227)
(4.06771 -0.0216581 -0.0601971)
(3.36606 -0.0127282 0.00480634)
(4.06619 0.0123593 -0.00969479)
(4.36203 0.00580146 -0.00744606)
(1.55078 1.53915 -0.00469768)
(3.96621 0.00381797 -0.000431461)
(1.54424 1.5389 0.00130783)
(1.5412 1.54265 -0.00355034)
(4.30312 -0.0166807 -0.0103225)
(1.54181 1.5404 -0.000148154)
(3.67541 -5.25893e-05 -0.0378519)
(1.4918 1.37339 -0.0433293)
(4.37939 0.0234742 -0.0140443)
(1.45735 -1.45783 -0.000292165)
(4.40697 0.0104634 -0.00935271)
(1.45865 -1.45745 0.000183004)
(1.82596 1.61779 0.0459279)
(4.46445 0.158865 -0.00931799)
(4.2993 -0.0355814 -0.0466899)
(4.3465 0.0164193 0.000640926)
(4.39751 -0.0522401 -0.0325219)
(4.32643 0.00900582 -0.00512724)
(4.44316 -0.0299476 -0.00411345)
(1.53166 1.54352 -0.00683299)
(4.34425 0.0221874 0.0145178)
(4.31136 -0.0395288 -0.0461448)
(1.54089 1.54153 -0.000699747)
(3.64973 -0.0461244 -0.157186)
(4.44551 -0.0311381 -0.0222632)
(4.2707 0.0193074 0.0159075)
(1.52805 1.50671 -0.0088738)
(1.89715 0.389073 -0.298417)
(4.17949 0.0112697 0.0128467)
(3.4307 -0.0136685 0.0344507)
(3.549 0.917676 -0.00682842)
(1.89344 -0.95895 -0.0798991)
(4.42945 -0.0490154 -0.00722377)
(4.15827 0.0164069 0.0295731)
(4.29578 -0.0413181 -0.0443899)
(4.36505 -0.0242624 -0.00935332)
(4.30937 0.0257684 0.0104611)
(3.81622 0.497338 -0.0250056)
(1.90246 1.61609 0.0133271)
(3.87889 -0.141851 0.0316389)
(3.74847 -0.327208 0.0772281)
(1.45652 -1.45712 0.000852299)
(3.82183 0.0256977 -0.0112492)
(1.55017 1.52142 -0.00776069)
(1.80842 1.6444 0.0151383)
(4.3212 0.0050919 -0.00220502)
(3.84268 0.650696 -0.0221028)
(4.6225 -0.389386 -0.0723938)
(4.16362 -0.715426 0.0140155)
(1.80331 1.71459 -0.123988)
(4.40304 -0.0257171 -0.00741378)
(4.35619 0.0249634 0.0187881)
(1.53791 1.53351 -0.000435046)
(1.97896 1.10336 -0.0442991)
(4.35844 0.031683 0.0186525)
(1.45693 -1.45168 0.000953122)
(1.54125 1.54098 -0.000129436)
(1.53957 1.53912 0.000223968)
(1.54254 1.53454 0.00161185)
(4.40646 -0.0457399 -0.0206541)
(1.54167 1.54139 0.000887432)
(1.46427 -1.46421 0.00786087)
(4.32473 -0.0267681 -0.0222303)
(3.98647 -0.000541458 -0.0126075)
(2.15205 -1.88326 -0.0989205)
(4.35924 0.0309967 0.018133)
(1.78905 1.44777 0.0323306)
(4.38082 -0.0173543 -0.008885)
(1.43397 -1.4329 -0.00641711)
(1.53836 1.5414 -0.000690387)
(4.38971 -0.0271499 -0.00787963)
(1.54213 1.53304 -0.00639411)
(1.541 1.53757 0.00105213)
(1.76565 1.6916 0.0495073)
(4.13811 -0.00304225 -0.00296039)
(2.53425 2.12432 -0.279584)
(4.32606 -0.018691 -0.00934357)
(4.31794 0.00463987 -0.00287732)
(1.44761 -1.43826 -0.011712)
(4.49237 -0.0135958 0.140435)
(4.12186 -0.024237 -0.0600508)
(4.30686 0.00138865 -0.00223193)
(4.37488 0.0777802 0.00995094)
(4.38994 0.0450104 -0.0944384)
(3.78684 0.0018327 -0.0360286)
(1.53973 1.53895 0.000569401)
(4.3923 0.00450777 0.0112223)
(4.36194 0.0177234 0.000102841)
(1.44508 -1.46406 0.00296827)
(4.07246 -0.00276102 0.000350452)
(4.41183 0.025268 -0.00872518)
(4.40188 0.0203442 -0.00692573)
(4.01552 -0.0173348 -0.0405954)
(4.3986 0.0214879 -0.00554548)
(4.40384 0.021907 -0.00421781)
(1.46265 -1.44334 0.00866227)
(4.39921 -0.00947545 0.0219962)
(3.65393 -0.0220588 -0.00553584)
(1.85753 1.61508 0.0996311)
(4.39676 0.0178431 -0.00932827)
(4.19857 0.00489405 -0.00975154)
(2.46518 2.01024 -0.300877)
(4.32174 0.00592811 -0.00147721)
(4.39938 0.0151987 -0.0132481)
(4.2005 0.00134774 -0.017191)
(4.36808 0.0219782 0.000113995)
(4.31917 0.0464815 0.0178982)
(4.32797 0.00560954 0.00044509)
(1.50801 1.47509 0.00190996)
(4.36745 0.0225519 -0.000545016)
(4.10311 -0.0253306 -0.0543168)
(1.63199 -0.974807 0.0385537)
(4.34748 0.0341048 0.022391)
(4.29999 0.0350985 0.0348582)
(4.35311 0.0140695 -0.00234682)
(1.54036 1.53745 0.00172602)
(4.23567 0.02534 -0.0405578)
(1.45845 -1.45209 0.0037762)
(1.54137 1.54182 -0.000793441)
(1.53672 1.52468 -9.6164e-05)
(1.54313 1.53493 0.000837866)
(3.66915 0.00203755 -0.0176732)
(1.83233 1.58096 0.0629945)
(3.31969 -0.22957 0.272911)
(1.45463 -1.45458 0.000243096)
(1.54065 1.55935 5.17989e-06)
(4.36269 0.0420685 0.0235023)
(4.37306 0.0105641 -0.0171157)
(1.45911 -1.45893 4.49055e-05)
(4.38233 -0.0272849 -0.00383835)
(1.45815 -1.45682 0.00483975)
(1.45933 -1.4582 -0.000740178)
(1.43653 -1.43684 0.0044489)
(4.45436 -0.0370876 -0.00769896)
(3.70615 0.0194675 -0.0105012)
(1.8142 1.63585 0.0202453)
(1.47359 -1.45721 0.00389743)
(1.53939 1.54402 -0.00202043)
(1.54029 1.54151 -0.000247873)
(4.47402 0.00869552 -0.0487364)
(4.33812 0.00747555 -0.00315465)
(1.83247 1.72368 0.0793487)
(4.42238 0.0142931 -0.0229749)
(4.12043 -0.0573682 -0.167506)
(1.53893 1.53948 -0.00084378)
(4.4105 0.0122806 -0.0198963)
(4.04746 0.00362942 0.0215652)
(4.31333 0.0237921 -0.0285132)
(1.54255 1.54156 -0.000220865)
(1.54005 1.53943 -4.27237e-05)
(4.2759 0.0189294 0.0228298)
(4.35875 0.00856037 -0.00132351)
(1.81971 1.65619 0.025808)
(1.53559 1.53621 1.03011e-05)
(1.56418 1.51844 -0.00307801)
(4.32046 -0.00861715 0.00493738)
(1.45667 -1.45684 -0.00194863)
(1.45866 -1.45392 0.0012646)
(1.53676 1.53743 0.000713714)
(4.40827 0.0136549 -0.016915)
(3.86317 -0.0184933 0.00661074)
(1.54198 1.54208 0.000213019)
(1.70914 0.351318 0.296129)
(1.85656 -0.188205 -0.0681986)
(4.288 0.0226816 -0.00218234)
(1.53905 1.54166 -0.000736962)
(1.54138 1.53848 -0.000780475)
(4.43919 -0.0448863 -0.0101156)
(4.2438 0.0722018 0.0645075)
(1.8462 1.6511 0.0772052)
(2.68356 0.880444 0.0630016)
(4.18321 0.0992751 0.118206)
(4.00255 0.0113997 -0.0286366)
(4.24455 0.00348825 -0.00339677)
(1.59869 1.50071 -0.00251324)
(4.2274 0.011134 0.000500584)
(4.38131 -0.0292767 0.0302802)
(1.54514 1.54112 -0.00178116)
(1.44859 -1.42544 0.00190746)
(1.53699 1.53783 -0.000186655)
(1.53966 1.54004 -0.000540085)
(1.54176 1.54395 -0.00168261)
(1.54238 1.5427 -0.000134385)
(4.41823 0.0146992 -0.018134)
(1.45726 -1.45717 0.00105977)
(1.53987 1.54021 -4.86114e-05)
(1.53241 1.51235 -0.000190851)
(4.42201 0.0150497 -0.0238415)
(4.35428 0.00955373 -0.00321126)
(1.46443 -1.44525 -0.000535413)
(1.44155 -1.42678 0.00222126)
(4.4574 -0.0212779 0.0380317)
(4.23738 0.00371497 0.00555953)
(4.23054 0.00521421 0.00692386)
(1.45918 -1.45513 -0.00077827)
(1.53903 1.53962 0.000820877)
(4.23415 0.00315593 0.00653174)
(1.45871 -1.45765 2.37499e-05)
(4.18322 0.0112422 0.000925949)
(4.29381 0.0073357 0.0148804)
(4.30161 0.0152201 0.0074944)
(1.46814 -1.45749 0.00462228)
(1.45803 -1.45859 0.000442328)
(1.45783 -1.45872 0.000450441)
(1.54149 1.54173 0.00040177)
(4.34332 -0.0189093 -0.012182)
(1.53983 1.54093 0.000200933)
(1.53886 1.53925 0.000378543)
(4.31981 0.0114947 -0.0155652)
(1.45786 -1.45857 0.0006359)
(4.24999 -0.00158754 0.0052855)
(3.88887 -0.0321863 0.0130856)
(1.55431 1.50434 0.0074299)
(4.35297 0.0140275 -0.00271425)
(2.05744 0.312528 -0.0539353)
(4.28912 0.00325062 0.0039958)
(4.45176 -0.0162919 0.00896325)
(3.91968 0.0158587 0.00453621)
(4.43734 -0.000588651 0.0284397)
(3.20987 0.0701215 -0.120713)
(1.83223 1.46907 0.0299111)
(4.27952 0.00015232 0.00244174)
(4.45454 0.0345342 0.00572672)
(4.35142 -0.0125262 -0.00518967)
(1.57839 1.37496 -0.046524)
(1.95104 0.193833 -0.0987722)
(2.32564 -0.15141 0.0755832)
(4.27976 0.00675805 0.00383982)
(1.53906 1.54131 0.00198349)
(4.20827 -0.00977963 -0.0311495)
(4.29662 -0.003897 -0.0104588)
(4.17501 -0.0376985 -0.0668124)
(1.59479 -1.12563 -0.0854556)
(1.45844 -1.45858 0.000783088)
(1.45798 -1.45799 -2.04245e-05)
(4.37782 -0.0143247 -0.00264951)
(1.79358 1.48867 -0.0184414)
(4.1502 0.0140636 0.00671939)
(1.6704 1.52287 0.0205733)
(4.13498 -0.0084144 -0.0278138)
(4.23926 -0.00646912 0.00525521)
(4.19952 -0.00350335 0.0155299)
(4.35527 0.0110198 -0.00404463)
(1.54039 1.53931 -0.00047102)
(1.53197 1.52773 -0.0022705)
(1.55937 -1.42105 0.00667548)
(4.35022 0.0161411 0.000897459)
(1.54203 1.53787 -0.000229062)
(1.7751 1.53011 -0.0662834)
(4.44987 0.0786338 -0.0677753)
(1.54739 1.54558 -0.000783429)
(1.53513 1.54249 0.00452235)
(1.45527 -1.44943 -0.003776)
(1.54163 1.5422 0.000433287)
(4.15424 -0.00244293 0.014917)
(1.57899 1.49693 0.00501276)
(1.54156 1.53986 0.000171426)
(3.53451 0.498554 -0.364719)
(1.79925 1.45736 -0.0198364)
(1.53567 1.53652 -0.0128242)
(2.10403 -1.24463 0.0762764)
(1.54128 1.53901 -0.00139707)
(3.40277 0.0130127 -0.0304145)
(4.23644 -0.00534866 0.0118874)
(1.45723 -1.45702 -0.000553545)
(4.16576 0.00475377 -0.00968327)
(4.21176 0.682755 -0.0946758)
(4.14743 -0.04066 -0.0651834)
(4.55642 0.170069 0.00431162)
(4.09161 0.00479176 -0.00743545)
(1.54153 1.53077 0.00485417)
(4.30914 -0.0399992 -0.0458505)
(4.46514 -0.0169158 0.010475)
(4.14663 -0.0408396 -0.0657779)
(1.45775 -1.45824 -2.20203e-05)
(4.52221 1.19642 0.314492)
(4.14471 0.00571598 0.00801985)
(2.04818 1.63866 -0.0958989)
(4.11782 0.00194238 0.00603836)
(4.4956 0.0553859 -0.0420907)
(4.29248 0.0848041 0.00488563)
(4.25495 -0.0138619 -0.0177428)
(4.25586 0.0137104 0.00103429)
(4.53044 0.0649355 -0.0242164)
(4.37589 -0.00706742 -0.0074464)
(4.33973 -0.00762362 0.0048971)
(1.53126 1.53624 0.0060778)
(1.53709 1.52969 0.00482367)
(4.17354 0.0110476 0.00559396)
(4.10498 0.00429953 0.00577824)
(1.5384 1.5421 -0.000294734)
(4.2297 0.00564968 0.000404936)
(4.4473 -0.0177639 0.00540776)
(4.3633 -0.0120098 0.00458615)
(1.54576 1.53052 9.17857e-05)
(4.27738 0.0845266 0.0195277)
(1.53919 1.5378 0.00027555)
(4.34334 -0.00673804 0.00354322)
(4.36807 -0.0083025 0.00329515)
(1.54022 1.5395 -0.000192838)
(4.16099 0.0188754 -0.0147004)
(4.35819 -0.00595655 0.00135349)
(4.26035 0.0791894 0.00673362)
(4.20275 0.00144682 0.0139534)
(1.56976 1.54038 -0.00219526)
(4.37276 -0.0132214 0.0146589)
(4.27348 0.0964312 0.00129114)
(4.50484 -0.104972 0.0265636)
(3.79393 0.0487565 0.0149283)
(3.3879 0.0100312 -0.0476009)
(1.54317 1.52731 -0.00278694)
(1.53791 1.53666 0.00147005)
(4.20153 0.0562588 0.00745516)
(1.54147 1.54185 -0.000444019)
(3.67677 -0.0105124 -0.00986705)
(4.21958 -0.0214929 -0.0321855)
(2.57678 0.36421 -0.0910832)
(4.6739 -0.296933 0.111841)
(4.12629 -0.18371 0.0523694)
(4.59411 -0.163456 0.0436625)
(1.54149 1.54182 -0.000433496)
(2.08859 1.77354 0.0150219)
(4.36691 0.0125513 -0.00360602)
(1.45229 -1.4575 -0.00442755)
(0.799226 -0.555625 0.242044)
(4.33454 -0.0813924 -0.065622)
(1.5415 1.5374 -0.0028818)
(1.54189 1.54024 -2.75055e-05)
(3.86219 -0.0761817 -0.00441412)
(3.16017 -0.202568 0.0408773)
(1.54199 1.54201 -0.000205817)
(3.91431 -0.0712035 0.0115394)
(1.54029 1.53879 0.000223955)
(1.54052 1.54269 -0.00255953)
(1.45753 -1.45772 -0.00025457)
(1.45942 -1.45583 0.0035324)
(1.43092 -1.42007 0.00518014)
(1.45747 -1.45484 1.12078e-07)
(3.90209 0.030772 -0.0145471)
(1.53903 1.53024 -0.00126258)
(1.54044 1.54102 0.000460199)
(1.533 1.54124 0.00252779)
(3.63318 -0.803198 -0.210851)
(4.12168 -0.0346087 -0.0759208)
(3.99219 -0.00092925 -0.0398707)
(4.36708 0.0127784 -0.00396867)
(1.53588 1.52582 0.000281435)
(1.54476 1.53924 5.58353e-06)
(4.18742 -0.0710797 -0.0862896)
(1.54122 1.54212 -0.0013671)
(1.54074 1.53945 0.000667214)
(2.44416 1.41007 0.0513953)
(4.46096 -0.0601716 -0.00519544)
(4.35316 0.0106204 -0.00329953)
(1.53963 1.53963 -0.000142821)
(1.54143 1.53838 0.00178162)
(1.53725 1.5333 -0.00204097)
(1.53954 1.53701 -0.000317391)
(1.54348 1.54328 -0.00167866)
(1.54407 1.53999 0.000175269)
(4.37132 -0.100922 -0.0633089)
(1.54226 1.53798 -0.000328933)
(3.03131 0.0439305 0.100203)
(4.39252 -0.0100314 0.0112466)
(1.54024 1.54236 -0.000325687)
(1.44893 -1.45486 -0.00394705)
(1.43894 -1.42547 0.00164071)
(3.6915 0.0427255 0.197706)
(1.43165 -1.4299 -0.0057149)
(1.45633 -1.45731 0.00144231)
(1.53356 1.53585 -0.00964616)
(3.9589 -0.0601159 0.00251763)
(1.53836 1.53823 -0.000374979)
(4.33536 -0.0561713 -0.0356296)
(3.45874 0.0547003 -0.0176587)
(2.85733 0.00425278 0.112911)
(1.53866 1.539 0.000477936)
(2.96559 -0.756293 0.0601586)
(4.36935 -0.00863082 0.000723745)
(4.39931 0.0101773 -0.0118031)
(1.56437 -1.49033 -0.0181814)
(4.23834 -0.067652 -0.0118573)
(4.32296 -0.00859818 -0.00679237)
(1.45832 -1.44828 0.00145627)
(1.58951 1.50819 0.00749336)
(2.06359 -1.58791 -0.130224)
(1.53673 1.53571 0.000204516)
(4.37793 0.00970515 -0.00198014)
(4.35971 -0.00598149 0.00667438)
(4.44132 -0.052838 0.022122)
(2.92961 -0.00183997 0.15939)
(1.54179 1.54115 -0.000180103)
(4.38024 0.00992952 -0.00300617)
(1.58655 1.50973 -0.00199185)
(1.9228 1.62828 -0.00754443)
(1.9625 -1.52509 -0.0617385)
(1.54067 1.54106 0.000605657)
(4.38133 0.0126655 -0.00365338)
(1.53817 1.53474 0.00140259)
(1.44315 -1.41907 0.000380604)
(3.99713 -0.0547488 -0.0986825)
(4.28186 -0.00979139 0.005564)
(1.4432 -1.41998 -0.00448005)
(4.30789 0.00775252 -0.00238929)
(1.64301 1.60589 -0.0102666)
(4.37498 -0.0371686 -0.0190086)
(1.45355 1.39128 0.0158426)
(1.54193 1.54273 -0.000721454)
(1.5499 1.54464 0.00519229)
(1.45858 -1.45881 0.000439552)
(4.25415 0.00891348 -0.00751666)
(3.80618 0.00632308 -0.0165208)
(4.41048 -0.0028124 0.0798513)
(1.53657 1.53693 0.000940269)
(1.53721 1.50846 0.00984309)
(4.23486 0.00957216 -0.00713936)
(1.5416 1.54194 -0.000529339)
(1.78431 1.61894 0.0222027)
(1.45775 -1.45662 0.00067104)
(4.18837 0.0263325 -0.00270537)
(4.45808 -0.113006 -0.0312738)
(4.3666 0.0115143 -0.00433568)
(1.46082 -1.45721 0.00239293)