/*--------------------------------*- C++ -*----------------------------------*\
  =========                 |
  \\      /  F ield         | OpenFOAM: The Open Source CFD Toolbox
   \\    /   O peration     | Website:  https://openfoam.org
    \\  /    A nd           | Version:  10
     \\/     M anipulation  |
\*---------------------------------------------------------------------------*/
FoamFile
{
    format      ascii;
    class       surfaceScalarField;
    location    "53";
    object      phi;
}
// * * * * * * * * * * * * * * * * * * * * * * * * * * * * * * * * * * * * * //

dimensions      [0 3 -1 0 0 0 0];

internalField   nonuniform List<scalar> 
214403
(
-0.000467244
0.000358382
1.96778e-05
8.91838e-05
-0.000224089
-0.000756488
6.3676e-05
0.000916901
-0.000692998
4.68126e-06
-9.40523e-06
0.000697722
0.000615822
-0.000414056
-0.00103221
0.000830444
0.000831614
-0.00105146
0.00025052
-3.06766e-05
-0.000355419
0.000370294
-3.69125e-06
-1.11839e-05
-5.80189e-05
-0.000109784
-0.000623925
0.000791727
-0.00114897
0.000654464
-0.000172913
0.000667415
-0.00157556
0.00111382
0.00112241
-0.000660673
0.000958638
0.000113664
-0.00107186
-4.37917e-07
0.0003407
-0.000674982
0.000139006
0.000195276
-0.000700153
0.000219964
0.000363258
0.00011693
3.1927e-05
-0.000774201
0.000932428
-0.000190155
-0.000671587
0.000676284
-4.69661e-06
0.000129331
0.000807206
-0.00103469
9.8157e-05
-0.000809536
0.000676599
0.000205118
-7.21809e-05
-0.000819401
0.000799207
2.01946e-05
0.000267993
-7.71024e-06
-5.28475e-05
-0.000207435
0.00106199
-0.000635364
-0.00141176
0.000985134
-5.23979e-06
-0.000214462
6.29929e-06
0.000213402
0.000442781
-0.000432399
-1.03822e-05
-0.000816588
-0.000282544
0.000280959
0.000818173
-0.000154138
0.000923227
-0.000744693
-2.43968e-05
0.000454643
4.78724e-05
0.000158561
-0.000661076
-0.000692715
-0.000334355
0.000896937
0.000130133
0.000638628
-0.000808605
5e-06
0.000164977
0.00021831
-0.000190939
0.000715521
-0.000742893
0.000517207
0.000676154
-0.000814459
-0.000378901
0.00075617
-0.000474185
-2.13988e-05
-0.000260587
-0.000406621
0.000414487
-7.86525e-06
0.000162788
-0.000341668
0.000916988
-0.000738108
0.000955866
4.53615e-05
-0.000166427
-0.000834801
-0.000389281
-0.000399369
0.000408978
0.000379672
-7.9296e-05
-0.000447083
0.000396102
0.000130278
0.000288081
-0.00019261
-0.00062578
0.000530309
-0.000113933
0.000564226
-0.000203899
-0.000246393
0.0010863
-2.86896e-05
-0.00105761
-0.000466228
0.000909309
-0.000443081
7.84965e-05
-0.000989053
0.00057715
0.000333407
0.000166158
-6.67659e-05
0.000406724
-0.000506116
0.000375779
-3.9227e-06
-0.000371857
0.000693776
-1.50945e-05
0.000122476
-0.000801157
-0.000878762
0.000110685
0.000934234
5.84984e-05
5.8743e-05
0.000583731
-0.000700972
-0.000280792
-0.00182177
0.00176721
0.000335361
0.000393659
7.13933e-05
8.89807e-05
-0.000554033
0.000286623
0.000217209
-0.000701047
0.000197215
0.000903561
0.000541133
-0.000990051
8.20777e-05
0.000767163
-0.000155465
0.000126296
-0.00047331
-0.000278344
0.000625358
0.000214918
0.000330316
9.86586e-05
-0.000643893
0.000123366
-9.25954e-05
-0.000283519
0.000252749
0.00047583
-0.00086113
0.000600218
0.000806981
-0.000759533
-0.000260224
0.000212776
0.000736917
-0.00013479
-0.000582374
0.000789378
-3.35446e-05
-0.000173459
0.000598928
-0.000765896
8.88574e-06
0.000158083
-0.000548698
3.62049e-05
0.00087672
-0.000364227
-0.00103649
-0.000973606
0.000817694
0.0011924
-0.000555083
0.000558597
0.000109757
-0.000113271
8.75808e-05
-0.00070943
-0.00059488
-1.23666e-05
0.000309307
0.000297939
-0.000906132
0.000389406
0.000586199
-6.9473e-05
0.00106627
-0.000859957
5.56645e-05
-0.000261978
4.85128e-05
1.7949e-05
-0.000684626
0.000618164
3.5488e-05
-0.000193509
0.000956015
-0.000797994
-0.00238881
0.000259243
0.000270506
0.00185906
-0.000217466
0.000641211
-0.00020355
-0.000220195
0.000314044
-0.000165557
-0.000670045
0.000521558
7.52851e-05
0.000467584
-0.000594144
5.12749e-05
-1.02955e-05
0.000573312
0.000200268
-0.000763285
-0.000114072
-1.821e-05
-0.000236936
0.000369218
-0.000623934
0.000680386
-2.50611e-05
-3.13916e-05
2.12542e-05
-0.000613342
-0.000441288
0.000390665
0.000118765
-6.81418e-05
-0.00114613
-7.23183e-05
0.000559023
0.00065942
-0.000338816
-0.000144357
0.000288229
0.000194944
0.000509944
-0.00171054
0.000237337
0.00096326
-0.00026014
0.000523665
-0.000285972
2.24468e-05
0.000369703
-0.000287363
3.57793e-05
-0.000118119
8.71875e-06
-0.000717777
0.000709058
2.42963e-06
0.000581973
-0.000584403
0.000501784
-9.8181e-05
6.64704e-05
-0.000470073
-0.000315048
0.000449605
0.000148898
-0.000283456
-0.000217341
0.000924841
-0.000222235
-0.000485266
0.000437246
-0.000745306
-2.82642e-05
0.000336325
0.000501866
0.000514037
-0.0010159
0.000738013
-0.000829027
0.000212033
-0.000121019
7.34288e-05
-0.000132249
0.00096009
-0.00090127
2.74974e-05
-0.00015519
0.000692598
-0.000564905
0.000165805
0.00144599
0.000415387
-0.00202718
-0.00126956
0.0011171
0.000724386
-0.000571927
5.81638e-05
0.000446584
-0.000600499
9.57513e-05
0.000590585
0.000656499
-0.000214913
-0.00103217
0.00110009
-0.000668257
-2.16593e-05
-0.000410176
4.91492e-05
-0.000144136
-0.000452542
0.00054753
-0.000457134
2.55753e-06
0.000454576
0.000668398
2.33635e-05
4.62514e-05
0.000834282
6.72019e-05
-0.0012734
0.000371915
-0.000667008
0.000147183
0.000118991
0.000400835
-0.000432079
0.000107164
5.31518e-05
0.000271763
0.000103535
7.3796e-05
-0.000878283
0.000700952
-0.000175976
-0.00102454
0.000653275
0.000547236
0.00041985
-0.000496811
-0.000323852
0.000400812
0.000677694
-6.8225e-06
-0.000677347
6.47544e-06
0.00050756
-0.000717914
-0.000246712
0.000457066
0.00131634
-0.000398264
-0.000205064
-0.000713013
0.000762794
-1.3549e-06
-0.00070123
-6.02094e-05
-0.000385128
0.000453163
0.000943383
-0.00101142
0.000825208
-0.000290309
-0.000793386
0.000258487
0.000151176
-0.000222279
0.000965889
-0.000894787
-0.001088
0.000991211
0.000940329
-0.000843539
4.91027e-05
-0.00084755
0.000326837
0.000471611
0.00105989
-5.68702e-05
-2.15383e-05
-0.000981478
0.000766742
-0.000149534
0.000147753
-0.000764961
-0.000863643
-0.000785507
0.000929728
0.000719421
-0.000168783
0.000484063
0.000131238
-0.000446518
-0.000362783
1.95507e-05
0.000701529
-0.000358297
-8.2883e-05
0.000931486
-0.000867061
1.84582e-05
-0.000824235
0.000765471
0.00014897
-9.02074e-05
-2.76226e-05
-0.000480758
0.00114701
0.000146302
-0.000484785
-0.000356618
0.0006951
-0.000382771
5.02564e-06
0.000377745
0.000117421
0.000533512
-0.000492976
-0.000157956
0.000872863
-0.000503048
-0.000134369
-0.000235446
8.61503e-06
-0.000266149
0.000257534
-0.000482955
-0.000130305
0.00018314
0.00043012
5.05685e-05
0.000277932
-0.000623664
0.000295164
0.00109542
-9.89632e-05
0.000428086
-0.00142455
7.427e-05
-9.89286e-05
-0.00128824
0.00131289
8.28149e-05
-0.000372821
-0.000487206
0.000777212
3.17861e-05
0.000674809
-3.81967e-05
2.71808e-06
-0.000406062
0.000403344
0.000806098
-0.000299859
-0.000359937
-0.000488369
0.000406324
-0.00040091
0.000906792
-0.000754343
-9.18701e-05
-6.05788e-05
8.88506e-05
-0.000420053
0.000183675
0.000147528
-0.000739685
-0.000223839
0.000150344
0.000813181
0.000615117
-0.00100004
0.000658804
-0.000273882
-2.77652e-05
0.000902949
-0.000904038
2.88546e-05
-2.96978e-06
0.000817392
-0.000809891
-4.53136e-06
-0.00114865
0.000916565
-0.000735899
0.000967983
0.000957939
-0.000926629
-3.13098e-05
-0.000879444
0.00117741
-0.000214893
-8.30694e-05
-0.000786464
0.000189902
-6.1389e-05
0.000657951
-0.00129405
9.97043e-05
0.000831927
0.000362419
0.000225037
-0.000307292
0.000171106
-0.000324625
0.000369455
0.000593899
-0.000638729
-0.000336578
-0.000151242
0.000192833
0.000294987
-0.00046676
0.000305255
-0.000589423
0.000750928
0.000140043
1.15132e-05
-0.001031
-0.000469084
0.000468036
1.0484e-06
0.000495972
-0.00047664
-1.93317e-05
-0.000759059
-5.02996e-05
-0.000201747
0.000186377
-0.00100018
0.00116385
-0.000350045
0.000449985
0.000774152
-0.000984863
-0.000239274
0.00085992
-0.000933959
2.52844e-05
4.8755e-05
0.000457626
0.000118523
-0.00047262
-0.000103529
-0.00071901
-4.30244e-05
0.000948411
0.000426545
-3.088e-05
-0.000520084
0.000124419
0.000480619
-0.000411639
0.000474231
-0.000543212
-0.000819153
0.000154056
0.00111508
-0.000276477
-0.000387088
0.00127966
-0.00061609
-0.000389018
-0.000435352
0.000105361
0.00011803
0.000312535
-0.000819583
-0.000556828
-4.91745e-05
0.000894371
-0.000288368
8.68824e-05
0.000138265
0.000497901
-0.000723048
-0.000259106
0.000634647
-0.000375541
0.000208561
-0.00100595
0.000362038
0.000601366
0.000418512
-0.000901848
-0.000831865
9.96566e-06
0.00103663
-0.00021473
0.000147183
0.000126456
0.000394591
-0.000668231
0.000571296
-0.00057585
4.55414e-06
0.000210633
-7.95496e-05
0.00070709
-0.000838174
0.000758232
-0.000240287
0.000364356
-0.000882301
0.00139363
-0.000449326
0.00104148
-0.00198579
0.000221992
0.000413984
-0.000171643
-0.000464333
-0.000645006
0.000265575
0.000337237
4.21932e-05
0.000460728
-0.00034725
-9.5037e-06
-0.000103974
-0.000287139
-0.000362019
0.00105617
-0.000407009
-0.000517022
0.00067215
0.000266956
-0.000422084
0.000780025
-4.26454e-05
-0.000256761
-0.00118372
0.000782034
-6.50771e-05
-0.00113
0.00104233
0.000484297
-0.000396629
0.00072066
-0.000811898
-0.000117283
0.00020852
0.000405196
-0.000732459
-0.000383248
-0.000418503
-0.000383804
0.000217334
0.000584973
-0.000597416
0.0001853
0.000589806
-0.00017769
0.000694174
-0.000659706
-0.000455385
0.000420917
4.25596e-06
-6.13686e-06
-0.000663127
0.000665008
1.55748e-05
-0.000567531
-2.15616e-05
0.000573518
-0.000167948
-0.00099408
0.000156647
-0.000574811
0.000516543
-9.8379e-05
-0.000382136
-0.000161063
-5.4216e-05
-1.20708e-05
0.000957756
1.29523e-05
-0.00229257
0.00161355
0.00116585
-0.000486825
-0.000677358
4.58665e-05
2.43281e-05
0.000607164
-0.000133851
0.00214707
-0.00252973
0.000516514
0.000109588
0.00016895
-0.000379127
0.00010059
-0.0014513
0.000782014
0.000100346
0.000568944
-1.69385e-05
-0.000962063
-0.000137367
0.00111637
-0.000388216
0.00144729
-0.00100278
-5.6288e-05
0.000650899
0.000945304
-0.000874935
-0.000721268
-0.000777846
0.000740732
0.000920131
-0.000883017
0.000308116
0.000430501
-0.000536103
-0.000202515
0.000299473
-0.000201981
-0.000479628
-0.00154472
-6.12871e-05
0.00126097
0.000345034
0.00046332
7.29818e-05
-0.000270726
0.000465787
0.000624379
-0.00057634
-0.000513826
-0.000773661
0.000172421
0.00075374
-0.000152501
9.12566e-05
0.000242483
0.000843667
-0.000893377
0.00088218
8.57398e-05
-7.45429e-05
0.000565397
0.00044399
-0.000399173
-1.5807e-05
-0.000112244
0.000527224
-0.00059072
-0.000117357
0.000333846
-0.00112537
0.00047514
0.000316381
3.49768e-05
0.000615056
-0.000682786
3.27532e-05
-0.000231257
4.47214e-05
-0.000214983
0.000401518
0.000950768
-0.000679644
2.835e-05
-0.000539361
-0.000421982
0.000567438
0.000393905
0.00203939
-0.00218138
0.00071251
-0.000570517
-0.000400784
0.000497826
0.000200728
-0.00029777
-0.000892223
0.000388113
0.000777543
-0.000273433
-0.0003859
0.00056166
0.000722257
-0.000898017
0.00107686
-0.000416522
-0.000709941
4.96073e-05
1.85577e-05
-0.000258426
0.000628583
-0.000388714
-0.000109151
0.000108258
-0.000830973
0.000780113
0.000252527
-0.000835138
-0.000197502
0.00097361
-0.000801701
-0.000214933
0.000200614
0.000294897
-0.000703293
0.000207782
-0.000410722
-0.000750797
0.000668532
0.000492987
-0.000123099
-0.000319399
-9.68635e-05
0.000401581
-0.00042845
0.000923565
-0.000896696
9.70044e-05
-0.00111417
0.00101716
0.000367812
-0.000483824
0.000316627
0.000210419
0.000122825
0.000172739
-0.000505983
-2.23693e-05
-0.000928959
0.000951328
-0.000520013
6.90132e-05
-0.000168617
0.000619616
-6.14811e-05
0.000704899
-0.000642436
-9.81565e-07
-0.000478436
-0.000253
0.000276106
0.00045533
-0.000178463
-0.000423072
-0.00039291
-0.000577573
0.000481569
0.000488914
2.12183e-05
-0.000592591
0.000997805
-0.000410414
-5.3196e-05
-0.000534195
0.000544842
-5.32473e-05
-0.000397537
-9.40578e-05
-8.74403e-05
0.000761789
-0.00094969
0.000275341
0.000479236
1.85223e-05
0.000233405
-0.000731164
-1.76991e-05
-0.000395572
0.000190987
0.000222284
-0.000280913
0.000364753
0.000703529
-0.000787369
-0.000990997
-0.000250052
-0.000271159
0.000889022
-0.000847875
2.02782e-05
0.000265132
0.000562464
8.18396e-05
-0.000300955
-0.000535582
0.000754697
-0.000399194
-0.000779235
0.000196605
0.000981824
-0.000349754
-0.000386156
0.000401562
0.000334348
-0.000917915
0.000883739
0.000934874
-0.000900697
-0.000127746
-0.000223152
-0.000672004
0.0010229
-0.000923185
8.68345e-05
0.000938382
-0.000102031
-0.000161164
0.000423061
-0.000261896
-0.000372344
0.000688587
-0.000518399
0.000202156
-1.49274e-05
0.00120656
-0.000449274
-0.000742356
-0.000431845
-0.000208207
0.000865606
-0.000225555
0.000139149
-0.000365014
0.000828323
-0.000602457
3.89265e-05
0.000551825
-9.67259e-05
-2.91497e-06
-0.000881133
0.000880787
3.26159e-06
0.00103295
-0.000182924
-0.00150956
0.000659542
-0.000953725
-9.30331e-05
0.00119021
-0.000143452
-0.000515542
0.000779189
6.4022e-05
-0.000327669
0.000452787
-0.000448373
-4.41426e-06
-0.000537925
5.21034e-05
-0.000464622
0.000950444
-0.000774088
0.00106719
-0.000222669
-7.04293e-05
0.000483668
-0.000202798
-0.000582489
0.00030162
-0.000932926
0.000940358
-7.43272e-06
0.000769484
-0.00111863
9.11594e-05
0.000257991
-0.000871481
-0.000238766
0.00149013
-0.000379882
0.00064258
-2.5783e-05
-0.000135431
-0.000481366
-0.000367205
-0.000622807
0.00139159
-6.53546e-05
-0.000918952
0.000555857
0.0014135
-0.00157657
-0.000149674
0.00031274
0.000395588
0.000188659
-0.000437063
-0.000411036
0.000427738
-1.67017e-05
-0.000164953
0.00092302
-5.86176e-05
-0.00069945
-0.000201364
0.00023874
0.00080088
-0.000838257
0.000523439
0.00122974
-0.000719261
-0.00103391
0.000921924
-0.00110613
0.000351586
-0.000167385
0.000815716
1.16738e-05
-0.00082739
1.53288e-05
0.00079392
-0.000809248
0.000897085
-0.00108523
0.000957627
1.01199e-05
-8.35544e-06
0.000696392
-0.000698156
1.81056e-05
0.0012726
-0.00126765
-2.30606e-05
-0.000108509
-0.000321257
-0.000650591
0.00108036
-0.000397099
-0.000237868
7.94729e-05
0.00075423
-0.00130949
0.000475783
-0.000620172
-0.000162464
0.000664766
0.000117871
-0.000751047
0.000829676
-0.00022163
0.000143002
0.000115256
0.000601267
-0.000204423
-0.0005121
-0.000282765
6.69343e-05
0.000488417
-0.000272586
1.79689e-06
0.00023349
-0.000296964
6.16773e-05
-0.000317131
0.000780982
-0.000452389
-1.1463e-05
0.00023252
-0.00073593
-0.000429516
5.44731e-06
-0.000685583
0.000680136
-0.000261467
-0.00025099
0.000116278
0.00039618
0.000375277
-0.000216363
-0.000158914
0.000960308
-0.000953393
-0.000194938
0.000188023
-8.69349e-05
-0.000568279
0.000524014
0.0001312
-2.43629e-06
3.26814e-06
0.000526249
-0.000527081
0.000263796
-0.000216754
-0.000838637
0.000791595
0.000607203
-1.52421e-05
-0.000591961
-0.000866682
-0.000560849
0.000836218
0.000591313
0.00050895
0.000797242
-0.00137155
0.000482174
-0.000173795
0.000271985
-0.000580363
-0.000193503
0.000193385
-0.00106715
0.00106727
0.000301617
-0.000594071
-0.00057712
0.000869574
-6.05588e-05
-0.000133444
0.000629195
-0.000435193
0.000438021
-0.000538362
0.000195044
-9.47028e-05
0.000251346
-0.000416197
-0.000402017
0.000566868
-0.00078987
0.000889244
-0.000236698
0.000137324
0.000910113
0.00116666
-0.00128764
-0.000789135
-0.000696624
0.000693791
2.83365e-06
-7.91501e-05
0.000824013
-0.00102602
0.000281161
3.07903e-05
-5.1615e-05
-0.000791694
0.000812518
0.000759929
3.17951e-05
-0.00087425
8.25254e-05
-0.000340038
-0.000574468
0.000722585
0.000191922
-0.000822451
0.00116557
-0.000412625
6.95065e-05
-0.000323307
-0.000397191
0.000235713
-4.91954e-05
-8.26842e-06
-0.000569087
0.000626551
-0.00185704
7.94581e-06
0.000165543
0.00168355
7.16669e-05
-0.000460298
-0.000239065
0.000627696
0.00116243
-9.55528e-05
-0.000376446
-0.000690432
-0.000199411
-0.00043841
8.07978e-05
0.000557023
0.000333461
-1.16579e-06
-0.000332295
0.000547082
0.000291422
-0.000181474
-0.000657031
0.000422931
-0.000334824
0.000833452
-0.000921559
2.66045e-05
0.000866991
-0.000286678
-0.000606918
0.000210678
0.00030096
0.000650793
-0.000404555
3.09197e-05
0.000373635
-0.000529697
7.60856e-05
0.000139807
8.82385e-05
-0.000728431
0.000500385
-0.000706571
0.00103395
0.000313321
0.00106863
-0.000226737
-0.00115522
-0.000679418
0.000664685
-0.00105336
0.00106809
-9.92565e-05
-0.000497103
0.00017407
0.00042229
-0.00055941
0.00106128
0.000317986
-0.000384304
9.13979e-05
-2.50802e-05
-0.000348558
-0.00111004
0.0003473
0.0011113
0.000728932
-0.000727463
-6.59528e-06
5.12649e-06
0.000586943
-0.000685771
0.000145562
-4.67346e-05
0.000151027
0.000592336
-0.00105504
0.000311678
2.55089e-06
0.000496469
-0.00049902
0.000329718
-0.000844478
0.000665787
-0.000319001
0.000856525
0.000721549
-0.00125907
0.000242329
-0.000247971
-0.00114969
0.00115533
-0.000348363
0.000576394
-0.00115623
0.000928196
-0.00082553
0.000657268
0.00086174
-0.000693478
-0.00050623
0.00069327
-0.000447939
0.0002609
-0.000111716
0.000486455
7.94467e-05
-0.000454186
0.000235866
-0.000343611
0.000354146
-0.000246401
0.000465585
0.000173333
0.000153305
-0.000792223
0.00129611
-0.000879233
-5.35244e-05
-0.000363356
-1.71849e-07
-0.00062821
0.000628382
0.000395257
-0.000576787
-0.00176863
0.00195016
-7.89893e-05
-0.000856775
-0.000259516
0.00119528
-5.07088e-05
-0.000384376
0.000435085
0.000119759
0.000568784
-9.0421e-05
-0.000598122
-0.000155474
-0.00056111
0.000452951
0.000263632
0.000454421
-0.00038081
-0.000668492
0.0011315
-0.000880772
0.000255101
0.000269836
-0.000524938
0.000857471
-9.86559e-07
-9.82907e-05
-0.000758194
-0.00016748
-0.000285189
0.000452669
0.000297622
0.000197135
0.00170918
-0.00205614
-0.000725385
0.00107235
0.00025641
0.000546336
-0.000417887
-0.000384858
-0.000598006
0.00114595
0.000760471
-0.00130842
0.000673865
0.000233873
-9.01615e-05
-0.000817576
0.00109101
-0.000727385
0.000469405
-0.000833034
-0.000623267
0.000285113
-0.000780922
0.00111908
-0.00101775
0.00182415
-0.00071473
-9.16643e-05
-2.91276e-05
-0.000423953
-0.000584932
0.00103801
0.000824702
0.000341009
-0.000968168
-0.000197542
0.000442492
-0.00118029
0.000744709
-6.90935e-06
-0.00104173
-3.94709e-05
0.000681262
0.000399935
-0.000208279
0.000540125
0.000235271
-0.000567117
-0.000132623
0.000531068
0.000427519
-0.000825964
-0.00108546
0.000558653
-5.26419e-05
0.000579445
9.54177e-05
-0.000288001
0.000574705
-0.000382121
0.000470383
-0.00023666
0.000167904
-0.000401628
0.000445878
8.49192e-05
4.36678e-05
-0.000574465
-0.00064291
0.00069001
0.000255392
-0.000302492
-0.000155665
0.000834995
1.66001e-05
-0.00069593
0.000674851
-0.000396029
-0.000261798
-1.70242e-05
0.000568539
3.80874e-06
-0.000572348
0.000416159
0.000322308
-7.30664e-05
-0.000665401
0.000199367
0.000525184
0.000448273
-0.00117282
-7.3797e-07
-0.00094183
0.000942568
-0.000492671
0.00190447
-0.000277231
-0.00113457
-8.00418e-06
0.000709117
-0.000701112
-4.64351e-05
-0.000500038
8.97559e-05
0.000456717
-0.000927766
0.000471894
0.000360586
9.52853e-05
0.000189332
0.000157548
-0.00108606
0.000739185
0.000541732
0.000855817
-0.000319839
-0.00107771
0.000834591
-0.000286659
-0.000798978
0.000251045
-0.00104129
0.000593895
0.00158716
-0.00113977
-2.76483e-06
0.000408526
-0.000408493
2.7322e-06
-0.000421773
0.000417334
4.43915e-06
-0.00105989
1.61177e-05
0.000445767
0.000118797
0.000256128
0.00070111
-0.00107604
0.000538062
-0.000639187
0.000412977
-0.000311853
-0.0005413
0.000474039
-1.79006e-05
8.51611e-05
-0.000106582
-0.000882171
0.00112609
-0.000137334
-0.000399581
0.000192386
0.000632548
-0.000425353
0.000676998
-0.000261523
9.96318e-05
-0.000515107
-0.000438582
-7.63554e-05
0.000513374
1.56415e-06
-7.90705e-05
-4.2155e-06
0.000751092
-0.000667806
9.23837e-05
-7.85975e-05
0.000733704
-0.00074749
-0.000660345
0.000924086
-0.000968585
0.000704845
4.91844e-06
-0.000830678
0.000825759
-0.000296245
2.55978e-05
0.000747144
-0.000476496
-0.00055671
0.000650838
-0.000887488
0.00079336
-0.000572229
4.40474e-05
0.000171563
-0.000270876
0.00073156
4.09298e-05
-0.000501614
-0.000193112
2.7469e-05
-0.000322726
-0.000288584
-0.000934629
0.000939171
0.000284042
-0.00041541
-4.89766e-05
-0.000104161
0.000568547
-0.00142866
0.000482578
0.000142674
0.000803406
-0.000439243
0.00103464
-0.00052036
-7.50376e-05
0.00030635
0.000120309
-0.000619771
0.000621063
0.000632987
-0.00125405
8.41972e-05
0.00136166
-0.000313844
-0.00113201
-1.77153e-05
-2.48593e-05
-0.000615946
0.00065852
-0.000655917
0.00107992
-0.000434574
1.0568e-05
0.000621863
-0.000392473
-0.000563635
0.000334245
0.000158488
-2.11915e-05
0.000194229
0.00095304
0.000262002
-0.00137408
0.000159042
-0.000661029
-8.56079e-05
0.000216807
0.000529831
0.000244689
-0.000274165
-0.000367715
0.0011519
-0.000774958
0.000602486
-0.000979426
-0.000127835
0.000743171
-0.00128475
0.000669415
0.000446117
-0.000563737
-5.71827e-05
0.000174803
-0.000482545
-0.000167829
-1.63471e-05
0.00066672
-0.000367376
-0.000347458
0.000714834
9.25256e-05
-0.000988963
0.00087681
1.96276e-05
0.000378065
-0.000364661
-0.00038078
-0.000612991
0.000776824
-0.000148504
-1.53295e-05
0.000868466
0.000237992
-0.000934482
-0.000171975
-0.000337254
-0.000494861
-5.63775e-05
0.000888493
0.000574637
-0.000174604
0.000666218
-0.00106625
-0.000625006
-3.53396e-05
-0.000747328
0.000399871
9.42517e-05
-0.000819803
0.000262142
0.000463409
0.000243839
-0.000873334
0.000480269
0.000149226
0.000129428
3.48937e-05
-0.000652619
0.000488298
9.72907e-05
0.000421421
-2.95932e-05
0.000753992
-0.000149081
-0.000575317
-0.000294011
-3.26896e-05
-0.000275596
0.000602296
-0.00017514
-0.000235875
0.000451042
-4.00267e-05
-0.00068375
-8.96402e-06
-0.00115379
0.000413905
0.000607258
0.00164243
-1.35497e-05
0.00022426
-0.00185314
-0.000717387
0.00111539
0.000225939
-0.000623942
-0.000204477
0.000111279
0.000706214
-0.000613016
8.3773e-05
0.000237666
-0.000183901
-0.000137539
-0.00123272
-0.000254195
0.00106631
0.000420608
2.78349e-05
0.000534046
-0.000107459
1.60711e-05
0.000262715
-0.0008245
0.000545713
-0.000499024
-1.74618e-06
0.000183967
0.000316802
-0.000716529
0.000885263
-0.000140899
0.000403157
-0.000363372
-3.97845e-05
-0.000581224
8.3874e-05
-0.000453172
0.000950522
-0.000269326
0.000405074
-0.000312233
0.000176485
-0.000579686
0.00065218
-0.000269482
0.000196988
0.000251616
-4.17992e-05
-0.000586706
0.00037689
-0.000259399
0.00162704
-0.0021901
-0.000225179
-0.000157302
0.000153983
0.000228498
0.000753376
-0.0011772
-5.35191e-05
0.000477339
-0.000311577
0.000232377
0.00040079
-0.000321591
-9.38416e-05
0.000492848
-0.000134956
-0.00026405
-0.00055404
0.000122992
0.000129534
0.000301514
-0.000322641
2.76893e-05
0.000294952
0.000711177
-0.000338649
-0.000360769
-1.17587e-05
5.45821e-05
0.000371348
-0.000563704
0.000137774
-0.000380688
-0.000461129
0.000470291
0.000371526
-0.000202106
0.000519949
-0.000445485
0.000127643
0.000183979
-0.00034842
0.000240024
-7.55829e-05
0.000683134
1.94094e-05
-0.000702544
0.000588631
-0.000725488
0.000359359
-0.000222501
-0.000920665
-2.61302e-05
0.000946795
0.000372411
-0.000308869
7.20057e-05
-0.000135548
-3.09514e-05
0.000654436
-0.000713121
8.9637e-05
-0.000320785
0.000401605
0.000103159
-0.000373228
0.000799786
0.000739012
-0.000619764
0.000614256
5.50789e-06
1.44038e-05
-0.00098283
0.000968426
0.0013282
0.000159345
-0.000282909
-0.00120463
0.000275783
-0.00108169
-0.00013238
0.000938291
0.000205811
0.000242832
0.000139375
-0.000588019
-0.000372105
-0.00037278
5.68447e-06
0.0007392
-0.000177312
0.000243536
-0.000438329
-0.000817506
0.000147774
0.00107294
-0.00040321
-0.00160384
0.00117435
0.000517539
-8.80508e-05
0.000708219
5.83793e-06
-0.000714057
-0.000411289
-0.000553447
0.000357845
0.000606891
-0.000404685
-0.000588056
0.000175234
-0.000574063
0.000312309
0.000359044
0.000236965
-0.000308463
-0.000564974
0.000636471
-0.000389913
2.64044e-07
0.000389649
-0.00093187
0.000377988
0.000384928
0.000168955
0.00022979
-0.000617275
-0.000186578
0.000799632
-0.000253807
-2.0027e-05
-0.000525797
-0.00053612
0.000889367
0.00052788
-0.000881127
-0.000163328
-0.000338646
0.000129493
0.000372481
-0.000220821
-0.000177618
0.000398438
-0.000394313
-0.0008289
-0.00038063
0.000189498
2.42218e-06
0.000382595
-0.000574515
0.00076043
-0.000554193
-0.0008001
0.000593862
-0.000281956
0.000100779
0.000570039
-0.000388862
0.000522655
-0.000367889
-5.19232e-05
-0.000102843
-0.000598827
9.71909e-05
0.000467868
3.37681e-05
-0.000369962
0.000848394
-0.000925152
0.000360782
2.67614e-05
0.000537609
0.000880458
-0.000710182
-0.000550462
0.000380185
-0.000705098
0.000146786
0.00131874
-0.000670992
-0.00044294
0.000721979
0.000391953
-7.88477e-05
0.000698257
-0.000264745
-0.000354664
4.06814e-05
-0.000420412
-0.000277751
0.000657481
0.000795179
-0.000524471
-3.23059e-05
-0.000238403
0.000251486
0.000187613
-0.000616412
-0.00016716
0.000189116
0.000466671
-0.000488627
-0.000142443
0.000739727
-0.000911265
0.00031398
-0.000454604
0.00010961
0.000110065
0.000234929
-0.000972642
0.000988785
-1.6143e-05
0.000665149
-0.000655348
-9.80073e-06
0.000270036
-0.00104287
-0.000400616
0.00117345
0.000238784
0.000454755
0.000106093
-1.11371e-05
0.000387573
-0.000376435
0.000633055
0.000567744
-0.0012008
-0.000691317
0.000421993
0.000298366
-2.90417e-05
-0.0003883
0.000127986
0.000315629
-5.53145e-05
-0.00118706
0.000554245
0.000651336
-1.85203e-05
-0.000375927
-0.000419589
0.000405603
0.000609002
-9.63383e-05
-0.000391866
-0.000120798
-0.000638869
0.000688442
-0.000419535
0.000116077
-0.000736571
-3.66392e-05
0.000657134
-8.49002e-07
-0.00036835
0.000369199
0.00177688
1.20968e-05
0.000190279
-0.00197926
-6.8325e-05
-0.000133927
-0.000985871
0.00118812
0.00030288
-0.000410047
-0.000189505
0.000296672
0.000120255
0.000917522
-0.000371621
-0.000666156
0.000999809
-0.000999858
-1.93707e-06
1.98588e-06
-0.000562233
-0.000507169
0.000792712
0.000276691
0.000327515
0.000249974
-0.000652125
7.46362e-05
4.76875e-06
0.000608138
-0.000621564
8.65708e-06
-0.000836289
0.000268581
0.000677658
-0.000109949
0.000626253
0.00037826
-0.000633786
-0.000370727
1.53537e-05
-0.000572818
0.000289466
-0.000148725
0.000859068
-0.000452535
-5.88936e-05
-7.06117e-05
0.000582041
-0.000776112
4.16789e-05
0.000734433
0.00113247
0.000486946
-0.000366321
-0.00125309
-0.000739157
1.58852e-05
0.000738626
-6.5916e-05
-0.000171303
-0.000438361
0.00067558
-7.99545e-05
-8.87566e-05
-0.000239054
0.000407765
0.00018609
-0.000944204
0.000711906
4.62078e-05
0.000582918
-9.16469e-05
-0.000566818
7.55472e-05
-0.000703545
0.000141451
4.34692e-05
0.000518624
-0.000274257
0.000181945
-0.000382377
0.000474689
0.000158694
0.000103144
-0.000936705
0.000674867
3.30746e-05
-0.000634187
-4.46141e-05
0.000645727
0.000627631
8.23766e-05
-1.09335e-05
-0.000699074
-0.000750556
0.000174779
0.000679312
-0.000538443
-0.000714802
0.00125324
0.00102944
-0.000522459
0.000226181
-0.000733162
8.14848e-05
0.000573765
-0.00035237
-0.000839228
0.000150905
0.000299646
0.000388677
0.00103523
-0.00107289
3.76588e-05
-0.000643002
-0.000218006
0.000449925
0.000411082
-0.000816839
-0.000634303
0.000425357
0.00102579
0.000831226
-0.000868203
-0.000106476
0.000143453
-0.000120146
0.000404073
-0.000318712
3.47845e-05
-0.00106547
0.000347697
0.000244634
0.00047314
-0.00155684
0.00192618
0.000332875
-0.000702214
0.000690854
-0.00150707
-8.60894e-05
0.000902306
-0.000618595
0.000802095
-0.0014748
0.0012913
-0.000643091
0.00141013
0.000142075
-0.000909113
5.76285e-05
0.000681509
-0.000159398
-0.00057974
0.00103616
-0.000777067
-2.61344e-05
-0.000232961
-0.000178077
-0.000170868
0.000261284
8.76616e-05
-0.000479526
-0.00100555
0.000861375
0.000623701
-0.000694585
0.000925059
0.000805689
0.000578369
-0.000425071
-0.000529817
0.000376519
0.000204256
-0.000264338
-0.000116763
0.000176845
0.000451568
-0.000446437
-0.000595976
0.000590845
-0.000183448
0.000526359
-3.81363e-05
-0.000304775
-0.000743739
-0.000118955
0.000920323
-0.000549942
-0.000135171
0.000679847
5.26626e-06
0.000234863
-0.000524739
0.000289876
0.000183495
-0.000243828
0.000906514
-0.000846181
0.00070741
-0.000996238
0.000144757
0.000144071
0.000459683
-0.000494853
3.51709e-05
-0.000713949
1.93639e-05
0.000626979
-0.000239425
-0.000605542
0.000217987
0.000200935
0.000162588
0.000711979
-0.0010755
0.000450419
-0.000488844
3.84249e-05
-5.30274e-06
0.000543006
-0.000613849
7.61451e-05
-0.000784196
-7.57853e-05
0.00104348
-0.000330874
-5.66355e-05
7.64612e-05
0.000311048
4.57004e-05
-0.000378311
0.000279195
5.34158e-05
0.000620028
-0.00059355
-0.000146623
7.25128e-05
0.00104528
-0.000658176
-0.000459612
-0.000358663
0.000752859
-0.000394195
-0.000974626
0.00037329
-0.000228383
0.00082972
0.000768794
-0.000696315
-0.00113795
-0.000382124
-0.000456616
0.00157007
-0.000731334
-0.00109764
0.000698559
0.000995653
-0.000596573
-2.39661e-05
-0.000933796
0.000957762
0.00148518
3.5714e-06
-0.000856031
-0.000632724
0.000860371
-0.000554202
-7.52762e-05
-0.000230893
-0.000626556
0.000442528
-0.000109361
0.000293389
8.39942e-06
-0.000642467
0.000634067
-0.000461611
0.000475097
-1.3486e-05
-0.000342248
-0.000362502
-0.000928514
0.00163326
-0.000874375
0.00019065
-9.75994e-05
0.000781324
0.000207071
0.000335909
0.000894842
-0.000807328
-0.000667993
0.000580479
-0.000248988
-0.000512503
0.000565191
0.0001963
-0.000517437
-0.00026329
0.000781437
-7.10567e-07
0.000168663
-9.70942e-05
-0.000477138
0.000405569
0.000571175
2.5189e-05
-0.000730131
0.000133767
0.000176376
-0.000122637
0.000193085
-0.000232892
0.000231922
-0.000192115
0.000468103
0.000457945
-0.000467933
-0.000458115
0.000228511
0.000533211
-0.000552112
-0.00020961
0.000476793
0.000206732
-0.000377174
0.000603606
-0.000731865
0.000153448
-0.000801056
0.000560331
0.000301117
-6.03921e-05
0.000936409
-0.000312262
-0.000982811
-0.000255871
0.000681893
0.000342772
0.000663587
-0.00032327
-0.000558571
-0.00015232
-9.01651e-05
-0.00089302
0.000834902
7.90196e-05
-2.09025e-05
-5.5656e-05
0.0011142
-0.000116088
-0.000942453
-0.000730249
0.000148888
0.00032549
-0.000113937
-0.000719224
0.00020223
0.000630931
0.000667049
9.27433e-05
-2.71505e-06
-0.000757077
-0.000993068
-8.40242e-06
6.44345e-06
0.000995027
-0.000261566
0.000282934
-0.000467035
0.000445667
-0.000684812