/*--------------------------------*- C++ -*----------------------------------*\
  =========                 |
  \\      /  F ield         | OpenFOAM: The Open Source CFD Toolbox
   \\    /   O peration     | Website:  https://openfoam.org
    \\  /    A nd           | Version:  10
     \\/     M anipulation  |
\*---------------------------------------------------------------------------*/
FoamFile
{
    format      ascii;
    class       volScalarField;
    location    "53";
    object      SgT;
}
// * * * * * * * * * * * * * * * * * * * * * * * * * * * * * * * * * * * * * //

dimensions      [1 -1 -3 -1 0 0 0];

internalField   nonuniform List<scalar> 
111485
(
2.63063e-16
0.00901974
0.0210445
1.17289e-17
0.0449924
1.53739e-16
0.0416841
0.0058781
0.0184071
0.00113097
0.0418507
0.00916151
0.00424706
0.000836678
0.00593088
0.0316556
0.00129267
1.99803
0.0100316
9.58329e-17
7.62097e-16
5.14301e-17
0.0234583
0.0355206
0.00847085
1.33232e-16
0.0401205
0.00174348
0.0159387
1.08141e-16
0.0435987
0.0173527
4.00941e-16
2.40599e-18
0.00966995
5.89552e-18
0.0105335
0.00388687
6.45096e-08
0.0215935
2.92168e-18
0.0719967
0.0144272
0.000997604
3.67591e-05
1.05674e-17
0.0328397
0.00072023
0.0475572
1.63559e-16
6.5279e-17
1.47327e-15
6.79662e-16
0.0444672
2.26898e-16
0.0430287
0.00355023
1.06688e-18
2.70604e-05
0.00449283
0.0149335
4.44058e-17
0.00401923
0.0883806
3.34928e-16
0.00359184
0.301034
0.0973057
0.000922162
0.00512292
6.6003e-06
0.00547303
1.81514e-15
0.0024466
6.09262e-18
0.000637695
3.09411e-17
0.0425146
2.34272e-16
1.91368e-15
5.20088e-05
0.0316088
3.07455e-17
4.74381e-17
0.00812664
0.00442511
5.80032e-10
0.0225468
4.64116e-05
0.00678441
0.000866192
0.0410995
0.010341
6.14153e-05
0.0559772
2.8118e-17
6.46561e-18
0.00145324
8.60898e-09
0.00147929
3.03194e-15
0.0195141
3.24833e-19
0.0214686
0.00483009
1.96317e-15
1.31254e-18
0.00747649
0.00318963
1.50006e-07
0.00562819
0.0050713
0.00313906
0.00264361
2.50719e-16
3.04755e-05
3.60257e-16
2.40921e-19
0.011364
2.53156e-16
1.24377e-17
5.79623e-16
7.98487e-17
2.42626e-19
0.00233797
2.3321e-06
7.48639e-16
0.00149818
5.59523e-19
0.000173278
0.000989842
0.0280731
3.01899e-17
1.27325e-15
6.01876e-16
0.0491601
6.44039e-17
0.0409687
0.0225455
0.00255378
0.000172028
0.00186891
0.0204559
0.00310466
0.00380477
0.0122031
2.0096e-17
3.81619e-17
4.46029e-18
0.0262474
0.00182992
2.37994e-16
1.33385e-07
0.00502946
4.81711e-07
0.0106186
0.0155003
0.0094248
1.68856e-07
6.75988e-19
2.68962e-17
0.0526782
0.0252309
5.15356e-06
2.32428e-07
0.00518451
0.00369337
1.61975e-18
9.95804e-06
6.60008e-05
1.09413e-18
5.93171e-18
0.000148408
1.23637e-17
0.00613601
0.00226983
4.01063e-16
2.2585e-15
2.3949e-15
3.40098e-16
1.56035e-15
1.18783e-16
0.00134094
0.00671802
0.0277146
0.00416077
0.00642029
0.0035671
9.48232e-05
4.88989e-17
0.00424968
7.16158e-16
4.68437e-17
0.00582364
0.0110798
0.0228048
0.0103189
0.00462881
2.33156e-17
0.00604528
0.000573069
4.51996e-05
0.0111791
0.00230482
8.48581e-17
0.00325804
0.0275362
2.07751e-15
0.000230403
0.00651507
0.00227944
0.000309283
2.51566e-15
3.17908e-17
0.00728469
7.36926e-12
0.123844
9.19031e-18
0.00601198
0.0190212
0.121842
9.25975e-18
0.00267218
0.0119963
2.02176e-13
1.28305e-17
3.89138e-19
0.166636
4.19477e-07
1.7005e-15
1.37354e-15
0.00914002
0.00846987
0.0160062
1.73718e-15
4.74872e-15
9.32352e-06
3.50006e-17
0.00272557
0.00832681
0.0149811
0.0107813
0.00917632
1.83502e-18
3.22474e-07
0.000565288
1.17289e-18
2.14674e-17
0.0307376
0.0214608
7.89827e-16
0.00559532
0.00978464
2.55467e-18
1.01638e-14
0.000153294
8.6561e-16
5.41197e-15
3.92126e-05
6.5605e-16
0.0156182
0.0117249
0.0033585
1.79533e-18
0.0109543
1.65669e-17
6.55349e-18
2.44547e-19
3.72128e-08
0.0225685
0.00552903
0.00466819
0.0369676
0.0109705
0.00149611
0.000590863
0.0340472
0.00941756
4.59314e-17
6.2594e-17
3.36797e-07
0.0220527
0.0215166
0.012832
1.2174e-16
0.00633167
0.00194783
0.00276123
6.23108e-06
4.40442e-06
0.0122025
0.0021174
0.0018632
4.71372e-18
0.00077858
2.47186e-18
5.28236e-07
2.40053e-13
0.266689
0.0682632
0.0138404
8.27682e-16
1.61034e-18
0.0083096
0.00190187
3.60671e-16
1.55819e-17
4.82497e-15
0.000416676
0.0622542
0.00334041
0.0154427
0.0182888
1.82587e-15
1.38897e-17
3.41552e-17
0.00350913
9.06952e-13
0.00132794
0.187069
5.82122e-07
1.01536e-17
7.10515e-17
3.83443e-17
1.09636e-16
0.0574266
0.012321
1.98724e-18
0.00486362
2.19685e-16
1.71933e-15
0.0670738
0.00538496
0.0107229
0.00854713
3.43449e-15
6.09286e-17
3.11365e-19
0.00872569
0.0189265
0.00470217
1.65025e-16
1.94759e-10
0.000225228
0.0017779
0.0073406
6.34439e-05
0.0284797
2.9584e-17
0.0370409
0.00315706
0.00788184
0.0230802
0.0147321
1.53132e-17
8.18321e-17
9.44968e-19
1.26149e-16
0.0320971
0.00856427
0.037086
0.0669859
8.00661e-18
0.0201473
4.26927e-18
7.02997e-17
0.0161359
2.77383e-15
0.0399847
3.39143e-18
6.46505e-19
0.0237404
2.18575e-19
0.0141054
0.00033529
7.57739e-17
0.00112398
0.0150713
5.24301e-16
0.00797918
0.010675
0.00738763
0.000434588
0.00291685
0.00613772
3.54445e-15
5.4965e-17
0.00136451
2.23876e-18
0.00500719
0.112124
2.99074e-16
2.53294e-18
0.0256084
0.000127462
0.00759332
0.0224614
3.10336e-17
0.0389897
0.0197521
2.21249e-18
0.000695425
0.00281907
1.06001e-16
1.05441e-16
0.0118134
0.00487594
5.5022e-19
1.51087e-15
1.0737e-08
1.65455e-16
0.0105625
3.26767e-17
2.22494e-17
0.0177238
2.47584e-06
0.0146324
0.0266788
2.41474e-17
2.24272e-15
0.00108219
9.25994e-16
0.000107652
0.0108155
0.121686
0.90559
8.81314e-16
0.00260282
0.000234755
4.02257e-17
0.035044
0.0331089
9.01628e-18
1.14008e-08
0.000108582
2.55994e-16
0.0257011
0.026893
0.0127289
7.3338e-17
0.000589822
0.0206554
0.021216
6.07558e-07
7.33005e-16
9.47959e-11
6.10118e-18
2.07871e-05
0.0318534
1.26313e-17
0.00957903
6.80724e-05
2.35932e-15
1.50441e-18
6.57826e-15
1.20207e-16
0.00428861
0.00952075
0.00711414
0.00244119
0.0033885
1.86135e-17
0.0022827
8.94734e-17
0.0356477
2.22056e-17
3.7542e-17
5.12391e-19
0.0317853
7.26589e-18
4.96835e-17
3.37074e-07
6.22174e-17
4.2641e-18
0.000876099
8.06994e-20
1.2675e-15
3.59943e-18
5.78578e-18
1.80457e-16
1.60873e-17
2.24384e-16
0.00815663
1.27168e-17
0.000392771
0.0016583
0.00267641
6.00146e-17
0.000624826
1.5761e-17
1.7857e-17
0.00310831
0.00204953
0.029404
0.0222555
5.66108e-16
0.00187115
0.0726731
0.00842375
0.00110926
0.00365886
1.18982e-16
0.0223953
2.83357e-15
0.00428103
8.87194e-17
0.0691284
2.15281e-15
0.0210563
0.000322866
7.64418e-08
3.14136e-17
0.00233217
1.77753e-16
0.0759335
0.0443261
1.17686e-18
7.68286e-18
1.16977e-15
2.68766e-18
1.9769e-10
0.0545934
8.76873e-17
2.2341e-19
0.00288021
9.84818e-17
0.0304229
1.52772e-18
0.000351118
1.72858e-16
0.000586124
7.48515e-07
0.00112114
0.0124518
4.43437e-16
0.000366187
7.3672e-17
7.6916e-18
0.0162867
5.00276e-18
3.5711e-05
1.75213e-15
0.00147694
1.1824e-16
0.0661477
1.32755e-16
2.65206e-15
0.0121362
0.00387857
0.00150503
0.00430713
0.00590902
0.0208909
3.21954e-18
0.0207399
0.00708312
1.50619e-18
5.69904e-08
0.031463
0.0125525
1.78859e-15
0.00550189
0.00543917
0.00127747
0.00139379
1.49234e-10
0.013791
0.000982598
0.000166716
0.0267655
0.0141747
0.00109422
9.27385e-16
2.95819e-09
0.61957
9.1917e-17
0.000418026
1.93257e-19
1.97601e-15
0.00729667
0.00363824
1.24841e-07
8.39722e-06
4.75139e-15
0.0185055
0.009942
2.39437e-16
9.75286e-12
0.00204196
8.31242e-16
2.71104e-16
2.30723e-18
5.38044e-17
0.0152507
3.00264e-18
8.28392e-18
0.00987325
0.00233977
8.22108e-14
0.00937732
2.10953e-16
0.00859944
2.86766e-15
6.69604e-19
0.0571328
3.88457e-17
4.04222e-17
2.55092e-15
0.00490369
2.98537e-14
0.0328181
0.00638765
1.65401e-16
0.0726779
0.00283175
0.0261271
0.023589
0.000928823
9.17546e-05
4.72833e-18
0.0569095
0.041598
3.78064e-18
0.000308824
0.0361822
0.00708355
0.00155698
0.0244372
0.0237727
1.51947e-16
0.0104682
3.68143e-06
5.7928e-16
0.0320026
0.000299195
2.99406e-14
0.0109158
0.038818
0.00158804
0.0185288
0.0168405
0.00706056
9.62204e-16
0.00915511
0.00040013
8.33524e-12
0.0144626
0.0148993
0.0347873
6.82713e-18
0.00211323
1.09339e-17
4.53688e-17
1.65787e-18
5.79706e-17
1.68508e-05
3.57994e-15
1.41922e-10
1.33476e-16
5.82103e-17
5.14969e-05
0.0396322
2.74467e-16
0.036604
3.14791e-16
6.17431e-17
9.99162e-16
0.0396451
0.000496191
4.38687e-15
5.10707e-18
3.13159e-17
1.42522e-18
0.238179
0.0684342
1.19952e-15
0.00176995
4.67694e-06
6.57268e-18
0.0349027
0.0064944
0.0129253
9.05246e-18
1.37207e-17
0.000392841
0.0010696
1.30086e-15
3.51271e-17
4.56588e-16
0.00706559
2.42722e-17
6.26351e-16
4.50914e-17
0.0385037
0.00161474
3.20881e-17
4.12145
0.142777
0.0108955
6.97961e-20
1.47089e-16
0.056752
0.000304844
1.001e-15
7.58378e-06
0.170121
0.00291236
0.0119122
5.47556e-16
0.0578037
0.0015201
2.49722e-19
1.15256e-15
2.68124e-18
1.64711e-17
7.8878e-19
6.98686e-17
0.0193362
1.28006e-16
1.80221e-17
1.45817e-15
0.0119166
0.023428
2.47491e-15
1.14236e-15
0.105662
0.0133256
0.00877133
4.48738e-16
5.70988e-17
0.034584
1.53174e-17
0.00227533
0.00240035
0.00353522
1.60662e-15
2.32306e-17
1.03316e-17
3.33282e-19
0.0158588
1.71233e-17
1.38466e-17
0.000816945
3.2668e-16
0.0211506
0.00140599
6.59473e-16
0.0358198
0.60125
0.00232258
0.0294265
0.000200051
0.0480108
2.40667e-10
4.74428e-16
0.0218674
0.0766277
0.00620488
7.46616e-16
1.32379e-09
0.517768
0.00989247
5.08534e-18
0.0029141
0.00313599
0.0014343
3.91236e-15
9.82269e-17
1.55951e-17
0.0126416
5.71351e-16
0.0023272
2.53759e-16
0.00145508
0.0012766
0.0343226
0.000535266
5.73777e-17
3.04426e-16
4.96579e-15
0.0197203
4.04506e-17
1.15169e-16
4.31457e-05
1.29399e-18
2.38615e-18
1.09868e-17
2.28847e-17
0.00897042
2.47901e-16
2.45019e-17
7.14957e-10
1.07454e-15
1.08569e-18
9.28118e-15
7.98162e-18
3.26588e-06
0.00151574
1.29629e-15
0.00333388
1.22889e-05
2.77711e-07
8.55291e-05
0.00439152
1.55298e-18
1.00602e-05
0.00923417
0.000373446
1.19671e-17
1.10168e-08
0.000752432
2.62564e-15
0.00888065
0.000299873
2.01181e-06
0.0253157
0.00866937
0.00215867
0.00553641
0.00197581
9.61621e-18
4.27576e-16
0.0301254
0.0243837
2.9889e-18
0.00775865
0.0536757
0.0277331
1.85452e-15
0.00166124
1.00582e-18
0.0102776
0.0134792
2.70786e-16
0.00144122
0.000475694
1.5004e-06
0.00451076
1.82184e-16
0.0471673
1.93509e-05
0.00186039
4.02112e-05
1.37611e-05
6.46019e-18
4.13303e-17
0.00833454
7.63787e-17
8.9559e-05
0.000328639
1.07081e-05
6.47715e-08
6.15457e-08
1.23146e-06
2.35024e-17
1.2292e-15
0.0216245
4.56148e-17
0.00115805
0.0023507
3.48486e-16
9.79595e-17
6.40682e-07
1.48811e-10
1.40096e-17
3.33885e-06
1.41269e-17
3.4659e-17
2.46342e-18
7.86608e-17
8.78282e-15
5.41842e-17
0.000330471
2.06696e-16
1.49211e-19
5.97992e-18
4.72433e-06
7.0559e-05
0.00204182
0.00916329
2.03454e-16
1.23518e-16
0.000232523
1.85998e-17
6.67501e-17
1.0047e-13
0.0194359
0.0407378
3.40258e-16
1.02109e-16
2.58532e-16
1.06343e-17
2.21552e-18
2.89888e-17
0.00845426
6.95692e-17
7.89882e-08
0.0269256
3.88489e-17
2.48424e-16
3.40199e-15
1.52075e-05
2.56168e-15
1.13739e-16
6.20648e-18
5.88883e-06
8.09338e-17
0.0053016
1.07007e-06
4.33552e-09
1.65576e-16
4.68606e-05
0.00260713
0.0434653
3.95955e-16
5.52898e-06
0.00721821
7.8917e-16
1.20209e-16
2.88228e-14
1.39723e-16
0.00787313
0.00174879
0.00396319
1.59967e-07
5.78817e-17
0.0222898
4.51974e-16
1.34924e-15
6.73911e-14
5.67285e-19
0.0253007
7.81857e-18
3.09033e-15
2.63422e-06
0.0487914
2.72413e-16
0.003001
1.27738e-16
0.00112372
2.66905e-15
1.93807e-17
2.04942e-18
6.26914e-17
0.00264464
0.00068319
0.338814
4.80064e-17
1.79275e-15
0.00205047
4.42513e-17
3.56037e-15
1.49305e-16
0.0422395
5.63178e-06
0.0286722
1.87164e-15
6.48317e-06
2.96541e-05
5.43806e-14
6.93051e-05
3.23579e-16
0.00182595
0.0276318
0.0200098
0.00164692
0.000326346
3.69079e-17
8.4371e-18
2.98696e-18
1.40106e-05
2.22275e-19
0.00543124
1.33341e-17
0.175824
9.5123e-18
0.0416932
0.00354234
6.22092e-15
2.01495e-18
3.04583e-15
4.0453e-20
0.0312978
7.86208e-15
1.31521e-13
0.0129886
0.00535791
1.67572e-15
3.60457e-15
5.47218e-15
5.30556e-15
5.04136e-16
1.11927e-18
0.0203805
0.00051972
4.96194e-16
3.09836e-17
2.77668e-07
1.47513e-16
0.00133037
0.00011599
3.75995e-16
0.00271078
2.90116e-17
0.000331759
1.3784e-16
0.000889546
1.58176e-16
1.27457e-07
1.79294e-06
0.000876516
0.0143999
0.0274239
1.01236e-06
6.51281e-17
0.000451672
6.09273e-16
0.00436817
6.14825e-16
5.76642e-18
9.38705e-14
2.17004e-17
2.94496e-18
3.84413e-18
0.00569939
0.00627657
6.05747e-18
1.5097e-14
2.0307e-15
0.000535649
1.76097e-05
2.10968e-17
0.0184331
0.000212932
3.31605e-16
0.0224797
0.00812036
0.00332671
0.0134679
6.5525e-18
1.55151e-16
1.65843e-17
3.74832e-16
0.0362663
7.62621e-18
0.103833
2.13967e-17
0.000216844
0.000729251
1.69263e-18
0.000670477
7.49893e-19
1.96279e-17
0.00227007
2.58672e-08
0.0058994
1.30633e-17
1.16289e-15
4.95199e-17
0.000694664
4.67876e-16
1.13083e-18
4.1448e-16
5.1022e-07
9.704e-17
1.19152e-05
2.0468e-15
1.28641e-16
1.51356e-16
0.0178218
0.00958934
0.0176893
0.034286
3.37829e-17
9.65887e-06
5.12729e-18
1.13869e-19
0.0107374
2.74453e-17
3.12156e-06
0.000255365
0.00629029
0.000240388
9.60166e-11
0.00242425
1.07957e-18
1.70209e-10
9.77265e-10
9.31655e-05
0.00123597
0.0134822
6.58584e-08
9.361e-16
0.0311668
6.79978e-16
1.65443e-16
2.96288e-05
0.0745224
1.01226e-07
2.06573e-17
1.38725e-18
6.05003e-07
1.11368e-16
2.02253e-15
1.01533e-05
1.6102e-15
3.13807e-15
0.0419848
0.000141427
0.000105979
0.0234507
0.00717319
7.01776e-17
4.16173e-18
3.647e-06
0.00419969
1.02624e-16
1.89717e-15
0.011239
4.76499e-17
3.33541e-14
2.07282e-15
2.76405e-16
5.46012e-13
2.52182
6.8611e-18
0.000184193
4.7766e-17
0.0153373
6.73438e-18
3.30644e-12
4.45724e-16
3.86652e-16
9.46911e-18
8.55998e-17
0.00336488
6.71481e-18
6.4028e-17
6.57669e-16
3.87795e-17
3.51016e-19
2.49419e-17
0.00996611
5.11614e-17
0.0110315
0.00233837
5.94026e-17
0.00172869
1.34781e-16
0.000399428
1.49799e-06
0.0040685
0.0141739
2.72152e-16
8.95532e-05
0.00934119
4.49906e-06
2.53324e-19
1.081e-06
0.0169639
0.00476185
6.49746e-16
0.0267099
1.0859e-15
5.10694e-18
2.56107e-16
3.11027e-17
0.00827122
5.94185e-17
9.05399e-18
0.00805375
1.09268e-07
0.00278492
3.3339e-19
8.31207e-14
0.000675495
3.86759e-18
0.000147176
1.7709e-15
0.0217456
1.84794e-16
2.76287e-16
5.54212e-05
1.21972e-16
0.000101602
1.921e-16
1.41132e-16
0.00534813
0.00039064
0.0048887
0.0174772
0.217515
0.0197363
5.188e-17
1.58701e-15
0.00237036
0.00669168
0.0351846
0.0133367
4.24133e-17
0.0112845
4.6221e-17
1.53288e-16
0.0076363
0.00957969
1.57804e-16
0.0124303
4.33701e-18
0.0028401
0.00827085
5.07806e-16
1.33576e-17
1.32177e-17
0.00232429
4.50107e-18
3.76688e-17
0.00354835
0.0199305
3.99191e-06
0.0076728
9.48911e-18
2.1126e-17
5.47885e-05
0.000657068
4.51236e-18
0.00923835
3.82175e-15
0.00243345
9.6409e-17
3.37318e-17
0.011119
3.88919e-17
4.50462e-05
0.00296592
8.62023e-16
1.87718e-17
0.00365099
2.47176e-11
0.0539263
1.31743e-16
0.285263
3.98969e-17
2.75455e-14
1.8022e-14
0.00642494
7.2236e-15
6.22857e-16
0.00501204
4.29594e-16
0.000161934
1.05357e-15
5.14069e-16
3.16008e-16
1.56807e-07
0.000774785
1.51574e-17
7.53968e-17
0.0359733
0.000941676
1.88094e-16
0.000596391
6.91595e-17
1.29167e-16
1.20651e-06
0.00369042
0.00117278
3.34427e-16
4.08098e-18
2.17092e-17
6.39288e-19
3.24295e-16
1.1286e-16
2.03864e-17
3.47246e-17
7.003e-17
2.18731e-16
8.40845e-18
9.94845e-17
1.69736e-17
2.77365e-17
1.20278e-16
9.75129e-16
2.72504e-16
1.39558e-16
3.7975e-17
7.71784e-18
2.82348e-18
0.0183531
7.11472e-17
4.26768e-17
1.5409e-18
0.00619312
2.35133e-19
2.09288e-17
0.194609
2.73127e-16
1.4544e-16
0.0219043
3.62931e-12
6.63362e-17
0.00437501
0.0232774
5.67226e-19
0.00127688
0.00216966
1.93472e-16
0.0111037
0.0373778
0.0165164
0.00287548
0.00975802
2.71448e-16
7.75333e-17
0.00275198
0.0101758
0.00268512
2.69627e-17
0.00559421
0.00135189
0.018643
0.0106987
0.000640601
0.0135935
0.00106904
0.00843946
1.1921e-17
0.0265824
0.0075619
0.0018193
0.00117479
8.04106e-18
1.73646e-17
3.06357e-17
1.71668e-17
1.85582e-17
0.00874197
0.0121987
7.70123e-18
6.75117e-18
1.60406e-15
4.65007e-16
6.14865e-16
1.5865e-15
2.75416e-16
3.71908e-17
0.00410367
8.71606e-05
0.0194783
4.90905e-05
7.69961e-19
5.42959e-15
0.0331423
2.84286e-06
4.87054e-17
1.57091e-16
0.0070074
7.9623e-18
5.80171e-17
3.63732e-06
0.00701419
0.0122327
0.0293481
0.0270251
2.48058e-16
0.0139843
0.000261302
1.21044e-14
5.69346e-16
0.0102035
8.48046e-17
1.51273e-16
0.0277062
0.993745
0.000149383
3.79338e-15
2.20805e-18
0.015713
0.0222171
0.0162119
0.00576772
0.0019878
2.84633e-17
6.81794e-07
2.27919e-09
3.89592e-17
2.74339e-16
0.0169786
1.87401e-16
0.00193972
0.0258628
0.0155108
0.0119746
3.66625e-17
0.00523429
1.33559e-17
2.31017e-16
1.42539e-17
2.85617e-17
0.00251027
0.710124
1.11957e-16
1.69139e-16
4.31155e-06
0.0224806
0.000465689
0.00616963
0.0312103
0.00456416
0.0197032
1.32824e-15
5.97593e-16
1.29026e-16
0.0306412
0.00511019
2.71789e-08
3.41572e-15
4.0882e-17
1.79358e-14
0.0186912
0.00268981
9.23249e-18
0.00432073
0.0450089
0.00817617
0.00544162
2.78604e-16
2.8821e-14
0.00613231
0.0214965
1.62737e-17
0.000238272
0.0120338
0.000856555
0.0088503
0.00411456
0.00747953
1.42735e-14
0.0034651
0.0186899
0.036484
1.27534e-09
0.0230107
5.63618e-15
0.0159221
0.000146734
9.54273e-19
0.00249494
0.00634631
0.000312495
0.0106715
2.17819e-07
0.000192046
1.72607e-05
0.0245809
0.00311694
2.00025e-15
0.0377526
0.00105577
6.95531e-16
3.56064e-18
2.55538e-08
4.94819e-06
0.00089869
1.01326
0.0325234
0.00775423
2.5716e-07
0.0371321
1.28821e-15
1.39943e-17
0.00383453
8.82538e-16
0.00230743
0.00615202
0.00180682
0.0044552
1.12988e-16
0.000238295
0.102138
2.74973e-17
0.059629
0.00653083
1.14214e-16
0.00341683
0.000180932
3.03458e-17
2.11848e-09
9.4792e-05
1.34551e-16
6.02135e-17
2.65835e-18
0.00427299
0.00449874
0.0132491
1.44095e-17
0.00560867
0.0296833
1.75837e-16
0.00701953
0.0108707
0.024071
0.00130421
5.48144e-18
0.000617959
0.00894516
0.00916909
0.00780442
0.0369032
0.146401
0.00324531
1.19543e-16
5.94974e-06
0.0502922
1.85799e-17
0.00037498
1.00695e-17
2.4327e-17
5.65746e-18
2.08665e-19
4.41416e-17
0.00265654
2.37894e-17
0.00612894
0.00144119
2.06484e-18
0.00408427
2.63793e-15
0.0139173
3.96185e-16
6.94889e-06
1.95481e-15
0.0206356
0.000111177
1.2649e-06
0.0035746
0.0277697
0.0165603
0.00363897
0.0239632
2.16767e-12
0.0196869
0.0497079
0.00819763
5.28441e-18
0.00118924
0.000357846
0.00479152
0.0113022
0.000756185
5.66717e-17
5.0219e-16
3.23573e-17
0.0040466
2.39873e-16
4.75793e-05
0.000227786
0.000531093
0.000271627
9.24178e-16
1.33768e-16
1.28916e-17
0.00737706
0.0199928
0.00127565
7.32565e-06
0.00185293
0.00613218
0.00196891
0.000719801
0.00628487
0.00530209
0.0023189
6.21042e-16
4.06448e-18
1.93435e-18
0.0138059
0.0102494
4.09398e-16
8.9505e-17
8.67247e-14
0.00707356
0.0186001
1.85714e-16
0.00189181
1.42186e-16
3.8099e-07
0.00525012
0.0740766
8.89949e-17
5.68029e-19
0.00341902
5.64487e-17
8.47794e-05
0.0109761
3.67432e-15
0.00938755
0.0313144
0.0160342
5.49863e-17
0.000661258
2.44244e-16
5.70581e-05
0.0454426
1.70398e-16
2.71876e-17
0.0107295
4.00786e-13
4.13647e-17
3.51394e-05
0.00107345
6.02507e-17
2.43948e-16
1.20499e-14
4.67737e-05
0.00125212
0.00305279
0.020169
0.00947219
2.14777e-16
3.26697e-07
0.000421118
1.30455e-17
8.9024e-19
1.12606e-17
7.25599e-17
4.74991e-15
1.1351e-15
4.32536e-16
2.09458e-16
4.24783e-15
4.82032e-16
1.38265e-09
1.58618e-15
0.000410204
5.01537e-15
8.67573e-05
2.50585e-15
6.33495e-05
5.26081e-14
3.85253e-17
0.0219981
0.0080435
8.88052e-15
0.0866892
1.41953e-09
3.45369e-11
3.52284e-16
0.00104438
9.76645e-14
0.00218688
4.75219e-06
0.000972659
5.82338e-16
6.69539e-16
0.000634185
5.82917e-08
4.56021e-16
2.21743e-17
0.0368889
3.4867e-16
0.0339032
7.68189e-16
1.03175e-17
1.1013e-06
0.0266679
0.00844199
3.63841e-17
0.000400201
2.46159e-15
0.00103098
1.21955e-05
0.00186591
0.000645692
1.19721e-18
0.0190162
0.000760458
0.00479929
9.35111e-17
3.30472e-16
2.30925e-17
0.00525486
0.00398458
0.0440386
3.29325e-18
2.3526e-07
1.73295e-16
2.61015e-16
5.85235e-16
5.56035e-16
0.00237707
0.00156364
0.00236512
0.279355
4.57449e-18
0.0287036
0.0329495
0.0174879
0.00122396
1.12166e-18
0.00544113
0.00326174
0.00476756
8.40187e-07
0.00960618
5.9518e-16
0.00172241
0.000890534
0.0303787
8.03073e-07
0.00241259
1.00686e-15
0.0166082
2.19646e-16
3.11909e-17
0.00142606
7.59237e-18
0.00695386
7.99226e-18
1.18981e-15
3.90752e-16
3.09449e-16
1.20048e-17
0.000590993
1.39609e-15
0.000599313
6.34818e-16
1.98022e-17
0.0187875
0.00593154
0.00725158
0.00808603
3.93969e-19
0.555038
1.61101e-17
0.0666806
3.47492e-15
0.0185503
0.0180541
0.00183458
0.0533708
7.31736e-15
2.04827e-14
5.68302e-16
0.00205777
1.32514e-17
5.14392e-17
0.0167604
2.23621e-16
1.18773e-16
0.00404119
1.47526e-15
0.0125709
1.10883e-07
5.26492e-16
1.98225e-15
7.81835e-15
0.00142983
0.00574886
2.24917e-16
0.0207018
0.00024239
5.89024e-16
0.0942327
7.08439e-17
0.0153811
0.0170189
0.00295956
1.21847e-16
0.0154893
0.00824227
0.00059851
0.00410348
0.0110821
9.1814e-16
6.11404e-16
1.49265e-06
1.01709e-15
2.92812e-17
2.56912e-17
0.0182905
0.0359092
0.00400459
0.00175295
1.3308e-16
0.0416406
0.0429962
0.00365536
0.00300135
0.00796215
0.0200891
0.00204079
6.95145e-17
5.57669e-17
1.31942e-16
0.00504771
5.2288e-18
0.0241642
3.62781e-15
0.000630948
2.93804e-07
0.0023853
0.0208675
5.14209e-17
3.81258e-17
0.00197915
0.000278624
3.84283e-17
7.51039e-18
3.31324e-19
2.69515e-05
0.000257936
0.000105889
0.000634768
0.00876498
0.0836699
1.48363e-15
2.13131e-16
8.42015e-16
0.00354709
0.018831
0.0186766
0.0310378
0.00191482
0.00211211
6.6084e-16
4.18844e-17
3.21828e-13
1.84564e-16
0.0093458
0.0190711
4.20588e-17
1.05679e-15
7.08644e-16
7.55426e-17
1.71917e-18
8.11132e-15
0.0109361
6.64192e-16
0.00108394
0.291398
2.39966e-17
1.55211e-05
0.0208928
0.000617013
6.53984e-18
2.75463e-15
0.00368112
1.35885e-16
0.0116061
1.46237e-06
0.021817
2.03014e-15
1.62656e-12
5.67743e-17
4.67208e-17
2.13556e-16
5.3931e-15
0.173136
4.29963e-16
0.00440858
0.00105913
3.08052e-16
1.87953e-16
0.00146314
6.0104e-17
4.32814e-17
0.014193
5.01288e-05
1.01336e-15
3.02055e-15
2.01761e-16
0.014801
1.74007e-17
5.47806e-18
0.000242042
0.0019682
0.00224788
8.55677e-16
1.95455e-17
8.2818e-17
0.00295164
0.00140567
0.010356
0.00295161
4.31446e-17
0.000685066
0.0123627
0.00582481
1.95022e-18
1.46727e-17
4.14161e-17
1.09084e-17
7.34774e-18
0.0282005
0.00716866
0.00425994
2.47115e-18
7.1396e-17
1.2677e-17
5.29938e-17
9.94084e-17
6.34931e-07
0.000291461
0.00230065
2.50822e-16
5.05779e-17
7.05352e-18
3.85197e-09
0.0275223
0.0947467
5.03937e-18
5.92381e-11
3.37442e-13
8.23818e-16
3.2008e-17
0.00326698
0.00676571
2.28294e-16
4.12098e-15
0.0024368
6.70195e-17
0.00068347
0.00115127
2.00875
1.02777e-16
4.09422e-16
0.0119869
0.000361507
1.55269e-16
0.634408
0.000510068
0.00672581
1.42803e-15
7.99288e-17
1.84669e-17
2.21833e-16
0.00695918
9.02802e-05
1.23919e-16
0.0217272
0.015974
0.838323
3.87756e-16
9.82466e-18
1.41738e-16
4.05287e-16
0.00536006
2.82169e-08
2.38855e-16
3.12566e-15
0.0167564
0.00106244
0.00481315
2.95392e-16
3.41843e-18
0.025617
5.11881e-17
1.6157e-16
2.3377e-16
2.77391e-16
0.0227164
4.04119e-15
3.11152e-17
1.38798e-17
0.0228706
0.0126241
3.74365e-17
5.15979e-17
2.29951e-16
0.0133806
7.42177e-08
4.7169e-16
2.62079e-16
7.66328e-18
9.70263e-18
0.00217446
0.00864557
1.68311e-18
0.00205626
0.000863737
0.00392941
4.18635e-17
1.0985e-17
4.39656e-16
5.09115e-18
1.6302e-17
0.0214004
1.55113e-15
0.0155204
1.3175e-15
0.00115227
5.09036e-14
0.00169921
3.98588e-16
3.50046e-18
0.0101952
0.261316
1.82947e-15
0.00259117
3.6082e-17
0.000285558
7.68841e-15
4.23806e-16
9.45764e-16
1.66407e-07
5.18127e-16
0.00035848
8.8476e-17
0.0335116
1.08288e-17
7.46844e-16
1.58031e-17
2.2248e-16
7.12865e-06
0.00011106
2.46803e-17
0.00376384
2.21824e-19
0.00351899
0.0195674
0.00089009
3.87418e-19
2.97919e-06
0.000305642
1.37539e-06
0.00490693
4.97068e-07
0.00119423
1.73603e-16
3.59049e-17
3.27096e-07
0.00471551
0.000168952
3.01289e-16
2.40525e-16
3.561e-16
0.431073
1.37141e-17
1.91686e-16
9.4975e-18
4.46157e-17
6.23295e-18
8.54132e-05
0.000121564
0.00075317
5.21894e-05
6.67904e-13
0.000912358
7.77455e-18
0.00632649
7.1275e-16
1.86216e-18
1.00047e-17
1.94388e-15
2.40043e-05
7.85203e-17
3.53363e-19
6.65793e-16
0.0145149
1.50936e-15
1.99739e-17
0.010619
6.61163e-16
0.0364015
0.0654459
0.384779
1.57868e-16
0.20477
1.27517
1.8062
0.668873
2.34636e-16
1.58088e-17
0.00473532
0.0052356
1.29939e-16
0.00294858
8.75033e-17
0.0310681
3.44419e-15
1.57952e-16
0.000470076
1.28261e-15
2.30515e-17
6.79783e-06
2.79168e-05
5.07073e-19
1.17858e-17
1.33056e-06
1.91544e-14
8.98712e-17
2.01699e-05
0.0073803
0.00113043
2.90258e-15
0.0060541
1.00089e-16
0.00337889
3.82794e-07
0.00511566
1.04401e-16
1.13632e-09
0.00465592
1.6242e-14
2.06617e-10
1.50611e-16
0.031762
1.5266e-15
0.0101937
2.22389e-15
9.44528e-08
3.7815e-16
1.63754e-16
5.53168e-19
7.0288e-11
7.85323e-10
1.0167e-17
0.0119449
0.00671576
3.24549e-18
2.81575e-15
0.032723
0.0177072
0.17381
2.37604e-18
4.71804e-05
0.0240779
0.0455873
2.94816e-09
2.32224e-18
0.0647404
1.88182e-17
0.213404
2.69022e-17
1.08455e-08
6.75725e-09
4.72424e-16
3.72856e-05
1.05171e-15
0.0198616
9.26151e-18
1.08094e-15
1.68216e-17
2.0119e-16
1.0369e-16
6.22954e-17
0.000365974
0.0014775
0.137654
8.40177e-16
1.0327e-15
0.0407824
7.15462e-16
4.14991e-19
3.93812e-16
9.26183e-18
9.64037e-17
0.00497293
7.14158e-17
1.41847e-17
4.88581e-19
0.00278176
2.20415e-16
4.26795e-17
7.53313e-16
0.00270469
1.12022e-17
0.00512908
0.196024
0.00381025
0.0044915
0.0226617
2.70712e-15
3.23905e-16
2.26307e-16
0.00255634
0.00167145
7.27234e-17
2.25956e-14
0.000484405
3.45103e-17
8.50734e-17
0.311819
9.05854e-16
0.0215625
4.8239e-16
0.00205903
0.00365689
2.96597e-15
2.86512e-17
1.38448e-16
1.79585e-17
4.62288e-17
0.0200147
1.06637e-15
0.00382164
9.49682e-16
5.09572e-16
0.0056879
1.09254e-18
0.0137777
4.67578e-16
1.91219e-17
0.00220338
7.76981e-05
0.123553
1.40778e-16
2.10525e-17
1.19802e-15
0.00357532
0.170916
1.07741e-15
7.61413e-17
2.05472e-15
0.00124635
7.37559e-16
0.0212819
0.0233664
2.96452e-16
1.24656e-16
0.00583164
2.53717e-17
8.03032e-15
8.85346e-18
8.48424e-17
1.10727e-18
0.0601957
2.53293e-13
2.17065e-16
5.59521e-18
1.60606e-16
2.86685e-15
2.04564e-15
1.61858e-15
1.28385e-15
3.64402e-15
0.00753463
2.00021e-16
0.0067478
1.32982e-14
3.32831e-16
0.542197
0.00216222
2.41099e-17
1.03806e-15
1.62569e-16
0.00193527
7.87706e-17
5.25635e-17
4.18079e-15
5.40415e-16
0.00573853
6.08526e-16
0.00292336
5.49728e-19
0.0100132
1.51264e-15
0.0551606
8.56751e-16
3.0747e-17
0.0170829
2.79697e-15
4.01474e-16
0.0259867
0.000268884
2.66436e-18
4.14015e-20
0.0385698
0.0118496
0.00527018
0.000651098
0.00145249
0.0156289
0.000769519
0.00543518
4.56762e-16
0.019931
8.23604e-15
2.27987e-15
3.05034e-17
5.83934e-16
3.4299e-16
0.00827609
1.97333e-16
5.3935e-18
4.17145e-18
5.09942e-07
1.41949e-05
5.48545e-15
0.00280784
3.45327e-17
0.00408373
1.882e-16
6.99267e-07
0.00311346
2.02824e-13
0.0398788
5.7603e-16
4.80154e-16
2.43297e-16
0.00235947
0.00142171
6.89934e-17
2.6208e-17
0.00201522
3.7145e-18
0.622565
1.1771e-16
0.0800637
1.33423e-16
2.54442e-17
2.25913e-18
1.01024e-16
0.00835815
6.77944e-17
6.06634e-05
3.33997e-18
0.00933314
6.24748e-16
2.08082e-16
7.37921e-12
4.30863e-13
5.12098e-17
2.50378e-16
1.34251e-16
8.51796e-18
0.00435399
0.227742
1.68702e-14
2.73563e-17
0.000395478
1.85084e-17
1.99771e-17
1.84199e-06
0.0165707
0.000170292
4.08151e-16
0.000546189
0.00367752
0.00442689
0.00842221
3.40971e-17
5.01307e-18
2.7978e-18
8.8257e-18
3.86086e-18
1.51079e-16
1.29555e-15
1.04121e-15
2.58119e-16
6.06865e-16
2.29664e-16
3.66665e-17
0.0707332
1.30576e-17
8.59209e-17
3.91409e-09
1.88448e-17
1.66299e-16
1.05495
2.81943e-17
2.27827e-17
0.00139674
2.39833e-10
1.63587e-15
7.23998e-19
2.30842e-18
0.0207049
6.7998e-19
3.1251e-16
3.47687e-08
1.92758e-18
4.97414e-16
2.59958e-17
5.0173e-17
0.101358
1.52552e-17
0.000249408
1.84626e-17
3.10098e-17
1.26316e-16
4.80153e-16
3.08031e-16
4.37497e-08
6.42278e-08
0.000126738
3.0521e-18
6.08606e-17
8.93659e-17
1.13517e-07
1.95049e-16
2.44912e-07
3.21457e-08
7.92281e-17
8.05796e-16
9.40038e-15
1.31192e-08
4.48016e-16
3.91628e-17
1.15967e-09
2.92641e-15
0.030255
1.45091e-17
0.00546132
1.71123e-15
1.74851e-06
3.03989e-17
0.00156122
1.77095e-17
0.00448593
0.0193372
5.40374e-16
0.00264388
8.9815e-06
1.96128e-16
0.00819842
1.85787e-16
4.40733e-17
8.52217e-16
7.62989e-16
4.56202e-15
2.14172e-17
1.076e-15
5.53514e-17
0.239417
5.09868e-16
4.35261e-16
1.05571e-18
5.43561e-17
4.27058e-16
0.029308
0.779289
1.94119e-06
1.66276e-05
3.30523e-16
0.00156621
0.00104564
2.64422e-16
5.26263e-16
2.10084e-16
1.38094e-15
8.90129e-16
5.74205e-16
4.51997e-15
1.71083e-15
0.000412109
9.34176e-16
4.95906e-18
9.50704e-05
1.53568e-06
3.65049e-17
0.0263796
2.4898e-15
4.79113e-16
6.2221e-17
0.165455
1.93444e-17
1.47708e-17
0.0215707
7.83638e-18
7.10713e-19
3.30021e-16
5.07716e-18
0.0481494
1.94207e-17
2.50231e-16
1.86198e-16
8.17701e-17
0.00645852
0.230607
0.0268432
0.0452013
0.00265958
0.00015391
1.61364e-17
4.39809e-16
0.105658
0.00156931
1.63218e-15
4.68395e-08
4.81247e-17
1.58938e-09
5.0909e-16
0.210761
2.59013e-17
5.32957e-17
0.000165526
5.67623e-11
4.96322e-16
0.0116504
7.62819e-17
5.6571e-17
0.202162
0.027873
1.32132e-17
3.21694e-18
6.37187e-16
7.42702e-18
4.01317e-16
3.6458e-14
1.58489e-17
3.90373e-17
0.00344198
8.76678e-18
2.94836e-17
4.58026e-17
1.00945e-05
1.24995e-16
1.11375e-14
1.35975e-17
2.24971e-17
9.3382e-17
4.72981e-16
0.00241986
1.32198e-17
3.492e-17
0.00419053
9.38261e-17
0.000416445
0.00510259
1.90208e-16
0.0027696
1.10208e-16
1.27977e-15
2.45654e-17
3.61511e-16
3.69912e-17
5.24463e-17
1.10691e-17
6.05114e-19
0.00183625
2.25286e-17
3.28773e-17
7.85944e-18
2.76088e-16
3.50208e-17
1.52888e-15
0.0402688
3.7011e-17
7.79309e-18
0.324256
4.9398e-17
1.14353e-18
1.46437e-19
0.000955756
2.07849e-16
3.15637e-06
1.16361e-15
5.07137e-05
0.00854531
2.18427e-17
1.90194e-15
0.0375706
1.67555e-15
1.66807e-16
8.76533e-05
3.74225e-07
0.0097085
1.30148e-06
3.82599e-07
7.64513e-08
3.47291e-19
3.93346e-16
0.000742147
0.000217795
0.020618
0.010648
3.55241e-05
1.96304e-17
0.00536721
0.00412474
0.0159512
4.47217e-19
0.0108055
0.015752
0.00239612
0.00111612
0.000409346
0.00452059
0.0180393
0.0356762
0.00748407
0.0109578
0.0071685
7.0587e-15
0.00254613
0.00341486
0.000571678
0.003098
0.0135607
0.0121441
0.0204293
8.30451e-15
0.00731652
2.38979e-14
0.00443053
0.00231876