/*--------------------------------*- C++ -*----------------------------------*\
  =========                 |
  \\      /  F ield         | OpenFOAM: The Open Source CFD Toolbox
   \\    /   O peration     | Website:  https://openfoam.org
    \\  /    A nd           | Version:  10
     \\/     M anipulation  |
\*---------------------------------------------------------------------------*/
FoamFile
{
    format      ascii;
    class       volVectorField;
    location    "53";
    object      U;
}
// * * * * * * * * * * * * * * * * * * * * * * * * * * * * * * * * * * * * * //

dimensions      [0 1 -1 0 0 0 0];

internalField   nonuniform List<vector> 
111485
(
(0.200098 -0.200237 0.000382017)
(0.567966 -0.0014182 -0.00374444)
(0.561678 0.00130014 0.001754)
(0.200482 -0.200535 9.02297e-06)
(0.584001 0.00262169 -0.000172805)
(0.199422 0.19938 3.94597e-05)
(0.57382 0.00143018 0.000309073)
(0.58851 -0.00139554 0.000868874)
(0.574397 -0.000357244 0.000385328)
(0.586128 -0.00600638 -0.00250748)
(0.565138 0.00134123 0.00161988)
(0.591924 -0.00115839 0.00283498)
(0.556665 0.000190955 0.00119221)
(0.561141 -0.00147129 -0.0037885)
(0.570247 0.00217797 0.00118637)
(0.580547 -0.00347989 -0.00218048)
(0.572355 -0.000559627 0.000670136)
(0.205444 -0.0240508 0.0333383)
(0.585413 0.0015368 -0.0013371)
(0.197959 -0.197627 -4.38062e-05)
(0.198484 -0.198475 -0.000279599)
(0.2001 0.200029 9.54096e-06)
(0.578815 0.00142805 -0.00030018)
(0.586896 -0.00385036 -0.00112082)
(0.576125 0.00279597 -0.000982486)
(0.201852 -0.201065 -0.000300114)
(0.594146 -0.00252225 0.00316425)
(0.562565 -0.000953989 1.5905e-05)
(0.586637 0.00078406 -0.00151403)
(0.199436 -0.199496 2.53264e-06)
(0.591215 0.0109417 -0.00302893)
(0.583866 -0.00106684 0.000181005)
(0.198126 -0.198603 0.000328389)
(0.199753 0.200124 -0.00050464)
(0.200782 0.0820208 0.0345228)
(0.200691 0.201823 -0.00281336)
(0.588802 0.0106156 -0.00437746)
(0.569592 0.000829327 0.00506103)
(0.581512 0.174255 0.0113065)
(0.58401 0.00302559 0.000410691)
(0.196574 0.198198 -0.00139471)
(0.590896 0.000546104 -0.00360547)
(0.583174 0.00318731 0.00114837)
(0.562581 -0.00436074 -0.000865629)
(0.589526 -0.0107637 -0.0052457)
(0.199677 -0.198553 0.00122413)
(0.590741 -0.00258343 0.00286285)
(0.586072 -0.00353932 -0.0010271)
(0.590822 0.000109583 -0.00275541)
(0.199138 -0.19693 0.00120005)
(0.197755 -0.195891 0.00126381)
(0.228037 0.191105 0.00311943)
(0.197019 -0.196415 0.000673931)
(0.590699 0.00263059 -0.00537175)
(0.196666 -0.195746 0.000169309)
(0.583412 0.00149941 -0.000608637)
(0.583094 -0.00256616 -0.00105709)
(0.200069 0.199793 4.24235e-05)
(0.531241 -0.00120671 -0.0094094)
(0.586221 0.00240793 -0.000327914)
(0.585961 0.00271364 -0.000222133)
(0.199653 -0.199984 0.000246996)
(0.542315 0.000579063 0.00362755)
(0.593637 -0.00121789 0.00457164)
(0.206086 0.18629 0.000181379)
(0.535867 0.00100596 -0.00135305)
(0.411083 -0.0374217 0.0142522)
(0.587748 -0.00184724 0.00101953)
(0.52888 0.000331933 0.00180319)
(0.499536 -0.00112139 0.000254774)
(0.565776 0.00435685 -0.00352953)
(0.523839 -0.00104476 0.00190025)
(0.214905 -0.194267 -0.00421397)
(0.536237 0.00105418 0.00423825)
(0.199885 -0.199761 7.58139e-05)
(0.58518 -0.00117278 0.00058554)
(0.200003 0.200067 -5.51045e-05)
(0.591029 -0.00122838 0.00314607)
(0.199865 0.19978 -4.90557e-05)
(0.178214 0.173523 -0.0064707)
(0.568495 -0.00881436 0.00591613)
(0.585731 0.00212705 0.000486636)
(0.198946 0.198547 -2.14463e-06)
(0.199828 -0.19979 9.28048e-05)
(0.552877 -0.000145157 0.0010406)
(0.530869 0.00144313 -0.00227196)
(0.453213 0.288797 -0.0804231)
(0.582546 0.00726741 0.000636065)
(0.560462 0.0149883 0.0136701)
(0.567352 0.000870374 0.00165958)
(0.599006 0.0110092 -0.00729446)
(0.584785 -0.000984956 0.0010427)
(0.545892 -0.000991645 0.00195635)
(0.554949 -0.000557451 0.000552075)
(0.591869 0.00171042 -0.00376183)
(0.199881 -0.199861 1.93617e-05)
(0.199184 -0.199057 0.000142713)
(0.582345 0.00677836 0.00202874)
(0.608987 -0.126344 0.00379412)
(0.549748 0.00534266 -0.00164352)
(0.199822 -0.199829 0.00010829)
(0.585179 -0.00319524 0.000493832)
(0.200924 0.201225 0.00109941)
(0.580097 2.21867e-05 -0.000310455)
(0.573662 -0.00258405 -0.0032625)
(0.196493 0.174402 -0.00440569)
(0.200198 0.200099 -6.89405e-05)
(0.584128 -0.00131928 -5.85776e-05)
(0.540241 -0.0030246 0.000414399)
(0.518136 -0.0152953 -0.0165524)
(0.553263 -0.000408318 0.00122353)
(0.579964 0.000846294 -0.000241782)
(0.541505 -0.000441275 0.00197226)
(0.53232 -0.00326481 0.000931487)
(0.201788 -0.200745 3.17886e-05)
(0.510894 -0.000471104 0.00148189)
(0.200955 -0.20036 -0.000263433)
(0.20082 0.199604 0.00116241)
(0.570684 0.00215914 0.00164952)
(0.200388 -0.200259 6.06185e-05)
(0.202 -0.201009 -0.000107267)
(0.264542 0.207206 0.0129391)
(0.197212 0.198144 -0.000383216)
(0.199959 0.199459 -0.000716835)
(0.55795 -0.00135365 0.00239968)
(0.160358 -0.114503 -0.0293258)
(0.252355 0.215884 0.00846825)
(0.516086 -0.00017828 0.00248493)
(0.200135 -0.20004 -8.21085e-05)
(0.585467 0.0419681 -0.0153995)
(0.587243 0.0126744 -0.0067942)
(0.581333 0.00696667 0.00200238)
(0.198972 -0.198497 -0.00113845)
(0.258839 0.224546 0.0235785)
(0.241185 0.214632 0.010748)
(0.586546 0.00167438 -0.00143737)
(0.200325 0.200263 -8.74598e-05)
(0.58176 0.00135811 3.34383e-05)
(0.578003 0.00266225 0.00170862)
(0.568103 0.00259553 0.00258506)
(0.442447 -1.16033e-06 0.00187979)
(0.58233 0.00324205 0.000715534)
(0.577414 0.00297946 0.00194502)
(0.551142 0.00054272 -0.00227379)
(0.577497 -0.000956333 -0.000465176)
(0.569312 -0.000538249 0.00142696)
(0.200424 0.200444 -3.22271e-05)
(0.200037 -0.200071 1.18847e-05)
(0.199729 0.199949 0.000471299)
(0.583603 0.0026833 0.000493977)
(0.55167 0.000919605 -0.00199965)
(0.19853 -0.198487 0.000115068)
(0.375713 -0.00220062 0.00372294)
(0.56921 0.00288842 0.00180403)
(0.624223 0.0245323 0.0105847)
(0.586557 0.00167288 -0.00125007)
(0.584127 0.0018292 -0.000574001)
(0.540807 0.00012454 -0.00129976)
(0.626022 0.0339736 0.00584719)
(0.198831 -0.200839 0.00104355)
(0.199923 -0.200087 0.000237908)
(0.58582 0.00157982 -0.00128374)
(0.573366 -0.00190653 -0.00190597)
(0.630256 0.0343636 0.00645668)
(0.620986 0.0311828 0.00838985)
(0.541497 0.000394159 0.00279533)
(0.584105 0.00688576 -0.00265515)
(0.196875 0.198965 -0.000242835)
(0.638779 0.0419567 0.00903273)
(0.608873 0.0311722 0.00881292)
(0.200026 0.200158 5.19812e-05)
(0.199609 -0.199665 9.59816e-06)
(0.465948 0.000487541 -0.00383384)
(0.200296 0.200388 2.75233e-05)
(0.581556 -0.00105405 -0.000203945)
(0.559979 0.000337307 -0.000976629)
(0.199888 0.194934 -0.00120744)
(0.215551 -0.198763 0.00200564)
(0.198871 -0.197872 -0.000448792)
(0.197241 0.185854 -0.00191764)
(0.216578 -0.20023 0.00318981)
(0.199821 -0.199953 0.000198626)
(0.582037 0.00213256 0.000677572)
(0.58355 0.00143554 -0.00120136)
(0.581292 0.0016021 -0.000752729)
(0.572327 -0.00221775 0.00230645)
(0.552072 -0.00172698 0.000300866)
(0.554223 0.000871919 0.00180745)
(0.494711 0.00635375 0.000781886)
(0.199304 -0.198536 4.90308e-05)
(0.53563 7.79557e-05 0.000778005)
(0.215035 -0.200324 0.00193104)
(0.201308 -0.201491 -3.88724e-05)
(0.558829 0.000914321 0.00189298)
(0.586381 -0.00672976 -0.00238054)
(0.582364 0.000984457 -0.00292361)
(0.559257 -0.000671189 0.000494014)
(0.569315 0.000208381 0.000280801)
(0.199355 -0.199036 0.000483616)
(0.558785 -0.00265383 0.000699017)
(0.55618 -0.000469416 -0.00309841)
(0.38503 0.119427 0.0152975)
(0.570104 -0.00486024 4.48649e-05)
(0.57915 -0.000853775 0.000479961)
(0.200418 -0.199165 -0.00050539)
(0.556286 0.00126406 0.0020168)
(0.584709 0.00128036 -5.28702e-05)
(0.21856 -0.198444 0.000657411)
(0.561457 0.00114525 0.00259464)
(0.589695 -0.000498883 0.00317868)
(0.551094 0.00062734 -0.00230826)
(0.554487 0.00141642 0.00255999)
(0.216374 -0.200792 0.002514)
(0.198888 -0.198963 -2.38656e-05)
(0.554253 0.00149817 0.00285231)
(0.36028 0.224032 -0.0210418)
(0.595753 0.00246926 -0.00615533)
(0.199881 0.199936 -0.000145588)
(0.55797 0.00110733 0.00233645)
(0.559292 0.000281683 0.000310298)
(0.592669 -0.00193964 0.00383519)
(0.200119 -0.200078 3.0485e-05)
(0.520612 -0.000415661 0.00134365)
(0.585163 0.00898027 0.00440138)
(0.31912 0.213746 -0.0245126)
(0.200293 0.200356 -0.000146826)
(0.200005 0.200154 5.7746e-05)
(0.597521 -0.00290915 0.00594967)
(0.555408 0.0121919 -0.00332391)
(0.210457 0.176898 -0.00428357)
(0.246126 -0.191882 0.00806374)
(0.560834 0.000506855 0.0010156)
(0.579801 0.000785109 -5.97112e-05)
(0.583178 0.00122318 0.000521074)
(0.206976 0.179396 -0.00551317)
(0.209791 -0.19457 -0.00115218)
(0.562534 0.0071662 -0.00851375)
(0.19987 -0.199806 8.72079e-05)
(0.534238 0.000638362 -0.00288102)
(0.554299 0.000385131 0.00233354)
(0.560655 0.000195829 0.00134306)
(0.561245 0.00108907 0.00143223)
(0.563561 0.000537137 0.00188187)
(0.199301 0.199404 0.000611678)
(0.426346 -0.00086056 -0.0157339)
(0.569478 0.00181694 0.00172809)
(0.198214 0.198815 -3.41391e-05)
(0.200133 0.200215 4.974e-05)
(0.592908 -0.00681885 -0.000347024)
(0.579616 0.00271046 -0.000657031)
(0.204725 0.173265 -0.00562849)
(0.528336 -0.000471443 0.00116852)
(0.568648 0.00161283 0.00147337)
(0.200285 -0.200183 -5.18436e-05)
(0.253944 0.240346 -0.00128194)
(0.584783 0.00622218 -0.0027697)
(0.201122 -0.198606 0.000172378)
(0.221741 -0.159451 -0.0038058)
(0.300875 -0.107246 -0.0107174)
(0.2005 -0.19985 -0.000125709)
(0.572811 -0.000881852 -0.000966617)
(0.556224 -0.00101936 -0.000841362)
(0.579301 0.000835191 -0.00150783)
(0.199978 -0.200056 -3.99978e-05)
(0.572459 0.00162854 0.00138384)
(0.200459 -0.200512 4.59013e-06)
(0.200322 -0.200468 0.000137925)
(0.199169 -0.198303 0.000395221)
(0.395919 0.00179317 -0.00534336)
(0.589881 -0.00261448 0.00319768)
(0.560038 0.00210183 0.00249305)
(0.570769 0.00191792 0.00137787)
(0.5901 -0.0029802 7.05081e-05)
(0.568535 0.00094029 0.00173555)
(0.582358 0.0022088 0.000788555)
(0.586557 0.010651 -0.000998169)
(0.575695 0.000484998 -0.000192668)
(0.580115 0.000923061 -0.000297458)
(0.203842 0.20048 -0.00011822)
(0.199011 -0.199083 -0.000271823)
(0.362812 0.00255826 -0.00776837)
(0.582835 -0.00116155 0.000492254)
(0.587074 0.00479426 0.00499056)
(0.555398 -0.000852578 -0.000828896)
(0.200426 -0.200295 4.72521e-05)
(0.578948 0.00190832 0.00118999)
(0.581434 0.00308906 0.00148039)
(0.570574 0.00123938 0.000770198)
(0.500991 -0.000597309 -0.00234356)
(0.527035 -0.00593247 -0.0133503)
(0.579338 0.0017517 0.000505581)
(0.569289 0.00144987 0.0014322)
(0.580696 0.00539274 -0.00334042)
(0.200001 0.200097 1.01374e-05)
(0.533695 0.00296867 -6.51958e-06)
(0.199879 0.200004 -8.68426e-05)
(0.161192 0.119885 -0.0269034)
(0.226221 -0.145959 -0.0120555)
(0.602001 -0.00583224 0.011136)
(0.590249 -0.00297088 9.78616e-05)
(0.575703 -0.000299173 0.000229275)
(0.20029 -0.199769 -8.13728e-05)
(0.199229 0.20034 0.00172709)
(0.578352 0.00205038 0.0012286)
(0.554248 0.000829267 -0.000704239)
(0.198664 -0.198634 4.85369e-05)
(0.200233 -0.200112 0.000232134)
(0.19541 -0.19655 0.00126683)
(0.549399 0.000655861 -6.40389e-05)
(0.577418 0.000560725 -0.000630322)
(0.550151 -0.000111648 0.0020465)
(0.530515 0.00111167 -0.00211785)
(0.588013 0.00192926 -0.00136945)
(0.229511 0.196897 0.00583625)
(0.199712 0.200193 0.000382831)
(0.19959 -0.199413 -8.39013e-05)
(0.576183 0.00214361 0.0015994)
(0.376878 -0.31871 -0.0153053)
(0.549614 -0.00055314 0.000800722)
(0.59864 -0.00377574 0.0137519)
(0.482921 0.00101286 -0.00973838)
(0.200157 0.200138 -7.6487e-07)
(0.199803 -0.200003 0.000164864)
(0.200386 -0.200496 -8.78669e-05)
(0.253549 0.211934 0.0133914)
(0.583895 0.00189614 -0.00012899)
(0.588412 -0.00293958 0.000555326)
(0.199754 0.200765 5.35139e-05)
(0.58064 0.00150252 -0.00017319)
(0.211858 0.170178 0.0125265)
(0.199682 -0.197291 -0.000303232)
(0.595448 -0.00185116 0.00497388)
(0.578779 0.0019882 0.00106484)
(0.591105 -0.000304797 0.00139673)
(0.580849 0.00156008 -0.00010428)
(0.191864 0.16898 0.0107224)
(0.25103 0.215294 0.0145567)
(0.199381 0.199641 -0.000382764)
(0.579876 0.0019471 0.000766215)
(0.579023 0.00174794 -8.87141e-05)
(0.589866 0.0115438 -0.00434605)
(0.197099 0.196602 0.000380283)
(0.403875 0.353705 -0.0872496)
(0.551158 0.0020628 0.00480156)
(0.589497 -0.0026269 0.00145501)
(0.579607 0.00203917 0.00134688)
(0.549435 0.0558245 -0.00394381)
(0.588044 0.00126383 -0.00174475)
(0.19897 0.198964 0.000117701)
(0.587749 0.00152163 -0.0013897)
(0.565409 0.000716956 0.00120299)
(0.593868 -0.0135223 5.56986e-05)
(0.597343 -0.00356515 0.00753459)
(0.574646 -0.00486215 -0.00419675)
(0.198775 0.199821 -0.0006517)
(0.199229 -0.199677 -0.000439299)
(0.200198 0.198871 0.000770226)
(0.198135 -0.198678 -5.56837e-05)
(0.587792 -0.00244083 0.000287483)
(0.582196 -0.000470957 7.56817e-05)
(0.584008 0.00266666 -0.0024563)
(0.587992 0.00155626 -0.00180976)
(0.198062 0.198239 -0.000851941)
(0.581042 -0.00376238 -0.00170138)
(0.200003 0.200023 6.13044e-05)
(0.199399 -0.199847 6.50887e-06)
(0.587776 0.00188967 -0.0013316)
(0.184395 -0.184466 0.00273)
(0.325805 -0.063502 -0.00353513)
(0.197001 -0.196225 -0.000205977)
(0.200341 0.19666 0.00116487)
(0.582544 0.000655191 -0.000564614)
(0.200041 0.199901 2.1831e-05)
(0.575189 0.00161837 -0.000172274)
(0.547121 0.000418417 -0.0022557)
(0.200588 0.200596 -5.46742e-05)
(0.525681 -0.000202543 -0.00250245)
(0.572854 0.000922065 0.00103325)
(0.201637 0.176186 -0.00653985)
(0.569208 0.00251585 0.00301169)
(0.54092 0.00228537 -0.000567238)
(0.573381 0.00271721 0.000973806)
(0.533665 0.00108188 0.0073808)
(0.578479 0.00155919 0.000489309)
(0.553019 0.000263206 -0.000937597)
(0.198018 0.167948 -0.000832283)
(0.198827 -0.198487 0.00123252)
(0.494683 0.000907391 0.0121944)
(0.198285 0.198926 -0.00117581)
(0.57242 0.00294028 0.00295385)
(0.596109 -0.00327527 0.00587426)
(0.200687 0.191474 0.00175142)
(0.199498 0.200387 -3.29068e-05)
(0.586208 -0.000847684 0.000439124)
(0.563537 -0.00259001 -0.00524323)
(0.566367 0.00291979 0.000295912)
(0.586966 0.00197569 -0.000771602)
(0.199968 0.199611 -7.80829e-05)
(0.597653 -0.000955864 0.0100387)
(0.589329 -0.00202281 0.0030189)
(0.200885 0.200572 2.07203e-06)
(0.576256 0.00953517 0.00784715)
(0.549788 -0.0022874 -0.00627464)
(0.199616 -0.199688 -1.36029e-05)
(0.198946 -0.19896 7.84136e-05)
(0.573981 0.00164733 -0.000512624)
(0.578218 0.00038805 -0.000917265)
(0.200122 0.200048 -0.000310864)
(0.199618 -0.1992 -0.000303614)
(0.345017 -0.18919 0.0417889)
(0.20034 -0.200471 8.14757e-05)
(0.578524 -0.00115798 -0.000198153)
(0.198569 0.199285 0.000422149)
(0.200431 -0.200507 1.02876e-05)
(0.591214 -0.000235675 0.00187848)
(0.536845 -0.00647275 -0.0153679)
(0.584114 -0.00374001 0.000853402)
(0.56544 -0.000205491 0.00100821)
(0.200765 0.200632 2.80861e-05)
(0.260977 0.200054 0.0100552)
(0.565276 0.00786394 0.0118956)
(0.244123 0.214454 0.0122127)
(0.563747 0.00252248 0.0047737)
(0.560223 -0.00490868 0.000166867)
(0.586226 -0.00218979 -0.00174895)
(0.404254 0.00713386 0.0154607)
(0.239602 0.205291 0.0107254)
(0.584097 0.000858021 -0.00561873)
(0.592475 0.0189967 -0.00576479)
(0.199877 -0.200202 0.000261042)
(0.591707 0.00144379 -0.00626203)
(0.592175 -0.00245027 0.0022715)
(0.200044 -0.199982 0.000182669)
(0.574782 0.0326805 -0.0193053)
(0.498403 0.000171501 -0.00644313)
(0.253601 0.198674 0.00801986)
(0.589826 -0.00115508 0.00238982)
(0.582342 0.000785521 -0.000779583)
(0.578465 0.00156203 -0.000405809)
(0.200002 0.199891 -5.61026e-05)
(0.575236 -0.000956185 0.00410929)
(0.592087 4.68614e-05 0.00195096)
(0.573086 0.005675 -0.000582378)
(0.358999 -0.00570564 0.00662499)
(0.244397 0.229863 -0.00503179)
(0.33897 -0.0110343 0.0124289)
(0.199753 -0.200051 0.00018864)
(0.531197 -0.018722 -0.0178725)
(0.575363 -0.00106392 -0.00370294)
(0.200075 0.199981 0.000280934)
(0.548728 0.00129067 -0.0038962)
(0.450146 -0.00104428 0.00887496)
(0.26108 0.229601 -0.00242251)
(0.200057 -0.199932 -3.53113e-05)
(0.23303 -0.199314 0.00631117)
(0.200323 -0.200259 -2.90527e-05)
(0.572681 0.00345042 -0.000412517)
(0.577278 0.00329845 -0.00101718)
(0.573256 -0.00167961 -0.00163412)
(0.538216 0.00114977 -0.00299531)
(0.585869 -0.0114844 -0.00232595)
(0.199812 0.198906 -0.000389735)
(0.568177 -0.000588048 -0.00120785)
(0.200774 -0.199048 -5.47603e-05)
(0.563563 0.00204572 0.00140462)
(0.200792 0.200854 -1.89463e-05)
(0.200165 -0.199999 -2.87867e-05)
(0.1974 -0.197984 -0.000313788)
(0.553635 -0.00392755 0.000447582)
(0.199102 -0.199302 -0.000210631)
(0.199932 -0.200002 2.88745e-05)
(0.197017 0.128798 -0.00861947)
(0.200334 -0.20048 9.38825e-05)
(0.197567 0.200157 0.0018655)
(0.567133 -0.00227217 -0.00124909)
(0.200049 0.199861 -3.14539e-06)
(0.237872 0.174892 0.000447362)
(0.200145 0.200264 0.000285011)
(0.199054 -0.198383 7.68546e-06)
(0.199914 0.199073 -0.000339867)
(0.198845 -0.197787 -0.00105022)
(0.198432 0.198609 1.28431e-05)
(0.515828 -4.7506e-05 -0.00401681)
(0.200191 0.199039 0.000861803)
(0.530312 0.00806319 0.0113242)
(0.580411 0.00137078 -0.000812936)
(0.596502 -0.0240444 -0.00380758)
(0.200814 0.199858 3.59409e-06)
(0.504255 0.00156099 0.00925655)
(0.200261 0.199503 0.000110322)
(0.200405 -0.200501 -8.62184e-05)
(0.569562 -0.00479439 -0.00574839)
(0.570837 -0.00412931 -0.00545838)
(0.574381 -0.00169286 -0.00081475)
(0.600009 0.00111162 -0.0111605)
(0.230746 0.193582 -0.00637477)
(0.587457 0.000683727 -0.00351906)
(0.586984 0.000724629 -0.00318615)
(0.579646 0.00115685 4.76461e-05)
(0.570027 0.000686859 0.00024674)
(0.578786 -0.00588981 -0.00458002)
(0.198628 -0.198703 -0.000127817)
(0.580096 0.00102775 2.36534e-05)
(0.263385 0.227888 -0.00113469)
(0.578577 0.0014057 -0.000732205)
(0.199683 0.199432 -7.05608e-05)
(0.589363 0.00179015 -0.00329739)
(0.260518 0.215794 0.00272266)
(0.581087 0.000359585 -0.000751758)
(0.583256 -0.00300544 0.00197497)
(0.230142 -0.119341 -0.000816886)
(0.199676 0.199855 0.00230146)
(0.570651 0.00107863 0.00112522)
(0.199719 -0.199706 4.63413e-05)
(0.591688 0.00222042 -0.00408313)
(0.587491 0.00238702 -0.00263958)
(0.199863 0.199229 -0.00165249)
(0.199296 0.199312 0.000463807)
(0.195816 0.174139 -0.00406168)
(0.200066 0.200204 7.60129e-05)
(0.40978 -0.0230128 0.00916725)
(0.591966 0.00202039 -0.00390604)
(0.203273 0.198346 -0.000153211)
(0.199551 0.199992 0.000363309)
(0.506087 0.000718521 -0.00110141)
(0.200344 0.200363 2.74175e-05)
(0.582975 0.00167686 -0.0023896)
(0.200204 0.200126 1.49127e-05)
(0.576902 -0.00348392 -0.00162579)
(0.200238 -0.200289 -6.62029e-05)
(0.540605 -0.00248203 -0.00787314)
(0.443971 -0.00196155 0.000507552)
(0.543462 0.00177937 -0.00103906)
(0.581375 0.000662181 -0.000794276)
(0.200417 0.199019 -0.000641121)
(0.524794 0.000693873 -5.13767e-06)
(0.200377 0.199647 0.000190568)
(0.200174 0.200178 -0.000540724)
(0.574341 -0.00129103 -0.000688051)
(0.199809 0.199519 -7.91808e-05)
(0.488888 -2.20343e-05 -0.00485)
(0.192306 0.176423 -0.00612703)
(0.583956 0.00173713 -0.00201709)
(0.198884 -0.199026 6.30387e-06)
(0.588671 0.000731042 -0.00129547)
(0.200562 -0.20036 2.02026e-05)
(0.239374 0.210875 0.00665041)
(0.595399 0.0218389 -0.00215503)
(0.570215 -0.004865 -0.00588891)
(0.580504 0.00237087 -1.24948e-05)
(0.583699 -0.00619786 -0.00403841)
(0.57772 0.0012836 -0.000575319)
(0.58988 -0.00344559 -0.000304379)
(0.197822 0.199279 -0.000902396)
(0.580341 0.00333266 0.00173886)
(0.573033 -0.00550153 -0.00556461)
(0.199988 0.200074 -0.00010006)
(0.488627 -0.00628954 -0.0198795)
(0.593389 -0.00527479 -0.00338914)
(0.569888 0.0025932 0.00223733)
(0.197327 0.194595 -0.00115285)
(0.246641 0.044323 -0.0398472)
(0.557182 0.00141236 0.00183407)
(0.453075 -0.00202391 0.00487539)
(0.467655 0.108994 -0.00448135)
(0.255952 -0.133864 -0.00991)
(0.587997 -0.0057532 -0.00104023)
(0.553267 0.00225009 0.0043534)
(0.569627 -0.00528487 -0.00574716)
(0.5818 -0.00311304 -0.00108367)
(0.571636 0.00321832 0.00140836)
(0.504192 0.063018 -0.00175463)
(0.248763 0.210305 0.00183233)
(0.513729 -0.0224112 0.00620443)
(0.499478 -0.0463889 0.0103626)
(0.199756 -0.199808 0.000135163)
(0.510924 0.00359628 -0.00148714)
(0.201318 0.19744 -0.00105072)
(0.235296 0.213357 0.00201343)
(0.578449 0.000979259 -0.000204401)
(0.508953 0.083162 -0.00155559)
(0.613453 -0.0573921 -0.00799169)
(0.555451 -0.104693 0.000995824)
(0.235121 0.222455 -0.0152852)
(0.586948 -0.0035732 -0.000994439)
(0.579325 0.00322064 0.00262266)
(0.199576 0.199008 -3.96706e-05)
(0.259589 0.142123 -0.00544909)
(0.578845 0.00454526 0.00288665)
(0.200014 -0.19925 0.000169574)
(0.2 0.199891 -4.77886e-05)
(0.199237 0.199149 1.98306e-05)
(0.200463 0.19937 0.000219257)
(0.586331 -0.0057153 -0.00245997)
(0.200172 0.200144 0.000117354)
(0.200312 -0.200516 0.00101267)
(0.576113 -0.00358166 -0.00261529)
(0.531052 0.000259296 -0.00137065)
(0.290298 -0.255212 -0.0137399)
(0.57896 0.00441251 0.00273149)
(0.234261 0.188251 0.00447945)
(0.581379 -0.00201263 -0.00110203)
(0.195643 -0.195349 -0.000637397)
(0.1996 0.20002 -7.12371e-05)
(0.585379 -0.00365761 -0.000846224)
(0.199873 0.198705 -0.0007965)
(0.200297 0.199767 8.46908e-05)
(0.229829 0.219373 0.00664637)
(0.550245 -0.000344866 -0.000440464)
(0.332754 0.277707 -0.0370129)
(0.576811 -0.00229905 -0.000995311)
(0.578147 0.000919953 -0.000218981)
(0.197851 -0.196611 -0.00155193)
(0.599013 -0.00113143 0.0191946)
(0.547278 -0.00316307 -0.00809719)
(0.57499 -4.7318e-05 -0.000479898)
(0.582289 0.0111608 0.00126132)
(0.583476 0.00426911 -0.0120694)
(0.501776 0.000247921 -0.00455062)
(0.199816 0.199502 8.64706e-05)
(0.586575 0.000601166 0.00176778)
(0.582253 0.00239975 -0.000392981)
(0.197849 -0.200443 0.000289645)
(0.540536 -0.000406631 -0.00030139)
(0.586201 0.00364861 -0.000898471)
(0.587536 0.00276335 -0.000993789)
(0.532041 -0.00237657 -0.00520279)
(0.587239 0.0026462 -0.00110335)
(0.587605 0.00324397 -0.000291875)
(0.199878 -0.197237 0.00130758)
(0.588817 -0.00107239 0.00260239)
(0.483894 -0.00362026 -0.00113027)
(0.241713 0.209125 0.0133317)
(0.587326 0.00213356 -0.00154569)
(0.559957 0.000904078 -0.00129334)
(0.323299 0.262342 -0.0402906)
(0.57861 0.000924836 -0.000228681)
(0.587527 0.00188107 -0.00183548)
(0.560245 0.000542331 -0.00215402)
(0.58333 0.00241727 -0.000224729)
(0.57528 0.00638581 0.00259359)
(0.579351 0.000894289 -0.000129167)
(0.195508 0.190845 0.000274083)
(0.582963 0.00274808 -0.000356865)
(0.546081 -0.00345711 -0.00746311)
(0.223441 -0.137311 0.00509133)
(0.580152 0.00537162 0.00355885)
(0.572312 0.00513175 0.00527378)
(0.581038 0.00149492 -4.96936e-05)
(0.19936 0.198897 0.000182963)
(0.562034 0.00345761 -0.00543458)
(0.199859 -0.198719 0.000622558)
(0.200037 0.200031 -0.000195595)
(0.198786 0.197431 -0.000116691)
(0.200596 0.199344 4.10142e-05)
(0.487708 0.000261432 -0.00196591)
(0.238954 0.205911 0.00872257)
(0.448453 -0.0283211 0.0299582)
(0.198504 -0.198726 -5.65652e-05)
(0.199423 0.202054 -0.000407957)
(0.579802 0.00605391 0.00318267)
(0.584666 0.00124924 -0.00254091)
(0.19999 -0.199978 1.67791e-05)
(0.584199 -0.00378385 -0.000161016)
(0.200015 -0.199816 0.000662502)
(0.200254 -0.200102 -4.25349e-05)
(0.196508 -0.196624 0.000584227)
(0.591988 -0.0042639 -0.000458548)
(0.495659 0.0031815 -0.00120609)
(0.237921 0.212547 0.00358536)
(0.199643 -0.197802 0.0008173)
(0.199758 0.20045 -0.000297319)
(0.19956 0.199776 2.72938e-05)
(0.596394 0.00104544 -0.00684277)
(0.579891 0.00103005 -0.000244573)
(0.238022 0.22366 0.0104728)
(0.590553 0.00178786 -0.00335177)
(0.549695 -0.00948924 -0.0227229)
(0.199669 0.199819 -7.20788e-05)
(0.589091 0.00124757 -0.00299593)
(0.538658 0.000240664 0.00290261)
(0.571822 0.00299723 -0.00356015)
(0.200627 0.200556 2.13959e-06)
(0.199339 0.199269 9.71018e-05)
(0.56917 0.00252344 0.00325721)
(0.581781 0.00120778 -0.000295258)
(0.237605 0.215124 0.00348068)
(0.199141 0.199062 6.36224e-05)
(0.201984 0.195462 -0.000587189)
(0.57866 -0.00130248 0.00053637)
(0.199896 -0.199858 -0.000281516)
(0.199022 -0.198294 0.000171135)
(0.198672 0.198631 -4.17419e-05)
(0.588665 0.00171413 -0.00271045)
(0.513922 -0.00267294 0.000578)
(0.200528 0.200545 2.31405e-05)
(0.224165 0.0368313 0.0424189)
(0.249148 -0.0329057 -0.00947826)
(0.567813 0.00311829 7.45385e-05)
(0.19971 0.199998 -7.96152e-05)
(0.200071 0.199726 -0.00016965)
(0.589706 -0.0068455 -0.000956044)
(0.565262 0.0103049 0.00948023)
(0.240868 0.21487 0.0109679)
(0.352739 0.111061 0.00703775)
(0.555763 0.0104554 0.017152)
(0.533419 0.00170801 -0.00357882)
(0.568679 0.00036127 -0.000355271)
(0.206266 0.193453 -0.000425274)
(0.563898 0.00131571 -0.000409542)
(0.585687 -0.00388479 0.00415261)
(0.200372 0.199754 -0.000232767)
(0.198267 -0.194918 0.000301868)
(0.198557 0.198664 3.5199e-05)
(0.199262 0.199205 -4.81247e-05)
(0.200134 0.200525 -0.000279168)
(0.200578 0.200645 -2.56168e-05)
(0.590073 0.00196016 -0.00299583)
(0.200108 -0.200013 0.000106194)
(0.199003 0.199022 2.76451e-05)
(0.198923 0.19623 -0.000229006)
(0.590632 0.00189138 -0.00335321)
(0.581611 0.00122459 -0.000272704)
(0.200813 -0.198167 -5.70558e-05)
(0.197316 -0.195229 0.000440451)
(0.595117 -0.00283406 0.00531338)
(0.565357 6.01587e-05 0.000806545)
(0.564417 0.00025202 0.000880516)
(0.199895 -0.199439 -9.36575e-05)
(0.198987 0.198957 0.000116171)
(0.564901 0.000163855 0.000803888)
(0.200306 -0.200129 2.00749e-05)
(0.559251 0.00145504 0.00021424)
(0.570054 0.00123533 0.0018837)
(0.571795 0.00164855 0.00107742)
(0.19997 -0.198504 0.000479435)
(0.200285 -0.200384 3.82402e-05)
(0.200202 -0.200379 -3.67907e-05)
(0.200239 0.200278 6.29872e-05)
(0.577845 -0.00288137 -0.00149604)
(0.199927 0.200134 6.85014e-05)
(0.198423 0.198646 6.3898e-05)
(0.576707 0.00199869 -0.00296422)
(0.200291 -0.200344 0.000108331)
(0.567689 0.000362033 0.000734791)
(0.513527 -0.00562855 0.00120017)
(0.200973 0.193875 0.00110487)
(0.580634 0.00138436 -0.000223177)
(0.269941 0.0382682 -0.00538451)
(0.57338 0.000424816 0.000457426)
(0.591222 -0.00144495 0.0013495)
(0.522959 0.00204512 0.00104698)
(0.592338 -3.75695e-05 0.00426187)
(0.429945 0.0113657 -0.016057)
(0.239149 0.189988 0.00403063)
(0.572054 5.3979e-06 0.000445021)
(0.594968 0.0042212 -2.75021e-05)
(0.580546 -0.00132183 -0.0004875)
(0.204915 0.177546 -0.00620731)
(0.26819 0.0179129 -0.00804172)
(0.309097 -0.0303878 0.0116894)
(0.572859 0.000569166 0.000236225)
(0.198831 0.199207 0.000245608)
(0.560542 -0.00104781 -0.00384186)
(0.572508 -0.000180151 -0.0010306)
(0.555601 -0.00473597 -0.00884795)
(0.214679 -0.156875 -0.0117558)
(0.200341 -0.200472 8.70318e-05)
(0.2 -0.200002 -4.91928e-06)
(0.582989 -0.00168832 7.41086e-05)
(0.234437 0.193624 -0.00250937)
(0.553535 0.00200964 0.00089395)
(0.217562 0.198069 0.00273713)
(0.549934 -0.00107019 -0.00391741)
(0.567345 -0.00133219 0.000529016)
(0.560489 -0.000826818 0.00150781)
(0.581665 0.00133137 -0.000397799)
(0.199021 0.199009 -5.07091e-05)
(0.198033 0.197417 -0.000447797)
(0.213147 -0.194662 0.0009096)
(0.580297 0.00151652 0.000121592)
(0.200389 0.199793 -1.88089e-05)
(0.231935 0.198638 -0.00904435)
(0.593752 0.0121689 -0.0102252)
(0.200118 0.199809 -0.000160045)
(0.198785 0.199721 0.000701716)
(0.198465 -0.197815 -0.000324471)
(0.200418 0.200476 4.97493e-05)
(0.554234 -0.000161152 0.00157185)
(0.203463 0.193114 0.00032557)
(0.200133 0.199972 8.48777e-05)
(0.464093 0.0618098 -0.0456508)
(0.235521 0.189593 -0.00230031)
(0.197836 0.19823 -0.00186982)
(0.284069 -0.1717 0.0113998)
(0.199861 0.199632 -0.000258502)
(0.455047 0.00225344 -0.00301215)
(0.565765 -0.00103113 0.00103747)
(0.198521 -0.198564 1.35909e-06)
(0.555863 0.000724011 -0.00175149)
(0.553527 0.0889355 -0.00797394)
(0.551542 -0.00529296 -0.00886449)
(0.606049 0.0231787 0.000273056)
(0.546967 0.000422467 -0.000785107)
(0.19991 0.198204 0.000832582)
(0.571854 -0.00532556 -0.00599082)
(0.59241 -0.00132419 0.00123997)
(0.551281 -0.0053642 -0.00885197)
(0.199999 -0.200214 1.09617e-05)
(0.598299 0.152872 0.0385754)
(0.552614 0.00104905 0.00108213)
(0.267611 0.213168 -0.0130423)
(0.548917 -3.47401e-06 0.000642209)
(0.598656 0.00710128 -0.00549498)
(0.572146 0.0115909 0.000426179)
(0.56728 -0.00156573 -0.00197042)
(0.567966 0.00178907 0.000163709)
(0.603293 0.00880534 -0.00298532)
(0.58223 -0.000839231 -0.000762412)
(0.576423 -0.000570227 0.000482949)
(0.198235 0.198999 0.000710158)
(0.198969 0.197885 0.000565341)
(0.556814 0.00149967 0.000937242)
(0.547218 0.00086139 0.000742563)
(0.199533 0.20008 -1.70248e-06)
(0.565094 0.000500625 0.000107696)
(0.590942 -0.00182357 0.0005847)
(0.577312 -0.00114169 0.000418497)
(0.199422 0.197299 -8.65261e-05)
(0.569924 0.0115003 0.00236612)
(0.199226 0.199082 -1.09579e-05)
(0.576804 -0.000597293 0.000434854)
(0.577988 -0.000608963 0.000298701)
(0.199898 0.199798 -2.83055e-05)
(0.552265 0.00306967 -0.0017532)
(0.576398 -0.000349274 -4.69292e-05)
(0.567832 0.0104901 0.00058539)
(0.557711 0.000208347 0.00204022)
(0.204425 0.200447 -0.000332968)
(0.584642 -0.00175268 0.00174381)
(0.569687 0.013046 -7.22144e-05)
(0.60237 -0.0159527 0.00345897)
(0.508086 0.00692178 0.00110932)
(0.45301 0.00143425 -0.00583255)
(0.199833 0.197661 -0.000274549)
(0.199466 0.1993 6.60283e-05)
(0.559892 0.00787354 0.00103081)
(0.200429 0.200426 -9.03671e-05)
(0.487473 -0.00135936 -0.00143505)
(0.562597 -0.00285436 -0.00408962)
(0.339805 0.0440843 -0.0134494)
(0.625483 -0.0423037 0.016789)
(0.552482 -0.0250324 0.00780405)
(0.614338 -0.0235004 0.00583726)
(0.200348 0.200365 -5.86542e-05)
(0.273448 0.232351 0.00156262)
(0.582685 0.00153141 -0.000347051)
(0.199286 -0.200195 -0.000805117)
(0.114281 -0.0814841 0.0313257)
(0.574669 -0.0107307 -0.00810059)
(0.198568 0.198157 -0.000468135)
(0.200459 0.200211 2.40702e-05)
(0.517147 -0.00980461 -0.000104346)
(0.418023 -0.0291349 0.00213834)
(0.200472 0.200502 -3.1179e-05)
(0.517994 -0.0105462 0.00198673)
(0.198522 0.198276 9.03277e-06)
(0.20003 0.200393 -0.000333484)
(0.200059 -0.200037 -5.10264e-05)
(0.200137 -0.199662 0.00047747)
(0.19596 -0.194323 0.000599662)
(0.199488 -0.199077 -4.17639e-06)
(0.520472 0.0047751 -0.00176602)
(0.197576 0.196056 -0.000150085)
(0.199999 0.200131 8.11241e-05)
(0.198319 0.1995 0.000473302)
(0.484866 -0.108437 -0.0279061)
(0.548572 -0.00492976 -0.0107394)
(0.530496 -2.33314e-05 -0.0049028)
(0.5827 0.00147064 -0.000396671)
(0.198599 0.197391 5.55508e-05)
(0.201083 0.200334 1.99859e-05)