/*--------------------------------*- C++ -*----------------------------------*\
  =========                 |
  \\      /  F ield         | OpenFOAM: The Open Source CFD Toolbox
   \\    /   O peration     | Website:  https://openfoam.org
    \\  /    A nd           | Version:  10
     \\/     M anipulation  |
\*---------------------------------------------------------------------------*/
FoamFile
{
    format      ascii;
    class       volScalarField;
    location    "4";
    object      SgP;
}
// * * * * * * * * * * * * * * * * * * * * * * * * * * * * * * * * * * * * * //

dimensions      [1 -1 -3 -1 0 0 0];

internalField   nonuniform List<scalar> 
111485
(
2.66331e-09
2.09167e-08
2.11957e-10
2.67412e-09
7.59772e-10
8.6064e-10
4.31238e-10
7.40047e-09
2.46162e-10
8.59564e-09
5.89785e-10
2.50985e-10
1.53642e-09
0.00519951
8.80935e-11
2.06896e-08
0.00378639
1.83995e-05
9.35444e-11
1.53841e-08
0.000741198
9.71801e-10
2.57032e-10
1.79838e-08
3.54759e-08
2.97148e-09
7.59885e-09
1.1026e-09
7.41241e-10
0.000902438
8.05895e-08
2.35592e-09
7.57944e-09
2.54414e-08
1.35828e-05
1.80354e-06
0.0025472
0.00375713
4.38933e-05
7.43114e-09
0.000722335
2.31671e-09
4.43645e-09
1.77414e-08
3.67963e-07
5.14348e-08
4.98066e-10
7.32245e-09
1.36155e-08
7.02549e-09
1.80052e-08
3.79311e-07
1.97339e-09
6.65388e-08
1.96316e-08
5.01678e-10
5.02634e-09
4.15244e-10
2.29113e-09
6.35141e-09
1.16484e-08
5.41226e-09
2.94452e-08
1.02657e-07
1.2642e-07
3.95029e-09
6.83234e-06
1.1608e-09
2.11264e-08
3.72406e-09
8.82697e-07
1.07444e-08
2.25406e-07
4.32872e-08
5.78604e-09
1.6397e-09
3.04826e-09
4.93764e-10
3.13423e-09
5.35445e-07
0.004946
0.00877737
1.0925e-09
2.34805e-09
4.85976e-10
2.84552e-10
0.00250813
5.92011e-08
4.56833e-06
1.20816e-08
5.04935e-08
2.03134e-09
3.6749e-10
4.51688e-09
5.47274e-10
4.3265e-10
0.000504357
3.00643e-07
3.12678e-05
2.08169e-06
2.51683e-09
2.93024e-10
3.54579e-08
1.14907e-09
8.77159e-09
3.08098e-07
2.00857e-10
6.25626e-09
3.17879e-10
9.04702e-06
7.46122e-11
2.79363e-08
7.86629e-11
1.92678e-10
4.68915e-09
3.98484e-09
5.30159e-10
1.65467e-07
6.91083e-09
3.51206e-09
1.8054e-09
3.34979e-06
0.00125388
4.52771e-08
8.61109e-09
0.000576052
1.96728e-06
3.64059e-09
1.77036e-11
4.82666e-06
2.69027e-06
2.94e-07
0.000884759
3.16831e-06
1.46618e-06
1.12169e-10
3.00431e-09
1.68113e-09
1.11301e-08
2.17523e-08
3.30466e-09
4.40411e-09
0.00317839
9.46169e-10
1.48474e-09
2.19818e-08
1.72817e-09
8.35135e-10
2.01327e-09
3.42932e-10
1.18019e-10
0.000575912
0.00243802
8.69054e-08
3.6535e-07
1.78371e-10
8.07199e-10
3.3203e-08
1.51803e-05
1.09009e-07
7.86312e-10
2.7643e-10
2.85668e-09
1.66673e-06
7.18695e-07
1.51154e-08
3.13503e-08
0.000451761
2.7258e-05
2.00255e-06
3.5885e-11
2.17339e-09
0.00487243
3.73046e-11
1.43789e-09
8.88125e-10
1.27968e-08
1.81992e-07
7.09911e-10
1.26464e-07
1.59696e-07
3.24164e-09
1.7973e-10
3.4126e-10
6.73473e-10
4.09596e-07
7.5922e-10
3.4415e-09
4.66443e-06
7.96651e-09
1.40783e-08
1.09397e-07
1.33481e-07
1.01122e-09
4.00669e-09
2.17005e-07
4.12149e-09
2.56393e-10
2.00911e-08
8.17537e-10
2.09186e-09
2.83233e-05
1.34903e-10
1.5155e-10
3.05454e-08
5.58113e-09
2.49163e-10
2.23693e-07
2.51739e-07
1.46186e-09
4.50291e-10
9.77864e-09
1.62139e-07
1.82375e-10
1.82108e-08
5.09886e-06
2.8029e-08
1.75055e-10
6.8454e-09
2.61979e-09
6.58847e-10
1.36111e-09
1.15339e-09
1.91102e-07
5.17021e-06
1.484e-10
2.12924e-11
5.45064e-07
6.97143e-05
4.40566e-07
1.72948e-06
3.60291e-09
1.61346e-09
0.00246797
6.59213e-07
3.34962e-07
0.00301396
1.47252e-09
1.51116e-09
1.84939e-09
1.74586e-09
1.09789e-09
1.5695e-09
7.52535e-08
2.27978e-05
4.7813e-09
1.44235e-07
9.5557e-10
5.97797e-08
0.00232337
3.09018e-07
1.53304e-09
4.68059e-09
3.41026e-11
3.81974e-06
2.87346e-09
5.58491e-09
1.25792e-06
0.00192887
1.75593e-09
4.87122e-10
5.95695e-09
1.28251e-08
6.623e-11
5.19741e-09
2.37752e-09
6.78249e-10
1.24819e-08
0.0034056
2.28784e-10
4.69027e-09
5.15904e-09
0.00290932
1.94176e-09
9.65076e-09
4.28861e-06
6.61824e-09
2.18137e-09
6.40489e-09
1.94986e-09
0.00218966
8.65657e-10
7.97214e-07
6.87131e-10
1.0578e-09
0.00383022
0.00460433
2.28439e-10
8.4558e-09
6.33476e-07
7.40087e-10
3.38454e-10
9.24846e-09
1.63145e-10
1.85424e-10
3.31564e-10
6.09373e-06
5.02521e-06
3.33338e-07
1.18733e-08
0.00589686
1.3253e-09
0.00144086
2.91575e-09
9.32353e-09
5.57225e-10
2.35242e-09
0.000497014
9.79539e-10
1.44646e-08
9.24059e-10
1.90026e-09
2.30642e-09
4.50983e-07
7.75467e-10
3.966e-09
1.27361e-08
7.83201e-05
0.00464075
5.89289e-08
6.71513e-06
2.42969e-10
2.02904e-09
1.07998e-09
1.45826e-06
2.28435e-09
2.98402e-09
5.73281e-08
1.91293e-10
1.44244e-06
0.00122042
2.85241e-08
1.77769e-10
9.27066e-09
3.14979e-10
0.000800088
8.99342e-07
1.08595e-08
1.66384e-10
5.25847e-09
9.59217e-08
1.89556e-09
0.00266113
4.12733e-06
4.9201e-09
1.46441e-09
5.07466e-06
1.64996e-09
0.000656062
2.95886e-09
5.68989e-10
1.1795e-07
2.8891e-08
5.70277e-09
1.76168e-07
7.10797e-09
9.17967e-09
1.8776e-08
9.92666e-09
0.00622093
1.42925e-09
6.34617e-11
0.000882254
2.08217e-09
4.06871e-10
8.4215e-09
6.6622e-10
0.000954521
1.07862e-05
0.000856204
0.000824234
2.79597e-10
2.17221e-10
1.39617e-08
3.81345e-11
9.74436e-11
2.09118e-09
2.62632e-10
3.14234e-07
5.16229e-09
1.00491e-09
3.61636e-10
8.54006e-06
2.41227e-08
1.18981e-08
9.53042e-07
1.23082e-08
3.25052e-07
5.48218e-09
1.3225e-08
9.87136e-08
0.000509536
2.00705e-09
1.47084e-08
0.00272983
1.1168e-07
0.00518971
2.08754e-09
1.07694e-07
2.10612e-10
9.51449e-10
6.36184e-08
1.7539e-09
1.66052e-09
0.000637428
3.57566e-08
2.11226e-10
1.66528e-08
5.29369e-10
1.4061e-05
4.59253e-09
6.42117e-10
6.84018e-08
6.52911e-09
1.01255e-08
1.23234e-06
0.00410432
2.95961e-10
2.83549e-10
1.41399e-06
1.71652e-07
1.78523e-06
1.72326e-08
1.08015e-07
6.3319e-10
1.95683e-05
1.00492e-06
0.00354159
4.04418e-06
4.20318e-09
2.38576e-08
5.70195e-09
1.94809e-09
2.27412e-05
1.22482e-08
1.4434e-06
5.50434e-10
2.18698e-10
2.32746e-07
5.68129e-10
0.00607672
2.52643e-08
6.79233e-07
9.01526e-05
1.88878e-06
2.70138e-05
1.22486e-09
0.00438514
0.00571522
3.91575e-10
5.52849e-10
1.57779e-08
2.08245e-06
6.14472e-11
5.20308e-07
9.32704e-10
0.00515169
1.19198e-06
1.90723e-10
3.45243e-09
6.14875e-07
3.50759e-09
2.4767e-10
1.64259e-08
6.7066e-10
2.65798e-09
1.83792e-08
0.000977493
1.80819e-09
1.79615e-09
1.37003e-09
6.88597e-06
1.14849e-09
3.15768e-08
2.14375e-11
6.8104e-11
9.69438e-07
1.64677e-09
0.00138467
7.25351e-09
4.47678e-08
4.33397e-09
4.42798e-10
8.85208e-09
0.00457868
3.22647e-08
0.00418227
1.03203e-09
5.34055e-08
4.69159e-08
9.82195e-11
0.00630228
0.00246878
1.63834e-10
4.42129e-08
5.33655e-07
7.5581e-10
4.33435e-09
5.29528e-09
6.35381e-07
0.00481682
7.20269e-10
1.84123e-08
2.0792e-06
2.92539e-10
0.000986551
2.05303e-09
1.9399e-06
2.16748e-08
1.46828e-09
1.35146e-05
0.00136536
1.35665e-07
8.99668e-10
3.58817e-10
3.75184e-10
6.05142e-08
2.31814e-08
3.95887e-07
2.20137e-11
3.21002e-05
3.29006e-10
9.63432e-09
4.79083e-09
3.70895e-09
4.95618e-10
2.01175e-09
1.2615e-09
2.05965e-10
4.32144e-10
0.00222747
0.00345807
1.26488e-09
4.35832e-09
0.00109205
0.00174756
6.29302e-09
5.07122e-09
1.09446e-10
3.16749e-09
1.71811e-08
3.53574e-07
1.05947e-09
0.000795468
3.94473e-10
6.10391e-10
8.30467e-07
8.99224e-07
2.20377e-08
1.4085e-09
1.302e-08
4.11591e-10
1.59893e-09
1.87912e-08
6.64809e-10
6.31367e-09
3.19371e-10
0.00224915
7.92031e-07
2.90731e-09
2.89953e-08
2.11504e-05
1.91942e-09
1.22438e-08
3.92543e-05
6.37279e-06
4.96888e-09
1.16544e-08
1.62047e-08
4.82897e-10
0.00197494
3.59378e-06
1.2953e-06
7.00037e-05
0.00144842
4.11358e-09
1.37034e-09
8.12499e-08
6.4034e-07
1.42421e-10
8.34547e-06
5.21434e-05
9.69369e-06
2.96351e-06
3.72548e-09
5.36166e-09
3.50004e-09
3.48578e-06
1.09857e-08
1.15734e-09
2.76652e-09
3.87275e-10
6.11064e-10
2.89646e-08
2.88411e-11
0.000651085
5.69051e-10
4.02549e-09
0.00193356
0.00564275
1.06749e-06
2.09427e-09
0.000743785
6.97111e-10
4.92895e-10
3.00133e-09
5.09351e-09
8.5564e-07
2.24661e-07
0.00208899
6.09281e-11
2.3696e-10
5.34907e-08
4.85947e-07
0.00261338
4.54909e-10
6.44581e-07
1.0159e-06
0.0043574
0.000696094
9.08375e-10
1.28053e-09
1.32283e-07
9.10449e-09
1.20226e-08
1.2507e-09
4.69308e-07
2.28839e-10
8.54519e-10
2.15345e-08
3.54853e-10
4.00132e-06
5.35328e-07
3.60308e-11
4.36211e-10
1.24408e-05
4.59718e-10
6.05649e-11
9.16666e-10
9.36363e-09
1.4343e-08
2.09813e-09
5.67341e-08
5.35638e-09
6.17108e-09
3.33871e-06
4.53429e-09
2.01921e-08
1.41372e-09
9.54135e-09
3.42558e-07
9.93957e-08
6.8981e-09
0.00129594
5.8205e-10
0.0032164
9.50432e-07
0.000255752
6.79984e-09
0.000495794
1.33994e-08
2.60247e-10
4.52657e-10
2.60297e-09
9.74374e-09
4.25256e-10
2.17661e-08
0.00464155
1.57242e-10
5.18346e-07
0.000762306
2.14435e-09
1.90927e-10
5.05901e-08
2.45413e-09
1.4991e-06
1.59927e-09
2.61531e-06
6.54606e-10
2.29272e-09
1.92982e-09
0.00289659
1.68518e-10
4.03134e-09
1.82606e-08
3.16304e-09
2.36395e-06
9.3611e-09
0.00106109
7.56589e-10
1.10866e-09
3.34286e-08
0.000757458
1.23324e-09
7.92807e-10
1.57501e-10
8.41655e-05
1.7169e-05
0.00315628
2.56496e-10
1.61435e-09
6.9514e-09
5.03474e-07
7.11069e-07
9.50804e-06
6.02768e-06
1.47933e-10
2.15584e-09
0.00107448
1.15667e-09
6.04439e-11
1.4572e-09
1.63403e-08
2.1409e-09
3.17391e-09
1.14098e-09
1.23988e-09
4.41476e-10
1.23427e-09
2.87757e-09
2.05652e-08
1.4292e-09
9.18775e-10
2.20884e-09
6.7682e-09
6.62813e-10
1.03602e-09
8.71434e-10
5.17737e-09
8.04503e-10
7.68073e-10
1.95056e-11
2.72728e-10
5.96114e-09
9.34015e-09
2.74746e-09
5.50596e-09
1.16688e-08
4.11417e-11
1.75938e-08
2.99543e-10
7.60672e-09
1.13236e-07
1.20006e-08
1.6076e-09
4.91846e-10
3.76091e-08
1.8561e-09
1.00144e-05
7.79473e-10
0.00415794
1.73235e-09
2.74763e-09
0.00381709
1.4876e-06
1.36042e-09
7.89088e-10
7.44629e-10
3.34264e-07
0.00198601
1.33047e-05
3.94539e-09
4.04729e-09
1.84369e-09
1.22817e-09
1.92806e-08
1.67412e-06
2.0367e-09
4.96732e-13
2.94422e-09
7.9656e-07
7.44559e-08
5.74518e-08
2.86241e-09
1.68767e-09
1.34345e-09
2.12516e-10
1.93979e-09
0.000561868
1.82136e-07
8.57986e-10
4.60334e-10
8.90875e-07
2.20882e-06
3.4042e-08
8.17701e-09
0.000778134
1.40144e-10
8.00719e-10
0.001071
8.59432e-10
0.0012475
7.63871e-07
0.000617669
9.57384e-06
3.45469e-09
3.38145e-08
7.28607e-10
0.000921963
4.9797e-09
2.40338e-05
0.00299719
3.17833e-06
1.11997e-10
2.11898e-08
4.06256e-09
0.00860157
0.00298737
3.24878e-09
0.0042017
1.86876e-09
2.96166e-06
2.49405e-09
3.29656e-07
1.41952e-05
2.10888e-10
7.47444e-09
1.14627e-07
1.87332e-08
7.77595e-09
0.000765806
3.984e-09
1.05466e-08
5.11835e-09
9.98072e-10
6.94327e-09
0.00357626
1.60926e-08
4.89754e-09
8.10597e-06
1.24491e-09
6.90172e-09
0.00369266
1.09078e-08
0.00341634
0.00598259
1.65087e-05
1.87498e-07
2.83828e-08
9.76795e-11
9.73942e-07
5.31226e-06
2.00427e-05
2.2356e-06
7.90486e-08
0.000762823
8.4605e-08
1.72229e-09
3.06668e-09
1.77062e-06
1.03832e-05
8.89594e-06
1.70147e-05
3.27658e-06
8.9075e-10
1.32759e-06
3.94657e-09
1.3781e-08
2.72707e-05
0.00578857
4.4015e-09
3.73901e-09
6.06641e-05
6.69572e-05
3.51017e-09
1.19542e-05
1.29758e-08
2.21862e-10
3.44827e-10
4.28494e-09
1.08347e-07
8.26472e-09
7.37398e-07
0.00087068
5.64065e-11
1.32681e-08
8.44541e-05
0.00201777
3.23978e-09
1.2195e-09
0.000547849
5.3073e-10
2.43732e-06
1.88535e-09
3.59438e-10
1.08252e-05
0.00223123
5.54682e-10
1.60333e-09
4.58382e-09
0.00059598
3.46175e-09
0.000388427
3.38779e-09
2.58297e-06
6.83987e-10
4.084e-05
4.81264e-10
3.80363e-11
1.51699e-08
9.11972e-09
2.97223e-05
1.6401e-08
2.44384e-09
3.5502e-08
9.23947e-05
0.000906752
1.50091e-06
7.99001e-06
2.1265e-05
1.5285e-09
2.4872e-05
1.92957e-07
1.08047e-10
6.19219e-08
4.4278e-06
3.0744e-09
4.04014e-09
1.59369e-07
2.9082e-06
3.45653e-09
1.44673e-08
2.47304e-09
3.14655e-07
0.00133483
1.07278e-09
1.83734e-09
0.00102963
2.15276e-06
1.45754e-06
2.95842e-10
5.81798e-10
2.42145e-09
2.08575e-08
2.05895e-07
1.56372e-10
6.77421e-09
1.08197e-10
4.32211e-07
1.6013e-06
3.40409e-07
1.33338e-10
6.23091e-08
3.15447e-09
7.8475e-09
2.09193e-08
2.50548e-06
5.00122e-09
1.22903e-08
1.80892e-08
1.09193e-09
7.61882e-07
5.88238e-09
7.37925e-10
1.6444e-05
6.68167e-10
7.5977e-09
2.16977e-05
2.10122e-06
1.2125e-06
2.85054e-06
2.08014e-09
3.59698e-08
6.12995e-10
0.0021202
6.17574e-07
1.99046e-06
7.28589e-09
1.91767e-11
9.14611e-10
0.00350929
0.00125597
1.10477e-06
8.30027e-12
2.52975e-06
1.03477e-09
0.00285821
6.1157e-09
2.29105e-08
4.48161e-09
4.42732e-08
1.56547e-08
1.95162e-06
3.37377e-08
2.14955e-06
0.00555127
7.44834e-08
1.23988e-06
5.92637e-07
1.3452e-06
9.34607e-07
6.59494e-09
1.32462e-09
3.74987e-08
1.58677e-09
4.74599e-09
4.84452e-09
1.14001e-05
5.18613e-09
4.03512e-08
0.00853948
3.40923e-08
2.02074e-08
1.63727e-09
4.6507e-09
2.38087e-09
0.00678674
7.50684e-10
0.00221068
0.00011209
1.44437e-06
1.88986e-07
1.9219e-07
1.79183e-05
4.89116e-08
7.57061e-08
3.56282e-08
1.22544e-09
7.37531e-09
3.84295e-08
1.61521e-06
5.65573e-08
0.00118884
4.6736e-09
7.18536e-08
1.9168e-07
3.86399e-09
7.70148e-06
4.92786e-09
5.88577e-07
1.36704e-05
2.41038e-09
1.85354e-09
1.2916e-06
5.31394e-09
2.87845e-10
0.00325014
8.59022e-09
2.12119e-07
6.12002e-10
0.00077907
1.59843e-07
1.66175e-08
8.34889e-09
8.09979e-08
4.12903e-08
4.12142e-09
0.00279072
1.17036e-08
4.57962e-11
1.51252e-06
8.21501e-09
1.08819e-09
4.79334e-07
4.015e-06
1.47788e-05
3.15761e-10
2.68315e-08
1.94334e-09
1.60104e-08
8.62918e-07
0.000643239
1.08883e-07
1.69746e-05
1.23668e-06
2.13454e-05
5.4018e-07
6.40289e-08
2.96279e-08
1.34875e-08
9.45079e-09
8.75973e-10
1.02093e-09
0.000820145
1.17982e-06
0.00080165
4.57711e-11
1.29715e-08
2.55832e-09
8.45723e-07
8.84922e-07
5.52108e-09
1.2283e-06
8.95222e-06
7.02587e-09
1.68785e-11
0.000121501
0.000119879
1.34004e-08
5.4269e-07
9.62238e-09
1.57676e-05
3.97445e-08
2.24931e-09
5.36497e-09
4.04637e-09
4.61946e-06
1.52531e-09
1.86397e-05
1.4962e-08
0.000792929
8.23734e-06
1.29392e-08
1.13149e-08
4.01656e-06
4.95256e-08
0.00111973
0.0047614
1.85352e-06
3.45133e-06
2.25799e-07
3.03279e-09
4.64699e-10
3.80157e-10
1.28217e-06
5.93781e-08
0.000590925
0.00110544
1.36178e-10
8.0842e-09
6.04603e-06
0.000704962
4.85275e-07
2.1301e-05
4.42929e-05
0.000737352
0.00290352
0.000860055
1.40537e-06
7.86127e-10
3.58462e-05
1.78764e-08
3.7084e-09
4.59083e-09
3.35903e-09
1.18864e-10
3.793e-09
3.74173e-09
1.56975e-06
2.14901e-09
2.46464e-10
1.72428e-08
6.86493e-09
0.00100875
1.29562e-08
5.68841e-07
0.00128791
0.0049371
2.11515e-09
0.00355764
3.39456e-06
0.00667121
4.56335e-08
3.71078e-09
4.16118e-09
1.8768e-09
0.00496035
3.88946e-11
1.83551e-05
7.26265e-10
3.58796e-09
2.88732e-07
3.48795e-10
2.33025e-08
5.8747e-09
0.00131132
7.376e-10
4.1661e-10
3.84401e-09
8.93809e-09
8.6605e-09
6.64536e-06
5.38415e-07
1.98549e-08
6.59859e-06
1.93315e-08
9.81903e-09
2.09656e-06
1.23044e-08
1.42309e-08
9.3018e-10
4.2457e-09
0.00515459
0.000744855
5.00068e-06
3.94657e-09
1.79316e-09
5.15385e-10
0.00330654
6.00023e-09
4.36743e-10
1.19029e-08
4.05353e-09
8.41161e-10
0.000593482
3.15183e-09
3.70661e-09
4.01976e-08
2.0697e-07
8.38434e-10
0.00303971
1.78479e-09
0.00081342
3.65458e-10
9.43562e-08
1.85853e-09
8.89339e-10
2.50365e-08
2.02219e-09
1.08321e-08
8.73268e-08
1.33241e-09
1.03458e-10
8.73125e-10
0.00136757
1.09575e-09
2.09135e-10
2.31223e-09
4.55178e-07
1.58947e-10
0.00082747
3.23117e-08
1.06683e-08
7.54916e-11
2.68963e-09
3.38929e-09
3.248e-08
3.77335e-10
1.60473e-09
8.60334e-09
6.50856e-10
6.82841e-10
1.40682e-08
4.10426e-08
1.78998e-09
1.5965e-09
2.15618e-08
9.31141e-06
0.00510945
2.41579e-09
1.30712e-07
3.74713e-08
7.27627e-06
3.92469e-06
5.9012e-10
1.51022e-06
0.00136893
4.19366e-10
9.53482e-07
1.52875e-05
0.00115497
1.42637e-08
1.70042e-09
5.64192e-06
3.06528e-09
0.000707369
4.98415e-09
6.21427e-08
5.59942e-09
3.83321e-09
0.00434552
1.87845e-09
6.56949e-09
3.29164e-09
1.5615e-08
0.00673904
0.000970013
8.66025e-09
2.45667e-09
4.66699e-10
3.24482e-09
5.64077e-09
1.74229e-08
1.20013e-09
1.35637e-09
2.07907e-09
2.11974e-10
5.98308e-09
0.00108017
0.000641156
9.6795e-10
2.32346e-07
2.72245e-09
4.58652e-09
3.4249e-09
0.00062314
0.00154553
4.52635e-08
3.44559e-09
8.00572e-10
1.65716e-08
8.52791e-10
8.84181e-08
1.6751e-09
6.15429e-06
3.67873e-09
4.50468e-08
8.04865e-10
3.74757e-06
9.86237e-08
1.41591e-05
1.28482e-09
9.30799e-10
9.20582e-06
9.27255e-06
2.42206e-09
9.94968e-09
6.59764e-10
3.42333e-10
2.22856e-10
1.73987e-08
9.04108e-08
2.33287e-09
0.00563409
1.79241e-08
2.89287e-08
0.00107925
1.13328e-08
4.88544e-09
4.23524e-09
1.15882e-08
2.57589e-08
1.53808e-09
1.69271e-08
1.26982e-08
8.09007e-08
1.51843e-09
8.35073e-09
5.78855e-10
1.39264e-08
1.40957e-10
7.21393e-09
5.7542e-10
4.08032e-09
2.76194e-09
2.08294e-08
3.70473e-09
2.40101e-09
2.06457e-09
2.8736e-09
2.94247e-07
7.45431e-09
1.57288e-09
2.0087e-08
4.03555e-08
1.59936e-08
1.75646e-06
2.20276e-09
0.00516436
3.03894e-09
2.03783e-07
1.03895e-08
9.41832e-08
2.90796e-09
1.65426e-09
0.00403272
9.37147e-09
5.18566e-10
3.97147e-08
0.0040944
1.10176e-08
8.687e-10
1.15446e-08
2.32754e-08
1.27777e-07
6.97934e-09
7.51243e-06
1.27214e-09
5.99626e-10
1.15877e-07
1.76725e-09
6.25388e-06
6.74152e-06
0.00471834
1.05263e-07
3.04979e-08
1.53635e-07
7.83072e-10
1.6323e-07
1.9419e-08
4.76532e-05
9.9576e-10
1.32936e-06
6.76166e-06
0.00113021
1.46487e-07
0.00447227
3.77912e-09
3.35672e-08
2.36868e-09
2.94901e-09
3.40687e-08
7.18136e-08
2.28137e-08
9.72324e-10
1.78376e-07
3.80005e-10
1.01587e-09
3.31107e-10
8.11436e-06
3.58678e-09
9.77086e-10
8.64603e-06
2.71282e-08
1.02203e-05
4.30843e-09
3.89184e-10
8.50794e-10
1.02501e-09
3.61441e-07
9.16685e-08
3.66164e-06
3.15013e-10
4.107e-10
6.78808e-05
2.62233e-08
6.64762e-10
2.85198e-06
3.72468e-08
2.16609e-09
5.77411e-10
0.00266395
2.37667e-06
4.5404e-09
1.50322e-08
1.87773e-09
3.81922e-06
2.82335e-09
1.67005e-09
5.65539e-11
1.19419e-08
5.83963e-10
2.82228e-08
0.00331988
1.36606e-08
2.05451e-10
5.01594e-06
3.84708e-09
4.49743e-09
5.37958e-10
1.20061e-06
1.10278e-09
2.47277e-06
0.00305494
5.84065e-10
3.1839e-13
9.10408e-10
1.12399e-09
1.17534e-09
6.3972e-09
1.24282e-05
1.36099e-05
4.16245e-06
1.75472e-05
2.60409e-10
9.41124e-07
2.30533e-08
2.44257e-09
9.34779e-09
9.01348e-10
0.0019985
8.50624e-06
1.21309e-09
2.71131e-05
3.05555e-08
5.34303e-07
8.7387e-06
8.38406e-08
5.66435e-08
5.95953e-08
2.61856e-10
8.76968e-07
7.96505e-10
2.71468e-06
2.9575e-09
2.0838e-08
2.31535e-09
1.70095e-09
2.81236e-10
2.52626e-11
5.3082e-06
3.05377e-09
1.82988e-07
3.50106e-09
3.1391e-10
1.51154e-09
1.01737e-05
0.00275016
9.61722e-09
4.90889e-10
1.04616e-10
0.00265876
0.00463309
5.44341e-10
0.00100116
1.60311e-08
1.71234e-10
1.34418e-07
1.43525e-08
2.1108e-08
1.88529e-09
5.51445e-07
0.00197313
0.00654791
0.00725006
1.07268e-08
5.27157e-09
3.95593e-08
1.69296e-07
0.00693736
1.74313e-09
0.00378591
8.64048e-08
1.67446e-09
6.08876e-09
9.46909e-09
1.0465e-08
1.44941e-09
3.72711e-09
1.17303e-09
0.00234364
1.23865e-09
2.55566e-08
5.76335e-10
4.32643e-10
1.4781e-10
1.57582e-07
1.66556e-09
1.6386e-09
9.42607e-06
1.25667e-07
2.4225e-09
5.19546e-07
1.17746e-07
1.25996e-09
9.21509e-09
2.82819e-09
9.0482e-09
3.09999e-10
5.90453e-05
1.01174e-09
6.85729e-09
4.72346e-10
1.97119e-08
7.24446e-09
2.28597e-06
5.64643e-10
1.16666e-08
1.42191e-07
2.33966e-08
1.07439e-06
4.7431e-09
9.96687e-09
0.00083218
7.6199e-06
0.00653179
1.45881e-05
1.01727e-08
1.21358e-09
0.00114895
5.50316e-09
3.78544e-10
1.28401e-08
5.70408e-08
4.91882e-07
1.76757e-08
1.90836e-09
2.59663e-09
2.02313e-08
2.12769e-09
1.29534e-08
5.95055e-09
4.03113e-07
0.00131564
4.52412e-09
7.64648e-10
1.03047e-09
2.03894e-08
9.46862e-10
4.63802e-06
1.34548e-08
5.64076e-10
2.14599e-09
1.73724e-08
0.000831513
3.04583e-06
1.13138e-08
2.3908e-07
1.69306e-09
4.07195e-09
1.56043e-08
1.55162e-09
7.90756e-09
3.10645e-09
3.89119e-07
9.85196e-09
4.61172e-10
3.99118e-08
9.86088e-10
1.18298e-06
1.52995e-06
1.69251e-08
1.21775e-09
5.11513e-09
1.9812e-08
1.69498e-09
1.05247e-05
2.86774e-08
0.00361842
1.67707e-07
3.1101e-09
6.65745e-09
3.97886e-06
1.35424e-08
2.03777e-05
1.22222e-08
1.66892e-08
0.00400642
4.00568e-09
6.23959e-06
3.39304e-09
0.000796974
2.90146e-08
0.000886209
0.00166227
2.24392e-06
1.37784e-07
3.71977e-07
1.29701e-09
2.87355e-07
4.80601e-07
6.67945e-06
3.7259e-07
1.21741e-08
4.78836e-07
7.63317e-06
6.9351e-06
8.04406e-06
3.0139e-06
8.72401e-10
7.76997e-09
1.60306e-05
1.18506e-07
6.29434e-08
4.77693e-06
3.63157e-06
2.26192e-07
1.55191e-08
4.46697e-06
1.98939e-08
3.34881e-06
7.54879e-09
3.07096e-07
5.7483e-10
2.25735e-07
8.18528e-06
0.00134758
4.83402e-08
2.05796e-08
8.95976e-07
1.91159e-08
1.35449e-06
1.47377e-08
6.53194e-06
1.09177e-10
7.63025e-09
2.92918e-09
2.50033e-10
2.46441e-07
1.8902e-05
2.31241e-05
0.00672425
1.59893e-08
2.94171e-08
2.59168e-09
8.04239e-06
4.5387e-10
0.000572235
0.00142433
1.38462e-09
1.52618e-05
1.76933e-08
1.55962e-09
1.02612e-08
2.42023e-05
1.49521e-08
0.000847135
1.18022e-09
5.69409e-10
2.13135e-08
1.7821e-08
2.43363e-10
5.12256e-07
0.000736939
7.60459e-10
1.7138e-08
7.2877e-09
0.00428969
0.00071925
9.78379e-09
3.4637e-08
5.53707e-09
9.77499e-06
6.92059e-09
0.000751291
7.94564e-09
4.12853e-08
6.90448e-10
1.86774e-08
5.18259e-09
1.03476e-08
1.31046e-07
4.22988e-08
8.75751e-09
2.12713e-08
8.37639e-08
5.33658e-11
5.03308e-10
6.04094e-09
0.00135057
1.03424e-09
1.63326e-09
2.56139e-08
9.81222e-09
4.66773e-08
6.40349e-07
0.00110278
3.90421e-10
0.00439076
5.32818e-08
3.99386e-10
0.000745027
3.30501e-06
9.98951e-12
4.68863e-10
0.00056578
5.45162e-10
7.41817e-10
2.93986e-10
2.10023e-10
1.37654e-07
1.53076e-07
1.90612e-08
0.00215449
3.49912e-08
9.35144e-09
5.36712e-09
1.48828e-08
3.09482e-10
6.63902e-10
3.93347e-08
0.00470756
1.61163e-06
6.10543e-07
8.32285e-07
1.03339e-06
2.28827e-09
1.60926e-10
2.37671e-10
9.33349e-09
4.91545e-09
3.49459e-07
1.32269e-08
5.36878e-09
7.12366e-09
3.34807e-09
1.07087e-08
2.66198e-09
1.40218e-08
1.39355e-08
1.08266e-07
7.29963e-10
3.53093e-10
1.57773e-09
2.9226e-09
3.36433e-05
3.86996e-10
2.32723e-09
2.53188e-10
2.44181e-09
0.00527016
8.9598e-10
7.26675e-10
1.27052e-06
5.99176e-09
1.21501e-09
1.25118e-08
4.5184e-10
9.19323e-10
1.9165e-09
4.78049e-09
6.42795e-09
5.00329e-09
2.56321e-09
3.46664e-08
4.86735e-09
0.00546914
9.52618e-06
1.07663e-09
3.69009e-05
2.13586e-09
1.8121e-10
7.50702e-10
0.00110656
1.11671e-10
9.11497e-10
3.12234e-08
1.45264e-08
1.2693e-09
0.00825811
4.10555e-10
2.3121e-08
1.60111e-08
1.76156e-09
0.00203617
1.64078e-08
6.41251e-09
1.15772e-08
2.61143e-08
1.45758e-09
7.56898e-10
1.92274e-09
3.82199e-08
2.67872e-08
6.88839e-08
2.65472e-09
3.3486e-06
8.41092e-09
0.00288184
1.45974e-08
6.9385e-09
1.76949e-08
3.23794e-07
0.00114252
0.000558908
3.6023e-07
1.11096e-09
0.00180848
3.02086e-08
5.89155e-07
0.000787744
5.00487e-09
8.70365e-10
0.00305844
0.000348774
2.01733e-07
2.56076e-09
9.21114e-10
6.64828e-10
3.09822e-05
6.04465e-10
1.92426e-07
6.8475e-06
1.73288e-09
0.000463924
1.40173e-09
5.03174e-07
0.00371269
2.2169e-09
2.28804e-09
1.5189e-08
1.26385e-08
8.22347e-09
6.49671e-10
1.30794e-08
2.40077e-09
5.02342e-10
2.53432e-07
8.85853e-10
0.000465577
0.000881203
7.93298e-09
1.15613e-09
3.07308e-09
2.82637e-06
2.58712e-08
2.17126e-09
2.18681e-09
1.15656e-09
2.49104e-06
1.72405e-09
1.61959e-08
9.04864e-10
0.00739099
3.49539e-10
0.00275938
9.57219e-10
2.53012e-09
0.000939746
2.86262e-08
1.45342e-09
0.000426419
2.49777e-09
2.46579e-09
2.68934e-10
3.93141e-08
1.72702e-08
6.70392e-09
3.48613e-09
5.79594e-10
3.86646e-07
0.00376507
0.0040218
3.28761e-07
5.33282e-08
9.9549e-10
0.00104273
0.00397006
8.72459e-10
2.7039e-08
4.98348e-09
2.36155e-05
4.16946e-06
7.2534e-09
2.97375e-09
3.35518e-09
2.16851e-10
3.08049e-09
1.81307e-07
2.10512e-08
0.00113934
0.0038833
1.34788e-08
1.42929e-05
4.1499e-10
9.79422e-09
1.05509e-08
3.41687e-06
5.40111e-07
7.42913e-06
4.01046e-07
3.25254e-10
1.53585e-09
6.27533e-09
2.77397e-07
0.00109264
3.07515e-10
0.0034829
3.84352e-09
2.08149e-07
1.27598e-09
2.79707e-07
2.25511e-09
8.75569e-10
5.46581e-09
2.21529e-09
7.75218e-09
6.89754e-06
2.06892e-09
0.000750288
7.17277e-10
0.00294262
1.02645e-09
5.7336e-08
3.07646e-08
1.33705e-10
2.21168e-07
2.8826e-09
2.42748e-09
3.09941e-10
1.8665e-10
1.43236e-07
0.000968519
0.000937183
9.98974e-10
4.26454e-10
6.72046e-10
6.08602e-11
2.34055e-09
9.09519e-09
3.73362e-06
3.45309e-09
1.06332e-09
9.90722e-11
0.000407898
6.69652e-07
1.71587e-10
0.000756403
1.6562e-10
0.00642918
4.36573e-10
1.44816e-08
1.62345e-11
8.29534e-09
0.00100053
4.35902e-10
1.65521e-09
1.13942e-09
1.22322e-05
7.62281e-07
1.77218e-10
2.54986e-06
3.41514e-08
7.62549e-10
4.48323e-10
0.00657175
6.41017e-07
6.05779e-07
4.1204e-08
1.79479e-08
5.53163e-10
1.52426e-06
4.32884e-08
6.72163e-08
7.80058e-06
4.97164e-09
4.92545e-07
0.000781699
1.10509e-09
7.05232e-09
1.45401e-06
1.46636e-08
0.000688874
0.00331227
5.97178e-10
9.34567e-10
7.3198e-05
5.85179e-09
1.09671e-10
2.34044e-08
7.70446e-09
4.88555e-11
1.82293e-05
1.94717e-08
4.45792e-07
2.9033e-10
1.61972e-06
4.30901e-08
8.87232e-08
1.19839e-09
2.64647e-06
1.56595e-08
8.0708e-09
1.40482e-08
1.97627e-07
2.16259e-06
7.86842e-06
1.95193e-10
2.28797e-10
1.60863e-09
1.79298e-11
2.19169e-09
0.000420458
1.23076e-08
2.42253e-06
1.95741e-08
3.95602e-06
1.77884e-06
7.10573e-12
1.79256e-08
2.69797e-09
9.51916e-09
3.41134e-09
4.85857e-07
2.33925e-05
2.65134e-07
2.39865e-09
5.22571e-09
1.04522e-08
6.9514e-09
2.72715e-09
0.00269724
1.88463e-07
1.30062e-05
1.82892e-05
1.29131e-05
1.46497e-09
9.71063e-06
1.23357e-05
2.32691e-05
1.19518e-05
5.64139e-10
1.67352e-09
1.11119e-08
8.02093e-09
1.18374e-06
7.21722e-06
0.000712177
5.42159e-08
5.74387e-07
7.35462e-08
5.96756e-06
9.68223e-10
7.74989e-09
1.99366e-09
4.21934e-06
0.000488552
1.14376e-09
0.00227126
2.14666e-06
2.0739e-08
1.97852e-06
4.85508e-10
9.50996e-09
3.84312e-08
5.13577e-10
5.88303e-09
6.36532e-09
4.17514e-05
8.2569e-11
1.1752e-08
3.43554e-05
7.12104e-10
2.29861e-07
6.31807e-05
2.54885e-09
2.50457e-08
1.03982e-06
3.32396e-08
2.04035e-08
0.00469042
4.02601e-09
2.11177e-08
4.25943e-09
0.00223648
0.00220846
4.52465e-08
5.29138e-10
2.25292e-07
0.00102866
2.33921e-09
1.16243e-10
1.35595e-08
1.87827e-07
2.63958e-08
0.00493743
1.14957e-08
3.26444e-07
8.43219e-05
1.50213e-09
1.19022e-07
2.48304e-08
4.71466e-08
1.94113e-09
4.87964e-05
6.98759e-05
5.5072e-09
3.07672e-10
2.19819e-08
1.46277e-06
1.17425e-09
0.000803469
1.00842e-08
2.29527e-07
2.17737e-08
1.13601e-08
1.21842e-08
2.35092e-09
1.64139e-08
9.27118e-08
4.29287e-06
4.11713e-09
3.79771e-08
0.000800075
1.92767e-08
5.5604e-08
6.97447e-08
6.65222e-08
8.35683e-10
5.73842e-10
1.09396e-09
1.85097e-08
3.5048e-09
0.0011258
3.89467e-07
2.7236e-08
1.59808e-09
1.5338e-08
0.00212864
1.49375e-09
9.89747e-08
1.15337e-07
2.21652e-07
6.70505e-09
5.85528e-09
3.94285e-07
1.19284e-09
4.35416e-08
9.51443e-06
4.60793e-09
1.83289e-09
5.40368e-09
4.79393e-08
7.896e-09
1.92093e-10
3.40654e-09
7.16525e-09
2.88707e-07
6.12194e-09
1.48946e-10
0.000911687
1.39768e-10
9.36252e-11
1.42882e-07
0.00113527
4.22328e-09
4.277e-08
1.25204e-10
8.97972e-10
1.03167e-07
1.50882e-08
1.23144e-07
2.23838e-09
1.0816e-09
3.7862e-08
1.13937e-07
1.09892e-09
6.39026e-10
2.35487e-10
2.81149e-08
3.37662e-07
1.42488e-08
2.78814e-09
1.41257e-07
3.05005e-09
5.52468e-10
1.02077e-08
1.42432e-08
1.04689e-08
8.1209e-10
5.84672e-10
3.04627e-09
4.03051e-07
1.24774e-09
4.51594e-07
6.75505e-10
3.91067e-08
6.51173e-06
2.47405e-09
1.06059e-09
0.00134882
1.29774e-09
0.00111735
3.03548e-09
7.54534e-09
1.71686e-07
1.02556e-08
0.000783936
7.7782e-09
0.00100174
0.0012191
1.81586e-06
3.04182e-09
0.000811179
1.83398e-07
3.07962e-09
4.72115e-09
0.00237331
0.000735461
0.000849758
2.16626e-09
3.40414e-10
8.15362e-10
1.62656e-07
1.79894e-08
4.79607e-10
3.17973e-06
1.09135e-08
9.37426e-09
2.86247e-09
3.15422e-10
5.301e-06
4.65207e-10
4.08868e-09
2.37818e-09
3.96229e-08
1.28517e-11
9.48119e-10
1.33012e-07
2.10951e-10
7.65556e-09
3.22623e-10
3.53489e-09
1.68088e-09
7.19603e-07
1.68922e-07
1.40359e-07
2.23097e-06
8.43451e-06
4.06247e-10
1.96456e-08
2.62498e-09
1.79389e-08
1.8696e-09
4.96948e-08
6.44727e-12
5.89898e-06
0.00736496
0.00151758
1.50303e-09
6.23153e-10
1.46214e-09
0.00092493
0.00214456
5.94485e-09
4.82502e-06
1.40037e-09
1.17656e-08
1.53653e-09
9.02281e-10
1.22027e-09
5.44516e-09
1.0823e-08
1.52188e-09
1.80909e-09
1.04804e-08
0.00327653
0.00100949
3.13969e-07
1.0018e-09
3.86638e-09
0.000786984
2.92018e-09
2.16035e-10
3.24538e-09
1.09754e-05
3.11474e-10
4.13116e-09
1.70316e-09
1.95103e-09
2.01808e-05
0.00269595
0.00130386
1.09586e-09
0.00128366
7.02732e-10
8.56013e-09
3.96961e-08
0.00201574
7.9068e-09
2.70883e-08
1.02282e-09
5.39732e-08
5.33908e-06
4.45752e-10
1.85403e-06
3.21385e-09
2.43082e-09
1.04078e-09
6.40598e-09
4.25356e-10
1.27442e-08
7.18588e-09
6.06792e-08
2.40288e-08
7.94018e-10
5.17083e-09
0.00126008
0.000742724
1.07653e-08
0.00142744
1.27736e-09
2.87933e-09
7.1826e-07
3.4625e-09
8.3423e-10
0.00065769
2.39671e-09
4.16504e-10
1.15429e-05
2.29147e-10
1.33094e-10
3.96061e-09
0.00168039
2.04254e-09
0.000694173
2.73268e-09
1.55972e-09
0.000832751
1.27274e-07
1.89099e-05
2.016e-10
4.87846e-09
2.20275e-08
4.17511e-09
0.00377687
0.000762726
1.96815e-06
1.34541e-09
0.000864128
1.18079e-09
1.33186e-09
2.69217e-10
0.00191484
3.75112e-05
5.46529e-09
2.5413e-11
2.95571e-08
0.000899343
2.09464e-05
1.05324e-08
4.72424e-06
0.00199918
0.001435
6.30359e-07
0.00145658
1.93137e-05
0.000856059
7.16939e-07
0.00122533
6.17325e-06
3.58717e-09
3.51831e-08
4.16999e-08
8.26549e-06
1.72332e-05
9.16807e-09
3.72309e-09
1.73537e-09
1.29252e-08
1.59924e-07
2.69951e-08
1.08134e-08
5.70648e-06
6.45667e-09
1.85596e-07
1.0387e-09
5.22822e-10
1.09601e-09
9.525e-10
8.75878e-08
5.78925e-10
4.80177e-09
2.06368e-09
3.27769e-07
7.81759e-07
2.12879e-09
3.02882e-10
1.46002e-09
2.56066e-09
8.97601e-09
2.23255e-05
4.44113e-05
1.89863e-06
1.19389e-09
8.1583e-09
1.34461e-08
0.000923493
5.34629e-07
2.64986e-07
1.07487e-08
3.2536e-08
4.44998e-08
4.17775e-06
2.01607e-06
0.00318971
0.0013393
1.46541e-09
1.55857e-05
5.9229e-06
1.59445e-09
5.59967e-10
1.20904e-07
1.52288e-09
3.88522e-08
1.04477e-07
0.00114912
6.3781e-10
2.46037e-10
1.91463e-09
0.000814048
9.20625e-07
0.000664168
1.69892e-09
8.4499e-10
6.24016e-10
6.34759e-09
4.55552e-07
1.43257e-08
6.39472e-08
1.65455e-07
1.27218e-09
9.04495e-08
6.55633e-07
1.87794e-10
1.96211e-06
1.09063e-06
1.17666e-08
1.76236e-06
6.01329e-05
8.12268e-08
0.00181205
8.40129e-09
1.03833e-07