/*--------------------------------*- C++ -*----------------------------------*\
  =========                 |
  \\      /  F ield         | OpenFOAM: The Open Source CFD Toolbox
   \\    /   O peration     | Website:  https://openfoam.org
    \\  /    A nd           | Version:  10
     \\/     M anipulation  |
\*---------------------------------------------------------------------------*/
FoamFile
{
    format      ascii;
    class       volScalarField;
    location    "4";
    object      SgRate;
}
// * * * * * * * * * * * * * * * * * * * * * * * * * * * * * * * * * * * * * //

dimensions      [1 -1 -3 -1 0 0 0];

internalField   nonuniform List<scalar> 
111485
(
0.00203718
2.0917e-08
2.12448e-10
0.00546474
7.64913e-10
8.60643e-10
4.31255e-10
7.40081e-09
2.46245e-10
8.59597e-09
5.89973e-10
2.51776e-10
1.53662e-09
0.00519951
8.82623e-11
2.06926e-08
0.00378639
1.83995e-05
9.37134e-11
1.31988e-05
0.00074125
9.71816e-10
2.57089e-10
1.79849e-08
3.54841e-08
2.97153e-09
7.5994e-09
1.10343e-09
7.42269e-10
0.000902452
8.05895e-08
2.35759e-09
0.0415948
2.54414e-08
1.35828e-05
1.80354e-06
0.0025472
0.00375713
4.38933e-05
7.43128e-09
0.000722335
2.31742e-09
4.43716e-09
1.77416e-08
3.67963e-07
5.14348e-08
4.98614e-10
7.32273e-09
1.36158e-08
7.02551e-09
1.80052e-08
3.79311e-07
1.97339e-09
6.6539e-08
1.96317e-08
5.07829e-10
5.02692e-09
4.15244e-10
2.29155e-09
6.35189e-09
1.16496e-08
0.00896463
2.94456e-08
1.02657e-07
1.2642e-07
3.95259e-09
6.83234e-06
1.16217e-09
2.11268e-08
3.72458e-09
8.82697e-07
1.07446e-08
2.25406e-07
4.32881e-08
5.78614e-09
1.6403e-09
3.04838e-09
4.93949e-10
3.13425e-09
5.35445e-07
0.004946
0.00877737
1.09251e-09
2.3579e-09
4.86e-10
2.84914e-10
0.00250813
5.92015e-08
4.56833e-06
1.20818e-08
5.04937e-08
2.03307e-09
3.67505e-10
4.51691e-09
5.47522e-10
4.36418e-10
0.000656213
3.00643e-07
3.12678e-05
2.08169e-06
0.0825178
2.93147e-10
3.54579e-08
1.14993e-09
8.77186e-09
3.08098e-07
2.00857e-10
6.25721e-09
3.17957e-10
9.04702e-06
7.46461e-11
2.79369e-08
7.88921e-11
1.92718e-10
4.68918e-09
3.98502e-09
5.30182e-10
1.65467e-07
6.91156e-09
0.000190688
1.80542e-09
3.34979e-06
0.00125388
4.52771e-08
8.61211e-09
0.000576052
1.96728e-06
3.64224e-09
1.77821e-11
4.82666e-06
2.69027e-06
2.94e-07
0.000884759
3.16831e-06
1.46618e-06
1.15815e-10
3.00433e-09
1.68142e-09
1.11339e-08
2.17525e-08
3.30466e-09
4.40478e-09
0.00317839
9.46445e-10
1.4853e-09
2.19818e-08
1.72823e-09
1.40226e-09
2.01327e-09
3.43466e-10
1.18055e-10
0.000576218
0.00243802
8.69057e-08
3.6535e-07
1.8292e-10
8.10274e-10
3.32038e-08
1.51803e-05
1.09009e-07
0.00253318
2.77557e-10
2.85851e-09
1.66673e-06
7.18695e-07
1.51154e-08
3.13504e-08
0.000451761
2.7258e-05
2.00255e-06
3.5885e-11
3.23483e-09
0.00487243
3.73046e-11
1.43793e-09
8.88186e-10
1.27968e-08
1.81993e-07
7.10264e-10
1.26464e-07
1.59696e-07
0.000812336
1.79962e-10
3.41782e-10
6.73873e-10
4.09596e-07
7.59412e-10
3.44388e-09
4.66443e-06
0.0646416
1.40797e-08
1.09397e-07
5.15349e-06
1.01693e-09
4.00692e-09
2.17005e-07
4.12321e-09
2.56644e-10
2.00911e-08
8.18413e-10
2.09234e-09
2.83233e-05
1.3608e-10
1.51671e-10
3.05454e-08
5.58118e-09
2.4917e-10
2.23693e-07
2.51739e-07
1.46231e-09
4.50534e-10
9.77967e-09
1.62139e-07
8.69575e-07
1.82171e-08
5.09886e-06
2.80303e-08
1.75056e-10
6.84717e-09
2.62023e-09
6.59257e-10
1.36111e-09
1.15646e-09
1.91102e-07
5.17021e-06
1.484e-10
2.12924e-11
5.45066e-07
6.97143e-05
4.40566e-07
1.72948e-06
3.60362e-09
1.61346e-09
0.00246797
6.59213e-07
3.34964e-07
0.00301396
1.47252e-09
1.5117e-09
1.85025e-09
1.74644e-09
1.09799e-09
1.56994e-09
7.52535e-08
2.27978e-05
4.78232e-09
1.44235e-07
9.55688e-10
5.97808e-08
0.00232337
3.09018e-07
1.53366e-09
4.68152e-09
7.09656e-11
3.81974e-06
2.87349e-09
5.58496e-09
1.25792e-06
0.00192887
1.75598e-09
4.87342e-10
5.95758e-09
1.28252e-08
6.62302e-11
5.19796e-09
0.0199291
0.0060508
1.24819e-08
0.0034056
2.29214e-10
4.69256e-09
5.15909e-09
0.00290932
1.94235e-09
9.65092e-09
4.28861e-06
6.61846e-09
2.18139e-09
6.4049e-09
5.88124e-09
0.00218966
8.6573e-10
7.97214e-07
6.87177e-10
0.000610223
0.00383022
0.00460433
2.28445e-10
8.45714e-09
6.33476e-07
7.40496e-10
3.38587e-10
9.24909e-09
1.63145e-10
1.85496e-10
3.31564e-10
6.09373e-06
5.02521e-06
3.3334e-07
1.18749e-08
0.00589686
1.32541e-09
0.00144086
2.91641e-09
9.32511e-09
7.71741e-08
3.15696e-05
0.000497014
9.85682e-10
1.44654e-08
9.24227e-10
1.90271e-09
2.30688e-09
4.50983e-07
7.75467e-10
3.96689e-09
1.27379e-08
7.83201e-05
0.00464075
5.8929e-08
6.71513e-06
2.42978e-10
0.00416456
0.00566201
1.45826e-06
2.28688e-09
2.98458e-09
5.73281e-08
1.91636e-10
1.44244e-06
0.00122042
2.85261e-08
1.79174e-10
9.27085e-09
3.16601e-10
0.000800088
8.99342e-07
1.08595e-08
1.6934e-10
5.25853e-09
9.59217e-08
1.89576e-09
0.00266113
4.12733e-06
4.92179e-09
1.46443e-09
5.07466e-06
1.6505e-09
0.000656062
2.95985e-09
5.69957e-10
1.1795e-07
2.88913e-08
5.70638e-09
1.76168e-07
7.1089e-09
9.17967e-09
0.00656003
9.92701e-09
0.00622093
1.42983e-09
6.40953e-11
0.000882254
2.08264e-09
4.06871e-10
0.00504956
6.66538e-10
0.000954521
1.07862e-05
0.000856204
0.000824234
2.79845e-10
2.17221e-10
1.39617e-08
3.81412e-11
9.74573e-11
2.09121e-09
2.66584e-10
3.14234e-07
5.16571e-09
1.00534e-09
3.66445e-10
8.54006e-06
2.41228e-08
1.18983e-08
9.53042e-07
1.23087e-08
3.25055e-07
5.48218e-09
1.3226e-08
9.87137e-08
0.000509536
2.00705e-09
1.47088e-08
0.00272983
1.11681e-07
0.00518971
2.08757e-09
1.07694e-07
2.11414e-10
9.51454e-10
6.36185e-08
1.75572e-09
4.68434e-06
0.000853663
3.57566e-08
2.12157e-10
1.66528e-08
5.29651e-10
1.4061e-05
0.179721
6.42232e-10
6.84018e-08
0.0579121
1.01255e-08
1.23234e-06
0.00410432
2.967e-10
2.83554e-10
1.41399e-06
1.71654e-07
1.78523e-06
1.72346e-08
1.08016e-07
6.33407e-10
1.95683e-05
1.00492e-06
0.00354159
4.04418e-06
4.97613e-09
2.38581e-08
5.70204e-09
1.94809e-09
2.27412e-05
1.22492e-08
1.4434e-06
5.50471e-10
2.18759e-10
2.32746e-07
5.68133e-10
0.00607672
2.52656e-08
6.79233e-07
9.01526e-05
1.88878e-06
2.70138e-05
1.22486e-09
0.00438514
0.00571522
3.91575e-10
5.52964e-10
1.57785e-08
2.08245e-06
6.14472e-11
5.20308e-07
5.49248e-08
0.00515169
1.19198e-06
1.91533e-10
3.4525e-09
6.14875e-07
3.50759e-09
2.47714e-10
0.0026733
6.70812e-10
2.65798e-09
0.00226022
0.000977493
1.80881e-09
1.91223e-09
0.000107842
6.88598e-06
0.00219788
3.15768e-08
2.16871e-11
6.8104e-11
9.69439e-07
1.64677e-09
0.00138718
7.25353e-09
4.47678e-08
4.33399e-09
4.42928e-10
8.85208e-09
0.00457868
3.22669e-08
0.00418227
1.03205e-09
5.3406e-08
4.69159e-08
0.00453138
0.00630228
0.00246878
1.6396e-10
4.42129e-08
5.33655e-07
7.55823e-10
4.33456e-09
5.29535e-09
6.35381e-07
0.00481682
1.04167e-08
1.84124e-08
2.0792e-06
2.92721e-10
0.000986551
2.0531e-09
1.9399e-06
2.16759e-08
1.46849e-09
1.35146e-05
0.00136536
1.35665e-07
1.20988e-09
3.59011e-10
3.75226e-10
6.05142e-08
2.31814e-08
3.95887e-07
2.20138e-11
3.21002e-05
3.29041e-10
9.63434e-09
4.79083e-09
3.71048e-09
4.95652e-10
2.01194e-09
1.26152e-09
2.05976e-10
0.00259679
0.00222747
0.00345807
1.26598e-09
4.35938e-09
0.00109205
0.00174756
6.29308e-09
5.07122e-09
1.09519e-10
3.16749e-09
1.71825e-08
3.53574e-07
1.0596e-09
0.000795569
3.94475e-10
9.33896e-08
8.30467e-07
8.99224e-07
2.20397e-08
1.40865e-09
1.30204e-08
4.11683e-10
1.59914e-09
1.87912e-08
6.64824e-10
6.31589e-09
3.19371e-10
0.00224915
7.92032e-07
2.9075e-09
2.89953e-08
2.11504e-05
1.9195e-09
1.22451e-08
3.92543e-05
6.37279e-06
4.9693e-09
1.16574e-08
1.62048e-08
4.83448e-10
0.00197494
3.59378e-06
1.2953e-06
7.00037e-05
0.00144842
0.0106468
1.37077e-09
8.12499e-08
6.4034e-07
1.42691e-10
8.34547e-06
5.21434e-05
9.69369e-06
2.96351e-06
3.72567e-09
5.36361e-09
3.50022e-09
3.48578e-06
1.09865e-08
1.15737e-09
2.76655e-09
3.87293e-10
6.11086e-10
2.89652e-08
2.88411e-11
0.000651085
5.69425e-10
4.02662e-09
0.00193356
0.00564275
1.06749e-06
2.09659e-09
0.000743785
6.97111e-10
4.9344e-10
3.00133e-09
5.09358e-09
8.5564e-07
2.24661e-07
0.00208899
6.10351e-11
2.3707e-10
5.34909e-08
4.85947e-07
0.00261338
4.55355e-10
6.44581e-07
1.0159e-06
0.0043574
0.000696094
9.09109e-10
1.2817e-09
1.32283e-07
9.10455e-09
1.20235e-08
1.25214e-09
4.69309e-07
2.29331e-10
8.54674e-10
2.15345e-08
3.56088e-10
4.00132e-06
5.35328e-07
3.75424e-11
4.36704e-10
1.24408e-05
4.59758e-10
6.21025e-11
9.17046e-10
9.36444e-09
1.43446e-08
2.09844e-09
5.67342e-08
5.35721e-09
6.17111e-09
3.33871e-06
4.53469e-09
2.01924e-08
1.41509e-09
9.54135e-09
3.42558e-07
9.93957e-08
6.89814e-09
0.00129594
5.82059e-10
0.0032164
9.50432e-07
0.000255752
1.04861e-05
0.000495794
1.33996e-08
2.60675e-10
9.15659e-10
2.60405e-09
0.00279212
4.25256e-10
2.17662e-08
0.00464155
1.57762e-10
5.18346e-07
0.000762306
2.14435e-09
1.90927e-10
5.05902e-08
2.45498e-09
1.4991e-06
1.59935e-09
2.61531e-06
6.54606e-10
2.29333e-09
1.93016e-09
0.00289659
1.6853e-10
4.03134e-09
1.82623e-08
3.16358e-09
2.36395e-06
9.3611e-09
0.00106109
7.56655e-10
1.91742e-09
3.34288e-08
0.000757458
1.23425e-09
7.92892e-10
1.57529e-10
8.41655e-05
1.7169e-05
0.00315628
2.56496e-10
1.61441e-09
6.9533e-09
5.03474e-07
7.11069e-07
9.50804e-06
6.02768e-06
1.48712e-10
2.15595e-09
0.00107448
1.15693e-09
6.04945e-11
1.4572e-09
1.63403e-08
2.14097e-09
3.17391e-09
1.14098e-09
1.23989e-09
4.41726e-10
0.0152997
2.87761e-09
2.05655e-08
1.42956e-09
9.19358e-10
2.20906e-09
6.76825e-09
6.62858e-10
1.03646e-09
8.72351e-10
5.17739e-09
8.04542e-10
7.68646e-10
3.7973e-11
2.72793e-10
5.96152e-09
9.34071e-09
2.74768e-09
0.0583444
0.179479
4.11418e-11
1.75942e-08
2.99562e-10
7.60674e-09
1.13236e-07
0.144902
1.60882e-09
4.92067e-10
3.76092e-08
1.85766e-09
1.00144e-05
7.7977e-10
0.00415794
1.73255e-09
2.74846e-09
0.00381709
1.4876e-06
1.36098e-09
7.89522e-10
7.44691e-10
3.34264e-07
0.00198601
1.33047e-05
3.94547e-09
4.04729e-09
1.84385e-09
1.22857e-09
1.92811e-08
1.67412e-06
0.0308782
4.96748e-13
2.94436e-09
7.9656e-07
7.44567e-08
5.74518e-08
2.91997e-09
1.68799e-09
1.34482e-09
2.12947e-10
1.93981e-09
0.000561868
1.82136e-07
8.59092e-10
4.60344e-10
8.90875e-07
2.20882e-06
3.4042e-08
8.17701e-09
0.10206
1.40156e-10
8.00989e-10
0.001071
8.59432e-10
0.0012475
7.63871e-07
0.000617669
9.57384e-06
3.45469e-09
3.38154e-08
7.28878e-10
0.000922256
4.9801e-09
2.40338e-05
0.00299719
3.17833e-06
1.12637e-10
2.11898e-08
4.06259e-09
0.00860157
0.00298737
3.2495e-09
0.0042017
1.86914e-09
2.96166e-06
2.49498e-09
3.29657e-07
1.41952e-05
2.13702e-10
7.47531e-09
1.14627e-07
1.87332e-08
7.77597e-09
0.000765806
3.98411e-09
1.0548e-08
5.11858e-09
9.98072e-10
6.94372e-09
0.00357626
1.60943e-08
4.89758e-09
8.10597e-06
1.24491e-09
6.90184e-09
0.00369266
1.09078e-08
0.00341634
0.00598259
1.65087e-05
1.87498e-07
2.83828e-08
9.78162e-11
9.73942e-07
5.31226e-06
2.00427e-05
2.2356e-06
7.90486e-08
0.000762823
8.46057e-08
1.7223e-09
3.0672e-09
1.77062e-06
1.03832e-05
8.89594e-06
1.70147e-05
3.27658e-06
8.90766e-10
1.32759e-06
3.95241e-09
1.3781e-08
2.72707e-05
0.00578857
4.4019e-09
3.73903e-09
6.06641e-05
6.69572e-05
3.51017e-09
1.19542e-05
1.29758e-08
2.21862e-10
3.4483e-10
0.00177871
1.08347e-07
8.26486e-09
7.37398e-07
0.00087068
5.64065e-11
1.32681e-08
8.44541e-05
0.00201777
3.24062e-09
1.22238e-09
0.000547849
5.30733e-10
2.43732e-06
1.88535e-09
3.59443e-10
1.08252e-05
0.00223123
5.56125e-10
1.60334e-09
4.58383e-09
0.00059598
3.46177e-09
0.000388427
3.38794e-09
2.58297e-06
6.83988e-10
4.084e-05
4.81562e-10
3.80363e-11
0.0666124
9.11975e-09
2.97223e-05
1.6401e-08
0.00382119
3.5502e-08
9.23947e-05
0.000906752
1.50091e-06
7.99001e-06
2.1265e-05
1.52852e-09
2.4872e-05
1.92958e-07
1.08174e-10
6.19221e-08
4.4278e-06
3.07616e-09
4.04019e-09
1.59369e-07
2.9082e-06
3.45655e-09
1.44706e-08
2.47322e-09
3.14656e-07
0.00133483
1.07285e-09
1.84581e-09
0.00102963
2.15276e-06
1.45754e-06
2.95842e-10
5.81889e-10
2.42145e-09
2.08575e-08
2.05896e-07
1.56668e-10
6.77422e-09
1.08325e-10
4.32211e-07
1.6013e-06
3.40409e-07
1.33338e-10
6.23091e-08
0.0728201
7.8476e-09
2.09211e-08
2.50548e-06
5.00122e-09
1.22905e-08
1.80896e-08
1.09196e-09
7.61882e-07
0.00907135
7.38625e-10
1.6444e-05
6.6888e-10
7.59808e-09
2.16977e-05
2.10122e-06
1.2125e-06
2.85054e-06
2.08021e-09
3.597e-08
6.13185e-10
0.0021202
6.17574e-07
1.99046e-06
7.2859e-09
1.9177e-11
9.14611e-10
0.00350929
0.00125597
1.10477e-06
8.3003e-12
2.52975e-06
1.03479e-09
0.00285821
6.13638e-09
2.29105e-08
4.48161e-09
4.42733e-08
1.56547e-08
1.95162e-06
3.37378e-08
2.14955e-06
0.00555127
7.44835e-08
1.23988e-06
5.92637e-07
1.3452e-06
9.34608e-07
6.59497e-09
1.32462e-09
3.74988e-08
1.58699e-09
0.00158448
4.84457e-09
1.14001e-05
2.8938e-06
4.03512e-08
0.00853948
3.40923e-08
2.02078e-08
0.080833
4.65081e-09
2.38089e-09
0.00678674
7.50714e-10
0.00221068
0.00011209
1.44437e-06
1.88986e-07
1.9219e-07
1.79183e-05
4.89117e-08
7.57072e-08
3.56282e-08
1.22565e-09
7.37532e-09
3.84295e-08
1.61521e-06
5.65573e-08
0.00118884
4.6736e-09
7.18538e-08
1.9168e-07
0.187738
7.70148e-06
4.92795e-09
5.88577e-07
1.36704e-05
4.92753e-05
1.85474e-09
1.2916e-06
5.31394e-09
2.88108e-10
0.00325014
8.59044e-09
2.1212e-07
6.12022e-10
0.00077907
1.59843e-07
1.66175e-08
8.34918e-09
8.09979e-08
4.12904e-08
4.12143e-09
0.00279072
1.17037e-08
4.57962e-11
1.51252e-06
8.21501e-09
1.0882e-09
4.79334e-07
4.015e-06
1.47788e-05
3.15767e-10
2.68315e-08
1.94335e-09
1.60129e-08
8.62918e-07
0.000643239
1.08883e-07
1.69746e-05
1.23668e-06
2.13454e-05
5.4018e-07
6.40289e-08
2.96283e-08
1.3488e-08
9.45116e-09
8.76294e-10
1.02124e-09
0.000820145
1.17982e-06
0.00080165
4.57711e-11
1.29751e-08
2.55832e-09
8.45723e-07
8.84922e-07
5.52134e-09
1.2283e-06
8.95222e-06
7.02759e-09
1.68785e-11
0.000121501
0.000119879
1.34025e-08
5.4269e-07
9.62256e-09
1.57676e-05
0.00782022
2.24976e-09
5.36502e-09
4.04637e-09
4.61946e-06
1.52611e-09
1.86397e-05
1.4962e-08
0.000792929
8.23734e-06
1.29392e-08
1.13149e-08
4.01656e-06
4.95256e-08
0.00111973
0.0047614
1.85352e-06
3.45133e-06
2.25801e-07
3.03355e-09
4.64715e-10
3.80281e-10
1.28217e-06
5.93798e-08
0.000590925
0.00110544
1.36993e-10
8.08429e-09
6.04603e-06
0.000704962
4.85275e-07
2.1301e-05
4.42929e-05
0.000737352
0.00290352
0.000860055
1.40538e-06
7.86156e-10
3.58462e-05
1.78764e-08
3.70849e-09
4.59083e-09
3.3591e-09
1.19546e-10
3.79303e-09
3.74174e-09
1.56975e-06
2.14902e-09
2.46464e-10
1.72428e-08
6.86608e-09
0.00100875
1.29564e-08
5.68841e-07
0.00128791
0.0049371
2.11516e-09
0.00355764
3.39456e-06
0.00667121
4.56354e-08
3.71083e-09
4.16129e-09
1.87956e-09
0.00496035
3.90459e-11
1.83551e-05
7.26416e-10
3.58846e-09
2.88732e-07
3.48835e-10
2.33026e-08
5.8747e-09
0.00131132
7.37627e-10
4.16612e-10
3.84401e-09
8.9381e-09
8.66059e-09
6.64536e-06
5.38415e-07
1.98549e-08
6.59859e-06
1.93357e-08
9.81903e-09
2.09656e-06
1.23044e-08
1.4231e-08
9.30192e-10
4.24574e-09
0.00515459
0.000744855
5.00068e-06
0.00198649
1.79317e-09
5.15438e-10
0.00330654
6.00078e-09
4.37463e-10
1.19032e-08
4.05371e-09
8.41255e-10
0.000593482
3.15198e-09
3.70842e-09
4.0201e-08
2.06971e-07
8.38481e-10
0.00303971
1.7848e-09
0.00081342
3.65652e-10
9.43562e-08
1.85854e-09
8.89532e-10
2.50365e-08
2.02256e-09
1.08323e-08
8.73268e-08
1.33242e-09
1.03458e-10
8.73385e-10
0.00136757
1.09575e-09
2.09434e-10
2.31255e-09
4.55178e-07
1.59375e-10
0.00082747
3.23117e-08
1.06771e-08
7.5984e-11
2.68963e-09
3.39059e-09
3.24803e-08
3.77723e-10
1.60476e-09
8.60335e-09
6.51073e-10
6.82854e-10
1.40683e-08
4.10476e-08
1.79001e-09
1.59651e-09
2.15663e-08
9.31141e-06
0.00510945
0.0073063
1.30712e-07
0.0013319
7.27627e-06
3.92469e-06
5.9043e-10
1.51022e-06
0.00136893
4.19546e-10
9.53482e-07
1.52875e-05
0.00115497
1.42638e-08
1.70043e-09
5.64192e-06
3.06677e-09
0.000707369
4.98415e-09
6.21441e-08
5.60043e-09
3.83322e-09
0.00434552
1.87846e-09
6.56957e-09
3.29181e-09
1.56172e-08
0.00673904
0.000970013
8.66025e-09
2.45667e-09
4.6673e-10
3.24485e-09
5.64081e-09
1.74229e-08
1.20013e-09
1.35638e-09
2.07908e-09
2.11974e-10
5.98309e-09
0.00108017
0.000641156
9.67969e-10
2.32346e-07
2.72247e-09
4.58652e-09
3.42493e-09
0.00062314
0.00154553
4.5265e-08
3.44559e-09
8.0058e-10
1.65716e-08
8.53033e-10
8.84181e-08
1.67516e-09
6.15429e-06
3.67882e-09
4.50469e-08
8.05167e-10
3.74757e-06
9.86237e-08
1.41591e-05
1.28515e-09
9.30816e-10
9.20582e-06
9.27255e-06
2.42206e-09
9.94987e-09
6.59909e-10
3.42474e-10
2.23163e-10
1.7399e-08
9.04109e-08
2.3329e-09
0.00563409
1.79277e-08
2.89288e-08
0.00107925
1.13334e-08
4.88596e-09
4.23571e-09
1.15886e-08
2.57638e-08
1.5383e-09
1.69273e-08
1.26984e-08
8.09007e-08
1.51858e-09
8.35156e-09
5.79651e-10
1.39273e-08
1.40957e-10
7.21393e-09
5.7542e-10
0.0268586
2.76194e-09
2.08305e-08
3.70534e-09
2.40101e-09
2.06457e-09
2.87362e-09
2.94248e-07
7.45443e-09
1.57294e-09
2.00871e-08
4.03556e-08
1.59939e-08
1.75646e-06
2.20359e-09
0.00516436
3.03894e-09
2.03783e-07
1.03897e-08
9.41832e-08
2.908e-09
1.65429e-09
0.00403272
9.37147e-09
5.18566e-10
3.9716e-08
0.0040944
1.10241e-08
8.69459e-10
1.15446e-08
2.32755e-08
1.27777e-07
6.97996e-09
7.51243e-06
1.27215e-09
6.003e-10
1.15877e-07
1.7673e-09
6.25388e-06
6.74152e-06
0.00471834
1.05264e-07
3.04979e-08
1.53635e-07
7.84144e-10
1.63231e-07
1.94194e-08
4.76532e-05
0.0842746
1.32936e-06
6.76167e-06
0.00113021
1.46487e-07
0.00447227
3.77914e-09
3.3568e-08
2.36875e-09
2.9506e-09
3.40755e-08
7.18509e-08
2.28138e-08
9.72944e-10
1.78376e-07
7.66101e-10
1.0159e-09
3.31147e-10
8.11436e-06
3.58682e-09
0.000178816
8.64603e-06
2.71369e-08
1.02203e-05
4.30887e-09
3.89428e-10
8.50809e-10
1.02918e-09
3.61441e-07
9.16686e-08
3.66164e-06
3.15092e-10
4.11147e-10
6.78808e-05
2.62233e-08
0.00264616
2.85198e-06
3.72471e-08
2.17224e-09
5.77444e-10
0.00266395
2.37667e-06
4.54316e-09
1.50331e-08
0.0278136
3.81922e-06
2.8234e-09
1.67262e-09
5.6554e-11
1.19419e-08
5.84081e-10
2.82258e-08
0.00331988
1.36612e-08
2.05751e-10
5.01594e-06
3.84722e-09
4.49819e-09
5.38092e-10
1.20061e-06
1.10291e-09
2.47277e-06
0.00305494
5.84758e-10
3.18391e-13
9.10516e-10
1.1244e-09
1.17693e-09
6.40138e-09
1.24282e-05
1.36099e-05
4.16245e-06
1.75472e-05
2.6082e-10
9.41124e-07
2.30549e-08
2.44265e-09
9.34782e-09
9.01362e-10
0.0019985
8.50624e-06
1.21312e-09
2.71131e-05
3.05563e-08
5.34303e-07
8.7387e-06
8.38408e-08
5.66437e-08
5.95953e-08
2.61992e-10
8.76969e-07
7.97076e-10
2.71468e-06
2.95792e-09
2.0838e-08
6.21703e-06
1.70106e-09
2.8185e-10
2.52643e-11
5.3082e-06
3.05395e-09
1.83256e-07
3.50153e-09
3.14185e-10
0.00167485
1.01737e-05
0.00275016
9.62626e-09
4.90916e-10
1.04616e-10
0.00265876
0.00463309
5.44465e-10
0.00100116
1.60315e-08
1.717e-10
1.34418e-07
1.4355e-08
2.11114e-08
1.88542e-09
5.51445e-07
0.00197313
0.00654791
0.00725006
1.07304e-08
5.27183e-09
3.956e-08
1.69296e-07
0.00693736
0.00851979
0.00378591
8.64056e-08
0.0497293
6.08922e-09
9.46909e-09
1.0465e-08
1.44958e-09
3.72711e-09
7.8293e-05
0.00234364
1.23865e-09
2.55575e-08
5.76718e-10
4.32643e-10
1.48501e-10
1.57583e-07
1.66556e-09
1.63861e-09
9.42607e-06
1.25667e-07
2.42389e-09
5.19546e-07
1.17746e-07
1.26013e-09
9.21555e-09
2.82884e-09
9.04828e-09
3.10156e-10
5.90453e-05
1.0121e-09
6.85763e-09
4.72478e-10
1.97119e-08
7.24598e-09
2.28597e-06
5.64806e-10
1.16689e-08
1.42191e-07
2.33966e-08
1.07439e-06
4.74313e-09
9.96764e-09
0.00087675
7.6199e-06
0.00653179
1.45881e-05
1.01741e-08
1.21372e-09
0.00114895
5.50318e-09
3.79026e-10
1.28409e-08
5.70413e-08
4.91882e-07
1.76772e-08
1.90875e-09
2.59682e-09
2.0232e-08
2.12796e-09
1.29543e-08
5.95125e-09
4.03113e-07
0.00131564
4.52412e-09
7.64756e-10
1.03054e-09
2.03894e-08
9.46947e-10
4.63802e-06
1.3457e-08
5.65315e-10
3.28449e-08
1.73726e-08
0.000850562
3.04583e-06
1.13153e-08
2.3908e-07
0.0134963
0.00553932
1.56061e-08
0.0835651
7.90861e-09
3.10655e-09
3.89119e-07
9.85322e-09
4.63546e-10
3.99119e-08
9.861e-10
1.18298e-06
1.52995e-06
1.69251e-08
1.218e-09
0.0567851
1.9812e-08
1.69572e-09
1.05247e-05
3.01587e-08
0.00361842
1.67707e-07
0.00343388
6.65749e-09
3.97886e-06
1.35433e-08
2.03777e-05
1.22231e-08
1.66893e-08
0.00400642
0.0106628
6.23959e-06
3.39326e-09
0.000824929
2.90146e-08
0.00088624
0.00167009
2.24392e-06
1.37784e-07
3.71977e-07
1.29706e-09
2.87356e-07
4.80601e-07
6.67945e-06
3.7259e-07
1.21767e-08
4.78836e-07
7.63317e-06
6.9351e-06
8.04406e-06
3.0139e-06
0.000904553
7.77009e-09
1.60306e-05
1.18506e-07
6.29449e-08
4.77693e-06
3.63157e-06
2.26192e-07
1.55201e-08
4.46697e-06
1.98944e-08
3.34881e-06
7.54901e-09
3.07096e-07
6.85191e-08
2.25737e-07
8.18528e-06
0.00134758
4.83402e-08
2.05845e-08
8.95976e-07
1.91162e-08
1.35449e-06
1.47377e-08
6.53194e-06
1.12408e-10
7.63061e-09
4.21197e-08
2.50456e-10
2.46442e-07
1.8902e-05
2.31241e-05
0.00672425
1.59899e-08
2.94171e-08
2.59243e-09
8.04239e-06
4.54601e-10
0.000572235
0.00142433
1.38464e-09
1.52618e-05
1.7694e-08
1.56583e-09
1.0283e-08
2.42023e-05
1.49521e-08
0.000847135
1.18025e-09
9.74726e-05
2.13137e-08
1.78211e-08
2.43652e-10
5.12256e-07
0.000736939
7.64898e-10
1.71395e-08
7.28949e-09
0.00428969
0.00071925
9.78403e-09
3.46373e-08
5.55338e-09
9.77499e-06
6.92174e-09
0.000751291
7.95016e-09
4.12854e-08
6.91844e-10
1.86778e-08
5.18286e-09
1.03478e-08
1.31047e-07
4.22988e-08
0.000358336
2.12734e-08
8.37643e-08
5.47299e-11
2.97679e-08
6.04097e-09
0.00135057
1.03427e-09
1.6333e-09
2.5614e-08
9.81223e-09
4.66792e-08
6.40349e-07
0.00110278
3.91685e-10
0.00439076
5.32841e-08
3.99834e-10
0.000745027
3.30501e-06
1.69015e-09
4.69092e-10
0.00056578
5.45475e-10
7.42316e-10
2.94072e-10
2.10389e-10
1.37654e-07
1.53076e-07
1.90613e-08
0.00215449
3.49912e-08
9.35161e-09
5.36793e-09
1.48829e-08
3.09544e-10
6.64033e-10
3.93348e-08
0.00470756
1.61163e-06
6.10543e-07
8.32285e-07
1.03339e-06
2.28909e-09
1.61155e-10
2.36669e-05
9.33352e-09
4.91568e-09
3.49459e-07
1.3231e-08
5.41132e-09
7.12568e-09
3.34894e-09
1.07094e-08
3.60103e-08
1.40244e-08
1.39356e-08
1.08267e-07
7.30138e-10
3.53571e-10
0.0858997
0.0389749
3.36433e-05
3.87021e-10
2.32723e-09
1.71326e-06
2.44509e-09
0.00527016
8.96104e-10
7.27963e-10
1.27052e-06
5.99204e-09
1.217e-09
1.25139e-08
4.54904e-10
9.1995e-10
1.91662e-09
4.78143e-09
6.42796e-09
5.0033e-09
2.56322e-09
3.46743e-08
4.86735e-09
0.00546914
9.52618e-06
1.07694e-09
3.69009e-05
2.14016e-09
1.81652e-10
7.5074e-10
0.00110788
1.12463e-10
9.11561e-10
0.00190184
1.45264e-08
1.2693e-09
0.00825811
4.10882e-10
2.31259e-08
1.60133e-08
1.76181e-09
0.00203617
1.64078e-08
6.41259e-09
0.00522538
2.61143e-08
1.45849e-09
7.56905e-10
1.92277e-09
3.82306e-08
2.679e-08
6.88839e-08
0.00756905
3.3486e-06
8.41116e-09
0.00288184
1.45987e-08
0.0727988
1.76952e-08
3.23794e-07
0.00114252
0.000558908
3.6023e-07
1.11138e-09
0.00180848
3.02091e-08
5.89155e-07
0.000787744
5.00542e-09
8.70574e-10
0.00305844
0.000348774
2.01733e-07
2.56124e-09
0.0514207
6.65008e-10
3.09822e-05
6.05571e-10
1.92426e-07
6.8475e-06
1.73289e-09
0.000463925
1.40224e-09
5.03174e-07
0.00371269
2.21698e-09
2.28828e-09
1.51897e-08
0.00332816
0.0130502
6.49828e-10
1.30795e-08
2.40077e-09
5.0467e-10
2.53432e-07
8.85968e-10
0.000465577
0.000881203
7.93321e-09
0.128359
0.0869329
2.82637e-06
2.58712e-08
2.17128e-09
7.66525e-07
1.15659e-09
2.49104e-06
1.7241e-09
1.61963e-08
9.05075e-10
0.00739099
3.49605e-10
0.00275938
9.57335e-10
2.53034e-09
0.000939746
2.86262e-08
0.0245019
0.000426419
0.1062
2.46625e-09
2.70094e-10
3.93144e-08
1.72702e-08
1.04162e-08
0.0493936
8.75937e-09
3.86646e-07
0.00376507
0.0040218
3.28761e-07
5.33284e-08
0.0165398
0.00104273
0.00397006
8.73555e-10
2.70392e-08
4.98348e-09
2.36155e-05
4.16946e-06
7.25349e-09
0.0714682
3.35603e-09
2.16961e-10
3.08053e-09
1.81308e-07
2.10523e-08
0.0233852
0.0038833
1.34796e-08
1.42929e-05
4.15003e-10
9.79423e-09
1.05512e-08
3.41687e-06
5.40112e-07
7.42913e-06
4.01046e-07
3.26359e-10
4.66726e-09
6.27545e-09
2.77397e-07
0.0103681
3.07545e-10
0.0034829
3.84354e-09
2.08149e-07
1.27601e-09
2.79707e-07
7.7913e-05
8.77829e-10
5.46583e-09
2.21531e-09
7.75422e-09
6.89754e-06
0.000151626
0.000750288
7.18256e-10
0.00294262
1.02654e-09
5.73361e-08
3.07646e-08
1.33754e-10
2.21168e-07
0.0186777
2.42781e-09
4.94747e-08
1.89957e-10
1.43236e-07
0.000968519
0.000937183
1.00079e-09
4.26577e-10
6.72052e-10
2.94929e-10
2.34058e-09
9.09655e-09
3.73362e-06
3.45318e-09
1.06335e-09
1.06182e-10
0.000407898
6.69652e-07
1.72134e-10
0.000756403
1.65676e-10
0.00642918
4.37604e-10
1.44816e-08
1.62399e-11
0.0249666
0.00100053
4.3591e-10
1.65811e-09
3.17384e-05
1.22322e-05
7.62281e-07
1.77464e-10
2.54986e-06
3.41515e-08
0.0733859
4.48323e-10
0.00657175
6.41017e-07
6.05779e-07
4.12053e-08
5.47501e-06
5.53686e-10
1.52426e-06
4.32885e-08
6.72165e-08
7.80058e-06
4.97169e-09
4.92546e-07
0.000781699
1.1058e-09
7.05232e-09
1.45401e-06
1.4684e-08
0.000688874
0.00331227
5.97456e-10
9.3457e-10
7.3198e-05
5.85179e-09
1.10019e-10
2.34046e-08
7.70467e-09
4.88555e-11
1.82293e-05
1.94718e-08
4.45792e-07
2.91447e-10
1.61972e-06
4.30911e-08
8.87236e-08
1.19841e-09
2.64647e-06
1.56615e-08
8.07135e-09
1.40482e-08
1.97628e-07
2.16259e-06
7.86842e-06
1.95193e-10
2.28804e-10
1.65295e-09
1.79371e-11
2.19169e-09
0.000420458
1.23088e-08
2.42253e-06
1.95748e-08
3.95602e-06
1.77884e-06
4.72012e-10
1.7926e-08
0.00275195
9.51916e-09
3.41134e-09
4.85857e-07
2.33925e-05
2.65134e-07
2.39865e-09
1.09582e-05
1.04525e-08
0.000710903
9.64906e-07
0.00269724
1.88463e-07
1.30062e-05
1.82892e-05
1.29131e-05
1.46497e-09
9.71063e-06
1.23357e-05
2.32691e-05
1.19518e-05
5.64144e-10
1.67356e-09
1.11124e-08
8.02097e-09
1.18374e-06
7.21722e-06
0.000712177
5.42166e-08
5.74387e-07
7.35464e-08
5.96756e-06
9.68273e-10
0.0760058
1.99395e-09
4.21934e-06
0.000488552
1.14379e-09
0.00227126
2.14666e-06
2.0739e-08
1.97852e-06
4.85996e-10
9.51063e-09
3.84316e-08
5.14532e-10
5.8841e-09
6.36576e-09
4.17514e-05
8.48232e-11
0.000525667
3.43554e-05
7.12654e-10
2.29861e-07
6.31807e-05
2.54891e-09
2.50459e-08
1.03982e-06
3.32419e-08
2.04036e-08
0.00469042
4.02607e-09
2.11178e-08
4.25943e-09
0.00223648
0.00220846
4.52465e-08
5.31711e-10
2.25292e-07
0.00102866
9.13499e-05
1.1654e-10
1.35596e-08
1.87827e-07
2.63958e-08
0.00493743
1.15052e-08
3.26445e-07
8.43219e-05
1.50213e-09
1.19022e-07
2.48304e-08
4.71467e-08
0.00558221
4.87964e-05
6.98759e-05
5.50723e-09
3.07863e-10
2.1982e-08
1.46277e-06
1.17427e-09
0.000803469
1.00843e-08
0.00441692
2.17743e-08
0.012
1.21843e-08
2.35149e-09
1.64141e-08
9.27119e-08
4.29287e-06
4.11718e-09
3.79771e-08
0.000800075
1.92767e-08
5.5604e-08
6.97447e-08
6.65223e-08
0.000647441
5.81803e-10
1.09396e-09
1.85097e-08
3.50487e-09
0.0011258
3.89467e-07
2.72368e-08
1.59808e-09
1.53391e-08
0.00212864
1.49387e-09
9.89757e-08
1.15337e-07
2.21652e-07
6.70512e-09
0.00428309
3.94286e-07
1.19289e-09
4.35416e-08
9.51443e-06
4.60865e-09
5.81298e-06
5.40371e-09
4.79394e-08
7.89623e-09
2.01213e-10
3.40655e-09
7.16538e-09
2.88707e-07
6.12204e-09
1.48963e-10
0.000911687
1.46167e-10
4.33338e-07
1.42882e-07
0.00113527
4.22365e-09
4.277e-08
1.25044e-07
8.98028e-10
1.03167e-07
1.50892e-08
1.23145e-07
2.40907e-06
1.08185e-09
3.78624e-08
1.13937e-07
1.113e-09
6.39213e-10
0.0397294
2.81154e-08
3.37662e-07
1.42488e-08
2.78816e-09
1.41257e-07
3.05157e-09
5.52502e-10
1.02117e-08
1.42432e-08
1.59907e-08
8.12165e-10
5.86552e-10
0.038801
4.03051e-07
1.24774e-09
4.51595e-07
6.75505e-10
3.91068e-08
6.51173e-06
2.47426e-09
6.42291e-09
0.00134882
1.29801e-09
0.00111735
3.03562e-09
7.54535e-09
1.71686e-07
1.02576e-08
0.000783936
7.7807e-09
0.00100174
0.0012191
1.81586e-06
3.04329e-09
0.000811179
1.83398e-07
3.07981e-09
4.72234e-09
0.00237331
0.000757276
0.000849758
2.1663e-09
3.40786e-10
8.15467e-10
1.62656e-07
1.79894e-08
4.79749e-10
3.17973e-06
1.09135e-08
9.37437e-09
1.73918e-06
3.157e-10
5.301e-06
4.65287e-10
4.08908e-09
2.37871e-09
3.96229e-08
5.91605e-11
9.48297e-10
1.33013e-07
2.11711e-10
7.65686e-09
3.2369e-10
3.53609e-09
1.6811e-09
7.19603e-07
1.68923e-07
1.40359e-07
2.23097e-06
8.43451e-06
7.55213e-06
1.96461e-08
3.49479e-05
1.79407e-08
1.8696e-09
4.96948e-08
6.47672e-12
5.89898e-06
0.00736496
0.00151758
1.50506e-09
6.25093e-10
1.46395e-09
0.00092493
0.00214456
5.94873e-09
4.82503e-06
1.40054e-09
1.17656e-08
1.53681e-09
9.02293e-10
1.22192e-09
5.44548e-09
0.0106912
1.52188e-09
1.80944e-09
1.0481e-08
0.00327653
0.00438402
3.13969e-07
0.0498818
3.8664e-09
0.000786984
2.92022e-09
2.16209e-10
3.24539e-09
1.09754e-05
3.11474e-10
4.13131e-09
1.11831e-06
1.95486e-09
2.01808e-05
0.00269595
0.00130386
1.15252e-09
0.00721787
7.03183e-10
8.56023e-09
3.96978e-08
0.00201574
7.92254e-09
2.70891e-08
1.02282e-09
5.39732e-08
5.33908e-06
4.46221e-10
1.85403e-06
3.21389e-09
2.43096e-09
1.04089e-09
6.41312e-09
4.2803e-10
0.000202688
7.18588e-09
6.06792e-08
2.40292e-08
7.94068e-10
5.17085e-09
0.00126008
0.000742724
1.07653e-08
0.00142744
0.05565
2.87936e-09
7.1826e-07
3.46252e-09
8.34242e-10
0.00065769
2.39869e-09
6.61025e-06
1.15429e-05
2.29159e-10
4.40851e-09
3.96114e-09
0.00168039
2.04262e-09
0.000694173
0.120512
1.56031e-09
0.000832751
0.0049168
1.89099e-05
2.016e-10
4.8785e-09
5.0606e-06
4.18867e-09
0.00377687
0.000762726
1.96815e-06
2.17773e-09
0.000864374
4.33292e-09
8.93644e-06
2.71231e-10
0.00191484
3.75112e-05
5.46599e-09
2.67507e-11
2.95571e-08
0.000899343
2.09464e-05
1.05324e-08
4.72424e-06
0.00199918
0.001435
6.30359e-07
0.00145658
1.93137e-05
0.000856059
7.16939e-07
0.00122533
6.17325e-06
3.58804e-09
3.51831e-08
4.17009e-08
8.26549e-06
1.72332e-05
0.0797772
3.7231e-09
1.73537e-09
1.29265e-08
1.59924e-07
2.69952e-08
1.08137e-08
5.70648e-06
0.0305276
1.85596e-07
1.03872e-09
5.22851e-10
1.0962e-09
9.5251e-10
8.7588e-08
5.78944e-10
4.80183e-09
2.06368e-09
3.27769e-07
7.81759e-07
0.000786127
9.78986e-05
1.4601e-09
2.56071e-09
8.98055e-09
2.23255e-05
4.44113e-05
1.89863e-06
1.1939e-09
8.16012e-09
1.34473e-08
0.0165956
5.34629e-07
2.64986e-07
1.07487e-08
3.2536e-08
4.45e-08
4.17775e-06
2.01607e-06
0.00318971
0.0013393
1.46541e-09
1.55857e-05
5.9229e-06
1.59448e-09
5.60046e-10
1.20904e-07
1.52303e-09
3.88528e-08
1.04477e-07
0.00114912
6.37822e-10
2.46135e-10
1.91463e-09
0.000814048
9.20625e-07
0.000664168
1.699e-09
2.44697e-07
2.13751e-09
6.34784e-09
4.55552e-07
1.43265e-08
6.39473e-08
1.65455e-07
1.2722e-09
9.0451e-08
6.55633e-07
1.87794e-10
1.96211e-06
1.09063e-06
1.1767e-08
1.76236e-06
6.01329e-05
8.12487e-08
0.00181205
8.40132e-09
1.03833e-07
0.0021293
3.11474e-10
7.98402e-08
0.000154452
2.13174e-09
2.37474e-08
0.000198318
0.00689602
9.20883e-08
8.40658e-08
1.60547e-09
1.65247e-09
2.00047e-08