/*--------------------------------*- C++ -*----------------------------------*\
  =========                 |
  \\      /  F ield         | OpenFOAM: The Open Source CFD Toolbox
   \\    /   O peration     | Website:  https://openfoam.org
    \\  /    A nd           | Version:  10
     \\/     M anipulation  |
\*---------------------------------------------------------------------------*/
FoamFile
{
    format      ascii;
    class       volScalarField;
    location    "4";
    object      SgT;
}
// * * * * * * * * * * * * * * * * * * * * * * * * * * * * * * * * * * * * * //

dimensions      [1 -1 -3 -1 0 0 0];

internalField   nonuniform List<scalar> 
111485
(
0.00203718
3.24683e-13
4.91221e-13
0.00546474
5.14114e-12
3.15441e-15
1.72859e-14
3.42453e-13
8.34125e-14
3.25908e-13
1.87543e-13
7.90382e-13
1.94774e-13
1.64242e-13
1.68784e-13
3.02222e-12
7.79527e-16
5.62088e-14
1.68998e-13
1.31834e-05
5.22584e-08
1.50518e-14
5.66941e-14
1.17313e-12
8.24696e-12
5.09044e-14
5.46926e-13
8.20824e-13
1.02839e-12
1.35572e-08
2.84118e-14
1.66837e-12
0.0415948
3.18956e-17
1.3059e-12
3.29752e-18
5.66064e-14
5.30082e-14
4.25067e-14
1.40618e-13
8.47988e-18
7.01723e-13
7.13546e-13
1.58074e-13
1.61862e-14
6.90651e-17
5.48021e-13
2.81219e-13
2.90265e-13
2.50986e-14
2.87398e-14
2.61926e-14
7.29919e-16
2.41884e-13
1.75548e-13
6.15116e-12
5.86665e-13
2.51361e-18
4.16496e-13
4.88515e-13
1.25888e-12
0.00896463
4.07561e-13
2.20047e-13
2.47998e-13
2.30536e-12
2.34485e-13
1.3755e-12
3.55782e-13
5.17989e-13
1.94581e-13
1.82934e-13
1.93282e-13
9.31066e-13
9.5762e-14
6.06422e-13
1.12718e-13
1.84866e-13
1.78035e-14
1.18267e-13
1.2143e-14
2.41563e-13
1.22367e-14
9.84821e-12
2.41718e-14
3.62539e-13
1.69667e-13
4.32036e-13
4.65066e-14
2.15526e-13
2.12549e-13
1.73258e-12
1.49312e-14
2.23192e-14
2.48092e-13
3.76774e-12
0.000151856
4.01575e-13
2.28809e-14
7.74164e-13
0.0825178
1.23157e-13
5.36705e-19
8.61725e-13
2.66436e-13
4.06048e-14
7.90709e-18
9.54948e-13
7.7691e-14
1.37949e-13
3.38521e-14
6.02565e-13
2.29202e-13
4.05241e-14
3.36032e-14
1.79091e-13
2.3133e-14
9.29762e-20
7.30711e-13
0.000190685
2.043e-14
9.91822e-15
3.10763e-14
3.99699e-18
1.01758e-12
3.39346e-13
7.84248e-14
1.64729e-12
7.84931e-14
1.61177e-14
2.84369e-14
1.56168e-13
6.52124e-16
5.64956e-15
1.78386e-13
3.6455e-12
2.32997e-14
2.91681e-13
3.80576e-12
1.81166e-13
3.33456e-15
6.69416e-13
6.3816e-12
2.75232e-13
5.6348e-13
2.07706e-14
6.17967e-14
5.67127e-10
2.66655e-17
5.33826e-13
3.67913e-14
3.05528e-07
1.1087e-13
2.76939e-13
1.27157e-13
4.54916e-12
3.07582e-12
8.75177e-13
5.64271e-14
6.54825e-18
0.00253318
1.12728e-12
1.83714e-12
8.1582e-14
1.03978e-13
4.0719e-14
7.87757e-14
5.47516e-18
3.88805e-13
8.32902e-14
4.63425e-18
1.06144e-09
1.28762e-12
5.13872e-17
4.25795e-14
6.03782e-14
7.49596e-14
2.70133e-13
3.53117e-13
5.86795e-14
5.53915e-13
0.000812332
2.31589e-13
5.2174e-13
4.00258e-13
2.77481e-14
1.91731e-13
2.38417e-12
6.97365e-14
0.0646416
1.39605e-12
3.39821e-14
5.02001e-06
5.70172e-12
2.24548e-13
1.45379e-13
1.71697e-12
2.51069e-13
3.12239e-14
8.76658e-13
4.78065e-13
3.62048e-13
1.17745e-12
1.20406e-13
1.17516e-16
5.4424e-14
6.62248e-15
1.02434e-13
2.18555e-13
4.45728e-13
2.43812e-13
1.02782e-12
4.43489e-14
8.69393e-07
6.3467e-12
5.45855e-13
1.32326e-12
4.88008e-16
1.77226e-12
4.46607e-13
4.10359e-13
9.46567e-18
3.07433e-12
2.26062e-13
3.74459e-13
2.71452e-16
1.07561e-18
2.19444e-12
1.57967e-13
2.18662e-14
2.3452e-13
7.12028e-13
6.73247e-15
1.05432e-12
5.3839e-14
1.3457e-12
2.54595e-14
2.78439e-15
5.38184e-13
8.62916e-13
5.81208e-13
1.01375e-13
4.32312e-13
5.8613e-18
9.09544e-13
1.01831e-12
7.48756e-18
1.1835e-13
1.08457e-12
1.96341e-12
2.32099e-14
6.24826e-13
9.21951e-13
3.6863e-11
3.23918e-14
2.81688e-14
4.95058e-14
1.43535e-13
3.00007e-13
5.04132e-14
2.19528e-13
6.23291e-13
1.37959e-13
2.13793e-16
5.48784e-13
0.0199291
0.0060508
6.19363e-18
1.26678e-13
4.30707e-13
2.29582e-12
4.95209e-14
2.15972e-13
5.94977e-13
1.56909e-13
6.3664e-13
2.17185e-13
2.05437e-14
1.34473e-14
3.93138e-09
1.21731e-12
7.35984e-14
2.84934e-13
4.56123e-14
0.000610222
8.10622e-14
8.05702e-13
5.44276e-15
1.34085e-12
2.46807e-13
4.09368e-13
1.33134e-13
6.27029e-13
5.99747e-20
7.25784e-14
8.6597e-17
7.09782e-13
5.95742e-14
2.28088e-12
1.59714e-12
1.25638e-13
1.10023e-13
7.61371e-18
6.62729e-13
1.57515e-12
7.66169e-08
3.15672e-05
1.63459e-13
6.14235e-12
7.82556e-13
1.68613e-13
2.44125e-12
4.58535e-13
6.13218e-15
1.33506e-17
8.83183e-13
1.83343e-12
2.13314e-13
4.94811e-13
8.96463e-14
2.36364e-13
9.28144e-15
0.00416456
0.00566201
6.4751e-15
2.52388e-12
5.53525e-13
1.24776e-18
3.4296e-13
6.07762e-14
4.86546e-13
1.99948e-12
1.40483e-12
1.89066e-13
1.62285e-12
5.62514e-14
1.43487e-14
3.45108e-18
2.95596e-12
6.25613e-14
5.89005e-15
1.91474e-13
1.10247e-13
1.56537e-13
1.68599e-12
2.5637e-14
6.94511e-14
5.37582e-13
2.77815e-15
9.92017e-13
9.67818e-13
3.78968e-13
2.27974e-13
3.6173e-12
9.24551e-17
9.26431e-13
9.08967e-18
0.00656001
3.44876e-13
3.93142e-12
5.77418e-13
6.33621e-13
6.14839e-18
4.73336e-13
5.53913e-18
0.00504955
3.18242e-13
3.05169e-13
2.87772e-14
4.1525e-18
5.07614e-19
2.48174e-13
1.00578e-18
3.90754e-14
6.71809e-15
1.37031e-14
2.36205e-14
3.95203e-12
1.75234e-13
3.42174e-12
4.32996e-13
4.80919e-12
1.13451e-12
1.00881e-13
2.03444e-13
1.35058e-13
4.99988e-13
2.29528e-12
4.50241e-19
9.46764e-13
7.78554e-14
9.77628e-14
5.57551e-18
4.1198e-13
4.04872e-13
6.5482e-13
3.4055e-13
3.04622e-14
2.61884e-14
8.0202e-13
5.44396e-15
8.28053e-14
1.82804e-12
4.68268e-06
0.000216235
1.37847e-14
9.30923e-13
6.51623e-18
2.81707e-13
4.43773e-13
0.179721
1.15632e-13
1.85194e-16
0.0579121
1.7545e-14
1.5925e-13
4.45933e-12
7.39386e-13
4.80542e-15
6.11207e-15
2.29657e-12
1.76589e-13
1.97897e-12
3.34109e-13
2.16478e-13
1.85183e-13
3.14391e-14
5.69863e-13
1.06705e-13
7.72948e-10
4.67984e-13
8.1511e-14
9.23347e-18
3.35658e-14
9.70033e-13
1.66202e-14
3.75574e-14
6.10853e-14
7.36332e-14
4.27281e-15
1.43312e-13
1.36098e-12
9.84093e-14
1.42994e-14
3.70119e-14
4.07354e-13
1.1619e-16
1.98721e-13
1.30022e-13
4.34563e-17
1.14245e-13
5.86248e-13
1.20412e-13
8.04202e-18
2.11223e-13
5.39921e-08
6.68532e-12
1.84301e-13
8.10513e-13
6.98361e-14
1.17837e-13
7.19274e-16
4.41177e-14
0.00267328
1.5202e-13
3.11437e-16
0.0022602
2.10406e-11
6.19927e-13
1.16081e-10
0.00010784
6.04892e-13
0.00219787
9.85108e-19
2.49574e-13
4.68815e-19
1.23459e-13
8.88254e-19
2.50858e-06
2.04012e-14
1.84964e-15
1.73258e-14
1.29592e-13
4.23098e-17
5.17502e-13
2.199e-12
9.55258e-14
1.38358e-14
5.02639e-13
8.05432e-17
0.00453138
1.49594e-12
9.30784e-13
1.25473e-13
5.91279e-15
5.00977e-14
1.2321e-14
2.1285e-13
6.97765e-14
2.02171e-13
1.99973e-13
9.69638e-09
8.93816e-14
1.26466e-13
1.8262e-13
2.6054e-16
7.55404e-14
2.23261e-13
1.10879e-12
2.08405e-13
1.32909e-14
1.26771e-17
3.61797e-13
3.10211e-10
1.94166e-13
4.2162e-14
2.09314e-18
6.16975e-18
3.47967e-13
1.0506e-17
1.06417e-13
3.4746e-14
2.34823e-14
1.62861e-18
1.52757e-12
3.46098e-14
1.9454e-13
1.82176e-14
1.03382e-14
0.00259679
6.29348e-13
2.42102e-14
1.10593e-12
1.06646e-12
6.08499e-14
4.62194e-13
5.74372e-14
2.60278e-16
7.2768e-14
2.70846e-16
1.46508e-12
1.8547e-13
1.28207e-13
1.00578e-07
1.835e-15
9.27792e-08
7.54572e-15
2.5816e-13
2.0033e-12
1.46384e-13
3.54408e-13
9.2658e-14
2.12046e-13
1.37392e-17
1.53975e-14
2.22334e-12
3.63307e-16
2.36873e-13
5.05047e-13
1.94435e-13
8.3935e-14
1.52478e-12
7.82188e-14
1.34627e-12
4.8078e-13
1.0199e-13
4.26204e-13
2.99232e-12
1.06609e-13
5.51505e-13
2.26752e-13
4.33426e-14
2.40757e-14
1.67923e-13
1.39777e-13
0.0106468
4.22635e-13
3.6818e-19
8.71838e-15
2.70144e-13
7.86774e-13
1.10778e-13
3.91264e-14
7.36567e-14
1.93591e-13
1.9536e-12
1.76771e-13
6.43657e-13
7.67767e-13
2.97608e-14
3.37699e-14
1.81625e-14
2.24644e-14
5.5509e-13
1.14045e-17
4.58022e-17
3.73657e-13
1.12497e-12
5.26625e-14
1.72026e-13
4.15559e-14
2.32263e-12
3.19536e-15
1.72431e-17
5.45427e-13
2.25576e-16
7.4315e-14
7.25697e-15
2.07491e-13
5.63513e-15
1.07001e-13
1.0992e-13
2.19169e-13
6.78493e-14
2.23337e-13
4.45611e-13
1.57376e-13
1.52988e-15
9.36933e-13
1.33232e-16
7.34417e-13
1.17401e-12
1.6438e-17
5.20193e-14
9.14081e-13
1.44053e-12
1.24672e-13
4.91625e-13
1.54444e-13
1.34181e-15
1.2358e-12
4.38621e-13
3.63951e-14
1.51166e-12
4.92556e-13
2.61484e-14
4.00054e-14
1.5376e-12
3.79927e-13
8.07894e-13
1.55875e-12
3.10142e-13
1.14735e-13
8.2945e-13
3.62701e-14
1.21978e-14
3.94719e-13
2.87089e-13
1.36854e-12
2.06435e-16
6.67964e-14
4.98344e-17
3.60125e-14
1.38993e-17
8.20159e-15
1.13596e-12
1.73574e-14
1.66801e-14
1.04793e-05
1.02331e-14
2.05077e-13
4.28265e-13
4.63002e-10
1.08071e-12
0.00279211
4.16938e-16
6.50243e-14
9.82998e-13
5.2016e-13
2.16224e-13
4.73598e-17
6.50257e-17
8.07619e-17
7.91867e-14
8.44579e-13
3.12759e-14
7.33719e-14
4.03739e-14
1.8429e-19
6.15407e-13
3.39667e-13
1.7017e-13
1.29605e-14
3.88011e-16
1.66106e-12
5.40838e-13
7.61523e-14
1.82243e-17
8.40492e-14
6.62564e-14
8.08761e-10
1.886e-13
1.26817e-16
1.00686e-12
8.51847e-14
2.83808e-14
7.07372e-14
8.22232e-13
7.06038e-13
6.67146e-18
5.4589e-14
1.90097e-12
3.87642e-14
2.03632e-14
6.79013e-14
5.04685e-13
7.79474e-13
1.07466e-13
2.77724e-14
2.57401e-13
5.05844e-14
7.15579e-20
1.53182e-14
6.46316e-14
6.51176e-17
1.1919e-17
5.90809e-15
2.49755e-13
0.0152997
3.73459e-14
3.01889e-13
3.55044e-13
5.83047e-13
2.20984e-13
4.70374e-14
4.56917e-14
4.38934e-13
9.16631e-13
2.33106e-14
3.95587e-14
5.73642e-13
1.84674e-11
6.53166e-14
3.80389e-13
5.62873e-13
2.2213e-13
0.0583444
0.179479
1.18674e-17
3.66743e-13
1.86411e-14
1.42842e-14
2.97776e-13
0.144902
1.22372e-12
2.21604e-13
8.0206e-14
1.56116e-12
3.01991e-12
2.97618e-13
1.24609e-12
1.96055e-13
8.34109e-13
8.75427e-15
1.65206e-14
5.6123e-13
4.33691e-13
6.21216e-14
7.30351e-14
3.82357e-14
3.34984e-13
7.33531e-14
4.42498e-18
1.6563e-13
4.0584e-13
5.38159e-13
2.58703e-13
0.0308782
1.68311e-17
1.39314e-13
1.92011e-13
7.92797e-13
1.82504e-14
5.75607e-11
3.26114e-13
1.36934e-12
4.31192e-13
1.47729e-14
4.65602e-14
7.92505e-14
1.10582e-12
1.04698e-14
2.13959e-14
1.82268e-13
1.08347e-18
5.59845e-18
0.101282
1.18359e-14
2.70648e-13
4.12426e-14
5.07413e-17
2.48179e-15
9.85421e-14
5.45966e-18
3.767e-13
5.87531e-18
9.02247e-13
2.70431e-13
2.9318e-07
4.008e-13
3.82631e-13
2.61673e-14
3.00173e-14
6.405e-13
3.21864e-17
3.72532e-14
3.4357e-13
4.28392e-14
7.20188e-13
1.54232e-14
3.85755e-13
1.01399e-14
9.33328e-13
4.26284e-13
7.82489e-13
2.81363e-12
8.69755e-13
5.27361e-13
1.24969e-14
2.01953e-14
8.86568e-17
1.11865e-13
1.34364e-12
2.31757e-13
5.54104e-19
4.52202e-13
2.55601e-13
1.73671e-12
4.44098e-14
1.17629e-12
1.70307e-17
1.20127e-13
1.30023e-12
6.7099e-14
1.31739e-13
6.30907e-14
9.46078e-13
3.47603e-14
5.1742e-15
1.36756e-13
3.83701e-14
1.16061e-13
1.1875e-13
1.51083e-13
3.42362e-17
7.11181e-18
6.46041e-13
1.78024e-14
5.10662e-13
1.64253e-13
2.13672e-13
2.59908e-13
3.28494e-13
2.74477e-13
1.64587e-14
2.05307e-13
5.84227e-12
3.28889e-17
2.09697e-13
3.43841e-13
4.00725e-13
2.19352e-14
1.6569e-13
1.10479e-13
2.83509e-15
1.49511e-13
2.77134e-17
1.04625e-16
3.03416e-15
0.00177871
2.41155e-14
1.4602e-13
2.41281e-14
2.00442e-14
2.35516e-18
6.84578e-18
5.19244e-14
1.74857e-13
8.43888e-13
2.87836e-12
9.11885e-15
2.58523e-15
2.81426e-13
4.44307e-17
4.43464e-15
2.73902e-14
6.61802e-14
1.44292e-12
5.98047e-15
4.1108e-15
8.91221e-15
2.09646e-14
9.24354e-18
1.47268e-13
1.99775e-13
4.71153e-16
4.83664e-13
2.97538e-13
2.53906e-18
0.0666124
3.20686e-14
3.85522e-13
2.91544e-15
0.00382119
1.94255e-17
2.04237e-14
3.27717e-17
7.68515e-14
5.00971e-13
1.5017e-14
2.02075e-14
4.70734e-13
6.96314e-14
1.26816e-13
1.77701e-13
1.71277e-13
1.75891e-12
5.51852e-14
1.49351e-13
4.91636e-14
2.06366e-14
3.29169e-12
1.77505e-13
1.74957e-13
1.41755e-13
6.52708e-14
8.4606e-12
5.81234e-14
3.75153e-14
9.70294e-14
1.18892e-18
9.11932e-14
2.95768e-16
1.05236e-14
1.2241e-12
2.95892e-13
9.63454e-15
1.27101e-13
2.68163e-15
2.21298e-13
2.56942e-13
1.28034e-16
1.58401e-17
0.0728201
1.02952e-13
1.74224e-12
8.50304e-13
3.57665e-15
2.10911e-13
3.65216e-13
3.02485e-14
4.45602e-15
0.00907134
7.00156e-13
3.28552e-13
7.12605e-13
3.79996e-13
1.53271e-12
1.55694e-12
1.21386e-13
7.68592e-14
7.18782e-14
2.33552e-13
1.90314e-13
9.0035e-13
3.12782e-14
4.0235e-13
8.8046e-15
2.35617e-16
1.11425e-16
2.52631e-12
1.58783e-19
2.25406e-14
2.99321e-17
1.65722e-13
1.87673e-14
8.79751e-12
2.06802e-11
4.65427e-15
4.0349e-15
2.24783e-14
2.69015e-18
3.2373e-13
5.49807e-14
1.10352e-13
3.21701e-12
1.14789e-13
4.73503e-14
5.80282e-14
4.93057e-14
2.62732e-13
2.36049e-14
8.19882e-15
1.30424e-13
2.16073e-13
0.00158447
5.42272e-14
3.14368e-13
2.88862e-06
3.206e-14
4.28296e-14
1.31131e-14
3.95735e-13
0.080833
1.04838e-13
2.29834e-14
1.04887e-12
3.05096e-14
2.92203e-14
6.25821e-14
3.66492e-13
1.81537e-13
2.64789e-13
4.00256e-13
8.35212e-14
1.0381e-12
5.8944e-14
2.07135e-13
1.33215e-14
8.42644e-18
4.17559e-14
2.5747e-17
2.47655e-17
1.03862e-17
2.16207e-13
3.99368e-13
0.187738
1.03281e-13
9.70055e-14
1.04233e-13
5.95023e-13
4.92728e-05
1.19719e-12
2.22164e-13
5.502e-15
2.6341e-13
1.61834e-14
2.25679e-13
8.12704e-13
2.07194e-14
7.03308e-16
1.10428e-17
1.58285e-14
2.9493e-13
3.01785e-17
1.91631e-13
8.69841e-15
2.21148e-14
1.51443e-13
9.95663e-18
9.02911e-14
7.65079e-18
9.27289e-15
3.95898e-13
4.26952e-14
1.43189e-13
5.77709e-15
3.76519e-14
1.12729e-14
2.4137e-12
2.15223e-13
1.13748e-17
9.80066e-14
1.34064e-13
4.30576e-14
1.30187e-13
4.57637e-14
8.73172e-15
3.34817e-13
5.15433e-13
3.73603e-13
3.21516e-13
3.06444e-13
8.09251e-17
2.15005e-14
1.63729e-16
7.69033e-19
3.59973e-12
1.62564e-15
4.38179e-14
1.38994e-13
2.65864e-13
4.10504e-13
2.65622e-14
1.7208e-12
1.27035e-17
1.55004e-15
4.67147e-14
2.10136e-12
3.20804e-13
1.8028e-13
2.33441e-13
0.00782018
4.54367e-13
5.35216e-14
5.33653e-15
1.47242e-13
7.93134e-13
4.489e-14
4.68378e-17
9.32352e-17
7.30847e-13
9.37303e-15
2.26509e-14
1.35367e-13
7.817e-15
2.20931e-14
7.20604e-12
1.43449e-13
1.94163e-13
2.23791e-12
7.60615e-13
1.59711e-14
1.23976e-13
1.67756e-14
1.68067e-12
6.6795e-16
6.91923e-15
8.14061e-13
9.20405e-14
8.15599e-14
6.91327e-14
9.23466e-14
1.94123e-14
2.05502e-13
1.75132e-14
3.59351e-13
1.49939e-14
4.74401e-13
2.86482e-14
1.40291e-14
3.04723e-14
9.5937e-14
1.39146e-17
7.33396e-14
6.826e-13
3.20983e-14
1.41405e-14
6.06708e-14
9.15202e-15
5.43297e-17
1.13942e-16
1.15531e-12
2.17699e-14
1.81998e-13
2.9294e-14
8.17459e-14
2.51942e-12
1.00133e-14
2.02297e-14
8.41445e-14
6.21677e-14
1.93584e-12
5.81974e-14
1.11324e-13
2.76208e-12
1.19458e-13
1.51362e-13
1.34644e-12
1.51838e-13
4.93461e-13
1.09978e-14
4.07329e-14
3.1565e-14
2.65019e-18
3.48801e-14
2.70631e-14
2.14845e-15
8.21971e-16
9.00946e-15
8.71989e-14
1.06223e-12
1.82342e-13
1.65001e-18
1.70285e-14
4.18435e-12
4.55417e-18
2.50932e-13
2.07898e-14
1.69752e-13
1.11926e-14
3.62025e-14
9.47179e-14
2.48031e-15
9.6437e-13
0.00198648
1.51695e-14
5.26201e-14
3.54297e-14
5.51979e-13
7.19267e-13
2.90712e-13
1.86732e-13
9.44966e-14
2.42671e-13
1.45499e-13
1.81368e-12
3.3545e-12
3.10152e-13
4.70212e-14
2.27334e-13
4.92269e-15
4.91165e-13
1.94198e-13
7.40589e-14
4.37043e-15
1.92499e-13
6.31208e-18
3.72411e-13
1.90659e-13
2.24012e-14
1.22783e-15
8.75525e-18
2.59643e-13
2.66952e-17
2.21019e-16
2.9839e-13
3.12298e-13
3.19777e-14
4.28038e-13
4.0974e-16
1.59923e-17
8.85994e-12
4.92305e-13
3.40506e-15
1.29879e-12
2.82787e-13
3.88746e-13
3.42912e-14
4.65907e-15
2.16286e-13
1.33826e-14
2.24121e-14
5.00591e-12
2.26591e-14
7.21572e-15
4.48335e-12
8.10623e-14
1.43848e-12
0.0073063
3.98829e-14
0.00133187
3.53731e-14
2.10792e-14
3.09402e-13
2.08679e-13
9.21135e-14
1.8014e-13
3.01316e-14
9.00474e-15
1.45307e-14
4.41777e-14
4.98756e-15
6.02197e-13
1.48724e-12
3.41628e-18
3.67966e-17
1.37063e-12
1.01102e-12
1.93023e-14
7.113e-13
5.19847e-15
8.44581e-14
1.66896e-13
2.21999e-12
3.06742e-14
6.84936e-14
4.53765e-16
2.03107e-16
3.1044e-14
3.19286e-14
3.68636e-14
1.57306e-17
8.84444e-16
6.45201e-15
1.0989e-14
3.18534e-17
1.01302e-14
2.99556e-15
1.48342e-15
1.84886e-14
2.54775e-13
2.0854e-14
5.64768e-15
3.43113e-14
1.76502e-17
3.24013e-18
1.48367e-12
4.1682e-16
7.61401e-15
6.69537e-20
2.42231e-13
1.35515e-18
5.67407e-14
3.94246e-15
8.57615e-14
9.57043e-14
3.01996e-13
3.23691e-13
1.52225e-14
6.49989e-14
3.3784e-13
1.74837e-14
2.16901e-14
4.57355e-14
8.95158e-15
1.94507e-13
1.45668e-13
1.40945e-13
3.07312e-13
3.02546e-13
9.69006e-14
2.86319e-14
2.45909e-13
3.54714e-12
9.89037e-14
3.91921e-15
6.15247e-13
5.162e-13
4.66272e-13
4.35523e-13
4.8865e-12
2.20713e-13
1.17286e-13
1.227e-13
2.03078e-17
1.41598e-13
8.31682e-13
7.96486e-13
8.82208e-13
6.40824e-18
4.27213e-16
3.11963e-18
0.0268586
9.18779e-17
1.06813e-12
6.12551e-13
1.54186e-17
1.44112e-15
1.49221e-14
2.14376e-13
1.19132e-13
6.08538e-14
5.87107e-14
3.79822e-15
3.14934e-13
7.20567e-14
8.29519e-13
3.83117e-13
2.18062e-15
1.99095e-14
1.96038e-13
5.18933e-14
3.18268e-14
3.21256e-14
2.54583e-13
7.29288e-17
1.81112e-16
1.30311e-12
1.06932e-12
6.53995e-12
7.59034e-13
1.62598e-14
1.7542e-13
1.30033e-13
6.17881e-13
3.76557e-14
1.65706e-14
6.7382e-13
9.33937e-14
5.82742e-14
2.61707e-13
3.24288e-14
2.93984e-13
1.74011e-13
2.41578e-17
3.13635e-13
1.07218e-12
1.30257e-13
3.72096e-13
2.37875e-13
0.0842746
2.20913e-13
1.39868e-13
6.21247e-17
3.37424e-14
2.57895e-12
1.44521e-14
7.82787e-13
6.50382e-14
1.59243e-12
6.73932e-12
3.73527e-11
1.44024e-13
6.20289e-13
4.00554e-14
3.86096e-10
2.82317e-14
3.92388e-14
8.17344e-14
3.3388e-14
0.000178815
3.76358e-13
8.74051e-12
2.23199e-14
4.36031e-13
2.43873e-13
1.53721e-14
4.17113e-12
1.14727e-14
1.71979e-14
4.44567e-14
7.8533e-14
4.46736e-13
4.99607e-13
8.30504e-15
0.00264616
1.22748e-13
2.90191e-13
6.15115e-12
3.28739e-14
2.74948e-12
1.24349e-14
2.76036e-12
8.44173e-13
0.0278136
4.80417e-15
4.87805e-14
2.57047e-12
6.67193e-17
1.82519e-15
1.18125e-13
3.03115e-12
5.72872e-13
6.60989e-13
3.00033e-13
3.83254e-14
1.35117e-13
7.62755e-13
1.33517e-13
2.30302e-14
1.31665e-13
1.80322e-14
1.0413e-12
6.93158e-13
4.11497e-19
1.07101e-13
4.1262e-13
1.5874e-12
4.17422e-12
7.60678e-13
6.92983e-13
1.30735e-14
1.33995e-13
4.11184e-13
5.98999e-15
1.64338e-12
7.94815e-14
3.07943e-14
1.4103e-14
8.14944e-14
2.40101e-14
2.53305e-14
5.31155e-13
8.71107e-13
3.16746e-13
1.45819e-14
1.45703e-13
1.65261e-13
3.48931e-17
1.35481e-13
1.10164e-12
5.70581e-13
5.04713e-14
4.18054e-13
7.16186e-14
6.21472e-06
1.05111e-13
6.13817e-13
1.70497e-15
1.93526e-13
1.81068e-13
2.68136e-10
4.6666e-13
2.74751e-13
0.00167484
2.09192e-13
5.95268e-13
9.04161e-12
2.76996e-14
1.08359e-18
4.91413e-13
3.46973e-14
1.23768e-13
1.54766e-17
3.82761e-13
4.66308e-13
6.1532e-14
2.48253e-12
3.36555e-12
1.26264e-13
6.24194e-14
2.65834e-15
2.46518e-14
5.04427e-14
3.51004e-12
2.55543e-13
6.81526e-13
5.28171e-14
1.00131e-12
0.00851979
6.17243e-14
8.5622e-13
0.0497293
4.5611e-13
8.85218e-18
7.41004e-16
1.64421e-13
2.95963e-18
7.82919e-05
5.72608e-14
1.50345e-17
8.5689e-13
3.83086e-13
4.92118e-17
6.90541e-13
9.97785e-14
5.80633e-15
1.17074e-14
3.82637e-14
3.54023e-13
1.3887e-12
1.1e-14
4.04769e-14
1.75754e-13
4.65405e-13
6.49555e-13
7.38532e-14
1.57627e-13
1.45995e-13
3.58528e-13
3.36367e-13
1.32451e-13
1.94538e-17
1.51678e-12
4.5733e-14
1.63083e-13
2.26717e-12
1.4512e-13
2.30879e-16
6.33631e-14
2.98177e-14
7.72298e-13
4.4569e-05
4.05664e-14
2.70235e-14
3.47005e-13
1.35545e-12
1.37531e-13
1.8405e-17
2.2005e-14
4.81934e-13
7.67468e-13
4.36987e-13
8.6095e-14
1.5069e-12
3.93887e-13
1.9421e-13
7.46575e-13
2.73149e-13
9.57474e-13
7.01516e-13
9.36456e-14
2.97883e-18
6.14581e-19
1.07493e-13
7.73533e-14
3.94021e-14
8.43978e-14
1.43227e-13
2.17463e-12
1.23871e-12
3.06989e-08
2.20149e-13
1.90489e-05
3.90244e-14
1.48641e-12
9.48565e-14
0.0134963
0.00553932
1.7872e-12
0.0835651
1.04695e-12
9.65371e-14
3.36306e-13
1.26491e-12
2.37379e-12
5.01254e-14
1.2116e-14
9.60964e-15
2.75074e-13
1.62626e-14
2.54363e-13
0.0567851
1.01405e-17
7.4188e-13
3.57354e-14
1.48131e-09
9.45896e-14
1.64053e-13
0.00343388
3.38032e-14
1.31176e-12
8.29925e-13
1.46302e-14
9.04841e-13
1.32648e-13
1.65303e-13
0.0106628
1.26978e-13
2.26474e-13
2.79542e-05
1.09995e-16
3.10611e-08
7.81263e-06
5.14548e-14
1.52686e-13
4.73285e-14
4.98737e-14
7.88579e-13
3.1669e-15
5.47531e-15
5.29474e-14
2.57942e-12
7.77721e-14
8.11116e-14
1.02576e-13
1.15521e-14
3.37302e-14
0.000904552
1.26772e-13
4.9707e-14
1.56084e-14
1.50687e-12
7.39194e-14
4.85027e-14
8.87698e-14
9.25602e-13
8.2188e-14
4.51733e-13
5.1492e-13
2.16745e-13
4.95623e-14
6.79443e-08
1.81741e-12
4.28237e-14
1.72331e-14
2.96683e-17
4.91243e-12
7.98452e-14
2.91808e-13
1.02964e-13
4.36365e-17
6.51582e-13
3.23104e-12
3.53889e-13
3.91905e-08
4.22651e-13
3.02458e-13
1.07886e-14
5.53403e-14
5.03173e-13
5.79661e-13
2.3624e-18
7.51447e-13
1.58258e-15
7.30579e-13
3.17758e-15
1.74885e-14
1.54983e-14
1.28966e-14
7.20432e-13
6.20579e-12
2.17914e-11
4.935e-13
4.91875e-14
1.00976e-13
2.4266e-14
9.7472e-05
1.45466e-13
9.5443e-14
2.88991e-13
2.33534e-13
2.48645e-18
4.43925e-12
1.57492e-12
1.79054e-12
5.25726e-14
3.05959e-18
2.31377e-13
2.96511e-13
1.63088e-11
1.86192e-14
1.14898e-12
1.66352e-14
4.51968e-12
8.0549e-14
1.39628e-12
3.54458e-13
2.75447e-13
1.90269e-13
1.37209e-13
2.51199e-14
0.000358327
2.11573e-12
4.33889e-13
1.3641e-12
2.92646e-08
2.88862e-14
9.38856e-14
2.7987e-14
4.26204e-14
1.90174e-13
1.05268e-14
1.95669e-12
1.06087e-13
3.46432e-17
1.26342e-12
1.4913e-12
2.31785e-12
4.48409e-13
3.22906e-15
6.49618e-13
1.68016e-09
2.29418e-13
1.82398e-14
3.13362e-13
4.98151e-13
8.5922e-14
3.66272e-13
1.23561e-13
7.3507e-15
7.57114e-14
1.11507e-12
1.77563e-17
1.71043e-13
8.1587e-13
3.24075e-14
6.22053e-14
1.30669e-13
1.37202e-13
1.7303e-12
1.2249e-13
2.68828e-14
8.01499e-15
9.29743e-14
8.16136e-13
2.28991e-13
2.36667e-05
2.91608e-14
2.30216e-13
9.81714e-14
4.04117e-12
4.25358e-11
2.01216e-12
8.6836e-13
6.467e-13
3.33483e-08
2.61915e-12
1.59884e-13
3.47014e-13
1.75326e-13
4.77901e-13
0.0858997
0.0389749
1.17365e-13
2.50181e-14
3.28805e-15
1.713e-06
3.28093e-12
4.86658e-14
1.24248e-13
1.28842e-12
7.9135e-15
2.78608e-13
1.99033e-12
2.11384e-12
3.06338e-12
6.26737e-13
1.24301e-13
9.39277e-13
9.83243e-15
1.45879e-14
1.11958e-14
7.8178e-12
4.84064e-18
2.19735e-12
1.98777e-14
3.10271e-13
8.8911e-14
4.30329e-12
4.41953e-13
3.78075e-14
1.3237e-06
7.9284e-13
6.41543e-14
0.00190181
6.49387e-15
3.22473e-18
2.03379e-13
3.26651e-13
4.86274e-12
2.14045e-12
2.47289e-13
2.30743e-12
5.31132e-14
7.59663e-14
0.00522537
3.57636e-14
9.1552e-13
6.293e-15
2.76904e-14
1.06555e-11
2.7438e-12
8.35348e-15
0.00756905
3.94408e-15
2.43996e-13
3.69126e-13
1.22139e-12
0.0727988
2.65202e-13
3.28246e-14
9.15604e-17
8.15105e-18
1.58406e-13
4.20518e-13
6.17444e-10
4.56699e-13
3.15669e-14
2.88125e-15
5.54452e-13
2.09911e-13
5.59733e-13
4.35321e-10
5.89491e-14
4.71618e-13
0.0514207
1.80035e-13
4.44101e-14
1.10596e-12
9.48447e-15
5.02751e-14
1.40373e-14
5.06409e-10
5.14961e-13
3.24666e-13
3.458e-13
8.66728e-14
2.40804e-13
6.94798e-13
0.00332815
0.0130502
1.57048e-13
7.11891e-14
1.44545e-17
2.32806e-12
1.16155e-14
1.14327e-13
2.52856e-14
4.98227e-15
2.23339e-13
0.128359
0.0869329
2.81444e-14
1.43068e-14
1.87965e-14
7.64338e-07
3.59482e-14
1.68829e-13
5.83015e-14
3.50083e-13
2.1085e-13
1.26536e-12
6.61706e-14
1.89346e-13
1.15844e-13
2.18524e-13
1.09828e-17
1.13371e-16
0.0245019
4.66756e-17
0.1062
4.59941e-13
1.15951e-12
3.16665e-13
7.59859e-18
3.71223e-09
0.0493936
8.17977e-09
1.63563e-14
7.65128e-14
1.22423e-13
1.80093e-13
1.78714e-13
0.0165398
2.41933e-17
1.30995e-14
1.09606e-12
1.54339e-13
4.60501e-16
3.58573e-13
3.8382e-14
8.95589e-14
0.0714682
8.52941e-13
1.09747e-13
3.93618e-14
2.97249e-13
1.09885e-12
0.0222458
1.75022e-13
7.83897e-13
3.3743e-13
1.29206e-14
1.73757e-14
3.54552e-13
2.22243e-13
4.64849e-14
5.73763e-13
2.29284e-13
1.10473e-12
3.13141e-09
1.19927e-13
1.26997e-17
0.00927544
2.99735e-14
2.03797e-13
1.44804e-14
7.28458e-13
3.29382e-14
7.93251e-15
7.79107e-05
2.26004e-12
1.71969e-14
1.31013e-14
2.04166e-12
3.82069e-14
0.000151624
5.3744e-14
9.78926e-13
6.0316e-13
8.31581e-14
1.07211e-13
7.60166e-16
4.93693e-14
7.41965e-14
0.0186777
3.35696e-13
4.91648e-08
3.30661e-12
4.65411e-14
1.24555e-14
6.7281e-14
1.81339e-12
1.23319e-13
5.85026e-15
2.34069e-10
3.16929e-14
1.35574e-12
2.05424e-14
9.57212e-14
3.11951e-14
7.10956e-12
1.1418e-10
9.04252e-14
5.47273e-13
2.17224e-18
5.65032e-14
1.2243e-12
1.03038e-12
6.78074e-17
5.39506e-15
0.0249666
2.65354e-18
7.85785e-15
2.89383e-12
3.17373e-05
5.98178e-13
9.60368e-14
2.4644e-13
6.65796e-13
8.21266e-14
0.0733859
7.73304e-18
3.24623e-13
4.77682e-13
1.07021e-13
1.26431e-12
5.45706e-06
5.22555e-13
4.63208e-13
1.01633e-13
2.18377e-13
4.74344e-14
5.43837e-14
3.7633e-13
1.41068e-13
7.15547e-13
2.48829e-17
7.01346e-15
2.0428e-11
2.77819e-14
4.3996e-13
2.78089e-13
3.20537e-15
1.44905e-13
2.28231e-18
3.48372e-13
2.0279e-13
2.10631e-13
3.21486e-19
1.41413e-13
1.74339e-13
2.31518e-13
1.11623e-12
1.40703e-13
9.90242e-13
3.96933e-13
2.43702e-14
9.54435e-15
1.99735e-12
5.51926e-13
2.97896e-14
1.34313e-13
2.5377e-14
2.06972e-13
2.16229e-17
7.14278e-15
4.43217e-11
7.28345e-15
5.15524e-18
6.62577e-14
1.1854e-12
1.13754e-12
7.20694e-13
4.80265e-14
2.02405e-14
4.64906e-10
4.25899e-13
0.00275194
1.56252e-18
1.6131e-15
2.02474e-13
5.41211e-12
1.68763e-14
2.2199e-18
1.0953e-05
3.61983e-13
0.000710897
9.62179e-07
6.46161e-13
7.90932e-14
2.01872e-14
6.586e-14
2.4084e-13
1.94372e-16
2.81115e-13
2.03705e-12
8.45064e-12
9.74e-13
5.06541e-15
4.0111e-14
4.40507e-13
4.21207e-14
1.10309e-14
6.09985e-15
2.64252e-14
7.68295e-13
2.69678e-13
1.50414e-13
1.05354e-12
5.01919e-14
0.0760058
2.86657e-13
1.09343e-12
5.05976e-18
3.24881e-14
2.6542e-14
7.19355e-14
4.16778e-14
4.69712e-15
4.87411e-13
6.71248e-13
3.18721e-13
9.54184e-13
1.06735e-12
4.35211e-13
1.9018e-13
2.25419e-12
0.000525655
1.02415e-13
5.49997e-13
2.13346e-13
2.17648e-13
5.8985e-14
2.14237e-13
4.67528e-14
2.37496e-12
6.68646e-14
6.16111e-13
5.9857e-14
1.51411e-14
1.57549e-17
3.29653e-14
1.90276e-14
1.14584e-16
2.57379e-12
6.99311e-14
3.88063e-18
9.13475e-05
2.96631e-13
1.05699e-13
4.68231e-14
2.85883e-17
3.68151e-13
9.51652e-12
5.05481e-13
1.99009e-13
5.04605e-18
2.11843e-13
4.19544e-15
9.48381e-14
0.00558221
2.29944e-13
6.31682e-14
2.86982e-14
1.90212e-13
6.20052e-14
4.83097e-13
1.64876e-14
1.16951e-13
1.17264e-13
0.00441669
6.579e-13
0.012
1.06495e-13
5.62839e-13
1.63066e-13
8.09635e-14
7.50264e-13
5.14969e-14
4.92834e-14
8.40035e-19
6.02261e-14
5.3947e-17
2.41073e-14
7.59661e-14
0.000647441
7.96133e-12
5.17602e-15
2.86338e-14
6.59433e-14
5.46024e-14
2.21814e-13
8.27067e-13
1.7465e-16
1.07635e-12
8.06997e-15
1.19413e-13
1.02532e-12
3.71919e-13
6.01504e-13
7.29768e-14
0.00428308
5.41005e-13
5.40925e-14
1.20969e-14
5.90555e-13
7.24429e-13
5.81115e-06
2.72221e-14
8.14083e-14
2.27136e-13
9.11994e-12
1.40451e-14
1.30246e-13
6.74812e-14
9.27278e-14
1.68843e-14
1.03722e-13
6.39935e-12
4.33244e-07
7.3464e-14
6.80751e-14
3.64516e-13
1.35067e-14
1.24919e-07
5.5859e-14
6.5238e-17
1.02933e-12
2.22589e-13
2.40683e-06
2.48559e-13
4.43699e-13
1.46886e-14
1.40764e-11
1.86964e-13
0.0397294
5.54109e-13
8.22656e-14
2.37127e-14
2.70124e-14
1.64117e-13
1.5166e-12
3.4512e-14
4.03927e-12
6.9107e-16
5.5218e-09
7.51526e-14
1.88027e-12
0.038801
3.58644e-13
9.17735e-16
5.59374e-13
3.06594e-16
3.1153e-14
2.73714e-13
2.14023e-13
5.36232e-09
1.6084e-14
2.68926e-13
5.95623e-15
1.43137e-13
1.85742e-14
1.51106e-13
1.99531e-12
2.12083e-13
2.49834e-12
2.07693e-13
2.17298e-13
2.62375e-14
1.47095e-12
9.62205e-14
1.01896e-13
1.85685e-13
1.18288e-12
2.77794e-14
2.18151e-05
7.73754e-14
4.17926e-14
3.72034e-13
1.05452e-13
1.16535e-14
4.33877e-19
1.41896e-13
1.3736e-13
8.54305e-14
1.06939e-13
1.73631e-06
2.7765e-13
7.21549e-14
7.98053e-14
4.00091e-13
5.29334e-13
5.80663e-17
4.63088e-11
1.78746e-13
6.48362e-13
7.60234e-13
1.30195e-12
1.06718e-12
1.20235e-12
2.14191e-13
1.50271e-13
1.92421e-13
2.87829e-15
4.29996e-13
5.90991e-14
7.55172e-06
5.75433e-13
3.49452e-05
1.82465e-12
6.03506e-16
2.73034e-18
2.94543e-14
1.60246e-13
8.33914e-13
6.05021e-13
2.02474e-12
1.9396e-12
1.8065e-12
6.70379e-14
7.38089e-13
3.87908e-12
3.69048e-13
1.66818e-13
4.21474e-15
2.78959e-13
1.23995e-14
1.65193e-12
3.23668e-13
0.0106912
5.927e-16
3.47355e-13
6.05162e-13
6.29579e-13
0.00337453
4.66702e-14
0.0498818
2.11014e-14
3.80027e-18
4.18282e-14
1.73478e-13
1.36217e-14
1.14761e-14
7.86818e-18
1.56779e-13
1.1166e-06
3.83229e-12
8.00113e-13
1.31025e-14
7.28122e-14
5.66657e-11
0.00593421
4.51889e-13
1.00024e-13
1.6495e-12
2.01322e-14
1.5748e-11
7.50702e-13
4.57418e-15
5.37116e-17
4.46902e-14
4.69373e-13
3.18237e-13
4.05581e-14
1.3831e-13
1.15458e-13
7.14532e-12
2.67437e-12
0.000202675
9.96611e-18
1.26493e-17
3.27498e-13
4.99665e-14
1.97955e-14
3.24609e-14
6.53346e-14
4.10277e-14
3.50609e-14
0.05565
3.62535e-14
3.24506e-14
2.30004e-14
1.14549e-14
4.2913e-14
1.9773e-12
6.60984e-06
1.43818e-12
1.25423e-14
4.27541e-09
5.21047e-13
8.1644e-16
8.35084e-14
1.75328e-17
0.120512
5.85926e-13
9.04497e-18
0.00491667
3.0661e-14
9.42245e-17
3.51578e-14
5.03858e-06
1.35606e-11
3.40772e-13
3.92421e-15
2.53598e-14
8.3232e-10
2.46294e-07
3.15214e-09
8.93511e-06
2.0136e-12
7.50615e-14
3.86475e-14
6.95371e-13
1.33766e-12
2.51381e-14
3.50086e-16
2.66678e-14
4.1391e-14
6.90682e-16
3.75117e-14
2.74235e-16
2.55117e-15
9.31745e-14
7.36184e-14
8.32475e-14
3.06777e-15
1.01984e-13
1.75419e-13
8.72493e-13
1.08279e-16
1.03099e-12
2.02053e-13
1.14441e-13
0.0797772
1.09503e-14
2.39813e-16
1.33843e-12
4.31681e-14
5.99716e-15
3.1497e-13
5.74046e-14
0.0305276
1.53748e-14
2.24511e-14
2.90663e-14
1.92411e-13
9.25643e-15
2.1072e-13
1.90465e-14
6.34861e-14
2.30958e-16
6.98814e-14
2.7999e-14
0.000786124
9.78983e-05
7.67146e-14
4.9146e-14
4.53882e-12
4.14564e-13
1.52606e-14
1.73173e-13
1.79138e-14
1.82073e-12
1.14359e-12
0.0156722
1.73321e-14
3.42234e-13
8.39064e-15
3.25722e-15
1.84687e-13
1.61481e-14
1.16046e-12
7.74173e-13
6.48429e-09
6.67994e-17
2.05718e-13
6.3978e-14
2.82373e-14
7.90014e-14
3.5071e-14
1.50742e-13
5.71232e-13
7.54464e-14
8.10394e-17
1.19109e-14
9.79336e-14
8.28836e-16
5.16004e-18
2.45795e-14
4.09662e-18
8.6428e-14
2.43852e-07
1.51349e-09
2.49231e-13
1.90638e-14
8.20564e-13
3.64145e-14
7.65131e-14
2.36237e-14
1.54584e-12
5.07065e-13
5.11277e-16
7.52268e-15
4.43255e-14
3.68411e-13
1.00523e-13
1.87984e-13