/*--------------------------------*- C++ -*----------------------------------*\
  =========                 |
  \\      /  F ield         | OpenFOAM: The Open Source CFD Toolbox
   \\    /   O peration     | Website:  https://openfoam.org
    \\  /    A nd           | Version:  10
     \\/     M anipulation  |
\*---------------------------------------------------------------------------*/
FoamFile
{
    format      ascii;
    class       volScalarField;
    location    "10";
    object      SgRate;
}
// * * * * * * * * * * * * * * * * * * * * * * * * * * * * * * * * * * * * * //

dimensions      [1 -1 -3 -1 0 0 0];

internalField   nonuniform List<scalar> 
59698
(
0.0031335
0.00189085
0.00238959
0.00281638
1.23875e-06
0.00145199
0.00256046
1.07362e-07
1.96748e-09
3.72626e-09
0.000586439
1.60244e-09
1.62874e-09
0.00237507
2.94215e-08
4.27786e-07
1.03111e-08
3.3015e-09
2.0663e-09
6.57957e-09
0.0958927
1.68781e-06
0.0393141
8.81923e-08
2.25827e-07
1.00104e-09
7.34569e-10
0.00265716
0.00249701
2.10182e-09
1.3765e-07
0.000600679
6.67585e-08
0.00425294
1.36535e-06
3.5203e-09
0.000497374
4.93824e-07
1.54638e-08
0.00258135
2.41012e-09
2.30449e-07
1.74954e-09
2.05943e-08
0.000402113
9.00032e-08
1.75161e-09
5.28218e-08
0.00302396
3.39409e-08
7.21143e-10
1.10771e-09
0.00178011
0.00284251
0.00225279
1.9429e-09
8.75876e-08
1.75426e-08
1.59844e-08
6.41091e-05
0.0018352
6.3066e-08
4.82746e-07
1.38715e-09
4.95713e-07
4.26075e-08
1.74446e-09
2.53482e-09
3.45061e-09
6.89036e-09
6.02012e-07
3.31962e-08
0.000361493
0.00027042
0.000411962
0.000335643
2.71781e-08
3.67978e-08
5.43717e-09
8.58689e-09
5.07669e-07
7.39511e-10
4.06668e-09
9.791e-09
0.0126964
3.35892e-08
8.98794e-09
2.22928e-07
2.45068e-06
2.38057e-08
4.54018e-09
6.51437e-08
1.77211e-07
5.86194e-09
6.20006e-08
0.00372198
1.47371e-07
5.22292e-08
5.2512e-08
8.87711e-10
0.00374093
2.16741e-05
2.78952e-07
0.00330635
4.93859e-08
0.000564786
2.29493e-09
2.09241e-09
2.7735e-09
4.1805e-10
3.43769e-08
2.76098e-06
1.41581e-06
1.56288e-07
9.10539e-08
2.76257e-08
3.57215e-07
0.0036666
2.73083e-07
1.12705e-08
1.60656e-09
3.00428e-07
2.55834e-07
2.25224e-09
1.07282e-09
4.64094e-09
1.37275e-09
7.19637e-09
1.08291e-08
3.88182e-07
0.00341167
3.13504e-09
2.6765e-07
1.88188e-07
4.89495e-08
1.97089e-09
4.96687e-07
2.33483e-10
1.60899e-09
4.58767e-09
2.17521e-08
0.00240754
0.00258405
1.18146e-09
1.96296e-07
5.15831e-10
5.48456e-07
3.92451e-07
0.00466409
8.34497e-07
0.000256489
0.000434539
5.50172e-08
2.65558e-07
3.39723e-09
1.0636e-07
3.85547e-09
0.00169312
1.50643e-08
5.9066e-10
1.95995e-10
6.29915e-09
2.15619e-08
1.01049e-07
1.2803e-08
0.00231573
9.64924e-10
0.000648368
0.0016597
7.52561e-09
2.76015e-07
1.44002e-06
2.27983e-07
9.88784e-07
5.78419e-07
0.00126306
4.38172e-09
0.00139382
0.0003361
0.00310965
2.41276e-06
8.27726e-07
4.31262e-07
1.22232e-08
2.30199e-07
1.02731e-07
3.9781e-07
0.00247511
1.62374e-10
1.49359e-08
6.74413e-09
6.06141e-09
3.33517e-08
6.31204e-07
3.46955e-08
0.00432868
1.8661e-06
0.00308335
0.0608064
2.24312e-08
0.000227056
6.63915e-07
2.28034e-09
1.65472e-09
0.00385234
0.00250416
2.01335e-08
0.00216022
0.00279309
0.00370125
0.00250605
5.86468e-09
0.00283752
1.56719e-08
1.18173e-09
0.00349834
8.14403e-09
4.49769e-08
2.42217e-08
7.4504e-09
2.1038e-05
0.00227737
1.61778e-09
4.3278e-07
1.03756e-08
0.00292245
7.05612e-09
6.47887e-09
4.86698e-08
0.000129622
7.80945e-09
1.50336e-08
7.95672e-09
3.7462e-09
8.68642e-09
1.10603e-09
1.988e-07
2.06507e-08
1.82675e-07
7.1529e-09
0.00270538
1.15688e-07
1.26599e-08
0.000664542
4.25511e-09
2.00697e-07
2.84289e-05
0.000236235
3.4017e-09
5.73266e-09
5.7965e-08
5.57341e-09
2.89865e-08
0.000233617
1.5558e-08
0.00176804
1.07964e-07
5.78238e-08
0.00324611
1.41115e-09
0.0226151
1.87541e-09
6.40711e-09
0.00282694
0.00374081
9.02562e-07
1.48176e-09
1.07457e-07
2.04382e-08
3.23546e-10
2.65261e-09
1.52838e-06
0.0213918
3.09526e-10
1.09711e-07
4.50879e-08
0.00151341
3.44834e-08
1.61551e-09
5.56233e-08
0.000574134
3.15346e-09
1.6231e-09
4.66168e-07
0.00349119
1.05177e-07
3.07183e-09
0.0350442
3.76653e-07
1.07711e-07
0.000528963
0.00237839
6.76789e-09
1.62894e-09
7.36229e-07
0.00284023
1.87789e-09
1.63541e-07
3.04126e-09
6.46792e-07
2.23124e-09
2.3569e-09
6.86895e-08
1.03206e-09
1.04347e-09
1.01719e-09
3.55325e-07
2.31226e-08
5.30034e-09
3.48958e-10
0.00196375
4.08122e-08
3.79397e-09
2.3786e-08
0.00198735
4.19724e-09
0.000403393
7.80372e-09
0.000829309
9.00196e-08
9.67586e-08
0.000445145
1.55067e-08
2.97038e-09
0.00673624
1.52518e-07
1.50333e-08
8.45478e-09
1.07213e-09
0.000361929
0.00307583
3.92575e-08
3.78269e-07
0.000202621
0.00043095
7.78766e-09
7.20432e-09
3.53351e-09
5.2441e-08
0.00125325
2.87632e-08
0.00215898
0.00259288
3.31911e-09
1.23927e-07
9.88101e-10
1.37107e-09
1.21478e-06
1.79257e-09
0.00208039
4.18111e-09
7.78038e-09
1.30483e-06
7.95417e-10
1.1129e-05
0.00204972
2.86515e-06
1.09233e-08
3.25308e-08
1.78051e-09
2.41383e-08
9.0925e-09
0.000545638
3.22801e-09
1.30135e-10
1.04122e-07
0.00289535
0.00206791
2.73309e-08
1.10542e-06
1.23582e-07
0.000533985
0.00377235
0.000651145
2.29376e-09
2.97882e-09
3.71412e-08
2.5704e-09
0.000460575
2.43104e-09
0.000347124
4.72725e-08
4.3624e-08
4.62712e-08
6.60478e-10
6.8061e-06
1.06164e-08
0.000544805
7.94402e-10
3.95178e-08
2.30368e-08
0.000457503
0.00343178
4.27067e-09
0.0367082
0.00191753
5.67953e-05
0.0018948
0.00278847
7.91004e-08
0.002496
0.00247326
0.00266306
2.85442e-09
0.0015442
0.00433834
0.0040138
0.00286181
5.07273e-09
8.77539e-07
2.01558e-07
0.000404272
0.00171441
0.000436143
5.60261e-10
2.0414e-07
1.97639e-09
1.56559e-05
0.00202324
0.00187956
0.00304624
0.00226399
0.00256132
0.00209212
7.55208e-09
2.21694e-09
3.0185e-08
1.85738e-08
0.00143902
5.7701e-10
6.73781e-09
0.00401052
0.00117508
1.83954e-08
3.82662e-08
1.43579e-08
0.000257114
0.00781197
5.6932e-09
0.00215611
1.92336e-07
0.0033076
8.61949e-08
4.55779e-08
1.99673e-07
2.13622e-06
8.54782e-08
4.52244e-10
1.93073e-09
4.50511e-08
0.00263107
3.9446e-09
7.31572e-08
1.97709e-06
6.32129e-07
1.10071e-07
3.50455e-07
1.38817e-09
1.14712e-06
1.7056e-07
6.10781e-08
4.4139e-09
0.00321619
6.97649e-09
2.19166e-09
2.11496e-07
3.50442e-07
1.14149e-08
4.23766e-08
9.24707e-10
0.0025768
3.9824e-09
2.09792e-10
7.68872e-09
6.29696e-08
2.10403e-06
8.43582e-07
2.13446e-09
0.00310416
0.00201722
2.10792e-08
2.18785e-07
1.41032e-08
1.92509e-08
2.68442e-07
3.74837e-08
4.51962e-08
1.77768e-08
3.04933e-09
2.54772e-09
2.17064e-07
4.12329e-07
1.20488e-09
4.24754e-08
0.00404717
2.22065e-07
1.53679e-08
0.00245723
5.13462e-09
0.000365594
9.87557e-10
1.22894e-07
7.28182e-08
6.00068e-09
1.7146e-08
1.12151e-09
8.09318e-08
2.21755e-09
3.85902e-09
2.06139e-09
4.10602e-09
5.75907e-09
1.42158e-06
5.41907e-08
1.23774e-08
1.76719e-09
6.87554e-09
7.92732e-09
7.04079e-08
2.48808e-08
3.29042e-09
1.37898e-09
4.55105e-09
3.7796e-09
2.19149e-09
6.83895e-06
4.9154e-08
1.60125e-09
0.00345305
0.00378858
2.22861e-09
0.00602649
1.82774e-08
3.49597e-09
0.00150994
3.58233e-10
1.35518e-08
0.0018173
1.9322e-09
0.000384867
1.12818e-08
2.10719e-09
3.6899e-08
7.11554e-05
6.11988e-09
1.11156e-09
2.72559e-05
0.000166599
5.46958e-09
7.38751e-06
1.51616e-08
3.84882e-09
2.69516e-08
1.91375e-09
2.88456e-09
1.19722e-08
1.91032e-08
1.58499e-08
1.12258e-09
6.55027e-09
0.000768502
1.74067e-09
1.26424e-08
1.06747e-05
1.23236e-08
1.80933e-09
1.77729e-06
1.7755e-08
7.20992e-09
0.000539273
5.9573e-10
7.08968e-09
1.92369e-07
3.16727e-09
3.66323e-08
7.85516e-10
3.07649e-10
7.38157e-10
0.00210143
2.31507e-09
0.000732639
4.1003e-08
0.00323558
1.20073e-08
5.85422e-09
0.000313403
1.47232e-09
7.90285e-09
1.77806e-08
1.90066e-08
1.9058e-09
0.00334289
5.54154e-09
1.32134e-08
1.02872e-09
3.14301e-08
0.00361941
0.00264502
0.000349778
7.22623e-09
6.34335e-09
1.46387e-09
2.9922e-09
0.00351238
1.60473e-08
5.07379e-09
1.43329e-09
0.00108766
0.00395256
1.38259e-08
1.20925e-08
7.56497e-10
1.10461e-08
4.22912e-09
2.50398e-09
4.0657e-09
4.4149e-09
3.36845e-08
0.0288355
6.41701e-09
5.25609e-09
6.23065e-09
1.64583e-08
0.00287349
0.00253446
1.14732e-08
0.00269027
1.97414e-09
8.62942e-09
5.29857e-09
0.00282948
0.000211156
1.5812e-09
8.59233e-09
1.03717e-09
2.99436e-08
1.31766e-08
2.32391e-09
0.00157118
0.00327526
1.31986e-07
1.62863e-07
0.000607862
2.24881e-09
5.17435e-09
2.39852e-09
4.20959e-07
0.00219218
3.98403e-08
1.77949e-09
0.000439479
5.23622e-09
4.48923e-09
4.21923e-09
1.71092e-09
3.14925e-09
6.73761e-10
0.0508075
3.85545e-09
0.00188177
4.91495e-08
1.07368e-07
5.0634e-09
4.18608e-06
0.000764817
7.18506e-09
2.14275e-08
0.00239566
0.00321327
7.67754e-08
3.78492e-09
7.79347e-07
1.96769e-09
0.00357303
2.41684e-10
1.44912e-08
0.000428464
0.00266174
2.4995e-09
1.05357e-09
2.03505e-07
6.11545e-07
3.53426e-07
0.000378105
0.00143469
1.46277e-10
4.81213e-09
1.48867e-09
4.65953e-09
0.00289333
2.54951e-08
0.0031897
1.09074e-08
0.00135519
0.00215077
0.00245806
6.61585e-08
3.17432e-09
0.000650602
7.61854e-10
2.29556e-10
9.40353e-10
3.00587e-09
1.72751e-08
5.32279e-09
8.85375e-09
1.05907e-07
7.0303e-08
1.09667e-08
2.73182e-09
0.00192477
4.17961e-08
3.91115e-08
0.000361855
7.7358e-09
1.41267e-08
9.38155e-09
1.4938e-09
3.05978e-09
0.000646949
0.00206645
0.0025952
3.16619e-09
8.07688e-09
3.91501e-09
5.18028e-09
0.00203217
1.38481e-09
6.06317e-07
2.49942e-08
1.78027e-05
0.000344752
0.00174284
2.31594e-07
1.48053e-07
8.70452e-09
0.00443204
0.000532344
1.94028e-08
1.28869e-05
4.05952e-09
7.25339e-08
0.000909817
0.00246043
2.03385e-08
1.24626e-07
9.9599e-08
1.72859e-05
2.3131e-08
0.0018828
2.09658e-09
5.44019e-08
8.59867e-09
0.00224197
6.81002e-10
3.97586e-09
2.26989e-07
0.00301139
0.000599773
1.13238e-07
4.3261e-09
0.000383622
1.25083e-08
4.18527e-09
0.00196274
0.0022377
1.93091e-09
9.73681e-09
0.000401533
1.42904e-08
3.08095e-09
0.000373924
3.4659e-10
0.00273372
2.67422e-09
5.31015e-09
1.88366e-07
4.4203e-09
6.06842e-08
5.92983e-08
0.0362127
3.72929e-09
1.36572e-08
2.10523e-09
1.03858e-08
9.95406e-08
1.83331e-08
0.000326095
6.35234e-09
1.65689e-08
0.00145745
4.73894e-08
1.06438e-07
0.00845642
0.00193607
6.27921e-05
0.00054125
6.71007e-09
0.000383029
1.633e-08
3.03561e-09
1.62751e-09
0.00323978
3.95848e-07
1.06509e-08
7.19392e-05
5.42728e-08
0.00162499
1.69396e-07
1.48445e-05
3.5281e-09
0.00100449
3.48024e-09
0.00130038
0.0708941
2.6241e-07
0.000651795
0.0018515
1.31021e-06
0.000227617
3.31987e-09
7.15727e-06
2.51268e-08
4.14503e-05
0.000444805
0.000428661
0.00216461
3.20737e-08
3.39331e-08
0.000561239
2.92252e-08
0.00234804
4.3369e-10
0.00040118
2.01356e-09
3.21992e-09
2.93296e-05
0.00050368
0.000205912
0.000108548
1.11728e-08
4.9814e-09
1.87217e-09
0.000487476
2.1147e-09
0.00358786
0.00488193
3.09554e-09
0.000499758
1.44513e-09
7.62122e-10
3.15877e-09
8.20933e-06
0.000469616
3.09651e-09
1.28464e-09
1.11649e-06
6.72789e-10
1.09951e-07
3.62396e-09
3.30559e-09
9.92583e-09
2.63805e-07
1.34291e-09
1.16472e-08
0.000532617
7.48941e-10
0.000127646
3.56088e-10
2.4734e-09
0.00127985
1.57397e-09
8.08496e-06
8.98265e-08
1.03142e-08
0.000108821
1.28273e-08
0.00162325
2.96824e-08
4.88893e-10
0.00180452
6.53065e-09
9.85843e-09
0.000307138
1.2674e-09
0.00211893
1.83295e-08
3.16245e-09
0.0043927
3.06303e-09
3.17995e-09
2.20422e-09
6.32425e-10
0.00031993
3.20781e-09
1.28156e-09
1.53783e-07
0.00191427
0.000633472
0.000584066
9.21564e-09
2.91249e-09
0.000379941
0.00244319
3.63135e-09
7.94848e-09
6.65892e-08
1.2708e-08
2.35746e-09
3.9445e-09
0.000412236
0.00150094
0.00272189
1.49428e-07
2.03806e-09
0.00275795
0.00413618
0.00537202
2.14846e-09
2.5159e-09
1.64858e-07
4.67506e-07
1.39101e-08
2.31704e-08
8.75593e-07
2.78111e-08
3.75895e-09
3.95746e-09
1.40278e-06
9.18439e-08
6.91959e-09
0.00260453
1.77181e-09
8.53206e-09
2.01823e-08
3.08788e-08
3.85115e-09
3.83634e-10
0.000761146
4.77835e-09
3.21835e-09
0.0019813
3.1287e-09
2.04792e-09
0.0032896
2.83765e-08
3.47203e-07
6.03365e-09
1.61508e-08
2.50314e-08
0.000823252
2.67e-08
0.00227381
1.86793e-07
2.08305e-07
2.97236e-08
0.00553696
0.000379094
2.691e-09
5.54716e-09
1.0087e-06
1.45515e-09
1.27436e-08
1.02489e-09
0.00174412
6.24509e-10
1.00401e-09
6.66327e-09
5.76952e-09
3.33721e-08
2.38871e-08
7.06233e-09
0.000429194
0.00229793
0.000466223
6.32768e-08
0.0031941
0.00273784
6.59618e-08
1.63446e-09
0.00191744
5.36627e-05
0.00165697
0.0021625
0.00212491
3.96385e-09
5.63111e-08
0.00248421
2.39198e-07
2.31388e-08
1.93252e-07
2.14494e-08
0.000443675
2.18635e-08
0.000538421
1.72913e-05
2.32286e-08
0.0020931
1.22202e-08
0.000608638
7.23894e-09
1.24761e-08
6.17771e-10
2.7722e-08
0.0015911
0.00376447
1.36186e-09
0.000395619
0.00196141
0.00140692
0.00293055
5.76213e-10
4.00511e-09
7.91238e-10
0.00380433
1.27286e-09
1.34144e-07
0.00381048
5.76047e-09
0.00360866
0.00376596
0.00377151
5.33846e-09
9.68395e-08
3.39274e-09
5.6431e-10
9.17633e-09
6.93412e-08
1.23344e-08
6.95445e-09
0.000475234
2.93409e-09
2.08312e-08
2.85386e-07
5.23569e-10
0.00168479
2.74221e-09
2.61857e-09
5.78881e-08
4.39831e-10
7.4087e-08
2.27732e-09
2.02052e-07
0.00319791
0.0129699
6.38567e-10
1.56418e-08
0.00217522
0.00323176
1.78041e-07
0.0253487
8.59672e-09
1.89194e-09
0.00269626
2.5199e-08
0.00325846
0.000542246
1.04777e-09
7.26637e-08
0.000765806
2.06327e-08
2.04388e-08
0.00260318
7.53276e-09
1.05406e-08
3.1198e-09
0.000534649
6.48653e-06
0.00200364
3.74347e-05
3.63507e-06
0.00182144
1.35324e-07
2.44928e-10
1.11941e-05
2.93959e-09
7.05278e-07
0.00133325
1.476e-09
5.54294e-10
9.80888e-09
6.47573e-09
1.54788e-08
6.56115e-09
7.59656e-09
1.06377e-06
7.94067e-10
1.66763e-09
0.00176855
2.9541e-09
0.0108532
2.95099e-08
2.95131e-05
0.000615483
1.22423e-06
0.00527869
1.2905e-06
2.9258e-09
1.39887e-08
0.00106893
0.000513971
4.85021e-09
3.80544e-09
2.30519e-08
0.000449091
2.09603e-05
7.18171e-08
2.28899e-07
3.86964e-09
0.00242136
6.13004e-09
9.35906e-09
2.10055e-08
9.37025e-09
2.99215e-08
0.00226769
7.65373e-09
2.66755e-08
1.56826e-08
5.2941e-09
0.000477737
2.24972e-09
4.21269e-09
8.50968e-09
2.50164e-10
1.35505e-09
8.48682e-09
6.62109e-09
1.28819e-08
0.0708597
1.22822e-08
1.10116e-08
2.62097e-09
5.06302e-09
9.45598e-09
2.68456e-09
5.73401e-08
0.000380629
0.00249593
1.5464e-08
1.11679e-08
0.00292009
1.10513e-09
0.00902927
0.00215736
3.4866e-09
7.73912e-07
1.62692e-06
0.00209066
2.46232e-08
2.59544e-08
2.29342e-07
4.60408e-05
8.69039e-07
2.30383e-07
4.68975e-10
3.41638e-09
4.35271e-07
1.40439e-07
6.01193e-09
1.61091e-09
5.51564e-09
7.53603e-09
3.01957e-06
0.00136511
5.74516e-08
4.03316e-08
5.46499e-08
0.00280924
0.00253928
9.51933e-07
1.33758e-08
3.78002e-08
4.21669e-08
4.9773e-09
2.86532e-09
1.83206e-07
4.22131e-09
2.57486e-08
1.3397e-09
1.11607e-08
1.82334e-08
2.16929e-09
4.28965e-07
2.79141e-09
0.000434431
1.01809e-07
0.00403815
0.00168984
1.01955e-07
3.47344e-08
0.000579702
0.00034517
2.62934e-08
2.30965e-08
9.21591e-06
5.16995e-08
1.75284e-09
2.14919e-08
1.60658e-08
0.00078138
0.000646984
1.04408e-08
1.12146e-08
6.97104e-09
3.44257e-07
5.3015e-08
0.00275884
0.000496419
1.34323e-08
0.000239263
6.26203e-09
0.000315472
0.0224113
0.000224082
2.19449e-08
1.14446e-07
1.95523e-09
4.15811e-08
1.92632e-08
0.00244523
4.89667e-09
4.18145e-08
5.09672e-09
2.86168e-09
0.000365405
0.00204721
0.00235125
2.23441e-08
3.20569e-08
0.000377597
6.85404e-09
1.03485e-06
1.04372e-08
0.00312131
9.49564e-09
1.77426e-08
9.61638e-05
0.00279327
6.78184e-08
4.44914e-09
0.00134281
1.10526e-08
4.73078e-10
1.39509e-09
2.66121e-09
5.44807e-09
1.39184e-08
6.19864e-10
1.88446e-08
3.87422e-08
1.303e-08
6.99012e-08
1.23872e-08
5.83844e-07
0.00198918
2.78781e-09
1.3059e-08
4.72511e-08
0.00212169
8.88579e-07
3.24125e-09
0.0385008
2.90791e-09
2.25157e-07
1.45864e-07
0.000983779
3.68133e-07
2.68758e-10
0.000221973
2.09284e-09
1.23042e-07
6.1853e-08
3.58348e-09
1.4283e-07
6.88482e-09
7.62604e-08
5.66455e-10
0.000584265
5.22295e-08
0.00213038
1.60891e-09
5.00551e-08
2.43523e-06
1.07318e-08
0.000164173
5.18717e-09
6.49183e-10
2.21779e-07
3.79934e-08
3.34792e-09
1.84471e-05
6.10933e-08
7.73118e-08
0.000547258
3.01664e-09
0.000563699
2.82345e-08
2.89545e-09
9.38747e-09
8.29041e-09
8.40557e-09
4.21325e-07
3.09255e-07
1.55878e-07
0.00246794
2.06835e-07
0.00403208
0.00224569
0.00341317
9.97271e-08
2.15816e-07
0.00157692
4.10924e-09
2.21741e-05
2.00977e-08
0.00250164
5.64129e-09
0.000635602
0.000492195
2.54761e-09
0.00268954
1.04022e-05
0.00272507
1.20159e-08
0.00252744
5.58872e-08
0.000340344
1.39424e-09
5.13768e-09
1.26507e-08
0.000746652
8.35046e-07
6.28834e-10
1.94404e-08
6.57103e-10
0.00053314
0.000313625
6.13715e-08
0.00196014
2.50959e-07
0.00054462
3.25549e-08
4.23604e-10
6.03167e-09
2.48684e-09
8.13912e-08
2.31226e-05
3.74778e-09
1.36566e-06
3.87113e-08
3.49861e-08
4.2889e-09
0.000102159
2.19263e-07
9.56224e-10
6.39733e-09
0.00043245
1.08259e-06
7.69139e-08
0.00156984
1.74691e-06
1.49414e-06
9.51774e-09
3.44239e-09
3.53544e-09
0.000683601
2.52965e-08
3.89533e-09
1.75888e-08
3.62888e-07
1.00388e-06
6.41891e-06
1.82204e-09
2.27748e-05
6.74551e-07
6.50623e-09
1.71118e-08
0.00325841
2.17335e-09
9.2511e-10
0.00246402
0.0022969
6.04758e-08
2.40288e-09
1.09853e-09
3.42208e-08
0.00193661
2.55499e-07
0.000144726
8.57471e-10
5.57419e-07
2.69624e-08
0.0011221
0.000444878
0.000267771
2.07878e-08
0.000839431
0.00197768
0.00669386
2.23605e-09
1.58713e-08
0.00119177
1.30598e-08
7.16887e-07
6.11767e-07
6.06229e-05
1.25252e-06
8.42444e-09
0.00163408
2.1987e-05
3.51774e-09
1.22368e-08
1.53466e-09
0.000427676
0.000115028
1.37818e-08
0.000637651
1.94033e-05
7.20385e-05
0.00291531
0.000399002
0.00283976
0.00196863
0.00221777
4.53855e-10
0.000596356
1.05074e-07
0.000995439
0.00520457
2.20462e-06
5.02152e-07
3.44141e-07
1.20795e-08
3.24652e-07
0.000761567
5.09851e-06
8.95629e-10
0.0128023
1.50705e-07
0.000207826
1.79556e-07
4.22106e-07
6.93858e-10
3.9844e-07
2.18908e-07
0.00157545
2.24543e-07
2.46157e-08
1.41497e-07
2.59638e-05
0.00140341
0.00136869
0.00311846
4.85204e-09
0.000502764
0.00155552
0.00184574
0.00150906
2.48895e-07
0.00224401
2.40295e-07
4.28014e-09
3.65894e-09
9.72087e-09
0.00153258
0.00184214
3.62126e-09
1.37947e-08
8.51561e-10
4.13322e-07
0.000301274
0.00377054
0.00140913
8.25807e-08
0.00254955
8.306e-10
6.36098e-09
0.00113304
0.000804551
2.58554e-09
2.07711e-05
1.85046e-09
6.55865e-09
0.00357085
5.94259e-09
0.000423325
1.16877e-09
0.00037871
0.000405421
0.000581351
0.0019869
3.37684e-07
0.00161691
1.0911e-09
1.29462e-05
0.00046051
0.00127168
0.00225992
0.00112434
1.19998e-09
0.00126916
1.02775e-09
1.26595e-08
0.00297103
1.64015e-07
0.000166786
6.10524e-08
5.7026e-08
0.000573419
1.52301e-06
2.4819e-09
1.46875e-07
0.000531395
0.000403294
0.00238116
2.77942e-07
5.70044e-09
0.000614708
1.3292e-08
1.22714e-08
5.44498e-08
6.29848e-07
0.00225571
1.51131e-08
0.00251828
2.51749e-09
0.000256166
0.00443218
9.47601e-09
7.2887e-05
0.00254167
5.21093e-05
9.63038e-06
2.46141e-09
0.00178322
0.00284906
5.06141e-10
0.000489071
8.81931e-06
0.00061878
1.95838e-08
9.0079e-07
0.00166354
1.89214e-08
7.78602e-11
0.000345743
0.0013173
5.38796e-09
1.29344e-09
0.00217888
1.52919e-08
3.77307e-09
3.17541e-08
5.45764e-08
7.87847e-08
0.00363312
0.00209331
2.15615e-08
5.52246e-10
0.00220927
2.00294e-07
0.00277232
3.71322e-09
2.0629e-06
4.525e-08
8.83501e-09
2.7307e-09
1.12326e-08
0.00346503
5.1045e-09
0.000842247
0.000274718
0.00245826
0.000453201
1.43974e-08
3.39518e-05
2.55475e-09
0.000229187
0.0023464
9.54834e-10
3.32059e-09
3.9771e-08
3.13632e-08
0.000502472
2.73159e-07
0.00052973
1.93881e-07
4.00335e-09
5.79582e-11
5.37693e-09
0.000221124
0.000394072
5.98936e-09
0.00394596
0.00252207
3.85541e-09
3.25715e-10
2.88701e-09
7.36893e-09
5.29568e-09
1.93294e-08
0.00275047
0.000620052
0.00051408
7.7472e-05
0.000348231
0.000381683
4.13249e-09
4.27131e-08
8.79058e-10
3.52824e-08
1.01388e-05
0.00236547
9.79988e-09
5.18415e-10
0.00116496
1.42125e-08
8.24236e-08
3.56411e-08
1.84139e-09
7.01391e-08
2.82377e-09
0.00226112
3.77973e-09
1.64346e-08
3.71566e-09
1.45253e-08
2.07528e-08
0.00386409
3.85203e-07
1.18167e-07
7.39609e-08
7.37579e-10
0.0849973
0.000590157
5.03906e-09
5.5151e-07
1.31165e-05
8.49024e-09
9.78234e-09
0.0580804
0.000579982
2.58361e-07
0.00315274
3.30247e-09
4.1403e-07
0.0010617
0.00291243
2.41748e-07
1.17532e-10
2.08024e-06
0.0110909
4.65527e-05
9.32007e-09
1.53629e-07
4.89634e-08
6.59727e-08
1.63087e-08
2.75819e-08
0.00199468
1.15118e-09
2.71641e-09
9.92282e-09
3.68048e-10
1.1818e-10
1.01043e-09
0.00420919
1.33335e-07
2.66802e-09
7.0843e-09
2.82331e-09
1.12573e-09
5.33336e-08
6.05289e-10
2.89631e-09
5.48196e-08
1.28998e-08
0.00227817
5.35816e-09
0.000384562
2.95609e-08
1.31378e-07
1.91729e-08
1.31195e-06
1.7308e-09
0.0033001
8.4569e-09
0.00183469
3.41704e-07
3.10672e-08
8.7157e-09
1.82711e-06
2.05371e-09
4.27329e-09
3.68933e-09
0.000259171
0.000626629
0.0021597
1.41175e-07
1.31499e-07
0.0024304
1.71515e-06
5.89528e-09
1.30791e-08
3.01643e-07
1.18208e-08
0.0042478
0.0485407
0.00316628
2.74961e-08
7.09269e-09
0.00158672
0.00149231
0.00180353
1.79082e-08
3.73588e-05
0.00194092
2.04779e-09
0.000315471
1.56809e-07
0.00184053
0.000460401
4.74251e-08
0.00237988
0.000112636
6.45821e-07
0.00210677
0.00223614
1.46114e-08
0.00245082
0.00311644
0.0018642
1.57985e-08
4.45195e-09
4.33174e-09
1.23031e-09
6.44719e-10
0.0017431
0.00283955
0.00186841
3.27908e-09
0.00328604
4.63757e-10
0.00227714
0.00258845
6.68524e-09
3.65681e-08
0.00170469
2.47901e-08
1.10374e-08
3.43681e-07
1.08021e-09
0.0026383
0.00204952
9.15662e-07
0.00174832
4.28845e-09
6.90186e-09
5.1116e-09
4.85474e-08
7.51687e-08
3.08485e-07
1.80036e-09
4.65592e-09
1.52604e-08
7.69267e-09
1.02478e-08
8.72224e-08
3.21659e-10
1.34351e-08
2.26218e-06
1.5251e-08
3.47641e-08
1.35331e-08
1.26042e-07
1.27516e-09
7.12308e-09
2.35647e-07
7.74993e-10
2.96976e-09
0.001944
3.41154e-08
7.62286e-09
6.69627e-07
2.45489e-09
1.32395e-08
1.98729e-08
0.00194235
9.99034e-08
0.00223963
0.0015387
1.41811e-08
1.25291e-08
9.05046e-08
4.33283e-09
0.00162457
4.64111e-08
2.11864e-07
3.48814e-07
2.38147e-08
0.00243059
0.00154226
2.28737e-09
4.23637e-09
7.90113e-09
1.18328e-08
6.58943e-08
5.0173e-09
4.25754e-07
2.77726e-09
1.59692e-06
2.49405e-09
3.37039e-09
7.56853e-09
1.77777e-08
2.5132e-07
6.70895e-09
2.02046e-08
0.00442961
0.00150218
0.00265102
0.00160298
1.58798e-06
8.4649e-09
0.00207987
8.19283e-07
6.56436e-09
0.000410094
2.3741e-09
1.43248e-07
0.00242236
9.26705e-09
1.26552e-07
2.30279e-08
4.55442e-08
0.00148566
7.94125e-09
8.79859e-10
2.18003e-07
2.89644e-09
4.86486e-07
7.78604e-06
6.67277e-08
0.00216382
3.29111e-08
0.000461835
2.77202e-07
0.00219363
7.15058e-10
4.91392e-09
1.85725e-07
3.65118e-09
0.00188031
3.91969e-07
0.000519092
1.49302e-07
3.00823e-07
1.34762e-07
7.21802e-08
5.53887e-09
4.33271e-08
3.77044e-06
3.9094e-08
3.10069e-06
0.00339454
5.64421e-08
0.00431289
6.42639e-09
2.37612e-09
0.00381273
0.00194503
1.18391e-08
1.25728e-09
9.86033e-07
2.77315e-08
5.30376e-09
0.00239753
1.55289e-08
6.23229e-07
0.00273443
1.35621e-09
7.82045e-09
4.30536e-07
2.0144e-09
6.66707e-09
0.00261108
3.75895e-09
0.00285338
1.99338e-08
2.27751e-07
2.75923e-08
0.000941701
5.72637e-08
2.83567e-08
1.8111e-07
0.00261398
1.58742e-06
4.1781e-09
1.31821e-08
1.41701e-07
0.00219858
9.59923e-10
8.22461e-09
1.24783e-08
1.71521e-06
0.002609
0.0474972
0.00119106
8.25707e-09
0.000358134
1.16102e-08
0.000681946
0.00215612
6.1491e-09
0.0037752
0.00302884
3.25783e-09
2.66134e-09
2.49698e-09
0.00261251
1.36984e-09
2.95381e-09
2.86662e-07
1.11978e-08
1.21383e-09
0.00915686
2.41363e-09
4.65303e-08
0.00252703
1.33783e-06
3.23691e-09
0.00210736
3.48086e-06
6.44992e-09
1.19594e-08
1.29493e-05
3.12658e-08
2.36146e-07
1.56541e-08
4.79632e-09
2.91717e-08
4.97418e-06
0.00117532
4.37989e-08
0.00253993
5.52576e-09
3.79042e-08
0.00284634
3.37456e-08
7.07137e-08
9.6841e-09
1.2793e-07
0.00244637
2.31792e-08
1.83807e-08
0.00170767
7.67343e-09
0.00275284
1.6675e-09
8.03324e-09
9.82392e-10
8.38222e-09
0.00156047
5.46298e-09
7.51816e-10
1.23365e-09
1.20535e-08
6.89698e-08
0.00265899
3.91858e-09
4.01881e-09
2.30877e-09
5.95821e-08
0.00553788
2.99501e-09
0.00167935
1.94872e-08
1.35698e-08
7.96929e-09
5.48618e-08
0.000429629
6.7414e-07
3.74177e-11
1.2279e-09
0.00190628
0.00229462
5.29605e-08
5.34547e-10
0.00193797
2.59279e-08
5.21275e-10
0.00355059
9.99245e-09
0.00280103
2.98869e-07
1.69017e-08
1.44655e-08
1.39196e-08
9.17379e-09
5.43491e-10
0.0146687
7.30808e-07
1.51904e-09
4.62392e-08
5.20155e-08
6.31001e-09
0.00267196
3.81572e-09
9.49073e-09
0.00207176
2.71598e-08
3.31967e-08
8.96896e-11
0.00239878
3.28099e-08
1.38556e-07
3.8538e-09
3.70007e-08
2.14607e-09
0.00245017
3.82856e-09
8.94742e-09
0.000614719
1.12824e-08
7.16511e-09
0.00241231
6.76891e-08
3.23221e-10
2.91788e-08
4.79205e-09
0.00192213
4.58224e-07
6.05947e-08
2.69843e-09
4.26644e-07
1.37463e-07
9.8898e-09
2.05677e-09
1.02774e-09
3.49064e-08
3.71818e-09
7.0483e-10
5.29442e-09
8.42899e-10
7.35275e-09
0.00239348
7.09679e-07
1.49664e-08
2.52389e-09
1.30028e-09
0.00232078
3.48257e-09
0.00340452
2.6601e-05
0.00163555
6.12146e-10
0.00223091
0.00304434
7.00734e-09
1.02002e-08
7.74375e-08
0.00218705
0.00265973
3.20206e-07
8.7893e-09
2.76718e-07
4.44795e-10
2.34352e-07
8.78915e-09
5.61457e-08
1.84913e-08
3.43959e-09
2.74144e-09
2.46434e-09
7.85566e-09
8.14219e-09
3.53712e-09
5.06119e-09
1.05455e-08
1.60965e-09
3.64487e-11
3.37292e-09
2.60031e-09
6.07878e-09
9.277e-10
1.89618e-07
0.00195871
0.00287954
3.53419e-09
0.00231045
1.49358e-08
2.72436e-09
5.62329e-09
1.75041e-06
1.96623e-07
4.77983e-09
4.72453e-10
9.79829e-09
1.37437e-09
8.6879e-09
4.68577e-09
1.38115e-08
1.41276e-07
0.00163711
1.07731e-09
3.7782e-09
0.00146096
0.00185322
0.00226431
0.00206967
0.00180802
3.90529e-08
2.55134e-08
2.98972e-09
8.69444e-09
3.338e-05
1.41209e-06
7.18722e-10
2.7713e-08
3.28439e-08
7.4111e-09
2.79559e-09
2.23145e-09
7.55384e-07
3.15507e-06
3.92222e-07
8.53017e-09
1.26071e-09
3.85463e-09
0.00295109
1.76889e-09
0.001927
9.51819e-08
7.52971e-09
7.52064e-07
0.00105424
7.08557e-08
7.36088e-10
3.93782e-09
1.35765e-09
1.22559e-09
2.43268e-08
2.1142e-09
0.00114706
2.96339e-10
4.18292e-08
0.00284238
2.73079e-09
0.0013828
6.09241e-08
0.00223211
9.88071e-08
0.00125831
1.95474e-10
0.00291561
0.00240635
2.49989e-08
1.3706e-09
0.00162593
1.70347e-08
0.0019919
2.97389e-08
7.26563e-09
4.74428e-10
1.35872e-08
2.2682e-08
1.3154e-08
6.44088e-07
0.00310025
0.00169833
1.31129e-06
3.07943e-09
3.48619e-07
0.00315096
0.00142021
0.002459
0.00243416
4.64778e-09
5.34655e-08
3.04711e-08
1.32494e-08
0.00315512
5.91609e-09
0.00153444
0.00334093
6.00715e-09
3.6293e-09
0.00166758
0.0031437
3.12499e-08
5.83916e-10
0.00174147
9.01267e-08
1.38793e-09
4.96882e-07
9.87159e-08
0.000406762
6.66692e-08
5.22548e-08
2.49128e-07
2.69893e-07
9.49661e-08
1.97658e-09
4.46713e-09
1.14559e-08
2.56465e-09
1.70594e-08
7.58186e-09
1.47511e-10
1.681e-09
0.00206894
0.00293063
2.84691e-10
2.24218e-08
8.37019e-09
3.66125e-09
5.02911e-07
1.46899e-09
2.58504e-09
0.00287081
0.0015655
0.00146497
0.0016892
1.03547e-08
0.00372206
2.82062e-07
0.00391544
6.77043e-10
0.00235525
1.44642e-08
3.3877e-08
1.72022e-07
5.89561e-10
0.00305942
1.83141e-07
0.00428446
9.11462e-09
1.09164e-09
1.04537e-08
9.22168e-09
0.00139242
0.00297998
1.67875e-10
3.17482e-09
1.82274e-08
0.0017202
4.8581e-09
0.00292884
3.51423e-07
1.09104e-09
4.99025e-10
0.0025096
3.46893e-08
0.00221614
8.05402e-08
0.00394512
0.00330165
7.2239e-08
2.14398e-09
0.00366594
1.02887e-08
0.00175069
0.000344637
1.63066e-08
1.55085e-07
2.19254e-08
7.79475e-09
0.00310598
4.77002e-09
6.41424e-09
4.57394e-10
6.65287e-08
6.90233e-09
4.90496e-09
2.14814e-08
9.55631e-09
2.00966e-08
0.00302323
2.22228e-08
2.39714e-08
3.91011e-09
1.04068e-09
8.35437e-09
8.97544e-09
9.08287e-09
0.0022657
7.57049e-09
0.00302685
0.0166622
6.09122e-09
0.000360668
2.30768e-09
3.53925e-09
2.65929e-08
9.40452e-09
3.13644e-08
0.0015852
0.00209491
1.13143e-07
1.0212e-07
8.21057e-08
0.00318309
0.00110965
4.82095e-08
0.00216084
0.00452477
1.3228e-06
0.0026
0.000410462
6.17079e-09
9.32755e-07
6.49473e-10
0.000563896
6.16864e-10
0.00260721
2.32191e-10
2.15186e-09
0.000636443
0.000341714
1.5891e-08
0.00046042
3.372e-09
9.19069e-08
2.09235e-08
3.1772e-09
4.3676e-07
4.00538e-10
5.03248e-09
0.00257248
1.07444e-08
1.39047e-08
2.31717e-09
1.21998e-07
1.88171e-09
0.0247111
3.23702e-08
4.89486e-09
9.12785e-08
1.59656e-07
0.000297052
0.00241592
4.13024e-08
7.2161e-09
0.00243044
0.00240859
3.76623e-08
2.2573e-08
1.0903e-08
2.60004e-09
2.37117e-08
1.05181e-08
0.00212299
0.00446861
6.57856e-09
2.63774e-09
4.77646e-09
4.48018e-09
0.00254249
0.000394482
2.09155e-09
1.90408e-08
1.95871e-08
0.00222508
1.11539e-05
1.20517e-06
0.00199292
2.05731e-08
1.9787e-08
3.20534e-09
2.93921e-08
1.76455e-08
0.00233738
5.36308e-08
0.000310598
3.01704e-09
4.93147e-09
0.00328321
0.0026689
6.69797e-09
0.00315257
1.07816e-09
7.43707e-08
2.71859e-07
3.49696e-09
2.55525e-09
0.00187473
2.76414e-08
4.36912e-08
0.00384724
1.25382e-08
0.00155484
0.00311477
1.24357e-08
0.00329106
1.32976e-08
1.25412e-08
1.67318e-08
2.43535e-07
2.51607e-09
4.63628e-08
1.00184e-09
2.53223e-08
0.000161364
1.40022e-08
0.00250031
6.29146e-09
0.00309501
6.42615e-10
6.14763e-09
4.16797e-09
0.00241525
8.99329e-09
0.0023053
0.00210331
0.00319324
1.44574e-08
0.002247
1.84718e-07
7.99839e-09
1.86231e-09
6.0418e-09
1.0021e-08
3.91203e-08
1.48351e-07
2.95478e-07
2.69178e-09
0.00292166
3.68389e-08
1.34199e-09
1.56796e-09
5.20523e-09
1.12985e-09
0.00206072
3.56744e-08
0.00307519
2.26805e-08
0.000624966
2.61929e-09
2.57799e-09
0.00181604
0.00368007
6.58291e-08
1.50223e-09
0.00381125
1.25007e-08
4.3231e-09
1.11967e-09
1.74996e-09
6.26482e-10
1.07605e-08
1.43599e-09
9.70857e-09
4.33158e-09
5.42635e-08
2.69956e-08
0.00252428
5.66721e-07
9.72969e-08
1.15351e-08
6.925e-09
0.00216241
3.66552e-09
0.0031792
6.74974e-10
5.04328e-09
4.92953e-09
1.77046e-08
8.2964e-08
7.66428e-07
0.00135019
0.00130018
8.55438e-09
0.00380105
1.70307e-08
0.00287073
8.78934e-09
7.17801e-09
2.0109e-09
0.00270379
0.00132741
0.000427466
2.31304e-08
2.12504e-09
0.00133965
4.43265e-09
3.94043e-09
7.91644e-09
6.35085e-09
0.00244965
0.00209503
1.44527e-08
2.01061e-08
7.64672e-09
2.70938e-09
3.47689e-06
1.95335e-06
6.17656e-09
1.9791e-08
0.00164001
6.72134e-09
2.98511e-08
1.05748e-09
2.66155e-08
2.16071e-09
0.00234388
6.38805e-09
1.82284e-06
0.000526564
3.76923e-09
5.51161e-09
1.09372e-07
3.23142e-09