/*--------------------------------*- C++ -*----------------------------------*\
  =========                 |
  \\      /  F ield         | OpenFOAM: The Open Source CFD Toolbox
   \\    /   O peration     | Website:  https://openfoam.org
    \\  /    A nd           | Version:  10
     \\/     M anipulation  |
\*---------------------------------------------------------------------------*/
FoamFile
{
    format      ascii;
    class       volScalarField;
    location    "10";
    object      SgT;
}
// * * * * * * * * * * * * * * * * * * * * * * * * * * * * * * * * * * * * * //

dimensions      [1 -1 -3 -1 0 0 0];

internalField   nonuniform List<scalar> 
59698
(
6.73748e-11
1.98283e-14
1.42592e-14
1.89941e-14
1.13205e-14
1.26009e-18
1.52238e-14
4.44788e-14
2.86937e-12
5.30647e-18
8.21108e-09
5.61034e-14
4.39197e-17
1.63591e-13
7.95361e-16
1.60413e-16
1.27899e-13
4.48563e-14
5.88606e-14
8.7836e-14
0.0955132
2.085e-15
0.0387958
1.58534e-17
1.60979e-15
6.07438e-14
3.07166e-13
7.92595e-15
3.75127e-16
3.17172e-17
5.33626e-16
2.682e-16
9.33072e-17
5.72812e-16
1.95332e-07
4.57022e-14
3.17801e-05
1.38124e-14
7.88493e-14
4.71452e-15
1.30576e-14
2.7097e-19
2.1108e-14
2.629e-13
8.64813e-19
1.71408e-15
5.91671e-14
3.91087e-13
1.7226e-15
2.2054e-15
3.22655e-14
1.91662e-14
3.28094e-14
4.06425e-13
6.82548e-16
4.04147e-14
6.57316e-14
9.12267e-16
3.60676e-13
3.69215e-05
1.39308e-13
3.09353e-14
2.74673e-07
4.79887e-14
2.44244e-15
6.48654e-13
1.88554e-13
3.51935e-14
6.82412e-14
2.12622e-11
9.10243e-13
3.28921e-14
6.39212e-07
0.000268659
4.35135e-18
0.000334464
3.86813e-13
1.6007e-14
3.42497e-15
1.29896e-16
2.2185e-15
1.68426e-13
1.35756e-16
4.20342e-14
0.0126784
4.62588e-13
5.19362e-14
7.27221e-15
6.15347e-15
1.15537e-13
4.05549e-16
2.98367e-15
5.50354e-15
2.96501e-13
7.54202e-13
5.96667e-13
1.44083e-15
3.73937e-14
3.38052e-16
1.02894e-18
8.47705e-15
8.88375e-07
1.37783e-15
1.69095e-08
1.49393e-13
6.56939e-17
4.97914e-14
3.3141e-13
5.46976e-17
4.71173e-17
2.31966e-14
1.74641e-13
5.80744e-15
9.25262e-19
2.44288e-14
1.57008e-14
4.02072e-14
7.8177e-14
6.01066e-14
8.39254e-18
4.09593e-15
1.59725e-13
2.08465e-14
2.20398e-15
1.80072e-14
1.01563e-13
1.5493e-14
1.72965e-17
1.30769e-14
4.24409e-15
6.23448e-16
1.74953e-14
2.66602e-07
3.25791e-13
1.26253e-15
3.69185e-16
2.85639e-14
5.05809e-17
7.57456e-14
4.52962e-14
4.84771e-15
3.76756e-13
1.26068e-14
4.42738e-14
5.72833e-14
1.08248e-13
5.04558e-14
8.86441e-14
2.29165e-15
7.61128e-15
2.07477e-10
1.25019e-07
1.82743e-13
1.08533e-14
3.84898e-13
4.31888e-13
8.85423e-14
9.3687e-13
1.44559e-15
2.48723e-17
3.30494e-15
2.63147e-13
6.05296e-16
2.4487e-15
1.27871e-15
8.77884e-16
1.80501e-13
8.63628e-05
7.39223e-14
8.13454e-13
7.23644e-16
3.68609e-11
1.77013e-15
5.02316e-15
8.13545e-10
2.61488e-13
6.17161e-17
1.29263e-09
9.87239e-06
3.18093e-17
2.61909e-15
1.71883e-15
5.7138e-16
1.04767e-13
1.23428e-14
2.25065e-15
1.89854e-15
2.44771e-13
6.25423e-14
5.21181e-14
1.10737e-13
1.32106e-13
4.96333e-16
2.24617e-15
1.04271e-15
2.72213e-14
3.46128e-12
3.79263e-15
0.0607933
8.96321e-15
5.41134e-16
6.31914e-15
2.44901e-15
9.60189e-14
3.65246e-15
6.92442e-14
1.29243e-15
5.97229e-14
5.23408e-15
7.50887e-16
2.74827e-13
1.33076e-13
1.47609e-14
3.4172e-17
3.58337e-15
6.04897e-14
3.36363e-15
2.94374e-13
7.4063e-15
2.43337e-15
7.33555e-06
6.20048e-15
3.44422e-15
1.27699e-15
2.66798e-14
1.50324e-15
1.08362e-13
3.58478e-14
8.96134e-16
0.000128941
1.76521e-17
1.26396e-14
1.23569e-13
1.25234e-13
1.97519e-13
2.75774e-14
4.59258e-16
1.43585e-13
2.11617e-15
2.80336e-16
1.08164e-15
2.57113e-15
1.09081e-14
3.34602e-18
5.66658e-15
7.41024e-15
5.46974e-06
0.000232699
1.66512e-13
1.05725e-13
1.81686e-13
1.78577e-13
4.95024e-14
1.44856e-08
1.96997e-14
2.96765e-15
4.85587e-13
5.27711e-14
1.87598e-13
6.22028e-14
0.0226074
5.21081e-18
1.63557e-13
2.94595e-13
6.21993e-13
2.72334e-13
1.2759e-14
2.77278e-10
8.58746e-14
6.17115e-14
4.055e-14
4.84749e-15
0.0213195
3.58048e-14
1.82297e-15
5.60289e-13
5.55339e-15
3.59706e-13
1.30221e-16
5.45968e-08
9.79763e-17
1.07078e-13
3.76384e-14
1.09016e-14
1.09606e-13
2.90885e-15
1.2095e-13
0.0343788
1.44809e-14
3.46373e-14
0.000526128
2.29519e-14
2.36672e-14
7.04005e-14
5.09038e-14
2.53537e-13
1.689e-13
1.63885e-13
1.39158e-14
7.48794e-14
6.05888e-14
6.66713e-18
1.58414e-17
2.62723e-13
2.63077e-14
4.39197e-14
4.81654e-15
6.54855e-13
9.37869e-13
7.09853e-14
5.67989e-14
3.7207e-14
4.35019e-13
2.24794e-18
9.5091e-14
4.61695e-15
3.14288e-18
9.95093e-15
2.69382e-18
1.56962e-13
2.77154e-13
0.000444838
4.55437e-14
1.01214e-17
0.0067344
4.65532e-15
1.8494e-14
1.37541e-13
7.57494e-14
1.99061e-17
3.42049e-16
4.53734e-14
3.61134e-16
0.000200202
3.44983e-13
2.81412e-14
1.87656e-13
8.41734e-14
7.07623e-15
1.42341e-16
1.81259e-14
8.66324e-15
2.8763e-14
3.82763e-14
3.5099e-15
1.16846e-14
7.30098e-15
1.30311e-14
1.43379e-13
2.63494e-16
1.10927e-13
2.58253e-13
1.09277e-10
1.89519e-18
1.02008e-05
7.92448e-16
2.20065e-10
5.57125e-13
9.89257e-15
3.65732e-16
3.58811e-15
1.3385e-13
0.000545527
2.53732e-14
4.1989e-18
5.50227e-18
1.1142e-15
1.00719e-13
1.06765e-13
9.37839e-08
4.51801e-15
1.71347e-17
1.23927e-13
7.23188e-18
1.96587e-14
1.45137e-17
1.52582e-13
3.08849e-14
7.29785e-17
5.52144e-14
1.19239e-18
2.49952e-14
6.32741e-14
1.07175e-14
2.04776e-14
3.82132e-08
9.89705e-14
8.17698e-17
1.38049e-17
9.72246e-14
1.53773e-13
3.50984e-18
5.20936e-14
3.10688e-16
0.0366517
1.26662e-15
5.28749e-05
7.15789e-14
7.28059e-16
9.53645e-14
3.63007e-15
5.61086e-15
1.43492e-14
3.8564e-14
3.9537e-16
1.40361e-13
8.94038e-16
5.12956e-16
9.45272e-16
6.21916e-15
3.28755e-15
4.90494e-13
2.23117e-13
1.54821e-06
2.67431e-15
5.1225e-15
4.88437e-14
1.33931e-05
5.72558e-15
1.29229e-12
6.10554e-16
2.2112e-14
1.69111e-14
0.000433802
2.18258e-13
1.86411e-13
2.16488e-08
4.02002e-15
3.76594e-14
8.98178e-17
1.34008e-14
0.0019263
2.85325e-06
3.8782e-14
4.6543e-15
8.05092e-17
0.0002571
0.00647996
1.75475e-13
4.55438e-15
5.65008e-19
2.77053e-13
8.1143e-08
8.88306e-15
3.8415e-15
2.24341e-11
1.34076e-15
7.48032e-18
1.7325e-14
8.51074e-16
2.48151e-15
1.44532e-13
1.21601e-13
1.29058e-14
5.47882e-13
1.21541e-14
8.66951e-15
3.46079e-17
7.43422e-15
3.59181e-13
8.09956e-16
8.62376e-14
1.15418e-14
4.00301e-15
5.39389e-17
6.71989e-13
5.69716e-13
6.83563e-15
8.96114e-14
1.88379e-14
4.51915e-14
5.37739e-17
2.4388e-16
3.00587e-17
5.89516e-13
4.93144e-13
2.5889e-13
2.08161e-15
1.21078e-13
9.87655e-14
2.43576e-14
9.53554e-13
9.72382e-13
1.10265e-16
1.73828e-11
6.4768e-13
1.55186e-13
1.81237e-13
3.56222e-15
8.93801e-15
3.6992e-15
5.96038e-09
9.59583e-16
6.42494e-13
4.37298e-16
3.09654e-13
2.66967e-14
2.92143e-14
1.31163e-14
1.651e-17
6.60523e-18
9.05984e-16
8.80407e-15
5.61027e-14
7.64453e-17
2.2746e-16
3.40601e-13
9.85421e-18
8.19964e-15
8.44438e-15
2.9579e-14
1.59606e-15
5.22561e-08
1.16382e-19
4.84347e-15
1.83803e-14
2.27496e-17
1.42507e-14
1.08643e-18
6.58958e-18
6.73934e-15
9.43147e-15
3.36846e-14
2.46817e-17
1.05156e-18
7.35633e-08
1.93804e-14
2.09397e-13
4.26559e-15
3.64531e-15
4.85288e-14
0.00193219
5.57116e-19
1.92311e-13
6.95691e-14
6.89418e-17
2.8178e-19
2.56323e-15
1.91421e-13
9.38479e-17
5.1252e-15
2.36021e-13
2.27953e-14
6.82011e-05
6.82106e-14
7.97965e-15
1.83353e-05
5.74917e-09
8.20833e-14
3.83897e-10
1.54268e-13
1.66774e-09
7.24809e-14
1.00926e-16
7.31636e-13
1.31235e-13
4.85872e-16
1.84343e-14
9.8969e-15
2.15019e-13
4.86028e-17
1.0872e-11
2.65294e-13
4.60346e-07
3.42854e-15
3.8991e-17
5.52456e-07
1.62316e-13
1.26243e-14
4.12306e-09
4.65757e-14
5.90564e-14
7.11267e-17
2.58092e-14
1.47859e-14
9.93839e-16
3.84819e-14
4.68943e-14
1.52087e-14
5.05045e-18
8.45321e-19
8.28242e-13
5.22932e-15
6.56801e-14
2.2381e-13
3.66354e-17
1.1371e-13
1.21544e-14
4.9384e-16
1.87656e-14
3.91052e-14
8.67591e-14
4.18376e-14
1.3689e-13
2.0577e-17
1.8701e-13
0.00361848
2.12569e-07
1.97222e-18
4.07393e-17
2.92641e-14
5.88514e-14
8.83115e-17
1.84545e-14
3.25006e-14
1.15768e-13
2.76764e-14
1.14092e-18
1.68785e-13
1.98506e-14
4.64409e-14
9.75277e-14
3.99923e-14
5.06315e-13
1.97364e-12
1.13095e-13
4.87586e-14
3.44517e-16
0.0287564
2.39767e-14
7.80246e-17
9.11242e-14
1.19884e-13
0.00284651
4.00594e-14
9.06462e-14
2.8669e-15
3.57338e-13
5.23439e-13
2.99459e-13
5.87418e-15
2.50472e-16
4.65038e-14
3.60795e-13
3.36931e-14
5.29977e-14
3.93918e-14
2.0216e-14
1.20759e-13
3.3724e-15
4.65325e-13
6.80116e-13
7.79884e-16
8.8939e-10
1.17111e-13
1.17329e-15
1.92835e-13
4.02213e-13
4.95987e-14
5.47085e-18
4.29448e-17
6.13145e-15
6.06021e-15
2.7602e-13
2.45629e-14
1.5096e-13
2.23541e-14
0.0507996
4.47283e-17
5.62954e-14
3.86895e-13
8.38457e-14
1.19858e-14
2.65678e-06
0.000761148
7.53669e-15
1.49456e-13
1.03957e-13
8.24536e-14
4.46435e-15
1.15579e-16
4.08805e-14
9.04641e-14
2.10285e-14
8.0505e-14
5.51212e-13
1.30746e-17
2.20921e-14
4.76679e-16
9.70918e-14
3.14279e-13
3.57505e-14
1.02064e-18
1.38939e-18
2.04874e-13
1.0027e-14
1.11069e-13
2.70348e-14
1.0903e-13
2.78813e-16
4.32149e-14
5.77897e-16
6.52374e-13
4.04249e-14
8.92463e-14
5.10796e-15
1.46503e-13
2.8392e-14
4.82888e-17
1.49414e-13
1.67555e-17
1.01781e-16
1.41418e-14
7.05357e-14
1.64415e-14
7.29499e-09
1.17733e-16
3.93345e-15
2.01009e-13
1.56752e-17
3.80681e-14
1.3836e-20
8.13177e-13
7.37258e-17
1.03806e-13
1.06386e-14
1.68365e-14
6.14162e-15
1.71563e-09
5.71801e-17
4.30877e-15
2.66992e-15
6.4821e-15
4.17624e-14
7.27371e-15
5.95021e-15
1.80642e-15
2.84568e-17
2.31973e-14
4.08403e-15
4.61686e-06
1.40478e-18
1.1512e-16
2.34272e-15
1.49818e-18
1.07366e-15
2.34697e-13
4.63063e-11
5.66057e-15
1.19756e-05
4.47776e-13
4.03853e-14
0.000906362
8.70882e-15
2.47234e-15
2.21093e-13
1.66951e-14
1.46438e-06
1.28353e-13
3.1834e-15
9.03759e-14
1.10308e-15
4.21564e-14
7.25993e-15
6.93033e-17
1.08213e-13
2.37397e-14
0.00300676
2.72137e-11
8.51867e-15
1.5062e-15
3.73427e-18
1.39513e-14
3.3747e-14
3.14653e-13
1.22362e-15
8.37679e-15
3.97247e-14
7.64105e-17
1.21836e-14
4.06234e-15
3.20665e-17
3.83437e-17
2.65638e-13
2.30961e-17
3.21542e-15
3.38047e-15
5.45838e-14
2.43355e-14
2.36805e-14
0.0361603
8.49667e-17
7.45789e-15
1.41062e-14
1.02329e-14
3.48708e-14
1.50759e-14
2.53132e-18
3.99089e-15
1.41912e-15
3.44335e-15
3.42276e-15
3.93431e-16
0.00844771
3.94601e-13
6.02286e-05
2.36128e-16
8.54077e-17
1.65794e-16
3.92164e-14
1.1358e-13
6.35854e-16
1.32259e-14
3.39248e-15
1.92425e-15
6.65762e-07
1.63956e-13
1.4908e-14
6.49342e-17
5.00151e-06
7.32555e-17
4.34546e-17
2.13736e-14
1.12408e-14
0.0708379
1.6367e-16
3.17619e-16
2.20532e-14
9.52989e-08
0.000216385
3.35108e-13
6.02516e-06
1.47121e-14
6.00646e-07
4.16266e-16
2.14765e-16
2.53515e-14
4.01577e-14
5.34992e-16
3.15858e-17
2.0998e-14
7.88455e-15
9.32335e-14
5.22053e-17
5.78511e-13
1.79672e-13
8.31396e-09
1.29615e-16
3.15049e-08
2.58826e-07
3.55882e-09
4.62784e-17
6.65821e-17
4.13193e-16
1.21722e-16
2.16093e-14
1.11253e-13
2.44635e-13
3.34371e-16
1.85148e-15
3.4832e-14
1.84652e-17
4.89221e-06
5.63371e-17
1.31198e-13
1.86259e-17
1.72164e-14
3.67103e-15
3.60339e-13
7.5698e-14
5.79713e-14
4.89611e-16
1.05176e-17
6.07276e-15
3.05639e-14
4.37191e-16
1.28681e-13
1.67238e-09
9.66817e-14
2.967e-17
2.33475e-13
4.30794e-18
3.70112e-07
1.28336e-19
4.79403e-13
2.41203e-17
7.1867e-14
6.35838e-14
5.23761e-14
1.80706e-14
6.85171e-14
2.22157e-14
6.46363e-13
3.77784e-18
3.42935e-17
5.0834e-15
4.80472e-14
6.37452e-14
2.76429e-14
1.28194e-15
2.9503e-13
2.90665e-15
1.31308e-14
1.12214e-17
2.76004e-13
4.11242e-14
6.67038e-16
4.88005e-17
1.48448e-13
1.13912e-17
5.46128e-16
7.2363e-13
8.09638e-19
1.83179e-13
6.30954e-13
1.32442e-17
2.56899e-16
1.24501e-13
4.95728e-14
2.27214e-15
1.06867e-17
4.02396e-15
4.63243e-15
3.41633e-17
9.7123e-17
1.10306e-14
1.45968e-13
1.50064e-14
4.5627e-15
9.03173e-16
8.12716e-14
1.04071e-14
1.10757e-14
1.9655e-13
5.48207e-08
1.17203e-13
2.15687e-14
3.71862e-14
3.6864e-08
2.74811e-15
6.01806e-17
3.01025e-15
4.9504e-17
7.10541e-15
5.95727e-15
2.54744e-13
2.85609e-15
1.07616e-17
3.39184e-17
4.65626e-16
5.86634e-14
8.50811e-15
1.3054e-14
2.3773e-15
3.41362e-14
2.54728e-13
1.84609e-15
8.83625e-15
1.06634e-13
6.7768e-14
1.58601e-15
2.07261e-13
4.18681e-13
2.71269e-13
1.51898e-13
1.5645e-13
7.593e-16
8.34725e-05
1.40877e-13
3.91243e-13
7.57375e-16
3.78899e-17
2.60007e-13
8.581e-16
2.55559e-15
9.65867e-14
1.77935e-13
1.30302e-14
1.61923e-14
7.61246e-14
3.20717e-17
1.93542e-17
5.03406e-18
9.91505e-15
1.85054e-18
1.768e-13
8.14145e-15
4.99268e-16
1.65305e-15
6.21941e-15
1.40994e-14
4.67841e-05
8.20933e-16
1.41609e-14
3.1425e-14
8.41108e-15
8.16963e-16
9.10648e-15
1.44511e-14
6.08889e-16
2.5915e-15
1.32833e-14
3.83211e-16
2.40692e-14
3.17199e-18
4.25274e-07
5.23855e-14
1.11686e-14
7.7629e-13
1.19104e-14
3.13675e-14
4.00418e-14
5.19318e-13
6.88387e-14
4.33517e-13
1.69118e-14
3.4091e-15
7.59293e-17
2.86502e-13
1.97361e-15
4.28818e-12
6.32727e-18
3.17157e-13
4.63064e-13
4.12287e-12
1.63764e-13
6.31981e-14
1.62169e-11
8.88065e-14
4.63069e-13
9.48342e-12
5.82234e-15
8.92507e-15
3.65317e-15
1.23852e-14
6.93087e-15
1.15901e-14
4.34618e-16
1.17613e-13
2.43118e-13
1.70021e-17
1.15897e-15
1.41129e-14
3.34222e-13
3.45527e-17
9.35112e-14
1.87879e-14
5.80853e-14
1.0899e-13
1.82951e-14
4.99532e-16
6.69929e-14
1.2804e-16
7.12495e-14
0.0129381
2.98512e-14
6.4639e-17
2.58968e-14
5.26634e-15
2.7322e-16
0.0245718
9.47718e-15
1.59797e-14
1.39131e-14
3.76303e-13
1.29569e-14
5.44923e-17
1.14945e-17
6.64503e-13
7.61543e-17
1.15995e-13
9.45288e-13
2.59738e-13
1.06842e-13
4.22991e-13
6.68447e-16
2.56287e-16
3.34297e-06
4.08499e-15
3.72453e-05
3.62532e-06
5.66378e-13
4.45443e-15
1.15242e-16
5.25087e-06
9.5521e-13
5.39455e-15
1.89826e-14
1.33307e-13
8.38159e-14
8.36383e-15
1.35839e-13
2.64305e-19
1.33342e-12
2.41924e-13
4.60155e-14
5.2305e-14
1.96581e-14
7.35266e-16
1.67465e-13
0.0108476
4.64307e-16
2.37416e-05
0.000614076
4.46636e-14
0.00527305
8.92229e-15
2.55459e-13
6.317e-14
7.67555e-15
0.000510467
1.12841e-14
3.17642e-15
6.52831e-15
3.23487e-19
1.95692e-05
9.47175e-13
4.19832e-18
6.55245e-14
1.49918e-15
8.48617e-14
1.27868e-13
6.78689e-13
4.66861e-15
8.90897e-19
6.61572e-14
3.49923e-15
4.83163e-15
6.41687e-16
2.79652e-14
6.73912e-19
1.93596e-17
3.77323e-14
2.27576e-16
2.25122e-16
1.89926e-13
8.16611e-14
1.66019e-15
1.06882e-14
0.0705033
5.23459e-14
1.4566e-15
6.89916e-14
1.54648e-14
4.91346e-14
1.08814e-15
3.85387e-15
8.17329e-18
1.0775e-13
3.79015e-15
4.38712e-14
4.21638e-14
1.75789e-15
0.00898362
2.42951e-15
3.60035e-14
1.15484e-15
4.88348e-12
9.92558e-05
4.72219e-15
1.41393e-13
1.77547e-13
2.75398e-05
3.15526e-16
1.51496e-16
3.57144e-14
4.301e-13
4.07188e-15
9.12359e-15
2.61207e-14
2.13349e-15
9.19837e-16
6.6851e-18
9.79124e-12
2.58316e-14
5.03671e-15
4.60761e-14
2.75321e-14
2.25171e-14
1.30545e-13
7.63335e-15
7.09215e-15
3.35602e-14
2.56394e-15
6.59034e-14
8.91734e-17
4.36314e-14
2.66047e-17
2.9703e-14
1.35495e-13
1.30037e-13
2.43098e-14
9.99472e-14
7.76519e-15
1.05588e-13
7.74453e-18
4.11266e-14
2.3044e-15
9.24067e-15
1.05174e-14
2.40384e-14
1.24931e-17
1.93223e-18
5.51235e-13
7.86793e-14
6.05271e-14
4.93308e-08
5.20752e-14
2.53755e-13
4.94944e-14
2.71661e-17
2.60474e-17
2.21081e-13
6.42555e-14
2.30188e-14
7.75895e-14
5.75856e-15
1.40558e-14
9.90053e-18
4.14529e-16
3.927e-07
6.63564e-14
5.907e-16
0.0221728
6.53385e-07
3.21311e-15
2.57086e-15
5.28533e-14
5.03022e-16
1.43413e-14
5.07272e-15
6.64617e-17
1.01908e-14
5.32568e-14
5.98037e-15
0.000343132
9.2168e-15
5.82572e-15
2.82551e-16
2.01234e-13
2.53792e-09
7.02096e-15
7.59751e-15
7.26708e-18
1.02303e-13
1.51538e-14
1.18402e-12
8.70312e-05
4.44907e-15
3.61448e-16
1.23061e-14
7.62076e-14
7.92593e-15
9.23314e-18
4.46272e-17
1.66994e-14
5.68058e-15
3.42622e-14
8.26993e-18
3.89544e-14
3.26505e-14
7.8015e-14
4.98216e-13
1.94692e-13
4.12225e-15
2.96316e-14
9.04254e-14
1.19437e-13
5.74849e-14
1.36438e-15
3.45149e-15
3.68786e-14
0.0381095
7.89794e-14
2.51857e-18
3.7425e-13
1.30739e-18
4.89764e-16
1.51051e-12
0.000221852
4.73058e-15
2.58869e-17
7.92288e-16
1.27194e-14
2.00095e-16
3.20009e-18
9.60986e-14
2.29352e-14
1.08598e-16
6.88878e-13
2.74916e-14
8.51155e-15
7.54812e-13
6.15493e-11
7.46195e-17
0.000158765
4.39731e-13
2.78708e-17
1.44518e-15
5.28604e-14
2.41765e-15
1.00434e-06
1.72803e-18
1.5869e-15
4.89984e-17
1.01025e-14
1.89464e-16
5.3077e-15
6.13324e-15
1.65253e-14
6.7567e-15
1.39485e-14
1.10978e-13
4.5009e-15
1.56212e-15
1.74298e-13
1.95163e-16
1.64623e-13
4.01681e-15
5.20891e-16
9.29641e-15
9.90984e-16
5.04685e-05
1.60204e-14
2.21445e-05
6.79044e-16
2.62954e-14
2.15203e-15
7.49671e-11
8.88468e-17
6.28465e-15
3.05331e-15
5.26208e-06
8.20464e-16
3.15201e-16
5.7462e-15
2.84241e-17
8.48905e-17
8.44775e-17
7.47087e-13
3.42383e-15
6.1799e-16
2.91563e-15
4.39051e-17
4.00045e-15
7.4843e-12
6.29813e-11
1.83826e-16
4.64528e-15
1.22734e-15
5.4189e-15
4.33771e-17
7.47719e-15
2.33182e-13
5.67888e-17
1.39191e-14
8.90463e-15
2.78978e-06
1.10876e-13
1.68857e-08
1.09593e-14
3.26e-14
2.34975e-14
3.31625e-06
5.17907e-15
1.90615e-13
2.74858e-18
8.81874e-17
5.79214e-14
3.60077e-15
5.56612e-15
7.10603e-13
1.00485e-12
6.22124e-13
2.32164e-14
3.46283e-13
3.54864e-16
8.47789e-14
4.03716e-15
2.81241e-13
2.66772e-15
1.92192e-14
6.20965e-06
7.49371e-20
1.95241e-05
1.95855e-14
4.96537e-15
5.74569e-15
0.00325261
2.4145e-13
3.62595e-14
9.42949e-15
1.38552e-13
5.57405e-16
3.51933e-13
4.21165e-15
2.22122e-13
6.96061e-15
2.10757e-15
0.000143354
1.90928e-13
3.80437e-15
2.02861e-13
4.89331e-15
5.3061e-16
0.000267057
3.61168e-14
0.000835952
0.00197714
0.00658841
9.18369e-17
3.83845e-14
4.70088e-16
1.97838e-15
3.11069e-15
2.27461e-15
5.85817e-05
4.90242e-15
1.06971e-13
3.91588e-15
8.9636e-06
7.29442e-15
2.21384e-16
2.72418e-16
2.25375e-17
1.61234e-06
3.29551e-15
6.7524e-18
1.9276e-05
6.35541e-09
5.62619e-14
6.79499e-08
1.0316e-16
1.03565e-15
1.57459e-18
4.60656e-18
0.000593471
9.36244e-17
0.000991853
0.00518901
7.25436e-12
5.00122e-07
3.17413e-15
4.55892e-14
1.97931e-15
1.2831e-18
4.80247e-06
1.82236e-18
0.0109281
5.18955e-15
1.4322e-18
1.31502e-14
3.94424e-15
2.79202e-15
5.04562e-15
5.63226e-15
1.01454e-14
3.4646e-15
1.0836e-15
1.80036e-17
7.72754e-10
1.58643e-16
4.53904e-15
1.09266e-14
1.73019e-17
1.27807e-16
1.45148e-14
6.20182e-16
2.71698e-16
5.36993e-13
2.65376e-13
2.15279e-16
1.14711e-13
3.62149e-13
1.17112e-14
1.46456e-15
1.12382e-14
2.31488e-15
1.28941e-16
1.79571e-14
1.69758e-14
3.15777e-06
1.3182e-14
8.71981e-15
5.47633e-16
1.42776e-14
1.01309e-15
3.0447e-15
6.77007e-15
1.65577e-15
2.51551e-15
1.78103e-05
7.64837e-15
3.15007e-14
1.90986e-15
2.34435e-15
4.22752e-16
2.97898e-17
2.16316e-18
9.62054e-17
2.64307e-16
6.00578e-14
3.71916e-15
4.0111e-08
2.1473e-14
1.06604e-06
2.08443e-10
1.8636e-14
1.04036e-14
1.74934e-14
2.32365e-15
8.64084e-15
3.71627e-15
1.07653e-14
7.04308e-16
1.95986e-17
0.000160055
4.564e-15
6.04126e-14
4.5037e-17
1.82786e-15
1.74843e-14
1.9634e-15
0.000530932
7.72133e-17
4.031e-15
1.07726e-14
1.43731e-13
5.10868e-15
1.97426e-14
1.03863e-13
1.66795e-14
1.10189e-15
8.76282e-06
1.30195e-13
2.20307e-15
6.48887e-15
6.72099e-10
9.82514e-14
1.22372e-14
6.98769e-05
1.58403e-14
2.32025e-06
4.48593e-06
5.77653e-16
2.31204e-07
1.06359e-13
3.80839e-15
4.26372e-17
7.98175e-06
1.17499e-18
1.39933e-13
2.48501e-15
0.00166303
2.92216e-13
1.57154e-18
3.95844e-11
2.14965e-07
1.62231e-14
1.71267e-16
1.55741e-09
4.24173e-09
4.27209e-15
2.01547e-13
5.26566e-08
2.56092e-17
3.09804e-14
1.13546e-08
5.2478e-14
3.86667e-16
2.6376e-09
7.45413e-13
2.83501e-13
1.09977e-13
1.16131e-14
3.28731e-18
6.3969e-13
3.21096e-15
2.43446e-15
3.81778e-17
2.13099e-11
0.000841968
1.37389e-16
8.53498e-14
2.14068e-16
2.53933e-12
3.27376e-05
4.18994e-15
1.23566e-07
3.26655e-14
5.6873e-17
1.80575e-15
2.81017e-16
1.20436e-13
5.87948e-17
9.11336e-14
1.98534e-17
8.3697e-14
1.46161e-13
6.07113e-17
1.82361e-15
6.93473e-18
2.40702e-18
3.21468e-14
1.58936e-13
7.57938e-14
3.05203e-15
1.27465e-15
3.56321e-13
3.23682e-13
1.7678e-13
2.66138e-13
2.09128e-08
4.72269e-17
1.2619e-09
2.49717e-08
1.07368e-15
2.87082e-17
1.91551e-14
6.98058e-15
2.36354e-13
6.07957e-16
1.01202e-05
6.86238e-15
4.61146e-13
2.15436e-15
2.20783e-15
1.18076e-12
5.62046e-14
1.18121e-15
8.85508e-14
9.43508e-15
7.96458e-16
1.86259e-13
3.60801e-13
8.7179e-14
5.80467e-13
1.03161e-13
2.68114e-13
1.74065e-13
1.03057e-14
3.12416e-13
7.68818e-15
2.06848e-14
0.0849487
0.000589004
1.60734e-13
8.72346e-16
4.71731e-07
3.06128e-13
1.07234e-14
0.0580698
0.000578179
2.19068e-15
1.27045e-14
9.87651e-14
6.9713e-16
0.00106023
1.92604e-13
1.38091e-14
1.81338e-16
9.00936e-13
0.0110739
4.61931e-05
1.08218e-13
1.22144e-15
2.40244e-15
2.47608e-15
9.24752e-14
1.26107e-14
3.50007e-05
3.08271e-13
3.35975e-15
1.70656e-16
2.50894e-14
5.57493e-15
1.96333e-13
4.26431e-10
8.05123e-15
5.14041e-14
5.37543e-15
2.63413e-13
3.40624e-17
3.0005e-15
2.13595e-15
5.92388e-17
3.71528e-13
3.10404e-16
7.7035e-15
6.31791e-15
1.51865e-15
9.63067e-14
2.87731e-16
9.97921e-14
2.80786e-16
5.197e-14
1.53254e-14
3.32345e-14
6.38577e-15
1.33843e-16
6.22986e-15
1.31974e-12
3.50652e-09
6.00101e-15
1.61033e-14
7.60144e-14
6.94741e-17
1.1714e-16
2.5316e-15
4.23781e-15
6.36614e-16
5.2648e-15
5.38843e-16
8.3635e-14
7.94586e-14
9.28332e-14
1.07002e-13
1.48528e-13
0.0485378
1.02868e-13
3.86462e-14
2.51726e-14
1.73977e-09
1.40642e-13
5.42309e-14
3.81154e-14
3.57869e-05
2.40189e-13
6.05669e-14
0.00030237
1.50982e-12
2.92831e-16
5.01233e-16
3.7535e-15
8.38086e-14
9.08711e-05
1.5755e-13
1.67502e-15
1.01867e-12
8.0946e-14
7.74223e-14
8.78189e-14
2.53004e-14
3.77436e-14
8.18026e-18
2.9582e-14
3.13847e-13
9.82911e-15
4.62925e-14
2.33581e-13
7.96101e-16
9.20708e-14
5.38271e-15
2.82508e-15
5.6311e-11
2.07628e-14
3.09268e-13
7.16547e-14
1.17396e-14
1.37635e-13
3.71854e-13
1.90926e-14
6.99111e-13
3.93153e-15
1.52515e-13
6.32698e-15
3.40799e-14
2.2058e-13
6.24442e-15
1.71949e-13
1.44111e-16
1.62491e-13
4.19971e-14
9.32846e-15
8.57673e-15
1.68688e-14
6.46791e-14
1.08419e-15
1.44484e-14
3.57681e-14
1.43791e-15
4.79807e-13
2.22874e-13
1.19869e-12
8.28884e-15
5.06787e-13
1.48603e-14
8.62586e-14
4.45088e-15
1.32271e-14
6.51233e-16
1.79653e-13
2.2662e-15
3.25679e-15
2.03745e-13
2.14874e-14
2.24794e-14
1.36586e-14
3.51882e-15
3.64457e-15
6.76888e-15
1.02996e-14
7.39205e-14
2.64658e-14
6.72353e-16
9.43799e-15
5.73814e-16
2.3136e-14
2.49256e-15
7.38136e-15
2.58487e-13
2.48611e-14
4.52484e-15
1.28194e-14
9.67567e-14
5.20825e-16
3.719e-15
5.13676e-16
3.56353e-14
3.1423e-13
2.12072e-13
1.14813e-14
2.65685e-17
5.28076e-13
2.67718e-14
3.54738e-13
5.43545e-16
3.24069e-14
2.0009e-15
1.76274e-14
8.33795e-14
8.85367e-14
3.35035e-14
9.60848e-16
2.2641e-13
2.55804e-16
1.54824e-15
1.14634e-14
2.10527e-17
5.16059e-13
5.76252e-14
7.08946e-15
2.93175e-15
2.28853e-13
1.81808e-18
2.97235e-14
1.29931e-15
1.21912e-13
6.96703e-15
1.1963e-13
1.42219e-17
2.14029e-13
1.01224e-17
2.39424e-16
2.5518e-16
5.21524e-14
2.08437e-12
9.26384e-15
1.02184e-15
2.93448e-13
2.40723e-17
1.43709e-15
3.71003e-13
1.56678e-14
9.20672e-14
1.15189e-15
1.52284e-18
9.46692e-16
1.60259e-13
4.30323e-15
9.3237e-15
9.43417e-16
1.86553e-15
1.29371e-13
5.64908e-16
3.40926e-13
3.33078e-15
4.37503e-15
8.04618e-10
4.34113e-14
0.0038079
4.15161e-14
8.60824e-15
5.04698e-15
7.27042e-10
3.92613e-15
4.92211e-15
3.66144e-15
8.15637e-15
4.13595e-09
1.53138e-14
8.62195e-19
1.19828e-15
3.90867e-15
4.94817e-17
3.26361e-13
3.11539e-14
1.76228e-13
1.10444e-12
7.8535e-15
3.06624e-16
5.63846e-16
9.1236e-15
3.66006e-16
2.39418e-16
8.81161e-15
4.20452e-15
4.39403e-15
2.50931e-15
2.71817e-16
1.12648e-15
6.88856e-16
7.71469e-15
1.43608e-15
8.91161e-16
1.9995e-15
3.73721e-14
0.04722
3.96655e-14
9.46035e-14
2.90778e-16
8.55505e-14
0.000680984
0.00131363
4.65033e-13
0.00283824
0.00302533
5.10997e-15
3.31707e-17
6.71565e-16
3.83048e-14
3.58537e-15
3.03301e-14
2.92972e-15
1.0755e-18
1.27018e-14
0.00885526
1.10937e-13
6.12637e-16
4.00149e-13
5.00926e-16
1.48007e-14
1.65322e-15
2.48251e-10
5.37747e-14
2.91078e-15
2.60937e-09
3.34365e-16
4.13916e-16
5.7587e-14
3.50013e-14
2.36101e-15
6.51186e-09
1.61863e-10
3.73613e-14
1.19108e-14
3.2913e-16
6.64572e-13
5.49827e-14
4.64093e-13
1.80904e-15
5.57654e-14
3.49426e-14
1.88098e-14
6.27682e-13
3.74937e-13
2.04891e-15
7.03422e-13
1.66407e-14
7.47516e-14
2.19698e-13
1.21409e-13
9.4468e-14
8.25169e-15
1.59288e-15
4.16822e-13
2.05064e-13
4.00576e-16
3.8902e-14
4.8105e-14
1.70217e-15
4.42194e-15
1.47032e-13
4.61134e-15
0.00553229
5.24013e-15
6.40909e-16
9.99451e-15
1.49547e-15
7.02397e-14
1.22011e-14
4.936e-16
1.0862e-14
4.33952e-14
4.72444e-14
1.69759e-13
1.32004e-14
1.60707e-14
1.77912e-15
1.26015e-06
3.25737e-14
9.805e-14
1.26056e-07
2.99583e-13
2.84675e-15
5.96216e-14
5.66709e-14
1.42675e-14
8.60328e-14
1.44498e-14
1.21598e-14
0.0146366
1.62749e-15
1.56975e-15
5.59077e-13
7.47088e-13
6.27245e-14
1.28187e-13
1.1135e-13
1.8989e-13
3.83614e-15
1.9642e-16
2.17821e-14
3.42286e-14
2.12484e-14
1.09443e-15
2.65058e-15
3.02608e-14
6.1041e-19
2.15898e-15
1.54608e-14
2.67236e-13
1.42669e-15
1.35706e-11
4.97034e-14
1.60394e-13
1.11871e-13
4.72229e-16
5.21223e-14
5.30143e-14
6.33097e-14
1.71304e-14
8.70617e-13
2.75022e-14
1.98794e-14
7.31102e-14
2.79423e-15
3.31015e-14
6.67201e-16
1.12786e-17
6.621e-14
1.13732e-15
4.79613e-14
1.56829e-14
1.32041e-14
6.17029e-15
1.52813e-13
1.1035e-15
3.55328e-14
4.8183e-14
3.7917e-14
6.19174e-15
2.79756e-14
1.84983e-14
2.5637e-05
4.94967e-14
4.38608e-14
3.13551e-14
2.05263e-13
4.68148e-14
5.45691e-14
1.87296e-13
5.41486e-15
2.07055e-15
2.02934e-13
1.93304e-13
5.44775e-16
4.18176e-14
1.63389e-15
2.15557e-13
4.3928e-16
5.73793e-16
1.11304e-14
5.9555e-14
2.99706e-14
5.21718e-14
3.7806e-13
2.74455e-13
1.92631e-17
5.12266e-14
2.46634e-14
5.60065e-16
1.98274e-17
9.7401e-15
2.09233e-14
5.3958e-14
1.81391e-15
2.50475e-14
2.39663e-14
1.57292e-13
1.09608e-13
4.11582e-14
8.84083e-14
2.8815e-14
1.60244e-14
2.68878e-16
7.86665e-16
1.89297e-13
7.19855e-15
1.0783e-13
5.67848e-14
1.92726e-14
7.24479e-14
2.90304e-18
5.74778e-14
4.52467e-15
1.18004e-14
6.46872e-14
5.07905e-15
1.09889e-13
8.35643e-16
2.95838e-15
1.2815e-13
4.88267e-15
3.27883e-15
5.87974e-13
3.33724e-05
7.92189e-14
2.42856e-15
2.83479e-13
1.72047e-14
1.36749e-14
4.06168e-15
6.91221e-14
4.08908e-13
4.4033e-19
5.93421e-16
2.29403e-16
4.87645e-13
2.06383e-13
1.08144e-13
3.474e-15
1.86357e-13
4.60204e-14
6.27599e-16
1.01212e-17
3.45713e-19
3.403e-15
1.07073e-14
1.64181e-13
2.3148e-15
7.27188e-15
2.55882e-15
5.36652e-13
1.18741e-13
1.12497e-13
3.12006e-19
9.32269e-08
1.18896e-13
1.81671e-13
3.31731e-14
1.95379e-14
1.351e-15
1.70807e-13
1.2494e-13
6.80135e-15
7.0405e-14
2.41447e-16
8.22546e-15
4.28392e-14
1.98715e-13
2.83699e-15
3.61827e-15
1.3189e-13
5.66894e-17
3.14509e-15
1.74346e-15
9.08179e-16
1.20545e-13
1.11847e-14
2.53948e-15
2.79378e-15
6.54655e-14
8.01731e-16
1.22729e-13
1.48635e-13
4.67204e-14
5.39843e-14
1.84705e-14
2.33127e-15
7.30642e-17
4.75278e-18
3.54343e-14
1.77272e-13
3.82939e-14
1.25592e-14
1.43198e-15
1.24017e-13
1.1379e-13
3.85498e-15
7.19339e-14
3.71285e-13
3.82648e-15
1.09363e-15
1.01179e-14
3.27955e-14
8.13834e-16
1.45502e-16
1.88268e-13
1.74366e-13
7.08574e-14
4.46601e-14
1.35656e-13
4.829e-15
4.68253e-13
7.33924e-14
7.75814e-13
1.47846e-12
5.97365e-15
6.37688e-14
2.33335e-14
2.77702e-16
2.60512e-14
7.79619e-14
1.43591e-13
4.92571e-15
7.31334e-14
8.74412e-15
7.48253e-15
3.78599e-14
1.6943e-15
9.50451e-14
4.5639e-16
5.93401e-14
4.35228e-16
0.00226752
1.49359e-14
2.57399e-12
1.12785e-14
3.11572e-13
8.78113e-15
2.47744e-15
7.74434e-15
1.85856e-13
3.5732e-13
3.92436e-16
1.75513e-14
3.12244e-13
1.79098e-13
3.26429e-13
4.84208e-14
1.5595e-13
1.24731e-14
1.07643e-13
3.13523e-13
1.48425e-13
2.14659e-15
2.0545e-14
1.52294e-13
2.04912e-14
1.08889e-12
7.22072e-15
5.01694e-14
4.38803e-13
3.10766e-14
1.59372e-14
1.46023e-13
2.06766e-13
7.60809e-14
1.61307e-13
5.51533e-14
1.09166e-13
0.00174983
1.48116e-18
9.90413e-14
6.02026e-15
1.20115e-14
3.71403e-13
9.18993e-14
1.18596e-13
6.53422e-15
5.07584e-14
1.64088e-13
4.17852e-13
3.67695e-13
2.17516e-14
1.09627e-14
1.18909e-13
3.36993e-14
2.51212e-13
6.29352e-13
2.32118e-13
4.86019e-15
1.445e-14
8.48365e-13
1.31045e-13
4.85625e-14
3.10091e-13
1.45911e-13
0.0146689
4.72963e-15
8.77885e-17
4.58742e-14
3.97239e-14
2.46656e-13
5.38067e-14
2.10467e-13
2.32246e-14
4.13246e-13
7.20231e-14
2.53825e-13
8.24183e-15
1.08995e-13
6.83253e-19
8.6867e-19
7.25106e-09
1.14843e-13
1.701e-15
2.21374e-15
3.76739e-13
8.09121e-14
1.12182e-07
2.15059e-15
2.53275e-18
4.51288e-15
4.91563e-13
4.71728e-15
6.24501e-14
2.03844e-16
5.02359e-17
1.48533e-13
4.83047e-16
4.71859e-14
1.38224e-13
2.86362e-14
1.58506e-14
6.42968e-14
5.02655e-15
4.13391e-14
2.26553e-14
8.35189e-14
3.02906e-19
1.9896e-16
5.30778e-18
1.13606e-16
0.0246634
3.27583e-13
3.68088e-15
6.04183e-15
3.45681e-15
2.66695e-17
5.0959e-15
1.23466e-13
1.30982e-13
6.88514e-14
8.81267e-16
5.15116e-10
7.73359e-14
1.64583e-13
1.1881e-14
1.0004e-13
2.2278e-14
5.5652e-17
1.18018e-14
1.70017e-13
3.43011e-13
3.15069e-15
7.02947e-13
1.51659e-12
3.83645e-17
6.23726e-13
1.00632e-13
3.62823e-13
1.53829e-15
4.52081e-08
5.71791e-08
1.06244e-14
6.23474e-15
4.30023e-15
3.15708e-14
2.54792e-13
1.63421e-13
1.32989e-15
4.03827e-13
5.92821e-18
3.08868e-14
5.42132e-14
9.7745e-15
2.88721e-14
5.10757e-15
8.02106e-16
7.51556e-18
7.29456e-08
7.00418e-15
4.44247e-14
9.01612e-14
2.86281e-13
1.46061e-13
8.38865e-15
8.86563e-10
1.94427e-13
4.10622e-14
1.7055e-13
3.90402e-14
9.46141e-15
1.42964e-13
6.67422e-14
8.75604e-15
9.11725e-15
1.86137e-14
8.03599e-19
4.1362e-15
5.35981e-15
0.000160866
4.81932e-16
5.61623e-15
2.25875e-13
1.44924e-12
9.7254e-14
1.02345e-15
9.12798e-14
5.13548e-15
9.03173e-14
6.82093e-15
5.71508e-15
1.74497e-14
4.68879e-15
5.38203e-15
7.16911e-15
1.30628e-14
1.91931e-14
5.48714e-14
5.3838e-14
6.40558e-15
3.00054e-14
3.23816e-14
7.17194e-14
1.00839e-13
7.62125e-14
3.3224e-13
1.39581e-13
8.17998e-14
6.04149e-15
1.11379e-13
8.42866e-14
2.94032e-16
2.90376e-15
8.72924e-18
1.34373e-13
1.98885e-13
3.32079e-13
9.28439e-16
7.25727e-14
8.41454e-15
3.8222e-15
1.50109e-13
6.22993e-15
1.56861e-14
1.78381e-14
2.72127e-13
2.88883e-13
7.04352e-15
1.89219e-13
7.25553e-15
4.43676e-15
2.12645e-18
1.90073e-15
9.69308e-15
5.2024e-16
1.59711e-13
7.95833e-14
4.32956e-14
1.79178e-14
8.30905e-15
7.99249e-16
2.38198e-15
2.54291e-15
6.83833e-17
5.35597e-14
6.22189e-14
1.10961e-13
1.74434e-15
4.78937e-14