/*--------------------------------*- C++ -*----------------------------------*\
  =========                 |
  \\      /  F ield         | OpenFOAM: The Open Source CFD Toolbox
   \\    /   O peration     | Website:  https://openfoam.org
    \\  /    A nd           | Version:  10
     \\/     M anipulation  |
\*---------------------------------------------------------------------------*/
FoamFile
{
    format      ascii;
    class       volScalarField;
    location    "28";
    object      p;
}
// * * * * * * * * * * * * * * * * * * * * * * * * * * * * * * * * * * * * * //

dimensions      [0 2 -2 0 0 0 0];

internalField   nonuniform List<scalar> 
111485
(
7.87178
0.0261434
0.0167357
7.87279
0.00988409
7.60744
0.0100624
0.0188097
0.0103375
-0.00262524
0.00957931
0.00665618
0.0137429
-0.00155891
0.0118553
0.0374179
0.0262101
8.79314
0.0148618
7.87344
7.87361
7.61019
0.0079578
0.0264054
0.00471068
7.84713
0.0129627
0.0452737
0.0151233
7.87282
-0.0841167
0.0161863
7.87537
7.60517
8.57214
7.56523
-0.0601768
0.051979
-0.124328
0.0208776
7.65221
-0.00247656
0.0215822
-0.0325184
-0.262424
7.88642
-0.016084
0.0221042
-0.00732436
7.9152
7.91331
7.35989
7.92178
-0.0475848
7.92677
0.0245034
0.0155057
7.61344
-0.0958309
0.0182648
0.0194422
7.87225
0.0183387
-0.0739346
7.65573
0.0238715
5.09887
0.0166233
0.00501903
0.0168224
-0.142555
0.0302159
7.72532
0.00507781
7.87814
0.0314636
7.60978
-0.00561112
7.60863
8.05442
-0.114385
-0.0345917
7.60917
7.87445
0.0226631
0.00857352
1.74021
-0.0534793
-0.105856
0.0376748
-0.215517
0.0104808
0.0219197
0.0459628
-0.00204574
7.87414
7.8723
-0.0370438
-0.74335
0.0668974
7.87212
0.00474304
7.59441
-0.00985091
0.0103229
7.911
7.61224
0.0152849
0.00812237
-0.350988
0.0210713
0.0324332
0.0160611
0.00545998
7.84367
0.0301156
7.86022
7.60566
0.0109014
7.87434
7.8461
6.65961
7.61011
7.61363
-0.00410177
8.95368
6.62225
0.0187101
7.87503
0.38444
-0.104816
-0.038519
7.87863
6.50597
6.79552
0.0105433
7.60958
0.032118
0.00858579
0.0271714
-0.0391141
0.0101948
0.0162662
0.0178175
-0.0228369
0.0328764
7.60958
7.87361
7.61853
0.0165701
0.0137166
7.87128
-0.0733175
0.00925649
-0.668651
0.0182397
0.0141342
0.00885852
-0.525501
7.87973
7.87306
0.015373
0.0069447
-0.48544
-0.606146
0.0248264
-0.0654992
7.64071
-0.447095
-0.413773
7.61323
7.8731
0.00575535
7.6109
0.0294592
0.0173521
7.6655
7.70299
7.86292
7.80956
7.67406
7.87211
0.0232694
0.0185621
0.0259279
0.070116
0.000704444
0.0273239
-0.0507492
7.87279
0.0150528
7.69815
7.86057
0.0353322
-0.00940604
-0.049418
0.0309198
0.0160948
7.87898
0.0223371
0.0174988
5.28951
-0.0232891
0.0251959
7.86924
0.0312003
-0.0105135
7.69688
-0.0551397
-0.0175465
0.0129323
0.0138094
7.66674
7.87184
0.027623
4.95282
-0.038179
7.61062
0.0302158
0.0334421
-0.00439888
7.87145
0.0193387
-0.0640652
5.98563
7.61062
7.61334
-0.119011
-0.593948
7.72346
7.29336
0.0316977
0.022956
-0.0827572
7.72139
7.80563
-0.071866
7.87588
0.00692432
0.0290832
0.0294276
0.0169486
0.0285908
7.61453
-0.104101
0.0151896
7.61734
7.60934
-0.0530953
0.0314555
7.78131
0.0298203
0.0288966
7.87378
6.35042
-0.0281867
7.88723
8.02315
7.18562
7.87324
0.0253409
0.0179766
-0.0104839
7.87577
0.029019
7.87264
7.87095
7.87868
-0.0799246
-0.0123072
0.0250129
0.0160139
-4.78719e-05
0.0187832
0.016181
-0.0819341
0.0102085
0.0206986
7.56959
7.87348
-0.0871784
0.0193587
-0.0945614
0.0256467
7.87392
0.0257167
0.0120084
0.0189852
0.0163529
-0.113765
0.0140746
0.0174908
-0.0253329
7.60996
-0.0138972
7.611
8.73669
8.09027
-0.124583
-0.0121932
0.00905852
7.86644
7.67421
0.0269679
0.0262701
7.87099
7.86964
7.93051
0.0179276
0.0297237
0.0198877
0.0158749
0.0121868
7.22384
7.61648
7.87497
0.0305242
3.26705
-0.00491735
-0.114814
-0.0892407
7.61013
7.87145
7.87222
6.78958
0.0237009
0.0176263
7.60238
0.0266992
7.778
7.86302
-0.0352507
0.0242475
0.00172373
0.0267492
7.9835
6.75368
7.60561
0.0241096
0.0199136
-0.0856946
7.64832
0.440823
-0.153323
0.017445
0.0284807
1.26323
0.010652
7.60805
0.00588376
0.0298663
-0.102899
-0.0415811
0.00694889
7.60786
7.87634
7.61083
7.87603
0.025507
0.0240722
-0.0161036
0.0152664
7.6261
0.0112028
7.61331
7.87931
0.0118414
8.13826
6.94857
7.91563
7.5605
0.0170224
7.61207
0.0173745
0.0161643
7.60841
0.00496371
0.0257288
7.8518
0.0255645
0.0107229
0.0314193
-0.050692
0.040856
0.030093
7.9917
7.87423
-0.0212867
7.63022
0.00390276
-0.0482946
7.66414
7.6127
0.026088
0.010375
-0.000786023
0.0228692
7.60943
-0.0830537
0.00232658
7.60552
-0.0355432
-0.0121818
7.87087
7.87231
0.0248738
0.00498937
7.59051
7.86416
5.85338
7.87147
0.0101587
7.61074
7.87236
-0.00110531
-0.0984683
-0.00995321
0.0180612
7.60853
6.80704
-0.00795249
6.90535
-0.0307309
-0.00373177
0.00405597
5.27398
6.98005
-0.489458
-0.31939
7.87033
-0.0518177
0.00954317
7.86954
-0.518887
-0.00314967
6.94424
0.00372327
0.00591168
0.0387334
7.6097
0.268712
0.0026081
0.0490915
-0.138443
6.59879
-0.6065
7.87164
-0.0445812
-0.169076
7.6138
-0.00750832
-0.011003
6.41662
7.8747
7.46878
7.87257
0.0113436
0.078363
0.00993227
0.00922372
-0.0578686
7.61104
-0.0465299
7.88409
0.0228375
7.59667
7.88146
7.88877
3.16013e-06
7.8751
7.87178
8.34337
7.87069
7.62178
-0.0200118
7.61145
7.41511
7.60772
7.85939
7.60217
7.88124
7.61049
-0.00213271
7.60623
-0.0230104
0.000689643
-0.106109
7.6171
-0.020413
7.61538
7.87151
-0.00684251
-0.00682135
0.0403961
-0.126266
7.31973
-0.0129397
-0.0208428
0.0230216
-0.0145471
-0.00358398
7.87421
-0.00432009
6.42791
0.00201299
7.61041
-0.0238574
6.65236
0.0224491
0.0141535
8.29104
7.67497
-0.0326894
7.87129
-0.0123072
-0.0248486
7.62051
7.6278
7.91987
7.61268
-0.981746
-0.0132004
7.60597
7.61781
0.00764282
7.61013
-0.0136786
7.60902
-0.0190018
7.87181
0.00685088
0.00592824
0.0509293
0.021328
7.58898
-0.128658
7.60394
7.61048
0.00208074
7.61151
-0.00283918
7.92603
-0.0274404
7.87343
0.0217935
7.87362
6.95188
-0.112491
-0.0474928
-0.0166729
0.00624145
-0.027646
-0.00567576
7.61755
-0.0226504
-0.0280829
7.61011
-0.054051
-0.0649071
-0.00873136
7.67948
8.03507
0.0308383
-0.0402592
3.67295
7.71822
-0.00187371
0.0192466
0.00328982
-8.29072e-05
0.155945
2.52076
6.85834
-0.704372
3.13559
7.87296
0.0075587
7.62948
6.98283
0.029987
2.47301
-0.724832
1.41701
6.85657
-0.0141889
0.0144361
7.62504
7.44264
0.0215504
7.87886
7.61017
7.61086
7.61537
-0.0014005
7.61184
7.82984
0.00421401
0.0257132
6.01533
-0.0308069
7.30648
0.0271352
7.92061
7.61548
-0.00748055
7.60955
7.61533
6.94961
0.0458868
4.63253
-0.0261523
0.0375549
7.88703
-0.229584
-0.0694745
0.00352266
-0.0158931
0.248695
-0.00088933
7.61285
-0.00870969
0.00633839
7.8768
0.0197244
-0.0229207
0.011866
0.0353013
0.0120532
0.0109721
7.88657
-0.00170777
-0.0565412
6.92964
0.0128406
0.0128349
4.83225
0.0387485
0.0132237
0.00340793
0.00605198
0.0144377
0.0330171
7.75534
0.00839701
-0.00242265
8.22948
-0.00626007
-0.0204065
0.036182
7.61252
0.0494815
7.89136
7.60995
7.62244
7.61345
0.0157818
7.04279
-1.05099
7.86882
7.55079
0.00322968
-0.00252613
7.87015
-0.0114164
7.87
7.87377
7.92299
-0.00797418
0.00571518
6.97869
7.82079
7.61181
7.61202
-0.0668347
0.0201203
6.79727
0.000939781
-0.417153
7.61609
0.00856092
-0.0176045
0.0829535
7.60945
7.61021
0.0215512
0.030851
6.91326
7.61384
7.60164
0.0159862
7.87654
7.86977
7.61197
0.00470687
0.019369
7.60949
8.47952
8.21122
0.149148
7.61522
7.6092
-0.0227549
-0.075424
6.89778
5.94322
1.13426
-0.0137779
0.00221674
7.58863
-0.0213777
-0.00494325
7.60843
7.92036
7.60904
7.61097
7.61433
7.60877
0.0211995
7.87117
7.60978
7.67009
0.0127078
0.0153913
7.87735
7.93367
-0.0249037
0.0245906
0.0348437
7.86908
7.61038
0.0254714
7.8742
-0.00900662
0.018954
0.0413735
7.84997
7.8722
7.87205
7.61111
0.0345318
7.61025
7.60964
-0.0339729
7.87214
0.0338337
0.00546617
7.6341
0.0347523
7.83943
0.0234268
-0.00798374
-0.0250401
-0.017078
-1.28956
7.22685
0.0214932
-0.0125929
0.000991799
7.78446
-2.1232
7.14465
0.0237687
7.61377
-0.029152
-0.0141951
-0.0324987
8.07837
7.87227
7.87486
0.0289014
7.30345
-0.0268208
7.44041
0.0235515
0.0341468
0.00948165
0.0237931
7.60842
7.63652
7.74646
0.0265447
7.6126
7.22441
-0.161318
7.61245
7.61939
7.87365
7.6095
0.010006
7.59978
7.61122
-1.58615
7.28588
7.63201
7.06264
7.61151
-0.0373143
0.0134991
7.87116
0.0157905
0.997277
-0.0375857
-0.390464
0.0238011
7.61594
-0.0109066
-0.031916
-0.0366755
7.87385
-2.65881
0.0100628
6.46493
-0.00399981
-0.118795
-0.105086
0.00294168
0.0270457
-0.141709
0.0387892
0.0275957
7.58952
7.6266
0.0112307
-0.000379767
7.61466
0.0137694
0.0046912
0.0219914
7.60834
-0.123238
7.60958
0.0194884
0.0134542
7.60961
-0.066314
0.0273362
-0.161464
-0.0218253
7.56689
0.0149866
-0.155672
-0.0787397
-0.159151
-0.0402233
7.6002
7.62028
-0.0233409
7.6095
0.027802
-0.0788705
6.71879
-0.475633
-0.829688
-0.307449
7.6094
6.37696
0.0247289
7.8743
9.46249
-0.048364
7.60513
7.60863
-0.729111
-0.865678
7.6096
-0.124372
7.611
7.60952
7.87604
7.87079
7.9546
7.87323
-0.0265213
7.6144
7.6136
7.61947
-1.44595
0.013558
-1.8373e-05
0.0255264
7.62387
7.60873
-0.0502607
7.6106
7.61249
5.80725
-0.0544034
0.0241275
7.60917
7.60466
7.62148
7.60895
7.55574
7.60797
-0.0735074
7.61436
-0.204723
0.0121681
7.61169
7.88261
7.9303
-0.126075
7.92245
7.87348
7.62728
-0.213707
7.60851
-0.0663565
-0.0710788
-0.182323
7.60705
5.28864
-0.0418145
0.00722521
7.66216
-0.200932
-0.0149338
7.88132
7.58615
6.8997
7.60542
0.0232715
0.0135428
-0.065248
-0.350601
7.61048
0.0259685
7.56439
6.82368
6.85656
7.61346
0.0195786
7.6105
7.94084
-0.0666345
0.0293131
7.93793
-0.00375268
7.30997
-0.0854404
7.97579
7.61021
7.58172
7.87244
0.0255142
0.0218216
0.35386
7.61136
7.66098
0.0158203
7.60976
7.06833
7.87182
-0.00389068
-0.33876
0.0446885
7.86271
-0.0739503
-0.061768
8.2399
-0.0615084
7.61832
-0.0411976
-0.0258508
0.00583388
-0.0886637
-0.1799
7.61009
7.61096
7.6106
-0.0735777
7.68107
-0.110424
7.87623
0.730151
7.87178
0.0186742
0.0197284
7.94252
7.60924
7.95982
7.61983
-0.112214
7.96795
6.90788
0.005065
-0.105342
7.90926
7.03395
7.70462
7.05492
7.61133
7.60986
-0.103945
0.00649417
7.87282
7.86558
-0.631472
7.87827
-0.103605
0.0233511
7.6948
-0.0349145
7.87239
0.0179501
7.6195
0.0151931
7.60945
-0.589696
-0.309614
-0.148722
-0.0403622
-0.0447589
4.68223
7.54036
-0.0320831
7.91715
0.0134235
7.87061
7.63971
7.62334
7.62103
7.64505
7.61466
-0.0550772
-0.0664415
7.87267
6.65404
7.87847
-0.0538684
-0.126242
7.86905
0.0253041
-0.152137
7.93073
0.0265069
0.0260115
0.0166071
-0.148552
7.60981
7.60911
7.63865
7.61013
0.0199143
7.53963
-0.0350785
7.61021
-0.0444859
0.0194039
7.61285
-0.0526582
7.60085
7.60949
-0.0456438
-0.0841961
2.13136
7.61086
7.95403
7.60279
0.0210057
7.50273
7.92341
7.52011
0.85548
6.72255
-0.533622
7.02515
7.4836
7.76831
0.0195106
0.0080065
0.0116011
0.0193996
7.8585
-0.0297137
7.61151
7.613
0.0169632
7.58713
-0.649472
-0.0405877
0.0325762
-0.0467304
-0.964262
-0.00278065
7.61217
-1.42151
-2.98665
-0.00852976
-0.0361925
0.0229026
5.53756
7.86762
0.00115121
7.87622
7.60849
-0.247459
-0.00264729
-1.10412
7.59444
7.43843
-0.0757648
7.93032
7.61134
-0.0518876
7.94914
7.93813
0.11201
-0.0526687
-0.0935031
0.0474667
0.0267382
7.61417
7.60963
-0.276557
0.0257403
7.61082
7.94338
0.0322795
7.622
6.61158
6.75706
6.79362
4.35584
6.62598
7.61238
0.0203371
7.59754
-0.0786683
7.61093
3.42338
7.66963
7.63487
7.61253
7.61045
0.0287777
7.61019
7.60992
6.91383
7.60635
7.61319
7.60673
0.0242903
7.62756
0.0215252
-0.0833781
7.6372
0.0414364
7.61049
-0.027118
-0.210219
0.0178484
0.0262259
7.84588
0.0234188
0.0244679
-0.151609
7.87539
-0.108744
0.0251192
0.0266982
7.32582
0.0180758
7.68252
7.61088
7.61308
7.60953
0.0237465
7.61077
7.60017
0.0203883
-0.13613
0.00858813
7.62195
5.42449
0.0302158
7.61539
-0.373189
7.92751
0.0126042
7.60731
7.60977
-0.00530588
7.60692
-0.0210984
7.87543
7.61051
0.0276927
-0.038594
0.0245262
0.0197208
-0.142314
0.0181762
7.61082
8.01597
0.0137491
0.0292433
0.030096
-0.0957175
7.60969
0.0223655
7.60955
7.7987
0.00426368
-0.0710798
7.62264
0.0234522
7.59834
0.0187945
0.0311585
7.71137
7.60933
7.61123
0.0129128
7.61219
7.6107
0.0162001
0.0192661
-0.0429444
0.0231237
7.63187
7.62192
0.0110778
0.0286456
7.61558
0.0110352
7.69883
0.00716711
7.61053
7.61024
-0.00745901
7.6092
-0.0233244
0.031001
7.61659
7.60869
0.00475614
6.47024
0.0315217
7.87186
-0.060642
7.88233
6.67979
6.45761
0.0276978
6.96077
6.88604
0.0118601
6.84428
4.25401
6.32953
7.67221
7.87717
-0.180951
0.0251496
7.65063
7.60873
0.00163873
0.0131169
7.62103
0.0131069
7.60836
7.88225
0.00434974
-0.00586942
0.126081
7.60939
7.61189
7.61065
7.60966
7.60485
7.60804
7.60373
7.60536
7.60914
7.60768
7.60956
7.87852
7.6131
7.60876
7.6115
7.78395
7.6092
7.60939
7.60974
7.63786
7.81802
0.0194527
7.61135
7.60952
7.62178
0.0272309
7.61382
7.88215
2.94503
7.59968
7.50723
0.0184363
8.24214
7.56338
3.4793
0.0135804
7.6108
6.75768
7.25845
7.6087
-0.0297386
0.0155226
0.0128634
0.00454624
0.0319343
7.9021
7.60362
0.0175666
0.0237326
0.00322703
7.60728
0.0222146
-0.0156214
0.0272166
0.0218774
0.0229289
0.00475351
0.0262001
0.0164516
7.88666
0.0229564
0.0263705
0.0130474
0.0192719
7.60935
7.609
7.60933
7.8725
7.60695
0.0256504
0.0248943
7.61262
7.60904
7.60966
7.81722
7.61124
7.87408
7.61642
7.87871
0.0300083
-0.228346
0.0255957
0.0312285
7.5859
7.62685
-0.0329003
-0.266334
7.60946
7.61027
0.00779532
7.88544
7.60979
0.0648115
-0.00152029
0.0155868
0.0323337
-0.0297058
7.8985
0.0144613
0.022287
6.90957
7.87592
0.0111607
7.89527
7.62313
2.38112
1.268
-0.00934597
7.76426
7.85006
-0.0443344
0.0225292
0.0328874
0.0247521
3.39032
7.8721
-0.0183697
8.23626
7.87424
7.55618
0.00233964
7.61078
0.0273431
0.0107973
0.0119333
0.0140134
7.87978
0.0362473
7.87577
7.45174
7.87381
7.8654
0.0220064
4.48713
7.60981
7.87271
8.35777
0.0266436
6.85444
0.0112748
0.0203656
0.021565
0.022943
7.82242
7.8673
6.62602
0.0132511
0.0265315
-0.925326
7.9198
7.87188
6.82515
-0.0230475
-0.0250595
7.60845
-0.0337041
2.48643
0.0152801
0.0199207
7.87231
6.64411
0.012108
0.0253586
7.61107
0.0057864
0.0038833
-0.00293205
-0.00475389
0.0203742
0.0376523
6.91192
0.03145
0.0245003
0.0299242
7.97463
0.0177857
6.99818
0.0329545
0.0207316
7.87464
0.0212503
0.0167336
0.0114714
0.0251669
8.73778
2.0776
-0.0531097
4.27659
0.0183846
7.64648
0.0225921
0.018381
7.87933
7.60988
-0.369451
-0.116755
0.0203696
8.73032
0.00666159
-0.210997
-1.17432
-0.0844465
7.88024
7.8927
0.0233311
8.34408
0.0248455
-0.219927
0.0177703
0.0332479
7.87228
-0.00137111
0.0248346
7.87124
6.92984
0.0360356
7.88728
0.0279451
0.0325115
7.87325
8.78841
0.0229982
7.87232
7.60913
7.61027
0.0295211
0.0352597
0.0131024
7.92681
0.00996417
0.029011
7.67136
0.0315095
0.0193314
0.0249772
-0.12894
7.60995
0.0187564
0.0541251
0.0312981
0.019759
0.0269801
-0.160421
0.0292849
7.8716
-0.0497855
0.0224409
7.87197
0.0268151
7.6165
7.61095
7.87541
7.62044
7.87403
0.00408315
7.61119
0.0268224
-0.0182674
7.87616
0.0142534
7.80264
0.0174262
7.87874
-0.168073
7.65225
0.00758732
0.00299459
-0.190968
0.0446108
0.0239277
0.0173397
0.0288471
0.0392541
2.79809
0.0369243
0.00561693
0.0410639
7.87356
0.0409361
-0.126829
0.0342443
0.0136524
-0.169934
7.87573
6.76675
7.87638
0.0134753
7.87164
6.16581
0.0250318
8.3888
0.00871008
7.86365
7.84081
7.60989
0.0182075
0.0435027
0.0231804
-0.0456025
0.0250516
0.0204265
0.0326385
0.00939427
0.0158185
0.0307475
0.021961
7.87809
7.56395
7.86634
0.017482
0.0289262
7.64726
7.60983
6.30673
0.0453702
0.018672
7.87207
0.023707
7.86991
-0.438572
0.0173069
-0.0669896
7.87319
7.87149
0.011049
7.87201
-0.00868734
0.0302362
7.45259
0.0207814
0.0162452
0.0274542
7.87125
-0.112245
6.9792
-0.0260507
0.0100645
7.87475
7.88452
0.0274806
5.52268
7.90424
0.0346074
0.0317325
7.87238
7.85479
6.93553
0.013428
6.28257
0.016732
-0.0349912
-0.00141327
7.87184
7.03198
-0.0366669
7.87063
7.61626
7.87412
7.8755
7.14295
7.72439
7.57066
7.8727
7.88935
7.2952
8.39709
7.63954
-0.000254323
7.64896
6.75308
6.39246
8.9066
6.89681
7.87198
-0.034414
7.38915
7.70867
-0.0346039
8.20799
8.57312
7.76982
-0.0441297
8.36725
-0.0331873
-0.08606
0.0118961
7.16325
7.87504
-0.0246402
-0.462894
7.83495
7.86581
0.0214561
7.08426
0.0212249
7.00855
7.59239
7.72837
0.0196954
0.0233101
7.87075
0.0047162
7.89595
7.38728
-0.188945
0.0434964
-0.0324066
7.60699
0.0229569
7.22821
-0.0223108
7.61049
7.87178
7.60941
6.98687
0.0413342
0.0312872
7.8744
-0.772934
7.88127
7.89433
7.88097
7.87325
-0.0254328
-0.0398713
0.0331984
-0.0208888
7.83336
0.0113383
0.0127952
0.036992
-0.0315565
7.65987
0.0276706
-0.000310531
-0.00423928
-0.436467
0.0227457
7.92345
-0.0140567
-0.0246705
0.0229252
-0.0242303
-0.0479757
7.90225
-0.0409334
7.77842
7.87617
0.0208034
7.87974
0.0257994
7.86978
7.93853
7.54976
7.8792
7.87358
-0.0477983
7.87788
-0.0175973
7.19412
7.61423
0.019003
-0.00407296
0.0300631
-0.0172234
7.8904
0.69401
7.87455
-0.0201222
7.93968
0.013441
-0.0301846
-0.0167722
-0.00514985
7.97013
7.97708
7.87933
0.0286128
7.62515
7.86547
0.0242012
7.60235
7.60899
0.00112936
7.96991
0.00890333
-0.442376
7.14438
7.49772
7.43571
0.0115536
0.0128036
7.87234
0.00748468
-0.0121527
6.98637
-0.0226863
7.8707
0.0205931
0.0223972
0.0393055
7.87443
0.0116658
0.0202902
-0.0289152
-0.00350364
0.00742212
7.8739
7.87223
-0.105529
7.86775
7.60771
7.87021
0.0141737
-0.0188458
0.0185654
-0.0363288
6.86614
-0.00356434
0.0154044
0.0120944
-0.0607661
0.0186988
-0.0184192
0.0126034
7.60958
7.60999
7.60974
0.0317781
7.61102
-0.0332453
5.24064
0.00267532
-0.561805
0.00794927
0.0135841
7.60864
7.87303
0.00370141
0.00287777
7.88699
7.60368
7.87419
0.0109213
0.00536763
0.0021071
0.00801888
0.0296059
0.0147243
7.87296
7.87355
7.87171
0.039949
0.00632035
0.00251714
0.0156802
0.0329065
0.00391856
7.8481
7.87196
6.3372
7.65382
0.0245454
0.0272628
7.86752
7.90567
7.86559
7.87579
7.83687
7.71531
-0.00611716
7.87434
-0.0504755
-0.119583
7.61723
-0.00067432
0.0272981
0.0216412
7.91785
7.76198
-0.00560027
7.87261
-0.00736974
-1.21435
0.0190457
7.6654
5.94535
7.60942
7.87653
7.86812
7.60334
2.09719
7.88584
0.00863782
-0.00301274
7.87504
7.87254
-0.00920786
7.87848
7.61093
0.0126575
-0.204565
7.86148
7.86206
7.67171
0.0418206
7.87217
7.87193
1.1627
-0.0244813
-0.0102178
7.87202
7.6166
7.20749
-0.0147306
-0.0100363
-0.0121402
0.005951
7.61003
0.0542794
0.0128524
-0.000661221
7.55432
7.86948
7.87179
7.82546
7.87235
0.0239139
0.0202752
0.00383284
7.89011
7.87261
7.87194
7.86963
7.68473
-0.0399444
0.109884
0.0185416
7.61393
7.87272
7.92704
-1.01199
-0.0421263
-0.0711687
7.6088
-1.9513
8.25606
7.83858
7.87124
0.0229322
0.0349952
7.87455
7.90691
0.0116464
7.87328
0.0136687
0.0289528
2.72102
7.87034
7.66015
0.0229294
-0.0609404
7.91024
2.53018
0.0546009
0.0316718
7.87374
7.87645
7.88248
7.881
0.0265375
0.026581
7.87674
-0.0515119
-0.0139005
0.200145
7.87254
7.87164
7.87303
7.877
0.00902869
8.38347
7.87378
7.7674
0.0244974
-0.0100579
0.0295113
7.84486
7.87226
-0.0218564
7.62359
7.87274
7.87463
7.87391
0.0202789
7.69484
7.59504
7.61269
0.0200129
0.0267585
7.869
7.87431
7.85521
0.0154806
8.15131
7.87789
7.85727
7.87438
7.87382
-0.202272
0.023123
7.91491
0.0213346
0.0153196
0.0204915
7.87877
7.87524
7.87393
7.83407
7.60996
0.0270396
7.87345
7.37973
7.33134
-0.016779
7.64976
-0.0247079
7.87211
7.61245
-0.016372
0.287787
7.03089
-0.00562444
7.87479
-0.00962199
8.12272
7.89119
7.92227
9.10668
7.87978
-0.0377572
7.8703
0.00940652
7.61208
6.93298
7.87954
7.86769
0.0150124
0.0326553
7.60956
2.64314
7.60714
-0.0133339
-0.0409341
0.00942706
7.61177
-0.352746
-0.023735
-0.0500516
0.0217709
-0.629651
-0.0297398
7.5914
7.60999
-0.754151
0.0218045
-0.00234618
7.90936
7.51336
6.36879
3.25234
7.87471
7.61537
7.87481
7.87533
7.87618
8.30295
0.0346403
-0.0740325
0.0300147
6.96848
-0.0942763
7.87439
0.00968143
7.87166
7.88091
7.61075
7.71113
-0.106128
7.6921
7.60376
7.87222
0.016336
7.87079
7.8724
-0.0573431
7.82636
5.75025
4.92526
4.58559
7.87687
4.80518
4.64371
4.75259
5.45678
7.60952
7.61006
0.0104521
-0.0139276
6.95536
7.13795
7.60575
0.00541795
8.19029
7.71061
-0.102044
7.8747
7.87261
-0.0371943
-0.0891188
7.83852
7.61132
-0.032601
7.03304
7.60346
-0.408985
0.00682632
0.0509328
7.81119
0.0217402
7.87488
0.0152313
-0.396018
0.0163509
7.87275
-0.390107
0.0209946
7.96726
-1.03994
7.86428
0.0194084
7.52977
0.026521
7.80399
-0.0481415
7.87355
7.57051
7.61127
-1.46932
-1.47681
7.88592
0.00959333
0.0118415
7.91948
7.87238
-0.00523312
0.0182637
-0.124939
7.88052
0.0148948
0.00935367
-0.0515309
-0.853256
7.87632
-0.172791
7.6189
-0.152755
7.87173
-1.73438
-2.01091
7.85267
0.0220376
7.6732
-0.0452233
7.60877
7.85685
7.88536
7.89034
7.85085
7.85892
-0.00271518
0.0286589
-0.156577
7.88189
6.34108
-0.144459
7.88022
7.82958
7.90522
7.86691
7.90388
0.0228395
7.87284
7.87457
7.60985
0.0159052
7.85788
7.61005
7.54026
0.036759
7.61046
0.00867299
-0.787741
-0.0521196
0.0343826
-0.0152638
8.21988
7.87757
7.87125
0.0696183
0.0308487
7.54065
6.30952
0.010413
7.87261
7.87575
-0.134353
7.8634
0.0158695
7.87473
-0.0122992
-0.0562281
7.88091
7.60933
7.87427
7.8751
7.87041
-0.0253376
7.87096
0.011683
7.94315
7.87509
0.0242549
7.60368
0.00742664
7.77405
7.87231
-0.012893
0.0307153
-0.120055
7.8741
7.8745
7.87278
0.0293097
-0.088291
7.95077
7.60889
7.64152
0.0130611
7.86594
0.0141009
-0.135694
7.87178
7.86824
0.0218413
7.86638
7.64092
7.61058
7.95923
7.61064
-0.153838
6.22049
7.63545
7.87339
6.38323
7.86792
6.60412
7.84672
7.8668
7.72729
0.0174343
7.78709
0.0108471
7.85945
7.86715
-0.0556402
0.00556537
7.86245
7.82408
7.8743
0.0260863
6.69841
7.87402
7.73256
7.87048
0.0185098
7.86367
-0.181081
7.87457
-0.00990243
6.91402
-0.0267917
7.88932
7.87033
0.00505958
6.54135
7.87976
0.0290373
-0.00722126
7.89279
7.87514
-0.0192615
-0.0541278
0.020239
0.0165431
0.00696548
-0.00845573
0.0220124
-0.0389075
7.94863
-0.19112
6.25494
6.14034
7.87351
7.87139
7.87067
0.0349712
7.87506
7.86823
7.87524
-0.122564
-0.0426491
5.94631
-0.042457
7.87592
-0.0185922
7.60871
-0.0600565
0.0227546
6.32872
0.00250522
7.86594
7.84581
7.61032
0.0408356
-0.0115953
7.87292
7.61023
0.0312703
7.8739
-0.135416
7.91449
-0.0829626
7.87191
7.61083
7.85289
7.60967
0.0250479
7.60993
0.272024
7.61215
-0.00506608
7.87264
7.86893
4.30776
3.98239
7.89072
7.86938
7.87235
7.87323
-0.00745594
-0.143582
5.20843
7.87692
0.000587265
7.60833
7.61988
-0.430546
0.0124188
-0.0686044
7.61093
0.0258306
-0.0212399
0.0253644
0.0143069
7.87257
7.87571
7.87993
7.8761
7.61068
7.60961
7.61038
7.84028
7.61125
7.61057
7.87215
7.61029
-0.108934
7.60953
7.87253
8.6144
7.87447
7.873
2.70258
7.60978
7.87173
-0.00533445
-0.0928979
7.84865
7.85192
7.87275
0.0179253
7.64458
7.86018
-0.109279
7.6111
7.87314
7.86861
7.87663
-0.0469194
7.60953
-0.176665
7.87667
7.85733
7.87144
7.87227
7.86993
-0.103543
-0.144311
0.0212557
7.87474
7.63442
7.90947
-0.12522
7.87218
-0.141149
-0.0801993
7.60801
7.84117
5.93638
-0.405529
7.85538
7.01365
-0.392689
6.01432
-0.00976099
7.64268
-0.0396175
5.98141
5.61325
7.87193
-0.000479811
7.61108
-0.0134245
-0.054367
7.88118
-0.00180479
-0.284725
7.8701
-0.0684691
7.61267
7.85649
7.86542
7.85239
7.86691
7.6082
7.87201
7.87224
-0.152645
7.10376
7.87253
7.87
7.87098
7.87495
0.0187891
4.03822
-0.13296
-0.309005
7.87141
0.0141349
0.00327318
7.87258
6.99113
7.78554
7.86201
7.89922
7.96187
6.42924
7.16301
-0.0347429
7.87417
7.87813
6.09671
6.63562
7.6094
-0.00636739
7.87993
7.62446
7.8745
-0.0797784
7.87664
7.60972
-0.0159688
7.61013
7.57047
7.76218
7.92047
-0.0161014
7.87353
7.87194
7.87182
7.84149
-0.0148704
-0.0659939
-0.0569535
-0.0026933
-0.0302368
-0.0388264
7.61074
6.53993
-0.16523
-0.0322011
6.53002
-0.152083
7.86846
-1.08813
7.63241
-0.089364
7.87461
7.61492
-0.0311078
-1.3893
7.87689
-0.0324741
7.87586
7.87603
-0.0957776
-0.056271
7.87262
7.61014
7.91707
7.60956
7.8693
6.86118
7.87392
7.87173
-0.0327591
7.87347
7.86828
7.87105
-0.02404
7.88416
6.90268
7.61031
7.60973
7.29665
6.91892
-0.0255602
7.61443
6.92735
0.0051877
7.8664
-0.042065
-0.0249773
7.87419
8.62116e-05
7.87116
7.45252
7.93477
6.78138
7.61231
7.85175
7.86573
7.87619
0.0197831
7.87505
7.8732
7.8717
7.7325
7.87192
7.78328
-0.120146
7.8721
7.87728
-0.069393
7.87309
7.61058
7.60938
0.0321804
7.87436
-0.16317
6.70031
-0.386071
0.0157462
7.60683
6.53477
0.00763234
6.26408
7.61091
-0.201956
-0.379913
-0.00268402
-0.0567752
-0.259649
-1.16922
7.6345
7.61579
0.00835657
-0.102098
-0.084172
0.017281
-0.400974
7.60826
0.0196693
-0.00147283
0.00495863
7.61274
0.00761972
0.0223497
0.0230536
0.00425894
-0.123201
0.0149589
0.0423811
-0.00455236
0.0113763
0.0261924
0.0106583
6.91623
0.0915856
0.00632208
-0.00195861
-0.0291511
0.0236072
0.0118372
0.0153361
7.07699
-0.114841
7.02605
0.0349769
0.0106966
-0.0357932
0.00274567
7.01412
7.60804
0.0119996
0.0152032
-0.12807
-0.0641861
0.0246454
-0.000885557
4.82674
0.00889044
7.8721
-0.00259709
-0.113023
-0.0482238
0.0301692
-0.141748
-0.177077
-0.00306642
0.00631655
-0.0028411
0.0314151
0.0012257
0.123514
6.13654
5.40628
0.00148048
7.8762
7.87277
0.00112946
0.0217541
0.0233965
7.87351
-0.0729494
-0.0566377
0.0178283
5.5821
7.87158
-0.215495
0.0074986
-0.120572
7.87588
0.0291719
7.87199
0.00776964
-0.00521182
-0.0463111
-0.0457966
7.87205
7.87408
-0.0376483
0.0123196
0.027391
7.86553
0.00764819
0.0272142
-0.0058869
7.61766
0.0341285
0.0492668
7.00353
0.0226266
-1.51087
-0.106384
7.5784
-0.062368
-0.102863
7.87203
0.00295664
0.017878
1.38617
-0.0132927
0.00916504
0.0229626
0.0214368
-0.0345063
-0.0229345
-0.235831
-0.110672
0.0324025
0.0221931
-0.0145614
-0.174017
0.0208882
-0.0192407
0.059486
0.0143655
-0.162005
0.0402085
7.87214
-0.00229871
-0.0123519
-0.106152
0.0380238
-0.0410564
7.63761
-0.00401528
0.0241651
7.86756
-0.0747813
-0.0155357
-0.00399988
0.00227117
0.0226751
-0.045212
0.0124007
-0.0168727
-0.0538009
7.87177
7.87229
-0.0495886
7.61412
-0.0464544
-0.00456009
7.70501
0.0225883
-0.0198436
0.0397999
7.87174
0.0260273
0.0113802
-0.063102
-0.144517
0.0206027
0.0451136
0.00831818
-0.0099054
7.87226
7.85504
-0.0967489
-0.0324356
-0.0588327
0.0204206
7.85471
-0.0330252
0.0156323
7.70546
0.000284733
0.0105925
-0.0835451
-0.220494
-0.0305723
-0.0382383
0.0389528
-0.00499759
7.6191
0.00354337
0.00331361
6.41067e-05
-0.204423
7.85592
-0.021846
8.01293
7.87305
0.0123409
-0.0123364
0.00563036
0.122525
-0.118509
1.48484
7.61241
-0.0314254
0.0258061
0.0665094
0.0096095
7.87928
7.61158
7.60109
-0.00152124
0.00346322
-0.231199
0.0249756
7.62586
7.85927
-0.00918609
0.00586092
-0.0428909
0.0138716
0.00884157
0.0293851
-0.0514859
4.37806
7.60963
-0.00462811
0.0232888
7.85875
-0.00445158
0.0247126
-0.0755889
0.00972272
0.00953025
-0.0422147
7.85892
0.0261385
0.00604523
7.61252
7.64248
0.0292809
0.0797012
0.0141721
0.0211631
0.0181125
0.0136537
0.0329494
0.0296553
0.0245445
0.0141151
7.85467
7.84711
0.00995153
0.031038
0.0170592
-0.101396
0.0208284
-0.00309599
-0.0011019
0.024213
0.0171256
7.61242
7.62004
-0.115234
7.8534
6.86271
0.0130874
0.019564
0.00105391
-0.0966893
7.1607
-0.0347093
-0.0828543
7.29155
-0.104443
-0.212109
0.0203435
0.0224801
0.0201761
0.0293098
-0.145145
0.0208413
7.87257
7.23432
-0.0803915
0.0287612
0.00520295
0.0262741
-0.108607
-0.0326702
-0.110414
7.26041
0.0255679
0.0533883
0.0143941
-0.125163
-0.0366895
-0.0953961
-0.20406
0.002945
0.0226619
7.15203
-0.00344656
0.0267444
2.78487
6.78702
6.23489
0.0378839
6.63129
0.013879
0.0237033
0.00478159
0.0229613
-0.108234
5.04269
3.04088
8.05791
6.72766
-0.0475936
7.60951
7.60923
-1.29295
7.87021
0.02807
0.0117369
0.0295982
0.0226363
0.0230592
0.00567648
6.26727
0.0230659
0.0255552
-0.0307972
0.0150042
0.0350643
0.0138546
7.60962
-0.20769
0.029926
-0.0960734
7.60964
-0.00872339
-0.00533064
7.60956
7.86417
-0.0807238
0.0193033
7.90826
0.0126183
0.0138234
-0.0834181
7.87356
7.60952
0.0207378
-0.209874
0.0230419
7.60965
7.59453
7.60969
0.00208763
2.54674
2.32005
-0.00330034
-0.370249
7.8816
0.0267981
-0.347458
0.0185583
0.0237733
0.00728256
0.0178937
-0.506032
0.028533
7.65947
0.010829
0.0398539
0.0181103
0.020431
0.0141058
0.0352732
0.0169383
0.009925
0.0304021
-0.06292
-0.389702
0.0120068
-0.0852617
-0.133792
-0.461135
0.0107538
-0.374481
0.0199563
0.0305248
0.0222094
0.0393702
-0.0540142
0.0347464
-0.381418
0.0229128
7.46816
0.0101729
3.81351
0.0143001
-0.00632366
7.61322
-0.0159496
7.46758
-0.00423171
7.49558
7.90426
0.0436005
-0.0263835
6.84441
0.0238638
0.0199024
-0.023025
7.86007
7.8742
0.0146994
0.000854532
-0.182358
0.016044
0.0323002
-0.0240966
-0.0648244
-0.00797023
-0.0166288
6.50969
0.0097759
7.60918
7.80472
0.0309967
0.0297017
-0.0979038
0.0300879
0.0315556
-0.0101392
-0.0222758
7.78079
-0.112383
0.0214438
-0.0120007
7.79248
7.88032
0.00965003
-0.00148492
6.16276
-0.0426623
0.0293148
0.000578795
-0.135477
0.0328309
0.0231022
7.86351
4.57261
0.0219749
-0.0749562
7.67707
0.0400347
-0.0489361
-0.0135432
-0.123428
0.0168125
-0.153037
0.00942332
-0.0386863
4.82921
-0.0492247
7.87353
-0.00024353
-0.0194671
0.0313809
0.0097511
6.57033
0.0145704
-0.0810923
-0.0137829
-0.109965
7.42235
7.60978
0.02938
-0.0734698
-0.00396406
0.00447964
-0.042515
0.021475
-0.00223296
0.00813448
0.0419001
0.0265539
-0.0505009
7.0301
-0.131834
-0.0229747
-0.000800022
-0.0408513
7.22616
7.60951
-2.39511
-0.115869
8.15217
-0.143253
-0.024513
7.36775
4.99521
5.45496
-0.0437558
0.023915
0.171996
5.8394
-0.0765366
0.0313779
7.61671
0.227166
6.88405
-0.0132754
0.0216878
7.64311
-0.0286407
-0.0262565
-0.0300505
0.0268554
7.60923
-0.270886
-0.0411888
-0.0768463
-0.0205162
-0.0201905
-0.0411127
-0.00928664
-0.17829
-0.0226873
0.021733
0.0230222
7.87222
6.44322
6.55409
7.7258
-0.0305917
0.0258757
0.0311393
-0.0642324
0.0206954
0.0294385
-0.00611924
-0.0197504
-0.0162988
0.0242985
-0.0144497
-0.0862789
0.00275337
0.02653
7.87276
-0.0426301
-0.0613077
-0.0179886
-0.0100346
7.60848
0.00159473
0.00427181
0.0353228
0.00261031
0.0127043
7.62937
0.0236044
0.0125688
6.87838
0.023875
-0.0120567
7.71997
-0.00127498
7.71129
7.60737
0.00308094
-0.0614071
-0.00646793
0.0140325
7.61264
0.0347916
-0.0388335
7.61175
0.0298418
0.0122492
0.0186397
-0.0128078
7.75089
-0.0321867
-0.0267421
0.00931307
7.69318
0.046015
0.0205742
-0.00260353
0.0271408
0.0131793
7.90154
7.45103
7.05698
0.026863
7.18556
0.0287135
0.0157712
0.0250678
7.83263
0.0214235
7.65366
7.87336
7.80635
0.00969196
-0.0126843
-0.211133
0.0031593
0.0342053
7.51473
6.88199
-0.0412367
-0.0457345
0.0372305
-0.167343
0.0240861
-0.40429
7.87554