/*--------------------------------*- C++ -*----------------------------------*\
  =========                 |
  \\      /  F ield         | OpenFOAM: The Open Source CFD Toolbox
   \\    /   O peration     | Website:  https://openfoam.org
    \\  /    A nd           | Version:  10
     \\/     M anipulation  |
\*---------------------------------------------------------------------------*/
FoamFile
{
    format      ascii;
    class       volScalarField;
    location    "28";
    object      SgRate;
}
// * * * * * * * * * * * * * * * * * * * * * * * * * * * * * * * * * * * * * //

dimensions      [1 -1 -3 -1 0 0 0];

internalField   nonuniform List<scalar> 
111485
(
1.48315e-09
0.00782719
0.0243751
5.6745e-11
0.0490729
3.18642e-08
0.0465458
0.00616921
0.0190882
0.00125236
0.0469363
0.0094903
0.0048351
0.296339
0.00652219
0.0301999
0.210568
2.6247
0.0103514
4.80315e-08
0.0372092
3.56452e-09
0.0269661
0.0345041
0.00878716
3.50829e-08
0.0393245
0.00179844
0.015229
0.0481396
0.044673
0.0196212
2.17915e-07
1.43769e-06
0.00702686
9.1864e-05
0.147303
0.210059
0.00246088
0.0243038
0.0435968
0.070823
0.0158465
0.00167846
8.23646e-05
1.58683e-06
0.0294034
0.000711368
0.0474475
4.28349e-07
1.09501e-06
1.72972e-05
4.63121e-07
0.0515368
1.50781e-06
0.0438016
0.00303136
4.44566e-08
7.07359e-05
0.00479785
0.0160645
2.65341e-07
0.0049116
0.0985151
6.47138e-06
0.00312294
0.316345
0.094392
0.00119003
0.00633753
6.77582e-05
0.00677316
1.1253e-05
0.00301533
4.65659e-08
0.000720849
1.52999e-08
0.0411085
2.84373e-08
3.12762e-05
0.281088
0.560684
4.68289e-08
5.21747e-09
0.00942878
0.00383785
0.143775
0.0254073
0.000308268
0.00745032
0.000256104
0.0402454
0.0120382
5.85709e-05
0.052124
6.65595e-09
0.0270608
0.00183823
0.00153421
0.00169821
1.43078e-09
0.0176415
1.96815e-06
0.0179457
0.00457853
1.64922e-05
5.66902e-09
0.00759575
0.00422358
0.000730709
0.00559699
0.00475878
0.00382606
0.00335097
1.03906e-07
3.43952e-05
3.04679e-08
6.56151e-06
0.0129295
4.64569e-09
9.20732e-08
0.000190035
0.0753755
2.27195e-06
0.00159014
0.02781
0.000107364
0.00173989
2.92326e-10
0.000347743
0.00166779
0.0328602
0.0471982
0.000175234
7.85351e-05
0.0482839
8.05657e-10
0.0425428
0.0254079
0.00273339
0.000324195
0.00199865
0.202894
0.00270897
0.00412257
0.0130634
7.08444e-10
8.98977e-10
4.76322e-08
0.0281146
0.00155826
0.0285444
0.115744
0.00468681
3.57688e-05
0.0109296
0.0161417
0.0110243
0.00082491
5.43598e-06
9.68551e-10
0.0523481
0.0224921
7.60845e-05
6.40112e-05
0.00589988
0.0033951
0.027114
0.00157263
0.000170232
1.59483e-09
1.52414e-08
0.198091
1.12553e-10
0.00548309
0.00206381
5.24657e-07
9.63037e-06
3.6222e-08
5.8152e-06
9.90106e-06
3.71594e-08
0.00152007
0.00678077
0.0299409
0.00414212
0.00772696
0.00409188
0.000464704
1.78978e-07
0.00491987
5.72549e-06
7.1357e-06
0.00658664
0.0103532
0.0288115
0.0115077
0.0050275
8.45971e-07
0.0068145
0.000500359
0.0017045
0.0145589
0.00234003
1.82876e-06
0.00386625
0.0249364
1.18106e-05
0.000175866
0.00794715
0.00199834
0.000381298
8.71821e-06
7.80694e-09
0.00841322
0.000312124
0.119227
7.46903e-09
0.00671142
0.0206351
0.119078
8.33229e-08
0.00331953
0.0138024
0.000278063
6.89789e-09
4.31355e-10
0.149991
0.00418396
2.35923e-05
9.38277e-05
0.00945676
0.00783184
0.161145
3.86681e-05
2.0584e-05
0.160985
4.66405e-08
0.00242281
0.00960563
0.0167016
0.0116573
0.00966598
3.90126e-06
0.00195191
0.000628337
7.852e-06
1.23974e-08
0.0309362
0.15722
1.82035e-05
0.00658716
0.0108223
7.91081e-10
0.000193261
0.000112962
2.78838e-07
6.67833e-05
0.0997539
1.8536e-08
0.0147577
0.0106525
0.00369263
3.36528e-09
0.0118265
6.61553e-11
6.09484e-08
5.10078e-07
0.165024
0.023066
0.00621466
0.00552868
0.213713
0.0124348
0.00155799
0.000819707
0.0321865
0.00870172
4.51379e-07
5.35137e-09
0.111586
0.0226987
0.0245796
0.0117904
1.86588e-09
0.224872
0.268092
0.0030431
0.000321599
3.47313e-05
0.0138717
0.00219777
0.00199585
2.01162e-08
0.000650097
3.10706e-09
0.000361348
0.000275685
0.233738
0.0678214
0.358694
1.77499e-08
0.0861122
0.00898103
0.00172458
2.97261e-09
1.15029e-07
0.024621
0.000300644
0.0568754
0.00403162
0.0134142
0.0191793
3.05129e-05
3.05384e-08
3.53802e-08
0.00378126
0.00437746
0.251326
0.184024
0.000793271
1.79403e-09
8.67651e-09
1.41234e-08
8.48565e-05
0.0601872
0.0118047
2.17599e-06
0.00529679
7.13613e-05
0.0607989
0.0671626
0.00599637
0.0114544
0.00933669
0.0483965
5.00019e-05
7.38292e-07
0.00952137
0.0187506
0.00490378
7.08539e-08
0.151387
0.000327351
0.00231082
0.00806608
0.000336352
0.0284951
0.039155
0.0375173
0.0035949
0.0077247
0.0257851
0.0131542
9.11421e-06
1.97219e-07
5.46227e-07
7.13742e-07
0.0310958
0.372188
0.0325887
0.0673491
0.0530364
0.0182748
1.74041e-08
4.07489e-07
0.0167639
0.0469138
0.0822503
0.0458947
0.0497085
0.0228111
2.5034e-08
0.0135099
0.000288022
4.12352e-10
0.000978381
0.0166528
1.58379e-05
0.00897334
0.00911634
0.0081984
0.00141448
0.00266052
0.00546573
4.31785e-05
1.16212e-06
0.0026878
3.8989e-07
0.00633914
0.118065
0.0303942
1.17634e-07
0.0276995
0.154957
0.00831045
0.327029
6.55887e-08
0.0479043
0.0189047
7.7289e-09
0.000843536
0.00239915
3.82889e-09
0.0320381
0.0109249
0.00519652
4.59161e-07
2.57697e-08
0.000758392
3.76279e-09
0.0125245
3.6311e-06
4.33117e-10
0.0167028
4.04716e-05
0.259193
0.0301198
1.99467e-09
7.95598e-05
0.0016428
9.89227e-05
0.000204116
0.0152464
0.121778
0.829839
5.51532e-05
0.207711
0.000760379
4.59495e-08
0.0390239
0.0308586
2.03816e-07
0.00142133
0.000308971
8.33222e-05
0.023696
0.0239322
0.0138636
3.67369e-08
0.352372
0.0166794
0.0228004
0.00439381
9.16742e-05
0.00127357
3.5645e-08
0.253616
0.363745
2.59365e-08
0.00818824
0.000363829
0.000103561
4.05862e-09
3.01494e-05
3.57984e-09
0.28884
0.00965562
0.00630607
0.00213802
0.00258853
1.91509e-07
0.00194436
4.99655e-07
0.0413349
1.54606e-07
5.98264e-07
0.052397
0.0376367
4.03644e-08
1.52621e-09
0.00038447
8.46206e-08
1.60586e-06
0.00107197
2.75132e-08
6.15874e-05
6.74177e-08
0.0741479
6.9237e-08
1.65926e-06
3.68368e-08
0.00702811
4.30992e-07
0.224704
0.0020033
0.237933
1.83346e-08
0.000975303
2.59004e-06
2.65977e-09
0.372672
0.145002
0.0267331
0.0251306
3.0639e-05
0.00203404
0.0824186
0.00851679
0.00105476
0.293183
2.5862e-08
0.0232282
0.000108478
0.00504563
0.0591331
0.0764365
0.000115004
0.0211942
0.000248092
0.000780868
0.0820676
0.00204449
2.14864e-08
0.0798981
0.0489496
3.55657e-06
1.14538e-06
1.96913e-05
1.76169e-09
0.00170258
0.0546643
3.55572e-07
1.78754e-07
0.00250339
4.34062e-09
0.0340407
3.02477e-08
0.000320041
2.04605e-09
0.116768
0.114822
0.000998823
0.0127731
0.065336
0.0818199
4.76481e-08
2.81099e-07
0.0147256
4.71721e-08
0.000201625
1.79331e-05
0.00165153
0.0426468
0.0644641
2.36528e-09
4.68392e-05
0.0178153
0.00325621
0.0017404
0.00385834
0.00688048
0.0206591
9.73168e-07
0.0254825
0.00596416
2.53282e-09
0.126584
0.0414354
0.0155177
1.34829e-06
0.00477048
0.00696002
0.00227157
0.00399601
0.000386466
0.0136781
0.00132376
0.000130729
0.0228471
0.12885
0.00077859
7.44548e-05
0.00359199
0.727509
3.16496e-08
0.000407933
4.59735e-06
4.07045e-05
0.00731137
0.00315227
0.00274738
0.000449049
0.000167324
0.0159329
0.0110622
5.60785e-08
0.000197895
0.00129578
2.88439e-08
5.51982e-10
5.60365e-08
3.1933e-08
0.0126224
1.94432e-09
0.0347487
0.00845886
0.00193353
0.0988652
0.330111
6.03824e-05
0.00845748
0.0371451
5.53709e-08
0.051667
1.91381e-07
1.94374e-08
4.77925e-05
0.00421614
0.121568
0.0280059
0.00624881
2.69238e-06
0.0904828
0.146202
0.0287456
0.0283385
0.000482255
0.197005
0.0416141
0.0538361
0.0467862
5.96086e-06
0.000322936
0.0406118
0.00804755
0.00141295
0.0276354
0.0261274
1.14047e-06
0.0109789
0.000665245
3.26875e-05
0.0348711
0.000254338
0.00066027
0.0108511
0.0407711
0.00132492
0.021523
0.0196708
0.00720791
3.28355e-06
0.0104351
0.000332563
0.000198024
0.0172131
0.0180475
0.035753
4.81838e-07
0.00188613
4.45324e-06
4.0741e-09
0.0778891
1.60205e-08
0.13683
5.89229e-05
0.0118232
8.03471e-08
0.0295408
8.3305e-05
0.042811
1.28175e-09
0.0303496
3.01155e-07
1.64986e-08
8.16626e-07
0.321555
0.000521998
2.96324e-05
0.0411813
1.07237e-07
3.01788e-09
0.205374
0.0697858
8.36762e-05
0.00200778
0.000130435
6.48798e-08
0.0374295
0.00872831
0.179855
6.24819e-10
4.41572e-09
0.00041419
0.00107397
0.000132725
4.49171e-07
0.0632183
0.0072247
2.6494e-08
1.22907e-07
0.0456667
0.0421832
0.00228101
6.23194e-10
3.8468
0.372113
0.192077
1.61058e-08
1.88181e-08
0.0550357
0.000454212
3.95843e-05
0.00059202
0.108794
0.00262852
0.0112003
0.0636758
0.0520222
0.00191863
6.90718e-08
1.2039e-06
1.34466e-08
9.2962e-09
7.7284e-08
9.39266e-10
0.0224381
7.15e-08
1.94442e-08
3.2635e-07
0.0113186
0.0235459
1.0903e-07
5.81182e-07
0.105524
0.0143613
0.00990675
2.70246e-08
7.42022e-09
0.0372464
7.93988e-10
0.00177316
0.00263767
0.00397545
1.23343e-07
1.2826e-10
9.60066e-10
1.61462e-09
0.0145896
1.83652e-08
6.57523e-08
0.00108639
4.7957e-09
0.0233144
0.002013
2.36588e-06
0.0368604
0.338325
0.00253896
0.281412
0.000250262
0.0434379
0.209927
8.25261e-05
0.0237097
0.0675771
0.00599011
2.03868e-05
0.0890437
0.787733
0.0100366
3.63866e-08
0.00241821
0.00248292
0.00122329
9.25917e-05
1.84645e-09
1.56479e-10
0.0134743
3.86507e-05
0.00274364
3.91535e-06
0.00139389
0.00143371
0.0367989
0.000566343
1.51369e-08
0.033615
8.24541e-06
0.020496
2.77318e-08
4.98698e-05
0.000206642
1.78788e-06
3.47865e-07
0.040704
1.60097e-09
0.010186
0.0640722
9.81342e-09
0.0726934
4.30454e-05
0.0372541
0.00061058
1.03402e-07
2.78317e-05
0.00164189
0.0458661
0.0041203
0.00132512
0.16191
0.000203706
0.00395659
1.00103e-06
1.07559e-05
0.497444
0.162663
4.30863e-08
0.242264
0.000871516
0.000162683
0.00999317
0.00020861
0.00121671
0.0229431
0.00948363
0.00225079
0.00483727
0.00198254
0.0458629
8.19175e-08
0.0330835
0.0265667
9.80289e-08
0.00842541
0.271692
0.0284528
2.96064e-07
0.00189313
1.60213e-08
0.0101993
0.226717
2.3554e-08
0.179764
0.343505
0.00135606
0.00497634
1.09833e-06
0.0486837
7.7962e-05
0.00162117
0.0012333
0.000330556
4.30188e-06
0.0455805
0.00693077
9.2962e-10
0.000428724
0.000540585
0.000914331
0.000467566
0.000864602
0.000171736
9.75228e-10
6.88675e-05
0.0226457
4.12388e-07
0.00190941
0.352156
1.75232e-07
3.30453e-08
0.00324312
0.00330781
3.23524e-09
0.000610229
8.77835e-08
1.58173e-08
1.2506e-08
4.49475e-07
5.07007e-06
1.65547e-07
0.000347548
0.0521174
1.45437e-09
4.83901e-07
0.0045191
0.116259
0.00175757
0.00920649
0.0327447
1.05075e-08
0.000289422
4.09275e-09
2.26603e-09
0.000574042
0.148619
0.0420763
8.61933e-09
6.71171e-08
0.0358948
1.84864e-08
0.0232628
4.72977e-08
0.00672613
7.23166e-09
0.00196114
0.0263085
2.78604e-09
7.56968e-07
5.60635e-07
0.00143698
6.26363e-07
2.36687e-08
2.09375e-06
0.00445622
0.0543931
0.00420436
0.000615849
0.00107044
4.31867e-08
0.0014053
0.00187445
0.0439551
3.14112e-06
0.000224305
0.00540565
1.17152e-07
9.56023e-06
0.000151242
1.00953e-07
0.00821371
0.00163288
0.00316436
0.0734711
1.29925e-09
0.0228774
0.0612142
0.000121971
7.78069e-05
5.72977e-09
0.026473
2.01875e-08
1.13943e-06
2.91182e-05
0.0522125
5.53974e-07
0.00233189
2.76626e-05
0.000846441
1.69453e-05
7.06566e-09
3.83626e-06
1.6865e-09
0.00246609
0.000646058
0.301241
3.11222e-08
5.08728e-07
0.00207334
9.8428e-11
4.79584e-05
4.46725e-07
0.0359242
0.000851611
0.0320637
1.50351e-08
0.00140609
0.000171306
6.32783e-05
0.000294159
4.67135e-08
0.00134001
0.0244724
0.13781
0.00115955
0.000318104
6.19976e-08
6.77339e-10
2.38456e-08
0.187041
0.0751965
0.00769363
6.7469e-10
0.173863
2.98921e-08
0.214715
0.00308962
7.64093e-07
9.25681e-08
3.41665e-06
6.18287e-07
0.04212
2.13347e-06
0.000123627
0.325274
0.006895
7.23602e-05
3.39637e-05
7.08834e-05
5.219e-05
3.26649e-08
3.32231e-10
0.026056
0.00042773
8.17442e-09
2.02441e-07
0.000611527
4.59519e-07
0.00155444
0.423942
1.76183e-06
0.00362622
4.09727e-10
0.000391957
2.65189e-07
0.333077
3.11878e-09
0.11944
0.00555005
0.000742597
0.0184944
0.0346492
0.000949722
2.57578e-06
0.000572836
2.31953e-06
0.00467685
6.20106e-08
1.8721e-06
8.60797e-05
2.39865e-06
0.0710647
2.7689e-07
0.0073305
0.0085815
2.07624e-09
0.000385544
8.57103e-08
0.000845799
0.000844932
6.86495e-08
0.0179938
0.000237527
5.52276e-07
0.0235278
0.190833
0.00372808
0.0109629
1.23262e-10
0.0468801
9.02189e-06
1.92724e-07
0.0370276
4.95797e-06
0.114945
9.53992e-09
0.152822
0.000728994
2.11841e-09
0.00112093
4.12259e-07
2.50641e-09
0.00317189
0.00102368
0.0106496
8.19248e-09
1.1236e-06
4.66569e-08
0.000895224
5.07732e-05
0.0343444
6.2707e-06
0.000927149
6.79436e-05
0.00118436
3.09405e-05
3.53772e-06
1.08938e-06
0.0183488
0.0098742
0.018279
0.0359297
0.0440714
0.000269338
0.0482507
1.27199e-09
0.00955298
1.1774e-07
6.27751e-05
0.000468986
0.00675882
0.00043116
0.000541163
0.00199886
7.6141e-10
0.00721338
0.00842892
0.000217136
0.000801783
0.0153207
0.000947698
1.68704e-06
0.0299642
1.38808e-07
5.56555e-09
0.000265439
0.0750039
0.00100907
6.71643e-07
0.0477201
0.000673997
7.23039e-07
1.3849e-07
0.000602054
2.92137e-06
0.0557439
0.322068
0.000374133
0.000426776
0.0223687
0.00722284
2.13155e-08
1.4188e-08
8.9431e-05
0.00403814
0.0351481
0.0551647
0.00958736
3.1887e-08
0.000324596
0.0419475
2.76814e-05
0.00115957
2.56933
0.0443954
0.122629
0.0516421
0.0219567
1.17375e-09
0.00204271
6.68779e-07
1.64566e-07
1.95235e-07
7.41962e-09
0.00281086
3.98189e-09
2.13123e-09
9.22363e-05
4.94531e-08
6.69958e-09
9.58171e-07
0.00971356
0.0603385
0.0109338
0.00320674
0.0779014
0.265121
5.99633e-09
0.189315
0.000158822
0.396374
0.0128632
1.09535e-07
9.2948e-05
0.00755009
0.263452
1.74256e-09
0.00118835
0.0192544
0.00464622
1.6376e-05
0.0256836
1.11401e-06
2.42211e-07
0.0792955
1.01466e-08
0.00805493
1.24465e-07
9.30155e-07
0.00829248
0.000461105
0.00274528
1.16709e-06
0.000391341
0.000671722
4.25369e-07
0.000202041
7.51719e-07
0.0235349
1.43132e-07
1.31811e-07
0.255827
0.0447744
0.000540779
3.32991e-07
6.75348e-09
0.00466666
0.195934
0.00467693
0.0151146
0.217868
0.0202965
2.50695e-09
0.0365512
0.00315239
0.00670849
0.0369385
0.0102326
7.97446e-09
0.193718
1.0565e-09
0.0405878
0.00937439
0.0111965
1.38415e-08
0.0133364
1.33601e-06
0.00272766
0.00898213
5.09463e-06
3.06923e-10
4.67987e-09
0.00297273
0.0822392
2.25848e-09
0.00428049
0.0216487
0.000102353
0.00733395
0.0493823
2.34403e-06
0.000141341
0.000850289
6.12923e-08
0.0103036
1.9839e-06
0.00256497
2.90656e-08
2.72787e-08
0.012301
6.31933e-09
0.000220061
0.00373116
3.02674e-08
8.18569e-08
0.00460646
0.000550492
0.358871
1.18334e-07
0.248476
1.8462e-06
0.000371954
0.000172235
0.00758797
8.40547e-05
0.080819
0.00560491
5.52172e-05
0.00109434
0.0682566
7.0906e-07
5.02232e-08
0.000427751
0.000787531
0.0425111
1.91428e-07
0.0346329
0.000948675
1.56282e-08
0.232735
9.45115e-09
1.70266e-07
2.37416e-06
0.00288985
0.312286
0.0586943
4.85685e-07
2.51582e-08
1.81152e-09
1.11085e-07
1.08902e-07
6.62206e-07
1.21501e-07
6.76748e-09
6.41909e-08
1.18112e-08
1.84284e-07
0.0643675
0.0381716
2.91498e-09
1.38397e-05
7.58345e-09
7.78252e-08
1.33146e-08
0.0374164
0.0824273
0.0169261
4.10607e-08
1.41341e-08
8.38954e-07
0.00664894
4.09403e-06
1.36897e-07
0.300181
2.69554e-07
3.13041e-06
0.0228587
0.000190379
5.35808e-06
0.00890324
0.0244521
3.06551e-08
0.00343437
0.00478958
1.84989e-08
0.0135522
0.0391439
0.0177778
0.00342475
0.0106402
3.75269e-06
1.13326e-07
0.33571
0.0104571
0.00327182
0.0643983
0.00693974
0.00181002
0.02148
0.00993554
0.000699613
0.0156382
0.00107674
0.0103859
3.3758e-06
0.0240461
0.00844234
0.00162447
0.00144083
5.49766e-09
6.26835e-08
4.7691e-08
6.70567e-10
1.78631e-07
0.00908907
0.0135098
1.92707e-08
2.85779e-09
1.84402e-07
1.73567e-05
4.42098e-09
9.92053e-09
8.23408e-07
1.12587e-06
0.00467872
0.000300294
0.0217202
0.248266
1.19252e-07
1.15939e-05
0.0297907
1.19583e-05
4.51819e-09
1.85513e-08
0.232489
5.623e-07
6.12468e-09
4.60441e-06
0.234257
0.0135001
0.0335102
0.0345856
1.09989e-06
0.013889
0.000356092
0.00038915
1.95602e-08
0.0119527
4.96955e-06
1.90376e-07
0.0156173
1.04361
0.197563
6.80354e-06
1.37733e-06
0.0173347
0.0196199
0.0178849
0.00558701
0.00708809
1.19508e-08
0.000641679
0.000416597
0.0610968
1.00544e-05
0.276247
3.11463e-08
0.00198258
0.0246062
0.0175222
0.0110653
3.26701e-06
0.00607232
3.60436e-08
9.83301e-06
1.11246e-09
2.01639e-08
0.00244623
0.886569
1.01266e-07
5.07727e-09
0.000423138
0.0229168
0.00177413
0.00682944
0.0321546
0.00466852
0.0204385
2.0087e-05
4.60247e-06
0.000205891
0.0289173
0.00552962
0.00331316
1.22281e-06
7.35522e-09
0.000158124
0.0217693
0.00266037
5.09562e-09
0.149302
0.0577211
0.00630435
0.00610675
7.39975e-09
0.000196633
0.00676404
0.0222462
8.22916e-10
0.000415634
0.0148292
0.00104843
0.20588
0.004624
0.00775803
0.000247281
0.00319622
0.0205889
0.0350448
8.83853e-05
0.022043
0.000120578
0.200207
0.000164432
5.41692e-10
0.00246752
0.00749338
0.000423504
0.011342
0.000460508
0.00100513
0.000500699
0.0429801
0.00363009
5.28884e-05
0.0369831
0.00128551
1.20956e-07
1.08194e-08
0.10237
0.000521513
0.00104437
1.05855
0.0345603
0.0121608
0.000435829
0.0445554
2.2618e-06
3.23123e-06
0.00377942
4.23308e-05
0.00199668
0.00390553
0.00217448
0.00450118
6.43987e-09
0.000213554
0.104165
2.0133e-08
0.0135074
0.0073858
8.04746e-06
0.00390988
0.000135652
4.05805e-08
0.000601482
0.139104
4.78773e-08
5.65662e-09
2.11801e-08
0.149096
0.25226
0.0135812
0.0533326
0.00457441
0.031806
8.01106e-06
0.00778164
0.0120238
0.0229351
0.00150692
0.118426
0.341398
0.402108
0.0100848
0.00882405
0.0353913
0.156147
0.365013
1.40344e-08
0.17558
0.0475118
1.10611e-08
0.000406136
5.80702e-07
2.84435e-08
3.74228e-08
2.29783e-07
1.76013e-08
0.140487
4.97958e-08
0.00693222
0.00128057
2.29804e-08
0.00360465
7.35184e-06
0.013278
6.54337e-08
0.000614863
6.47147e-06
0.0207191
0.000223876
6.71884e-06
0.0041238
0.0270995
0.0157862
0.00375048
0.0261175
0.00332558
0.0223304
0.051987
0.00944409
8.35108e-07
0.00104146
0.000332297
0.00543133
0.0096748
0.000591933
1.15346e-06
5.79195e-05
1.37801e-07
0.00334007
0.0412137
0.000779395
0.329461
0.00247697
0.000361727
1.6335e-08
0.0615459
1.04115e-09
0.00843217
0.0203417
0.00112348
9.68586e-05
0.001766
0.00662505
0.00178858
0.000783225
0.00621662
0.00599914
0.00259787
2.25364e-05
0.079075
3.56094e-07
0.0122338
0.0103068
8.05567e-07
6.69175e-10
0.000261982
0.00824305
0.0173048
1.40614e-08
0.00215559
0.0443906
0.000213198
0.00438211
0.0861106
1.69594e-09
8.21591e-11
0.00344836
4.16548e-09
0.000104767
0.0114311
2.17547e-05
0.010356
0.0310241
0.018235
3.03999e-08
0.00153201
9.05881e-05
0.000133394
0.0461001
2.92242e-08
9.8192e-07
0.0101018
0.000536774
9.91122e-07
0.162199
0.000922152
2.88925e-08
4.15362e-08
0.000231381
8.51972e-05
0.00234796
0.00298581
0.0245781
0.242663
4.5486e-10
0.000334796
0.000717156
0.0425271
1.76477e-06
0.0474945
0.0830695
0.000119984
7.6161e-06
2.01786e-05
1.12877e-08
1.56706e-05
2.71177e-05
0.000379133
1.92517e-05
0.000316956
2.61531e-05
0.000684162
0.000346825
0.000618298
0.000130741
1.68843e-08
0.0273279
0.00937989
6.33017e-06
0.0813746
0.000249271
0.000215338
1.38413e-05
0.00116137
0.000266607
0.00263289
0.000387481
0.00103643
1.94573e-05
2.459e-08
0.00119223
0.000421149
0.0668624
2.13353e-06
0.0365484
4.92438e-05
0.0350301
8.53543e-05
8.38423e-07
0.000399298
0.0264151
0.00739194
2.51618e-08
0.000301164
1.10746e-05
0.00435175
0.00122566
0.340816
4.65128e-05
2.04839e-06
0.0191901
0.00156718
0.00498401
0.0338647
0.0704153
4.12743e-10
0.0206547
0.00363219
0.0498759
5.67172e-09
0.00114804
5.70339e-07
0.0427452
4.98868e-08
4.89473e-09
0.00323353
0.00212609
0.00290981
0.298579
0.0395449
0.025105
0.0338794
0.0159517
0.220969
0.0432699
0.00485772
0.00470554
0.00569537
0.000581205
0.00945113
0.037402
0.0014306
0.00142549
0.0308155
1.93465e-06
0.00331241
5.2055e-07
0.0174699
2.32414e-06
7.69651e-07
0.00156859
4.15199e-06
0.00569647
2.46387e-08
3.65422e-07
0.0806549
9.76989e-09
7.74086e-08
0.000843132
6.34288e-08
0.000684331
3.56149e-05
0.0659318
0.0164709
0.266479
0.00754357
0.00685322
0.0399144
0.549532
2.43407e-10
0.0641505
0.0279794
0.0162972
0.0230797
0.00227276
0.0526303
7.04568e-06
7.46915e-06
8.50794e-07
0.129648
1.09647e-06
1.02761e-07
0.0165568
6.6655e-07
1.52744e-08
0.00531285
2.45231e-06
0.286009
8.20422e-05
3.51415e-05
4.63882e-05
5.86723e-05
0.00145021
0.0063836
1.51672e-10
0.0216812
0.00041233
2.15522e-05
0.094921
6.92309e-08
0.0145395
0.0169375
0.00360255
3.21734e-08
0.0169978
0.00963989
0.000891013
0.00518534
0.0117396
2.90345e-08
2.25944e-08
0.00166267
2.23828e-08
1.42607e-09
2.91355e-09
0.0185063
0.355197
0.00430668
0.00220801
6.91637e-05
0.0476606
0.0432389
0.00398909
0.00237484
0.00889445
0.0197198
0.00266779
4.05988e-09
2.91602e-09
4.08505e-09
0.00701306
1.11778e-07
0.352503
0.00052697
0.000769994
0.00184034
0.00247395
0.0208001
2.4972e-09
0.0592707
0.00245679
0.000375792
1.55177e-06
4.1218e-07
1.61766e-07
0.48156
0.000310348
0.000581222
0.000871041
0.00970859
0.20415
3.16836e-07
3.20297e-07
4.99443e-07
0.0035949
0.016471
0.0189347
0.033156
0.00164684
0.00343345
3.61311e-06
5.07559e-10
0.000190459
3.82921e-07
0.165599
0.0212765
2.40766e-07
1.25038e-06
1.89733e-05
0.0606336
0.0297457
1.83771e-05
0.0133425
0.0905411
0.00089175
0.407469
0.0473777
2.52923e-05
0.0217145
0.17399
0.01864
1.05961e-05
0.00494979
1.53633e-08
0.0139769
0.00173135
0.0234556
1.14079e-05
0.00038054
1.31735e-09
0.02312
1.03206e-08
2.88221e-05
0.385202
1.22561e-07
0.00588723
0.00120677
3.74979e-07
3.9666e-08
0.00203358
4.17454e-07
1.17576e-07
0.0106546
0.000152983
1.3881e-08
0.0232748
0.0440766
0.0162692
2.88815e-10
1.91335e-09
0.000600674
0.00263279
0.00310293
3.36323e-09
9.86162e-08
0.000133149
0.00382724
0.00189621
0.0126476
0.367107
1.50215e-09
0.141601
0.0110796
0.00624987
0.0562637
1.08547e-06
2.1091e-08
0.0228025
7.41163e-10
0.0296941
0.00487573
0.00578545
1.10163e-06
9.27077e-09
3.93507e-09
1.6134e-08
2.03819e-05
0.134076
0.21258
0.0021156
2.55155e-06
1.73857e-10
0.0557353
0.225558
0.0342243
0.112154
1.38662e-07
0.000967217
0.000246677
2.38981e-07
1.32474e-08
0.00367401
0.00615839
3.7028e-08
1.10704e-05
0.00285665
0.0599386
0.205088
0.00104898
2.00712
9.9755e-09
3.74162e-07
0.0114128
0.000711002
3.376e-05
0.64066
0.000591422
0.00598548
6.60429e-09
8.74814e-08
1.26542e-05
0.0582331
0.00820044
0.177915
1.97406e-08
0.0245316
0.0184801
0.824934
1.06161e-08
1.27168e-09
1.10313e-07
3.53526e-08
0.00656223
0.000328273
1.01819e-08
0.0373027
0.0179753
0.160057
0.00456895
3.01932e-06
1.6522e-06
0.0276782
1.33425e-05
3.02655e-08
2.37402e-08
1.34538e-08
0.0203495
9.58403e-06
0.0582669
0.056403
0.0246664
0.0114532
5.9893e-09
2.41164e-09
2.51703e-08
0.0146851
0.000250448
2.02916e-07
3.685e-08
3.58658e-09
0.0219282
0.00234668
0.0109355
0.0403583
0.00190575
0.3119
0.00478141
4.39765e-07
4.26049e-10
2.59185e-07
0.0534361
9.08455e-10
0.0182314
2.24379e-08
0.0143669
4.50235e-05
0.00160512
0.00014597
0.00243055
4.07674e-09
1.57364e-08
0.369092
0.152676
3.51047e-05
0.00379904
4.21941e-07
0.000465356
9.59808e-05
3.00774e-06
3.29866e-06
0.000305492
8.18002e-08
0.00100705
0.0391373
0.0337537
2.07274e-07
8.33177e-05
9.0616e-07
0.034063
0.18213
0.000153662
8.99234e-10
0.00967834
3.43254e-07
0.00268645
0.0173233
0.00140279
1.12343e-08
0.000883803
0.000532486
0.000134287
0.00406498
0.000123756
0.00169876
5.45827e-06
7.51642e-10
0.000155954
0.00558445
0.000298569
6.64702e-07
9.65731e-06
0.000121749
0.564387
9.44503e-09
1.84724e-08
3.48318e-08
3.51456e-10
1.27311e-07
0.0216463
0.000586332
0.00112502
0.000107592
0.000206307
0.00151275
2.78939e-10
0.00519837
6.98033e-09
5.38841e-07
7.57692e-09
2.609e-05
0.00205331
1.54812e-05
1.11563e-07
1.33191e-08
0.0136415
1.22488e-07
6.95209e-09
0.156455
9.25353e-06
0.0771115
0.123182
0.548437
9.01569e-09
0.19378
1.07631
1.0457
0.607695
3.88362e-09
4.03857e-10
0.00455902
0.00427629
6.83135e-05
0.0105047
0.0425014
0.0299849
3.30988e-05
4.47966e-06
0.00126018
3.40281e-08
1.22997e-09
0.000125233
0.000410587
0.0260845
6.01178e-09
0.117946
0.000127209
3.37724e-07
0.000111527
0.0078143
0.00156425
2.29057e-06
0.00765926
6.73187e-09
0.00327719
0.00217308
0.00708459
5.79801e-08
0.00175921
0.0055116
1.0695e-05
0.00322267
8.69791e-08
0.02979
5.71865e-05
0.00890521
8.66076e-07
0.193194
5.66822e-08
8.74428e-07
2.71314e-08
0.118053
0.121006
2.06772e-06
0.0111037
0.00885518
0.0550484
3.33144e-08
0.0301107
0.0158439
0.170912
1.27986e-06
0.19546
0.0231609
0.0425147
0.00363851
1.60597e-07
0.052686
1.73281e-06
0.211999
1.78663e-09
0.00240662
0.00397511
1.09125e-07
5.73673e-05
1.26751e-06
0.0194075
7.61639e-09
0.0397895
2.89593e-07
9.99946e-06
1.09912e-06
5.3043e-07
0.000262294
0.00189611
0.12456
5.07728e-06
0.000247165
0.0380235
1.34918e-06
0.0429882
7.74255e-07
3.37895e-06
2.50489e-06
0.00551857
1.85687e-10
5.0526e-09
7.24695e-10
0.00305202
5.61719e-08
0.0677225
2.22967e-05
0.0030756
3.94667e-09
0.00568588
0.334817
0.00519357
0.00527612
0.0247082
1.25434e-05
2.01267e-07
7.8985e-08
0.002999
0.00159888
2.7113e-06
0.000545615
0.000577961
4.6508e-08
2.98906e-08
0.310309
7.83673e-08
0.0198332
4.13269e-08
0.00218226
0.00294261
1.91768e-07
7.653e-10
0.0456906
7.12614e-09
2.79257e-09
0.0164015
0.0564382
0.00437185
2.24662e-06
1.41072e-08
0.00643093
5.36446e-06
0.0115306
6.08434e-06
7.43082e-09
0.00213893
6.74389e-05
0.129445
4.03946e-09
4.98196e-09
4.41534e-09
0.00313639
0.163664
9.65771e-07
1.61282e-08
7.58703e-06
0.00142521
1.95084e-08
0.0176781
0.0285343
5.24702e-08
4.42389e-09
0.00671008
2.39878e-07
2.09761e-05
1.52099e-09
2.557e-05
1.0468e-08
0.0632006
0.000351375
1.34802e-07
5.50626e-09
0.0688
2.97524e-08
0.0565772
2.46146e-07
4.66977e-08
9.55741e-06
0.00693147
0.0470329
0.00803237
0.0499131
0.0606427
0.531102
0.00255202
0.0403619
1.0903e-05
1.6649e-08
0.00228309
0.141222
0.0370021
0.0421982
1.19098e-08
0.00685986
1.53017e-08
0.00430802
9.89822e-07
0.0087005
0.000172055
0.0517334
5.29736e-07
1.67999e-08
0.0199384
0.000295204
2.39964e-08
0.0243039
0.000282071
1.97667e-06
9.91425e-10
0.0325016
0.00908683
0.00601047
0.000792772
0.00169292
0.0159007
0.000958197
0.00442242
8.67603e-06
0.0267276
0.000126089
0.000458011
3.93972e-09
6.32736e-07
2.79052e-08
0.00966213
9.05965e-08
2.31247e-06
1.03552e-10
0.000402085
0.391931
0.0890723
0.00224752
4.99881e-09
0.00398589
0.0553354
0.102974
0.00295597
0.000271703
0.0415376
5.59391e-07
1.22049e-07
2.98295e-09
0.00274408
0.00117574
3.88054e-08
4.31821e-09
0.00230195
1.65672e-07
0.785103
0.0539052
0.0932007
5.26989e-09
1.1554e-08
0.0420712
5.18756e-09
0.00920824
9.74117e-09
0.000648597
2.12828e-08
0.008906
5.12407e-08
6.11546e-09
0.00108236
0.154988
0.0646255
1.4459e-08
0.0689686
4.24294e-08
0.00381519
0.170251
0.118088
2.39921e-07
0.000485507
3.99369e-09
1.97123e-06
0.000278779
0.0156542
0.000301293
1.01803e-08
0.00063474
0.00299513
0.00494193
0.00755118
3.66484e-07
3.32552e-07
3.38502e-06
6.10409e-07
1.01395e-08
3.65263e-09
0.0753982
0.0371572
1.44558e-08
0.0845387
3.07212e-10
2.1069e-08
0.068474
4.99424e-09
4.8341e-09
0.0402444
1.82223e-08
7.11115e-10
1.00961
1.9901e-09
1.25716e-09
0.0019422
0.092964
1.40823e-07
0.0371275
8.46289e-09
0.0209555
0.0503954
6.27836e-06
0.000868336
5.9957e-10
7.27284e-08
1.04532e-06
1.79271e-07
0.319709
0.0456623
0.00025667
3.26225e-08
0.0462868
1.00519e-09
2.05542e-08
1.79675e-09
0.102917
0.00176627
0.000110488
1.2678e-09
1.30868e-06
0.0481399
0.000914863
3.6451e-07
0.000254546
0.109096
0.0862975
3.4364e-05
0.0853874
0.00092628
0.0426758
4.2099e-05
0.0657918
0.000345221
0.0288188
1.47865e-06
0.00673786
0.000458686
0.000933324
6.9744e-10
0.00130134
7.41684e-08
0.00377606
0.0244264
1.00035e-06
0.00233804
0.000311272
1.74537e-07
0.0102544
9.1289e-08
2.686e-08
2.74394e-08
4.49062e-08
5.07579e-06
4.45347e-08
4.86517e-08
7.45093e-08
0.268541
4.32742e-05
2.04256e-10
1.80682e-09
5.4878e-08
1.00138e-07
0.0299634
0.766866
0.00210232
0.000140485
9.32012e-09
0.00202134
0.0013982
0.046352
3.20671e-05
1.2925e-05
5.67195e-07
1.10965e-06
2.46445e-06
0.000222941
0.000117032
0.179883
0.0671743
8.23672e-08
0.00106456
0.000300276
1.477e-08
0.0241643
4.606e-06
3.8117e-08
1.73105e-06
0.162345
0.0621554
1.11441e-09
0.0251858
1.37925e-08
0.0488213
5.12772e-05
0.0355041
0.0533212
4.66154e-09
6.69407e-09
2.3241e-08
2.51093e-05
0.00564175
0.225264
0.027571
0.0416348
0.00448948
0.000541802
1.16375e-09
0.00011709
0.13903
0.00127652
9.54561e-05
0.0029679
4.05138e-06
0.0992085
4.80124e-08
0.205413
0.0383582
1.46818e-08
0.000488488
0.0071569
4.05804e-08
0.00962854
1.35699e-08
1.85959e-07
0.197887
0.0298404
5.33002e-08
8.04131e-09
6.99619e-07
2.56133e-09
6.08711e-09
0.000127006
2.45315e-08
5.75141e-10
0.00309262
7.71088e-09
9.73225e-08
2.70073e-07
0.000228855
2.19592e-07
0.000169179
1.05717e-07
4.68502e-08
2.26302e-05
6.60611e-05
0.00358843
0.0432454
8.08011e-05
0.00504227
2.29974e-06
0.320418
0.315676
1.24432e-07
0.00345103
1.79169e-08
0.0459088
0.0380264
0.000405881
0.090481
0.0684955
7.16292e-06
1.10278e-09
0.00246694
1.12892e-08
1.22195e-09
3.97575e-07
1.59357e-05
7.1753e-09
1.73188e-05
0.035513
5.15187e-09
2.40734e-08
0.337246
1.51491e-09
0.0172922
8.29894e-06
0.00133279
9.7322e-09
0.000442973
0.000145828
0.239838
0.00793499
0.0239971
0.000182969
0.0403815
0.000271333
0.0754764
0.000154185
0.00022697
0.00984183
0.0581408
0.000325068
0.00127395
4.3238e-06
1.79163e-07
0.00111761
0.000224289
0.0157299
0.012131
0.000148504
1.90847e-06
0.00548962
0.00522748
0.0185592
2.17787e-09
0.0123094
0.016649
0.00277791
0.0015017
0.00132293
0.0032704
0.0189699
0.0409266
0.00713922
0.0110808
0.00802846
9.08982e-05
0.00291929
0.00364047
0.00108617
0.00262013
0.0141816
0.0138202
0.019331
0.000122201
0.0115344
0.000423203
0.00511333
0.00286573
0.000350381
0.00234625
0.000204202
0.0758614
0.00399516
0.00123724
0.000142479
0.000728819
0.0158356
0.00247008
0.217398
0.00355537
6.84632e-10
0.231837
0.0461684
0.0216385
0.00716063
0.0202902
0.000407561
0.00866542
0.463516
0.00214064
0.00137515
0.00251918
0.175145
0.00118561
0.0745216
7.61158e-05
7.73372e-08
1.3102e-08
0.00224207
0.00620921
0.0118414
0.0709356
0.0067644
0.0612209
0.0549887
0.0722642
2.9009e-08
0.00699938
0.00262936
0.0248605
1.05848e-06
0.00635951
9.2754e-08
0.225633
0.0116564
0.00756523
0.22148
5.14894e-09
8.98523e-08
0.00223237
0.000111471
0.000769155
1.55901e-07
0.0065705
0.000977496
0.078066
8.92764e-07
0.022378
0.00309637
0.000351908
0.000126738
0.00238764
0.00130584
2.44209e-07
0.00188856
5.34007e-05
9.74945e-09
0.269363
0.00381283