/*--------------------------------*- C++ -*----------------------------------*\
  =========                 |
  \\      /  F ield         | OpenFOAM: The Open Source CFD Toolbox
   \\    /   O peration     | Website:  https://openfoam.org
    \\  /    A nd           | Version:  10
     \\/     M anipulation  |
\*---------------------------------------------------------------------------*/
FoamFile
{
    format      ascii;
    class       volScalarField;
    location    "28";
    object      SgT;
}
// * * * * * * * * * * * * * * * * * * * * * * * * * * * * * * * * * * * * * //

dimensions      [1 -1 -3 -1 0 0 0];

internalField   nonuniform List<scalar> 
111485
(
6.29686e-15
0.00770547
0.0243468
5.84413e-16
0.0490643
1.12687e-15
0.0465306
0.00616895
0.0190777
0.00124934
0.0469106
0.00948938
0.00482823
0.000791628
0.00651542
0.0301838
0.00143743
2.62364
0.0103505
1.51625e-14
1.18882e-14
3.27537e-16
0.0269629
0.0344927
0.00874637
1.08601e-16
0.0393239
0.0017837
0.015228
2.09254e-15
0.0446688
0.0196207
9.59067e-17
1.34536e-15
0.00628715
5.9815e-15
0.0106392
0.00421401
3.81768e-08
0.0243028
2.84205e-15
0.0708218
0.0158435
0.00157054
6.36701e-05
3.1411e-14
0.0293969
0.00071093
0.0474414
4.30186e-15
1.06949e-14
1.42543e-15
1.44216e-14
0.0515268
1.12182e-14
0.0438014
0.00302855
1.21735e-14
1.99928e-05
0.00479746
0.0160639
1.05949e-14
0.00482531
0.0985081
1.37161e-15
0.00310156
0.315917
0.0943896
0.00111848
0.00619475
1.95756e-05
0.00668572
1.37533e-15
0.0029229
5.48408e-14
0.00071905
7.26427e-15
0.0411078
5.21481e-15
2.94988e-15
1.06981e-06
0.0340717
3.55337e-16
1.19163e-14
0.00941268
0.0037997
3.35013e-10
0.0253981
6.07159e-05
0.00744577
0.00025473
0.0402388
0.0119914
5.80842e-05
0.0521217
1.61938e-14
1.33363e-15
0.00182635
3.18613e-08
0.00111981
1.25271e-15
0.0176388
8.00339e-15
0.0179313
0.00457238
1.97581e-15
3.39996e-15
0.00759547
0.00420839
5.42946e-08
0.00555481
0.0047574
0.00381279
0.00327677
1.48354e-15
3.42128e-05
2.55487e-15
2.58976e-15
0.0129063
3.99606e-15
1.39821e-15
5.01365e-15
2.96588e-15
2.77508e-15
0.00153216
3.01125e-06
3.75186e-15
0.0017265
2.70706e-15
2.22709e-05
0.00153052
0.0328427
4.95201e-16
1.15285e-15
4.62182e-15
0.048283
9.09276e-16
0.0425425
0.0253979
0.00270874
0.000252837
0.00199826
0.022499
0.00260918
0.00408135
0.013061
1.34588e-15
1.23379e-15
1.01767e-14
0.0281141
0.00152469
1.8549e-15
2.39186e-07
0.00467263
4.2182e-07
0.010929
0.016136
0.0108702
6.08345e-08
9.01314e-15
5.60762e-16
0.0523474
0.0224517
1.64633e-06
3.0388e-07
0.00586125
0.00338773
5.07461e-15
3.97667e-06
4.27109e-05
4.06711e-16
6.08293e-15
0.000121506
1.23428e-16
0.00548282
0.00206095
2.27931e-16
2.47568e-15
1.52849e-15
3.12763e-15
1.02124e-14
3.78764e-16
0.00151742
0.00678026
0.0299385
0.00412152
0.0077171
0.00403637
7.71658e-05
1.77743e-15
0.0048655
2.02754e-15
3.74562e-15
0.00654932
0.0103481
0.0287994
0.0115056
0.00502611
1.72235e-14
0.00680561
0.000497299
4.08741e-05
0.0144782
0.00233909
2.25577e-14
0.00386212
0.0249238
1.07833e-15
0.000157647
0.00794464
0.00199265
0.000371433
5.33142e-16
2.58943e-15
0.00834263
1.03049e-11
0.119226
9.84839e-15
0.00669934
0.0206174
0.119077
5.64972e-15
0.00330326
0.0137858
2.73318e-13
8.95418e-16
1.53408e-15
0.14996
2.28935e-07
1.73814e-15
1.16726e-16
0.00944282
0.00782946
0.0149463
5.50233e-16
1.23477e-14
1.32788e-05
6.02356e-15
0.00236069
0.00958338
0.0166745
0.0116243
0.00966111
4.95574e-15
2.40449e-07
0.000627092
1.88258e-14
7.86217e-16
0.030931
0.020576
9.00948e-16
0.00657615
0.0108003
6.79078e-15
4.59429e-14
0.000112484
5.08026e-15
3.24951e-15
4.58705e-05
7.96053e-17
0.0147531
0.0105974
0.0036901
3.29029e-14
0.0118146
4.73127e-16
1.35088e-15
1.12544e-14
1.74294e-08
0.0230617
0.00618223
0.00552731
0.0362011
0.0124149
0.00155657
0.000563501
0.0321818
0.00870053
1.1483e-16
3.45123e-15
2.32069e-07
0.0226983
0.0245395
0.0117693
2.39684e-16
0.00701481
0.00203244
0.00304152
2.02612e-06
3.54936e-06
0.0138684
0.00218896
0.00198393
4.03829e-15
0.000642491
3.27004e-15
2.10688e-07
4.20245e-13
0.233723
0.0678197
0.0117741
1.70748e-15
3.469e-15
0.00897992
0.00171679
1.85014e-15
8.30492e-16
2.64949e-14
0.00029574
0.0568739
0.00402568
0.0132422
0.0191786
1.93347e-15
1.15428e-14
1.73265e-15
0.00377553
2.58643e-12
0.000860764
0.184021
2.83951e-07
2.47308e-16
2.82025e-15
2.7507e-15
1.54471e-15
0.0601866
0.0118042
4.61963e-15
0.00529591
1.56983e-15
2.04058e-14
0.067157
0.00599625
0.0114525
0.00933442
1.09631e-14
2.24375e-15
6.3218e-15
0.00952065
0.0187498
0.00489029
6.61816e-15
3.00956e-10
0.000153797
0.00230996
0.00806285
3.20083e-05
0.0284946
1.22934e-15
0.0375168
0.00358413
0.00771862
0.0257847
0.013134
8.51508e-15
6.0769e-14
4.50225e-14
9.42279e-15
0.031094
0.00980425
0.0325588
0.067349
3.96035e-15
0.0182583
1.18366e-15
1.27527e-14
0.0167635
5.91766e-15
0.0816262
5.83242e-14
4.45984e-16
0.0228108
2.14304e-16
0.0135071
0.00028395
5.49955e-16
0.000970614
0.0166498
6.50083e-16
0.00894678
0.00897455
0.0081928
0.000707263
0.00266005
0.00545751
2.6325e-15
1.00604e-16
0.00201487
2.78763e-15
0.00632441
0.118062
8.92688e-16
6.00325e-16
0.0276993
0.000109287
0.00830567
0.0204443
1.68834e-15
0.0478996
0.0189012
2.76482e-16
0.000838372
0.00235287
3.027e-15
3.6897e-15
0.0109217
0.00519368
3.17922e-14
3.66744e-16
4.0303e-08
1.88303e-15
0.0125142
3.88059e-16
2.31793e-15
0.0167016
1.54658e-06
0.0122518
0.0299848
7.72926e-16
5.32707e-15
0.00153997
6.62614e-15
0.000165037
0.0146147
0.121775
0.828711
8.72792e-16
0.00276661
0.00055921
1.02385e-14
0.0390164
0.0308575
2.94459e-14
6.94761e-09
8.5976e-05
4.8344e-16
0.0236945
0.0239309
0.0138541
8.1798e-16
0.000660699
0.0166786
0.0227668
8.26155e-07
4.42329e-15
6.76644e-10
1.78343e-15
1.13266e-05
0.0311889
2.7748e-15
0.00815249
0.000102209
2.05251e-14
1.0305e-14
1.53932e-14
7.2342e-15
0.00372368
0.00958321
0.0062847
0.00202952
0.00256739
1.19416e-15
0.0019426
7.68811e-15
0.0412653
3.66998e-16
2.22198e-15
2.75511e-15
0.0375405
3.23996e-14
6.78222e-15
1.40858e-07
1.96344e-15
6.84097e-14
0.00106835
4.31249e-15
1.98182e-14
1.33066e-15
1.44905e-15
5.20754e-15
1.10097e-14
1.54962e-15
0.00678878
1.29649e-14
0.000543752
0.00198355
0.000823384
1.08161e-15
0.000908588
5.3714e-15
1.11831e-15
0.00272851
0.00175309
0.0267068
0.0251275
6.80877e-15
0.00203339
0.0824062
0.008516
0.00100873
0.00319459
1.43212e-14
0.0232258
3.85842e-15
0.0050282
2.75824e-15
0.0764313
2.65219e-15
0.0211917
0.000246715
5.16093e-07
1.35059e-14
0.00202667
6.94629e-16
0.0798967
0.0489462
1.21071e-14
1.06305e-14
4.25079e-15
7.30714e-16
1.37798e-09
0.0546641
9.07629e-16
1.09152e-14
0.00240701
3.22734e-16
0.0340307
9.88117e-15
0.000310697
7.76659e-15
0.000465371
1.18986e-06
0.000978763
0.0127719
1.18911e-14
0.000418392
1.4879e-15
5.68763e-16
0.0147105
5.66715e-15
2.84505e-05
7.52824e-17
0.00164101
1.38539e-14
0.0644624
2.73152e-16
1.34035e-15
0.0177694
0.00319379
0.00173865
0.00384249
0.00687018
0.0206579
6.86895e-15
0.0254613
0.00593057
2.70803e-15
7.47464e-08
0.0413683
0.0154746
1.17016e-15
0.00358153
0.00692787
0.00180802
0.00097343
2.07461e-10
0.0136739
0.00123706
0.000119085
0.0228258
0.0137381
0.000565808
9.41538e-15
3.0116e-09
0.650439
5.22649e-15
0.000342447
3.7009e-15
5.90519e-15
0.007311
0.00263609
2.35892e-07
1.79959e-05
4.26687e-15
0.0159062
0.0110598
3.96866e-15
2.00064e-10
0.00129232
1.50321e-15
1.20004e-15
6.8041e-17
2.85007e-15
0.0126124
7.16276e-15
1.41477e-14
0.00844606
0.0019079
8.18913e-15
0.0105847
2.22062e-16
0.00845444
1.37967e-15
3.2652e-14
0.0516482
4.35623e-15
1.83743e-15
2.36226e-15
0.00419243
1.48186e-14
0.0279793
0.00624865
2.06529e-15
0.090454
0.00231814
0.0287385
0.0283109
0.000411705
7.3398e-05
1.71023e-15
0.0538333
0.0467684
5.79651e-14
0.000320518
0.0406057
0.00804647
0.00138109
0.0276311
0.0261252
2.77853e-15
0.0109746
6.80471e-06
1.55292e-15
0.0348668
0.000249191
3.33916e-14
0.0108507
0.0407705
0.00130692
0.0215199
0.0196542
0.00720489
1.67995e-15
0.0104316
0.000299607
4.3823e-12
0.0172004
0.018029
0.0357498
2.90774e-15
0.0018413
1.33522e-14
1.56202e-15
9.44591e-16
3.41681e-16
1.31017e-05
1.22022e-15
3.30217e-10
8.30794e-15
8.93101e-16
8.18582e-05
0.0427996
5.16508e-15
0.0303424
1.57243e-15
9.84756e-15
7.70481e-15
0.0385277
0.000391858
1.95746e-14
4.4881e-14
3.71445e-15
1.40642e-15
0.20537
0.0697839
1.22234e-14
0.00200725
1.79118e-06
2.66681e-15
0.0374221
0.00860291
0.0114548
2.16337e-16
1.31782e-14
0.000410808
0.00107313
1.18464e-14
1.43406e-14
3.7058e-15
0.00722349
1.18512e-14
7.01197e-15
1.20897e-15
0.0421766
0.00214136
4.03638e-16
3.84176
0.371061
0.00967302
2.9727e-15
2.88585e-15
0.0550321
0.000431205
3.63754e-15
4.98698e-06
0.108459
0.00236845
0.0111953
3.07153e-15
0.0519952
0.00191782
3.91071e-16
9.13205e-16
2.6211e-15
1.0805e-15
7.20931e-15
5.66886e-16
0.0224347
4.65225e-15
9.02007e-15
5.21013e-16
0.0113185
0.0235442
3.76803e-15
1.97956e-15
0.105523
0.0143463
0.00988984
1.92239e-15
8.42769e-15
0.0372239
8.77616e-15
0.00168074
0.00263558
0.0039701
4.63559e-15
2.42813e-16
3.47728e-15
1.74618e-15
0.0145739
9.19165e-16
4.06041e-16
0.00106535
2.74246e-15
0.0233003
0.00193059
1.33152e-15
0.0368587
0.337795
0.0025344
0.0289591
0.000140197
0.0434296
7.42004e-11
5.46658e-15
0.0237035
0.0675486
0.00598915
3.25989e-16
4.87308e-10
0.787025
0.0100359
1.12057e-14
0.00240541
0.0024023
0.00112349
5.93611e-15
3.51066e-15
1.62319e-14
0.013473
1.11066e-15
0.0027343
1.34079e-15
0.00118669
0.00143029
0.0367689
0.0005662
1.95545e-15
6.6483e-16
1.27114e-15
0.0204956
4.2545e-16
5.94791e-15
7.53675e-05
6.39438e-15
1.92183e-15
7.38119e-16
1.6751e-15
0.0101585
2.96026e-15
4.20476e-16
4.3401e-10
9.32031e-16
1.3921e-14
1.72742e-14
1.43634e-15
2.91118e-06
0.0016198
1.14007e-15
0.00406336
6.03273e-06
2.86621e-07
5.76932e-05
0.00394507
9.15339e-15
9.36634e-06
0.0100763
0.000397824
6.079e-15
5.3195e-09
0.00085761
2.01486e-15
0.00996785
0.000186448
1.58322e-06
0.0229031
0.00946964
0.00224396
0.00483714
0.00198075
2.65785e-16
2.20965e-15
0.0330278
0.0265384
1.50189e-14
0.00842144
0.0539554
0.0284483
9.21975e-16
0.00124604
5.8927e-15
0.0101952
0.0139766
4.21081e-15
0.00158652
0.000447465
1.17796e-06
0.00495854
3.30583e-16
0.0486799
1.4669e-05
0.00139629
2.91343e-05
1.19723e-05
3.09297e-15
1.0482e-15
0.00681868
1.10576e-15
0.000124728
0.000241099
0.000300729
5.98304e-08
6.95208e-08
1.75306e-07
2.06202e-15
2.0476e-14
0.0226447
1.9372e-14
0.000196564
0.00195878
2.53915e-14
8.39565e-16
6.61575e-07
9.57851e-10
2.14151e-15
5.21723e-06
5.793e-15
4.77655e-15
1.04634e-15
2.42662e-15
2.18967e-14
1.21884e-14
0.0002689
3.76797e-15
3.27319e-16
1.92985e-14
6.51993e-06
4.80411e-05
0.00168215
0.0092057
9.41149e-17
5.20709e-16
0.000155082
9.70458e-16
2.06532e-15
2.47598e-14
0.0184029
0.0420737
6.317e-16
9.93701e-17
2.05091e-15
6.89112e-16
3.87296e-15
3.32868e-16
0.00662193
7.95925e-16
5.4509e-08
0.0263053
9.93085e-16
3.54816e-15
7.38483e-16
2.93673e-05
2.7653e-15
3.50159e-16
9.08905e-15
9.80183e-06
1.49307e-14
0.00413173
8.8291e-07
6.33691e-09
1.39147e-15
7.80261e-05
0.0018641
0.0439548
1.00886e-14
8.47057e-06
0.00538317
2.66568e-15
4.62242e-17
1.03762e-13
2.49708e-15
0.00821234
0.00163213
0.00314784
1.81998e-07
6.50784e-16
0.0228765
1.04158e-14
5.84032e-15
6.55514e-14
2.63034e-15
0.0264722
2.91029e-15
3.30604e-15
1.53244e-06
0.0521591
3.94905e-15
0.0023018
1.4291e-15
0.000763115
1.11684e-14
5.64811e-15
1.20841e-14
5.28462e-15
0.00246559
0.000578669
0.301055
3.20246e-16
2.24901e-15
0.00206875
8.33402e-16
2.52028e-15
3.30638e-15
0.0358509
9.96967e-06
0.0319881
6.73542e-15
1.13189e-05
5.177e-05
2.38805e-15
0.000134597
1.86693e-16
0.00117536
0.0244699
0.0202761
0.00112452
0.000220089
7.27247e-15
5.3661e-16
6.18086e-15
2.29901e-05
3.24976e-16
0.00764889
4.07075e-14
0.173719
1.11181e-16
0.0409405
0.00292785
6.60426e-15
1.04792e-15
1.22804e-14
3.54239e-15
0.0420299
2.49049e-15
1.10556e-14
0.0116583
0.0068908
6.60363e-15
1.14587e-14
5.92981e-15
4.63245e-15
1.27294e-14
9.83362e-16
0.0260531
0.000390898
8.01919e-16
2.60267e-15
5.63043e-07
8.34444e-15
0.001553
0.000101928
1.62248e-15
0.00355744
2.10393e-15
0.000388622
8.87784e-16
0.00111367
3.20994e-15
6.6266e-08
2.17555e-06
0.000604486
0.0184771
0.0346334
1.15008e-06
1.8073e-16
0.000569389
1.37196e-14
0.00467582
5.6393e-16
1.21139e-14
3.12636e-14
5.18015e-15
1.68698e-14
1.07169e-14
0.00732614
0.00827236
1.5713e-15
2.82331e-14
2.46686e-15
0.000806061
1.22082e-05
5.84506e-15
0.0179917
0.000166838
3.1239e-15
0.0235184
0.0081312
0.00372727
0.0109529
1.23215e-15
3.44513e-14
4.43397e-15
1.53717e-15
0.0370274
4.01254e-16
0.114938
1.78476e-15
0.000327821
0.000727485
9.23849e-16
0.000995209
5.01362e-16
3.80437e-15
0.003126
2.19298e-08
0.00976411
3.5486e-15
4.89967e-16
8.11015e-16
0.000846247
1.09051e-14
1.48352e-15
6.2987e-16
2.62671e-07
2.31919e-15
6.19733e-06
4.78544e-15
3.19038e-15
1.16912e-15
0.0183483
0.00982133
0.0182769
0.0359222
8.64891e-15
1.65857e-05
2.14573e-15
5.29623e-15
0.00954502
1.25207e-16
2.09171e-06
0.000366123
0.00674694
0.000382016
1.07957e-09
0.00184745
4.86641e-15
1.41584e-09
3.17342e-10
0.000130406
0.000754225
0.0153199
6.81636e-08
5.0966e-15
0.0299613
1.04097e-14
3.22235e-15
1.18356e-05
0.0749942
5.06114e-08
5.39417e-15
1.85049e-15
2.97303e-07
2.58662e-15
2.04259e-15
1.88737e-05
7.51713e-15
9.46312e-15
0.0398741
0.000241125
0.00018965
0.0223671
0.00722231
2.29134e-15
4.14875e-16
2.64792e-05
0.00403309
8.6175e-16
7.13948e-15
0.00955555
1.46397e-15
3.89047e-14
6.46514e-15
5.61121e-15
1.39475e-13
2.56671
5.92937e-17
0.000220002
1.3006e-15
0.0218343
4.51587e-16
8.53562e-13
1.30297e-15
2.09655e-15
4.60116e-15
9.95709e-15
0.00278204
2.78689e-15
1.6552e-15
3.20162e-15
1.48197e-15
1.1934e-14
3.07723e-15
0.009713
3.10926e-15
0.0109273
0.00317587
8.89943e-16
0.00152161
2.5848e-16
0.000519393
2.10095e-06
0.00382196
0.0128628
7.17255e-16
9.28796e-05
0.00750518
1.05846e-05
1.47907e-14
3.26536e-06
0.0192543
0.00464222
2.08972e-16
0.0256758
1.40209e-15
4.10254e-15
3.01025e-15
3.79213e-15
0.00804772
1.05248e-15
7.732e-16
0.00829072
4.14727e-07
0.0026236
9.80587e-16
1.06938e-13
0.000649909
2.64473e-15
5.88224e-05
5.99045e-15
0.0235093
5.06005e-15
2.95002e-16
5.33029e-05
3.78054e-15
0.000140475
2.14442e-15
6.61408e-16
0.00466217
0.000448437
0.00467668
0.0151029
0.217867
0.0202936
7.08409e-16
1.38392e-14
0.0030404
0.00670773
0.0369379
0.0102148
1.71193e-15
0.0125314
1.79046e-16
4.42596e-15
0.00929447
0.0111913
2.36802e-15
0.0133331
7.46798e-16
0.00272663
0.00897843
1.00877e-15
7.72704e-17
3.58966e-16
0.00287634
7.0705e-17
1.15431e-15
0.00424602
0.0216434
3.57894e-06
0.00733355
5.45789e-15
4.6846e-15
8.97925e-05
0.000794737
1.60076e-16
0.0102446
1.15989e-15
0.00254768
2.14293e-15
5.59198e-15
0.0122902
4.83287e-16
3.55366e-05
0.00369079
1.76551e-16
2.78163e-16
0.00447042
5.41059e-11
0.0517608
2.56291e-15
0.248471
9.97923e-15
4.88053e-14
3.15189e-15
0.00756058
4.2482e-15
5.08562e-15
0.00560137
7.12056e-15
0.000256651
2.67704e-15
6.52429e-16
5.05984e-16
9.51199e-08
0.000784588
1.45724e-16
4.32752e-16
0.0346259
0.000945148
1.53305e-15
0.000404149
3.41071e-15
7.31066e-15
1.74286e-06
0.00286231
0.00131371
3.91288e-15
5.0485e-15
2.22288e-15
1.41315e-15
3.30391e-14
1.06545e-14
2.2921e-15
1.83889e-16
3.13447e-16
2.90509e-16
1.16137e-15
3.75846e-15
3.2599e-14
1.45474e-15
1.51887e-16
4.92001e-17
6.66598e-16
2.69158e-15
4.68416e-15
1.1176e-16
4.44524e-14
0.0169204
2.61275e-15
3.37363e-16
5.01728e-16
0.00664765
1.6945e-14
7.05217e-16
0.299847
1.19548e-15
4.50508e-16
0.0228551
7.11622e-12
3.60011e-16
0.00809584
0.0244503
2.17299e-15
0.00293902
0.00434389
3.72408e-15
0.0135291
0.0391399
0.017764
0.00338086
0.0106297
1.52428e-15
2.72468e-15
0.00301052
0.0104566
0.00323133
7.53277e-15
0.0068197
0.00179777
0.021465
0.00993386
0.000697228
0.0156151
0.00100968
0.0103284
1.62381e-14
0.0240004
0.00843465
0.00162052
0.0014386
6.95494e-16
5.54614e-15
5.05662e-15
1.92895e-15
7.62358e-15
0.00908904
0.0135023
2.0176e-15
3.69987e-16
5.124e-14
1.17752e-16
2.78953e-15
1.13579e-15
7.7764e-16
3.52187e-16
0.00467771
0.000212553
0.0217136
7.3061e-05
3.72987e-16
6.78011e-15
0.0297751
7.69682e-06
4.17911e-16
1.46333e-14
0.00711364
2.48529e-14
2.47383e-15
2.23466e-06
0.00772903
0.0134984
0.0334509
0.0345265
2.46431e-15
0.0138813
0.000346857
5.93968e-16
1.24446e-15
0.0119085
1.02398e-15
2.833e-15
0.0152935
1.04321
0.000173083
1.17406e-16
2.69641e-15
0.0173272
0.0195813
0.0178687
0.00558682
0.00446697
6.70771e-15
1.07869e-06
2.66567e-09
4.16032e-14
1.06311e-14
0.0168368
7.0458e-16
0.00198242
0.024601
0.0174969
0.0109907
1.6748e-15
0.00595451
4.70184e-16
6.02817e-17
7.55994e-16
5.9947e-17
0.0024446
0.886075
7.56492e-15
1.17686e-15
4.23263e-06
0.0229166
0.00122254
0.00682596
0.0321526
0.00466702
0.0204381
1.20856e-15
4.97224e-15
1.59709e-16
0.0289167
0.00552132
3.05775e-08
8.72468e-16
5.92628e-15
9.90379e-14
0.021767
0.00261933
5.19538e-16
0.0048188
0.057604
0.00623254
0.00610495
9.15339e-16
4.30689e-14
0.00675932
0.022246
1.30257e-15
0.000349515
0.0147572
0.000967886
0.00902965
0.00462105
0.0077519
5.84122e-14
0.00318606
0.0205816
0.0350421
4.8687e-10
0.0220393
3.40467e-13
0.0159249
0.000149395
5.59155e-15
0.00246581
0.00744025
0.000408423
0.0113417
4.43386e-07
0.0001202
1.35892e-05
0.0420996
0.00361266
1.6593e-15
0.0369759
0.00126513
1.71919e-15
1.67609e-15
4.26536e-08
1.46278e-05
0.00104152
1.05689
0.0345552
0.012136
1.87132e-07
0.044551
1.93382e-14
3.55337e-14
0.00377901
2.35124e-15
0.00196653
0.00375251
0.00214591
0.00450062
5.6838e-16
0.000185269
0.104164
1.9511e-15
0.0131945
0.00738276
8.17415e-15
0.00387171
0.000128087
2.41305e-14
6.92127e-09
8.16646e-05
4.93551e-15
3.56553e-15
3.31606e-15
0.00413191
0.0048513
0.0135807
5.75713e-15
0.00456902
0.0317856
2.89226e-16
0.00777323
0.012012
0.0229212
0.00147662
2.37841e-15
0.000503086
0.00886782
0.0100728
0.00879202
0.0353846
0.15614
0.00314931
3.28967e-15
7.32434e-06
0.0475077
6.56778e-16
0.000405406
5.53309e-15
6.78636e-15
1.05359e-14
7.0878e-15
6.6976e-16
0.00312645
1.06434e-14
0.0069031
0.00108363
3.82808e-15
0.00360013
2.82109e-15
0.0132716
1.33881e-15
2.67353e-05
1.19333e-15
0.0207182
0.000154775
2.45776e-06
0.00409279
0.0270949
0.015785
0.00374995
0.026097
6.02238e-12
0.022281
0.0519861
0.00943026
1.13391e-14
0.00101605
0.000231348
0.00541923
0.00967258
0.000586477
6.15297e-14
4.76661e-15
1.97412e-15
0.0033319
6.79334e-15
0.000354256
0.000202683
0.00169744
0.000247188
7.93758e-15
1.22026e-14
2.02815e-15
0.00838264
0.0203261
0.00112265
9.23582e-06
0.00176434
0.00662412
0.00174378
0.000782425
0.00621641
0.00597935
0.00259722
6.5305e-15
3.75294e-15
9.38305e-15
0.0121957
0.0103054
2.69908e-15
1.51305e-15
2.2256e-14
0.00815153
0.0173011
2.8638e-15
0.00215489
5.19355e-15
5.88486e-07
0.00437225
0.0860958
1.34973e-15
5.52031e-16
0.00344742
3.55477e-16
5.54699e-05
0.0114307
4.25296e-15
0.0103543
0.0310239
0.0182344
1.29476e-16
0.00148397
2.47872e-15
8.92735e-05
0.0460996
2.0665e-16
1.1632e-14
0.0100995
2.59493e-13
1.81884e-15
4.16888e-05
0.000900266
2.77456e-15
2.43238e-15
1.43721e-13
7.23074e-05
0.00120336
0.00298527
0.024479
0.00812366
4.80707e-15
6.93299e-07
0.000690068
2.62025e-15
3.3227e-15
1.63007e-14
2.94315e-14
9.08569e-15
1.87972e-15
2.33108e-15
1.92573e-17
9.27109e-15
4.03437e-16
2.44964e-09
1.49286e-15
0.000309966
4.09231e-15
0.000252295
9.94863e-14
0.000102365
2.0762e-15
5.63972e-15
0.027238
0.00848815
7.56659e-15
0.0813706
1.00553e-08
6.55232e-10
8.9055e-16
0.00114265
1.52634e-11
0.0026172
6.10054e-06
0.000786434
1.03445e-15
4.17971e-15
0.00115732
2.00976e-08
6.22024e-15
3.96007e-15
0.0365479
3.71624e-15
0.0350299
4.88625e-15
4.05736e-16
1.69954e-06
0.0264145
0.00732145
8.33994e-15
0.000301065
3.91865e-15
0.00343244
1.86154e-05
0.00164002
4.76253e-06
1.64525e-14
0.0191899
0.00115583
0.00496082
1.12382e-15
2.53459e-16
4.63319e-16
0.0198638
0.00356741
0.0498692
2.63351e-15
4.67804e-07
2.64781e-15
7.77154e-15
1.34159e-15
1.68627e-15
0.00320331
0.00212494
0.00290849
0.298542
4.3416e-14
0.0250846
0.0338792
0.0158675
0.00166319
1.18956e-14
0.00485092
0.00442076
0.00566495
2.72875e-07
0.0094481
3.59433e-15
0.00139203
0.00123863
0.0308152
1.05085e-06
0.00330766
6.09087e-15
0.0174457
5.29412e-15
6.63084e-15
0.00156606
3.48096e-15
0.00559496
1.18729e-14
1.54837e-15
5.83218e-15
2.56554e-15
3.07994e-16
0.00079974
1.59687e-15
0.000498352
2.22833e-16
1.86487e-15
0.0164473
0.00501495
0.0075307
0.00683144
4.00549e-15
0.549373
3.74097e-15
0.0641484
4.09677e-15
0.0162815
0.0230008
0.00225589
0.0526302
1.95477e-14
2.18716e-14
1.26448e-15
0.00203022
2.2213e-14
6.52754e-15
0.016555
5.0254e-16
1.50793e-15
0.0052259
4.59429e-15
0.0115752
6.17166e-08
1.21796e-14
3.9906e-15
1.19765e-14
0.00143345
0.00638062
6.94596e-16
0.0216803
0.000338321
4.93027e-16
0.0949145
5.43528e-15
0.0145281
0.0169362
0.00356226
5.49199e-15
0.0169977
0.00963866
0.00086238
0.0051634
0.0117065
2.47172e-15
1.77425e-15
1.76273e-06
2.27389e-15
1.35277e-15
9.09575e-16
0.0185048
0.046217
0.00430574
0.00209205
3.73444e-15
0.0476395
0.0432387
0.00398784
0.00214877
0.00888708
0.0197194
0.00263026
3.59697e-15
3.41581e-16
7.71572e-16
0.00691388
1.4025e-14
0.0233804
6.44692e-14
0.000734571
5.66759e-07
0.00247326
0.0207829
3.72863e-16
5.71367e-15
0.00244851
0.000369595
3.6703e-15
3.53972e-15
2.83383e-14
3.72062e-05
0.000293509
0.000144595
0.000804947
0.00970721
0.0816388
2.49228e-16
1.19554e-14
5.10792e-15
0.00359418
0.0164358
0.0189341
0.0331315
0.00162868
0.00293095
2.85487e-16
7.79753e-16
1.19752e-13
5.8102e-15
0.0087373
0.021273
4.43059e-15
1.0971e-14
2.64798e-15
4.43929e-15
4.83606e-14
7.98235e-15
0.0132939
8.19938e-15
0.000888182
0.407444
6.88266e-16
1.27305e-05
0.0217086
0.00072344
4.01493e-15
1.81624e-15
0.00491647
1.3748e-15
0.0139382
8.99113e-07
0.0234452
1.70778e-14
1.85692e-12
6.56493e-16
8.1317e-16
4.29414e-15
9.2517e-16
0.190789
1.6084e-15
0.00587497
0.00120218
5.40121e-15
5.90924e-15
0.00198538
2.69403e-15
7.27315e-16
0.0106229
0.000143263
3.9028e-15
4.18789e-15
9.07325e-16
0.0162641
1.60208e-15
1.70856e-15
0.000457306
0.00261861
0.00309755
9.28635e-16
4.15126e-16
3.44156e-15
0.00375746
0.00184859
0.0125643
0.00363698
2.76956e-16
0.000753563
0.0110619
0.00624299
3.41191e-15
9.02746e-15
2.02353e-15
6.88156e-15
1.77415e-15
0.0296872
0.00486927
0.00577818
1.64453e-14
1.47625e-15
1.95262e-15
3.81934e-15
4.22657e-16
1.03339e-06
0.000213981
0.00208416
2.15079e-15
2.40106e-15
6.61879e-14
2.08027e-09
0.0339451
0.112153
5.81965e-16
9.60131e-10
2.79087e-11
3.73021e-16
1.40281e-15
0.00367182
0.00615037
1.31278e-15
3.81345e-15
0.00278686
1.44574e-15
0.00067112
0.000992646
2.00626
1.59588e-15
4.57156e-15
0.0113799
0.00053013
4.76206e-15
0.640232
0.000583181
0.00597036
1.95458e-15
1.37981e-15
1.88499e-14
2.53507e-16
0.00819931
8.72014e-05
5.96399e-15
0.0245194
0.0184776
0.824917
8.21989e-15
4.41909e-16
1.10691e-15
4.544e-15
0.006561
8.10696e-08
3.45838e-16
4.13159e-15
0.0179574
0.000786748
0.00456699
1.40128e-15
1.46715e-14
0.0276761
1.48331e-15
3.54564e-16
1.42815e-15
1.03424e-15
0.0203461
2.85713e-15
1.74093e-15
4.13597e-15
0.0246612
0.0114522
5.1848e-16
2.59425e-15
1.28577e-16
0.0146834
1.94115e-07
6.00387e-15
6.1443e-16
4.02404e-14
8.31027e-15
0.00232004
0.0108908
3.3485e-15
0.00190489
0.00108148
0.00477154
1.68649e-13
1.00307e-14
1.79114e-16
7.0395e-15
5.34651e-16
0.0182078
1.13931e-14
0.0136622
5.201e-15
0.00152041
5.92073e-14
0.00240111
4.03878e-15
3.78356e-14
0.00984009
0.152643
1.91864e-15
0.00356414
1.24224e-15
0.000379266
3.34878e-14
9.63989e-15
8.07262e-15
5.30314e-08
6.26992e-15
0.000287913
8.71601e-16
0.0337522
5.2546e-15
3.05584e-16
2.27011e-15
1.89835e-14
7.39763e-06
0.000131846
7.83111e-16
0.00556752
5.63377e-15
0.00267082
0.0173218
0.00127764
6.66643e-16
4.77218e-06
0.00044505
2.19244e-06
0.00404347
2.96572e-07
0.00166807
7.3512e-16
3.9186e-15
4.17645e-07
0.00553685
0.000240344
1.95565e-14
2.88932e-15
4.83128e-16
0.563933
2.88223e-14
3.82412e-15
3.56796e-15
1.83601e-14
9.07918e-14
3.2145e-05
0.000181565
0.000980743
6.68262e-05
1.2546e-12
0.00142962
1.02574e-14
0.00518672
6.06351e-15
8.69302e-15
1.37571e-15
1.18798e-15
1.37549e-05
1.09223e-16
8.72694e-16
1.16329e-15
0.01364
6.59331e-15
1.13293e-15
0.0100233
6.45925e-16
0.0764357
0.122152
0.547708
1.45001e-15
0.193102
1.07555
1.04434
0.606964
3.84962e-15
9.57547e-17
0.00455556
0.00426768
5.37551e-16
0.010182
4.37704e-15
0.0299766
9.69522e-15
1.14035e-15
0.000702029
1.46643e-15
4.35619e-15
1.03825e-05
3.89401e-05
3.85616e-14
3.56765e-16
2.86874e-06
1.62773e-15
3.38122e-15
1.74791e-05
0.00780933
0.00147443
1.47366e-14
0.00756063
1.78606e-14
0.00326757
4.18907e-07
0.00704788
2.22687e-15
1.60295e-08
0.00546672
3.68152e-15
1.62725e-09
5.33408e-15
0.0297823
9.82685e-16
0.00880156
2.98238e-16
2.49112e-07
7.71841e-15
2.63688e-15
1.64349e-14
8.35715e-10
4.80235e-10
1.18252e-14
0.0111019
0.00869998
1.92071e-14
3.22807e-15
0.0300997
0.0158223
0.170899
2.53703e-14
6.71347e-05
0.0231537
0.0424979
5.65458e-08
1.1717e-14
0.0526788
2.28784e-15
0.211997
1.37519e-15
4.33749e-08
3.75752e-08
1.04395e-15
5.65986e-05
3.69928e-15
0.0193052
1.4873e-15
1.58742e-15
9.24656e-17
1.19711e-14
1.01494e-14
2.90388e-15
0.000257279
0.00186246
0.124559
3.28598e-15
8.03996e-15
0.0380219
2.0682e-15
3.87447e-16
1.23405e-14
1.19734e-13
3.06176e-15
0.00549864
1.33248e-15
7.28014e-15
5.66685e-16
0.003046
6.8909e-15
8.99956e-17
1.96064e-15
0.00306348
1.96542e-15
0.00565311
0.217306
0.0051146
0.00526227
0.0246463
2.96798e-15
4.20239e-15
7.72026e-16
0.00297462
0.00159447
7.8257e-16
7.54422e-15
0.000568239
3.2334e-14
4.68339e-15
0.310306
7.49175e-15
0.0198262
1.12127e-15
0.0021702
0.00292629
1.41302e-14
2.15349e-16
4.31182e-15
2.97514e-15
7.50138e-15
0.0163763
9.98732e-15
0.00435114
8.72478e-16
5.35364e-15
0.00642086
5.12669e-15
0.0115083
1.27119e-15
9.85041e-16
0.00213717
6.58563e-05
0.129439
4.28161e-14
3.762e-15
7.08289e-15
0.00313112
0.163647
1.64155e-15
3.2697e-15
1.24422e-14
0.00137307
9.14314e-15
0.0176532
0.0285339
8.54901e-16
1.45657e-15
0.00667045
2.01585e-14
3.92809e-15
5.89923e-15
4.2816e-15
1.16285e-14
0.063199
1.43652e-14
1.0507e-15
1.56161e-15
2.91567e-14
3.66187e-15
3.17718e-15
2.07704e-15
2.77584e-15
3.10042e-16
0.00690557
9.08242e-17
0.00797333
2.80846e-15
8.255e-15
0.531011
0.00254052
4.2857e-16
3.36947e-15
2.10834e-15
0.00224023
8.0651e-16
3.85039e-15
6.98159e-15
3.96842e-16
0.00684952
3.85636e-16
0.00430248
1.285e-14
0.00869257
2.96828e-15
0.0517264
1.01773e-14
1.15822e-14
0.0199346
3.50579e-15
1.02156e-15
0.0242917
0.00024363
4.41393e-15
6.30157e-15
0.0324381
0.00906043
0.00598428
0.000774864
0.00167627
0.0158984
0.000950613
0.00426843
3.81216e-16
0.0267209
1.27165e-14
9.34768e-15
1.32247e-16
8.01387e-15
4.26201e-15
0.0096422
3.13137e-14
1.7197e-15
4.34742e-15
4.51377e-06
7.3992e-06
7.01731e-14
0.00209715
2.84525e-14
0.00397365
3.6677e-15
1.2213e-06
0.0029535
3.37761e-13
0.0415355
2.89064e-15
7.85535e-15
3.12505e-16
0.0027347
0.00113084
1.79912e-15
4.73531e-15
0.00228417
7.19108e-15
0.608735
1.65132e-14
0.0931889
3.61717e-16
2.41437e-15
1.3826e-14
1.44636e-15
0.00918256
2.46224e-15
3.34054e-05
2.98362e-15
0.00890112
6.29592e-15
7.41056e-16
4.35337e-12
1.02365e-13
2.18314e-15
1.15037e-14
8.07347e-16
2.30355e-14
0.00380145
0.17025
3.4925e-14
2.32566e-15
0.000322969
9.95391e-16
6.02215e-15
1.02301e-06
0.0156525
0.000135967
1.76228e-14
0.000623074
0.00296208
0.00492123
0.00754579
2.46247e-15
6.42653e-14
4.74682e-14
7.17638e-15
6.50143e-16
1.44199e-15
3.71922e-14
1.2663e-14
1.66256e-14
4.26469e-14
2.96856e-15
1.16641e-14
0.0684212
1.4378e-15
1.55913e-15
3.67371e-10
3.97297e-14
3.45723e-16
1.00896
2.74809e-15
1.21515e-15
0.0018915
2.49173e-09
1.3147e-15
6.51268e-14
1.41933e-16
0.0209508
1.3828e-15
1.83972e-14
4.96164e-08
1.08124e-15
3.61946e-15
1.5404e-15
1.49e-15
0.109877
3.48883e-15
0.000147044
1.09951e-15
1.29961e-15
3.82724e-15
5.68338e-15
4.11382e-16
1.51782e-08
2.89931e-08
0.000101204
1.52362e-14
1.26176e-15
1.55976e-14
8.45583e-08
3.72195e-16
2.78811e-07
8.3771e-09
1.45741e-15
1.26802e-15
1.24913e-14
4.30787e-09
9.5329e-15
6.23787e-16
2.20025e-09
7.78672e-15
0.0288142
6.41331e-15
0.00673553
1.92381e-15
2.16507e-06
4.20296e-16
0.00129744
1.32451e-15
0.00372959
0.024419
9.02104e-15
0.00232991
1.36098e-05
1.44073e-15
0.0102465
5.90076e-16
3.39238e-15
5.23912e-15
1.40093e-15
1.71587e-15
9.93795e-16
3.55685e-15
6.64158e-15
0.268531
5.36824e-15
3.12752e-16
5.73283e-16
1.59447e-16
2.56316e-15
0.0299623
0.765568
3.03393e-06
9.71311e-06
3.24732e-16
0.00198909
0.00139241
6.80202e-15
9.40857e-16
1.51506e-15
1.36984e-16
2.85035e-15
1.48782e-15
1.63153e-15
6.34174e-15
0.000364782
8.02245e-15
5.03498e-15
0.000236742
3.71998e-06
5.11041e-15
0.0241616
1.35459e-15
5.45423e-15
1.32202e-15
0.162341
6.09673e-14
4.05194e-16
0.0251023
2.38841e-15
2.63037e-14
4.32626e-16
3.60031e-14
0.053288
1.15236e-15
1.43999e-15
7.29576e-16
1.20263e-16
0.00561729
0.22526
0.0275637
0.0416339
0.00372599
0.000251731
8.19584e-16
1.90349e-15
0.138981
0.0012236
2.26914e-15
9.04525e-08
1.59938e-14
7.02282e-11
8.74218e-15
0.205408
6.97548e-16
2.33067e-16
0.000227485
2.34046e-10
2.29079e-15
0.00952546
2.7721e-16
1.3413e-14
0.197885
0.0298364
4.034e-15
2.47532e-15
4.86496e-15
1.24855e-15
9.03302e-15
1.01835e-15
7.79114e-15
9.99925e-16
0.00306324
1.211e-15
3.33586e-15
3.71464e-15
1.38507e-05
2.71056e-15
5.82601e-14
1.94051e-15
1.42764e-15
2.31633e-15
3.38249e-15
0.00335672
9.35296e-17
1.92233e-16
0.00499929
2.92243e-14
0.000358366
0.00446499
1.56721e-15
0.0034219
6.1894e-16
2.53268e-15
5.57555e-15
1.72354e-14
6.26193e-15
1.2511e-14
7.69135e-14
4.46621e-15
0.00235048
4.27276e-15
7.00166e-15
1.34492e-14
4.91701e-16
1.4916e-14
4.27844e-15
0.0354786
1.83262e-15
1.70216e-15
0.337237
3.95868e-16
1.28382e-16
1.41809e-15
0.00125726
7.27009e-16
6.02698e-06
2.07117e-16
4.85774e-05
0.007924
1.57626e-15
2.72687e-15
0.040361
3.97045e-14
3.0003e-15
0.000127589
7.18413e-07
0.00984039
2.30178e-06
9.11593e-07
1.39677e-07
1.64228e-15
2.36479e-15
0.00102141
0.000118997
0.0157229
0.0121175
2.85984e-05
4.35916e-15
0.0054882
0.00520951
0.018559
1.03538e-14
0.0122966
0.016647
0.002768
0.00139569
0.00126177
0.00323509
0.0189661
0.0409108
0.0070823
0.0110787
0.00801725
1.5014e-14
0.00291201
0.00363555
0.000856953
0.00256035
0.0141799
0.0138165
0.0193264
1.49394e-14
0.0115258
2.87618e-15
0.00508509
0.00284969
0.00026911
0.00232028
5.87903e-15
3.94044e-15