/*--------------------------------*- C++ -*----------------------------------*\
  =========                 |
  \\      /  F ield         | OpenFOAM: The Open Source CFD Toolbox
   \\    /   O peration     | Website:  https://openfoam.org
    \\  /    A nd           | Version:  10
     \\/     M anipulation  |
\*---------------------------------------------------------------------------*/
FoamFile
{
    format      ascii;
    class       volVectorField;
    location    "28";
    object      U;
}
// * * * * * * * * * * * * * * * * * * * * * * * * * * * * * * * * * * * * * //

dimensions      [0 1 -1 0 0 0 0];

internalField   nonuniform List<vector> 
111485
(
(1.45881 -1.45866 0.000373981)
(4.28522 -0.00985457 -0.0257676)
(4.21773 0.0110511 0.0126343)
(1.45824 -1.4585 0.000131026)
(4.38172 0.0206347 0.000145957)
(1.54362 1.54248 -0.000162465)
(4.30427 0.0129827 0.00107823)
(4.43492 -0.0133387 0.00533281)
(4.30164 -0.00199424 0.00353861)
(4.41684 -0.0483647 -0.0197955)
(4.24164 0.0101794 0.0126641)
(4.43793 -0.0119434 0.0205138)
(4.17831 0.00399583 0.00935923)
(4.2404 -0.00904929 -0.0296214)
(4.28029 0.0172835 0.00844291)
(4.38483 -0.0300359 -0.0230682)
(4.32134 -0.00514673 0.00709782)
(1.51248 -0.09498 0.21612)
(4.38861 0.0134394 -0.00971756)
(1.45508 -1.45345 5.78899e-05)
(1.45675 -1.45637 -0.00137744)
(1.54504 1.54479 -0.000224877)
(4.34191 0.0164288 -0.00410994)
(4.42406 -0.029188 -0.0100319)
(4.34099 0.0127842 -0.00336191)
(1.4687 -1.4632 -0.0021922)
(4.45569 -0.0216957 0.0215277)
(4.22388 -0.0081074 0.00171591)
(4.40475 0.00639796 -0.0112672)
(1.4566 -1.45654 -7.11259e-05)
(4.44871 0.0684996 -0.0175348)
(4.39896 -0.00996363 0.00129763)
(1.45169 -1.45429 0.00202184)
(1.54443 1.54788 -0.00357292)
(1.54716 0.655944 0.244771)
(1.55423 1.56489 -0.022636)
(4.42596 0.0685948 -0.0271103)
(4.2895 0.00983417 0.0393801)
(4.40522 1.33591 0.0744076)
(4.3961 0.0208716 0.0010339)
(1.52696 1.54101 -0.0108739)
(4.43569 0.00664247 -0.0271342)
(4.39589 0.0215501 0.00731154)
(4.22505 -0.0256604 0.00180165)
(4.42147 -0.0750632 -0.0387007)
(1.45939 -1.44751 0.00534476)
(4.43163 -0.0186617 0.0179689)
(4.41729 -0.0278333 -0.00910767)
(4.43793 0.000319227 -0.0224353)
(1.44844 -1.42957 0.0079452)
(1.4452 -1.43179 0.00834267)
(1.75365 1.47676 0.0266052)
(1.44021 -1.43534 0.00480945)
(4.42769 0.0202747 -0.0357354)
(1.43693 -1.43166 0.000804106)
(4.37698 0.011576 -0.00483416)
(4.38324 -0.0192929 -0.0105299)
(1.54639 1.54333 0.000970717)
(3.99941 -0.00788458 -0.0700532)
(4.40204 0.0181157 -0.00264331)
(4.40024 0.0200682 -0.000963294)
(1.45384 -1.45698 0.00214793)
(4.09845 0.00412265 0.026584)
(4.45096 -0.011895 0.0344103)
(1.59869 1.45038 0.00375144)
(4.01398 0.00914753 -0.0086522)
(3.08925 -0.238316 0.103752)
(4.41381 -0.015867 0.00598228)
(3.98687 0.00163145 0.0152743)
(3.77359 -0.00594316 0.00293369)
(4.25383 0.034595 -0.0130812)
(3.94604 -0.0106752 0.0215196)
(1.579 -1.42245 -0.0316555)
(4.05227 0.00653425 0.0314012)
(1.45817 -1.45737 -0.000139835)
(4.3979 -0.0101984 0.00808608)
(1.54478 1.5452 5.50929e-05)
(4.42742 -0.00895174 0.0229761)
(1.54466 1.54354 4.45822e-05)
(1.40021 1.36893 -0.0447602)
(4.27694 -0.0645951 0.0434125)
(4.42654 0.0152646 0.00162694)
(1.54236 1.53972 -0.000110219)
(1.45817 -1.45788 0.000758692)
(4.15297 -0.000250156 0.00911942)
(3.98111 0.011094 -0.017731)
(3.42657 2.22736 -0.594957)
(4.3731 0.0531155 0.0043199)
(4.21369 0.106371 0.0908234)
(4.27602 0.00632688 0.0145355)
(4.51162 0.0887088 -0.056075)
(4.37978 -0.00748523 0.0069198)
(4.1024 -0.00682255 0.0139135)
(4.18456 -0.0047007 0.00510455)
(4.43826 0.0143789 -0.0250259)
(1.45835 -1.45787 -0.000263186)
(1.45783 -1.45753 0.000708686)
(4.3706 0.0491871 0.0153541)
(4.4978 -0.886815 0.0631035)
(4.09298 0.014051 0.0266704)
(1.4584 -1.45812 0.000469127)
(4.39087 -0.0231807 0.00194481)
(1.55285 1.55562 0.0085954)
(4.35837 0.000538898 -0.00241187)
(4.33377 -0.0237187 -0.0286643)
(1.51588 1.35847 -0.0312456)
(1.54507 1.54475 -0.000218938)
(4.40605 -0.0134569 -0.00137785)
(4.05725 -0.0221666 0.00484677)
(3.89057 -0.115013 -0.120517)
(4.14874 -0.00391616 0.00909409)
(4.3711 0.00611418 -0.00267906)
(4.07066 -0.00207309 0.015438)
(4.00638 -0.0198793 0.00912604)
(1.47174 -1.46419 0.000493085)
(3.86503 -0.00512281 0.0119148)
(1.46363 -1.4587 -0.00220192)
(1.55312 1.54666 0.00628296)
(4.29718 0.018037 0.0136386)
(1.45786 -1.4569 0.000539056)
(1.4698 -1.46363 -0.00162159)
(2.02919 1.5996 0.0959434)
(1.53585 1.54081 -0.00302918)
(1.54957 1.54581 -0.00356226)
(4.20012 -0.00986137 0.0194038)
(1.16383 -0.818819 -0.220717)
(1.93635 1.66733 0.0582838)
(3.90339 -0.00107701 0.0187239)
(1.45796 -1.45731 -0.000453168)
(4.41423 0.332586 -0.119761)
(4.40895 0.0805412 -0.0423835)
(4.36268 0.0501764 0.0162099)
(1.45424 -1.4507 -0.00698324)
(1.98776 1.73189 0.173579)
(1.85802 1.65913 0.0777342)
(4.40415 0.013905 -0.00675859)
(1.54554 1.54578 -0.000403847)
(4.37968 0.0106589 0.000774047)
(4.3466 0.0160382 0.00706315)
(4.28144 0.0184234 0.0155559)
(3.36256 0.000417335 0.0146794)
(4.39174 0.0227056 0.00446098)
(4.35372 0.0281354 0.0162438)
(4.13661 0.00360914 -0.0176957)
(4.32284 -0.0086745 0.00407258)
(4.27871 -0.000702933 0.00816884)
(1.54584 1.54602 -0.000332714)
(1.45794 -1.45804 0.000108879)
(1.54269 1.54342 0.00286193)
(4.37965 0.0174715 0.00213457)
(4.13834 0.00689011 -0.0164153)
(1.45673 -1.4557 0.000545894)
(2.87665 -0.0165875 0.0281039)
(4.27323 0.0204178 0.0100223)
(4.68243 0.188347 0.0837468)
(4.40331 0.0124427 -0.00894825)
(4.37999 0.0135149 -0.0033438)
(4.06709 0.00032806 -0.00541144)
(4.72523 0.230569 0.0583427)
(1.4505 -1.46405 0.00580338)
(1.4562 -1.45756 0.00123232)
(4.39242 0.0122275 -0.0090182)
(4.30503 -0.0148502 -0.0154393)
(4.75585 0.259859 0.0633154)
(4.68988 0.228128 0.0870012)
(4.09491 0.00758174 0.0214592)
(4.38644 0.0534464 -0.0195418)
(1.52723 1.53991 0.00034816)
(4.81311 0.322186 0.0778283)
(4.58857 0.231181 0.0718849)
(1.54455 1.54532 0.000367596)
(1.45652 -1.45624 -0.000206444)
(3.51787 0.00396735 -0.0257286)
(1.54536 1.54614 9.8393e-05)
(4.36063 -0.00963801 -0.00168321)
(4.19109 0.00285275 -0.00994527)
(1.54554 1.50999 -0.00710362)
(1.57451 -1.44453 0.0131061)
(1.46152 -1.45378 -0.00242453)
(1.52181 1.43815 -0.0141486)
(1.58535 -1.45893 0.0248013)
(1.45627 -1.45727 0.000937432)
(4.37286 0.0172341 0.0044153)
(4.3706 0.0109585 -0.00831243)
(4.35546 0.0143398 -0.00392002)
(4.32113 -0.0103422 0.0156844)
(4.15035 -0.00922898 0.00318173)
(4.16721 0.00874155 0.0139044)
(3.69508 0.0466361 0.00524968)
(1.45734 -1.45212 -0.000151382)
(4.04753 0.000923627 0.00410126)
(1.57105 -1.45836 0.0143818)
(1.47015 -1.47262 -0.00084021)
(4.20692 0.0096025 0.0144692)
(4.41868 -0.0543272 -0.0191085)
(4.3682 0.00911627 -0.0201425)
(4.19762 -0.00429489 0.00664059)
(4.26349 -0.00219701 0.00514806)
(1.45548 -1.45281 0.00321638)
(4.18672 -0.0197384 0.0037825)
(4.1815 -0.00544559 -0.0259737)
(2.9283 0.939175 0.121444)
(4.28385 -0.0329274 0.00254027)
(4.3441 -0.00746548 0.00405405)
(1.46328 -1.4552 -0.00217775)
(4.18958 0.0121236 0.0148703)
(4.38542 0.00951065 -0.00329177)
(1.59753 -1.44241 0.00578267)
(4.21348 0.0100992 0.0152677)
(4.41756 -0.00592146 0.024107)
(4.13659 0.00382365 -0.0187573)
(4.17893 0.0106217 0.0189589)
(1.58272 -1.46327 0.019576)
(1.45697 -1.45746 -0.000210105)
(4.17976 0.0105856 0.0188574)
(2.74043 1.72322 -0.169031)
(4.46987 0.0192909 -0.0427222)
(1.54488 1.5457 -0.000902909)
(4.20412 0.00782694 0.0159987)
(4.19579 0.00664471 0.00465679)
(4.44372 -0.0141139 0.0275041)
(1.45955 -1.45883 0.000594752)
(3.92107 -0.00019817 0.0110559)
(4.39981 0.0613547 0.0302891)
(2.4228 1.63151 -0.176883)
(1.54557 1.54565 -0.00119573)
(1.54448 1.54525 0.000339154)
(4.49892 -0.0289786 0.0404627)
(4.19964 0.0995747 -0.0100004)
(1.62606 1.37541 -0.0307567)
(1.81292 -1.40267 0.0554371)
(4.21082 0.00326225 0.00554991)
(4.3396 0.00832763 0.000622211)
(4.4085 0.0108549 0.00250951)
(1.60392 1.40008 -0.0404372)
(1.54115 -1.425 -0.00555449)
(4.23355 0.0482272 -0.0559848)
(1.45798 -1.45758 0.000874376)
(4.00614 0.0046641 -0.0238877)
(4.16068 0.00464175 0.0134031)
(4.20789 0.00177368 0.00713074)
(4.21559 0.0106242 0.00884301)
(4.23155 0.00849937 0.0120187)
(1.54088 1.54093 0.00487582)
(3.1867 -0.00940164 -0.1207)
(4.294 0.0101482 0.0170492)
(1.53801 1.54107 -0.00200868)
(1.54454 1.54532 -0.000277471)
(4.47017 -0.0530709 -0.00602842)
(4.37022 0.0181981 -0.00730967)
(1.58345 1.35337 -0.0413118)
(3.97453 -0.00253708 0.0121035)
(4.27783 0.0119837 0.012677)
(1.45856 -1.45772 -0.00050025)
(1.95322 1.84025 -0.0120816)
(4.39979 0.0378481 -0.016885)
(1.46201 -1.44318 0.000694793)
(1.61833 -1.14514 -0.0277702)
(2.23967 -0.781654 -0.0796293)
(1.45897 -1.45502 -0.000208818)
(4.29602 -0.00766858 -0.00770872)
(4.17807 -0.00749715 -0.010318)
(4.35916 0.0069095 -0.0126314)
(1.45743 -1.45766 -7.69618e-05)
(4.3171 0.0129273 0.0110581)
(1.45827 -1.45856 0.000145346)
(1.45825 -1.45892 0.000255399)
(1.45585 -1.45041 0.00250581)
(2.94509 0.0110758 -0.0447009)
(4.42115 -0.0205142 0.0245296)
(4.22345 0.0149865 0.0195736)
(4.2917 0.0138654 0.0105312)
(4.45473 -0.0289712 -0.000818234)
(4.26798 0.0095809 0.00939286)
(4.38633 0.0157725 0.00552455)
(4.40954 0.0736537 -0.00787549)
(4.30742 0.0094953 0.00056682)
(4.35062 0.0100653 0.00056168)
(1.56999 1.5445 -0.000816311)
(1.45626 -1.4561 -0.00162973)
(2.68717 0.0162317 -0.0649641)
(4.37362 -0.0101366 0.00139729)
(4.42358 0.0332822 0.0371661)
(4.16048 -0.00520619 -0.007389)
(1.45802 -1.45717 0.000357936)
(4.36591 0.0130802 0.00824435)
(4.38868 0.0214764 0.010345)
(4.2813 0.00831561 0.00700824)
(3.77299 -0.00399541 -0.0182362)
(3.95152 -0.0458788 -0.0980141)
(4.34721 0.0149116 0.00242362)
(4.27252 0.0112173 0.00944571)
(4.36167 0.032201 -0.0193956)
(1.54608 1.54609 0.000146277)
(3.99525 0.0209582 -0.000599565)
(1.54464 1.54503 -0.000582809)
(1.26249 0.968536 -0.19568)
(1.64386 -1.04878 -0.106926)
(4.52948 -0.0404652 0.0567496)
(4.45699 -0.0290204 -0.000861319)
(4.35163 -0.00233389 0.000514388)
(1.46037 -1.45677 -0.000536633)
(1.5402 1.54893 0.012536)
(4.3577 0.0141442 0.00796129)
(4.17091 0.0074843 -0.00648647)
(1.45739 -1.45643 0.000129769)
(1.45868 -1.45787 0.00131575)
(1.42783 -1.43523 0.0112132)
(4.14646 0.00582024 -0.00314778)
(4.33176 0.00587567 -0.00517582)
(4.13516 0.000804149 0.014693)
(3.99402 0.00694155 -0.0229903)
(4.41675 0.0101077 -0.0103184)
(1.76843 1.52252 0.0401271)
(1.5422 1.54584 0.00304009)
(1.45825 -1.45609 -0.000866914)
(4.34207 0.0144324 0.012237)
(2.80513 -2.37245 -0.16634)
(4.14028 -0.00487586 0.00460475)
(4.49724 -0.0314156 0.0956409)
(3.619 0.00253665 -0.0740129)
(1.54519 1.54518 -0.000217161)
(1.45668 -1.45807 0.00079234)
(1.45829 -1.45916 -0.000801298)
(1.94494 1.6344 0.0986478)
(4.39213 0.0140423 -0.000458252)
(4.43349 -0.025449 0.00149235)
(1.54903 1.55284 0.000555994)
(4.35426 0.0117585 -0.00118573)
(1.63206 1.32631 0.0920528)
(1.46552 -1.44909 -0.00216439)
(4.46351 -0.0156434 0.036445)
(4.34763 0.0153502 0.00665322)
(4.451 -0.0069604 0.0109496)
(4.35743 0.0122499 -0.000750424)
(1.49138 1.32626 0.0790834)
(1.92577 1.65876 0.105059)
(1.54245 1.54456 -0.00237526)
(4.35098 0.0149319 0.00567983)
(4.34763 0.0129415 -0.000254375)
(4.43179 0.0745086 -0.0241859)
(1.53217 1.5291 0.00334622)
(3.044 2.69963 -0.642162)
(4.15211 0.040459 0.0369679)
(4.43046 -0.0209846 0.0107699)
(4.36904 0.0161115 0.0103618)
(4.1491 0.431095 -0.0350242)
(4.41498 0.0103758 -0.0102894)
(1.54214 1.54213 0.000305081)
(4.41815 0.0119698 -0.00869446)
(4.23982 0.00560202 0.0085353)
(4.47269 -0.10442 -0.000117741)
(4.47659 -0.0262367 0.0532283)
(4.34029 -0.0332085 -0.0299427)
(1.54045 1.54694 -0.00604283)
(1.45679 -1.45861 -0.00272197)
(1.5486 1.54028 0.00564239)
(1.44886 -1.45296 -0.000540018)
(4.42718 -0.0214431 -0.000157454)
(4.401 -0.00805371 0.00282262)
(4.37599 0.0206702 -0.0148557)
(4.41126 0.0122017 -0.013078)
(1.5359 1.53754 -0.00634816)
(4.37266 -0.0286983 -0.00957041)
(1.54363 1.54433 0.000596661)
(1.45182 -1.45616 0.000243944)
(4.41312 0.0122853 -0.00956257)
(1.34509 -1.34677 0.0196062)
(2.42472 -0.420495 -0.0362407)
(1.44215 -1.43673 0.001287)
(1.55932 1.53856 0.0122818)
(4.36533 0.00848043 -0.00583789)
(1.54547 1.54465 0.000605111)
(4.32349 0.0108763 -0.00314005)
(4.1057 0.00255054 -0.0190857)
(1.5464 1.54629 -0.000337101)
(3.96447 -0.00167425 -0.0194914)
(4.29361 0.00708776 0.00801643)
(1.55568 1.36708 -0.0503745)
(4.28771 0.0187988 0.019298)
(4.04306 0.0206921 -0.00310198)
(4.3114 0.0244799 0.00615145)
(4.01236 0.0150046 0.0494227)
(4.35489 0.0127264 0.00204567)
(4.1494 0.000658873 -0.00942863)
(1.52454 1.30717 -0.00561373)
(1.45721 -1.45181 0.00547464)
(3.72727 0.00830825 0.0880386)
(1.53539 1.54068 -0.00890627)
(4.30293 0.0223276 0.0196861)
(4.46546 -0.0225443 0.0435355)
(1.55679 1.48932 0.0124741)
(1.54227 1.54866 -0.000272398)
(4.41605 -0.00923144 0.00311872)
(4.25089 -0.0192296 -0.0390489)
(4.26813 0.0222909 0.00236088)
(4.43128 0.00875896 -0.00208223)
(1.54507 1.54343 -0.000495643)
(4.48536 -0.0133232 0.0707987)
(4.41403 -0.0150577 0.0219143)
(1.54833 1.54552 4.18035e-05)
(4.33604 0.0655346 0.0533813)
(4.13291 -0.0170226 -0.0426688)
(1.45719 -1.4561 -0.000251918)
(1.45714 -1.45694 0.000277768)
(4.32007 0.0137048 -0.0037314)
(4.33628 0.00411471 -0.00615491)
(1.55238 1.55269 -0.00199379)
(1.46041 -1.45573 -0.00153576)
(2.58403 -1.38862 0.316044)
(1.4579 -1.45885 0.00052698)
(4.33725 -0.00215817 0.00938886)
(1.5374 1.54239 0.00366812)
(1.45834 -1.45872 9.64378e-05)
(4.45248 -0.00518464 0.0144366)
(4.02845 -0.0473715 -0.114839)
(4.40574 -0.0248464 0.00641425)
(4.24388 0.0002154 0.00796272)
(1.54691 1.54586 4.04729e-05)
(2.0014 1.54645 0.0747811)
(4.24911 0.0538693 0.0792599)
(1.87704 1.65865 0.0872691)
(4.23276 0.0183285 0.0328744)
(4.21693 -0.0348003 0.00324778)
(4.3961 -0.0118197 -0.010161)
(3.06681 0.106336 0.107076)
(1.84389 1.59044 0.0780705)
(4.40996 0.00758834 -0.0414949)
(4.4552 0.134162 -0.0465578)
(1.4563 -1.45908 0.00245389)
(4.4365 0.0112875 -0.043289)
(4.44567 -0.0213198 0.0159001)
(1.46009 -1.45975 0.00153058)
(4.28556 0.245844 -0.135816)
(3.74836 -0.000676442 -0.0526866)
(1.94706 1.5337 0.062715)
(4.42041 -0.00848047 0.0187039)
(4.37019 0.00611536 -0.00604967)
(4.3584 0.0118688 -0.00226035)
(1.54468 1.54356 -0.000435364)
(4.34699 -0.00709896 0.0298742)
(4.44345 -0.00392572 0.0145965)
(4.3302 0.0416718 -0.00456068)
(2.73741 -0.0366439 0.0462969)
(1.87665 1.77272 -0.0370661)
(2.57831 -0.0654021 0.0849554)
(1.45657 -1.45835 0.00102134)
(4.00171 -0.130367 -0.129356)
(4.34808 -0.00772192 -0.0285657)
(1.54599 1.5449 0.00217403)
(4.11967 0.00994732 -0.0306969)
(3.40521 -0.00840795 0.0605103)
(2.00001 1.77007 -0.0185719)
(1.45833 -1.45735 0.000160318)
(1.70983 -1.44902 0.045876)
(1.45793 -1.45735 0.000102231)
(4.32299 0.0212675 -0.000618697)
(4.35675 0.02256 -0.00762157)
(4.30006 -0.0132432 -0.0123043)
(4.04318 0.0104371 -0.0225717)
(4.40954 -0.090242 -0.0182481)
(1.54459 1.53852 -0.00332819)
(4.2757 0.000296919 -0.00935694)
(1.46169 -1.45095 0.000490674)
(4.2304 0.0163142 0.00963544)
(1.55001 1.54966 -0.000899056)
(1.45728 -1.45617 -2.93611e-05)
(1.44633 -1.45037 -0.00204643)
(4.15771 -0.0282304 0.00612159)
(1.45483 -1.45535 -0.000963362)
(1.45872 -1.4583 0.000492808)
(1.52259 1.01722 -0.063187)
(1.45813 -1.45928 0.00045799)
(1.53032 1.55147 0.0144215)
(4.26188 -0.0149426 -0.00667231)
(1.54658 1.54436 0.000648759)
(1.82879 1.35295 0.0024488)
(1.54675 1.54679 0.00164727)
(1.45597 -1.45188 -0.00100125)
(1.54619 1.5424 -0.00104658)
(1.454 -1.44659 -0.00762109)
(1.54102 1.54084 -0.000219228)
(3.88171 0.000846479 -0.0331728)
(1.54873 1.54033 0.00631211)
(3.98568 0.0554373 0.0782962)
(4.35485 0.00400466 0.000687121)
(4.50137 -0.172125 -0.025895)
(1.54662 1.53992 -0.000509031)
(3.79559 0.0116903 0.0613147)
(1.54855 1.54295 0.0017887)
(1.45833 -1.4592 -0.000706977)
(4.31039 -0.0415073 -0.0459434)
(4.30705 -0.0346012 -0.0352407)
(4.3036 -0.00920742 -0.012165)
(4.49908 0.0119449 -0.075351)
(1.77307 1.49372 -0.0481327)
(4.40355 0.00396261 -0.0229857)
(4.40178 0.00287185 -0.0213608)
(4.36188 0.00947445 -1.15727e-05)
(4.29426 0.00474198 0.000896387)
(4.37915 -0.0447135 -0.0292664)
(1.45509 -1.45534 -0.000541816)
(4.36821 0.0076942 -0.00141149)
(2.01691 1.757 -0.0117022)
(4.34138 0.0095615 -0.00837207)
(1.54557 1.54442 0.000258971)
(4.42592 0.014821 -0.0240497)
(1.99534 1.65801 0.0155502)
(4.36576 0.00418468 -0.0061365)
(4.37147 -0.0199281 0.0158803)
(1.68508 -0.840132 -0.0100151)
(1.54795 1.5497 0.01701)
(4.30122 0.0076623 0.0069375)
(1.45806 -1.45694 0.000157257)
(4.43977 0.018192 -0.0261409)
(4.40652 0.0208375 -0.0177082)
(1.54518 1.54095 -0.0126107)
(1.54322 1.54246 0.00373907)
(1.51334 1.35658 -0.0385442)
(1.54461 1.5456 0.000922091)
(3.08885 -0.163948 0.0823206)
(4.44195 0.0155828 -0.0260876)
(1.56485 1.52848 -0.00115079)
(1.54276 1.54553 0.00179951)
(3.80108 0.0021266 -0.0107588)
(1.54557 1.54542 -7.70125e-05)
(4.37278 0.0151403 -0.0173607)
(1.54543 1.54471 0.000138036)
(4.3342 -0.0262857 -0.0183187)
(1.45909 -1.45831 0.000399591)
(4.07215 -0.0218082 -0.0603535)
(3.37172 -0.0127202 0.00482557)
(4.07118 0.0123571 -0.00953761)
(4.36797 0.00573357 -0.00751235)
(1.55476 1.54316 -0.00471107)
(3.97104 0.00384774 -0.000492577)
(1.54821 1.54287 0.00133096)
(1.54518 1.54665 -0.00359199)
(4.30825 -0.0165744 -0.0102305)
(1.54581 1.54439 -0.000145486)
(3.6777 0.000359635 -0.037703)
(1.49578 1.37728 -0.0433939)
(4.3844 0.0212436 -0.0141263)
(1.45716 -1.45765 -0.000285968)
(4.41286 0.0105389 -0.00939387)
(1.45844 -1.45726 0.000177208)
(1.82996 1.62191 0.0459432)
(4.47083 0.156731 -0.00931017)
(4.30478 -0.0353994 -0.0466323)
(4.35139 0.0165751 1.48847e-06)
(4.40339 -0.0526563 -0.0327833)
(4.33175 0.00909261 -0.00558295)
(4.449 -0.0302933 -0.00411838)
(1.53563 1.54751 -0.00684962)
(4.3495 0.0225698 0.0138929)
(4.31669 -0.0397542 -0.046592)
(1.54486 1.54554 -0.00072711)
(3.65356 -0.0462268 -0.157554)
(4.45092 -0.0308295 -0.0225077)
(4.2758 0.0192434 0.0158138)
(1.53205 1.51067 -0.00889408)
(1.89908 0.39014 -0.296506)
(4.1846 0.0112718 0.0128145)
(3.43585 -0.0136028 0.0344102)
(3.5544 0.920478 -0.00737117)
(1.89405 -0.957787 -0.0801476)
(4.43526 -0.0475327 -0.0070422)
(4.16297 0.0160619 0.0292964)
(4.30143 -0.0414536 -0.0445897)
(4.37066 -0.0242837 -0.00950974)
(4.31546 0.025707 0.0105313)
(3.82256 0.500064 -0.0250364)
(1.90665 1.62015 0.013305)
(3.88377 -0.142031 0.0315735)
(3.75261 -0.326812 0.0779171)
(1.45633 -1.45692 0.000845446)
(3.82511 0.0265663 -0.0117395)
(1.55418 1.52535 -0.00777231)
(1.81254 1.64844 0.0151433)
(4.32694 0.00509388 -0.00221559)
(3.84806 0.652926 -0.0212819)
(4.62719 -0.389632 -0.0727735)
(4.16678 -0.712743 0.0168042)
(1.80748 1.71871 -0.124086)
(4.40891 -0.0257619 -0.00748297)
(4.3615 0.0248119 0.0186676)
(1.54188 1.53749 -0.000462174)
(1.98313 1.10705 -0.0443549)
(4.36377 0.0315285 0.0185169)
(1.45675 -1.45147 0.000966224)
(1.54524 1.54498 -0.000131587)
(1.54354 1.54312 0.000243855)
(1.54652 1.53853 0.00162387)
(4.41255 -0.0456226 -0.0206906)
(1.54567 1.54539 0.000896285)
(1.46408 -1.46402 0.00786189)
(4.33026 -0.0266966 -0.0223126)
(3.99101 -0.000567307 -0.0124731)
(2.1524 -1.88342 -0.0994907)
(4.36455 0.0308501 0.0180158)
(1.79316 1.45167 0.0323732)
(4.38666 -0.0173723 -0.00888391)
(1.43374 -1.43266 -0.00642785)
(1.54234 1.54539 -0.000686567)
(4.39549 -0.0271324 -0.00795283)
(1.54609 1.537 -0.00641272)
(1.54501 1.54157 0.00106995)
(1.7698 1.69568 0.0496293)
(4.14362 -0.00314447 -0.00285803)
(2.53918 2.12871 -0.279881)
(4.33138 -0.0185815 -0.00939615)
(4.32369 0.00462315 -0.00292226)
(1.44741 -1.43807 -0.01172)
(4.49762 -0.0133621 0.140782)
(4.12667 -0.0241038 -0.0601039)
(4.3124 0.00147952 -0.00229649)
(4.38017 0.077601 0.0098617)
(4.39568 0.0452725 -0.0943705)
(3.78923 0.00193571 -0.0358997)
(1.54371 1.54293 0.000566372)
(4.39799 0.00470902 0.0112619)
(4.36741 0.0176269 -4.73565e-05)
(1.44489 -1.46387 0.00296723)
(4.07731 -0.00278373 0.000379107)
(4.41694 0.0256013 -0.0085538)
(4.4075 0.0201846 -0.00706234)
(4.01926 -0.0173491 -0.0405829)
(4.40408 0.0213148 -0.00569004)
(4.40942 0.021719 -0.0043825)
(1.46245 -1.44315 0.00866302)
(4.40482 -0.00924879 0.0219806)
(3.66042 -0.0218843 -0.00541538)
(1.86189 1.61853 0.100454)
(4.40233 0.0177287 -0.00942899)
(4.20316 0.00498963 -0.00956863)
(2.46982 2.01453 -0.301163)
(4.3274 0.00591037 -0.00154128)
(4.4051 0.0151334 -0.0133182)
(4.20505 0.00133722 -0.0170844)
(4.37343 0.0217656 -5.4805e-05)
(4.32423 0.0464531 0.0177086)
(4.33369 0.0055897 0.000405012)
(1.51199 1.47911 0.00192736)
(4.37281 0.0223409 -0.0008235)
(4.10771 -0.0247454 -0.0543392)
(1.63215 -0.973723 0.0386053)
(4.35268 0.0339073 0.0222784)
(4.30498 0.0349379 0.034685)
(4.35889 0.0140881 -0.00242711)
(1.54436 1.54144 0.00172931)
(4.24172 0.0252913 -0.0405468)
(1.45825 -1.45189 0.00377145)
(1.54536 1.54581 -0.000802193)
(1.5407 1.52862 -0.000100272)
(1.5471 1.5389 0.000827253)
(3.67177 0.00200586 -0.0174225)
(1.83643 1.58507 0.0629636)
(3.32882 -0.22751 0.274078)
(1.45443 -1.45438 0.000256136)
(1.54465 1.56338 9.65695e-07)
(4.368 0.0419343 0.0234111)
(4.37839 0.0104625 -0.0174349)
(1.45889 -1.45873 4.24862e-05)
(4.38806 -0.0271923 -0.00386235)
(1.45794 -1.45663 0.00483471)
(1.45914 -1.458 -0.000741021)
(1.4363 -1.43663 0.00443673)
(4.46024 -0.03744 -0.00778631)
(3.70939 0.0201037 -0.0109125)
(1.81821 1.63996 0.0203813)
(1.4734 -1.45703 0.00390355)
(1.54337 1.54801 -0.00202535)
(1.54427 1.5455 -0.000247456)
(4.48005 0.00858015 -0.0487288)
(4.34397 0.00748778 -0.00320951)
(1.83665 1.72778 0.0794744)
(4.42812 0.0141809 -0.0229959)
(4.12559 -0.0574441 -0.167773)
(1.54292 1.54346 -0.000861343)
(4.41628 0.0122417 -0.0199856)
(4.05285 0.00357715 0.0214298)
(4.31944 0.0236944 -0.0284963)
(1.54655 1.54559 -0.00021528)
(1.54404 1.54338 -5.16262e-05)
(4.28098 0.0189553 0.0226152)
(4.36461 0.00857558 -0.00139219)
(1.82383 1.66029 0.0259623)
(1.53958 1.54019 5.92766e-05)
(1.56822 1.52242 -0.0030769)
(4.32618 -0.00851252 0.00494892)
(1.45647 -1.45663 -0.00195728)
(1.45847 -1.45373 0.00127131)
(1.54076 1.54139 0.000685875)
(4.41404 0.0134751 -0.0170541)
(3.86861 -0.0184666 0.00659547)
(1.54596 1.54607 0.0002264)
(1.7144 0.355796 0.294797)
(1.8582 -0.186109 -0.068387)
(4.29416 0.022595 -0.00211275)
(1.54303 1.54564 -0.000739955)
(1.5454 1.54247 -0.000785445)
(4.44543 -0.0451388 -0.0102214)
(4.2485 0.0723686 0.0650385)
(1.85037 1.65523 0.0770326)
(2.68794 0.884524 0.0624633)
(4.18834 0.101506 0.117473)
(4.00628 0.0112192 -0.0286732)
(4.24978 0.00351362 -0.00341184)
(1.60286 1.5049 -0.00272609)
(4.23217 0.0113272 0.000637646)
(4.38684 -0.0292114 0.0302277)
(1.54914 1.54512 -0.00178006)
(1.44838 -1.42521 0.00191597)
(1.54096 1.54181 -0.000186063)
(1.54365 1.54404 -0.000538874)
(1.54576 1.54795 -0.00168665)
(1.54638 1.54669 -0.000127758)
(4.42438 0.0145612 -0.0183873)
(1.45707 -1.45698 0.00106167)
(1.54387 1.54421 -5.54355e-05)
(1.53644 1.51633 -0.000200266)
(4.42787 0.0145857 -0.0238172)
(4.36027 0.00954099 -0.00315459)
(1.46425 -1.44503 -0.000530305)
(1.44132 -1.42655 0.00222885)
(4.46315 -0.0211299 0.0380999)
(4.24277 0.0034761 0.00537346)
(4.23591 0.00514469 0.00701253)
(1.459 -1.45494 -0.000780969)
(1.54302 1.5436 0.000827217)
(4.23959 0.00293385 0.00651421)
(1.45852 -1.45746 -1.84802e-05)
(4.18891 0.0110556 0.00110813)
(4.29867 0.0073275 0.014724)
(4.30767 0.0149416 0.00722641)
(1.46785 -1.45723 0.00458882)
(1.45784 -1.4584 0.000434339)
(1.45764 -1.45854 0.000446799)
(1.54548 1.54572 0.000413958)
(4.3489 -0.0188204 -0.0122358)
(1.54383 1.5449 0.000193714)
(1.54285 1.54324 0.00037414)
(4.32499 0.0114381 -0.0154399)
(1.45767 -1.45838 0.000626782)
(4.25546 -0.00153684 0.00530359)
(3.89493 -0.0317502 0.0129384)
(1.55826 1.50833 0.0074053)
(4.35876 0.0139648 -0.00276348)
(2.06123 0.313987 -0.0535101)
(4.29482 0.00333337 0.00394535)
(4.45777 -0.0164512 0.00882836)
(3.92425 0.0157477 0.00488054)
(4.44269 -0.000346271 0.0283562)
(3.21262 0.0714433 -0.120156)
(1.83634 1.47299 0.029964)
(4.28517 0.000177381 0.00239214)
(4.4615 0.031699 0.00189619)
(4.35712 -0.012541 -0.00519381)
(1.58233 1.37892 -0.0466847)
(1.95119 0.194085 -0.0982019)
(2.32836 -0.148256 0.0746958)
(4.28538 0.00681298 0.00380793)
(1.54307 1.54532 0.00197817)
(4.21303 -0.00959599 -0.0312523)
(4.30152 -0.00358782 -0.0107142)
(4.17996 -0.0376368 -0.0669503)
(1.59523 -1.12515 -0.0857673)
(1.45825 -1.45838 0.00077983)
(1.45779 -1.4578 -1.72262e-05)
(4.38373 -0.0143465 -0.00255947)
(1.79772 1.49259 -0.0184301)
(4.15533 0.0140488 0.00666729)
(1.67446 1.52685 0.0205781)
(4.13948 -0.00832109 -0.0278786)
(4.24487 -0.00646338 0.00523465)
(4.20491 -0.0034679 0.0155741)
(4.36115 0.0109895 -0.00406342)
(1.54438 1.54329 -0.00047402)
(1.53596 1.53174 -0.00227251)
(1.55936 -1.4208 0.00671367)
(4.35595 0.016185 0.000830752)
(1.546 1.54183 -0.00022274)
(1.77915 1.53407 -0.0662767)
(4.45498 0.0782817 -0.0676961)
(1.55139 1.54958 -0.0007802)
(1.5391 1.5465 0.00452912)
(1.45508 -1.44923 -0.00377821)
(1.54565 1.54621 0.000403829)
(4.15945 -0.00242359 0.0148634)
(1.58292 1.50127 0.00513504)
(1.54553 1.54383 0.000168353)
(3.54 0.499609 -0.366029)
(1.80338 1.4613 -0.0198331)
(1.53965 1.5405 -0.0128639)
(2.1049 -1.24416 0.0763722)
(1.54526 1.543 -0.00139926)
(3.40499 0.0129689 -0.0299265)
(4.24194 -0.00537589 0.0118612)
(1.45704 -1.45684 -0.000558478)
(4.17097 0.00478077 -0.00970436)
(4.21879 0.68488 -0.0953505)
(4.15245 -0.0407188 -0.0652849)
(4.56308 0.171017 0.00465227)
(4.09604 0.00483088 -0.00728313)
(1.54552 1.53473 0.0048776)
(4.3148 -0.0402565 -0.0461986)
(4.47122 -0.0179189 0.0101623)
(4.15166 -0.0408919 -0.0658943)
(1.45755 -1.45805 -2.06252e-05)
(4.52897 1.19933 0.31459)
(4.14987 0.0057753 0.00796548)
(2.05251 1.64275 -0.0959955)
(4.12271 0.001944 0.00597966)
(4.50168 0.0553973 -0.0421462)
(4.29766 0.0850663 0.00498617)
(4.25989 -0.0137134 -0.017712)
(4.26124 0.0137637 0.00095356)
(4.53662 0.0651525 -0.0240688)
(4.38174 -0.00706022 -0.0074787)
(4.34519 -0.0076012 0.00491645)
(1.53522 1.54021 0.0060919)
(1.54107 1.53367 0.00482532)
(4.17872 0.0110966 0.00556326)
(4.11009 0.0044072 0.00574225)
(1.54238 1.54609 -0.000279531)
(4.23508 0.00568777 0.000351936)
(4.45316 -0.0181179 0.00539259)
(4.36889 -0.012056 0.0046004)
(1.54977 1.53452 9.02583e-05)
(4.28266 0.0847532 0.0195414)
(1.54319 1.54179 0.000273034)
(4.34887 -0.00674081 0.00358186)
(4.37368 -0.00833248 0.00328938)
(1.5442 1.54348 -0.000232117)
(4.16587 0.0188553 -0.0148179)
(4.36377 -0.00602404 0.00133948)
(4.2655 0.0793352 0.00680181)
(4.20774 0.00142516 0.013893)
(1.57373 1.54439 -0.00231221)
(4.37857 -0.0131525 0.0146533)
(4.27856 0.0967229 0.0013274)
(4.50982 -0.104675 0.0264545)
(3.79734 0.0490016 0.0149537)
(3.38901 0.0102311 -0.0473576)
(1.54716 1.53125 -0.00279204)
(1.54188 1.54063 0.00146378)
(4.20564 0.0566195 0.00756849)
(1.54548 1.54585 -0.000422141)
(3.68202 -0.0104694 -0.00983214)
(4.22482 -0.0213487 -0.0322859)
(2.5812 0.366376 -0.0900333)
(4.67863 -0.296913 0.112098)
(4.1309 -0.183489 0.0526306)
(4.59915 -0.163275 0.0435163)
(1.5455 1.54582 -0.000409128)
(2.09303 1.77766 0.0150579)
(4.37265 0.01253 -0.00368547)
(1.4521 -1.45731 -0.00442293)
(0.797073 -0.552826 0.243799)
(4.34051 -0.0815349 -0.0657067)
(1.54549 1.54139 -0.00288521)
(1.54588 1.54423 -2.30982e-05)
(3.86682 -0.0760012 -0.00418768)
(3.16607 -0.202947 0.0400213)
(1.54603 1.54594 -0.000255642)
(3.91978 -0.0712497 0.0114422)
(1.54428 1.5428 0.000247297)
(1.54451 1.54668 -0.00257778)
(1.45734 -1.45752 -0.000264429)
(1.45922 -1.45563 0.00352502)
(1.43068 -1.41981 0.00518654)
(1.45728 -1.45464 2.15776e-06)
(3.90502 0.0311138 -0.0143284)
(1.54302 1.5342 -0.00127373)
(1.54443 1.54501 0.000459252)
(1.53697 1.54524 0.00254181)
(3.63738 -0.80348 -0.210663)
(4.12679 -0.0345304 -0.0760104)
(3.99585 -0.00084213 -0.0399554)
(4.37286 0.0127489 -0.00401332)
(1.53987 1.52978 0.000281567)
(1.54871 1.54329 1.66942e-05)
(4.19276 -0.0711857 -0.086406)
(1.54522 1.54611 -0.00139966)
(1.54473 1.54346 0.000675239)
(2.44886 1.41361 0.0514973)
(4.46695 -0.0607265 -0.0057023)
(4.35896 0.0108347 -0.00334459)
(1.54356 1.54373 -0.000433382)
(1.54542 1.54235 0.00178463)
(1.54123 1.53727 -0.0020385)
(1.54355 1.541 -0.000324715)
(1.54747 1.54728 -0.00168484)
(1.54805 1.54396 0.000183047)
(4.37726 -0.10105 -0.0634093)
(1.54639 1.54191 -0.000377937)
(3.0363 0.0441387 0.100186)
(4.39819 -0.00985057 0.0111871)
(1.54421 1.54633 -0.000324064)
(1.44874 -1.45466 -0.00395066)
(1.4387 -1.42524 0.0016365)
(3.69635 0.0426905 0.197759)
(1.43141 -1.42965 -0.0057339)
(1.45613 -1.45712 0.0014394)
(1.53752 1.53983 -0.0096696)
(3.96426 -0.0601879 0.00252057)
(1.54231 1.54221 -0.00039324)
(4.34108 -0.056298 -0.0357536)
(3.46077 0.0552553 -0.0175401)
(2.86276 0.00434732 0.112963)
(1.54266 1.54299 0.000474267)
(2.96802 -0.755436 0.0602426)
(4.37491 -0.00842769 0.000737834)
(4.4052 0.0099479 -0.0117785)
(1.56454 -1.49117 -0.0181988)
(4.24363 -0.0676059 -0.0119799)
(4.32911 -0.00852406 -0.00665669)
(1.45813 -1.44809 0.00145991)
(1.59349 1.51217 0.00752225)
(2.06442 -1.58828 -0.130194)
(1.54071 1.53968 0.000219997)
(4.38375 0.00960642 -0.00202408)
(4.36547 -0.00582334 0.00669141)
(4.44719 -0.0529778 0.0220088)
(2.93493 -0.00172806 0.159506)
(1.54576 1.54515 -0.000164987)
(4.38611 0.00981175 -0.003051)
(1.59063 1.51396 -0.00239929)
(1.92702 1.63236 -0.00751353)
(1.96313 -1.52499 -0.0617429)
(1.54466 1.54506 0.000594736)
(4.38723 0.012587 -0.00366129)
(1.54215 1.53874 0.0013951)
(1.44295 -1.41883 0.000383787)
(4.00179 -0.0549207 -0.0988971)
(4.28763 -0.00976753 0.00550984)
(1.44302 -1.41972 -0.00447292)
(4.31367 0.0074954 -0.00248836)
(1.64704 1.60991 -0.0102729)
(4.38084 -0.0372329 -0.019152)
(1.45752 1.39515 0.0158885)
(1.54592 1.54672 -0.000735132)
(1.5539 1.54863 0.00519819)
(1.45839 -1.45862 0.000437848)
(4.26028 0.0087909 -0.00744055)
(3.80919 0.00635558 -0.0164601)
(4.41691 -0.0015826 0.0794653)
(1.54054 1.5409 0.000939539)
(1.54121 1.51244 0.00986421)
(4.24099 0.00949178 -0.00708657)
(1.54558 1.54591 -0.000512013)
(1.78825 1.62304 0.0223078)
(1.45756 -1.45643 0.000657892)
(4.1936 0.0265025 -0.00269055)
(4.46343 -0.113022 -0.0317091)
(4.37209 0.0114566 -0.00442153)
(1.46061 -1.45704 0.00238035)
(3.46909 -0.00456633 0.094982)