/*--------------------------------*- C++ -*----------------------------------*\
  =========                 |
  \\      /  F ield         | OpenFOAM: The Open Source CFD Toolbox
   \\    /   O peration     | Website:  https://openfoam.org
    \\  /    A nd           | Version:  10
     \\/     M anipulation  |
\*---------------------------------------------------------------------------*/
FoamFile
{
    format      ascii;
    class       surfaceScalarField;
    location    "5.9";
    object      phi;
}
// * * * * * * * * * * * * * * * * * * * * * * * * * * * * * * * * * * * * * //

dimensions      [0 3 -1 0 0 0 0];

internalField   nonuniform List<scalar> 
214403
(
-0.00669234
0.00513149
0.00028379
0.00127706
-0.0033016
-0.0110998
0.000942915
0.0134585
-0.0101379
6.74311e-05
-0.000137837
0.0102083
0.00880807
-0.00592205
-0.0147638
0.0118778
0.0121572
-0.0153713
0.00366121
-0.000447067
-0.00531361
0.00553452
-5.38489e-05
-0.000167052
-0.00084511
-0.00160386
-0.00912611
0.0115751
-0.0168236
0.00957429
-0.00252789
0.00977722
-0.023057
0.0162761
0.016426
-0.00964516
0.0140482
0.00166744
-0.0156998
-1.58586e-05
0.00498453
-0.00987393
0.00203119
0.00285821
-0.0102335
0.0032182
0.00530399
0.00171135
0.000470987
-0.0113267
0.0136418
-0.00278605
-0.00984237
0.00990365
-6.12838e-05
0.00189696
0.0118077
-0.0151349
0.00143021
-0.011926
0.00997101
0.00302011
-0.00106509
-0.0120012
0.0117083
0.000292896
0.00389016
-2.16e-05
-0.000968048
-0.00290051
0.0155196
-0.00928799
-0.0206356
0.014404
-7.53015e-05
-0.00308432
9.05315e-05
0.00306909
0.00636118
-0.00621228
-0.000148902
-0.0121977
-0.0042197
0.00419569
0.0122217
-0.00225566
0.0134991
-0.0108866
-0.000356787
0.00665733
0.000698859
0.00232199
-0.00967817
-0.010141
-0.00487309
0.0131276
0.00188649
0.00913814
-0.0115736
6.87239e-05
0.00236673
0.00319385
-0.00279541
0.0104661
-0.0108645
0.00756483
0.00989435
-0.0119188
-0.00554037
0.0110618
-0.0069378
-0.000314754
-0.00380924
-0.0058265
0.00593887
-0.000112373
0.00241317
-0.00502581
0.0134077
-0.010795
0.0139851
0.000662741
-0.00243992
-0.0122079
-0.00558852
-0.00573536
0.0058735
0.00545038
-0.00118494
-0.00668317
0.00592029
0.00194782
0.00436681
-0.00300001
-0.00930999
0.00794319
-0.00169129
0.00843685
-0.00304796
-0.0036976
0.0158761
-0.000390225
-0.0154858
-0.00682936
0.0133183
-0.00648894
0.00123137
-0.0146112
0.00846193
0.00491794
0.00243194
-0.000977837
0.00595114
-0.00740524
0.00564029
-5.95102e-05
-0.00558078
0.010142
-0.000218406
0.00179761
-0.0117212
-0.0128651
0.00161624
0.0136808
0.000855157
0.000875407
0.00854113
-0.0102717
-0.00407913
-0.0266315
0.0258307
0.00487988
0.005671
0.00102389
0.00128208
-0.00797697
0.00419867
0.00317481
-0.0102556
0.00288209
0.0132286
0.00792733
-0.0144986
0.00119737
0.0112251
-0.00228042
0.00180919
-0.0067714
-0.00398638
0.00894859
0.0030818
0.00473674
0.00141137
-0.0092299
0.00183188
-0.00137598
-0.00423425
0.00377835
0.00682421
-0.0123516
0.00860917
0.0117883
-0.011099
-0.003807
0.00311762
0.0105662
-0.00193282
-0.00851147
0.0115392
-0.000489767
-0.00253796
0.00876449
-0.0112078
0.000129434
0.00231386
-0.00819343
0.000541729
0.0130929
-0.00544122
-0.0151836
-0.0142747
0.011985
0.0174734
-0.00811674
0.00816708
0.00160618
-0.00165651
0.00128054
-0.0103751
-0.00851685
-0.000177345
0.00442731
0.00426689
-0.0132894
0.00570592
0.00859787
-0.00101439
0.0155895
-0.0125589
0.00080365
-0.00383426
0.000715586
0.000261552
-0.0102427
0.00926553
0.000515364
-0.00282821
0.0139864
-0.0116736
-0.0345575
0.00361554
0.00385331
0.0270887
-0.00318141
0.00937196
-0.00296867
-0.00322188
0.0046095
-0.00242605
-0.0098345
0.00765106
0.00110584
0.00688159
-0.0087458
0.000758364
-0.000169753
0.00842633
0.00293036
-0.0111869
-0.00167343
-0.000265783
-0.00348629
0.0054255
-0.00894966
0.00978027
-0.000370134
-0.000460483
0.000313438
-0.00899333
-0.00632238
0.00560009
0.00169973
-0.00097743
-0.0167536
-0.00105821
0.00817511
0.00963668
-0.0050611
-0.00215641
0.00430547
0.00291204
0.00745318
-0.0249926
0.00346415
0.0140752
-0.00388753
0.00782346
-0.00427302
0.000337092
0.005577
-0.00433029
0.000551218
-0.00179793
0.000127654
-0.0105072
0.0103796
3.43298e-05
0.00852862
-0.00856295
0.00750792
-0.00146803
0.000994561
-0.00703444
-0.00451659
0.00644421
0.00213583
-0.00406345
-0.00317869
0.013542
-0.00325561
-0.0071077
0.00639907
-0.0109066
-0.000413823
0.00492139
0.00730754
0.00771814
-0.0150257
0.0107867
-0.0121222
0.00310596
-0.0017704
0.0010495
-0.00194574
0.0140802
-0.013184
0.0004074
-0.00227556
0.0101428
-0.00827461
0.00240838
0.0212139
0.006112
-0.0297343
-0.0185551
0.0163236
0.0105832
-0.00835162
0.000852002
0.00654051
-0.00879385
0.00140134
0.00865877
0.00962414
-0.0031508
-0.0151321
0.0160861
-0.00977204
-0.000320223
-0.00599387
0.000704726
-0.00206553
-0.00648616
0.00784696
-0.00656433
3.7282e-05
0.00652705
0.00977477
0.000337648
0.000674244
0.0121566
0.00102172
-0.0184848
0.00530647
-0.00974572
0.00215021
0.0017321
0.00586341
-0.00619424
0.00153592
0.00076144
0.00389687
0.00151428
0.00108316
-0.0128478
0.0102504
-0.00262928
-0.0153021
0.00975595
0.00817545
0.00614455
-0.007269
-0.0047366
0.00586105
0.00992969
-0.000106327
-0.00992976
0.000106397
0.00758984
-0.0107272
-0.00371961
0.00685696
0.019645
-0.00594448
-0.00306106
-0.0106394
0.0111585
-1.92954e-05
-0.0102618
-0.000877345
-0.00563036
0.0066294
0.0138151
-0.0148141
0.0120665
-0.00423685
-0.0116051
0.00377551
0.00222419
-0.00324608
0.0141279
-0.013106
-0.0159341
0.0145226
0.013767
-0.0123555
0.000718097
-0.0124174
0.00479188
0.00690739
0.0155423
-0.000819526
-0.000318556
-0.0144042
0.0109808
-0.00213965
0.00212316
-0.0109643
-0.012718
-0.0115674
0.0136899
0.0105955
-0.00241499
0.00692754
0.00187779
-0.00639033
-0.00541581
0.000295217
0.0104969
-0.00537626
-0.0012098
0.0136396
-0.0126953
0.000265484
-0.0117912
0.0109503
0.00213142
-0.00129055
-0.00039618
-0.00687971
0.016414
0.00216926
-0.00722299
-0.00528247
0.0103362
-0.00573171
7.50884e-05
0.00565662
0.00175737
0.00799146
-0.00739242
-0.00235642
0.0127747
-0.00736619
-0.00195819
-0.00345032
9.76351e-05
-0.00378823
0.0036906
-0.00718845
-0.00193834
0.00270262
0.00642417
0.000743328
0.00409167
-0.0091802
0.0043452
0.0156773
-0.00141589
0.0061271
-0.0203885
0.00112275
-0.0013897
-0.0189394
0.0192063
0.00122064
-0.00542494
-0.00716656
0.0113709
0.000458601
0.00986678
-0.000550618
3.96292e-05
-0.00581866
0.00577903
0.0119934
-0.00445036
-0.0053738
-0.007271
0.00607055
-0.00598799
0.0132591
-0.0110351
-0.00133792
-0.000886062
0.00132583
-0.00626983
0.00274134
0.00220266
-0.0108179
-0.00327701
0.00219944
0.0118955
0.00900721
-0.0146363
0.00964296
-0.00401383
-0.000402794
0.0132211
-0.0132384
0.000420131
-4.11089e-05
0.0120573
-0.0119465
-6.97485e-05
-0.0168198
0.0134231
-0.0107747
0.0141713
0.0140315
-0.0135794
-0.000452124
-0.0128695
0.0172341
-0.00314787
-0.00121672
-0.0114966
0.00276569
-0.000867538
0.00959845
-0.0189432
0.00145844
0.0121795
0.00530526
0.00335739
-0.00458506
0.0025535
-0.00465254
0.00528987
0.00850972
-0.00914705
-0.00502631
-0.00225571
0.00287634
0.00440569
-0.00682828
0.00446358
-0.00861711
0.0109818
0.00205112
0.000166545
-0.0150872
-0.00674196
0.0067277
1.42634e-05
0.00734746
-0.00706399
-0.000283469
-0.0111016
-0.000726339
-0.00295457
0.00273667
-0.0146119
0.0170131
-0.00513785
0.00658003
0.0113215
-0.0143986
-0.00350293
0.0125701
-0.0136528
0.00036638
0.000716327
0.00670756
0.00174175
-0.00693192
-0.00151738
-0.0105845
-0.000587082
0.0139083
0.00610839
-0.000441565
-0.00744644
0.00177962
0.00688222
-0.0058936
0.00678926
-0.00777788
-0.0119689
0.00224902
0.0162999
-0.00404465
-0.00566942
0.0187276
-0.00901356
-0.00576839
-0.0063571
0.00154094
0.00171828
0.00456516
-0.0120518
-0.00816695
-0.000721043
0.0131246
-0.0042366
0.00127304
0.0020103
0.00729247
-0.0105758
-0.00387847
0.00949345
-0.00561498
0.00307638
-0.0147723
0.00533883
0.00880083
0.00614711
-0.0132297
-0.0124178
0.00014986
0.0154735
-0.00320556
0.00211129
0.0018088
0.00565109
-0.00957118
0.00839066
-0.00845489
6.42346e-05
0.00314356
-0.00118706
0.0105522
-0.0125087
0.01108
-0.00351217
0.00532744
-0.0128953
0.0203965
-0.0065688
0.0152226
-0.0290504
0.00332458
0.00618698
-0.00257023
-0.00694133
-0.00924278
0.00380316
0.00484456
0.000595059
0.00662328
-0.0049896
-0.000136817
-0.00149686
-0.00427433
-0.0054163
0.0157767
-0.00608607
-0.00741957
0.00963219
0.00384087
-0.00605349
0.0111737
-0.000610981
-0.00368048
-0.0173126
0.0114469
-0.000962639
-0.016509
0.0152322
0.00707507
-0.00579829
0.0105335
-0.0118708
-0.00171431
0.00305155
0.00594134
-0.0107355
-0.00562289
-0.00612905
-0.00562279
0.00317805
0.00857378
-0.0087489
0.00271651
0.00863709
-0.00260469
0.0101209
-0.00962894
-0.00663462
0.00614268
6.27793e-05
-8.85933e-05
-0.00951057
0.00953639
0.000229304
-0.00833424
-0.000316188
0.00842113
-0.00240587
-0.0142565
0.00224001
-0.00824378
0.00741504
-0.00141128
-0.00559498
-0.00235676
-0.00079716
-0.000186767
0.014038
0.000196949
-0.0335286
0.023586
0.0170492
-0.00710658
-0.00991506
0.000675686
0.000359591
0.00887978
-0.00197156
0.0313943
-0.036943
0.0075203
0.00157087
0.00242295
-0.00543723
0.00144341
-0.0212202
0.0114336
0.00147846
0.00830815
-0.000250318
-0.0140843
-0.00200606
0.0163407
-0.00584313
0.0212228
-0.0146843
-0.000695371
0.00952433
0.0138468
-0.0127993
-0.0105718
-0.0113666
0.010826
0.0134448
-0.0129043
0.00441962
0.00617561
-0.00769223
-0.002903
0.00438743
-0.00295828
-0.00702414
-0.0225849
-0.000885455
0.0184514
0.00501899
0.00664674
0.00101934
-0.00386293
0.00681378
0.00912135
-0.00842257
-0.00751256
-0.0112776
0.00251258
0.0110012
-0.00223622
0.00133853
0.0035455
0.0123501
-0.0130911
0.0129253
0.00125371
-0.00108796
0.00811191
0.00636485
-0.00573498
-0.000226764
-0.00161407
0.00757581
-0.00865235
-0.00172221
0.00481476
-0.0166535
0.00708244
0.00475629
0.000507151
0.00899924
-0.00998487
0.000478483
-0.0034568
0.000668848
-0.00321398
0.00600193
0.0139261
-0.00995407
0.000415388
-0.00788941
-0.00617168
0.00830217
0.00575892
0.0298103
-0.0318909
0.0104176
-0.00833702
-0.00574004
0.00713233
0.002873
-0.00426528
-0.0131029
0.00569327
0.011422
-0.00401237
-0.00567068
0.00823231
0.0105896
-0.0131512
0.0158833
-0.00613591
-0.0105117
0.000764298
0.000275803
-0.00385618
0.0093805
-0.00580012
-0.00163042
0.00161629
-0.0124036
0.0114206
0.0037092
-0.0122269
-0.00290288
0.0143485
-0.0117708
-0.00316474
0.00300546
0.00444288
-0.0105185
0.00307015
-0.00591395
-0.0108287
0.00962394
0.0071187
-0.0018001
-0.00467302
-0.00141628
0.00585951
-0.00625833
0.0134867
-0.0130879
0.00141919
-0.0163319
0.0149127
0.00554107
-0.00725351
0.0047179
0.00302678
0.00174776
0.00248276
-0.0072573
-0.000308716
-0.0136135
0.0139222
-0.00745012
0.000989739
-0.00241772
0.0088781
-0.000893204
0.0103197
-0.00940386
-2.26648e-05
-0.00700098
-0.00370643
0.00404304
0.00666437
-0.00260948
-0.00619159
-0.00574859
-0.00845004
0.00704801
0.00715061
0.000311057
-0.00866913
0.0149044
-0.00612809
-0.000793613
-0.00798269
0.00794154
-0.000760101
-0.00579319
-0.00138824
-0.00128801
0.0111606
-0.0139069
0.00403425
0.00718501
0.000276317
0.00349778
-0.0109591
-0.000263501
-0.00590637
0.00285384
0.00331603
-0.00410272
0.0053375
0.0103134
-0.0115481
-0.0145149
-0.00375016
-0.00405035
0.0133416
-0.0124407
0.000294039
0.00389495
0.00825173
0.00120085
-0.00440698
-0.0078345
0.0110406
-0.0057124
-0.0111511
0.00281384
0.0140497
-0.00518024
-0.00575297
0.00597047
0.00496274
-0.0134426
0.0129391
0.0136583
-0.0131549
-0.00182746
-0.00319189
-0.00961271
0.0146321
-0.0131641
0.00132772
0.0133969
-0.00156048
-0.0022901
0.00613236
-0.00384227
-0.00533109
0.00985441
-0.00741815
0.00289483
-0.00022776
0.0176394
-0.00655229
-0.0108593
-0.00632065
-0.00305207
0.0126736
-0.00330093
0.00203518
-0.00533858
0.0121149
-0.00881149
0.000556933
0.00789756
-0.00138358
-4.55131e-05
-0.0129012
0.0128948
5.1903e-05
0.014774
-0.00261666
-0.0215938
0.00943646
-0.0136444
-0.00133702
0.0170361
-0.00205471
-0.00740488
0.0111874
0.000918331
-0.00470088
0.0065876
-0.00651028
-7.73146e-05
-0.00786418
0.000760669
-0.0067852
0.0138887
-0.0113469
0.0156383
-0.0032609
-0.00103046
0.00707156
-0.0029655
-0.00852698
0.00442092
-0.0136639
0.0137841
-0.000120197
0.0112614
-0.0163749
0.00132352
0.00378995
-0.0127541
-0.0034916
0.0218108
-0.00556507
0.00941547
-0.000393584
-0.00197751
-0.00704437
-0.00536456
-0.00909816
0.0203222
-0.000955801
-0.0134259
0.00812337
0.0210796
-0.0235139
-0.00223438
0.00466867
0.00567658
0.00270571
-0.00627101
-0.00595132
0.00619933
-0.000248005
-0.00241382
0.0134905
-0.000857033
-0.0102197
-0.00294011
0.00348747
0.0117252
-0.0122726
0.00766211
0.0179927
-0.0105232
-0.0151315
0.013189
-0.0158242
0.00503114
-0.00239597
0.0119486
0.000166806
-0.0121154
0.000221138
0.0116297
-0.0118508
0.0131124
-0.0158727
0.0140217
0.000141433
-0.000119493
0.0102238
-0.0102458
0.000251643
0.0186074
-0.0185326
-0.000326454
-0.00158878
-0.0046967
-0.00950747
0.0157929
-0.00581743
-0.00348588
0.00116772
0.0110128
-0.0191582
0.00697763
-0.00926517
-0.00242945
0.0099337
0.00176092
-0.0109784
0.012122
-0.00323835
0.00209479
0.0017243
0.00898083
-0.00305556
-0.00764957
-0.00434224
0.00107257
0.00738009
-0.00411041
-1.19414e-05
0.0033534
-0.0042135
0.000872044
-0.00467363
0.0114326
-0.00658986
-0.0001691
0.00341576
-0.0107831
-0.00629656
7.62017e-05
-0.0100536
0.00997738
-0.003746
-0.00359454
0.00166685
0.0056737
0.00560601
-0.0032341
-0.00237191
0.0140582
-0.013959
-0.00285125
0.00275209
-0.00127891
-0.00831915
0.00767225
0.00192582
-3.52193e-05
4.7317e-05
0.00756259
-0.00757469
0.00377293
-0.00310091
-0.0120041
0.011332
0.00870667
-0.000218844
-0.00848783
-0.0127013
-0.00822526
0.0122567
0.00866986
0.00743767
0.0116522
-0.0200457
0.00706355
-0.00254296
0.00397909
-0.00849968
-0.00283131
0.00280892
-0.015589
0.0156114
0.00440662
-0.00868057
-0.00844564
0.0127196
-0.000889025
-0.00199137
0.00938309
-0.00650269
0.00653931
-0.00803678
0.00291223
-0.00141476
0.00359957
-0.00596682
-0.00576765
0.0081349
-0.0115667
0.0130219
-0.00346558
0.00201043
0.0131959
0.0169633
-0.0186835
-0.0114757
-0.0101937
0.0101497
4.40351e-05
-0.00114177
0.0120398
-0.0150368
0.00413879
0.000465212
-0.000761172
-0.0115775
0.0118735
0.0113437
0.00047637
-0.0130534
0.00123326
-0.00486994
-0.00823194
0.0103519
0.00274997
-0.0117679
0.0166733
-0.00590384
0.000998445
-0.00482405
-0.00590223
0.00350328
-0.000718688
-0.00012252
-0.00832583
0.00916704
-0.0272003
0.00010385
0.00243245
0.024664
0.00107386
-0.0068999
-0.00357137
0.0093974
0.0169889
-0.00139679
-0.00549933
-0.0100928
-0.00301413
-0.00652587
0.00126153
0.00827847
0.00479059
-1.72682e-05
-0.00477332
0.00798563
0.00425352
-0.00264951
-0.00958964
0.00618204
-0.0048948
0.0121929
-0.0134801
0.000398779
0.0126868
-0.00419202
-0.00889354
0.00307909
0.00439604
0.00951376
-0.0060621
0.000433439
0.00562866
-0.00788009
0.0011177
0.00208931
0.00132089
-0.0108931
0.00748295
-0.0103297
0.0151149
0.00457888
0.0156081
-0.00330713
-0.0168798
-0.00992645
0.00974293
-0.0154198
0.0156033
-0.00148572
-0.00745069
0.00260609
0.00633031
-0.00822952
0.0155371
0.00462065
-0.0053791
0.00120467
-0.000446222
-0.00509546
-0.0162419
0.00508538
0.0162519
0.0106713
-0.0106488
-9.7598e-05
7.51085e-05
0.00862412
-0.0100731
0.00214647
-0.000697467
0.00221522
0.00866314
-0.0154348
0.00455646
3.75768e-05
0.00742598
-0.00746356
0.00482678
-0.0123682
0.00975662
-0.00466839
0.0125314
0.0105574
-0.0184205
0.00355864
-0.00362731
-0.0168612
0.0169299
-0.00508373
0.00842215
-0.0168962
0.0135578
-0.0121045
0.00963785
0.0126356
-0.0101689
-0.00757035
0.0103715
-0.00670161
0.00390046
-0.00160361
0.00698649
0.00113704
-0.00651992
0.00352471
-0.00513948
0.00530005
-0.00368528
0.00668099
0.0024859
0.00219758
-0.0113645
0.0189656
-0.0128749
-0.0007772
-0.00531343
-8.54066e-06
-0.00919764
0.00920618
0.00576315
-0.00842658
-0.0258406
0.028504
-0.00115797
-0.0125238
-0.00379496
0.0174768
-0.000759504
-0.00575083
0.00651033
0.00175552
0.00832415
-0.00131691
-0.00876275
-0.00231991
-0.00837456
0.00675817
0.0039363
0.0065083
-0.0054511
-0.00957405
0.0165505
-0.0128817
0.00365556
0.0038728
-0.00752835
0.012506
-0.0002684
-0.00149674
-0.0107408
-0.00240708
-0.00409419
0.00650128
0.004458
0.00296217
0.0249851
-0.0300518
-0.0106113
0.015678
0.00382933
0.00815781
-0.00623942
-0.00574771
-0.00874637
0.0167494
0.0111247
-0.0191278
0.00986381
0.00342407
-0.00131939
-0.0119685
0.0162755
-0.0108528
0.00700321
-0.0124259
-0.00914523
0.00418204
-0.0114674
0.0164306
-0.0148792
0.0266654
-0.0104517
-0.00133452
-0.000396672
-0.00635366
-0.00875687
0.0155072
0.0120789
0.00499322
-0.0141743
-0.0028978
0.00647306
-0.0172537
0.0108882
-0.000107637
-0.015242
-0.000578347
0.00997235
0.00584804
-0.00305729
0.00790706
0.00343882
-0.00828859
-0.00193688
0.00776754
0.00624927
-0.0120799
-0.0158921
0.00817374
-0.000770809
0.00848912
0.00144908
-0.00431726
0.00858171
-0.00571353
0.00675288
-0.003397
0.00241042
-0.00576629
0.00652303
0.00125469
0.000642469
-0.00842019
-0.00962028
0.0103197
0.00382558
-0.00452505
-0.00228205
0.0122164
0.000246715
-0.0101811
0.00985789
-0.00578772
-0.00382193
-0.000248236
0.0085056
6.44965e-05
-0.0085701
0.00621804
0.00481409
-0.0010919
-0.00994023
0.00291225
0.00768266
0.00656944
-0.0171644
-1.29003e-05
-0.0138089
0.0138218
-0.00719842
0.0278854
-0.00407456
-0.0166124
-0.000129125
0.0103924
-0.0102633
-0.000692909
-0.00747247
0.00134169
0.00682369
-0.0135656
0.00691095
0.005251
0.00140366
0.00276923
0.00230203
-0.0158589
0.0107876
0.00807995
0.0127662
-0.00477075
-0.0160754
0.0122035
-0.00418139
-0.0116813
0.00365922
-0.0152489
0.00869698
0.023253
-0.0167011
-3.93801e-05
0.0058533
-0.00585343
3.95089e-05
-0.00605487
0.00599188
6.29842e-05
-0.0155091
0.000240341
0.00652235
0.00173379
0.00374455
0.0102538
-0.0157322
0.008075
-0.00960446
0.00619482
-0.00466536
-0.00776191
0.00679787
-0.000257844
0.00122188
-0.00161901
-0.0127724
0.0163432
-0.00195178
-0.00571697
0.00275304
0.00905121
-0.00608729
0.00989156
-0.00381299
0.00145825
-0.00753682
-0.00655547
-0.00114292
0.00767397
2.44184e-05
-0.0011312
-6.07379e-05
0.0107442
-0.00955229
0.0013637
-0.00114861
0.010736
-0.0109511
-0.00965882
0.013502
-0.0141503
0.0103071
6.36927e-05
-0.0121707
0.012107
-0.0043356
0.000379405
0.0109304
-0.00697417
-0.00830194
0.00970558
-0.0132367
0.011833
-0.00851346
0.00064591
0.00258508
-0.00394946
0.0106983
0.000596379
-0.00734523
-0.00284836
0.000396237
-0.00481888
-0.00421127
-0.0136792
0.0137417
0.00414878
-0.00609208
-0.000712522
-0.00153191
0.00833651
-0.0208804
0.00705459
0.00206188
0.0117639
-0.00659149
0.0151391
-0.00753325
-0.00101435
0.00459751
0.00180561
-0.00925147
0.00909159
0.00927049
-0.0183621
0.00123496
0.0199325
-0.00461119
-0.0165562
-0.000254143
-0.000354961
-0.00882069
0.00942979
-0.00957938
0.0157775
-0.00635994
0.000161792
0.0090892
-0.00573845
-0.00823845
0.0048877
0.00227403
-0.000304976
0.00278359
0.0139696
0.00389699
-0.0201982
0.00233163
-0.00968618
-0.00125959
0.00317483
0.00777094
0.00365542
-0.00406163
-0.00549601
0.0168323
-0.0113254
0.00880368
-0.0143106
-0.00186247
0.0108669
-0.0187937
0.00978932
0.0065266
-0.00824872
-0.000835794
0.00255791
-0.00720769
-0.00250896
-0.00024391
0.00996056
-0.00538248
-0.00508928
0.0104718
0.00135281
-0.0144526
0.0128166
0.000283188
0.00553882
-0.00534158
-0.00557972
-0.00901976
0.0114475
-0.00218344
-0.00024431
0.0129098
0.0035509
-0.0139087
-0.002552
-0.00499091
-0.007288
-0.000837735
0.0131166
0.00822894
-0.0025037
0.00954215
-0.0152674
-0.00914715
-0.000511674
-0.0109484
0.00585917
0.00140735
-0.0122468
0.00391862
0.00692087
0.00356916
-0.0127796
0.00703704
0.00217344
0.00191
0.000501269
-0.00958181
0.00717054
0.00146191
0.00626766
-0.000424695
0.0107927
-0.0021324
-0.00823559
-0.00423253
-0.000436998
-0.00395881
0.00862834
-0.00250578
-0.00337514
0.00645341
-0.000572492
-0.0100007
-0.00014025
-0.0168976
0.00606651
0.0088942
0.0240295
-0.000199875
0.00327905
-0.0271087
-0.0105203
0.0163429
0.00331494
-0.00913748
-0.00299761
0.001642
0.0103435
-0.00898792
0.00125134
0.00355232
-0.00274807
-0.0020556
-0.0180752
-0.00374131
0.0155989
0.00621759
0.000396323
0.00764636
-0.00153438
0.000234276
0.00384427
-0.0120619
0.00798338
-0.0074496
-2.6253e-05
0.00274643
0.00472942
-0.0102529
0.0126707
-0.00202148
0.00578559
-0.00521698
-0.000568618
-0.00852209
0.00122597
-0.00662205
0.0139182
-0.00385747
0.0058049
-0.0044743
0.00252687
-0.00830429
0.00935237
-0.00386404
0.00281596
0.0037269
-0.000615076
-0.0088223
0.00571048
-0.00371371
0.02328
-0.0313342
-0.00336965
-0.00235177
0.00230277
0.00341865
0.0110367
-0.0172315
-0.000780192
0.00697501
-0.00465368
0.00347256
0.00598499
-0.00480387
-0.00138353
0.00735363
-0.00202602
-0.00394408
-0.00827298
0.00183548
0.00193379
0.00450371
-0.00462868
0.000397744
0.00423093
0.0106403
-0.0050668
-0.0053985
-0.000175003
0.000782681
0.00533115
-0.00809202
0.00197819
-0.00569673
-0.00690518
0.00704159
0.00556032
-0.00295656
0.0076259
-0.0065382
0.00186886
0.00275181
-0.00520926
0.00359029
-0.00113284
0.00999398
0.000270821
-0.0102648
0.00860715
-0.0105993
0.00524613
-0.00325401
-0.0135072
-0.000392466
0.0138996
0.005554
-0.00460636
0.00107431
-0.00202195
-0.000438685
0.00957913
-0.0104558
0.00131539
-0.0047949
0.00600275
0.00154396
-0.00534053
0.0114418
0.010572
-0.00908255
0.00900119
8.13537e-05
0.000245819
-0.0143547
0.0141089
0.0194001
0.00233898
-0.00413104
-0.0176081
0.00405403
-0.0158118
-0.00195935
0.0137171
0.00307425
0.00363205
0.00204914
-0.00875544
-0.00543831
-0.00544423
7.37557e-05
0.0108088
-0.00259491
0.00356453
-0.00640793
-0.0119574
0.00216069
0.0156961
-0.00589941
-0.0234782
0.017194
0.00756887
-0.00128466
0.0103813
8.47006e-05
-0.010466
-0.00590945
-0.00795296
0.00514216
0.00872025
-0.00592356
-0.0086005
0.00256667
-0.00851947
0.00462496
0.00535641
0.00346401
-0.0045056
-0.00826969
0.00931129
-0.00582704
3.75034e-06
0.00582329
-0.0136059
0.00553029
0.00561859
0.00245703
0.00343271
-0.00918019
-0.00277199
0.0116877
-0.00370827
-0.000294264
-0.00768519
-0.00784815
0.0130041
0.00771779
-0.0128737
-0.00231225
-0.00485001
0.0017955
0.00536676
-0.00330639
-0.00265942
0.00596581
-0.00577312
-0.0121352
-0.00556992
0.00271715
3.52347e-05
0.00548258
-0.00823497
0.011115
-0.00809478
-0.0117061
0.00868585
-0.00412477
0.00147041
0.00833276
-0.00567839
0.00780873
-0.005497
-0.000774155
-0.00153758
-0.00895401
0.00145372
0.00699408
0.000506215
-0.00554584
0.012739
-0.0138084
0.00538366
0.000399113
0.00802558
0.01297
-0.0103701
-0.00815722
0.00555732
-0.010319
0.00214739
0.0192866
-0.0100109
-0.00660127
0.0107746
0.00583757
-0.00116954
0.0104272
-0.00395607
-0.00530158
0.000594247
-0.0061563
-0.00406049
0.00962254
0.0118713
-0.00783167
-0.000481628
-0.00355802
0.00367318
0.00274416
-0.00901225
-0.00249607
0.00282559
0.00696769
-0.00729721
-0.00207397
0.01083
-0.013348
0.00459203
-0.00650971
0.00157055
0.00157492
0.00336424
-0.0142453
0.0144888
-0.000243538
0.00981685
-0.00967735
-0.000139501
0.00395135
-0.0152564
-0.00585809
0.0171631
0.00349388
0.00664336
0.00155048
-0.000167077
0.00580188
-0.00563481
0.00932116
0.00835517
-0.0176763
-0.0103278
0.00630495
0.00445641
-0.000433537
-0.00580008
0.00191136
0.00471552
-0.000826809
-0.0173682
0.00810698
0.00952809
-0.000266901
-0.0056209
-0.00626736
0.00606122
0.00892508
-0.00140779
-0.0057481
-0.00176919
-0.0095774
0.0103438
-0.00631222
0.00169514
-0.0107583
-0.000549861
0.009613
-1.26701e-05
-0.00528968
0.00530235
0.0259668
0.000201342
0.00276733
-0.0289354
-0.000976444
-0.00191475
-0.0141012
0.0169923
0.00449986
-0.00609292
-0.00283789
0.00443094
0.00175004
0.0134361
-0.00543018
-0.00975596
0.0146454
-0.014653
-3.2272e-05
3.98205e-05
-0.00821887
-0.00741667
0.0115916
0.00404397
0.00479765
0.00366922
-0.0095597
0.00109283
6.69926e-05
0.00889536
-0.00908974
0.00012738
-0.0122404
0.00392176
0.0099197
-0.00160109
0.00939067
0.005677
-0.00950685
-0.00556081
0.000222111
-0.00837399
0.00425067
-0.00218055
0.0125753
-0.00676241
-0.000880317
-0.00105502
0.00869775
-0.0113029
0.000591482
0.0107114
0.0165491
0.00714874
-0.00536128
-0.0183366
-0.0108076
0.00023245
0.0107972
-0.000987473
-0.00257098
-0.00656515
0.0101236
-0.0012959
-0.00130144
-0.00348323
0.00608058
0.00272342
-0.0138181
0.0104184
0.000676243
0.00858289
-0.00133874
-0.00835214
0.00110798
-0.0106053
0.00221428
0.000851257
0.00753978
-0.00403932
0.00265001
-0.00547704
0.00686634
0.0023242
0.00147294
-0.0136859
0.00988879
0.000478078
-0.00928048
-0.00064584
0.00944824
0.00920236
0.00120628
-0.000157924
-0.0102507
-0.0109831
0.00255861
0.00993879
-0.00788446
-0.010468
0.0183525
0.0152139
-0.00774583
0.00327842
-0.0107465
0.00119614
0.00853798
-0.00523426
-0.0123111
0.00226276
0.00436635
0.00568203
0.0151915
-0.0156528
0.000461253
-0.00920771
-0.00312624
0.00644537
0.00588858
-0.0119386
-0.009273
0.00621742
0.0149942
0.0124039
-0.0129545
-0.00158545
0.00213607
-0.00180289
0.00602297
-0.0047476
0.000527516
-0.0155605
0.0050727
0.00357519
0.00691261
-0.0229143
0.0284942
0.0047389
-0.0103188
0.0102157
-0.022155
-0.00114177
0.0130811
-0.00908898
0.0115656
-0.0214347
0.0189581
-0.00953583
0.0210018
0.00208813
-0.0135541
0.000839758
0.00997309
-0.00232841
-0.00848444
0.0151662
-0.0113755
-0.000382606
-0.00340807
-0.00265953
-0.00255382
0.0039033
0.00131005
-0.00716749
-0.0149186
0.0127285
0.00935761
-0.0101724
0.0135499
0.0117887
0.00828337
-0.00608908
-0.00758908
0.0053948
0.00305188
-0.00394946
-0.00174392
0.00264151
0.0067524
-0.00667858
-0.00889736
0.00882354
-0.0027384
0.00785615
-0.000568433
-0.00454932
-0.010896
-0.0017389
0.0134747
-0.00820871
-0.00201837
0.0101483
7.88189e-05
0.0033689
-0.00752645
0.00415755
0.002682
-0.00356187
0.0132691
-0.0123892
0.0103737
-0.0145893
0.00211393
0.00210164
0.00661616
-0.00713767
0.000521512
-0.0104505
0.000278089
0.00933497
-0.00355741
-0.00900863
0.00323107
0.0029361
0.00238077
0.0104378
-0.0157547
0.00645831
-0.00701189
0.000553579
-7.99633e-05
0.00811325
-0.00917174
0.00113846
-0.0114786
-0.00110643
0.015267
-0.00494697
-0.000845434
0.00114283
0.00464957
0.000683292
-0.00564723
0.00416641
0.000797537
0.00925435
-0.00885748
-0.00219976
0.00106494
0.0153159
-0.00964757
-0.00673328
-0.00526719
0.0111294
-0.00586218
-0.0142607
0.00546112
-0.00334455
0.0121442
0.0112282
-0.0101761
-0.0166126
-0.00547518
-0.00655085
0.0225149
-0.0104888
-0.0160537
0.0102218
0.0145748
-0.00874285
-0.000356092
-0.01369
0.0140461
0.0217231
4.37645e-05
-0.0125177
-0.00924909
0.0125934
-0.00811101
-0.00111864
-0.00336373
-0.00918526
0.00652142
-0.00164563
0.00430947
0.000124404
-0.00943799
0.00931359
-0.00689439
0.00709635
-0.000201962
-0.00500939
-0.00529862
-0.0135721
0.0238801
-0.0127814
0.00278789
-0.00142894
0.0114225
0.00296949
0.00481903
0.013134
-0.0118509
-0.00980049
0.00851736
-0.00364188
-0.00750909
0.00828067
0.00287029
-0.00756588
-0.00384748
0.0114247
-1.1366e-05
0.00247814
-0.00142666
-0.00701033
0.00595885
0.00835126
0.000370704
-0.0106755
0.00195352
0.00257654
-0.00179116
0.00277042
-0.00334233
0.00332987
-0.00275796
0.00683053
0.00668777
-0.00682992
-0.00668837
0.00335836
0.00784431
-0.00811719
-0.00308548
0.00710987
0.00308243
-0.00559479
0.00882336
-0.0106984
0.00224576
-0.0117303
0.008201
0.00441534
-0.000886052
0.013922
-0.00461209
-0.0145771
-0.00371695
0.00994937
0.0049958
0.00970149
-0.00472561
-0.00817407
-0.00222812
-0.0013281
-0.0130415
0.0122043
0.00114658
-0.000309362
-0.000812371
0.0163036
-0.00169039
-0.0138009
-0.0106159
0.00216068
0.00473824
-0.00170437
-0.0107591
0.00302354
0.00943993
0.00974371
0.00135231
-2.85134e-05
-0.0110675
-0.0145463
-0.000120741
9.83981e-05
0.0145687
-0.00374991
0.00410147
-0.00667346
0.0063219
-0.0100191
0.0126709
-0.0013098
-0.00134202
0.0131627
-0.0122929
-0.0108889
-0.00973643
0.00878234
-0.00278632
0.00374041
0.00785074
-0.000353809
-0.00246928
-0.00502765
-0.0147284
0.0142018
0.0069619
-0.00643535
0.00699974
0.00266602
-0.000888889
-0.00877688
0.00251639
0.00637663
-0.007976
-0.000917017
-0.00471992
0.00474781
-2.78867e-05
-0.00276281
-0.00705341
0.00707782
0.0106802
-0.010589
-9.12486e-05
-0.00600988
-0.00478908
0.00470604
-0.000633488
-0.00720917
-0.000789895
0.00863255
-0.000819341
-0.00630832
0.00563898
0.00148868
0.00988873
-0.0112397
0.00135096
-0.012642
0.0129809
0.0118745
-0.0122135
-0.00851965
0.00658115
-0.00448214
0.00642064
-0.00341416
0.00145921
0.00309143
-0.00113647
-0.000359211
0.0153879
-0.000134894
-0.0148938
-0.00779341
0.00377827
0.0038378
0.00445836
0.00567428
-0.00989949
-0.000233154
0.000429385
-0.0122985
-0.000482509
-0.0111178
0.0111167
1.04203e-06
-0.00747471
0.00376379
-0.00822767
0.0025265
-0.00559024
0.000225854
0.00488926
0.00212304
0.00734488
0.000143098
-0.00628115
-0.00120683
0.00614876
-0.0153416
0.0123002
-0.00310736
0.00254849
-0.00347357
0.0129216
-0.0119965
0.0158323
0.00467005
-0.00243695
-0.0180654
-0.00402562
-0.00659489
-0.00213908
0.0127596
0.00479271
0.019975
-0.0180357
-0.00673206
0.00230106
0.0144737
-0.0139711
-0.00280373
-0.00497127
0.000656259
0.0101891
-0.0058741
-0.00174968
0.0142102
-0.00766783
0.0102772
-0.00811512
-0.00316587
0.00100382
0.00336558
0.0088062
-0.0121718
0.00822407
0.00182503
-0.00109555
-0.00895355
-0.0075618
0.00604316
0.000607973
0.000910661
-0.000737538
-0.0107227
0.000625893
0.0108343
-0.00786994
-0.000999324
-0.000328564
0.00919783
0.00452385
-0.0100302
9.96752e-05
0.00394301
0.00598751
8.46808e-05
0.00651282
-0.0065975
0.000807592
0.0114552
-0.0292699
0.0170071
0.00323925
-0.00816289
0.0077555
-0.00283187
0.00464895
0.00530698
-0.00367544
-0.00628049
4.72443e-05
-0.00584519
0.00579794
-0.00317257
-0.00225228
0.0128518
-0.00742693
-0.00392854
0.0131204
-0.0113241
0.00213218
0.0143127
-0.00994472
-0.00960466
0.00523673
-0.00588324
0.0039923
0.00182621
6.47286e-05
-0.00080828
0.0045327
-0.00242508
-0.00129934
0.015411
-0.0120454
0.00715201
-0.000826748
-0.0117071
0.00538187
-0.00326533
0.00305347
0.0036585
-0.00344663
0.000184328
0.0147379
-9.04655e-05
-0.0148317
-0.0107581
-0.00354395
0.0145837
-0.00028167
-0.00305292
-0.00131322
0.00335723
0.00434525
-0.00638927
0.00870656
0.00612582
-0.0130142
-0.00181821
-0.00267753
-0.00174851
-0.011659
0.016085
0.0153452
-0.0121331
-0.0213857
0.0181736
-0.00595314
-4.50572e-05
0.0059982