/*--------------------------------*- C++ -*----------------------------------*\
  =========                 |
  \\      /  F ield         | OpenFOAM: The Open Source CFD Toolbox
   \\    /   O peration     | Website:  https://openfoam.org
    \\  /    A nd           | Version:  10
     \\/     M anipulation  |
\*---------------------------------------------------------------------------*/
FoamFile
{
    format      ascii;
    class       volScalarField;
    location    "5.9";
    object      SgT;
}
// * * * * * * * * * * * * * * * * * * * * * * * * * * * * * * * * * * * * * //

dimensions      [1 -1 -3 -1 0 0 0];

internalField   nonuniform List<scalar> 
111485
(
7.2652e-17
9.83501e-06
2.78171e-05
8.42273e-19
5.84651e-05
1.37474e-18
5.41546e-05
7.20982e-06
2.24715e-05
1.4064e-06
5.45545e-05
1.11769e-05
5.54804e-06
9.7691e-07
7.71202e-06
3.68987e-05
1.64982e-06
0.00307244
1.23902e-05
1.06246e-16
1.02768e-17
7.65722e-19
3.07777e-05
4.18028e-05
1.04984e-05
1.31918e-18
4.79462e-05
2.15821e-06
1.88286e-05
6.47729e-19
5.44789e-05
2.23735e-05
4.99812e-18
4.90246e-19
8.75849e-06
1.60692e-17
1.30794e-05
4.93032e-06
5.35922e-11
2.75579e-05
1.22139e-18
8.50252e-05
1.88512e-05
1.63863e-06
6.51446e-08
3.37748e-17
3.67831e-05
8.58008e-07
5.67816e-05
1.19715e-18
6.48862e-18
1.8762e-17
5.20448e-18
5.94913e-05
1.14028e-17
5.19375e-05
3.89807e-06
4.55222e-18
2.69534e-08
5.69724e-06
1.92138e-05
9.70077e-17
5.42957e-06
0.000114786
5.79946e-18
3.97497e-06
0.000376753
0.000113737
1.25138e-06
6.93261e-06
1.37025e-08
7.42045e-06
1.14974e-18
3.29349e-06
2.04315e-17
8.27889e-07
2.32208e-18
5.00709e-05
3.28884e-18
3.98171e-18
5.98191e-09
4.00454e-05
7.55424e-19
2.59012e-17
1.06762e-05
4.85927e-06
5.22485e-13
2.97692e-05
6.78831e-08
8.6018e-06
4.12761e-07
4.902e-05
1.35996e-05
7.17474e-08
6.38438e-05
8.915e-19
8.75359e-18
2.03551e-06
2.6487e-11
1.45797e-06
2.80702e-18
2.21748e-05
1.93806e-18
2.26233e-05
5.60831e-06
1.30809e-18
1.39231e-18
9.07068e-06
4.61299e-06
8.77131e-11
6.79694e-06
5.75365e-06
4.27613e-06
3.65989e-06
7.66958e-18
3.90813e-08
2.28236e-18
2.93821e-17
1.48615e-05
4.99131e-18
1.00769e-18
2.00931e-18
4.37642e-18
9.96258e-18
2.06331e-06
3.411e-09
1.33046e-18
1.9357e-06
8.25471e-19
5.47736e-08
1.58456e-06
3.79576e-05
1.14253e-17
2.7439e-17
6.82135e-18
5.85185e-05
3.47899e-18
5.04645e-05
2.97241e-05
3.25129e-06
2.6679e-07
2.39859e-06
2.66545e-05
3.36336e-06
4.69365e-06
1.53483e-05
7.18376e-18
4.03673e-18
4.96673e-18
3.30929e-05
1.97253e-06
2.84433e-18
2.37471e-10
5.89083e-06
5.48495e-10
1.26251e-05
1.98389e-05
1.25536e-05
8.91733e-11
5.05186e-18
3.88217e-19
6.26886e-05
2.8343e-05
2.52158e-09
4.02791e-10
6.75257e-06
4.25908e-06
3.8425e-18
6.16646e-09
5.77774e-08
6.3664e-19
3.38822e-18
1.62189e-07
6.32244e-19
6.91806e-06
2.57495e-06
1.6446e-18
3.45814e-18
1.34346e-18
4.43524e-18
8.92671e-18
1.57534e-18
1.70897e-06
8.1455e-06
3.50142e-05
5.0203e-06
8.71763e-06
4.65719e-06
9.82786e-08
9.74349e-18
5.54194e-06
5.02304e-18
2.94256e-17
7.59732e-06
1.26794e-05
3.22937e-05
1.31326e-05
5.83195e-06
2.24729e-17
7.76542e-06
6.30149e-07
5.31893e-08
1.59813e-05
2.77681e-06
2.06284e-17
4.33797e-06
3.13446e-05
9.53768e-18
2.12238e-07
9.11852e-06
2.52518e-06
4.12771e-07
6.67292e-18
1.14412e-17
9.55104e-06
1.0748e-14
0.000145286
1.3178e-17
7.75651e-06
2.39715e-05
0.000144723
8.45544e-18
3.63924e-06
1.62334e-05
2.47778e-16
5.53289e-19
2.19704e-18
0.00018544
3.6562e-10
7.86086e-18
2.45275e-18
1.14015e-05
9.38659e-06
1.80776e-05
1.76817e-17
5.23267e-17
1.49141e-08
3.88049e-18
3.0199e-06
1.07769e-05
1.88047e-05
1.37187e-05
1.16959e-05
2.77946e-18
3.23889e-10
7.31401e-07
2.19548e-17
1.46269e-18
3.65789e-05
2.49544e-05
2.5076e-18
7.36606e-06
1.25002e-05
2.71056e-18
4.90692e-17
1.67506e-07
2.61386e-18
8.86019e-19
5.00018e-08
1.41273e-18
1.81345e-05
1.32488e-05
4.47577e-06
6.9562e-18
1.38507e-05
2.53067e-18
6.97672e-18
2.73997e-18
2.65991e-11
2.74209e-05
7.24192e-06
6.16859e-06
4.40797e-05
1.43163e-05
1.95051e-06
6.85127e-07
3.96149e-05
1.08158e-05
3.53997e-19
2.26279e-18
3.21204e-10
2.68228e-05
2.89305e-05
1.46517e-05
4.845e-19
8.27287e-06
2.53744e-06
3.53943e-06
4.34837e-09
4.36477e-09
1.59251e-05
2.64007e-06
2.31961e-06
1.63248e-17
8.37263e-07
2.32429e-18
1.28932e-10
3.25503e-16
0.000297777
8.16985e-05
1.47702e-05
4.44701e-18
1.90639e-18
1.06442e-05
2.0226e-06
9.82934e-18
1.23598e-18
6.12378e-17
3.81455e-07
7.10687e-05
4.56358e-06
1.69714e-05
2.28869e-05
2.70589e-18
2.69783e-18
1.07149e-18
4.52141e-06
1.40796e-15
1.19732e-06
0.000223734
4.26152e-10
1.64339e-18
1.34274e-18
6.43487e-18
2.37442e-17
7.09542e-05
1.44611e-05
5.83456e-18
6.14784e-06
8.63112e-18
2.80423e-17
8.2199e-05
6.8624e-06
1.33333e-05
1.09823e-05
2.25442e-17
1.53273e-17
6.65162e-18
1.10634e-05
2.2401e-05
6.01401e-06
5.96949e-18
3.39211e-13
2.05627e-07
2.49001e-06
9.45943e-06
4.76082e-08
3.40085e-05
2.60474e-19
4.48247e-05
4.12648e-06
9.26349e-06
2.94623e-05
1.64863e-05
5.98224e-19
1.00387e-17
1.86481e-17
1.04519e-18
3.79066e-05
1.13905e-05
4.10641e-05
8.06336e-05
3.98606e-18
2.28427e-05
2.00817e-18
8.12222e-17
1.94948e-05
1.35602e-17
8.02118e-05
1.59643e-17
3.87213e-19
2.78804e-05
2.617e-18
1.65056e-05
3.59416e-07
2.59762e-19
1.24659e-06
1.92666e-05
4.21767e-20
1.03965e-05
1.15604e-05
9.54878e-06
7.19658e-07
3.28726e-06
6.93383e-06
1.65247e-17
1.41845e-17
2.06162e-06
7.06371e-18
7.06234e-06
0.000140223
8.99567e-18
6.56593e-18
3.212e-05
1.37884e-07
9.67751e-06
2.60136e-05
3.16639e-18
5.26374e-05
2.32164e-05
7.05618e-19
9.6722e-07
3.0388e-06
7.71661e-18
2.34578e-18
1.34659e-05
6.2586e-06
3.19425e-17
6.237e-19
3.31093e-11
1.14281e-17
1.41e-05
1.33364e-18
2.00074e-18
2.05966e-05
2.1753e-09
1.51189e-05
3.4761e-05
5.18405e-19
5.96495e-18
1.64371e-06
1.83082e-18
1.67501e-07
1.59359e-05
0.000146763
0.00103448
2.18685e-18
3.26209e-06
5.2384e-07
3.28274e-18
4.58872e-05
3.84313e-05
9.94045e-18
9.54411e-12
1.14462e-07
3.74667e-18
2.92993e-05
2.9705e-05
1.7381e-05
9.44971e-19
7.99422e-07
2.22055e-05
2.75525e-05
9.87514e-10
1.78311e-17
7.05372e-13
8.42603e-18
1.66221e-08
3.75749e-05
8.80861e-18
1.04752e-05
1.06587e-07
2.70902e-17
7.62184e-19
1.53453e-17
5.0061e-18
4.80259e-06
1.16082e-05
7.93115e-06
2.62156e-06
3.43037e-06
1.40529e-18
2.46683e-06
7.33207e-17
4.72524e-05
2.55374e-19
3.51727e-18
1.2589e-17
4.24746e-05
8.68099e-17
2.90334e-18
2.54104e-10
1.22239e-19
2.37093e-17
1.20773e-06
1.73803e-17
2.25317e-17
5.33454e-19
5.05785e-18
1.31751e-18
2.55939e-18
1.79965e-18
8.77605e-06
5.7382e-18
5.89298e-07
2.22657e-06
1.2707e-06
1.89613e-18
9.45697e-07
3.13339e-18
1.03381e-17
3.39516e-06
2.21767e-06
3.33326e-05
2.92357e-05
6.05967e-18
2.45404e-06
9.53948e-05
1.02623e-05
1.25027e-06
3.98855e-06
1.77282e-17
2.79405e-05
2.11892e-17
5.74815e-06
6.03457e-19
8.93759e-05
1.92083e-17
2.58656e-05
2.8593e-07
3.25155e-10
2.29346e-18
2.46259e-06
3.98409e-18
9.57843e-05
5.76076e-05
1.15963e-17
1.12762e-17
1.1476e-17
2.07771e-18
1.70026e-12
6.5569e-05
1.77864e-18
8.33814e-18
3.10068e-06
3.9632e-19
3.94619e-05
1.2026e-18
3.90032e-07
3.71571e-17
6.08788e-07
1.20556e-09
1.25525e-06
1.56705e-05
9.07274e-18
4.7348e-07
8.42192e-19
1.28633e-18
1.84691e-05
3.8123e-19
3.82846e-08
4.17326e-18
1.88414e-06
5.64333e-19
7.7998e-05
5.45256e-19
5.05292e-18
2.01481e-05
4.11777e-06
2.03692e-06
4.79847e-06
7.92832e-06
2.49821e-05
8.89516e-18
2.86345e-05
7.62591e-06
2.14064e-18
9.54555e-11
4.61367e-05
1.73396e-05
1.77438e-17
5.09429e-06
7.63991e-06
1.93112e-06
1.35113e-06
2.76587e-13
1.6363e-05
1.37615e-06
1.7135e-07
2.93868e-05
1.65388e-05
8.31653e-07
2.41764e-18
3.81247e-12
0.000772567
5.20599e-19
4.46445e-07
3.0893e-18
5.50381e-17
8.80269e-06
3.58673e-06
2.41018e-10
1.65354e-08
4.22437e-17
2.02642e-05
1.32754e-05
2.12783e-18
1.20973e-13
2.48237e-06
8.71254e-18
4.02732e-19
4.72139e-19
2.34608e-18
1.6415e-05
3.21504e-18
7.83679e-18
1.08238e-05
2.44469e-06
4.13002e-17
1.25185e-05
3.40546e-18
1.02151e-05
1.59191e-18
3.13474e-17
6.47075e-05
1.78103e-19
6.44024e-19
1.97718e-17
5.41451e-06
2.78421e-17
3.5895e-05
7.52026e-06
4.99169e-19
0.000101079
3.00976e-06
3.3554e-05
3.28392e-05
7.00464e-07
9.78856e-08
1.2419e-17
6.58234e-05
5.42493e-05
5.25159e-17
3.77576e-07
4.79899e-05
8.87465e-06
1.76252e-06
3.28279e-05
3.09981e-05
4.22088e-18
1.27913e-05
5.94854e-09
5.37563e-18
4.06936e-05
3.17878e-07
5.85419e-17
1.30971e-05
4.76688e-05
1.67507e-06
2.48555e-05
2.2834e-05
8.52383e-06
1.18829e-17
1.1969e-05
3.98442e-07
2.2506e-14
1.9865e-05
2.05475e-05
4.28984e-05
3.95744e-18
2.30853e-06
7.61199e-18
1.13652e-18
3.37811e-18
2.82009e-18
1.75895e-08
4.98743e-18
2.61556e-13
9.36219e-18
1.14423e-18
8.42403e-08
5.11711e-05
2.46566e-17
3.9555e-05
4.11486e-17
1.48586e-17
1.43444e-17
4.69563e-05
5.11593e-07
7.93391e-18
2.08702e-17
5.47099e-18
6.30218e-19
0.000258908
8.27172e-05
9.95241e-18
2.29246e-06
2.90754e-09
5.1995e-18
4.4131e-05
9.47262e-06
1.48457e-05
2.37346e-18
7.84089e-18
4.89115e-07
1.29055e-06
1.95263e-17
1.96696e-18
6.9208e-18
8.65015e-06
1.32642e-17
3.07894e-17
5.65103e-19
4.91779e-05
2.31499e-06
8.27475e-19
0.00475356
0.000339465
1.23939e-05
3.63815e-19
6.77194e-19
6.65493e-05
4.60381e-07
5.26665e-18
7.96023e-09
0.000150781
3.08308e-06
1.37354e-05
7.56066e-18
6.50578e-05
2.15098e-06
4.35756e-18
3.16459e-18
5.56398e-19
8.52305e-18
2.20852e-18
5.06089e-19
2.56546e-05
1.36597e-17
1.66274e-18
1.33523e-17
1.40264e-05
2.79956e-05
2.97545e-18
1.00146e-18
0.000126992
1.68777e-05
1.12993e-05
2.56819e-17
2.09217e-18
4.37801e-05
2.34408e-18
2.20507e-06
3.07847e-06
4.53602e-06
5.14007e-18
3.66146e-18
6.86383e-18
5.8163e-19
1.81468e-05
5.82741e-19
1.83916e-18
1.1574e-06
1.03605e-18
2.69437e-05
2.10025e-06
1.56604e-17
4.4277e-05
0.00050067
2.98198e-06
3.50169e-05
1.84607e-07
5.40804e-05
1.34945e-13
5.51076e-18
2.76823e-05
8.48318e-05
7.31615e-06
1.15802e-17
9.53172e-13
0.00085059
1.2034e-05
4.14492e-18
3.1308e-06
3.23223e-06
1.49046e-06
3.97208e-18
5.47951e-18
3.0445e-18
1.56895e-05
5.10416e-18
3.03143e-06
1.79601e-18
1.53832e-06
1.63545e-06
4.31714e-05
6.72621e-07
9.24364e-19
1.35454e-18
2.5866e-18
2.44765e-05
1.51603e-19
1.30427e-18
7.23551e-08
3.58591e-18
1.04886e-18
1.20472e-17
1.14476e-18
1.15698e-05
8.05521e-18
8.10468e-20
6.24333e-13
1.34826e-17
7.38494e-19
1.93353e-17
1.75002e-18
3.60069e-09
1.90702e-06
1.29366e-18
4.60127e-06
8.81346e-09
3.68045e-10
7.5622e-08
4.97685e-06
3.72538e-18
1.11924e-08
1.16231e-05
4.67324e-07
1.71283e-18
2.12897e-12
9.73125e-07
4.8857e-18
1.13673e-05
2.34791e-07
2.05305e-09
2.8644e-05
1.09753e-05
2.69442e-06
6.14133e-06
2.39507e-06
8.02754e-19
2.6118e-18
3.83889e-05
3.0793e-05
3.71049e-17
9.77785e-06
6.46853e-05
3.38234e-05
2.79446e-17
1.6032e-06
1.83559e-18
1.23124e-05
1.65266e-05
3.57455e-18
1.83246e-06
5.53248e-07
1.49139e-09
5.73559e-06
2.86563e-19
5.81162e-05
1.85079e-08
1.89022e-06
3.99622e-08
1.50538e-08
1.806e-19
9.84022e-19
8.75531e-06
7.1142e-19
1.35933e-07
3.19906e-07
2.72243e-07
5.87836e-11
8.66263e-11
7.77313e-10
1.50084e-18
1.54028e-17
2.74874e-05
2.54932e-17
2.33593e-07
2.49889e-06
6.99962e-17
1.39552e-18
6.71906e-10
1.06907e-12
2.03428e-19
5.4234e-09
2.23038e-18
1.2059e-18
1.84076e-18
3.02527e-17
2.98724e-18
1.38447e-17
3.49504e-07
6.18931e-18
4.6442e-19
2.45598e-17
7.57286e-09
6.53179e-08
2.17307e-06
1.10838e-05
1.1303e-19
8.17304e-19
2.13825e-07
9.4487e-19
2.70884e-18
9.9192e-17
2.24062e-05
5.04539e-05
1.0019e-19
3.8781e-19
4.60435e-18
1.01134e-18
3.03825e-19
6.964e-19
8.65642e-06
1.46744e-18
5.48021e-11
3.20158e-05
8.72801e-19
4.20749e-18
9.56743e-18
2.91074e-08
7.88311e-18
5.1103e-19
7.37431e-19
1.0064e-08
6.05783e-18
5.42432e-06
1.18374e-09
6.25982e-12
2.18343e-18
7.97566e-08
2.56072e-06
5.29641e-05
3.03818e-18
8.62542e-09
6.99868e-06
3.01446e-18
1.17862e-18
6.28678e-17
1.19201e-18
9.86944e-06
2.07895e-06
4.08422e-06
2.05178e-10
1.73556e-18
2.67399e-05
1.43819e-17
2.37529e-18
2.28042e-17
5.15871e-18
3.1159e-05
2.29899e-18
3.8368e-18
2.22698e-09
6.06842e-05
5.93949e-19
2.99494e-06
1.1486e-17
1.0704e-06
4.78206e-17
6.01807e-19
2.71792e-18
5.19929e-18
2.99575e-06
7.47924e-07
0.000377252
1.54265e-19
2.35481e-17
2.49437e-06
1.82432e-18
1.98237e-17
1.93925e-17
4.52968e-05
9.9662e-09
3.74637e-05
3.34566e-18
1.12982e-08
5.26862e-08
3.74065e-17
1.31066e-07
1.38948e-17
1.57202e-06
3.08474e-05
2.41917e-05
1.52909e-06
2.98909e-07
1.51483e-18
6.00897e-18
8.92071e-18
2.37658e-08
2.64832e-18
8.30489e-06
2.21343e-17
0.000211261
1.14197e-18
4.94988e-05
3.80275e-06
4.88816e-19
2.1655e-19
2.27821e-18
8.20399e-19
4.64919e-05
1.55999e-17
1.59581e-17
1.44695e-05
7.83408e-06
3.37993e-17
4.23021e-17
1.83178e-17
1.66133e-17
8.9083e-18
1.31906e-18
2.94344e-05
5.16781e-07
2.87586e-18
1.41574e-18
5.5458e-10
5.33985e-17
1.86405e-06
1.32279e-07
5.60414e-18
3.93088e-06
4.62773e-18
4.33448e-07
1.46331e-18
1.24073e-06
2.90096e-18
1.00976e-10
2.49281e-09
8.05668e-07
2.05721e-05
3.88291e-05
1.36497e-09
2.90103e-19
5.64877e-07
3.04698e-18
5.36426e-06
3.00325e-18
4.50188e-19
3.9466e-17
1.01453e-18
2.45932e-19
2.53435e-17
8.18081e-06
9.12403e-06
4.07127e-18
1.79736e-17
1.78614e-17
8.36758e-07
1.66554e-08
4.44862e-18
2.18537e-05
2.25034e-07
1.25821e-18
2.76737e-05
9.75403e-06
4.16372e-06
1.42798e-05
1.3321e-18
7.88277e-18
2.12987e-18
4.79104e-18
4.38828e-05
3.86888e-18
0.00013358
2.034e-18
3.44337e-07
8.69859e-07
2.90659e-18
1.0499e-06
1.65775e-18
3.19844e-19
3.42383e-06
2.8026e-11
1.01926e-05
4.50443e-18
2.63397e-18
6.78978e-19
9.42363e-07
3.38382e-18
4.55066e-19
3.81188e-18
3.83268e-10
5.77783e-18
9.26776e-09
2.67119e-17
1.26291e-17
1.7701e-18
2.17096e-05
1.1717e-05
2.1784e-05
4.26936e-05
4.73372e-18
1.69123e-08
1.29002e-18
4.03133e-18
1.20273e-05
2.34898e-19
2.76983e-09
3.95158e-07
7.8244e-06
3.94571e-07
1.22837e-12
2.40594e-06
1.92913e-18
1.32106e-12
6.61286e-13
1.38654e-07
1.02179e-06
1.74403e-05
8.11572e-11
3.28576e-17
3.65397e-05
3.76808e-18
6.79463e-19
1.92753e-08
8.94387e-05
7.69066e-11
4.52809e-18
4.70381e-19
4.05104e-10
5.11022e-18
1.99792e-17
1.88309e-08
2.14437e-18
6.04191e-18
4.80352e-05
2.3954e-07
1.87107e-07
2.71276e-05
8.68269e-06
4.35784e-18
1.30604e-18
1.59942e-08
4.91424e-06
8.08845e-19
1.25163e-18
1.1963e-05
2.89836e-18
1.32092e-17
1.88701e-17
2.80647e-17
3.25944e-16
0.0030858
4.75028e-18
2.48902e-07
1.95068e-18
2.36746e-05
1.41847e-18
1.3608e-15
1.57396e-17
5.47845e-18
3.73559e-18
9.18671e-19
3.57188e-06
1.11602e-18
1.56728e-18
3.13616e-17
2.75056e-18
5.57749e-18
3.0085e-18
1.1692e-05
3.30589e-18
1.31914e-05
3.44496e-06
1.33811e-18
1.92781e-06
9.93347e-19
5.62179e-07
2.26671e-09
4.65644e-06
1.61556e-05
1.00557e-18
1.09087e-07
9.67158e-06
9.52426e-09
9.98886e-18
2.46641e-09
2.20346e-05
5.65313e-06
1.23388e-17
3.13205e-05
1.73355e-18
1.89047e-18
5.17732e-18
2.84797e-19
9.79029e-06
1.12015e-17
3.88291e-19
9.83283e-06
2.49778e-10
3.21507e-06
1.77828e-18
9.33428e-17
7.89709e-07
3.40381e-18
9.49493e-08
9.42485e-18
2.73389e-05
4.65057e-18
6.56091e-19
6.60968e-08
1.52556e-18
1.54265e-07
9.53164e-18
4.38122e-19
5.86665e-06
4.99689e-07
5.75292e-06
1.89901e-05
0.000263703
2.41563e-05
5.60189e-19
1.54017e-17
3.34997e-06
8.05953e-06
4.32408e-05
1.3528e-05
2.67239e-18
1.43408e-05
6.98132e-19
8.21768e-18
1.04235e-05
1.27973e-05
3.70456e-18
1.55269e-05
4.31062e-18
3.29194e-06
1.04101e-05
5.64423e-18
5.55324e-20
1.66638e-19
3.20804e-06
5.76482e-19
1.9254e-17
4.79394e-06
2.49952e-05
4.48079e-09
8.97639e-06
1.36585e-18
4.64065e-19
9.20797e-08
8.86077e-07
1.02521e-18
1.20249e-05
2.58732e-17
3.06083e-06
1.17541e-18
3.72945e-19
1.43167e-05
7.32825e-19
4.78097e-08
4.10873e-06
2.68112e-18
5.30536e-20
5.00844e-06
5.6674e-14
6.31541e-05
3.53309e-18
0.000314111
1.66895e-17
5.28801e-17
1.50102e-17
8.59114e-06
2.25282e-18
4.4612e-18
6.47957e-06
1.09167e-17
2.77275e-07
1.29066e-17
8.46275e-18
2.5706e-18
1.4019e-10
9.07045e-07
8.16179e-19
3.3646e-19
4.22503e-05
1.10044e-06
7.77725e-19
5.37712e-07
1.91892e-19
3.28337e-18
1.83359e-09
3.29804e-06
1.50197e-06
1.08316e-18
2.88423e-18
2.23907e-18
3.5122e-19
1.94564e-17
4.22594e-18
6.74287e-19
1.27767e-18
1.02468e-18
3.19391e-18
1.37356e-18
1.56036e-18
2.80739e-18
5.42234e-19
1.62487e-19
1.85198e-17
2.82925e-19
4.52524e-19
5.75875e-18
8.87806e-19
2.33998e-17
2.11982e-05
7.99156e-19
6.67151e-20
4.54006e-18
7.67967e-06
5.49864e-18
1.68654e-18
0.000318367
2.0771e-18
2.62053e-18
2.72028e-05
4.67206e-16
1.12708e-18
8.18365e-06
2.87364e-05
3.52336e-19
2.72699e-06
4.22586e-06
6.35112e-19
1.52738e-05
4.65525e-05
2.0779e-05
3.84316e-06
1.25811e-05
1.12823e-17
6.33621e-19
3.46135e-06
1.25487e-05
3.64381e-06
3.11577e-19
7.47572e-06
2.00593e-06
2.45672e-05
1.23695e-05
7.9724e-07
1.79117e-05
1.26118e-06
1.1563e-05
2.25199e-17
3.02655e-05
9.83055e-06
2.01576e-06
1.52302e-06
3.5592e-18
4.70048e-18
1.04449e-17
1.37475e-18
4.94393e-18
1.09925e-05
1.59003e-05
5.40727e-19
5.1062e-19
3.48362e-17
4.26372e-18
5.79278e-19
1.84333e-18
2.27356e-18
9.09975e-18
5.32758e-06
1.85668e-07
2.52761e-05
7.58038e-08
1.23086e-19
3.65644e-17
3.72711e-05
6.96044e-09
5.67742e-19
1.46665e-17
8.51723e-06
1.01961e-17
5.27053e-19
4.77254e-09
9.16663e-06
1.58837e-05
3.86542e-05
3.84835e-05
6.54337e-18
1.67417e-05
3.75183e-07
8.1441e-18
2.81561e-18
1.3495e-05
1.5526e-18
5.90301e-18
2.20737e-05
0.00123227
1.99145e-07
3.59439e-17
6.78189e-19
1.94315e-05
2.47285e-05
2.04279e-05
6.64469e-06
4.24399e-06
2.07417e-18
1.2058e-09
3.06966e-12
1.49113e-17
8.75695e-18
2.02962e-05
9.48095e-19
2.34009e-06
3.00171e-05
2.00361e-05
1.36791e-05
9.37498e-19
6.86681e-06
3.15799e-18
6.87651e-18
1.95854e-19
8.08146e-19
2.92297e-06
0.00100411
3.43806e-19
2.60649e-18
5.11496e-09
2.73335e-05
1.11718e-06
7.97976e-06
3.85359e-05
5.55527e-06
2.334e-05
1.6137e-17
2.34041e-18
6.91881e-18
3.58511e-05
6.57855e-06
2.95654e-11
7.93884e-18
4.18013e-18
4.82526e-17
2.5548e-05
3.23351e-06
2.71152e-19
5.5859e-06
6.55842e-05
8.10222e-06
7.04944e-06
1.94331e-17
4.53314e-17
7.99113e-06
2.65224e-05
6.36959e-18
3.68204e-07
1.65589e-05
1.139e-06
1.07767e-05
5.33467e-06
9.3022e-06
7.72753e-17
3.95905e-06
2.3796e-05
4.28799e-05
5.73691e-13
2.66487e-05
6.96691e-17
1.91358e-05
1.74653e-07
2.25581e-18
2.97196e-06
8.44627e-06
4.19569e-07
1.30983e-05
2.07844e-09
1.65547e-07
1.87358e-08
4.30012e-05
4.10077e-06
5.64036e-18
4.5073e-05
1.42855e-06
2.49757e-18
9.46065e-20
4.60251e-11
1.04659e-08
1.17686e-06
0.00127261
4.02148e-05
1.27316e-05
2.51126e-10
4.99576e-05
1.3362e-18
1.90744e-17
4.64796e-06
1.74714e-18
2.45491e-06
5.28797e-06
2.41234e-06
5.36244e-06
1.72152e-18
2.41494e-07
0.000124782
2.73556e-18
2.85458e-05
8.44338e-06
8.56444e-18
4.46748e-06
1.9157e-07
4.31711e-18
7.32857e-12
1.07693e-07
1.46978e-17
1.1763e-20
1.61713e-18
5.06408e-06
5.1675e-06
1.62923e-05
3.78823e-18
5.82505e-06
3.75125e-05
2.1739e-18
9.00657e-06
1.39246e-05
2.82438e-05
1.71497e-06
1.48781e-18
6.77834e-07
1.07754e-05
1.17494e-05
1.00576e-05
4.34216e-05
0.000186579
3.84623e-06
8.91428e-18
7.90619e-09
5.87299e-05
5.5628e-18
4.68603e-07
1.9491e-17
5.35019e-19
2.25723e-18
6.94114e-18
1.45115e-18
3.65991e-06
3.48369e-18
7.93332e-06
1.41684e-06
1.17206e-18
4.57192e-06
7.03158e-18
1.63092e-05
3.15758e-18
2.13536e-08
1.90303e-17
2.49586e-05
1.69502e-07
2.45095e-09
4.60987e-06
3.3016e-05
1.93436e-05
4.42481e-06
3.03222e-05
5.38313e-15
2.508e-05
6.16915e-05
1.04208e-05
7.13556e-18
1.31577e-06
3.19107e-07
6.24658e-06
1.23305e-05
7.18523e-07
6.03018e-17
1.25438e-17
4.07624e-18
4.23291e-06
1.61052e-17
1.9282e-07
2.53362e-07
1.39109e-06
3.16374e-07
2.35687e-19
6.32341e-18
3.95836e-18
9.62915e-06
2.44029e-05
1.4504e-06
9.9429e-09
2.15726e-06
7.70319e-06
2.23914e-06
9.52165e-07
7.89494e-06
6.65299e-06
2.91536e-06
5.75145e-18
1.10155e-18
7.61473e-18
1.53785e-05
1.22859e-05
2.54044e-17
3.68909e-19
1.08938e-16
9.24776e-06
2.16593e-05
1.85423e-18
2.3951e-06
3.64045e-17
6.64551e-10
5.55088e-06
9.86302e-05
6.51962e-18
9.23285e-19
4.2475e-06
2.49558e-18
7.35396e-08
1.33987e-05
6.44733e-18
1.20782e-05
3.72918e-05
2.06463e-05
1.02065e-18
1.36717e-06
1.43373e-18
9.07806e-08
5.54032e-05
4.61133e-18
2.40657e-17
1.24641e-05
2.61172e-16
1.10155e-18
4.66863e-08
1.14444e-06
2.55179e-17
2.00696e-18
1.14282e-17
6.61326e-08
1.44142e-06
3.6443e-06
2.79279e-05
1.05109e-05
1.20446e-17
7.55004e-10
7.04385e-07
1.65518e-18
3.47999e-19
8.42345e-18
4.95121e-18
4.4142e-19
4.29169e-18
1.54122e-17
6.85692e-19
5.95976e-18
6.58925e-18
2.8844e-12
3.74508e-18
4.05091e-07
1.36505e-17
2.1976e-07
2.60366e-17
6.48779e-08
3.87134e-17
1.64537e-17
3.0712e-05
1.03132e-05
2.6753e-17
0.000101624
5.94664e-12
2.41451e-13
4.53559e-18
1.45138e-06
6.54598e-15
2.98981e-06
6.75382e-09
1.02344e-06
8.78856e-18
1.48203e-18
9.54458e-07
3.41716e-11
4.12612e-18
5.12998e-18
4.39355e-05
1.02191e-17
4.18154e-05
5.09408e-18
7.37145e-19
1.73162e-09
3.15683e-05
9.28772e-06
1.50681e-18
3.70801e-07
1.14949e-17
2.83419e-06
1.92817e-08
2.07813e-06
9.87192e-07
8.4051e-18
2.29163e-05
1.2628e-06
5.79462e-06
3.4142e-19
1.0089e-18
8.5589e-19
1.65305e-05
4.50488e-06
5.75143e-05
3.20308e-18
4.63852e-10
6.74889e-19
2.21901e-18
1.43392e-17
1.07072e-18
3.47818e-06
2.3026e-06
3.22976e-06
0.000354865
1.00805e-17
3.15021e-05
4.00654e-05
1.98169e-05
1.80254e-06
8.54518e-19
6.10512e-06
4.80423e-06
5.54003e-06
4.75535e-10
1.1443e-05
3.76414e-18
1.80726e-06
1.32512e-06
3.6762e-05
1.2094e-09
3.5679e-06
9.89765e-18
2.07755e-05
2.45517e-18
2.6946e-17
1.8473e-06
5.96281e-18
7.25388e-06
4.99314e-19
3.31303e-18
5.38966e-18
2.3733e-18
1.25489e-17
8.54706e-07
4.21672e-18
6.49456e-07
4.48028e-18
2.69018e-18
2.07353e-05
6.2243e-06
8.7502e-06
8.73178e-06
2.22786e-18
0.0006573
8.67184e-19
7.88417e-05
2.59103e-18
2.04791e-05
2.559e-05
2.5604e-06
6.41557e-05
2.32852e-18
2.6769e-17
9.0916e-19
2.44444e-06
5.97792e-18
9.82556e-18
1.99785e-05
7.75348e-18
1.4773e-18
5.77342e-06
5.92295e-19
1.44318e-05
8.18672e-11
4.66924e-18
1.89147e-18
1.87897e-17
1.80631e-06
7.49681e-06
2.57507e-18
2.56414e-05
3.62998e-07
4.01203e-18
0.000116019
4.07567e-17
1.79149e-05
2.03199e-05
3.8342e-06
4.63088e-19
2.01644e-05
1.07779e-05
9.1715e-07
5.76026e-06
1.40232e-05
3.09215e-17
8.635e-18
1.95728e-09
3.06555e-18
6.03205e-19
1.31077e-18
2.21469e-05
4.95103e-05
4.96136e-06
2.33182e-06
5.032e-18
5.51789e-05
5.15866e-05
4.79684e-06
2.84994e-06
1.02704e-05
2.3646e-05
2.89551e-06
1.49952e-18
1.03203e-19
3.56621e-20
7.47397e-06
5.19021e-18
2.84268e-05
4.88978e-17
8.41285e-07
5.57445e-10
2.92341e-06
2.50029e-05
7.52709e-19
1.03853e-17
2.72431e-06
4.00811e-07
3.14436e-17
1.60902e-18
1.07574e-17
3.63599e-08
3.37159e-07
1.55312e-07
8.93725e-07
1.11618e-05
9.90597e-05
1.05526e-17
1.57563e-18
1.25168e-17
4.27239e-06
2.09057e-05
2.26975e-05
3.90797e-05
2.11099e-06
3.14536e-06
1.11148e-18
4.04234e-17
1.61543e-16
7.45195e-18
1.08515e-05
2.52757e-05
1.61306e-17
3.18191e-17
3.10386e-19
8.42705e-18
1.58904e-17
3.5161e-17
1.50581e-05
3.65207e-17
1.17053e-06
0.000444134
1.57104e-18
1.6763e-08
2.57231e-05
8.04391e-07
6.34657e-18
1.00033e-17
5.36271e-06
7.86618e-18
1.57891e-05
1.26182e-09
2.73426e-05
3.2234e-17
1.90626e-15
1.22358e-18
1.315e-18
1.50687e-18
2.40927e-17
0.000220396
7.22691e-19
6.40244e-06
1.36224e-06
4.31265e-17
1.34862e-17
2.14783e-06
6.52116e-18
3.28116e-18
1.54361e-05
1.20694e-07
7.99841e-19
4.41694e-18
1.39491e-19
1.87825e-05
5.94243e-18
1.4163e-17
4.37832e-07
2.84452e-06
3.34737e-06
2.57275e-18
6.20662e-19
1.29661e-17
4.14452e-06
2.01249e-06
1.42929e-05
4.06522e-06
6.74003e-19
8.84579e-07
1.39824e-05
7.2818e-06
2.04027e-18
3.55615e-18
1.06796e-17
1.60787e-17
5.17054e-18
3.51261e-05
6.23526e-06
6.01405e-06
7.12186e-18
1.91497e-18
9.32014e-19
2.36449e-18
1.74962e-18
1.03274e-09
2.84927e-07
2.61141e-06
1.36595e-18
1.54637e-18
2.57725e-17
3.0699e-12
3.83973e-05
0.000127941
4.41256e-19
1.677e-12
8.31409e-15
1.49213e-18
3.72982e-18
4.32873e-06
7.68378e-06
7.18976e-19
1.65719e-18
3.24471e-06
3.11625e-17
7.96459e-07
1.27984e-06
0.00242876
1.60265e-18
2.80381e-19
1.39066e-05
5.65485e-07
1.5677e-18
0.00076631
6.58062e-07
7.55554e-06
1.0368e-17
7.66952e-18
5.63254e-18
4.5042e-18
8.98746e-06
1.11072e-07
1.1089e-17
2.8391e-05
2.13306e-05
0.00100681
1.48599e-17
4.38131e-19
3.41264e-18
2.55064e-18
7.21946e-06
7.02563e-11
8.92526e-18
8.76993e-19
2.1208e-05
1.08073e-06
5.74637e-06
3.37494e-19
8.26642e-18
3.26636e-05
2.26049e-18
6.60865e-18
1.45095e-19
7.81268e-19
2.55225e-05
3.71322e-18
3.8198e-18
1.13342e-17
2.88562e-05
1.42876e-05
2.67643e-18
3.62965e-18
2.19902e-18
1.74837e-05
1.83272e-10
2.29743e-18
1.55005e-18
1.55685e-18
7.49966e-19
2.7094e-06
1.20843e-05
1.46706e-18
2.36874e-06
1.20442e-06
5.2245e-06
1.11393e-18
5.23491e-18
5.66415e-19
8.09792e-19
7.38971e-20
2.32896e-05
5.4615e-17
1.71213e-05
1.75014e-18
1.66636e-06
5.11548e-17
2.55428e-06
9.06614e-18
3.8077e-18
1.23127e-05
0.000205723
2.71744e-17
3.84399e-06
1.79289e-19
4.16535e-07
1.88026e-17
1.88913e-18
9.86644e-18
3.02396e-10
3.09219e-18
3.77797e-07
5.5828e-18
4.03644e-05
1.36305e-18
1.42062e-17
5.97441e-18
1.36885e-18
8.86504e-09
1.49211e-07
2.29788e-19
5.94599e-06
6.42356e-18
3.37464e-06
2.17625e-05
1.35603e-06
3.92302e-18
4.96542e-09
4.692e-07
2.23832e-09
5.17898e-06
3.94309e-10
1.77944e-06
2.34786e-17
4.24102e-19
4.66663e-10
6.26787e-06
2.54731e-07
1.81438e-17
4.28849e-18
7.39995e-19
0.000630609
6.72359e-18
5.96972e-18
3.99812e-18
1.065e-17
1.0451e-17
4.88132e-08
1.90603e-07
1.10592e-06
7.22321e-08
6.25896e-16
1.58644e-06
4.80511e-18
6.6118e-06
4.899e-18
3.48445e-18
1.28722e-18
8.61754e-18
2.25518e-08
2.33992e-18
2.77937e-17
5.14537e-18
1.67436e-05
9.78868e-18
1.94568e-18
1.24446e-05
7.13637e-18
7.27014e-05
0.000129008
0.000604472
4.13314e-19
0.000232725
0.00137547
0.00149821
0.000763397
2.05575e-18
6.09662e-19
5.53719e-06
5.4106e-06
3.40808e-18
8.40741e-06
6.80856e-19
3.64853e-05
2.39222e-17
6.25518e-19
7.40704e-07
5.42356e-18
1.5725e-18
1.09679e-08
4.22783e-08
3.83876e-18
1.30845e-18
2.68061e-09
1.01806e-17
3.00898e-18
2.34751e-08
9.23806e-06
1.60872e-06
8.74494e-18
8.40578e-06
2.31657e-17
3.964e-06
4.53535e-10
7.89825e-06
2.82261e-18
1.35715e-11
6.13306e-06
1.14814e-17
1.67247e-12
2.06501e-18
3.66921e-05
1.93853e-18
1.11939e-05
1.12428e-18
1.93801e-10
1.05384e-18
7.11651e-18
3.22019e-18
6.60031e-13
3.89702e-13
2.13695e-17
1.37602e-05
9.63839e-06
2.51921e-18
4.83782e-17
3.72743e-05
2.00598e-05
0.000208818
8.52231e-18
7.24172e-08
2.81981e-05
5.21496e-05
6.46871e-11
1.30745e-17
6.46782e-05
1.6677e-18
0.000254676
2.93917e-18
4.00471e-11
4.0986e-11
5.54305e-19
5.69439e-08
9.44498e-18
2.375e-05
4.90229e-19
3.44751e-18
3.12448e-18
3.80561e-17
5.98727e-18
1.37527e-17
3.35622e-07
2.03826e-06
0.000153255
1.04183e-17
3.67113e-17
4.62204e-05
3.01126e-18
2.87873e-19
3.35921e-18
6.36209e-17
2.96515e-18
6.35239e-06
1.81263e-19
7.16723e-18
1.52977e-19
3.53946e-06
5.93084e-18
1.94009e-18
3.29726e-18
3.47434e-06
2.67607e-18
6.55238e-06
0.000255741
5.5347e-06
5.83803e-06
2.88175e-05
4.12184e-19
5.9386e-18
1.50011e-17
3.31478e-06
1.98986e-06
2.33911e-19
8.26697e-18
6.27639e-07
2.78899e-18
8.79954e-18
0.0003707
5.45961e-18
2.47083e-05
6.58921e-18
2.56969e-06
3.81922e-06
3.42895e-18
1.19439e-18
6.41515e-18
1.02253e-17
8.95343e-18
2.12877e-05
1.05658e-17
4.94401e-06
9.26641e-19
8.3064e-18
7.30036e-06
4.06714e-18
1.45608e-05
6.58518e-18
2.05608e-18
2.609e-06
8.60089e-08
0.000154844
1.10116e-17
4.01132e-18
1.32531e-17
4.03759e-06
0.000198686
8.41675e-19
1.72493e-18
1.51453e-17
1.60619e-06
1.37671e-17
2.23746e-05
3.36909e-05
2.61407e-17
1.46356e-19
7.64729e-06
1.17588e-17
3.02335e-18
1.75184e-19
3.37808e-18
5.96698e-18
7.42598e-05
1.43e-16
5.58345e-18
4.74263e-18
1.67697e-17
1.0033e-18
9.3238e-18
3.01649e-18
1.62774e-18
4.15186e-17
8.58635e-06
3.39757e-18
8.83116e-06
4.72421e-17
3.07782e-18
0.000645426
2.86142e-06
1.90908e-18
2.0122e-17
6.93412e-19
2.52447e-06
7.15512e-18
1.23465e-18
7.88973e-18
4.27655e-18
7.61339e-06
3.15597e-19
5.16797e-06
1.58986e-17
1.099e-05
5.47414e-18
6.34815e-05
1.11338e-18
4.52564e-18
2.2639e-05
3.15361e-18
6.84629e-19
3.00975e-05
3.14661e-07
3.18688e-18
1.28655e-18
4.16277e-05
1.16089e-05
6.80353e-06
8.63473e-07
1.89135e-06
1.88589e-05
1.02471e-06
5.63389e-06
6.2796e-19
3.05493e-05
3.33871e-17
1.62573e-17
3.10843e-18
8.2196e-18
1.91521e-17
1.08484e-05
7.98757e-18
7.54302e-19
2.44979e-18
2.28238e-09
1.11524e-08
5.64878e-17
2.6914e-06
5.59826e-18
4.62046e-06
4.36286e-18
1.19486e-09
4.01882e-06
2.85214e-16
4.91635e-05
1.10188e-18
5.57125e-20
1.56039e-19
3.11672e-06
1.48517e-06
1.58546e-18
4.71367e-18
2.64078e-06
8.23047e-18
0.000728073
2.35772e-18
0.000110297
1.09865e-18
1.51782e-19
1.60844e-18
3.34713e-19
1.06566e-05
6.48929e-20
4.588e-08
1.08435e-18
1.07439e-05
1.84432e-18
5.05191e-19
6.74416e-15
3.1041e-16
4.10457e-18
2.72005e-17
1.47008e-17
1.10098e-18
4.80693e-06
0.000217944
2.85351e-18
9.1316e-18
4.23306e-07
2.65558e-19
1.02354e-18
1.51124e-09
1.90647e-05
1.70999e-07
5.61995e-18
7.09993e-07
3.83204e-06
5.54662e-06
9.37589e-06
1.42696e-17
9.6266e-18
3.75824e-17
1.23655e-17
2.48715e-18
4.72049e-19
5.7504e-18
6.10223e-18
1.20863e-17
1.21736e-17
3.69569e-18
3.38386e-19
8.33172e-05
1.38976e-18
7.21001e-19
7.07141e-13
1.35764e-17
6.98396e-19
0.00122751
3.45018e-19
1.07053e-18
2.05083e-06
1.69236e-12
7.3664e-19
2.1267e-17
1.27009e-18
2.49477e-05
1.72987e-17
4.24397e-18
5.34014e-11
2.41688e-19
7.86564e-18
1.50202e-18
1.63249e-17
0.000125682
6.09574e-19
2.02299e-07
8.86674e-19
2.94891e-17
6.22045e-20
1.89595e-18
3.9141e-19
2.54179e-11
4.70505e-11
1.31874e-07
2.07915e-18
4.46193e-18
2.60958e-17
1.11936e-10
2.23834e-18
3.22567e-10
1.54492e-11
2.58343e-19
5.71828e-18
1.89045e-17
7.24557e-12
3.22016e-18
7.50493e-18
2.32318e-12
1.33201e-17
3.53685e-05
2.60199e-18
7.53056e-06
1.29677e-17
2.54234e-09
1.1938e-17
1.68563e-06
7.66739e-19
4.8038e-06
2.72762e-05
5.13138e-18
2.90357e-06
1.41435e-08
1.62673e-17
1.13498e-05
5.06236e-18
2.51285e-19
9.44309e-18
2.56418e-18
1.71732e-17
1.33089e-18
1.76262e-18
3.02209e-18
0.000312196
5.78706e-18
2.08195e-19
7.43386e-18
2.16713e-19
1.73326e-18
3.56886e-05
0.00092907
3.30477e-09
1.39553e-08
1.70843e-18
2.21816e-06
1.5107e-06
1.73048e-18
7.72859e-18
2.16114e-17
9.78938e-19
1.13234e-18
1.12772e-17
4.0472e-18
8.19917e-18
4.56168e-07
1.69976e-17
4.87408e-18
2.17227e-07
3.37331e-09
3.60078e-19
3.016e-05
4.45046e-18
3.82607e-18
2.67219e-18
0.000195987
4.089e-17
2.72912e-20
2.83867e-05
2.24375e-19
6.28308e-17
1.09008e-17
1.91191e-17
6.13444e-05
4.98066e-18
5.95824e-18
7.01703e-18
3.81746e-18
7.03363e-06