/*--------------------------------*- C++ -*----------------------------------*\
  =========                 |
  \\      /  F ield         | OpenFOAM: The Open Source CFD Toolbox
   \\    /   O peration     | Website:  https://openfoam.org
    \\  /    A nd           | Version:  10
     \\/     M anipulation  |
\*---------------------------------------------------------------------------*/
FoamFile
{
    format      ascii;
    class       volScalarField;
    location    "4.3";
    object      SgRate;
}
// * * * * * * * * * * * * * * * * * * * * * * * * * * * * * * * * * * * * * //

dimensions      [1 -1 -3 -1 0 0 0];

internalField   nonuniform List<scalar> 
111485
(
3.15825e-17
1.01716e-05
2.68112e-05
2.40872e-17
5.66136e-05
6.19909e-19
5.19165e-05
7.22413e-06
2.1883e-05
1.30268e-06
5.1564e-05
1.12323e-05
5.22225e-06
7.41122e-07
7.1543e-06
3.70338e-05
2.2996e-06
0.00296981
1.21547e-05
4.13707e-16
1.0426e-16
7.69346e-19
3.03813e-05
4.15203e-05
1.04155e-05
8.45621e-18
4.83934e-05
2.29587e-06
1.96009e-05
1.6313e-18
5.35253e-05
2.0012e-05
6.0858e-16
1.30198e-18
9.72391e-06
2.83708e-18
1.28546e-05
4.46999e-06
6.06506e-11
2.65646e-05
8.34763e-18
8.51179e-05
1.83944e-05
1.52244e-06
5.59471e-08
4.03678e-18
3.76325e-05
8.49572e-07
5.68977e-05
2.06721e-17
8.07347e-18
1.82685e-16
5.69827e-18
5.6484e-05
1.37492e-16
5.12669e-05
4.12775e-06
6.34235e-18
2.79594e-08
5.65375e-06
1.89347e-05
1.49873e-17
4.82449e-06
0.000110641
6.54163e-17
4.25608e-06
0.000372304
0.000114842
1.08077e-06
6.85356e-06
1.06891e-08
6.9189e-06
4.57713e-17
2.94236e-06
1.77034e-16
8.90135e-07
3.41939e-18
4.98006e-05
1.68553e-18
4.73333e-16
1.54832e-08
3.98904e-05
4.20211e-18
1.13168e-17
1.00479e-05
5.02693e-06
5.19992e-13
2.84374e-05
6.25511e-08
7.85557e-06
5.54516e-07
4.8236e-05
1.26201e-05
9.26573e-08
6.52335e-05
1.42717e-16
5.78441e-17
1.91448e-06
2.03935e-11
1.58539e-06
4.31202e-17
2.30928e-05
8.7321e-19
2.38181e-05
5.4885e-06
6.53167e-17
4.02065e-18
9.32644e-06
4.39273e-06
1.09184e-10
1.08782e-05
5.95966e-06
4.06368e-06
3.52366e-06
2.13024e-16
4.10495e-08
1.49062e-17
3.49994e-19
1.36913e-05
4.7182e-17
4.92689e-18
3.74039e-16
8.07793e-18
7.21487e-19
2.20354e-06
3.09761e-09
4.48977e-18
1.99628e-06
1.39524e-18
8.83811e-08
1.40602e-06
3.62112e-05
3.01521e-17
6.82801e-16
1.71858e-17
5.92853e-05
7.21626e-19
4.94937e-05
2.78486e-05
2.82218e-06
2.46224e-07
2.33586e-06
2.57836e-05
3.53261e-06
4.53218e-06
1.44866e-05
5.13872e-18
3.95614e-17
4.06501e-18
3.20343e-05
2.13665e-06
3.59468e-17
2.03658e-10
6.19039e-06
5.91415e-10
1.28288e-05
1.91934e-05
1.25347e-05
1.11688e-10
2.29488e-18
1.90346e-17
6.355e-05
2.8742e-05
3.23905e-09
3.5512e-10
5.70287e-06
4.42277e-06
3.00498e-18
7.58949e-09
6.47132e-08
4.41831e-18
9.25572e-18
1.65848e-07
9.34346e-19
8.59962e-06
2.74258e-06
4.54883e-18
2.17711e-17
5.51538e-17
1.67549e-16
6.54961e-19
1.29028e-17
1.62977e-06
8.08255e-06
3.44716e-05
5.23978e-06
8.42844e-06
3.93153e-06
1.05693e-07
1.79036e-17
4.53828e-06
7.62083e-18
4.84429e-18
6.7032e-06
1.27301e-05
3.04323e-05
1.35289e-05
4.42763e-06
2.21717e-17
7.67105e-06
7.13376e-07
5.41856e-08
1.51055e-05
2.73432e-06
4.06448e-17
4.01602e-06
3.19155e-05
3.35921e-18
2.37071e-07
8.81575e-06
2.75027e-06
3.91991e-07
2.30663e-17
1.30269e-16
8.05471e-06
9.01417e-15
0.000144891
3.39937e-18
6.89077e-06
2.24814e-05
0.000144667
3.59709e-19
2.97918e-06
1.59998e-05
3.75424e-16
2.78597e-18
3.42716e-19
0.000190937
4.52221e-10
8.06964e-17
6.88761e-18
1.01456e-05
1.09636e-05
1.84634e-05
2.52333e-17
9.69348e-17
1.30147e-08
5.6498e-18
2.9212e-06
9.98976e-06
1.76644e-05
1.20406e-05
1.10665e-05
3.02279e-18
3.53558e-10
6.76013e-07
1.56852e-17
1.76885e-18
3.6631e-05
2.57539e-05
2.18846e-17
6.66181e-06
1.15661e-05
2.45874e-17
6.68105e-16
1.72482e-07
6.10997e-18
1.73697e-17
4.6757e-08
2.88993e-17
1.81384e-05
1.32714e-05
4.16097e-06
9.3014e-19
1.29582e-05
7.12224e-18
4.14132e-17
5.79603e-17
3.12716e-11
2.71326e-05
6.46181e-06
5.92463e-06
4.49154e-05
1.32833e-05
1.91753e-06
7.09186e-07
4.1424e-05
1.15656e-05
1.23235e-17
2.22726e-17
3.51434e-10
2.60258e-05
2.83354e-05
1.46569e-05
7.85308e-18
7.8791e-06
2.51631e-06
3.34136e-06
4.84949e-09
4.66605e-09
1.54332e-05
2.4286e-06
2.23431e-06
5.30783e-18
9.1899e-07
6.59398e-18
2.17199e-10
3.4757e-16
0.000307981
8.27364e-05
1.56076e-05
2.46666e-17
9.75634e-19
1.01721e-05
2.39936e-06
1.56622e-16
1.30126e-17
2.06353e-16
4.74787e-07
7.76477e-05
4.38054e-06
1.75937e-05
2.29181e-05
1.01894e-16
3.28584e-18
3.60825e-17
4.21026e-06
2.49854e-15
1.31188e-06
0.00022643
5.34844e-10
8.52282e-19
3.98628e-17
3.28771e-17
6.33672e-16
6.99002e-05
1.46696e-05
4.64372e-18
6.07241e-06
3.04985e-16
1.63483e-17
8.06771e-05
6.6887e-06
1.33276e-05
1.013e-05
3.8882e-16
3.15066e-16
1.67926e-17
1.07262e-05
1.99827e-05
5.71977e-06
5.92654e-18
2.31733e-13
2.29876e-07
2.19822e-06
9.10676e-06
5.64454e-08
3.44563e-05
2.35813e-19
4.51692e-05
3.90402e-06
9.15113e-06
2.87274e-05
1.65552e-05
7.00205e-18
1.21981e-16
1.0926e-17
2.84167e-18
3.82192e-05
1.07944e-05
4.30895e-05
8.1324e-05
5.31865e-18
2.32846e-05
3.36726e-18
9.38757e-17
1.9234e-05
2.51289e-17
6.68417e-05
1.55265e-18
4.85391e-19
2.77557e-05
2.23347e-19
1.79104e-05
4.16209e-07
3.38424e-19
1.27568e-06
1.85442e-05
6.08855e-17
9.36051e-06
1.22862e-05
9.01239e-06
6.52276e-07
3.90636e-06
9.00029e-06
5.52527e-16
1.3432e-17
1.86914e-06
3.84269e-18
6.6789e-06
0.000137418
3.575e-17
2.44422e-18
3.14856e-05
1.34719e-07
8.78365e-06
2.64873e-05
9.71553e-19
5.04624e-05
2.34844e-05
2.11498e-18
9.10873e-07
3.19141e-06
1.17899e-17
3.55939e-17
1.5526e-05
5.90456e-06
4.07412e-17
1.84981e-17
2.25241e-11
6.06486e-17
1.38249e-05
6.9351e-18
6.50142e-17
2.09532e-05
2.42812e-09
1.58937e-05
3.34988e-05
5.69661e-19
2.78634e-16
1.48194e-06
2.66752e-17
1.56588e-07
1.4933e-05
0.000145248
0.00106137
7.78593e-18
3.17298e-06
4.29412e-07
2.32367e-16
4.4184e-05
3.95273e-05
1.32896e-18
1.11429e-11
1.20878e-07
2.84786e-16
2.9846e-05
3.08675e-05
1.61752e-05
1.55962e-17
7.02554e-07
2.29814e-05
2.65756e-05
9.80978e-10
1.54354e-16
5.92459e-13
9.04001e-18
1.83865e-08
3.90296e-05
3.58199e-18
1.09504e-05
9.9561e-08
1.59808e-16
9.27988e-19
3.17406e-17
9.95701e-17
4.85439e-06
1.17706e-05
7.92458e-06
2.82555e-06
3.74607e-06
6.47396e-18
2.71195e-06
1.22431e-16
4.56446e-05
1.69156e-17
4.03521e-17
4.79513e-18
4.10031e-05
1.67248e-17
7.25547e-17
3.00446e-10
3.21208e-17
1.20867e-17
1.15929e-06
3.64279e-18
3.07463e-16
1.24529e-18
7.42644e-18
4.76924e-17
4.83041e-17
3.63586e-18
9.26821e-06
1.05137e-17
5.23997e-07
2.16512e-06
1.5235e-06
7.19299e-18
8.65371e-07
2.13509e-17
2.28193e-17
3.34192e-06
2.23725e-06
3.36892e-05
2.81339e-05
2.62778e-17
2.39011e-06
9.16972e-05
1.06533e-05
1.36616e-06
3.94755e-06
7.01251e-17
2.78931e-05
3.77119e-16
5.38517e-06
2.45342e-18
8.67041e-05
2.0202e-16
2.64788e-05
3.35766e-07
2.26397e-10
9.46034e-18
2.75157e-06
2.07574e-17
9.54631e-05
5.59688e-05
2.5559e-17
9.49848e-18
2.46317e-16
2.45786e-19
1.58459e-12
6.58962e-05
2.5264e-20
2.96329e-18
3.35768e-06
1.23436e-18
3.82251e-05
1.60235e-18
4.10169e-07
7.15167e-17
6.42104e-07
1.10892e-09
1.38393e-06
1.53066e-05
6.91487e-17
3.40684e-07
2.94867e-17
3.21363e-19
1.86456e-05
3.87929e-18
4.06875e-08
7.54506e-17
1.80455e-06
1.53283e-16
7.81067e-05
2.36738e-17
1.90174e-16
1.84675e-05
4.16353e-06
1.92729e-06
4.85662e-06
7.4665e-06
2.53809e-05
2.24647e-18
2.7062e-05
7.86774e-06
2.14271e-18
9.60286e-11
4.36738e-05
1.62867e-05
2.25002e-16
5.61115e-06
7.35572e-06
1.79071e-06
1.46996e-06
2.52747e-13
1.65537e-05
1.21623e-06
1.93646e-07
3.05984e-05
1.73072e-05
9.75214e-07
3.08514e-17
3.66744e-12
0.000761138
4.31313e-17
4.92788e-07
3.77162e-18
2.88296e-16
8.71895e-06
3.82664e-06
2.1453e-10
1.39104e-08
7.31611e-16
2.09574e-05
1.29339e-05
1.02838e-17
1.05989e-13
2.3407e-06
3.67966e-17
1.03119e-18
7.27623e-19
5.16668e-17
1.7573e-05
5.03752e-18
4.81253e-17
1.12989e-05
3.30341e-06
4.81707e-17
1.19696e-05
1.20705e-16
9.69063e-06
1.22046e-17
2.45771e-17
6.6438e-05
5.66068e-18
2.62376e-17
7.24967e-16
6.09989e-06
1.26557e-16
3.7611e-05
7.91888e-06
5.44385e-17
9.42818e-05
3.10784e-06
3.2732e-05
3.14762e-05
9.67832e-07
1.02241e-07
2.06189e-17
6.63356e-05
5.16649e-05
2.80578e-17
3.99897e-07
4.80471e-05
8.49815e-06
1.83599e-06
3.21363e-05
3.04475e-05
2.95895e-17
1.26705e-05
5.93817e-09
1.04198e-16
3.96175e-05
3.26996e-07
1.85433e-17
1.29616e-05
4.69476e-05
1.74751e-06
2.37309e-05
2.17709e-05
9.25761e-06
4.94883e-16
1.14167e-05
4.11219e-07
1.90708e-14
1.88293e-05
1.93423e-05
4.19742e-05
5.16964e-18
2.68636e-06
5.45776e-19
1.59145e-18
4.50622e-18
2.4026e-18
1.86601e-08
3.60646e-16
2.19862e-13
1.07047e-16
7.58895e-18
7.81164e-08
4.95368e-05
8.22715e-17
4.19312e-05
5.54068e-17
2.59311e-17
1.14958e-16
4.75356e-05
5.56786e-07
3.14847e-16
1.38995e-18
3.52353e-18
2.34553e-18
0.000270384
8.39451e-05
2.74181e-16
2.22589e-06
3.65936e-09
1.70068e-17
4.33282e-05
8.84075e-06
1.64364e-05
8.11583e-19
1.27796e-17
4.34142e-07
1.26883e-06
3.08025e-16
1.04178e-17
1.81943e-16
7.6962e-06
2.23699e-17
1.13642e-16
1.18335e-17
4.81569e-05
2.24397e-06
4.22156e-19
0.00490714
0.00027966
1.37058e-05
2.40056e-18
4.78663e-17
6.76435e-05
4.21856e-07
1.29553e-16
7.77855e-09
0.000169741
3.2823e-06
1.44427e-05
2.18325e-16
6.70142e-05
2.04697e-06
2.67557e-19
2.04406e-17
5.28913e-18
1.01508e-18
8.32435e-19
1.0076e-18
2.48024e-05
9.7575e-17
8.74232e-19
5.61649e-17
1.40641e-05
2.83699e-05
3.90748e-17
2.54127e-17
0.000126865
1.5781e-05
1.06558e-05
2.93045e-16
8.08224e-19
4.15822e-05
1.53047e-17
2.3824e-06
2.80811e-06
4.29497e-06
5.66005e-18
5.75047e-17
6.14359e-17
5.86384e-19
1.82585e-05
1.45268e-19
8.20495e-19
1.08156e-06
2.17667e-17
2.62065e-05
1.96057e-06
4.42092e-17
4.34594e-05
0.000593097
2.81384e-06
3.55451e-05
2.09242e-07
5.54281e-05
1.90454e-13
9.44151e-16
2.65129e-05
8.71231e-05
8.01338e-06
1.74138e-17
1.1435e-12
0.000792308
1.2758e-05
2.46401e-19
3.44614e-06
3.42449e-06
1.58968e-06
1.80432e-17
4.00136e-17
9.77501e-19
1.53682e-05
4.00005e-16
3.17837e-06
1.26879e-16
1.50808e-06
1.45005e-06
4.13413e-05
6.89168e-07
4.54238e-19
8.20622e-19
6.9247e-18
2.36261e-05
8.00932e-18
1.77619e-17
6.28598e-08
1.55181e-17
5.02084e-19
6.81727e-18
1.06255e-18
1.10264e-05
4.00769e-17
1.43561e-18
6.14819e-13
1.63365e-16
7.87369e-18
6.44198e-17
5.70763e-18
3.92665e-09
1.9997e-06
2.57697e-17
4.48497e-06
1.03013e-08
3.8101e-10
8.23581e-08
4.97044e-06
1.47095e-18
1.14194e-08
1.16048e-05
4.51684e-07
6.80042e-17
7.2142e-12
9.64924e-07
6.89595e-17
1.13238e-05
2.64848e-07
2.22559e-09
2.84959e-05
1.07067e-05
2.6759e-06
8.31444e-06
2.6706e-06
5.09617e-18
3.68998e-17
3.3874e-05
3.02511e-05
1.57343e-17
8.41845e-06
6.57104e-05
3.66169e-05
7.85073e-17
1.71221e-06
4.69636e-18
1.38698e-05
1.76396e-05
1.41409e-17
1.53854e-06
6.78527e-07
1.58259e-09
4.996e-06
4.29887e-17
5.7915e-05
1.99766e-08
2.04976e-06
4.32282e-08
1.64205e-08
3.89898e-19
1.38288e-17
9.28571e-06
9.93898e-19
1.30939e-07
3.49392e-07
1.60979e-07
6.55298e-11
8.8539e-11
1.30779e-09
1.48947e-18
2.76557e-16
2.64299e-05
1.76809e-17
6.52859e-07
2.6032e-06
4.9591e-17
2.09335e-17
6.19877e-10
8.78388e-13
7.44831e-20
4.85056e-09
3.82206e-18
4.13665e-18
3.70291e-17
7.69443e-17
6.43415e-17
5.08366e-17
3.79818e-07
1.97704e-17
4.33501e-18
1.27369e-17
7.44997e-09
6.90391e-08
2.1496e-06
1.0877e-05
1.50152e-19
1.15871e-17
2.35006e-07
2.94301e-18
8.77658e-18
1.11482e-16
2.27027e-05
4.96608e-05
1.00505e-18
4.00378e-17
7.58611e-17
1.26027e-17
1.82995e-18
4.80085e-18
9.20597e-06
4.15841e-18
4.4807e-11
3.17748e-05
1.05745e-17
6.81697e-17
7.42393e-18
2.48163e-08
3.00003e-17
3.48924e-17
7.21353e-18
8.91568e-09
9.31327e-19
5.75944e-06
1.28172e-09
5.29932e-12
4.48886e-19
6.84094e-08
2.8618e-06
5.29555e-05
1.32435e-16
7.47687e-09
7.39043e-06
5.73071e-17
8.32963e-18
1.82861e-16
4.62053e-17
9.5333e-06
2.43405e-06
4.35133e-06
2.10464e-10
9.0489e-20
2.76686e-05
2.17598e-17
1.06654e-16
1.30336e-16
1.78104e-19
3.12214e-05
6.5003e-18
3.82492e-17
2.47722e-09
6.36107e-05
5.25747e-18
3.19754e-06
1.92928e-16
1.1962e-06
2.81422e-16
1.98325e-18
8.60996e-18
9.74352e-17
3.30729e-06
7.76753e-07
0.000405462
4.89709e-18
7.444e-17
2.55561e-06
1.98071e-18
2.57535e-16
2.23553e-17
4.76073e-05
8.52108e-09
3.49426e-05
1.13884e-16
1.00513e-08
4.60573e-08
5.13926e-16
1.12191e-07
2.44006e-17
1.76993e-06
3.15422e-05
2.44532e-05
1.67649e-06
3.25688e-07
3.8341e-18
5.13937e-19
1.18521e-18
2.10521e-08
1.96496e-19
7.64062e-06
7.16277e-19
0.000212746
1.52499e-17
5.02069e-05
3.78894e-06
8.21535e-17
8.45462e-18
1.10129e-16
2.26263e-18
4.3265e-05
6.74287e-17
1.76908e-16
1.59971e-05
7.33819e-06
3.13628e-16
2.47483e-16
3.03678e-16
3.11488e-16
2.06249e-18
5.74599e-19
2.76218e-05
5.4272e-07
1.62055e-17
6.78484e-18
4.77569e-10
1.16808e-17
1.75401e-06
1.0312e-07
3.5101e-17
3.6287e-06
2.41613e-17
3.66904e-07
6.92927e-17
1.09679e-06
1.92225e-17
1.19489e-10
2.41261e-09
8.83051e-07
1.94081e-05
3.67421e-05
1.26965e-09
1.58702e-17
5.19026e-07
2.20469e-18
5.39642e-06
2.28145e-17
3.6112e-18
4.52658e-17
4.79504e-18
6.72239e-18
2.02534e-17
7.67493e-06
8.43269e-06
4.25054e-17
1.89091e-16
1.56555e-16
7.54523e-07
1.8069e-08
1.2717e-16
2.21572e-05
2.40824e-07
4.81523e-18
2.95933e-05
1.08279e-05
4.04876e-06
1.50647e-05
2.58508e-18
4.5226e-18
5.72929e-18
1.01135e-18
4.38384e-05
2.59591e-18
0.000129622
1.85121e-19
3.04312e-07
8.69576e-07
1.01382e-18
9.42777e-07
1.59504e-18
2.85303e-19
3.11645e-06
3.08102e-11
8.77438e-06
3.64085e-19
4.35215e-17
7.11809e-18
8.47591e-07
6.27846e-17
6.21494e-18
5.97615e-17
4.55468e-10
1.35905e-16
1.09371e-08
4.19313e-17
5.09951e-17
1.18364e-17
2.28225e-05
1.48898e-05
2.15579e-05
4.16955e-05
4.78486e-19
1.40157e-08
2.19245e-18
4.41747e-20
1.32244e-05
2.7812e-17
3.06795e-09
3.53077e-07
8.01901e-06
3.59463e-07
1.07707e-12
2.64423e-06
1.69224e-18
1.06663e-12
8.70464e-13
1.27735e-07
1.16016e-06
1.73739e-05
8.02794e-11
9.77824e-17
3.67059e-05
7.62747e-18
9.11659e-18
2.39154e-08
8.85816e-05
8.85962e-11
4.73424e-18
1.7426e-19
4.5693e-10
1.93358e-17
3.49617e-17
1.64634e-08
3.18322e-17
6.0526e-17
4.87837e-05
2.10831e-07
1.63871e-07
2.77919e-05
8.76051e-06
9.50515e-19
1.09402e-18
1.07911e-08
5.06831e-06
7.66237e-19
1.62628e-17
1.26395e-05
1.96427e-17
1.65678e-17
2.10118e-16
2.07982e-16
5.42284e-16
0.00309093
9.37131e-19
2.42347e-07
5.62746e-17
2.18318e-05
3.94658e-19
2.03626e-15
1.63738e-16
8.57012e-17
4.51697e-18
1.93725e-18
3.90466e-06
8.39188e-19
2.98997e-18
7.5915e-17
1.47281e-17
1.57092e-17
9.48947e-18
1.19622e-05
2.34307e-18
1.38783e-05
3.21684e-06
5.31545e-18
1.92898e-06
5.54079e-19
5.17913e-07
2.11724e-09
5.55923e-06
1.87308e-05
1.1174e-17
1.12267e-07
1.03636e-05
8.11003e-09
2.73706e-17
2.08559e-09
2.1379e-05
4.01594e-06
2.77172e-16
2.90249e-05
1.12228e-16
4.09354e-18
8.46305e-18
2.03268e-18
8.6956e-06
8.38375e-18
2.17134e-18
9.01163e-06
1.63943e-10
2.08179e-06
1.34075e-18
6.34666e-17
7.83243e-07
5.7905e-19
1.20151e-07
2.34243e-17
2.80663e-05
1.59246e-17
1.89036e-17
6.52906e-08
3.7482e-18
1.41744e-07
1.07834e-16
4.80161e-18
7.06536e-06
4.90037e-07
6.27175e-06
2.02574e-05
0.000263094
2.40438e-05
4.44632e-19
1.11312e-15
2.97597e-06
7.96045e-06
4.26871e-05
1.44859e-05
2.01125e-18
1.40753e-05
1.52358e-19
3.06463e-17
9.81717e-06
1.20988e-05
2.16863e-17
1.57992e-05
1.07834e-17
3.90645e-06
9.89364e-06
3.63866e-17
1.99099e-18
9.4743e-19
3.05812e-06
1.31854e-18
1.22638e-17
4.53464e-06
2.55609e-05
4.72474e-09
9.89901e-06
3.64963e-18
7.03351e-18
8.71067e-08
9.01006e-07
9.03462e-18
1.10791e-05
4.46085e-16
2.74805e-06
1.1534e-17
2.01691e-17
1.35658e-05
4.79089e-18
4.98888e-08
3.80876e-06
1.84176e-17
1.47182e-18
4.60226e-06
3.38561e-14
6.38156e-05
1.26128e-16
0.000324214
6.63229e-17
4.50471e-17
7.34677e-18
8.0658e-06
3.45852e-16
6.35312e-18
6.27064e-06
7.72613e-17
2.53076e-07
2.51544e-16
5.86365e-17
1.29626e-17
1.65035e-10
8.73404e-07
2.3392e-18
2.09758e-18
4.26169e-05
1.06253e-06
9.47941e-18
5.88136e-07
1.38331e-18
5.62578e-17
1.62127e-09
3.60942e-06
1.20171e-06
8.21087e-18
1.2163e-18
7.67433e-18
2.05963e-18
6.36264e-18
2.03942e-18
5.96431e-18
1.35087e-18
1.59455e-17
1.45308e-18
2.89567e-18
1.30039e-17
3.27254e-17
2.17172e-19
1.56796e-18
6.10947e-18
3.0524e-19
1.8665e-18
6.22863e-18
4.46037e-18
1.79229e-17
2.17983e-05
7.25661e-18
2.35683e-18
6.80118e-18
7.59278e-06
6.69723e-18
2.4022e-17
0.000282361
1.83946e-16
3.48643e-18
2.64412e-05
4.41527e-16
4.02122e-18
6.98486e-06
2.85425e-05
9.08935e-19
2.15271e-06
3.55833e-06
5.13798e-17
1.45844e-05
4.62566e-05
1.98823e-05
3.45647e-06
1.1648e-05
6.34855e-17
5.0585e-18
3.62234e-06
1.30396e-05
3.27723e-06
1.96883e-18
6.87064e-06
1.89599e-06
2.2968e-05
1.33194e-05
4.95254e-07
1.65054e-05
2.01491e-06
1.08233e-05
7.75418e-18
3.09555e-05
9.29199e-06
2.14747e-06
1.44174e-06
3.02699e-18
3.05542e-18
6.74633e-18
4.77976e-17
3.55972e-18
1.14358e-05
1.5045e-05
3.3197e-18
2.08721e-18
1.32381e-17
1.55661e-18
6.7836e-18
2.45503e-17
5.95995e-18
2.34589e-17
5.26739e-06
1.49871e-07
2.3988e-05
7.18997e-08
1.7511e-17
3.50722e-16
3.81849e-05
5.78247e-09
1.35174e-18
1.98035e-18
8.4581e-06
9.95632e-19
8.6908e-18
3.45315e-09
8.54594e-06
1.53549e-05
3.66094e-05
3.61307e-05
5.70333e-17
1.69404e-05
3.84429e-07
1.54581e-17
3.60223e-18
1.28108e-05
6.6546e-17
3.94604e-18
2.54685e-05
0.00122446
1.94288e-07
1.22419e-16
1.12226e-19
1.80117e-05
2.63506e-05
2.01685e-05
6.43477e-06
3.38376e-06
6.07209e-18
1.06551e-09
2.93988e-12
3.01791e-18
3.10581e-17
2.02764e-05
4.3291e-18
2.31643e-06
3.0489e-05
1.88609e-05
1.28277e-05
7.63672e-17
5.62434e-06
1.14877e-17
8.94594e-17
6.92656e-18
6.57483e-18
3.06292e-06
0.000948085
1.73e-18
9.15282e-18
4.04919e-09
2.77189e-05
8.60224e-07
7.43637e-06
3.81917e-05
3.8964e-06
2.19204e-05
1.45817e-17
9.53666e-17
7.30505e-17
3.59029e-05
6.00902e-06
2.91818e-11
9.9518e-18
2.07992e-17
1.21725e-16
2.46358e-05
3.19156e-06
2.59625e-18
5.04469e-06
6.14862e-05
9.21735e-06
6.66946e-06
1.24767e-17
3.31678e-17
7.42112e-06
2.63635e-05
4.32254e-18
3.37197e-07
1.5832e-05
1.10241e-06
1.10474e-05
5.03079e-06
8.77363e-06
6.96852e-17
4.00055e-06
2.40179e-05
4.46801e-05
1.00676e-12
2.74717e-05
1.85673e-17
1.90741e-05
1.17704e-07
1.99437e-20
2.37556e-06
7.00213e-06
3.77142e-07
1.28672e-05
1.03929e-09
1.89934e-07
2.11193e-08
3.62096e-05
3.69752e-06
1.62656e-17
4.19105e-05
1.02355e-06
1.33049e-17
7.52957e-19
4.10532e-11
9.21591e-09
1.25604e-06
0.00125442
3.9916e-05
1.11257e-05
2.69347e-10
4.74753e-05
1.11034e-17
7.30091e-18
4.85425e-06
4.15666e-17
3.18679e-06
5.961e-06
2.00856e-06
5.6146e-06
2.67185e-17
2.46445e-07
0.000123555
5.03993e-18
3.78297e-05
7.92015e-06
2.45672e-17
3.6312e-06
5.52562e-07
1.52168e-16
4.87805e-12
9.49114e-08
8.3889e-17
1.57628e-19
1.56408e-18
3.51259e-06
4.76719e-06
1.62951e-05
7.92781e-18
6.12716e-06
3.4462e-05
6.00132e-17
8.14413e-06
1.25694e-05
2.7221e-05
1.64989e-06
1.13409e-18
8.50393e-07
1.26916e-05
1.05106e-05
8.8044e-06
4.2823e-05
0.000181823
3.90102e-06
1.70327e-16
4.6748e-09
6.2076e-05
2.47567e-17
4.03197e-07
3.28508e-19
3.2366e-18
4.96349e-17
3.76546e-18
4.7573e-18
3.62448e-06
6.49603e-18
6.63714e-06
1.58172e-06
3.03797e-17
4.88289e-06
6.02019e-16
1.66973e-05
2.19794e-17
1.70447e-08
1.32784e-16
2.45495e-05
1.53379e-07
2.12315e-09
3.77391e-06
3.02166e-05
1.96602e-05
4.25783e-06
2.52818e-05
5.30412e-15
2.16643e-05
6.07838e-05
9.45826e-06
3.0751e-17
1.386e-06
3.53339e-07
5.79757e-06
1.33304e-05
7.47672e-07
6.75452e-17
2.06644e-16
2.0614e-18
4.53401e-06
6.09997e-17
9.78398e-08
1.7584e-07
9.56286e-07
3.09107e-07
5.63956e-17
1.11646e-16
9.24474e-19
8.78954e-06
2.42588e-05
1.7221e-06
8.77667e-09
2.10882e-06
7.41488e-06
2.7582e-06
9.60747e-07
7.87951e-06
7.07113e-06
2.77664e-06
8.18731e-17
1.25028e-17
3.60063e-19
1.56888e-05
1.17379e-05
1.28564e-16
1.53351e-19
2.62541e-16
9.32243e-06
2.28614e-05
4.06062e-17
2.28393e-06
4.58686e-18
6.2349e-10
5.96561e-06
9.46125e-05
4.26187e-17
1.10432e-17
4.36034e-06
1.50977e-17
8.42051e-08
1.30322e-05
6.08222e-17
1.16795e-05
3.78752e-05
1.92212e-05
1.74915e-17
1.13904e-06
8.16474e-17
8.76094e-08
5.57296e-05
1.02201e-16
9.03516e-17
1.28738e-05
4.07373e-16
2.12868e-17
4.08437e-08
1.48418e-06
1.30471e-17
7.97253e-18
5.04477e-17
7.37034e-08
1.62806e-06
3.92907e-06
2.62634e-05
1.06355e-05
5.68217e-17
6.30132e-10
6.5206e-07
9.83659e-18
1.35342e-17
1.41687e-17
4.54399e-17
2.07369e-17
2.82773e-17
7.37477e-17
5.16473e-17
5.62954e-17
1.90052e-16
2.45216e-12
7.19789e-17
4.33213e-07
7.12012e-17
1.67444e-07
2.25252e-16
7.14947e-08
2.60481e-17
4.00047e-17
2.8824e-05
1.03487e-05
6.23499e-17
0.000102844
4.32742e-12
1.50722e-13
2.75159e-18
1.36202e-06
3.80892e-17
2.8247e-06
6.17495e-09
1.11911e-06
4.8384e-17
5.96441e-17
8.73523e-07
4.49674e-11
6.91663e-18
4.05713e-17
4.46673e-05
2.3222e-16
4.19795e-05
3.56213e-17
5.6117e-18
5.84307e-10
3.21942e-05
9.49773e-06
1.25598e-17
3.90193e-07
3.24398e-16
2.05013e-06
1.75397e-08
1.92081e-06
8.93553e-07
1.00589e-17
2.31914e-05
1.16155e-06
5.74005e-06
1.89268e-18
1.88834e-17
1.00473e-18
1.12339e-05
3.73048e-06
5.31943e-05
2.60004e-17
3.98161e-10
6.87723e-18
1.73676e-17
5.32384e-17
5.21934e-18
3.23152e-06
2.04754e-06
2.50511e-06
0.000350118
5.17961e-19
3.27918e-05
4.01685e-05
1.84901e-05
1.60056e-06
7.16547e-18
7.09817e-06
4.43711e-06
5.58179e-06
6.18286e-10
1.11424e-05
4.81476e-17
1.96695e-06
1.21043e-06
3.73965e-05
1.0805e-09
3.35406e-06
3.18781e-17
2.00507e-05
6.75216e-17
7.1375e-17
1.79419e-06
6.29661e-17
7.86245e-06
6.22857e-17
7.06051e-17
4.58434e-16
1.48319e-17
3.42386e-17
7.8324e-07
3.99189e-17
7.02948e-07
3.55264e-17
1.79015e-17
2.17806e-05
6.41201e-06
9.62972e-06
9.25521e-06
3.3049e-17
0.00064254
5.1534e-18
7.94133e-05
1.62944e-17
2.13434e-05
2.40853e-05
2.40342e-06
6.45518e-05
5.96384e-17
8.8897e-17
8.23836e-18
2.41753e-06
1.00196e-17
2.03606e-17
1.88726e-05
5.19278e-17
2.73259e-17
5.43707e-06
6.9187e-17
1.3703e-05
9.33855e-11
9.81152e-18
9.66587e-18
3.8324e-18
1.88151e-06
7.07376e-06
5.68216e-17
2.46311e-05
3.32699e-07
9.13025e-17
0.000115048
2.27748e-17
1.69785e-05
2.01447e-05
3.85282e-06
8.69484e-17
2.01023e-05
1.06371e-05
8.50928e-07
5.41316e-06
1.38439e-05
1.66434e-17
2.18658e-17
1.85285e-09
4.7785e-17
5.43079e-19
3.18769e-17
2.1516e-05
4.84495e-05
5.06185e-06
2.09951e-06
3.16283e-17
5.24437e-05
5.21226e-05
4.65782e-06
3.107e-06
9.25951e-06
2.37212e-05
2.71732e-06
9.51595e-19
6.35181e-20
5.57613e-19
6.9902e-06
3.93589e-18
2.94229e-05
1.12713e-16
8.34023e-07
4.60482e-10
2.75201e-06
2.88954e-05
3.14557e-18
8.05811e-17
2.63389e-06
3.87107e-07
8.87467e-17
2.13622e-17
1.54469e-18
4.72212e-08
3.03907e-07
1.41864e-07
8.17119e-07
9.69266e-06
9.97627e-05
5.4603e-17
1.49793e-16
4.73806e-17
4.16171e-06
2.19359e-05
2.15205e-05
3.72034e-05
2.4886e-06
2.90808e-06
1.5423e-17
2.99619e-17
2.17265e-16
2.84788e-17
9.31754e-06
2.40421e-05
1.82382e-17
2.36291e-17
1.69729e-16
1.13646e-16
3.01639e-19
5.36024e-17
1.42338e-05
2.98026e-16
1.28317e-06
0.000415795
2.18947e-17
1.80369e-08
2.41435e-05
4.38641e-07
2.26295e-18
2.01339e-17
5.08963e-06
3.24536e-17
1.52792e-05
1.30557e-09
2.70771e-05
1.55812e-17
1.76409e-15
6.45321e-19
7.19102e-18
2.89072e-17
1.1507e-16
0.000219314
2.61743e-17
5.9777e-06
1.39764e-06
2.74345e-17
2.41341e-16
2.13389e-06
2.51482e-17
2.163e-18
1.65384e-05
9.08036e-08
4.12293e-17
2.07425e-16
1.28035e-17
1.73311e-05
9.07689e-17
6.86515e-17
3.93937e-07
2.67096e-06
3.1909e-06
4.02131e-17
1.07684e-17
7.55724e-18
3.86099e-06
1.87448e-06
1.33136e-05
3.76561e-06
9.11935e-19
7.02963e-07
1.52446e-05
7.23215e-06
2.16032e-18
1.3501e-16
6.33277e-17
1.02658e-16
1.05504e-16
3.3448e-05
8.09695e-06
5.58937e-06
5.56982e-19
8.57044e-18
5.52238e-17
5.57644e-17
1.44425e-18
9.3354e-10
4.00532e-07
2.36967e-06
4.08339e-18
1.69233e-16
2.73361e-18
3.52424e-12
3.64378e-05
0.000123567
1.11354e-17
1.70438e-12
2.39953e-15
1.10885e-16
1.18378e-16
3.74138e-06
7.67182e-06
5.29459e-17
1.38637e-16
3.22235e-06
6.08212e-17
8.96818e-07
1.14401e-06
0.00244774
8.77748e-18
5.02717e-17
1.60932e-05
5.17215e-07
1.39008e-17
0.000771389
5.51379e-07
7.8417e-06
7.13236e-17
3.46285e-17
9.06507e-18
7.96766e-18
7.219e-06
1.172e-07
9.35133e-17
2.71878e-05
2.03395e-05
0.00101018
5.27708e-17
3.73738e-18
6.35986e-17
2.98089e-17
6.84223e-06
6.46595e-11
8.97038e-17
4.20025e-17
1.928e-05
1.09195e-06
6.31709e-06
2.17047e-17
3.30594e-17
3.20071e-05
2.58723e-18
2.66156e-17
1.71853e-18
2.07508e-17
2.60285e-05
4.07829e-17
3.95798e-18
8.74224e-19
2.73595e-05
1.50688e-05
1.17374e-17
2.44667e-17
1.32859e-17
1.70922e-05
1.43808e-10
1.04464e-17
1.56596e-17
1.25018e-16
3.49551e-17
2.66335e-06
1.143e-05
1.68809e-19
2.39032e-06
1.07459e-06
4.9679e-06
7.07684e-18
5.15658e-17
1.2651e-17
2.30426e-17
3.60577e-19
2.45303e-05
3.62331e-16
1.78369e-05
1.90675e-17
1.56769e-06
5.06097e-17
2.37268e-06
6.15436e-17
3.18877e-18
1.21644e-05
0.000229027
1.91049e-16
3.55872e-06
3.57073e-17
3.81576e-07
7.36247e-18
5.11417e-17
6.5351e-17
3.53923e-10
5.65163e-17
4.16006e-07
6.90943e-17
4.01374e-05
1.27702e-17
3.84299e-16
3.9876e-18
7.03809e-17
7.78939e-09
1.45186e-07
1.20922e-19
5.39953e-06
5.28114e-18
3.7231e-06
2.24084e-05
1.26154e-06
2.18914e-19
4.49015e-09
4.35571e-07
2.0149e-09
5.66094e-06
4.40064e-10
1.63602e-06
1.92947e-16
2.93133e-18
4.45312e-10
5.4318e-06
2.43034e-07
2.56546e-17
2.24242e-17
7.42404e-17
0.000586897
1.09312e-18
2.38763e-18
3.30174e-17
6.05676e-18
8.47692e-19
8.03262e-08
1.80207e-07
1.09229e-06
5.14079e-08
2.46394e-16
1.42814e-06
5.19298e-17
7.12355e-06
1.29994e-16
1.22479e-19
2.67201e-18
1.2717e-17
2.10534e-08
3.21278e-17
4.18702e-19
3.93155e-17
1.70957e-05
2.38085e-16
9.50883e-18
1.22229e-05
1.40997e-16
6.12324e-05
0.000110157
0.000555919
4.12602e-17
0.000238476
0.00143301
0.00171949
0.000784561
5.35822e-18
6.16847e-19
5.54454e-06
5.68513e-06
3.76496e-17
6.13153e-06
6.93758e-19
3.59539e-05
1.92131e-16
3.90821e-17
6.74581e-07
1.11445e-16
1.24589e-16
1.03366e-08
3.81576e-08
2.30033e-19
6.64588e-18
2.26438e-09
9.28597e-17
1.5947e-16
2.47312e-08
9.07525e-06
1.48435e-06
2.59721e-17
8.0181e-06
3.52081e-17
3.49676e-06
4.86788e-10
7.50311e-06
2.30314e-17
6.40927e-12
5.93583e-06
1.00021e-17
1.46815e-12
1.55795e-18
3.70203e-05
7.52111e-18
1.14398e-05
3.48067e-17
1.57659e-10
9.04262e-18
9.72951e-17
7.45307e-18
4.74666e-13
2.98069e-13
6.02919e-19
1.38431e-05
8.90867e-06
7.22162e-19
1.99026e-17
3.84079e-05
2.22041e-05
0.000209927
5.00001e-18
7.07429e-08
2.81857e-05
5.37555e-05
5.83916e-11
3.67149e-19
6.72841e-05
7.71133e-18
0.000256988
3.49176e-17
3.78193e-11
3.89544e-11
6.34875e-17
7.0843e-08
1.06886e-16
2.31878e-05
7.15988e-20
2.88361e-17
4.83653e-17
1.91549e-17
1.23033e-16
6.57911e-18
3.40493e-07
1.93073e-06
0.000157466
7.81877e-17
6.85244e-17
4.72131e-05
3.12012e-17
6.22009e-20
6.23487e-18
1.61792e-18
5.88659e-17
5.60203e-06
4.46619e-18
1.99317e-17
1.07904e-19
3.14749e-06
2.66409e-16
2.96729e-19
3.53268e-17
3.17951e-06
9.17009e-18
5.50697e-06
0.000252428
5.2447e-06
6.12103e-06
2.51472e-05
1.66915e-17
1.46876e-17
2.60822e-17
3.46154e-06
2.14768e-06
5.35251e-18
8.4728e-16
5.73941e-07
4.63275e-16
3.2077e-17
0.000373272
1.22114e-17
2.49991e-05
4.47181e-17
2.4505e-06
4.05673e-06
6.20634e-18
4.23997e-19
1.90975e-17
8.5655e-19
3.94895e-17
2.2338e-05
3.38421e-17
4.20158e-06
4.85776e-17
3.71374e-17
6.84788e-06
9.34808e-19
1.55098e-05
3.20139e-17
1.58435e-18
2.52262e-06
9.90349e-08
0.000153942
1.03011e-16
1.57626e-17
3.45774e-17
4.62502e-06
0.000198752
6.01262e-17
2.21144e-18
1.24453e-16
1.17199e-06
6.75504e-17
2.37737e-05
3.17794e-05
1.72524e-16
5.87345e-18
6.47686e-06
1.44882e-16
9.57928e-17
1.92347e-18
2.12754e-17
5.33296e-18
7.34508e-05
4.67235e-16
1.58316e-16
8.55147e-18
2.6269e-18
3.36638e-17
6.01518e-18
1.02344e-16
1.58153e-17
1.37511e-16
9.80416e-06
1.07106e-16
8.05692e-06
1.54725e-16
7.11264e-17
0.000657487
2.82107e-06
2.29448e-17
2.76709e-17
1.48067e-17
2.25515e-06
6.29022e-17
6.15469e-17
1.29273e-16
6.97365e-17
6.50435e-06
1.26624e-17
3.99202e-06
6.88435e-19
1.16235e-05
2.0466e-17
6.47171e-05
3.34758e-17
5.63932e-17
2.164e-05
2.1398e-17
2.23597e-17
3.18345e-05
3.36077e-07
3.73424e-17
6.28337e-18
4.36451e-05
1.24979e-05
6.74267e-06
6.49528e-07
1.53558e-06
1.89653e-05
8.04528e-07
6.05611e-06
4.74515e-17
2.88612e-05
3.86232e-17
1.0694e-17
4.65952e-19
1.61873e-16
4.03064e-17
9.52289e-06
2.27801e-17
6.01875e-19
5.63541e-18
1.89855e-09
1.28533e-08
4.21832e-16
2.97422e-06
7.11729e-17
4.50386e-06
1.26395e-17
1.07187e-09
5.47876e-06
6.03328e-16
4.82986e-05
2.53335e-18
4.461e-18
2.72292e-18
2.8994e-06
1.554e-06
2.10999e-17
1.64064e-18
2.32091e-06
5.94675e-17
0.000734701
3.22994e-17
0.000104873
1.49814e-17
1.59762e-18
6.74579e-17
8.07523e-19
1.09387e-05
1.04414e-18
5.15235e-08
3.223e-18
1.05592e-05
1.52727e-17
5.42547e-18
6.60235e-15
1.74939e-16
8.15452e-18
3.78625e-16
1.25692e-16
1.64743e-17
4.87873e-06
0.000232219
8.58248e-17
1.93507e-17
4.60993e-07
3.55664e-19
5.28285e-18
1.97237e-09
1.96733e-05
1.82997e-07
4.33145e-19
4.57461e-07
4.10995e-06
5.59769e-06
9.67794e-06
7.42234e-17
9.39725e-19
1.53204e-18
1.6425e-17
1.96753e-19
2.64294e-18
3.25527e-18
2.93324e-18
3.69516e-18
3.0507e-18
4.47597e-17
2.52946e-18
8.41863e-05
9.75533e-19
4.33467e-18
1.8252e-12
7.31719e-18
4.44352e-17
0.00124694
1.22693e-18
6.57768e-18
1.90987e-06
1.78513e-12
3.42906e-17
3.0353e-18
8.54525e-18
2.47129e-05
3.41833e-18
3.91128e-17
4.50248e-11
2.69061e-19
2.36506e-17
1.01165e-17
1.88459e-17
0.000125098
1.68123e-18
2.27318e-07
5.60933e-18
5.24403e-18
6.14068e-18
7.07823e-17
1.15101e-17
3.08994e-11
5.22335e-11
1.68296e-07
4.48733e-17
5.30457e-17
1.06653e-18
1.19799e-10
4.58635e-18
3.05653e-10
1.97666e-11
9.8641e-19
1.57812e-17
2.20211e-17
1.3424e-11
1.71912e-17
5.47429e-17
1.9079e-12
5.10995e-16
3.6158e-05
7.00979e-18
7.17982e-06
2.3145e-16
2.36975e-09
7.80595e-18
1.7485e-06
4.4202e-18
4.84683e-06
2.56592e-05
8.1785e-18
2.91678e-06
1.26202e-08
1.5485e-17
1.06566e-05
8.91759e-18
1.88597e-17
8.20923e-17
2.80931e-17
2.48429e-17
3.562e-19
3.43887e-17
1.44858e-17
0.000301229
2.1354e-17
1.53768e-17
6.47775e-18
1.97133e-17
6.41167e-18
3.60222e-05
0.000942278
3.0554e-09
1.57102e-08
2.4212e-19
2.07721e-06
1.42962e-06
1.2579e-16
9.75295e-17
5.7012e-16
6.11677e-19
1.39334e-17
1.7543e-17
7.18831e-17
5.47132e-17
4.71736e-07
2.67364e-16
7.37316e-19
1.65618e-07
2.66199e-09
3.57162e-18
3.09544e-05
1.10861e-17
6.00978e-17
1.97605e-17
0.000192636
1.29065e-16
1.06629e-18
2.73793e-05
1.72802e-18
3.56065e-17
2.87867e-17
2.98108e-19
5.96832e-05
2.87836e-18