/*--------------------------------*- C++ -*----------------------------------*\
  =========                 |
  \\      /  F ield         | OpenFOAM: The Open Source CFD Toolbox
   \\    /   O peration     | Website:  https://openfoam.org
    \\  /    A nd           | Version:  10
     \\/     M anipulation  |
\*---------------------------------------------------------------------------*/
FoamFile
{
    format      ascii;
    class       volScalarField;
    location    "4.3";
    object      T;
}
// * * * * * * * * * * * * * * * * * * * * * * * * * * * * * * * * * * * * * //

dimensions      [0 0 0 1 0 0 0];

internalField   nonuniform List<scalar> 
111485
(
303.15
285.142
301.119
303.15
298.643
283.15
299.179
293.373
296.569
286.313
300.696
296.31
300.383
284.594
300.183
286.758
298.97
299.248
294.377
303.15
303.15
283.15
297.525
288.709
301.554
303.15
293.322
300.516
289.111
303.15
300.791
293.894
303.15
283.15
283.473
283.15
302.318
298.188
283.149
296.858
283.15
289.814
297.268
302.903
303.187
303.15
287.533
288.568
289.854
303.15
303.15
283.15
303.15
299.142
303.15
294
287.928
283.15
283.33
295.735
296.137
303.15
302.179
300.414
283.15
284.656
300.809
291.595
302.217
302.563
303.169
301.995
303.15
302.225
303.15
295.023
283.15
293.668
283.15
283.15
283.247
293.469
283.15
303.15
300.519
284.284
283.15
301.655
303.132
299.56
283.41
289.749
301.041
300.133
290.047
303.15
303.15
301.655
303.149
283.435
303.15
286.777
283.15
285.296
285.738
283.15
283.15
292.601
301.519
283.146
299.024
288.394
301.403
301.771
303.15
302.089
303.15
283.15
300.38
303.15
303.15
283.15
283.15
283.15
283.417
303.153
283.15
301.957
303.15
283.181
303.08
302.048
303.15
283.15
283.15
292.829
283.15
294.78
299.062
301.278
303.139
297.116
299.238
284.839
302.316
298.379
283.15
303.15
283.15
297.436
285.02
303.15
303.145
287.782
283.156
294.053
295.962
302.535
283.154
303.15
303.15
292.512
286.319
283.153
283.157
301.456
283.713
283.15
283.153
283.153
283.15
303.15
283.212
283.15
291.157
287.291
283.15
303.15
303.15
283.15
303.15
303.15
297.924
293.814
296.099
290.386
301.481
300.726
283.193
303.15
301.663
303.15
303.15
300.484
286.34
301.527
301.262
296.163
303.15
300.912
284.647
283.161
300.898
296.747
303.15
300.72
288.438
303.15
283.236
300.267
284.883
300.986
303.15
303.15
300.997
283.15
293.088
283.15
300.909
299.086
290.533
303.15
301.806
300.63
283.15
283.15
283.15
289.661
283.158
283.15
303.15
299.031
292.054
290.274
283.15
303.15
303.111
303.15
284.375
300.421
299.629
299.895
299.772
283.15
283.143
299.324
283.15
283.15
288.86
288.71
283.15
301.253
299.353
303.15
283.15
301.053
303.15
303.15
303.124
303.15
288.182
285.769
291.488
303.15
298.83
303.15
303.15
303.15
283.148
298.233
301.186
299.7
291.269
299.753
296.596
283.216
290.888
292.3
283.15
303.15
283.149
292.14
298.876
286.456
303.15
298.33
297.526
299.185
302.971
283.165
297.461
299.638
302.03
283.15
283.65
283.15
283.149
303.15
283.972
290.323
286.48
303.15
283.15
298.001
285.572
303.15
303.15
303.15
284.811
290.883
301.208
284.486
293.3
283.15
283.15
303.15
298.75
303.15
283.878
289.81
283.152
283.15
303.15
303.15
283.15
294.76
290.002
283.15
296.151
283.15
303.15
301.183
297.708
294.057
296.252
283.15
283.15
283.15
297.036
291.711
302.397
283.15
283.15
283.149
290.141
297.38
283.223
290.751
283.15
293.07
299.849
284.24
298.862
285.293
283.15
303.15
283.15
303.15
290.664
296.334
288.167
292.266
283.15
286.408
283.15
303.15
294.1
303.15
301.991
303.15
283.15
292.216
283.15
289.421
284.695
283.15
284.006
298.366
283.15
300.443
284.771
299.19
303.036
291.738
285.931
283.15
303.15
303.146
283.15
301.113
300.966
283.15
283.15
294.492
284.403
298.73
296.834
283.15
295.383
296.251
283.15
302.117
283.923
303.15
303.15
288.818
298.823
283.15
303.15
303.15
303.15
300.775
283.15
303.15
294.02
283.171
287.065
300.112
283.15
283.15
302.662
283.15
302.515
301.539
298.095
289.772
283.15
294.529
303.388
303.15
298.855
292.394
303.15
283.15
283.314
283.15
290.235
286.254
292.328
283.15
293.531
296.67
293.711
303.147
283.15
303.15
303.15
283.169
293.407
283.15
284.38
303.136
283.15
303.15
303.15
303.15
301.826
291.155
286.099
284.246
284.363
283.15
285.804
303.15
300.84
283.15
303.15
303.15
300.765
303.15
303.15
283.151
303.15
283.15
300.81
283.15
283.15
283.15
303.15
283.15
303.15
283.15
283.694
283.15
303.131
301.871
283.785
283.15
303.091
283.15
303.15
284.741
284.707
286.214
297.795
283.15
297.73
297.835
292.947
287.273
285.298
303.15
292.403
283.15
300.037
283.15
297.037
283.15
292.731
298.725
303.15
283.15
287.251
303.15
295.771
299.286
283.15
283.15
283.15
283.15
303.15
293.927
283.15
283.15
283.247
283.15
299.997
283.15
284.873
303.15
283.445
303.124
284.768
292.554
283.15
301.651
283.15
283.15
285.784
283.15
283.263
283.15
299.853
303.15
290.922
303.15
283.15
302.438
284.504
300.251
285.711
300.248
289.517
283.15
300.772
284.587
283.15
283.139
300.517
301.69
283.15
282.36
301.175
303.07
283.117
303.15
287.625
302.253
284.438
285.463
288.747
282.463
283.15
303.15
300.946
303.15
283.577
283.15
283.15
292.341
282.65
303.15
303.122
283.15
286.374
299.762
283.15
283.15
299.772
303.15
283.15
283.15
283.15
286.242
283.15
303.15
284.883
284.329
303.15
299.867
283.15
288.947
303.15
283.15
286.253
283.15
283.15
283.15
285.691
283.15
285.536
292.516
303.15
300.52
283.46
298.916
301.027
283.382
283.471
283.15
289.178
298.661
303.15
302.236
296.135
297.102
284.695
297.663
297.391
303.15
300.33
303.138
283.15
297.385
284.92
283.15
292.939
295.987
284.934
298.976
300.774
292.914
283.15
299.1
283.48
303.15
300.722
302.045
294.69
283.15
286.948
303.15
283.15
283.15
283.15
283.312
283.15
303.15
303.15
283.15
300.53
299.459
303.15
285.717
303.15
303.15
303.15
290.117
283.436
283.15
303.15
283.15
283.15
287.036
292.951
283.15
295.409
283.134
283.15
295.58
302.283
288.292
283.15
283.15
300.524
292.698
283.15
283.15
283.15
294.151
303.15
303.15
283.15
296.495
302.414
283.15
282.604
302.002
286.968
283.15
283.15
287.519
302.991
283.15
283.16
287.722
283.797
289.115
283.15
285.801
300.424
283.15
303.15
283.15
283.15
283.15
283.15
295.939
303.15
283.15
283.15
295.551
292.41
303.15
303.15
290.045
298.855
298.744
303.15
283.15
298.426
303.15
283.885
299.3
298.824
303.15
303.15
303.15
283.15
286.117
283.15
283.15
302.726
303.15
298.169
302.328
283.15
294.656
283.263
296.867
292.076
283.442
290.004
283.15
283.15
297.294
288.291
290.525
283.15
283.15
298.466
295.446
283.15
283.947
284.671
283.487
303.15
303.15
303.15
290.406
283.15
300.403
283.15
284.397
297.561
298.876
292.873
283.15
283.15
303.15
295.954
283.15
283.15
303.106
283.15
283.15
303.15
283.15
299.652
283.15
283.15
283.15
283.15
283.15
303.15
283.15
283.173
298.627
303.15
302.551
283.129
283.409
283.092
285.711
283.15
284.487
290.669
283.409
303.15
283.15
300.103
283.15
300.594
283.164
283.143
286.262
297.966
283.225
291.325
297.559
283.15
283.15
299.455
300.097
283.15
297.749
291.353
297.088
283.15
283.249
283.15
297.45
296.515
283.15
300.502
297.181
283.149
300.212
283.15
295.725
283.144
303.118
283.162
283.16
283.15
283.15
284.501
283.15
302.981
283.619
283.087
303.148
303.149
303.147
283.15
283.15
294.345
303.15
303.134
283.898
283.15
283.15
303.155
303.15
283.15
303.164
283.15
283.15
303.15
303.15
303.15
303.15
283.378
283.15
283.15
283.15
303.159
283.314
283.912
294.004
283.15
283.15
283.347
283.15
283.15
283.15
287.33
294.049
283.15
283.15
283.15
283.15
283.15
283.15
284.041
283.15
303.151
291.706
283.15
303.15
303.15
303.153
303.15
303.15
283.15
303.168
283.15
283.73
283.144
303.152
283.15
303.067
284.483
292.405
303.15
303.13
284.53
303.15
283.15
303.15
283.15
294.594
293.64
284.732
303.148
283.15
293.785
283.15
283.15
303.15
283.15
295.214
283.15
303.15
283.162
298.125
303.15
284.462
283.15
283.614
283.15
283.15
283.15
303.15
286.232
283.491
284.568
283.15
283.15
286.006
283.15
283.15
303.15
284.42
303.163
298.748
303.15
303.13
303.131
283.15
303.134
283.15
283.467
289.345
300.971
283.853
283.168
283.15
283.15
283.15
303.18
283.15
302.933
303.15
293.336
303.15
288.712
283.85
303.15
283.15
303.15
283.15
301.897
303.15
303.15
286.83
300.72
283.15
283.15
283.15
283.15
283.15
283.15
300.97
283.599
303.15
303.15
303.156
303.15
300.369
284.425
283.15
302.185
303.15
301.752
283.15
302.624
283.15
283.148
303.152
283.326
302.2
300.401
283.147
283.15
289.47
303.15
293.758
303.15
283.15
303.15
283.15
283.15
283.15
300.957
302.13
303.15
303.15
303.15
302.926
283.149
303.15
293.268
283.081
303.15
297.172
297.887
296.856
283.39
283.15
283.15
283.15
283.15
295.006
283.15
295.123
283.15
303.07
289.87
283.15
302.888
283.15
283.15
302.783
283.148
302.92
283.15
303.15
283.15
302.47
283.15
303.15
283.15
283.147
283.15
283.173
283.15
283.15
303.15
292.541
300.968
296.301
297.271
303.15
303.121
283.15
283.15
286.068
283.15
283.158
302.876
298.461
302.965
303.15
283.38
283.15
303.15
283.15
303.005
283.348
298.095
283.15
303.15
288.196
303.15
283.15
283.12
295.286
283.147
283.15
283.15
283.148
303.15
283.15
303.144
303.15
303.15
290.301
303.003
303.02
289.365
293.855
283.15
283.15
303.102
289.44
283.15
303.15
284.826
283.15
303.15
283.15
283.15
283.15
298.004
283.15
302.952
283.15
300.668
283.15
283.15
283.15
283.15
283.15
283.15
285.149
283.15
283.15
283.15
283.15
283.15
283.15
292.43
283.15
298.162
302.965
283.15
302.338
283.15
302.57
303.145
291.772
288.501
303.15
291.65
284.889
303.115
303.15
303.139
294.779
288.539
283.15
287.828
283.15
283.15
283.15
283.15
287.554
283.15
283.15
291.139
303.137
285.22
283.15
283.15
302.534
283.15
283.19
303.15
299.637
283.15
283.15
302.834
283.15
303.177
303.15
283.15
288.992
298.027
292.338
285.867
292.833
294.194
283.15
283.15
302.353
290.274
293.2
284.488
283.15
294.13
283.15
303.15
300.866
298.839
283.15
297.127
283.15
292.471
297.738
303.15
283.15
283.15
301.876
283.15
283.15
300.659
295.832
283.198
290.847
283.15
283.15
302.824
300.676
283.15
300.801
283.15
300.665
283.15
283.15
300.956
283.15
283.231
301.721
283.15
283.15
302.507
283.15
287.972
303.15
290.673
303.15
303.15
303.15
301.081
283.15
283.15
299.754
283.15
302.996
283.15
283.15
303.15
283.15
288.254
283.15
283.15
288.112
288.292
283.15
283.725
283.15
303.15
302.48
283.772
301.755
283.15
283.15
283.15
283.15
283.15
283.15
283.15
283.15
283.15
283.15
283.15
303.15
283.15
283.15
283.15
283.15
283.15
283.15
283.15
283.15
303.15
287.011
283.15
283.15
283.15
295.074
283.15
303.15
303.031
283.15
283.15
295.082
283.15
283.15
302.026
295.546
283.15
303.555
303.568
283.15
301.6
294.332
297.835
301.632
298.585
303.15
283.15
296.125
292.19
301.581
283.15
302.261
302.447
301.067
287.864
287.029
301.242
301.737
301.922
303.15
285.977
297.91
285.671
297.623
283.15
283.15
283.15
303.15
283.15
292.429
298.262
283.15
283.15
283.15
283.15
283.15
303.15
283.15
303.15
292.018
303.137
299.342
302.852
283.15
283.15
285.465
283.168
283.15
283.15
301.707
303.15
283.15
298.5
299.808
297.881
298.842
300.946
303.15
290.624
302.623
303.15
303.15
300.494
303.15
283.15
282.899
295.785
302.961
283.15
303.15
289.853
286.288
296.628
292.628
302.519
303.15
303.138
303.15
303.15
283.15
298.958
283.15
292.224
290.538
299.94
284.785
303.15
302.088
303.15
283.15
303.15
303.15
291.357
300.072
283.15
303.15
303.136
292.2
303.051
299.711
293.311
288.093
293.374
283.15
303.15
283.15
291.55
298.739
303.151
303.15
303.15
303.15
297.679
302.571
283.15
300.346
301.26
285.024
299.906
303.15
303.15
299.102
293.425
283.15
302.922
299.885
302.626
292.428
297.78
298.654
303.15
286.823
297.903
291.812
283.15
289.385
303.15
288.423
301.284
303.15
288.55
301.469
300.201
293.609
283.148
283.16
283.246
301.884
301.147
303.15
288.458
301.639
303.15
283.15
303.15
303.207
299.047
291.475
296.877
303.242
283.149
297.836
303.15
303.15
293.278
303.15
300.235
283.319
301.507
291.025
303.15
283.681
293.717
303.15
283.021
299.129
303.15
301.015
286.237
303.15
303.15
284.01
303.15
283.15
283.15
285.718
299.563
291.487
303.15
285.348
297.977
283.15
299.333
299.36
288.719
303.12
283.15
301.404
299.103
299.331
300.454
288.351
291.04
302.491
303.15
301.712
288.591
303.15
299.34
283.15
283.15
303.15
283.15
303.15
297.567
283.15
300.876
283.673
303.15
283.847
283.15
289.595
303.15
303.146
303.15
294.292
303.006
303.123
300.169
290.018
289.485
290.136
298.875
303.15
299.762
292.587
299.318
303.15
283.878
283.479
299.644
287.272
283.535
303.15
283.15
303.15
285.458
303.15
303.283
284.652
303.277
302.966
303.15
303.15
283.15
300.776
300.652
285.829
303.094
286.732
296.133
301.825
292.923
288.662
302.046
296.56
283.15
283.15
303.15
285.875
289.619
283.15
283.15
303.15
301.958
289.217
303.15
296.831
303.15
283.156
285.312
301.117
303.15
303.15
292.709
303.15
283.316
290.23
283.15
297.495
294.709
295.553
303.15
302.749
283.15
302.709
293.725
303.15
303.15
288.469
283.15
303.15
301.951
284.596
303.15
303.15
283.15
302.373
303.383
289.781
299.89
298.088
303.15
303.158
302.642
303.15
283.15
303.15
303.15
303.15
303.15
303.15
303.15
303.15
283.15
303.15
303.15
283.36
303.15
303.299
303.15
303.161
303.15
303.15
301.077
303.671
303.15
292.264
303.15
303.15
283.15
302.605
303.15
302.194
303.118
283.299
283.15
303.15
302.947
283.149
303.15
303.15
291.706
283.15
292.936
283.15
283.15
283.152
291.555
284.858
303.15
296.767
283.15
303.62
303.135
284.303
302.64
283.15
292.512
303.086
301.749
283.15
303.15
283.15
303.922
284.794
296.677
303.15
303.15
303.15
303.15
303.15
303.15
302.42
302.841
297.651
292.371
303.15
287.351
292.971
284.98
303.204
283.15
286.861
302.789
284.778
283.147
287.448
303.15
283.403
302.941
292.874
302.874
301.981
303.15
302.261
303.15
303.15
298.29
303.15
284.572
303.15
303.15
283.15
303.15
303.15
302.874
303.15
283.306
283.15
283.15
285.99
284.971
300.79
286.262
303.15
295.28
303.15
290.59
303.15
287.369
300.825
301.592
293.545
303.15
303.15
303.15
289.521
283.15
303.15
289.279
283.15
283.15
301.917
303.15
286.169
283.148
283.15
303.15
303.15
300.641
298.456
303.15
294.101
303.047
283.15
298.648
303.15
286.244
288.277
302.137
303.15
296.498
296.548
302.968
301.971
301.71
303.15
303.15
303.147
303.15
283.15
303.15
289.299
300.1
294.283
302.204
283.15
300.526
291.729
298.488
283.638
298.572
289.879
302.235
283.15
283.15
283.15
302.277
283.15
290.657
283.15
301.378
303.16
289.456
297.747
283.15
303.15
301.366
301.344
303.15
283.15
303.15
286.243
301.559
302.994
302.407
297.906
288.408
303.15
303.15
303.15
294.919
286.144
290.309
296.165
283.967
302.976
303.15
303.15
283.15
283.15
285.281
299.769
303.15
303.15
283.15
303.15
303.15
303.15
300.429
303.15
285.471
293.145
283.15
283.254
293.516
285.571
303.15
303.15
301.981
303.15
299.409
283.146
297.591
303.15
303.15
283.15
303.15
303.15
303.15
305.472
303.15
301.933
301.055
303.15
303.15
301.721
303.15
283.15
287.29
303.123
303.15
303.15
303.15
298.464
303.15
303.15
302.595
302.543
301.877
303.15
283.15
303.15
302.124
302.564
301.631
302.599
283.15
301.029
287.976
297.313
283.15
303.15
303.15
303.15
303.15
294.55
287.544
299.529
303.15
303.15
303.15
303.15
283.15
303.149
285.05
285.108
283.15
303.15
303.15
283.147
299.757
295.273
283.15
303.15
303.15
303.15
303.15
289.524
289.848
303.15
303.15
302.409
303.15
301.349
283.972
292.148
303.15
283.15
301.052
303.128
303.15
303.384
301.518
287.047
303.15
303.15
303.15
303.15
292.97
284.296
303.15
302.732
298.329
290.281
303.15
303.15
303.15
303.15
299.724
303.151
303.15
303.15
298.774
302.6
288.807
303.15
303.15
298.024
303.15
303.15
303.15
303.15
288.861
303.15
283.15
283.15
296.524
291.254
303.15
303.15
303.15
297.258
303.147
303.15
303.15
303.15
303.15
303.454
301.017
303.15
287.432
302.691
299.662
303.15
303.15
303.15
303.15
283.15
285.835
303.15
302.832
283.15
302.25
303.15
303.138
303.15
283.15
301.958
286.197
283.15
302.861
303.15
302.473
283.15
303.15
303.15
303.151
303.15
283.28
303.15
290.89
283.15
283.15
303.15
303.15
299.32
302.429
283.15
302.501
283.15
284.179
288.179
302.732
283.15
303.154
303.001
303.136
284.491
283.156
303
283.15
283.15
283.156
302.232
302.359
303.15
283.15
283.15
296.156
303.15
283.15
303.15
303.15
303.15
303.102
303.057
302.956
302.512
303.15
302.937
303.15
284.921
303.15
303.15
283.15
303.15
303.113
303.15
283.15
303.15
288.327
303.15
303.15
303.189
283.15
303.184
302.509
297.585
303.15
290.442
295.906
284.158
290.97
283.15
283.15
287.216
284.398
283.15
303.685
283.15
286.417
303.15
283.15
303.156
303.15
303.15
303.023
303.155
303.15
283.15
303.14
303.15
283.15
283.102
298.933
302.738
303.15
301.915
303.15
285.603
303.151
301.287
303.15
303.15
301.144
303.15
303.15
303.15
287.719
303.15
285.179
303.15
303.147
303.15
283.15
283.15
303.15
303.15
303.15
288.797
302.598
303.15
303.15
288.89
286.55
291.72
303.15
302.734
287.698
287.639
303.15
303.15
288.122
283.15
292.226
303.15
303.152
303.149
303.15
300.774
283.15
302.34
283.15
303.15
303.15
303.15
303.15
303.15
284.405
302.278
291.376
303.15
303.15
290.901
303.15
303.15
303.15
303.15
303.15
300.519
303.15
303.15
283.15
299.887
303.15
283.15
303.15
301.542
283.15
300.312
290.743
302.71
300.368
299.853
303.15
303.15
303.15
301.199
288.96
283.15
303.15
300.624
303.15
303.15
292.319
303.15
287.59
303.15
298.34
284.404
303.15
283.15
303.15
303.15
303.15
285.393
303.15
300.764
303.15
303.15
300.051
283.15
284.847
303.15
303.15
288.336
301.475
296.735
303.15
303.15
303.15
301.49
292.521
303.15
283.15
303.15
300.979
303.15
284.869
296.621
303.15
303.15
301.364
303.15
303.15
283.15
303.15
283.15
294.952
303.15
283.15
303.15
303.15
303.15
303.15
303.15
303.15
283.15
301.437
283.15
302.176
303.15
303.15
296.292
300.751
303.15
283.15
303.15
301.131
283.15
303.15
303.15
303.15
300.718
303.15
297.953
303.15
285.997
283.15
286.814
303.15
303.15
298.7
283.15
303.15
288.316
283.252
303.15
303.15
285.19
283.904
301.066
301.88
301.396
293.268
301.865
283.885
303.15
298.026
283.15
283.15
303.15
303.15
303.15
301.448
303.15
303.15
303.15
303.133
283.171
283.15
283.587
303.15
302.075
283.15
303.144
296.517
283.15
294.78
303.15
303.15
283.15
300.169
283.962
303.15
283.15
300.215
303.15
297.902
303.15
295.569
303.15
283.15
303.15
283.15
299.456
283.15
283.237
283.15
286.27
303.15
303.15
283.15
283.15
303.15
303.15
303.15
303.15
284.918
284.938
283.15
303.15
283.237
283.15
283.15
303.155
290.169
283.564
283.15
301.694
284.973
300.439
288.432
303.15
303.15
303.15
303.15
283.15
283.15
283.15
303.15
283.15
283.15
303.15
283.15
297.449
283.15
303.15
283.15
303.15
303.15
283.531
283.15
303.15
302.034
303.149
303.15
303.15
303.15
288.747
283.15
303.15
303.149
283.15
303.15
303.15
303.15
295.365
283.15
283.192
303.15
303.15
303.15
303.15
303.15
303.15
303.147
284.175
303.15
283.15
303.15
303.15
303.15
303.148
303.149
283.15
283.15
283.15
303.15
303.15
283.15
303.15
283.15
287.777
283.15
301.895
283.15
303.154
303.15
284.644
283.15
284.488
297.62
303.15
284.726
303.171
303.15
297.63
283.15
303.15
303.15
303.15
303.15
283.15
303.15
303.15
299.349
283.15
303.15
303.15
303.15
303.15
292.336
291.237
303.168
283.168
303.15
301.908
302.387
303.15
283.15
283.15
303.15
303.15
303.15
283.15
283.15
283.84
303.15
303.15
303.19
303.151
283.15
289.106
303.15
283.15
303.15
288.282
303.15
283.15
302.177
283.15
283.15
283.15
303.15
299.809
303.15
303.15
303.15
283.15
284.546
293.82
295.5
289.823
303.127
303.031
283.15
283.15
301.165
283.711
283.15
303.149
303.15
303.15
283.15
294.799
303.15
283.15
302.995
303.15
303.15
283.823
303.15
303.15
288.627
289.828
303.15
283.15
303.15
283.15
303.15
303.15
303.15
303.15
283.971
303.15
303.15
303.15
302.949
303.15
303.15
283.15
283.15
283.15
283.15
302.961
283.15
283.15
301.078
303.15
284.814
284.976
303.15
301.251
303.15
283.15
303.15
283.15
283.15
303.15
303.15
303.15
302.716
303.15
303.15
303.15
283.15
303.15
283.15
286.479
303.15
303.15
291.804
303.15
283.15
283.15
302.482
303.15
303.148
283.15
303.201
286.82
283.15
283.15
299.378
283.15
283.15
303.058
303.16
293.072
303.165
303.151
303.152
283.15
283.15
302.68
283.481
285.991
300.996
283.16
283.15
290.716
301.671
301.59
283.15
300.373
290.23
300.098
302.285
302.822
284.786
296.095
299.426
286.092
293.851
300.268
303.15
297.456
298.168
302.812
283.696
293.026
301.28
287.15
303.15
301.184
303.15
300.686
301.597
283.664
285.084
303.15
283.15
302.294
301.775
283.145
303.171
288.252
302.719
301.975
300.957
303.15
303.217
301.264
295.327
300.359
289.314
302.945
301.665
302.181
302.366
284.291
302.548
301.744
283.179
303.15
302.916
303.15
303.15
302.159
302.193
294.801
303.15
284.766
292.467
292.312
301.253
303.15
284.083
285.216
284.435
303.15
299.268
303.15
296.364
295.547
300.867
303.144
303.15
303.15
302.038
301.377
302.812
303.15
292.659
302.781
290.256
283.15
298.327
293.874
303.15
300.439
283.15
283.207
283.15
302.627
303.11
303.15
302.99
298.769
283.148
300.632
302.29
295.027
283.563
296.067
297.333
283.489
303.135
284.848
295.8
283.328
297.158
300.62
300.405
300.651
302.048
290.336
301.747
303.15
302.759
302.695
302.682
296.046
302.904
283.15
302.095
293.305
303.15
283.448
286.549
301.314
302.63
290.266
284.796
287.82
302.657
296.573
303.15
303.15
295.189
283.15
292.841
283.445
303.15
290.157
290.438
283.933
303.15
297.275
298.418
284.296
301.378
294.115
289.816
300.551
303.113
303.15
303.15
283.584
302.66
283.359
285.938
303.15
303.027
303.048
303.15
285.453
300.816
298.418
283.262
299.7
302.423
300.625
287.109
283.15
303.11
301.868
283.786
283.147
303.15
303.083
303.15
303.15
284.248
302.584
296.334
283.052
283.152
303.15
283.15
302.971
303.054
302.574
301.551
303.15
283.15
283.15
301.937
301.993
283.23
295.696
303.15
303.15
301.748
285.652
283.266
301.807
301.902
301.826
284.447
303.15
283.15
298.519
297.781
303.15
302.736
302.148
284.999
285.082
302.189
303.057
303.15
298.416
284.463
283.15
303.15
300.372
301.492
302.134
289.716
302.147
285.81
300.557
300.153
290.354
298.098
303.15
303.15
301.162
284.636
302.158
283.151
300.659
301.794
283.658
288.27
302.467
283.15
283.15
283.028
303.15
303.15
300.132
298.88
302.333
283.146
283.15
283.997
283.15
283.15
283.152
303.084
301.058
299.359
296.43
283.387
303.106
300.453
303.15
283.15
302.609
289.001
300.982
292.311
283.53
303.067
283.148
283.15
302.854
301.466
302.646
283.158
291.524
284.964
303.15
284.335
301.065
283.15
283.316
285.069
284.48
283.15
283.15
301.758
283.15
289.754
302.583
302.735
301.815
283.501
299.101
290.649
283.15
303.301
292.274
283.15
283.15
283.15
303.15
301.156
302.477
299.219
301.584
299.848
289.104
283.155
290.639
289.758
303.067
291.357
300.312
292.117
283.15
286.388
301.206
301.636
283.15
284.048
299.821
283.15
303.15
283.192
301.376
303.15
284.047
302.282
303.032
303.15
283.15
292.608
303.153
301.792
283.15
283.15
283.15
302.25
297.84
303.141
302.206
303.164
303.15
288.844
303.164
290.456
300.46
300.43
297.088
283.158
301.844
283.15
290.44
301.638
289.918
290.448
299.304
301.055
301.779
287.028
290.68
285.143
283.176
302.275
286.203
283.148
283.145
300.405
283.076
300.58
287.363
295.859
299.828
289.462
299.689
283.121
298.788
283.15
290.224
289.968
298.722
283.346
283.15
300.698
283.15
302.818
283.15
303.15
286.452
286.556
283.15
299.409
298.549
287.193
303.15
303.15
301.817
289.516
303.038
283.771
301.752
287.311
303.147
284.262
288.372
303.15
301.54
283.15
283.15
287.535
287.438
283.145
285.389
301.682
286.379
301.212
303.15
285.29
301.899
291.318
303.15
303.15
301.724
302.119
303.15
293.198
293.884
283.721
297.029
287.248
290.173
303.15
302.929
297.433
285.15
283.15
287.687
292.026
299.805
283.167
283.802
282.906
302.041
303.131
283.15
303.136
303.15
300.636
293.275
299.305
294.347
283.15
291.491
296.259
285.685
283.215
292.796
283.15
300.14
303.164
292.817
284.146
303.145
291.628
298.947
288.457
300.11
290.823
287.526
283.15
303.142
285.396
290.432
293.686
283.15
283.15
283.15
303.142
283.15
283.136
286.545
303.15
283.15
303.164
283.174
290.875
289.657
303.371
302.933
290.085
303.15
297.578
303.171
302.088
287.518
283.15
293.582
303.146
303.1
286.553
283.15
283.15
283.487
286.193
303.064
303.145
287.618
289.591
283.517
283.163
289.667
293.076
303.15
283.15
303.108
303.15
302.393
285.003
302.317
303.099
284.132
283.835
284.108
302.865
302.238
297.148
294.085
303.08
291.472
290.665
303.15
303.103
302.638
285.547
283.399
303.15
286.008
283.4
302.952
301.686
302.25
283.15
300.518
301.957
303.15
302.22
285.459
303.15
298.133
303.15
283.15
300.886
302.713
286.443
302.554
283.15
285.372
303.021
283.15
302.35
285.381
294.964
284.383
303.15
303.026
302.885
286.567
283.15
287.19
284.342
289.918
286.002
302.351
303.15
283.15
283.15
292.651
283.15
301.012
302.28
289.959
283.15
293.692
283.15
303.15
283.15
300.013
299.101
283.151
285.369
301.698
303.103
303.156
292.2
294.516
301.404
283.235
301.768
283.145
303.15
303.149
299.665
283.15
301.817
295.365
303.15
300.909
287.386
301.911
284.829
288.473
283.15
302.332
287.84
298.61
303.081
283.15
303.15
291.761
302.279
283.075
283.147
286.977
298.56
303.15
284.661
301.225
301.172
301.424
303.152
300.21
287.763
284.992
301.797
300.172
283.77
283.095
303.158
303.149
303.15
297.885
283.162
283.15
303.15
303.149
289.876
298.67
300.078
287.886
302.82
303.15
286.204
301.614
303.15
300.921
283.819
301.575
303.15
284.655
301.267
294.992
302.773
303.15
303.15
285.267
295.649
296.945
287.768
303.15
303.15
283.15
287.296
302.447
296.725
303.15
285.688
303.15
303.15
300.151
288.63
283.15
296.091
296.441
298.703
283.15
303.15
292.414
287.298
303.15
298.47
300.885
300.791
303.15
303.15
303.15
300.618
298.833
302.824
300.298
283.15
292.413
287.809
290.905
300.713
303.15
303.15
301.102
303.105
286.715
296.374
303.15
303.148
283.15
286.397
299.136
285.659
303.15
303.15
283.359
303.127
303.15
303.15
283.15
290.463
303.15
303.15
284.674
299.335
283.15
303.15
284.65
301.557
300.474
287.06
294.788
303.15
283.517
303.15
303.15
283.301
300.713
290.481
300.677
303.15
303.135
302.22
293.044
299.919
301.443
284.48
283.485
300.852
298.89
303.15
302.786
284.21
300.179
301.528
287.884
303.15
297.417
301.553
301.635
301.676
292.459
303.15
283.15
299.259
283.15
283.15
287.78
283.15
284.022
283.15
283.15
283.15
283.15
302.778
287.775
302.731
283.15
296.199
290.901
284.805
283.15
303.15
302.709
301.767
303.182
302.668
283.15
295.38
300.581
289.86
283.15
283.15
299.913
285.765
283.15
283.15
303.149
290.572
283.15
287.281
303.15
303.152
284.333
283.15
288.434
293.322
300.57
294.015
302.969
285.755
302.549
295.251
286.352
283.15
283.562
291.777
303.096
289.339
302.684
283.15
292.299
287.786
300.977
301.242
285.011
303.117
285.154
297.285
302.991
303.148
285.025
303.146
303.016
293.418
302.688
283.15
303.15
303.15
294.923
291.239
283.155
301.213
284.719
284.178
284.676
303.145
288.359
300.753
283.15
283.15
302.545
303.151
294.713
302.918
303.18
299.975
303.214
302.909
283.15
301.556
302.904
283.15
303.15
301.212
303.15
284.391
298.948
283.166
291.863
283.15
287.61
303.03
300.173
283.15
303.037
290.483
301.291
303.133
303.083
283.15
283.15
301.912
302.071
283.817
302.843
302.46
302.435
303.141
283.15
294.365
283.15
302.82
287.801
302.999
303.15
283.15
302.855
285.231
291.449
302.122
283.15
302.619
302.068
301.717
302.526
303.055
303.199
303.02
303.15
283.15
301.519
298.015
303.092
303.15
290.319
285.183
303.15
283.15
285.516
303.183
303.163
302.933
301.228
284.332
303.102
290.781
293.791
303.148
289.139
303.162
283.15
290.292
283.15
300.106
298.346
284.854
288.291
299.742
296.123
295.321
299.313
293.892
303.152
293.919
296.604
283.157
299.518
293.471
303.15
299.367
299.287
303.15
291.728
303.171
301.737
303.15
286.969
286.018
302.816
289.685
283.15
283.15
300.44
301.138
283.764
283.15
303.15
300.331
302.376
300.801
300.16
302.806
292.51
289.661
286.651
292.34
284.337
290.786
283.313
295.681
290.383
294.024
287.277
284.28
303.162
283.279
303.147
285.862
300.82
283.151
300.229
297.917
288.735
302.119
285.406
299.268
283.15
302.965
283.156
283.11
288.037
299.785
303.15
300.306
303.03
299.905
302.784
303.15
301.358
284.994
295.566
302.107
303.149
283.722
283.15
290.587
285.096
285.801
303.149
303.149
283.15
283.15
283.178
303.15
293.52
303.15
303.155
295.166
303.434
303.15
300.155
303.15
303.15
293.716
290.62
303.15
289.838
302.138
289.573
303.15
303.15
286.14
283.346
290.418
303.216
303.15
303.146
285.52
283.271
283.15
289.062
287.729
303.15
284.323
303.15
303.15
303.133
287.375
303.15
303.147
283.289
303.152
302.692
287.95
283.151
283.64
297.368
290.868
303.15
285.951
284.615
301.475
287.076
302.263
290.162
293.911
303.15
303.15
284.034
303.152
302.965
295.738
302.962
302.764
287.14
283.15
285.522
283.224
297.668
302.63
285.632
303.15
283.843
286.753
303.129
283.177
303.15
286.612
283.15
299.782
303.15
299.854
300.077
283.317
283.377
302.358
291.525
301.347
303.15
301.477
301.818
303.15
303.15
298.449
293.681
283.15
289.058
303.15
294.93
283.376
303.15
296.971
298.886
289.034
303.15
302.78
294.8
295.617
284.492
303.161
299.167
296.36
283.991
303.128
302.822
287.513
298.643
289.455
290.566
289.74
283.15
302.968
303.151
303.15
303.169
293.363
296.542
302.984
301.368
303.15
284.407
303.15
303.052
302.874
303.15
293.799
296.247
303.15
285.467
303.101
303.15
303.098
303.155
286.173
293.607
291.104
288.418
292.886
303.15
301.46
291.707
295.493
293.497
303.141
303.15
300.623
303.185
284.359
303.186
303.15
303.15
303.143
303.15
285.028
303.15
284.293
303.147
303.15
290.398
303.145
292.723
295.606
303.135
295.656
285.813
283.444
303.128
302.945
284.751
283.15
297.067
303.15
285.583
302.927
302.132
303.025
298.449
287.176
303.15
298.474
289.917
299.468
283.15
283.647
303.15
303.145
303.188
293.662
303.15
292.526
289.364
303.192
303.15
284.893
299.213
293.504
299.958
302.518
301.527
300.629
303.15
284.729
296.9
302.386
285.714
298.009
292.194
284.536
291.98
303.15
286.855
292.23
289.703
299.708
303.15
286.426
284.059
303.15
302.498
288.162
302.053
283.15
303.15
300.023
301.816
289.553
302.097
301.926
301.968
303.15
289.633
285.176
302.058
302.313
297.356
303.15
283.204
303.15
302.096
303.15
302.85
303.15
291.91
303.15
296.753
283.15
289.739
303.15
283.15
291.581
301.642
300.654
289.245
300.735
303.15
302.526
303.15
302.332
285.465
303.15
300.639
290.332
303.15
301.014
303.15
303.15
292.884
283.15
285.627
293.266
301.124
303.15
291.756
294.24
288.308
289.562
288.071
299.231
300.196
301
287.425
287.129
301.454
283.15
303.15
303.15
303.15