/*--------------------------------*- C++ -*----------------------------------*\
  =========                 |
  \\      /  F ield         | OpenFOAM: The Open Source CFD Toolbox
   \\    /   O peration     | Website:  https://openfoam.org
    \\  /    A nd           | Version:  10
     \\/     M anipulation  |
\*---------------------------------------------------------------------------*/
FoamFile
{
    format      ascii;
    class       volScalarField;
    location    "64";
    object      SgP;
}
// * * * * * * * * * * * * * * * * * * * * * * * * * * * * * * * * * * * * * //

dimensions      [1 -1 -3 -1 0 0 0];

internalField   nonuniform List<scalar> 
59698
(
0.00309507
0.00183544
0.00231271
0.00271391
1.14672e-06
0.00145199
0.00249694
1.07162e-07
1.98592e-09
3.91342e-09
0.000586478
1.78842e-09
1.58109e-09
0.00228616
2.75993e-08
4.26146e-07
9.40741e-09
3.82453e-09
1.61726e-09
5.9853e-10
0.000366139
1.5613e-06
0.0004998
8.819e-08
1.98291e-07
1.19661e-09
1.18635e-09
0.00248153
0.00239318
2.08279e-09
1.3523e-07
0.000600676
6.68055e-08
0.00403553
1.11587e-06
3.80412e-09
0.000465453
5.07649e-07
1.72986e-08
0.00245351
2.95701e-08
2.30468e-07
2.30413e-08
2.46777e-08
0.000402107
1.04717e-07
2.66221e-09
4.88582e-08
0.00290848
3.14716e-08
2.96314e-10
2.34124e-09
0.00172823
0.00272941
0.00216797
2.04309e-09
8.45108e-08
1.57081e-08
1.77478e-08
2.75791e-05
0.00178296
6.27922e-08
1.99383e-07
1.54242e-09
4.98014e-07
4.16008e-08
1.75138e-09
3.25409e-09
4.20368e-09
6.7724e-09
6.4374e-07
2.7917e-08
0.000359783
1.49923e-06
0.000411952
1.01887e-06
2.1513e-08
2.2078e-08
6.40783e-09
9.43605e-09
4.80065e-07
9.89964e-10
4.02292e-09
8.03071e-09
1.69369e-05
3.13801e-08
9.14762e-09
2.23044e-07
2.34373e-06
2.31405e-08
4.5089e-09
6.3601e-08
1.74187e-07
6.56647e-09
6.0662e-08
0.00359101
1.36538e-07
6.18874e-08
5.06046e-08
8.59598e-10
0.00353776
2.07488e-05
2.95114e-07
0.00329217
5.29055e-08
0.000564774
2.32513e-09
2.29825e-09
2.7015e-09
4.39575e-10
3.60094e-08
2.64543e-06
1.35896e-06
1.56283e-07
9.75842e-08
3.48833e-08
3.49051e-07
0.00353381
2.92557e-07
1.14205e-08
2.27921e-09
2.98506e-07
2.25669e-07
3.35085e-09
1.62049e-09
7.94964e-09
8.37751e-09
7.20612e-09
1.25088e-08
3.89785e-07
0.00335573
3.8958e-09
1.10284e-09
1.83519e-07
6.27629e-08
3.22484e-09
4.95349e-07
2.13024e-10
1.72514e-09
5.70119e-09
2.0827e-08
0.00231722
0.00252087
1.58372e-09
1.92374e-07
7.93527e-10
5.39544e-07
3.82154e-07
0.00448849
7.06603e-07
0.000257378
0.000434379
2.81326e-08
2.57322e-07
9.52036e-09
1.04559e-07
7.3963e-09
0.00162893
6.72049e-08
5.39824e-10
3.10075e-09
7.70651e-09
2.22012e-08
9.72935e-08
1.87756e-08
0.00222856
1.05964e-09
0.000568104
0.00152524
6.92303e-09
2.55291e-07
1.51364e-06
2.17206e-07
9.23421e-07
5.76899e-07
0.00121905
4.41049e-09
0.00139578
0.000326014
0.00293211
2.25528e-06
7.42175e-07
3.99519e-07
1.13031e-08
2.50076e-07
6.90259e-08
3.71268e-07
0.00238042
1.36214e-10
1.83352e-08
6.43583e-09
7.05115e-09
2.29839e-08
6.06473e-07
1.21951e-07
0.0041675
1.83184e-06
0.00294341
1.26607e-05
9.1047e-08
0.000227107
6.73733e-07
1.52905e-09
2.54343e-09
0.0035671
0.00244692
3.60311e-08
0.00205808
0.00270771
0.0035024
0.00242675
6.10786e-09
0.00262731
1.56833e-08
2.34187e-09
0.00336722
9.86619e-09
4.54685e-08
1.55128e-07
4.6594e-09
1.37003e-05
0.00217439
1.72709e-09
5.08634e-07
8.90122e-09
0.00274702
2.11143e-08
5.4995e-09
4.88345e-08
6.94522e-07
7.57388e-09
1.87126e-08
7.42311e-09
1.13492e-08
9.50366e-09
9.21334e-09
3.05937e-07
1.95351e-08
1.76492e-07
8.18723e-09
0.00261416
1.18964e-07
3.43885e-08
0.000664542
8.77019e-09
2.15027e-07
2.28728e-05
3.53136e-06
5.28054e-09
4.95773e-09
6.15437e-08
6.52653e-09
3.09763e-08
0.000233555
1.91484e-08
0.00169894
1.10125e-07
5.41008e-08
0.00314709
2.88524e-09
7.0107e-06
1.79598e-09
7.8246e-09
0.00270866
0.00357797
8.54946e-07
1.0847e-09
1.07228e-07
1.97717e-08
6.05423e-10
3.12496e-09
1.54066e-06
6.89858e-05
6.64594e-10
1.25043e-07
5.01449e-08
0.00147762
3.97853e-08
2.96206e-09
1.22854e-09
0.000574136
1.78943e-09
1.66215e-09
4.70032e-07
0.00334945
1.01934e-07
5.28193e-09
0.000647029
3.8224e-07
1.01068e-07
2.7256e-06
0.00232502
9.2484e-09
1.35278e-09
7.04032e-07
0.00273233
4.7271e-10
1.52386e-07
1.45047e-08
6.42273e-07
3.08084e-09
2.25901e-09
6.86639e-08
5.73012e-10
1.07486e-09
1.15545e-09
3.61749e-07
2.19459e-08
5.34155e-09
5.25222e-10
0.00190128
4.21519e-08
3.76365e-09
2.37958e-08
0.001915
5.582e-09
0.000403389
8.31273e-09
0.000829308
8.51844e-08
9.53025e-08
3.17737e-07
1.67472e-08
2.99019e-09
1.80611e-06
2.5654e-07
1.60841e-08
8.70126e-09
4.27868e-10
0.000361922
0.0028998
4.02162e-08
3.57915e-07
2.45447e-06
0.000430952
1.03899e-08
7.76381e-09
4.28379e-09
1.39615e-07
0.00122092
2.13358e-08
0.00206209
0.00250596
4.94828e-09
9.9803e-08
1.36431e-09
2.60893e-10
1.24639e-06
1.34612e-09
0.00203388
9.25684e-10
1.4041e-08
1.24779e-06
7.9422e-10
9.43704e-07
0.00191571
2.69923e-06
1.44031e-08
3.26814e-08
1.82432e-09
2.10024e-08
1.08558e-08
1.10628e-07
3.59282e-09
1.07872e-10
1.04126e-07
0.00279683
0.00201716
2.83007e-08
9.68428e-07
1.1324e-07
0.000533989
0.00366893
0.00065112
2.0889e-08
2.99305e-09
3.63562e-08
2.05705e-09
0.000460524
2.49359e-09
0.000347123
4.46099e-08
4.29449e-08
5.15478e-08
8.57622e-10
6.78665e-06
1.0913e-08
0.000544823
8.16393e-10
3.36359e-08
2.08505e-08
0.000457512
0.00330064
3.28014e-09
5.38226e-05
0.00179774
3.56316e-06
0.00182706
0.00269784
8.14987e-08
0.00243874
0.00236487
0.00257382
5.41521e-09
0.00148346
0.0041784
0.00383879
0.00276237
5.97336e-09
8.22882e-07
1.88342e-07
0.000404301
0.00163746
0.000434528
4.70487e-10
2.03479e-07
2.02494e-09
2.30246e-06
0.00189762
0.00175623
0.00292211
0.00218236
0.00249161
0.0016623
7.82131e-09
2.05015e-09
7.88503e-09
1.74836e-08
0.00138447
5.1194e-10
7.7973e-09
0.00196016
0.0011653
2.34748e-08
3.72e-08
1.44941e-08
1.38956e-08
0.00125788
3.33243e-09
0.00211838
1.92328e-07
0.00321067
5.0348e-09
4.39939e-08
1.86349e-07
2.03189e-06
8.5985e-08
4.524e-10
2.12971e-09
1.28836e-07
0.00254331
6.63126e-09
7.21812e-08
1.96896e-06
6.11067e-07
1.14948e-07
3.39757e-07
1.41834e-09
1.15154e-06
1.66406e-07
6.11291e-08
4.62527e-09
0.00320879
6.28774e-09
2.20052e-09
2.03179e-07
3.50889e-07
9.28239e-09
4.35656e-08
6.17393e-09
0.00247474
4.41301e-09
2.13088e-10
6.91232e-09
6.29203e-08
2.03659e-06
8.18657e-07
2.20198e-09
0.00300902
0.00194627
2.34408e-08
2.14482e-07
1.59836e-08
1.92541e-08
2.52072e-07
4.11961e-08
4.43251e-08
1.96907e-08
1.57824e-09
1.65043e-09
2.50515e-07
4.09219e-07
3.85895e-10
4.23451e-08
0.00402081
2.12856e-07
1.5358e-08
0.00236662
3.71983e-08
0.000365618
9.74669e-10
1.18403e-07
2.03755e-07
1.21072e-08
1.70997e-08
1.12017e-09
8.17014e-08
2.14658e-09
5.25759e-09
8.2622e-09
5.75832e-09
7.81297e-09
1.3456e-06
5.41924e-08
1.60531e-08
2.67526e-09
6.88681e-09
1.00314e-08
7.0374e-08
2.48466e-08
1.71764e-08
3.47149e-09
5.07506e-09
3.84934e-09
2.18902e-09
6.32182e-06
3.30113e-08
2.81407e-09
0.00339753
0.00370813
2.92973e-09
0.00383659
1.82777e-08
5.5364e-09
0.0014513
3.55083e-10
1.35533e-08
0.00178834
1.90742e-09
0.000384873
4.298e-08
2.57286e-09
4.50185e-08
2.98127e-06
1.48429e-08
5.16842e-09
8.91533e-06
0.000167077
1.87474e-08
7.50836e-06
1.83448e-08
2.28723e-09
3.10676e-08
1.9211e-09
5.00733e-09
1.43141e-08
1.93023e-08
1.62083e-08
2.5861e-09
2.23215e-09
0.000768499
1.73869e-09
1.65513e-08
1.03008e-05
1.51098e-08
1.81258e-09
1.21855e-06
2.25144e-08
8.56789e-09
0.000539255
7.78142e-10
7.5927e-09
1.96498e-07
1.57451e-09
4.4201e-08
1.31052e-09
3.16879e-10
4.30911e-10
0.00200346
2.30956e-09
0.000732637
3.90385e-08
0.00320722
1.49739e-08
3.28198e-09
0.00031335
1.14774e-09
1.36332e-08
1.78176e-08
1.63943e-08
1.99017e-09
0.00316742
8.11258e-09
1.67421e-08
8.51636e-10
4.17813e-08
9.25274e-07
0.00264878
0.000349776
7.29735e-09
7.9381e-09
1.64794e-09
2.7904e-09
0.00337485
1.35486e-08
4.43219e-09
2.51122e-09
0.00108755
0.00385604
1.52879e-08
1.25002e-08
1.5658e-09
1.10987e-08
4.294e-09
4.12619e-09
5.16751e-09
4.95771e-09
3.6494e-08
7.81657e-05
7.31443e-09
5.01863e-09
7.85484e-09
1.81885e-08
2.54597e-05
0.00241927
1.09075e-08
0.00266351
1.631e-09
8.78195e-09
4.3293e-09
0.00269466
0.00021123
9.67777e-10
8.41039e-09
6.78427e-10
2.85901e-08
6.32772e-09
2.8641e-09
0.00151549
0.00323679
1.27989e-07
1.6258e-07
0.000607886
1.45033e-09
5.11574e-09
1.59985e-09
4.12183e-07
0.00210678
3.37999e-08
1.75301e-09
0.000439477
7.70848e-09
3.18061e-08
3.32626e-09
2.38166e-09
4.36033e-09
9.34143e-10
7.63262e-06
1.02183e-09
0.00182039
5.07073e-08
1.12036e-07
6.78672e-09
1.56521e-06
3.46672e-06
5.37963e-09
2.07723e-08
0.00230811
0.0031102
7.34753e-08
3.86878e-09
7.58168e-07
1.56062e-09
0.00343744
3.14359e-10
1.95879e-08
0.000428464
0.00255401
4.41833e-09
1.60165e-09
1.96474e-07
5.89295e-07
3.5343e-07
0.000378101
0.00139637
1.14331e-10
6.60265e-09
8.05526e-10
4.63773e-09
0.00277465
2.71857e-08
0.00302922
9.94888e-09
0.00131534
0.00209607
0.00236437
6.18365e-08
4.11496e-09
0.000650657
1.26907e-09
2.27605e-10
1.15494e-09
4.34717e-09
1.81558e-08
4.543e-09
1.48282e-09
9.21301e-08
6.7325e-08
7.66689e-09
2.71913e-09
0.00186394
4.1797e-08
3.60089e-08
0.000362091
1.03655e-08
3.47638e-08
3.82096e-08
1.93508e-09
1.35969e-09
0.000646938
0.00196307
0.00241492
3.86422e-09
1.11338e-08
6.43032e-09
1.63266e-07
0.00194566
1.34398e-09
5.67107e-07
2.58652e-08
1.31834e-05
0.000344565
0.00169862
2.25076e-07
1.48119e-07
2.23017e-08
0.00430838
0.000532167
1.89396e-08
8.9091e-07
3.46341e-09
6.81981e-08
3.4638e-06
0.00231953
2.45398e-08
1.20662e-07
1.00412e-07
1.59083e-05
2.45893e-08
0.00185647
2.48732e-09
5.16136e-08
1.1623e-08
0.00212997
7.37501e-10
6.54108e-09
2.05701e-07
4.45049e-06
0.000599772
1.09213e-07
6.99492e-08
0.000383645
4.15582e-08
2.50654e-09
0.00190615
0.0021966
5.49465e-09
7.60751e-09
0.000401561
1.02043e-08
1.73756e-08
0.00037392
3.50942e-10
0.00265403
2.53235e-09
1.93419e-08
1.816e-07
3.96155e-09
3.94509e-08
3.58784e-08
5.0048e-05
3.75664e-09
6.10343e-09
7.10507e-09
1.17468e-08
9.70633e-08
1.5217e-08
0.000326088
7.15402e-09
2.05669e-08
0.00140036
5.6888e-08
9.85958e-08
8.5341e-06
0.00187034
2.37138e-06
0.000541358
7.01032e-09
0.000383171
1.59144e-08
4.21087e-09
1.62419e-09
0.00314076
3.78553e-07
3.24244e-08
7.11629e-05
6.43699e-08
0.00157968
1.68751e-07
9.82006e-06
3.61318e-09
0.0010044
3.1618e-09
0.00130417
5.37851e-05
2.44087e-07
0.000651795
0.00179453
1.2286e-06
1.11186e-05
4.12377e-09
1.12586e-06
2.51948e-08
4.09647e-05
0.000444791
0.00042875
0.00211177
3.52703e-08
3.17874e-08
0.000561236
4.54691e-08
0.00227711
6.94341e-10
0.000401154
2.27728e-09
2.66656e-09
2.93975e-05
0.000503648
0.00020616
0.000108642
7.69444e-09
5.10651e-09
1.92877e-09
0.000487262
2.0433e-09
0.00350803
0.00473709
2.4657e-09
0.000499734
2.07979e-09
1.00201e-09
2.92022e-09
3.24357e-06
0.00046963
2.94561e-09
1.36618e-09
1.05694e-06
4.44224e-09
1.12223e-07
3.80012e-09
2.98463e-09
8.80129e-08
2.63824e-07
3.11144e-08
1.04026e-08
0.000532565
8.10849e-10
0.000127617
2.69996e-10
2.4822e-09
0.00124249
1.50828e-09
7.76489e-06
8.9824e-08
7.42113e-09
0.00010882
1.24545e-08
0.00157161
2.72512e-08
4.60169e-10
0.00174582
5.67604e-09
1.13362e-08
0.000307135
1.24726e-09
0.00205968
1.68236e-08
1.4208e-09
0.00422992
3.06653e-09
5.23832e-09
1.49214e-08
1.63951e-08
0.000319935
7.94414e-09
5.59612e-09
1.64932e-07
0.00180906
0.000633463
0.000584039
2.24421e-08
1.7761e-09
0.000379941
0.00237014
6.86971e-09
8.5769e-09
5.5689e-08
1.16135e-08
2.84724e-09
2.5429e-08
0.000412259
0.00145145
0.00262758
1.492e-07
2.03797e-09
0.0026727
0.00401143
0.00521273
5.04948e-08
1.80456e-08
1.59053e-07
4.38814e-07
1.8076e-08
2.91701e-08
7.87097e-07
2.81352e-08
7.51311e-09
8.1669e-09
1.35185e-06
7.20737e-08
7.3798e-09
0.00254232
1.68724e-09
6.02709e-08
1.8768e-08
2.81976e-08
6.50347e-09
3.82691e-10
0.000761136
1.88258e-08
3.11256e-09
0.00193674
1.91503e-08
2.39104e-08
0.00318763
2.92115e-08
3.34245e-07
5.68827e-09
2.00124e-08
2.45419e-08
0.000826089
3.0453e-08
0.00220048
1.82765e-07
2.00114e-07
3.67053e-08
0.00536977
0.000295015
4.58441e-09
5.44467e-09
9.9219e-07
1.44698e-09
1.12627e-08
8.51657e-09
0.00167349
1.17e-09
2.29397e-09
8.16698e-09
2.4714e-09
3.57648e-08
2.37893e-08
7.5311e-09
0.000429221
0.00219285
0.000466221
6.2942e-08
0.00314134
0.00256355
5.57373e-08
1.75616e-09
0.00183296
6.4385e-06
0.00154625
0.00208228
0.00203138
3.32611e-09
5.88727e-08
0.00237843
1.94832e-07
3.25396e-08
1.87654e-07
2.64584e-08
0.000443745
2.0839e-08
0.00053842
1.68102e-05
2.57613e-08
0.00196166
2.00189e-08
0.000608736
6.88372e-09
1.78129e-08
1.18288e-09
3.99814e-08
0.00153623
0.00364929
1.2873e-09
0.000395619
0.00188714
0.00135367
0.00278182
5.675e-10
1.01207e-08
1.17675e-09
0.00355377
8.16643e-10
1.29621e-07
0.00355905
5.32112e-09
0.00346991
0.00351504
0.00366743
1.55949e-08
5.72359e-08
4.63917e-08
8.81496e-09
1.11221e-08
6.13928e-08
1.26544e-08
5.07741e-09
0.000475221
4.10365e-09
3.71278e-08
2.75988e-07
5.73604e-10
0.00162319
2.92417e-08
4.61367e-09
6.66868e-08
2.6961e-10
7.00217e-08
3.91398e-09
2.03383e-07
0.00306606
3.16752e-05
8.93258e-10
1.56224e-08
0.00210092
0.00314937
1.78267e-07
0.000760304
9.93959e-09
7.7667e-09
0.00257378
2.20222e-08
0.00322074
0.000542243
1.04641e-09
7.22505e-08
0.000765778
1.68934e-08
2.50965e-08
0.00250171
6.40164e-09
1.36826e-08
3.11671e-09
0.000534598
3.16106e-06
0.00193131
1.82118e-07
9.38393e-09
0.00175021
1.26012e-07
2.5532e-10
5.95628e-06
2.18924e-09
7.22239e-07
0.00129386
2.71061e-09
9.53005e-10
1.13589e-08
5.89453e-09
1.5477e-08
5.86771e-09
1.26181e-08
1.00022e-06
9.58251e-10
1.26305e-09
0.00169858
4.65591e-09
5.4391e-06
2.95751e-08
5.76128e-06
1.28338e-06
1.17153e-06
5.35317e-06
1.25962e-06
5.35759e-09
1.65765e-08
0.00100307
3.42718e-06
2.47714e-08
2.24775e-08
2.48422e-08
0.00044909
1.36956e-06
7.94568e-08
2.28937e-07
3.45411e-09
0.00226255
4.76095e-09
1.22675e-08
2.08729e-08
1.18586e-08
2.99205e-08
0.00212598
5.5861e-08
2.40635e-08
1.86739e-08
4.89384e-09
0.000477736
2.26869e-09
5.16803e-09
3.34243e-08
2.14537e-10
1.41929e-09
6.15864e-09
9.35915e-09
1.364e-08
0.000333223
1.14417e-08
1.31695e-08
2.36089e-09
2.01021e-08
1.24429e-08
1.01342e-08
5.84747e-08
0.000380628
0.00242461
1.5455e-08
7.85265e-09
0.00284483
1.67198e-09
4.30357e-05
0.00203072
4.96081e-09
7.12996e-07
1.52974e-06
0.00186553
2.19913e-08
3.19048e-08
2.19119e-07
1.74019e-05
8.68048e-07
2.15979e-07
1.40192e-09
3.75201e-09
4.24923e-07
1.08782e-07
6.03008e-09
1.56309e-09
1.27328e-08
7.55967e-09
3.05949e-06
0.00129418
6.41987e-08
3.61524e-08
5.10478e-08
0.00264631
0.00244631
9.15578e-07
1.51402e-08
3.27788e-08
4.0155e-08
4.45973e-09
2.89787e-09
1.81489e-07
4.22172e-09
3.45776e-08
2.01805e-09
1.27568e-08
2.26783e-08
3.31756e-09
4.14101e-07
2.80125e-09
0.000434429
9.50514e-08
0.00394802
0.001652
1.12409e-07
2.14599e-08
0.0005797
0.000345169
2.77126e-08
2.33859e-08
9.38651e-06
2.27772e-09
1.88092e-09
2.35576e-08
1.73813e-08
0.000781453
0.000646964
9.56875e-09
1.18177e-08
7.69616e-09
3.35401e-07
5.03167e-08
0.00267068
0.000496409
1.45486e-08
0.000238787
7.05712e-09
0.000315444
0.000227613
0.000223589
2.81787e-08
1.06283e-07
1.76494e-09
9.9711e-08
2.54052e-08
0.0024035
4.89765e-09
4.12974e-08
6.86132e-09
7.70094e-08
2.27222e-05
0.00194482
0.00227814
2.19113e-08
2.9731e-08
0.000377625
3.99624e-08
1.04113e-06
1.04728e-08
0.00304783
4.06476e-08
2.27468e-08
8.52749e-06
0.00262295
6.85043e-08
2.27931e-08
0.0013129
2.01634e-08
4.63502e-10
1.39282e-09
4.45325e-09
3.16476e-08
1.32938e-08
6.23372e-10
2.23158e-08
3.68953e-08
1.14574e-08
6.06655e-08
1.66351e-08
5.51934e-07
0.0019116
2.85539e-09
1.5725e-08
5.63256e-08
0.00200074
8.69804e-07
2.02418e-08
0.000374878
2.88627e-09
2.25158e-07
1.46591e-07
0.000983776
3.58571e-07
3.21105e-10
1.22082e-07
1.40214e-08
1.22675e-07
5.05857e-08
3.06061e-09
1.47547e-07
6.88363e-09
8.69682e-08
8.36995e-10
0.000584267
4.86729e-08
0.00207399
1.36748e-09
6.35019e-08
2.16034e-06
1.0724e-08
5.06173e-06
4.80445e-09
6.75733e-10
2.4675e-07
4.18367e-08
4.8492e-09
1.74636e-05
6.10903e-08
7.42011e-08
0.000547247
2.99013e-09
0.000563698
3.16194e-08
2.26236e-09
7.76427e-09
5.7908e-09
1.98289e-08
3.90223e-07
3.13488e-07
1.49968e-07
0.00237866
2.13538e-07
0.00393262
0.00209539
0.00329159
8.49988e-08
2.28977e-07
0.0014352
3.83071e-09
2.50793e-08
2.97661e-08
0.00236989
9.80505e-09
0.000635587
0.000492207
2.7684e-09
0.00262585
5.01601e-06
0.00263982
1.89001e-08
0.00249647
5.59278e-08
0.000340196
1.62052e-09
3.86758e-09
4.26836e-08
0.000746753
7.84661e-07
4.16188e-10
2.69387e-08
6.357e-10
0.000532959
0.000313604
5.69806e-08
0.0019093
4.56398e-07
0.00054462
3.19402e-08
5.58638e-10
6.29953e-09
2.60598e-09
8.94497e-08
2.04038e-05
5.69377e-09
1.34721e-06
4.44573e-08
4.21563e-08
4.66548e-09
9.86906e-05
2.24256e-07
1.87107e-09
6.45226e-09
0.000432451
1.09068e-06
7.77629e-08
0.00152079
1.77446e-06
1.49166e-06
7.4142e-09
8.61375e-09
3.91247e-09
0.000681665
2.6999e-08
5.45019e-09
1.50301e-08
3.63419e-07
9.94643e-07
2.06958e-07
1.8211e-09
3.22994e-06
6.73334e-07
7.53764e-09
5.97293e-09
5.53352e-06
2.51905e-09
5.0742e-09
0.0023871
0.00220929
6.17156e-08
4.50033e-09
1.14921e-09
3.33803e-08
0.00192942
2.60162e-07
1.38062e-06
5.46392e-10
5.51023e-07
3.25976e-08
0.0011202
0.000444877
7.10201e-07
2.37794e-08
3.48789e-06
5.36005e-07
0.000100623
2.23786e-09
1.83313e-08
0.0011882
2.55122e-08
7.81778e-07
5.89448e-07
2.02287e-06
1.22154e-06
1.17032e-08
0.00162281
1.30997e-05
2.47311e-09
1.21647e-08
4.69519e-09
0.000427673
0.000113386
1.89162e-08
0.000637651
1.20779e-07
7.26789e-05
0.00282727
0.000398953
0.00281967
0.00183712
0.00221777
4.06644e-10
2.79229e-06
8.39111e-08
3.52274e-06
1.48911e-05
2.21327e-06
2.0208e-09
3.97588e-07
1.47557e-08
3.20231e-07
0.000761567
2.87326e-07
8.91031e-10
0.00178473
1.39284e-07
0.000207826
1.83459e-07
4.11068e-07
4.74471e-09
3.87643e-07
2.12098e-07
0.00151227
2.09636e-07
3.56042e-08
1.49998e-07
2.60272e-05
0.00129738
0.0013139
0.00294023
4.84932e-09
0.000502801
0.00149729
0.00175306
0.00149455
2.3608e-07
0.00217389
2.6852e-07
4.72822e-09
5.4126e-09
6.1091e-09
0.00147152
0.0017686
5.59386e-09
1.45866e-08
8.3947e-09
4.08361e-07
0.000298094
0.00368263
0.00135433
8.20756e-08
0.00247909
8.43218e-10
3.62285e-08
0.00108919
0.000804578
5.33538e-09
2.74402e-06
1.21813e-08
6.41201e-09
0.00351977
6.38045e-09
0.000423277
1.1709e-09
0.00037871
0.000405407
0.000581333
0.0019093
3.24809e-07
0.00161665
1.26585e-08
1.17327e-05
0.000460523
0.00124704
0.00220786
0.00109666
7.52222e-09
0.00124444
9.01164e-09
1.59739e-08
0.00292754
1.64015e-07
6.61052e-06
5.6751e-08
5.19144e-08
0.000573392
1.43596e-06
3.30422e-09
1.49411e-07
4.38178e-07
0.000403301
0.00219855
2.72822e-07
7.6056e-09
0.000614678
1.86657e-08
1.56704e-08
5.11046e-08
6.04228e-07
0.00214113
3.71316e-09
0.00241685
8.44075e-10
0.000256106
0.00433602
8.69502e-09
3.04428e-06
0.00242904
4.9731e-05
5.19647e-06
2.471e-09
0.0017792
0.0027788
5.06414e-10
0.00048913
8.42812e-07
0.000618779
1.49041e-08
8.49454e-07
5.11308e-07
3.5252e-08
7.53788e-11
0.000345775
0.00131466
6.44061e-09
1.20525e-09
0.00218207
1.11168e-08
2.20295e-09
3.73895e-08
1.87712e-09
7.87471e-08
0.00354116
0.00209387
2.64299e-08
5.47888e-10
0.00221233
1.99051e-07
0.00270358
2.7908e-09
1.91366e-06
4.5764e-08
7.4491e-09
2.75192e-09
1.07449e-08
0.00333602
5.02545e-09
2.79982e-07
0.000274723
0.00237604
0.000453109
1.37726e-08
1.17557e-06
2.56762e-09
0.000229138
0.00228075
8.68625e-10
3.74404e-09
3.97892e-08
3.31145e-08
0.000502527
2.62008e-07
0.000529728
1.92227e-07
6.68469e-09
5.85385e-11
4.98183e-08
0.000221037
0.000394062
5.42445e-09
0.00384295
0.00245681
9.14229e-09
3.21326e-10
3.83292e-09
7.32535e-09
3.79777e-09
1.53884e-08
0.00275399
0.00062003
0.000514078
7.76419e-05
0.000348227
0.00038168
2.7672e-09
4.26821e-08
1.5235e-09
3.0621e-08
1.89303e-08
0.00234571
1.07738e-08
4.94345e-09
0.00111864
1.90284e-08
7.68087e-08
8.80218e-08
1.65545e-09
8.39187e-08
3.4775e-08
0.00219887
5.27263e-09
1.44676e-08
4.28062e-09
1.58407e-08
2.12201e-08
0.0037555
4.52773e-07
1.12328e-07
7.34125e-08
1.06354e-09
4.51868e-05
1.15371e-06
3.13179e-09
5.77636e-07
1.26202e-05
1.01421e-08
1.12483e-08
1.03063e-05
3.68837e-06
2.4965e-07
0.00304128
3.87337e-09
3.97155e-07
1.47924e-06
0.00282693
2.24947e-07
4.36223e-10
1.92333e-06
1.78217e-05
3.4244e-07
1.00586e-08
1.6993e-07
4.56383e-08
6.62302e-08
2.00847e-08
3.31564e-08
0.00185307
2.18513e-09
1.18104e-08
1.10024e-08
6.93584e-10
4.60971e-09
8.96163e-10
0.0042155
1.25144e-07
1.9441e-09
3.31768e-09
3.10487e-09
1.08007e-09
5.01289e-08
5.14276e-09
2.81272e-09
5.39415e-08
1.33723e-08
0.00220966
3.07206e-09
0.000384369
3.49423e-08
1.16804e-07
1.79151e-08
1.21007e-06
1.01862e-09
0.00315759
9.45998e-09
0.00178979
2.97152e-07
4.01517e-08
1.35658e-08
1.83975e-06
2.75281e-09
3.62357e-09
2.93708e-09
0.000259156
0.000626648
0.00213656
1.005e-07
1.58709e-07
0.00227948
1.72634e-06
3.36528e-09
1.37669e-08
2.87359e-07
1.03301e-08
0.00411987
2.81345e-06
0.00307949
2.33818e-08
7.67429e-09
0.00158934
0.00144431
0.00174765
1.66132e-08
1.47173e-06
0.00186861
1.67313e-09
1.23022e-05
1.51521e-07
0.00178174
0.000459332
1.81095e-07
0.00230819
2.04347e-05
6.19739e-07
0.0020537
0.00216972
1.91398e-08
0.00237785
0.00300986
0.00180863
2.49371e-08
4.36363e-09
6.10786e-09
7.39715e-10
2.83876e-09
0.00162996
0.00275212
0.00182473
2.62648e-09
0.0030328
2.72909e-09
0.0022814
0.00249135
5.76995e-09
3.66851e-08
0.00165389
2.45883e-08
1.31533e-08
3.23186e-07
4.59507e-10
0.00256046
0.00199028
8.2803e-07
0.00163465
3.77547e-09
3.03929e-09
7.11165e-09
3.31895e-08
6.72686e-08
3.13175e-07
1.22635e-09
5.54447e-09
1.41965e-08
8.1152e-09
6.18723e-09
1.04409e-07
3.68984e-10
2.2975e-08
2.11402e-06
1.15391e-08
3.43864e-08
2.74902e-09
1.20975e-07
1.56343e-09
5.20197e-09
2.22619e-07
1.56299e-09
3.04466e-09
0.00188087
3.46261e-08
5.17619e-09
6.52815e-07
3.13517e-09
1.47309e-08
4.77835e-08
0.00185732
9.31265e-08
0.00220813
0.00148588
1.72362e-08
2.0703e-08
5.7555e-08
6.55642e-09
0.00157707
4.96099e-08
2.24946e-07
3.6704e-07
2.90327e-08
0.00235743
0.00149687
1.8825e-09
3.13918e-09
6.98577e-09
6.37769e-08
5.91759e-08
7.44132e-09
4.16138e-07
5.33725e-09
1.48983e-06
2.49192e-09
1.53527e-09
6.30904e-09
1.55554e-08
2.33061e-07
7.75927e-09
1.88977e-08
0.00430207
0.00144842
0.00257306
0.00155593
1.48743e-06
1.20832e-08
0.00201815
6.93977e-07
6.75644e-09
0.000410057
1.32359e-09
1.44335e-07
0.00235105
4.41317e-08
1.25861e-07
2.3031e-08
4.28133e-08
0.00139999
8.21089e-09
9.39137e-10
2.04841e-07
2.6867e-09
4.72247e-07
5.96219e-06
6.73419e-08
0.00211102
4.18594e-08
0.000460518
2.58232e-07
0.00209897
3.88345e-10
4.998e-09
2.68087e-07
3.90476e-09
0.00183881
3.83358e-07
0.00051844
1.49301e-07
1.83672e-07
1.3384e-07
2.65634e-08
8.68633e-09
4.97425e-08
3.01074e-06
4.05892e-08
2.59281e-06
0.00324757
5.30216e-08
0.00421539
5.62735e-09
2.49361e-09
4.56198e-06
0.00186434
1.40799e-08
1.31795e-09
9.00715e-07
5.65106e-08
3.37422e-08
0.00233954
1.34667e-08
6.13156e-07
0.00262084
1.35828e-09
8.03549e-09
4.18045e-07
9.72984e-10
8.18015e-09
0.00253951
5.30477e-09
0.00276769
2.3146e-08
2.15631e-07
3.93519e-08
0.000894205
6.02439e-08
2.79288e-08
1.48717e-07
0.0025428
1.58851e-06
1.25992e-08
9.23012e-09
1.24397e-07
0.00207293
3.46039e-09
5.1968e-08
6.31254e-08
1.601e-06
0.00253727
0.000270001
0.00119028
1.74003e-08
0.000358075
1.31825e-08
9.00905e-07
0.000789334
1.15474e-08
0.000880469
3.27844e-06
4.85655e-09
2.65654e-09
1.2073e-08
0.00253349
1.51302e-08
2.42591e-09
2.59637e-07
1.12485e-08
5.65923e-09
0.000301421
2.71923e-09
4.46419e-08
0.00242964
1.2673e-06
4.51286e-09
0.00203874
3.25988e-06
6.51671e-09
1.38411e-08
1.20222e-05
4.30876e-08
2.22743e-07
1.67728e-08
4.14882e-08
6.09557e-08
4.7517e-06
0.00109754
4.84126e-08
0.0024824
1.51199e-08
3.8002e-08
0.00271652
3.08993e-08
7.83681e-08
9.56082e-09
1.3107e-07
0.00237012
2.98702e-08
2.12328e-08
0.00163517
5.79649e-09
0.00266888
1.40281e-09
8.15906e-09
1.03803e-09
1.10024e-08
0.00151678
5.39569e-08
1.3931e-09
2.57852e-09
1.43463e-08
5.28898e-08
0.00255053
4.77482e-09
4.62719e-09
1.8879e-09
1.54585e-07
5.30905e-06
5.04205e-09
0.00156979
3.51034e-08
9.65474e-09
6.30651e-09
5.12298e-08
0.000429641
6.56848e-07
1.6246e-10
1.00454e-09
0.00182628
0.00217009
6.1462e-08
3.91881e-09
0.00183578
1.64698e-08
9.00377e-10
0.00356113
9.07642e-09
0.00275317
2.89798e-07
1.75044e-08
2.01493e-08
9.76963e-09
9.58099e-09
4.45693e-09
3.04639e-05
7.46082e-07
2.27251e-09
3.99837e-08
5.54681e-08
5.32187e-09
0.00257877
8.70295e-09
1.33429e-08
0.00197407
2.62105e-08
3.5907e-08
2.91233e-10
0.00228709
2.8312e-08
1.34215e-07
3.26341e-09
3.70009e-08
4.03845e-09
0.00233761
5.92327e-09
7.02313e-09
0.000617506
1.07565e-08
7.10469e-09
0.00233172
6.53709e-08
3.8664e-10
3.13715e-08
5.9304e-09
0.00188364
4.41949e-07
5.9841e-08
3.47202e-09
4.02198e-07
1.41064e-07
8.68243e-09
1.40152e-09
1.0297e-09
3.40428e-08
1.05336e-08
8.54418e-10
7.77421e-09
6.51728e-09
1.17375e-08
0.00231619
6.96511e-07
1.47784e-08
2.0471e-09
9.41186e-10
0.00219974
1.94419e-08
0.0032781
9.31744e-07
0.00158581
7.61161e-10
0.00215263
0.00292639
8.60591e-09
9.38474e-09
8.973e-08
0.00210514
0.00251635
3.06859e-07
7.65705e-09
2.49405e-07
1.05134e-09
2.20294e-07
8.75243e-09
9.4131e-08
1.67008e-08
1.46386e-09
3.94624e-09
8.53789e-10
6.19505e-09
9.10873e-09
3.78042e-09
5.07524e-09
1.52793e-08
9.02401e-08
3.03582e-11
3.35752e-09
7.45024e-10
5.6556e-09
1.51886e-09
1.75042e-07
0.00189966
0.00279693
4.52208e-09
0.00222555
1.40044e-08
3.06937e-09
4.48343e-09
1.64488e-06
1.79431e-07
7.18917e-08
9.95288e-10
1.10399e-08
2.1444e-09
7.94355e-09
1.59922e-09
1.28163e-08
1.41394e-07
0.00158848
2.44092e-09
2.1206e-08
0.00140351
0.00180634
0.00219802
0.00206361
0.0017651
4.64264e-08
3.77758e-08
2.8178e-09
7.81089e-09
7.60878e-09
1.34106e-06
3.93432e-09
2.92669e-08
3.41289e-08
7.17067e-09
2.22704e-09
2.64081e-09
7.43412e-07
3.15508e-06
3.98136e-07
5.99948e-09
1.67313e-09
3.2324e-09
0.0028423
2.5367e-09
0.00185272
1.07251e-07
8.78206e-09
7.52577e-07
0.00105424
6.75675e-08
4.00819e-10
3.75887e-09
3.20437e-08
1.50344e-09
2.36856e-08
8.22699e-10
0.0011041
3.39486e-10
4.1821e-08
0.00284453
2.9942e-09
0.00133043
5.867e-08
0.00216659
9.82423e-08
0.0012197
3.54798e-10
0.00289545
0.00232084
2.77378e-08
4.07773e-09
0.00158368
1.95391e-08
0.00186933
1.68903e-08
7.76711e-09
5.01845e-10
1.67558e-08
2.04445e-08
1.50284e-08
6.3682e-07
0.00292247
0.00166185
1.22821e-06
3.80702e-09
3.46181e-07
0.00305612
0.00136147
0.00236581
0.00234398
5.31764e-09
6.10483e-08
2.7454e-08
1.24753e-08
0.00303585
6.54983e-09
0.00148773
0.00321503
5.46028e-09
3.11478e-09
0.0016052
0.0030279
2.82383e-08
9.12105e-10
0.00169036
9.13056e-08
2.56512e-09
4.66664e-07
9.69686e-08
0.000406599
7.13572e-08
5.63697e-08
2.47613e-07
2.69372e-07
9.07511e-08
3.89065e-09
4.59423e-09
1.06296e-08
2.02659e-09
2.05966e-08
8.67469e-09
1.90946e-10
2.16872e-09
0.00200653
0.00284315
3.43483e-10
2.54558e-08
6.64395e-09
2.78352e-09
4.81356e-07
1.94889e-08
2.35972e-09
0.00270669
0.00150584
0.00144859
0.00162329
4.88486e-08
0.00136179
2.54943e-07
0.00376685
7.32196e-10
0.00227612
2.71674e-08
3.64606e-08
1.55388e-07
6.1465e-10
0.00294103
1.8568e-07
0.0042366
5.9112e-09
9.49588e-10
9.12734e-09
8.96568e-09
0.00133978
0.00289285
1.39405e-10
3.30865e-09
2.43175e-08
0.0016743
3.64634e-09
0.002803
3.43283e-07
1.92374e-09
5.71442e-09
0.00241513
3.50834e-08
0.00213607
8.23358e-08
0.00382989
0.00319957
7.8386e-08
3.64084e-09
0.00356201
8.60299e-09
8.52085e-07
0.000344637
1.55158e-08
1.41043e-07
2.29286e-08
8.8507e-09
0.00300983
3.91482e-09
7.37867e-08
3.81599e-10
7.03571e-08
4.08807e-09
5.31039e-09
1.51978e-08
9.89779e-09
1.71564e-08
0.00294984
2.14223e-08
2.75351e-08
4.70046e-09
1.42798e-08
8.95851e-09
9.89587e-09
1.1642e-08
0.00217425
8.53573e-09
0.00293679
0.0018947
4.95629e-09
0.000360671
2.9463e-09
3.32333e-09
2.61251e-08
3.47316e-08
3.00471e-08
0.00153934
0.00202689
1.10571e-07
1.03734e-07
8.36342e-08
0.00305486
0.00110989
4.82531e-08
0.00216289
0.0043906
1.24837e-06
0.00259041
0.000410463
6.46578e-09
7.8132e-07
2.51429e-08
0.000563894
6.8126e-10
0.00252476
3.31474e-10
2.31164e-09
0.000636589
0.000341713
1.49254e-08
0.000460448
4.25215e-08
1.05354e-07
2.5795e-08
2.68069e-09
3.94504e-07
2.86918e-09
4.84388e-09
0.00243076
1.33479e-08
1.38919e-08
4.30765e-09
1.22e-07
1.66105e-09
4.59201e-05
2.9619e-08
2.03083e-08
7.66631e-08
1.64985e-07
0.00029709
0.00227203
4.17956e-08
6.97476e-09
0.00236629
0.00234088
3.70042e-08
2.3029e-08
1.24706e-08
3.17917e-09
3.05242e-08
1.10201e-08
0.00200153
0.0043348
6.10823e-09
2.04506e-09
3.87356e-09
5.98989e-09
0.00246895
0.000394485
1.74794e-09
1.81052e-08
1.53237e-08
0.00211923
1.05168e-05
1.08932e-06
0.00194321
2.49459e-08
2.50237e-08
5.10018e-09
4.12366e-08
2.53259e-08
0.00220486
5.2719e-08
0.000310617
5.52255e-09
6.26216e-09
0.00320552
0.00260271
7.55748e-09
0.00306982
1.07749e-09
1.47236e-09
4.53136e-07
4.97609e-09
3.55939e-09
0.00179272
2.66939e-08
1.23954e-07
0.00385286
1.34639e-08
0.00155005
0.00300652
1.4125e-08
0.0031928
1.44733e-08
1.27951e-08
1.79222e-08
1.87128e-07
9.89935e-09
4.6368e-08
5.93554e-09
2.46523e-08
4.77434e-07
1.95511e-08
0.00232321
6.59932e-09
0.00301324
8.48819e-10
1.14747e-08
5.37556e-09
0.00231029
8.48348e-09
0.00223805
0.00192346
0.00309696
1.57149e-08
0.00209388
1.44806e-07
2.14407e-08
3.15731e-09
7.92395e-09
1.272e-08
7.63155e-08
1.42161e-07
2.87822e-07
3.42528e-09
0.00282194
3.23476e-08
1.16457e-09
9.19884e-10
4.49093e-09
7.0606e-10
0.00200404
3.52679e-08
0.00294234
2.69762e-08
0.000624957
3.59202e-09
3.64581e-09
0.00176861
0.00346492
6.65993e-08
3.70327e-09
0.00375567
1.5676e-08
1.00987e-09
3.3254e-09
1.32741e-08
6.34514e-10
1.3726e-08
1.52087e-09
1.40954e-08
2.85287e-09
5.93911e-08
2.70245e-08
0.00246204
5.49187e-07
1.02418e-07
1.12206e-08
4.64112e-09
0.00208839
1.39877e-08
0.00298219
4.13569e-08
2.80626e-08
6.65472e-09
6.23188e-09
7.93311e-08
7.42499e-07
0.00129733
0.00121775
7.98789e-09
0.00369086
2.41389e-08
0.00276907
9.03972e-09
1.37011e-08
2.94635e-09
0.0025994
0.00127755
0.000427432
4.46356e-08
2.03015e-09
0.00128973
5.29526e-09
3.30542e-09
8.96718e-09
5.33854e-09
0.0023716
0.002021
1.79075e-08
3.15207e-08
5.1563e-08
3.89571e-09
3.24316e-06
1.8094e-06
6.21384e-09
2.44218e-08
0.00157765
8.824e-09
3.11684e-08
1.09192e-09
3.00053e-08
4.5081e-09
0.00226817
4.55065e-09
1.68857e-06
0.000526645
1.02846e-08