/*--------------------------------*- C++ -*----------------------------------*\
  =========                 |
  \\      /  F ield         | OpenFOAM: The Open Source CFD Toolbox
   \\    /   O peration     | Website:  https://openfoam.org
    \\  /    A nd           | Version:  10
     \\/     M anipulation  |
\*---------------------------------------------------------------------------*/
FoamFile
{
    format      ascii;
    class       volScalarField;
    location    "64";
    object      T;
}
// * * * * * * * * * * * * * * * * * * * * * * * * * * * * * * * * * * * * * //

dimensions      [0 0 0 1 0 0 0];

internalField   nonuniform List<scalar> 
59698
(
286.602
292.868
293.306
293.544
299.957
283.15
292.534
293.495
303.15
303.15
303.15
293.178
283.15
293.766
300.137
303.15
294.065
293.449
293.175
293.814
303.28
302.131
303.148
303.15
295.697
293.447
293.103
298.35
295.716
295.335
300.29
303.15
303.15
298.815
302.373
293.265
283.378
283.463
293.442
297.536
296.217
283.15
296.56
293.849
283.15
296.583
293.303
295.261
294.645
293.577
293.06
293.34
292.349
294.539
294.399
293.196
294.279
302.176
294.242
282.977
291.24
294.296
299.613
293.203
286.8
294.463
303.15
293.177
293.175
303.15
283.15
293.776
283.135
298.529
283.15
297.739
294.539
287.694
291.646
294.158
299.957
292.578
303.15
293.441
303.702
294.507
294.184
293.556
298.878
293.882
303.15
294.737
298.981
293.541
293.77
293.514
299.058
293.521
298.905
283.15
299.109
283.127
285.915
284.493
293.369
283.15
293.469
293.132
303.15
283.15
293.401
293.655
298.863
283.15
293.421
290.491
293.408
293.42
293.441
303.15
293.232
292.837
293.439
293.102
293.185
293.054
295.481
303.15
293.196
290.365
287.509
290.493
303.15
292.769
290.231
291.659
290.74
303.15
293.123
293.465
293.463
293.766
290.85
292.122
290.392
293.581
290.978
290.82
293.425
301.183
283.138
303.15
288.084
290.322
294.056
293.37
293.308
293.475
296.966
283.15
289.678
293.436
290.759
299.555
297.816
296.699
292.906
280.915
299.359
292.196
300.367
283.151
300.937
301.004
285.532
292.809
303.15
283.236
303.15
298.935
302.767
300.417
298.648
291.604
298.707
300.856
300.767
293.859
292.983
294.72
294.358
293.667
296.59
297.451
299.394
293.591
293.929
296.607
303.155
299.386
283.15
284.152
292.455
292.8
299.303
290.946
297.345
295.414
293.593
298.047
293.133
293.708
299.129
303.15
294.872
293.446
293.28
294.062
297.847
296.014
282.052
296.322
292.639
299.284
295.271
299.337
295.829
291.352
295.658
284.988
283.15
296.16
295.171
295.833
293.427
294.818
295.987
293.739
293.565
295.002
293.187
293.989
289.926
303.15
294.637
293.582
282.927
285.594
293.628
293.302
293.828
294.945
295.148
303.15
293.591
294.753
294.119
295.307
292.852
293.299
303.12
283.15
294.455
294.341
294.822
295.327
292.667
303.15
293.473
293.289
293.326
286.64
303.101
293.306
287.32
293.709
290.561
293.633
293.977
303.15
303.15
292.904
293.336
289.077
295.111
290.713
292.95
303.15
286.012
294.609
301.418
291.294
293.397
293.415
294.887
293.604
292.716
293.622
295.101
292.673
291.441
283.15
283.15
292.612
293.236
293.2
287.836
293.656
294.631
293.058
293.107
293.314
293.371
283.15
293.713
292.679
283.15
293.725
283.15
293.588
293.874
293.362
294
303.15
298.308
286.256
294.106
293.713
292.435
283.15
300.173
290.667
298.872
281.566
303.15
293.807
293.695
292.557
298.464
293.836
295.134
295.546
292.633
294.983
298.949
293.304
295.605
301.427
293.729
289.168
292.825
293.044
301.358
303.15
284.208
300.757
302.089
293.324
293.637
303.15
293.302
293.849
303.15
295.008
283.15
283.15
293.552
290.469
293.544
282.757
292.664
283.15
292.739
283.15
296.425
303.15
293.541
292.087
283.15
303.15
283.15
292.713
293.305
293.511
293.506
283.148
293.504
283.15
283.15
293.409
293.818
303.15
294.602
290.725
303.133
301.991
301.767
293.518
292.671
292.794
288.503
295.723
292.732
293.361
293.549
293.483
295.967
293.288
295.674
302.255
297.906
303.15
295.278
303.15
293.436
289.793
292.982
283.576
302.294
302.831
294.383
293.42
290.792
281.961
293.365
293.326
303.15
294.393
293.273
283.15
295.498
302.788
285.308
291.841
287.58
303.15
303.15
298.666
292.865
291.939
283.15
292.191
303.15
293.651
293.15
302.914
294.881
283.15
293.463
299.203
292.737
293.296
294.105
286.315
294.009
293.624
290.674
303.15
284.313
290.95
290.086
293.39
283.968
293.908
303.15
293.569
293.407
291.894
294.114
294.989
295.102
283.15
283.15
283.15
294.051
293.141
302.759
292.148
293.701
294.017
293.381
293.599
293.38
283.15
300.938
293.368
293.505
293.384
291.959
292.876
299.065
290.514
291.391
293.475
292.08
293.488
293.435
293.507
289.59
283.15
283.15
295.183
299.053
294.676
283.15
303.15
293.342
303.15
293.359
290.282
294.702
290.7
283.15
283.15
291.627
293.353
283.15
293.389
283.15
283.15
289.559
293.958
293.396
283.15
283.15
302.994
294.935
292.608
289.853
288.757
291.33
301.492
303.15
293.426
293.558
283.15
283.15
286.367
293.392
303.15
290.015
292.982
293.116
281.273
289.379
291.844
282.234
283.132
290.838
283.147
293.352
303.15
293.475
303.15
292.889
293.312
283.15
295.584
291.513
291.832
283.15
303.15
293.499
283.123
293.321
303.15
286.375
293.342
291.209
303.15
292.072
293.455
283.15
291.904
290.959
293.527
293.073
292.278
295.523
303.15
283.15
293.564
285.268
293.206
292.365
283.15
292.43
293.184
289.712
291.651
291.958
296.413
293.078
293.122
283.15
293.37
303.15
282.783
283.15
283.15
290.927
290.974
283.15
293.46
291.042
291.617
292.895
283.15
291.078
293.31
293.287
292.536
293.296
292.112
291.113
291.144
293.258
297.844
285.623
293.252
283.15
291.152
291.925
302.958
295.263
293.733
290.913
292.231
292.022
292.081
295.6
283.15
293.223
291.363
293.063
292.146
292.079
293.244
293.2
286.946
293.495
292.773
283.15
303.15
292.039
294.045
292.802
293.72
293.658
283.15
283.15
293.17
288.571
291.779
291.999
293.251
292.979
303.147
293.594
292.387
293.668
293.391
290.997
283.791
301.844
291.643
293.688
293.773
291.802
288.918
283.15
293.522
292.812
293.535
292.862
291.679
283.15
295.322
293.206
292.881
292.428
293.517
283.15
283.15
291.897
292.967
291.9
292.954
291.992
295.762
290.797
297.183
293.964
291.728
290.813
293.62
293.625
292.589
283.15
292.869
283.15
283.15
292.548
291.772
293.24
303.15
296.517
293.124
292.091
283.15
293.672
283.15
293.754
283.15
293.441
297.639
289.339
293.163
303.15
283.15
297.868
297.944
293.192
292.06
295.607
297.204
295.548
283.15
296.197
293.304
282.864
283.15
290.53
300.327
283.15
291.109
292.815
303.15
297.635
287.939
293.092
293.823
283.261
297.043
294.59
294.531
283.595
283.447
292.466
286.01
293.06
296.891
293.737
298.128
283.15
292.92
290.278
295.052
303.15
293.418
296.884
283.15
298.219
295.934
292.317
293.854
296.738
291.564
283.15
294.928
294.551
283.15
283.15
292.343
283.15
289.44
293.559
292.409
294.528
294.546
297.436
283.15
293.672
290.457
294.873
295.289
295.319
283.15
284.363
298.845
293.573
288.64
297.666
301.094
293.496
302.767
283.15
283.15
283.15
292.667
292.765
283.15
292.553
293.574
298.052
283.164
292.522
291.711
283.15
282.349
283.15
283.15
292.576
283.15
303.103
298.49
303.15
292.55
284.563
288.626
292.545
282.179
293.472
283.227
283.15
283.15
291.272
294.728
296.691
283.15
295.802
292.658
292.671
283.15
292.656
292.684
283.162
283.15
283.132
283.173
303.15
283.15
283.15
283.15
283.15
291.188
292.951
291.046
283.15
294.64
293.275
283.15
285.384
283.15
292.753
283.15
299.435
295.182
291.977
292.587
292.76
295.877
303.15
295.877
292.893
283.15
292.599
283.149
293.311
283.15
292.047
283.15
284.11
283.15
290.385
283.15
293.503
291.774
294.914
292.688
291.904
292.716
292.102
283.15
283.15
292.71
293.546
293.047
293.215
283.15
294.324
296.328
296.016
283.15
294.118
295.069
293.419
296.748
303.15
283.15
295.894
292.368
283.15
292.932
293.416
283.15
295.889
292.787
292.947
293.577
283.15
292.662
292.825
283.15
303.15
292.834
292.823
292.71
295.889
297.651
294.002
296.672
290.214
294.987
295.609
293.564
291.43
290.737
286.598
292.119
283.15
289.766
283.15
296.564
295.751
291.92
290.298
283.15
283.15
297.546
291.278
290.052
296.119
296.761
291.478
295.393
285.34
294.02
293.186
291.321
283.15
293.379
292.939
293.24
290.967
293.291
291.284
303.15
293.34
293.498
294.49
303.15
293.563
296.665
294.178
293.518
293.858
294.465
295.681
292.888
303.15
303.15
283.15
295.552
283.15
293.573
291.474
302.705
298.553
293.047
295.018
302.156
297.862
294.927
295.848
293.715
293.132
295.688
293.881
290.665
287.774
294.115
283.15
293.111
303.15
283.168
294.721
300.404
294.705
303.15
303.15
292.73
293.395
294.906
292.727
292.998
292.633
283.15
293.74
293.22
298.37
283.15
294.559
295.252
302.803
293.052
293.697
302.799
293.204
293.536
302.809
292.739
294.568
295.186
296.451
295.373
296.004
295.198
293.479
292.909
303.15
295.491
296.541
293.255
283.15
293.21
297.709
293.095
293.631
292.212
295.359
292.794
287.741
294.507
291.012
292.827
303.15
293.573
288.107
283.15
303.15
294.047
294.203
295.988
294.326
289.342
303.15
303.15
293.106
283.15
295.024
294.444
294.315
294.431
293.95
303.15
303.15
284.111
294.32
295.122
303.15
294.082
296.15
303.15
282.445
292.916
283.567
291.986
294.359
292.922
293.209
294.107
303.15
293.778
291.731
293.102
292.933
289.725
293.566
294.391
301.06
303.15
297.252
302.912
293.024
301.676
287.11
291.094
295.275
297.731
297.151
289.464
289.16
293.328
283.15
288.112
292.878
303.15
293.337
300.986
293.128
294.508
294.323
294.939
283.15
302.395
289.606
294.814
294.647
292.519
283.15
303.15
293.513
286.771
283.15
292.943
292.983
294.665
293.474
304.932
293.336
295.045
292.736
295.298
293.402
287.087
294.944
303.15
292.729
292.91
292.917
290.192
293.28
300.811
301.122
293.371
295.894
299.13
302.604
293.684
293.371
291.051
302.573
287.719
300.259
291.916
292.138
295.94
295.794
295.391
293.305
295.259
303.15
286.073
298.85
295.794
293.753
292.991
297.237
293.72
298.994
293.77
293.133
293.659
293.573
303.15
293.357
303.15
292.582
292.864
294.043
292.085
293.174
285.413
292.806
303.15
294.479
291.967
288.946
292.437
293.376
303.15
303.15
293.554
293.425
283.15
303.15
293.132
293.509
294.144
283.15
303.15
292.817
293.318
293.284
291.147
285.246
292.619
283.15
284.965
303.15
293.43
283.15
303.143
303.15
297.275
290.532
293.221
297.353
296.701
292.328
303.15
293.34
293.346
296.907
282.327
296.661
293.015
303.15
293.387
303.15
296.785
284.582
283.15
291.182
297.606
293.496
302.76
297.495
295.76
297.461
291.408
297.627
283.15
283.15
297.493
297.426
294.317
303.15
292.81
291.915
293.736
293.667
294.08
294.362
294.16
293.333
291.255
293.251
300.612
285.611
297.021
303.023
293.203
303.15
294.742
283.15
299.951
303.15
303.15
293.501
283.15
300.655
293.197
283.15
303.15
292.054
292.898
303.15
293.494
291.79
293.095
293.673
302.96
303.15
297.439
293.755
283.15
289.036
292.018
293.171
283.097
303.15
293.122
303.15
293.205
303.15
293.153
297.88
297.779
296.958
297.553
294.286
293.144
286.813
293.749
283.15
292.021
298.046
294.84
296.66
283.15
301.152
293.203
303.15
293.317
297.008
296.291
303.15
303.15
293.283
288.942
287.348
294.32
289.22
289.619
303.15
303.15
283.15
292.114
287.797
303.15
299.764
303.15
287.572
303.15
303.15
303.15
291.699
290.744
299.279
303.15
292.596
292.928
303.15
291.919
287.3
282.681
293.722
283.727
295.843
291.704
292.134
283.313
293.656
292.229
303.15
303.15
285.18
288.658
292.711
283.575
283.284
292.915
289.888
293.125
283.15
295.284
291.705
294.635
287.698
285.221
293.932
303.15
292.237
284.065
290.957
294.015
300.934
291.98
292.388
292.556
293.507
298.084
292.206
292.923
293.495
283.9
286.79
283.781
292.978
284.86
292.867
284.222
303.15
294.013
290.562
288.478
292.586
303.112
303.15
293.152
284.408
294.787
300.627
284.979
285.127
298.416
294.55
284.945
282.311
294.006
303.15
287.37
283.15
283.13
285.154
303.15
297.61
283.151
292.994
303.15
284.928
300.027
303.15
283.15
289.274
295.105
296.487
297.842
283.513
303.15
285.249
291.854
293.362
283.15
293.907
283.15
303.125
293.454
303.15
294.341
293.464
292.614
293.424
293.425
293.574
300.133
298.995
285.915
283.138
299.323
293.6
299.418
303.15
283.15
293.266
296.301
285.769
292.942
292.788
288.1
293.753
293.562
293.151
293.548
293.54
296.755
303.15
293.691
293.547
303.15
288.565
293.574
283.15
288.195
303.15
296.129
293.573
303.15
296.851
302.676
290.227
292.505
286.896
288.131
303.15
283.15
303.15
283.15
283.15
294.163
293.577
283.14
291.909
283.207
303.15
288.31
288.773
287.967
294.28
288.267
294.901
289.064
286.22
303.15
287.409
291.756
292.992
303.15
300.564
292.907
289.591
303.228
303.15
299.146
293.499
290.462
303.15
293.431
290.514
293.502
297.734
297.151
290.17
295.037
303.15
303.15
290.274
290.297
283.918
295.155
283.153
283.57
303.15
283.791
290.228
303.15
283.15
283.001
283.15
290.353
299.834
303.15
290.329
303.15
303.15
283.66
293.804
283.15
283.149
303.15
293.272
292.423
303.15
303.15
291.363
283.127
290.959
303.15
283.139
293.464
290.993
290.992
300.723
283.15
290.996
303.15
294.721
294.225
303.15
303.15
303.15
292.523
283.15
291.128
291.881
303.15
283.14
291.298
303.15
303.15
303.15
292.416
283.15
293.58
283.15
293.788
291.629
283.15
296.143
303.15
283.15
291.55
291.431
291.413
294.071
283.15
293.468
291.776
291.822
293.855
283.14
283.15
303.15
283.15
283.15
283.15
292.969
303.15
293.616
294.237
303.15
285.3
293.661
293.205
293.484
292.945
293.56
297.213
292.993
296.724
295.912
292.533
293.473
292.715
292.19
292.28
293.479
292.184
298.95
293.638
287.29
292.261
304.953
284.003
292.369
300.343
283.134
293.555
291.742
303.15
294.332
296.5
295.23
292.63
301.435
296.208
292.199
298.958
293.109
302.824
297.597
300.383
292.318
285.248
294.213
289.31
294.343
295.909
297.382
292.779
296.652
283.15
293.146
294.764
292.783
283.143
299.569
293.017
288.106
293.086
283.15
297.894
293.73
283.15
293.604
292.5
292.954
295.067
283.15
293.103
298.407
293.736
300.336
292.878
294.443
292.871
293.608
298.451
291.703
292.485
284.621
293.488
292.677
293.365
283.15
303.15
292.501
297.135
298.07
301.562
283.459
292.502
292.852
293.564
292.407
292.4
303.151
291.674
293.653
292.541
283.139
292.59
292.568
292.803
301.986
293.901
292.685
303.187
293.704
292.019
283.15
299.005
292.84
302.101
302.826
294.673
292.769
293.238
292.054
293.425
292.682
293.535
283.15
292.603
292.676
295.15
302.943
293.044
288.185
293
298.911
293.006
283.158
293.133
292.341
293.464
292.697
295.255
293.325
302.927
293.271
292.682
291.267
298.24
302.944
293.281
292.72
292.741
298.513
294.069
294.316
288.188
289.742
293.35
294.462
289.072
294.118
292.92
289.331
302.814
292.836
293.354
289.43
293.385
293.299
294.025
299.714
292.777
294.618
292.217
293.466
292.812
293.137
292.792
295.052
287.183
298.572
299.533
289.326
293.072
292.979
294.784
295.979
293.357
292.772
292.475
298.682
285.525
293.077
292.927
292.8
292.802
292.799
296.225
287.992
296.574
293.231
292.863
293.168
299.581
303.15
293.413
292.706
292.99
296.963
293.404
299.697
292.44
293.408
292.521
292.441
299.658
293.624
292.174
301.302
292.077
283.15
293.153
294.341
292.002
289.332
293.417
303.15
294.296
301.437
293.454
291.634
291.211
283.15
291.26
301.371
287.259
290.352
292.985
283.15
283.229
295.954
291.558
283.15
298.926
291.964
290.402
290.569
283.15
303.15
298.523
293.432
294.398
295.702
295.012
301.377
293.369
301.186
295.293
293.015
292.094
303.15
293.612
300.062
295.446
295.689
291.922
302.833
286.646
295.642
293.882
292.396
296.204
295.419
283.15
291.14
292.613
295.755
294.105
292.073
293.356
292.66
296.433
296.074
295.216
296.197
294.294
295.787
294.787
292.019
291.979
295.613
295.814
296.774
300.259
297.341
297.454
297.95
301.25
291.998
303.146
283.148
290.49
283.15
292.64
301.797
303.551
295.263
303.01
303.129
291.144
283.15
292.09
292.666
290.851
293.026
300.6
283.15
291.101
303.15
292.952
293.477
293.615
301.072
295.237
293.053
302.015
294.057
289.223
302.271
286.672
295.408
291.732
292.616
294.649
300.554
302.96
293.23
289.818
289.043
294.068
295.288
294.649
295.878
292.748
290.269
292.548
294.207
294.247
295.783
291.135
292.939
292.971
293.775
292.975
293.431
290.954
294.092
292.895
292.177
293.345
293.392
294.7
293.338
293.348
293.552
286.565
302.177
291.967
299.93
296.663
294.71
292.825
295.979
303.15
290.012
293.136
292.952
295.298
296.777
295.482
294.334
298.705
288.437
292.649
283.142
292.923
291.345
291.609
293.349
293.349
292.66
292.641
296.164
297.909
300.887
295.599
294.842
293.51
292.829
293.844
295.388
293.748
295.506
294.703
289.675
293.417
295.692
300.952
296.728
293.432
303.15
292.593
295.698
293.367
294.714
283.15
293.638
292.378
293.478
290.616
292.992
293.64
293.602
292.916
293.277
295.199
293.16
295.385
290.853
292.434
293.62
283.15
293.637
292.24
293.739
293.569
295.1
295.181
293.161
293.159
295.479
293.014
292.991
296.657
296.188
293.433
297.939
292.875
293.912
293.349
293.695
293.668
292.315
296.018
293.075
296.425
295.428
294.965
299.987
292.904
296.147
295.109
296.782
295.667
293.66
292.867
293.028
292.97
292.816
293.412
303.15
294.006
289.372
283.15
283.15
292.525
292.941
293.223
299.298
292.967
292.9
293.549
293.788
292.916
292.617
292.832
300.857
286.359
287.364
293.276
293.892
293.73
292.939
294.224
292.822
283.15
292.97
291.72
295.915
293.281
289.617
292.711
284.191
288.496
292.318
294.621
293.406
293.31
303.15
293.131
293.607
293.774
293.252
292.014
292.97
293.163
293.493
303.15
287.15
291.366
293.441
293.29
293.652
292.018
293.512
291.374
290.51
283.15
283.15
294.588
293.424
291.661
294.157
293.507
291.586
293.115
293.613
293.098
303.15
283.411
292.813
293.589
290.627
292.721
295.837
293.207
292.075
285.215
292.974
289.293
295.573
291.023
293.908
302.029
294.376
293.606
283.15
294.268
293.208
296.893
293.817
300.508
291.971
301.266
292.648
297.614
292.809
294.611
293.394
293.749
293.433
293.92
295.035
292.926
293.404
293.356
292.99
293.454
292.177
292.98
293.453
293.449
293.457
292.771
292.068
299.361
293.972
293.88
283.15
283.15
291.124
292.775
294.357
294.574
294.046
291.637
292.199
293.621
292.327
294.097
289.771
292.798
292.178
292.133
292.789
291.94
293.604
290.944
293.092
302.661
290.512
292.685
296.797
293.348
285.564
293.405
298.653
303.387
296.196
293.646
293.175
293.119
298.423
293.781
290.071
292.881
293.941
286.383
285.953
292.733
292.756
293.284
292.888
294.029
290.898
292.774
293.742
293.556
293.062
294.73
294.951
290.937
292.26
292.253
293.062
293.692
293.709
292.703
292.728
292.942
290.012
293.265
290.673
292.941
303.15
303.15
292.776
292.001
295.682
293.266
292.88
293.104
296.996
293.32
291.967
293.54
293.509
291.253
290.81
292.8
290.874
292.733
293.68
292.616
295.393
295.465
293.31
294.525
294.509
293.761
292.728
303.242
290.48
303.15
292.817
291.766
292.738
296.089
292.964
290.842
293.151
292.604
291.149
294.381
294.512
283.15
303.15
282.892
292.774
301.983
284.047
303.15
293.365
300.872
294.263
283.15
291.752
293.054
292.88
293.045
303.15
303.15
293.355
283.15
296.671
290.912
295.553
294.343
294.943
293.889
292.697
296.774
290.917
283.15
300.788
303.15
303.15
297.79
293.857
294.85
294.737
291.434
283.15
300.976
292.103
290.448
291.233
291.802
303.15
290.47
292.949
290.783
291.014
292.793
300.84
292.804
292.666
292.654
294.447
292.201
292.682
283.15
292.167
293.717
292.685
296.686
301.948
302.709
293.57
295.793
293.65
293.213
291.447
292.104
300.575
293.04
283.15
291.819
290.47
290.344
290.517
291.8
290.475
283.15
303.15
297.11
292.843
292.501
295.104
291.545
297.957
283.146
293.498
283.668
293.456
293.466
292.986
292.751
292.902
292.846
292.175
294.957
303.15
295.676
284.939
292.872
297.801
298.036
293.774
292.082
293.351
298.075
293.374
296.182
293.417
292.438
298.68
292.774
294.561
298.112
294.133
296.555
293.861
293.348
293.35
297.007
293.302
289.869
291.94
292.561
293.076
293.299
292.748
291.937
291.514
291.253
293.716
295.878
292.07
283.15
292.534
293.419
291.863
299.663
291.871
294.105
286.32
291.134
290.753
292.061
293.869
292.801
293.493
292.376
293.395
292.749
293.202
283.15
290.847
293.397
296.832
292.616
296.329
294.095
295.976
297.513
295.571
287.431
297.25
294.025
295.387
293.2
294.177
297.509
292.758
292.61
293.418
292.773
290.558
294.817
293.356
293.842
293.569
283.15
290.097
292.473
293.604
293.402
293.171
293.274
292.311
293.086
293.71
293.242
295.597
298.738
292.843
302.766
301.08
303.15
293.802
294.234
293.401
295.413
293.445
295.137
293.734
293.673
292.107
302.511
283.15
298.124
290.029
294.39
292.772
300.303
290.511
288.358
300.868
287.194
290.685
290.299
292.992
283.115
291.995
289.931
282.401
293.563
293.485
293.611
296.769
292.316
284.906
291.411
302.41
292.656
292.301
297.407
303.179
293.035
291.647
294.833
290.921
292.731
293.496
293.226
284.325
293.241
294.576
293.105
293.173
291.427
293.446
293.84
291.036
292.965
293.587
300.294
293.148
293.539
293.596
294.646
300.447
290.231
293.588
292.899
298.925
293.07
292.401
293.477
283.222
283.15
297.201
293.223
285.065
297.045
283.144
291.985
292.091
298.593
293.577
292.453
290.645
293.316
283.15
283.149
292.388
293.209
282.637
291.895
292.099
292.442
303.151
293.612
293.217
293.631
286.01
293.095
292.387
292.097
297.34
285.996
283.744
293.361
284.421
283.289
293.773
293.673
293.795
292.314
284.347
293.855
293.376
289.458
297.401
287.173
291.3
291.969
293.57
295.705
292.813
296.336
293.14
293.34
293.356
296.748
292.713
303.15
287.445
294.982
285.599
293.843
285.811
292.045
296.63
287.972
293.045
303.15
286.254
292.077
288.238
285.271
285.173
290.776
285.47
288.572
291.919
294.509
295.585
292.599
289.253
294.611
294.002
293.048
294.639
293.008
293.071
293.932
288.525
299.562
288.967
288.38
287.415
292.959
286.465
302.409
291.906
295.182
292.977
293.451
294.819
291.005
291.246
293.36
293.45
295.852
283.15
292.505
291.785
293.251
283.15
283.15
302.589
296.43
286.895
293.382
293.621
294.452
293.924
303.103
283.15
292.357
293.448
294.41
292.485
292.745
293.436
292.133
284.084
299.071
291.817
293.564
291.557
293.922
290.921
293.935
300.08
292.615
299.603
291.843
299.155
299.195
302.346
302.082
299.489
299.694
299.54
289.054
293.378
292.463
291.827
292.882
288.847
293.554
294.173
290.626
292.546
285.6
292.293
292.827
291.58
289.987
293.517
291.23
301.034
293.61
299.97
301.468
289.118
293.457
293.754
291.98
290.274
299.035
290.779
292.413
293.637
292.125
283.15
292.029
292.098
293.181
293.887
292.966
292.121
290.843
292.78
290.854
292.179
293.901
293.115
292.827
292.125
297.391
293.44
291.748
293.321
292.636
292.187
295.913
283.15
292.868
293.087
292.132
293.624
290.964
293.085
292.852
293.01
301.891
302.254
294.634
293.485
301.131
304.618
292.446
302.216
302.159
293.47
292.458
292.988
293.157
302.352
294.173
292.424
293.12
302.35
293.523
293.691
292.607
292.479
292.781
294.118
293.201
303.08
293.485
296.172
292.788
292.506
292.552
292.545
293.109
292.498
290.508
292.512
293.144
293.048
293.036
294.124
293.049
299.255
292.821
292.671
293.213
287.046
301.438
293.42
301.094
291.193
300.511
293.2
301.534
283.15
298.683
293.276
290.917
290.433
296.684
298.689
297.846
294.207
292.805
293.563
300.201
292.811
291.799
298.93
292.769
283.151
292.943
284.221
299.026
287.903
299.042
291.659
293.107
293.783
295.773
293.197
293.251
292.675
296.741
289.166
295.185
292.977
297.322
292.841
292.12
298.13
297.058
291.265
291.818
297.132
290.307
287.445
297.546
298.822
303.15
292.207
285.56
293.553
304.279
291.265
287.609
296.077
283.15
296.479
283.15
291.652
294.755
297.508
293.002
292.298
293.741
292.174
292.243
293.893
294.097
301.822
283.15
296.485
286.15
297.296
292.654
294.45
292.661
301.922
294.083
295.024
294.907
288.689
295.6
300.128
292.676
292.648
293.462
293.612
299.359
296.606
292.564
292.556
290.752
292.784
294.54
294.234
303.144
295.582
295.689
290.651
299.162
290.29
293.486
303.15
293.361
283.15
293.308
293.31
286.945
294.908
292.375
293.18
292.326
291.095
283.15
293.514
287.957
292.801
294.36
291.289
292.798
289.75
293.407
298.281
295.801
300.579
291.772
293.327
293.023
294.066
284.602
296.425
297.125
292.195
296.641
293.733
296.623
297.117
300.245
295.155
294.377
290.565
292.721
292.737
303.109
303.15
292.879
295.388
290.324
293.448
292.98
303.15
303.15
293.953
294.789
293.44
295.1
295.229
287.262
295.086
294.703
295.175
295.23
295.837
289.754
291.714
292.533
298.641
293.486
293.981
293.039
292.633
302.508
290.591
293.624
292.56
294.041
292.535
283.15
292.828
292.347
292.756
293.998
291.649
293.094
302.705
290.54
289.955
298.266
295.645
303.15
288.105
297.619
300.9
293.644
292.391
295.841
295.998
293.491
294.073
293.256
294.748
292.659
292.309
291.696
296.364
292.354
293.722
297.255
293.4
297.037
293.492
292.415
293.087
293.107
293.428
294.053
295.575
295.031
293.488
300.808
295.227
292.183
292.246
293.076
293.372
293.267
293.101
292.347
289.493
293.282
291.995
303.15
293.491
293.55
294.257
294.707
292.788
293.257
302.45
295.149
297.406
289.869
289.767
292.722
293.465
293.789
293.7
294.151
290.415
293.397
293.286
293.337
292.912
293.002
293.458
293.349
292.641
294.285
295.599
285.18
291.73
291.993
294.499
294.385
293.148
295.973
295.661
295.902
295.666
295.002
295.661
293.426
295.387
295.332
290.23
292.114
291.503
295.211
292.722
294.779
293.029
302.969
294.652
295.681
296.841
285.481
295.17
290.261
285.428
293.125
290.289
293.757
292.035
282.85
293.085
294.996
292.764
292.897
300.07
297.295
283.146
297.866
292.749
300.965
290.295
293.525
293.031
293.568
301.325
296.122
293.603
291.784
295.245
293.154
283.15
294.645
292.585
293.59
293.074
295.59
292.572
290.422
292.312
292.877
293.666
291.945
294.987
292.784
290.91
290.474
291.479
291.116
293.483
290.436
289.494
292.983
296.965
293.22
297.621
286.672
290.145
299.374
290.225
291.701
303.2
293.392
292.772
289.958
294.592
293.04
283.15
289.775
290.272
293.144
294.367
292.62
290.821
291.371
287.294
290.072
297.476
295.796
293.539
297.281
283.6
292.694
288.684
303.15
297.598
293.005
292.285
292.771
294.251
293.116
294.306
292.826
298.147
290.166
303.15
290.136
289.597
287.532
289.974
289.548
291.991
286.327
303.15
292.124
289.699
286.597
292.771
292.838
292.436
293.04
289.994
296.718
293.365
293.101
292.802
293.841
293.766
301.587
292.632
288.683
292.759
293.498
296.617
292.578
294.979
293.393
300.899
292.989
292.824
294.086
293.362
293.878
286.248
295.421
293.769
295.895
293.474
293.823
293.605
302.453
293.041
293.369
295.439
303.115
293.143
294.442
283.15
293.833
296.743
289.413
293.298
291.565
293.659
295.7
293.553
293.881
295.703
294.579
296.588
293.323
293.734
292.998
293.655
303.15
293.606
293.276
293.566
292.848
293.724
293.284
292.979
292.64
287.478
283.188
292.539
293.898
293.037
293.663
290.31
294.443
293.666
293.453
292.822
291.378
292.204
293.256
292.949
292.959
292.976
294.286
293.326
293.369
293.122
294.407
292.375
298.824
290.612
293.751
296.534
293.659
293.78
296.888
297.076
296.907
293.343
292.749
291.794
292.278
293.66
292.911
297.204
287.571
301.622
293.573
292.28
293.764
293.104
292.926
291.729
291.547
293.335
291.696
292.81
293.604
287.047
294.357
288.501
295.192
291.582
291.978
293.544
291.711
291.978
283.15
283.15
292.893
290.044
296.74
291.768
292.097
291.774
293.007
293.116
290.993
296.135
293.567
291.73
283.15
293.707
293.592
291.634
290.989
286.742
287.813
288.536
291.266
291.326
297.693
294.162
294.195
294.442
300.989
285.01
295.936
294.454
285.038
284.92
293.025
293.196
290.696
291.433
296.452
293.16
283.15
291.203
293.429
297.487
285.006
293.646
291.135
295.807
296.93
289.202
292.23
293.925
300.245
293.381
301.697
294.026
292.718
292.559
293.834
293.448
294.117
291.094
293.665
284.099
291.122
293.631
292.664
294.005
293.47
292.963
293.335
293.483
293.716
292.342
293.037
283.72
292.13
293.16
293.938
293.628
284.774
292.069
293.449
283.15
293.385
294.18
294.103
293.483
293.172
293.735
293.201
293.67
301.233
283.569
292.911
288.404
283.15
293.533
288.448
293.533
293.433
293.863
283.15
293.07
293.245
293.284
283.15
293.906
293.234
293.438
291.101
293.819
286.955
293.969
293.467
293.377
293.319
292.786
293.961
292.786
294.1
283.15
293.355
292.961
293.416
293.239
294.246
293.172
293.876
293.722
286.994
293.673
293.443
294.58
294.164
294.015
294.106
294.469
293.46
290.614
294.083
293.622
292.17
294.138
293.774
294.199
292.294
302.493
294.505
295.195
297.197
293.363
295.382
292.158
292.842
283.15
293.666
293.344
295.68
292.108
291.753
296.679
293.528
290.915
298.885
292.075
291.788
290.551
290.806
294.233
292.68
292.627
293.447
283.15
293.316
292.677
292.59
292.606
292.606
292.52
293.395
293.64
293.766
293.336
293.658
293.749
293.476
293.338
293.161
292.221
292.815
293.473
292.425
292.486
293.465
293.088
290.176
295.012
292.947
292.639
294.62
294.113
293.609
294.376
292.639
293.646
293.577
293.721
293.448
284.891
293.721
292.788
292.532
292.902
283.73
293.206
293.32
283.215
284.925
283.15
293.406
293.449
283.746
293.164
293.12
283.15
284.995
290.098
291.717
293.455
292.743
293.8
294.094
294.198
294.095
294.113
294.163
293.268
293.417
293.349
285.295
293.468
289.575
285.499
285.341
290.976
293.994
293.648
293.289
294.118
294.045
294.464
292.965
290.263
293.522
293.586
293.665
291.616
294.136
293.399
293.611
294.3
293.888
293.503
293.627
294.031
293.477
291.421
293.594
293.366
293.834
294.352
293.05
293.595
283.15
292.663
292.025
293.342
293.491
290.619
293.966
292.307
289.994
293.415
293.608
293.167
292.671
288.735
291.639
289.236
301.693
295.531
289.025
293.176
292.792
296.054
293.457
292.965
290.267
293.09
289.02
293.441
291.687
293.28
296.329
288.938
303.15
293.523
293.385
294.053
288.74
295.6
291.083
293.787
290.809
290.98
300.436
283.209
290.838
295.203
293.575
293.784
293.526
290.598
294.372
293.775
293.099
293.619
291.43
293.564
289.669
291.999
293.977
283.15
284.924
289.14
291.542
293.795
291.372
292.736
292.617
292.635
293.569
285.767
287.998
292.51
293.678
293.702
294.262
303.15
292.611
293.656
296.861
303.15
288.244
293.288
294.027
293.273
290.43
291.745
292.654
288.964
294.029
292.688
285.25
295.333
283.15
293.666
293.241
293.585
293.444
293.562
294.197
293.547
293.764
293.141
293.87
299.047
292.577
292.028
292.148
294.898
292.314
292.776
286.515
293.018
294.086
292.392
303.15
293.622
293.611
283.194
292.351
293.229
293.518
291.236
293.398
293.091
293.055
293.84
293.422
294.735
293.429
292.665
291.901
293.308
291.783
293.422
293.562
293.59
293.399
294.362
293.411
293.968
293.314
294.051
293.952
294.059
293.124
293.079
293.214
292.315
293.727
293.461
288.341
298.832
293.88