/*--------------------------------*- C++ -*----------------------------------*\
  =========                 |
  \\      /  F ield         | OpenFOAM: The Open Source CFD Toolbox
   \\    /   O peration     | Website:  https://openfoam.org
    \\  /    A nd           | Version:  10
     \\/     M anipulation  |
\*---------------------------------------------------------------------------*/
FoamFile
{
    format      ascii;
    class       volScalarField;
    location    "0.5";
    object      p;
}
// * * * * * * * * * * * * * * * * * * * * * * * * * * * * * * * * * * * * * //

dimensions      [0 2 -2 0 0 0 0];

internalField   nonuniform List<scalar> 
111485
(
9.55066
3.66544
4.25856
9.40585
4.40697
9.22561
3.73387
3.24548
3.74314
5.52491
3.69714
4.76176
3.767
3.6644
3.78469
3.84745
1.21388
8.79816
3.73442
9.35121
9.31517
9.34362
3.78316
3.80458
4.38997
9.08061
5.29896
2.07733
4.24837
9.64496
7.33745
0.844735
9.43689
9.69377
8.79387
9.94325
7.2616
0.20018
8.50263
3.898
9.83776
5.52474
3.8941
6.41509
8.18858
9.95787
6.06021
3.79072
5.51186
9.04615
9.05213
8.85121
9.04656
6.54233
9.04427
2.34653
3.7833
9.95154
6.06497
3.89072
3.90177
9.54602
3.02262
7.1718
8.89838
2.65259
8.63352
3.45734
3.04637
3.26524
7.84787
2.73696
8.89671
3.04135
9.81197
1.56903
9.42388
5.30588
9.34209
8.8912
7.47885
6.23756
9.52078
9.75757
2.99775
4.01479
8.58878
6.57211
7.6104
1.11446
8.17683
4.02338
3.01441
0.435055
5.53254
9.74733
9.55847
6.55918
8.45158
6.83693
9.50072
5.33172
9.84592
5.22881
3.55175
8.89288
9.74867
0.98617
4.10995
8.15572
0.672495
2.71792
4.01366
4.96089
9.07925
1.47357
9.13075
9.95722
3.07019
9.35648
9.07736
8.78344
9.51689
9.95574
5.76499
8.83724
8.79524
1.13918
9.85289
8.40427
7.29863
6.54697
9.7962
8.776
8.80847
3.64627
9.45289
1.5642
3.34491
3.37531
5.59769
3.38341
3.37531
4.20984
5.88653
0.140251
9.44624
9.72325
9.83367
3.56334
4.22166
9.32212
7.33808
0.0115346
8.28599
3.5369
3.4982
3.7444
8.28007
9.92263
9.406
3.52695
4.23325
8.29792
8.31065
1.37012
7.02783
9.93354
8.31529
8.3104
9.83594
9.7012
4.58827
9.62233
0.251837
0.0486285
8.99671
8.90694
9.09966
8.9274
8.9133
9.39408
3.56795
3.57618
3.53909
0.0138961
5.31137
1.88371
7.22693
9.48359
1.64927
8.91868
9.57924
1.89927
5.50978
6.99036
2.51064
0.206827
9.80652
3.58414
4.16729
8.66472
6.21105
1.07833
9.87713
1.91059
5.0655
8.90229
6.95497
6.03516
4.18621
1.86952
8.89843
9.59627
1.88438
8.68581
6.55696
9.6044
1.9042
1.62305
5.61666
9.96395
2.11905
6.85352
8.74047
9.61772
9.8443
7.80942
8.28436
8.88593
8.802
1.63816
0.42012
2.72754
8.88167
8.9207
7.16224
9.83689
3.55328
1.62921
1.64186
1.63061
1.64182
9.86177
7.52264
1.29401
9.8934
9.49981
6.57688
2.72786
8.8787
0.813859
1.21374
9.71384
8.7819
6.14209
9.05279
8.83908
8.70307
9.20864
1.42358
1.6155
0.129317
9.9705
1.24603
9.4262
9.53906
9.86012
7.2141
5.32757
2.86663
2.90674
4.96717
2.87343
2.93395
7.52264
0.414854
0.429651
9.01927
9.70096
7.58772
0.991028
5.6188
0.511871
9.37584
2.91569
3.58425
2.85888
5.05622
7.57756
2.84492
2.89335
6.20447
9.96129
5.28535
9.62362
8.83194
8.82156
7.80327
4.98637
3.85927
9.15874
9.93678
2.2502
0.707169
9.30344
9.6137
9.05583
1.60727
0.434636
3.48746
3.65555
3.96568
8.84836
9.76537
9.78032
2.25532
8.6369
3.8825
7.65334
7.13192
9.50547
9.5383
9.55745
8.79764
2.43022
4.36254
9.95502
2.39773
8.85745
9.06609
6.69923
2.41374
4.91223
2.38
8.86583
8.80398
9.87137
2.40599
0.121374
7.40975
9.05263
8.56227
7.42059
4.42702
2.13723
8.48513
3.99082
9.40633
3.99547
2.45571
7.57624
6.67879
4.46897
9.72652
9.78178
9.79559
9.41191
3.45094
2.07989
4.94719
3.99339
9.67771
4.66952
9.77135
9.55604
3.99208
8.92332
8.7102
9.93778
9.96715
3.5421
9.95841
0.0935615
4.6102
9.34573
3.20148
2.53507
8.88638
2.48277
4.70445
2.49315
6.9795
0.197762
0.455604
8.87432
9.71792
6.38535
9.90788
4.85997
6.79067
8.95739
9.89562
2.36298
4.80661
0.409312
4.62169
9.4313
7.32817
4.75932
9.18145
6.41964
4.83389
9.59866
9.37844
0.0932296
4.40298
9.91699
9.13652
8.683
9.49782
4.49899
9.60895
9.46978
4.78147
7.32327
5.8882
4.39304
9.23852
8.79317
6.41282
8.82065
6.41348
6.4377
5.46061
8.63634
8.82578
0.790433
8.21673
9.63586
6.69391
4.63523
9.96977
8.43266
5.59236
8.81312
4.91085
4.7657
0.221298
9.27874
0.198873
5.0335
0.209707
7.95288
8.80291
8.22588
9.80831
7.34098
0.206025
9.82067
4.91212
6.11122
8.78762
9.96042
8.84478
9.31169
4.40936
0.205455
4.85472
4.88493
6.93109
9.62404
4.98749
9.55284
4.40303
9.14413
9.55438
9.68932
4.89632
9.73716
9.59314
8.81909
9.56383
9.86539
6.14054
9.96133
8.82143
9.77941
9.60961
9.21458
9.78859
9.37236
4.93513
9.79044
6.20023
5.06836
8.20809
9.13582
6.18762
9.78429
9.54545
4.8913
4.85775
4.9261
7.65946
8.85571
5.65381
5.66373
0.301788
0.557545
5.04753
9.68745
0.317986
8.78174
5.71922
9.65264
5.71653
8.8016
0.625292
4.83707
8.80022
9.78422
0.573456
9.27349
5.6516
5.6998
9.88269
9.77325
8.88869
9.80799
8.29757
5.63764
9.02545
9.93159
4.42412
9.34484
5.67077
9.4048
5.96248
9.55248
5.53527
5.65021
2.44766
0.602318
9.08165
0.161646
9.11575
9.66266
5.19696
9.6602
5.5655
8.89218
5.72942
9.65728
5.19245
9.30143
8.82639
8.22335
5.24545
5.65071
5.22719
5.67387
4.8176
9.82579
5.66911
5.23162
9.57805
7.73354
7.13373
5.66322
8.99773
8.7541
4.36554
5.81974
8.59103
8.7737
5.22834
4.37334
5.30535
5.32762
0.575207
8.53592
8.81594
8.24856
8.5734
9.42962
5.61933
9.91496
8.83923
1.10543
8.53796
8.31798
8.49563
8.82816
5.36152
4.38942
9.11289
8.78514
4.37153
9.163
9.3297
9.37426
9.10486
5.36396
9.7684
9.87975
5.40303
1.67521
8.74068
4.37813
8.83558
1.64924
9.04123
9.84602
5.39619
9.65012
9.14957
8.83911
0.13301
8.68433
5.54331
1.11811
9.13593
8.21969
5.56854
4.54702
6.97714
8.34908
4.44957
9.67485
5.52344
4.53099
9.87382
2.57586
6.22788
4.64758
0.142218
4.67134
4.65426
9.79062
5.65764
6.95946
8.81882
4.66607
5.68084
8.69235
1.11219
4.65407
5.70352
4.91445
4.94617
1.12072
8.96516
4.94977
5.58652
8.81562
5.28351
5.29608
1.19316
9.67039
0.11838
9.89941
9.46865
9.71751
9.10743
4.52898
8.83662
8.31369
9.5797
9.23069
5.29743
5.32141
9.26881
5.68405
9.54695
9.85957
9.05344
5.81438
5.6361
8.83328
9.97198
9.64464
9.69177
7.146
1.19716
8.81878
5.1849
8.21374
9.88342
5.18242
6.03893
0.597207
9.29445
9.60696
2.67855
1.17388
8.82816
9.82256
8.98818
1.97279
9.70895
9.14284
9.58834
5.13442
4.05621
9.35222
8.7641
8.7635
0.589474
9.92611
9.19101
5.85133
7.17632
8.81832
8.67572
8.4383
5.96611
0.033669
8.92512
4.35437
6.12907
9.96344
9.03402
9.46327
9.62629
9.78384
9.3818
5.14529
9.54055
9.45946
9.01741
5.15925
1.16583
9.05475
9.03118
5.98707
1.17794
1.21146
9.18179
9.47046
1.18802
9.73275
5.20131
1.17916
1.22648
9.07078
9.49421
9.49346
9.71835
4.40546
9.50221
9.40893
6.53539
9.4787
2.07615
6.0964
8.96628
1.134
8.7566
2.07521
5.39787
5.59508
5.92447
8.3677
8.83115
2.05985
6.00322
0.0286197
8.88321
8.35994
8.71891
0.340516
9.7325
6.17997
6.04165
6.16984
8.84359
9.51445
9.96717
1.18151
8.85196
0.811451
8.903
3.95936
0.317461
0.842391
1.18488
9.38609
9.08301
8.89817
1.20558
9.14989
8.85043
8.07151
9.92631
9.91857
9.48562
9.47065
0.862792
8.9367
9.60223
8.37029
8.84157
9.93474
8.76979
9.57216
6.16986
0.831187
9.32681
4.44413
8.50396
6.18315
8.29254
1.03944
9.80332
5.44639
7.05159
6.20002
9.77203
8.48971
0.866913
8.7793
0.809651
7.67263
7.94131
3.23007
0.574145
7.79214
0.14429
0.745696
9.71914
9.08235
0.56682
0.564596
9.86996
0.575664
4.8546
0.735076
9.03719
7.87677
9.73516
0.782629
0.748078
9.26607
0.391762
0.725426
7.9068
0.226145
9.01783
3.48118
7.92534
8.37692
7.8657
6.70438
9.68664
9.73375
6.54983
9.46044
4.98341
6.78203
8.70742
8.3764
8.36414
8.35444
9.47007
8.77873
1.77717
9.85118
8.8365
6.67824
9.12337
9.22469
8.35767
8.27354
9.46334
7.9488
9.61908
9.64447
9.8726
9.55894
9.01315
9.72383
6.75508
9.07741
9.83451
9.8807
8.45027
6.66748
4.12439
1.76217
9.29123
9.15597
6.97683
9.55654
9.22192
8.72358
6.83346
2.30461
9.30853
9.20928
9.1145
9.19247
9.81565
9.16421
6.94422
9.14947
7.94881
3.97339
9.68712
9.51736
9.02487
7.93172
9.03083
9.41163
9.69665
8.02237
9.75781
6.93109
7.23546
7.86686
9.36297
8.64534
6.95105
3.82906
8.9268
7.97922
5.75175
9.14802
8.95555
8.76555
9.20367
1.77717
3.44843
7.11981
8.12803
9.2766
1.76661
8.93891
8.81598
8.76974
9.84671
3.12266
9.58573
9.01562
7.37863
2.30541
9.01829
5.60333
8.91121
7.13434
8.9027
9.6548
9.79337
9.46088
0.813139
3.41315
8.35635
9.29983
9.00095
0.834855
9.46992
8.85045
9.56777
5.12746
8.17227
4.40042
9.15079
7.46009
7.41503
8.87369
7.42513
9.10671
6.4518
5.78978
3.34879
7.41984
7.41361
9.51129
9.62801
9.63249
7.42605
9.9641
7.5466
9.90287
8.41225
9.12404
3.8564
3.97544
9.02253
9.42184
9.00915
9.9122
7.54779
9.00218
8.76278
0.833192
7.53825
8.87215
8.8478
8.81016
8.84937
9.11259
9.52715
7.56802
5.80531
9.39977
9.0584
8.30224
9.56386
7.55928
0.834703
8.96949
6.55705
9.47908
0.500628
9.06249
4.26811
9.25352
8.26793
8.06002
7.76578
6.58699
6.58402
8.64875
8.96469
6.62971
9.04371
3.11676
9.22193
9.76947
8.81336
9.76881
9.81238
9.86319
6.58868
6.5948
9.48418
8.7462
9.15
6.69595
7.90355
9.61163
3.12964
7.88169
9.03131
1.09026
0.758733
2.98317
7.80437
9.46354
9.57565
9.6934
9.39171
3.14286
9.79215
6.71415
9.53251
6.75784
4.28544
9.75223
6.72705
9.86855
9.44567
6.79334
7.17089
8.54335
9.53544
8.99837
9.1865
3.24713
8.87522
9.89226
8.97637
8.50626
8.80197
8.24683
8.84997
8.96943
8.958
0.933383
0.822807
4.81539
3.57938
9.90275
6.78612
9.66168
9.87508
0.799663
9.07813
8.29804
6.76231
0.574615
6.83818
8.31914
4.77185
9.82237
8.34476
8.37215
5.82319
6.95555
2.38789
8.67528
9.54439
4.60272
9.17245
9.21254
8.2613
5.51257
8.36933
9.66354
9.66703
7.36847
9.02943
9.08342
6.89082
9.01176
9.02523
2.78185
6.91222
7.0813
2.78543
1.41559
9.13994
9.5013
8.2831
2.76708
9.37227
9.01538
4.90911
9.10434
8.74459
8.8131
8.82224
8.67063
8.68258
9.37224
4.66591
9.18269
7.0444
9.25232
8.64077
9.02043
9.04823
9.83148
9.45361
4.32514
9.46566
9.45419
8.8394
9.21744
9.81503
9.65011
2.62777
9.47362
2.38769
7.09021
9.04517
4.72347
9.32262
5.96494
7.94876
0.619229
0.632926
9.07652
0.68677
4.33801
7.75209
9.85324
7.24388
2.07282
0.309598
8.90694
0.393365
9.0001
9.81641
9.22376
9.35881
0.393607
9.61931
9.23851
0.309852
7.24731
0.301679
9.87672
8.7157
4.73139
9.73282
8.31266
9.02918
0.66894
9.05368
9.10226
4.69474
9.25095
7.21392
9.56908
9.25212
2.05044
6.10411
1.50328
3.34993
8.01192
2.65955
9.26138
8.8903
4.02586
1.56272
2.60016
7.21951
9.46174
2.4043
9.42665
9.19083
4.09911
7.2796
9.1159
1.59533
9.82445
1.5174
1.39023
8.92063
9.36704
9.71551
4.01684
9.61029
9.61174
4.05371
1.51012
6.94872
0.366696
9.25696
9.78706
5.0177
4.06923
9.26953
4.04952
8.99466
4.02821
9.32753
9.29053
4.02607
9.4785
5.79873
3.69476
9.13181
9.37177
3.70243
8.73152
4.48072
9.54054
7.0183
9.56064
8.74852
8.75326
3.72762
8.83158
8.80383
3.44168
8.819
8.60793
8.77075
8.99854
9.16374
7.78265
4.48553
9.60109
9.66616
4.44354
4.46331
9.12462
4.06865
9.38975
9.15787
5.17889
4.93675
0.0203281
9.31986
9.66911
9.62115
9.45996
9.11955
9.1261
9.68474
9.16399
9.18768
9.37388
9.63164
9.1681
9.52727
9.29797
9.1926
8.90731
9.29213
9.36779
9.4974
9.57001
9.84868
4.54924
9.57554
9.29993
9.86463
3.09512
9.96523
9.15343
8.54338
8.99698
8.97207
3.11373
8.83153
8.92872
8.5684
3.13305
9.5277
8.70344
8.72713
9.21931
6.40558
3.15261
3.16731
3.04822
1.86016
9.13452
9.23803
2.32909
2.44528
3.04559
9.42766
2.76748
6.18135
2.99949
0.478937
0.543252
3.06584
0.955901
2.99668
9.86222
3.40653
2.76
4.26959
2.77655
9.72536
9.64945
9.80504
9.48374
9.71663
2.4241
2.81002
9.70549
9.19421
9.15489
8.89203
9.24002
9.21649
9.02506
9.17214
2.76992
7.93901
2.80138
4.67173
9.07198
8.88081
6.32926
8.13744
9.35739
9.45967
4.48034
9.90618
9.58964
2.73026
2.79463
2.78501
4.42054
6.27918
9.17468
0.0288205
3.33146
8.7684
9.17705
3.29625
9.14671
9.07254
8.50994
8.44303
4.71834
8.91226
9.90142
7.16999
3.38441
0.0354916
2.43963
8.57743
9.49576
6.67302
8.82068
9.90473
8.93226
4.42645
9.23052
2.41889
0.108069
3.25074
3.36235
9.68911
2.12735
9.76508
8.93245
9.71438
9.11969
0.775678
8.60144
9.46996
9.3848
8.78782
2.43108
8.71267
2.179
2.42899
0.752645
2.43549
8.88945
8.96537
8.80279
4.37961
1.82526
8.35246
9.03796
9.5447
8.76882
6.37924
4.70776
9.46588
1.82313
8.52819
3.38453
1.81219
9.44008
8.75275
1.82764
2.42186
9.65097
5.50428
5.3465
4.71873
2.16334
1.90935
1.96368
8.75741
0.707924
1.96939
1.66431
8.80577
3.24182
8.76606
4.29368
2.06132
9.96642
0.496901
1.9688
2.14784
2.56093
8.82551
8.51619
7.06252
8.59552
1.97874
8.83131
0.601188
1.96146
9.07606
9.50091
8.43944
7.77824
2.83645
8.79962
4.80594
8.04476
8.35022
7.32521
9.02237
9.89355
2.41076
8.88697
2.17059
7.89918
1.96573
0.581141
9.3392
5.85837
2.3938
9.16191
8.71049
1.51056
9.69592
1.51876
1.42183
9.56131
8.83139
3.39985
9.24607
9.30554
9.97061
0.57209
8.28576
4.40235
9.88901
4.28113
1.03851
8.93042
1.03227
1.08549
0.647754
7.85025
9.38847
2.1614
0.401459
1.05817
1.0738
0.679065
7.6974
3.91241
9.53688
0.115766
0.736674
9.44169
1.072
9.8782
9.5927
9.79984
9.93646
9.36934
6.36013
9.78976
1.03417
5.16891
9.88019
4.95455
8.92969
0.732158
9.14991
7.64672
8.91582
4.12946
6.60836
8.02696
1.11917
0.732355
4.26819
0.64878
1.13866
8.61949
1.11964
2.73318
1.14719
9.88455
2.41991
7.80139
1.16155
3.81248
7.89887
9.85138
8.79625
9.08527
4.32321
9.35978
8.67608
0.728486
8.78132
5.31054
9.16093
9.84519
9.46545
2.6801
4.51582
1.25125
6.777
0.599419
2.2952
2.16971
2.75143
0.859066
2.15896
2.25469
8.90331
9.77797
9.96816
3.40641
2.3691
8.99924
9.46394
8.72632
2.17348
0.881601
9.30978
2.25401
9.6032
8.25953
4.33749
7.03791
9.43157
9.55732
2.70053
9.47916
5.77858
1.14828
8.87087
3.03092
3.82102
0.469899
9.10402
7.29752
8.80246
5.53251
4.4002
9.44932
9.82138
1.10661
8.72363
9.72476
1.43459
0.531271
9.52892
9.11273
8.778
2.19018
8.68318
3.43873
6.396
5.42995
9.55001
8.74
6.25738
9.56777
9.63549
9.6725
9.35323
8.80139
8.90483
8.88059
9.15232
8.91228
8.90686
8.8144
8.88818
5.77665
8.88
8.71106
8.74101
8.82022
8.76021
9.55427
6.3796
8.72788
8.89036
6.54014
8.80229
8.82853
8.90403
6.40245
8.83037
6.37235
7.05568
5.42944
8.8602
9.30363
6.35718
8.26084
9.01668
9.88569
3.39995
8.83645
3.38024
8.82947
9.67732
8.7772
3.37324
3.34773
9.63626
4.92322
8.90191
8.73037
7.64264
1.7347
6.36313
9.90406
3.38559
8.73091
5.32086
9.38238
9.12067
9.29606
8.71187
1.73391
2.11475
9.74686
8.30941
9.1431
9.13989
9.13674
9.36935
5.98473
6.00075
2.1603
8.25227
9.96835
4.35648
3.45286
1.59038
5.99168
9.88849
1.70241
5.95991
3.06615
8.26787
3.20583
9.05716
4.10715
6.07978
3.42064
6.10807
6.41157
9.07091
6.47264
8.99001
9.56936
2.80396
9.74895
4.32279
9.66635
9.02411
8.91378
9.10818
9.81881
6.09545
9.08201
5.05112
8.849
9.70384
4.21712
5.83597
2.26832
4.88559
9.7904
8.37679
9.75637
5.34095
9.02391
4.21543
5.96675
6.05695
5.38643
8.9992
8.99931
8.9904
1.83807
9.70614
9.16598
1.83762
9.04289
9.24004
6.03891
8.99463
3.29534
8.23517
8.85891
8.84293
8.82366
2.16088
3.63883
9.35687
0.0694036
5.22815
8.84831
6.15666
9.69699
1.87862
4.27771
1.61136
9.314
4.51333
2.35262
6.37317
5.91119
5.00051
9.45476
9.51191
7.79597
9.20464
9.38385
9.618
1.899
6.18144
2.47063
3.92102
8.8069
4.50219
3.43102
3.68198
4.43525
4.5029
5.66178
4.95249
9.45889
9.44452
9.44857
4.96778
9.71457
5.26391
8.71495
4.96902
8.31354
1.9066
0.927709
9.25114
9.63546
4.98343
4.95129
9.56604
9.51539
9.92647
2.05383
4.95044
5.12635
5.1715
0.494415
3.43279
9.20247
9.77774
9.53933
0.394491
3.29795
0.0558798
3.73898
2.1336
5.18911
8.93164
9.53595
8.74674
9.03295
0.51585
4.41782
9.49471
9.06523
8.89769
9.8749
9.94365
8.88567
5.38146
9.28693
6.59418
8.24379
9.17104
5.27136
0.152671
2.00335
9.69388
8.91486
5.35682
9.47175
5.37639
8.38316
2.17688
8.8753
8.71407
9.4042
9.28148
9.21784
8.87796
8.51923
9.08394
5.39645
2.46544
9.54078
9.52274
5.49985
9.18944
9.60259
2.99209
8.06103
9.14947
9.1415
8.93581
1.11118
9.48572
9.50314
8.44877
5.52223
5.50404
9.33319
9.16522
8.81473
5.52198
5.46896
5.50861
3.89358
9.32818
0.918916
0.185569
0.231077
9.88629
9.81343
9.5437
9.86964
9.48687
2.98724
3.06353
2.46031
9.88732
9.68545
9.47525
9.63572
8.89667
6.71863
0.336389
0.0848507
9.10496
9.44539
9.88863
8.32223
6.27973
7.23609
9.63756
8.40205
8.82746
9.06919
9.50657
2.97941
3.31134
9.16517
9.01395
4.06901
9.50784
2.18836
2.71851
8.52071
9.15763
9.03681
2.19483
6.76383
8.88734
8.52878
0.298904
4.37765
9.29345
9.18532
9.86951
9.53222
0.591476
1.5128
9.18911
6.78601
5.81375
8.32224
9.36037
9.20351
9.17487
9.18896
4.49735
8.79859
9.37266
8.98727
0.996523
5.10191
1.23316
8.96468
9.82762
5.81663
8.88764
9.51665
9.21501
9.29371
3.1771
8.92181
9.2435
9.2506
1.22853
3.31365
9.20021
9.73035
9.10241
3.85249
8.79026
9.0534
9.10968
9.76079
9.6964
8.18413
4.46473
9.96351
3.5228
4.43238
3.08979
9.9068
9.85431
9.437
9.8768
9.23073
4.20841
9.35826
8.71559
8.84945
5.83366
8.81245
5.80302
9.49223
9.70501
6.98725
8.33539
8.85524
5.85445
9.34779
5.82862
8.86134
9.08964
9.17635
8.84248
9.14621
6.65998
9.16384
3.72104
9.76
8.81095
9.69759
9.20348
1.16399
5.34851
9.43484
8.55043
9.9527
5.97294
6.66163
5.34222
9.9679
8.155
5.33265
6.72521
4.52094
8.26674
5.40031
8.89745
9.27762
8.32537
1.86087
5.35611
9.04712
8.87037
8.78103
8.55301
9.92106
9.12489
9.74329
9.86992
9.95534
8.77333
5.28596
7.08617
2.47364
8.75327
7.49499
9.7432
4.27293
9.54734
9.93755
9.56883
8.88638
7.09465
8.94037
9.9598
9.3498
3.65404
9.38649
9.63348
6.9577
8.8969
8.65432
8.62157
8.60544
9.87482
8.61804
8.60325
8.61666
8.64547
9.30268
9.3017
3.62846
5.5767
8.8248
8.7169
9.35942
3.67918
8.89228
8.94362
7.03379
9.22771
9.46307
5.94809
7.08893
9.94551
9.17713
7.55757
8.80589
9.04855
8.25223
3.96281
3.85127
8.9506
3.90964
9.80852
2.41865
8.16562
3.88805
9.38128
8.17092
3.90483
8.89318
8.30943
9.08601
3.66257
8.84557
3.62417
8.98506
6.65648
9.11474
8.98485
9.75472
8.35177
8.3605
9.81514
3.99023
6.65528
9.96504
9.37082
3.00953
0.148621
8.10102
9.89299
4.10889
4.04474
6.99702
8.3019
9.95072
8.1156
9.25428
7.827
9.54773
8.37631
8.37385
9.09366
2.52244
9.00028
6.9147
9.44017
9.09484
9.15198
9.55073
9.19799
9.53578
5.5623
3.0367
7.78785
9.13603
8.74258
7.76175
9.16752
9.96807
9.03932
9.89861
9.09541
0.11776
9.38195
9.78614
9.26986
0.106747
9.12346
9.48704
8.87798
0.571057
9.56396
0.585878
8.2213
5.43745
0.572705
0.613961
8.90022
9.16337
9.41271
0.575395
1.25843
8.97501
8.76112
0.626023
9.61813
9.81091
7.74739
9.08713
4.0389
9.14632
0.631697
6.90843
9.1539
9.29152
9.15058
9.74874
9.61394
6.92568
9.16438
0.646283
9.01874
9.30994
1.4279
9.77494
4.28786
8.92798
9.63217
5.62474
2.52283
7.82323
9.74588
9.76213
9.42885
2.51385
7.52444
8.99796
9.48508
8.90841
1.5634
9.15565
4.32212
7.80088
9.29914
9.21417
1.58913
9.53741
8.86912
9.56285
8.89756
9.66158
7.80539
8.72512
9.05059
9.69866
8.74412
9.22587
8.75351
9.0517
9.12401
8.91103
2.53143
8.90656
1.54614
8.87279
9.1923
8.23918
1.56395
9.16053
8.8947
9.19887
1.516
8.82358
9.36718
8.9629
9.18732
1.70951
9.15317
7.92532
9.93044
5.22777
8.82624
6.29585
9.03741
9.60098
4.9687
8.79324
9.14308
1.25153
5.12007
9.86193
9.74344
5.60227
6.43312
1.53697
1.55099
1.56614
5.61483
1.52629
6.54419
8.98155
7.93577
8.74902
8.74803
9.33473
8.98855
9.58335
1.51192
9.89102
9.95769
9.86245
7.40987
6.51223
8.73063
5.91267
9.78532
6.04204
9.01654
7.06387
1.65149
8.74774
5.12434
9.02395
9.07022
9.44273
1.69538
5.26074
9.42094
9.61935
1.71466
9.74502
8.03256
9.54537
7.56766
9.51334
9.44069
9.84477
9.42954
1.35747
9.42672
8.34732
9.75874
5.39739
9.33538
9.23469
8.6667
8.65955
9.19941
9.25511
9.54096
9.80202
5.11484
8.00156
8.70244
9.71502
5.25421
9.3459
9.70682
8.28847
3.95085
7.34806
9.45247
0.935193
5.58601
2.68853
4.20178
9.56017
9.95398
9.9544
9.7681
9.47042
9.43135
9.43171
9.05212
9.4506
9.43064
9.48362
9.41531
7.56905
9.44237
9.19457
8.85375
9.76901
9.34331
8.55504
9.32793
9.25772
4.21328
7.83238
9.06213
9.93528
9.46834
3.66641
9.91365
9.53979
7.79581
9.5939
9.16123
9.61182
9.69881
7.0497
9.53994
8.10706
9.70601
9.61597
9.27107
9.34904
9.22639
7.81984
7.86547
2.02354
9.78156
8.9584
9.8161
7.86755
9.15365
7.8515
7.85605
9.57577
8.85749
8.73658
8.1538
9.07877
8.82675
8.14156
8.75754
5.75233
9.72697
6.65228
8.75276
8.66839
9.49015
5.0497
9.61105
5.09401
7.03873
9.09504
5.11631
7.99795
9.5227
7.09463
9.22751
9.11664
9.1795
9.09788
8.93678
9.39326
9.15097
9.88404
7.86999
8.83427
9.38877
9.60607
9.11193
9.06033
3.70399
8.58529
7.96173
8.33481
9.1649
4.80764
4.82584
9.42922
8.83773
8.90194
9.00978
9.0185
8.98323
8.77055
8.80839
6.0519
9.29943
9.90017
8.67178
8.71495
9.48611
5.03785
8.94398
9.11572
9.75343
7.45036
9.86645
9.34091
5.68219
9.55095
9.93667
8.8792
9.93872
5.72396
9.32299
9.28732
9.23444
8.87721
6.09955
7.44996
7.43472
5.04818
6.43124
6.45894
9.61929
8.79402
8.15964
6.27767
8.79682
8.16117
9.71156
8.35872
9.09169
7.47261
9.39389
9.15412
6.46469
8.3245
9.0971
6.26317
9.37367
9.56056
7.47521
7.08016
9.77958
9.39126
9.03193
9.45904
9.21817
8.78025
9.78923
9.55339
6.23795
9.79936
9.50415
9.34925
6.47371
9.1619
8.77914
9.51862
9.41751
8.8828
8.78601
6.47469
9.11775
8.80788
3.7739
9.75761
6.27145
6.18783
9.21443
3.90447
9.51983
8.92344
9.6509
8.83665
9.7741
9.91873
9.9721
9.9249
3.84441
9.82498
9.64281
9.82497
8.90333
9.37437
8.88693
7.57615
9.49201
9.72196
7.07523
9.42527
9.48513
9.96391
3.79726
9.29341
7.43588
8.79585
8.29685
0.450447
9.45463
8.80031
3.72847
8.77873
9.44472
8.01358
8.14504
0.0256737
6.8169
8.34149
8.37605
9.82267
9.07613
4.69243
7.63539
7.39686
4.56055
8.26649
9.73946
0.834796
4.69589
4.68097
9.96798
4.66997
0.707488
2.67249
4.43743
7.62161
4.86661
0.987223
4.35222
0.159941
1.97807
4.45587
8.78459
0.109247
0.034147
5.06786
5.90738
0.237413
4.43717
0.164819
8.7767
7.76697
8.77244
2.37166
4.71236
6.01371
3.52754
8.78
9.4728
4.35154
3.55836
7.67594
7.42792
1.20829
4.7183
8.61906
4.73228
9.49263
8.35955
7.69688
6.77534
2.69725
7.75325
7.90686
5.43801
3.3445
3.38223
2.43081
4.75117
0.107031
8.67623
8.7043
4.76381
9.19516
9.48196
4.50513
4.55445
0.366173
9.24676
6.88711
7.09379
3.24892
8.6568
9.49039
7.77178
0.0996737
7.71355
9.95655
1.17343
9.61043
3.50349
5.37413
6.57948
6.63337
9.22897
9.5174
7.18149
4.57503
4.5619
9.52952
3.67848
4.59233
5.92697
9.58583
3.30496
0.264222
8.74631
2.69254
8.40676
7.34456
9.05937
6.994
8.23847
9.51573
5.67892
0.502904
8.51882
5.78603
5.77815
1.03391
5.02837
5.86493
0.363219
7.76357
7.43248
5.49539
0.923048
4.89119
7.94196
3.53633
5.8151
1.98852
4.45604
7.94433
1.05447
9.56143
5.78245
5.76783
7.54027
1.40812
6.7393
9.06154
5.75959
2.68518
9.58242
6.88035
0.11292
5.79823
5.58481
0.675047
0.136134
4.96646
5.59156
6.93313
9.57955
9.47172
6.96976
9.86595
6.98747
6.78384
8.93068
0.690324
5.9431
3.69248
9.82365
2.68184
3.06653
6.87034
7.71652
3.01359
1.29704
3.73202
6.27325
9.48507
9.11112
7.5316
6.2561
6.85911
3.90448
9.11024
6.31251
5.37703
8.92014
3.69981
4.75496
0.356026
8.1824
6.4771
5.41856
1.10599
4.13315
9.86073
5.79316
2.958
5.51098
8.13988
9.11754
6.53364
8.96061
9.41508
3.10861
5.37496
3.37142
8.30938
7.12963
8.58294
9.50498
5.38196
5.38836
3.44253
3.44029
9.15269
9.96972
9.95464
3.46227
3.44853
8.13294
2.64917
8.90562
9.13427
3.45684
3.84014
6.67504
3.43416
3.43132
4.12794
6.45055
8.64872
9.30164
5.28191
0.374567
9.12837
4.97572
4.10177
8.23717
5.25164
4.11406
6.93336
9.13099
3.54388
4.26884
9.83983
8.91501
0.223523
0.343638
1.44705
0.593063
4.12157
4.15425
1.00914
2.64853
3.80039
0.590562
9.10561
9.08399
0.0246821
0.659269
4.10963
7.97933
3.98769
3.92939
5.46656
3.34944
3.96508
9.37905
9.83706
7.93936
9.08998
8.80004
4.30867
2.72718
4.2225
7.7655
8.81092
6.55192
7.99382
8.84544
8.01161
8.06213
3.95698
3.98863
0.262234
4.61158
7.67733
0.673878
9.44237
8.84542
7.30821
1.28772
3.44915
1.32797
6.87651
6.21261
7.56038
8.8533
4.21119
0.888699
3.65767
8.01118
6.53238
7.38654
8.07014
4.23204
0.960512
8.8319
6.00079
4.06048
8.52067
8.79315
8.75593
3.65696
8.7813
0.20414
3.64074
3.41245
4.6094
7.17468
8.62656
8.53882
8.83612
8.69928
6.9471
9.44225
9.44442
8.36698
9.45977
2.66226
3.55019
3.26663
2.49381
2.64325
4.72504
8.69776
1.27274
0.556251
6.15391
4.47126
2.48652
4.20181
9.48395
8.06834
2.43593
5.57633
9.44707
5.64873
4.39538
9.43653
9.17518
6.83095
2.4027
9.64386
4.96631
4.47086
6.84133
9.70932
9.42809
0.387883
7.99604
4.66591
9.46352
9.79507
9.43722
5.37479
8.52129
8.5592
1.67663
8.10986
9.91655
1.66956
8.09154
3.77695
0.429571
0.407821
1.80852
8.35047
0.46572
9.96403
1.90571
0.979956
0.144655
3.03358
0.705642
0.686221
0.726302
0.771371
0.172434
7.08869
8.29583
4.15399
6.94428
7.70732
8.24729
0.754484
8.2702
0.758362
0.17405
2.19935
1.33831
6.83914
1.32636
8.33329
1.56546
8.85093
4.24843
8.56832
3.14158
4.73016
9.84096
5.81573
8.85716
4.94548
8.87147
8.92708
3.26337
5.96337
8.77329
1.28831
3.43882
5.9429
9.13646
9.75514
6.91993
1.8913
7.9538
3.11514
1.03537
5.80597
7.45132
5.52104
5.84324
8.72634
4.21215
9.50708
8.95074
2.34649
1.69109
7.82859
2.25033
1.49082
5.82947
6.05033
8.9791
7.53928
1.46068
5.75975
8.9586
9.85289
4.22786
4.95314
8.72626
6.77526
0.123742
5.09647
0.40525
1.21196
3.1463
9.17807
8.60903
2.5057
7.31704
9.96461
2.35314
6.78911
5.34987
8.34401
2.50293
8.32543
4.22871
7.03216
8.6721
7.19705
9.31794
4.89293
5.91314
1.1542
0.0605758
8.77444
0.0876335
7.35176
5.59769
7.14614
8.72765
9.43227
2.63449
7.24722
5.61269
4.84179
6.72377
1.9028
0.359791
3.63745
0.402032
0.277765
6.81698
8.79972
7.88371
5.53824
0.0281985
6.63904
8.79474
9.26413
8.37274
7.76884
8.86072
7.79664
6.15786
8.84284
8.68045
8.65575
6.03621
2.45279
8.31013
8.66497
6.75136
2.78748
8.85609
0.583342
8.71782
5.34845
1.91087
9.70103
0.557461
6.66632
6.66457
1.69662
9.35064
8.07974
6.39467
7.13339
6.65179
6.92421
7.10134
6.06511
8.13227
6.25538
0.98738
2.49129
9.10717
8.76453
8.70515
8.90165
5.72459
2.89497
2.53381
6.68286
1.4546
2.55857
5.08687
5.95126
5.69573
1.84774
6.12047
6.69174
5.36966
1.35953
9.35877
6.63246
6.62366
5.81251
6.16559
8.87269
3.42393
3.50617
4.79778
4.80789
3.84874
9.05406
3.80634
3.83007
8.76899
3.87376
5.49081
8.90867
3.87205
8.88494
9.96703
3.43178
5.97526
5.51791
3.82975
9.23811
0.594197
6.1741
9.95884
3.10218
3.95661
3.24529
5.64479
8.88002
5.99023
5.96716
5.2121
8.90372
2.71872
1.02983
5.32311
2.33454
2.9418
9.79529
8.94904
8.82006
0.189432
8.85623
2.64952
2.20295
0.71757
8.93112
0.806879
8.87072
9.36023
8.87386
3.25902
0.0848158
8.04213
5.31688
2.84814
8.73974
8.72037
6.74675
6.63892
2.17517
7.68729
2.86731
8.1237
9.33955
8.66756
8.65792
9.37079
8.66448
0.115261
9.47179
2.64859
5.04736
2.86455
0.548252
3.41613
8.76734
2.24672
5.05063
5.90219
6.99041
8.78261
9.29916
6.1141
2.23784
8.26376
8.26502
7.59558
7.88974
8.1481
8.08225
1.68137
0.377377
1.69081
8.29582
1.65557
5.07494
5.46598
1.11501
1.65754
7.57657
8.31618
8.25908
8.30861
8.32125
1.15432
7.06299
9.93292
8.3118
8.37296
0.622354
0.370012
0.135849
5.08216
3.81141
8.37462
0.401014
7.78433
9.14008
2.66467
3.64783
4.14714
9.14664
3.08716
1.70993
0.425937
3.73387
9.90307
9.06389
5.54628
1.05524
1.00894
0.203583
8.89469
9.58098
9.63774
4.13046
4.94873
0.947817
9.56334
2.73261
9.04534
9.01388
0.408322
0.287292
9.14517
0.958878
0.986567
0.199532
9.95219
9.72933
1.76225
5.08142
9.04689
0.870137
0.776048
0.797673
9.00038
8.99333
9.01217
0.795344
0.873666
6.71792
0.774621
9.9059
0.723517
4.78816
6.77919
6.18664
8.89312
9.28399
0.690035
7.16564
6.9773
3.49093
8.91471
8.04854
9.49203
1.17614
7.64601
4.8384
8.9295
8.79111
7.25073
7.4956
8.76905
8.78371
9.52221
3.13526
8.83651
8.77312
5.01362
4.90598
9.51458
8.74742
4.26622
0.738389
0.762374
3.26
2.73661
8.75377
5.07632
8.72101
8.72406
8.75911
3.44506
5.64655
0.776917
8.74219
8.78276
4.89531
7.58603
5.18978
5.70343
4.4896
3.89634
4.44052
0.743145
8.73847
4.81045
3.55713
0.753301
3.19993
5.67004
8.65231
3.17268
3.17705
3.16702
3.17118
1.07707
8.7226
8.86933
3.6887
8.85248
8.86279
4.45339
8.86764
2.64197
8.85289
8.86617
8.91054
8.78963
3.52131
1.14941
3.54229
8.80878
1.68417
3.35658
4.77322
8.83594
9.55851
3.52509
3.75314
7.87106
3.53209
8.83834
0.0368773
0.75067
0.599497
9.25101
8.89231
2.0839
1.75864
8.90702
8.85827
6.57922
0.0499222
8.82371
7.25457
6.56611
6.58229
3.90371
8.85894
4.44381
8.41368
0.3813
0.0771006
6.58681
6.51662
6.02051
2.47769
4.53372
8.78913
5.08441
4.53695
7.84378
7.10371
6.57772
8.79649
3.10846
4.63159
2.59755
3.96271
4.57755
7.65789
0.29805
6.96288
6.09643
6.58996
1.84095
6.62161
6.95345
4.51304
5.54189
8.8643
8.17298
9.9556
4.47519
4.66673
6.63703
6.97335
6.37254
4.54097
4.54842
7.37338
3.51962
1.17022
9.18121
8.73229
6.97399
6.98083
5.4
6.96382
7.78595
7.26085
7.77836
7.74266
8.74522
1.13476
7.75989
8.50158
8.72863
0.116784
8.71456
3.45793
4.54792
8.1938
3.07932
9.94506
4.39218
7.74898
0.545207
9.46127
7.76836
0.992257
5.9613
7.73108
7.7403
8.74078
9.4172
3.1924
4.79611
2.53024
4.79295
4.31271
4.87005
7.86076
8.78709
0.118421
8.78611
4.82705
1.13993
5.16085
9.68392
8.72081
7.25297
4.84545
3.49089
5.22738
9.44193
5.17167
5.22995
0.135562
5.21913
8.57988
8.54012
5.17156
9.32395
9.27503
3.08956
8.53815
7.18261
9.74975
2.31573
8.75542
8.23715
9.80478
1.43672
6.87965
8.13003
5.19176
5.47337
4.69005
6.60263
7.9692
0.417997
8.13856
2.88278
8.08198
8.91657
1.65757
9.21788
5.48064
5.55143
4.35678
3.85156
5.43981
0.1079
3.40765
5.42831
5.29354
8.35988
6.44063
7.25429
8.75636
5.41886
1.20593
8.27653
1.11907
5.45092
8.29949
1.67517
7.6745
4.84988
8.30002
4.88299
2.9342
5.50143
4.4248
9.27477
9.24425
4.67158
4.76654
6.01996
9.5357
8.31692
0.338385
4.53453
3.42795
2.15439
3.60724
3.06945
4.75014
0.0120045
2.69899
6.38955
2.26988
4.12558
3.6874
3.37886
6.38162
5.43514
2.24477
8.33732
5.09191
8.36132
1.97468
5.77756
8.34
2.5427
0.0132745
3.61741
4.75842
2.02336
1.67229
9.09514
5.66848
8.337
8.30423
8.52171
5.67954
8.74403
3.11555
5.6716
0.789257
6.0922
9.09991
5.52714
6.43526
0.158303
5.77126
8.38425
6.37367
9.43624
3.72533
0.478941
6.1286
7.99891
8.46082
9.09527
9.47681
8.44624
8.79726
6.39137
9.21739
8.18671
8.38335
8.71453
8.76005
0.432509
8.76736
9.47446
6.37228
3.59124
9.76589
4.29765
3.25597
4.50921
8.38433
9.47777
7.34492
6.4558
6.11207
8.3964
9.492
7.77471
6.23788
7.02138
9.42286
3.6608
6.1964
9.07612
3.21236
9.37272
8.88133
7.8056
6.13283
9.56256
7.78801
7.6995
7.81688
7.66562
5.27686
7.51958
7.47185
5.55095
6.37329
9.8881
2.92197
1.03211
2.21852
0.312723
7.63131
0.97567
3.16228
9.58111
9.19376
4.89182
7.64485
6.31997
2.9815
6.32979
3.37928
0.3431
9.50494
0.0252654
7.52216
0.847839
6.33048
1.98748
9.57878
7.32148
5.55388
7.32628
8.45466
9.54819
2.77928
9.91515
1.11502
9.84947