/*--------------------------------*- C++ -*----------------------------------*\
  =========                 |
  \\      /  F ield         | OpenFOAM: The Open Source CFD Toolbox
   \\    /   O peration     | Website:  https://openfoam.org
    \\  /    A nd           | Version:  10
     \\/     M anipulation  |
\*---------------------------------------------------------------------------*/
FoamFile
{
    format      ascii;
    class       volScalarField;
    location    "0.5";
    object      SgP;
}
// * * * * * * * * * * * * * * * * * * * * * * * * * * * * * * * * * * * * * //

dimensions      [1 -1 -3 -1 0 0 0];

internalField   nonuniform List<scalar> 
111485
(
1.51466e-06
3.69878e-06
3.04963e-06
4.5162e-06
1.67078e-05
5.01757e-06
5.10603e-06
1.55107e-06
1.30159e-05
4.64771e-06
1.60572e-05
1.42255e-06
1.22824e-05
0.00288137
1.03667e-06
1.42273e-06
0.00217711
2.42352e-05
1.25451e-06
4.3085e-06
0.000539139
2.00005e-06
2.79493e-06
4.81764e-06
2.55395e-06
3.8058e-06
5.46089e-06
1.06384e-05
7.47431e-06
0.000670967
1.12633e-05
8.91471e-06
2.31722e-06
5.92665e-06
4.94679e-06
1.04158e-05
0.00148732
0.00247473
3.06311e-05
8.20998e-06
0.00031207
1.8642e-05
5.19403e-06
4.26762e-06
4.20334e-06
1.51747e-05
1.25349e-06
2.83837e-06
2.91254e-06
2.0644e-06
1.3317e-05
4.67044e-06
9.84221e-07
4.41264e-06
7.03777e-06
8.49463e-06
5.00046e-06
1.14135e-05
6.14525e-06
1.72913e-06
2.51937e-06
4.86399e-06
1.49353e-05
5.45807e-07
4.82699e-06
2.28022e-06
1.07257e-05
8.53379e-07
1.70782e-05
7.17637e-06
4.24092e-06
4.94952e-06
9.19365e-06
8.29659e-06
4.35689e-06
4.8701e-06
4.74199e-06
3.27831e-06
5.97661e-06
1.84078e-06
0.00305442
0.00551691
9.28421e-06
4.75426e-06
1.30582e-05
1.1663e-05
0.00176249
2.49779e-06
4.52453e-06
1.87468e-06
4.82391e-06
4.59129e-06
6.83308e-06
2.10652e-05
4.52163e-06
3.46215e-06
0.000382398
1.54955e-06
2.97564e-05
3.86214e-06
2.64745e-06
1.30018e-05
6.83235e-07
1.49152e-06
2.43917e-06
1.03044e-06
3.43812e-06
4.6465e-06
1.71159e-05
6.51e-06
5.76694e-06
1.02746e-06
2.92519e-06
2.30439e-05
1.27544e-05
3.82665e-06
3.19219e-06
9.5929e-06
4.85813e-06
7.41015e-06
3.29398e-06
7.1261e-06
0.000682743
6.51916e-06
1.03131e-06
0.000498387
4.24571e-06
7.06124e-07
1.25794e-05
7.88464e-06
7.49365e-06
3.6558e-06
0.000445677
6.42195e-06
8.65183e-06
6.56845e-06
6.63389e-06
1.25657e-05
1.07558e-05
2.17277e-05
5.67855e-06
9.21748e-06
0.00196259
5.03787e-06
4.09291e-06
3.89048e-06
2.17147e-05
7.62838e-06
1.58492e-06
2.45834e-06
6.53176e-06
0.000248533
0.0026293
1.05698e-05
8.04613e-06
1.28662e-06
5.40707e-06
1.14839e-06
7.66521e-06
4.32288e-06
6.08567e-06
2.40503e-06
2.29814e-05
1.12595e-05
3.36865e-06
1.20513e-05
4.21411e-06
0.000284442
5.82149e-06
3.78969e-06
3.40862e-06
8.07571e-06
0.00293885
3.5937e-06
2.27119e-06
2.92292e-06
4.03473e-06
3.19134e-06
6.16991e-06
1.94951e-06
9.68211e-06
1.86174e-06
2.64977e-06
5.52026e-06
7.14663e-06
7.97653e-06
4.41678e-06
1.71544e-06
1.66711e-06
1.37108e-06
4.57253e-06
4.97949e-06
9.38659e-06
8.21389e-06
5.33142e-06
3.20482e-06
4.81239e-06
2.15979e-05
3.2464e-06
3.81938e-06
6.53336e-06
2.96965e-05
7.35011e-06
1.00886e-06
7.70553e-06
2.95983e-06
6.07347e-06
2.13365e-06
3.26192e-06
4.16673e-06
7.255e-06
4.94232e-06
2.89536e-06
7.23612e-06
3.45669e-06
2.30451e-06
1.41742e-06
1.16059e-05
5.48287e-07
5.11945e-06
3.69435e-06
7.35568e-06
8.05318e-06
9.63491e-06
2.30755e-05
7.03427e-06
1.65588e-06
2.14513e-06
1.28747e-05
3.7535e-06
6.38463e-06
4.67635e-06
4.12867e-06
0.00153366
3.50485e-06
1.49403e-05
0.00201296
3.64882e-06
7.21386e-06
2.77958e-06
5.35371e-06
1.3861e-06
4.9999e-06
1.47618e-05
9.78074e-06
5.0155e-06
7.93522e-06
3.85018e-05
4.47587e-06
0.00136862
6.85033e-06
5.43757e-06
1.59951e-06
1.47315e-06
4.36545e-05
4.99508e-06
6.77075e-06
3.19418e-05
0.00115963
3.1686e-06
5.51078e-06
1.70304e-05
2.27481e-06
5.50656e-06
2.78196e-05
2.34334e-06
1.59126e-06
7.05392e-06
0.00335078
1.26917e-05
4.67469e-06
5.93705e-06
0.00186029
1.14371e-06
1.64388e-06
1.93173e-05
8.45994e-06
2.6527e-06
6.29554e-07
7.20932e-06
0.00290022
4.90949e-06
5.07162e-06
3.29924e-06
1.08068e-05
0.00227276
0.00240236
1.50687e-06
1.17808e-05
7.89521e-07
1.10548e-06
3.12998e-06
8.75731e-07
2.8594e-05
4.96166e-06
6.50203e-06
5.17412e-06
9.50432e-06
6.21827e-06
3.77077e-06
0.00342246
5.50093e-06
0.000796125
2.50432e-06
4.58222e-06
1.3151e-05
9.07538e-06
0.000311818
3.09256e-06
1.09179e-05
2.40548e-06
1.02371e-05
2.93375e-06
1.83326e-05
1.30738e-06
3.76919e-06
2.66947e-06
5.21135e-05
0.0027786
3.00023e-06
1.19396e-05
8.80773e-06
2.20722e-06
1.94788e-05
4.1047e-06
1.82807e-05
6.04147e-06
7.61781e-06
1.40498e-06
2.67023e-05
0.000687634
2.4037e-06
6.03741e-06
5.61292e-06
5.53647e-06
0.000718769
7.10347e-06
6.84137e-06
1.14612e-05
9.12329e-06
1.63972e-06
7.35204e-06
0.00159271
1.00917e-05
8.22004e-06
1.67889e-05
4.70136e-06
2.93068e-06
0.000425616
4.71551e-06
9.58991e-07
4.85429e-06
5.11774e-07
5.01414e-06
2.04066e-05
3.58553e-06
4.95079e-06
1.54359e-05
6.02987e-06
0.00398041
1.47372e-05
4.16014e-06
0.000589612
4.26952e-06
1.04359e-05
2.18315e-06
5.84277e-06
0.000662736
1.42918e-05
0.000485487
0.000524941
8.23774e-06
5.64248e-06
7.56609e-07
6.91295e-06
8.86275e-06
1.03426e-05
5.90217e-06
2.83703e-06
6.05983e-06
1.93132e-06
7.46946e-06
3.33925e-06
7.29841e-06
8.79465e-06
3.13767e-06
5.09709e-06
4.19592e-06
2.26858e-05
8.95364e-06
1.55519e-05
0.000300412
3.57942e-06
4.56226e-06
0.00154237
9.9192e-07
0.00335658
8.35392e-07
6.28014e-06
5.515e-06
5.78942e-06
1.16554e-05
2.11476e-06
1.565e-05
0.000527611
9.85724e-07
3.34331e-06
8.69051e-06
1.66296e-05
4.31471e-05
2.50835e-06
1.15407e-05
2.27645e-05
9.79067e-06
1.29044e-05
1.01002e-05
0.00262274
3.53445e-05
3.09334e-06
4.16687e-06
5.66953e-07
2.806e-06
3.32999e-06
3.26771e-06
1.06938e-05
1.8268e-05
1.81278e-06
0.00222938
6.46238e-06
2.93349e-06
1.42597e-05
3.53498e-06
6.29179e-06
1.07589e-05
1.86345e-06
3.29453e-06
1.92099e-06
2.53329e-06
4.83588e-07
8.48817e-06
0.00383632
6.81386e-06
8.31609e-06
1.04707e-05
9.17326e-06
1.46599e-05
5.33307e-06
0.00311205
0.00329699
6.04386e-06
5.06598e-06
2.59965e-06
1.32534e-05
4.26525e-06
4.82825e-06
2.87536e-06
0.00322462
1.34944e-05
1.51688e-06
8.21101e-06
8.7778e-06
2.01633e-06
1.04455e-06
6.72326e-06
4.15807e-06
2.43289e-06
2.35037e-06
0.000631603
8.50732e-06
3.59058e-06
2.39184e-06
4.77195e-06
2.10793e-06
2.68679e-05
5.2751e-06
5.8967e-06
2.18396e-06
9.88626e-06
0.000949429
1.90421e-05
1.58186e-06
3.10124e-06
6.94912e-06
1.45772e-06
0.00270507
1.25509e-06
0.00208323
1.71455e-05
7.25041e-06
8.53853e-06
8.79466e-06
0.00389325
0.00145607
2.11079e-06
5.51918e-06
3.97877e-06
1.66502e-06
4.24964e-06
2.12503e-06
1.32571e-05
0.00266364
8.08889e-06
5.74874e-06
4.89629e-06
2.73889e-06
0.000616167
3.10199e-06
5.69593e-06
1.19141e-06
1.03686e-05
1.88118e-05
0.000732164
1.26988e-05
1.85672e-06
1.13175e-06
1.65443e-06
1.0552e-05
2.90728e-06
2.90384e-06
3.29911e-06
2.29411e-05
6.27576e-06
1.63077e-06
1.75619e-05
1.45146e-05
3.30304e-06
5.05231e-06
7.69861e-06
4.26857e-06
1.88128e-06
0.00130232
0.00217168
5.6567e-06
1.79326e-06
0.000658879
0.00115599
9.84502e-07
8.14647e-06
1.34335e-05
9.08545e-06
4.96375e-06
9.86341e-07
2.28423e-06
0.000488678
5.33527e-06
7.34194e-06
2.86615e-06
1.09534e-06
2.47634e-06
3.85247e-06
7.9503e-07
9.70348e-07
2.03784e-06
1.29352e-05
6.00365e-06
5.03212e-06
3.7246e-06
0.00198164
3.1693e-06
6.29716e-06
4.65855e-06
1.51287e-05
7.55285e-06
1.01438e-05
4.00184e-05
4.09476e-06
3.29792e-06
9.75496e-06
7.67482e-06
3.91204e-06
0.00125601
8.44217e-06
1.21993e-05
2.41945e-06
0.000785184
1.03757e-05
2.25512e-06
2.52093e-05
1.1229e-05
1.57942e-05
1.32473e-05
4.01434e-06
2.01949e-05
9.65453e-06
3.07802e-05
2.87485e-06
1.18482e-05
2.84732e-06
6.0085e-06
8.20327e-06
4.21364e-05
9.07961e-06
1.62404e-06
4.38682e-05
1.17962e-05
0.000456261
2.97092e-06
2.34819e-06
0.00118237
0.00321674
1.15383e-05
4.82461e-06
0.000577992
1.38562e-06
1.28799e-05
8.05665e-06
1.69208e-06
5.45243e-06
3.01726e-06
0.00139724
2.28085e-06
4.16303e-06
5.84591e-06
2.67419e-06
0.00163126
1.24176e-05
6.72337e-06
9.51802e-06
0.00250288
0.000365093
3.26048e-06
1.1093e-05
2.39018e-05
9.92687e-07
6.558e-06
1.99214e-05
1.42114e-05
4.4019e-06
1.31713e-05
2.44937e-05
2.73952e-06
6.9555e-06
5.41689e-06
9.47807e-06
6.46808e-06
1.09277e-05
6.67194e-06
5.433e-06
1.6866e-05
1.14346e-05
5.51834e-06
1.13016e-05
6.88762e-06
9.1544e-06
5.80932e-07
2.04211e-05
1.51281e-06
1.00184e-05
4.00461e-06
8.22056e-06
1.14292e-05
2.73404e-06
6.25163e-06
0.000826342
2.53767e-06
0.00185885
2.13955e-06
6.8082e-06
1.7902e-05
0.000262643
1.04555e-06
7.58823e-06
4.27748e-06
5.11616e-06
2.04196e-06
3.1637e-06
2.12088e-05
0.00296301
2.71222e-06
4.49354e-06
0.000477971
5.54478e-06
2.12996e-06
3.78941e-06
5.92218e-06
8.85315e-06
2.42517e-06
5.91394e-06
4.35533e-06
1.28494e-06
3.67314e-06
0.00175383
1.06653e-05
9.00899e-06
2.20505e-05
1.12389e-05
1.13688e-05
7.57429e-06
0.000646771
1.54728e-05
3.05149e-06
8.57999e-06
0.000458274
1.95484e-06
3.53011e-06
1.02957e-05
0.00024104
1.00497e-05
0.00207314
9.27937e-06
5.21368e-06
7.6195e-06
7.66835e-06
7.51194e-06
7.1646e-06
1.20467e-05
4.84161e-06
1.45418e-05
0.000649428
1.94714e-06
3.03707e-06
7.37445e-06
3.98648e-06
4.74809e-06
5.59357e-06
4.68537e-06
7.46754e-06
1.04889e-06
9.84896e-06
6.2924e-06
2.92516e-06
1.15248e-06
2.74008e-06
1.24852e-05
7.04362e-06
4.26083e-06
7.82887e-07
2.1441e-05
2.24846e-05
1.88032e-05
4.40812e-06
3.34407e-06
7.18946e-07
3.202e-06
2.42287e-06
2.02487e-05
2.06844e-06
3.86855e-06
1.68242e-06
2.27547e-06
5.31771e-06
1.02738e-05
3.09361e-06
1.17081e-06
5.94269e-06
5.07665e-06
2.77833e-06
3.71206e-06
1.12999e-05
1.07696e-05
0.00255661
1.93482e-06
2.41099e-06
0.00332329
1.09407e-05
5.63275e-06
3.94556e-06
6.55194e-06
2.85508e-06
0.00305505
2.02386e-05
1.44697e-06
2.50833e-06
6.24479e-06
9.62197e-06
3.14428e-06
2.22359e-06
5.19919e-06
4.54787e-06
4.11525e-06
3.09934e-06
1.48426e-06
8.44941e-06
6.92288e-06
1.04558e-05
2.49566e-06
1.95924e-05
2.81001e-06
0.00035074
4.59127e-06
2.45213e-06
2.84908e-06
1.14493e-05
9.0774e-06
2.647e-06
2.38056e-05
0.000499586
4.03313e-06
5.7048e-06
0.000614505
2.54009e-06
0.00106858
9.09732e-06
0.000410398
9.93097e-06
4.69474e-06
6.68182e-06
1.05746e-05
0.000606948
1.3436e-06
2.01915e-05
0.00162692
1.27002e-06
3.67468e-06
3.45991e-06
1.19954e-05
0.00491828
0.00154553
1.06993e-05
0.00246557
4.24e-06
2.10617e-06
1.01361e-05
2.52173e-06
1.48473e-06
2.52419e-06
3.49308e-06
6.12924e-06
4.0517e-06
4.02754e-06
0.000352971
5.17114e-06
5.40016e-06
4.74676e-06
4.90393e-06
2.85529e-06
0.00209108
1.40772e-05
5.16133e-06
1.44791e-05
2.11824e-06
7.2344e-06
0.00216027
6.09769e-06
0.00207334
0.00316064
5.4674e-06
4.70918e-06
8.77468e-06
1.65249e-05
5.3932e-06
1.08304e-05
9.28565e-06
3.29002e-06
4.69649e-06
0.000573915
2.48209e-06
2.1077e-06
7.37556e-06
9.3703e-06
1.04363e-05
9.36345e-06
6.67808e-06
3.74972e-06
3.07836e-06
1.47859e-05
9.88308e-06
4.13358e-06
2.58194e-05
0.00367087
5.14019e-06
3.15191e-06
4.01622e-06
2.30384e-05
4.60862e-06
1.96378e-06
7.76299e-06
7.38826e-07
1.13128e-05
5.93869e-06
1.50463e-05
1.47248e-06
4.50399e-06
0.000551827
4.00727e-06
1.36514e-05
6.36733e-05
0.00133685
2.23536e-06
1.60012e-05
0.000351919
3.65432e-06
2.09281e-05
1.65609e-06
8.03351e-06
1.66051e-05
0.00126387
4.6849e-06
2.61903e-06
5.65932e-06
0.000415584
3.03212e-06
0.00022212
1.0264e-05
1.76685e-05
4.51723e-07
7.37762e-06
7.91002e-06
6.87373e-06
9.29503e-06
2.55456e-06
8.07953e-06
9.31674e-06
3.4378e-06
3.50027e-06
8.87987e-06
0.000558163
6.12529e-06
5.72595e-06
3.17426e-06
8.73696e-06
7.04937e-06
3.54137e-06
4.71497e-06
9.3577e-06
4.12559e-07
7.86203e-06
1.03041e-05
3.70604e-06
3.87943e-05
1.04948e-05
1.49712e-05
2.02125e-05
1.18803e-05
0.00153816
1.34055e-06
1.17549e-05
0.000609607
1.33647e-05
1.13113e-05
5.40948e-06
3.33272e-06
8.18325e-06
6.92266e-06
1.58302e-05
1.90186e-06
1.83913e-06
4.47885e-06
9.71531e-06
3.66469e-06
2.28012e-05
1.13912e-05
2.02145e-05
6.57016e-06
7.66165e-06
1.54224e-05
5.1211e-06
1.67391e-06
3.0842e-06
1.17082e-05
7.41674e-06
1.67467e-05
6.64998e-06
4.96218e-06
4.1573e-06
1.19901e-05
1.4401e-06
1.89668e-05
7.49152e-07
5.46821e-06
5.88608e-06
2.59702e-06
6.44188e-06
2.95339e-06
0.00128204
9.75687e-06
7.64656e-06
4.98353e-06
9.69604e-07
3.35129e-06
0.00284386
0.000745854
1.23075e-05
4.93807e-06
5.35662e-06
3.43799e-06
0.00167281
1.31154e-05
1.3495e-05
1.05592e-05
1.79566e-05
9.67599e-06
1.33088e-05
3.84562e-06
1.71176e-05
0.00319888
7.45342e-06
4.86329e-06
6.98153e-06
2.36659e-06
1.16993e-05
6.07423e-06
7.56758e-06
3.89512e-06
6.08418e-06
3.98247e-06
4.93803e-06
3.70555e-06
9.35321e-06
2.03452e-05
0.00548377
6.38729e-06
6.05424e-06
5.15795e-06
4.50425e-06
1.34911e-05
0.00405969
4.36262e-06
0.00205373
9.22952e-06
2.18139e-06
3.6785e-06
7.17481e-06
2.08026e-05
2.66024e-06
7.04992e-06
1.0763e-05
3.8887e-06
5.43554e-06
1.03021e-05
4.84143e-06
1.11308e-05
0.000675869
2.01347e-06
5.49201e-06
2.15246e-06
6.15651e-06
2.71965e-05
2.39465e-06
8.14725e-06
2.23109e-06
7.28977e-06
1.72719e-06
2.13413e-06
1.09899e-05
1.44215e-06
0.00201173
2.44422e-06
4.77362e-06
9.51772e-06
0.000448019
2.2537e-06
1.7644e-05
3.44429e-06
6.62121e-06
6.74827e-06
4.3779e-06
0.00178045
4.30839e-06
1.32384e-06
3.8594e-06
1.29378e-05
5.628e-06
1.96779e-06
3.83053e-06
1.98845e-05
3.42643e-06
5.42287e-06
1.33591e-06
2.90119e-06
1.27717e-05
0.000430852
1.14432e-05
1.16659e-05
1.43003e-05
3.54127e-06
2.36097e-05
7.00271e-06
4.22926e-06
1.63861e-05
2.71621e-06
1.92129e-06
1.48654e-06
0.000627317
1.22507e-05
0.000504219
6.12895e-06
7.63499e-06
7.0468e-06
2.58348e-06
9.59244e-06
1.88961e-06
5.37283e-06
6.57033e-06
1.57432e-06
1.08621e-06
6.87415e-06
1.05301e-05
3.35263e-06
4.97059e-06
8.62442e-06
3.2486e-05
3.102e-06
2.70233e-06
3.55783e-06
3.33022e-06
1.11091e-05
7.4231e-06
2.16184e-06
2.27093e-06
0.000461384
6.99301e-06
2.16911e-06
5.59044e-06
8.51702e-06
8.2871e-06
0.000715974
0.0027933
6.47778e-06
3.27189e-06
1.46878e-06
7.78316e-06
4.76558e-06
9.38425e-06
6.00158e-06
5.06426e-06
0.000417901
0.000691762
5.65048e-06
3.48595e-06
1.22994e-05
0.000438282
2.35688e-06
2.30518e-05
3.85379e-05
0.000403896
0.00176917
0.000540923
4.82009e-06
5.89056e-06
4.372e-05
1.01729e-05
2.06651e-06
3.9287e-06
1.54362e-05
2.22799e-06
1.35447e-05
7.12234e-06
1.25267e-05
4.0841e-06
3.37298e-06
5.47504e-06
4.9624e-06
0.000592233
1.75799e-05
7.22035e-07
0.000862123
0.00279537
2.75094e-05
0.00208927
6.2383e-06
0.00397085
2.88452e-06
1.67715e-06
2.53347e-06
2.30996e-06
0.0031177
1.26079e-05
1.14811e-05
8.03939e-06
2.09174e-06
3.0197e-06
6.68578e-06
2.42739e-06
1.63601e-06
0.000886779
1.04238e-06
1.417e-05
1.11837e-06
4.31425e-05
4.52255e-07
1.19273e-06
9.60019e-06
1.93746e-06
1.11301e-05
2.05094e-05
2.81531e-06
6.11533e-06
2.86337e-06
4.94457e-06
3.68695e-06
8.80735e-06
0.00317084
0.000494912
1.03848e-05
6.31446e-06
5.55846e-06
1.953e-06
0.00229987
1.41238e-06
2.30058e-06
6.23439e-06
2.81375e-06
9.62303e-07
0.000345535
7.75863e-06
4.89857e-06
6.53731e-06
1.42707e-06
1.03352e-05
0.00198041
4.66121e-06
0.000517789
3.69716e-06
3.33893e-06
2.1339e-06
2.74149e-06
6.016e-06
4.59381e-06
1.64318e-05
2.53631e-06
2.04449e-06
6.1825e-07
6.90164e-06
0.000923864
5.28777e-06
1.81171e-06
3.43548e-06
3.89767e-06
6.90744e-06
0.000565014
2.67446e-06
1.47285e-06
1.13348e-05
1.48316e-05
6.11023e-06
9.51851e-06
1.03987e-05
1.65977e-06
5.05229e-06
1.05841e-05
8.63706e-06
2.92774e-06
6.77348e-06
3.15656e-06
5.68651e-06
1.31484e-06
1.68258e-05
0.00265312
1.82598e-06
7.98647e-06
2.69174e-06
3.32178e-05
2.45619e-06
1.31618e-05
7.91879e-06
0.000893378
3.28232e-06
3.79965e-06
1.29996e-05
0.000570495
3.8633e-06
1.68082e-05
7.25554e-06
2.47467e-05
0.000555227
9.0677e-06
5.53053e-06
1.56695e-05
6.52087e-06
0.00274717
2.01085e-06
1.62623e-06
3.69378e-06
1.1177e-05
0.00371979
0.000616631
1.01693e-05
6.65535e-06
1.49087e-06
2.39676e-06
4.42729e-06
8.45548e-06
3.25278e-06
9.38445e-06
1.46058e-06
3.33759e-06
6.30026e-06
0.000444704
0.000414803
8.895e-06
1.62588e-06
3.89216e-06
1.69948e-06
1.29442e-05
0.000420376
0.00105974
1.55161e-05
2.13328e-06
3.04924e-06
1.82566e-06
1.92529e-05
8.01155e-06
9.06803e-06
8.04715e-07
3.43107e-06
8.26375e-06
2.11122e-05
6.76994e-06
1.10401e-06
9.31183e-06
2.1041e-05
2.44292e-06
4.29115e-06
1.10632e-05
3.29897e-06
3.87779e-06
8.38228e-06
4.3436e-06
9.72459e-06
2.65679e-05
3.3e-05
6.7714e-06
0.00351384
8.72205e-06
1.59893e-05
0.000623198
6.66613e-06
2.27426e-06
1.55078e-05
2.78798e-06
5.68977e-06
2.77055e-06
1.69954e-05
1.61632e-05
4.92213e-06
4.9557e-06
1.48574e-05
1.10109e-05
1.6663e-05
1.88561e-06
9.99027e-06
5.59884e-06
4.10946e-06
1.15726e-06
8.82438e-06
3.47175e-06
2.37351e-06
1.56413e-06
2.06296e-05
1.75315e-06
6.12783e-06
2.19106e-06
1.67882e-06
7.31858e-06
3.87463e-06
2.05264e-06
1.46547e-05
0.00322176
7.34213e-06
2.95064e-06
5.75373e-06
2.49184e-06
2.61937e-06
1.50544e-05
0.00244465
1.70752e-05
6.46032e-06
3.5271e-06
0.00234398
7.23273e-06
9.21126e-06
8.37281e-06
4.8045e-06
1.63551e-05
1.66943e-06
1.33542e-05
6.77018e-06
8.43478e-07
8.15967e-06
2.42109e-06
8.34975e-06
7.14856e-06
0.00282986
5.36747e-06
1.14559e-05
1.98246e-05
5.03825e-06
9.84294e-06
6.55152e-06
6.02639e-05
3.38281e-06
8.37192e-06
1.16684e-05
0.000798132
1.3838e-05
0.00259908
3.45265e-06
7.17904e-06
1.28518e-05
3.22128e-06
4.6067e-06
9.81699e-07
6.26954e-06
1.14284e-05
1.25788e-05
1.20405e-05
1.23661e-05
2.65563e-06
6.26733e-06
1.90797e-06
1.58846e-06
1.92963e-06
1.26626e-05
1.57975e-05
2.99149e-06
4.68333e-06
1.81717e-06
1.8914e-05
6.27497e-06
6.94229e-06
2.02069e-05
4.7538e-06
5.16763e-06
1.10565e-05
6.08132e-06
2.89752e-06
7.42155e-06
1.16691e-05
4.38178e-06
6.99464e-06
0.00163243
2.21825e-05
5.49435e-06
3.39402e-06
1.28519e-05
1.11857e-05
4.58538e-06
5.15382e-06
1.34499e-05
6.89863e-06
1.64502e-06
9.08622e-06
0.00214916
2.21917e-05
3.34994e-06
1.07729e-05
3.69498e-06
2.15477e-06
6.73579e-06
1.57813e-05
1.40854e-05
6.05379e-06
0.00174442
1.88819e-06
2.16189e-06
2.24969e-06
9.25973e-06
3.70734e-06
7.52453e-06
3.52088e-06
8.14619e-06
1.42341e-05
1.9702e-05
1.09957e-05
3.67429e-06
1.22809e-05
1.14842e-06
2.40968e-06
7.90465e-06
0.00110074
2.62075e-06
3.735e-06
1.8935e-05
2.18206e-06
1.07521e-05
5.27709e-06
3.19359e-06
5.21239e-06
5.77465e-06
6.21261e-06
3.16282e-06
3.18286e-06
3.04997e-05
5.12846e-06
1.56325e-05
2.79311e-06
3.26632e-06
2.16649e-06
3.62556e-06
3.48004e-05
4.49075e-06
1.59082e-05
2.50278e-05
1.86308e-06
3.02556e-06
8.04617e-06
0.00154284
6.622e-06
3.84489e-06
2.55409e-06
0.00166639
0.00228656
7.5903e-06
0.000652097
4.69234e-06
5.25235e-06
2.967e-06
7.04576e-06
2.20762e-06
3.68064e-06
1.48377e-06
0.00123768
0.00379594
0.00416188
8.79605e-06
1.30744e-05
1.3942e-05
3.34817e-06
0.0044006
3.52308e-06
0.00216934
6.79436e-06
1.01254e-05
9.61683e-06
8.48597e-06
1.51815e-05
2.21934e-06
7.37466e-06
6.4325e-06
0.00138998
1.72321e-05
4.35676e-06
3.57423e-06
5.45703e-06
6.92765e-06
5.71388e-06
4.38681e-06
1.15528e-05
6.06891e-06
9.76959e-06
3.62156e-06
2.07539e-06
1.35189e-05
7.1192e-06
3.2325e-06
4.83696e-06
1.42626e-06
1.3744e-06
6.05323e-05
1.25171e-05
1.55491e-05
1.65643e-06
2.51358e-06
8.08649e-07
7.15738e-06
1.00782e-06
3.21137e-06
1.06372e-06
1.48883e-05
6.00352e-06
1.81105e-05
3.1154e-06
0.000595413
8.70028e-06
0.00408601
4.01132e-05
7.4167e-06
1.11788e-05
0.000750681
1.10914e-05
2.63066e-06
4.71183e-06
4.4876e-06
4.88329e-06
1.13127e-05
2.22567e-06
1.56917e-05
8.10383e-06
9.72582e-06
3.64848e-06
7.95501e-06
6.05492e-06
0.000811199
1.35687e-06
2.92405e-06
2.83238e-06
4.05713e-06
2.0358e-05
4.30106e-06
1.61717e-06
2.12122e-06
8.77318e-06
5.06746e-06
0.000693799
4.57301e-06
1.93404e-06
3.73721e-06
6.48233e-06
8.21935e-06
9.67072e-06
4.45931e-06
5.82202e-06
8.18891e-06
2.72691e-06
3.14454e-06
2.00704e-05
1.73091e-05
2.16557e-06
5.10493e-06
7.37401e-06
2.82663e-06
9.41283e-06
1.13204e-05
1.42545e-05
5.2256e-06
9.70408e-06
3.0634e-06
0.00213552
9.26127e-06
9.31687e-06
2.92582e-06
5.44016e-06
1.29899e-05
1.79741e-05
5.5367e-06
7.59902e-06
0.00239512
5.45871e-06
3.67179e-06
9.48741e-06
0.000449271
2.69435e-06
0.000621474
0.00118471
2.39084e-05
2.45722e-06
1.80861e-05
4.75787e-07
9.53412e-06
8.10107e-06
3.20312e-05
4.08221e-06
3.41372e-06
7.90652e-06
8.91368e-06
5.05139e-06
1.75876e-05
2.23527e-06
2.15947e-05
6.33522e-06
8.32914e-06
1.07565e-05
8.94328e-06
1.6539e-05
1.25056e-05
6.29681e-06
1.78805e-05
1.0446e-05
1.46158e-05
9.49566e-06
3.55e-06
7.16093e-06
1.73263e-06
2.0173e-06
3.42723e-06
0.000868729
5.28491e-06
1.42509e-05
2.60788e-06
1.16249e-05
2.15604e-05
1.75327e-06
3.39283e-06
4.73904e-06
1.58145e-06
5.15966e-06
3.13053e-06
2.15534e-06
1.93928e-05
8.56683e-06
0.00410364
3.27564e-06
1.05904e-06
2.60009e-05
8.16772e-06
9.53798e-06
0.000261177
0.000959244
1.83779e-05
1.51342e-05
1.03786e-05
9.58331e-06
1.02956e-05
5.31203e-06
7.69612e-06
0.000483791
1.7825e-05
6.13322e-06
2.73449e-06
1.44011e-06
6.89631e-06
1.84032e-06
0.000454307
2.18813e-05
1.35288e-06
2.85348e-05
0.0024881
0.000475366
4.4255e-06
1.14592e-06
4.10942e-06
5.62669e-06
1.3855e-06
0.000464
1.79351e-05
6.0658e-06
6.96211e-06
3.70513e-06
5.12179e-06
2.29401e-06
3.89911e-06
7.5506e-06
1.34689e-06
4.3048e-06
5.80166e-06
1.33729e-05
1.44253e-06
6.6941e-06
0.000692013
4.28572e-06
2.58066e-05
4.94149e-06
4.21991e-06
7.48335e-06
2.24766e-06
0.00068987
4.518e-06
0.00268922
1.59293e-05
3.4916e-06
0.000513598
4.88915e-06
4.50074e-06
5.31078e-06
0.000341971
4.51678e-06
4.68252e-06
4.01273e-06
5.40913e-06
2.57059e-05
1.36386e-05
2.95006e-06
0.00127557
3.525e-06
1.17038e-05
1.29404e-05
1.02415e-05
6.13945e-06
1.08805e-05
8.67927e-06
0.00280025
3.74538e-06
6.23934e-06
1.54343e-06
5.08338e-07
4.86952e-06
7.71948e-07
5.44849e-06
3.43625e-06
7.06216e-06
1.05352e-05
5.65821e-06
1.46462e-06
1.94644e-05
7.42696e-06
2.23705e-06
2.12756e-06
6.55847e-06
4.36456e-06
3.23867e-06
6.46424e-06
2.79422e-06
5.33987e-06
1.9216e-06
6.97558e-06
4.37591e-06
2.01073e-06
1.25334e-06
2.02071e-06
0.00299776
5.06091e-06
5.65163e-06
4.9917e-06
7.4749e-06
2.07196e-05
4.84854e-06
3.97148e-05
2.29273e-06
1.70664e-05
6.43074e-06
6.15423e-06
1.18123e-06
6.35948e-07
2.56596e-06
1.0498e-05
0.00309641
6.92397e-06
1.16181e-05
3.07014e-06
1.07348e-05
1.07814e-06
7.66823e-06
0.000507143
1.43294e-06
1.89895e-06
5.04269e-06
8.68404e-06
1.03292e-05
0.00480279
3.75577e-06
1.17807e-05
4.40796e-06
3.09544e-06
0.0011812
3.36235e-06
2.19587e-06
5.9465e-06
1.39624e-06
7.82016e-06
2.29024e-05
1.45285e-06
5.23713e-06
5.94657e-06
4.06965e-06
2.24085e-06
5.43854e-06
1.26934e-05
0.00184207
1.61092e-05
1.63919e-06
1.0906e-05
8.74099e-07
0.000709648
0.000321247
7.81896e-06
2.39768e-06
0.00108958
1.28419e-05
2.19068e-05
0.000534243
1.12812e-05
2.46886e-06
0.00191801
0.000195702
1.34797e-05
2.22873e-06
5.50141e-06
6.64423e-06
1.55701e-05
3.39303e-06
6.91902e-06
8.86515e-06
6.23104e-07
0.000296697
8.23167e-06
5.8396e-06
0.0020454
1.13385e-06
3.56324e-06
4.41398e-06
6.0521e-06
1.43129e-05
2.69893e-06
7.97284e-07
6.54583e-06
2.0384e-06
2.45681e-06
3.09336e-06
0.000294056
0.00065371
6.11226e-06
3.93831e-06
7.55889e-07
1.81811e-05
3.45737e-06
2.21617e-06
9.93893e-06
1.44908e-05
1.24592e-05
1.48947e-06
6.4015e-06
1.4563e-06
0.00464618
6.14727e-06
0.00162722
5.78057e-06
2.70609e-06
0.000510803
1.16006e-05
1.7082e-06
0.000286077
4.81034e-06
5.32878e-06
2.83511e-06
2.1572e-05
4.71567e-06
5.39015e-06
4.5244e-06
9.30747e-07
1.12324e-06
0.00276611
0.00246319
1.1901e-05
6.39682e-06
4.12761e-06
0.000517991
0.00250743
8.35304e-06
2.73807e-06
4.32419e-06
7.68696e-06
1.91201e-05
1.64242e-05
2.69226e-06
6.48044e-06
1.35092e-05
1.41398e-05
4.497e-06
6.42442e-06
0.000752928
0.00244056
1.64315e-06
1.15136e-05
3.61724e-06
2.61894e-06
1.58973e-05
6.92367e-06
1.87131e-05
8.01233e-06
2.73463e-06
1.87989e-05
3.54742e-06
2.60934e-06
2.03784e-05
0.000636945
5.39207e-06
0.00206888
1.64998e-05
3.74505e-06
6.87314e-06
5.83624e-06
1.69117e-06
5.03851e-06
3.55567e-06
6.62316e-06
3.95705e-06
1.26887e-06
8.6989e-06
0.000487466
5.24624e-06
0.00175218
5.74152e-06
1.13973e-05
9.271e-06
3.62005e-06
4.60342e-06
1.09255e-05
1.94418e-06
1.55072e-05
5.78423e-06
1.12658e-06
0.000697404
0.000555697
2.57531e-05
7.94967e-06
7.22836e-06
7.19578e-06
1.92679e-06
1.33522e-05
7.19835e-06
1.05158e-05
8.27429e-07
6.97539e-06
0.000268191
1.09167e-05
1.40522e-05
0.000468681
3.11963e-06
0.00387653
1.0117e-05
9.78007e-06
3.68346e-06
1.70752e-06
0.000732698
1.17166e-06
5.5619e-06
1.18459e-05
5.39435e-05
2.85064e-06
1.57005e-06
2.44585e-06
3.91804e-05
9.6323e-06
1.03606e-05
0.0036049
9.52942e-07
9.11415e-06
1.97802e-06
1.93951e-05
6.6811e-06
6.65544e-06
9.57356e-06
3.9965e-06
1.00858e-05
1.84424e-06
3.46192e-06
0.000445399
1.77069e-06
1.63625e-06
4.1042e-06
3.16317e-06
0.000400318
0.00182053
2.47358e-06
4.94274e-06
2.46953e-05
7.41064e-06
1.8516e-06
2.90559e-06
2.6832e-05
2.41089e-06
7.68584e-06
5.83174e-06
4.05953e-06
1.39393e-06
2.7986e-06
5.9633e-06
5.11521e-06
3.64585e-06
2.36743e-06
1.33059e-06
4.30258e-06
9.9862e-06
2.68816e-06
2.91933e-06
3.63333e-06
2.93186e-06
6.5426e-06
8.49273e-06
3.28686e-06
7.81843e-06
0.000260978
4.4256e-06
7.07993e-07
1.35593e-05
6.14595e-06
4.84963e-06
4.51258e-06
1.04797e-05
9.82989e-06
2.26206e-06
4.78818e-06
1.43406e-06
4.45529e-06
2.5274e-05
1.23087e-05
5.81107e-06
2.29919e-07
3.60264e-06
2.64206e-06
0.00141434
8.29761e-07
2.48723e-05
2.0486e-05
2.85308e-05
5.20463e-06
6.38468e-06
5.36816e-05
3.78431e-05
1.62123e-05
2.72915e-06
6.95495e-06
3.65838e-06
5.21884e-06
8.40161e-06
3.02915e-06
0.000374427
9.90509e-06
4.65557e-06
3.78293e-06
5.83158e-06
8.12538e-06
4.39352e-06
1.61158e-05
5.06395e-06
0.000303606
3.43438e-06
0.00169417
6.96588e-06
4.1314e-06
9.02664e-06
3.71187e-06
1.25953e-05
4.39027e-06
1.06029e-05
1.9269e-06
4.82977e-06
1.07189e-05
4.39949e-06
3.12196e-06
3.65228e-06
5.65727e-06
1.77625e-06
4.66237e-06
1.17705e-06
3.80229e-06
9.53299e-06
1.05623e-06
6.47436e-06
0.00294675
1.71254e-06
2.13642e-06
3.7183e-06
0.00206137
0.00199499
9.24551e-06
2.04384e-06
2.33658e-06
0.000567417
4.51492e-06
2.43805e-06
1.1122e-06
5.97109e-06
2.51028e-06
0.00284782
7.5849e-06
3.56852e-06
1.31454e-05
4.73443e-06
1.37729e-06
1.64665e-05
1.76503e-06
1.11166e-05
1.71158e-05
7.56917e-06
5.35788e-06
8.44167e-06
8.05979e-06
5.00346e-06
1.04736e-05
0.000453869
1.01048e-05
3.98609e-06
1.67093e-06
4.53868e-06
3.15073e-06
2.40161e-06
3.45261e-06
3.98124e-06
3.21399e-05
1.42279e-06
7.87411e-06
0.000517203
2.89927e-06
1.41856e-05
8.10685e-06
2.43297e-06
7.25035e-07
1.37885e-05
8.39612e-06
3.11449e-06
2.34962e-06
0.00066397
3.30807e-06
2.44582e-06
3.87793e-06
4.97195e-06
0.00108637
2.74985e-06
7.85673e-06
9.08175e-06
2.43066e-06
3.06147e-06
4.40686e-06
2.65753e-06
1.63272e-06
1.693e-05
1.92772e-05
2.47918e-05
4.35914e-06
5.67239e-06
1.01929e-05
2.14703e-06
2.47456e-06
9.70441e-07
8.78241e-06
2.16696e-05
3.77467e-06
7.81111e-06
0.00058422
5.31816e-06
4.86924e-06
2.7577e-06
0.000730899
2.90209e-05
4.49407e-06
9.17889e-07
4.21644e-06
2.07927e-06
9.18863e-06
1.80425e-06
3.14784e-06
5.03713e-06
2.61376e-06
3.6961e-06
1.02603e-05
2.83304e-06
1.11108e-05
7.32223e-06
4.3559e-06
4.76458e-06
3.21997e-06
8.53093e-06
1.08563e-05
4.05404e-06
1.58034e-06
5.04365e-06
3.70801e-06
1.33733e-05
5.02038e-06
1.03119e-05
7.80196e-06
2.8554e-06
5.62891e-06
3.32118e-07
2.59241e-06
2.1838e-06
5.30165e-07
1.32968e-05
0.000761983
3.30351e-06
0.000676108
1.83027e-06
3.59809e-06
5.49363e-06
1.31261e-05
0.000417662
5.70876e-06
0.000602438
0.000768526
1.52857e-05
2.4354e-06
0.000367047
8.46697e-06
8.85325e-06
7.12291e-06
0.00148616
0.000413494
0.000481132
2.79384e-06
7.16496e-06
4.84249e-06
3.36763e-06
3.70267e-06
4.48349e-06
7.5318e-06
1.96325e-06
2.38918e-06
2.94773e-06
9.37245e-06
1.14293e-05
1.66596e-06
6.88231e-06
1.08114e-05
9.36198e-06
5.58433e-06
1.24405e-05
1.32306e-05
1.82894e-06
5.50312e-06
5.73215e-06
1.11562e-05
6.03025e-06
1.90169e-06
1.18301e-05
3.2601e-06
9.69009e-06
7.19947e-06
2.2167e-06
1.15446e-05
2.59609e-06
2.66554e-06
8.30514e-06
1.09435e-05
4.00837e-06
6.97228e-06
0.00466606
0.000816566
3.36797e-06
2.20951e-06
5.83891e-06
0.00057242
0.0018226
1.34881e-05
1.93809e-06
5.18515e-06
2.99738e-06
1.20119e-05
4.90099e-06
4.41633e-06
1.51548e-05
3.59607e-06
7.60751e-06
2.20377e-06
5.11322e-06
0.00183177
0.000670051
2.77111e-06
6.6307e-06
3.01025e-06
0.000344178
5.18638e-06
3.30447e-06
1.68368e-05
6.89284e-06
1.68666e-05
1.21506e-05
7.07537e-06
2.91632e-06
1.4158e-05
0.00187761
0.000648635
5.78738e-06
0.000788267
1.70366e-05
1.19236e-05
1.20969e-05
0.00137618
5.46657e-06
5.01864e-06
1.48856e-05
7.9073e-07
5.92309e-06
3.91091e-06
7.21782e-06
7.71277e-06
4.06622e-06
8.21147e-06
4.51159e-06
3.48723e-06
8.77997e-07
1.42895e-05
1.36747e-05
3.38727e-06
4.24684e-06
2.12886e-06
0.000666665
0.000532297
1.28018e-05
0.000880112
4.50783e-06
3.37696e-06
5.43047e-06
3.51376e-06
1.91664e-06
0.00028385
1.16236e-06
9.48087e-06
2.27049e-05
6.71971e-07
3.82408e-06
4.37026e-06
0.00293823
3.68897e-06
0.000379586
8.49036e-06
1.89215e-06
0.000487795
4.3634e-06
9.12232e-06
1.51311e-06
5.0885e-06
2.78867e-06
1.65626e-05
0.00224413
0.000510808
6.07942e-06
1.3705e-05
0.000553206
4.65909e-06
3.41332e-06
7.84339e-06
0.00297859
1.08571e-05
3.86438e-06
2.64186e-06
2.77379e-06
0.000548159
8.95565e-06
2.18376e-06
1.26678e-05
0.00260158
0.000828894
5.76791e-06
0.000665061
6.28781e-06
0.000579946
2.51059e-06
0.00132619
2.85326e-05
1.18831e-05
2.51563e-06
1.18877e-06
2.1107e-05
8.09736e-06
2.51476e-06
9.57004e-06
3.73447e-06
3.70902e-06
6.76863e-06
2.05895e-05
2.92024e-05
4.38436e-06
1.13461e-05
9.06852e-06
4.48246e-05
2.54581e-06
2.25165e-05
1.54417e-06
1.69722e-05
4.528e-06
3.27123e-06
3.26865e-06
7.28761e-06
5.94154e-06
1.04138e-06
2.05318e-05
5.78588e-06
1.03189e-05
6.79349e-06
2.25902e-05
3.77327e-06
1.06891e-05
1.00091e-05
2.69167e-06
3.33046e-06
0.00054649
1.277e-05
5.13341e-06
1.2058e-06
8.41996e-06
1.03044e-05
8.90716e-06
4.57693e-06
0.00198729
0.000865494
4.23044e-06
1.37825e-05
6.07127e-06
6.49749e-06
6.87032e-06
1.08869e-05
4.12461e-06
3.83331e-06
2.13476e-06
0.000805145
2.22325e-06
4.99008e-06
8.60924e-06
0.000427702
6.13461e-06
0.000445043
1.82651e-06
7.48018e-06
2.24721e-06
5.37924e-06
2.24802e-06
1.28053e-05
7.33842e-06
5.31974e-06
1.03169e-05
4.81318e-06
3.87632e-06
1.9993e-06
8.9274e-06
2.33432e-05
3.33817e-05
5.33592e-06