/*--------------------------------*- C++ -*----------------------------------*\
  =========                 |
  \\      /  F ield         | OpenFOAM: The Open Source CFD Toolbox
   \\    /   O peration     | Website:  https://openfoam.org
    \\  /    A nd           | Version:  10
     \\/     M anipulation  |
\*---------------------------------------------------------------------------*/
FoamFile
{
    format      ascii;
    class       volScalarField;
    location    "0.5";
    object      SgRate;
}
// * * * * * * * * * * * * * * * * * * * * * * * * * * * * * * * * * * * * * //

dimensions      [1 -1 -3 -1 0 0 0];

internalField   nonuniform List<scalar> 
111485
(
1.5147e-06
3.69881e-06
3.04964e-06
4.5162e-06
1.67078e-05
5.01761e-06
5.10605e-06
1.55108e-06
1.30159e-05
4.64772e-06
1.60573e-05
1.42263e-06
1.22824e-05
0.00288137
1.03668e-06
1.42285e-06
0.00217711
2.42352e-05
1.25452e-06
4.30887e-06
0.000539139
2.00006e-06
2.79494e-06
4.81774e-06
2.55397e-06
3.8058e-06
5.46091e-06
1.06384e-05
7.47432e-06
0.000670967
1.12633e-05
8.91474e-06
2.31725e-06
5.92667e-06
4.94679e-06
1.04238e-05
0.00148732
0.00247473
3.06319e-05
8.21e-06
0.00031207
1.8642e-05
5.19404e-06
4.26762e-06
4.20337e-06
1.0181
1.2535e-06
2.8385e-06
2.91255e-06
2.06442e-06
1.3317e-05
4.67055e-06
9.84298e-07
4.41267e-06
7.03793e-06
8.49466e-06
5.00046e-06
1.14137e-05
6.14525e-06
1.72917e-06
2.51939e-06
4.86442e-06
1.49354e-05
5.45825e-07
4.82703e-06
2.28024e-06
1.07257e-05
8.53392e-07
1.70782e-05
7.17651e-06
4.24095e-06
4.94957e-06
9.19367e-06
8.29662e-06
4.35733e-06
4.8701e-06
4.74206e-06
3.27832e-06
5.97668e-06
1.84079e-06
0.00305442
0.00551691
9.28449e-06
4.7551e-06
1.30582e-05
1.1663e-05
0.00176249
2.4978e-06
4.52454e-06
1.87469e-06
4.82391e-06
4.59131e-06
6.8331e-06
2.10652e-05
4.52165e-06
3.46216e-06
0.000382398
1.54956e-06
2.97565e-05
3.86216e-06
2.6475e-06
1.30018e-05
6.83253e-07
1.49156e-06
2.43917e-06
1.03044e-06
3.43812e-06
4.64652e-06
1.71159e-05
6.51002e-06
5.76696e-06
1.02747e-06
2.9252e-06
2.30439e-05
1.27544e-05
3.82666e-06
3.19221e-06
9.60083e-06
4.85818e-06
7.41016e-06
3.29403e-06
7.1263e-06
0.000682743
6.52006e-06
1.03131e-06
0.000498387
4.24575e-06
7.06126e-07
1.25803e-05
7.88477e-06
7.49365e-06
3.65581e-06
0.000445678
6.42242e-06
8.65201e-06
6.56847e-06
6.63391e-06
1.25657e-05
1.07558e-05
2.17277e-05
5.67856e-06
9.21749e-06
0.00196259
5.03792e-06
4.09292e-06
3.89054e-06
2.17147e-05
7.62841e-06
1.58568e-06
2.45835e-06
6.53182e-06
0.000248533
0.0026293
1.05699e-05
8.04619e-06
1.28668e-06
5.40709e-06
1.14842e-06
7.66525e-06
0.00739015
6.08567e-06
2.40508e-06
2.29814e-05
1.12598e-05
3.36868e-06
1.20513e-05
4.21412e-06
0.000284443
5.82156e-06
3.78991e-06
3.40867e-06
8.07578e-06
0.00293885
3.59371e-06
2.27121e-06
2.92293e-06
4.03474e-06
3.19134e-06
6.16995e-06
1.94953e-06
9.68213e-06
1.86175e-06
2.64978e-06
5.52027e-06
7.14667e-06
7.97746e-06
4.41682e-06
1.71546e-06
1.66712e-06
1.37109e-06
4.57254e-06
4.97949e-06
9.38672e-06
8.2139e-06
5.33144e-06
3.20482e-06
4.8124e-06
2.15979e-05
3.24698e-06
3.81939e-06
6.53337e-06
2.96968e-05
7.35013e-06
1.00886e-06
7.70564e-06
2.95987e-06
6.07347e-06
2.13371e-06
3.26194e-06
4.16673e-06
7.25504e-06
4.94239e-06
2.8954e-06
7.23614e-06
3.45669e-06
2.30459e-06
1.41743e-06
1.16059e-05
5.48302e-07
5.11947e-06
3.69435e-06
0.904526
8.05321e-06
9.63492e-06
2.30756e-05
7.03429e-06
1.65594e-06
2.14514e-06
1.28749e-05
3.75355e-06
6.38464e-06
4.67636e-06
4.12868e-06
0.00153366
3.50488e-06
1.49404e-05
0.00201296
3.64889e-06
7.21388e-06
2.77961e-06
5.35374e-06
1.38611e-06
4.99991e-06
1.4762e-05
9.78075e-06
5.01552e-06
7.93572e-06
3.85019e-05
4.47588e-06
0.00136862
6.85035e-06
5.43758e-06
1.59952e-06
1.47319e-06
4.36561e-05
4.99508e-06
6.77078e-06
3.19418e-05
0.00115963
3.16861e-06
5.51078e-06
1.70304e-05
2.275e-06
0.0651294
2.78196e-05
2.34336e-06
1.59127e-06
7.05495e-06
0.00335078
1.26917e-05
4.6747e-06
5.93705e-06
0.00186029
1.14371e-06
1.6439e-06
1.93174e-05
8.45995e-06
2.65271e-06
6.29556e-07
7.20942e-06
0.00290022
4.9095e-06
5.07162e-06
3.29924e-06
1.08068e-05
0.00227276
0.00240236
1.50687e-06
1.17808e-05
7.89557e-07
1.10549e-06
3.12998e-06
8.75735e-07
2.85971e-05
4.96168e-06
6.50203e-06
5.17413e-06
9.50432e-06
6.21829e-06
3.77079e-06
0.00342246
5.50093e-06
0.000796125
2.50434e-06
4.58223e-06
1.31514e-05
9.0754e-06
0.000311818
3.09259e-06
1.09179e-05
2.40551e-06
1.02371e-05
2.93389e-06
1.83327e-05
1.30743e-06
3.76933e-06
2.66947e-06
5.21137e-05
0.0027786
3.00024e-06
1.19396e-05
8.80774e-06
2.20725e-06
1.94789e-05
4.10494e-06
1.82808e-05
6.04148e-06
7.61836e-06
1.405e-06
2.67024e-05
0.000687634
2.40371e-06
6.03742e-06
5.61292e-06
5.53649e-06
0.000718769
7.10363e-06
6.84156e-06
1.14612e-05
9.12345e-06
1.63973e-06
7.35207e-06
0.00159271
1.00919e-05
8.22005e-06
1.67889e-05
4.70213e-06
2.93077e-06
0.000425616
4.71556e-06
9.58992e-07
4.85436e-06
5.11777e-07
5.01416e-06
2.04068e-05
3.58597e-06
4.95087e-06
1.54359e-05
6.02992e-06
0.00398041
1.47372e-05
4.16022e-06
0.000589612
4.26953e-06
1.04359e-05
2.18329e-06
5.84284e-06
0.000662736
1.42918e-05
0.242159
0.000524941
8.23774e-06
5.64298e-06
7.56764e-07
6.91295e-06
8.86282e-06
1.03426e-05
5.90223e-06
2.83704e-06
6.05989e-06
1.93137e-06
7.46947e-06
3.33926e-06
7.29842e-06
8.79465e-06
3.1377e-06
5.09711e-06
4.19592e-06
2.26865e-05
8.95367e-06
1.55519e-05
0.000300412
3.57989e-06
4.56226e-06
0.00154237
9.91927e-07
0.00335658
8.35401e-07
6.28016e-06
5.51501e-06
5.78943e-06
1.16554e-05
2.11479e-06
1.565e-05
0.000527611
9.8577e-07
3.34332e-06
8.69101e-06
1.66296e-05
4.31474e-05
2.5084e-06
1.15408e-05
2.27645e-05
9.79067e-06
1.29046e-05
1.01003e-05
0.00262274
3.53445e-05
3.09335e-06
4.16712e-06
5.66954e-07
2.80608e-06
3.32999e-06
3.26771e-06
1.06938e-05
1.82681e-05
1.8128e-06
0.00222938
6.46245e-06
2.93353e-06
1.42597e-05
3.53503e-06
0.064611
1.07592e-05
1.86351e-06
3.29462e-06
1.92099e-06
2.53331e-06
4.83606e-07
8.48823e-06
0.00383632
6.81386e-06
8.31615e-06
1.04707e-05
9.17345e-06
1.466e-05
5.33324e-06
0.00311205
0.00329699
6.04444e-06
5.06605e-06
2.59967e-06
1.32555e-05
0.346403
4.8283e-06
2.87538e-06
0.00322462
1.34944e-05
1.51692e-06
8.21101e-06
8.7778e-06
2.01638e-06
1.04455e-06
6.72357e-06
4.15808e-06
2.43292e-06
2.35037e-06
0.000631603
8.50733e-06
3.5911e-06
2.39186e-06
4.77198e-06
2.10795e-06
2.6868e-05
5.2751e-06
5.89987e-06
2.18411e-06
9.88631e-06
0.00094943
1.90422e-05
1.58204e-06
3.1013e-06
6.94926e-06
1.4578e-06
0.00270507
1.2551e-06
0.00208323
1.71455e-05
7.25041e-06
8.53857e-06
8.79468e-06
0.00389325
0.00145607
2.11081e-06
5.51918e-06
3.97878e-06
1.66505e-06
4.2497e-06
2.12505e-06
1.32571e-05
0.00266364
8.08902e-06
5.74878e-06
4.89694e-06
2.73889e-06
0.000616167
3.102e-06
5.69597e-06
1.19144e-06
1.03686e-05
1.88119e-05
0.000732164
1.26988e-05
1.85674e-06
1.13176e-06
1.65444e-06
1.05523e-05
2.90744e-06
2.9039e-06
3.29918e-06
2.29414e-05
6.27577e-06
1.63078e-06
1.75634e-05
1.45146e-05
3.30305e-06
5.05235e-06
7.69861e-06
4.26858e-06
1.88131e-06
0.00130232
0.00217168
5.65672e-06
1.79327e-06
0.000658879
0.00115599
9.84517e-07
8.14647e-06
1.34335e-05
9.08551e-06
4.96376e-06
9.86365e-07
2.28424e-06
0.000488678
5.33529e-06
7.34194e-06
2.86624e-06
1.09586e-06
2.47635e-06
3.85249e-06
7.95062e-07
9.70391e-07
2.03784e-06
1.29355e-05
6.00367e-06
5.03214e-06
3.72463e-06
0.00198164
3.1693e-06
6.29716e-06
4.65866e-06
1.51287e-05
7.55286e-06
1.01438e-05
4.00228e-05
4.0948e-06
3.29793e-06
9.75503e-06
7.67485e-06
3.91205e-06
0.00125601
8.44239e-06
1.21994e-05
2.4197e-06
0.000785184
1.03757e-05
2.25514e-06
2.52096e-05
1.12293e-05
1.57943e-05
1.32475e-05
4.01488e-06
2.0195e-05
9.65459e-06
3.07802e-05
2.87502e-06
1.18482e-05
2.84732e-06
6.00871e-06
8.20352e-06
4.21364e-05
9.07963e-06
1.62405e-06
4.38682e-05
1.17963e-05
0.000456263
2.97092e-06
2.3482e-06
0.00118237
0.00321674
1.15383e-05
4.82461e-06
0.000577992
1.38586e-06
1.28799e-05
8.05668e-06
1.69208e-06
5.4525e-06
3.01729e-06
0.00139724
2.28089e-06
4.16303e-06
5.84591e-06
2.67437e-06
0.00163126
1.24176e-05
6.7234e-06
9.51818e-06
0.00250288
0.000365093
3.26048e-06
1.1093e-05
2.39038e-05
9.92688e-07
6.55801e-06
1.99214e-05
1.42114e-05
4.40195e-06
1.31713e-05
2.44947e-05
2.7396e-06
6.95551e-06
5.41691e-06
9.47811e-06
6.4681e-06
1.09277e-05
6.67194e-06
5.43305e-06
1.6866e-05
1.14346e-05
5.5184e-06
1.13016e-05
6.88765e-06
9.15442e-06
5.80947e-07
2.04211e-05
1.51282e-06
1.00184e-05
4.00463e-06
8.22058e-06
1.14293e-05
5.6459e-06
6.25163e-06
0.000826342
2.53769e-06
0.00185885
2.13963e-06
6.80877e-06
1.79021e-05
0.000262643
1.04555e-06
7.58824e-06
4.27781e-06
5.11616e-06
2.04246e-06
3.16439e-06
2.1209e-05
0.00296301
2.71225e-06
4.49368e-06
0.366277
5.54481e-06
2.12997e-06
3.78941e-06
5.92224e-06
8.85316e-06
2.42522e-06
5.91398e-06
4.35585e-06
1.28497e-06
3.67315e-06
0.00175383
1.06653e-05
9.00901e-06
2.20505e-05
1.12389e-05
1.1369e-05
7.57438e-06
0.000646771
1.54728e-05
3.05151e-06
8.58e-06
0.000458274
1.95485e-06
3.53014e-06
1.02957e-05
0.00024104
1.00499e-05
0.00207314
9.27961e-06
5.21378e-06
7.6195e-06
7.66836e-06
7.51198e-06
7.16496e-06
1.20481e-05
4.84163e-06
1.45419e-05
0.000649428
1.94715e-06
3.03707e-06
7.37589e-06
3.98659e-06
4.7481e-06
5.59357e-06
4.68538e-06
7.46755e-06
1.0489e-06
9.84907e-06
6.29242e-06
2.92524e-06
1.15249e-06
2.74014e-06
1.24852e-05
7.0437e-06
4.26084e-06
7.8289e-07
2.1441e-05
2.24846e-05
1.88032e-05
4.40812e-06
3.34408e-06
7.18975e-07
3.202e-06
2.42287e-06
2.02488e-05
2.06846e-06
3.86858e-06
1.68242e-06
2.27547e-06
5.31773e-06
1.02739e-05
3.09361e-06
1.17084e-06
5.94271e-06
5.07666e-06
2.77845e-06
3.71211e-06
1.13001e-05
1.07696e-05
0.00255661
1.93485e-06
2.41099e-06
0.00332329
1.09408e-05
5.63276e-06
3.94556e-06
6.55199e-06
2.8551e-06
0.00305506
2.02388e-05
1.44699e-06
2.50841e-06
6.24479e-06
9.62197e-06
3.14428e-06
2.22361e-06
5.19922e-06
0.135834
4.11528e-06
3.09937e-06
1.48429e-06
8.44941e-06
6.92289e-06
1.04558e-05
2.49567e-06
1.95924e-05
2.81003e-06
0.00035074
4.59128e-06
2.45217e-06
2.84908e-06
1.14494e-05
9.07753e-06
2.64709e-06
2.38057e-05
0.000499586
4.03314e-06
5.70482e-06
0.000614505
2.54011e-06
0.00106858
9.09734e-06
0.0004104
9.93105e-06
4.69478e-06
6.68183e-06
1.05746e-05
0.000606948
1.34361e-06
2.01934e-05
0.00162692
1.27016e-06
3.67471e-06
3.46001e-06
1.19954e-05
0.00491828
0.00154553
1.06997e-05
0.00246557
4.24e-06
2.10639e-06
1.01361e-05
2.52176e-06
1.48478e-06
2.52423e-06
3.4931e-06
6.12925e-06
4.0517e-06
4.02754e-06
0.000352971
5.17117e-06
5.40019e-06
4.74678e-06
4.90593e-06
2.85529e-06
0.00209108
1.40773e-05
5.16193e-06
1.44793e-05
2.11825e-06
7.23441e-06
0.00216027
6.09775e-06
0.00207334
0.00316064
5.46755e-06
4.70918e-06
8.77469e-06
1.65249e-05
5.39324e-06
1.08306e-05
9.28571e-06
3.29002e-06
4.69654e-06
0.000573915
2.4821e-06
2.10773e-06
7.37558e-06
9.3703e-06
1.04364e-05
9.36401e-06
6.67857e-06
3.75017e-06
3.07837e-06
1.47862e-05
9.88325e-06
4.13707e-06
2.58196e-05
0.00367087
5.1402e-06
3.15197e-06
4.01703e-06
2.30386e-05
4.60864e-06
1.96378e-06
7.763e-06
7.38899e-07
1.1328e-05
5.93895e-06
1.50465e-05
1.47254e-06
4.504e-06
0.000551827
4.00753e-06
1.36517e-05
6.36741e-05
0.00133685
2.23541e-06
1.60013e-05
0.000351919
3.65433e-06
2.09281e-05
1.6561e-06
8.03353e-06
1.66052e-05
0.00126387
4.68492e-06
2.61912e-06
5.65936e-06
0.000415584
3.03226e-06
0.00022212
1.0264e-05
1.76685e-05
4.51771e-07
7.37763e-06
7.91004e-06
6.87375e-06
9.29522e-06
2.55464e-06
8.07963e-06
9.31683e-06
3.43783e-06
3.50031e-06
8.87987e-06
0.000558163
6.1253e-06
5.72604e-06
3.17427e-06
8.73702e-06
7.0496e-06
3.54138e-06
4.71497e-06
9.35785e-06
4.12564e-07
7.86206e-06
1.03041e-05
3.70604e-06
3.87948e-05
1.04948e-05
1.49712e-05
2.02125e-05
1.18803e-05
0.00153816
1.34055e-06
1.1755e-05
0.000609607
1.33647e-05
1.13115e-05
5.40956e-06
3.33273e-06
8.18326e-06
6.92271e-06
1.58302e-05
1.90186e-06
1.83926e-06
4.47886e-06
9.71534e-06
3.66469e-06
2.28013e-05
1.13912e-05
2.02145e-05
6.57018e-06
7.66165e-06
1.54224e-05
5.12247e-06
1.67395e-06
3.08432e-06
1.17082e-05
7.41676e-06
1.67469e-05
6.65012e-06
4.96219e-06
4.15735e-06
1.19901e-05
1.44032e-06
1.89668e-05
7.49156e-07
5.46822e-06
5.88609e-06
2.59717e-06
6.44188e-06
2.95339e-06
0.00128204
9.75688e-06
7.64658e-06
4.98359e-06
9.69608e-07
3.35129e-06
0.00284386
0.000745855
1.23076e-05
0.00017377
5.35708e-06
3.438e-06
0.00167281
1.31154e-05
1.34951e-05
1.05593e-05
1.79566e-05
9.67646e-06
1.33088e-05
3.84574e-06
1.71181e-05
0.00319888
7.45344e-06
4.86333e-06
6.9817e-06
2.36676e-06
1.16995e-05
6.07445e-06
7.56758e-06
3.89517e-06
6.08418e-06
3.98251e-06
4.93803e-06
3.7058e-06
9.35346e-06
2.03452e-05
0.00548377
6.38738e-06
6.05424e-06
5.15799e-06
4.50425e-06
1.34912e-05
0.00405969
4.36265e-06
0.00205373
9.22952e-06
2.18139e-06
3.67851e-06
7.17482e-06
2.08027e-05
2.66024e-06
7.04994e-06
1.0763e-05
3.88871e-06
5.43555e-06
1.03021e-05
4.84163e-06
1.11308e-05
0.000675869
2.01433e-06
5.49202e-06
2.15247e-06
6.15653e-06
2.71965e-05
2.39482e-06
8.14726e-06
2.23113e-06
7.28978e-06
1.72719e-06
2.13417e-06
1.09901e-05
1.44215e-06
0.00201173
2.44423e-06
4.77363e-06
9.51773e-06
0.000448019
2.25371e-06
1.7644e-05
3.44432e-06
6.62124e-06
6.74827e-06
4.3779e-06
0.00178045
4.30842e-06
1.32387e-06
3.85941e-06
1.29381e-05
5.62801e-06
1.96779e-06
3.83057e-06
1.98845e-05
3.42655e-06
5.42287e-06
1.33593e-06
2.90122e-06
1.27719e-05
0.000430859
1.14432e-05
1.16668e-05
1.43004e-05
3.54224e-06
2.36098e-05
7.00281e-06
4.22926e-06
1.63861e-05
2.71622e-06
1.9213e-06
1.48656e-06
0.000638729
1.22507e-05
0.000504219
6.12983e-06
7.635e-06
7.0468e-06
2.58366e-06
9.59245e-06
1.88961e-06
5.37283e-06
6.57034e-06
1.57434e-06
1.08628e-06
6.87424e-06
1.05312e-05
3.35266e-06
4.9706e-06
8.62446e-06
3.2486e-05
3.10226e-06
2.70234e-06
3.55785e-06
3.33023e-06
1.11091e-05
7.42311e-06
2.16196e-06
2.27104e-06
0.000461385
6.99302e-06
2.16913e-06
5.59052e-06
8.51704e-06
8.28727e-06
0.000715974
0.0027933
6.47779e-06
3.2719e-06
1.46881e-06
7.78317e-06
4.76564e-06
9.38431e-06
6.00168e-06
5.06427e-06
0.000417901
0.000691762
5.65048e-06
3.48596e-06
1.22995e-05
0.000438282
2.35709e-06
2.3052e-05
3.85389e-05
0.000403896
0.00176917
0.000540923
4.8201e-06
5.89056e-06
4.372e-05
1.01731e-05
2.06656e-06
3.92876e-06
1.54362e-05
2.22802e-06
1.35447e-05
7.12237e-06
1.25269e-05
4.08412e-06
3.37299e-06
5.47508e-06
4.96241e-06
0.000592233
1.75799e-05
7.22041e-07
0.000862123
0.00279537
2.75095e-05
0.00208927
6.23833e-06
0.00397085
2.88455e-06
1.67716e-06
2.53347e-06
2.30998e-06
0.0031177
1.26082e-05
1.14811e-05
8.03939e-06
2.09177e-06
3.01972e-06
6.68578e-06
2.42739e-06
1.63625e-06
0.000886779
1.04239e-06
1.417e-05
1.11841e-06
4.31426e-05
4.52269e-07
1.19273e-06
9.6002e-06
1.93748e-06
1.11301e-05
2.05095e-05
2.81533e-06
6.11535e-06
2.86341e-06
4.94458e-06
3.68696e-06
8.80735e-06
0.00317084
0.000494912
1.03848e-05
6.31494e-06
5.55847e-06
1.95301e-06
0.00229987
1.41242e-06
2.30058e-06
6.23441e-06
2.81375e-06
9.62319e-07
0.000345535
7.75867e-06
4.89859e-06
6.53733e-06
1.42708e-06
1.03352e-05
0.00198041
4.66122e-06
0.00051779
3.69724e-06
3.33893e-06
2.13394e-06
2.74151e-06
6.01613e-06
4.59384e-06
1.64318e-05
2.53633e-06
2.04449e-06
6.18258e-07
6.90167e-06
0.000923864
5.28779e-06
1.81173e-06
3.43549e-06
3.89768e-06
6.90744e-06
0.000565014
2.67449e-06
1.47287e-06
1.13349e-05
1.48316e-05
6.11024e-06
9.51874e-06
1.03987e-05
1.65978e-06
5.05231e-06
1.05841e-05
8.63707e-06
2.92775e-06
6.77351e-06
3.15671e-06
5.68653e-06
1.31485e-06
1.68259e-05
0.00265312
1.82598e-06
7.98648e-06
2.69188e-06
3.32179e-05
2.4562e-06
1.31618e-05
7.91883e-06
0.000893378
3.28233e-06
3.79978e-06
1.29996e-05
0.000570496
3.86335e-06
1.68083e-05
7.25558e-06
2.47467e-05
0.000555227
9.06776e-06
5.53054e-06
1.56695e-05
6.52088e-06
0.00274717
2.01098e-06
1.62627e-06
3.69379e-06
1.1177e-05
0.00371979
0.000616631
1.01695e-05
6.65536e-06
1.49087e-06
2.39686e-06
4.42734e-06
8.45555e-06
3.25278e-06
9.38446e-06
1.46088e-06
3.33761e-06
6.30027e-06
0.000444704
0.000414803
8.895e-06
1.6259e-06
3.89226e-06
1.69951e-06
1.29442e-05
0.000420376
0.00105974
1.55161e-05
2.13333e-06
3.0494e-06
1.82611e-06
1.9253e-05
8.01443e-06
9.06805e-06
8.05184e-07
3.43108e-06
8.26377e-06
2.11124e-05
6.77002e-06
1.10402e-06
9.31186e-06
2.10411e-05
2.44293e-06
4.29145e-06
1.10636e-05
3.29905e-06
3.87779e-06
8.38243e-06
4.34362e-06
9.7246e-06
2.6568e-05
3.3e-05
6.77141e-06
0.00351384
8.72205e-06
1.59893e-05
0.000623198
6.66618e-06
2.27426e-06
1.55079e-05
2.78799e-06
5.68977e-06
2.77057e-06
1.69954e-05
1.61632e-05
4.92455e-06
4.95571e-06
1.48574e-05
1.1011e-05
1.6663e-05
1.88563e-06
9.99029e-06
5.59908e-06
4.10946e-06
1.15731e-06
8.82441e-06
3.47176e-06
2.37354e-06
1.56413e-06
2.06301e-05
1.75316e-06
6.12783e-06
2.1911e-06
1.67885e-06
7.31861e-06
3.87466e-06
2.05265e-06
1.46547e-05
0.00322176
7.34213e-06
2.95067e-06
5.75373e-06
2.49185e-06
2.61938e-06
1.50544e-05
0.00244465
5.65297e-05
6.46034e-06
3.52714e-06
0.00234398
7.23274e-06
9.21129e-06
8.37282e-06
4.80457e-06
1.63555e-05
1.66948e-06
1.33542e-05
6.77024e-06
8.4348e-07
8.15967e-06
2.42112e-06
8.34987e-06
7.14882e-06
0.00282986
5.3677e-06
5.93123e-05
1.98246e-05
5.03825e-06
9.8438e-06
6.55153e-06
6.0264e-05
3.38283e-06
8.37193e-06
1.16684e-05
0.000827164
1.38381e-05
0.00259908
3.45266e-06
7.17904e-06
1.28519e-05
3.22131e-06
4.60682e-06
9.81704e-07
6.26954e-06
1.14287e-05
1.25789e-05
1.20406e-05
1.23661e-05
2.65563e-06
6.26787e-06
1.90797e-06
1.58847e-06
1.9301e-06
1.26626e-05
1.57984e-05
2.9915e-06
4.68337e-06
1.81719e-06
1.8914e-05
6.27503e-06
6.94236e-06
2.0207e-05
4.75381e-06
5.16765e-06
1.1057e-05
6.08134e-06
2.89754e-06
7.42195e-06
1.16691e-05
4.38185e-06
6.99467e-06
0.00163243
2.21826e-05
5.49435e-06
3.39402e-06
1.28519e-05
1.11859e-05
4.58538e-06
5.15385e-06
1.34499e-05
6.89865e-06
1.64502e-06
9.08628e-06
0.00214916
2.21917e-05
3.34994e-06
1.0773e-05
3.69499e-06
2.15478e-06
6.7358e-06
1.57814e-05
1.40854e-05
6.05388e-06
0.00174442
1.8882e-06
0.026988
2.2497e-06
9.25975e-06
3.70735e-06
7.52453e-06
3.5209e-06
8.14637e-06
1.42341e-05
1.97021e-05
1.09957e-05
3.6743e-06
1.22809e-05
1.14844e-06
2.4097e-06
7.90465e-06
0.00110074
2.62077e-06
3.73501e-06
1.89351e-05
2.18209e-06
1.07522e-05
5.27725e-06
3.19367e-06
5.2124e-06
2.13708e-05
6.21262e-06
3.16284e-06
3.18286e-06
3.04998e-05
5.12846e-06
1.56325e-05
2.79313e-06
3.26638e-06
2.16649e-06
3.62558e-06
3.48005e-05
4.49075e-06
1.59082e-05
2.50278e-05
1.86308e-06
3.02559e-06
8.04623e-06
0.00154284
6.62204e-06
3.84499e-06
2.55514e-06
0.00166639
0.00228656
7.5903e-06
0.000652107
4.69236e-06
5.25236e-06
2.96702e-06
7.04578e-06
2.20763e-06
3.68065e-06
1.48386e-06
0.00123768
0.00379594
0.00416188
8.79606e-06
1.30745e-05
1.3942e-05
3.3482e-06
0.0044006
3.52311e-06
0.00216934
6.79436e-06
1.01254e-05
9.61685e-06
8.48648e-06
1.51815e-05
2.21959e-06
7.3768e-06
6.4325e-06
0.00138998
1.72322e-05
4.35679e-06
3.57425e-06
5.67753e-06
6.92766e-06
5.71427e-06
4.38681e-06
1.15529e-05
6.06895e-06
9.76959e-06
3.62156e-06
2.07539e-06
1.35191e-05
7.1192e-06
3.2325e-06
4.83699e-06
1.42627e-06
1.3744e-06
6.05324e-05
1.25172e-05
1.55491e-05
1.65644e-06
2.55057e-06
8.08655e-07
7.15739e-06
1.00783e-06
3.21139e-06
1.06372e-06
1.48889e-05
6.00364e-06
1.81105e-05
3.11541e-06
0.000595413
8.70057e-06
0.00408601
4.01133e-05
7.4167e-06
1.11788e-05
0.000750682
1.10915e-05
2.63068e-06
4.71184e-06
4.48765e-06
4.88329e-06
1.13127e-05
2.22567e-06
1.56918e-05
8.10385e-06
9.72583e-06
3.64849e-06
7.95505e-06
6.05496e-06
0.000811199
0.0611231
2.92407e-06
2.8324e-06
4.05722e-06
2.0358e-05
4.30149e-06
1.61718e-06
2.12123e-06
8.77323e-06
5.06746e-06
0.0006938
4.57317e-06
1.93406e-06
3.73722e-06
6.48236e-06
8.21935e-06
9.67073e-06
4.45931e-06
5.82203e-06
8.18892e-06
2.72691e-06
3.14457e-06
2.00705e-05
1.73091e-05
2.16558e-06
5.10494e-06
7.37402e-06
2.82664e-06
9.41283e-06
1.13204e-05
1.42545e-05
5.2256e-06
9.70417e-06
3.06343e-06
0.00213552
9.26127e-06
9.31694e-06
2.92582e-06
5.44019e-06
1.29899e-05
1.79749e-05
5.53671e-06
7.59903e-06
0.00239512
5.45872e-06
3.67199e-06
9.48742e-06
0.000449271
2.69436e-06
0.000621474
0.00118471
2.39085e-05
2.45724e-06
1.80861e-05
4.75789e-07
9.53422e-06
8.10108e-06
3.20313e-05
4.08226e-06
3.41372e-06
7.90659e-06
8.91375e-06
5.05156e-06
1.75876e-05
2.23532e-06
2.15947e-05
6.33522e-06
8.32942e-06
1.07566e-05
8.94328e-06
1.6539e-05
1.25058e-05
6.29682e-06
1.78805e-05
1.04461e-05
1.46158e-05
9.49566e-06
3.55e-06
7.16098e-06
1.73268e-06
2.0173e-06
3.42726e-06
0.000868729
5.32363e-06
1.42509e-05
2.60798e-06
1.1625e-05
2.15605e-05
1.75329e-06
3.39283e-06
4.73905e-06
1.58147e-06
5.15967e-06
3.13058e-06
2.15536e-06
1.9393e-05
8.56684e-06
0.00410364
3.27564e-06
1.05929e-06
2.6001e-05
8.16831e-06
9.53799e-06
0.000261177
0.000959244
1.83779e-05
1.51348e-05
1.03786e-05
9.58332e-06
1.02957e-05
5.31209e-06
7.69614e-06
0.000483791
1.78251e-05
6.13331e-06
2.73449e-06
1.44011e-06
6.89631e-06
1.8404e-06
0.131393
2.18813e-05
1.35289e-06
2.85348e-05
0.0024881
0.000475366
4.42552e-06
1.14593e-06
4.10944e-06
5.62678e-06
1.38555e-06
0.000464
1.79351e-05
6.06581e-06
6.96213e-06
3.70515e-06
5.12179e-06
2.29403e-06
3.89912e-06
7.55064e-06
1.347e-06
4.30481e-06
5.80171e-06
1.33731e-05
1.44254e-06
6.69415e-06
0.000692013
4.28577e-06
2.58071e-05
4.9415e-06
4.21993e-06
7.48336e-06
2.24767e-06
0.00068987
4.51801e-06
0.00268922
1.59293e-05
3.49163e-06
0.000513598
4.89358e-06
4.50074e-06
5.31079e-06
0.000341971
4.51679e-06
4.68252e-06
4.01273e-06
5.40914e-06
2.57063e-05
1.3639e-05
2.95006e-06
0.00127557
3.52501e-06
1.17039e-05
1.29405e-05
1.02416e-05
6.13947e-06
1.08806e-05
8.67947e-06
0.00280025
3.74545e-06
6.23943e-06
1.54343e-06
5.0835e-07
4.86953e-06
7.72031e-07
5.4485e-06
3.43701e-06
7.0622e-06
1.05352e-05
5.65822e-06
1.46499e-06
1.94645e-05
7.42707e-06
2.23707e-06
2.12759e-06
6.55855e-06
4.36456e-06
3.23867e-06
6.46425e-06
2.79423e-06
5.34017e-06
1.92169e-06
6.97559e-06
4.37591e-06
2.01073e-06
1.25335e-06
2.02071e-06
0.00299776
5.06092e-06
5.65184e-06
4.99178e-06
7.47495e-06
2.07197e-05
4.84866e-06
3.97153e-05
2.29273e-06
1.70664e-05
6.43077e-06
6.15426e-06
1.18125e-06
6.35977e-07
2.56598e-06
1.0498e-05
0.00309641
6.9241e-06
1.16181e-05
3.07054e-06
1.07348e-05
1.07816e-06
7.66824e-06
0.000507143
1.43294e-06
1.89895e-06
5.04289e-06
8.68409e-06
0.019883
0.00480279
3.75578e-06
1.17807e-05
4.40802e-06
3.09544e-06
0.0011812
3.36263e-06
2.1959e-06
5.9467e-06
1.39624e-06
7.82016e-06
2.29025e-05
1.45285e-06
5.23713e-06
5.94657e-06
4.06967e-06
2.24096e-06
5.43955e-06
1.26934e-05
0.00184207
1.61093e-05
1.63925e-06
1.09061e-05
8.74107e-07
0.000709648
0.859945
7.819e-06
2.39769e-06
0.00108958
1.28419e-05
2.19069e-05
0.000534243
1.12812e-05
2.46891e-06
0.00191801
0.000195702
1.34798e-05
2.22877e-06
5.50146e-06
6.64424e-06
1.55713e-05
3.39303e-06
6.91908e-06
8.86565e-06
6.23158e-07
0.000296697
8.23168e-06
5.83979e-06
0.0020454
1.13387e-06
3.56324e-06
4.41399e-06
6.05262e-06
1.43129e-05
2.69895e-06
7.97288e-07
6.54586e-06
2.03841e-06
2.45682e-06
3.09339e-06
0.000294056
0.00065371
6.11226e-06
3.93832e-06
7.55928e-07
1.81812e-05
3.45739e-06
2.21617e-06
9.93903e-06
1.44908e-05
1.24592e-05
1.48948e-06
6.40151e-06
1.45633e-06
0.00464618
6.14727e-06
0.00162722
5.78059e-06
2.70617e-06
0.000510803
1.16007e-05
1.70831e-06
0.000286078
4.81035e-06
5.32878e-06
2.83515e-06
2.1572e-05
4.95955e-06
5.39023e-06
4.5244e-06
9.30751e-07
1.12325e-06
0.00276611
0.00246319
1.19012e-05
6.39685e-06
4.12761e-06
0.000518015
0.00250743
8.35304e-06
2.73808e-06
4.32422e-06
7.68741e-06
1.91202e-05
1.64242e-05
2.69227e-06
6.48046e-06
1.35092e-05
1.41399e-05
4.49703e-06
6.42443e-06
0.000752928
0.00244056
1.64317e-06
1.1516e-05
3.61725e-06
2.61898e-06
1.58974e-05
6.92371e-06
1.87131e-05
8.01461e-06
2.73465e-06
1.87989e-05
3.54759e-06
2.60936e-06
2.03822e-05
0.000636945
5.39207e-06
0.00206888
1.64999e-05
3.74506e-06
6.87315e-06
5.83637e-06
1.69118e-06
5.03851e-06
3.55567e-06
6.62318e-06
3.95709e-06
1.26891e-06
8.69899e-06
0.000487466
5.24628e-06
0.00175218
5.74152e-06
1.13973e-05
9.27152e-06
3.62005e-06
4.60347e-06
1.09256e-05
1.94419e-06
1.55072e-05
5.78427e-06
1.1266e-06
0.000697404
0.000555697
2.57531e-05
7.94968e-06
7.22837e-06
7.19592e-06
1.92681e-06
1.33522e-05
7.19837e-06
1.05159e-05
8.27439e-07
6.9754e-06
0.000268191
1.09167e-05
1.40522e-05
0.22237
3.11963e-06
0.00387653
1.01171e-05
3.91292e-05
3.6846e-06
1.70755e-06
0.000732702
1.17166e-06
5.56195e-06
1.18468e-05
5.39442e-05
2.85067e-06
1.57011e-06
2.44595e-06
3.91804e-05
9.63237e-06
1.03606e-05
0.0036049
9.53506e-07
9.11432e-06
1.97802e-06
1.93951e-05
6.68119e-06
6.65547e-06
9.57359e-06
3.9966e-06
1.00859e-05
1.84429e-06
3.46193e-06
0.000445399
1.77077e-06
1.63627e-06
4.10421e-06
3.16321e-06
0.000400318
0.00182053
2.47365e-06
4.94276e-06
2.46954e-05
7.41118e-06
1.8516e-06
2.90559e-06
2.68321e-05
2.41178e-06
7.68588e-06
5.83175e-06
4.05954e-06
1.39397e-06
2.79867e-06
5.96332e-06
5.1155e-06
3.64586e-06
2.36756e-06
1.3306e-06
4.30259e-06
9.98641e-06
2.68817e-06
2.91951e-06
3.63344e-06
0.0243637
6.54269e-06
8.49309e-06
3.31215e-06
0.699664
0.000260978
4.42561e-06
7.08e-07
1.35593e-05
6.146e-06
4.84963e-06
4.51263e-06
1.04797e-05
9.82998e-06
0.124983
4.78829e-06
1.43412e-06
4.45529e-06
2.5274e-05
1.23155e-05
5.81115e-06
2.29969e-07
3.6032e-06
2.64207e-06
0.00141434
8.298e-07
2.4873e-05
2.0486e-05
2.85318e-05
5.32238e-06
6.38534e-06
5.36824e-05
3.78437e-05
1.62123e-05
2.72935e-06
6.95496e-06
3.65848e-06
5.21884e-06
8.40163e-06
3.02926e-06
0.000374427
9.9051e-06
4.65558e-06
3.78294e-06
5.83158e-06
8.1254e-06
4.39352e-06
1.61158e-05
5.06395e-06
0.901755
3.43438e-06
0.00169417
6.96591e-06
4.13143e-06
9.02681e-06
3.71187e-06
1.25953e-05
4.39041e-06
1.06029e-05
1.92706e-06
4.82982e-06
1.07189e-05
4.3995e-06
3.12197e-06
3.6523e-06
5.65731e-06
1.77628e-06
4.66314e-06
1.17706e-06
3.8023e-06
9.53299e-06
1.05623e-06
6.47438e-06
0.00294675
1.71259e-06
2.13654e-06
3.71836e-06
0.00206137
0.00199499
9.2459e-06
2.04386e-06
2.3366e-06
0.400939
4.51645e-06
2.43806e-06
1.11221e-06
5.9712e-06
2.64604e-06
0.00284782
7.58491e-06
3.56855e-06
1.31459e-05
0.824295
1.37733e-06
1.64665e-05
1.76504e-06
1.11166e-05
1.7116e-05
7.56967e-06
5.35789e-06
8.44167e-06
8.05982e-06
5.00347e-06
1.04737e-05
0.000453869
1.01049e-05
3.98643e-06
1.67095e-06
4.53882e-06
3.15073e-06
2.40166e-06
3.45264e-06
3.98144e-06
3.21401e-05
1.4228e-06
7.87411e-06
0.0250091
2.89935e-06
2.33389e-05
8.1069e-06
2.43298e-06
7.25052e-07
1.37886e-05
8.39612e-06
3.11452e-06
2.34964e-06
0.00066397
3.30807e-06
2.44583e-06
3.87793e-06
4.97196e-06
0.00108637
2.74988e-06
7.85673e-06
9.08177e-06
2.43067e-06
3.06163e-06
4.40695e-06
2.65754e-06
1.63272e-06
1.693e-05
1.92774e-05
2.47918e-05
4.35914e-06
5.67285e-06
1.01929e-05
2.14709e-06
2.47458e-06
9.70535e-07
8.78241e-06
2.16696e-05
3.77481e-06
7.81116e-06
0.000584221
5.31819e-06
4.86929e-06
2.7577e-06
0.000730899
2.90209e-05
4.4941e-06
9.17983e-07
4.21644e-06
2.07938e-06
9.18869e-06
1.80428e-06
3.14785e-06
5.03713e-06
2.61378e-06
3.69612e-06
1.02604e-05
2.83304e-06
1.11108e-05
7.32224e-06
4.35593e-06
4.76459e-06
3.21998e-06
8.531e-06
1.08563e-05
4.05408e-06
1.58035e-06
5.04372e-06
3.70811e-06
1.33733e-05
5.02042e-06
1.0312e-05
7.80199e-06
2.8554e-06
5.62896e-06
3.32133e-07
2.59243e-06
2.184e-06
5.30179e-07
1.32968e-05
0.000761983
3.30364e-06
0.000676108
1.8303e-06
3.59816e-06
5.49377e-06
1.31261e-05
0.000417662
5.70881e-06
0.000602438
0.000768526
1.52859e-05
2.43541e-06
0.000367048
8.46708e-06
8.85327e-06
7.12296e-06
0.00148616
0.000413494
0.000481132
2.79388e-06
7.16497e-06
4.84249e-06
3.36764e-06
0.0205208
4.48354e-06
7.53189e-06
1.96325e-06
2.38934e-06
2.94776e-06
9.37249e-06
1.14294e-05
1.66596e-06
6.88232e-06
1.08114e-05
9.36217e-06
5.58442e-06
1.24405e-05
1.32307e-05
1.82895e-06
5.50314e-06
5.73216e-06
1.11563e-05
6.03026e-06
1.90169e-06
1.18301e-05
3.26011e-06
9.69015e-06
7.19954e-06
2.21672e-06
1.15447e-05
2.59618e-06
2.66556e-06
8.87278e-06
0.731224
4.0088e-06
6.9723e-06
0.00466606
0.000816566
3.36797e-06
2.20965e-06
5.83891e-06
0.00057242
0.0018226
1.34882e-05
1.93816e-06
5.18515e-06
2.99741e-06
1.20119e-05
4.90128e-06
4.41635e-06
1.51548e-05
3.59609e-06
7.60751e-06
2.20379e-06
5.11325e-06
0.00183177
0.000670051
2.77114e-06
6.63073e-06
3.01026e-06
0.000344178
5.18643e-06
3.30447e-06
1.68368e-05
6.89292e-06
1.68667e-05
1.21506e-05
7.07546e-06
2.91632e-06
1.41582e-05
0.00187761
0.000648635
5.7874e-06
0.000788267
1.7037e-05
1.19237e-05
1.20969e-05
0.00137618
5.46665e-06
5.01864e-06
1.48856e-05
7.90951e-07
5.92319e-06
3.91091e-06
7.21783e-06
7.71278e-06
4.06623e-06
8.21148e-06
4.51161e-06
3.48725e-06
8.78067e-07
0.481075
1.0863
3.38768e-06
4.24684e-06
2.12888e-06
0.000666665
0.000532297
1.28018e-05
0.000880112
4.50786e-06
3.37696e-06
5.43055e-06
3.51377e-06
1.91664e-06
0.00028385
1.16246e-06
9.48089e-06
2.27056e-05
6.71972e-07
3.82408e-06
4.37027e-06
0.00293823
3.689e-06
0.580898
8.49036e-06
1.89218e-06
0.000487797
4.36346e-06
9.12234e-06
1.51312e-06
5.08857e-06
2.7887e-06
1.65627e-05
0.00224413
0.000510808
6.07942e-06
1.3705e-05
0.000553206
4.6591e-06
3.41333e-06
7.8434e-06
0.00297859
1.08571e-05
3.86459e-06
2.64192e-06
2.77383e-06
0.000548161
8.95567e-06
2.18376e-06
1.26678e-05
0.00260158
0.000828894
5.76791e-06
0.000665061
6.28783e-06
0.000579946
2.51061e-06
0.00132619
2.8533e-05
1.18831e-05
2.51574e-06
1.18878e-06
2.11072e-05
8.09742e-06
2.5148e-06
9.57008e-06
3.73448e-06
3.70905e-06
6.76864e-06
2.05895e-05
2.92025e-05
4.38436e-06
1.13463e-05
9.06852e-06
4.48248e-05
2.54582e-06
2.25166e-05
1.54418e-06
1.69722e-05
4.52801e-06
3.27124e-06
3.83051e-06
7.28772e-06
5.94156e-06
1.04141e-06
2.05318e-05
5.78588e-06
1.03189e-05
6.7935e-06
2.25906e-05
3.77327e-06
1.06892e-05
1.00091e-05
2.69169e-06
3.33049e-06
0.00054649
1.277e-05
5.13343e-06
1.2058e-06
8.41997e-06
1.03044e-05
8.90721e-06
4.57696e-06
0.00198729
0.000865494
1.19763e-05
1.37833e-05
6.07175e-06
6.49788e-06
6.87032e-06
1.08869e-05
4.12464e-06
3.83337e-06
2.13477e-06
0.000805147
2.22326e-06
4.99009e-06
8.60924e-06
0.000427704
6.13461e-06
0.126227
1.82652e-06
7.48025e-06
2.24724e-06
5.37928e-06
2.24803e-06
1.28053e-05
7.33844e-06
5.31975e-06
1.03169e-05
4.8132e-06
3.87632e-06
1.99932e-06
8.92751e-06
2.33434e-05
3.33817e-05
5.33606e-06
3.69341e-06
5.34091e-06
0.00189562
1.10106e-05
8.31506e-06
0.000398617
1.5158e-06