/*--------------------------------*- C++ -*----------------------------------*\
  =========                 |
  \\      /  F ield         | OpenFOAM: The Open Source CFD Toolbox
   \\    /   O peration     | Website:  https://openfoam.org
    \\  /    A nd           | Version:  10
     \\/     M anipulation  |
\*---------------------------------------------------------------------------*/
FoamFile
{
    format      ascii;
    class       volScalarField;
    location    "0.5";
    object      SgT;
}
// * * * * * * * * * * * * * * * * * * * * * * * * * * * * * * * * * * * * * //

dimensions      [1 -1 -3 -1 0 0 0];

internalField   nonuniform List<scalar> 
111485
(
4.84192e-11
3.40564e-11
1.2271e-11
1.80687e-12
3.50215e-11
3.80973e-11
2.21099e-11
1.38788e-11
4.82238e-13
1.47279e-11
1.72357e-11
7.83724e-11
2.27456e-13
3.43227e-11
1.24244e-11
1.17458e-10
2.21157e-11
5.8106e-11
8.68174e-12
3.65338e-10
1.9859e-10
3.07708e-12
6.08045e-12
1.06221e-10
1.94866e-11
7.0196e-12
1.75626e-11
5.23592e-12
8.80763e-12
4.62825e-11
7.58701e-12
2.3907e-11
2.95286e-11
1.72257e-11
1.90472e-12
7.97189e-09
9.0042e-12
6.64506e-11
8.39348e-10
1.61775e-11
1.84048e-10
2.73162e-12
5.215e-12
1.72711e-13
2.78041e-11
1.01809
3.85517e-12
1.31391e-10
1.18561e-11
2.56032e-11
3.10435e-11
1.0428e-10
7.67812e-11
2.14083e-11
1.59288e-10
2.98072e-11
2.96751e-12
2.11961e-10
4.19556e-12
3.95495e-11
1.41941e-11
4.36055e-10
4.68934e-11
1.85811e-11
4.54831e-11
2.02734e-11
7.36956e-11
1.25926e-11
2.5159e-11
1.46214e-10
2.55214e-11
4.6584e-11
1.91543e-11
3.02387e-11
4.42972e-10
3.71231e-12
7.10232e-11
7.87181e-12
7.19214e-11
1.02394e-11
1.80644e-11
7.17294e-12
2.73633e-10
8.4078e-10
1.96225e-11
2.18519e-11
1.32495e-09
5.64809e-12
7.73006e-12
1.30248e-11
7.18056e-12
1.43591e-11
1.00946e-11
1.10326e-11
2.15938e-11
1.54447e-11
1.45472e-12
1.30908e-11
1.54583e-10
1.24638e-11
5.65437e-11
1.9457e-12
1.80083e-11
3.76495e-11
4.02351e-12
1.81354e-12
3.66303e-12
1.41072e-11
1.52484e-11
1.91774e-11
1.77825e-11
1.5265e-11
7.87506e-12
2.52447e-11
5.03787e-11
1.32603e-11
1.90923e-11
7.92983e-09
4.82524e-11
1.4527e-11
4.32272e-11
1.96833e-10
2.74762e-11
8.9642e-10
1.76497e-12
4.6488e-11
4.27621e-11
2.56526e-12
8.76434e-10
1.30889e-10
5.79778e-12
5.61444e-12
4.5361e-10
4.70031e-10
1.84384e-10
2.27732e-11
1.63642e-11
1.46304e-12
7.60781e-12
2.19367e-12
1.21247e-11
6.38809e-12
6.97545e-12
4.90953e-11
1.56619e-11
5.36622e-11
6.09309e-11
3.32607e-11
7.5731e-10
1.16031e-11
5.82847e-11
2.30694e-11
1.48166e-11
8.58872e-11
6.41387e-11
6.34183e-11
2.36097e-11
2.932e-11
3.68852e-11
0.00738583
8.84608e-12
5.22666e-11
1.22075e-11
3.09216e-10
3.28204e-11
5.37099e-12
5.63279e-12
1.17319e-09
7.03999e-11
2.15456e-10
4.84688e-11
7.02058e-11
2.97042e-11
4.98486e-12
1.52383e-11
1.24586e-11
8.989e-12
2.3842e-12
3.53467e-11
2.34981e-11
1.86265e-11
9.55734e-12
6.59414e-12
8.73439e-12
3.57581e-11
9.34154e-10
4.07317e-11
1.1455e-11
1.35472e-11
9.8459e-12
1.19342e-11
2.17514e-12
1.2817e-10
1.06908e-11
1.71986e-11
1.04132e-12
3.70669e-12
2.11993e-11
5.81588e-10
1.75367e-11
1.07929e-11
2.83719e-10
1.36815e-11
2.87822e-12
1.14125e-10
3.58087e-11
5.40183e-12
6.49411e-11
1.37269e-11
4.57737e-13
4.23147e-11
6.91138e-11
3.52524e-11
1.88226e-11
3.31945e-12
8.10375e-11
1.68865e-11
1.77197e-11
1.46331e-11
2.85277e-11
1.76209e-12
0.904519
2.44598e-11
3.99693e-12
7.85338e-11
1.76756e-11
6.24692e-11
5.78961e-12
1.1386e-10
4.496e-11
5.55541e-12
1.04077e-11
3.80236e-12
1.19317e-11
2.47403e-11
8.86359e-11
4.19968e-12
7.36826e-11
1.84051e-11
3.26532e-11
3.31949e-11
6.00391e-12
8.25432e-12
2.22529e-10
5.97853e-12
1.16474e-11
4.90745e-10
1.32676e-10
8.70215e-13
4.07596e-11
1.30207e-11
1.68043e-11
2.34579e-12
4.69387e-11
1.53518e-09
7.45181e-13
3.07297e-11
3.93793e-12
1.08123e-11
1.07863e-11
2.7048e-12
1.30522e-13
1.93838e-10
0.0651239
9.66681e-12
1.7893e-11
9.30422e-12
1.03139e-09
1.2538e-11
4.36972e-12
7.34626e-12
2.02611e-12
1.98104e-11
5.93287e-12
2.37279e-11
3.67391e-11
4.91989e-12
6.88072e-12
1.84999e-12
1.0351e-10
7.32752e-11
6.57515e-12
5.23633e-12
1.56867e-12
9.58917e-12
2.84097e-11
7.03003e-11
5.80463e-12
2.54297e-11
3.57541e-11
9.85665e-12
4.013e-12
4.33768e-12
3.13637e-09
1.995e-11
3.9977e-12
7.77288e-12
2.36162e-12
1.69708e-11
2.03355e-11
1.67013e-11
2.73586e-12
2.04322e-10
2.50826e-11
9.53812e-12
4.5455e-10
1.39567e-11
1.036e-10
2.7146e-11
1.17311e-11
2.65352e-11
4.52344e-11
1.45663e-10
2.7217e-11
4.55359e-11
1.43659e-10
1.21907e-12
2.15787e-10
1.39003e-11
7.80541e-12
9.53326e-12
6.43912e-12
2.72383e-11
1.44692e-11
2.3799e-10
5.8434e-11
1.11376e-11
5.56608e-10
1.46288e-11
4.31619e-11
1.06154e-10
1.42601e-11
1.01381e-11
5.67099e-12
1.70613e-11
2.3339e-11
1.64127e-10
1.92064e-10
2.23324e-11
1.57878e-10
9.27487e-12
3.61615e-11
8.61434e-10
1.5655e-10
6.42723e-12
3.19856e-11
7.71673e-10
9.50986e-11
2.32321e-11
4.80384e-11
1.50622e-12
6.50164e-11
2.77902e-12
1.99125e-11
1.76309e-10
4.44501e-10
8.45788e-11
1.61264e-11
4.61114e-11
3.76252e-12
4.69423e-13
7.12342e-11
5.04538e-11
9.31794e-12
3.7915e-12
1.35226e-10
7.79229e-11
3.87874e-12
1.37021e-11
0.241674
6.51038e-10
1.63959e-12
5.03554e-10
1.5464e-10
1.1823e-12
7.20735e-11
2.33276e-11
5.95229e-11
1.12639e-11
5.3817e-11
5.57852e-11
1.06596e-11
8.90885e-12
1.04303e-11
7.96949e-13
3.43556e-11
2.0893e-11
1.68416e-12
6.35156e-10
2.37167e-11
3.76214e-13
5.8984e-11
4.69903e-10
3.14008e-13
1.98715e-11
6.46025e-12
2.1145e-11
8.55821e-12
2.79686e-11
7.11263e-12
9.80498e-12
4.60607e-12
2.96192e-11
3.16154e-11
1.19366e-11
4.61979e-11
6.98187e-12
4.97533e-10
3.19073e-12
2.92492e-10
5.40876e-11
1.53161e-11
1.16597e-11
3.9331e-12
1.65993e-10
1.51625e-12
2.00927e-12
3.20243e-11
4.62818e-12
2.45047e-10
1.36649e-12
7.54015e-11
1.62852e-12
2.04478e-12
2.77989e-12
1.44411e-10
2.20904e-11
1.13894e-12
6.98918e-11
3.99149e-11
9.03511e-13
5.13096e-11
0.0646047
3.15728e-10
5.44831e-11
8.46531e-11
5.40099e-12
1.94932e-11
1.77771e-11
5.79351e-11
1.29633e-11
8.32014e-12
5.99357e-11
4.30185e-11
1.84725e-10
1.43946e-11
1.74374e-10
2.11838e-12
1.55948e-11
5.76084e-10
6.5448e-11
1.84142e-11
2.11091e-09
0.346399
5.16891e-11
1.78208e-11
9.44276e-11
3.55248e-12
4.19776e-11
5.80073e-12
2.96114e-12
5.07724e-11
6.10489e-13
3.0054e-10
4.14136e-12
2.43675e-11
5.86671e-12
9.09589e-11
1.04054e-11
5.18046e-10
1.45807e-11
2.34311e-11
1.55732e-11
7.16878e-11
6.17829e-12
3.16597e-09
1.57156e-10
4.87457e-11
1.21202e-10
6.73564e-11
1.75639e-10
5.99333e-11
1.31877e-10
8.54249e-11
6.58624e-12
8.80768e-12
1.3584e-12
2.09885e-11
5.60149e-12
4.02816e-11
2.40437e-11
9.4592e-11
6.67655e-11
2.51905e-11
4.34346e-13
1.4575e-11
2.99823e-11
5.28571e-11
1.91272e-11
3.61677e-12
2.45733e-12
1.25976e-10
3.95213e-11
6.50335e-10
4.22917e-12
1.1338e-10
9.86288e-12
4.29503e-11
2.75354e-11
1.30421e-11
1.15442e-11
2.05372e-10
2.94994e-12
2.28707e-11
1.79718e-11
6.10883e-12
2.72478e-10
1.63903e-10
5.42448e-11
6.74403e-11
3.15832e-10
1.61122e-11
1.17589e-11
1.48435e-09
6.50493e-14
3.38673e-12
3.12193e-11
3.405e-13
1.55654e-11
3.85012e-11
1.0463e-11
3.98986e-11
1.2463e-11
1.51718e-11
6.92242e-11
2.20919e-11
1.49439e-11
7.77817e-13
2.09275e-11
6.31902e-11
1.02102e-11
2.40912e-11
7.63442e-12
1.66095e-11
1.34964e-11
2.12633e-12
9.22783e-11
5.23685e-10
9.73444e-12
2.12499e-11
3.19027e-11
4.30939e-11
2.26443e-12
3.14431e-10
1.6344e-11
2.26074e-11
2.39073e-11
1.97927e-12
2.96427e-12
2.1035e-12
1.08336e-10
3.34325e-11
1.1594e-11
3.36814e-11
4.44253e-09
3.94728e-11
8.45366e-12
7.35721e-11
2.33327e-11
2.31629e-12
2.28574e-13
2.2439e-10
6.09696e-11
2.5238e-10
1.45207e-10
1.0669e-11
2.46964e-11
3.14613e-10
2.87824e-10
4.19854e-12
1.85996e-10
5.45226e-10
1.05442e-10
5.98647e-11
4.99795e-12
1.70397e-10
1.82042e-11
6.91933e-13
2.11068e-10
2.49482e-10
3.67552e-11
1.18761e-11
1.31358e-11
1.97694e-11
1.19196e-11
1.60229e-09
2.39143e-12
7.72729e-12
1.05095e-10
2.95847e-10
1.35867e-11
2.6053e-12
2.27645e-11
2.34419e-10
1.26122e-12
3.09678e-11
5.1728e-12
6.67922e-11
2.26443e-11
5.3722e-11
4.54513e-11
3.75616e-12
1.98647e-12
1.82156e-10
1.05817e-11
1.1876e-11
3.12681e-11
1.56266e-10
5.49455e-13
2.3067e-11
3.02736e-12
7.96113e-12
1.93402e-09
1.35799e-12
1.4148e-11
5.72812e-11
2.71333e-11
5.35582e-11
2.00077e-11
1.04196e-09
8.27688e-11
1.4746e-11
1.88879e-11
3.23386e-11
2.66461e-11
3.89755e-11
3.19616e-13
5.3159e-11
2.79934e-11
4.36778e-12
6.00346e-11
2.6925e-11
2.40561e-11
1.83601e-11
1.55926e-11
1.832e-11
1.26514e-11
1.43717e-11
1.79307e-11
2.03319e-11
8.2703e-11
2.91187e-06
4.1268e-12
1.31692e-10
2.31116e-11
8.41645e-11
7.5229e-11
5.6611e-10
2.69476e-11
3.19048e-11
2.65167e-12
1.05366e-11
3.2916e-10
1.29013e-12
5.02476e-10
6.85065e-10
2.36876e-10
2.86535e-12
2.64056e-11
1.36785e-10
0.365799
2.95745e-11
1.20703e-12
1.27966e-12
6.4232e-11
1.21046e-11
4.3331e-11
3.27129e-11
5.18576e-10
2.60687e-11
1.07572e-11
7.89817e-13
8.53547e-12
2.18984e-11
2.53869e-11
2.66878e-11
2.24644e-10
8.89814e-11
2.69653e-11
2.22696e-12
2.28746e-11
1.2512e-11
2.10331e-11
8.62453e-12
3.27418e-11
5.86303e-12
1.26968e-10
2.14535e-10
1.5585e-12
2.35591e-10
1.08501e-10
4.82162e-12
1.64517e-11
3.93178e-11
3.63135e-10
1.43506e-09
2.71924e-11
6.90963e-11
1.26034e-11
7.92366e-12
3.75015e-13
1.44035e-09
1.04713e-10
1.46276e-12
6.24602e-12
1.14446e-11
4.5123e-12
9.90627e-12
1.13317e-10
1.22663e-11
7.49164e-11
1.55803e-11
5.82014e-11
3.60443e-11
7.70103e-11
4.30326e-12
2.43172e-12
9.50758e-12
3.28473e-11
1.24182e-11
6.94531e-12
1.08781e-11
2.89934e-11
9.20568e-12
6.91982e-13
7.89975e-11
1.91807e-11
2.27106e-11
4.04085e-13
1.46721e-12
1.94619e-11
9.73464e-11
6.5459e-12
2.63493e-11
2.17235e-11
3.81848e-12
1.1791e-10
5.81595e-11
2.78552e-10
2.65477e-11
5.61565e-12
2.31461e-11
3.69405e-12
1.98702e-10
1.09232e-10
5.50738e-12
1.59448e-12
5.5992e-11
1.37056e-11
1.26839e-09
1.76238e-10
1.79766e-11
7.68948e-11
3.0051e-13
8.90185e-12
7.70314e-13
2.16667e-11
2.96523e-11
0.135829
2.09406e-11
3.11964e-11
3.13983e-11
4.38634e-12
9.65632e-12
2.61421e-12
9.50615e-12
1.4979e-11
2.75745e-11
5.50452e-11
1.33178e-11
3.38058e-11
4.50514e-12
1.67258e-11
1.23868e-10
9.32356e-11
6.15148e-11
4.71124e-11
4.10707e-12
1.71256e-11
1.17715e-10
2.58905e-11
2.57216e-11
1.82107e-11
2.08786e-09
8.08608e-11
4.15115e-11
1.02461e-11
1.516e-12
1.90526e-11
1.26315e-11
1.924e-09
6.24778e-12
1.39942e-10
2.53328e-11
9.71298e-11
1.13278e-11
1.75526e-12
1.51898e-11
3.67353e-10
1.68362e-09
2.92457e-12
2.14173e-10
3.57038e-11
2.77972e-11
4.561e-11
3.78596e-11
2.24037e-11
5.14221e-12
3.91212e-12
4.92218e-12
6.8857e-11
2.60996e-11
2.56559e-11
1.66357e-11
1.9974e-09
8.94691e-13
3.0996e-11
3.24598e-11
5.98452e-10
2.37717e-10
5.50957e-12
1.44771e-12
1.55681e-11
6.14872e-11
1.71703e-12
2.24925e-12
1.51507e-10
5.62573e-12
1.21154e-11
2.29319e-12
3.42632e-11
2.01558e-10
6.08095e-11
1.19613e-12
4.64494e-11
6.89378e-11
3.60248e-12
2.22792e-11
2.57754e-11
1.72205e-12
1.54568e-10
5.6021e-10
4.83768e-10
4.51231e-10
9.87232e-12
2.71058e-10
1.64211e-10
3.49058e-09
1.22358e-10
8.62752e-12
9.87109e-12
6.00676e-11
8.15851e-10
1.7955e-10
1.62553e-11
4.69119e-12
1.7985e-11
7.33684e-11
1.51242e-08
2.54621e-10
1.66759e-10
6.58333e-11
1.81983e-11
1.22394e-11
2.59639e-10
2.88896e-10
7.46983e-10
4.1017e-12
5.53479e-11
1.20193e-10
2.62075e-11
4.63808e-12
2.16542e-13
1.41216e-11
2.45267e-11
4.61831e-11
2.4393e-12
2.65372e-11
8.9808e-11
3.35132e-11
7.34098e-11
1.40412e-10
1.20577e-11
6.14973e-12
3.84662e-11
4.79753e-11
2.92936e-12
1.77538e-11
1.17723e-11
1.9436e-10
8.17544e-11
9.64211e-11
8.83344e-11
3.87235e-11
4.50091e-11
4.39498e-12
1.94556e-10
1.11329e-11
9.27158e-11
8.51019e-12
6.36355e-11
2.27428e-10
3.01021e-12
8.24821e-12
1.49504e-10
4.29947e-12
3.51981e-11
4.48853e-11
4.48088e-12
4.97066e-10
1.83139e-12
6.6766e-11
3.28075e-12
1.78059e-12
1.35113e-11
3.46727e-12
8.67536e-11
1.19141e-10
7.2054e-12
1.74179e-10
7.96772e-11
1.37348e-11
1.52797e-11
4.98477e-11
5.29807e-12
3.68979e-12
1.23354e-10
4.68127e-12
3.31809e-11
1.31657e-12
9.77445e-11
1.30636e-11
3.79035e-11
1.87147e-11
1.76935e-12
1.71679e-11
1.36269e-09
3.9171e-11
1.20614e-10
4.35334e-12
1.94983e-11
2.67218e-10
1.43142e-10
8.53242e-12
4.83731e-11
1.5246e-11
2.20713e-10
2.78077e-12
3.23523e-12
1.54673e-11
5.05321e-12
1.4516e-10
7.77492e-12
1.76795e-12
6.73877e-12
9.81606e-12
1.59091e-11
6.05135e-11
4.22497e-12
6.64359e-12
1.48613e-11
7.01244e-10
5.93418e-11
0.000168832
4.54527e-10
2.40578e-12
9.57884e-12
4.9193e-11
6.43208e-11
1.42838e-11
5.72958e-11
4.66369e-10
1.52386e-11
1.23315e-10
4.94208e-10
2.5799e-12
1.98179e-11
4.48166e-11
1.76547e-10
1.63758e-10
1.50617e-10
2.13811e-10
8.75476e-13
5.03855e-11
7.58215e-12
3.92746e-11
1.50417e-12
2.54212e-10
2.52077e-10
1.37572e-11
2.27132e-11
9.02675e-11
5.97096e-13
3.2198e-11
3.85211e-12
1.11227e-11
1.33933e-11
2.32064e-11
8.93577e-12
4.33959e-12
2.05907e-12
7.18299e-12
3.96916e-12
9.61451e-11
3.46369e-12
1.11618e-11
6.60555e-12
1.62492e-11
1.30236e-11
2.64451e-12
1.9722e-10
1.30571e-11
8.39958e-11
8.62817e-10
7.48211e-12
5.66229e-12
1.92226e-11
6.83338e-11
1.73145e-10
5.38765e-12
3.63661e-11
2.18078e-12
3.58095e-12
4.81809e-11
1.68783e-10
2.24819e-12
2.19538e-12
7.28604e-12
1.33295e-11
7.29183e-12
2.03519e-12
2.85529e-12
1.36995e-11
2.18981e-11
2.23516e-11
1.56788e-13
2.61621e-12
5.23111e-13
2.44425e-11
2.83075e-11
6.42893e-12
2.89454e-10
3.49302e-12
1.74776e-12
3.40781e-11
6.16602e-11
1.18419e-10
9.17432e-13
2.72301e-11
3.08418e-11
1.09218e-10
7.43319e-09
3.43122e-12
9.19463e-10
8.18738e-11
9.75589e-10
4.8273e-11
1.05723e-10
3.59167e-12
3.37002e-11
1.31328e-11
1.4203e-11
1.5933e-11
1.14126e-05
1.37957e-12
2.38627e-12
8.86086e-10
6.16999e-12
1.24435e-12
1.78282e-10
7.06232e-12
1.75819e-12
1.76203e-12
9.36827e-12
1.218e-11
7.28775e-11
8.58177e-11
1.10421e-09
2.98197e-11
5.9704e-12
4.37426e-11
5.61957e-11
2.6381e-10
2.11838e-12
2.60516e-11
8.35549e-12
2.3825e-11
1.23099e-11
1.21029e-10
1.03819e-10
2.19033e-11
7.9022e-12
2.04483e-11
8.00403e-11
2.06745e-11
1.66499e-10
1.06956e-10
2.74963e-11
6.31659e-12
9.16857e-12
2.47974e-11
8.20894e-12
5.99281e-11
6.42838e-11
9.75631e-11
9.39354e-12
4.3896e-12
8.91278e-11
6.55587e-12
1.33084e-11
5.09303e-11
5.82431e-11
2.10599e-10
1.85475e-10
1.04641e-09
2.45362e-11
2.35242e-12
3.6837e-11
2.69722e-12
1.21691e-12
4.29669e-11
1.28009e-10
5.13628e-11
5.89306e-11
8.59758e-12
2.8131e-11
1.04175e-12
2.78913e-11
1.46419e-10
2.10674e-11
1.37022e-11
3.55302e-11
4.6384e-12
8.50673e-12
9.35625e-13
5.98371e-12
7.95613e-11
5.05593e-11
4.39197e-11
2.10185e-12
3.21403e-11
2.16559e-12
2.91022e-11
1.25451e-11
8.96128e-12
1.63679e-11
4.53945e-11
2.77719e-10
1.61453e-12
5.75354e-12
3.28272e-11
1.09988e-11
1.06362e-12
4.03165e-12
2.37606e-10
1.39177e-10
1.03679e-11
2.55039e-11
3.81667e-11
1.5137e-11
1.45354e-11
1.47469e-12
8.80954e-12
1.65908e-11
6.05016e-11
6.50627e-11
1.99065e-11
1.80608e-11
4.54814e-11
1.28524e-12
6.50371e-12
4.45999e-12
3.22238e-12
5.5884e-11
2.46163e-12
4.79571e-10
1.09293e-11
1.44979e-11
7.34039e-13
3.81392e-11
1.17732e-12
1.93753e-11
1.53441e-12
1.63775e-11
2.54974e-12
4.79079e-11
1.48316e-11
1.23063e-11
9.92837e-12
3.23387e-11
2.12699e-12
8.05389e-12
7.98207e-11
7.90693e-11
2.05243e-12
4.09439e-11
1.13487e-11
1.32499e-10
3.16293e-11
9.15792e-12
1.23292e-11
5.87355e-12
7.26149e-12
3.57663e-11
5.38724e-12
2.55042e-11
1.23595e-11
1.02262e-11
8.45558e-12
1.39756e-12
7.26912e-11
3.23938e-11
2.12579e-11
5.18584e-11
1.20574e-11
1.33801e-11
2.2955e-10
8.39325e-12
1.40771e-11
2.36588e-11
6.43252e-12
9.89208e-12
1.00049e-11
3.76762e-11
1.5254e-10
1.5923e-11
6.34637e-12
1.18506e-10
1.18603e-11
4.71486e-12
2.06058e-12
1.40525e-10
2.39729e-11
6.65351e-12
7.9875e-12
4.40912e-11
4.20585e-11
1.33867e-11
1.23693e-10
3.97765e-11
3.21108e-10
4.5517e-11
1.19058e-10
4.17801e-11
2.69887e-12
4.68884e-12
6.23113e-11
7.9263e-12
3.35926e-12
9.09283e-13
4.50692e-12
1.38495e-10
4.70368e-11
1.11204e-11
9.87677e-12
1.62023e-09
3.42927e-11
1.40873e-10
5.74735e-12
2.34501e-12
1.00835e-10
5.78188e-11
6.78781e-11
3.03673e-12
8.90417e-12
3.05469e-10
1.72098e-11
6.35158e-12
5.89516e-11
2.50396e-11
3.62963e-12
2.42458e-11
9.92219e-11
2.81453e-11
1.64055e-11
5.04006e-12
5.72097e-10
7.24834e-12
5.1741e-11
1.60468e-10
4.49604e-10
7.47104e-11
2.87785e-09
1.79046e-11
4.68934e-10
1.89279e-12
1.28231e-11
1.16399e-10
8.31081e-11
1.50551e-11
3.0372e-11
3.73309e-11
5.03027e-12
3.0022e-10
4.25597e-10
8.21399e-11
1.33136e-12
1.48446e-10
2.15284e-11
8.88107e-12
1.48728e-11
7.51748e-12
1.39507e-11
3.20496e-13
3.38021e-12
1.52927e-11
6.89567e-11
4.3997e-11
4.66603e-12
2.02347e-11
6.36224e-12
1.67102e-12
1.472e-11
1.21201e-11
7.11865e-12
2.42114e-09
7.6996e-12
1.39214e-12
3.64913e-11
5.53505e-11
2.05667e-11
2.42683e-11
2.38936e-10
4.28712e-12
5.07724e-11
2.87726e-11
1.37346e-11
2.39988e-11
5.33555e-12
5.053e-10
1.05534e-11
7.47551e-12
3.45466e-11
2.51598e-11
2.40115e-11
2.25261e-11
1.312e-11
5.31174e-12
2.13515e-12
1.99834e-12
2.64152e-11
2.41901e-12
8.38063e-12
1.25822e-11
9.45774e-12
3.72363e-11
3.94545e-05
1.76769e-11
4.68093e-11
6.0665e-12
6.91084e-12
3.5818e-11
3.34437e-12
6.81957e-11
4.12347e-10
4.64948e-11
1.26667e-11
6.3472e-11
2.53017e-12
6.51912e-12
3.5775e-11
1.20799e-10
2.6521e-10
2.09131e-12
2.34995e-10
4.78564e-05
2.76026e-12
4.48877e-12
8.58201e-10
8.6529e-12
1.36291e-10
1.96658e-11
1.04741e-12
4.11903e-12
2.90324e-05
8.09175e-11
4.67871e-11
1.52892e-11
3.58502e-12
3.80054e-11
2.74617e-11
1.23823e-10
4.18919e-12
5.277e-12
2.62098e-10
1.43341e-10
3.00353e-11
6.19398e-12
2.54607e-12
5.35816e-10
9.19068e-13
9.20621e-12
4.7772e-10
1.04654e-11
8.93573e-10
8.24927e-12
4.64479e-11
1.47994e-11
2.72525e-11
5.69796e-11
6.84633e-11
1.03126e-10
3.17808e-12
1.76804e-11
4.39942e-10
1.74033e-11
1.89441e-11
4.02981e-10
1.18206e-12
6.6908e-11
2.5112e-11
1.69635e-11
9.68833e-11
2.81808e-12
4.7079e-12
3.0599e-11
1.81009e-10
4.65181e-12
2.30638e-11
8.7886e-12
1.57944e-11
1.65157e-12
5.92344e-11
3.33851e-12
7.08458e-12
2.55408e-12
9.75006e-11
3.58254e-12
7.29137e-12
1.9969e-12
1.67147e-11
8.59719e-12
8.80889e-11
1.0575e-11
1.79907e-11
0.0269858
1.23547e-11
1.77833e-11
1.61805e-11
2.91107e-12
1.60209e-11
1.81374e-10
5.89469e-12
1.14081e-10
3.49215e-12
1.15374e-11
1.85937e-11
1.35097e-11
1.91841e-11
3.4033e-12
5.48658e-11
2.87182e-11
7.29575e-12
7.54263e-11
2.49203e-11
5.9274e-11
1.60302e-10
7.433e-11
5.39473e-12
1.55962e-05
8.33538e-12
2.6817e-11
1.8186e-12
8.31206e-11
9.53735e-13
4.58853e-12
2.01997e-11
6.73617e-11
4.88903e-12
1.82526e-11
7.16683e-11
6.20393e-12
5.21877e-11
1.42062e-12
3.19064e-12
3.00203e-11
6.32508e-11
8.06794e-12
4.40068e-11
9.35498e-11
1.05702e-09
1.38592e-12
5.6499e-11
6.59855e-13
1.02403e-08
2.55953e-11
7.96798e-12
2.14339e-11
1.71737e-11
1.53979e-11
7.95214e-12
9.19789e-11
1.62425e-11
1.42032e-11
4.50524e-12
9.11412e-12
7.65803e-11
2.45515e-11
3.53112e-11
2.17308e-12
3.31441e-11
8.61637e-12
8.03087e-12
1.31923e-12
1.70879e-11
5.09004e-10
2.81868e-11
2.44901e-10
2.14758e-09
4.43473e-12
6.1451e-12
2.22508e-11
2.04018e-11
1.23595e-11
2.20499e-07
7.37804e-12
3.85906e-10
8.86098e-12
1.16965e-10
4.78101e-11
1.12644e-12
1.39668e-12
6.45866e-12
1.70901e-10
5.17399e-12
6.71237e-12
3.10067e-11
1.29227e-11
5.95129e-12
1.26294e-10
3.94428e-11
5.06773e-12
1.24724e-11
3.69899e-08
5.98737e-12
1.3954e-11
3.27049e-12
2.01497e-11
4.31759e-12
5.85328e-10
1.22422e-10
6.12869e-12
1.81379e-11
4.80126e-11
2.86028e-10
1.5167e-11
1.9293e-10
8.39041e-12
2.05358e-13
5.36348e-10
4.74803e-11
2.67678e-11
1.9656e-11
4.97734e-11
2.57264e-12
1.32046e-12
8.45439e-12
1.53533e-11
1.99937e-11
1.11394e-11
5.93605e-12
4.16829e-11
4.3303e-11
4.10976e-12
0.0611217
2.36219e-11
2.10366e-11
9.70512e-11
1.79079e-11
4.2757e-10
1.17175e-11
7.01366e-12
4.49935e-11
3.31416e-12
1.31756e-10
1.51137e-10
1.14597e-11
1.5582e-12
2.68657e-11
1.10494e-12
9.37641e-12
2.2086e-12
9.82968e-12
8.96258e-12
6.12656e-12
3.05438e-11
8.22095e-11
2.31791e-11
6.752e-12
1.03996e-11
2.4717e-12
9.143e-12
4.10612e-12
1.08308e-11
4.79912e-11
1.32599e-12
9.49791e-11
3.53867e-11
2.66846e-11
2.70866e-12
7.32885e-11
1.08432e-12
2.74733e-11
6.96819e-12
8.42064e-10
1.4664e-11
1.98688e-12
3.668e-11
1.3191e-11
1.93575e-10
5.41208e-12
5.19838e-11
1.60074e-11
5.75684e-11
2.92785e-11
8.10458e-12
1.78887e-11
1.11458e-11
2.10465e-12
9.54513e-11
1.04652e-11
4.77251e-11
4.41363e-11
3.73467e-12
6.77166e-11
7.22944e-11
1.69537e-10
2.12777e-11
4.70934e-11
1.46833e-11
1.06121e-12
2.82042e-10
2.46769e-11
3.0671e-12
4.69938e-11
1.97133e-10
8.57031e-12
3.67546e-12
5.88389e-11
2.63021e-12
3.59729e-12
5.48161e-12
4.93184e-11
5.34838e-11
3.33803e-12
3.54047e-11
7.02165e-11
3.87189e-08
5.19233e-12
9.67303e-11
1.98909e-11
5.88887e-11
2.41996e-11
1.47652e-12
1.47218e-11
1.39654e-11
1.23558e-11
4.92659e-11
1.88525e-11
2.47668e-10
1.26377e-11
4.9369e-12
6.21124e-13
2.48483e-10
3.69485e-12
5.86853e-10
1.03808e-11
5.15936e-12
3.12925e-12
7.88393e-12
5.24988e-10
3.2129e-12
2.38424e-12
1.16356e-10
6.24492e-11
1.56715e-11
3.43887e-12
1.48872e-10
8.98872e-11
1.90109e-13
9.48168e-13
5.51025e-12
7.93059e-11
0.130939
4.10487e-13
1.52396e-11
1.97938e-13
3.48574e-12
6.50833e-10
2.1443e-11
4.79298e-12
2.46543e-11
8.74828e-11
4.7878e-11
4.84076e-12
3.2722e-11
7.97747e-12
1.95494e-11
1.35427e-11
1.51868e-12
2.52149e-11
1.05167e-11
3.77182e-11
1.07827e-10
5.60942e-12
5.27018e-11
2.08368e-10
1.19753e-11
4.55889e-11
9.45136e-11
4.55629e-11
5.50052e-10
1.21659e-11
1.63345e-11
1.43515e-11
5.75009e-12
1.00315e-11
5.81591e-12
1.26846e-11
2.77243e-11
3.63823e-11
9.89194e-11
4.42989e-09
5.51379e-12
8.92475e-12
6.73133e-11
5.45918e-12
3.02731e-12
2.47027e-12
4.90193e-12
3.81079e-10
4.00988e-10
2.3662e-12
6.2213e-13
6.34883e-12
4.47129e-11
3.34898e-12
5.97598e-11
1.68123e-11
1.28149e-11
1.96373e-10
8.28415e-11
7.22155e-11
8.48126e-11
4.85535e-12
1.20713e-11
7.30428e-12
8.26189e-11
1.76869e-11
7.54847e-10
4.27691e-11
2.53438e-11
1.02767e-11
3.62541e-10
8.60397e-11
1.11753e-10
2.17012e-11
2.86037e-11
8.40367e-11
1.54747e-12
2.19166e-12
6.35742e-12
1.43157e-11
3.03596e-10
8.34456e-11
1.23241e-11
1.21629e-13
1.09623e-12
1.31409e-11
5.17568e-12
1.05578e-12
8.49517e-12
2.12584e-10
8.27407e-11
4.69432e-11
6.78142e-11
1.16087e-10
5.06138e-10
8.62996e-13
1.19624e-11
2.51297e-11
3.1001e-11
2.48989e-11
2.86167e-11
1.13737e-11
1.17459e-11
4.13942e-13
1.21758e-10
1.70648e-11
3.97583e-10
5.87423e-12
2.00278e-11
4.11294e-12
3.88917e-11
1.59636e-12
4.82321e-12
1.96276e-10
5.48088e-11
0.0198727
2.62381e-12
9.74439e-12
5.23881e-11
5.64094e-11
2.23096e-12
1.76505e-11
2.85437e-10
3.7472e-11
2.0138e-10
7.85266e-13
1.64958e-12
3.7218e-11
1.00669e-12
1.55373e-12
1.86084e-12
1.4542e-11
1.118e-10
1.005e-09
3.1462e-11
4.16673e-13
7.15945e-11
6.38878e-11
1.02215e-10
8.26464e-12
4.39205e-10
0.859624
4.2193e-11
8.20392e-12
2.53406e-10
1.19534e-12
2.03504e-11
2.79257e-11
1.13314e-11
5.49411e-11
3.48071e-11
1.28775e-11
4.39025e-11
3.94351e-11
4.75935e-11
3.68669e-12
1.17844e-09
2.00311e-12
5.73534e-11
5.03216e-10
5.42092e-11
8.49798e-12
1.61087e-11
1.91196e-10
4.24375e-11
1.87511e-11
3.32164e-12
7.21046e-12
5.22608e-10
5.92095e-11
1.56342e-11
4.2334e-12
2.73264e-11
6.92846e-12
1.37439e-11
3.58054e-11
6.855e-11
2.45833e-11
8.92165e-12
1.32863e-11
3.92236e-11
3.43289e-11
2.09084e-11
7.92115e-12
9.24487e-11
1.38629e-11
5.95693e-13
5.81401e-12
3.67294e-12
3.49804e-11
2.61121e-11
2.73494e-12
9.49926e-12
2.60642e-11
7.56433e-11
1.30551e-10
1.30434e-10
1.08573e-10
7.66285e-10
1.09103e-11
2.27452e-12
3.44519e-11
1.88433e-11
2.43884e-07
8.32581e-11
2.69263e-12
4.29098e-12
9.81795e-12
9.93996e-12
1.58248e-11
2.15717e-10
3.10845e-11
3.62492e-12
2.39565e-08
2.51665e-10
1.06248e-12
1.33278e-11
3.16155e-11
4.52271e-10
1.14142e-11
1.9274e-11
9.62933e-12
2.06079e-11
6.36144e-12
3.68025e-11
2.8657e-11
1.29361e-11
6.14219e-11
2.36347e-12
2.51357e-11
2.35659e-09
8.50158e-12
4.38532e-11
4.57403e-12
4.29475e-11
4.00561e-11
2.28293e-09
2.27732e-11
6.2945e-12
1.70929e-10
1.70496e-11
3.82355e-09
3.90055e-11
1.02197e-12
2.02265e-11
4.23493e-11
1.09194e-11
8.72339e-12
1.38862e-10
1.41119e-11
1.52045e-12
7.8674e-12
2.49017e-11
3.97009e-11
3.47533e-11
9.15417e-11
1.27052e-10
3.90922e-11
2.23877e-11
2.18496e-12
2.08358e-11
5.24914e-10
4.0985e-12
5.09138e-11
9.49456e-11
7.14628e-12
1.16496e-11
3.65211e-11
1.7898e-11
3.18976e-11
4.90165e-11
1.91312e-11
8.27781e-12
5.76021e-12
1.47331e-10
2.00175e-11
4.16688e-12
1.62714e-11
1.29712e-10
1.0024e-11
2.65302e-12
7.78263e-11
6.02027e-11
7.65915e-12
0.221902
5.20999e-13
3.958e-11
1.39186e-11
2.93492e-05
1.13835e-09
3.54854e-11
3.33159e-09
6.35609e-13
5.13117e-11
8.72506e-10
7.64483e-10
2.81278e-11
5.51476e-11
9.39542e-11
6.29054e-11
6.83629e-11
9.26555e-12
1.67691e-11
5.644e-10
1.70506e-10
8.41057e-12
8.57607e-12
8.54747e-11
3.29299e-11
2.79224e-11
1.00186e-10
5.5507e-11
4.33686e-11
1.18803e-11
1.16083e-11
7.79362e-11
1.7223e-11
1.30871e-11
4.67275e-11
3.08233e-11
4.08886e-12
7.58783e-11
2.08936e-11
9.94728e-11
5.42657e-10
2.91457e-12
4.80446e-12
2.85228e-11
8.92365e-10
3.27651e-11
1.21657e-11
1.74779e-12
3.95707e-11
6.67177e-11
1.6661e-11
2.91048e-10
6.21084e-12
1.3586e-10
1.08632e-11
2.58338e-12
2.16627e-10
6.54715e-12
1.8179e-10
1.05582e-10
0.0243608
9.34773e-11
3.54185e-10
2.52903e-08
0.699656
3.16442e-10
9.62251e-12
6.67763e-12
1.39852e-11
4.85873e-11
2.28196e-12
5.08109e-11
1.03507e-11
8.98127e-11
0.12498
1.08294e-10
6.02465e-11
3.40984e-12
3.30102e-11
6.80321e-09
8.42652e-11
4.95266e-11
5.68825e-10
1.47642e-11
1.72291e-11
3.93998e-11
6.68605e-10
4.71068e-11
1.03683e-09
1.17755e-07
6.62517e-10
8.01437e-10
6.17524e-10
4.22269e-11
2.04685e-10
8.55099e-12
9.5897e-11
2.11699e-12
1.613e-11
1.01377e-10
6.84759e-12
4.21727e-12
1.22299e-11
8.92708e-12
4.36737e-12
2.52156e-11
2.68209e-12
1.8072e-11
9.63113e-13
0.901451
1.41896e-12
1.22011e-11
2.90877e-11
3.30743e-11
1.65749e-10
1.89837e-12
5.60542e-12
1.43977e-10
2.24678e-11
1.54446e-10
4.98646e-11
3.6154e-11
9.51628e-12
8.46501e-12
1.61007e-11
3.79188e-11
2.7785e-11
7.66622e-10
1.78733e-11
7.80858e-12
2.06798e-12
7.65822e-12
2.1332e-11
2.03289e-12
4.91482e-11
1.1266e-10
6.03708e-11
9.99344e-11
3.37252e-10
3.90111e-10
1.96141e-11
1.27502e-11
0.400372
1.52795e-09
1.43489e-11
1.01143e-11
1.14541e-10
1.35763e-07
1.1271e-11
9.26052e-12
2.47579e-11
5.27196e-10
0.82429
3.75745e-11
4.81681e-12
2.91598e-12
3.21564e-11
1.67351e-10
5.05443e-10
1.25989e-11
9.62405e-13
3.60704e-11
6.08495e-12
3.14349e-11
4.47187e-12
6.48104e-11
3.39837e-10
1.90648e-11
1.3838e-10
6.79644e-12
5.59165e-11
2.04513e-11
1.92071e-10
1.435e-10
1.1697e-11
7.18719e-12
0.0244919
7.86264e-11
9.15328e-06
4.84819e-11
1.8792e-11
1.74356e-11
1.43004e-10
2.07673e-12
2.74844e-11
2.38147e-11
3.78814e-11
2.23525e-12
8.65272e-12
1.94158e-12
1.21292e-11
7.03753e-11
2.4989e-11
2.84531e-12
2.0803e-11
3.43569e-12
1.67676e-10
9.40418e-11
1.12298e-11
6.71844e-13
4.87097e-12
1.56098e-10
5.53361e-12
5.37574e-12
4.57979e-10
2.46589e-11
6.71172e-11
2.2324e-11
9.38697e-11
2.79586e-12
1.8572e-12
1.38282e-10
4.77213e-11
1.96475e-10
3.03632e-11
4.83151e-11
2.24865e-12
2.95145e-10
3.66716e-11
2.28464e-11
9.4592e-11
5.11449e-12
1.03049e-10
5.53746e-11
3.05707e-11
1.04404e-11
3.08035e-12
1.546e-11
1.71119e-11
1.40259e-10
1.31713e-12
2.57552e-11
5.71579e-12
3.0538e-11
1.61213e-11
1.2351e-11
6.36262e-11
2.60411e-11
3.8936e-11
1.72236e-11
6.40384e-11
1.01103e-10
2.8039e-11
4.73777e-11
1.04082e-11
3.69872e-11
8.06896e-12
4.88749e-11
1.42668e-11
2.63325e-11
2.04361e-10
1.35293e-11
2.95684e-11
9.13297e-11
1.32302e-10
1.29626e-11
2.93248e-11
6.71892e-11
1.3655e-10
4.96141e-12
8.0309e-12
5.24718e-11
1.848e-10
3.48789e-11
2.94924e-10
1.17331e-11
2.33997e-10
1.09619e-10
2.15562e-11
5.173e-11
1.4791e-10
6.21725e-12
6.46809e-11
4.60145e-11
5.90164e-12
2.86431e-12
9.77999e-12
0.0205171
4.04655e-11
8.27165e-11
4.30796e-13
1.54304e-10
2.94905e-11
3.25693e-11
1.12403e-10
4.00506e-12
2.97013e-12
5.27487e-11
1.92016e-10
8.5939e-11
5.59285e-12
1.1239e-11
7.42197e-12
1.29121e-11
9.59362e-12
1.379e-11
1.36441e-11
2.47998e-12
4.06388e-12
1.74938e-12
6.03308e-11
7.03359e-11
1.41191e-11
4.30414e-11
9.61479e-11
2.16946e-11
5.67639e-07
0.731213
4.2408e-10
1.77095e-11
1.08536e-11
3.93376e-10
4.8944e-12
1.45951e-10
2.41377e-12
3.88201e-11
5.70793e-12
3.45464e-11
7.67416e-11
1.60419e-12
2.69761e-11
5.79853e-11
2.95759e-10
1.91698e-11
6.91091e-12
2.18617e-11
3.48378e-12
2.06361e-11
3.63897e-11
2.95631e-11
3.58398e-11
2.55382e-11
2.58214e-11
3.47527e-12
1.09026e-10
4.35847e-11
1.72556e-12
1.37958e-11
8.07825e-11
6.25377e-11
1.26129e-11
8.35759e-11
2.97886e-12
1.10381e-10
2.66085e-10
9.86632e-11
1.87098e-11
1.76683e-11
3.54668e-10
2.73386e-11
6.32251e-11
1.2861e-10
7.41297e-11
2.01084e-12
2.94974e-11
2.21092e-10
9.70346e-11
3.33454e-13
8.10143e-12
1.36737e-11
2.415e-12
3.75361e-12
1.3263e-11
1.9766e-11
7.03503e-11
0.481061
1.08629
4.18413e-10
2.05796e-12
2.60771e-11
4.76355e-11
4.94574e-11
1.7159e-11
1.83624e-11
3.8123e-11
2.80975e-12
7.8098e-11
1.27822e-11
9.52948e-13
7.69534e-12
1.01538e-10
1.73902e-11
7.45098e-10
1.5427e-12
1.70853e-12
1.75301e-11
1.23817e-12
3.6752e-11
0.580519
9.34534e-13
2.45748e-11
1.46693e-09
6.08005e-11
2.17402e-11
3.83614e-13
7.13831e-11
3.46151e-11
1.01783e-10
2.1471e-11
1.05339e-11
3.72712e-12
5.08456e-12
1.86779e-10
3.46105e-12
9.95194e-12
6.24749e-12
6.93633e-12
4.8828e-11
2.13407e-10
6.04857e-11
4.34471e-11
1.57178e-09
2.65446e-11
3.1243e-12
6.23171e-12
6.72049e-12
1.14092e-10
1.95891e-12
3.71731e-10
1.35515e-11
3.74373e-11
2.10352e-11
9.58254e-13
3.35019e-10
2.69407e-12
1.15677e-10
2.74621e-12
1.30259e-10
5.72231e-11
4.46102e-11
4.60318e-11
1.42851e-11
3.03559e-11
7.66231e-12
9.1711e-12
4.54686e-11
9.88179e-13
1.83455e-10
6.89967e-12
1.0604e-10
1.10371e-11
8.57593e-11
1.0846e-11
8.41316e-12
2.49252e-12
6.37572e-12
5.61861e-07
1.04975e-10
1.85066e-11
2.59429e-11
1.71456e-11
4.65236e-12
4.62445e-11
3.90088e-12
4.31867e-10
7.61267e-12
3.86815e-11
5.887e-12
2.18551e-11
2.73817e-11
1.10122e-11
1.6617e-12
1.64353e-11
2.0373e-12
1.18817e-11
9.24143e-13
5.64707e-11
3.02419e-11
1.25898e-12
7.37881e-11
7.74586e-06
7.26142e-10
4.78373e-10
3.84045e-10
2.26273e-12
1.50352e-11
2.70283e-11
6.57773e-11
1.21567e-11
1.83244e-09
4.49756e-12
1.07432e-11
9.701e-13
1.39814e-09
6.33957e-12
0.125782
5.90843e-12
7.33186e-11
2.18336e-11
4.19181e-11
8.95924e-12
4.80344e-13
1.34777e-11
1.46619e-11
4.56721e-12
1.18275e-11
1.07037e-12
2.31597e-11