/*--------------------------------*- C++ -*----------------------------------*\
  =========                 |
  \\      /  F ield         | OpenFOAM: The Open Source CFD Toolbox
   \\    /   O peration     | Website:  https://openfoam.org
    \\  /    A nd           | Version:  10
     \\/     M anipulation  |
\*---------------------------------------------------------------------------*/
FoamFile
{
    format      ascii;
    class       volScalarField;
    location    "7.1";
    object      p;
}
// * * * * * * * * * * * * * * * * * * * * * * * * * * * * * * * * * * * * * //

dimensions      [0 2 -2 0 0 0 0];

internalField   nonuniform List<scalar> 
111485
(
31.5822
0.443782
0.504092
31.5769
0.500119
30.6805
0.428306
0.413674
0.429379
0.558058
0.418079
0.507424
0.44493
0.354525
0.43966
0.508622
0.223205
35.1522
0.451046
31.5735
31.5742
30.7067
0.423462
0.503513
0.471089
31.4496
0.567541
0.392409
0.494244
31.5936
0.416039
0.159765
31.5912
30.7295
34.3395
30.6062
0.512733
0.245116
0.47205
0.477323
30.9292
0.545034
0.482968
0.5314
-0.185129
31.6679
0.537903
0.488635
0.557918
31.7176
31.7073
29.6686
31.7413
0.49809
31.7631
0.33078
0.445299
30.7921
0.254396
0.467718
0.474556
31.5864
0.393417
0.43751
30.8315
0.364918
20.7814
0.417291
0.307715
0.389928
0.250632
0.336033
30.96
0.327328
31.628
0.261235
30.7153
0.529787
30.6999
32.3807
0.325965
0.495513
30.7242
31.6098
0.387723
0.452889
7.77752
0.479408
0.363978
0.237917
-0.00146514
0.463098
0.403197
0.228148
0.539565
31.6096
31.5839
0.529618
-2.08526
0.960109
31.5805
0.563906
30.7073
0.498546
0.403757
31.8203
30.7637
0.185919
0.463585
-0.510724
0.146527
0.397049
0.487009
0.526428
31.4416
0.265375
31.5061
30.763
0.336663
31.5791
31.4488
26.9335
30.7278
30.7941
0.573152
35.7642
26.7825
0.192432
31.6195
2.3964
0.340707
0.527658
31.6315
26.3379
27.4673
0.429561
30.7177
0.277857
0.379915
0.454475
0.421415
0.400294
0.418186
0.507253
0.513266
0.145773
30.717
31.6044
30.799
0.417439
0.493848
31.5623
0.477524
0.0373528
-1.7175
0.432637
0.417369
0.402306
-1.15932
31.6442
31.5768
0.423223
0.451728
-1.00683
-1.47067
0.218199
0.463542
30.8954
-0.858347
-0.724703
30.7776
31.6008
0.484586
30.7436
0.128231
0.0719078
30.8761
30.8737
31.5149
31.4367
30.765
31.5724
0.447163
0.438053
0.465123
0.261005
0.550488
0.30672
0.544093
31.5814
0.230105
30.8593
31.5418
0.345583
0.530171
0.519962
0.405642
0.0837159
31.632
0.45734
0.528898
21.5767
0.550512
0.214821
31.5984
0.331364
0.492603
30.8514
0.496011
0.538761
0.481121
0.274317
30.7355
31.5881
0.301195
20.2811
0.529206
30.7401
0.319448
0.288337
0.562115
31.6138
0.296614
0.449817
24.3032
30.7422
30.7794
0.356831
-1.42725
31.1026
29.2783
0.30372
0.138589
-0.0530279
31.0921
31.2856
0.457898
31.6216
0.398174
0.275392
0.292057
0.241162
0.283854
30.7853
0.348844
0.230632
30.802
30.7226
0.460299
0.390327
31.3156
0.217712
0.225811
31.6045
25.7409
0.532994
31.6061
32.1234
28.8649
31.5644
0.274645
0.224371
-0.0157932
31.6307
0.17071
31.5776
31.5794
31.6336
0.434213
0.513869
0.400649
0.303975
0.512528
0.367212
0.354682
0.44911
0.112275
0.167485
30.5064
31.6013
0.440802
0.153857
0.180461
0.150736
31.5789
0.401151
0.428535
0.38385
0.585069
0.362578
0.389587
0.296111
0.530782
30.7791
0.479879
30.7445
35.0126
32.387
0.306814
0.493167
0.434461
31.5317
31.0277
0.313676
0.165174
31.5611
31.582
31.7822
0.240063
0.187454
0.438148
0.451391
0.433911
29.1366
30.7817
31.613
0.326799
13.4248
0.381711
0.34605
0.38608
30.7264
31.5813
31.5864
27.4434
0.335904
0.509537
30.7498
0.338071
31.3037
31.5088
0.551575
0.339512
0.515689
0.343157
32.1054
27.3053
30.753
0.330252
0.08256
0.427202
30.8219
2.72349
0.160271
0.519306
0.340541
5.84646
0.436712
30.7066
0.427476
0.354091
0.373812
0.523519
0.476158
30.7441
31.6185
30.764
31.5876
0.432831
0.317081
0.458446
0.469859
30.8104
0.514105
30.7707
31.6141
0.447972
32.5813
27.9799
31.7867
30.5919
0.433805
30.7876
0.0664977
0.529825
30.7011
0.349411
0.367588
31.5908
0.333454
0.523563
0.398092
0.522891
0.172235
0.151314
32.1431
31.6078
0.568646
30.8544
0.522014
0.506057
30.8679
30.7826
0.33134
0.457413
0.129833
0.562116
30.7152
0.421049
0.492455
30.6703
0.524685
0.439969
31.5821
31.5733
0.0949854
0.476219
30.7005
31.5156
23.6576
31.5778
0.499897
30.741
31.5803
0.492684
0.364672
0.560752
0.51936
30.6885
27.5128
0.620824
27.8946
0.539375
0.650983
0.577009
21.4601
28.1825
-1.80168
-0.291619
31.5825
0.484132
0.528609
31.6069
-1.11355
0.560196
28.0463
0.511145
0.49187
0.177392
30.6993
1.06113
0.51768
0.210544
0.282589
26.7023
-1.54436
31.6014
0.563939
-0.632515
30.7799
0.485249
0.590795
25.9925
31.6259
29.964
31.5694
0.495007
0.326831
0.526052
0.546581
0.486743
30.746
0.380281
31.6318
0.543477
30.6299
31.6207
31.6593
0.51016
31.6109
31.5853
33.4949
31.5806
30.8141
0.555738
30.7853
29.8768
30.7511
31.5394
30.6586
31.6384
30.7105
0.509952
30.7452
0.542166
0.506119
0.516355
30.7043
0.561316
30.7803
31.5826
0.528211
0.584227
0.670367
0.318021
29.5172
0.540764
0.529979
0.143679
-0.000165771
0.523956
31.6043
0.039871
26.034
0.663772
30.7449
0.583053
26.9098
0.150536
0.551044
33.1789
31.0087
-0.060662
31.5616
0.536638
0.507305
30.807
30.8276
31.8587
30.7724
-2.99159
0.530302
30.6525
30.8052
0.487767
30.707
0.511668
30.7111
0.551176
31.5856
0.610493
0.607223
0.457005
0.138601
30.5926
-0.460615
30.6544
30.7453
0.487114
30.7501
0.562945
31.885
0.598408
31.5961
0.619609
31.572
28.0844
0.427519
0.41899
0.504345
0.56749
0.44065
0.479268
30.7947
0.473426
0.500319
30.7333
0.551105
0.474641
0.547626
30.9311
32.2377
0.578406
0.439867
15.2732
30.9396
0.465784
0.526635
0.55504
0.54358
0.669621
10.7597
27.7212
-1.93619
13.1081
31.5802
0.606227
30.8503
28.203
0.266601
10.57
-1.99759
6.37817
27.7065
0.497462
0.511057
30.7389
29.9729
0.522345
31.5798
30.7054
30.7119
30.6985
0.547341
30.7649
31.4434
0.581421
0.271982
24.2576
0.349448
29.4599
0.258861
31.7346
30.7892
0.528195
30.7395
30.7048
28.0728
0.201952
19.0409
0.463996
0.201401
31.6095
-0.0502959
0.304073
0.483496
0.665334
1.85605
0.464248
30.7505
0.53157
0.497006
31.6273
0.34821
0.517855
0.5244
0.15899
0.503686
0.510216
31.6598
0.55693
0.501367
27.9891
0.505696
0.630405
19.8183
0.188607
0.524759
0.600046
0.543262
0.557521
0.143766
31.2301
0.536338
0.560635
32.9307
0.526366
0.473668
0.266202
30.7555
0.198465
31.6888
30.7209
30.7932
30.6934
0.529611
28.43
-3.2678
31.5761
30.4389
0.570853
0.532901
31.5567
0.536991
31.5788
31.6147
31.7456
0.485744
0.600611
28.1897
31.4169
30.7488
30.7552
0.471809
0.21819
27.4799
0.535456
-0.754931
30.7944
0.563436
0.552305
0.37462
30.6985
30.7391
0.43395
0.262516
27.934
30.7786
30.6261
0.272564
31.615
31.5458
30.7451
0.535223
0.497753
30.7055
33.9373
32.8941
0.618851
30.7957
30.6844
0.535734
0.442511
27.8681
24.1132
5.25077
0.560505
0.0177322
30.567
0.389258
0.614392
30.777
31.7344
30.7163
30.7435
30.7766
30.7064
0.593616
31.581
30.7195
30.9035
0.573297
0.262105
31.5664
31.7897
0.513751
0.237018
0.263901
31.5444
30.7244
0.241065
31.6068
0.507325
0.207565
0.265268
31.4712
31.5819
31.5812
30.7552
0.5761
30.7263
30.7024
0.538933
31.5805
0.339439
0.653342
30.7545
0.300334
31.4826
0.308575
0.556055
0.482357
0.539169
-4.10216
29.1497
0.295916
0.538004
0.0131048
31.3268
-7.34611
28.7583
0.127343
30.7668
0.517903
0.561515
0.502497
32.3482
31.5836
31.6263
0.235061
29.4497
-0.00675249
29.992
0.494398
0.168016
0.116352
0.254428
30.7117
30.7633
31.0447
0.241039
30.6922
29.1384
0.211466
30.7862
30.8126
31.588
30.7199
0.129116
30.6058
30.7421
-5.15564
29.3803
30.8633
28.3913
30.7396
0.489221
0.136504
31.5653
0.51088
4.82665
0.491448
-0.63265
0.218522
30.7845
0.514321
0.611909
0.490941
31.6083
-9.30461
0.110426
26.1782
0.0734087
0.329507
0.415324
0.352991
0.170582
0.25259
0.160957
0.173048
30.679
30.7353
0.0976473
0.0475258
30.7885
0.11173
0.536778
0.161087
30.6657
0.339789
30.7528
0.146133
0.125694
30.696
-0.264033
0.184184
0.194221
-0.0477579
30.4997
0.445049
0.216654
0.547184
0.195449
0.5175
30.7089
30.7933
0.582268
30.7189
0.61582
0.391195
27.1241
-1.03244
-2.3988
-0.341622
30.7201
25.8339
0.281158
31.6163
37.7265
0.503788
30.659
30.6868
-1.99964
-2.54985
30.7204
0.34048
30.7442
30.7411
31.6245
31.5825
31.8676
31.6038
0.589117
30.692
30.7793
30.8078
-4.81998
0.746766
0.453421
0.268474
30.7558
30.6774
0.519179
30.7331
30.6999
23.6063
0.49858
0.322262
30.6992
30.6678
30.7225
30.6841
30.5552
30.6764
0.426698
30.7
0.0217334
0.463548
30.7536
31.625
31.7755
0.323752
31.7413
31.5794
30.8164
-0.0189063
30.7504
0.450987
0.465473
0.0969408
30.6972
21.4649
0.551143
0.429974
30.7106
0.0460544
0.530591
31.5885
30.5661
27.7307
30.6718
0.276928
0.41721
0.474013
-0.528309
30.6999
0.271835
30.441
27.5879
27.5619
30.7801
0.424569
30.741
31.8167
0.503036
0.308914
31.8054
0.56968
29.4862
0.398465
32.073
30.7447
30.6522
31.5807
0.190897
0.4436
2.32406
30.7054
30.865
0.151918
30.7196
28.5229
31.5857
0.510226
-0.573405
0.628726
31.5142
0.475982
0.521222
33.1023
0.525033
30.709
0.502247
0.50127
0.361502
0.419266
0.0802895
30.7254
30.7445
30.7426
0.472345
31.0565
0.337553
31.628
3.66513
31.5508
0.469533
0.485496
31.823
30.7165
31.8885
30.8148
0.318403
31.9179
27.7563
0.127021
0.340471
31.8175
28.3942
30.9911
28.4754
30.6831
30.7276
0.368352
0.643721
31.5759
31.5221
-1.61005
31.6113
0.364634
0.191418
30.9917
0.539149
31.5811
0.0935999
30.7068
0.497653
30.6929
-1.4058
-0.38202
0.223279
0.516891
0.50579
19.202
30.3883
0.550467
31.7226
0.412977
31.5536
30.8719
30.5597
30.8005
30.8981
30.7869
0.457804
0.408919
31.582
26.7661
31.5783
0.471447
0.330331
31.5804
0.429747
0.221802
31.7756
0.21909
0.171592
0.402124
0.223878
30.7191
30.7308
30.861
30.7135
0.402029
30.4875
0.552328
30.7319
0.526382
0.509134
30.7669
0.492292
30.7354
30.7164
0.509507
0.402758
9.1833
30.734
31.8651
30.6582
0.407468
30.2321
31.8136
30.3105
4.27517
27.1882
-1.1942
28.3661
30.1692
31.1288
0.168229
0.0970183
0.545539
0.440564
31.5594
0.529749
30.7511
30.7815
0.135472
30.5841
-1.63499
0.522376
0.201694
0.51941
-2.92887
0.478028
30.7721
-4.7842
-10.6967
0.557288
0.573353
0.334557
22.5318
31.5686
0.491936
31.5719
30.6866
-0.0927227
0.537097
-3.38522
30.684
30.0777
0.45693
31.7738
30.6813
0.491308
31.8494
31.8056
0.68684
0.503258
0.368386
0.480639
0.246119
30.6967
30.723
-0.238424
0.387844
30.7107
31.8268
0.633958
30.7236
26.5981
27.317
27.4696
17.9595
26.6991
30.7165
0.548313
30.6381
0.423557
30.6992
14.3323
30.8948
30.7687
30.7749
30.7216
0.567552
30.7213
30.7192
27.9353
30.6739
30.7749
30.7304
0.362765
30.7888
0.330167
0.410162
30.7793
0.664115
30.7053
0.507662
0.0845333
0.139243
0.160721
31.4483
0.159741
0.550348
0.214916
31.6209
0.333666
0.316174
0.138081
29.5446
0.112956
30.9486
30.7673
30.7077
30.7049
0.129155
30.744
30.6534
0.118066
0.238511
0.0524537
30.8165
22.12
0.599378
30.7731
-0.576984
31.7636
0.105134
30.6608
30.6751
0.484828
30.6813
0.661731
31.5998
30.6988
0.320317
0.446275
0.252754
0.427184
0.292856
0.348205
30.6995
32.2299
0.466673
0.259279
0.384406
0.365739
30.72
0.326568
30.7141
31.2679
0.449762
0.481042
30.7283
0.244665
30.7197
0.255214
0.235383
30.9097
30.706
30.7556
0.47427
30.7419
30.7428
0.477587
0.255513
0.548018
0.127293
30.777
30.8035
0.569206
0.529667
30.7186
0.457121
31.0116
0.448674
30.7071
30.7029
0.379067
30.7182
0.523118
0.495098
30.706
30.7061
0.401553
26.1807
0.568667
31.5832
0.486855
31.6276
26.8686
25.9925
0.495653
28.1162
27.8173
0.400537
27.6609
17.4349
25.6599
30.9093
31.5741
0.0961551
0.541328
30.897
30.74
0.437317
0.504432
30.7239
0.474275
30.7058
31.5936
0.55214
0.535827
0.480907
30.7013
30.7519
30.7426
30.7191
30.6599
30.6719
30.7214
30.6641
30.6833
30.6993
30.7393
31.5807
30.7365
30.6982
30.6932
31.3302
30.6981
30.7081
30.7235
30.8338
31.4034
0.558624
30.7379
30.6992
30.8104
0.420853
30.7984
31.5927
12.3679
30.6247
30.2665
0.393693
33.0896
30.4698
14.4399
0.376134
30.7311
27.2122
29.1721
30.6873
0.539654
0.373231
0.37933
0.308978
0.300758
31.6744
30.6647
0.309138
0.340603
0.31505
30.7029
0.359018
0.570964
0.399575
0.12132
0.164952
0.314305
0.197942
0.378936
31.6595
0.441863
0.408666
0.495116
0.371839
30.75
30.7391
30.7594
31.5811
30.7398
0.339758
0.379251
30.7597
30.685
30.6816
31.4568
30.6968
31.5688
30.6958
31.5818
0.362549
0.292701
0.386389
0.621123
30.5775
30.7191
0.517774
-0.186766
30.7055
30.7204
0.484902
31.6647
30.7353
0.487384
0.316899
0.353745
0.583089
0.533591
31.6628
0.0748208
0.427435
27.767
31.5711
0.381418
31.6458
30.724
10.1836
5.81759
0.52692
31.2514
31.5213
0.564368
0.433755
0.130812
0.340956
14.0788
31.5782
0.621214
32.9456
31.6219
30.4412
0.479527
30.6935
0.346278
0.053822
0.375698
0.41047
31.6235
0.341173
31.6158
30.0393
31.6048
31.5262
0.168681
18.3889
30.7211
31.5748
33.4458
0.35175
27.5834
0.286072
0.329283
0.155075
0.337682
31.4806
31.5195
26.8101
0.499849
0.30318
-2.77205
31.7339
31.5825
27.4383
0.575448
0.403411
30.7143
0.121581
10.5867
0.426195
0.268291
31.5736
26.7276
0.261044
0.340294
30.7472
0.589685
0.568688
0.47615
0.214178
0.274958
0.349792
27.7778
0.203356
0.289144
0.282227
31.991
0.398674
28.1106
0.528118
0.291951
31.6254
0.132018
0.270753
0.256439
0.38832
35.0233
9.01208
0.518093
17.5617
0.279748
30.6522
0.141965
0.302165
31.577
30.7242
-0.614265
0.349075
0.42459
34.9209
0.529351
0.0150268
-3.65197
0.352435
31.5781
31.6925
0.331406
33.3832
0.338062
-0.0473757
0.344433
0.188707
31.5696
0.586271
0.33042
31.5517
27.9584
0.268146
31.6561
0.256432
0.268963
31.5895
35.115
0.442512
31.5601
30.6999
30.782
0.174668
0.944431
0.499662
31.8261
0.480801
0.224021
30.8926
0.212677
0.17177
0.156947
0.249688
30.7134
0.294532
0.254979
0.212772
0.182181
0.16923
0.175078
0.505258
31.5825
-0.158358
0.156728
31.5773
0.204599
30.7936
30.7386
31.6169
30.8171
31.5835
0.630494
30.7649
0.201959
0.460348
31.6262
0.586248
31.3995
0.139595
31.5792
0.126058
30.6946
0.46399
0.688422
0.0918844
0.299095
0.160649
0.495388
0.176308
0.310991
11.5901
0.262987
0.30472
0.306162
31.6164
0.413586
0.318644
0.267384
0.447933
0.147124
31.6209
27.3575
31.5638
0.514606
31.5677
24.9016
0.166161
33.5723
0.614969
31.5216
31.4852
30.7204
0.376367
0.65632
0.252613
0.523613
0.166841
0.304606
0.35237
0.337597
0.150424
0.34235
0.314054
31.7004
30.5809
31.594
0.419463
0.379682
30.8134
30.7196
25.4081
0.411586
0.162296
31.5685
0.312835
31.5791
-0.82362
0.524774
0.474271
31.5805
31.5834
0.317913
31.5805
0.550459
0.239338
30.032
0.399978
0.453582
0.153642
31.5475
0.306785
28.1854
0.468109
0.490054
31.5864
31.6558
0.220092
22.5022
31.7192
0.295212
0.177699
31.5854
31.4834
28.0032
0.278699
25.3591
0.396212
0.517895
0.567079
31.5795
28.2675
0.501696
31.5805
30.7612
31.6017
31.5816
28.6799
30.9551
30.3568
31.5572
31.5922
29.427
33.5891
30.6301
0.584458
30.6652
27.193
25.7405
35.5746
27.7114
31.5824
0.518765
29.677
30.8968
0.524626
32.8498
34.2742
31.2733
0.491599
33.471
0.535416
0.408616
0.603249
28.9043
31.5776
0.565844
-0.813461
31.399
31.5865
0.416404
28.5906
0.40721
28.3025
30.6686
31.0797
0.416058
0.427315
31.5855
0.514307
31.7698
29.6711
0.0370674
0.353122
0.525292
30.7624
0.4092
29.0466
0.474789
30.7089
31.5488
30.698
28.1088
0.319749
0.341709
31.6125
-2.16468
31.5879
31.6458
31.586
31.5755
0.514691
0.461544
0.319311
0.762299
31.466
0.513801
0.431192
0.299878
0.491282
30.9635
0.283338
0.612687
0.295435
-0.700788
0.411047
31.7456
0.373181
0.522947
0.414057
0.554464
0.468655
31.6693
0.509612
31.1586
31.6032
0.379664
31.6294
0.532636
31.5857
31.8086
30.4105
31.5783
31.611
0.453021
31.5714
0.473075
29.0249
30.7686
0.469864
0.594617
0.343182
0.433609
31.6765
3.60598
31.6099
0.51028
31.8136
0.451634
0.501992
0.559368
0.533863
31.927
31.9543
31.5723
0.303156
30.8089
31.5281
0.295836
30.6396
30.6914
0.626659
31.927
0.288529
-0.697429
28.8281
30.0708
29.8333
0.286386
0.413739
31.5717
0.0409239
0.490055
28.2164
0.548837
31.5946
0.284967
0.514333
0.334124
31.578
0.516424
0.29902
0.539857
0.578983
0.552309
31.5846
31.5798
0.397525
31.5402
30.7042
31.583
0.259911
0.551358
0.352778
0.289846
27.7417
0.472195
0.411881
0.423982
0.205094
0.53474
0.518878
0.554822
30.7204
30.7193
30.7171
0.627466
30.7541
0.41659
21.4106
0.518805
-1.33544
0.249304
0.164884
30.69
31.5954
0.524879
0.5115
31.6453
30.7024
31.6221
0.267634
0.513146
0.511275
0.561324
0.149789
0.401856
31.5619
31.6083
31.5842
0.215685
0.369316
0.0506214
0.453628
0.340212
0.551459
31.443
31.5799
25.6677
30.8397
0.167459
0.543939
31.5604
31.6799
31.6434
31.6256
31.4753
30.9255
0.524902
31.5738
0.483486
0.386706
30.7129
0.54001
0.122148
0.273605
31.7744
31.1027
0.526505
31.5808
0.521468
-3.80402
0.288214
30.7287
24.0294
30.711
31.5782
31.5429
30.4821
9.06401
31.6106
0.594674
0.326502
31.5966
31.5859
0.5276
31.5831
30.7421
0.361484
0.0212656
31.5137
31.5071
30.7736
0.221853
31.5805
31.5794
5.38991
0.472007
0.533305
31.5674
30.7092
28.9252
0.51096
0.519507
0.511546
0.432439
30.7032
0.294453
0.141452
0.085516
30.5584
31.5944
31.5821
31.4256
31.5815
0.37397
0.39037
0.353209
31.6866
31.5981
31.5791
31.5815
30.9376
0.530921
0.47564
0.0946373
30.6897
31.5797
31.8285
-3.04446
0.472316
0.482997
30.734
-6.89953
33.0411
31.4196
31.5793
0.393284
0.474736
31.5629
31.6788
0.473137
31.5872
0.285544
0.380942
11.4927
31.5473
30.8653
0.320439
0.450351
31.6844
10.7376
0.260434
0.587895
31.5717
31.575
31.6522
31.6201
0.162206
0.261816
31.5768
0.49856
0.530801
1.6589
31.5731
31.557
31.5567
31.5773
0.533186
33.5413
31.575
31.1488
0.199518
0.462895
0.246217
31.44
31.6047
0.560536
30.5679
31.5863
31.5706
31.5729
0.414542
30.8456
30.6476
30.7061
0.211529
0.457505
31.5466
31.6074
31.4864
0.459548
32.631
31.5703
31.4934
31.6101
31.6037
0.041207
0.551811
31.7849
0.452194
0.520533
0.38961
31.6389
31.6203
31.5899
31.4592
30.693
0.475275
31.5767
29.6393
29.5628
0.539282
30.673
0.497696
31.5809
30.7595
0.628987
1.99789
28.3908
0.577551
31.5772
0.562037
32.6598
31.6278
31.755
36.3456
31.5846
0.539219
31.5408
0.424736
30.7648
28.004
31.6239
31.5394
0.173316
0.685902
30.7145
11.1633
30.768
0.320655
0.519167
0.590925
30.787
-0.548681
0.454898
0.489159
0.555695
-1.56584
0.440448
30.5781
30.6984
-2.04132
0.278149
0.535937
31.6888
30.27
25.8083
13.5795
31.6235
30.7001
31.6103
31.6218
31.6318
33.2271
0.682664
0.440936
0.375626
27.9995
0.398744
31.6087
0.48354
31.583
31.6495
30.7377
30.9074
0.318812
30.8181
30.7564
31.5733
0.443402
31.5654
31.5923
0.523573
31.5002
23.2979
20.09
18.7804
31.6283
19.643
19.0124
19.4403
22.1729
30.6981
30.7015
0.417807
0.518338
28.0931
28.6939
30.7036
0.40027
32.7816
31.0518
0.327347
31.5721
31.5812
0.466474
0.431125
31.4826
30.6909
0.651054
28.2431
30.6414
-0.712883
0.436452
0.589055
31.3019
0.493681
31.6167
0.30424
-0.726242
0.466029
31.5758
-0.708649
0.490045
31.9096
-3.22009
31.5198
0.455699
30.1967
0.507885
31.2729
0.48688
31.5574
30.5102
30.7581
-4.969
-4.94263
31.6598
0.461518
0.718789
31.8038
31.5727
0.290042
0.0378097
0.345062
31.645
0.502805
0.480735
0.539369
-2.4809
31.6318
0.1626
30.736
0.212813
31.5835
-5.93287
-6.99304
31.4773
0.34984
30.9185
0.532869
30.713
31.4816
31.6064
31.6577
31.4751
31.5328
0.550409
0.418103
0.193982
31.5885
25.5654
0.234913
31.5869
31.4517
31.6794
31.5922
31.6767
0.102952
31.5751
31.6131
30.6974
0.0830232
31.5015
30.7253
30.2393
0.201542
30.7337
0.0670951
-2.21462
0.351987
0.184116
-0.0136547
32.8987
31.5752
31.5702
0.313138
0.258193
30.3884
25.4175
0.107981
31.5929
31.6192
0.2709
31.5155
0.477492
31.5636
0.0148711
0.489616
31.5897
30.6971
31.5616
31.6121
31.583
0.616978
31.5524
0.115096
31.8254
31.5713
0.216726
30.7336
0.471906
31.1551
31.5908
0.529368
0.373878
0.343194
31.6104
31.6112
31.5794
0.397383
0.417649
31.8517
30.7201
30.6432
0.248418
31.5293
0.507819
0.277948
31.5666
31.5437
0.243094
31.5604
30.6524
30.7344
31.874
30.7456
0.20983
25.0654
30.7723
31.6013
25.713
31.5438
26.5779
31.4458
31.5337
31.1046
0.343983
31.343
0.204825
31.4912
31.5345
0.591809
0.261932
31.5135
31.4871
31.5658
0.203959
27.1041
31.5775
30.9878
31.5507
0.257351
31.522
0.113878
31.624
0.497449
27.9332
0.538893
31.6115
31.5836
0.523508
26.4619
31.5807
0.248239
0.496564
31.6905
31.6124
0.50726
0.453815
0.248496
0.197984
0.193762
0.543497
0.272147
0.524341
31.8404
0.072093
25.3531
24.9102
31.5743
31.5397
31.5823
0.258545
31.6226
31.5995
31.6208
0.273031
0.50631
24.1521
0.461089
31.6173
0.557379
30.6622
0.533484
0.302448
25.6384
0.558315
31.5216
31.4423
30.7194
0.297592
0.501597
31.5789
30.7402
0.27563
31.6066
0.319762
31.7523
0.454378
31.5831
30.7187
31.5325
30.7143
0.252374
30.7141
1.97507
30.7648
0.531585
31.5675
31.5479
17.773
16.5088
31.635
31.5526
31.5823
31.6089
0.534403
0.2636
21.2818
31.6158
0.542897
30.6996
30.7863
-0.830923
0.428208
0.486111
30.7221
0.197495
0.493697
0.364495
0.468961
31.5875
31.6299
31.6466
31.6171
30.7231
30.7131
30.7189
31.4276
30.7237
30.7205
31.5806
30.716
0.367127
30.7132
31.5588
34.5501
31.6111
31.5738
11.446
30.704
31.562
0.412306
0.445939
31.4612
31.5352
31.581
0.451203
30.909
31.5375
0.374135
30.7402
31.5582
31.577
31.6075
0.553235
30.7284
0.155159
31.616
31.5354
31.5614
31.5699
31.5515
0.396405
0.253304
0.290377
31.6127
30.759
31.753
0.328743
31.5518
0.260544
0.492513
30.7248
31.5446
24.1143
-0.775603
31.4803
28.317
-0.7242
24.4308
0.56825
30.8777
0.521246
24.2957
22.7237
31.58
0.52968
30.7433
0.484534
0.500182
31.5837
0.533623
-0.2868
31.5753
0.456118
30.7014
31.4892
31.5303
31.4713
31.5178
30.7123
31.552
31.6106
0.194155
28.6684
31.5749
31.581
31.5474
31.5599
0.437115
16.6575
0.309821
-0.320262
31.5534
0.566227
0.51496
31.5775
28.2353
31.3352
31.5042
31.6541
31.8894
26.0349
28.8944
0.460443
31.5786
31.6355
24.6254
26.7155
30.7214
0.49325
31.5721
30.741
31.6092
0.400037
31.6279
30.7048
0.515658
30.7335
30.6249
31.2389
31.806
0.524453
31.5735
31.566
31.5583
31.5471
0.524555
0.471251
0.510201
0.508012
0.547388
0.510173
30.7423
26.473
0.199262
0.527607
26.4317
0.229637
31.5857
-3.37946
30.7569
0.391432
31.5819
30.7016
0.540499
-4.64312
31.5678
0.5224
31.5866
31.5991
0.371125
0.517519
31.6042
30.7125
31.7236
30.7185
31.5492
27.5687
31.6103
31.5844
0.510519
31.6093
31.5657
31.5646
0.568784
31.6021
27.7328
30.727
30.701
29.4297
27.944
0.563704
30.6966
27.9809
0.406217
31.58
0.476706
0.552908
31.5656
0.412117
31.5782
30.0368
31.8387
27.4268
30.7665
31.5338
31.5928
31.6283
0.470337
31.6181
31.5974
31.6043
31.1289
31.5712
31.3227
0.329705
31.5803
31.6196
0.460196
31.5795
30.7232
30.7795
0.523564
31.5746
0.0868995
27.0972
-0.637387
0.109871
30.7099
26.4522
0.414878
25.404
30.7228
0.0509271
-0.648989
-0.00609705
0.467927
-0.16517
-3.73575
30.8599
30.6962
0.512568
0.390148
0.423146
0.52541
-0.683192
30.7485
0.159262
0.459582
0.484595
30.7904
0.505558
0.156513
0.352935
0.48799
0.30161
0.393691
0.269147
0.433046
0.016482
0.300254
0.498316
27.7874
0.366375
0.0359292
0.508985
0.512971
0.118641
0.500801
0.0781036
28.4193
0.346283
28.218
0.395427
0.530183
0.427994
0.376183
28.1695
30.7121
0.48201
0.420301
0.264004
0.494405
0.215811
0.482152
19.6969
0.53294
31.581
0.860408
0.355497
0.504719
0.381078
0.247037
0.118475
0.550685
0.375677
0.266271
0.367013
0.490943
0.517924
24.849
21.8603
0.480431
31.5745
31.5814
0.470896
0.557178
0.135211
31.5672
0.425864
0.508871
0.398152
22.6503
31.5749
-0.0274318
0.0421344
0.323613
31.6311
0.254846
31.5881
0.408852
0.540905
0.492461
0.504977
31.557
31.5903
0.587271
0.527365
0.579306
31.559
0.430958
0.580935
0.507999
30.7564
0.4046
0.100686
28.1549
0.352354
-4.98445
0.33639
30.5467
0.477769
0.4392
31.582
0.590936
0.120284
6.34489
0.514289
0.617511
0.193508
0.599634
0.468532
-0.0449211
-0.113081
0.2859
0.670515
0.181778
0.449017
0.152549
0.439506
0.555791
0.400266
0.510568
0.19257
0.268799
31.5856
0.581182
0.539207
0.345631
0.281366
0.533197
30.7808
0.569321
0.368819
31.5678
0.409674
-0.00886675
0.560037
0.584041
0.156456
-0.158566
0.547991
0.505426
0.495875
31.5852
31.5811
0.532329
30.7828
0.54522
0.674065
30.8872
0.157246
0.532794
0.223208
31.6041
0.377797
0.390327
0.460008
0.244569
0.377999
0.299921
0.418471
0.59268
31.581
31.4844
0.399941
0.505171
0.473988
0.486601
31.4821
0.521098
0.617523
30.8871
0.375093
0.511449
-0.274999
-0.0146533
0.547336
0.40525
0.263964
0.495218
30.8058
0.616506
0.321852
0.560332
0.0544638
31.487
0.58582
32.0908
31.5768
0.373146
0.49461
0.392112
1.36573
0.272952
6.57993
30.7356
0.418293
0.656766
0.657862
0.393242
31.5818
30.7865
30.7458
0.37828
0.399355
-0.0441451
0.368188
30.5968
31.501
0.341312
0.422773
0.514652
0.414616
0.389635
0.555559
0.49301
17.896
30.7009
0.544797
0.101069
31.4967
0.486256
0.53393
0.559891
0.55616
0.481492
0.561225
31.4992
0.459649
0.451482
30.7758
30.6588
0.154635
0.333759
0.214316
0.143425
0.511878
0.568832
0.231873
0.393285
0.499819
0.110752
31.4836
31.4543
0.0464613
0.172333
0.506712
0.432684
0.493179
0.410839
0.551077
0.422678
0.48031
30.7183
30.8065
0.396795
31.4784
27.5721
0.487258
0.352561
0.408879
0.42376
28.8868
0.543388
0.511815
29.4072
0.427241
0.0171394
0.48412
0.500012
0.103473
0.563252
0.221825
0.155673
31.5787
29.1866
0.435442
0.228096
0.371559
0.221397
0.284819
0.502132
0.34359
29.2859
0.543584
0.306587
0.430764
0.339869
0.526409
0.378552
0.0289023
0.460827
0.1873
28.86
0.597687
0.516562
11.7916
27.4347
25.2943
0.523806
26.8243
0.0822744
0.472837
0.405546
0.56749
0.311673
20.557
12.7607
32.3836
27.0949
0.530481
30.7145
30.715
-4.11686
31.5694
0.383039
0.424356
0.305076
0.355745
0.36472
0.507778
25.3822
0.209875
0.138289
0.495391
0.470926
0.367412
0.479972
30.7224
0.0164642
0.36985
0.184513
30.7171
0.551858
0.437706
30.716
31.5211
0.392067
0.330572
31.7342
0.554776
0.519849
0.375313
31.6033
30.7148
0.132539
0.0143839
0.555634
30.7193
30.7019
30.7168
0.558327
10.8075
9.89306
0.178027
-0.624664
31.6508
0.276938
-0.536348
0.467407
0.132684
0.0592866
0.270073
-1.06679
0.166708
30.9724
0.196574
0.262408
0.0633871
0.404393
0.129278
0.208786
0.122717
0.154705
0.138569
0.481518
-0.64064
0.482975
0.376695
0.274815
-0.919071
0.0993648
-0.576802
0.144535
0.19231
0.331101
0.304365
0.491098
0.277302
-0.592498
0.237999
30.0921
0.471955
15.7694
0.379574
0.458545
30.7781
0.538944
30.0927
0.48267
30.2018
31.6578
0.524564
0.494334
27.6479
0.228951
0.44913
0.531895
31.5054
31.6084
0.768731
0.235653
0.206015
0.390056
0.228832
0.508462
0.503785
0.544298
0.54114
26.2065
0.477431
30.7231
31.4246
0.360407
0.28701
0.425813
0.34904
0.259913
0.573361
0.539567
31.187
0.341002
0.238703
0.559859
31.2279
31.6426
0.472267
0.504675
24.8382
0.529623
0.138487
0.530666
-0.481399
0.264978
0.415957
31.5255
18.7062
0.367886
0.459534
31.0405
0.38871
0.505701
0.50044
0.395241
0.317608
0.276828
0.468349
0.569506
19.794
0.557221
31.5723
0.500366
0.53877
0.255258
0.0829726
26.5851
0.064024
0.426038
0.538532
0.307198
29.8412
30.7197
0.382178
0.478779
0.56194
0.516273
0.531238
0.264805
0.0284571
0.411096
0.201741
0.11563
0.502942
28.3748
0.270626
0.48338
0.0226595
0.51637
29.1412
30.6955
-8.38617
0.34546
32.7618
0.250622
0.528189
29.5645
20.4414
22.1138
0.444133
0.33951
1.52073
23.6286
0.385336
0.402536
30.5264
0.970193
27.6935
0.497882
0.263564
30.8738
-0.0622947
0.582808
0.565378
0.288591
30.7038
-0.208662
0.499333
0.431495
0.604421
0.636713
0.565723
0.587969
0.173271
0.547192
0.191807
0.339277
31.5534
26.0927
26.4076
30.9603
0.47623
0.385651
0.399131
0.435344
0.230648
0.379997
0.508178
0.535468
0.522521
0.283888
0.563546
0.354586
0.560239
0.257769
31.5736
0.512978
0.432111
0.539371
0.600611
30.5028
0.356575
0.377207
0.654811
0.507464
0.447271
30.7474
0.484867
0.436088
27.6355
0.483633
0.524964
30.9438
0.387137
30.9049
30.7711
0.35976
0.371018
0.53979
0.44858
30.7019
0.201683
0.481523
30.7863
0.457605
0.450897
0.409173
0.523378
31.0633
0.496198
0.504366
0.572711
30.9671
0.388969
0.194128
0.53785
0.334734
0.353096
31.7189
30.0381
28.4877
0.134313
29.0059
0.380367
0.286299
0.163195
31.5147
0.166191
30.8138
31.573
31.4074
0.430003
-0.0449741
0.0169841
0.562998
0.423672
30.1619
27.6898
0.538501
0.494153
0.390804
0.143319
0.389005
-0.701516
31.5781
23.2172
23.69
30.7039
23.9781
0.0842176
31.5815
0.415543
0.497801
0.422089
0.102399
0.412867
25.5758
0.246114
0.538738
0.560109
0.53764
25.741
31.5754
0.516283
0.298394
-0.302917
-1.26911
0.353254
0.17302
-0.210177
0.0505566
0.327296
0.0640051
0.289709
-2.30437
0.281953
0.545124
0.51486
0.263169
0.263427
0.319572
-1.54679
-1.13391
-2.90852
-4.10637
0.243478
0.498878
30.7972
-3.30868
-7.03605
0.187851
0.134006
0.0491981
0.547811
0.536389
-7.78088
0.138886
0.369644
31.6971
0.391935
0.371496
0.437356
31.5825
0.305898
0.219912
0.154034
0.407733
31.6418
31.7154
0.531117
0.182448
0.216035
0.148375
31.415
31.5843
30.7449
0.485193
0.509779
0.155312
31.5938
0.32644
31.7314
31.8255
0.176047
0.136148
30.6773
0.172518
0.200484
-0.0524269
30.749
31.6031
0.268898
0.54682
31.7659
0.164019
0.297394
-0.1117
31.9872
32.0134
31.8852
-0.119777
0.1666
0.564929
0.306873
30.7235
0.168358
0.478583
0.541249
0.550815
30.787
31.5622
0.368808
0.498028
0.485953
0.427122
30.7765
0.0661255
30.7274
0.20105
0.35993
0.477262
30.9783
28.6913
0.439215
0.570197
28.1376
28.3084
30.7277
0.473167
30.3128
26.9264
0.494365
0.49513
30.7296
27.6934
0.469188
0.33666
0.210433
0.399704
0.370288
28.1635
0.551408
25.8709
25.2274
31.6741
0.396424
0.591263
0.156891
25.3745
33.8554
0.565849
0.364158
0.602562
0.565577
0.475715
0.467652
0.460778
0.398922
24.9059
0.464844
0.316283
0.377047
0.439389
0.5082
18.1152
0.386292
0.385855
0.398304
0.388915
0.21035
24.1219
28.7424
0.440612
28.9701
29.3525
0.503422
29.0338
0.383196
28.3542
28.7019
30.8634
27.5848
0.428049
0.214181
0.380357
28.2975
0.28436
0.406193
0.403714
28.7613
31.5857
0.437733
0.449977
0.201113
0.439238
27.4167
0.0449221
0.237612
0.155316
30.6931
31.0713
0.35476
0.252726
31.1809
28.8634
0.498826
0.021806
28.2247
0.495336
0.447289
0.487378
0.477482
28.5366
0.477124
4.77726
0.209948
0.391612
0.576253
0.448364
0.536115
0.344358
0.544993
27.9113
0.524573
0.532803
0.149562
0.459549
0.507299
28.6911
0.33837
0.531559
0.348975
0.401809
0.511022
0.192101
0.538928
0.413308
0.535557
0.539999
0.291724
0.530473
0.58451
0.493192
0.586966
31.7153
-0.795543
31.6112
0.490168
0.512646
0.516214
0.464563
0.637788
0.468464
0.488884
0.339406
0.426503
0.235682
30.6717
23.492
0.490853
0.546446
0.537267
0.571563
0.333953
0.361199
0.364179
0.714809
24.5259
0.244845
0.791235
-6.82059
25.7881
0.112118
23.904
0.39144
0.399053
-0.475938
0.446369
30.7889
0.49747
0.164401
-1.12876
30.7177
0.272196