/*--------------------------------*- C++ -*----------------------------------*\
  =========                 |
  \\      /  F ield         | OpenFOAM: The Open Source CFD Toolbox
   \\    /   O peration     | Website:  https://openfoam.org
    \\  /    A nd           | Version:  10
     \\/     M anipulation  |
\*---------------------------------------------------------------------------*/
FoamFile
{
    format      ascii;
    class       volScalarField;
    location    "7.1";
    object      SgT;
}
// * * * * * * * * * * * * * * * * * * * * * * * * * * * * * * * * * * * * * //

dimensions      [1 -1 -3 -1 0 0 0];

internalField   nonuniform List<scalar> 
111485
(
4.15244e-18
9.6362e-06
2.83432e-05
1.06729e-18
5.86458e-05
4.35915e-18
5.48308e-05
7.20602e-06
2.27699e-05
1.42679e-06
5.52845e-05
1.12034e-05
5.66917e-06
1.03876e-06
7.77791e-06
3.66072e-05
1.67048e-06
0.00310094
1.24349e-05
6.14966e-18
2.71015e-18
1.1559e-19
3.1296e-05
4.1588e-05
1.05595e-05
7.86956e-19
4.78793e-05
2.16869e-06
1.83639e-05
3.10108e-18
5.48177e-05
2.25248e-05
5.92295e-18
1.33281e-18
8.32349e-06
5.48523e-17
1.31679e-05
4.98171e-06
5.00441e-11
2.79922e-05
1.24229e-18
8.52396e-05
1.89143e-05
1.69639e-06
7.0958e-08
1.14416e-17
3.64909e-05
8.54376e-07
5.683e-05
1.55702e-18
1.28767e-17
4.09627e-17
9.05918e-19
6.06105e-05
9.35079e-18
5.22188e-05
3.81078e-06
2.38766e-18
2.62848e-08
5.71345e-06
1.92011e-05
2.50735e-17
5.58877e-06
0.000116055
3.74255e-18
3.86285e-06
0.000377961
0.000113274
1.29444e-06
7.07735e-06
1.57458e-08
7.60093e-06
6.27006e-18
3.389e-06
1.62837e-17
8.29686e-07
7.64926e-18
5.01399e-05
1.14247e-17
9.84242e-18
4.26349e-09
4.00082e-05
2.12433e-17
6.17049e-19
1.09054e-05
4.75268e-06
5.10958e-13
3.0178e-05
6.97446e-08
8.72405e-06
3.58339e-07
4.92234e-05
1.39125e-05
7.19248e-08
6.32754e-05
9.56946e-18
2.63806e-18
2.09085e-06
2.94309e-11
1.40449e-06
2.75077e-18
2.18637e-05
4.16706e-18
2.21711e-05
5.59006e-06
5.84696e-18
1.14685e-18
9.03242e-06
4.74405e-06
8.01135e-11
6.74296e-06
5.77322e-06
4.3861e-06
3.73154e-06
2.14312e-19
3.97637e-08
2.01784e-18
1.81031e-17
1.52013e-05
2.02123e-18
8.19903e-19
1.41725e-17
3.64607e-18
1.50255e-18
2.00585e-06
3.5452e-09
8.57646e-18
1.9643e-06
1.88395e-19
4.56732e-08
1.65867e-06
3.86404e-05
1.22197e-17
7.34532e-17
1.24913e-17
5.83425e-05
2.10783e-18
5.05514e-05
3.00295e-05
3.3071e-06
2.78939e-07
2.39665e-06
2.67458e-05
3.27938e-06
4.75679e-06
1.54554e-05
4.08119e-18
6.72007e-18
6.83795e-18
3.33761e-05
1.90392e-06
2.06782e-18
2.575e-10
5.78872e-06
5.39016e-10
1.29459e-05
1.95317e-05
1.2738e-05
8.43749e-11
9.55092e-18
5.80777e-20
6.28451e-05
2.80575e-05
2.33989e-09
3.99682e-10
6.89918e-06
4.16206e-06
3.55711e-18
5.7288e-09
5.63731e-08
6.75161e-20
3.6082e-18
1.60878e-07
3.13074e-18
6.80648e-06
2.53688e-06
1.4951e-19
6.34045e-18
9.14066e-19
8.19847e-18
7.28534e-18
2.33492e-19
1.75077e-06
8.14558e-06
3.53697e-05
4.99373e-06
8.92029e-06
4.76087e-06
9.475e-08
8.39733e-18
5.6811e-06
1.77511e-18
2.61298e-18
7.73814e-06
1.25938e-05
3.33013e-05
1.33292e-05
5.93245e-06
3.35066e-18
7.88346e-06
6.00994e-07
5.25106e-08
1.64483e-05
2.79001e-06
1.04672e-18
4.41731e-06
3.11609e-05
1.04416e-18
2.01281e-07
9.2046e-06
2.44107e-06
4.20253e-07
2.25486e-18
2.28542e-18
9.7736e-06
1.13948e-14
0.000145077
3.13808e-18
7.89306e-06
2.42766e-05
0.000144461
1.83842e-18
3.73924e-06
1.6496e-05
2.22035e-16
1.36999e-18
5.21621e-18
0.000183014
3.33431e-10
1.14479e-18
4.48309e-18
1.15597e-05
9.31747e-06
1.81702e-05
1.38807e-18
1.47299e-17
1.59241e-08
1.93804e-18
2.98751e-06
1.09465e-05
1.90418e-05
1.39205e-05
1.18109e-05
1.14309e-18
3.12099e-10
7.36489e-07
8.52835e-18
9.60075e-18
3.65323e-05
2.48579e-05
1.03378e-17
7.52716e-06
1.26935e-05
1.67461e-18
2.01475e-17
1.6516e-07
1.06149e-18
2.81541e-17
5.29062e-08
1.90277e-18
1.799e-05
1.30891e-05
4.45566e-06
2.4286e-17
1.39683e-05
2.04648e-18
4.75465e-18
7.7207e-18
2.50866e-11
2.7491e-05
7.38694e-06
6.32157e-06
4.39244e-05
1.46009e-05
1.92269e-06
6.71131e-07
3.93047e-05
1.07349e-05
8.5084e-19
9.30104e-18
3.12514e-10
2.68399e-05
2.90611e-05
1.44703e-05
1.3394e-18
8.331e-06
2.50052e-06
3.59502e-06
4.12331e-09
4.31302e-09
1.61088e-05
2.67659e-06
2.34699e-06
7.29567e-18
7.98377e-07
1.43645e-17
1.68028e-10
4.06217e-16
0.000292092
8.14039e-05
1.45263e-05
8.33454e-18
1.77479e-17
1.06867e-05
1.9834e-06
2.48398e-18
9.36566e-19
5.74483e-18
3.73962e-07
7.04e-05
4.6501e-06
1.65914e-05
2.28163e-05
4.95713e-18
4.42541e-18
3.3188e-18
4.55165e-06
1.2399e-15
1.21282e-06
0.000222159
3.9106e-10
3.02959e-18
1.34205e-18
2.91198e-18
5.6058e-17
7.1334e-05
1.43863e-05
1.9405e-18
6.20911e-06
2.31651e-17
9.53566e-19
8.24403e-05
6.94e-06
1.33578e-05
1.10888e-05
4.62048e-17
4.23749e-17
8.85171e-18
1.11712e-05
2.23063e-05
6.09081e-06
1.1523e-18
4.13862e-13
1.94998e-07
2.54398e-06
9.51179e-06
4.35927e-08
3.3992e-05
8.62233e-19
4.47589e-05
4.19051e-06
9.30591e-06
2.96569e-05
1.63748e-05
2.24613e-17
1.88545e-17
1.00969e-17
2.17881e-18
3.76612e-05
1.14424e-05
4.01879e-05
8.05674e-05
6.31033e-18
2.25999e-05
8.03531e-19
3.23381e-17
1.98096e-05
5.88772e-18
8.76606e-05
4.54587e-18
4.11201e-19
2.77857e-05
1.76063e-20
1.639e-05
3.40054e-07
2.82559e-18
1.22302e-06
1.94973e-05
2.7534e-18
1.05838e-05
1.12441e-05
9.67162e-06
7.65129e-07
3.27532e-06
6.78952e-06
1.78373e-17
1.10057e-17
2.17241e-06
1.54983e-17
7.27149e-06
0.000140949
3.99743e-19
1.65891e-17
3.223e-05
1.37991e-07
9.80064e-06
2.58715e-05
5.71651e-18
5.34637e-05
2.29852e-05
3.37236e-19
9.78158e-07
2.968e-06
1.92681e-18
1.13736e-17
1.33295e-05
6.27073e-06
7.53078e-19
7.80066e-18
3.84239e-11
7.04581e-18
1.42773e-05
8.4226e-18
3.88305e-19
2.05074e-05
2.09235e-09
1.47041e-05
3.55096e-05
8.66792e-20
3.2351e-17
1.72692e-06
2.02434e-17
1.74777e-07
1.65803e-05
0.000147001
0.001022
1.2994e-18
3.28592e-06
5.78618e-07
1.74757e-17
4.64246e-05
3.81543e-05
2.312e-17
8.90542e-12
1.11488e-07
2.41405e-17
2.93047e-05
2.92752e-05
1.70624e-05
3.66472e-18
7.98404e-07
2.20146e-05
2.75429e-05
9.86605e-10
1.74231e-17
7.45163e-13
1.88199e-18
1.60688e-08
3.74591e-05
6.95201e-18
1.0264e-05
1.10936e-07
6.66483e-17
4.30982e-18
6.46918e-18
2.46759e-17
4.79e-06
1.15141e-05
7.92016e-06
2.54321e-06
3.32984e-06
2.91418e-17
2.38524e-06
2.70771e-17
4.82956e-05
9.03605e-19
4.23489e-18
2.07578e-18
4.31874e-05
1.07887e-17
1.89338e-18
2.22159e-10
9.15287e-19
2.02433e-17
1.24325e-06
1.58726e-18
8.43223e-17
5.06092e-18
4.08674e-18
1.23461e-17
7.08142e-18
1.17788e-18
8.58236e-06
3.80877e-17
6.20964e-07
2.25392e-06
1.16422e-06
3.10683e-18
9.93862e-07
8.38843e-18
1.78322e-18
3.39013e-06
2.19222e-06
3.30812e-05
2.97252e-05
2.10424e-17
2.44248e-06
9.73865e-05
1.02312e-05
1.23241e-06
3.97368e-06
8.7093e-18
2.78976e-05
9.99401e-18
5.90876e-06
1.4828e-18
9.07166e-05
2.71007e-19
2.57496e-05
2.90908e-07
5.91321e-10
2.37691e-17
2.44185e-06
7.77966e-19
9.56398e-05
5.82798e-05
6.10471e-18
1.86593e-18
1.18522e-17
1.70186e-18
1.68695e-12
6.528e-05
8.62938e-20
2.45393e-17
2.99205e-06
2.62042e-18
4.01671e-05
8.20038e-19
3.80221e-07
1.09483e-18
5.95646e-07
1.26601e-09
1.21931e-06
1.5614e-05
1.03218e-19
4.8654e-07
2.11848e-18
2.507e-18
1.82572e-05
6.15445e-19
3.72486e-08
9.93783e-18
1.91044e-06
1.49551e-17
7.78174e-05
3.00814e-18
9.75999e-18
2.08708e-05
4.06563e-06
2.08736e-06
4.76327e-06
8.14253e-06
2.48911e-05
3.61752e-19
2.95378e-05
7.49957e-06
2.08631e-18
9.58157e-11
4.74513e-05
1.78439e-05
3.50871e-18
4.82027e-06
7.85286e-06
2.01645e-06
1.2923e-06
1.88503e-13
1.62935e-05
1.428e-06
1.63436e-07
2.89251e-05
1.6432e-05
7.79408e-07
2.62197e-17
3.89413e-12
0.000777329
1.59521e-18
4.28168e-07
5.82464e-19
3.2449e-17
8.82237e-06
3.48329e-06
2.54908e-10
1.76016e-08
6.15404e-18
1.99649e-05
1.32427e-05
3.08282e-18
1.48421e-13
2.35685e-06
2.0115e-18
3.81214e-18
1.4182e-19
7.02192e-18
1.60135e-05
4.39877e-18
3.35865e-18
1.06482e-05
2.37472e-06
1.21242e-17
1.25945e-05
2.632e-18
1.01664e-05
2.3081e-18
1.74736e-17
6.4045e-05
2.25708e-17
1.52919e-18
5.31522e-18
5.31879e-06
1.0739e-17
3.52523e-05
7.50048e-06
3.6726e-19
0.000102923
2.96546e-06
3.3954e-05
3.33361e-05
6.032e-07
9.55597e-08
6.22402e-18
6.52767e-05
5.51995e-05
9.22305e-18
3.83946e-07
4.76444e-05
9.21661e-06
1.72729e-06
3.27452e-05
3.10286e-05
4.38706e-19
1.28168e-05
6.32241e-09
1.29496e-17
4.11556e-05
3.14728e-07
8.23574e-17
1.30778e-05
4.8234e-05
1.64511e-06
2.52923e-05
2.32692e-05
8.44859e-06
7.30224e-18
1.21648e-05
3.9181e-07
8.87807e-15
2.02549e-05
2.10434e-05
4.29927e-05
6.81087e-18
2.27186e-06
1.05671e-18
2.96625e-18
1.11402e-17
2.38544e-19
1.71586e-08
2.76853e-18
3.4456e-13
3.95367e-18
1.79724e-18
9.03421e-08
5.16402e-05
6.51302e-18
3.87054e-05
1.54895e-17
1.46056e-18
2.60803e-19
4.67068e-05
4.94176e-07
1.99589e-17
3.62547e-17
3.11406e-18
5.59509e-19
0.00025328
8.28361e-05
8.66162e-18
2.33888e-06
2.65879e-09
1.1853e-18
4.44427e-05
9.81239e-06
1.46296e-05
3.32343e-19
8.89635e-19
5.06223e-07
1.29373e-06
3.35579e-17
1.51704e-17
4.45107e-18
8.70286e-06
1.51032e-18
5.66863e-19
8.10563e-18
4.97095e-05
2.3765e-06
1.19317e-19
0.00468223
0.00037189
1.22149e-05
2.0515e-19
5.26706e-18
6.61344e-05
4.8498e-07
6.74115e-18
7.79496e-09
0.000143286
2.99507e-06
1.35685e-05
1.454e-17
6.40888e-05
2.19916e-06
1.61176e-18
3.92903e-18
1.90215e-18
3.60101e-18
1.26529e-18
1.39764e-18
2.61004e-05
1.45325e-17
5.52917e-18
1.08638e-18
1.38242e-05
2.78378e-05
3.26712e-18
1.24478e-18
0.000127044
1.70646e-05
1.13607e-05
2.536e-18
1.45838e-18
4.42182e-05
7.00229e-19
2.13811e-06
3.09142e-06
4.5602e-06
9.23693e-19
2.68916e-19
8.87401e-19
1.77211e-18
1.80442e-05
2.35766e-18
7.22868e-18
1.185e-06
1.93767e-18
2.72687e-05
2.18487e-06
4.95557e-18
4.42691e-05
0.000456286
3.01205e-06
3.48724e-05
1.74972e-07
5.3514e-05
1.36564e-13
3.12711e-17
2.79731e-05
8.36313e-05
7.27671e-06
6.9109e-18
7.6636e-13
0.000872688
1.20444e-05
6.99069e-19
3.03117e-06
3.13915e-06
1.44493e-06
5.34483e-18
5.64014e-18
9.16323e-18
1.57563e-05
4.40106e-18
3.06298e-06
1.11095e-18
1.53315e-06
1.65911e-06
4.35942e-05
6.64842e-07
3.21323e-18
4.62222e-19
8.3297e-18
2.46029e-05
5.06308e-19
6.91833e-18
7.86211e-08
1.17471e-17
5.17137e-18
3.93775e-18
1.19062e-18
1.18319e-05
6.33687e-18
1.52328e-18
5.60244e-13
1.8132e-17
5.40101e-18
5.46959e-17
1.133e-17
3.44794e-09
1.91742e-06
3.58758e-18
4.67789e-06
8.28484e-09
3.56324e-10
7.45071e-08
4.90631e-06
1.08753e-17
1.11881e-08
1.17247e-05
4.71392e-07
1.79874e-18
2.68071e-12
9.96663e-07
1.61072e-17
1.15289e-05
2.24045e-07
2.007e-09
2.83322e-05
1.10813e-05
2.68888e-06
6.04746e-06
2.40199e-06
1.84141e-17
1.273e-20
3.90033e-05
3.10903e-05
6.79436e-19
9.90615e-06
6.44377e-05
3.3931e-05
5.98617e-18
1.55075e-06
4.64439e-18
1.23528e-05
1.6572e-05
3.43033e-17
1.86943e-06
5.53785e-07
1.44677e-09
5.83212e-06
6.07464e-19
5.82885e-05
1.79734e-08
1.83408e-06
3.919e-08
1.43726e-08
5.92416e-18
6.19345e-18
8.51056e-06
3.65602e-18
1.38942e-07
3.07961e-07
3.19874e-07
6.10049e-11
8.33518e-11
4.7243e-10
1.12914e-18
6.44271e-19
2.76012e-05
8.51597e-19
1.81439e-07
2.46311e-06
6.65922e-18
4.75148e-18
7.05815e-10
1.04779e-12
3.70024e-18
5.75647e-09
2.64482e-18
1.59553e-18
4.24659e-18
9.24873e-18
2.81643e-18
8.10603e-18
3.37377e-07
3.04326e-18
1.51816e-18
7.24643e-18
7.45096e-09
6.38361e-08
2.17004e-06
1.11458e-05
4.23235e-18
4.28157e-19
2.07101e-07
2.96457e-18
8.74299e-19
2.41789e-16
2.22808e-05
5.0528e-05
1.24619e-17
4.41065e-18
1.92932e-18
8.182e-19
1.36228e-18
1.8914e-18
8.47586e-06
2.22339e-18
6.07161e-11
3.20028e-05
7.99227e-18
2.65034e-18
2.56146e-18
3.15951e-08
6.20257e-18
8.77397e-20
2.97721e-18
1.07032e-08
9.82116e-18
5.31447e-06
1.14491e-09
6.58187e-12
1.01767e-17
8.70507e-08
2.45497e-06
5.28002e-05
3.6213e-18
9.55754e-09
6.79441e-06
3.00478e-18
9.20259e-19
1.27132e-17
4.06533e-18
9.96386e-06
2.00139e-06
3.99072e-06
2.05511e-10
5.18001e-19
2.64587e-05
6.53657e-18
3.33716e-17
2.3314e-17
4.368e-18
3.13963e-05
3.23211e-18
5.54434e-18
2.13628e-09
6.10966e-05
1.92324e-18
2.91625e-06
5.38906e-18
1.02666e-06
4.36445e-17
1.84481e-18
5.17496e-17
1.13593e-18
2.95077e-06
7.27797e-07
0.000365762
4.83621e-19
1.42413e-18
2.43428e-06
3.70319e-18
7.88018e-18
5.7269e-18
4.43735e-05
1.07775e-08
3.81308e-05
1.03717e-17
1.20956e-08
5.64097e-08
1.08114e-17
1.42392e-07
4.90264e-18
1.48602e-06
3.05629e-05
2.43118e-05
1.48254e-06
2.90229e-07
9.51239e-18
8.95492e-18
8.90459e-18
2.51625e-08
7.45254e-19
8.67887e-06
1.08194e-17
0.000210968
3.74016e-19
4.93105e-05
3.76818e-06
2.98886e-18
9.72181e-19
6.7313e-18
2.24017e-17
4.82598e-05
1.28774e-17
6.51221e-17
1.42815e-05
8.04311e-06
2.59782e-17
5.28317e-17
6.58019e-17
2.2e-19
6.17566e-18
1.00236e-18
3.02808e-05
5.0523e-07
1.30272e-18
2.39986e-18
5.95207e-10
3.21397e-17
1.8839e-06
1.30632e-07
5.90266e-19
4.09268e-06
9.20177e-19
4.44517e-07
1.39839e-18
1.28641e-06
3.22787e-18
9.31315e-11
2.52765e-09
7.73925e-07
2.12355e-05
3.99557e-05
1.40176e-09
3.9682e-19
5.84194e-07
2.98521e-17
5.43086e-06
2.10509e-18
1.74963e-17
5.11515e-17
1.64532e-17
1.93127e-17
1.34354e-17
8.42738e-06
9.48252e-06
1.6301e-18
1.95323e-17
5.42882e-18
8.85584e-07
1.63461e-08
8.63524e-19
2.17614e-05
2.20719e-07
6.39156e-18
2.78393e-05
9.80365e-06
4.23969e-06
1.4019e-05
5.6812e-19
3.80969e-18
6.69602e-18
1.0703e-17
4.40269e-05
5.05843e-17
0.000135167
1.57267e-18
3.64421e-07
8.71423e-07
1.40215e-18
1.10823e-06
3.00999e-18
3.49672e-18
3.57381e-06
2.69082e-11
1.08934e-05
2.80579e-18
1.07135e-18
2.89485e-18
9.74603e-07
7.0649e-19
1.61685e-18
3.41256e-18
3.52707e-10
3.27095e-17
8.55996e-09
1.11762e-17
3.19204e-18
1.74633e-18
2.16703e-05
1.18204e-05
2.18246e-05
4.29586e-05
9.67244e-18
1.83241e-08
1.04868e-17
7.62765e-18
1.18676e-05
1.18409e-18
2.70856e-09
4.15785e-07
7.86998e-06
4.1744e-07
1.31474e-12
2.32142e-06
1.19929e-17
1.33523e-12
5.54634e-13
1.45519e-07
9.7067e-07
1.75381e-05
7.35069e-11
1.41779e-17
3.64946e-05
2.58133e-19
1.0459e-17
1.77405e-08
8.94874e-05
7.06329e-11
8.26874e-18
1.20147e-17
3.77686e-10
2.58546e-18
5.5084e-19
2.03336e-08
5.43859e-18
7.28215e-19
4.82742e-05
2.57403e-07
2.02265e-07
2.71015e-05
8.68414e-06
4.28507e-19
4.62018e-19
1.89605e-08
4.86705e-06
1.11496e-18
2.87736e-18
1.16949e-05
2.09543e-18
5.54915e-17
1.36022e-17
2.32937e-17
2.60347e-16
0.00308603
7.96154e-18
2.53469e-07
2.11916e-18
2.46716e-05
4.2945e-19
1.8596e-15
9.21427e-18
9.62865e-19
1.6624e-17
1.73684e-17
3.43773e-06
5.49227e-18
1.1156e-17
1.60705e-17
8.75023e-18
1.30373e-17
6.23389e-18
1.16963e-05
8.53493e-18
1.32812e-05
3.59241e-06
3.4572e-19
1.93139e-06
1.40207e-18
5.79193e-07
2.32799e-09
4.61028e-06
1.59216e-05
7.7925e-19
1.08807e-07
9.45892e-06
1.02567e-08
1.68533e-18
2.9117e-09
2.2113e-05
5.64692e-06
2.56016e-18
3.11605e-05
2.70197e-18
3.5774e-19
1.08964e-17
4.95697e-18
9.76285e-06
4.35762e-18
6.23863e-19
9.81833e-06
3.38161e-10
3.21545e-06
1.27972e-18
1.3315e-16
7.93834e-07
1.01319e-17
8.72667e-08
5.48164e-18
2.76201e-05
2.49422e-19
5.30866e-19
6.65495e-08
9.21647e-19
1.61125e-07
5.21997e-19
1.88521e-18
5.83779e-06
5.03762e-07
5.72078e-06
1.86868e-05
0.000263854
2.42508e-05
2.73409e-18
8.87212e-18
3.46722e-06
8.03182e-06
4.34916e-05
1.31386e-05
2.95529e-17
1.43975e-05
3.51656e-18
2.44331e-19
1.0681e-05
1.29471e-05
3.19224e-18
1.56147e-05
4.7598e-18
3.27585e-06
1.04121e-05
9.35389e-18
1.65799e-18
2.06685e-18
3.28905e-06
4.20727e-18
1.49389e-17
4.90814e-06
2.51546e-05
4.34407e-09
8.91985e-06
1.39975e-17
6.78668e-18
9.65894e-08
8.96634e-07
1.83732e-17
1.22539e-05
2.14332e-17
3.12302e-06
9.57482e-20
1.9446e-18
1.45497e-05
3.8485e-18
4.67205e-08
4.23388e-06
8.65147e-18
3.62808e-18
5.16008e-06
6.36572e-14
6.27063e-05
2.86397e-18
0.000310884
4.30349e-18
4.10449e-17
3.90271e-17
8.79961e-06
4.70052e-17
1.58375e-17
6.57955e-06
1.48348e-17
2.83217e-07
4.25846e-17
1.0705e-18
1.17535e-18
1.29377e-10
9.14175e-07
8.18456e-18
8.86855e-18
4.19683e-05
1.10964e-06
3.9196e-19
5.24868e-07
1.64087e-17
3.0855e-18
1.91718e-09
3.18696e-06
1.53684e-06
1.50471e-17
2.65019e-17
9.50611e-18
2.07425e-18
2.18887e-18
1.9178e-18
5.38797e-18
3.85231e-19
2.4256e-18
3.44787e-17
1.86617e-17
2.67992e-18
1.56027e-17
3.58857e-18
8.39606e-19
4.92229e-18
1.03693e-17
3.7894e-18
2.51467e-17
3.65012e-18
5.99553e-18
2.09348e-05
1.06531e-17
1.63533e-17
2.71328e-18
7.78713e-06
1.24938e-17
1.63131e-18
0.000332686
3.52447e-18
7.95198e-19
2.74002e-05
3.5267e-15
3.71509e-19
8.64969e-06
2.8959e-05
5.93216e-19
3.07079e-06
4.62897e-06
1.66928e-17
1.55446e-05
4.67277e-05
2.10297e-05
3.94433e-06
1.26729e-05
1.158e-17
5.37536e-18
3.47378e-06
1.24167e-05
3.74636e-06
2.18681e-17
7.66325e-06
2.0534e-06
2.50717e-05
1.22304e-05
8.0777e-07
1.83155e-05
1.26269e-06
1.18633e-05
7.03826e-18
2.97236e-05
9.93535e-06
1.97445e-06
1.58325e-06
4.80837e-18
1.34864e-17
4.30425e-18
5.57934e-20
4.12297e-18
1.08652e-05
1.60333e-05
1.37126e-18
1.06979e-18
2.66503e-17
1.28988e-18
5.32317e-18
1.90891e-18
1.5393e-18
1.34733e-17
5.37073e-06
2.00899e-07
2.5564e-05
7.80325e-08
1.04887e-18
1.57638e-17
3.68418e-05
7.73963e-09
2.29688e-18
8.88114e-18
8.55605e-06
1.27627e-17
7.06063e-18
4.1179e-09
9.24042e-06
1.5911e-05
3.93941e-05
3.97819e-05
1.25169e-18
1.66529e-05
3.8696e-07
3.74645e-17
1.21981e-18
1.37908e-05
6.14303e-18
6.60438e-19
2.05349e-05
0.00123435
2.02509e-07
9.43492e-18
2.837e-18
2.09245e-05
2.41503e-05
2.05719e-05
6.72922e-06
4.62421e-06
1.45861e-17
1.2101e-09
3.11712e-12
2.13238e-17
8.77625e-18
2.03539e-05
4.6839e-18
2.35747e-06
2.97867e-05
2.04895e-05
1.36996e-05
1.64705e-17
7.04794e-06
7.72933e-19
1.12977e-18
1.10843e-17
1.72491e-18
2.89942e-06
0.00102301
3.71725e-18
9.37887e-18
3.26569e-09
2.7258e-05
1.26864e-06
8.07839e-06
3.85369e-05
5.59204e-06
2.37942e-05
6.81997e-18
4.32044e-18
1.65705e-17
3.54487e-05
6.62788e-06
3.0159e-11
2.46279e-18
6.96674e-18
4.76347e-17
2.5873e-05
3.26088e-06
7.86702e-18
5.6747e-06
6.73046e-05
7.93939e-06
7.12963e-06
1.34645e-17
9.18314e-18
8.06048e-06
2.64809e-05
1.50645e-18
3.86155e-07
1.69307e-05
1.15915e-06
1.07305e-05
5.39216e-06
9.37365e-06
9.14689e-17
3.91307e-06
2.39685e-05
4.26384e-05
5.55747e-13
2.65932e-05
1.74083e-16
1.9105e-05
1.80665e-07
4.16165e-18
2.98116e-06
8.64927e-06
4.30875e-07
1.32403e-05
3.91266e-10
1.55875e-07
1.76958e-08
4.57155e-05
4.18257e-06
1.15118e-17
4.4847e-05
1.47358e-06
4.13026e-19
3.0815e-18
4.7154e-11
1.11032e-08
1.19201e-06
0.00127715
4.03986e-05
1.35123e-05
2.47112e-10
5.08537e-05
2.00736e-17
9.37547e-18
4.59843e-06
1.8719e-18
2.46183e-06
5.05353e-06
2.47408e-06
5.3457e-06
1.03593e-18
2.39575e-07
0.000124872
3.89486e-18
2.51929e-05
8.56735e-06
4.01596e-19
4.57777e-06
1.73111e-07
4.82539e-18
8.41255e-12
1.07023e-07
1.88031e-18
1.78625e-17
8.45453e-18
5.03411e-06
5.44915e-06
1.63217e-05
1.49391e-18
5.78108e-06
3.78298e-05
3.57379e-18
9.146e-06
1.41395e-05
2.8005e-05
1.74975e-06
4.11222e-18
6.82856e-07
1.08358e-05
1.19123e-05
1.02494e-05
4.31188e-05
0.000186832
3.86476e-06
8.37629e-18
8.32008e-09
5.81831e-05
5.82106e-18
4.85323e-07
2.95866e-18
5.36962e-18
4.6582e-18
2.41977e-18
1.35194e-18
3.67049e-06
1.31414e-18
8.11154e-06
1.35531e-06
1.50511e-19
4.42918e-06
1.7009e-18
1.61705e-05
5.46315e-19
2.31818e-08
7.03081e-18
2.50701e-05
1.7552e-07
2.67051e-09
4.72764e-06
3.28637e-05
1.92364e-05
4.41549e-06
3.06833e-05
6.53907e-15
2.55164e-05
6.18154e-05
1.06186e-05
1.58144e-17
1.29287e-06
3.06665e-07
6.33457e-06
1.19386e-05
6.95707e-07
3.35398e-18
2.87068e-17
2.33656e-18
4.15049e-06
8.6407e-18
2.79017e-07
2.51441e-07
1.61954e-06
3.19472e-07
1.98847e-18
8.60169e-18
8.37113e-18
9.8177e-06
2.45242e-05
1.41572e-06
1.04526e-08
2.14957e-06
7.76439e-06
2.25388e-06
9.22381e-07
7.77079e-06
6.76031e-06
2.96273e-06
2.74574e-18
1.79012e-18
7.82244e-18
1.51271e-05
1.22495e-05
3.89043e-18
7.0852e-18
3.23419e-16
9.38935e-06
2.14553e-05
2.23716e-17
2.43836e-06
5.57207e-19
6.95186e-10
5.41571e-06
9.99341e-05
1.90538e-18
2.02101e-19
4.16295e-06
1.00973e-17
6.91521e-08
1.33733e-05
3.98071e-18
1.21757e-05
3.71408e-05
2.08012e-05
8.87078e-19
1.46035e-06
3.78796e-18
9.51528e-08
5.53817e-05
2.39899e-18
2.23756e-19
1.23557e-05
3.4739e-16
5.65806e-18
4.85007e-08
1.11412e-06
1.30292e-17
4.10921e-18
5.81641e-19
6.78616e-08
1.39458e-06
3.53413e-06
2.87239e-05
1.04832e-05
2.03306e-18
7.89144e-10
7.28808e-07
8.01559e-19
2.07784e-18
3.63467e-18
2.66366e-18
4.21009e-18
5.87444e-18
3.64454e-18
1.5767e-18
3.49429e-18
1.76773e-18
3.16331e-12
1.05327e-18
3.91919e-07
4.8168e-18
2.50004e-07
2.67286e-17
6.63666e-08
5.31758e-17
3.19627e-19
3.16592e-05
1.02694e-05
1.63323e-17
0.000101121
1.19704e-11
3.36612e-13
2.63821e-19
1.46618e-06
7.58896e-15
3.03791e-06
7.04993e-09
9.83371e-07
5.76297e-18
6.74271e-19
1.00396e-06
2.96222e-11
2.7059e-18
1.20125e-17
4.39201e-05
1.3394e-17
4.16824e-05
2.96598e-18
1.75619e-18
1.92747e-09
3.16963e-05
9.1286e-06
8.42353e-18
3.64977e-07
8.17159e-18
3.30588e-06
2.00158e-08
2.05146e-06
1.04067e-06
1.08217e-18
2.29483e-05
1.3108e-06
5.79886e-06
8.56559e-18
8.71002e-19
1.26885e-19
1.98887e-05
4.46416e-06
5.8045e-05
4.17947e-19
4.99563e-10
3.80019e-19
2.61397e-18
8.49351e-18
4.20153e-18
3.61404e-06
2.42327e-06
3.29468e-06
0.000358011
2.89164e-17
3.103e-05
4.01467e-05
1.96187e-05
1.89722e-06
1.66593e-17
5.9952e-06
5.00979e-06
5.57736e-06
4.08622e-10
1.14202e-05
4.11056e-18
1.74754e-06
1.38749e-06
3.67491e-05
1.28061e-09
3.68571e-06
1.51355e-18
2.09683e-05
4.46024e-19
3.55089e-18
1.85308e-06
1.60209e-18
7.03854e-06
3.97397e-18
4.28987e-18
1.06528e-17
1.10433e-18
5.98621e-18
8.87395e-07
1.70767e-18
6.28759e-07
8.25835e-18
5.98031e-18
2.03381e-05
6.14448e-06
8.82447e-06
8.50866e-06
4.32555e-18
0.000663145
3.35438e-18
7.86695e-05
1.43326e-18
2.01569e-05
2.63807e-05
2.64233e-06
6.39919e-05
1.45014e-17
6.64679e-17
9.09182e-20
2.44144e-06
1.38992e-18
1.05417e-18
1.99114e-05
1.44298e-18
5.1714e-18
5.95774e-06
1.59971e-17
1.43988e-05
7.55522e-11
6.38319e-18
2.99006e-18
3.0624e-17
1.81858e-06
7.56736e-06
1.42041e-18
2.56771e-05
3.77905e-07
8.16843e-18
0.000116465
1.56682e-18
1.77753e-05
2.03039e-05
3.92482e-06
3.10871e-18
2.00413e-05
1.08636e-05
9.43423e-07
5.93956e-06
1.40921e-05
8.6055e-18
3.77711e-18
2.00456e-09
4.02939e-19
2.41224e-19
8.47328e-19
2.20684e-05
5.01706e-05
4.97767e-06
2.40971e-06
2.16946e-17
5.60611e-05
5.17988e-05
4.77612e-06
2.78997e-06
1.04588e-05
2.36198e-05
2.99344e-06
2.78396e-17
4.13683e-18
3.44701e-18
7.72961e-06
1.26586e-18
2.8041e-05
1.79012e-17
8.42312e-07
6.08618e-10
2.90091e-06
2.51191e-05
4.33484e-18
4.96093e-18
2.78155e-06
4.09235e-07
1.68906e-17
1.85734e-18
8.27371e-18
3.72697e-08
3.53509e-07
1.62672e-07
9.25233e-07
1.13132e-05
9.85306e-05
2.36221e-18
2.04591e-17
3.80807e-18
4.26659e-06
2.04515e-05
2.26819e-05
3.95424e-05
2.05114e-06
3.28166e-06
6.85098e-19
1.03098e-17
1.21749e-16
1.35607e-18
1.07472e-05
2.53125e-05
4.95914e-18
7.24932e-18
3.71052e-18
3.74912e-18
2.39933e-17
1.79666e-17
1.54752e-05
3.0861e-17
1.13332e-06
0.000454464
3.69999e-18
1.62456e-08
2.59275e-05
8.26605e-07
6.07473e-18
3.42381e-18
5.53208e-06
2.66817e-18
1.60337e-05
1.21756e-09
2.75794e-05
3.84643e-18
2.64994e-15
9.43359e-18
1.73424e-18
1.03476e-17
6.29306e-18
0.000225285
1.63114e-18
6.65758e-06
1.36849e-06
2.06488e-17
8.92005e-18
2.19363e-06
3.42473e-18
2.04825e-17
1.49764e-05
1.37485e-07
8.83815e-19
8.85228e-18
1.27583e-18
1.90783e-05
2.05818e-18
5.60049e-18
4.55623e-07
2.94974e-06
3.463e-06
2.698e-18
4.21383e-18
1.64654e-17
4.29308e-06
2.08173e-06
1.46968e-05
4.18913e-06
4.61071e-18
9.03716e-07
1.37444e-05
7.33932e-06
5.83282e-19
3.19903e-18
1.15771e-17
8.92365e-19
2.15582e-18
3.54796e-05
6.01723e-06
6.17041e-06
1.29923e-17
9.32e-18
6.4951e-20
3.472e-18
2.44301e-18
1.08415e-09
2.80503e-07
2.58914e-06
5.74746e-19
4.34562e-18
2.24835e-17
2.71909e-12
3.92973e-05
0.000129419
1.99542e-18
7.82921e-13
2.02853e-14
2.37167e-19
3.41652e-18
4.38283e-06
7.60466e-06
3.43766e-19
1.31282e-17
3.28853e-06
8.17369e-18
8.02116e-07
1.27016e-06
0.00242153
5.24577e-18
3.16914e-18
1.39898e-05
5.96166e-07
8.52176e-19
0.000767821
6.7389e-07
7.38059e-06
9.46774e-18
4.15722e-18
1.11096e-17
1.4188e-18
9.11422e-06
1.07979e-07
8.62067e-18
2.87563e-05
2.17812e-05
0.000999748
2.95839e-18
8.06601e-19
1.22451e-18
3.6049e-19
7.41626e-06
7.31188e-11
1.89008e-17
4.43801e-18
2.14221e-05
1.07962e-06
5.65684e-06
3.98415e-19
5.24017e-18
3.29141e-05
4.11598e-18
1.22518e-17
8.21843e-20
5.67947e-19
2.5168e-05
1.72956e-18
2.86023e-18
1.8567e-18
2.89526e-05
1.40458e-05
1.87311e-18
4.56611e-18
2.6288e-19
1.75184e-05
1.98765e-10
1.17456e-18
7.38144e-19
2.08687e-17
7.64245e-18
2.72908e-06
1.24047e-05
3.22662e-18
2.34718e-06
1.24681e-06
5.39494e-06
6.10684e-17
6.40834e-19
1.67679e-18
1.79499e-17
1.32192e-18
2.2795e-05
1.98482e-17
1.67987e-05
8.9927e-18
1.72374e-06
3.2058e-17
2.66819e-06
3.86337e-18
6.31591e-18
1.2327e-05
0.000195885
3.71345e-17
4.01602e-06
1.44351e-17
4.35482e-07
1.61437e-17
1.10938e-17
8.14632e-19
1.96285e-10
1.02696e-18
3.62737e-07
8.84764e-20
4.03329e-05
7.9487e-18
2.06487e-17
1.6278e-18
7.05324e-19
8.88346e-09
1.51422e-07
3.98531e-18
6.22864e-06
1.09445e-18
3.24913e-06
2.15475e-05
1.41123e-06
1.58879e-18
5.16294e-09
4.89238e-07
2.38846e-09
4.96866e-06
3.82434e-10
1.86239e-06
2.69748e-17
6.28023e-18
4.90723e-10
6.40738e-06
2.65725e-07
4.09574e-18
3.49312e-18
9.20198e-18
0.000646557
1.07869e-18
3.92532e-18
2.16544e-19
7.98657e-19
4.67303e-17
3.74695e-08
1.98046e-07
1.1515e-06
7.51165e-08
7.46774e-16
1.63463e-06
3.25319e-18
6.44999e-06
6.84924e-18
5.59231e-18
4.6682e-18
4.95622e-18
2.2231e-08
8.45231e-18
6.39493e-18
5.15444e-19
1.65782e-05
4.06341e-18
8.49012e-19
1.24486e-05
2.40964e-18
7.92186e-05
0.000138004
0.000629056
3.13638e-18
0.000229956
0.0013407
0.00139548
0.000748556
1.42251e-17
1.02114e-18
5.50311e-06
5.31699e-06
1.91558e-18
9.82547e-06
2.5856e-18
3.63624e-05
4.45352e-18
2.4334e-18
7.78346e-07
1.69046e-18
2.11182e-18
1.13459e-08
4.44165e-08
2.26238e-17
1.86831e-18
2.88855e-09
1.42816e-17
3.2593e-18
2.29597e-08
9.31899e-06
1.66308e-06
4.88141e-18
8.62441e-06
2.61655e-18
3.95502e-06
4.43654e-10
8.09554e-06
1.48235e-17
1.64863e-11
6.25818e-06
7.21604e-18
1.70726e-12
5.74233e-19
3.63536e-05
1.58236e-18
1.09961e-05
5.76972e-18
2.11239e-10
8.1421e-19
4.06306e-18
2.46663e-18
8.52129e-13
5.55438e-13
3.91004e-19
1.37012e-05
1.00422e-05
1.49948e-17
2.11858e-17
3.69295e-05
1.96353e-05
0.000205191
1.82996e-18
7.44911e-08
2.80136e-05
5.17387e-05
6.8487e-11
2.12191e-18
6.40726e-05
3.97654e-18
0.00025412
1.19839e-18
3.86845e-11
3.86045e-11
4.95926e-20
5.71849e-08
1.01918e-17
2.38378e-05
2.90505e-18
1.07238e-18
9.9525e-19
1.07846e-17
1.42488e-18
2.18395e-18
3.41453e-07
2.08933e-06
0.000151327
5.865e-18
6.45072e-17
4.58739e-05
1.18723e-17
2.93413e-19
2.5504e-18
3.07401e-17
4.93945e-18
6.45653e-06
1.6051e-18
1.73284e-18
8.18051e-20
3.60703e-06
4.18823e-18
9.85264e-18
6.84404e-18
3.53591e-06
1.22739e-18
6.69649e-06
0.000256607
5.68256e-06
5.88786e-06
2.92654e-05
5.26151e-18
4.99034e-18
3.56786e-18
3.34399e-06
1.96494e-06
1.8307e-19
2.12023e-17
6.42873e-07
2.90745e-17
2.91793e-18
0.000371386
1.39195e-18
2.45095e-05
1.54118e-18
2.58609e-06
3.75232e-06
6.39744e-18
2.69341e-18
1.62579e-18
1.06164e-18
5.74313e-18
2.09931e-05
8.22483e-18
5.04174e-06
6.18341e-18
2.23903e-18
7.41038e-06
7.87507e-19
1.43017e-05
1.28902e-17
2.65174e-18
2.66677e-06
8.64802e-08
0.000155186
1.27873e-17
1.40014e-18
3.98795e-18
4.0712e-06
0.000198181
1.11753e-17
7.25499e-18
6.06026e-18
1.65479e-06
7.10011e-19
2.20165e-05
3.42217e-05
1.6898e-17
3.34665e-19
7.81793e-06
4.63432e-18
2.30072e-18
4.22756e-18
3.3579e-17
1.01006e-17
7.51335e-05
1.11003e-16
7.55136e-18
7.96195e-18
3.0248e-17
1.33035e-18
4.79592e-17
6.80242e-18
5.57786e-18
6.88739e-18
8.62444e-06
4.65055e-18
9.01557e-06
2.67021e-17
4.83791e-19
0.000642095
2.90453e-06
2.66147e-18
1.41907e-17
6.71082e-19
2.57898e-06
2.06045e-17
1.19337e-18
3.24372e-18
8.89021e-19
7.74532e-06
1.15311e-18
5.28631e-06
2.8139e-18
1.07097e-05
2.30645e-18
6.29665e-05
2.00041e-18
6.86808e-18
2.30891e-05
7.16984e-18
1.9315e-18
2.97175e-05
3.06061e-07
7.20147e-19
3.23813e-18
4.08839e-05
1.12479e-05
6.90676e-06
8.90385e-07
1.93638e-06
1.8866e-05
1.04486e-06
5.48427e-06
3.55272e-17
3.11738e-05
1.51496e-17
3.67151e-18
2.03627e-18
8.26263e-18
2.39827e-18
1.10729e-05
2.67219e-17
3.17502e-18
9.60626e-19
2.85516e-09
1.04874e-08
3.75742e-17
2.58419e-06
1.31205e-17
4.65622e-06
4.34324e-18
1.30891e-09
3.9817e-06
2.61092e-16
4.953e-05
8.54845e-19
3.61089e-18
1.19498e-17
3.17363e-06
1.45507e-06
2.48544e-18
2.40857e-18
2.69456e-06
2.51211e-18
0.000725993
2.74758e-18
0.000111299
3.49304e-18
2.45506e-18
2.2202e-20
9.25469e-18
1.07764e-05
3.63489e-18
4.43342e-08
8.62883e-18
1.07358e-05
7.90872e-18
3.98189e-19
8.27201e-15
6.67296e-18
4.51869e-18
1.75545e-17
7.08678e-18
2.25519e-17
4.7538e-06
0.000214218
1.31387e-17
3.87874e-18
4.07925e-07
3.64182e-18
1.37873e-17
1.30132e-09
1.89199e-05
1.64619e-07
6.42148e-18
7.33579e-07
3.7036e-06
5.62865e-06
9.25481e-06
1.56836e-17
4.1888e-17
3.58946e-17
4.80565e-18
2.11133e-18
4.15413e-18
3.39125e-18
1.1621e-17
1.11515e-17
3.01261e-18
7.00592e-18
3.46077e-18
8.28453e-05
1.50368e-17
1.26022e-18
3.64791e-13
2.33942e-18
4.98877e-18
0.00121926
1.1493e-18
1.92517e-19
2.11627e-06
1.70333e-12
4.48396e-18
2.71638e-17
1.53761e-18
2.4955e-05
4.85949e-18
1.67398e-18
5.54125e-11
1.81936e-19
5.76501e-18
2.44357e-18
2.63531e-18
0.000126103
1.30999e-18
1.93726e-07
4.6417e-18
5.47885e-18
2.47557e-18
1.32264e-17
6.13549e-19
2.26792e-11
4.45148e-11
1.27796e-07
4.65975e-18
7.96429e-19
5.47288e-18
1.12788e-10
1.67895e-18
3.31403e-10
1.32634e-11
1.43608e-17
3.64095e-18
2.51213e-17
5.82574e-12
2.59864e-19
1.4118e-17
2.4555e-12
9.26563e-18
3.50903e-05
1.7341e-17
7.64924e-06
9.98949e-18
2.5582e-09
4.8992e-18
1.65975e-06
4.84453e-18
4.75277e-06
2.82431e-05
4.30068e-18
2.88558e-06
1.52262e-08
1.48012e-19
1.18449e-05
6.06298e-19
8.12531e-19
2.41939e-19
1.61473e-18
1.19757e-17
5.3288e-19
1.05789e-19
6.81091e-18
0.000316163
1.90688e-18
2.17766e-18
4.19508e-19
1.65201e-18
1.44989e-18
3.56002e-05
0.00092372
3.41636e-09
1.33942e-08
1.46245e-18
2.28677e-06
1.56068e-06
2.74555e-18
2.21548e-18
1.81702e-18
3.641e-19
3.37564e-18
1.50943e-17
5.14899e-18
1.71321e-17
4.55785e-07
3.43702e-18
2.25013e-19
2.32978e-07
3.74812e-09
1.84952e-17
2.97255e-05
2.2342e-18
1.07902e-18
4.7017e-18
0.000198387
4.1556e-17
1.73246e-18
2.87666e-05
4.10574e-18
4.52697e-18
5.60594e-18
6.73238e-18
6.19745e-05
1.64583e-18
8.369e-18
6.80755e-19
4.20835e-18
6.99243e-06