/*--------------------------------*- C++ -*----------------------------------*\
  =========                 |
  \\      /  F ield         | OpenFOAM: The Open Source CFD Toolbox
   \\    /   O peration     | Website:  https://openfoam.org
    \\  /    A nd           | Version:  10
     \\/     M anipulation  |
\*---------------------------------------------------------------------------*/
FoamFile
{
    format      ascii;
    class       volScalarField;
    location    "7.1";
    object      T;
}
// * * * * * * * * * * * * * * * * * * * * * * * * * * * * * * * * * * * * * //

dimensions      [0 0 0 1 0 0 0];

internalField   nonuniform List<scalar> 
111485
(
303.15
285.119
300.992
303.15
298.438
283.15
298.949
293.403
296.359
286.264
300.535
296.217
300.231
284.58
299.996
286.773
299.304
298.11
294.08
303.15
303.15
283.15
297.27
288.713
301.545
303.15
293.214
300.621
288.886
303.15
300.739
294.318
303.15
283.15
283.453
283.15
302.288
297.624
283.149
296.617
283.15
289.626
297.034
302.885
303.191
303.15
287.401
288.571
289.668
303.15
303.15
283.15
303.15
298.944
303.15
293.53
287.913
283.15
283.323
295.467
295.868
303.15
302.064
300.289
283.15
284.565
300.354
291.55
302.116
302.533
303.163
301.906
303.15
302.114
303.15
295.367
283.15
293.488
283.15
283.15
283.24
293.401
283.15
303.15
300.329
284.22
283.15
301.559
303.119
299.11
283.347
289.606
300.877
300.378
289.806
303.15
303.15
301.559
303.149
283.418
303.15
286.677
283.15
285.184
285.757
283.15
283.15
293.065
301.462
283.146
298.921
288.089
301.304
301.708
303.15
301.987
303.15
283.15
300.143
303.15
303.15
283.15
283.15
283.15
283.402
303.151
283.15
301.822
303.15
283.177
303.085
301.95
303.15
283.15
283.15
292.531
283.15
294.239
298.801
301.101
303.137
296.829
298.981
284.781
302.283
297.821
283.15
303.15
283.15
297.154
284.941
303.15
303.144
287.345
283.156
293.742
295.65
302.526
283.154
303.15
303.15
292.205
286.259
283.153
283.157
301.195
283.69
283.15
283.152
283.152
283.15
303.15
283.207
283.15
291.543
287.191
283.15
303.15
303.15
283.15
303.15
303.15
297.661
293.524
295.808
289.79
301.387
300.436
283.19
303.15
301.456
303.15
303.15
300.171
286.292
301.416
301.327
295.773
303.15
300.886
284.605
283.161
300.787
297.059
303.15
300.428
288.23
303.15
283.227
300.187
284.817
300.698
303.15
303.15
300.712
283.15
292.798
283.15
300.617
298.729
290.388
303.15
301.758
300.534
283.15
283.15
283.15
289.519
283.157
283.15
303.15
298.665
291.402
289.939
283.15
303.15
303.108
303.15
284.338
300.096
299.275
299.523
299.393
283.15
283.144
298.869
283.15
283.15
288.765
288.385
283.15
301.191
298.89
303.15
283.15
301.018
303.15
303.15
303.12
303.15
288.278
285.869
290.812
303.15
298.35
303.15
303.15
303.15
283.148
298.103
300.984
299.43
291.209
299.488
296.245
283.211
290.362
291.609
283.15
303.15
283.149
292.451
298.745
286.473
303.15
298
297.269
298.899
302.962
283.166
297.112
299.369
302.002
283.15
283.612
283.15
283.149
303.15
283.9
290.27
286.326
303.15
283.15
297.595
285.261
303.15
303.15
303.15
284.597
290.266
301.07
284.411
293.033
283.15
283.15
303.15
298.357
303.15
283.826
289.537
283.152
283.15
303.15
303.15
283.15
294.359
289.973
283.15
295.725
283.15
303.15
301.082
297.307
293.98
295.832
283.15
283.15
283.15
296.621
291.036
302.366
283.15
283.15
283.15
290.095
296.95
283.214
290.494
283.15
292.802
299.566
284.204
298.7
285.268
283.15
303.15
283.15
303.15
290.679
296.632
287.965
291.966
283.15
286.367
283.15
303.15
293.824
303.15
301.787
303.15
283.15
291.975
283.15
288.806
284.632
283.15
283.988
298.038
283.15
300.155
284.68
298.851
303.025
291.079
286.011
283.15
303.15
303.144
283.15
300.991
300.862
283.15
283.15
294.696
284.372
298.206
296.816
283.15
295.152
296.123
283.15
302.057
283.901
303.15
303.15
288.275
298.6
283.15
303.15
303.15
303.15
300.735
283.15
303.15
293.948
283.171
286.965
299.976
283.15
283.15
302.615
283.15
302.464
301.445
297.872
288.936
283.15
293.937
303.381
303.15
298.651
292.313
303.15
283.15
283.307
283.15
290.053
286.116
291.674
283.15
292.894
296.583
293.086
303.147
283.15
303.15
303.15
283.169
292.752
283.15
284.326
303.133
283.15
303.15
303.15
303.15
301.819
290.544
286.009
284.196
284.321
283.15
285.712
303.15
300.744
283.15
303.15
303.15
300.679
303.15
303.15
283.151
303.15
283.15
300.682
283.15
283.15
283.15
303.15
283.15
303.15
283.15
283.668
283.15
303.126
301.848
283.747
283.15
303.085
283.15
303.15
284.716
284.678
286.131
297.539
283.15
297.499
297.611
292.32
286.833
285.275
303.15
291.783
283.15
299.871
283.15
296.802
283.15
292.109
298.59
303.151
283.15
286.813
303.15
295.519
299.095
283.15
283.15
283.15
283.15
303.15
293.695
283.15
283.15
283.238
283.15
299.823
283.15
284.806
303.15
283.436
303.121
284.648
291.931
283.15
301.464
283.15
283.15
285.704
283.15
283.256
283.15
299.677
303.15
290.688
303.15
283.15
302.384
284.475
300.092
285.666
300.091
289.477
283.15
300.634
284.555
283.15
283.14
300.351
301.595
283.15
282.438
301.07
303.064
283.118
303.15
287.58
302.175
284.41
285.401
288.223
282.542
283.15
303.15
300.633
303.15
283.551
283.15
283.15
291.794
282.671
303.15
303.118
283.15
286.29
299.59
283.15
283.15
299.604
303.15
283.15
283.15
283.15
286.17
283.15
303.15
284.832
284.231
303.15
299.695
283.15
289.251
303.15
283.15
286.167
283.15
283.15
283.15
285.387
283.15
285.457
291.99
303.15
300.378
283.45
298.719
300.942
283.322
283.46
283.15
288.985
298.45
303.15
302.261
296.051
296.886
284.724
297.449
297.2
303.15
300.25
303.136
283.15
297.154
284.839
283.15
292.398
295.734
284.859
298.774
300.631
292.356
283.15
298.911
283.471
303.15
300.591
301.97
294.109
283.15
286.511
303.15
283.15
283.15
283.15
283.302
283.15
303.15
303.15
283.15
300.413
299.256
303.15
285.634
303.15
303.15
303.15
290.031
283.42
283.15
303.15
283.15
283.15
286.83
292.405
283.15
295.151
283.136
283.15
295.326
302.225
287.797
283.15
283.15
300.256
292.11
283.15
283.15
283.15
294.003
303.15
303.15
283.15
296.251
302.382
283.15
282.416
301.81
286.548
283.15
283.15
287.462
302.969
283.15
283.16
287.311
283.759
288.804
283.15
285.703
300.313
283.15
303.15
283.15
283.15
283.15
283.15
295.68
303.15
283.15
283.15
295.297
291.836
303.15
303.15
289.873
298.438
298.336
303.15
283.15
298.011
303.15
283.834
298.838
298.36
303.15
303.15
303.15
283.15
286.068
283.15
283.15
302.705
303.15
297.83
302.28
283.15
294.073
283.255
296.452
291.975
283.42
289.802
283.15
283.15
296.899
288.073
290.839
283.15
283.15
297.896
294.996
283.15
283.912
284.599
283.479
303.15
303.15
303.15
290.741
283.15
300.066
283.15
284.378
297.598
298.528
292.284
283.15
283.15
303.15
295.392
283.15
283.15
303.099
283.15
283.15
303.15
283.15
299.337
283.15
283.15
283.15
283.15
283.15
303.15
283.15
283.172
298.768
303.15
302.533
283.131
283.401
283.095
285.532
283.15
284.457
290.54
283.401
303.15
283.149
299.751
283.15
300.264
283.148
283.143
286.212
297.509
283.208
291.873
297.976
283.15
283.15
299.075
299.812
283.15
297.371
291.279
297.541
283.15
283.244
283.15
297.855
296.975
283.15
300.08
297.623
283.149
299.784
283.15
295.653
283.144
303.123
283.162
283.16
283.15
283.15
284.431
283.15
302.971
283.592
283.064
303.148
303.149
303.147
283.15
283.15
293.815
303.15
303.174
283.875
283.15
283.15
303.154
303.149
283.15
303.165
283.15
283.15
303.15
303.15
303.15
303.15
283.365
283.15
283.15
283.15
303.157
283.306
283.892
293.468
283.15
283.15
283.337
283.15
283.15
283.15
287.25
293.616
283.15
283.15
283.15
283.15
283.15
283.15
284.013
283.15
303.15
291.585
283.15
303.15
303.15
303.153
303.15
303.15
283.15
303.17
283.15
283.701
283.144
303.152
283.15
303.063
284.406
292.105
303.15
303.128
284.456
303.15
283.15
303.15
283.15
294.058
293.493
284.651
303.148
283.15
293.267
283.15
283.15
303.15
283.15
294.859
283.15
303.15
283.163
298.161
303.15
284.386
283.15
283.582
283.15
283.15
283.15
303.15
285.867
283.472
284.292
283.15
283.15
285.654
283.15
283.15
303.15
284.337
303.164
298.569
303.15
303.128
303.128
283.15
303.131
283.15
283.444
289.17
301.008
283.808
283.167
283.15
283.15
283.15
303.183
283.15
302.906
303.15
292.787
303.15
288.733
283.829
303.15
283.15
303.15
283.15
301.802
303.15
303.15
286.429
300.571
283.15
283.15
283.15
283.15
283.15
283.15
300.826
283.582
303.15
303.15
303.157
303.15
300.206
284.426
283.15
302.119
303.15
301.638
283.15
302.574
283.15
283.148
303.152
283.313
302.12
300.245
283.147
283.15
289.365
303.15
293.402
303.15
283.15
303.15
283.15
283.15
283.15
300.823
302.06
303.15
303.15
303.15
302.904
283.15
303.15
292.912
283.084
303.15
297.514
298.297
296.504
283.377
283.15
283.15
283.15
283.15
294.643
283.15
294.902
283.15
303.059
289.853
283.15
302.861
283.15
283.15
302.743
283.148
302.922
283.15
303.15
283.15
302.397
283.15
303.15
283.15
283.148
283.15
283.171
283.15
283.15
303.15
292.988
301.094
296.143
297.041
303.15
303.116
283.15
283.15
285.71
283.15
283.158
302.847
298.777
302.946
303.15
283.362
283.15
303.15
283.15
302.995
283.322
298.288
283.15
303.15
288.111
303.15
283.15
283.125
295.118
283.147
283.15
283.15
283.149
303.15
283.15
303.142
303.15
303.15
289.967
302.99
302.997
289.037
293.28
283.15
283.15
303.091
289.107
283.15
303.15
284.738
283.15
303.15
283.15
283.15
283.15
297.531
283.15
302.942
283.15
300.522
283.15
283.15
283.15
283.15
283.15
283.15
285.027
283.15
283.15
283.15
283.15
283.15
283.15
292.026
283.15
298.355
302.939
283.15
302.326
283.15
302.522
303.145
292.302
288.801
303.15
292.168
284.792
303.11
303.15
303.139
295.052
288.687
283.15
287.908
283.15
283.15
283.15
283.15
287.536
283.15
283.15
291.653
303.136
285.325
283.15
283.15
302.521
283.15
283.185
303.15
299.891
283.15
283.15
302.824
283.15
303.178
303.15
283.15
289.075
297.964
292.711
285.678
292.582
294.144
283.15
283.15
302.296
290.601
292.799
284.418
283.15
294.369
283.15
303.15
300.753
298.733
283.15
297.411
283.15
292.772
297.233
303.15
283.15
283.15
301.788
283.15
283.15
300.522
296.135
283.196
291.235
283.15
283.15
302.802
300.541
283.15
300.659
283.15
300.514
283.15
283.15
300.818
283.15
283.228
301.608
283.15
283.15
302.438
283.15
287.93
303.15
290.448
303.15
303.15
303.15
300.964
283.15
283.15
299.557
283.15
302.993
283.15
283.15
303.15
283.151
288.219
283.15
283.15
288.081
288.261
283.15
283.682
283.15
303.15
302.423
283.731
301.581
283.15
283.15
283.15
283.15
283.15
283.15
283.15
283.15
283.15
283.15
283.15
303.15
283.15
283.15
283.15
283.15
283.15
283.15
283.15
283.15
303.15
286.971
283.15
283.15
283.15
294.728
283.15
303.15
302.919
283.15
283.15
294.735
283.15
283.15
301.85
295.212
283.15
303.643
303.592
283.15
301.518
293.982
297.569
301.483
298.152
303.15
283.15
296.366
291.791
301.427
283.15
302.154
302.418
300.883
288.056
287.329
301.069
301.782
301.792
303.15
285.88
297.559
285.544
297.263
283.15
283.15
283.15
303.15
283.15
292.008
297.927
283.15
283.15
283.15
283.15
283.15
303.15
283.15
303.15
292.138
303.119
299.035
302.842
283.15
283.15
285.421
283.167
283.15
283.15
301.698
303.15
283.15
298.166
299.522
297.537
298.668
300.813
303.15
291.051
302.59
303.15
303.15
300.34
303.15
283.15
282.97
295.578
302.95
283.15
303.15
289.626
286.173
297.133
292.207
302.415
303.15
303.137
303.15
303.15
283.15
298.94
283.15
291.82
290.477
299.707
284.775
303.15
301.934
303.15
283.15
303.15
303.15
291.513
299.624
283.15
303.15
303.134
291.8
303.033
299.361
292.838
288.338
292.938
283.15
303.15
283.15
291.273
298.321
303.151
303.15
303.15
303.15
297.5
302.559
283.15
299.981
301.145
284.875
299.529
303.15
303.15
298.702
292.987
283.15
302.906
299.756
302.609
291.992
297.325
298.27
303.15
286.998
298.164
291.372
283.15
289.087
303.15
288.41
301.075
303.15
288.727
301.294
300.142
293.197
283.149
283.159
283.239
301.676
300.937
303.15
288.83
301.495
303.15
283.15
303.15
303.21
298.777
290.875
296.789
303.252
283.149
297.579
303.15
303.15
292.817
303.15
300.31
283.306
301.333
291.537
303.15
283.666
293.24
303.15
283.047
298.698
303.15
300.708
286.268
303.15
303.15
284
303.15
283.15
283.15
285.924
299.281
291.21
303.15
285.235
297.512
283.15
298.866
298.9
288.988
303.101
283.15
301.503
299.619
298.866
300.102
288.671
290.806
302.483
303.15
301.566
288.733
303.15
298.876
283.15
283.15
303.15
283.15
303.15
297.461
283.15
300.542
283.637
303.15
283.798
283.15
289.859
303.15
303.144
303.15
294.181
302.996
303.118
299.894
290.424
289.459
290.599
298.46
303.15
299.426
292.196
298.963
303.15
283.878
283.455
299.284
287.188
283.515
303.15
283.15
303.15
285.342
303.15
303.321
284.698
303.34
302.957
303.15
303.15
283.15
300.567
300.633
285.512
303.088
287.013
295.694
301.879
292.529
288.186
302.083
296.121
283.15
283.15
303.15
285.827
289.718
283.15
283.15
303.15
301.992
288.709
303.15
296.408
303.15
283.156
285.202
301.093
303.15
303.15
292.308
303.15
283.303
290.626
283.15
297.165
294.652
296.086
303.15
302.716
283.15
302.669
293.448
303.15
303.15
288.802
283.15
303.15
301.814
284.451
303.15
303.15
283.15
302.354
303.46
289.522
299.717
298.037
303.15
303.159
302.61
303.15
283.15
303.15
303.15
303.15
303.15
303.15
303.15
303.15
283.15
303.15
303.15
283.343
303.15
303.333
303.15
303.16
303.15
303.15
300.955
303.68
303.15
292.057
303.15
303.15
283.15
302.563
303.15
302.138
303.115
283.29
283.15
303.15
302.927
283.149
303.15
303.15
291.398
283.15
292.619
283.15
283.15
283.153
291.245
284.85
303.15
296.673
283.15
303.726
303.134
284.323
302.598
283.15
292.196
303.084
301.69
283.15
303.15
283.15
304.079
284.831
296.885
303.15
303.15
303.15
303.15
303.15
303.15
302.354
302.811
297.639
292.072
303.15
287.161
292.671
284.988
303.206
283.15
286.93
302.755
284.784
283.148
287.494
303.15
283.384
302.92
292.561
302.847
301.915
303.15
302.23
303.15
303.15
297.956
303.15
284.482
303.15
303.15
283.15
303.15
303.15
302.847
303.15
283.298
283.15
283.15
285.83
284.913
300.904
286.115
303.15
294.774
303.15
290.479
303.15
287.169
300.699
301.495
293.381
303.15
303.15
303.15
289.817
283.15
303.15
289.571
283.15
283.15
301.834
303.15
286.204
283.148
283.15
303.15
303.15
300.663
298.214
303.15
293.464
303.039
283.15
298.578
303.15
286.425
288.252
302.15
303.15
296.315
296.743
302.955
301.892
301.667
303.15
303.15
303.147
303.15
283.15
303.15
289.575
300.067
294.352
302.14
283.15
300.38
291.428
298.247
283.607
298.35
289.632
302.171
283.15
283.15
283.15
302.217
283.15
290.498
283.15
301.278
303.161
289.728
298.055
283.15
303.15
301.266
301.245
303.15
283.15
303.15
286.439
301.455
302.979
302.344
298.026
288.454
303.15
303.15
303.15
294.276
285.985
289.832
295.91
283.964
302.957
303.15
303.15
283.15
283.15
285.433
299.602
303.15
303.15
283.15
303.15
303.15
303.15
300.276
303.15
285.376
292.574
283.15
283.249
293.395
285.706
303.15
303.15
301.897
303.15
299.254
283.146
297.59
303.15
303.15
283.15
303.15
303.15
303.15
305.229
303.15
301.85
301.12
303.15
303.15
301.631
303.15
283.15
287.265
303.106
303.15
303.15
303.15
297.959
303.15
303.15
302.492
302.495
301.79
303.15
283.15
303.15
302.053
302.515
301.538
302.539
283.15
300.674
287.528
297.466
283.15
303.15
303.15
303.15
303.15
294.397
287.583
299.658
303.15
303.15
303.15
303.15
283.15
303.148
284.787
285.159
283.15
303.15
303.15
283.148
299.611
294.995
283.15
303.15
303.15
303.15
303.15
289.625
289.7
303.15
303.15
302.399
303.15
301.446
283.957
291.898
303.15
283.15
301.165
303.124
303.15
303.094
301.337
286.853
303.15
303.15
303.15
303.15
293.306
284.158
303.15
302.702
298.094
289.521
303.15
303.15
303.15
303.15
299.559
303.151
303.15
303.15
298.291
302.588
288.38
303.15
303.15
297.778
303.15
303.15
303.15
303.15
288.833
303.15
283.15
283.15
295.971
291.125
303.15
303.15
303.15
297.019
303.146
303.15
303.15
303.15
303.15
303.415
300.896
303.15
287.358
302.649
299.41
303.15
303.15
303.15
303.15
283.15
285.679
303.15
302.843
283.15
302.187
303.15
303.134
303.15
283.15
301.928
285.763
283.15
302.83
303.15
302.426
283.15
303.15
303.15
303.151
303.15
283.271
303.15
290.87
283.15
283.15
303.15
303.15
298.86
302.387
283.15
302.428
283.15
284.106
288.025
302.709
283.15
303.155
302.989
303.134
284.405
283.156
302.985
283.15
283.15
283.156
302.089
302.3
303.15
283.15
283.15
295.467
303.15
283.15
303.15
303.15
303.15
303.108
303.047
302.933
302.456
303.15
302.908
303.15
284.831
303.15
303.15
283.15
303.15
303.111
303.15
283.15
303.15
288.335
303.15
303.15
303.17
283.15
302.899
302.14
296.792
303.15
289.446
294.706
283.836
290.075
283.15
283.15
287.229
284.331
283.15
303.798
283.15
286.429
303.15
283.15
303.156
303.15
303.15
303.015
303.155
303.15
283.15
303.139
303.15
283.15
283.105
298.769
302.708
303.15
301.858
303.15
285.718
303.152
301.199
303.15
303.15
301.063
303.15
303.15
303.15
287.712
303.15
285.158
303.15
303.147
303.15
283.15
283.15
303.15
303.15
303.15
288.735
302.556
303.15
303.15
288.619
286.526
291.272
303.15
302.707
287.691
287.554
303.15
303.15
287.729
283.15
291.945
303.15
303.152
303.149
303.15
300.545
283.15
302.309
283.15
303.15
303.15
303.15
303.15
303.15
284.342
302.256
291.087
303.15
303.15
290.618
303.15
303.15
303.15
303.15
303.15
300.175
303.15
303.15
283.15
299.483
303.15
283.15
303.15
301.387
283.15
299.985
290.834
302.69
300.047
299.467
303.15
303.15
303.15
300.852
288.513
283.15
303.15
300.341
303.15
303.15
292.017
303.15
287.505
303.15
297.86
284.328
303.15
283.15
303.15
303.15
303.15
285.268
303.15
300.51
303.15
303.15
299.727
283.15
284.761
303.15
303.15
288.14
301.537
296.459
303.15
303.15
303.15
301.555
292.296
303.15
283.15
303.15
300.69
303.15
284.784
296.341
303.15
303.15
301.155
303.15
303.15
283.15
303.15
283.15
294.608
303.15
283.15
303.15
303.15
303.15
303.15
303.15
303.15
283.15
301.503
283.15
302.089
303.15
303.15
296.095
300.498
303.15
283.15
303.15
300.901
283.15
303.15
303.15
303.15
300.741
303.15
297.703
303.15
285.85
283.15
286.748
303.15
303.15
298.514
283.15
303.15
287.882
283.246
303.15
303.15
285.092
283.854
300.871
301.745
301.203
293.167
301.75
283.852
303.15
297.744
283.15
283.15
303.15
303.15
303.15
301.225
303.15
303.15
303.15
303.13
283.169
283.15
283.561
303.15
302.025
283.15
303.142
296.135
283.15
294.608
303.15
303.15
283.15
299.91
283.932
303.15
283.15
299.936
303.15
297.687
303.15
295.318
303.15
283.15
303.15
283.15
299.436
283.15
283.227
283.15
286.214
303.15
303.15
283.15
283.15
303.15
303.15
303.15
303.15
284.887
284.763
283.15
303.15
283.233
283.15
283.15
303.154
289.897
283.54
283.15
301.514
284.885
300.47
288.201
303.15
303.15
303.15
303.15
283.15
283.15
283.15
303.15
283.15
283.15
303.15
283.15
297.276
283.15
303.15
283.15
303.15
303.15
283.342
283.15
303.15
301.955
303.149
303.15
303.15
303.15
288.738
283.15
303.15
303.149
283.15
303.15
303.15
303.15
295.252
283.15
283.182
303.15
303.15
303.15
303.15
303.15
303.149
303.147
284.109
303.15
283.15
303.15
303.149
303.15
303.148
303.149
283.15
283.15
283.15
303.15
303.15
283.15
303.149
283.15
287.718
283.15
301.825
283.15
303.154
303.15
284.615
283.15
284.457
297.405
303.15
284.699
303.173
303.15
297.413
283.15
303.15
303.15
303.15
303.15
283.15
303.15
303.15
299.179
283.15
303.15
303.15
303.15
303.15
292.332
290.479
303.17
283.165
303.15
301.822
302.321
303.15
283.15
283.15
303.15
303.15
303.15
283.15
283.15
283.825
303.15
303.15
303.196
303.151
283.15
288.883
303.15
283.15
303.15
288.098
303.15
283.15
302.125
283.15
283.15
283.15
303.15
299.695
303.15
303.15
303.15
283.15
284.511
293.631
295.249
289.574
303.121
303.019
283.15
283.15
301.036
283.696
283.15
303.149
303.15
303.15
283.15
294.577
303.15
283.15
302.98
303.15
303.15
283.798
303.15
303.15
288.427
289.578
303.15
283.15
303.15
283.15
303.15
303.15
303.15
303.15
283.951
303.15
303.15
303.15
302.93
303.15
303.15
283.15
283.15
283.15
283.15
302.944
283.15
283.15
300.978
303.15
284.777
284.938
303.15
301.137
303.15
283.15
303.15
283.15
283.15
303.15
303.15
303.15
302.667
303.15
303.15
303.15
283.15
303.15
283.15
286.383
303.15
303.15
291.638
303.15
283.15
283.15
302.424
303.15
303.148
283.15
303.194
286.678
283.15
283.15
299.222
283.15
283.15
303.048
303.161
293.341
303.166
303.151
303.152
283.15
283.15
302.648
283.457
285.852
300.857
283.158
283.15
291.056
301.576
301.473
283.15
300.228
290.704
300.146
302.211
302.753
284.694
295.513
299.228
286.265
293.335
300.117
303.15
297.954
297.596
302.791
283.663
292.388
301.154
287.343
303.15
301.066
303.15
300.722
301.504
283.637
284.989
303.15
283.15
302.28
301.696
283.146
303.173
288.559
302.68
301.858
300.837
303.15
303.23
301.139
295.11
300.426
288.995
302.914
301.632
302.189
302.279
284.22
302.506
301.603
283.181
303.15
302.897
303.15
303.15
302.103
302.01
294.305
303.15
284.678
292.325
292.346
300.96
303.15
284.019
285.201
284.395
303.15
298.801
303.15
296.375
295.399
300.765
303.142
303.15
303.15
301.952
301.271
302.787
303.15
292.629
302.747
289.989
283.15
298.352
294.014
303.15
300.508
283.15
283.204
283.15
302.58
303.099
303.15
302.981
298.412
283.148
300.509
302.227
295.334
283.539
295.879
297.093
283.464
303.133
284.747
296.318
283.32
296.904
300.516
300.264
300.372
302.007
289.881
301.586
303.15
302.722
302.653
302.654
296.492
302.886
283.15
302.021
293.437
303.15
283.436
286.847
301.204
302.601
290.54
284.83
287.722
302.626
296.396
303.15
303.15
295.025
283.15
292.692
283.433
303.15
290.574
290.313
283.916
303.15
297.301
298.492
284.233
301.252
294.183
290.183
300.541
303.107
303.15
303.15
283.536
302.616
283.351
285.808
303.15
303.019
303.038
303.15
285.425
300.795
297.874
283.247
299.583
302.377
300.524
286.922
283.15
303.107
301.826
283.742
283.139
303.15
303.073
303.15
303.15
284.185
302.534
296.375
283.036
283.153
303.15
283.15
302.951
303.045
302.508
301.42
303.15
283.15
283.15
301.828
301.884
283.216
295.872
303.15
303.15
301.627
285.507
283.26
301.689
301.789
301.737
284.413
303.15
283.15
298.464
297.776
303.15
302.706
302.089
284.749
284.983
302.12
303.054
303.15
298.159
284.439
283.15
303.15
300.582
301.231
302.025
289.642
302.081
285.673
300.165
300.27
290.353
297.563
303.15
303.15
300.949
284.473
302.1
283.151
300.522
301.718
283.627
288.313
302.426
283.15
283.15
283.029
303.15
303.15
299.955
298.949
302.293
283.147
283.15
283.942
283.151
283.15
283.152
303.077
300.944
299.197
295.918
283.37
303.099
300.158
303.15
283.15
302.565
289.243
300.797
292.706
283.507
303.061
283.148
283.15
302.839
301.223
302.618
283.156
291.325
284.882
303.15
284.266
301.049
283.15
283.311
284.952
284.207
283.15
283.15
301.647
283.15
289.41
302.534
302.708
301.783
283.484
298.408
290.113
283.15
303.338
292.107
283.15
283.15
283.15
303.15
301.205
302.421
299.185
301.479
299.923
288.884
283.155
291.001
290.172
303.06
291.125
300.007
292.082
283.15
286.309
301.096
301.552
283.15
283.985
299.656
283.15
303.15
283.188
301.291
303.15
284.024
302.262
303.021
303.15
283.15
292.821
303.153
301.703
283.15
283.15
283.15
302.203
297.606
303.143
302.2
303.166
303.15
288.411
303.166
290.456
300.246
300.207
296.621
283.157
301.712
283.15
290.61
301.428
289.495
290.503
299.007
300.715
301.611
287.191
291.155
285.039
283.172
302.225
286.143
283.149
283.144
300.227
283.078
300.322
287.027
296.063
299.461
289.24
299.304
283.121
299.134
283.15
290.022
289.188
298.681
283.331
283.15
300.588
283.15
302.802
283.15
303.15
286.5
286.503
283.15
299.02
298.565
287.071
303.15
303.15
301.742
289.8
303.005
283.731
301.591
287.12
303.147
284.203
288.231
303.15
301.44
283.15
283.15
287.58
287.055
283.145
285.266
301.511
286.264
301.18
303.15
285.133
301.759
291.215
303.15
303.15
301.631
302.054
303.15
293.057
294.295
283.685
296.429
286.82
290.05
303.15
302.801
297.042
285.037
283.15
287.74
291.935
299.671
283.164
283.754
282.938
301.959
303.119
283.151
303.134
303.15
300.58
293.102
298.844
293.882
283.15
291.954
296.033
285.612
283.211
291.759
283.15
300.264
303.164
292.587
284.105
303.144
291.87
298.641
288.269
300.355
291.341
287.354
283.15
303.142
285.358
289.934
293.517
283.15
283.15
283.15
303.141
283.15
283.136
286.452
303.15
283.15
303.166
283.172
291.118
289.08
303.505
302.914
289.897
303.15
297.011
303.175
302.011
287.293
283.15
292.956
303.145
303.095
286.213
283.15
283.15
283.476
286.046
303.055
303.144
287.533
289.5
283.485
283.162
289.873
293.227
303.15
283.15
303.097
303.15
302.338
285.026
302.34
303.094
284.066
283.777
284.045
302.853
302.188
297.399
294
303.071
291.311
291.042
303.15
303.098
302.589
285.453
283.381
303.15
285.958
283.387
302.933
301.669
302.183
283.15
300.35
301.86
303.15
302.163
285.42
303.15
297.924
303.15
283.15
300.696
302.688
286.354
302.495
283.15
285.184
303.012
283.15
302.313
285.383
294.901
284.347
303.15
303.019
302.874
286.52
283.15
287.142
284.261
289.809
285.749
302.259
303.15
283.15
283.15
293.138
283.15
301.05
302.171
290.374
283.15
294.036
283.15
303.15
283.15
300.057
298.587
283.151
285.289
301.724
303.078
303.157
291.887
294.232
301.217
283.213
301.798
283.145
303.15
303.141
299.133
283.15
300.999
294.802
303.15
300.949
287.327
301.949
284.907
288.224
283.15
302.229
287.752
298.428
303.076
283.15
303.15
291.66
302.17
283.076
283.147
286.771
298.368
303.149
284.51
301.042
301.012
301.266
303.153
299.909
287.666
284.935
301.595
299.911
283.732
283.102
303.16
303.149
303.15
297.37
283.163
283.15
303.15
303.149
289.929
298.91
300.277
287.799
302.803
303.15
286.437
301.559
303.15
300.957
283.801
301.466
303.15
284.55
301.381
295.506
302.766
303.15
303.15
285.185
295.087
296.393
287.41
303.15
303.15
283.15
287.226
302.405
296.182
303.15
285.566
303.15
303.15
300.447
288.73
283.15
295.568
295.894
299.064
283.15
303.15
292.676
287.234
303.15
297.967
300.513
300.42
303.15
303.15
303.15
300.228
298.338
302.801
299.897
283.15
292.879
287.685
290.621
300.577
303.15
303.15
300.763
303.098
286.576
296.114
303.15
303.147
283.15
286.446
298.935
285.588
303.15
303.15
283.343
303.123
303.15
303.15
283.15
290.521
303.15
303.15
284.583
299.279
283.15
303.15
284.624
301.332
300.176
286.998
294.926
303.15
283.496
303.15
303.15
283.309
300.537
290.396
300.404
303.15
303.13
302.181
292.684
299.8
301.361
284.453
283.456
300.833
298.399
303.15
302.751
284.136
299.738
301.379
287.705
303.15
297.415
301.408
301.494
301.534
292.878
303.15
283.15
299.186
283.15
283.15
287.753
283.15
284.009
283.15
283.15
283.15
283.15
302.756
288.134
302.703
283.15
295.695
290.933
284.737
283.15
303.15
302.678
301.738
303.166
302.637
283.15
294.82
300.27
290.166
283.15
283.15
299.818
285.933
283.15
283.15
303.149
290.578
283.15
287.152
303.149
303.152
284.315
283.15
288.209
292.555
300.785
294.578
302.958
285.632
302.502
295.244
286.273
283.15
283.538
291.627
303.076
289.14
302.655
283.15
292.361
287.75
301.016
301.247
284.895
303.107
284.91
297.077
302.984
303.147
285.131
303.145
303.005
293.303
302.673
283.15
303.15
303.15
294.765
291.048
283.155
301.103
284.683
284.152
284.617
303.145
288.348
300.464
283.15
283.15
302.506
303.15
294.565
302.901
303.182
299.817
303.221
302.884
283.15
301.292
302.879
283.15
303.15
301.306
303.15
284.311
298.768
283.164
291.52
283.15
287.579
303.014
299.754
283.15
303.024
290.893
301.191
303.127
303.078
283.15
283.15
301.927
301.998
283.8
302.811
302.417
302.372
303.141
283.15
293.718
283.15
302.788
287.864
302.988
303.15
283.15
302.822
285.12
291.467
302.044
283.15
302.583
301.992
301.566
302.484
303.047
303.209
303.01
303.15
283.15
301.509
297.815
303.087
303.15
289.92
284.925
303.15
283.15
285.312
303.184
303.165
302.918
301.134
284.264
303.097
290.65
294.201
303.148
289.042
303.163
283.15
289.834
283.15
299.957
298.127
284.776
288.175
299.612
296.632
295.275
299.165
293.758
303.153
293.807
296.391
283.16
299.376
293.831
303.15
298.905
299.133
303.15
291.185
303.172
301.673
303.15
286.919
285.987
302.8
289.655
283.15
283.15
300.349
301.121
283.72
283.15
303.15
300.221
302.319
300.613
299.864
302.785
292.559
289.624
286.634
292.466
284.305
290.387
283.305
295.673
290.413
293.921
287.087
284.283
303.163
283.272
303.147
285.599
300.714
283.151
300.368
298.36
288.728
302.093
285.399
299.071
283.15
302.952
283.154
283.115
287.701
299.655
303.15
300.333
303.019
299.913
302.76
303.15
301.254
284.953
294.918
302.045
303.149
283.708
283.15
290.302
285.238
285.752
303.132
303.149
283.15
283.15
283.176
303.15
293.448
303.15
303.15
294.396
303.433
303.15
300.403
303.15
303.15
293.654
290.593
303.15
289.818
302.056
289.543
303.15
303.15
285.96
283.334
290.31
303.224
303.15
303.145
285.47
283.248
283.15
288.973
287.598
303.15
284.304
303.15
303.15
303.132
287.324
303.15
303.147
283.278
303.152
302.662
287.903
283.152
283.601
297.302
290.728
303.15
285.909
284.431
301.324
287.107
302.211
290.562
293.845
303.15
303.15
284.009
303.148
302.946
295.837
302.942
302.74
287.168
283.15
285.319
283.218
297.124
302.586
285.376
303.15
283.797
286.709
303.125
283.176
303.15
286.389
283.15
300.097
303.15
299.716
299.898
283.306
283.36
302.323
290.84
301.318
303.15
301.39
301.74
303.15
303.15
298.326
293.415
283.15
288.776
303.15
295.181
283.359
303.15
296.887
298.698
288.972
303.15
302.757
294.206
295.354
284.464
303.161
298.672
296.107
283.981
303.124
302.8
287.374
298.421
289.8
290.786
289.723
283.15
302.945
303.152
303.15
303.174
293.074
296.292
302.976
301.287
303.15
284.447
303.15
303.042
302.857
303.15
293.544
296.206
303.15
285.38
303.096
303.15
303.09
303.157
286.059
293.32
291.099
288.391
293.373
303.15
301.207
291.416
295.345
293.435
303.141
303.15
300.55
303.189
284.244
303.189
303.15
303.15
303.143
303.15
284.944
303.15
284.227
303.146
303.15
290.22
303.144
292.459
295.498
303.134
295.308
285.981
283.446
303.125
302.935
284.678
283.15
297.091
303.15
285.505
302.913
302.036
303.018
298.39
287.058
303.15
298.667
289.887
299.341
283.15
283.615
303.15
303.145
303.19
294.036
303.15
292.416
289.328
303.195
303.15
284.796
298.749
293.213
299.576
302.473
301.575
300.375
303.15
284.716
296.911
302.362
285.59
298.308
292.267
284.469
291.635
303.15
286.66
291.803
290.105
299.428
303.15
286.443
284.088
303.15
302.427
288.129
302.094
283.15
303.15
299.82
301.692
288.994
301.982
301.901
301.809
303.15
289.319
285.129
301.959
302.234
297.133
303.15
283.201
303.15
301.983
303.15
302.801
303.15
291.656
303.15
296.499
283.15
289.449
303.15
283.15
292.162
301.438
300.403
289.186
300.483
303.15
302.492
303.15
302.363
285.21
303.15
300.39
290.387
303.15
300.794
303.15
303.15
293.154
283.15
285.541
293.216
300.912
303.15
291.164
293.852
288.165
289.639
288.097
299.198
300.237
300.784
287.371
287.094