/*--------------------------------*- C++ -*----------------------------------*\
  =========                 |
  \\      /  F ield         | OpenFOAM: The Open Source CFD Toolbox
   \\    /   O peration     | Website:  https://openfoam.org
    \\  /    A nd           | Version:  10
     \\/     M anipulation  |
\*---------------------------------------------------------------------------*/
FoamFile
{
    format      ascii;
    class       surfaceScalarField;
    location    "59";
    object      phi;
}
// * * * * * * * * * * * * * * * * * * * * * * * * * * * * * * * * * * * * * //

dimensions      [0 3 -1 0 0 0 0];

internalField   nonuniform List<scalar> 
109758
(
-3.383e-06
0.00121998
-0.0012166
-0.00125267
0.00128851
-3.58427e-05
0.000104111
-0.00114987
0.00104576
-0.00144005
8.78751e-05
0.00135218
0.00146218
-0.000168267
-0.00125759
-3.63308e-05
-0.000405293
0.000396325
8.96739e-06
-0.00110845
-6.4763e-06
0.00111492
0.00202382
-0.000255901
-0.000384868
-0.00138305
-2.37285e-05
0.000849319
1.44628e-05
-0.000840053
0.000466414
-7.21947e-05
0.000596543
-0.000990763
-3.94142e-06
0.00058648
-0.000582538
0.00187435
-0.00152687
-0.00143887
0.00109139
0.000320887
0.00125916
-0.00143779
-0.00014226
0.00118864
-0.00121938
3.07375e-05
-0.000973842
0.0011081
0.00132793
0.000691338
-0.000946071
-0.000684574
0.000939306
0.000819588
-0.00157363
0.00140328
-0.00064923
0.00148429
0.00024236
-0.00110138
-0.000625271
0.00150005
0.000227957
-0.00121146
-0.000516551
-0.00144003
0.000171265
-0.000108845
0.00137761
0.000215533
-0.000290314
7.4781e-05
-2.64621e-05
-0.00119624
0.000285704
0.000937003
-0.0002755
0.000847583
-0.000572083
0.000251248
-0.000301533
0.00102946
0.00116218
0.000420084
-0.00040542
-0.00117684
1.77043e-05
0.000563462
0.000903126
0.00124139
0.00151639
-0.00194185
-0.00081593
-0.00109119
0.00108136
9.82411e-06
3.44783e-05
0.0011277
0.00149197
-0.00102643
0.000795176
-0.00126071
-0.00146098
0.00152965
-8.42957e-05
1.56222e-05
-4.99121e-05
0.000604445
-0.000554533
-1.45918e-05
0.0008987
-3.47078e-05
-0.000849401
-0.000827276
0.00082418
3.09526e-06
-0.000123742
-0.00131766
0.00110497
0.000336431
-0.00115982
0.00212098
-0.000718807
0.000577708
0.000170584
-0.000748292
0.000198012
0.00103951
-0.00147398
0.000236455
-0.000252274
-0.00111669
8.16769e-06
0.00136079
0.00114054
5.23985e-06
-0.00114578
0.00167388
-0.00110248
0.000734941
-0.00130634
-0.000392233
-0.000504918
0.000676484
0.000220667
-3.4151e-05
3.33253e-05
0.0016747
-0.0014472
0.00142462
1.32292e-05
9.35221e-06
0.000796995
-0.000798021
1.02565e-06
0.000330604
-0.0021499
-0.000329119
0.00214842
0.000997936
-0.000282626
-0.000251219
-0.000464091
-0.00111255
0.00138815
-0.000195406
-8.01934e-05
1.65597e-05
0.00102434
-0.0010409
-0.00224763
0.000142322
0.000187785
0.00191752
0.00107968
-0.000522352
0.000520002
-0.00107733
0.000398925
0.000616715
1.43406e-05
0.00140048
-0.00141482
-0.00105837
0.0010619
-3.53147e-06
-0.00121981
0.00125428
-0.000329719
-0.00175407
-0.000430748
0.00251453
-0.0022828
0.00318359
-0.0006674
-0.000233389
-0.00111413
0.00098302
0.00117062
-0.0010395
-0.00180372
0.000708471
-5.92515e-05
0.0011545
-0.000719188
0.000264235
0.000646977
-0.000192024
-0.00149365
0.00142215
7.14977e-05
-0.00323416
0.000189563
0.0016317
0.0014129
-0.000314137
0.00130139
-0.00124957
0.000262319
0.00156926
0.00151363
-0.00189109
-0.00113806
0.00151552
-0.00190104
0.000921695
0.000514724
0.000464617
0.00139261
-0.00153986
-0.000857909
0.00100517
-0.00147634
9.85652e-05
0.000349146
0.00102863
-0.00112268
-0.000798877
0.000445217
0.00107496
-7.64965e-05
-9.37208e-05
-0.000904747
0.00100617
-0.000591765
0.000373473
-0.000787883
0.00141974
5.18728e-05
0.00060238
-0.00207399
-0.000520771
0.000192532
0.000328239
-0.00211802
0.00134985
0.00158357
-0.000815396
0.000803011
-0.000759561
-4.34504e-05
-0.000625716
0.000197218
-0.00168953
0.000106496
-0.00088122
-0.000283647
-0.000270574
5.59755e-05
-0.000860585
0.00107518
0.00174249
-0.0015831
-0.000333487
0.000174098
-0.00170467
0.00153669
-0.00105183
0.00119817
-0.000811025
-0.00100328
0.00061613
-0.000650734
0.00269959
-0.00135003
-0.000698824
-0.000152319
8.23096e-05
0.00152944
-0.00145944
3.6395e-05
0.00216824
0.000227611
-0.00243224
0.000866617
-0.00157349
-0.000131891
0.000838764
0.00123807
-0.000233154
-0.00089842
0.00012878
0.000991269
-0.00135852
0.000238476
0.000543361
0.00204819
0.000129531
-0.00272108
0.000961856
-0.00113411
0.000180349
-8.09484e-06
0.00065517
0.000735453
-0.00276358
0.00137295
0.000933333
-0.000103678
6.1609e-05
-0.000891265
0.00199179
-0.0014935
-0.00296907
0.00247077
0.00169134
-0.0019046
0.00084478
-0.000631519
2.06061e-05
-0.00159272
0.00146395
0.000108164
0.00164641
-0.00115282
-0.000363099
-0.000130491
0.000889509
2.08735e-05
-0.000910383
-0.00170039
0.000294211
0.00118693
0.000219245
0.00111499
0.000743629
0.000571251
-0.00242987
0.000919003
-0.00165753
0.00114789
0.00249095
-0.00144436
-0.00219448
0.000917306
1.69688e-06
-0.000367578
0.00119374
0.00119914
-0.0020253
0.00105176
0.000300489
-0.000148962
-0.00120329
8.11256e-05
0.000922304
-0.00100343
0.001414
-0.000116829
5.53403e-05
-0.00135251
-0.000577879
-1.89591e-06
0.000579775
-0.00132411
0.00102149
-0.00079876
-0.00023771
0.00179641
-0.0018891
0.000330394
0.000431859
-0.000362765
-0.00145274
0.00138365
0.000287593
-0.000293294
-0.000681617
0.000687318
-0.000368709
-0.000989342
0.00123682
0.000121228
0.000448002
-0.00121952
0.00126882
-0.00049731
0.000927794
0.000283723
-9.27759e-06
-0.00054947
-9.87642e-05
0.000657512
0.000179578
0.000352958
-0.00203726
0.00150473
-0.00131195
0.000166441
0.00134823
-0.000202723
0.000973623
0.000158177
9.90413e-05
-0.00123084
0.000205012
0.000768612
0.00143166
0.000288446
-0.00156193
-0.000766619
-0.000873133
0.00130308
0.000336675
0.00135802
0.000183636
0.000199575
-0.00174123
-0.00146801
0.00125527
-0.000411798
0.000624536
0.00134628
0.000290393
-0.00104608
0.00117846
-0.00108769
0.000955307
0.00146318
-0.000211193
-0.000286439
-0.000965545
4.01782e-05
-0.00160661
0.00174201
-0.000175582
-0.00152932
-3.75664e-05
-0.000422811
0.0019897
0.000938751
0.000505945
-0.00148562
4.09268e-05
-0.00101895
9.45231e-05
0.00089485
2.95744e-05
0.000184213
5.69009e-05
-0.00188305
0.00164194
-0.000930483
-6.08394e-06
0.000936567
0.000193163
0.0013321
-0.00134105
-0.00106141
0.00142124
-0.000773873
0.000414042
-0.00121279
-0.000778002
0.00157816
0.000412637
0.0012743
0.000244272
-0.000722676
-0.000795894
-0.00201022
-2.81407e-05
-0.000282954
0.00232131
-0.00129462
-0.000777602
0.000565878
0.00150635
0.0017766
-0.00174071
-0.000112046
7.61563e-05
-0.000263759
-0.000789097
-0.000701211
0.00146082
0.00108165
0.000271133
-0.00281361
0.00211354
0.000267145
-0.00234429
0.000214728
0.00110499
-0.00131972
3.51872e-05
-0.00108863
0.00105344
-0.00103479
-0.000214741
0.000197575
0.00105196
9.21856e-05
0.00134678
-0.00128485
-0.000154115
-0.00221981
-0.000254856
0.000576582
0.00189809
0.00122521
-0.00129639
0.00110861
-0.00103743
0.000159161
0.000143143
0.000922908
-0.000874116
0.000847539
2.65776e-05
-0.000919716
3.0246e-05
0.00133315
-0.00044368
0.000264245
-0.000672289
-0.000492618
0.000900662
0.00067446
-0.000702073
2.76129e-05
-0.000961838
0.000910027
-0.000218762
-5.08454e-05
-0.00101117
-1.05857e-05
0.0010726
0.00171108
-0.000192195
-0.00108591
-0.000432982
-0.000408181
-0.00186734
0.00250693
-0.000231407
-0.00162342
0.00056217
-0.00135662
0.00151467
-0.000158057
-0.000731649
0.000659114
-0.00102718
0.00109972
0.00054779
-0.000670682
-0.00049764
0.000620532
-0.000920583
-0.00126234
0.00100166
0.00118126
5.03264e-05
0.00141135
-0.000139983
-0.0013217
-0.000358635
0.00170978
-0.000286503
-0.00106465
-0.00159257
0.00134667
-9.64843e-05
0.000342381
-0.00116996
0.00093314
-0.00100747
0.00124429
0.00121541
6.66436e-06
-0.00122207
-0.00180189
0.000389465
0.00176157
-0.000345765
0.00142232
-0.00107655
8.78947e-05
0.00143503
-0.00152292
0.00019794
0.00123675
-0.00189563
0.000460946
-0.000951333
-0.000989108
0.00106162
0.000878821
0.000695145
-0.000200574
0.000511603
-0.00142011
0.00148319
-3.79979e-05
-2.50897e-05
-0.00141765
1.41391e-05
-1.65933e-05
0.000752078
-0.000450905
0.00184954
-0.00215071
-6.86175e-05
0.00180465
-0.00173604
-0.00118323
0.000849688
-6.62039e-06
0.000340163
-0.00090249
-0.0010981
0.00200059
-0.00067471
-0.000253291
0.000928
0.00100451
1.25131e-05
-0.00101703
-0.00159608
-2.56994e-05
0.0013128
0.000308984
-0.000461532
0.000638446
0.000839004
-0.00101592
-0.00176735
0.000484081
0.00082174
0.00172074
-0.00271128
0.000575304
0.000415231
-0.00144947
0.00146293
-3.99045e-05
2.64481e-05
0.00193042
-0.00192966
-1.55397e-05
1.47857e-05
-0.00109042
1.53997e-05
0.000269066
0.000805954
7.6544e-05
-0.0011369
0.00106036
-0.00123426
-0.00175227
0.00118841
0.00179812
0.000148943
0.00161166
-0.000746206
-0.00101439
2.03107e-05
-0.00155706
-2.33023e-05
0.00156006
0.000256089
0.00139847
0.000329887
-0.00198444
0.000203762
0.00139805
-0.00147302
-0.000128798
-7.46636e-05
-0.00109374
0.00137216
-0.000894642
-0.000757636
0.00038496
0.00126732
0.00084157
4.8367e-05
-0.000889937
0.00135829
0.00130376
-0.00157381
-0.00108824
1.70218e-05
-0.00108195
0.00106493
0.000302656
0.000132806
5.8826e-05
-0.000494288
-0.00142033
-2.28069e-05
0.000469829
0.000973306
-0.0010463
-0.000536672
0.00158298
0.000845585
-0.00111025
0.000393716
-0.000129052
-0.00146889
0.000185094
0.00134023
-5.6437e-05
-0.00147999
0.00179846
-0.00141292
0.00109444
-5.87466e-06
-0.000888767
-0.00114272
0.00111068
3.20361e-05
-0.00147854
-0.00077072
0.000145995
0.00210326
-0.000136578
0.0013004
-0.00116382
0.00103751
-0.000815765
-0.000221746
0.000924978
-0.000930853
-0.00111197
-1.88967e-07
0.00111216
0.000508606
0.00138602
-1.33956e-05
-0.00188123
-0.00113552
0.000173039
0.000962485
-0.0012633
-0.000444589
0.0013158
0.000392082
-0.00190956
0.000262482
0.00186419
-0.000217114
0.000944202
-0.000916804
-2.73982e-05
-0.000726224
-0.00101909
0.00390905
-0.00216374
-0.00148232
0.000543019
-0.000373408
0.00131271
-0.000750757
-0.000179459
-0.00117524
0.00210546
-4.27516e-06
2.7005e-06
0.0013069
-0.00130533
0.00070818
-0.00209702
0.00285937
-0.00147053
-0.00121625
0.00121198
0.0015571
0.000401068
-0.00190737
-5.07947e-05
0.00108531
0.000148551
-0.00136322
0.000129356
0.000950367
0.00044537
-0.00159419
0.000198448
0.000903569
0.00018174
-0.000541834
0.00169144
-8.92249e-05
-0.00106038
0.000326682
-0.00148646
0.00190081
-0.000741026
-0.00167248
0.000121919
-4.30184e-07
0.00155099
0.000971231
0.00374566
-0.000594272
-0.00412262
0.000450128
0.000343065
-0.000596686
-0.000196506
0.00031016
0.00112362
-0.000508284
-0.000925494
-0.000905628
0.000884298
-0.000520505
-5.04959e-06
0.00169153
4.95331e-06
0.00133531
-0.00135025
0.000213995
-0.000199057
0.000316187
-0.000105639
0.000806868
-0.00101742
-0.00130087
0.00126672
0.000182708
0.000392563
-0.00076865
-0.000879944
0.00125603
0.000542001
0.00150815
-0.00150679
0.00112912
-0.00147854
0.000199696
0.000149715
0.00111297
2.05752e-07
-0.00111318
0.00242811
-0.00249724
0.00202064
-0.00195151
0.000370273
-0.000955465
-0.00047658
0.00106177
0.000384902
0.000204412
-0.00163411
0.000974009
-0.000580734
0.00124083
-0.00200265
0.000452157
0.00168509
-0.000134595
-0.00156248
-0.000862455
0.00313311
-0.000158059
0.00191764
-0.000634655
-0.00112493
0.000924594
-0.000466555
0.00171247
-0.00217051
0.000184422
-0.000870259
0.000741011
-5.51738e-05
-0.000382679
-0.00125564
0.00144248
0.000195842
0.00108111
-0.000611846
-0.000439659
-2.96043e-05
0.000548062
0.000229696
0.000290572
-0.00106833
-0.000776212
0.000995619
-0.000219408
0.000889421
-0.000828531
0.000123532
3.0515e-05
-0.0013578
0.00132729
0.00104324
-0.00121553
-0.000210385
0.000264629
0.00118145
-0.000265083
-0.001181
-4.01404e-06
-0.000963831
0.000967845
0.000524868
0.00161287
-0.000883498
-0.00125424
-8.85797e-05
-0.00062704
-0.000427511
0.00114313
-0.00029472
-0.00162191
1.08234e-05
0.00190581
-0.00102994
0.000416975
0.00125933
-0.00064636
7.62323e-05
0.000967006
-0.000857673
0.000933906
0.00092614
0.000247572
9.97243e-05
-0.00127344
-0.000489271
0.00218877
-0.000142403
-8.90923e-05
-0.000621728
0.000566741
0.00014408
-0.000206147
0.00243519
-0.000115509
0.00197589
-0.00102622
-0.000424804
0.0022537
-0.00027544
-0.00120945
0.00180749
-0.0003226
-0.00228006
0.00191523
0.000936725
-0.000571887
5.77267e-05
0.00104783
0.000870329
-0.0010039
-0.00131882
0.00139224
-0.000716492
-0.000988295
0.00190979
-0.000205007
0.000740361
0.000843266
-0.00158363
2.62045e-05
0.000168854
0.00222426
-0.00241932
-0.00117463
0.000992975
0.00144025
-0.00125859
0.00135765
-0.00214586
0.00172481
-0.000936604
0.000449863
-2.28596e-05
-0.000427004
-0.000923933
-0.000517181
0.000171924
0.00126919
-0.00047373
-0.000679156
8.9452e-05
0.00117075
-0.000968916
-0.000291289
0.000984322
-0.00102499
4.06665e-05
0.000109606
-0.00130637
0.00137843
-0.000181662
0.00114614
-0.00282831
0.00139764
0.000284527
0.000655428
-0.00087432
0.000218892
0.00086755
-0.000111069
-0.000859825
0.000103344
-0.000174029
-0.00286966
0.00259049
0.000453198
-0.00113355
0.000194887
0.00132082
-0.000382155
-0.00118631
3.81992e-05
0.00114811
0.00118295
0.000200053
0.000785235
-0.000590186
-4.9028e-05
0.00152863
0.000102828
-0.00168149
0.00140463
-6.40065e-05
0.00116675
-0.00110274
-0.000816958
0.000505904
0.00135506
-0.001044
-0.000186015
0.00155272
-4.38791e-05
-0.00132282
-0.000187247
0.00144231
-0.000975394
-0.000279672
-0.00100248
-2.22585e-05
0.00118143
-0.000156694
0.000832427
-0.0017401
0.000949971
-4.22936e-05
-0.000891561
0.000696973
-0.000716466
0.000911054
0.000863738
3.41368e-05
-0.00010088
0.000132413
-0.00125903
-0.000303375
0.00143
-0.000258128
-0.00138331
0.000618329
0.00102311
0.000493543
-2.1028e-05
0.00113432
0.000275035
-0.00138833
0.000581736
-0.000410091
0.00117228
-0.00134392
-0.000751426
0.000930936
0.00124242
-0.00142193
0.00203439
0.000510698
-0.00205155
1.51076e-07
-0.00121047
0.00121032
7.49163e-06
-0.00122642
0.00127537
-5.64374e-05
2.39217e-05
0.00131066
-0.00117893
-0.000155654
0.000394341
-0.00198937
-6.49566e-05
0.00165999
-0.00110095
0.00132101
-0.000220053
0.000202263
-9.24295e-05
0.00132591
-0.00143574
-0.00102586
0.000227835
-0.000709006
0.00107355
-0.00143077
0.00106623
-0.000327224
-8.10717e-05
0.000408296
0.00324053
-0.00158162
-0.000703458
-0.00095545
0.00130479
0.00334327
-0.00140753
0.00216302
-0.00199884
0.000188993
0.00110084
-0.000852261
0.00121911
-0.000386493
1.96403e-05
-0.000251256
4.79204e-05
0.00178691
-0.00125107
0.00047098
0.000960732
-0.000180646
-0.00105227
0.00174108
0.000130785
0.00122123
-0.00139806
0.000708614
-0.000531783
0.000181377
0.00245661
-0.00243572
0.000735104
6.3816e-07
-0.000735742
-4.01537e-07
-0.000956661
0.000957062
0.00170507
0.000137887
-0.00038159
-0.00146137
0.00221028
-0.000712129
-0.000935352
-0.000562803
-0.000139595
-0.00280367
0.000846246
-8.61258e-06
-0.000679289
0.000687901
0.00147047
-0.00134926
-0.00133356
0.00121235
0.00106481
0.000444018
-0.00125274
0.000864083
-0.000532512
-0.00131812
0.000986554
-0.00104284
-9.4713e-06
-0.000803453
0.00185576
-0.00159305
-6.8139e-06
0.00159986
0.000993009
9.37592e-05
-0.00105662
-3.01469e-05
-0.00127231
-2.08148e-05
0.00129313
6.42884e-05
0.00107033
-0.00113462
-0.000782619
0.00173422
-0.000125978
-0.00082562
-0.00187848
0.00226238
0.00142709
-0.00181098
0.000901213
0.000769383
-0.00020843
0.00133807
-0.000865018
-0.000264626
-0.000229927
-7.797e-05
-0.00115532
0.00146322
0.00130449
-0.00114735
0.000912635
-0.00106978
-0.00123773
0.00128824
-5.05062e-05
-0.00151432
0.000253323
0.00130058
-3.95805e-05
-0.00264266
0.000528642
0.0020104
0.000103613
0.00026098
-0.000334903
-0.00130878
0.00138271
0.00190151
0.000181185
-0.00109221
-0.000990491
0.00103424
-0.000786668
-0.00104147
0.000793906
0.00119109
1.19133e-05
-0.00120301
0.000109765
-0.00202604
0.00148273
0.000433537
0.000752767
0.00044891
-0.000300464
0.000273722
-0.000881853
0.00128578
-0.000677652
-0.00054533
0.00052951
-0.000121954
0.000137774
-0.00362618
0.00437318
0.00141028
-0.00215728
0.00181972
-1.1887e-05
-0.00181892
1.1093e-05
9.1381e-06
0.00146349
-0.00157284
0.000100206
-0.00219281
0.00192113
-0.000510942
0.000974487
0.00121972
-0.00110397
-0.00109023
-0.000967718
-6.94974e-05
-0.000105247
0.00114246
0.00101053
5.27156e-05
-0.00106324
0.00128826
-7.107e-05
-0.00121719
-0.0022776
0.00214628
8.44916e-05
4.68217e-05
7.03817e-05
0.00146805
-7.16707e-05
-0.00146676
0.000909464
0.000458541
-0.00297749
0.00160948
-0.000630634
0.000630641
-6.95262e-09
0.000924173
2.11702e-06
-0.00092629
-4.71786e-07
-0.000556876
0.000557348
-0.000530769
0.00108032
0.000725904
-0.00127546
3.53812e-06
-0.00114345
0.000897104
0.000242807
-0.00128319
-0.000526048
-0.000468357
3.2554e-06
-0.000888554
-0.000132238
0.00101754
-0.000687398
1.28516e-05
0.000674546
0.000235013
0.000729256
-0.000237595
-0.000726674
0.00050284
-0.000895074
0.000392234
-0.000243039
-0.000833083
-0.000310436
0.00138656
0.000709518
0.000940559
0.000138618
-0.0017887
0.00185642
-0.000675183
-0.000601582
-0.000579656
-6.80686e-05
-0.00153317
0.00178691
-0.000185674
0.000736272
0.000387917
0.000211605
-0.00133579
0.00232029
0.00103343
-0.00217624
-0.00117748
-2.8438e-06
0.000587582
-0.000584738
-0.00137318
4.09349e-05
0.000317671
0.00101458
-0.00134582
-0.000149407
0.00153109
-3.58638e-05
0.000374583
-0.000468968
0.0019141
-0.000476426
0.000629254
-0.000152828
0.000937426
2.69476e-05
-0.000964374
0.000194377
0.00012238
-0.00123665
0.000919894
0.00131822
-0.000129715
-0.00122656
3.80561e-05
-0.00111348
-6.57591e-07
0.000237684
0.000322127
-0.00146135
0.000901537
-0.00135678
9.78408e-05
0.00125894
-5.32595e-05
-0.000949218
-0.000123765
0.00208952
0.000147241
-0.002113
0.00111651
-0.0011825
6.59893e-05
-0.00119418
0.00118139
1.27877e-05
0.00095959
-0.00108336
0.000262533
0.000876313
0.0010891
-0.00222794
-0.00117262
-0.000640136
0.00181276
-9.0763e-06
0.000836214
-0.000827138
-1.96093e-05
-0.000909527
0.000929136
0.00111446
-0.00110763
-6.82604e-06
-0.00123532
4.7385e-05
0.001242
-5.40627e-05
0.000302128
-0.00139068
0.00106209
0.000693691
0.000583371
-0.00233813
0.00106106
0.000721231
4.94309e-06
-0.000726174
4.73483e-05
0.00136519
-0.00141254
0.00067203
2.42966e-06
-0.00153956
0.00137049
0.00129891
-0.00112983
-0.000969586
0.000122881
0.00124341
-0.000396709
0.00169647
-0.00244432
0.000590929
0.000156925
-0.00219004
0.000487964
-0.00104582
0.00115609
-0.000110267
2.54579e-05
-0.0011596
0.00113414
-0.00100317
-1.98317e-05
0.00102301
-0.00117457
6.31827e-06
0.00116825
0.00112364
-0.00123203
0.000108393
1.46878e-05
0.00173468
-0.00174937
-0.00025688
-0.000234228
0.00124388
0.00123783
-0.00129281
-0.000883968
0.000938954
-0.000698732
0.000127467
0.00135648
-0.000785217
0.00066694
-0.00156868
-0.000101432
-7.28829e-05
0.00153347
-0.00146058
0.000454899
0.000424167
-0.000580047
-0.00029902
-0.000706414
0.0011582
-0.00139177
0.000939988
-0.00112438
-0.000426991
0.00155137
0.002276
-0.0014032
-0.000872803
-0.000432103
0.00163507
0.00107133
-0.0022743
-0.00118642
0.00143896
-0.0014358
0.00118326
0.000508868
-0.000382363
-0.000584545
0.000458041
2.12474e-05
-1.36337e-05
-0.00127994
0.00127233
-0.000121295
-0.001801
0.00192229
0.000404991
5.33164e-05
-0.00152678
0.00106847
-0.00150306
0.00116644
0.000336618
-0.000702811
-0.000351915
0.00101383
4.08974e-05
-0.00099103
0.00098599
5.03975e-06
0.000963429
-0.000814834
0.00120905
-1.03602e-05
-0.00157777
0.00158068
7.44862e-06
0.00304722
-0.000787985
-0.00152945
-0.000729783
-0.000471198
0.00166281
8.07895e-06
-0.00119969
-0.000550211
0.000819091
0.000457425
-0.000726304
-0.00132476
0.000778042
0.00137622
-0.000829504
0.000727332
-0.000868492
-0.000339448
0.00150751
3.97671e-05
-0.00120783
0.000906331
-0.000999647
0.000103557
-0.00213752
2.41071e-05
-2.11197e-05
0.00213453
-0.000297259
-8.38383e-05
-0.000799606
0.0011807
-0.00108437
0.00139481
-0.00110854
0.000798095
-0.00247904
-0.000334654
0.00260755
-0.00160746
2.28464e-05
0.00160916
-2.45448e-05
0.00100648
0.000162808
-0.000678803
-0.000490487
-0.000317504
-0.00123368
0.000655595
0.000895593
0.00106764
-0.000418618
-0.00140721
0.000758181
-0.00138748
-0.000357565
-3.10332e-05
0.00177608
0.00111013
-0.000136197
-0.00101856
4.46333e-05
0.000940105
-0.000944199
4.09411e-06
-0.000745461
0.00242683
-0.00201613
0.000334763
0.00015632
0.00143143
-0.00230352
0.000715773
-0.000945323
-0.00030778
0.000993443
0.000259659
0.00033011
-0.000316893
-0.00095854
0.000822378
3.316e-05
0.000161055
-0.00101659
-8.80594e-05
0.000615804
-0.00266527
-0.00138856
2.8488e-05
0.00178203
-0.000421955
-0.000995179
0.00116129
-0.000166109
0.00048978
-0.000459335
-0.000649086
0.000618641
-0.000700636
-0.00128679
0.000808957
0.00117847
-0.000577185
0.00179592
-0.000661461
-0.000557272
-0.00148021
1.02865e-05
-0.00129568
0.0016155
-3.93029e-05
3.4663e-05
-0.00128145
0.00128609
0.00123742
0.00132697
-0.00141025
-0.00115414
0.000982105
-0.00101301
3.09036e-05
0.00125367
-7.85471e-06
-0.00124581
0.00106974
-0.00124165
0.000351299
-0.000179384
-0.000312044
-0.00091518
0.00222067
-0.00164466
0.00141175
-0.000212794
0.000445708
0.000547229
-0.00074454
0.00176741
-0.0015701
-0.00157591
-0.00114981
0.00187379
0.000851929
-8.45361e-05
-0.00173661
0.000176488
0.000274851
-0.00144883
-1.18715e-05
0.00118585
0.00133501
0.000351587
0.0018088
-0.00158399
-0.000594366
0.000369564
-0.00133912
0.00132917
0.00108383
-0.00107388
0.00101458
0.000503208
-0.00115184
-0.000365953
0.00050851
-0.00111703
0.000927752
-0.000319228
0.00139175
-0.00114098
-0.00181296
0.00156219
0.00145934
-0.00162443
8.05484e-05
-0.000901039
0.000905043
-4.00403e-06
0.000112622
-0.000102105
0.00151071
-0.00180489
0.00170267
-0.0014085
0.00111973
-0.00100711
0.00113742
-0.00122999
-3.76005e-05
0.000130169
-2.44465e-05
-0.000519487
0.000543933
-0.000123567
-0.00103692
0.00124385
-8.33599e-05
0.00191011
-0.00171908
0.000135771
-0.000326801
0.0002043
-0.0022669
0.00018412
0.00169608
-0.001736
-0.000187504
0.000227434
0.000371551
0.000279054
0.000461246
-0.00111185
-0.000100996
0.000948677
0.000923881
-0.00177156
-8.04611e-05
-0.00117135
-0.000325271
0.00157709
-0.000570288
0.00170888
-0.000464652
-0.000673943
-0.00106834
0.000453079
0.00168499
0.00104583
-0.00211868
0.000232273
0.00084057
-0.000305326
7.13944e-05
0.00193001
0.00031305
0.00142705
-0.000488621
-0.00125148
-5.17739e-05
5.38958e-05
-0.00123903
0.0012369
0.00185861
0.00010445
-1.30836e-05
-0.00194998
0.00103639
0.0004541
-0.000412051
-0.00107844
-0.00112279
-0.000479897
0.000534345
9.19243e-05
0.000648199
-0.000657838
-8.22848e-05
0.000189502
1.63496e-05
-0.0014475
0.00100858
-0.000527316
-0.000136939
-0.000344329
0.000148167
0.000701588
-9.81243e-05
-0.00075163
-0.00112209
0.000962972
0.00120495
0.000743306
-0.00323126
0.000629967
0.00185799
0.000176844
-2.98018e-05
3.30053e-05
0.00127206
-0.00127526
0.00220462
-0.000708033
-0.00073218
-0.000764403
-0.00107605
1.36919e-05
0.00147784
-0.00041548
-0.000136304
-0.00103831
0.0012523
-7.76847e-05
0.00104301
-0.00142212
-0.000694697
0.0010738
-0.000986756
0.000958601
2.81542e-05
-2.94789e-05
0.000952363
-0.000922884
-0.000466133
-0.00109054
-0.000402455
0.00195913
-0.000810643
0.000906416
-9.57732e-05
-0.000152961
-0.00132768
-0.000334602
0.00181524
-0.0023432
0.000863873
-0.00127881
0.00275815
-0.0016039
3.71484e-05
0.00156675
0.000757879
0.000839146
-0.000810993
-0.000786032
0.000976152
-0.00055923
-0.000184669
-0.000232253
0.00130379
2.84228e-05
-0.00133221
0.00124572
-0.00372526
0.000136337
0.000845565
-3.13723e-05
-0.000814193
-0.00144436
-0.000573027
0.00194079
7.65958e-05
-0.000876887
0.00452869
-0.00277259
-0.000879207
-0.00263805
0.00317648
-0.000465195
-7.3229e-05
0.00157689
-0.000908963
0.00219144
-0.000771823
-0.00168096
0.00248287
-3.00915e-05
-4.83331e-06
-0.000121779
-0.000680353
0.000806965
0.0014885
0.00190702
-0.00216873
-0.00122679
-0.00152949
0.00180826
0.000496105
-0.000774872
0.00169574
-0.000310942
-0.000663192
-0.000721609
0.000145212
-0.00108546
-0.000188397
0.00112864
-0.00322222
9.97331e-05
0.00164919
0.00147329
-0.000591311
0.00225046
-0.000872471
-0.000786676
0.000382041
-0.000937503
0.00178659
-0.00123113
-0.000193152
-0.000553015
0.00104585
-0.000299679
-0.000918781
0.000977612
-6.24484e-05
3.61712e-06
0.00160064
-0.00180676
-8.67135e-05
0.000292838
-4.87328e-05
-0.0015958
0.00160843
3.61093e-05
0.000130408
-0.00011628
-0.00152643
0.0015123
0.0022087
-0.000362552
9.40425e-05
-0.00194019
-0.00145324
-0.000305387
0.000372923
0.00138571
0.000491611
-0.000491626
1.51799e-08
0.00108931
-0.000741139
0.000726793
0.000226324
0.00208679
-0.000124772
-0.00218835
-0.000332871
0.000223334
0.000277718
-0.000168181
-0.00162885
-0.00202537
0.002928
-0.00115806
0.00132611
0.00126298
-0.00143103
-6.50198e-05
0.00129213
-0.0016301
0.000402987
-0.00123954
-0.00129809
-8.23623e-05
-0.000334376
0.00171482
-7.02272e-06
-0.000660542
0.000667565
-7.59764e-06
-0.000952226
0.00221979
-0.00125996
0.000650554
0.000916149
0.00163426
-0.000818646
7.64497e-05
-0.000892069
0.00071787
-0.000199439
-0.00119857
0.000680142
0.000901561
4.2908e-05
-0.00137384
0.000429369
-0.000648996
0.000537515
0.00203442
-0.00192294
0.00174326
0.00124581
0.000163173
-0.00315224
-0.00155844
-9.83843e-05
0.000315742
0.00134108
-0.00130656
0.00139168
-8.51197e-05
-9.11263e-05
0.000865385
-0.000129782
-0.000644477
-0.00026796
0.00055118
-0.00028322
0.00109027
0.00154931
-0.000695662
-0.00194391
0.000933169
-0.000934026
8.56489e-07
-0.00264368
0.000617085
0.00147719
0.000549404
0.00010717
-4.72252e-05
0.00128426
-0.0013442
0.000822249
3.40141e-06
-0.00082565
0.0016888
-0.00187529
-0.00120429
0.00139078
-0.00148671
-0.0028719
0.00171493
-0.000290493
0.000187636
0.00119565
-0.00109279
-0.000512318
0.00155843
-0.000164336
-0.00088178
0.000320285
-0.000846602
0.00124419
0.000973899
4.67236e-05
-0.00102062
0.00289241
-0.000699374
0.000171908
-0.00236494
0.00109293
0.000312774
0.000699756
-0.00167179
0.000803473
0.000168562
-0.00175984
4.98127e-05
0.00131951
0.000390516
-0.000328083
-0.000724072
0.000766988
0.000285166
0.0010313
-0.00132786
0.000296557
-0.000365139
-0.000709917
0.00107506
0.000910568
-0.000589651
-0.00103368
0.000712767
-0.000390017
-0.000216998
0.00156008
-0.000953066
-0.000766339
-0.00122496
0.00094776
0.00104354
-0.0015052
0.0013744
-2.53284e-05
0.000156125
-8.78075e-06
-0.000928722
-0.00022501
-0.000820704
0.00103525
1.04681e-05
0.00156999
-0.00147642
0.000428705
-0.000522275
0.00238293
-0.00237115
0.00108114
-0.000415454
0.000456059
-4.06043e-05
-0.000871001
0.000859696
1.13053e-05
-7.87363e-05
0.0010904
0.000372508
-0.00138418
-0.000691267
-0.00108915
-0.000429697
0.00221011
-0.000645516
-0.000496061
0.00224166
-0.00110008
0.00110985
0.000297603
-0.00148619
-0.00021439
0.00165447
-0.000752239
-0.000687841
0.000235181
-0.00109263
-0.00047889
0.00133634
-0.000304484
0.000187166
-0.00152329
0.00164061
0.00151748
-0.00109889
-0.000839956
-0.000626504
-0.000186899
0.00165336
0.000452944
-0.000229811
-0.000227014
3.88135e-06
-0.00177937
0.00207583
-0.00021145
-8.50021e-05
0.000581181
0.000641814
-0.00061088
-0.000612115
-0.000244574
0.0012686
2.6666e-05
-0.00105069
0.00141763
6.04669e-05
-0.00126686
-0.000211235
-0.000174523
-0.00174076
-0.000431377
0.00234666
-0.00015028
0.00125957
-0.00110929
0.00152475
0.00129503
-0.00173589
-0.00108389
0.00101109
7.62755e-07
-0.00101185
0.000111313
-0.00133188
-0.000333241
0.00155381
0.00238337
-0.000340056
-0.00112024
-0.000923074
3.39296e-05
0.00239627
-4.68251e-05
0.00117146
-0.00111949
-5.19674e-05
-0.000421766
-0.000821536
0.0012433
0.00217765
-0.000581111
-0.00136858
-0.00101852
-0.000995939
0.0016744
9.4809e-05
0.000402982
-0.0015721
0.00107431
5.65044e-05
-0.00135669
0.000848713
0.000451474
-6.63061e-06
0.00118251
6.85718e-06
-0.00118274
-0.000230247
-3.16525e-05
-0.00111783
-0.000294171
0.001412
-1.90057e-05
-0.000970251
0.000989256
0.00207625
0.000157715
-0.000133202
-0.00210076
0.000869589
-0.00161068
0.000388196
0.000352898
0.000548518
1.34317e-06
-0.000549861
-0.00158318
0.000258324
-6.39376e-05
0.00138879
0.000566923
4.19018e-05
0.00123645
-0.00184528
-0.000582827
0.000629056
-0.00174774
0.00170151
0.000174486
-0.000229341
-0.00163484
0.0016897
0.00116274
-0.00108619
-0.00249665
0.000284753
0.000736539
-0.000751329
-0.00076202
0.00077681
-0.000672316
0.000675192
-2.87624e-06
-0.00159847
-0.000564556
0.00239538
-0.00034323
-0.00148759
-0.000931588
-0.000283282
0.00126393
-4.9055e-05
0.000268459
0.00151826
-0.000581403
-0.00120532
-0.00300911
-0.00252846
0.000197111
0.00242342
-9.2069e-05
0.00017995
0.000129608
-0.00104302
0.000733465
0.00166676
-0.00153987
-0.00171993
0.0012151
0.000348062
-0.00156316
0.00173162
-0.000320205
-0.00123907
-0.000172342
-0.00103542
-5.73678e-05
-0.000699103
0.00179189
0.00170074
-0.00143859
-0.000506298
0.000244152
7.5213e-05
0.000527002
-0.00162513
0.00102292
5.60281e-06
0.000884281
0.000135157
-0.00102504
-0.000824991
0.00105043
0.000296725
-0.000522167
1.23361e-05
0.00145331
-1.14908e-05
-0.00145415
-0.00109796
0.00111029
-0.00102338
-2.28644e-06
0.00102567
-0.00167007
-0.000154241
0.000417878
0.00140644
0.00117466
-0.00114862
0.000687409
-0.000713443
0.000289881
0.00102039
-0.00110177
-0.0002085
-0.00141381
0.00206931
-0.000238202
-0.000417303
0.000823453
-0.000786867
-3.65861e-05
1.60545e-05
0.000652584
0.0017143
-0.00138145
0.00117765
0.000507076
-0.000303273
-0.000340574
0.00075888
-0.000418306
-3.54427e-05
0.00118654
-0.0011511
-0.00185958
0.00070534
0.000361744
0.000792492
-0.00334
0.00243423
0.00092183
0.00247912
-0.000296436
-0.000424098
-0.00175859
0.000991697
0.000121636
0.000634621
-2.94361e-05
-0.000665033
5.98476e-05
0.000686738
-0.000538571
2.68053e-05
-0.00159544
0.00156863
-0.00275521
0.00197001
-0.000875204
0.00211122
-0.00142882
0.000192807
0.00144122
-0.00194934
0.000602921
0.00110791
-0.00202366
0.000390128
0.000525624
-0.0010291
0.00123602
-0.000206916
0.00214738
0.000449573
-5.27664e-06
-0.00259168
-0.00103168
0.00104053
-8.84981e-06
0.00280674
-0.00251563
0.000324699
0.00166339
-5.42778e-05
-0.00160911
0.00119367
-0.00121683
2.31585e-05
-0.00119338
0.000134076
0.00105931
-0.000459969
-0.00112922
0.000395806
-0.00244196