/*--------------------------------*- C++ -*----------------------------------*\
  =========                 |
  \\      /  F ield         | OpenFOAM: The Open Source CFD Toolbox
   \\    /   O peration     | Website:  https://openfoam.org
    \\  /    A nd           | Version:  10
     \\/     M anipulation  |
\*---------------------------------------------------------------------------*/
FoamFile
{
    format      ascii;
    class       volScalarField;
    location    "59";
    object      SgP;
}
// * * * * * * * * * * * * * * * * * * * * * * * * * * * * * * * * * * * * * //

dimensions      [1 -1 -3 -1 0 0 0];

internalField   nonuniform List<scalar> 
59698
(
0.00309514
0.0018392
0.00231272
0.00271411
1.14786e-06
0.00145199
0.00249692
1.07328e-07
1.98504e-09
3.91802e-09
0.00058648
1.78485e-09
1.58489e-09
0.00228617
2.77681e-08
4.27258e-07
9.40979e-09
3.82846e-09
1.63028e-09
5.97727e-10
0.000365622
1.56173e-06
0.000499533
8.81908e-08
2.03771e-07
1.20464e-09
1.17386e-09
0.00248139
0.00239456
2.10303e-09
1.35376e-07
0.000600618
6.69392e-08
0.00403477
1.11142e-06
3.81675e-09
0.000465203
5.06538e-07
1.78066e-08
0.00245351
2.95495e-08
2.30466e-07
2.30961e-08
2.4599e-08
0.000402109
1.04684e-07
2.66568e-09
4.88316e-08
0.00290841
3.14796e-08
2.97224e-10
2.33404e-09
0.00172824
0.00272945
0.00216791
2.03801e-09
8.46327e-08
1.55848e-08
1.77271e-08
2.75972e-05
0.00178292
6.29538e-08
1.98785e-07
1.51658e-09
4.96838e-07
4.16659e-08
1.75198e-09
3.24728e-09
4.19596e-09
6.78335e-09
6.17269e-07
2.80381e-08
0.000359957
1.82641e-06
0.000411952
1.11171e-06
2.15366e-08
2.18582e-08
6.40629e-09
1.0423e-08
4.81022e-07
9.94264e-10
4.05308e-09
8.02464e-09
1.69392e-05
3.13775e-08
9.16272e-09
2.2202e-07
2.34715e-06
2.31456e-08
4.51732e-09
6.35834e-08
1.70324e-07
6.53245e-09
6.04438e-08
0.00359103
1.36428e-07
6.1978e-08
4.9375e-08
8.5999e-10
0.00353783
2.08053e-05
2.95291e-07
0.00329261
5.34027e-08
0.000564776
2.33062e-09
2.27911e-09
2.68155e-09
4.40574e-10
3.71018e-08
2.62639e-06
1.35703e-06
1.56283e-07
9.92867e-08
3.57931e-08
3.55148e-07
0.00359682
2.97691e-07
1.14592e-08
2.35297e-09
2.98356e-07
2.29833e-07
3.56122e-09
1.68019e-09
8.09214e-09
8.37693e-09
7.20953e-09
1.32827e-08
3.99722e-07
0.00335579
3.99656e-09
1.10528e-09
1.79536e-07
6.30446e-08
3.23762e-09
5.08615e-07
2.1587e-10
1.72551e-09
5.7001e-09
2.08145e-08
0.00231724
0.00252089
1.58038e-09
1.97263e-07
7.93015e-10
5.5442e-07
3.92564e-07
0.00464375
7.03874e-07
0.000257351
0.000434379
2.77741e-08
2.63856e-07
9.13089e-09
1.04639e-07
7.39646e-09
0.00163482
6.71459e-08
5.83034e-10
3.11974e-09
7.92023e-09
2.22261e-08
9.7055e-08
1.88859e-08
0.00222843
1.05457e-09
0.00056738
0.00152526
6.92247e-09
2.55657e-07
1.49287e-06
2.17525e-07
9.25805e-07
5.7785e-07
0.00121906
4.40437e-09
0.00139573
0.000326019
0.00293173
2.2567e-06
7.41452e-07
3.99959e-07
1.16383e-08
2.49015e-07
6.81e-08
3.70894e-07
0.00238052
1.41773e-10
1.83579e-08
6.42127e-09
7.06408e-09
2.30165e-08
6.05793e-07
1.21912e-07
0.00416749
1.8489e-06
0.00294389
1.26637e-05
9.10004e-08
0.000227114
6.75642e-07
1.47707e-09
2.51647e-09
0.00356722
0.00244692
3.60881e-08
0.00205807
0.0027077
0.00350258
0.00242678
6.10528e-09
0.0026274
1.56781e-08
2.34658e-09
0.00347889
9.87477e-09
4.54728e-08
1.55165e-07
4.66153e-09
1.37001e-05
0.00217428
1.72897e-09
5.09516e-07
8.90894e-09
0.00274673
2.11832e-08
5.48666e-09
4.88656e-08
6.80315e-07
7.55678e-09
1.87041e-08
7.44066e-09
1.13699e-08
9.78995e-09
9.31042e-09
3.07483e-07
1.95515e-08
1.76473e-07
8.17952e-09
0.00270475
1.1904e-07
3.42555e-08
0.000664542
8.80258e-09
2.15164e-07
2.30434e-05
3.51323e-06
5.28155e-09
4.95056e-09
6.12883e-08
6.29552e-09
3.11147e-08
0.000233555
1.91633e-08
0.00169893
1.10082e-07
5.41382e-08
0.00314713
2.96843e-09
7.36637e-06
1.80501e-09
7.83586e-09
0.00270861
0.00357788
8.58054e-07
1.08798e-09
1.0732e-07
1.97553e-08
6.1507e-10
3.12734e-09
1.53943e-06
6.89753e-05
6.83237e-10
1.25389e-07
5.01503e-08
0.0015163
3.97728e-08
2.94155e-09
1.21628e-09
0.00057413
1.78122e-09
1.66528e-09
4.72044e-07
0.00334909
1.02066e-07
5.2761e-09
0.00064753
3.82834e-07
1.00499e-07
2.74594e-06
0.00232504
9.25696e-09
1.35461e-09
7.03738e-07
0.0027324
4.69244e-10
1.52265e-07
1.44946e-08
6.4349e-07
3.08033e-09
2.3514e-09
6.8669e-08
5.77137e-10
1.11131e-09
1.1653e-09
3.60963e-07
2.194e-08
5.38182e-09
5.28462e-10
0.00196269
4.2724e-08
3.87191e-09
2.38013e-08
0.00191499
5.52498e-09
0.00040339
8.31215e-09
0.000829308
8.51967e-08
9.52931e-08
2.75917e-07
1.67381e-08
2.98938e-09
1.63213e-06
2.55693e-07
1.60842e-08
8.69901e-09
4.36781e-10
0.000361921
0.00289915
4.02353e-08
3.57872e-07
2.38672e-06
0.000430954
1.03441e-08
7.76011e-09
4.28938e-09
1.39844e-07
0.00122085
2.13352e-08
0.00206206
0.00250597
4.95147e-09
9.974e-08
1.40142e-09
2.63164e-10
1.24504e-06
1.34491e-09
0.00203389
9.30364e-10
1.35674e-08
1.2392e-06
7.94767e-10
9.57057e-07
0.00191604
2.75186e-06
1.47886e-08
3.26787e-08
1.82603e-09
2.10039e-08
1.08356e-08
1.10449e-07
3.58822e-09
1.31259e-10
1.04127e-07
0.00279684
0.00201716
2.83648e-08
9.77864e-07
1.13235e-07
0.000533996
0.00367043
0.000651143
2.08421e-08
2.98655e-09
3.63689e-08
2.11452e-09
0.000460561
2.48537e-09
0.000347124
4.45962e-08
4.25413e-08
5.1551e-08
8.57178e-10
6.75453e-06
1.09181e-08
0.000544822
8.09983e-10
3.37066e-08
2.09237e-08
0.000457522
0.00330053
3.24139e-09
5.35922e-05
0.00179789
3.59128e-06
0.00182755
0.00269789
8.15178e-08
0.00243866
0.00236494
0.00257381
5.4129e-09
0.0014835
0.00417992
0.00383881
0.00276228
5.97185e-09
8.23539e-07
1.88125e-07
0.000404302
0.00163745
0.000434528
4.87835e-10
2.06086e-07
2.04961e-09
2.29623e-06
0.0018973
0.00175545
0.00292211
0.0022409
0.0024916
0.001665
8.03472e-09
2.10307e-09
7.7613e-09
1.70776e-08
0.0013871
5.5339e-10
7.79015e-09
0.00196179
0.00116503
2.34725e-08
3.71453e-08
1.43908e-08
1.39107e-08
0.00126181
3.34708e-09
0.00211842
1.92328e-07
0.00321067
5.08936e-09
4.39863e-08
1.86283e-07
2.03419e-06
8.6649e-08
4.49201e-10
2.13475e-09
1.2884e-07
0.0025433
6.65529e-09
7.21482e-08
1.96924e-06
6.1123e-07
1.1495e-07
3.41025e-07
1.42471e-09
1.15231e-06
1.70943e-07
6.1061e-08
4.64907e-09
0.00320857
6.40037e-09
2.19092e-09
2.03192e-07
3.50997e-07
9.27181e-09
4.35003e-08
6.16621e-09
0.00247476
4.43112e-09
2.06598e-10
6.85927e-09
6.28718e-08
2.03678e-06
8.25372e-07
2.21025e-09
0.00300904
0.00194622
2.3634e-08
2.14352e-07
1.60029e-08
1.94038e-08
2.52797e-07
4.12026e-08
4.45284e-08
1.96447e-08
1.59245e-09
1.65224e-09
2.50177e-07
4.07447e-07
3.9611e-10
4.2334e-08
0.00402065
2.12835e-07
1.53592e-08
0.00236661
3.71398e-08
0.000365619
9.70115e-10
1.18802e-07
2.03984e-07
1.21055e-08
1.71067e-08
1.1204e-09
8.28469e-08
2.17005e-09
5.31789e-09
8.26092e-09
5.75618e-09
7.84115e-09
1.3577e-06
5.41927e-08
1.60376e-08
2.70485e-09
6.88176e-09
9.95681e-09
7.04259e-08
2.48493e-08
1.71385e-08
3.47051e-09
5.10863e-09
3.85159e-09
2.18367e-09
6.32339e-06
3.30009e-08
2.80925e-09
0.00339749
0.00370805
3.01766e-09
0.00384588
1.82786e-08
5.53779e-09
0.00145126
3.54777e-10
1.35532e-08
0.00178827
1.9085e-09
0.000384882
4.31065e-08
2.56696e-09
4.50464e-08
3.0179e-06
1.48555e-08
5.19269e-09
8.92124e-06
0.000167049
1.87676e-08
7.46726e-06
1.83459e-08
2.28563e-09
3.10012e-08
1.91776e-09
5.08705e-09
1.45467e-08
1.91461e-08
1.61993e-08
2.58932e-09
2.22906e-09
0.000768493
1.7149e-09
1.65661e-08
1.02064e-05
1.51308e-08
1.80991e-09
1.21948e-06
2.26501e-08
8.56094e-09
0.000539255
7.78917e-10
7.59816e-09
2.05225e-07
1.58199e-09
4.41572e-08
1.3091e-09
3.24904e-10
4.31906e-10
0.00200342
2.30831e-09
0.000732637
3.91493e-08
0.00320728
1.49723e-08
3.28076e-09
0.000313337
1.16424e-09
1.36449e-08
1.78683e-08
1.63772e-08
1.99041e-09
0.00316742
8.1248e-09
1.67952e-08
8.52711e-10
4.15557e-08
9.24205e-07
0.00264888
0.000349776
7.16451e-09
7.93321e-09
1.65387e-09
2.73105e-09
0.00338139
1.35366e-08
4.4276e-09
2.51585e-09
0.00108757
0.00385603
1.57961e-08
1.28885e-08
1.5652e-09
1.13804e-08
4.28879e-09
4.12616e-09
5.13005e-09
5.13035e-09
3.6303e-08
7.82394e-05
7.56467e-09
5.01522e-09
7.88173e-09
1.82928e-08
2.52166e-05
0.00241928
1.09475e-08
0.00266346
1.63684e-09
8.78572e-09
4.32976e-09
0.00269466
0.000211207
9.71786e-10
8.42487e-09
7.09633e-10
2.86223e-08
6.32117e-09
2.95359e-09
0.00152892
0.00323676
1.29593e-07
1.62728e-07
0.000607893
1.45332e-09
5.18694e-09
1.60445e-09
4.12474e-07
0.0021069
3.38076e-08
1.72048e-09
0.000439478
7.72838e-09
3.18464e-08
3.33317e-09
2.38268e-09
4.35218e-09
9.59236e-10
7.58149e-06
1.02063e-09
0.00182038
5.06953e-08
1.11994e-07
6.8394e-09
1.567e-06
3.54452e-06
5.37515e-09
2.07704e-08
0.00230812
0.00311019
7.34691e-08
3.85396e-09
7.58789e-07
1.55936e-09
0.00343744
3.12187e-10
1.95981e-08
0.000428464
0.00255397
4.36633e-09
1.60126e-09
1.96471e-07
5.9012e-07
3.53431e-07
0.000378102
0.00139636
1.17129e-10
6.64834e-09
8.18835e-10
4.6239e-09
0.00277499
2.71723e-08
0.00303002
9.96958e-09
0.00131533
0.00209608
0.0023644
6.17937e-08
4.10648e-09
0.000650595
1.27053e-09
2.28471e-10
1.09585e-09
4.35342e-09
1.81569e-08
4.55739e-09
1.50273e-09
9.18951e-08
6.7303e-08
7.66894e-09
2.72453e-09
0.00186393
4.17959e-08
3.52304e-08
0.00036214
1.0336e-08
3.48836e-08
3.81895e-08
1.94519e-09
1.39123e-09
0.000646936
0.00196275
0.00241488
3.87898e-09
1.11314e-08
6.50135e-09
1.63442e-07
0.00194533
1.35031e-09
5.69377e-07
2.58956e-08
1.3246e-05
0.000344566
0.00169865
2.25487e-07
1.48114e-07
2.23758e-08
0.00430842
0.000532165
1.88297e-08
8.78744e-07
3.49964e-09
6.81758e-08
3.43685e-06
0.00231947
2.45358e-08
1.20654e-07
1.01708e-07
1.59416e-05
2.44297e-08
0.00185631
2.55382e-09
5.15074e-08
1.16371e-08
0.00213056
7.27875e-10
6.19575e-09
2.06054e-07
4.46136e-06
0.000599777
1.09268e-07
7.01965e-08
0.000383646
4.15436e-08
2.57819e-09
0.00190615
0.0021965
5.45016e-09
7.82202e-09
0.000401565
1.0173e-08
1.74864e-08
0.000373922
3.48996e-10
0.00265403
2.51602e-09
1.93332e-08
1.81587e-07
3.96019e-09
3.95302e-08
3.57444e-08
5.00932e-05
3.75103e-09
6.12648e-09
7.11184e-09
1.1708e-08
9.70697e-08
1.52067e-08
0.000326093
7.07232e-09
2.04955e-08
0.00140039
5.71868e-08
9.84666e-08
8.47692e-06
0.00187032
2.37488e-06
0.000541639
6.93171e-09
0.000383081
1.59352e-08
4.186e-09
1.5781e-09
0.00314075
3.78406e-07
3.24411e-08
7.11897e-05
6.44301e-08
0.00157968
1.70602e-07
9.8555e-06
3.6109e-09
0.00100439
3.16533e-09
0.00130371
5.36323e-05
2.43796e-07
0.000651795
0.00179453
1.21668e-06
1.10698e-05
4.12038e-09
1.13126e-06
2.51147e-08
4.08459e-05
0.000444817
0.000428778
0.00211174
3.53003e-08
3.1955e-08
0.000561237
4.57925e-08
0.0022771
6.83353e-10
0.000401152
2.28196e-09
2.66927e-09
2.93903e-05
0.000503641
0.000206252
0.000108608
7.69003e-09
5.1784e-09
1.88383e-09
0.000487177
2.15355e-09
0.00350802
0.00473717
2.49717e-09
0.000499731
2.07679e-09
9.93628e-10
2.91918e-09
3.20067e-06
0.000469624
2.89361e-09
1.33111e-09
1.05282e-06
4.44753e-09
1.12225e-07
3.79279e-09
2.98625e-09
8.82325e-08
2.63817e-07
3.11697e-08
1.04158e-08
0.000532566
8.09857e-10
0.000127673
2.6999e-10
2.48967e-09
0.00124249
1.50155e-09
7.75429e-06
8.98244e-08
7.42214e-09
0.000108823
1.24587e-08
0.00157162
2.72422e-08
4.56787e-10
0.00174582
5.66991e-09
1.13433e-08
0.000307135
1.25073e-09
0.00206016
1.68223e-08
1.42135e-09
0.00422989
3.05706e-09
5.30883e-09
1.49479e-08
1.64416e-08
0.000319935
7.84858e-09
5.58953e-09
1.6496e-07
0.00180903
0.000633467
0.000584061
2.24704e-08
1.77506e-09
0.000379941
0.0024437
6.9023e-09
8.57748e-09
5.57254e-08
1.19741e-08
2.95388e-09
2.54864e-08
0.000412237
0.00150012
0.00271717
1.49194e-07
2.04075e-09
0.0027635
0.00414715
0.00538748
5.06408e-08
1.80296e-08
1.55786e-07
4.3708e-07
1.80881e-08
2.80387e-08
7.86617e-07
2.81469e-08
7.51526e-09
8.17605e-09
1.35418e-06
7.1416e-08
7.40023e-09
0.00254235
1.64776e-09
6.03797e-08
1.87548e-08
2.82415e-08
6.47774e-09
3.78901e-10
0.000761134
1.88456e-08
3.1129e-09
0.00193673
1.91159e-08
2.39526e-08
0.00328135
2.94189e-08
3.34776e-07
5.67927e-09
2.00031e-08
2.52157e-08
0.000826039
3.05366e-08
0.00220048
1.82776e-07
2.05574e-07
3.67489e-08
0.005524
0.000295154
4.58082e-09
5.46026e-09
9.92126e-07
1.43932e-09
1.12392e-08
8.51049e-09
0.0016735
1.17283e-09
2.28517e-09
8.12469e-09
2.46885e-09
3.57719e-08
2.36399e-08
7.50416e-09
0.000429216
0.00219284
0.000466222
6.29828e-08
0.00314138
0.00256291
5.5975e-08
1.76254e-09
0.00183297
6.44012e-06
0.00154631
0.00208221
0.00203132
3.32338e-09
5.88834e-08
0.00237835
1.95945e-07
3.35586e-08
1.88216e-07
2.64449e-08
0.0004437
2.15648e-08
0.00053842
1.69979e-05
2.57377e-08
0.00196165
2.00179e-08
0.000608726
6.86722e-09
1.57569e-08
1.14533e-09
3.99705e-08
0.00153623
0.0037607
1.2908e-09
0.000395619
0.00188713
0.00135372
0.00278128
5.64582e-10
1.0103e-08
1.17528e-09
0.00355382
7.85789e-10
1.2962e-07
0.00355989
5.48285e-09
0.00347801
0.00351543
0.00366903
1.55302e-08
5.72443e-08
4.62868e-08
8.76142e-09
1.10926e-08
6.13074e-08
1.27031e-08
4.94055e-09
0.000475216
4.11143e-09
3.71024e-08
2.75996e-07
5.38631e-10
0.0016232
2.92165e-08
4.60331e-09
6.66246e-08
2.7802e-10
6.99373e-08
3.92021e-09
2.03103e-07
0.00306616
3.10653e-05
8.92831e-10
1.56532e-08
0.00210094
0.00314932
1.78511e-07
0.000760559
1.00381e-08
7.80572e-09
0.00257371
2.21849e-08
0.00322077
0.000542243
1.04715e-09
7.30613e-08
0.000765793
1.73704e-08
2.49472e-08
0.00250178
6.33336e-09
1.36225e-08
3.1233e-09
0.000534599
3.15282e-06
0.00193138
1.82599e-07
9.38413e-09
0.00175019
1.24451e-07
2.56891e-10
5.96345e-06
2.18796e-09
7.24653e-07
0.00129386
2.74166e-09
9.48397e-10
1.13528e-08
5.90545e-09
1.54797e-08
5.83067e-09
1.26305e-08
1.00036e-06
9.64125e-10
1.29122e-09
0.00169873
4.65648e-09
5.32962e-06
2.94709e-08
4.36345e-06
1.34054e-06
1.17172e-06
5.34395e-06
1.2564e-06
5.34866e-09
1.6583e-08
0.0010031
3.00013e-06
2.48625e-08
2.25865e-08
2.48481e-08
0.00044909
1.3706e-06
7.84899e-08
2.28904e-07
3.45927e-09
0.00226263
4.73741e-09
1.22707e-08
2.08437e-08
1.18539e-08
2.99234e-08
0.0021267
5.59167e-08
2.40629e-08
1.86681e-08
4.75966e-09
0.000477736
2.25474e-09
5.16981e-09
3.34953e-08
2.39922e-10
1.42424e-09
6.10109e-09
9.3619e-09
1.36339e-08
0.000334387
1.144e-08
1.31686e-08
2.37173e-09
2.00857e-08
1.24407e-08
1.00969e-08
5.84649e-08
0.000380628
0.00242792
1.54806e-08
7.88943e-09
0.00284483
1.65723e-09
4.31418e-05
0.00203033
4.95983e-09
7.13331e-07
1.53288e-06
0.00186471
2.20506e-08
3.18807e-08
2.25108e-07
1.73796e-05
8.68567e-07
2.13979e-07
1.40081e-09
3.73961e-09
4.25559e-07
1.08871e-07
6.02063e-09
1.57482e-09
1.26292e-08
7.54598e-09
2.99972e-06
0.00129393
6.41248e-08
3.61758e-08
5.10429e-08
0.00264621
0.00244632
9.2387e-07
1.5144e-08
3.28408e-08
4.01516e-08
4.47348e-09
2.89367e-09
1.81492e-07
4.22103e-09
3.45823e-08
2.02303e-09
1.27027e-08
2.26792e-08
3.31729e-09
4.13998e-07
2.79369e-09
0.000434429
9.50308e-08
0.00394804
0.00165202
1.12394e-07
2.13841e-08
0.000579701
0.00034517
2.77292e-08
2.34058e-08
9.24303e-06
2.33024e-09
1.88068e-09
2.34922e-08
1.74362e-08
0.000781457
0.000646981
9.57652e-09
1.20985e-08
7.93494e-09
3.44865e-07
5.0864e-08
0.0026707
0.000496421
1.45573e-08
0.000238788
7.21804e-09
0.000315445
0.000227771
0.000223583
2.82194e-08
1.05375e-07
1.77068e-09
1.00794e-07
2.53856e-08
0.00240355
4.88663e-09
4.22823e-08
7.01521e-09
7.70154e-08
2.28303e-05
0.00194494
0.00235189
2.23547e-08
2.97633e-08
0.000377617
3.99736e-08
1.04011e-06
1.04489e-08
0.00304784
4.07397e-08
2.26625e-08
8.52992e-06
0.00262292
6.85568e-08
2.28054e-08
0.00131292
2.01081e-08
4.63162e-10
1.39497e-09
4.45105e-09
3.17005e-08
1.32984e-08
6.42415e-10
2.21899e-08
3.72477e-08
1.14677e-08
6.06552e-08
1.65791e-08
5.52033e-07
0.0019116
2.82516e-09
1.59553e-08
5.64294e-08
0.00200068
8.70572e-07
2.00743e-08
0.000374713
2.876e-09
2.25155e-07
1.46133e-07
0.000983776
3.59765e-07
3.20107e-10
1.21856e-07
1.40246e-08
1.22674e-07
5.0182e-08
3.09953e-09
1.49302e-07
6.88388e-09
8.69691e-08
8.00443e-10
0.000584268
4.86671e-08
0.002074
1.36939e-09
6.34229e-08
2.15507e-06
1.07251e-08
6.18863e-06
4.77894e-09
6.87008e-10
2.46446e-07
4.18502e-08
4.85169e-09
1.74015e-05
6.10953e-08
7.42015e-08
0.000547251
2.99192e-09
0.000563697
3.16058e-08
2.27035e-09
7.73305e-09
5.78888e-09
1.98269e-08
3.89448e-07
3.13504e-07
1.50582e-07
0.00237868
2.19012e-07
0.00393255
0.00209531
0.00329157
8.49769e-08
2.20375e-07
0.00143508
3.82858e-09
2.47013e-08
2.98039e-08
0.00237004
9.80136e-09
0.000635586
0.000492211
2.77277e-09
0.00262591
5.02794e-06
0.00263984
1.89022e-08
0.00249641
5.58995e-08
0.000340224
1.60763e-09
3.90307e-09
4.27263e-08
0.000746791
7.87505e-07
4.1548e-10
2.68976e-08
6.34652e-10
0.000532962
0.000313621
5.70089e-08
0.00190932
4.56328e-07
0.000544703
3.19237e-08
5.58334e-10
6.41664e-09
2.60376e-09
8.93709e-08
2.04168e-05
5.68768e-09
1.33283e-06
4.44414e-08
4.21338e-08
4.65944e-09
9.87958e-05
2.24228e-07
1.87647e-09
6.4282e-09
0.000432448
1.09204e-06
7.7852e-08
0.00152075
1.75815e-06
1.48633e-06
7.47695e-09
8.39249e-09
3.91754e-09
0.000681666
2.74601e-08
5.42007e-09
1.4915e-08
3.64257e-07
9.96071e-07
2.05985e-07
1.8211e-09
3.20647e-06
6.71958e-07
7.46676e-09
5.97306e-09
5.50795e-06
2.51511e-09
5.15858e-09
0.0023871
0.00220926
6.17073e-08
4.50648e-09
1.16992e-09
3.35765e-08
0.0019296
2.59255e-07
1.3809e-06
5.50039e-10
5.49712e-07
3.25747e-08
0.00112029
0.000444876
6.55095e-07
2.46239e-08
3.50626e-06
5.72695e-07
0.000100669
2.23877e-09
1.90034e-08
0.0011882
2.55435e-08
7.78069e-07
5.89557e-07
2.02657e-06
1.22172e-06
1.16746e-08
0.00162273
1.30952e-05
2.46861e-09
1.21117e-08
4.66495e-09
0.000427671
0.000113522
1.85755e-08
0.000637651
1.23962e-07
7.25379e-05
0.00287214
0.000398956
0.00281957
0.00183704
0.00221777
4.56542e-10
2.73558e-06
8.41136e-08
3.42871e-06
1.49182e-05
2.2134e-06
2.01609e-09
3.97686e-07
1.46736e-08
3.20308e-07
0.000761567
2.84585e-07
8.81452e-10
0.00178427
1.39269e-07
0.000207827
1.83524e-07
4.11165e-07
4.74431e-09
3.87662e-07
2.12127e-07
0.00151235
2.09573e-07
3.56582e-08
1.50133e-07
2.60103e-05
0.00129742
0.00131397
0.00294022
4.93355e-09
0.000502805
0.00155012
0.00175313
0.00149454
2.34266e-07
0.00217388
2.68276e-07
4.72307e-09
5.40872e-09
6.21244e-09
0.00147158
0.00176868
5.58941e-09
1.46869e-08
8.38455e-09
4.07965e-07
0.000298097
0.00368254
0.00135436
8.23551e-08
0.00247919
8.80229e-10
3.61836e-08
0.00108925
0.000804587
5.33193e-09
2.75321e-06
1.21993e-08
6.34573e-09
0.00351995
6.33872e-09
0.000423306
1.17444e-09
0.000378709
0.000405402
0.000581334
0.00190929
3.24592e-07
0.00161749
1.26533e-08
1.17795e-05
0.000460539
0.00124702
0.0022078
0.00109664
7.53239e-09
0.0012444
9.02767e-09
1.59515e-08
0.00292731
1.64018e-07
6.58482e-06
5.65693e-08
5.20107e-08
0.000573399
1.43514e-06
3.25189e-09
1.49231e-07
4.38019e-07
0.000403274
0.00219844
2.72764e-07
7.60778e-09
0.000614702
1.86405e-08
1.56772e-08
5.11048e-08
6.0427e-07
0.00214138
3.76151e-09
0.00241697
8.37068e-10
0.000256113
0.00433603
8.69537e-09
3.0342e-06
0.00242905
4.98796e-05
5.20731e-06
2.47591e-09
0.00178043
0.0027788
5.15994e-10
0.000489107
8.51595e-07
0.000618779
1.4906e-08
8.51646e-07
5.12935e-07
3.5258e-08
7.60037e-11
0.000345755
0.00131413
6.44462e-09
1.21923e-09
0.0021822
1.1115e-08
2.20856e-09
3.73812e-08
1.8751e-09
7.87611e-08
0.00354115
0.00209478
2.65159e-08
5.45845e-10
0.00221228
1.98849e-07
0.0027036
2.80046e-09
1.91364e-06
4.57311e-08
7.43912e-09
2.74863e-09
1.08297e-08
0.00333617
5.04787e-09
2.79378e-07
0.00027472
0.00237604
0.000453091
1.3783e-08
1.17423e-06
2.56632e-09
0.000229117
0.00228075
8.80047e-10
3.76626e-09
3.97975e-08
3.31074e-08
0.000502525
2.62027e-07
0.000529728
1.92231e-07
6.62986e-09
5.88318e-11
4.98022e-08
0.000221066
0.000394063
5.42144e-09
0.00384295
0.00245682
8.71767e-09
2.94248e-10
3.83866e-09
7.34286e-09
3.79549e-09
1.54202e-08
0.00275322
0.000620019
0.000514079
7.76371e-05
0.000348264
0.000381681
2.80123e-09
4.26985e-08
1.51338e-09
3.07847e-08
1.88622e-08
0.00234564
1.0763e-08
4.93836e-09
0.00111873
1.90226e-08
7.68312e-08
8.82122e-08
1.67574e-09
8.42577e-08
3.47103e-08
0.00219887
5.24578e-09
1.49406e-08
4.16542e-09
1.58372e-08
2.1148e-08
0.00375555
4.52617e-07
1.1223e-07
7.35572e-08
1.09929e-09
4.50852e-05
1.02999e-06
3.1106e-09
5.78783e-07
1.25644e-05
1.0192e-08
1.12613e-08
1.03397e-05
1.6271e-06
2.50594e-07
0.00304075
3.85316e-09
3.96628e-07
1.36074e-06
0.00282697
2.2467e-07
4.3271e-10
1.91802e-06
1.5052e-05
3.43137e-07
1.00361e-08
1.69549e-07
4.57143e-08
6.61898e-08
2.00261e-08
3.31639e-08
0.00184962
2.14378e-09
1.18184e-08
1.07342e-08
7.16266e-10
4.61314e-09
8.95305e-10
0.00421537
1.25626e-07
1.94819e-09
3.29434e-09
3.09385e-09
1.08626e-09
5.02721e-08
5.1282e-09
2.83378e-09
5.40012e-08
1.33858e-08
0.00228146
3.06429e-09
0.00038437
3.54278e-08
1.17418e-07
1.77752e-08
1.20973e-06
1.0155e-09
0.0031576
9.47205e-09
0.00178984
2.97269e-07
4.01984e-08
1.35323e-08
1.83312e-06
2.75039e-09
3.62092e-09
2.93685e-09
0.000259156
0.000626661
0.0021365
1.01199e-07
1.57616e-07
0.00227889
1.721e-06
3.37586e-09
1.37728e-08
2.87346e-07
1.03418e-08
0.00411985
2.77115e-06
0.00307948
2.81752e-08
7.67083e-09
0.00158905
0.00144431
0.00174765
1.691e-08
1.47227e-06
0.00186863
1.67457e-09
1.23117e-05
1.51495e-07
0.00183754
0.000459336
1.81554e-07
0.00230819
2.04416e-05
6.17901e-07
0.00205376
0.00216973
1.91788e-08
0.00237785
0.00301226
0.00180859
2.49393e-08
4.38735e-09
6.31366e-09
8.04312e-10
2.89667e-09
0.00163007
0.00275211
0.00182474
2.59401e-09
0.00303316
2.75435e-09
0.00228125
0.00249269
5.76647e-09
3.67133e-08
0.00165397
2.45882e-08
1.33516e-08
3.20484e-07
4.34297e-10
0.0025604
0.0019903
8.28251e-07
0.00163466
4.31189e-09
3.04432e-09
7.10843e-09
3.33452e-08
6.72276e-08
3.13222e-07
1.22151e-09
5.59633e-09
1.4398e-08
8.10697e-09
6.20205e-09
1.04395e-07
3.72278e-10
2.30791e-08
2.11629e-06
1.15629e-08
3.43918e-08
2.75646e-09
1.20379e-07
1.5683e-09
5.22955e-09
2.22186e-07
1.59674e-09
3.02027e-09
0.00188087
3.52705e-08
5.30473e-09
6.528e-07
3.19312e-09
1.47409e-08
4.80535e-08
0.00185701
9.27931e-08
0.00220807
0.00151893
1.77884e-08
2.07189e-08
5.80506e-08
6.55125e-09
0.00161014
5.1188e-08
2.23416e-07
3.65684e-07
2.90813e-08
0.00240925
0.00154539
1.94246e-09
3.22694e-09
6.96473e-09
6.37234e-08
5.89775e-08
7.67213e-09
4.1619e-07
5.32084e-09
1.49343e-06
2.49171e-09
1.52841e-09
6.53917e-09
1.55588e-08
2.33229e-07
7.9926e-09
1.87729e-08
0.00444295
0.00145378
0.00265797
0.00160689
1.49109e-06
1.20854e-08
0.0020824
6.94578e-07
6.74147e-09
0.00041006
1.31771e-09
1.44231e-07
0.00235106
4.411e-08
1.26019e-07
2.30303e-08
4.28382e-08
0.00139992
8.44091e-09
9.72936e-10
2.10693e-07
2.6542e-09
4.85847e-07
5.95627e-06
6.71813e-08
0.00211097
4.19119e-08
0.00046033
2.68075e-07
0.00209888
4.00898e-10
5.01461e-09
2.67795e-07
3.86946e-09
0.00183882
3.83319e-07
0.000518297
1.49299e-07
1.83249e-07
1.33943e-07
2.65827e-08
8.75279e-09
4.9241e-08
3.00826e-06
4.01839e-08
2.59225e-06
0.00324752
5.3054e-08
0.00421533
5.65522e-09
2.48378e-09
4.57891e-06
0.0018643
1.41049e-08
1.36483e-09
8.99538e-07
5.67476e-08
3.3629e-08
0.0023397
1.34622e-08
6.13256e-07
0.00262079
1.35816e-09
8.03253e-09
4.17732e-07
9.63984e-10
8.20242e-09
0.00261949
5.29563e-09
0.00276766
2.31548e-08
2.15401e-07
3.92589e-08
0.000894193
5.97278e-08
2.8011e-08
1.48685e-07
0.00262241
1.58896e-06
1.25952e-08
9.29179e-09
1.24924e-07
0.00207264
3.44049e-09
5.19536e-08
6.30627e-08
1.60002e-06
0.00261651
0.000270042
0.00119135
1.74605e-08
0.00035808
1.3221e-08
9.06531e-07
0.000789701
1.16013e-08
0.000881053
3.28808e-06
4.8547e-09
2.64693e-09
1.20832e-08
0.00253347
1.52378e-08
2.51269e-09
2.59457e-07
1.12198e-08
5.63816e-09
0.00030146
2.85111e-09
4.47623e-08
0.00242977
1.26687e-06
4.52577e-09
0.00210902
3.26091e-06
6.49073e-09
1.38618e-08
1.20039e-05
4.30759e-08
2.23669e-07
1.67708e-08
4.14726e-08
6.0725e-08
4.75036e-06
0.00109767
4.84094e-08
0.00248239
1.51194e-08
3.79127e-08
0.00271656
3.04193e-08
7.83734e-08
9.86296e-09
1.34434e-07
0.00237011
3.01312e-08
2.13032e-08
0.00163495
5.79797e-09
0.00273884
1.43993e-09
8.30329e-09
1.04091e-09
9.95726e-09
0.0015168
5.41627e-08
1.40604e-09
2.57562e-09
1.44133e-08
5.28665e-08
0.00255051
4.81253e-09
4.64582e-09
1.88265e-09
1.54938e-07
5.29256e-06
5.03465e-09
0.00156987
3.50771e-08
1.02947e-08
6.39469e-09
5.11821e-08
0.000429643
6.72767e-07
1.65722e-10
1.03333e-09
0.0018262
0.00217012
6.14456e-08
3.87196e-09
0.00183545
1.62511e-08
9.35566e-10
0.00356093
9.05831e-09
0.00275319
2.92171e-07
1.78419e-08
2.03842e-08
9.77413e-09
9.87402e-09
4.40915e-09
3.04364e-05
7.45778e-07
2.26923e-09
4.03979e-08
5.56632e-08
5.46356e-09
0.00257877
8.69696e-09
1.33199e-08
0.00197403
2.62105e-08
3.59292e-08
2.98883e-10
0.00228714
2.82833e-08
1.34187e-07
3.37812e-09
3.69979e-08
4.05734e-09
0.00233765
5.91617e-09
7.0721e-09
0.000613076
1.07372e-08
7.09673e-09
0.00233171
6.53564e-08
3.93896e-10
3.14579e-08
5.93451e-09
0.00188358
4.42114e-07
6.07669e-08
3.51635e-09
4.01535e-07
1.41356e-07
8.68558e-09
1.32911e-09
1.03128e-09
3.4094e-08
1.04949e-08
8.19641e-10
7.75961e-09
6.22991e-09
1.17166e-08
0.00238146
6.96556e-07
1.47856e-08
2.10373e-09
9.69667e-10
0.00219979
1.94275e-08
0.00327832
9.38392e-07
0.00163005
7.47701e-10
0.00222506
0.0029264
8.63632e-09
9.41946e-09
8.96838e-08
0.00210515
0.00251638
3.0692e-07
8.02374e-09
2.49617e-07
1.05304e-09
2.21405e-07
8.79436e-09
9.4372e-08
1.66798e-08
1.46421e-09
3.90348e-09
8.56015e-10
6.22309e-09
9.20052e-09
3.79465e-09
5.07607e-09
1.51591e-08
9.02596e-08
3.12528e-11
3.37486e-09
7.48192e-10
5.70276e-09
1.51552e-09
1.75345e-07
0.001959
0.00280054
4.51082e-09
0.00222556
1.40008e-08
3.06715e-09
4.48509e-09
1.64678e-06
1.80102e-07
7.17965e-08
9.91712e-10
1.10311e-08
2.1409e-09
7.94009e-09
1.59302e-09
1.28503e-08
1.41386e-07
0.00158852
2.4465e-09
2.12112e-08
0.00140429
0.00184754
0.00219809
0.0020639
0.00176512
4.66303e-08
3.77875e-08
2.92586e-09
7.91472e-09
7.59383e-09
1.38683e-06
3.93792e-09
2.9262e-08
3.41268e-08
7.18961e-09
2.29924e-09
2.67219e-09
7.46394e-07
3.1551e-06
3.98182e-07
5.99424e-09
1.68021e-09
3.25646e-09
0.00284214
2.53367e-09
0.00186013
1.06113e-07
8.7841e-09
7.52546e-07
0.00105424
6.75819e-08
4.02624e-10
3.75754e-09
3.20564e-08
1.50662e-09
2.3586e-08
8.2908e-10
0.00110409
3.45954e-10
4.18223e-08
0.00284496
2.93692e-09
0.00133037
5.86749e-08
0.00216663
9.91268e-08
0.0012197
3.55279e-10
0.00289514
0.00232083
2.77984e-08
4.19248e-09
0.00158368
1.97761e-08
0.00186955
1.68355e-08
7.85394e-09
5.03667e-10
1.6648e-08
2.04646e-08
1.49779e-08
6.36798e-07
0.00292312
0.00166187
1.22642e-06
3.80367e-09
3.4793e-07
0.00305619
0.00136138
0.00243928
0.00234397
5.47325e-09
6.05066e-08
2.74627e-08
1.25476e-08
0.00313286
6.50428e-09
0.00148774
0.00331311
5.51173e-09
3.21024e-09
0.00165519
0.00312321
2.90493e-08
9.16825e-10
0.00169036
9.15928e-08
2.54762e-09
4.67524e-07
9.57537e-08
0.000406487
7.13575e-08
5.65122e-08
2.47036e-07
2.69674e-07
9.07688e-08
3.93302e-09
4.81668e-09
1.06333e-08
2.03092e-09
2.0535e-08
8.68365e-09
1.90367e-10
2.29781e-09
0.0020065
0.00293011
3.55432e-10
2.5445e-08
6.66857e-09
2.78606e-09
4.80172e-07
1.94781e-08
2.36633e-09
0.00270668
0.00150583
0.00144862
0.0016233
4.88827e-08
0.00136211
2.54907e-07
0.00376689
7.30159e-10
0.00227615
2.73037e-08
3.6358e-08
1.55384e-07
6.14363e-10
0.00294106
1.85544e-07
0.00423714
5.94015e-09
9.52863e-10
9.16398e-09
9.27268e-09
0.00133979
0.00297201
1.38731e-10
3.30271e-09
2.43677e-08
0.0016743
4.02898e-09
0.0028031
3.52728e-07
1.91858e-09
5.7652e-09
0.00241515
3.50828e-08
0.00213609
8.5074e-08
0.00383045
0.00319964
8.03601e-08
3.64755e-09
0.00365664
8.76785e-09
8.515e-07
0.000344637
1.54827e-08
1.40418e-07
2.29153e-08
8.88421e-09
0.00300983
3.92064e-09
7.38326e-08
3.83045e-10
7.03612e-08
4.10448e-09
5.29177e-09
1.51929e-08
9.91817e-09
1.7169e-08
0.00294985
2.14348e-08
2.74858e-08
4.68839e-09
1.43146e-08
8.98527e-09
9.93554e-09
1.15845e-08
0.00217429
8.54405e-09
0.00293682
0.00189485
5.08465e-09
0.000360669
3.04505e-09
3.31037e-09
2.61822e-08
3.47826e-08
3.02703e-08
0.00158116
0.00202701
1.1031e-07
1.05172e-07
8.32287e-08
0.00305492
0.00110987
4.82888e-08
0.002163
0.00439063
1.26941e-06
0.0025899
0.000410462
6.30138e-09
7.82795e-07
2.51926e-08
0.000563895
6.74415e-10
0.00252478
3.31187e-10
2.35123e-09
0.000636497
0.000341711
1.85034e-08
0.000460436
4.24025e-08
1.08257e-07
2.57841e-08
2.68792e-09
3.9521e-07
2.85671e-09
4.81582e-09
0.00243082
1.3723e-08
1.38935e-08
4.1843e-09
1.21992e-07
1.65155e-09
4.57998e-05
2.97336e-08
2.02996e-08
8.01411e-08
1.69894e-07
0.000297092
0.00227204
4.17787e-08
7.16785e-09
0.00236628
0.00234084
3.69808e-08
2.36613e-08
1.22132e-08
3.26964e-09
3.05585e-08
1.10307e-08
0.00200161
0.00433475
6.11033e-09
2.04771e-09
3.82939e-09
6.0248e-09
0.00246894
0.000394483
1.72811e-09
1.81067e-08
1.53231e-08
0.00211933
1.05151e-05
1.08974e-06
0.00194331
2.49306e-08
2.4993e-08
4.85816e-09
4.12108e-08
2.52556e-08
0.00220467
5.26932e-08
0.000310613
5.52339e-09
6.26548e-09
0.00320554
0.00260272
7.5634e-09
0.00306982
1.07454e-09
1.4729e-09
4.52981e-07
5.17414e-09
3.56085e-09
0.00179324
2.66982e-08
1.23896e-07
0.0038515
1.20153e-08
0.00155157
0.00300788
1.45824e-08
0.00319274
1.49617e-08
1.3218e-08
1.85665e-08
1.87092e-07
9.86617e-09
4.63671e-08
5.96154e-09
2.43448e-08
4.77934e-07
1.9604e-08
0.00232323
6.51389e-09
0.00301317
8.56081e-10
1.14699e-08
5.43744e-09
0.00231052
8.71756e-09
0.00223805
0.00192335
0.00309696
1.57024e-08
0.00209377
1.44623e-07
2.15348e-08
3.13626e-09
8.11944e-09
1.30558e-08
7.63032e-08
1.42212e-07
2.94672e-07
3.42176e-09
0.00282186
3.21924e-08
1.16772e-09
9.23815e-10
4.48374e-09
7.05001e-10
0.00200403
3.5079e-08
0.00294229
2.70115e-08
0.000624961
3.60253e-09
3.65126e-09
0.00176861
0.0034654
6.65841e-08
3.67001e-09
0.00375541
1.56711e-08
1.04505e-09
3.32603e-09
1.32302e-08
6.36755e-10
1.3789e-08
1.46771e-09
1.41081e-08
2.85825e-09
5.93836e-08
2.70246e-08
0.0024621
5.49338e-07
1.01833e-07
1.12226e-08
4.63643e-09
0.00208836
1.39723e-08
0.00298232
4.13549e-08
2.81114e-08
6.62493e-09
6.23558e-09
7.95489e-08
7.42477e-07
0.00129731
0.00121778
7.98587e-09
0.00369083
2.41592e-08
0.002769
9.04406e-09
1.32712e-08
2.94823e-09
0.00259942
0.00127756
0.000427457
4.43977e-08
2.02852e-09
0.00128974
5.29684e-09
3.30916e-09
8.96033e-09
5.33761e-09
0.00244793
0.002021
1.8523e-08
3.15205e-08
5.16025e-08
3.88356e-09
3.24936e-06
1.81026e-06
6.21695e-09
2.4469e-08
0.00157765
8.83778e-09
3.11617e-08
1.08802e-09
2.99955e-08
4.4848e-09
0.00226812