/*--------------------------------*- C++ -*----------------------------------*\
  =========                 |
  \\      /  F ield         | OpenFOAM: The Open Source CFD Toolbox
   \\    /   O peration     | Website:  https://openfoam.org
    \\  /    A nd           | Version:  10
     \\/     M anipulation  |
\*---------------------------------------------------------------------------*/
FoamFile
{
    format      ascii;
    class       volVectorField;
    location    "59";
    object      U;
}
// * * * * * * * * * * * * * * * * * * * * * * * * * * * * * * * * * * * * * //

dimensions      [0 1 -1 0 0 0 0];

internalField   nonuniform List<vector> 
59698
(
(0.584694 0.00601175 -0.00174926)
(0.564782 -0.00115043 -0.00086115)
(0.566517 -0.000686292 0.00169962)
(0.578794 -0.00342835 -0.00126444)
(0.562922 0.000718095 -0.00289506)
(0.197725 0.198052 -0.00634708)
(0.566925 0.000231812 0.000405305)
(0.56403 0.000854035 -0.000294804)
(0.199879 -0.199527 -0.000424234)
(0.201228 -0.200785 -1.38467e-05)
(0.20037 -0.198721 -0.00062418)
(0.56701 -0.000303285 -0.000408188)
(0.199801 0.20049 -0.000577167)
(0.561612 -0.000761244 -0.000195127)
(0.561998 0.00105751 -0.00252979)
(0.203972 -0.197101 0.00182405)
(0.564678 0.000134245 0.000201668)
(0.56607 -0.00126016 0.000387704)
(0.567632 -0.000525001 0.000303716)
(0.567344 -0.000377074 -8.04137e-05)
(0.142902 -0.100017 -0.0248583)
(0.536062 -0.0014797 -0.00272857)
(0.265124 -0.173042 -0.0074132)
(0.198824 -0.199921 -0.00136793)
(0.57039 0.000715773 0.00101132)
(0.566224 -0.00115689 0.000434147)
(0.566463 -0.000343108 -0.000426369)
(0.557254 -0.000208264 -0.00119976)
(0.570324 0.00126589 0.000881638)
(0.572432 -0.000453018 0.00044912)
(0.548142 -0.000336945 -0.000393758)
(0.198524 -0.198559 -0.000177331)
(0.201155 -0.197941 0.00226962)
(0.559757 0.0012447 -0.000855247)
(0.549167 0.0114664 -0.00753444)
(0.566733 -0.000911538 -0.000384353)
(0.274974 0.0659277 -0.0384708)
(0.539402 0.000745892 0.000173221)
(0.561697 0.000131573 0.000561245)
(0.568189 0.00154979 -0.00278488)
(0.563919 0.000432532 -0.000109417)
(0.1949 0.197809 -0.00173725)
(0.56241 0.000592022 -0.000614063)
(0.563701 0.000446011 0.000106779)
(0.196729 0.199572 -0.000252587)
(0.560922 0.00367232 0.00513875)
(0.567062 -0.000863691 0.000373039)
(0.56158 -0.000323894 0.00148614)
(0.562934 0.000328739 0.000879233)
(0.565366 -0.000693296 0.00023027)
(0.567928 0.000158751 -0.000169025)
(0.566899 -0.000871978 0.000350222)
(0.566563 -8.51554e-05 -0.000782496)
(0.560451 -0.000165342 0.000452177)
(0.572393 0.00294553 0.00104527)
(0.567403 -0.000517051 -0.000138037)
(0.562746 -0.000990466 0.000605456)
(0.524745 -0.00189101 -0.000235797)
(0.564641 -0.000792363 -0.000381529)
(0.268626 0.12151 -0.0189826)
(0.55916 0.00459756 -0.00252981)
(0.564604 0.00134672 0.000529444)
(0.577864 0.0147135 0.00648277)
(0.567579 -0.000566616 0.000377832)
(0.561882 0.000225801 0.000728778)
(0.5614 0.000191839 0.00205386)
(0.19952 -0.199946 -1.20864e-05)
(0.567125 -0.000557165 -0.000630218)
(0.566982 -0.000464466 -0.000637763)
(0.199516 -0.19921 -7.81261e-05)
(0.209474 0.182794 -0.00793092)
(0.565285 -0.00072761 1.64632e-05)
(0.166433 0.118602 -0.0344121)
(0.593904 -0.0104414 0.0192258)
(0.202915 0.203539 -0.000369445)
(0.589668 -0.0252327 0.0204624)
(0.56115 0.000255076 0.000991874)
(0.561044 0.00022954 -0.00162314)
(0.56686 0.000817487 -0.000635949)
(0.571452 0.00153049 0.000137995)
(0.552692 -0.00185937 1.19359e-05)
(0.567921 0.000239995 -0.000122352)
(0.201246 -0.200762 -5.94858e-05)
(0.565106 -0.000732511 0.000601788)
(0.400056 -0.103832 0.0152174)
(0.56281 0.000190643 -9.26201e-05)
(0.563145 -0.00122977 0.00162521)
(0.557674 0.000484291 0.00714633)
(0.562043 0.00140632 0.00100691)
(0.560504 -0.000174341 0.00159404)
(0.199535 -0.199173 -0.000161364)
(0.560434 0.000896371 0.000571697)
(0.560812 -0.00041393 0.00168153)
(0.565876 -0.000340797 0.000398248)
(0.561547 0.00116559 0.000998186)
(0.563531 -0.00368442 0.00128864)
(0.558676 0.000704464 0.00125096)
(0.56234 0.000542685 0.000557705)
(0.559294 0.00067808 0.00125379)
(0.199678 0.200038 -3.08944e-06)
(0.556457 0.0015461 0.000865522)
(0.567574 0.00521985 0.00625555)
(0.563073 -3.2983e-05 0.000175303)
(0.56306 -0.00164244 -0.00437846)
(0.567144 -0.000579146 0.000855229)
(0.198838 0.198574 0.000130777)
(0.56544 -0.00100175 0.000609417)
(0.567257 -0.000356082 -0.000412572)
(0.20075 -0.200883 -7.00376e-05)
(0.199793 0.199689 -0.000369913)
(0.566322 -0.000773821 -0.000353056)
(0.570417 -0.0104388 -8.54261e-05)
(0.56182 0.00143726 0.00158383)
(0.200896 0.198779 -0.000337673)
(0.56106 -0.000135715 0.000250672)
(0.567445 -4.2774e-05 0.000154712)
(0.567178 0.00135264 -0.00137145)
(0.565195 0.00306359 0.000777205)
(0.563752 -0.000835901 0.00205173)
(0.200905 -0.200448 0.000436933)
(0.56565 -7.05532e-05 -2.46887e-05)
(0.55825 -0.0063735 -0.00375842)
(0.563156 -0.00497553 0.00572243)
(0.56455 -6.10028e-05 0.000115411)
(0.56403 0.00012245 0.00019946)
(0.566043 -0.000320623 -0.000138546)
(0.56594 -7.4877e-05 -0.00051485)
(0.199562 -0.199512 0.000486546)
(0.562047 -0.000613896 -0.000198016)
(0.56754 0.000318506 -0.00199182)
(0.567307 0.000380087 0.000593239)
(0.567219 -0.000177362 -0.00107586)
(0.201403 -0.200546 -1.27904e-05)
(0.57932 0.00693091 0.00053739)
(0.572763 -0.000124202 0.000180166)
(0.568495 -0.000185381 -0.00018339)
(0.5698 0.00383408 -0.00108726)
(0.20104 -0.200692 0.000304948)
(0.567412 -0.000354263 -0.000263832)
(0.568537 -1.74076e-05 -0.000354898)
(0.565297 -0.00027281 0.000884464)
(0.562623 0.00317162 -0.00101278)
(0.566082 -0.000850622 -0.000466659)
(0.5674 -0.000331481 -0.000307809)
(0.566013 0.00220227 -0.000448615)
(0.567418 -0.000273385 2.03068e-05)
(0.563625 -0.00395139 0.000303316)
(0.566473 -0.0037211 -0.000532306)
(0.562337 0.000381868 0.000899416)
(0.552179 -0.00024893 2.58984e-06)
(0.408609 0.144127 0.0731465)
(0.2002 -0.199654 0.000118478)
(0.562155 -0.000109235 5.45366e-05)
(0.556579 -0.00217909 -0.00379581)
(0.563065 -0.000255426 -0.000164485)
(0.560675 0.000201982 -0.000465148)
(0.566474 -0.00105172 -0.000265183)
(0.558784 -0.00096726 0.00305465)
(0.563531 -0.000300272 -0.00033686)
(0.199699 0.199542 -0.000116064)
(0.564908 9.12213e-05 0.000160156)
(0.562825 -0.000374829 0.000240505)
(0.567881 -0.0005897 -0.000249658)
(0.554692 0.00186093 -0.00111141)
(0.562795 -0.000551194 -0.000184741)
(0.566778 -6.81754e-05 -0.000221554)
(0.567031 -0.000203123 -0.000691878)
(0.412404 0.0871365 0.00629777)
(0.554754 -0.000544704 -0.000364649)
(0.567031 -0.000132526 -0.000504296)
(0.559259 0.00177082 -0.00252412)
(0.211083 0.17381 0.000668716)
(0.553077 0.0013857 -0.00215514)
(0.552582 0.00127609 -0.00205462)
(0.578307 0.00135803 -0.00548412)
(0.562504 0.000269652 0.000356276)
(0.199575 -0.198909 0.00079625)
(0.538402 0.00497028 0.00303643)
(0.198958 -0.197825 -0.00579064)
(0.561901 0.000556787 -0.000456117)
(0.510481 -0.00190992 0.00517065)
(0.548322 -0.000556014 -0.000472622)
(0.562597 0.000350123 -0.000961006)
(0.565398 1.27996e-05 -0.00026496)
(0.5647 0.000623736 -0.000846553)
(0.5436 -0.000318705 -0.0003265)
(0.54347 5.31511e-05 -0.000856417)
(0.559572 0.00373096 0.00123063)
(0.566672 -5.17792e-05 0.000162004)
(0.563913 0.00151855 0.000729562)
(0.561587 0.000224445 0.000715953)
(0.562579 -0.000320665 0.000623789)
(0.562861 0.000568773 0.000513817)
(0.561905 -0.000352123 -0.000485156)
(0.554533 0.000256142 -0.000419286)
(0.557255 0.0032867 0.000817314)
(0.57648 0.00618763 -0.0138959)
(0.575752 0.00368694 -0.00216903)
(0.152173 -0.143941 -0.0194853)
(0.554168 -0.00054656 0.000132706)
(0.203043 0.205889 0.00271914)
(0.545925 0.000586054 0.0009177)
(0.573215 0.000328854 0.000287862)
(0.566605 -0.000368483 -0.000489115)
(0.552815 0.000938036 0.00115179)
(0.566784 0.000157101 0.000159377)
(0.563879 0.000361983 -0.000733088)
(0.557126 -0.00209025 0.00126298)
(0.55455 0.0114919 0.000467309)
(0.562275 0.000284583 -0.000165936)
(0.566007 0.000185726 0.000207757)
(0.564891 0.000212749 0.000470312)
(0.554742 0.000453704 0.00224054)
(0.199003 -0.197043 -0.00110213)
(0.565299 -0.000270293 -0.000187525)
(0.560064 0.000618119 -0.000143456)
(0.566177 -0.00078925 4.93483e-05)
(0.560983 -0.000619324 -0.00185779)
(0.561503 -0.000685576 -0.000146605)
(0.564913 0.000496577 -0.000587138)
(0.582164 0.0243054 0.0227348)
(0.56381 -0.000275297 0.000361463)
(0.565029 4.36146e-05 0.000105891)
(0.556947 0.00091639 0.00284196)
(0.565111 -0.000390069 -0.000241279)
(0.55363 0.0025846 0.00290891)
(0.564373 5.8956e-05 -7.95161e-05)
(0.566047 0.000581775 -0.000490572)
(0.577955 0.00276579 -0.000860705)
(0.593514 0.0123456 0.0095833)
(0.199023 0.198603 -0.000389817)
(0.563349 1.7687e-05 0.000449426)
(0.565725 0.000398769 8.81852e-05)
(0.564476 0.000129435 -0.0003654)
(0.563566 -0.000541317 0.00047449)
(0.567916 -0.000501039 -2.24844e-05)
(0.564981 0.00158323 0.00151462)
(0.564064 0.000334734 0.00018147)
(0.558514 0.00137034 0.00348578)
(0.562146 -0.000908187 0.000488099)
(0.564872 -0.000211235 -8.1583e-05)
(0.563775 -0.00120997 -0.000491386)
(0.570487 5.51073e-05 -6.68471e-05)
(0.197427 -0.19788 0.00334428)
(0.566673 -0.000286821 -5.87459e-05)
(0.564049 0.000203193 0.00389837)
(0.582495 0.00524665 0.0161545)
(0.591545 -0.00704967 0.0130209)
(0.566261 2.99556e-05 0.000154677)
(0.567016 -0.000822655 0.000427725)
(0.561344 0.00106593 0.00401089)
(0.562577 -0.000466372 0.000438357)
(0.5634 0.00101799 0.000881113)
(0.198218 -0.193516 0.00312068)
(0.566486 -0.00138956 -9.67186e-05)
(0.56335 0.000350191 0.000414489)
(0.560512 0.00209676 0.000598536)
(0.561253 -0.000665681 0.000603191)
(0.566128 -0.000484213 -0.000125882)
(0.565004 -0.0001644 -3.41213e-05)
(0.201663 -0.109166 -0.0011436)
(0.200407 0.20004 0.000142922)
(0.563531 -0.000938095 0.000581103)
(0.559879 0.000579312 -0.00116448)
(0.558098 -0.00147541 0.00230552)
(0.586913 0.00745189 0.00246127)
(0.565416 4.2071e-05 -4.94624e-05)
(0.196917 -0.19844 -0.00166543)
(0.565464 -0.00117513 0.000419065)
(0.564886 -0.000183399 -0.000147641)
(0.566644 -0.000978371 -9.44824e-05)
(0.563152 -0.00121454 -0.000696615)
(0.54588 -0.118179 0.0772342)
(0.564761 -0.00012771 -0.000237565)
(0.564982 -0.00023597 8.00453e-05)
(0.5576 0.0003779 0.00141058)
(0.564909 -0.00164695 -0.0037362)
(0.564271 -0.000619114 0.00150085)
(0.570072 0.000275455 0.00019381)
(0.20081 -0.200143 0.000132871)
(0.195989 -0.195354 0.00168597)
(0.567554 2.35896e-06 -2.94205e-05)
(0.567036 -0.00089662 0.000492892)
(0.581557 0.00213474 0.00129433)
(0.58702 0.00641492 0.00089805)
(0.577911 -0.00120221 0.00144459)
(0.566054 -0.000291327 -0.000688047)
(0.299281 -0.213289 -0.0187828)
(0.574262 0.00147704 0.000566751)
(0.563443 0.00229036 0.00300493)
(0.586155 0.017763 0.000901991)
(0.567503 0.000349688 0.000313329)
(0.565281 -0.000873893 0.000553367)
(0.567007 -0.00100632 0.0001632)
(0.569833 -0.00107484 0.000833108)
(0.560544 -0.00149565 0.000705171)
(0.568319 -0.000254596 -0.000624902)
(0.568039 0.00157088 -0.000606708)
(0.565023 -5.8222e-06 -0.000135351)
(0.563008 0.0011842 0.00367559)
(0.566215 0.00163715 -6.28139e-05)
(0.198731 0.198913 -9.78573e-05)
(0.195968 0.197806 0.00149905)
(0.567154 -0.000166037 -0.000411012)
(0.567235 -0.000483623 -0.000159593)
(0.567047 -0.000207051 -0.000284527)
(0.569088 0.000275153 -0.00145217)
(0.560491 -0.00111735 -0.000320828)
(0.562299 -0.000376655 0.000259218)
(0.567293 -0.000129776 -0.000245877)
(0.565305 7.15949e-05 0.000150653)
(0.56344 -0.00200869 0.000541756)
(0.566028 0.00029695 0.000206229)
(0.200736 0.200934 0.00131617)
(0.561462 -0.0032851 0.00169874)
(0.566939 0.000685449 -0.000104522)
(0.202035 0.202597 -0.000457523)
(0.566736 -0.000208043 0.000183791)
(0.195215 0.197029 -0.00207437)
(0.565268 0.00249389 -0.00204144)
(0.562537 0.00303692 -0.00304886)
(0.594673 -0.00977291 0.0182533)
(0.564558 -0.000555388 8.36541e-05)
(0.199743 -0.199402 0.000623364)
(0.600305 -0.0130707 0.0186366)
(0.555734 -0.0001715 0.00067165)
(0.564243 -6.60852e-06 -0.00033051)
(0.566687 -0.000327888 0.000455127)
(0.567174 0.000539991 -0.000198034)
(0.199171 0.199228 -0.000186614)
(0.548335 -0.000144121 -0.00206456)
(0.564062 -0.000933117 0.000317705)
(0.558911 0.000238455 -0.000671965)
(0.582578 -0.0108138 0.0167636)
(0.199615 -0.199995 -0.000180676)
(0.567465 0.000536414 0.000619)
(0.562774 -0.000628831 0.000173083)
(0.56641 -6.65347e-05 0.000228376)
(0.557067 -0.00123493 -0.000436404)
(0.567951 0.000254616 -0.000133692)
(0.563849 0.00124921 0.000965266)
(0.566782 0.00258747 -0.00169091)
(0.56495 -0.000399888 0.000209269)
(0.565442 6.93848e-05 3.07764e-05)
(0.557779 0.000822758 -0.00116868)
(0.564929 -0.000176544 -0.000124032)
(0.564369 0.000210107 -7.11308e-05)
(0.541007 0.00128429 -0.0010981)
(0.562784 5.02723e-05 -0.000218293)
(0.562777 0.000132791 0.000266133)
(0.567645 0.000158887 0.000117593)
(0.561954 -0.00104082 0.000650555)
(0.569774 -0.00324133 -0.00091572)
(0.199482 -0.199201 -0.000145641)
(0.590195 0.00291139 0.00636225)
(0.546908 0.000624579 -0.000839206)
(0.554115 0.00273311 -0.00704807)
(0.564793 -0.000163351 0.000112118)
(0.562218 0.000377292 0.000738071)
(0.199412 -0.199035 3.05704e-05)
(0.566508 0.00105918 -0.000580313)
(0.559161 -0.000282473 0.00065451)
(0.203242 -0.19465 0.000347044)
(0.565667 -5.83306e-05 0.000274123)
(0.199995 0.20004 -5.75828e-05)
(0.196477 0.201286 0.00051931)
(0.563236 -5.9409e-05 9.12569e-05)
(0.564627 -0.000682142 0.00118841)
(0.564541 -0.000406496 0.000184265)
(0.491003 -0.00577199 0.00283926)
(0.56783 0.000248125 0.000290781)
(0.19799 0.198557 0.000297143)
(0.566111 0.00019399 -0.000316652)
(0.197309 0.199025 0.00130157)
(0.562935 9.81365e-05 -0.000551836)
(0.200086 -0.200254 -1.43956e-05)
(0.564367 -0.000394122 0.000384191)
(0.565345 0.000225451 2.34498e-05)
(0.198913 0.19836 -8.67375e-06)
(0.199021 -0.199213 0.000129943)
(0.201361 0.198084 -0.00338408)
(0.563061 -7.61017e-05 -0.000267829)
(0.565886 0.00134456 0.00039682)
(0.560206 0.000768357 -0.000373671)
(0.566713 -0.000265169 5.95377e-06)
(0.277664 0.142085 -0.00511075)
(0.563272 -0.000401106 0.000954977)
(0.199302 0.1995 3.11796e-05)
(0.199582 0.200007 -6.40476e-05)
(0.564976 0.00258606 0.000934768)
(0.56007 -0.000463557 5.18349e-05)
(0.199366 -0.196652 0.000740695)
(0.563763 0.00031173 0.00117024)
(0.574317 0.000301517 6.12614e-06)
(0.379666 -0.147339 0.0156054)
(0.526854 -0.00158698 -0.000321569)
(0.551641 0.016359 -0.0118894)
(0.562557 0.00273002 0.00160653)
(0.561092 -0.000266471 -0.00248948)
(0.563482 -0.00168706 0.00130388)
(0.562486 0.000483298 -0.000509943)
(0.563749 0.000124749 -0.000178683)
(0.565003 -2.39135e-05 -0.00042927)
(0.564701 -0.000549321 -0.000504431)
(0.553116 -0.00291008 -0.000646163)
(0.560736 0.00442848 0.000767385)
(0.575913 0.00416479 -0.00282506)
(0.581582 0.00295349 -0.000776573)
(0.564384 0.000355188 -0.00136099)
(0.530708 0.000394238 -0.00296665)
(0.571577 0.00234227 -0.00161429)
(0.198921 -0.199129 1.82651e-06)
(0.56019 0.000616979 -0.00129546)
(0.199603 -0.199555 0.000196751)
(0.561371 -4.48596e-05 0.00020819)
(0.584046 0.00158563 0.00227947)
(0.567171 1.33207e-05 -0.000122166)
(0.567532 -0.0275365 0.0128024)
(0.532851 -0.0024695 0.00084261)
(0.535084 0.000133607 -0.00641108)
(0.561613 -0.000534601 0.000231073)
(0.563035 -0.0002453 0.000697618)
(0.563949 0.00123494 0.00237817)
(0.587945 0.0132008 0.0120591)
(0.56371 -3.53646e-05 8.03589e-05)
(0.563971 -0.000237795 0.000167454)
(0.2 -0.199858 0.00034349)
(0.56162 -7.56248e-05 -0.000227057)
(0.558021 -0.00164295 4.93786e-06)
(0.199437 0.199207 -4.03365e-05)
(0.564301 -0.00147096 0.00076663)
(0.575387 0.0180898 0.00859849)
(0.572339 -0.00456854 0.00663424)
(0.565002 7.93216e-05 -0.00135479)
(0.561278 -0.000245998 0.00148838)
(0.200476 -0.200429 -0.000938519)
(0.205317 -0.202252 0.000309093)
(0.574248 0.00571416 -0.00176937)
(0.565974 -0.000364903 -0.000492319)
(0.563243 -0.0010254 -0.00402442)
(0.202961 0.200382 -0.00178363)
(0.565221 -0.000608545 -0.000406138)
(0.200612 -0.199903 0.000300022)
(0.562055 -0.00042924 -0.00018368)
(0.563663 -0.000813332 -0.00101068)
(0.51654 -0.00741956 -0.00330172)
(0.580709 -0.00167123 0.00290566)
(0.20002 0.19974 -4.25038e-05)
(0.565386 -0.00104797 0.000625628)
(0.554067 -0.000109534 0.000312365)
(0.562409 -0.000100478 -0.00190509)
(0.566115 -0.000703041 -0.000172643)
(0.563956 0.0010215 -0.000944055)
(0.565183 -0.00124792 -0.000163288)
(0.562651 0.00166211 9.61601e-05)
(0.562265 0.000231601 2.47028e-06)
(0.580679 0.00133958 0.00229564)
(0.199645 -0.199554 0.00024924)
(0.547011 0.000406327 -0.000329247)
(0.561538 -0.000219433 0.00109351)
(0.577637 -0.00119972 0.00145791)
(0.564684 -0.000135998 -5.81278e-05)
(0.555175 -0.00159535 0.00152064)
(0.576997 8.66033e-05 0.000609247)
(0.200505 -0.199435 -0.00017906)
(0.560187 0.00514294 0.00196089)
(0.559702 0.00733781 0.00687649)
(0.567509 -0.000221994 -0.000148317)
(0.563836 0.000645002 -0.00061462)
(0.565749 0.000160324 3.53593e-06)
(0.560568 -0.00508251 -5.52085e-05)
(0.198388 0.198595 -0.000300489)
(0.199875 0.199799 1.13428e-06)
(0.198963 0.1998 2.46387e-05)
(0.563763 0.00215011 0.00285904)
(0.554098 -0.0031194 -0.00799999)
(0.504347 -0.00179486 0.000902627)
(0.577119 0.000984361 0.000560226)
(0.566687 -0.00295759 0.000957855)
(0.562933 -0.000508794 0.00067693)
(0.563139 0.000697932 -6.76956e-05)
(0.560048 0.000140819 0.000578363)
(0.563479 -0.00014486 0.000179481)
(0.20296 0.198887 -0.000349496)
(0.55589 -0.00677495 6.36199e-05)
(0.562457 -0.000568764 -0.00010004)
(0.56001 0.000883458 0.00129953)
(0.562515 -0.000572657 0.000596171)
(0.571973 0.000474449 0.000484868)
(0.567418 0.000774367 9.77893e-05)
(0.560668 0.000710056 -0.000873273)
(0.590316 -0.00144874 0.00684575)
(0.574148 0.000900124 0.000242477)
(0.559867 -0.000553329 -0.00130221)
(0.571355 0.000361053 -0.000105879)
(0.559649 0.00080096 0.00146267)
(0.562081 -1.67289e-05 -0.000154017)
(0.55609 0.00348782 0.00266879)
(0.566582 -0.000227637 -0.000478707)
(0.197299 0.196543 0.000418706)
(0.198794 0.198747 -9.63173e-05)
(0.573645 -0.00182 0.000794153)
(0.557046 0.000340303 0.00032386)
(0.566085 7.5341e-05 0.000486632)
(0.199187 0.200506 0.000238295)
(0.20001 -0.199959 -0.000256097)
(0.562745 -0.000772645 -0.000137693)
(0.200484 -0.200706 -1.16967e-05)
(0.564085 0.00027375 -2.77989e-06)
(0.567295 -2.87449e-05 -3.10925e-05)
(0.565728 -0.000246745 0.000110916)
(0.570643 0.000195135 0.000267433)
(0.560966 -0.00410235 -0.00136496)
(0.197936 0.200093 0.0014855)
(0.568064 -0.000720279 5.10272e-05)
(0.564783 -0.000203202 -5.82596e-06)
(0.198153 0.19836 0.000185619)
(0.563497 0.000303397 0.000467729)
(0.19828 0.200199 0.000328854)
(0.197313 0.196193 9.49389e-05)
(0.566838 0.000217488 -0.000509783)
(0.56747 0.000662365 -0.000130523)
(0.564251 -6.68977e-05 4.81576e-05)
(0.199169 0.198911 -0.000638431)
(0.199053 0.199096 0.000120112)
(0.486577 -0.00041444 -0.000892029)
(0.565739 -0.000500996 0.000993125)
(0.566212 0.000111124 -0.000247494)
(0.567086 -0.000412454 -0.000367489)
(0.564108 0.000504062 -0.000736334)
(0.565968 0.000244322 -0.000458879)
(0.563331 0.0205908 -0.0143651)
(0.199761 -0.200313 -0.000235203)
(0.56415 -0.000510049 1.90313e-05)
(0.560829 2.08267e-05 0.000176226)
(0.19943 0.199453 -4.02331e-05)
(0.200328 0.19868 -0.000271659)
(0.557002 -0.000214719 0.000175284)
(0.563701 -0.00037526 5.3773e-05)
(0.198437 -0.198837 0.000601726)
(0.566638 -0.000283616 -8.70811e-05)
(0.564932 0.000195603 -0.000185184)
(0.564932 -3.81573e-05 -0.00108293)
(0.590648 0.042935 -0.0159906)
(0.563167 0.000476048 9.01698e-05)
(0.568911 -0.000434428 -2.05638e-05)
(0.559231 0.0240787 -0.00304319)
(0.637599 0.12972 -0.0577669)
(0.566476 1.49313e-05 0.000121101)
(0.255857 0.160097 -0.0073909)
(0.561676 0.000572594 -0.000149649)
(0.200367 -0.199998 -6.02691e-06)
(0.558105 9.64778e-05 0.000966841)
(0.199713 -0.199532 0.000631517)
(0.565529 0.000144639 -0.000482685)
(0.563668 0.000447215 -0.000426241)
(0.199497 0.200291 -0.000229409)
(0.560794 0.000597908 0.000715386)
(0.565815 -0.00061662 -0.00027736)
(0.568219 -0.000303851 -0.000269354)
(0.199419 0.199112 4.97262e-05)
(0.198757 -0.199013 -0.000229662)
(0.561693 -0.000552278 0.000767731)
(0.162964 0.115974 0.0438196)
(0.567009 -0.00122679 -0.00065358)
(0.20042 -0.199736 0.000194067)
(0.582372 -0.000886176 0.00735354)
(0.561718 0.000466886 -0.000124329)
(0.567174 9.04258e-05 -0.000293888)
(0.200404 -0.198004 -0.00141012)
(0.568144 -0.000301108 -0.000173413)
(0.56551 -0.000986795 0.000600258)
(0.207115 0.196096 -0.00115441)
(0.56837 0.000177741 -0.000723819)
(0.566343 0.000274529 -0.00122723)
(0.567655 0.000311895 7.08057e-05)
(0.566567 -0.000304487 -9.63377e-05)
(0.568045 -5.90607e-05 -0.000194687)
(0.566132 -0.000430847 -0.000482182)
(0.200167 -0.200659 -0.000272445)
(0.192469 0.193548 0.000609814)
(0.56047 0.000413359 0.000977786)
(0.565436 0.000895971 0.00227684)
(0.564721 -6.24532e-05 -0.000356321)
(0.568099 9.81773e-05 -0.000358401)
(0.19952 0.199446 2.20597e-05)
(0.56606 -0.000203067 -3.91114e-05)
(0.565357 0.000117821 -0.00100769)
(0.570966 -0.000261387 0.000417389)
(0.566703 0.000206486 -0.000271327)
(0.568435 -4.8002e-05 -0.000364134)
(0.56042 0.000814726 0.000750485)
(0.565345 0.000521257 -0.00111449)
(0.56502 0.000513692 -0.000809382)
(0.198827 0.198663 -0.000342254)
(0.558628 0.000484488 -0.000112166)
(0.227802 -0.191984 -0.00760179)
(0.553896 -0.00346996 0.000655688)
(0.196659 0.191302 -0.00190574)
(0.198304 0.198716 -5.26698e-05)
(0.565707 -2.68151e-05 0.000144194)
(0.564828 1.14106e-05 0.000233122)
(0.199226 0.198885 -1.52079e-05)
(0.555862 -0.000481272 0.000472165)
(0.565504 -0.000625318 4.53832e-05)
(0.566354 -0.000482693 -0.000124876)
(0.566303 1.68592e-05 -0.000539001)
(0.199201 0.198405 0.000743337)
(0.564953 0.000279642 6.89186e-05)
(0.559991 -4.31179e-05 0.000665565)
(0.560541 5.99802e-05 0.000582607)
(0.567149 0.000210864 -0.000307985)
(0.56244 3.15985e-05 0.000390298)
(0.567028 -0.000104525 -0.000374423)
(0.565627 5.84845e-06 -0.000122875)
(0.565848 0.000167029 -0.000116234)
(0.562375 -7.99839e-05 0.000277768)
(0.573723 -0.000851222 0.000508538)
(0.157291 0.0630617 -0.0719718)
(0.562821 -3.00194e-05 0.000370776)
(0.198254 0.19872 0.000269398)
(0.565514 0.000174877 0.000907753)
(0.566687 -0.000176957 -0.000691016)
(0.562873 0.00231219 -0.000643115)
(0.55805 -0.00216563 0.00389052)
(0.564428 -0.00101432 0.00210063)
(0.568217 0.000382482 5.8926e-05)
(0.567417 -9.72267e-05 -0.000809978)
(0.566901 -0.000263321 -0.000270899)
(0.567043 -0.000810713 -0.000894963)
(0.56114 -0.00110562 0.000854205)
(0.197993 0.19951 -0.0028996)
(0.566704 -0.000240935 0.000239095)
(0.565992 0.00033883 0.00033163)
(0.567896 -0.000310317 8.65158e-05)
(0.566021 -0.000101202 -0.000396103)
(0.566386 -0.000737906 -0.000629122)
(0.562658 -7.70259e-05 0.000384663)
(0.556434 0.00647466 -0.00109426)
(0.572349 0.000718413 0.000614826)
(0.558259 0.00181626 -0.000921346)
(0.562507 0.000322519 -0.000890184)
(0.199323 0.19933 8.48207e-05)
(0.200511 -0.199733 -3.52409e-06)
(0.566806 0.000176735 0.000172228)
(0.567758 0.000427551 0.000322087)
(0.5626 -0.000531851 0.000432043)
(0.558814 0.000710728 -0.00210083)
(0.561469 -0.000866564 6.12773e-05)
(0.198843 0.199068 -0.000326637)
(0.199095 0.199301 -0.00015422)
(0.566907 -0.000822609 -0.000893241)
(0.564118 -0.000437745 0.000152117)
(0.5656 -0.000281111 -0.000326817)
(0.565728 -1.76434e-05 -0.000196511)
(0.565007 -0.000125081 -0.000734261)
(0.566435 -0.000372262 -0.000196305)
(0.220677 -0.153345 -0.0146227)
(0.568005 0.00017251 -2.76698e-05)
(0.561831 -0.00114667 0.000862762)
(0.559936 0.000514721 -0.000830452)
(0.556672 3.56815e-05 -0.0017776)
(0.568201 -0.000143789 -0.000101009)
(0.541733 0.0034061 -0.0126139)
(0.556988 0.0163704 -0.0106974)
(0.568007 0.000104153 3.13698e-05)
(0.562177 -0.000833156 0.000830018)
(0.560599 -0.000278873 0.000383905)
(0.563115 -0.000624074 0.000636288)
(0.573228 0.000308855 -0.0010098)
(0.199322 0.199347 4.8919e-06)
(0.556519 0.00231666 -0.00216091)
(0.567251 -5.51572e-05 -4.32616e-06)
(0.550594 -0.0021205 -0.00585078)
(0.56615 0.000116666 -0.000586221)
(0.566916 8.0085e-05 -0.000593901)
(0.19973 0.197602 -0.000812302)
(0.563201 -0.000964044 0.00411692)
(0.573329 -0.00043039 0.000110798)
(0.567124 -1.01846e-05 -0.000599737)
(0.56114 0.000314001 0.000993517)
(0.553632 -0.000179718 -0.00167632)
(0.199309 0.20511 -0.00187079)
(0.19782 0.195524 -0.00103412)
(0.566088 0.000347619 0.000184388)
(0.566564 -0.000221684 -0.000159927)
(0.566537 -0.000107012 4.11751e-05)
(0.567789 -5.03507e-05 3.66159e-05)
(0.566362 0.000151423 3.05076e-06)
(0.565458 0.000560888 0.000455772)
(0.56249 -0.000647326 0.00081281)
(0.566553 0.00158868 -0.00274075)
(0.565642 -0.000231635 -0.000851667)
(0.566167 0.000867443 -0.000280449)
(0.564125 -0.00127571 0.00227399)
(0.561242 0.00117543 -0.000712588)
(0.562856 -0.000651246 0.000144395)
(0.566443 0.000200624 -0.000405707)
(0.19862 0.198614 0.000112669)
(0.56693 4.5374e-05 -0.000299999)
(0.20042 0.200586 -0.000123338)
(0.199606 0.199139 3.64709e-05)
(0.565825 0.000952508 -0.000461932)
(0.562746 8.5516e-05 0.000181346)
(0.56694 -0.000829642 0.000527667)
(0.200416 -0.200246 -3.67847e-05)
(0.564527 1.18061e-05 0.00044867)
(0.560786 0.00106818 -0.00172003)
(0.567622 0.000530616 -0.00108723)
(0.199547 0.199648 9.19801e-05)
(0.5651 -0.00032285 -0.000191272)
(0.197084 0.198847 -0.000606214)
(0.563458 -0.000315404 0.00334528)
(0.198069 0.196984 -0.000134447)
(0.561772 -0.000296097 0.00103445)
(0.558422 -0.000234126 0.00108585)
(0.563699 -0.000147325 2.10026e-05)
(0.565584 0.000776519 -2.97179e-05)
(0.200337 -0.200254 0.000102606)
(0.198373 0.198349 -0.000169378)
(0.566764 0.00262092 -0.00298228)
(0.555283 -0.000241007 0.0018881)
(0.567472 8.48274e-05 -0.000853824)
(0.566227 7.42762e-05 -0.000354216)
(0.565191 4.84604e-05 -0.000755706)
(0.563974 0.00117605 -0.00034295)
(0.574544 0.00316713 -0.00125631)
(0.199747 0.199936 -0.000265751)
(0.581971 0.00708787 -0.000892471)
(0.565134 -0.000522038 -0.000743409)
(0.541799 0.0633901 -0.0393969)
(0.198089 0.196663 0.000529745)
(0.567618 0.00130443 -0.0016276)
(0.546546 0.00044196 0.0014769)
(0.19941 0.19782 0.00170475)
(0.581613 0.00223388 0.00103026)
(0.567738 -0.000246975 -0.000528602)
(0.199676 -0.199563 -7.00426e-05)
(0.558471 1.16654e-05 0.00130143)
(0.596324 0.00836544 0.0013367)
(0.566719 -0.000490672 -0.000167449)
(0.561981 -0.00146177 0.00245405)
(0.576441 0.00509074 0.0273445)
(0.560338 0.00080362 -0.000470554)
(0.563964 -0.000142501 -0.000403433)
(0.560373 0.000105797 -0.0019645)
(0.539768 -0.000107007 4.59765e-05)
(0.567037 -0.0230689 0.0258975)
(0.564245 0.000334264 0.000772617)
(0.555458 -0.0011009 -0.000173483)
(0.566447 1.23133e-05 -0.000165197)
(0.575443 -0.00145394 0.000965246)
(0.567317 -3.71188e-05 7.81616e-05)
(0.567682 0.00222217 -0.00160126)
(0.199413 0.199488 2.2063e-05)
(0.566549 0.000720526 -0.0002872)
(0.580707 0.000369275 0.00146421)
(0.591081 0.00565001 0.00762917)
(0.199739 -0.199758 -7.5976e-05)
(0.562161 -0.00108053 0.0010855)
(0.569027 0.000431277 -0.000192118)
(0.197202 0.195143 0.0004012)
(0.557961 0.000397045 -5.32808e-05)
(0.562274 0.000162677 -0.000466899)
(0.566148 0.00040088 -0.00061448)
(0.568919 0.000352415 9.46498e-05)
(0.562027 -0.000543864 -0.000341958)
(0.565471 -0.000235839 0.000199563)
(0.198912 0.199229 -0.000230497)
(0.562289 -0.000281594 -0.00176762)
(0.570678 7.53305e-05 -0.000294934)
(0.198979 0.198969 0.000237727)
(0.200022 0.199453 -0.000106004)
(0.565783 0.000423926 0.000315928)
(0.199435 0.199786 -0.000106825)
(0.564461 -0.000188489 0.000389842)
(0.560179 -0.00405326 -0.000334906)
(0.566236 0.000268145 -0.000312405)
(0.562373 -0.000607869 -0.00229139)
(0.562334 -5.34601e-06 -0.00182301)
(0.284057 -0.0198827 0.0421648)
(0.199424 0.199669 0.000193414)
(0.571487 0.000337178 -1.51167e-05)
(0.56613 5.728e-05 0.000160266)
(0.56296 0.000573216 -0.000470862)
(0.560645 0.00272923 -0.00192472)
(0.563189 -0.000147975 -0.000789133)
(0.199139 0.199304 -0.000233185)
(0.544411 -2.91957e-05 -0.000737602)
(0.560664 -0.000222177 -0.000883979)
(0.555987 0.00165724 0.00417617)
(0.567069 -0.000217467 0.00109024)
(0.56376 -0.00105002 -0.000320039)
(0.555357 0.0182574 -0.0205998)
(0.566532 -0.00165454 5.85917e-05)
(0.551116 0.00594046 -0.0109471)
(0.198637 0.19529 -0.00113234)
(0.199646 0.199579 0.00018301)
(0.199117 0.199118 -3.47112e-05)
(0.566949 0.000300421 -0.000110891)
(0.565948 -0.000499852 -0.000508569)
(0.199138 0.198567 -9.91327e-05)
(0.564229 -0.000118181 0.000814017)
(0.557588 0.00377014 0.00295639)
(0.55715 -0.000753176 -0.000606778)
(0.501338 0.0706865 -0.0405599)
(0.559334 -0.000791103 -0.000487012)
(0.565779 0.000201553 0.000124573)
(0.199834 0.204361 0.000337143)
(0.557126 0.0130837 -0.0207429)
(0.199865 0.199844 0.000132898)
(0.198918 0.198381 0.000354083)
(0.566184 -0.000224482 -2.73e-05)
(0.317953 0.243253 0.0366825)
(0.290034 -0.118019 -0.00399035)
(0.562648 -0.00131243 -0.000134667)
(0.194325 -0.197747 0.00026005)
(0.566256 0.000126661 -7.14303e-05)
(0.560794 -0.00256927 -0.00507982)
(0.570075 0.0195119 -0.0138955)
(0.56577 -0.000195094 0.000360792)
(0.575774 0.0110775 -0.00355931)
(0.563837 0.000345783 0.000188722)
(0.570726 -0.0365283 -0.0107167)
(0.199033 0.198996 5.3451e-05)
(0.198889 0.19803 0.000205563)
(0.564641 -0.000986878 -5.12415e-05)
(0.563577 -0.000699946 0.00107015)
(0.566983 -0.000406367 0.000193816)
(0.195871 0.198987 -0.00154622)
(0.560184 0.00115116 1.03888e-05)
(0.565588 -0.000415504 0.000100138)
(0.565891 -6.79718e-05 -0.000264831)
(0.199252 0.199478 0.000835968)
(0.56565 0.000221776 -0.000592348)
(0.565824 -0.000243025 -0.000262836)
(0.51103 0.0571369 0.0378576)
(0.199119 0.19915 -0.000146544)
(0.64531 0.172787 -0.00639653)
(0.522372 0.073542 -0.0535176)
(0.2002 -0.199484 4.38663e-05)
(0.19981 0.199082 0.000340515)
(0.198922 0.198529 5.33493e-05)
(0.200466 0.199835 0.000424547)
(0.199963 0.199692 -0.000792067)
(0.565857 0.00057855 -0.000109854)
(0.566381 -0.00014309 0.000213354)
(0.564942 0.000509881 0.000159698)
(0.199458 0.198447 0.000171484)
(0.565029 -0.000323815 -0.000138374)
(0.567505 2.12666e-05 0.000423311)
(0.199652 0.198945 0.000263437)
(0.579113 -0.00409424 0.00992137)