/*--------------------------------*- C++ -*----------------------------------*\
  =========                 |
  \\      /  F ield         | OpenFOAM: The Open Source CFD Toolbox
   \\    /   O peration     | Website:  https://openfoam.org
    \\  /    A nd           | Version:  10
     \\/     M anipulation  |
\*---------------------------------------------------------------------------*/
FoamFile
{
    format      ascii;
    class       surfaceScalarField;
    location    "5";
    object      phi;
}
// * * * * * * * * * * * * * * * * * * * * * * * * * * * * * * * * * * * * * //

dimensions      [0 3 -1 0 0 0 0];

internalField   nonuniform List<scalar> 
214403
(
-0.00655865
0.00502941
0.00027778
0.00125146
-0.00322248
-0.0108392
0.000921722
0.01314
-0.0099027
6.56484e-05
-0.000134846
0.0099719
0.00863278
-0.00580356
-0.0144702
0.011641
0.0118719
-0.0150097
0.00357357
-0.000435687
-0.0051721
0.0053887
-5.32003e-05
-0.000163392
-0.000829548
-0.0015662
-0.00890866
0.0113044
-0.0164179
0.00934525
-0.00246725
0.00953993
-0.0225241
0.0159085
0.0160471
-0.00943155
0.0137105
0.00162809
-0.0153252
-1.33549e-05
0.00486965
-0.00964477
0.00198395
0.00279116
-0.00999102
0.00314104
0.00517864
0.00167134
0.000460671
-0.0110681
0.0133316
-0.00272418
-0.00960934
0.00966457
-5.52315e-05
0.00185384
0.0115305
-0.0147812
0.00139695
-0.0116381
0.00972853
0.00294728
-0.00103772
-0.0117207
0.0114322
0.000288527
0.00380425
-3.46529e-05
-0.00092263
-0.00284697
0.0151492
-0.00906566
-0.0201426
0.0140591
-7.36591e-05
-0.003023
8.89011e-05
0.00300776
0.0062342
-0.00608777
-0.00014643
-0.0118801
-0.0041101
0.00408649
0.0119037
-0.00220478
0.0131782
-0.0106282
-0.000345204
0.00649725
0.000681475
0.00226551
-0.00944424
-0.00990158
-0.00476136
0.0128193
0.00184367
0.0089564
-0.0113428
6.65271e-05
0.00231984
0.00311995
-0.00272702
0.0102146
-0.0106075
0.00739753
0.0096754
-0.0116537
-0.00541921
0.0107974
-0.00677122
-0.000307171
-0.00371897
-0.00570954
0.00582018
-0.000110644
0.00235582
-0.00490797
0.0130987
-0.0105465
0.0136432
0.00064667
-0.00237842
-0.0119114
-0.00547636
-0.0056206
0.00575587
0.00534109
-0.00115413
-0.00650883
0.00576581
0.00189715
0.0042532
-0.00289522
-0.00907164
0.00771365
-0.00164703
0.00821657
-0.00296839
-0.00360115
0.0155089
-0.000383771
-0.0151252
-0.00666237
0.0129962
-0.00633384
0.00120226
-0.0142588
0.00825815
0.00479835
0.0023738
-0.00095445
0.00580969
-0.00722903
0.00549276
-5.76856e-05
-0.00543507
0.00990212
-0.000213252
0.00175448
-0.0114433
-0.0125587
0.00157756
0.0133549
0.000836846
0.000855166
0.00834292
-0.0100349
-0.00398669
-0.0260214
0.0252407
0.00476735
0.00556017
0.00100398
0.00125702
-0.00782118
0.00409932
0.0031006
-0.0100146
0.00281472
0.0129101
0.00773538
-0.0141482
0.00116892
0.0109594
-0.00222616
0.00177362
-0.00663777
-0.00390994
0.00877409
0.00302142
0.00464269
0.00138222
-0.00904634
0.00178555
-0.0013418
-0.00412344
0.00367968
0.00668843
-0.0121066
0.00843959
0.0115124
-0.0108399
-0.00371748
0.00304494
0.0103552
-0.00189317
-0.00830718
0.0112626
-0.000477408
-0.002478
0.0085538
-0.0109394
0.000126854
0.00225871
-0.00797983
0.000527994
0.0127514
-0.00529957
-0.0148331
-0.0139577
0.011713
0.0170778
-0.00792303
0.00797377
0.00156676
-0.0016175
0.00125061
-0.0101281
-0.00834709
-0.000173859
0.00433917
0.00418178
-0.0129847
0.00557504
0.00840064
-0.000990926
0.0152288
-0.0122687
0.00078393
-0.00374401
0.000697819
0.000256304
-0.00997574
0.00902162
0.000505957
-0.00276954
0.0136895
-0.0114259
-0.0338085
0.00354805
0.00378528
0.0264751
-0.00310433
0.00914916
-0.00289975
-0.00314508
0.00450441
-0.00236766
-0.00962051
0.00748376
0.00108321
0.00674451
-0.00857104
0.00074332
-0.000164907
0.00823267
0.00286173
-0.0109295
-0.00163492
-0.000260266
-0.00341237
0.00530756
-0.00877062
0.00958306
-0.000361622
-0.000450812
0.00030626
-0.0087866
-0.00619622
0.0054885
0.00166568
-0.000957955
-0.0163493
-0.00103321
0.00797577
0.00940671
-0.00492889
-0.002101
0.00419357
0.00283632
0.00727773
-0.0244051
0.00338211
0.0137453
-0.00378625
0.00761933
-0.00416182
0.000328738
0.00542711
-0.00421508
0.000535991
-0.00174802
0.000125416
-0.0102639
0.0101385
3.52243e-05
0.00832648
-0.00836171
0.00731199
-0.00142933
0.000968212
-0.00685087
-0.00442626
0.0063152
0.00209322
-0.00398216
-0.00310597
0.0132383
-0.00318388
-0.00694845
0.00625974
-0.0106726
-0.000402901
0.00481579
0.00713424
0.00752509
-0.0146593
0.0105359
-0.0118404
0.00303373
-0.00172919
0.0010258
-0.00190063
0.0137543
-0.0128795
0.000396986
-0.00221398
0.0099027
-0.00808571
0.00235837
0.0207131
0.00596427
-0.0290357
-0.0181162
0.0159361
0.010334
-0.00815384
0.000830774
0.0064027
-0.00860236
0.00136888
0.00847397
0.00941183
-0.00308032
-0.0148055
0.0157062
-0.00954428
-0.000309389
-0.00585257
0.000690711
-0.00202429
-0.00635662
0.00769021
-0.0064329
3.65741e-05
0.00639632
0.00954764
0.000329716
0.000658531
0.0118785
0.000999674
-0.0180751
0.00519696
-0.00952635
0.00210032
0.00169399
0.00573204
-0.00607022
0.0015051
0.000746164
0.00381895
0.00147798
0.0010579
-0.012544
0.0100082
-0.00256077
-0.0149033
0.00950166
0.00796245
0.00599924
-0.00709852
-0.00462444
0.00572372
0.00969519
-0.00010105
-0.00969211
9.79626e-05
0.00739012
-0.0104455
-0.0036177
0.00667313
0.0191349
-0.00579226
-0.00298148
-0.0103612
0.0108869
-1.90553e-05
-0.0100101
-0.000857731
-0.00550767
0.00648394
0.0135094
-0.0144857
0.0117897
-0.00413884
-0.0113406
0.00368974
0.00217675
-0.00317913
0.0138219
-0.0128195
-0.0155504
0.0141721
0.0134362
-0.0120579
0.000701584
-0.0121386
0.00468362
0.00675345
0.0151959
-0.000799875
-0.000312453
-0.0140836
0.0107598
-0.00209557
0.00208139
-0.0107456
-0.0124665
-0.0113412
0.0134221
0.0103856
-0.00236638
0.00678992
0.00184061
-0.00626415
-0.00527455
0.00028755
0.010223
-0.00523601
-0.00118096
0.0133195
-0.0123962
0.000257703
-0.0115568
0.0107323
0.00208924
-0.0012647
-0.000388144
-0.00674175
0.0160863
0.00211526
-0.00703727
-0.00515136
0.0100734
-0.0055818
7.27331e-05
0.00550907
0.0017116
0.00778309
-0.0071997
-0.00229499
0.0124788
-0.00719599
-0.00191399
-0.00336879
9.45949e-05
-0.00371532
0.00362073
-0.00700596
-0.00189041
0.00263578
0.00626059
0.000729081
0.00401143
-0.00899731
0.0042568
0.0153657
-0.00138779
0.0060047
-0.0199826
0.00109392
-0.00136804
-0.0184876
0.0187617
0.0011926
-0.00530061
-0.00700018
0.0111082
0.000447952
0.00963716
-0.000537475
3.86652e-05
-0.00570214
0.00566348
0.0116913
-0.00434057
-0.00523547
-0.00708605
0.00591474
-0.00583465
0.0129421
-0.0107701
-0.00130837
-0.000863634
0.00129146
-0.00610654
0.00266978
0.0021453
-0.0105539
-0.00319895
0.00214686
0.011606
0.00879264
-0.0142867
0.00941485
-0.00392082
-0.000392613
0.0129115
-0.0129279
0.000409007
-3.9096e-05
0.0118093
-0.0117012
-6.90671e-05
-0.016418
0.013102
-0.0105168
0.0138329
0.0136879
-0.0132461
-0.000441794
-0.0125817
0.0168457
-0.00307434
-0.00118968
-0.0112315
0.00270166
-0.000847612
0.00937748
-0.0184894
0.00142012
0.0118881
0.00518117
0.00326906
-0.00446504
0.00248744
-0.00456028
0.00518428
0.00834068
-0.00896468
-0.00489532
-0.00219681
0.00280131
0.00429082
-0.00666528
0.00435797
-0.00841326
0.0107206
0.00200192
0.000164349
-0.014748
-0.00660759
0.00659286
1.47351e-05
0.00718339
-0.00690678
-0.000276613
-0.0108452
-0.000709137
-0.00288401
0.00266765
-0.0142749
0.0166152
-0.00500797
0.00642306
0.0110502
-0.0140549
-0.00341843
0.0122705
-0.0133279
0.000359036
0.000698303
0.00656144
0.00170222
-0.00677964
-0.00148402
-0.0103382
-0.000573512
0.0135794
0.0059866
-0.000432643
-0.00729795
0.001744
0.00674523
-0.00577614
0.00665413
-0.00762322
-0.0116843
0.00219652
0.0159108
-0.00395215
-0.00553345
0.018286
-0.00880037
-0.00562723
-0.00621013
0.00149912
0.00167266
0.00446324
-0.0117631
-0.00798317
-0.000704407
0.01283
-0.00414237
0.00124313
0.00196553
0.00712032
-0.010329
-0.00377738
0.00924575
-0.00546837
0.00299232
-0.0144197
0.00521729
0.00859272
0.00600021
-0.0129203
-0.0120945
0.000146414
0.0150702
-0.00312216
0.0020689
0.00177294
0.00553787
-0.00937972
0.00822865
-0.008292
6.33492e-05
0.00306158
-0.0011563
0.0102778
-0.0121831
0.01081
-0.00342466
0.00519428
-0.0125796
0.0199423
-0.00641866
0.0148806
-0.0284042
0.00323714
0.00602537
-0.00250441
-0.0067581
-0.00905834
0.00372602
0.00474677
0.000585548
0.00649014
-0.00488894
-0.000134677
-0.00146652
-0.00416385
-0.00527211
0.0153617
-0.00592569
-0.00726949
0.00944021
0.00376196
-0.00593268
0.010951
-0.0005987
-0.00360711
-0.0169019
0.0111743
-0.00093777
-0.0161186
0.0148725
0.00690728
-0.00566114
0.0102842
-0.0115892
-0.00167334
0.0029784
0.0057937
-0.0104765
-0.00548173
-0.00598887
-0.0054946
0.00310547
0.00837801
-0.00854339
0.00265269
0.00843831
-0.0025476
0.00989898
-0.00941935
-0.00649335
0.00601372
6.1045e-05
-8.6915e-05
-0.00932135
0.00934722
0.000225626
-0.00815302
-0.000308977
0.00823637
-0.00235848
-0.0139694
0.00219571
-0.00807931
0.00726654
-0.00138293
-0.0054664
-0.00230199
-0.000774999
-0.000179623
0.0136983
0.000191786
-0.0327493
0.0230369
0.0166535
-0.00694115
-0.00969136
0.00065969
0.000347723
0.00868394
-0.00192379
0.0306653
-0.0360953
0.00735376
0.00153953
0.00237467
-0.00532874
0.00141455
-0.0207416
0.0111751
0.0014464
0.0081201
-0.000243782
-0.0137602
-0.00196192
0.0159659
-0.00566529
0.020721
-0.0143716
-0.000684138
0.00930282
0.0135272
-0.0125034
-0.0103266
-0.0110992
0.0105734
0.0131271
-0.0126013
0.00433152
0.00605236
-0.00753871
-0.00284516
0.00428382
-0.00288737
-0.00686285
-0.0220553
-0.000873345
0.0180066
0.00492205
0.00651118
0.00100125
-0.00378642
0.00665589
0.00891129
-0.0082278
-0.00733938
-0.0110183
0.00245979
0.0107441
-0.00218554
0.00130592
0.0034675
0.0120723
-0.0127868
0.0126226
0.00122554
-0.00106135
0.00794767
0.00623931
-0.00562019
-0.000221958
-0.00158164
0.00742379
-0.00845054
-0.0016836
0.00470224
-0.0162359
0.00690612
0.00462752
0.000494238
0.00878812
-0.00974941
0.000467061
-0.00336443
0.000651248
-0.00313149
0.00584467
0.0135998
-0.00972225
0.000406231
-0.00770824
-0.00603215
0.00811377
0.00562663
0.029106
-0.0311376
0.0101722
-0.00814061
-0.00562559
0.00698997
0.00281566
-0.00418004
-0.0128494
0.00557188
0.0111983
-0.00392071
-0.005538
0.00804003
0.0103428
-0.0128448
0.0154911
-0.00597711
-0.0102489
0.000734862
0.000268386
-0.00375624
0.00913623
-0.00564837
-0.001588
0.00157337
-0.0120799
0.0111557
0.00361968
-0.0119438
-0.0028316
0.0140164
-0.0115012
-0.0030887
0.00292499
0.00432159
-0.010243
0.00299637
-0.005801
-0.0106061
0.00943313
0.00697394
-0.00175932
-0.00456641
-0.00138251
0.005719
-0.00610737
0.0131637
-0.0127753
0.00138523
-0.0159367
0.0145514
0.00539118
-0.00706418
0.00459799
0.00296628
0.00171202
0.0024329
-0.00711121
-0.000301808
-0.0132991
0.0136009
-0.00730131
0.000969952
-0.00236968
0.00870104
-0.000872752
0.0101026
-0.00920226
-2.76284e-05
-0.00684003
-0.00362176
0.00394983
0.00651195
-0.00254946
-0.00604989
-0.00561385
-0.00825361
0.00688403
0.00698344
0.000303696
-0.00846701
0.0145158
-0.00596805
-0.00077303
-0.00777477
0.00778025
-0.00074704
-0.00567473
-0.00135849
-0.00125717
0.0108848
-0.0135654
0.00393777
0.00699768
0.000269142
0.00340659
-0.0106734
-0.000256192
-0.00575261
0.00277963
0.00322918
-0.0040086
0.00521333
0.0100698
-0.0112746
-0.0141652
-0.00365205
-0.00394592
0.0129891
-0.0121985
0.000293238
0.00381553
0.00808977
0.00117443
-0.00430538
-0.00765114
0.0107821
-0.00559907
-0.0109291
0.0027581
0.01377
-0.00505636
-0.00560543
0.00583367
0.00482812
-0.0131279
0.0126358
0.0133422
-0.0128502
-0.00179023
-0.00312559
-0.00942423
0.0143401
-0.0129047
0.00129375
0.0131336
-0.00152266
-0.00224992
0.0060018
-0.00375189
-0.00522492
0.00965879
-0.00727034
0.00283647
-0.000216897
0.0172243
-0.00641099
-0.0105964
-0.00617736
-0.00298327
0.0123824
-0.00322176
0.00198665
-0.00521004
0.0118212
-0.00859785
0.000545859
0.00773992
-0.00135595
-4.32701e-05
-0.0125872
0.0125817
4.87619e-05
0.0144802
-0.00256528
-0.0211639
0.00924897
-0.0133749
-0.00130483
0.0166935
-0.00201378
-0.0072571
0.0109645
0.00089987
-0.0046073
0.00646093
-0.0063862
-7.47342e-05
-0.00767849
0.000742964
-0.00662543
0.013561
-0.0110817
0.0152728
-0.00318234
-0.00100882
0.00690569
-0.00289535
-0.00832648
0.00431615
-0.0133398
0.0134554
-0.000115601
0.0109983
-0.0159902
0.00129115
0.00370069
-0.0124477
-0.00340769
0.0212873
-0.00543189
0.00919821
-0.000386887
-0.0019307
-0.00688062
-0.00523796
-0.00888639
0.0198433
-0.00093059
-0.0131048
0.00792807
0.0205335
-0.022901
-0.00218051
0.00454808
0.00556269
0.00265186
-0.00614565
-0.00584759
0.00609682
-0.000249239
-0.00235438
0.0131647
-0.000836373
-0.00997396
-0.00287127
0.00340605
0.0114494
-0.0119842
0.00748655
0.0175961
-0.0102835
-0.0147991
0.0129274
-0.0155101
0.00493175
-0.00234903
0.0116626
0.000162083
-0.0118247
0.000215717
0.0113513
-0.011567
0.0128055
-0.0154984
0.0136912
0.000136651
-0.000115618
0.0100096
-0.0100306
0.000259542
0.0181766
-0.0181146
-0.000321536
-0.00155096
-0.00458431
-0.00928201
0.0154173
-0.00568214
-0.00340237
0.00113962
0.010759
-0.0187131
0.00681447
-0.00902365
-0.0023664
0.00967507
0.00171498
-0.0107391
0.0118582
-0.00316886
0.0020498
0.0016793
0.00874784
-0.00297657
-0.00745057
-0.00421788
0.0010362
0.00717858
-0.0039969
-1.19953e-05
0.00328096
-0.00412864
0.000859681
-0.00456302
0.0111634
-0.00643528
-0.000165071
0.00333257
-0.0105273
-0.0061451
7.52939e-05
-0.00981448
0.00973919
-0.00367119
-0.00352274
0.0016335
0.00556043
0.00545998
-0.00314989
-0.00231009
0.0137149
-0.0136179
-0.00278234
0.00268532
-0.00125226
-0.00813594
0.00750451
0.00188369
-3.49217e-05
4.67372e-05
0.00741095
-0.00742276
0.00369769
-0.00303938
-0.0117645
0.0111062
0.00853751
-0.000219523
-0.00831799
-0.0124188
-0.00804317
0.0119833
0.00847867
0.00726333
0.0113728
-0.0195668
0.0069029
-0.00248408
0.00388814
-0.00830696
-0.00276614
0.00275472
-0.0152661
0.0152776
0.00430239
-0.00847583
-0.00823987
0.0124133
-0.000868599
-0.00194072
0.00914075
-0.00633143
0.00636898
-0.00782711
0.00283623
-0.00137809
0.0035275
-0.00584759
-0.00565259
0.00797268
-0.0112973
0.0127131
-0.00337583
0.00196008
0.0129148
0.0166001
-0.0182861
-0.0112288
-0.0099634
0.00992015
4.3256e-05
-0.00111796
0.011759
-0.0146842
0.00404317
0.00045514
-0.000742318
-0.0113274
0.0116146
0.0110501
0.000463403
-0.0127138
0.0012003
-0.00477336
-0.00806762
0.0101456
0.00269537
-0.011531
0.0163387
-0.00578601
0.000978269
-0.00469875
-0.00575445
0.00341592
-0.000700743
-0.000119963
-0.00812553
0.00894624
-0.0265473
0.000102985
0.00237336
0.0240709
0.001046
-0.00672001
-0.00347832
0.00915233
0.0165817
-0.00136376
-0.00536776
-0.00985022
-0.00293059
-0.00635814
0.00122277
0.00806596
0.00469511
-1.68276e-05
-0.00467828
0.00780053
0.00415392
-0.00258845
-0.00936601
0.00603609
-0.00477804
0.0118998
-0.0131579
0.000388068
0.0123848
-0.00409208
-0.00868077
0.00300328
0.00429162
0.00928683
-0.00590197
0.000424988
0.00547698
-0.00768032
0.00109117
0.00203492
0.00128637
-0.0106091
0.00728778
-0.0100825
0.0147549
0.00446633
0.0152402
-0.00322809
-0.0164785
-0.00969798
0.00951819
-0.0150637
0.0152435
-0.00144649
-0.00725636
0.00253801
0.00616484
-0.0080244
0.0151586
0.00451633
-0.00525725
0.00117755
-0.000436631
-0.00497443
-0.0158541
0.00496347
0.0158651
0.0104124
-0.0103901
-9.68917e-05
7.46539e-05
0.00841711
-0.00983886
0.00209387
-0.000672121
0.00216017
0.00845498
-0.0150657
0.00445057
3.67504e-05
0.00723202
-0.00726877
0.00470939
-0.0120679
0.00951866
-0.00455683
0.0122382
0.0103112
-0.0179926
0.00347311
-0.00354337
-0.0164638
0.0165341
-0.00496404
0.00822532
-0.0165025
0.0132412
-0.0118161
0.00940725
0.0123329
-0.00992401
-0.00737243
0.0101003
-0.00652648
0.00379864
-0.00157168
0.00684645
0.00111506
-0.00638984
0.00343256
-0.00500554
0.0051617
-0.00358872
0.00654766
0.00243636
0.00215373
-0.0111377
0.0185099
-0.0125638
-0.000759922
-0.00518611
-6.79042e-06
-0.0089774
0.00898419
0.00562727
-0.00822982
-0.0252337
0.0278363
-0.00113145
-0.0122243
-0.00370436
0.0170601
-0.000739674
-0.00560049
0.00634016
0.00171472
0.00812557
-0.00128802
-0.00855226
-0.00225898
-0.00815619
0.0065818
0.00383336
0.00637833
-0.00534287
-0.00938255
0.0161512
-0.0125732
0.00358344
0.00379612
-0.00737957
0.0122243
-0.000224888
-0.0014544
-0.010545
-0.0023589
-0.00401252
0.00637141
0.00434165
0.00288499
0.0243921
-0.0293394
-0.0103552
0.0153026
0.00373009
0.0079436
-0.00607631
-0.00559738
-0.00852996
0.0163392
0.0108553
-0.0186645
0.00964247
0.0033474
-0.00128865
-0.0117012
0.0158519
-0.0105709
0.00682049
-0.0121015
-0.0089473
0.00409103
-0.0112211
0.0160774
-0.0145334
0.0260372
-0.010201
-0.00130284
-0.000390067
-0.00618508
-0.00852625
0.0151014
0.0117897
0.0048747
-0.0138386
-0.00282572
0.00633241
-0.0168759
0.010647
-0.000103542
-0.0148813
-0.000564769
0.00973473
0.00571137
-0.00298569
0.00772546
0.00335912
-0.00809889
-0.00188924
0.00757743
0.00609906
-0.0117873
-0.0155385
0.00799055
-0.000748932
0.00829687
0.00140807
-0.00420226
0.00835646
-0.00556227
0.00661797
-0.00332906
0.00236216
-0.00565107
0.00637569
0.00122593
0.000627711
-0.00822933
-0.00936892
0.0100504
0.00372585
-0.00440735
-0.00222872
0.0119308
0.000237769
-0.00993987
0.00962896
-0.00565233
-0.00373241
-0.000244221
0.00828412
6.1123e-05
-0.00834524
0.00605639
0.00468838
-0.0010645
-0.00968026
0.00284465
0.0074968
0.00640619
-0.0167476
-1.10179e-05
-0.0134841
0.0134951
-0.00702824
0.0272162
-0.00397609
-0.0162119
-0.000125053
0.0101452
-0.0100201
-0.000674785
-0.00727826
0.00130697
0.00664607
-0.0132521
0.0067529
0.0051289
0.00137028
0.00270539
0.00224623
-0.0154819
0.0105302
0.00786925
0.0124345
-0.00464658
-0.0156572
0.0119196
-0.00408421
-0.0114095
0.00357403
-0.0148937
0.00849656
0.0227228
-0.0163256
-3.87599e-05
0.00573607
-0.00573624
3.89299e-05
-0.00593351
0.00587203
6.14777e-05
-0.0151325
0.000232392
0.00637011
0.00169396
0.00365575
0.0100136
-0.0153633
0.00786391
-0.00935366
0.00603357
-0.00454383
-0.00760767
0.00666232
-0.000251988
0.00119733
-0.00157534
-0.0125075
0.015985
-0.00190214
-0.00560308
0.00269817
0.00887039
-0.00596547
0.00966287
-0.00372511
0.00142369
-0.00736145
-0.00638404
-0.00111262
0.00747315
2.35092e-05
-0.00110832
-5.97539e-05
0.0105305
-0.00936243
0.00132914
-0.00112148
0.0104811
-0.0106887
-0.00943634
0.0131917
-0.0138262
0.0100708
6.04085e-05
-0.0118809
0.0118205
-0.0042344
0.000370199
0.0106785
-0.00681425
-0.00808478
0.00945231
-0.012892
0.0115245
-0.00829649
0.000629544
0.00251558
-0.00385781
0.0104501
0.000583742
-0.00717599
-0.00277638
0.000385271
-0.00469494
-0.00411316
-0.0133627
0.0134229
0.00405298
-0.00595235
-0.000694592
-0.00149866
0.0081456
-0.0203902
0.00688898
0.00201363
0.0114876
-0.00641863
0.014787
-0.0073681
-0.00100026
0.00447746
0.00176057
-0.00901441
0.0088705
0.00904218
-0.0179127
0.00119957
0.0194961
-0.00451211
-0.0161836
-0.000249248
-0.000347703
-0.00864497
0.00924192
-0.00935691
0.0154085
-0.0062123
0.000160675
0.0088731
-0.00560239
-0.00804244
0.00477173
0.00222865
-0.000298915
0.00272804
0.0136619
0.00379741
-0.0197322
0.00227294
-0.0094801
-0.00122978
0.00310556
0.00760433
0.00355895
-0.00396054
-0.00535286
0.0164308
-0.01106
0.00860815
-0.013979
-0.00182106
0.0106103
-0.018349
0.00955978
0.00636688
-0.00804922
-0.000815246
0.00249758
-0.00701994
-0.00244338
-0.000237168
0.00970049
-0.00525226
-0.00496236
0.0102146
0.00132103
-0.0141118
0.0125126
0.000278178
0.0054011
-0.00521236
-0.005441
-0.00880647
0.0111755
-0.00213176
-0.000237253
0.0125826
0.00346095
-0.0135519
-0.00249168
-0.00487336
-0.00711189
-0.00081659
0.0128018
0.00806528
-0.00245385
0.00935206
-0.0149635
-0.00893811
-0.000498226
-0.0106802
0.00571786
0.00137081
-0.0119276
0.0038164
0.00674038
0.00348626
-0.0124927
0.00687862
0.00212783
0.00186821
0.000489494
-0.0093729
0.00701519
0.00142387
0.00610237
-0.00041634
0.010577
-0.00208943
-0.00807119
-0.00414378
-0.00043271
-0.00387736
0.00845386
-0.00245579
-0.00330792
0.00632488
-0.000561168
-0.00976517
-0.000136412
-0.0164888
0.00592311
0.00867645
0.0234671
-0.00019802
0.00320659
-0.0264757
-0.0102888
0.0159774
0.00324398
-0.00893258
-0.00292835
0.00160251
0.0101002
-0.00877435
0.00121868
0.0034598
-0.00267638
-0.0020021
-0.0176558
-0.00365833
0.0152364
0.00607771
0.000389339
0.00749334
-0.00150436
0.000229361
0.00375541
-0.0117821
0.00779737
-0.00725552
-2.54023e-05
0.00267421
0.00460671
-0.0100498
0.0124203
-0.00198112
0.00566983
-0.0051123
-0.000557531
-0.00833137
0.00119531
-0.0064706
0.0136067
-0.00378006
0.00568876
-0.00438486
0.00247617
-0.00813876
0.00916526
-0.00378719
0.00276068
0.00363602
-0.000601569
-0.00858525
0.0055508
-0.00363978
0.0228185
-0.0307098
-0.00328158
-0.00229031
0.00224267
0.00332922
0.010781
-0.0168337
-0.000761529
0.00681418
-0.00453209
0.00338151
0.00582919
-0.00467861
-0.00135079
0.0071644
-0.00197284
-0.00384078
-0.00805718
0.00178761
0.00188358
0.00438598
-0.0045362
0.000389718
0.00414649
0.0103627
-0.00493469
-0.00525776
-0.000170237
0.000767354
0.00522474
-0.00793054
0.00193845
-0.00554778
-0.00672345
0.00685659
0.00541465
-0.002896
0.00746326
-0.00639214
0.00182488
0.00268073
-0.00507313
0.00349603
-0.00110362
0.00976459
0.000263808
-0.0100284
0.00840648
-0.0103539
0.00512539
-0.003178
-0.0131953
-0.000379858
0.0135751
0.0054085
-0.00448595
0.00104657
-0.00196912
-0.000427802
0.00936168
-0.0102197
0.00128581
-0.00466984
0.00584654
0.00150402
-0.00523333
0.0112122
0.0103598
-0.00886566
0.00878661
7.90535e-05
0.000239514
-0.0140136
0.0137741
0.0189412
0.00228059
-0.00402451
-0.0171973
0.00396392
-0.015448
-0.00191545
0.0133995
0.00299429
0.00353489
0.00200174
-0.00853092
-0.00531006
-0.00531554
7.05706e-05
0.010555
-0.00253545
0.00348231
-0.00625692
-0.0116657
0.00210723
0.0153151
-0.00575669
-0.0229232
0.0167873
0.00739029
-0.00125439
0.0101333
8.22617e-05
-0.0102156
-0.00579121
-0.00779451
0.0050395
0.00854623
-0.0057809
-0.00839005
0.00250525
-0.00830638
0.00451032
0.00521993
0.00338258
-0.00440064
-0.00807721
0.00909527
-0.00567426
2.49798e-06
0.00567177
-0.0132863
0.00540178
0.00548663
0.00239786
0.00333968
-0.00894136
-0.00270469
0.0114043
-0.00362081
-0.000284869
-0.00749867
-0.00766601
0.0127013
0.0075361
-0.0125714
-0.0022695
-0.00475385
0.00177048
0.00525287
-0.00322001
-0.00258991
0.00580992
-0.00563553
-0.0118487
-0.00543894
0.00266249
3.47046e-05
0.00537305
-0.00807025
0.010854
-0.00790412
-0.01143
0.00848015
-0.00402888
0.00143661
0.00813693
-0.00554466
0.00760509
-0.00535375
-0.000753673
-0.00149767
-0.00872026
0.00141629
0.00681133
0.000492643
-0.00539933
0.0123994
-0.0134489
0.00524375
0.00038839
0.00781678
0.0126629
-0.0101264
-0.00796574
0.00542923
-0.0100751
0.00210059
0.0188285
-0.00974848
-0.00643112
0.0104937
0.00568593
-0.00113859
0.0101552
-0.00385317
-0.00516344
0.000581673
-0.00603158
-0.00397543
0.00942534
0.0115613
-0.00762734
-0.000469274
-0.00346473
0.00358656
0.00267998
-0.00880199
-0.00243111
0.00275187
0.00678566
-0.00710643
-0.00202688
0.010574
-0.0130315
0.00448431
-0.00637981
0.0015393
0.00154369
0.00329681
-0.013919
0.0141575
-0.000238488
0.00961765
-0.00948155
-0.000136103
0.00386941
-0.014931
-0.00573407
0.0167956
0.00341008
0.00647882
0.00151544
-0.000162548
0.00565014
-0.00548759
0.00913502
0.00818377
-0.0173188
-0.0100592
0.00614106
0.00434064
-0.000422486
-0.00564855
0.00186163
0.00459227
-0.00080535
-0.0169602
0.00791655
0.00930367
-0.000260025
-0.00547375
-0.00610493
0.00590441
0.00873822
-0.0013779
-0.0056239
-0.00173641
-0.00932396
0.0100694
-0.00614474
0.00165419
-0.0105059
-0.000537011
0.00938868
-1.31117e-05
-0.00518348
0.0051966
0.0253578
0.000189416
0.00270651
-0.0282537
-0.000955562
-0.00187566
-0.0138223
0.0166535
0.0043853
-0.00593842
-0.00276411
0.00431722
0.00171256
0.0131228
-0.00530965
-0.00952571
0.0142973
-0.0143039
-3.03894e-05
3.6988e-05
-0.00802664
-0.00724322
0.0113209
0.00394896
0.0046835
0.00357977
-0.00933013
0.00106686
6.56011e-05
0.00868884
-0.00887836
0.000123925
-0.0119485
0.00382946
0.00968267
-0.00156361
0.00914589
0.00552876
-0.00925904
-0.0054156
0.000217161
-0.0081782
0.00414851
-0.00212939
0.0122782
-0.00658606
-0.000856171
-0.00102527
0.00846751
-0.0110467
0.000572835
0.0104738
0.0161649
0.00698338
-0.00523695
-0.0179113
-0.0105569
0.000227739
0.0105464
-0.000961901
-0.00250347
-0.00639223
0.0098576
-0.00124908
-0.00127217
-0.00340851
0.00592975
0.00266052
-0.0134999
0.010179
0.000660358
0.0084004
-0.00130985
-0.0081742
0.00108365
-0.010341
0.00215423
0.00082206
0.00736476
-0.00394778
0.00259157
-0.00536849
0.0067247
0.00226795
0.00143841
-0.0133566
0.00965028
0.00046648
-0.00906596
-0.000629969
0.00922945
0.00898246
0.00117844
-0.000155478
-0.0100054
-0.0107233
0.0024981
0.00970313
-0.00769495
-0.0102143
0.0179092
0.0148479
-0.00754658
0.00320291
-0.0105042
0.00116808
0.00831941
-0.0051022
-0.0120265
0.00220803
0.00426608
0.00555236
0.0148427
-0.0153018
0.000459086
-0.00902374
-0.00306398
0.00631714
0.00577059
-0.0116897
-0.00907615
0.0060875
0.0146784
0.012081
-0.012617
-0.00154437
0.00208036
-0.00175545
0.00586867
-0.00462624
0.000513015
-0.0151928
0.00495679
0.00348783
0.00674818
-0.0223612
0.0278169
0.00463862
-0.0100943
0.00998689
-0.0216516
-0.00111981
0.0127845
-0.00888032
0.0113116
-0.0209596
0.0185283
-0.00929635
0.0204659
0.00203669
-0.0132062
0.000820043
0.00973639
-0.00227454
-0.00828189
0.0148075
-0.0111071
-0.000373094
-0.00332725
-0.00259014
-0.00248651
0.00380173
0.00127492
-0.00697733
-0.0145357
0.0124145
0.00909855
-0.00993219
0.0132289
0.0115108
0.00811926
-0.0059686
-0.00743859
0.00528792
0.00297219
-0.00384599
-0.00169819
0.00257199
0.00657635
-0.00650624
-0.00866236
0.00859225
-0.00266659
0.00765078
-0.000553693
-0.0044305
-0.0106338
-0.00169944
0.0131533
-0.00799473
-0.00196569
0.00988351
7.69146e-05
0.00330178
-0.00737627
0.00407448
0.00261959
-0.00347804
0.0129551
-0.0120966
0.0101593
-0.0142938
0.0020746
0.00205993
0.00647671
-0.00698705
0.000510341
-0.0102033
0.000271067
0.00909311
-0.00346744
-0.00877758
0.0031519
0.00286718
0.0023213
0.0101788
-0.0153673
0.00633024
-0.00687264
0.000542403
-7.823e-05
0.00790134
-0.00893181
0.0011087
-0.0112059
-0.0010791
0.0149046
-0.00481764
-0.000823112
0.00111295
0.00452781
0.000665764
-0.00549999
0.00405732
0.000776911
0.00901748
-0.00863066
-0.00214226
0.00104196
0.0149789
-0.00943739
-0.00658349
-0.00513965
0.0108547
-0.00571507
-0.0139276
0.00533357
-0.00326538
0.0118594
0.0109574
-0.00993205
-0.0162182
-0.00536716
-0.00642072
0.0220658
-0.0102779
-0.0156772
0.00998669
0.0142357
-0.00854519
-0.000345532
-0.0133723
0.0137178
0.0212135
4.22062e-05
-0.0122254
-0.00903022
0.012301
-0.00792255
-0.00109245
-0.003286
-0.00897069
0.0063661
-0.00160287
0.00420747
0.000121486
-0.00924205
0.00912056
-0.00671406
0.00691067
-0.000196606
-0.00489271
-0.00517579
-0.0132536
0.0233221
-0.0124812
0.0027213
-0.00139415
0.011154
0.00291022
0.00472308
0.0128528
-0.0115959
-0.00959041
0.00833347
-0.00355561
-0.00733411
0.0080859
0.00280382
-0.0073867
-0.0037565
0.0111541
-1.0931e-05
0.00242797
-0.00139697
-0.00686459
0.00583359
0.00815273
0.000363627
-0.0104232
0.00190681
0.00251524
-0.00174921
0.00271501
-0.00327551
0.00326326
-0.00270276
0.00667209
0.00653076
-0.00667079
-0.00653205
0.00328197
0.00766946
-0.00793605
-0.00301539
0.00692817
0.00300346
-0.00545417
0.00861547
-0.0104451
0.00219327
-0.0114627
0.00801396
0.0043159
-0.000867183
0.0135746
-0.00449872
-0.0142155
-0.0036405
0.00971699
0.00488094
0.00947245
-0.00461348
-0.00798662
-0.00217951
-0.00129654
-0.0127311
0.0118829
0.00113171
-0.000283574
-0.000794772
0.0159228
-0.00165049
-0.0134775
-0.0103842
0.00211471
0.004629
-0.00165888
-0.0104772
0.00294449
0.00919159
0.00951593
0.00132258
-2.99838e-05
-0.0108085
-0.0142123
-0.000116083
9.44461e-05
0.0142339
-0.00367313
0.00401248
-0.00654136
0.00620201
-0.00978031
0.0123724
-0.00128087
-0.00131121
0.0128548
-0.012004
-0.0106311
-0.00950144
0.00857027
-0.00271749
0.00364867
0.00764642
-0.000344589
-0.00240541
-0.00489642
-0.0143854
0.0138691
0.0068023
-0.00628602
0.0068605
0.00261294
-0.000871214
-0.00860222
0.002449
0.00621075
-0.00776465
-0.000895097
-0.00459666
0.00462391
-2.72439e-05
-0.00269085
-0.00686937
0.00689363
0.0104691
-0.0103794
-8.96745e-05
-0.00585416
-0.00467027
0.00458602
-0.000620228
-0.00703309
-0.000773055
0.00842638
-0.000802783
-0.00618207
0.00552592
0.00145893
0.00963066
-0.0109465
0.00131579
-0.0123478
0.0126746
0.0115991
-0.011926
-0.00831928
0.00642659
-0.00437669
0.00626937
-0.00334576
0.00142968
0.00302973
-0.00111365
-0.00035045
0.0150237
-0.000133015
-0.0145402
-0.00763812
0.00370283
0.00376143
0.00436954
0.00556099
-0.00970163
-0.000228902
0.00041996
-0.0120544
-0.000472144
-0.0108548
0.010855
-1.88244e-07
-0.00732123
0.00368601
-0.00805452
0.00246209
-0.00544761
0.000221408
0.00479172
0.00208069
0.00715327
0.000139313
-0.0061172
-0.00117539
0.00598844
-0.0149472
0.011983
-0.00302423
0.00248813
-0.0033923
0.0126182
-0.011714
0.015456
0.0045557
-0.00237912
-0.0176326
-0.00392413
-0.00642538
-0.00208466
0.0124342
0.00467972
0.019503
-0.0176081
-0.00657464
0.0022468
0.0141404
-0.0136478
-0.00273931
-0.00484174
0.000639645
0.00992317
-0.00572107
-0.0017093
0.0138758
-0.0074868
0.0100432
-0.00793085
-0.00309267
0.000980337
0.00328628
0.0085925
-0.0118788
0.00800831
0.00177802
-0.00106673
-0.0087196
-0.00736405
0.00588535
0.000591948
0.000886748
-0.000717347
-0.010471
0.000612395
0.010576
-0.0076826
-0.000975445
-0.000318563
0.00897661
0.00440662
-0.00976936
9.70943e-05
0.00384057
0.0058317
8.31454e-05
0.00633996
-0.0064231
0.000788766
0.0111879
-0.0285828
0.0166062
0.00317416
-0.00800023
0.00760113
-0.00277506
0.00455621
0.00520069
-0.00360183
-0.00615507
4.09621e-05
-0.00570525
0.00566429
-0.00309749
-0.00219999
0.0125484
-0.00725091
-0.00384639
0.0128471
-0.0110861
0.00208535
0.0139387
-0.00968551
-0.00935302
0.00509986
-0.0057237
0.00389324
0.00178117
4.9292e-05
-0.000800451
0.00444068
-0.00237144
-0.00126878
0.0150407
-0.0117545
0.00696539
-0.00080603
-0.0114012
0.00524186
-0.0031799
0.00297397
0.00356287
-0.00335695
0.000177318
0.0143854
-8.76963e-05
-0.014475
-0.0105093
-0.00346076
0.014245
-0.000274982
-0.00297783
-0.0012881
0.00327969
0.00423698
-0.00622858
0.00849998
0.00598506
-0.0127177
-0.00176731
-0.00261746
-0.00171205
-0.0113979
0.0157274
0.0149923
-0.0118576
-0.0208865
0.0177519