/*--------------------------------*- C++ -*----------------------------------*\
  =========                 |
  \\      /  F ield         | OpenFOAM: The Open Source CFD Toolbox
   \\    /   O peration     | Website:  https://openfoam.org
    \\  /    A nd           | Version:  10
     \\/     M anipulation  |
\*---------------------------------------------------------------------------*/
FoamFile
{
    format      ascii;
    class       volScalarField;
    location    "9";
    object      p;
}
// * * * * * * * * * * * * * * * * * * * * * * * * * * * * * * * * * * * * * //

dimensions      [0 2 -2 0 0 0 0];

internalField   nonuniform List<scalar> 
111485
(
31.527
0.264892
0.302394
31.527
0.291162
30.5696
0.25041
0.261281
0.250724
0.299101
0.242585
0.284186
0.2652
0.173828
0.259418
0.310485
0.168302
35.1569
0.272935
31.5251
31.5277
30.589
0.243373
0.325615
0.261884
31.4087
0.315964
0.295489
0.292296
31.5363
0.0670982
0.121105
31.5406
30.5903
34.312
30.449
0.165622
0.238888
0.0253341
0.292227
30.7844
0.285772
0.298038
0.22767
-0.583158
31.6015
0.24799
0.307587
0.302496
31.6814
31.6696
29.5695
31.7035
0.19084
31.7256
0.219106
0.264467
30.6376
-0.039532
0.282614
0.289567
31.5322
0.248935
0.106367
30.7447
0.238191
20.6118
0.250181
0.162235
0.241999
-0.128627
0.213259
30.9203
0.18183
31.5662
0.187734
30.593
0.278297
30.5822
32.3122
-0.0325719
0.196518
30.5959
31.5495
0.24909
0.261694
7.39933
0.169136
0.000680291
0.187805
-0.401219
0.268496
0.260803
0.204958
0.288604
31.5497
31.5295
0.221452
-2.49164
0.644733
31.5279
0.311309
30.5579
0.251829
0.23503
31.746
30.6212
0.140172
0.267101
-0.924335
0.120162
0.267402
0.297431
0.293176
31.4007
0.199127
31.4649
30.6078
0.191397
31.5313
31.4075
26.8035
30.5994
30.6394
0.301741
35.7785
26.6466
0.139998
31.5562
2.01335
-0.00753387
0.220454
31.5702
26.2004
27.3388
0.255767
30.5933
0.203801
0.220833
0.294557
0.155033
0.23899
0.257965
0.309401
0.235229
0.140356
30.5929
31.5452
30.6523
0.246966
0.294799
31.5149
0.127725
0.0359743
-2.16692
0.263404
0.248924
0.223123
-1.60357
31.579
31.5269
0.254377
0.253028
-1.45089
-1.92049
0.156769
0.131793
30.7436
-1.30521
-1.16188
30.6303
31.5421
0.266195
30.6087
0.117982
0.069407
30.782
30.831
31.473
31.3543
30.7216
31.522
0.27741
0.266953
0.294811
0.264612
0.299794
0.21623
0.203099
31.5311
0.154465
30.8168
31.4861
0.245561
0.271174
0.188436
0.281134
0.0727774
31.5705
0.294328
0.331242
21.3788
0.256822
0.164451
31.5343
0.232965
0.251992
30.8074
0.167836
0.24655
0.283678
0.17931
30.6917
31.5326
0.209732
20.0647
0.218446
30.6065
0.228658
0.212266
0.296517
31.547
0.197532
0.128204
24.1379
30.6076
30.6314
-0.0238027
-1.8763
31.0217
29.2135
0.227632
0.123164
-0.189776
31.009
31.2494
0.116938
31.5588
0.225837
0.200735
0.216441
0.1666
0.208925
30.6364
0.00170764
0.172822
30.6512
30.5956
0.148599
0.25986
31.2372
0.198839
0.171565
31.5457
25.5841
0.244298
31.5692
32.0968
28.7949
31.5208
0.208918
0.148722
-0.0218933
31.5637
0.110681
31.5272
31.5255
31.5703
0.0917249
0.262371
0.266605
0.167942
0.278003
0.231522
0.216651
0.0910021
0.0949948
0.151314
30.4062
31.5426
0.076594
0.107714
-0.0890619
0.126531
31.53
0.262224
0.256984
0.249145
0.347536
-0.00400078
0.255267
0.157769
0.239105
30.6239
0.229945
30.6091
34.9842
32.3633
-0.0673075
0.252841
0.253851
31.4891
30.8783
0.20851
0.132757
31.5145
31.5259
31.7472
0.164059
0.170916
0.269952
0.27657
0.243048
29.031
30.6388
31.5516
0.233893
13.2538
0.196776
-0.0181204
0.0460711
30.599
31.5274
31.5317
27.3193
0.219214
0.286456
30.5944
0.222772
31.2259
31.4698
0.232736
0.224
0.281482
0.230199
32.0385
27.1774
30.6028
0.214787
0.0722783
0.0729641
30.7235
2.28012
-0.192595
0.30854
0.233076
5.48281
0.245292
30.5851
0.233416
0.236237
0.0095606
0.208296
0.263071
30.6028
31.5572
30.6187
31.5376
0.257667
0.216609
0.225531
0.280463
30.6736
0.293622
30.6273
31.56
0.257004
32.5598
27.898
31.7222
30.4332
0.262338
30.6326
0.0803244
0.311527
30.5831
0.195259
0.244788
31.5147
0.21283
0.300411
0.27856
0.190922
0.165414
0.133663
32.0728
31.5487
0.268358
30.7036
0.291544
0.188405
30.7799
30.6317
0.220667
0.227945
0.112485
0.344166
30.5919
0.0731196
0.267516
30.5621
0.224282
0.209236
31.5264
31.5243
0.100416
0.268015
30.5468
31.4735
23.5244
31.5251
0.286556
30.6072
31.5284
0.263277
0.0155189
0.282063
0.311003
30.5771
27.3899
0.321394
27.772
0.238911
0.349386
0.316653
21.296
28.07
-1.86469
-0.802191
31.5254
0.167004
0.307751
31.5399
-1.55995
0.296314
27.929
0.277519
0.265259
0.168892
30.5858
1.06508
0.277491
0.20268
-0.0972036
26.5605
-1.95384
31.5395
0.219723
-0.650982
30.6334
0.250635
0.302159
25.8404
31.5592
29.907
31.5222
0.284618
0.321229
0.298866
0.31474
0.159681
30.6115
0.131735
31.5779
0.335071
30.5235
31.5668
31.6016
0.277155
31.5511
31.53
33.4464
31.5259
30.6654
0.266132
30.6302
29.786
30.6067
31.4826
30.5484
31.5772
30.5913
0.27514
30.6001
0.250093
0.266468
0.108196
30.5995
0.269996
30.636
31.5284
0.296909
0.355005
0.443703
-0.0586628
29.4152
0.280692
0.270207
0.132674
-0.0279035
0.281377
31.5458
0.0261922
25.8863
0.400385
30.6087
0.320761
26.7729
0.122138
0.321498
33.1656
30.8689
-0.090312
31.516
0.272208
0.243414
30.657
30.6847
31.7859
30.6265
-3.42829
0.266167
30.5543
30.6526
0.278175
30.589
0.247283
30.5895
0.269854
31.5299
0.351784
0.340271
0.341929
0.111157
30.4891
-0.475524
30.5503
30.608
0.241083
30.6134
0.301181
31.8119
0.33291
31.5355
0.373036
31.5255
27.9632
0.00668189
0.170206
0.239682
0.324456
0.174978
0.250027
30.648
0.208672
0.253468
30.601
0.183619
0.134652
0.284393
30.8376
32.1798
0.37272
0.16479
15.009
30.8978
0.231901
0.319509
0.304539
0.29138
0.65069
10.4558
27.5965
-2.34539
12.8471
31.5295
0.341504
30.6992
28.082
0.214349
10.2769
-2.41553
6.05347
27.5808
0.242066
0.303337
30.6357
29.8844
0.315585
31.5382
30.5882
30.5923
30.5957
0.293406
30.6214
31.3778
0.326102
0.193557
24.1508
0.13967
29.3591
0.179922
31.6981
30.6413
0.272763
30.6024
30.5985
27.9499
0.203658
18.8075
0.201557
0.174627
31.5686
-0.449078
0.0339868
0.266977
0.337898
1.4709
0.25378
30.6141
0.271058
0.280128
31.5634
0.221865
0.221393
0.303601
0.155677
0.281557
0.28883
31.5986
0.292765
0.171978
27.8701
0.284007
0.363115
19.5954
0.167554
0.303842
0.330984
0.310522
0.32333
0.107968
31.1426
0.302153
0.296727
32.9154
0.275782
0.221951
0.211387
30.6182
0.197465
31.6247
30.5956
30.6527
30.5905
0.317894
28.313
-3.69641
31.5209
30.324
0.319402
0.281543
31.5108
0.27862
31.5245
31.5513
31.7077
0.208798
0.334757
28.0682
31.3485
30.6128
30.6165
0.132909
0.163403
27.3498
0.290523
-1.18387
30.6444
0.318456
0.268428
0.351312
30.5838
30.6053
0.296268
0.203021
27.81
30.6322
30.5258
0.177321
31.5561
31.5043
30.6132
0.292751
0.306188
30.5873
33.9189
32.87
0.599183
30.643
30.5759
0.256674
0.0973935
27.7458
23.9615
4.88984
0.282657
0.0104142
30.4743
0.177404
0.32785
30.6216
31.6965
30.5909
30.6088
30.6322
30.5863
0.353558
31.527
30.5949
30.8082
0.332371
0.195914
31.5302
31.7525
0.230974
0.181895
0.207362
31.5012
30.5988
0.184794
31.547
0.26087
0.15332
0.21063
31.4309
31.5294
31.5288
30.6144
0.369108
30.5993
30.5803
0.232193
31.5284
0.238248
0.367421
30.6624
0.233427
31.4306
0.207091
0.293005
0.216211
0.258045
-4.55744
29.0471
0.19448
0.255464
0.0117961
31.2488
-7.86223
28.6831
0.112083
30.6257
0.228321
0.266298
0.21199
32.3244
31.5305
31.5593
0.180603
29.3468
-0.0456829
29.8924
0.30499
0.156181
0.0750181
0.193352
30.5917
30.6629
31.0049
0.184036
30.5866
29.0316
-0.178589
30.6332
30.6606
31.5365
30.5943
0.0876292
30.5129
30.6086
-5.65674
29.2774
30.7109
28.316
30.608
0.196632
0.0957236
31.5177
0.301285
4.43922
0.196922
-1.06457
0.170601
30.6392
0.257245
0.273397
0.195783
31.5474
-9.90354
0.0699791
26.0351
0.0289516
-0.0403391
0.0331576
0.199729
0.144594
-0.122192
0.155721
0.138582
30.5372
30.6345
0.0712665
0.0210187
30.639
0.0865754
0.308079
0.126419
30.5669
-0.0398609
30.6111
0.109518
0.0908781
30.5828
-0.285728
0.150398
-0.18984
-0.0582752
30.3991
0.277102
-0.167677
0.149924
-0.18533
0.203146
30.5693
30.6524
0.277522
30.5941
0.380854
0.0685988
27.0164
-1.44425
-2.82524
-0.745871
30.5945
25.6855
0.197287
31.5532
37.7641
0.188749
30.5541
30.5762
-2.42262
-2.96366
30.5946
-0.0382224
30.6096
30.6048
31.5608
31.528
31.8319
31.5445
0.271333
30.5905
30.6317
30.6568
-5.26652
0.43724
0.257652
0.186298
30.6422
30.5711
0.189666
30.6025
30.5897
23.4324
0.168578
0.212162
30.5834
30.558
30.6186
30.5757
30.4051
30.5697
0.0975784
30.594
-0.360743
0.27024
30.615
31.5721
31.7377
-0.0536208
31.7056
31.5296
30.6781
-0.403734
30.6076
0.123787
0.122703
-0.282542
30.5781
21.312
0.223677
0.248137
30.6652
-0.33722
0.259365
31.5472
30.4704
27.6645
30.5622
0.193041
0.249624
0.137547
-0.92234
30.586
0.189112
30.3452
27.4601
27.4914
30.632
0.280348
30.6084
31.7784
0.153685
0.195315
31.7674
0.309938
29.3796
0.0602543
32
30.6078
30.5052
31.529
0.152236
0.280693
1.95064
30.5905
30.7708
0.11373
30.5943
28.407
31.531
0.266869
-0.969685
0.421845
31.472
0.119727
0.168848
33.0457
0.171311
30.6063
0.197998
0.225831
0.202085
0.0656836
-0.279112
30.5976
30.6094
30.6068
0.118209
30.9057
-0.0251388
31.5632
3.23731
31.5102
0.28784
0.294181
31.7867
30.5942
31.854
30.6633
-0.0398614
31.8837
27.6969
0.088497
-0.0181385
31.744
28.2761
30.9231
28.3599
30.5795
30.5989
0.00585653
0.36636
31.5262
31.4826
-2.03299
31.5569
0.00405325
0.153726
30.9011
0.231371
31.529
0.0666985
30.6063
0.297597
30.5808
-1.85267
-0.775447
-0.153905
0.206696
0.194921
18.9824
30.2905
0.237459
31.6894
0.270372
31.5095
30.73
30.5179
30.6574
30.7541
30.6379
0.14654
0.0970999
31.5301
26.6889
31.537
0.156586
-0.0504561
31.5244
0.283028
-0.158875
31.7385
0.168646
0.13576
0.261159
-0.152236
30.5943
30.5984
30.7229
30.5929
0.246688
30.3378
0.236376
30.6032
0.208213
0.319324
30.6242
0.175798
30.5853
30.5924
0.191209
0.0616407
8.87848
30.6048
31.8311
30.5499
0.253281
30.1385
31.7506
30.2105
3.88672
27.0585
-1.62535
28.2471
30.0684
31.0894
0.124253
0.0552188
0.317291
0.269638
31.4941
0.213638
30.6153
30.6317
0.0955057
30.4806
-2.08471
0.205691
0.177813
0.199094
-3.35638
0.250748
30.6255
-5.17419
-11.2493
0.282837
0.246049
0.228509
22.2996
31.5142
0.272798
31.5299
30.5766
-0.518902
0.276623
-3.94447
30.5454
29.9287
0.107883
31.7374
30.5789
0.169982
31.8139
31.77
0.558112
0.180045
0.0264292
0.34868
0.179722
30.5909
30.5957
-0.6383
0.255778
30.5911
31.7912
0.40244
30.6209
26.5205
27.1847
27.3389
17.7135
26.6053
30.597
0.328814
30.5292
0.0875698
30.5868
14.0392
30.7994
30.6698
30.6277
30.597
0.363926
30.5962
30.5943
27.812
30.5637
30.6288
30.5936
0.236863
30.664
0.220012
0.070966
30.6806
0.441684
30.5885
0.227696
-0.290665
0.112003
0.132281
31.4073
0.128874
0.346237
-0.165578
31.5576
-0.0132678
0.215739
0.125675
29.4386
0.0883922
30.8549
30.6208
30.5973
30.5861
0.111821
30.6092
30.5417
0.105404
-0.110856
0.031862
30.6671
21.9263
0.376787
30.6323
-1.01683
31.7261
0.0820836
30.5601
30.5725
0.260834
30.5692
0.321778
31.5451
30.5867
0.133433
0.165098
0.183175
0.267252
-0.0957533
0.218998
30.5865
32.1532
0.280949
0.187837
0.259812
0.0231805
30.5949
0.212715
30.5909
31.2225
0.252915
0.133735
30.6248
0.169454
30.572
0.184381
0.171469
30.8656
30.5868
30.6153
0.283153
30.6078
30.6082
0.286846
0.184939
0.22231
0.112854
30.666
30.6598
0.332504
0.33802
30.6058
0.265087
30.9196
0.257995
30.5901
30.5887
0.186652
30.5921
0.247455
0.318615
30.6006
30.5872
0.220672
26.0464
0.356671
31.5293
0.155
31.5732
26.7913
25.9075
0.317605
27.9946
27.6951
0.238438
27.533
17.2383
25.5071
30.8158
31.532
-0.284345
0.32853
30.7663
30.6026
0.225416
0.292129
30.6198
0.279793
30.585
31.5522
0.30498
0.301685
0.483716
30.585
30.6149
30.6058
30.5941
30.555
30.5669
30.5823
30.5571
30.5751
30.5797
30.6039
31.5387
30.6083
30.5834
30.5848
31.2487
30.5833
30.5896
30.5969
30.7041
31.3385
0.342652
30.6059
30.5841
30.6617
0.274028
30.643
31.5509
12.1009
30.5274
30.1639
0.245827
33.0373
30.3762
14.2014
0.229546
30.602
27.129
29.104
30.5769
0.238015
0.224255
0.234921
0.163035
0.210618
31.6341
30.5531
0.19787
0.222972
0.168566
30.5799
0.239327
0.28054
0.258045
0.0981461
0.144604
0.167332
0.15693
0.235395
31.5962
0.277573
0.27752
0.292528
0.239914
30.6089
30.603
30.6135
31.5293
30.599
0.223736
0.246309
30.62
30.5764
30.5754
31.3791
30.5855
31.5248
30.598
31.5397
0.229907
-0.0850399
0.254639
0.398271
30.4771
30.6322
0.21948
-0.590475
30.5867
30.5958
0.271602
31.6002
30.6025
0.357093
0.182914
0.220999
0.374873
0.236675
31.6211
0.07463
0.273505
27.7052
31.5285
0.224953
31.6048
30.6228
9.8823
5.47037
0.302122
31.1687
31.4558
0.227042
0.27107
0.130636
0.224192
13.8326
31.5254
0.3082
32.9316
31.557
30.3476
0.270169
30.5827
0.230382
0.0462481
0.221236
0.248259
31.5652
0.274555
31.5552
29.9385
31.5455
31.485
0.13392
18.1884
30.5956
31.5256
33.4331
0.23478
27.504
0.167421
0.212678
0.120937
0.22083
31.4014
31.4825
26.6715
0.292742
0.219633
-3.20348
31.6967
31.5285
27.3704
0.280062
0.17779
30.5891
0.0331997
10.2982
0.265213
0.184109
31.5227
26.647
0.174617
0.22442
30.6107
0.329797
0.316477
0.251753
0.106508
0.184201
0.25633
27.7093
0.171554
0.193397
0.204163
31.9641
0.244849
28.045
0.349806
0.201734
31.5585
0.10855
0.182414
0.150972
0.26551
34.9967
8.68886
0.185329
17.3563
0.184327
30.6087
0.114535
0.197004
31.5371
30.5973
-1.02261
-0.0279051
0.292225
34.9184
0.299853
-0.377771
-4.1259
0.00382485
31.5405
31.6285
0.216135
33.3719
0.223503
-0.433156
0.194498
0.164901
31.522
0.310234
0.21632
31.5096
27.8584
0.197819
31.598
0.18563
0.203434
31.5349
35.1239
0.279961
31.5151
30.5839
30.6261
0.149281
0.574026
0.290875
31.7635
0.277488
0.176636
30.8052
0.166773
0.12238
0.126791
-0.14049
30.5932
0.188932
0.238378
0.167252
0.132436
0.139478
-0.196595
0.320321
31.5286
-0.167137
0.122951
31.5263
0.157809
30.6452
30.6054
31.5551
30.6642
31.5348
0.342397
30.6199
0.155259
0.214262
31.5621
0.353006
31.3164
0.104209
31.5378
-0.244701
30.6466
0.267974
0.375791
-0.296843
0.248147
0.128363
0.300741
0.147934
0.258516
11.399
0.21094
0.173301
0.253488
31.5522
0.301542
-0.0597458
0.213761
0.269196
-0.233787
31.5579
27.231
31.5234
0.310686
31.5192
24.7899
0.1287
33.559
0.365599
31.4789
31.4211
30.5954
0.244421
0.444553
0.19508
0.203996
0.138817
0.19619
0.246553
0.205592
0.11017
0.235872
0.206187
31.6244
30.4338
31.5268
0.255698
0.273244
30.7185
30.5948
25.3161
0.30618
0.121113
31.5218
0.204636
31.5232
-1.25589
0.320525
0.138965
31.5298
31.529
0.187739
31.5284
0.277638
0.186506
29.936
0.253517
0.270366
0.132046
31.5075
-0.0418439
28.0678
0.205731
0.280761
31.5353
31.5937
0.169177
22.3131
31.6607
0.228651
0.155657
31.5317
31.4424
27.8878
0.171979
25.2549
0.232092
0.217667
0.30694
31.5254
28.1948
0.204052
31.5265
30.626
31.5441
31.5332
28.6125
30.9133
30.3085
31.5155
31.5598
29.3193
33.5814
30.5837
0.312296
30.6191
27.1079
25.6499
35.5879
27.6417
31.5282
0.217884
29.6189
30.8544
0.217145
32.8335
34.2741
31.1924
0.191102
33.4618
0.23688
0.0711326
0.348014
28.7941
31.5312
0.267514
-1.23991
31.3585
31.5219
0.254819
28.4773
0.246131
28.1845
30.5293
31.0095
0.255311
0.269258
31.529
0.282133
31.6937
29.6012
-0.331521
0.271972
0.225895
30.6104
0.24783
28.9811
0.224043
30.5878
31.5098
30.5833
28.0373
0.24038
0.240078
31.5532
-2.59246
31.5466
31.6051
31.5452
31.5266
0.231731
0.177072
0.21552
0.374457
31.3979
0.30711
0.266851
0.222428
0.209051
30.816
0.201632
0.333405
0.147979
-1.12725
0.259941
31.7088
0.176495
0.235891
0.251943
0.267422
0.1648
31.6302
0.203659
31.1191
31.5485
0.246365
31.5694
0.329061
31.5278
31.7725
30.3169
31.5384
31.5488
0.166218
31.5334
0.233011
28.9165
30.6292
0.268103
0.318796
0.234929
0.197893
31.6155
3.23519
31.5496
0.257564
31.7775
0.250082
0.207387
0.27205
0.278978
31.894
31.9217
31.5366
0.214301
30.6702
31.4851
0.202308
30.5393
30.5799
0.342633
31.8939
0.139027
-1.1181
28.7179
30.0189
29.7769
0.172098
0.243003
31.5238
0.0382926
0.242609
28.0945
0.260368
31.5361
0.186352
0.321793
0.259428
31.5307
0.302156
0.188231
0.239452
0.301058
0.31633
31.5333
31.5269
0.0250995
31.4966
30.5835
31.5265
0.170385
0.260762
0.232175
0.106186
27.6169
0.254778
0.248909
0.249502
-0.00986578
0.321044
0.24415
0.320326
30.5957
30.5954
30.593
0.394737
30.6143
0.166421
21.2074
0.283257
-1.75366
0.14857
0.123399
30.5771
31.5388
0.289254
0.276318
31.591
30.5738
31.5565
0.166786
0.278155
0.26799
0.316642
0.128801
0.23385
31.5184
31.5472
31.5301
0.199964
0.211524
0.0383532
0.275483
0.238915
0.305152
31.4055
31.5264
25.5279
30.7432
0.144247
0.335428
31.5074
31.641
31.5663
31.5617
31.408
30.8834
0.27053
31.5276
0.170744
-0.0163392
30.6057
0.292856
0.116488
0.177477
31.7172
31.0617
0.271952
31.5291
0.267408
-4.39035
0.182324
30.6839
23.8909
30.5897
31.5322
31.4986
30.4347
8.76665
31.5731
0.340909
0.256742
31.5427
31.5324
0.267091
31.5404
30.609
0.219748
-0.366336
31.4713
31.4649
30.7287
0.171977
31.5283
31.5266
5.04547
0.210146
0.273212
31.5201
30.6022
28.8667
0.249783
0.260602
0.250091
0.247673
30.5865
0.246023
0.102142
0.075427
30.4039
31.5321
31.5281
31.3602
31.5294
0.230894
0.245073
0.200212
31.6227
31.54
31.5271
31.5244
30.8517
0.21709
0.459296
0.0922568
30.5869
31.5285
31.7658
-3.53336
0.179579
0.138867
30.5985
-7.26822
33.0268
31.3788
31.5263
0.251615
0.320537
31.5209
31.6431
0.280871
31.5343
0.17788
0.250302
11.2209
31.5054
30.7688
0.213451
0.136598
31.653
10.4654
0.249263
0.382598
31.5271
31.5324
31.5886
31.5665
0.137073
0.192618
31.5339
0.180927
0.254824
1.2573
31.5247
31.5135
31.5141
31.5347
0.317683
33.5311
31.5262
31.1073
0.154544
0.218588
0.189448
31.4018
31.5422
0.280722
30.5205
31.533
31.5269
31.5267
0.265595
30.8004
30.5352
30.5943
0.152588
0.304904
31.5033
31.548
31.4455
0.27529
32.6112
31.5324
31.4526
31.5496
31.5452
-0.354095
0.338312
31.7195
0.282405
0.309276
0.245035
31.574
31.5571
31.5393
31.3939
30.5822
0.273381
31.5283
29.5844
29.4621
0.263468
30.6288
0.222228
31.5285
30.6199
0.298473
1.60597
28.2715
0.301071
31.5293
0.287199
32.5918
31.5883
31.7139
36.3696
31.5436
0.223579
31.4984
0.247399
30.6218
27.8866
31.5654
31.4955
0.119496
0.435871
30.591
10.8807
30.6132
0.0407991
0.205126
0.338452
30.6314
-0.94693
0.20147
0.173864
0.342688
-2.01156
0.183809
30.487
30.5844
-2.50453
0.187644
0.281004
31.65
30.177
25.6569
13.3281
31.558
30.5955
31.5503
31.5581
31.5654
33.213
0.434594
0.103327
0.257564
27.9321
0.0400849
31.5488
0.28028
31.5288
31.584
30.6062
30.866
-0.0205393
30.7719
30.6007
31.5253
0.269239
31.5162
31.5355
0.193472
31.4216
23.1586
19.9108
18.5804
31.5645
19.4529
18.8257
19.2485
22.0163
30.5828
30.5865
0.248248
0.255671
27.9731
28.6289
30.585
0.234897
32.7633
30.9638
-0.0115209
31.5281
31.5294
0.184743
0.0935391
31.4154
30.5837
0.292257
28.1758
30.541
-1.14288
0.247079
0.409255
31.2611
0.308749
31.5549
0.1859
-1.12213
0.281806
31.5268
-1.10546
0.306094
31.8817
-3.65782
31.4799
0.275837
30.1482
0.343364
31.234
0.174635
31.5167
30.412
30.6153
-5.35787
-5.38278
31.5981
0.257963
0.409916
31.7385
31.5239
0.145456
0.0288741
-0.041665
31.5807
0.295725
0.287888
0.204646
-2.91876
31.5657
-0.22799
30.6245
-0.162614
31.5292
-6.41017
-7.49225
31.4356
0.227004
30.8249
0.208088
30.5892
31.4404
31.5649
31.6038
31.4312
31.4786
0.301167
0.273073
-0.180507
31.5477
25.4478
-0.138677
31.545
31.3836
31.6405
31.5273
31.6418
0.0983757
31.526
31.5515
30.5838
0.079205
31.4597
30.599
30.191
0.174479
30.6022
0.0418487
-2.63486
0.0903279
0.160139
-0.0421066
32.8806
31.5331
31.52
0.289446
0.200383
30.2896
25.3148
0.0800888
31.5363
31.557
-0.101411
31.4749
0.288156
31.5224
-0.0126984
0.163818
31.5481
30.5825
31.5201
31.552
31.527
0.291489
31.5104
0.0877408
31.7898
31.5248
0.148942
30.5892
0.268115
31.1138
31.5339
0.262557
0.251389
-0.029056
31.5504
31.5504
31.5291
0.27646
0.0635382
31.8167
30.5935
30.5962
0.176481
31.4866
0.303431
-0.0975227
31.5199
31.4995
0.170513
31.5065
30.6
30.6032
31.845
30.6099
-0.164859
24.9695
30.6738
31.5427
25.6225
31.4992
26.4987
31.4061
31.4933
31.021
0.218494
31.2615
0.130445
31.4548
31.4909
0.216716
0.189812
31.4707
31.409
31.5228
0.132228
26.9667
31.5289
30.9447
31.5075
0.176046
31.4797
-0.266018
31.5584
0.248589
27.8072
0.241263
31.575
31.5276
0.287244
26.3195
31.5397
0.190271
0.253582
31.6276
31.5524
0.23999
0.150185
0.175967
0.125937
0.12126
0.285522
0.200346
0.216263
31.8097
-0.31056
25.202
24.7524
31.5269
31.5037
31.527
0.189293
31.5582
31.5329
31.5572
-0.0827093
0.196177
23.9862
0.17928
31.5561
0.277191
30.5641
0.200656
0.227584
25.4916
0.316157
31.4831
31.4017
30.5957
0.222954
0.251914
31.5286
30.6058
0.200666
31.5465
-0.0734711
31.6996
0.0976677
31.5289
30.5951
31.4688
30.5911
0.189633
30.5914
1.55529
30.6218
0.274541
31.5203
31.5031
17.5246
16.2435
31.5926
31.5079
31.5283
31.5472
0.291906
-0.11858
21.0787
31.5567
0.295313
30.5815
30.647
-1.24077
0.24382
0.137657
30.5976
0.153409
0.22763
0.235364
0.268298
31.533
31.5636
31.5805
31.5565
30.598
30.5895
30.5962
31.3878
30.5994
30.5979
31.5283
30.5939
0.00451631
30.5887
31.5156
34.5153
31.5502
31.5258
11.1505
30.5871
31.5161
0.213335
0.0674303
31.419
31.4687
31.53
0.276239
30.7587
31.4833
-0.000242893
30.6076
31.5163
31.5206
31.5492
0.212415
30.5987
-0.241115
31.5572
31.4785
31.5164
31.522
31.507
0.0176647
-0.12441
0.193046
31.5517
30.6663
31.692
-0.050795
31.5102
-0.108252
0.112541
30.5928
31.4698
23.9463
-1.17276
31.4406
28.2001
-1.12023
24.2619
0.296052
30.7386
0.207265
24.1271
22.5934
31.5275
0.294659
30.6096
0.241691
0.166914
31.5443
0.291499
-0.67609
31.5219
0.119528
30.5907
31.448
31.4871
31.4308
31.4816
30.5914
31.51
31.5462
-0.187832
28.5558
31.5256
31.5251
31.5073
31.5213
0.260278
16.4328
-0.0704595
-0.756003
31.511
0.338615
0.285354
31.5269
28.1152
31.2543
31.4661
31.6151
31.859
25.8904
28.7887
0.174829
31.5324
31.571
24.5114
26.6261
30.5951
0.255019
31.5371
30.6373
31.5491
0.0462672
31.5639
30.5872
0.247825
30.6031
30.4683
31.1591
31.7415
0.252975
31.5257
31.52
31.5135
31.4717
0.290043
0.113473
0.14834
0.269301
0.2448
0.205942
30.6075
26.3308
-0.191174
0.23086
26.288
-0.158811
31.5264
-3.84334
30.6557
0.0327075
31.5325
30.5953
0.236707
-5.07363
31.5286
0.226404
31.5375
31.5446
0.0139452
0.182389
31.5426
30.592
31.6856
30.5937
31.5048
27.4988
31.549
31.5299
0.215875
31.5476
31.5131
31.5166
0.264407
31.5607
27.6624
30.5987
30.5794
29.3241
27.8259
0.259457
30.5928
27.8603
0.225418
31.5194
0.180029
0.257246
31.5216
0.227779
31.5253
29.9372
31.7834
27.2942
30.6224
31.4678
31.5256
31.563
0.288654
31.5556
31.541
31.5417
31.046
31.5224
31.2436
-0.0552571
31.5284
31.5604
0.123877
31.5292
30.5969
30.624
0.341058
31.5282
-0.272921
26.9654
-1.05709
0.0881501
30.5854
26.3082
0.236949
25.2471
30.5993
-0.340466
-1.04744
-0.0077707
0.148753
-0.565726
-4.17824
30.7145
30.5946
0.288962
0.0264855
0.0694095
0.310113
-1.11398
30.6065
0.120528
0.235597
0.26146
30.6348
0.283546
0.124757
0.223165
0.276218
-0.0668478
0.159103
0.226261
0.225551
0.0097429
0.204551
0.286315
27.7183
0.365701
0.034477
0.269131
0.232795
0.108082
0.289646
0.0689463
28.3564
-0.0194422
28.1597
0.281867
0.307075
0.139116
0.20512
28.1026
30.5862
0.275074
0.248417
-0.103682
0.140296
0.160262
0.257477
19.5195
0.309246
31.5285
0.462802
-0.022439
0.18418
0.251783
-0.123829
-0.260538
0.292336
0.217254
0.115307
0.251438
0.26528
0.515913
24.712
21.74
0.253622
31.5316
31.5291
0.255744
0.341837
0.120475
31.5227
0.100089
0.172512
0.245541
22.5109
31.5221
-0.419399
0.0383133
-0.0473352
31.5647
0.200733
31.5322
0.23832
0.285555
0.183099
0.189673
31.5125
31.5371
0.249586
0.310383
0.36226
31.5052
0.25687
0.363929
0.229317
30.624
0.248481
0.089262
28.0801
0.221618
-5.48556
-0.0141664
30.4437
0.145541
0.0438749
31.5289
0.323335
0.09696
5.97283
0.243381
0.353382
0.145572
0.363596
0.191123
-0.0687297
-0.503574
-0.0699615
0.433249
0.138849
0.216746
-0.234966
0.270432
0.298017
0.30988
0.301814
-0.193868
0.221805
31.531
0.308809
0.267825
-0.0172651
0.220383
0.215211
30.6816
0.307685
0.239396
31.5126
0.0852729
-0.0119625
0.289153
0.320491
0.127101
-0.166915
0.315212
0.241096
0.169052
31.53
31.5292
0.203809
30.6334
0.215729
0.355991
30.8449
0.126695
0.253392
0.044625
31.5417
0.248328
0.243885
0.134969
-0.126908
0.234204
0.242696
0.241981
0.296914
31.5288
31.4434
0.0382684
0.20957
0.151257
0.302136
31.4407
0.224356
0.364463
30.8404
0.198018
0.286653
-0.294998
-0.418203
0.241184
0.146852
0.213498
0.299981
30.6564
0.343711
0.180043
0.302821
-0.34884
31.4455
0.279719
32.0615
31.5265
0.224632
0.240115
0.228044
0.960664
-0.0675971
6.25792
30.6078
0.161954
0.403664
0.489082
0.229851
31.5402
30.6307
30.5904
0.200734
0.223171
-0.449231
0.240947
30.549
31.4592
0.165932
0.239684
0.200025
0.249939
0.225142
0.354962
0.195678
17.713
30.5859
0.294723
0.0835233
31.4551
0.251444
0.332988
0.160566
0.309602
0.255799
0.234758
31.4576
0.288417
0.252786
30.6279
30.6106
0.143764
0.321484
0.14698
0.117035
0.302448
0.373274
0.186363
0.264891
0.315923
0.0846672
31.4423
31.4133
0.0459838
0.142742
0.305897
0.0492549
0.303981
0.225329
0.296117
0.2622
0.292125
30.5982
30.6598
0.0166371
31.4379
27.4997
0.283462
0.222284
0.208255
0.0509514
28.7805
0.234303
0.127376
29.3044
0.039302
-0.376665
0.29575
0.311379
0.0933109
0.345035
-0.14962
0.130303
31.5279
29.08
0.0872426
0.168032
0.208698
0.160628
-0.0445003
0.210794
-0.0205227
29.1806
0.3421
0.265591
0.255432
-0.0479184
0.220013
0.0260821
-0.356917
0.259322
0.145164
28.7523
0.319468
0.324842
11.503
27.3115
25.1447
0.352547
26.6967
0.0707622
0.299734
0.231011
0.350509
-0.0291914
20.3793
12.4999
32.3177
27.0117
0.20317
30.5905
30.5911
-4.57822
31.5177
0.254818
0.241748
0.146056
0.23517
0.236962
0.282881
25.2428
0.150771
0.112492
0.20509
0.258118
0.247382
0.28251
30.5959
-0.376224
0.254253
-0.081391
30.5928
0.284511
0.228326
30.5924
31.478
0.0669561
0.215118
31.6785
0.322186
0.308987
0.0509216
31.5442
30.5917
0.115449
-0.371385
0.334417
30.5943
30.5556
30.5934
0.306659
10.5284
9.60889
0.099376
-1.02259
31.5859
0.198717
-0.933901
0.286398
0.113428
0.0409136
0.185
-1.5215
0.145825
30.8202
0.163717
0.217526
0.0750392
0.25959
0.103
0.180432
0.0983451
0.121691
0.131795
0.14854
-1.07675
0.280444
0.0456653
-0.0961424
-1.35379
0.00835581
-1.00554
0.0978824
0.165461
0.226216
0.244341
0.166722
0.217697
-1.02912
0.164704
29.9981
0.270775
15.5336
0.231342
0.232333
30.6307
0.256251
29.9977
0.247317
30.1077
31.6261
0.393936
0.213626
27.5279
0.170774
0.286427
0.247906
31.4633
31.5482
0.448787
0.115016
-0.171116
0.242366
0.181515
0.231977
0.149443
0.276719
0.26376
26.1213
0.277935
30.5953
31.3409
0.247916
0.207262
0.0508621
0.240902
0.191275
0.295075
0.254132
31.1471
-0.0210177
0.171676
0.28604
31.1844
31.5795
0.272019
0.269691
24.7391
0.213705
0.134444
0.290172
-0.506394
0.209982
0.267279
31.4823
18.516
0.247328
0.112099
30.8894
0.276622
0.191012
0.246574
-0.0296749
0.196374
-0.150226
0.268757
0.23794
19.5735
0.216609
31.5253
0.267631
0.257562
0.201832
0.0698423
26.4478
0.0599207
0.0800461
0.273465
-0.0333163
29.7745
30.5956
0.254369
0.134254
0.296003
0.286525
0.214573
0.196411
0.00768258
0.239432
0.186451
0.103104
0.181165
28.2617
-0.117718
0.219976
0.0222115
0.20423
29.0391
30.5821
-8.9244
-0.0266284
32.7002
-0.12485
0.246322
29.5057
20.2285
21.9708
0.158371
0.221323
1.12213
23.5031
0.0673442
0.271278
30.4857
0.953918
27.6126
0.245067
0.172491
30.7364
-0.0889307
0.266425
0.251421
0.208593
30.5858
-0.611757
0.198607
0.0941117
0.290523
0.314572
0.224901
0.303928
-0.225403
0.252233
0.146406
0.217795
31.5127
25.9504
26.3139
30.9187
0.203863
0.249631
0.275917
0.119359
0.162942
0.257915
0.26605
0.253656
0.251526
0.195231
0.27813
0.0363237
0.305243
0.195243
31.5251
0.201086
0.118787
0.262389
0.310503
30.4561
0.190348
0.208631
0.428131
0.278854
0.264272
30.648
0.303176
0.254217
27.5631
0.299559
0.266675
30.8993
0.203089
30.8629
30.6153
0.196607
0.0856441
0.281192
0.268342
30.5909
0.176544
0.189917
30.6312
0.30645
0.2605
0.255983
0.256328
31.0229
0.213327
0.222728
0.326264
30.8798
0.25443
0.146399
0.286067
0.22273
0.214489
31.6583
29.9361
28.3757
0.126825
28.8943
0.252458
0.169232
0.132132
31.4328
0.129057
30.7299
31.5246
31.3304
0.275743
-0.0496812
-0.379974
0.311078
0.289165
30.0984
27.6097
0.217682
0.182121
0.277505
-0.229791
0.253111
-1.11393
31.5304
23.0876
23.5541
30.584
23.8486
0.0785781
31.5296
0.287166
0.25776
0.286291
0.0792512
0.249021
25.4236
0.138466
0.299387
0.281697
0.207307
25.5889
31.5302
0.230855
0.19626
-0.724701
-1.7079
-0.0107404
-0.217259
-0.600298
-0.342666
0.25811
0.0521818
0.218665
-2.73839
0.206601
0.303368
0.256335
0.212681
0.188584
-0.0415815
-2.00418
-1.54299
-3.35274
-4.54567
0.191344
0.16579
30.6439
-3.73461
-7.49463
0.16064
0.117006
0.0433927
0.306229
0.356818
-8.17721
0.120499
0.00611924
31.6568
0.263588
0.195209
0.24047
31.5413
0.156838
0.142661
0.135914
0.229086
31.5771
31.677
0.268746
0.14009
0.170594
0.0842716
31.3801
31.5291
30.6088
0.287863
0.274809
0.11234
31.5392
0.194283
31.6939
31.79
0.153988
0.125056
30.5697
0.128678
0.156038
-0.0663801
30.5938
31.5437
0.185233
0.302465
31.7288
0.12242
0.266831
-0.150526
31.9546
31.9818
31.8502
-0.159397
0.126023
0.249035
0.275311
30.571
0.13548
0.25211
0.246162
0.258887
30.7436
31.517
0.341427
0.158251
0.156187
0.261393
30.7328
-0.317493
30.6004
0.146089
-0.00493312
0.248656
30.9345
28.6306
0.0946015
0.213336
28.0837
28.2519
30.5969
0.323797
30.2693
26.8489
0.256928
0.262693
30.6015
27.6214
0.267836
0.306671
0.173724
0.245854
0.238627
28.0955
0.311229
25.7803
25.1321
31.6255
0.234021
0.321969
0.112919
25.2805
33.849
0.335883
-0.00168866
0.354864
0.296918
0.262034
0.28373
0.250241
0.365683
24.8096
0.235483
0.142568
0.343593
0.290121
0.238973
17.9472
0.23671
0.231642
0.248118
0.236933
0.160533
24.016
28.6275
0.264589
28.8617
29.2469
0.290373
28.923
0.256841
28.2339
28.5864
30.7765
27.4615
0.258516
0.161474
0.204983
28.182
0.207092
0.249029
0.175958
28.6498
31.5312
0.26586
0.273724
-0.188364
0.266674
27.2833
0.04606
0.208159
0.128748
30.581
30.9877
0.255641
0.167598
31.0968
28.748
0.187972
0.0190906
28.11
0.152316
0.136907
0.176648
0.29263
28.4197
0.265947
4.41395
0.198259
0.392625
0.266048
0.138261
0.251058
0.219144
0.330449
27.7931
0.285655
0.317755
-0.225899
0.123093
0.197207
28.5823
0.188988
0.311791
0.222192
0.211946
0.29436
-0.178319
0.524916
0.0822954
0.246919
0.229203
0.211932
0.219193
0.271792
0.278156
0.324051
31.6434
-1.19496
31.5446
0.27717
0.291252
0.204218
0.134261
0.339592
0.253376
0.273549
-0.0137245
0.25937
0.181383
30.5636
23.3155
0.159354
0.219285