/*--------------------------------*- C++ -*----------------------------------*\
  =========                 |
  \\      /  F ield         | OpenFOAM: The Open Source CFD Toolbox
   \\    /   O peration     | Website:  https://openfoam.org
    \\  /    A nd           | Version:  10
     \\/     M anipulation  |
\*---------------------------------------------------------------------------*/
FoamFile
{
    format      ascii;
    class       volScalarField;
    location    "9";
    object      T;
}
// * * * * * * * * * * * * * * * * * * * * * * * * * * * * * * * * * * * * * //

dimensions      [0 0 0 1 0 0 0];

internalField   nonuniform List<scalar> 
111485
(
303.15
285.103
300.964
303.15
298.397
283.15
298.907
293.376
296.305
286.245
300.503
296.181
300.198
284.568
299.962
286.755
299.292
297.796
294.022
303.15
303.15
283.15
297.223
288.689
301.541
303.15
293.177
300.607
288.848
303.15
300.725
294.298
303.15
283.15
283.447
283.15
302.278
297.571
283.149
296.578
283.15
289.583
296.997
302.88
303.191
303.15
287.362
288.548
289.625
303.15
303.15
283.15
303.15
298.902
303.15
293.475
287.889
283.15
283.321
295.422
295.823
303.15
302.045
300.252
283.15
284.547
300.238
291.515
302.099
302.524
303.162
301.888
303.15
302.096
303.15
295.345
283.15
293.437
283.15
283.15
283.238
293.377
283.15
303.15
300.296
284.205
283.15
301.537
303.116
299.064
283.333
289.562
300.847
300.366
289.754
303.15
303.15
301.537
303.149
283.414
303.15
286.647
283.15
285.161
285.742
283.15
283.15
293.046
301.443
283.146
298.885
288.06
301.28
301.69
303.15
301.968
303.15
283.15
300.109
303.15
303.15
283.15
283.15
283.15
283.398
303.151
283.15
301.8
303.15
283.176
303.086
301.928
303.15
283.15
283.15
292.479
283.15
294.19
298.765
301.075
303.137
296.792
298.946
284.764
302.272
297.767
283.15
303.15
283.15
297.109
284.92
303.15
303.144
287.302
283.156
293.692
295.604
302.519
283.154
303.15
303.15
292.149
286.236
283.153
283.157
301.164
283.683
283.15
283.152
283.152
283.15
303.15
283.205
283.15
291.516
287.156
283.15
303.15
303.15
283.15
303.15
303.15
297.618
293.466
295.756
289.744
301.364
300.399
283.19
303.15
301.429
303.15
303.15
300.133
286.272
301.39
301.317
295.717
303.15
300.868
284.59
283.16
300.76
297.037
303.15
300.392
288.178
303.15
283.224
300.16
284.799
300.665
303.15
303.15
300.679
283.15
292.74
283.15
300.583
298.681
290.345
303.15
301.741
300.517
283.15
283.15
283.15
289.479
283.157
283.15
303.15
298.617
291.34
289.907
283.15
303.15
303.106
303.15
284.326
300.055
299.23
299.479
299.348
283.15
283.144
298.824
283.15
283.15
288.741
288.346
283.15
301.166
298.843
303.15
283.15
301.008
303.15
303.15
303.121
303.15
288.25
285.854
290.76
303.15
298.303
303.15
303.15
303.15
283.148
298.063
300.954
299.39
291.179
299.448
296.202
283.21
290.303
291.548
283.15
303.15
283.149
292.421
298.711
286.446
303.15
297.959
297.23
298.856
302.959
283.166
297.064
299.328
301.993
283.15
283.604
283.15
283.149
303.15
283.881
290.242
286.302
303.15
283.15
297.553
285.233
303.15
303.15
303.15
284.579
290.211
301.042
284.395
292.992
283.15
283.15
303.15
298.316
303.15
283.818
289.46
283.153
283.15
303.15
303.15
283.15
294.322
289.945
283.15
295.671
283.15
303.15
301.049
297.26
293.947
295.78
283.15
283.15
283.15
296.571
290.981
302.357
283.15
283.15
283.15
290.065
296.905
283.212
290.453
283.15
292.761
299.526
284.196
298.652
285.252
283.15
303.15
283.15
303.15
290.651
296.623
287.921
291.912
283.15
286.346
283.15
303.15
293.779
303.15
301.748
303.15
283.15
291.919
283.15
288.758
284.616
283.15
283.979
297.99
283.15
300.121
284.66
298.809
303.022
291.03
285.989
283.15
303.15
303.143
283.15
300.965
300.83
283.15
283.15
294.677
284.361
298.155
296.806
283.15
295.081
296.08
283.15
302.041
283.893
303.15
303.15
288.232
298.557
283.15
303.15
303.15
303.15
300.718
283.15
303.15
293.917
283.171
286.956
299.939
283.15
283.15
302.604
283.15
302.452
301.424
297.818
288.727
283.15
293.886
303.38
303.15
298.606
292.276
303.15
283.15
283.305
283.15
290.006
286.09
291.621
283.15
292.842
296.548
293.034
303.147
283.15
303.15
303.15
283.169
292.7
283.15
284.312
303.133
283.15
303.15
303.15
303.15
301.816
290.496
285.982
284.184
284.309
283.15
285.687
303.15
300.712
283.15
303.15
303.15
300.653
303.15
303.15
283.151
303.15
283.15
300.652
283.15
283.15
283.15
303.15
283.15
303.15
283.15
283.662
283.15
303.125
301.838
283.741
283.15
303.083
283.15
303.15
284.703
284.665
286.105
297.484
283.15
297.451
297.564
292.263
286.798
285.261
303.15
291.733
283.15
299.833
283.15
296.75
283.15
292.053
298.551
303.151
283.15
286.779
303.15
295.462
299.053
283.15
283.15
283.15
283.15
303.15
293.643
283.15
283.15
283.237
283.15
299.786
283.15
284.787
303.15
283.433
303.121
284.628
291.876
283.15
301.438
283.15
283.15
285.681
283.15
283.254
283.15
299.638
303.15
290.629
303.15
283.15
302.374
284.463
300.056
285.648
300.055
289.449
283.15
300.602
284.542
283.15
283.14
300.311
301.572
283.15
282.457
301.042
303.062
283.119
303.15
287.557
302.158
284.4
285.38
288.183
282.563
283.15
303.15
300.573
303.15
283.545
283.15
283.15
291.733
282.678
303.149
303.117
283.15
286.263
299.557
283.15
283.15
299.572
303.15
283.15
283.15
283.15
286.146
283.15
303.15
284.816
284.215
303.15
299.665
283.15
289.231
303.15
283.15
286.141
283.15
283.15
283.15
285.359
283.15
285.435
291.929
303.15
300.339
283.446
298.674
300.925
283.312
283.456
283.15
288.937
298.406
303.15
302.253
296.022
296.841
284.707
297.405
297.159
303.15
300.223
303.135
283.15
297.107
284.819
283.15
292.337
295.682
284.84
298.733
300.603
292.296
283.15
298.873
283.468
303.15
300.564
301.954
294.048
283.15
286.477
303.15
283.15
283.15
283.15
283.3
283.15
303.15
303.15
283.15
300.39
299.212
303.15
285.61
303.15
303.15
303.15
290.002
283.417
283.15
303.15
283.15
283.15
286.789
292.343
283.15
295.097
283.137
283.15
295.271
302.211
287.761
283.15
283.15
300.222
292.052
283.15
283.15
283.15
293.954
303.15
303.15
283.15
296.2
302.371
283.15
282.385
301.757
286.518
283.15
283.15
287.44
302.963
283.15
283.159
287.218
283.751
288.755
283.15
285.678
300.28
283.15
303.15
283.15
283.15
283.15
283.15
295.63
303.15
283.15
283.15
295.244
291.777
303.15
303.15
289.82
298.388
298.286
303.15
283.15
297.96
303.15
283.824
298.792
298.312
303.15
303.15
303.15
283.15
286.046
283.15
283.15
302.699
303.15
297.78
302.268
283.15
294.014
283.257
296.396
291.944
283.416
289.749
283.15
283.15
296.844
288.022
290.81
283.15
283.15
297.748
294.937
283.15
283.901
284.58
283.474
303.15
303.15
303.15
290.715
283.15
300.025
283.15
284.368
297.562
298.476
292.225
283.15
283.15
303.15
295.333
283.15
283.15
303.096
283.15
283.15
303.15
283.15
299.292
283.15
283.15
283.15
283.15
283.15
303.15
283.15
283.171
298.742
303.15
302.527
283.131
283.398
283.095
285.502
283.15
284.447
290.498
283.398
303.15
283.149
299.708
283.15
300.225
283.144
283.144
286.188
297.455
283.204
291.854
297.964
283.15
283.15
299.029
299.774
283.15
297.318
291.245
297.529
283.15
283.243
283.15
297.841
296.962
283.15
300.036
297.61
283.149
299.741
283.15
295.616
283.145
303.125
283.162
283.16
283.15
283.15
284.416
283.15
302.968
283.585
283.064
303.148
303.149
303.147
283.15
283.15
293.759
303.15
303.185
283.868
283.15
283.15
303.154
303.149
283.15
303.165
283.15
283.15
303.15
303.15
303.15
303.15
283.361
283.15
283.15
283.15
303.157
283.304
283.885
293.411
283.15
283.15
283.334
283.15
283.15
283.15
287.225
293.558
283.15
283.15
283.15
283.15
283.15
283.15
284.005
283.15
303.15
291.543
283.15
303.15
303.15
303.153
303.15
303.15
283.15
303.171
283.15
283.693
283.144
303.152
283.15
303.062
284.386
292.05
303.15
303.128
284.44
303.15
283.15
303.15
283.15
294.002
293.445
284.629
303.148
283.15
293.216
283.15
283.15
303.15
283.15
294.81
283.15
303.15
283.163
298.131
303.15
284.369
283.15
283.574
283.15
283.15
283.15
303.15
285.839
283.467
284.225
283.15
283.15
285.626
283.15
283.15
303.15
284.319
303.164
298.522
303.15
303.127
303.128
283.15
303.13
283.15
283.44
289.12
301.002
283.797
283.167
283.15
283.15
283.15
303.184
283.15
302.9
303.15
292.667
303.15
288.711
283.821
303.15
283.15
303.15
283.15
301.78
303.15
303.15
286.397
300.539
283.15
283.15
283.15
283.15
283.15
283.15
300.793
283.577
303.15
303.15
303.157
303.15
300.171
284.411
283.15
302.105
303.15
301.616
283.15
302.564
283.15
283.148
303.152
283.31
302.102
300.211
283.147
283.15
289.335
303.15
293.345
303.15
283.15
303.15
283.15
283.15
283.15
300.794
302.045
303.15
303.15
303.15
302.898
283.15
303.15
292.856
283.085
303.15
297.491
298.286
296.457
283.373
283.15
283.15
283.15
283.15
294.6
283.15
294.842
283.15
303.056
289.827
283.15
302.854
283.15
283.15
302.735
283.148
302.917
283.15
303.15
283.15
302.383
283.15
303.15
283.15
283.148
283.15
283.171
283.15
283.15
303.15
292.968
301.079
296.094
296.993
303.15
303.115
283.15
283.15
285.683
283.15
283.158
302.839
298.761
302.941
303.15
283.358
283.15
303.15
283.15
302.992
283.315
298.278
283.15
303.15
288.079
303.15
283.15
283.126
295.07
283.147
283.15
283.15
283.149
303.15
283.15
303.142
303.15
303.15
289.932
302.986
302.993
289.001
293.224
283.15
283.15
303.088
289.071
283.15
303.15
284.721
283.15
303.15
283.15
283.15
283.15
297.416
283.15
302.939
283.15
300.487
283.15
283.15
283.15
283.15
283.15
283.15
285.004
283.15
283.15
283.15
283.15
283.15
283.15
291.979
283.15
298.345
302.932
283.15
302.32
283.15
302.511
303.145
292.283
288.778
303.15
292.148
284.775
303.108
303.15
303.14
295.036
288.658
283.15
287.878
283.15
283.15
283.15
283.15
287.502
283.15
283.15
291.633
303.135
285.307
283.15
283.15
302.516
283.15
283.183
303.15
299.877
283.15
283.15
302.82
283.15
303.178
303.15
283.15
289.039
297.943
292.69
285.651
292.512
294.101
283.15
283.15
302.283
290.578
292.753
284.4
283.15
294.354
283.15
303.15
300.726
298.707
283.15
297.393
283.15
292.746
297.188
303.15
283.15
283.15
301.769
283.15
283.15
300.491
296.113
283.195
291.211
283.15
283.15
302.795
300.51
283.15
300.629
283.15
300.483
283.15
283.15
300.789
283.15
283.227
301.586
283.15
283.15
302.425
283.15
287.904
303.15
290.382
303.15
303.15
303.15
300.937
283.15
283.15
299.519
283.15
302.99
283.15
283.15
303.15
283.151
288.193
283.15
283.15
288.056
288.236
283.15
283.674
283.15
303.15
302.41
283.722
301.556
283.15
283.15
283.15
283.15
283.15
283.15
283.15
283.15
283.15
283.15
283.15
303.15
283.15
283.15
283.15
283.15
283.15
283.15
283.15
283.15
303.15
286.947
283.15
283.15
283.15
294.674
283.15
303.15
302.888
283.15
283.15
294.679
283.15
283.15
301.803
295.157
283.15
303.66
303.597
283.15
301.496
293.928
297.52
301.46
298.108
303.15
283.15
296.355
291.756
301.402
283.15
302.137
302.409
300.854
288.031
287.311
301.041
301.768
301.771
303.15
285.852
297.514
285.523
297.217
283.15
283.15
283.15
303.15
283.15
291.967
297.886
283.15
283.15
283.15
283.15
283.15
303.15
283.15
303.15
292.112
303.114
298.994
302.838
283.15
283.15
285.405
283.167
283.15
283.15
301.694
303.15
283.15
298.125
299.485
297.495
298.621
300.784
303.15
291.028
302.581
303.15
303.15
300.307
303.15
283.15
282.987
295.532
302.947
283.15
303.15
289.584
286.144
297.119
292.166
302.382
303.15
303.136
303.15
303.15
283.15
298.931
283.15
291.785
290.435
299.669
284.762
303.15
301.913
303.15
283.15
303.15
303.15
291.477
299.515
283.15
303.15
303.133
291.765
303.029
299.321
292.78
288.314
292.889
283.15
303.15
283.15
291.213
298.273
303.151
303.15
303.15
303.15
297.458
302.554
283.15
299.942
301.118
284.855
299.488
303.15
303.15
298.657
292.94
283.15
302.902
299.721
302.603
291.953
297.278
298.222
303.15
286.976
298.153
291.313
283.15
289.036
303.15
288.385
301.045
303.15
288.698
301.268
300.114
293.151
283.149
283.159
283.237
301.62
300.906
303.15
288.811
301.47
303.15
283.15
303.15
303.209
298.733
290.751
296.75
303.255
283.149
297.501
303.15
303.15
292.763
303.15
300.293
283.303
301.306
291.517
303.15
283.66
293.184
303.15
283.055
298.65
303.15
300.674
286.243
303.15
303.15
283.992
303.15
283.15
283.15
285.909
299.219
291.149
303.15
285.217
297.457
283.15
298.818
298.853
288.961
303.097
283.15
301.496
299.611
298.818
300.06
288.653
290.763
302.477
303.15
301.542
288.707
303.15
298.829
283.15
283.15
303.15
283.15
303.15
297.426
283.15
300.504
283.63
303.15
283.788
283.15
289.829
303.15
303.144
303.15
294.138
302.993
303.117
299.854
290.401
289.432
290.578
298.405
303.15
299.379
292.151
298.917
303.15
283.869
283.45
299.236
287.158
283.509
303.15
283.15
303.15
285.322
303.15
303.331
284.681
303.362
302.954
303.15
303.15
283.15
300.536
300.625
285.487
303.085
286.995
295.645
301.87
292.481
288.14
302.074
296.074
283.15
283.15
303.15
285.805
289.691
283.15
283.15
303.15
301.981
288.659
303.15
296.367
303.15
283.155
285.183
301.084
303.15
303.15
292.259
303.15
283.301
290.606
283.15
297.124
294.618
296.072
303.15
302.706
283.15
302.659
293.388
303.15
303.15
288.783
283.15
303.15
301.792
284.432
303.15
303.15
283.15
302.342
303.469
289.492
299.68
298.025
303.15
303.159
302.601
303.15
283.15
303.15
303.15
303.15
303.15
303.15
303.15
303.15
283.15
303.15
303.15
283.34
303.15
303.341
303.15
303.16
303.15
303.15
300.927
303.677
303.15
291.993
303.15
303.15
283.15
302.553
303.15
302.123
303.114
283.288
283.15
303.15
302.922
283.149
303.15
303.15
291.359
283.15
292.579
283.15
283.15
283.153
291.203
284.837
303.15
296.634
283.15
303.747
303.133
284.31
302.588
283.15
292.156
303.084
301.672
283.15
303.15
283.15
304.109
284.814
296.866
303.15
303.15
303.15
303.15
303.15
303.15
302.339
302.804
297.604
291.996
303.15
287.12
292.632
284.969
303.206
283.15
286.906
302.748
284.758
283.148
287.474
303.15
283.38
302.915
292.52
302.841
301.897
303.15
302.223
303.15
303.15
297.914
303.15
284.465
303.15
303.15
283.15
303.15
303.15
302.841
303.15
283.296
283.15
283.15
285.799
284.906
300.893
286.082
303.15
294.669
303.15
290.442
303.15
287.131
300.669
301.473
293.335
303.15
303.15
303.15
289.798
283.15
303.15
289.551
283.15
283.15
301.815
303.15
286.187
283.148
283.15
303.15
303.15
300.647
298.17
303.15
293.405
303.037
283.15
298.554
303.15
286.411
288.225
302.138
303.15
296.276
296.727
302.951
301.873
301.651
303.15
303.15
303.147
303.15
283.15
303.15
289.555
300.062
294.317
302.125
283.15
300.348
291.387
298.207
283.601
298.303
289.58
302.156
283.15
283.15
283.15
302.203
283.15
290.474
283.15
301.254
303.162
289.708
298.034
283.15
303.15
301.242
301.22
303.15
283.15
303.15
286.428
301.431
302.976
302.331
297.997
288.433
303.15
303.15
303.15
294.219
285.954
289.775
295.856
283.954
302.953
303.15
303.15
283.15
283.15
285.416
299.569
303.15
303.15
283.15
303.15
303.15
303.15
300.242
303.15
285.351
292.417
283.15
283.248
293.342
285.692
303.15
303.15
301.878
303.15
299.216
283.147
297.556
303.15
303.15
283.15
303.15
303.15
303.15
305.207
303.15
301.831
301.108
303.15
303.15
301.609
303.15
283.15
287.236
303.103
303.15
303.15
303.15
297.908
303.15
303.15
302.461
302.483
301.769
303.15
283.15
303.15
302.037
302.504
301.516
302.527
283.15
300.637
287.481
297.435
283.15
303.15
303.15
303.15
303.15
294.348
287.564
299.644
303.15
303.15
303.15
303.15
283.15
303.148
284.764
285.141
283.15
303.15
303.15
283.148
299.578
294.911
283.15
303.15
303.15
303.15
303.15
289.601
289.654
303.15
303.15
302.393
303.15
301.439
283.948
291.875
303.15
283.15
301.157
303.123
303.15
303.062
301.31
286.809
303.15
303.15
303.15
303.15
293.274
284.143
303.15
302.691
298.041
289.401
303.15
303.15
303.15
303.15
299.525
303.151
303.15
303.15
298.24
302.583
288.332
303.15
303.15
297.724
303.15
303.15
303.15
303.15
288.802
303.15
283.15
283.15
295.917
291.077
303.15
303.15
303.15
296.98
303.146
303.15
303.15
303.15
303.15
303.405
300.868
303.15
287.327
302.639
299.371
303.15
303.15
303.15
303.15
283.15
285.649
303.15
302.845
283.15
302.172
303.15
303.133
303.15
283.15
301.917
285.688
283.15
302.823
303.15
302.414
283.15
303.15
303.15
303.151
303.15
283.27
303.15
290.84
283.15
283.15
303.15
303.15
298.813
302.376
283.15
302.407
283.15
284.09
287.978
302.702
283.15
303.155
302.986
303.134
284.388
283.156
302.981
283.15
283.15
283.156
302.07
302.286
303.15
283.15
283.15
295.3
303.15
283.15
303.15
303.15
303.15
303.108
303.045
302.929
302.445
303.15
302.9
303.15
284.817
303.15
303.15
283.15
303.15
303.11
303.15
283.15
303.15
288.311
303.15
303.15
303.165
283.15
302.834
302.048
296.654
303.15
289.266
294.419
283.788
289.921
283.15
283.15
287.208
284.315
283.15
303.819
283.15
286.411
303.15
283.15
303.156
303.15
303.15
303.012
303.155
303.15
283.15
303.138
303.15
283.15
283.105
298.727
302.7
303.15
301.841
303.15
285.706
303.152
301.176
303.15
303.15
301.039
303.15
303.15
303.15
287.687
303.15
285.142
303.15
303.147
303.15
283.15
283.15
303.15
303.15
303.15
288.703
302.547
303.15
303.15
288.57
286.496
291.177
303.15
302.699
287.669
287.527
303.15
303.15
287.651
283.15
291.881
303.15
303.152
303.149
303.15
300.511
283.15
302.3
283.15
303.15
303.15
303.15
303.15
303.15
284.327
302.244
291.022
303.15
303.15
290.554
303.15
303.15
303.15
303.15
303.15
300.137
303.15
303.15
283.15
299.439
303.15
283.15
303.15
301.361
283.15
299.944
290.724
302.683
300.007
299.421
303.15
303.15
303.15
300.815
288.464
283.15
303.15
300.304
303.15
303.15
291.95
303.15
287.475
303.15
297.807
284.31
303.15
283.15
303.15
303.15
303.15
285.237
303.15
300.477
303.15
303.15
299.685
283.15
284.748
303.15
303.15
288.091
301.529
296.393
303.15
303.15
303.15
301.547
292.237
303.15
283.15
303.15
300.655
303.15
284.77
296.274
303.15
303.15
301.126
303.15
303.15
283.15
303.15
283.15
294.532
303.15
283.15
303.15
303.15
303.15
303.15
303.15
303.15
283.15
301.495
283.15
302.072
303.15
303.15
296.052
300.463
303.15
283.15
303.15
300.87
283.15
303.15
303.15
303.15
300.72
303.15
297.636
303.15
285.821
283.15
286.726
303.15
303.15
298.479
283.15
303.15
287.841
283.244
303.15
303.15
285.069
283.844
300.839
301.723
301.175
293.135
301.729
283.843
303.15
297.677
283.15
283.15
303.15
303.15
303.15
301.196
303.15
303.15
303.15
303.129
283.169
283.15
283.555
303.15
302.009
283.15
303.142
296.078
283.15
294.556
303.15
303.15
283.15
299.871
283.924
303.15
283.15
299.897
303.15
297.64
303.15
295.265
303.15
283.15
303.15
283.15
299.406
283.15
283.226
283.15
286.193
303.15
303.15
283.15
283.15
303.15
303.15
303.15
303.15
284.873
284.724
283.15
303.15
283.232
283.15
283.15
303.154
289.844
283.535
283.15
301.488
284.864
300.451
288.155
303.15
303.15
303.15
303.15
283.15
283.15
283.15
303.15
283.15
283.15
303.15
283.15
297.243
283.15
303.15
283.15
303.15
303.15
283.307
283.15
303.15
301.938
303.149
303.15
303.15
303.15
288.712
283.15
303.15
303.149
283.15
303.15
303.15
303.15
295.223
283.15
283.18
303.15
303.15
303.15
303.15
303.15
303.149
303.147
284.096
303.15
283.15
303.15
303.149
303.15
303.148
303.149
283.15
283.15
283.15
303.15
303.15
283.15
303.149
283.15
287.695
283.15
301.803
283.15
303.154
303.15
284.603
283.15
284.446
297.359
303.15
284.687
303.173
303.15
297.368
283.15
303.15
303.15
303.15
303.15
283.15
303.15
303.15
299.137
283.15
303.15
303.15
303.15
303.15
292.305
290.303
303.17
283.165
303.15
301.802
302.307
303.15
283.15
283.15
303.15
303.15
303.15
283.15
283.15
283.82
303.15
303.15
303.198
303.151
283.15
288.832
303.15
283.15
303.15
288.053
303.15
283.15
302.11
283.15
283.15
283.15
303.15
299.66
303.15
303.15
303.15
283.15
284.499
293.558
295.185
289.52
303.12
303.017
283.15
283.15
301.005
283.692
283.15
303.149
303.15
303.15
283.15
294.511
303.15
283.15
302.977
303.15
303.15
283.793
303.15
303.15
288.383
289.533
303.15
283.15
303.15
283.15
303.15
303.15
303.15
303.15
283.945
303.15
303.15
303.15
302.926
303.15
303.15
283.15
283.15
283.15
283.15
302.939
283.15
283.15
300.952
303.15
284.764
284.924
303.15
301.111
303.15
283.15
303.15
283.15
283.15
303.15
303.15
303.15
302.657
303.15
303.15
303.15
283.15
303.15
283.15
286.359
303.15
303.15
291.613
303.15
283.15
283.15
302.412
303.15
303.147
283.15
303.191
286.643
283.15
283.15
299.184
283.15
283.15
303.046
303.161
293.309
303.167
303.151
303.152
283.15
283.15
302.64
283.451
285.812
300.829
283.157
283.15
291.028
301.554
301.45
283.15
300.198
290.684
300.128
302.196
302.738
284.676
295.457
299.188
286.247
293.275
300.085
303.15
297.943
297.543
302.785
283.656
292.331
301.129
287.323
303.15
301.037
303.15
300.706
301.482
283.63
284.966
303.15
283.15
302.274
301.676
283.146
303.173
288.539
302.671
301.818
300.808
303.15
303.232
301.108
295.041
300.412
288.92
302.907
301.623
302.183
302.263
284.206
302.496
301.579
283.178
303.15
302.892
303.15
303.15
302.087
301.993
294.241
303.15
284.658
292.304
292.319
300.884
303.15
284.004
285.179
284.385
303.15
298.753
303.15
296.358
295.353
300.735
303.142
303.15
303.15
301.932
301.247
302.78
303.15
292.597
302.74
289.931
283.15
298.334
293.974
303.15
300.494
283.15
283.203
283.15
302.567
303.096
303.15
302.979
298.364
283.148
300.484
302.213
295.309
283.534
295.828
297.042
283.458
303.133
284.726
296.305
283.318
296.831
300.487
300.23
300.336
301.993
289.778
301.561
303.15
302.713
302.643
302.646
296.484
302.88
283.15
302.004
293.416
303.15
283.432
286.831
301.181
302.593
290.51
284.813
287.688
302.618
296.361
303.15
303.15
294.998
283.15
292.672
283.43
303.15
290.551
290.302
283.908
303.15
297.269
298.479
284.218
301.223
294.158
290.163
300.522
303.106
303.15
303.15
283.526
302.605
283.348
285.78
303.15
303.016
303.035
303.15
285.408
300.786
297.822
283.244
299.548
302.365
300.495
286.882
283.15
303.106
301.809
283.734
283.137
303.15
303.071
303.15
303.15
284.172
302.522
296.361
283.033
283.153
303.15
283.15
302.947
303.042
302.495
301.396
303.15
283.15
283.15
301.807
301.864
283.213
295.86
303.15
303.15
301.603
285.48
283.258
301.666
301.768
301.717
284.402
303.15
283.15
298.446
297.739
303.15
302.698
302.074
284.689
284.96
302.104
303.052
303.15
298.12
284.427
283.15
303.15
300.568
301.2
302.007
289.596
302.066
285.644
300.123
300.262
290.328
297.509
303.15
303.15
300.92
284.454
302.085
283.151
300.488
301.699
283.62
288.293
302.416
283.15
283.15
283.029
303.15
303.15
299.92
298.924
302.281
283.147
283.15
283.929
283.151
283.15
283.151
303.074
300.917
299.156
295.859
283.367
303.096
300.119
303.15
283.15
302.551
289.218
300.769
292.687
283.502
303.06
283.148
283.15
302.834
301.193
302.61
283.156
291.264
284.864
303.15
284.255
301.027
283.15
283.308
284.93
284.143
283.15
283.15
301.624
283.15
289.356
302.523
302.701
301.771
283.479
298.258
289.992
283.15
303.343
292.081
283.15
283.15
283.15
303.15
301.193
302.408
299.157
301.457
299.906
288.84
283.155
290.978
290.151
303.058
291.066
299.971
292.054
283.15
286.286
301.072
301.532
283.15
283.972
299.624
283.15
303.15
283.187
301.269
303.15
284.015
302.254
303.019
303.15
283.15
292.783
303.153
301.682
283.15
283.15
283.15
302.19
297.551
303.143
302.188
303.167
303.15
288.366
303.167
290.43
300.212
300.172
296.575
283.156
301.69
283.15
290.58
301.4
289.44
290.477
298.963
300.678
301.587
287.168
291.133
285.011
283.172
302.211
286.123
283.15
283.144
300.195
283.079
300.286
286.986
296.044
299.416
289.186
299.258
283.121
299.126
283.15
289.994
289.019
298.649
283.329
283.15
300.559
283.15
302.797
283.15
303.15
286.482
286.48
283.15
298.972
298.55
287.034
303.15
303.15
301.723
289.78
302.995
283.723
301.566
287.076
303.147
284.189
288.188
303.15
301.415
283.15
283.15
287.557
287.018
283.145
285.241
301.485
286.232
301.17
303.15
285.104
301.737
291.182
303.15
303.15
301.608
302.038
303.15
293.013
294.27
283.677
296.377
286.782
290.005
303.15
302.772
296.995
285.007
283.15
287.718
291.9
299.636
283.163
283.745
282.946
301.941
303.116
283.151
303.133
303.15
300.557
293.05
298.796
293.819
283.15
291.931
295.964
285.588
283.21
291.547
283.15
300.257
303.164
292.529
284.094
303.144
291.842
298.597
288.225
300.343
291.321
287.312
283.15
303.142
285.343
289.876
293.465
283.15
283.15
283.15
303.141
283.15
283.137
286.423
303.15
283.15
303.167
283.172
291.099
288.936
303.535
302.91
289.849
303.15
296.96
303.176
301.994
287.253
283.15
292.904
303.145
303.093
286.182
283.15
283.15
283.473
286.01
303.053
303.144
287.509
289.468
283.479
283.162
289.843
293.2
303.15
283.15
303.095
303.15
302.325
285.007
302.332
303.093
284.053
283.768
284.031
302.849
302.175
297.38
293.971
303.07
291.263
291.019
303.15
303.097
302.578
285.428
283.377
303.15
285.935
283.383
302.929
301.662
302.168
283.15
300.318
301.84
303.15
302.148
285.405
303.15
297.878
303.15
283.15
300.668
302.68
286.326
302.483
283.15
285.158
303.009
283.15
302.302
285.369
294.862
284.336
303.15
303.016
302.871
286.499
283.15
287.116
284.246
289.771
285.721
302.243
303.15
283.15
283.15
293.117
283.15
301.036
302.154
290.351
283.15
294.009
283.15
303.15
283.15
300.048
298.538
283.151
285.267
301.715
303.073
303.156
291.82
294.171
301.189
283.207
301.79
283.145
303.15
303.142
299.006
283.15
300.811
294.741
303.15
300.934
287.3
301.942
284.891
288.193
283.15
302.213
287.72
298.394
303.074
283.15
303.15
291.626
302.153
283.077
283.147
286.731
298.317
303.149
284.479
301.013
300.985
301.24
303.153
299.868
287.634
284.917
301.569
299.872
283.723
283.104
303.16
303.149
303.15
297.317
283.163
283.15
303.15
303.149
289.891
298.892
300.261
287.769
302.797
303.15
286.419
301.543
303.15
300.942
283.794
301.442
303.15
284.532
301.37
295.49
302.761
303.15
303.15
285.164
295.024
296.335
287.363
303.15
303.15
283.15
287.198
302.394
296.123
303.15
285.537
303.15
303.15
300.438
288.697
283.15
295.508
295.834
299.05
283.15
303.15
292.646
287.207
303.15
297.914
300.474
300.38
303.15
303.15
303.15
300.187
298.287
302.795
299.854
283.15
292.856
287.65
290.56
300.546
303.15
303.15
300.726
303.096
286.538
296.061
303.15
303.147
283.15
286.421
298.886
285.566
303.15
303.15
283.339
303.121
303.15
303.15
283.15
290.495
303.15
303.15
284.565
299.256
283.15
303.15
284.611
301.303
300.137
286.968
294.908
303.15
283.491
303.15
303.15
283.311
300.505
290.37
300.369
303.15
303.129
302.168
292.6
299.766
301.338
284.442
283.451
300.823
298.348
303.15
302.743
284.122
299.693
301.354
287.66
303.15
297.386
301.383
301.471
301.51
292.858
303.15
283.15
299.157
283.15
283.15
287.728
283.15
283.999
283.15
283.15
283.15
283.15
302.749
288.122
302.696
283.15
295.648
290.907
284.72
283.15
303.15
302.671
301.724
303.161
302.629
283.15
294.757
300.232
290.138
283.15
283.15
299.787
285.92
283.15
283.15
303.149
290.536
283.15
287.115
303.149
303.152
284.305
283.15
288.163
292.353
300.773
294.561
302.954
285.602
302.491
295.205
286.248
283.15
283.533
291.581
303.072
289.082
302.649
283.15
292.335
287.725
301.002
301.24
284.872
303.104
284.886
297.018
302.981
303.146
285.116
303.145
303.002
293.261
302.669
283.15
303.15
303.15
294.717
290.997
283.155
301.075
284.671
284.142
284.602
303.145
288.322
300.427
283.15
283.15
302.496
303.15
294.518
302.896
303.182
299.78
303.222
302.878
283.15
301.262
302.874
283.15
303.15
301.29
303.15
284.294
298.721
283.163
291.493
283.15
287.554
303.01
299.71
283.15
303.022
290.871
301.172
303.125
303.077
283.15
283.15
301.92
301.981
283.792
302.804
302.405
302.359
303.141
283.15
293.664
283.15
302.781
287.836
302.985
303.15
283.15
302.814
285.094
291.442
302.026
283.15
302.574
301.974
301.542
302.474
303.044
303.211
303.008
303.15
283.15
301.494
297.776
303.086
303.15
289.885
284.862
303.15
283.15
285.285
303.184
303.165
302.914
301.11
284.25
303.096
290.635
294.177
303.148
288.999
303.164
283.15
289.797
283.15
299.922
298.076
284.757
288.136
299.577
296.616
295.241
299.128
293.715
303.154
293.784
296.329
283.16
299.339
293.807
303.15
298.858
299.094
303.15
291.129
303.172
301.654
303.15
286.894
286.004
302.794
289.629
283.15
283.15
300.322
301.113
283.711
283.15
303.15
300.191
302.305
300.581
299.824
302.779
292.53
289.596
286.604
292.441
284.295
290.355
283.302
295.652
290.387
293.876
287.046
284.267
303.163
283.27
303.148
285.578
300.687
283.151
300.362
298.348
288.702
302.083
285.375
299.03
283.15
302.949
283.154
283.116
287.62
299.618
303.15
300.319
303.016
299.887
302.754
303.15
301.229
284.94
294.864
302.03
303.149
283.703
283.15
290.248
285.222
285.734
303.128
303.148
283.15
283.15
283.176
303.15
293.409
303.15
303.148
294.192
303.432
303.15
300.39
303.15
303.15
293.614
290.56
303.15
289.791
302.039
289.516
303.15
303.15
285.909
283.331
290.273
303.226
303.15
303.145
285.453
283.243
283.15
288.936
287.557
303.15
284.293
303.15
303.15
303.132
287.303
303.15
303.147
283.275
303.152
302.655
287.882
283.152
283.593
297.283
290.691
303.15
285.912
284.413
301.299
287.076
302.196
290.541
293.803
303.15
303.15
284.001
303.148
302.942
295.822
302.937
302.734
287.138
283.15
285.292
283.217
297.074
302.576
285.354
303.15
283.785
286.688
303.124
283.175
303.15
286.354
283.15
300.088
303.15
299.685
299.846
283.252
283.357
302.313
290.781
301.308
303.15
301.37
301.722
303.15
303.15
298.285
293.356
283.15
288.728
303.15
295.168
283.354
303.15
296.842
298.659
288.946
303.15
302.751
294.147
295.311
284.453
303.161
298.624
296.052
283.97
303.122
302.795
287.332
298.372
289.774
290.75
289.697
283.15
302.939
303.152
303.15
303.175
293.016
296.24
302.973
301.264
303.15
284.437
303.15
303.039
302.852
303.15
293.487
296.179
303.15
285.357
303.095
303.15
303.088
303.158
286.04
293.271
291.062
288.365
293.352
303.15
301.176
291.358
295.298
293.404
303.141
303.15
300.523
303.189
284.231
303.19
303.15
303.15
303.143
303.15
284.921
303.15
284.209
303.146
303.15
290.171
303.144
292.419
295.459
303.133
295.258
285.967
283.442
303.124
302.931
284.66
283.15
297.054
303.15
285.482
302.908
302.019
303.015
298.37
287.022
303.15
298.643
289.859
299.301
283.15
283.608
303.15
303.145
303.19
294.011
303.15
292.378
289.295
303.195
303.15
284.771
298.701
293.162
299.533
302.462
301.567
300.341
303.15
284.703
296.898
302.353
285.561
298.298
292.229
284.452
291.58
303.15
286.609
291.766
290.087
299.389
303.15
286.425
284.077
303.15
302.413
288.104
302.086
283.15
303.15
299.784
301.67
288.947
301.963
301.894
301.787
303.15
289.268
285.112
301.941
302.219
297.085
303.15
283.2
303.15
301.963
303.15
302.791
303.15
291.618
303.15
296.442
283.15
289.397
303.15
283.15
292.144
301.41
300.368
289.156
300.448
303.15
302.482
303.15
302.356
285.186
303.15
300.354
290.347
303.15
300.762
303.15
303.15
293.133
283.15
285.525
293.168
300.881
303.15
291.115
293.792
288.141
289.616
288.076
299.176
300.228
300.753