/*--------------------------------*- C++ -*----------------------------------*\
  =========                 |
  \\      /  F ield         | OpenFOAM: The Open Source CFD Toolbox
   \\    /   O peration     | Website:  https://openfoam.org
    \\  /    A nd           | Version:  10
     \\/     M anipulation  |
\*---------------------------------------------------------------------------*/
FoamFile
{
    format      ascii;
    class       volVectorField;
    location    "9";
    object      U;
}
// * * * * * * * * * * * * * * * * * * * * * * * * * * * * * * * * * * * * * //

dimensions      [0 1 -1 0 0 0 0];

internalField   nonuniform List<vector> 
111485
(
(2.90887 -2.90946 0.00353185)
(8.50718 -0.0226339 -0.0493322)
(8.38176 0.0200531 0.0260093)
(2.90944 -2.91021 0.000236512)
(8.70824 0.0382981 -0.00340482)
(3.05512 3.05349 0.000259273)
(8.55933 0.0251292 0.00209864)
(8.79263 -0.0254554 0.0120167)
(8.56367 -0.00485505 0.00617414)
(8.76415 -0.095261 -0.0406692)
(8.43179 0.0207856 0.025074)
(8.82179 -0.0216926 0.0411434)
(8.30913 0.00713729 0.0186432)
(8.39273 -0.0176129 -0.0608445)
(8.50689 0.0336127 0.0178758)
(8.69025 -0.0576936 -0.0473042)
(8.55082 -0.00949563 0.012795)
(3.00074 -0.217187 0.444702)
(8.73137 0.0251802 -0.0193537)
(2.88869 -2.8848 -0.00145476)
(2.8939 -2.89344 -0.00336868)
(3.06275 3.06175 -0.000261683)
(8.6357 0.0295342 -0.00897907)
(8.77114 -0.059134 -0.0175161)
(8.59149 0.0329715 -0.00982491)
(2.93241 -2.91935 -0.00337451)
(8.86315 -0.0441888 0.0458535)
(8.38649 -0.0127571 0.00350606)
(8.75734 0.0151761 -0.019869)
(2.89899 -2.90054 0.000273662)
(8.82542 0.143919 -0.0374733)
(8.71928 -0.0193587 0.0024752)
(2.88677 -2.89303 0.00427295)
(3.05908 3.06537 -0.00751916)
(3.06778 1.28446 0.489929)
(3.07822 3.0988 -0.0449919)
(8.78258 0.143542 -0.0577318)
(8.49719 0.0311187 0.0744433)
(8.7493 2.65144 0.148075)
(8.7218 0.0422312 0.00327501)
(3.02158 3.04904 -0.0212962)
(8.81824 0.0101707 -0.05098)
(8.71251 0.0440107 0.0150988)
(8.40567 -0.0506864 0.0015318)
(8.78817 -0.154068 -0.0787611)
(2.91682 -2.89529 0.0152745)
(8.81746 -0.0404153 0.0412903)
(8.75875 -0.0546198 -0.0165557)
(8.8188 0.00406282 -0.0382965)
(2.89233 -2.85779 0.0164043)
(2.87636 -2.85001 0.0181062)
(3.47743 2.92631 0.0505432)
(2.86804 -2.85683 0.0094526)
(8.80343 0.040337 -0.0751313)
(2.86054 -2.84922 0.000968168)
(8.70314 0.023333 -0.00794059)
(8.70602 -0.0373077 -0.0177025)
(3.06273 3.05678 0.00174095)
(7.93947 -0.0177743 -0.140039)
(8.74631 0.0355909 -0.00522537)
(8.74478 0.0395522 -0.00373756)
(2.89986 -2.90557 0.00373388)
(8.10679 0.00875186 0.0532912)
(8.8462 -0.0231999 0.0686431)
(3.15781 2.86273 0.00472064)
(7.97715 0.01836 -0.0153654)
(6.13476 -0.48607 0.214984)
(8.77468 -0.0313906 0.0127247)
(7.91185 0.00414777 0.0231142)
(7.4826 -0.0148275 0.00386827)
(8.46357 0.0519524 -0.0428747)
(7.8507 -0.00907642 0.0238625)
(3.14102 -2.82718 -0.0654261)
(8.01907 0.0150762 0.0623909)
(2.90608 -2.90506 -5.09207e-05)
(8.73147 -0.0203053 0.00969396)
(3.06185 3.06192 -0.000533753)
(8.80843 -0.0187867 0.046615)
(3.06099 3.0591 -0.00040834)
(2.75719 2.6903 -0.091149)
(8.48889 -0.13089 0.0887192)
(8.7668 0.0344471 0.0077392)
(3.05055 3.04331 -0.000154777)
(2.90652 -2.90667 0.00163804)
(8.25573 -0.00159825 0.0161024)
(7.9118 0.0218092 -0.0326803)
(6.79925 4.41517 -1.18444)
(8.68639 0.102529 0.00928725)
(8.36822 0.215516 0.184553)
(8.47391 0.0107398 0.025536)
(8.96407 0.180054 -0.114463)
(8.71712 -0.015113 0.0139718)
(8.15332 -0.0126152 0.0325873)
(8.28878 -0.00958185 0.0092743)
(8.82873 0.0267357 -0.0554988)
(2.90641 -2.90606 -0.000687659)
(2.90145 -2.90043 0.00155799)
(8.68296 0.0957116 0.0298484)
(8.94717 -1.76787 0.126423)
(8.13358 0.030153 0.0535338)
(2.90631 -2.9068 0.00142648)
(8.73279 -0.0475826 0.00471191)
(3.07507 3.0802 0.0168751)
(8.66108 0.000593671 -0.00472695)
(8.58525 -0.0446324 -0.055231)
(3.00407 2.68767 -0.0631556)
(3.0617 3.06064 -0.000572266)
(8.72658 -0.0238295 -0.00235222)
(8.0624 -0.0443157 0.0102464)
(7.72685 -0.229782 -0.244967)
(8.25172 -0.00651172 0.0150909)
(8.66984 0.0122095 -0.00479373)
(8.08543 -0.00495729 0.0327914)
(7.96078 -0.0415609 0.0177269)
(2.93445 -2.91865 0.00233691)
(7.65386 -0.00733049 0.0231011)
(2.91779 -2.90844 -0.00355591)
(3.07548 3.06241 0.0127034)
(8.52129 0.032108 0.0252806)
(2.90863 -2.90659 0.00104856)
(2.93382 -2.91837 -0.00141127)
(4.02441 3.16801 0.18799)
(3.0302 3.04247 -0.00587082)
(3.06824 3.06092 -0.00727414)
(8.32806 -0.0208734 0.0406458)
(2.31765 -1.63325 -0.43159)
(3.83738 3.30138 0.116299)
(7.73027 -0.00214686 0.0376449)
(2.90607 -2.90491 -0.00102538)
(8.77034 0.660492 -0.238946)
(8.75429 0.169503 -0.0870267)
(8.66704 0.0981875 0.0292368)
(2.89329 -2.88603 -0.0142817)
(3.9416 3.42846 0.353315)
(3.6783 3.28286 0.154859)
(8.75414 0.0263188 -0.0162073)
(3.06403 3.06374 -0.000945487)
(8.68927 0.0208008 0.00145592)
(8.63199 0.0400142 0.0235407)
(8.48531 0.0384136 0.0363489)
(6.64995 0.000715939 0.0278261)
(8.70127 0.0449567 0.0105625)
(8.6274 0.0445277 0.0281564)
(8.22319 0.00867354 -0.0343848)
(8.59591 -0.016406 0.00884584)
(8.50127 -0.00445534 0.0214165)
(3.06472 3.06497 -0.000629631)
(2.90638 -2.90763 0.00026821)
(3.05618 3.05786 0.00639151)
(8.70565 0.0385051 0.00679012)
(8.22707 0.0143423 -0.0311247)
(2.89592 -2.89444 0.00184605)
(5.68414 -0.0333364 0.0574344)
(8.48747 0.0412073 0.0192939)
(9.29828 0.375646 0.163553)
(8.75294 0.0259376 -0.0169808)
(8.71315 0.0268964 -0.00672358)
(8.07332 0.00262797 -0.0157668)
(9.38474 0.459762 0.113419)
(2.89026 -2.91752 0.0112503)
(2.90446 -2.90715 0.00270999)
(8.7381 0.0250081 -0.0167721)
(8.56019 -0.0307122 -0.0316773)
(9.44696 0.51799 0.123377)
(9.31803 0.453387 0.169755)
(8.10116 0.0119377 0.041485)
(8.71856 0.10887 -0.0393852)
(3.02369 3.04896 0.000508449)
(9.55832 0.641195 0.15216)
(9.11761 0.461739 0.141084)
(3.05966 3.06149 0.000857117)
(2.90105 -2.90042 0.000225363)
(6.95015 0.00857101 -0.0540207)
(3.06299 3.06429 0.000386116)
(8.67363 -0.0188763 -0.00350897)
(8.34521 0.00457166 -0.0192722)
(3.06223 2.98893 -0.0168132)
(3.14411 -2.88424 0.0310283)
(2.90044 -2.88551 -0.00511141)
(3.01811 2.85076 -0.0294973)
(3.15936 -2.90856 0.0506751)
(2.9041 -2.90607 0.0025824)
(8.68426 0.0336258 0.00898839)
(8.69982 0.0207824 -0.016338)
(8.6685 0.0267171 -0.00902242)
(8.55881 -0.0254966 0.030749)
(8.24804 -0.0202846 0.0067612)
(8.27654 0.0140179 0.0262385)
(7.33979 0.0955475 0.0102736)
(2.90118 -2.89108 -7.29777e-05)
(8.01462 0.0013626 0.0103331)
(3.13608 -2.90819 0.0316674)
(2.92757 -2.93266 -0.00148294)
(8.34638 0.0158961 0.0298468)
(8.76821 -0.106484 -0.0394183)
(8.68353 0.0175122 -0.0398922)
(8.33693 -0.00988443 0.0110949)
(8.49034 -0.00616443 0.00977182)
(2.90091 -2.89625 0.00720383)
(8.32684 -0.037697 0.00618768)
(8.30381 -0.00877556 -0.0523935)
(5.81878 1.86315 0.237801)
(8.51252 -0.0686641 0.00534079)
(8.63308 -0.0143837 0.00818591)
(2.91485 -2.89846 -0.00468609)
(8.31039 0.0205066 0.0297105)
(8.72387 0.0207076 -0.00716621)
(3.19001 -2.87468 0.0144967)
(8.37131 0.0208153 0.0322744)
(8.78729 -0.00641763 0.0448487)
(8.223 0.00927614 -0.0357876)
(8.28589 0.0217587 0.0390137)
(3.15634 -2.91781 0.0412356)
(2.89939 -2.89955 -0.000795273)
(8.28362 0.0221962 0.0419124)
(5.43838 3.41731 -0.337176)
(8.8883 0.0378638 -0.0880513)
(3.06144 3.06252 -0.00188018)
(8.33534 0.0165656 0.0348291)
(8.3425 0.00652974 0.00469605)
(8.83878 -0.0281804 0.0552367)
(2.90849 -2.90717 0.00113222)
(7.78151 -0.00230785 0.0209965)
(8.73248 0.125436 0.0655038)
(4.80744 3.23278 -0.35241)
(3.06302 3.06356 -0.00226724)
(3.05971 3.06138 0.000847811)
(8.93003 -0.0578993 0.0846728)
(8.33711 0.198443 -0.0238067)
(3.2173 2.71877 -0.0624062)
(3.60759 -2.79275 0.114253)
(8.36726 0.00860706 0.0149672)
(8.6402 0.0149962 -0.000980678)
(8.7259 0.0191683 0.00818527)
(3.17142 2.7622 -0.0811093)
(3.06737 -2.82304 -0.010819)
(8.40121 0.100412 -0.119642)
(2.90573 -2.90554 0.00173737)
(7.96583 0.0105539 -0.0508765)
(8.27376 0.00557246 0.0347245)
(8.36391 0.00421291 0.0190158)
(8.3745 0.01712 0.0215037)
(8.40815 0.00966083 0.028605)
(3.05139 3.05201 0.00945939)
(6.32775 -0.0192764 -0.245052)
(8.50856 0.0183696 0.0329507)
(3.04668 3.0519 -0.00368415)
(3.06159 3.06347 0.000330409)
(8.86785 -0.108082 -0.0107046)
(8.666 0.0390116 -0.0130409)
(3.13488 2.67216 -0.0833281)
(7.88866 -0.00334547 0.0240263)
(8.4918 0.02417 0.0223467)
(2.90804 -2.9066 -0.000872134)
(3.86898 3.64613 -0.0236658)
(8.72487 0.0801415 -0.0353035)
(2.91923 -2.88115 0.00160277)
(3.23109 -2.28972 -0.0548312)
(4.44626 -1.54921 -0.157573)
(2.91114 -2.9029 -0.00146734)
(8.54182 -0.0152352 -0.0166224)
(8.30388 -0.0131555 -0.0164167)
(8.64862 0.0137586 -0.0209186)
(2.90442 -2.90488 -0.000212155)
(8.55971 0.0239064 0.0200785)
(2.90942 -2.91019 0.000213405)
(2.9087 -2.90968 0.000711444)
(2.90082 -2.8895 0.00478416)
(5.83799 0.0224782 -0.0906653)
(8.791 -0.0425393 0.0498777)
(8.36708 0.0310685 0.0432824)
(8.52678 0.0286469 0.0137474)
(8.82333 -0.0511009 -0.00210123)
(8.48695 0.0126912 0.0150812)
(8.69961 0.0316166 0.0109579)
(8.76301 0.14953 -0.0144076)
(8.57611 0.0109436 -0.00399415)
(8.65002 0.0152067 -0.0044006)
(3.1145 3.06492 -0.00186923)
(2.89706 -2.89721 -0.00379814)
(5.33482 0.0330552 -0.129972)
(8.69894 -0.0196013 0.00233101)
(8.76839 0.0667255 0.071282)
(8.27807 -0.01063 -0.0136116)
(2.90907 -2.90736 0.000774975)
(8.65329 0.0275464 0.0160492)
(8.68942 0.0442359 0.0213097)
(8.51381 0.0196709 0.0108933)
(7.48456 -0.00779684 -0.0400551)
(7.84773 -0.0918252 -0.196591)
(8.63954 0.0269775 0.00996357)
(8.50294 0.0240275 0.0155016)
(8.65766 0.066778 -0.0424001)
(3.06204 3.06228 0.000381917)
(7.94213 0.0445492 -0.00265118)
(3.06098 3.06135 -0.00093709)
(2.48651 1.89419 -0.395173)
(3.27864 -2.09444 -0.213436)
(9.00043 -0.0813603 0.120717)
(8.82591 -0.0511685 -0.00177753)
(8.61672 -0.00372931 0.00198948)
(2.91091 -2.90349 -0.000860468)
(3.04872 3.06659 0.0252469)
(8.64314 0.0291369 0.0143296)
(8.27334 0.0182827 -0.0115026)
(2.89758 -2.8968 0.000828648)
(2.90915 -2.907 0.00239487)
(2.83891 -2.85522 0.0226396)
(8.20859 0.0113015 -0.00439593)
(8.61096 0.0094714 -0.00899513)
(8.21737 0.00202512 0.0301804)
(7.94884 0.0137228 -0.0423907)
(8.77834 0.0200599 -0.0208997)
(3.50577 3.01005 0.0837815)
(3.05548 3.06283 0.00556994)
(2.90583 -2.90222 -0.00135636)
(8.60681 0.0334588 0.0231037)
(5.57531 -4.71958 -0.334638)
(8.20014 -0.00977566 0.0125893)
(8.93512 -0.0625054 0.196331)
(7.19335 0.00544022 -0.149648)
(3.06323 3.06267 -0.000399013)
(2.90408 -2.90736 0.00203514)
(2.90897 -2.91013 -0.00143371)
(3.85598 3.23633 0.198288)
(8.71885 0.0263831 -0.00334859)
(8.79508 -0.0497055 0.00757617)
(3.06731 3.07517 0.000994872)
(8.66095 0.0241992 -0.00155514)
(3.23298 2.62236 0.184174)
(2.91125 -2.87808 -0.00709658)
(8.87342 -0.0307336 0.0730809)
(8.6381 0.0321929 0.0159085)
(8.82752 -0.0121486 0.021105)
(8.66427 0.0247716 0.000476727)
(2.94383 2.61253 0.158577)
(3.81706 3.28662 0.20912)
(3.05496 3.05885 -0.00437915)
(8.65077 0.0303747 0.0114974)
(8.63891 0.0240524 -0.00166217)
(8.79731 0.156669 -0.0523577)
(3.02736 3.02045 0.00552684)
(6.04008 5.3485 -1.27928)
(8.24855 0.0819128 0.0750932)
(8.80008 -0.04191 0.0209575)
(8.66048 0.0313666 0.0195957)
(8.24262 0.859551 -0.0697868)
(8.77785 0.0194517 -0.0250274)
(3.04993 3.04996 0.00132711)
(8.77956 0.0215134 -0.0134485)
(8.43426 0.0120795 0.0175802)
(8.88 -0.209586 -0.00173478)
(8.90127 -0.0535057 0.109021)
(8.60296 -0.0696211 -0.0635145)
(3.04842 3.06182 -0.011432)
(2.90261 -2.90582 -0.00548108)
(3.06751 3.04961 0.0116543)
(2.88417 -2.89249 -0.000565015)
(8.78238 -0.0420893 0.00146055)
(8.70205 -0.0129095 0.0033405)
(8.70527 0.0419853 -0.033143)
(8.77189 0.0245971 -0.0274876)
(3.03686 3.03996 -0.0131639)
(8.68377 -0.0641862 -0.0235737)
(3.05852 3.0594 0.00110705)
(2.89567 -2.90397 0.000138103)
(8.773 0.0250603 -0.0179562)
(2.67374 -2.67672 0.0384445)
(4.81882 -0.853172 -0.0678993)
(2.87247 -2.86174 0.00241435)
(3.08755 3.04651 0.0244085)
(8.69004 0.0157169 -0.012042)
(3.06097 3.05926 0.00111605)
(8.58196 0.0249174 -0.0049799)
(8.16294 0.00468084 -0.0379051)
(3.06634 3.06646 -0.000697517)
(7.85979 -0.00349663 -0.0374147)
(8.54232 0.0153072 0.0122558)
(3.08428 2.70848 -0.0991923)
(8.50482 0.0382978 0.042619)
(8.04102 0.042786 -0.00381085)
(8.55951 0.0406318 0.0119769)
(7.9758 0.0312731 0.101103)
(8.63757 0.0250642 0.0043989)
(8.24948 0.00214785 -0.0161694)
(3.02772 2.59046 -0.0130976)
(2.89641 -2.89102 0.0173712)
(7.39048 0.0118028 0.173603)
(3.0402 3.05077 -0.0173334)
(8.54457 0.0463975 0.0408523)
(8.87949 -0.0451237 0.0889157)
(3.075 2.94065 0.0245426)
(3.05437 3.06729 -0.00086921)
(8.75653 -0.0176436 0.00668025)
(8.4395 -0.0398296 -0.0870276)
(8.46134 0.0452254 0.00137381)
(8.77073 0.0202917 -0.00776658)
(3.06159 3.05714 -0.00148864)
(8.91779 -0.0253795 0.144158)
(8.78465 -0.0300451 0.0442322)
(3.07072 3.06551 -1.59425e-05)
(8.59747 0.133775 0.109108)
(8.20941 -0.0334648 -0.0888019)
(2.90173 -2.90131 -0.000683657)
(2.89844 -2.89839 0.000948379)
(8.57307 0.0255747 -0.00919006)
(8.62463 0.00756873 -0.0130194)
(3.07388 3.07399 -0.0038935)
(2.90441 -2.89841 -0.00450085)
(5.13461 -2.75895 0.630908)
(2.90822 -2.91018 0.000609475)
(8.6218 -0.00320173 0.0161507)
(3.0411 3.05261 0.00704881)
(2.90916 -2.91009 0.000234104)
(8.83198 -0.0127361 0.0288731)
(8.00238 -0.0933563 -0.231352)
(8.73551 -0.0521671 0.0118149)
(8.43987 -0.000907005 0.0161861)
(3.06838 3.06624 0.000193877)
(3.96734 3.06129 0.153362)
(8.4373 0.112992 0.1612)
(3.71866 3.28163 0.17345)
(8.41104 0.0360043 0.0660781)
(8.37729 -0.0715858 0.00705165)
(8.74585 -0.0254117 -0.0232796)
(6.08643 0.198939 0.22619)
(3.64915 3.14706 0.157345)
(8.73393 0.0141125 -0.0827461)
(8.85139 0.275541 -0.092404)
(2.90408 -2.90933 0.0053771)
(8.82065 0.0229774 -0.0872362)
(8.83247 -0.0392224 0.032642)
(2.90953 -2.90892 0.00298502)
(8.51014 0.488216 -0.260966)
(7.44007 8.20642e-05 -0.102294)
(3.85951 3.03881 0.127762)
(8.7974 -0.0219471 0.0360926)
(8.69048 0.0138404 -0.00980143)
(8.64251 0.0236234 -0.00623258)
(3.06105 3.05839 -0.000869293)
(8.60427 -0.0128376 0.0596411)
(8.8296 -0.00357044 0.0283163)
(8.57238 0.0840353 -0.00852007)
(5.40786 -0.0732245 0.0902623)
(3.71796 3.50741 -0.0721786)
(5.10311 -0.130184 0.172262)
(2.90337 -2.90729 0.00213474)
(7.93187 -0.268947 -0.262509)
(8.60613 -0.0144513 -0.0567013)
(3.06245 3.06021 0.00484551)
(8.18713 0.0205838 -0.0627891)
(6.74372 -0.0173321 0.123621)
(3.96245 3.50676 -0.0365687)
(2.90627 -2.90432 0.000184998)
(3.40755 -2.89075 0.0941068)
(2.90853 -2.90737 -0.000353381)
(8.54253 0.047431 -0.00592385)
(8.63031 0.0463335 -0.0149833)
(8.55341 -0.0244885 -0.0249091)
(8.03386 0.0221436 -0.0450227)
(8.75785 -0.178973 -0.0370361)
(3.05954 3.04662 -0.0065728)
(8.49664 0.000284258 -0.0213296)
(2.91488 -2.8935 0.000359391)
(8.40944 0.0314616 0.0202999)
(3.07181 3.07218 -0.00131932)
(2.90635 -2.90377 1.01134e-05)
(2.87666 -2.8848 -0.00387578)
(8.26426 -0.0555479 0.0119541)
(2.89578 -2.8969 -0.00245303)
(2.9079 -2.90813 0.00125229)
(3.02068 2.01689 -0.123748)
(2.90847 -2.91025 0.00105117)
(3.02911 3.07106 0.0288745)
(8.46966 -0.0312386 -0.013227)
(3.06304 3.05879 0.00112382)
(3.62779 2.68076 0.00518469)
(3.06341 3.06525 0.00367493)
(2.8974 -2.88757 -0.00107321)
(3.06242 3.05137 -0.0042323)
(2.89628 -2.88161 -0.0147511)
(3.04437 3.04666 3.29845e-05)
(7.70675 0.0021292 -0.0661318)
(3.06709 3.05086 0.012208)
(7.90367 0.11759 0.160463)
(8.65171 0.0116889 -0.00348936)
(8.92428 -0.368595 -0.0647582)
(3.06961 3.05429 -0.000675117)
(7.52924 0.0218472 0.125902)
(3.06712 3.05641 0.00295478)
(2.90904 -2.91024 -0.00130013)
(8.52634 -0.0811743 -0.0875492)
(8.53847 -0.0658539 -0.0792013)
(8.55751 -0.0186251 -0.0236109)
(8.94095 0.022977 -0.152258)
(3.51661 2.96168 -0.0974024)
(8.76118 0.010052 -0.046444)
(8.75684 0.0151548 -0.0451143)
(8.65409 0.0157929 -0.000251354)
(8.51353 0.00959343 0.00274146)
(8.66802 -0.0882669 -0.0607832)
(2.89578 -2.89732 -0.000808098)
(8.66197 0.011972 0.000103949)
(4.00214 3.48764 -0.0250534)
(8.63041 0.0226594 -0.011211)
(3.0582 3.05482 -0.00110592)
(8.78877 0.028766 -0.0395011)
(3.95947 3.29039 0.0301696)
(8.67046 0.00759457 -0.0126681)
(8.69642 -0.0414413 0.0317682)
(3.35822 -1.68612 -0.0204302)
(3.06339 3.06555 0.0341248)
(8.5257 0.0152456 0.0149557)
(2.90539 -2.90439 0.000590607)
(8.82678 0.0364508 -0.0575718)
(8.76136 0.033904 -0.0374259)
(3.06021 3.05109 -0.0243884)
(3.0536 3.05242 0.00753247)
(2.99577 2.68808 -0.0597838)
(3.05997 3.06224 0.00147376)
(6.12641 -0.32772 0.166607)
(8.83166 0.0305267 -0.0551229)
(3.10569 3.03263 -0.0022165)
(3.05612 3.06041 0.00301729)
(7.53124 0.00995998 -0.0177995)
(3.06485 3.06447 0.000167527)
(8.69533 0.0245656 -0.0318615)
(3.06264 3.06193 0.000292322)
(8.61177 -0.0500275 -0.0377572)
(2.9096 -2.90939 0.000699467)
(8.07718 -0.0409447 -0.122819)
(6.67075 -0.0269356 0.00735475)
(8.09175 0.0255585 -0.0174033)
(8.67348 0.00981205 -0.0137095)
(3.07407 3.0515 -0.0100137)
(7.86258 0.00809531 -0.00122644)
(3.06787 3.05701 0.00275633)
(3.06334 3.06419 -0.00831262)
(8.57351 -0.0230984 -0.0137577)
(3.05942 3.05579 -0.00140087)
(7.29318 0.00118375 -0.0743569)
(2.95394 2.7199 -0.0900118)
(8.70611 0.0226807 -0.0277927)
(2.89894 -2.90201 0.000284058)
(8.7803 0.021793 -0.019335)
(2.91058 -2.90787 0.000403093)
(3.63214 3.21617 0.0930471)
(8.88062 0.317329 -0.0224369)
(8.5301 -0.0728681 -0.0918621)
(8.65922 0.0365047 0.00015979)
(8.73071 -0.0988577 -0.064699)
(8.62062 0.0170325 -0.00913513)
(8.81683 -0.062627 -0.0060981)
(3.04072 3.06403 -0.0136223)
(8.65433 0.0490241 0.0262532)
(8.56509 -0.085883 -0.0886876)
(3.06184 3.06366 -0.00168252)
(7.26743 -0.106417 -0.281302)
(8.84963 -0.0642039 -0.044501)
(8.49767 0.0364242 0.0321642)
(3.02933 2.988 -0.0171506)
(3.76184 0.757685 -0.597481)
(8.31677 0.021057 0.0273914)
(6.80243 -0.0270086 0.0691707)
(7.0581 1.82318 -0.0145826)
(3.772 -1.90992 -0.157007)
(8.79851 -0.101373 -0.023161)
(8.25797 0.0317522 0.0612776)
(8.5248 -0.0803933 -0.0885774)
(8.68818 -0.0488407 -0.0184886)
(8.54546 0.0501065 0.0211195)
(7.59064 0.991429 -0.0439069)
(3.78208 3.21086 0.0264709)
(7.71544 -0.291252 0.0656431)
(7.4496 -0.647037 0.157019)
(2.90298 -2.90467 0.00145098)
(7.59946 0.0533276 -0.0225161)
(3.07785 3.02003 -0.0158188)
(3.58969 3.265 0.030689)
(8.61745 0.019052 -0.00507553)
(7.64191 1.2963 -0.0428201)
(9.19462 -0.781586 -0.141851)
(8.28482 -1.4269 0.0320548)
(3.58013 3.40286 -0.250254)
(8.7635 -0.0543937 -0.017161)
(8.6469 0.0504278 0.0390983)
(3.05535 3.04679 -0.0014955)
(3.93788 2.19471 -0.0910734)
(8.64662 0.0649994 0.0404984)
(2.90665 -2.89566 0.00306655)
(3.06172 3.06041 -0.000633149)
(3.05222 3.05108 -0.000275882)
(3.06551 3.04955 0.00356722)
(8.76063 -0.090782 -0.0416435)
(3.0626 3.06183 0.001924)
(2.91647 -2.91631 0.0154112)
(8.60418 -0.0531508 -0.043212)
(7.91279 -0.00303689 -0.0241439)
(4.2796 -3.74661 -0.198384)
(8.64715 0.0634853 0.0390516)
(3.56172 2.88126 0.0646811)
(8.6939 -0.0355673 -0.0195673)
(2.84973 -2.84763 -0.0132837)
(3.05503 3.06112 -0.00226536)
(8.73874 -0.0557923 -0.0159136)
(3.06275 3.04408 -0.0121603)
(3.06314 3.05607 0.00173703)
(3.50655 3.35615 0.0968341)
(8.21662 -0.00655117 -0.00558934)
(5.0343 4.21717 -0.558468)
(8.61122 -0.0361016 -0.0174956)
(8.61543 0.0186555 -0.00692995)
(2.8809 -2.86215 -0.0229976)
(8.93529 -0.0255496 0.284472)
(8.18676 -0.0502469 -0.122955)
(8.57973 0.00152493 -0.00428595)
(8.68409 0.156683 0.0154408)
(8.73077 0.0867336 -0.188253)
(7.50413 0.00380141 -0.0707277)
(3.05666 3.05338 0.0017459)
(8.74956 0.00947661 0.0240623)
(8.68336 0.037053 -0.00764535)
(2.87828 -2.91636 0.00574837)
(8.07572 -0.00587047 -0.00227979)
(8.76435 0.0484247 -0.0176207)
(8.76276 0.0402591 -0.0145743)
(7.95744 -0.034437 -0.0789003)
(8.75976 0.0384706 -0.016027)
(8.76435 0.0459488 -0.00513688)
(2.91198 -2.87337 0.0177156)
(8.76322 -0.0185243 0.0449743)
(7.25039 -0.0454224 -0.0132979)
(3.68563 3.20241 0.203101)
(8.75874 0.0328933 -0.0213901)
(8.35793 0.00958309 -0.0199229)
(4.89939 3.99206 -0.601543)
(8.61625 0.0179805 -0.00713336)
(8.76285 0.0275482 -0.0266511)
(8.36113 0.00275364 -0.0350631)
(8.69204 0.0385282 0.00368213)
(8.59208 0.0860806 0.0380738)
(8.63853 0.00301202 0.00923318)
(2.99554 2.92783 0.00447283)
(8.69023 0.0454966 0.00554033)
(8.1569 -0.0538793 -0.110611)
(3.25633 -1.95168 0.0762607)
(8.64902 0.0746765 0.045792)
(8.53778 0.0708244 0.0694912)
(8.66616 0.0259412 0.00164109)
(3.0571 3.04989 0.00270369)
(8.40036 0.0487503 -0.0800201)
(2.90611 -2.8935 0.00722668)
(3.06261 3.06283 -0.00208384)
(3.0464 3.02542 -0.001248)
(3.0673 3.04962 0.000656346)
(7.27199 0.004449 -0.0333281)
(3.64498 3.14047 0.126543)
(6.56344 -0.462676 0.542473)
(2.89142 -2.89258 -0.00022896)
(3.05561 3.09656 -0.00462313)
(8.65789 0.0858509 0.0443562)
(8.71151 0.0226593 -0.0404701)
(2.90827 -2.90851 5.36987e-05)
(8.72034 -0.0529821 -0.00602664)
(2.90639 -2.90441 0.00846537)
(2.90839 -2.90636 -0.00111717)
(2.85973 -2.86003 0.00876296)
(8.84997 -0.0718412 -0.00969599)
(7.3677 0.0422311 -0.0202054)
(3.60792 3.25198 0.0405133)
(2.93557 -2.90301 0.00781494)
(3.05769 3.06765 -0.00413375)
(3.05953 3.06143 -0.00072768)
(8.90656 0.0177938 -0.0980337)
(8.6458 0.0181346 -0.000711989)
(3.63532 3.41877 0.157206)
(8.80839 0.0279527 -0.0482036)
(8.19304 -0.11459 -0.340782)
(3.05605 3.05745 -0.00155932)
(8.78545 0.02426 -0.0419387)
(8.05407 0.00644022 0.0431013)
(8.55022 0.0453041 -0.0516579)
(3.06706 3.06544 -0.000220006)
(3.058 3.05543 0.000354475)
(8.48866 0.0510263 0.051769)
(8.67656 0.0211949 -0.00367921)
(3.61568 3.29 0.0513548)
(3.04805 3.04908 0.000264823)
(3.09922 3.00579 -0.0115651)
(8.62274 -0.0162863 0.007629)
(2.90389 -2.90383 -0.0032104)
(2.89964 -2.88848 0.00225017)
(3.04421 3.04475 0.000148174)
(8.78265 0.0270639 -0.0368503)
(7.6767 -0.0383523 0.0137887)
(3.0654 3.0657 6.59051e-05)
(3.40125 0.694146 0.594967)
(3.68811 -0.387015 -0.144767)
(8.49395 0.0458709 -0.00266209)
(3.05636 3.06139 -0.00137194)
(3.06239 3.05687 -0.00235414)
(8.81081 -0.110916 -0.017035)
(8.44019 0.143577 0.135718)
(3.66661 3.27782 0.15453)
(5.33006 1.74003 0.12561)
(8.32483 0.189654 0.242986)
(7.96182 0.0242461 -0.0558521)
(8.46722 0.00528453 -0.00675644)
(3.16427 2.97188 -0.00755749)
(8.41766 0.0251494 -0.00360732)
(8.72487 -0.0588387 0.0625968)
(3.06742 3.05989 -0.00327768)
(2.88464 -2.8351 0.00495664)
(3.04594 3.04776 0.000388061)
(3.0564 3.05613 -0.000623474)
(3.06209 3.06697 -0.00361064)
(3.06618 3.06728 -0.00063121)
(8.8001 0.0258196 -0.039041)
(2.90622 -2.90551 0.00185816)
(3.05433 3.05497 0.000463981)
(3.04468 3.00474 -0.00402321)
(8.80812 0.027821 -0.0493866)
(8.67007 0.020697 0.000339979)
(2.91873 -2.8795 -0.000292713)
(2.87084 -2.8418 0.00399929)
(8.87757 -0.0427625 0.0768734)
(8.43465 0.0028189 0.0085591)
(8.42223 0.00657501 0.0127502)
(2.90735 -2.89962 -0.00161473)
(3.05239 3.05253 0.00208469)
(8.4288 0.0045628 0.0120242)
(2.90821 -2.90579 0.000390946)
(8.32638 0.0232537 0.00240008)
(8.51742 0.0148348 0.0300171)
(8.54027 0.0289191 0.0100836)
(2.91562 -2.89392 0.00828496)
(2.90756 -2.90905 0.000561752)
(2.90707 -2.90902 0.000196715)
(3.06266 3.06298 0.000871591)
(8.63447 -0.0414464 -0.0240491)
(3.05912 3.06221 0.00130709)
(3.05358 3.05086 -0.000127224)
(8.59302 0.0232009 -0.0342373)
(2.90778 -2.90874 0.00123806)
(8.46672 0.00144131 0.00997001)
(7.72596 -0.0669357 0.0263789)
(3.08012 2.97634 0.0159423)
(8.65972 0.0227869 -0.00663282)
(4.08469 0.626478 -0.10814)
(8.54866 0.00910717 0.00462726)
(8.8375 -0.0305385 0.020499)
(7.79518 0.0320169 0.0110146)
(8.8385 -0.00147521 0.0578129)
(6.3809 0.138848 -0.242811)
(3.64164 2.91554 0.0588548)
(8.52929 0.00522162 0.00326877)
(8.8732 0.0702037 0.0110488)
(8.66328 -0.0208064 -0.00888145)
(3.13566 2.7296 -0.0912301)
(3.879 0.384504 -0.198396)
(4.61885 -0.313812 0.154658)
(8.53904 0.0122049 0.00662452)
(3.05374 3.05825 0.00406831)
(8.37317 -0.0194791 -0.0617542)
(8.55396 -0.00797586 -0.0186759)
(8.30235 -0.0738079 -0.134089)
(3.177 -2.24395 -0.169727)
(2.90833 -2.90946 0.00142328)
(2.90526 -2.90528 -4.84804e-05)
(8.70406 -0.0284352 -0.00330771)
(3.5681 2.95911 -0.038342)
(8.26152 0.0287874 0.0135325)
(3.32043 3.02485 0.0421925)
(8.21827 -0.0177809 -0.0593894)
(8.45084 -0.0178834 0.00886797)
(8.36267 -0.0104063 0.029793)
(8.67317 0.0217529 -0.00464217)
(3.05345 3.05341 -0.001016)
(3.04018 3.03075 -0.00567518)
(3.10541 -2.8293 0.0146686)
(8.65924 0.0270695 0.00436915)
(3.06611 3.05735 -0.000615539)
(3.53258 3.04014 -0.134125)
(8.84745 0.165442 -0.138934)
(3.07157 3.0678 -0.00180462)
(3.04757 3.06261 0.00924185)
(2.8913 -2.88251 -0.00461325)
(3.06414 3.06497 0.000906027)
(8.27183 -0.00323512 0.0282467)
(3.12425 2.96776 0.0060365)
(3.06293 3.05975 0.00102883)
(7.02817 0.99569 -0.729442)
(3.58079 2.89996 -0.0397544)
(3.04813 3.04972 -0.0253643)
(4.19183 -2.46542 0.153974)
(3.06047 3.05689 -0.00331796)
(6.74879 0.0268628 -0.0596655)
(8.43369 -0.0144085 0.0232636)
(2.89664 -2.897 -0.00016487)
(8.28806 0.00851802 -0.0219887)
(8.37999 1.36344 -0.188013)
(8.24196 -0.0802441 -0.132749)
(9.06738 0.341188 0.00886038)
(8.15024 0.00709934 -0.013285)
(3.05955 3.03855 0.00967656)
(8.55626 -0.0809309 -0.0920344)
(8.86055 -0.0327686 0.0198707)
(8.23969 -0.0807658 -0.133203)
(2.90554 -2.90645 -0.000230352)
(8.98563 2.36201 0.629717)
(8.25198 0.0121843 0.0127104)
(4.07104 3.25374 -0.192359)
(8.19507 0.00337593 0.00925393)
(8.94658 0.113073 -0.0848691)
(8.53699 0.173423 0.00962113)
(8.46915 -0.0254284 -0.0333149)
(8.47283 0.0284701 0.00102073)
(9.01729 0.133357 -0.0498785)
(8.69493 -0.0152436 -0.0140484)
(8.60887 -0.0123347 0.00898684)
(3.03609 3.04771 0.0114588)
(3.04715 3.0322 0.00941552)
(8.31082 0.0226505 0.0117412)
(8.17087 0.010555 0.0105265)
(3.05519 3.06246 -0.0013074)
(8.42784 0.00814347 0.000279727)
(8.82818 -0.042081 0.00539206)
(8.63139 -0.0211951 0.00764808)
(3.06067 3.02935 -0.00114672)
(8.5076 0.173071 0.0385195)
(3.05296 3.05048 0.000171765)
(8.61329 -0.0119812 0.00761138)
(8.64144 -0.0135911 0.00577646)
(3.06043 3.05915 -0.000284728)
(8.25778 0.0448333 -0.0212752)
(8.61831 -0.00976689 0.00131789)
(8.47291 0.161691 0.0142694)
(8.33707 0.00206528 0.0340557)
(3.12256 3.06406 -0.00467)
(8.71265 -0.0230658 0.0258084)
(8.49877 0.197366 0.00263069)
(8.95942 -0.206275 0.0581243)
(7.54116 0.0990166 0.0259118)
(6.72982 0.0212936 -0.0953784)
(3.06236 3.0309 -0.0054832)
(3.05226 3.04948 0.00221963)
(8.35806 0.115551 0.0150204)
(3.06433 3.06451 -0.00100677)
(7.29454 -0.0207249 -0.0181405)
(8.39777 -0.0450742 -0.0659165)
(5.12621 0.724088 -0.186113)
(9.29872 -0.594398 0.227495)
(8.20601 -0.365422 0.110512)
(9.13486 -0.324014 0.0913716)
(3.0637 3.0639 -0.000931113)
(4.15064 3.52641 0.0295767)
(8.69342 0.0214749 -0.00668042)
(2.89357 -2.90522 -0.00986677)
(1.59317 -1.11166 0.476685)
(8.60193 -0.165345 -0.128825)
(3.05026 3.04279 -0.00605586)
(3.06573 3.06217 0.000308143)
(7.67925 -0.148084 -0.00258604)
(6.27991 -0.407557 0.0831883)
(3.06484 3.06517 -0.000390151)
(7.77542 -0.144964 0.0254299)
(3.05164 3.04908 0.00129488)
(3.06041 3.06525 -0.00504904)
(2.90489 -2.90515 -0.000565824)
(2.90861 -2.90215 0.00593049)
(2.85044 -2.82593 0.00955785)
(2.90265 -2.89695 -0.000349414)
(7.75911 0.0645854 -0.0294126)
(3.03927 3.01898 -0.00362698)
(3.05942 3.06078 0.00105143)
(3.04314 3.05925 0.00544704)
(7.22687 -1.59294 -0.414649)
(8.18677 -0.0679623 -0.150005)
(7.92504 0.000131606 -0.0829258)
(8.69411 0.0202576 -0.0074847)
(3.04501 3.02535 -3.62091e-05)
(3.07305 3.06182 0.000167212)
(8.32811 -0.143091 -0.174403)
(3.06267 3.06367 -0.00355654)
(3.06006 3.057 0.00088888)
(4.86521 2.80456 0.101836)
(8.86726 -0.121357 -0.0073305)
(8.67707 0.0203529 -0.00761792)
(3.05872 3.05804 -0.000312131)
(3.0567 3.05136 0.00448244)
(3.04512 3.03685 -0.00394975)
(3.05001 3.04365 -0.000423663)
(3.06344 3.0622 -0.00334227)
(3.07042 3.06166 0.00186842)
(8.6823 -0.203173 -0.128369)
(3.06722 3.05839 -6.4804e-05)
(6.02345 0.0866201 0.202206)
(8.75569 -0.0200071 0.0229438)
(3.06017 3.06455 -0.000843174)
(2.88526 -2.89689 -0.00789313)
(2.86522 -2.83588 0.00324499)
(7.33937 0.0862298 0.397473)
(2.84493 -2.84168 -0.0115901)
(2.90359 -2.90608 0.00299041)
(3.04302 3.04816 -0.0191318)
(7.8662 -0.123126 0.00783858)
(3.05055 3.04951 0.000272635)
(8.63026 -0.113504 -0.0714758)
(6.87245 0.112964 -0.0351353)
(5.66932 0.0069583 0.226524)
(3.05176 3.05404 0.000885103)
(5.90407 -1.5072 0.119705)
(8.69781 -0.0160269 0.00282051)
(8.76204 0.0222278 -0.0225392)
(3.12273 -2.97959 -0.0338338)
(8.42314 -0.136355 -0.0221036)
(8.59843 -0.0164121 -0.00918837)
(2.90884 -2.88833 0.00281311)
(3.16247 3.00092 0.0147701)
(4.10866 -3.16498 -0.26498)
(3.0441 3.04312 0.00104138)
(8.69784 0.0170555 -0.00222761)
(8.69039 -0.011179 0.0104158)
(8.8377 -0.106693 0.0444422)
(5.81411 -0.00650737 0.318373)
(3.06599 3.06426 -0.000334618)
(8.70077 0.0172127 -0.0038083)
(3.14158 2.99053 -0.00750182)
(3.82326 3.23625 -0.0132547)
(3.91168 -3.04298 -0.125701)
(3.06004 3.06053 0.00120039)
(8.72064 0.0263419 -0.00553389)
(3.05074 3.04374 0.00196307)
(2.87463 -2.82304 0.00143974)
(7.9497 -0.109387 -0.199523)
(8.53544 -0.0191306 0.01019)
(2.87672 -2.82896 -0.00804564)
(8.57439 0.0153244 -0.00375739)
(3.25943 3.18772 -0.0189493)
(8.70879 -0.0744728 -0.0385052)
(2.87923 2.75502 0.0273628)
(3.06332 3.06525 -0.00138587)
(3.076 3.06562 0.010024)
(2.90912 -2.90969 0.000790733)
(8.42929 0.0133909 -0.0134219)
(7.54124 0.0162106 -0.0345935)
(8.73723 -0.0236017 0.184654)
(3.04748 3.05025 0.00199718)
(3.04287 2.9883 0.0205758)
(8.38157 0.0163427 -0.0147048)
(3.06374 3.06389 -0.00112569)
(3.55525 3.21917 0.0444445)
(2.90615 -2.9042 0.000209905)
(8.33933 0.0537691 -0.00534332)
(8.87984 -0.219102 -0.0644722)
(8.69773 0.0217567 -0.00925159)
(2.90196 -2.89608 0.00674312)
(6.88614 -0.0103771 0.192395)
(7.18851 0.0069899 0.184939)
(2.75272 2.43253 0.0169871)
(7.77271 0.0997629 0.156506)
(3.06463 3.04874 0.00301167)
(8.20966 0.0772699 -0.00765476)
(8.81849 -0.0149281 0.0511597)
(8.54054 0.00572785 -0.01474)
(8.82946 -0.111842 0.0136295)
(8.11059 -0.178741 -0.251967)
(3.06304 3.05974 0.000758015)
(3.06361 3.06335 -0.000213674)
(3.05642 3.06052 -0.000636568)
(7.1098 0.0702788 0.256546)
(3.03411 3.00709 0.00333012)
(8.62854 0.0364959 -0.0156918)
(2.90489 -2.90456 -0.000225939)