/*--------------------------------*- C++ -*----------------------------------*\
  =========                 |
  \\      /  F ield         | OpenFOAM: The Open Source CFD Toolbox
   \\    /   O peration     | Website:  https://openfoam.org
    \\  /    A nd           | Version:  10
     \\/     M anipulation  |
\*---------------------------------------------------------------------------*/
FoamFile
{
    format      ascii;
    class       volScalarField;
    location    "29";
    object      p;
}
// * * * * * * * * * * * * * * * * * * * * * * * * * * * * * * * * * * * * * //

dimensions      [0 2 -2 0 0 0 0];

internalField   nonuniform List<scalar> 
111485
(
7.87212
0.0254482
0.0156883
7.8732
0.00878218
7.60738
0.00924407
0.0180428
0.00960386
-0.00443826
0.00872659
0.00536885
0.0128311
-0.0023269
0.0109979
0.036495
0.0258098
8.79372
0.0143785
7.87387
7.87407
7.61012
0.00709073
0.025576
0.00299039
7.84768
0.0115928
0.0447702
0.0142805
7.87312
-0.086369
0.0157497
7.87576
7.60513
8.57311
7.56505
-0.0629019
0.0518198
-0.123965
0.0198913
7.65222
-0.00424163
0.0205962
-0.0347974
-0.26279
7.8865
-0.0180533
0.0214334
-0.00909522
7.91587
7.91401
7.35929
7.9225
-0.0498965
7.92749
0.0241713
0.0146027
7.61329
-0.0977795
0.0172644
0.0184633
7.8726
0.0177357
-0.0763036
7.65559
0.0235039
5.10093
0.0157413
0.00419557
0.0161104
-0.144834
0.0297229
7.72607
0.00450555
7.87832
0.0307513
7.60971
-0.00735762
7.60858
8.05476
-0.116319
-0.0372471
7.60913
7.87466
0.022374
0.00754618
1.7392
-0.0560359
-0.108055
0.0375523
-0.217603
0.00949341
0.02141
0.0457258
-0.00378854
7.87436
7.87263
-0.03898
-0.743204
0.0646053
7.87249
0.00317462
7.59428
-0.0114826
0.00956693
7.91094
7.61213
0.0148018
0.00698952
-0.353551
0.0207101
0.0320079
0.0150349
0.0040896
7.84426
0.0310445
7.86074
7.60552
0.0108292
7.87482
7.84667
6.65909
7.61004
7.61348
-0.005906
8.95762
6.6217
0.0183057
7.87518
0.383517
-0.107056
-0.0400745
7.87882
6.50534
6.79495
0.00962052
7.60951
0.0314716
0.00709741
0.0264726
-0.0409197
0.00925671
0.0137991
0.0153073
-0.0251
0.0327616
7.60951
7.87385
7.61841
0.0157838
0.0119146
7.87173
-0.07536
0.00923655
-0.671555
0.0174426
0.0133182
0.00827136
-0.52909
7.87984
7.87348
0.014566
0.00568106
-0.488897
-0.608956
0.0251296
-0.0678303
7.64057
-0.451179
-0.416867
7.6131
7.87336
0.00443623
7.6108
0.0292076
0.0173451
7.66547
7.704
7.86353
7.80962
7.67494
7.87254
0.0225237
0.0178269
0.0246767
0.070109
-0.000889376
0.0272243
-0.0530369
7.87316
0.0148
7.69907
7.8609
0.0351926
-0.0109448
-0.051129
0.0305892
0.015918
7.87916
0.0217415
0.0159483
5.28779
-0.0254304
0.0247299
7.86938
0.0310573
-0.0120818
7.69805
-0.0574874
-0.0117734
0.013211
0.0137297
7.66778
7.87215
0.0275468
4.95237
-0.0404404
7.61054
0.0301179
0.0329207
-0.00639303
7.87153
0.0190492
-0.0666368
5.98509
7.61057
7.61321
-0.119424
-0.597619
7.72355
7.29473
0.0311171
0.0227763
-0.0832142
7.72157
7.80586
-0.0743658
7.87604
0.00627613
0.0285567
0.0288916
0.0164671
0.0280353
7.6144
-0.109007
0.017909
7.6172
7.60931
-0.054333
0.0310464
7.78138
0.0295426
0.0289609
7.87402
6.34996
-0.0307224
7.88795
8.02407
7.18715
7.87378
0.0248796
0.0177901
-0.0105987
7.87584
0.0274587
7.87304
7.87131
7.87881
-0.0820637
-0.0138855
0.0244531
0.0152679
-0.00136816
0.0182588
0.0156383
-0.0841701
0.0100629
0.0205294
7.56953
7.87374
-0.0872782
0.0188964
-0.0964345
0.0253148
7.87438
0.024918
0.0115583
0.0184403
0.0148815
-0.116912
0.0135736
0.0169224
-0.0276061
7.60982
-0.0155444
7.61092
8.73795
8.09093
-0.127116
-0.0139432
0.00810124
7.86699
7.67407
0.026582
0.0257555
7.87143
7.86994
7.93093
0.0174238
0.029602
0.019165
0.0150109
0.0108078
7.22353
7.61638
7.87517
0.0301755
3.2684
-0.00767151
-0.116553
-0.0914232
7.61006
7.8718
7.87255
6.78916
0.0232721
0.0152298
7.60223
0.0262833
7.77795
7.86373
-0.0380124
0.0238175
0.000419634
0.0263733
7.983
6.75323
7.60548
0.0236887
0.0197907
-0.087756
7.64827
0.439516
-0.155396
0.0158998
0.0281596
1.26728
0.00940636
7.608
0.00426264
0.0294018
-0.105855
-0.0438221
0.0055267
7.60779
7.87653
7.61071
7.87645
0.0246284
0.0236664
-0.0165912
0.0141461
7.6258
0.00979686
7.61318
7.87966
0.0105885
8.13964
6.94944
7.91573
7.56035
0.0162507
7.61193
0.0172853
0.0147966
7.60835
0.00419686
0.0252708
7.85198
0.0250953
0.00932976
0.0309814
-0.051486
0.0406926
0.0297587
7.99187
7.87459
-0.0230083
7.63008
0.0025388
-0.0504314
7.66419
7.61257
0.025581
0.00923078
-0.00105972
0.0217577
7.60938
-0.0844863
0.000986994
7.60548
-0.0370387
-0.0136694
7.87118
7.87275
0.02478
0.0038485
7.59046
7.86467
5.85572
7.87183
0.00860643
7.61052
7.87273
-0.00229844
-0.100575
-0.0115915
0.0168322
7.60848
6.80652
-0.0096452
6.90487
-0.0325127
-0.00578064
0.00224347
5.27363
6.97963
-0.490338
-0.292723
7.87063
-0.0544088
0.00837818
7.86962
-0.518648
-0.00494811
6.94385
0.00244819
0.00443523
0.038554
7.60965
0.268555
0.00126058
0.0489212
-0.140567
6.59836
-0.607445
7.87182
-0.046648
-0.169249
7.61375
-0.00903188
-0.0132837
6.41617
7.87478
7.47
7.87305
0.00907344
0.0781948
0.00862141
0.00768411
-0.0599753
7.61082
-0.0480576
7.88444
0.0216459
7.59662
7.8818
7.88906
-0.00133337
7.87533
7.87211
8.34443
7.87102
7.62166
-0.0223317
7.61131
7.41453
7.60762
7.85968
7.60213
7.88143
7.61042
-0.00362951
7.60612
-0.0253626
-0.000670216
-0.0905927
7.61708
-0.0227855
7.61527
7.87184
-0.00827779
-0.0105409
0.039002
-0.128334
7.31938
-0.0134026
-0.0213052
0.022807
-0.0148135
-0.00524749
7.87446
-0.00452874
6.42742
-0.000258807
7.6103
-0.0274904
6.65194
0.0221271
0.0128931
8.29191
7.67488
-0.0330053
7.87179
-0.0138125
-0.0278999
7.62038
7.62771
7.91972
7.61256
-0.980795
-0.0149049
7.60603
7.61767
0.00659785
7.61007
-0.0148285
7.60898
-0.0211431
7.87212
0.00498261
0.00414175
0.0505882
0.021061
7.58896
-0.128616
7.60383
7.61023
0.000617642
7.61139
-0.00464605
7.92574
-0.0301751
7.8737
0.0202149
7.87408
6.9515
-0.109854
-0.0497157
-0.0184871
0.00517211
-0.0298269
-0.007157
7.61744
-0.0247734
-0.029854
7.61001
-0.0559577
-0.066873
-0.0107377
7.67945
8.03503
0.0296835
-0.0421756
3.67253
7.71893
-0.00297135
0.0181514
0.00183238
-0.00160853
0.155624
2.51975
6.85796
-0.704367
3.13558
7.87337
0.00574356
7.62934
6.98249
0.0293466
2.47212
-0.724184
1.4169
6.85617
-0.0157823
0.0133584
7.62514
7.44214
0.0204735
7.87943
7.61011
7.61079
7.61536
-0.00250429
7.61173
7.82998
0.00248726
0.0252571
6.01623
-0.0319095
7.30634
0.0262602
7.92137
7.61536
-0.00912235
7.60936
7.61531
6.94927
0.0457056
4.6319
-0.0280056
0.0370249
7.88764
-0.231326
-0.0712229
0.00221243
-0.0182047
0.246725
-0.00195027
7.6127
-0.0107856
0.00502827
7.87694
0.0194679
-0.0266348
0.010484
0.0345722
0.0106578
0.00956239
7.88676
-0.00399628
-0.0591102
6.9292
0.0114634
0.0110213
4.83165
0.0377803
0.0118538
0.00159417
0.00475275
0.0130941
0.0316259
7.75542
0.00705771
-0.00421823
8.23057
-0.00788994
-0.0220299
0.0355168
7.61229
0.0493485
7.89148
7.60985
7.62228
7.61344
0.014543
7.04248
-1.04994
7.86911
7.55074
0.00157502
-0.0040297
7.87064
-0.0131362
7.87035
7.87393
7.92369
-0.00995662
0.00389353
6.97828
7.82086
7.61163
7.61192
-0.0693595
0.0197885
6.79685
-0.000740807
-0.420316
7.61596
0.00683706
-0.019816
0.0826144
7.60939
7.61009
0.0211385
0.0306216
6.91287
7.61376
7.6015
0.0157697
7.87678
7.87034
7.61184
0.00303416
0.0182916
7.60942
8.48007
8.21302
0.148828
7.61507
7.60917
-0.0252383
-0.0774397
6.89737
5.94329
1.13253
-0.015744
0.00205594
7.58887
-0.0226966
-0.00761339
7.60828
7.9211
7.60895
7.61086
7.61422
7.60871
0.019361
7.8715
7.60971
7.67008
0.0108598
0.0169816
7.87794
7.93443
-0.0272092
0.0246832
0.0338777
7.86963
7.6103
0.0247342
7.87443
-0.0106393
0.0179663
0.0395612
7.85061
7.87256
7.87241
7.611
0.0331698
7.6102
7.60958
-0.0365175
7.87251
0.0334997
0.00334286
7.63409
0.0336459
7.84012
0.023086
-0.00766681
-0.0268652
-0.0189315
-1.28287
7.2265
0.0211505
-0.014563
0.000928597
7.78457
-2.12067
7.14566
0.0235166
7.61373
-0.031232
-0.0160815
-0.0345903
8.07961
7.87262
7.87494
0.0284389
7.30313
-0.0270602
7.44026
0.0235788
0.0339022
0.00910889
0.0237916
7.60834
7.6365
7.74768
0.0260213
7.61254
7.22407
-0.163291
7.61231
7.61926
7.87403
7.60941
0.00969625
7.59942
7.61112
-1.58774
7.28553
7.63185
7.0637
7.61117
-0.03939
0.0130538
7.87162
0.0142992
0.998882
-0.0396512
-0.393419
0.0234111
7.61583
-0.0132794
-0.0328563
-0.0387422
7.87405
-2.65433
0.00984198
6.46442
-0.00437345
-0.120712
-0.107175
0.00216357
0.0267578
-0.143679
0.0386112
0.0272279
7.58944
7.6266
0.0109362
-0.000710834
7.61454
0.0134547
0.00345671
0.0216075
7.60826
-0.125182
7.60942
0.0190818
0.0130878
7.60954
-0.0665962
0.0269528
-0.163473
-0.0220056
7.56684
0.0141207
-0.157738
-0.0759897
-0.161225
-0.0425884
7.60007
7.62013
-0.0257114
7.60941
0.0263842
-0.0811665
6.71785
-0.473298
-0.82751
-0.304442
7.60931
6.37646
0.0247991
7.87445
9.46356
-0.0507677
7.60514
7.60858
-0.726613
-0.864669
7.60953
-0.126523
7.61086
7.60949
7.87617
7.87113
7.95543
7.87349
-0.0288768
7.61433
7.61348
7.61976
-1.44316
0.0111585
-0.00113749
0.0257782
7.62382
7.60871
-0.052386
7.61051
7.61244
5.80808
-0.0570356
0.0237055
7.6091
7.60461
7.62144
7.6089
7.55563
7.60794
-0.0755968
7.6143
-0.206762
0.0112346
7.61158
7.88297
7.93105
-0.128221
7.92323
7.8739
7.62723
-0.215719
7.60826
-0.0685154
-0.0731855
-0.184032
7.60698
5.28933
-0.0439182
0.00615825
7.66304
-0.203254
-0.0167808
7.8819
7.5861
6.90011
7.60537
0.0232237
0.0126019
-0.0677154
-0.352148
7.61042
0.026038
7.5642
6.82326
6.85699
7.61335
0.0188206
7.61048
7.94162
-0.0686846
0.0288162
7.93871
-0.00309194
7.30976
-0.0875705
7.97602
7.61014
7.5816
7.87282
0.0248381
0.0210417
0.351336
7.6113
7.66113
0.014496
7.60968
7.06802
7.87215
-0.00553881
-0.33973
0.0435
7.86326
-0.0758927
-0.0637117
8.24014
-0.0634743
7.61831
-0.043531
-0.0277381
0.00601875
-0.0908633
-0.181902
7.61002
7.61084
7.61049
-0.0755657
7.68092
-0.112505
7.87635
0.727604
7.87238
0.01744
0.0196471
7.94337
7.60917
7.96065
7.61969
-0.114185
7.96879
6.9082
0.00415173
-0.107339
7.90944
7.03358
7.70298
7.05461
7.61132
7.60978
-0.106001
0.00460836
7.87324
7.86623
-0.629959
7.87861
-0.105635
0.0229627
7.69488
-0.0371279
7.87275
0.0176113
7.61951
0.0141071
7.6094
-0.593053
-0.311585
-0.150688
-0.0427765
-0.0471692
4.68073
7.54027
-0.0354567
7.91753
0.0128484
7.87114
7.63961
7.62409
7.62094
7.64494
7.61454
-0.0574863
-0.0688216
7.87302
6.65433
7.87906
-0.0565065
-0.128269
7.86936
0.0246032
-0.154212
7.93151
0.0260221
0.0256867
0.0159836
-0.150658
7.60968
7.60906
7.63877
7.61005
0.019035
7.53949
-0.0376229
7.61013
-0.0481643
0.0188906
7.61275
-0.0555846
7.60077
7.60942
-0.0488139
-0.0863632
2.13146
7.61078
7.95484
7.60275
0.0200444
7.50228
7.92353
7.51996
0.857075
6.72214
-0.536346
7.02482
7.48347
7.76887
0.0190233
0.00672733
0.0104149
0.0186507
7.85863
-0.0316722
7.61233
7.61287
0.0164429
7.58708
-0.65239
-0.0441645
0.0322444
-0.0495713
-0.963255
-0.00420733
7.61205
-1.42194
-2.98184
-0.0104184
-0.0385556
0.0223295
5.51404
7.86797
-0.000326875
7.87671
7.60843
-0.250968
-0.00423805
-1.12638
7.59401
7.43764
-0.0779273
7.93109
7.61134
-0.0556606
7.94996
7.93895
0.111538
-0.0554619
-0.0951877
0.0469699
0.0262934
7.61414
7.60958
-0.276406
0.0252617
7.61075
7.94419
0.0310476
7.62197
6.61172
6.75663
6.79321
4.35516
6.62612
7.61232
0.0191274
7.59748
-0.0804441
7.61086
3.42251
7.66966
7.63483
7.6124
7.61037
0.0277274
7.61012
7.60985
6.91347
7.6063
7.61308
7.60672
0.0239234
7.62749
0.0208155
-0.0854118
7.63721
0.0402495
7.61043
-0.0291649
-0.214319
0.0173876
0.0256302
7.84646
0.0229465
0.0235038
-0.153748
7.87554
-0.110874
0.0248569
0.0263734
7.32561
0.0176885
7.68208
7.61076
7.61302
7.60946
0.0234001
7.61071
7.60012
0.0201568
-0.138495
0.0083102
7.62181
5.424
0.0289623
7.61531
-0.376758
7.92827
0.0124109
7.60729
7.60976
-0.00662068
7.60687
-0.0230751
7.87577
7.61045
0.0273386
-0.0411022
0.0240012
0.0190031
-0.142577
0.0177535
7.61075
8.01614
0.0127238
0.0285719
0.0297869
-0.0971962
7.60961
0.0216846
7.60948
7.79926
0.00301914
-0.0716239
7.62263
0.022853
7.59822
0.0182847
0.0310098
7.71231
7.60926
7.6111
0.0119045
7.61228
7.61058
0.0151697
0.0187532
-0.0452682
0.0227715
7.63182
7.62179
0.00988461
0.0275831
7.61552
0.0100118
7.69874
0.00617375
7.61048
7.61025
-0.00847672
7.60908
-0.025206
0.0299412
7.61655
7.60863
0.0036177
6.46929
0.0300689
7.87221
-0.0625888
7.88267
6.68019
6.45787
0.026706
6.96039
6.88541
0.0110672
6.84384
4.25435
6.32887
7.67223
7.87774
-0.182925
0.0237034
7.65072
7.60871
0.000223574
0.011661
7.62097
0.011965
7.60829
7.88282
0.00282122
-0.00725575
0.126094
7.60933
7.61166
7.61056
7.60959
7.60486
7.60804
7.60363
7.60531
7.60911
7.60762
7.60954
7.87907
7.61299
7.6087
7.61147
7.78387
7.60913
7.60931
7.60967
7.63729
7.81818
0.0178355
7.61135
7.60947
7.62166
0.0265583
7.61368
7.88274
2.94462
7.59963
7.50713
0.0177948
8.24272
7.56335
3.47936
0.0129717
7.6107
6.75992
7.25848
7.60865
-0.0319927
0.0147961
0.0120879
0.00383123
0.0321737
7.90272
7.60357
0.0169789
0.023791
0.00268652
7.60721
0.0215655
-0.0179233
0.0265915
0.021517
0.022549
0.00421279
0.0257104
0.0157495
7.88681
0.0222345
0.0259667
0.012171
0.0188019
7.60927
7.60891
7.60923
7.87285
7.60686
0.0253438
0.0243088
7.61238
7.60899
7.60968
7.8173
7.61117
7.87463
7.61635
7.87928
0.0295776
-0.229404
0.0250992
0.0300635
7.58593
7.62732
-0.0361188
-0.268859
7.60939
7.6102
0.00634605
7.88555
7.60961
0.0643703
-0.00197268
0.0151678
0.0311322
-0.0318094
7.89907
0.0144045
0.0217605
6.90998
7.87649
0.0105446
7.89587
7.62309
2.37677
1.27055
-0.0105995
7.7642
7.85018
-0.0467951
0.0217858
0.03279
0.0244563
3.39051
7.87246
-0.0205378
8.23713
7.87436
7.55626
-0.001521
7.61074
0.0270271
0.0101248
0.0113268
0.0132697
7.88003
0.0359067
7.87599
7.45152
7.87405
7.866
0.0216273
4.48681
7.60973
7.87315
8.35904
0.0272978
6.85635
0.0109278
0.01999
0.0212352
0.0225716
7.82259
7.86845
6.62554
0.0121617
0.0264529
-0.923343
7.92056
7.87222
6.82551
-0.0249948
-0.0264792
7.60835
-0.0337742
2.48629
0.0144708
0.0198546
7.87271
6.64449
0.0120981
0.024963
7.61097
0.00402427
0.00225309
-0.004235
-0.00519673
0.0204808
0.0374032
6.91233
0.03111
0.0243035
0.0286803
7.9661
0.0170699
6.9987
0.0315437
0.0203742
7.87471
0.0208996
0.016085
0.0110768
0.0249187
8.7384
2.06615
-0.0552707
4.27654
0.0179576
7.6475
0.0221056
0.0180841
7.88027
7.60984
-0.369484
-0.120705
0.0198203
8.73082
0.00538515
-0.212733
-1.176
-0.0858883
7.88099
7.89285
0.0229983
8.3468
0.0244087
-0.222888
0.0175434
0.032818
7.87273
-0.00339125
0.0244353
7.87179
6.92931
0.0355679
7.88753
0.0276173
0.0320847
7.87358
8.78952
0.0221931
7.87282
7.60907
7.61012
0.0291933
0.028534
0.0120036
7.92695
0.0091041
0.0282483
7.6713
0.0312293
0.0190465
0.0247472
-0.131164
7.60989
0.0183351
0.0538314
0.0308801
0.0194559
0.026041
-0.162349
0.0283273
7.87196
-0.0496663
0.0220677
7.87237
0.0264311
7.61611
7.61086
7.87559
7.6203
7.87447
0.00194313
7.61103
0.0266469
-0.0199143
7.8763
0.0128444
7.80263
0.0170847
7.87932
-0.17014
7.65319
0.00652901
0.000311243
-0.192862
0.040732
0.023462
0.0159751
0.0283272
0.0406569
2.79985
0.0328143
0.00513706
0.0433084
7.87369
0.0406016
-0.128595
0.0385602
0.0128838
-0.171991
7.87588
6.76641
7.87762
0.0125585
7.87208
6.16637
0.024646
8.38936
0.00626187
7.8642
7.84097
7.60983
0.0177907
0.0428361
0.0227725
-0.0481786
0.0246947
0.0203564
0.0322262
0.00894569
0.0151521
0.0303354
0.0216304
7.87855
7.56382
7.86641
0.0174999
0.0286073
7.64728
7.60974
6.30681
0.0449632
0.0180823
7.87254
0.0233657
7.87021
-0.441748
0.016393
-0.0694646
7.87359
7.87182
0.0106314
7.8724
-0.0105134
0.0297593
7.45227
0.0200031
0.0153965
0.0271879
7.87187
-0.114497
6.97858
-0.0278413
0.00892549
7.87514
7.88469
0.027018
5.5222
7.9039
0.0350799
0.0314147
7.87273
7.85537
6.93467
0.013082
6.28378
0.0159632
-0.0369312
-0.00303909
7.87219
7.03336
-0.0386928
7.87095
7.61632
7.87439
7.87599
7.1443
7.72565
7.5717
7.87328
7.89069
7.29497
8.39875
7.64065
-0.00208862
7.65017
6.75374
6.39273
8.90755
6.89734
7.87229
-0.0363175
7.38944
7.70984
-0.0377919
8.20899
8.57421
7.76981
-0.0455495
8.36816
-0.0342517
-0.0884218
0.0100386
7.16295
7.87552
-0.0259711
-0.464449
7.83563
7.86594
0.0206571
7.08395
0.0204997
7.00823
7.59232
7.72809
0.0190167
0.0225569
7.87105
0.00335365
7.89595
7.38779
-0.19054
0.0429635
-0.0340118
7.6068
0.0221671
7.22923
-0.0240783
7.61039
7.87236
7.60935
6.98747
0.040799
0.0308697
7.87462
-0.771167
7.88187
7.89492
7.88157
7.87367
-0.0274748
-0.0419464
0.0327742
-0.0237314
7.83343
0.0103087
0.012062
0.0361826
-0.0335318
7.65974
0.0270719
-0.00235154
-0.00494179
-0.437595
0.0219804
7.92417
-0.0150432
-0.0268951
0.0220355
-0.0265337
-0.050256
7.90294
-0.0434095
7.77928
7.8765
0.0203406
7.87995
0.0247399
7.87004
7.93936
7.54955
7.87982
7.87375
-0.0501229
7.87849
-0.0191314
7.19387
7.61409
0.0193683
-0.00581858
0.0295851
-0.018702
7.89058
0.692937
7.87475
-0.021825
7.94064
0.0137803
-0.0327016
-0.0190738
-0.00678096
7.97096
7.9779
7.88013
0.0281575
7.62509
7.86601
0.0237473
7.60236
7.60895
-0.00121853
7.97081
0.00815415
-0.444223
7.14406
7.49892
7.437
0.0111277
0.0121015
7.87279
0.00742489
-0.0138836
6.98602
-0.0250005
7.87096
0.0201749
0.0210346
0.039241
7.87491
0.0106062
0.0196589
-0.0312107
-0.00540835
0.00597815
7.87428
7.87259
-0.111919
7.86828
7.60764
7.87051
0.0137624
-0.0211594
0.0178798
-0.0372517
6.86558
-0.00487535
0.0145825
0.0113955
-0.0612906
0.0173933
-0.0201825
0.0114397
7.60949
7.6099
7.60966
0.0307031
7.61082
-0.0349722
5.24007
0.00139748
-0.559623
0.00754217
0.0131777
7.60858
7.87331
0.0024439
0.00161627
7.88733
7.60357
7.87429
0.0105484
0.00416589
-7.16311e-05
0.00636135
0.0292875
0.0139013
7.8735
7.87375
7.87207
0.0397249
0.00557593
0.00245545
0.0149317
0.0325497
0.00194925
7.84924
7.87229
6.33623
7.65382
0.0241993
0.0262076
7.86788
7.90638
7.86571
7.87593
7.83696
7.71647
-0.00759548
7.87482
-0.0528368
-0.122447
7.61714
-0.00162315
0.0268495
0.0212648
7.91809
7.76311
-0.00719387
7.87299
-0.00890715
-1.23948
0.0186296
7.66648
5.9471
7.60935
7.87703
7.86866
7.6045
2.10542
7.8865
0.00701918
-0.00431743
7.87541
7.87287
-0.0110344
7.87903
7.61081
0.0119701
-0.2072
7.86208
7.86261
7.67331
0.0419113
7.87254
7.87229
1.16186
-0.0262841
-0.0120381
7.87247
7.61651
7.20847
-0.0165419
-0.0117514
-0.0139783
0.00496582
7.60997
0.0526428
0.0126394
-0.00071448
7.55418
7.86966
7.87214
7.8256
7.87271
0.0233097
0.0195978
0.000963125
7.89024
7.87288
7.87227
7.86993
7.68471
-0.042449
0.109268
0.0184454
7.61388
7.87311
7.92717
-1.01771
-0.0442089
-0.0731872
7.60835
-1.95032
8.25714
7.83921
7.8716
0.0223499
0.0342345
7.87513
7.90731
0.0104667
7.87364
0.013236
0.0285285
2.72685
7.87088
7.66014
0.0224839
-0.0638225
7.91125
2.54285
0.0539907
0.0305983
7.87419
7.87699
7.88263
7.88136
0.026166
0.0259677
7.87732
-0.0538118
-0.0157815
0.201447
7.87298
7.87217
7.87359
7.87758
0.00778719
8.38427
7.87421
7.76817
0.0238899
-0.0116326
0.0291868
7.84581
7.87243
-0.0237369
7.62463
7.87309
7.87517
7.87437
0.019585
7.69568
7.59499
7.61262
0.0193013
0.0260112
7.86954
7.87455
7.85579
0.0145147
8.15201
7.87847
7.85784
7.87459
7.87408
-0.204414
0.021774
7.91499
0.0206272
0.0141073
0.0199284
7.87889
7.87539
7.87432
7.83421
7.60989
0.0287745
7.87388
7.37985
7.33093
-0.0186819
7.65173
-0.0266416
7.87246
7.61231
-0.0189127
0.288286
7.03056
-0.0075119
7.87522
-0.0115887
8.12426
7.89183
7.92284
9.10778
7.88036
-0.040138
7.87087
0.00853121
7.61194
6.93253
7.87978
7.86822
0.0143132
0.031199
7.6095
2.64314
7.607
-0.0153499
-0.0433211
0.00997031
7.61163
-0.353997
-0.0254699
-0.0525633
0.021886
-0.632722
-0.0314133
7.59102
7.60994
-0.757587
0.0216428
-0.00398523
7.91007
7.51316
6.36818
3.25204
7.87482
7.61536
7.87503
7.87547
7.87626
8.30344
0.0329025
-0.0760804
0.0293534
6.96903
-0.0961465
7.87461
0.00882435
7.87201
7.88101
7.61064
7.71231
-0.108264
7.69297
7.60361
7.87266
0.0154694
7.87123
7.87269
-0.0595974
7.82627
5.75063
4.92605
4.58722
7.87701
4.8069
4.64724
4.75777
5.45885
7.60945
7.61001
0.00963092
-0.0155443
6.95492
7.13906
7.60567
0.00460858
8.19157
7.71058
-0.103424
7.87524
7.87298
-0.0389924
-0.0917203
7.83862
7.6113
-0.0346057
7.03383
7.60342
-0.41186
0.00580276
0.0500767
7.81211
0.0206402
7.87506
0.0149623
-0.398102
0.0153255
7.87319
-0.391823
0.0199479
7.96794
-1.0392
7.8649
0.0186353
7.53081
0.0258296
7.80474
-0.0510458
7.87416
7.57029
7.61112
-1.46926
-1.47683
7.8861
0.00871339
0.00929674
7.91955
7.87281
-0.00589611
0.0182815
-0.128081
7.88065
0.0138579
0.00836952
-0.0507232
-0.851915
7.87641
-0.175785
7.61885
-0.154912
7.87207
-1.7331
-2.00963
7.85327
0.0215704
7.67316
-0.0478966
7.60869
7.85748
7.88596
7.89069
7.8514
7.85928
-0.00434668
0.0280847
-0.158666
7.8825
6.34211
-0.146449
7.88079
7.82966
7.90601
7.86703
7.9045
0.0227846
7.87327
7.87476
7.60979
0.0158502
7.85846
7.60997
7.54127
0.036465
7.61038
0.00837713
-0.787995
-0.0539228
0.0340878
-0.0155641
8.22158
7.87814
7.87165
0.069317
0.0304791
7.54051
6.31063
0.0100898
7.8729
7.87593
-0.13636
7.86403
0.0148533
7.87531
-0.012614
-0.0584275
7.88149
7.60927
7.87488
7.87531
7.8707
-0.0274185
7.87154
0.0113798
7.94396
7.87556
0.0240095
7.60358
0.00655873
7.77502
7.87261
-0.0147289
0.0305288
-0.122111
7.87432
7.87471
7.87319
0.0290228
-0.0901982
7.95162
7.60878
7.6425
0.0126736
7.86649
0.0132132
-0.137938
7.87227
7.86877
0.0213716
7.86672
7.64198
7.6105
7.96001
7.6105
-0.155869
6.22041
7.63544
7.87365
6.38354
7.86844
6.60453
7.84737
7.86736
7.72736
0.0174282
7.78696
0.0107224
7.86057
7.86769
-0.0614717
0.00520219
7.86301
7.82392
7.87484
0.0258404
6.69799
7.87447
7.73334
7.87103
0.0181452
7.86436
-0.183758
7.87467
-0.0115512
6.91355
-0.0288858
7.88982
7.87064
0.00373358
6.54078
7.88035
0.028654
-0.00883942
7.89293
7.87536
-0.0211076
-0.0556825
0.0200829
0.0164249
0.0066266
-0.00926142
0.0220404
-0.041235
7.94883
-0.19351
6.25426
6.13973
7.87394
7.8718
7.87098
0.0348024
7.8752
7.86831
7.87538
-0.124658
-0.0447609
5.94556
-0.044402
7.87611
-0.0172424
7.60865
-0.0616559
0.0220249
6.32801
0.000933013
7.86673
7.84644
7.61024
0.0403974
-0.0138047
7.87333
7.61015
0.0310217
7.87411
-0.137096
7.91484
-0.0848051
7.87226
7.61076
7.85304
7.60959
0.0246941
7.60985
0.269162
7.61202
-0.00741462
7.87312
7.86945
4.30705
3.98163
7.89128
7.86988
7.87268
7.87341
-0.00920652
-0.146516
5.20783
7.87715
-0.000965394
7.60826
7.61982
-0.427742
0.0113866
-0.0708131
7.61084
0.0254598
-0.0230715
0.0252529
0.0135818
7.8729
7.87579
7.88002
7.87632
7.6106
7.60955
7.6103
7.84102
7.61117
7.61049
7.87251
7.61023
-0.110788
7.60947
7.87308
8.61514
7.87468
7.87344
2.70277
7.60972
7.87228
-0.00644061
-0.0978929
7.84909
7.85198
7.87314
0.0170298
7.64444
7.86054
-0.113129
7.61103
7.87371
7.86892
7.87685
-0.0496035
7.60944
-0.178064
7.87691
7.85761
7.87189
7.87271
7.87045
-0.110137
-0.147749
0.0208857
7.87494
7.63435
7.90965
-0.126276
7.87276
-0.143669
-0.083784
7.60795
7.84231
5.93568
-0.407269
7.85591
7.0132
-0.394426
6.01382
-0.012595
7.64255
-0.0422487
5.98084
5.61329
7.8723
-0.00204213
7.61095
-0.0152847
-0.0571115
7.88187
-0.00351307
-0.2868
7.87048
-0.0705601
7.6126
7.85705
7.86596
7.85294
7.86798
7.60814
7.8726
7.87238
-0.15381
7.10338
7.87296
7.8703
7.87158
7.87561
0.0178845
4.0381
-0.135121
-0.311426
7.87192
0.012823
0.00193875
7.87299
6.9908
7.78622
7.86278
7.89996
7.96255
6.42875
7.16233
-0.0364623
7.87466
7.87825
6.09776
6.63681
7.60933
-0.00815081
7.88093
7.62443
7.87472
-0.0817462
7.87679
7.60966
-0.0178524
7.61007
7.57032
7.76234
7.92056
-0.0178208
7.87398
7.87243
7.87232
7.84198
-0.0168458
-0.0679432
-0.0588792
-0.00432286
-0.0323632
-0.0407348
7.61061
6.5394
-0.168095
-0.0343035
6.52956
-0.152668
7.86869
-1.08647
7.63244
-0.0913008
7.87504
7.61485
-0.0330335
-1.38748
7.8775
-0.0345547
7.87627
7.87636
-0.0977022
-0.0587432
7.87282
7.61007
7.91785
7.60949
7.86983
6.86163
7.8741
7.87207
-0.0348633
7.87365
7.86865
7.87146
-0.0259365
7.88473
6.90327
7.61025
7.60966
7.29635
6.9182
-0.0274991
7.61437
6.92679
0.00416695
7.86661
-0.044245
-0.0270957
7.87473
-0.00087852
7.87151
7.45231
7.93505
6.781
7.6121
7.85186
7.86581
7.87629
0.0192817
7.87522
7.87348
7.87186
7.73235
7.87235
7.78321
-0.117951
7.87247
7.87751
-0.0715367
7.87349
7.61051
7.60922
0.030933
7.87484
-0.165299
6.69979
-0.382129
0.0154516
7.60672
6.5343
0.00688367
6.26361
7.61083
-0.203473
-0.381502
-0.0027259
-0.0595297
-0.258316
-1.16772
7.63437
7.6158
0.00707602
-0.103897
-0.0864086
0.0159829
-0.404346
7.60817
0.0193168
-0.00278739
0.00365064
7.61259
0.00629505
0.0219052
0.0228282
0.00304705
-0.12516
0.0134382
0.0418021
-0.005639
0.0102227
0.0259246
0.00915186
6.91686
0.0917116
0.00629119
-0.00345194
-0.0310811
0.0234134
0.0109782
0.0145722
7.07752
-0.11701
7.02651
0.0343267
0.00940321
-0.0377822
0.00207204
7.01472
7.60795
0.0109478
0.0146331
-0.130017
-0.066272
0.0241346
-0.00217336
4.82669
0.00758415
7.87245
0.0007098
-0.114874
-0.0501706
0.0299887
-0.143872
-0.179357
-0.00478866
0.00605845
-0.00434206
0.03106
-3.3551e-05
0.123553
6.13641
5.40652
0.000197417
7.87674
7.87313
-0.000171456
0.0204704
0.0231598
7.87403
-0.0750588
-0.0590533
0.0172545
5.58418
7.87194
-0.214959
0.00742896
-0.122598
7.87596
0.0288102
7.8724
0.00685752
-0.0068262
-0.0489289
-0.0480376
7.87257
7.87445
-0.0403018
0.0110305
0.0260937
7.8659
0.00670652
0.0259281
-0.00782462
7.61645
0.0334454
0.0487673
7.00486
0.0221103
-1.51131
-0.108281
7.57833
-0.0649223
-0.104673
7.87238
0.00105707
0.0175748
1.38466
-0.0152048
0.00726228
0.02247
0.0199598
-0.0363205
-0.0231887
-0.234564
-0.11278
0.0306409
0.0218906
-0.016045
-0.178616
0.0201339
-0.0211597
0.0590565
0.0131248
-0.164132
0.0397949
7.87247
-0.00424148
-0.0142954
-0.108156
0.0380752
-0.0434754
7.63758
-0.00607991
0.0237058
7.86788
-0.0770574
-0.0134182
-0.00595804
0.000468458
0.02227
-0.0456959
0.01094
-0.0187916
-0.0557873
7.87209
7.87266
-0.0517518
7.614
-0.0483181
-0.00696373
7.70585
0.0220571
-0.021273
0.0390627
7.87191
0.0254141
0.0108338
-0.0654002
-0.146619
0.0201602
0.044762
0.00779052
-0.0119864
7.87262
7.85561
-0.0986537
-0.034528
-0.0611543
0.0195479
7.85529
-0.0351679
0.0139498
7.70641
-0.000479575
0.00937793
-0.0837861
-0.228365
-0.0329932
-0.0400218
0.0380666
-0.0055716
7.61897
0.00182916
0.0027671
-0.00170526
-0.207108
7.85649
-0.0238855
8.01374
7.87345
0.0119806
-0.0140027
0.00473218
0.120797
-0.120666
1.48474
7.61232
-0.0331317
0.0241296
0.0659339
0.00871505
7.87986
7.61144
7.60093
-0.00193055
0.00297117
-0.233837
0.0246129
7.62687
7.8598
-0.00990713
0.00509406
-0.0452856
0.0129344
0.00790232
0.0284675
-0.0562077
4.37641
7.60956
-0.00611283
0.023011
7.85929
-0.00562441
0.0237316
-0.0806157
0.00823571
0.00859733
-0.0449015
7.85946
0.025046
0.00470327
7.61241
7.64341
0.0287024
0.0793788
0.0151592
0.0208116
0.0171739
0.0122617
0.0330193
0.0293588
0.0239905
0.0138115
7.85524
7.84767
0.00996429
0.0306234
0.0160818
-0.103132
0.0197922
-0.00409169
-0.00298592
0.0234271
0.0160886
7.61236
7.62037
-0.117163
7.85398
6.86345
0.0120411
0.0197827
-0.000124291
-0.0986014
7.16
-0.0370625
-0.0843344
7.291
-0.106037
-0.213718
0.0193406
0.0214447
0.0199594
0.0282964
-0.147219
0.0205655
7.87297
7.2339
-0.0824881
0.0285456
0.00447626
0.0258504
-0.110904
-0.0346969
-0.112375
7.26005
0.0242034
0.0527702
0.0137092
-0.127084
-0.0390242
-0.097657
-0.206238
0.00207949
0.0222361
7.15174
-0.00541569
0.0257938
2.78403
6.78643
6.23421
0.037308
6.63067
0.013623
0.0228606
0.00510098
0.0219291
-0.110496
5.04243
3.0404
8.05978
6.72916
-0.0498421
7.60944
7.60915
-1.28746
7.87059
0.0277147
0.0113843
0.0288877
0.0220661
0.0225916
0.00435388
6.26603
0.0225963
0.0251454
-0.0329046
0.0135315
0.0347211
0.0126704
7.60953
-0.209759
0.0293679
-0.0979103
7.60958
-0.0105746
-0.00639512
7.60952
7.86471
-0.083106
0.0187523
7.90854
0.011089
0.0151445
-0.0867995
7.87381
7.60949
0.020464
-0.21202
0.0217208
7.60958
7.59442
7.60962
0.000744122
2.54643
2.32033
-0.000433656
-0.372083
7.88172
0.0261258
-0.349582
0.0176986
0.0234749
0.0069792
0.0200598
-0.509684
0.0282558
7.65933
0.0104659
0.0395443
0.0179451
0.0199849
0.0137269
0.0349632
0.0163909
0.00955968
0.0301874
-0.0651461
-0.393185
0.0109054
-0.0875961
-0.135626
-0.464398
0.0104965
-0.377395
0.0197283
0.0303337
0.0217725
0.0394663
-0.0563049
0.0348431
-0.383454
0.0222978
7.46788
0.00928156
3.81068
0.0136296
-0.00769687
7.61309
-0.0177492
7.46738
-0.0056923
7.49539
7.90481
0.0428473
-0.0284073
6.8436
0.0238652
0.0183057
-0.0248731
7.86065
7.87441
0.0119341
0.00043087
-0.184741
0.0158791
0.0319577
-0.0259369
-0.0670514
-0.0097156
-0.0186839
6.50981
0.00871128
7.60908
7.80475
0.0306583
0.0292679
-0.0999361
0.0297996
0.0316409
-0.0120028
-0.0234889
7.78166
-0.114295
0.0221689
-0.0142317
7.79334
7.88046
0.0085661
-0.00266354
6.16287
-0.0448834
0.0291389
-0.000966079
-0.135703
0.0324438
0.0224098
7.86405
4.5725
0.021524
-0.0769971
7.67693
0.0397135
-0.0510462
-0.0152239
-0.125413
0.0164307
-0.155702
0.00830441
-0.0408794
4.82909
-0.0512402
7.87401
-0.00159375
-0.0212198
0.0307239
0.00969663
6.56979
0.0144317
-0.0828714
-0.0156168
-0.112225
7.42133
7.60972
0.0290945
-0.076621
-0.00588265
0.00298927
-0.0450153
0.0210564
-0.00249319
0.00741543
0.0415922
0.0264064
-0.0530691
7.02955
-0.133443
-0.0245761
-0.000832357
-0.043552
7.22522
7.60946
-2.39378
-0.118612
8.15286
-0.145304
-0.0265763
7.36895
4.99404
5.45681
-0.0457395
0.0236309
0.172333
5.83989
-0.079409
0.0308109
7.61737
0.226881
6.88552
-0.0149183
0.0213871
7.64299
-0.0290123
-0.0286562
-0.0325271
0.0264864
7.60917
-0.273442
-0.0426274
-0.0801023
-0.0228578
-0.0231565
-0.0451912
-0.0112048
-0.180148
-0.0248776
0.0212598
0.0224995
7.87245
6.44259
6.55519
7.72691
-0.0325189
0.0250126
0.0307761
-0.0667185
0.0203041
0.029082
-0.00778461
-0.0215582
-0.0180883
0.0238854
-0.0167561
-0.0887365
0.00108959
0.0260428
7.87321
-0.0449841
-0.0637888
-0.0198534
-0.0121005
7.60966
0.00103647
0.00352242
0.0340665
0.00138587
0.0117925
7.62933
0.0226139
0.0119394
6.87901
0.0228922
-0.0121554
7.72094
-0.00221702
7.71233
7.60722
0.00231483
-0.0633549
-0.0085455
0.0135937
7.61258
0.0344318
-0.0413583
7.6116
0.0312636
0.0113161
0.0179118
-0.0145784
7.75203
-0.0340331
-0.0288183
0.00776251
7.6932
0.0456089
0.0202538
-0.00400715
0.0269429
0.0125438
7.90173
7.45089
7.05666
0.0266659
7.18527
0.0283445
0.0152747
0.0245808
7.83272
0.0210328
7.65356
7.8738
7.80691
0.00897544
-0.0127529
-0.21347
0.0014219
0.0340399
7.51598
6.88269
-0.0433623
-0.0484876
0.0370629
-0.16928