/*--------------------------------*- C++ -*----------------------------------*\
  =========                 |
  \\      /  F ield         | OpenFOAM: The Open Source CFD Toolbox
   \\    /   O peration     | Website:  https://openfoam.org
    \\  /    A nd           | Version:  10
     \\/     M anipulation  |
\*---------------------------------------------------------------------------*/
FoamFile
{
    format      ascii;
    class       volScalarField;
    location    "29";
    object      SgT;
}
// * * * * * * * * * * * * * * * * * * * * * * * * * * * * * * * * * * * * * //

dimensions      [1 -1 -3 -1 0 0 0];

internalField   nonuniform List<scalar> 
111485
(
9.46989e-15
0.0077014
0.0243525
2.60601e-16
0.0490015
1.07357e-16
0.0465179
0.00616871
0.0190784
0.00124881
0.0468879
0.00949173
0.00482907
0.000792971
0.00651026
0.0301856
0.00143871
2.624
0.0103524
1.85305e-15
9.58841e-15
1.88244e-15
0.0269717
0.0344981
0.00874529
8.75001e-16
0.0392986
0.00178415
0.0152526
3.03175e-15
0.0446769
0.0196228
2.34934e-15
2.42286e-15
0.00628272
3.5717e-14
0.0106392
0.00421571
3.83618e-08
0.0242455
5.05986e-15
0.0707237
0.0158737
0.00157079
6.39238e-05
9.50871e-15
0.029387
0.000711171
0.0473907
4.39769e-15
1.4292e-15
7.17076e-14
1.72928e-14
0.0515855
4.05e-15
0.0437904
0.00302689
2.96018e-15
1.99729e-05
0.00480371
0.0160788
3.52567e-14
0.00482167
0.0985201
5.2842e-15
0.00310049
0.316182
0.0943936
0.00111777
0.00619551
1.95689e-05
0.0066865
3.94289e-15
0.00292103
9.73646e-15
0.000719299
2.3699e-15
0.0411133
9.00813e-16
5.16687e-15
1.0069e-06
0.0339295
1.90693e-14
9.99438e-16
0.0094106
0.0037991
3.31976e-10
0.0254592
6.08985e-05
0.00744497
0.000254795
0.0402435
0.0119868
5.80837e-05
0.0520812
2.40438e-15
6.43651e-15
0.00182827
3.18647e-08
0.001119
1.61117e-14
0.0176334
3.34616e-16
0.0179729
0.004572
2.12348e-16
6.673e-16
0.00759278
0.00421109
5.44019e-08
0.00555687
0.00475995
0.00381436
0.00327829
1.01007e-15
3.42556e-05
2.69322e-16
2.89678e-14
0.0129042
7.53194e-16
2.29253e-15
5.47299e-14
5.01548e-15
1.9203e-15
0.00152451
3.0224e-06
9.76124e-15
0.00172637
3.3884e-15
2.23473e-05
0.00153228
0.0329304
6.3308e-15
1.46963e-13
1.5186e-15
0.0482874
4.00143e-15
0.0425458
0.0254308
0.00271201
0.000253164
0.00199863
0.0225265
0.00260913
0.00407977
0.0130666
1.41251e-15
1.60103e-15
7.04474e-14
0.0281414
0.00152448
8.94029e-15
2.39146e-07
0.00467299
4.23752e-07
0.0109734
0.0160797
0.0108704
5.90133e-08
4.4135e-15
5.38723e-15
0.0524143
0.0224499
1.64809e-06
2.97803e-07
0.00586123
0.00338921
5.51198e-15
3.99307e-06
4.27492e-05
1.75501e-15
1.16531e-14
0.000121525
1.36155e-15
0.00548344
0.00206081
5.74524e-16
1.11371e-14
2.03189e-15
1.14902e-14
2.25418e-15
3.23366e-15
0.00152037
0.00677713
0.0299515
0.00412065
0.0077244
0.00403892
7.72039e-05
9.30403e-16
0.00486821
2.88858e-15
7.94361e-15
0.00655363
0.010349
0.0288139
0.0115093
0.00502532
2.98852e-15
0.00680763
0.000497749
4.0816e-05
0.0144865
0.00233936
9.78679e-15
0.00386518
0.0249191
1.16313e-15
0.000157459
0.00794359
0.0019925
0.000371781
1.79718e-15
6.75491e-15
0.00834703
1.11573e-11
0.119382
3.88123e-15
0.00669808
0.0206246
0.119053
1.1437e-15
0.00330252
0.0137516
1.81405e-13
9.46359e-16
2.27842e-15
0.14996
2.33528e-07
1.37144e-14
3.38536e-15
0.00944624
0.00783543
0.0149855
1.59697e-14
1.69275e-15
1.32962e-05
6.389e-15
0.00235927
0.0095888
0.0166747
0.0116349
0.00966473
1.16393e-14
2.40188e-07
0.000633403
1.4487e-14
1.92776e-15
0.0309178
0.0205756
3.72727e-15
0.00657642
0.0107884
2.55018e-15
8.48637e-14
0.000112505
5.74408e-16
1.15923e-14
4.52322e-05
3.11615e-15
0.014753
0.0105957
0.00368805
1.23042e-14
0.0117813
8.82384e-16
1.63956e-15
5.84825e-15
1.74345e-08
0.0230578
0.00617111
0.00552539
0.0361964
0.0124028
0.00155699
0.000563235
0.0321856
0.00870108
8.1395e-16
4.66022e-15
2.32376e-07
0.0226987
0.0245938
0.011769
2.56257e-16
0.00700494
0.00202347
0.00303972
2.02468e-06
3.54914e-06
0.0138778
0.00218489
0.00198536
7.86917e-15
0.000641569
1.06004e-14
2.20695e-07
5.29055e-13
0.233702
0.0678211
0.0117588
1.7181e-15
4.69479e-15
0.00897947
0.00171719
2.60883e-14
2.10995e-15
9.1981e-16
0.000295252
0.0568941
0.00402845
0.0132349
0.0192116
8.06683e-15
9.02393e-15
8.01772e-16
0.00377733
2.28627e-12
0.000859775
0.184027
2.83696e-07
2.5162e-15
6.00649e-15
1.33226e-15
5.13146e-14
0.0601763
0.0118065
1.09312e-15
0.00529772
1.35451e-14
2.18494e-15
0.0671534
0.00599528
0.0114493
0.00934063
1.12167e-13
3.41811e-14
1.9486e-14
0.00951935
0.0187466
0.00489373
1.03299e-15
3.07842e-10
0.00015412
0.0023051
0.00806095
3.23201e-05
0.0284646
1.97126e-16
0.0375057
0.00358541
0.00771284
0.0257885
0.0131341
1.45455e-14
1.54467e-14
3.64089e-14
8.80583e-15
0.0310905
0.00980479
0.032567
0.0673207
3.9862e-15
0.0182551
2.5964e-15
1.34089e-14
0.0167325
6.71587e-15
0.081789
8.86355e-15
8.27879e-16
0.0228076
1.82619e-16
0.013504
0.000283959
1.36994e-15
0.000970608
0.0166556
6.81521e-15
0.00895634
0.00897441
0.00819524
0.000705804
0.00265885
0.0054576
5.86144e-14
7.724e-14
0.00201747
1.44101e-14
0.00633014
0.117999
5.68244e-15
1.84719e-14
0.027701
0.000109172
0.00829951
0.0204425
4.7002e-15
0.0479241
0.0189042
2.30592e-17
0.000846383
0.00235285
1.53988e-15
1.93567e-15
0.0109203
0.00518701
3.0676e-14
1.13127e-15
4.03692e-08
6.7201e-15
0.0125146
1.47318e-14
6.84793e-16
0.0166958
1.54636e-06
0.0122859
0.0299806
1.60621e-15
7.4006e-14
0.0015443
6.75382e-15
0.00016546
0.0146275
0.121768
0.828568
5.54634e-15
0.0027672
0.000558237
1.25606e-14
0.039033
0.0308654
1.38438e-14
7.00244e-09
8.59696e-05
2.41212e-14
0.0236895
0.0239183
0.0138563
6.17715e-15
0.000661616
0.0166815
0.0227651
8.26383e-07
1.58335e-14
6.78333e-10
1.42464e-15
1.13126e-05
0.0311887
1.11896e-14
0.00815019
0.000102194
1.39025e-13
2.21291e-15
7.6202e-15
3.40846e-15
0.00372057
0.0095855
0.00628232
0.00202913
0.00256578
1.51587e-14
0.0019415
2.44973e-14
0.0412643
1.24291e-15
1.16684e-15
4.25641e-15
0.0375497
2.66294e-15
4.83899e-15
1.42363e-07
4.91891e-16
8.92536e-15
0.00106867
4.23345e-15
1.76701e-14
1.62884e-14
2.10135e-15
1.24509e-15
1.25946e-14
2.55347e-15
0.00678639
1.13105e-14
0.000542402
0.00198495
0.000818874
3.89881e-15
0.000907408
9.93034e-15
3.8214e-15
0.00272608
0.00175165
0.0266983
0.0251695
2.21836e-14
0.00203152
0.082444
0.00852228
0.00100946
0.00319148
1.22673e-15
0.02322
3.00292e-14
0.00502884
4.12507e-16
0.0764233
2.00917e-15
0.0212071
0.000246991
5.13587e-07
1.08986e-14
0.00202914
2.62745e-15
0.0800607
0.0489548
7.96882e-15
2.90315e-15
3.48568e-14
1.17075e-15
1.37728e-09
0.0546618
2.62911e-15
5.98398e-15
0.00240588
2.86328e-15
0.0340494
1.06528e-15
0.000310719
6.71656e-15
0.000465374
1.1917e-06
0.000978523
0.0127788
3.17617e-15
0.000418291
4.56395e-16
2.53985e-15
0.0147035
8.0281e-15
2.84444e-05
9.86727e-15
0.00164554
9.21273e-15
0.0644677
1.32657e-14
3.26659e-15
0.0177393
0.00319367
0.00174082
0.00384246
0.00687345
0.0206602
1.77185e-15
0.0254463
0.00592886
8.71536e-15
7.47781e-08
0.0413335
0.0154856
1.32603e-14
0.00361975
0.00693141
0.00180832
0.000971593
1.99426e-10
0.0136801
0.00123678
0.000118879
0.0228175
0.0137365
0.000564763
1.44987e-14
2.96081e-09
0.651263
2.15154e-15
0.000342792
4.25869e-15
4.0501e-14
0.0073087
0.0026317
2.35633e-07
1.80058e-05
9.09166e-15
0.0159007
0.0110394
4.57433e-15
2.02285e-10
0.00129657
1.1574e-14
7.11453e-16
3.15312e-15
3.02495e-15
0.0126059
1.61502e-14
2.64358e-16
0.00844562
0.00190716
7.32488e-15
0.0105561
1.02957e-14
0.00845277
4.13256e-16
2.81834e-14
0.0516548
1.28961e-15
1.39962e-15
8.45386e-16
0.00419122
1.96984e-14
0.0279848
0.00624978
3.39403e-16
0.0905655
0.00231867
0.0287323
0.0282684
0.000410158
7.33748e-05
5.90663e-16
0.0538268
0.0467475
1.00599e-14
0.000320602
0.0406885
0.00805298
0.00138098
0.0276066
0.0261073
8.40833e-15
0.0109609
6.77342e-06
2.75914e-14
0.0348713
0.000249208
5.83924e-14
0.0108512
0.0407154
0.00130743
0.021563
0.0196836
0.00720069
1.03794e-14
0.0104514
0.000299537
4.65963e-12
0.017179
0.0180076
0.0357508
1.43025e-15
0.00184099
4.08689e-15
6.83743e-16
1.07983e-14
8.93155e-15
1.3096e-05
1.16687e-14
3.21886e-10
1.29961e-14
7.02027e-16
8.1511e-05
0.0427568
1.68164e-14
0.0303562
3.49682e-14
3.9828e-14
1.35933e-15
0.0385165
0.000392149
3.11299e-14
2.07676e-14
6.42928e-15
2.75109e-15
0.205371
0.0697932
3.51738e-15
0.00200926
1.79168e-06
1.29011e-14
0.0373969
0.00859837
0.0114477
1.50194e-16
3.90668e-15
0.000413601
0.00107351
2.15315e-14
2.52952e-14
3.03353e-15
0.00722298
5.20329e-15
3.54592e-15
3.55168e-15
0.042142
0.00214232
3.30383e-15
3.84195
0.369869
0.0096735
9.78121e-15
2.35846e-15
0.0550076
0.000430596
1.42748e-14
4.92215e-06
0.108381
0.00236755
0.0111942
6.67129e-15
0.0519818
0.00191905
2.10654e-15
1.7029e-15
4.89356e-15
9.01095e-15
8.44502e-15
2.1202e-15
0.0224236
1.74422e-14
2.62577e-14
3.5368e-15
0.0112945
0.0235434
4.23534e-15
8.93695e-16
0.105552
0.0143461
0.00988456
4.0828e-15
4.18545e-15
0.037227
2.38605e-16
0.00168349
0.00263323
0.00396937
7.32518e-16
3.36636e-15
6.74553e-15
2.87824e-15
0.0145726
3.55434e-15
1.59611e-14
0.00106544
1.03683e-14
0.0232997
0.00192958
1.16291e-14
0.0368617
0.3377
0.00253518
0.028954
0.000140396
0.0434119
6.79341e-11
1.31787e-13
0.0237
0.0675393
0.00598898
2.54424e-14
4.77967e-10
0.787186
0.0100402
1.45443e-14
0.00240413
0.00240132
0.00112297
3.45037e-14
1.06842e-14
5.27983e-15
0.0134722
8.27481e-15
0.00273469
4.22341e-15
0.00118636
0.00143046
0.0367788
0.000565377
5.57956e-15
3.60757e-16
9.85579e-16
0.020499
9.7102e-16
7.29773e-15
7.54075e-05
5.78765e-15
4.61436e-15
1.31994e-15
3.46248e-16
0.0101508
3.09785e-14
6.95146e-16
4.36116e-10
3.35077e-14
2.3582e-14
1.27872e-13
1.16046e-14
2.90832e-06
0.0016204
8.40465e-16
0.00406406
6.19446e-06
2.86555e-07
5.75591e-05
0.00394504
8.21615e-15
9.35193e-06
0.0100806
0.000397479
3.13885e-15
6.25053e-09
0.000856749
1.04004e-14
0.00996395
0.000186789
1.59014e-06
0.0228988
0.00946978
0.00224381
0.00483829
0.00197938
2.96229e-14
1.86496e-15
0.0330136
0.0265398
9.44737e-16
0.00841547
0.0539631
0.0284427
2.46914e-14
0.00124371
1.65251e-15
0.0101908
0.013976
4.71967e-15
0.0015853
0.00044706
1.17678e-06
0.00495896
5.30177e-16
0.0486826
1.46654e-05
0.00139463
2.913e-05
1.19772e-05
1.22223e-15
1.66373e-15
0.00681824
1.28724e-15
0.000124826
0.00024109
0.00030135
5.98512e-08
6.95548e-08
1.72586e-07
1.20287e-15
6.19548e-14
0.0226594
5.2916e-15
0.000195319
0.00195879
8.69391e-16
1.94153e-15
6.66604e-07
9.33998e-10
1.55686e-15
5.22255e-06
4.96603e-15
4.59389e-15
1.54037e-14
7.77519e-15
5.22437e-15
1.57942e-14
0.000268767
4.43705e-15
3.16734e-14
9.62917e-14
6.52526e-06
4.8033e-05
0.00168235
0.00920786
2.08552e-15
8.27993e-17
0.000155058
3.43031e-15
4.52965e-16
1.34712e-14
0.018403
0.0420775
4.80361e-15
6.10593e-15
1.30042e-14
9.13387e-16
1.11666e-15
2.01286e-15
0.00662271
2.0042e-15
5.4578e-08
0.026307
4.88051e-15
1.10886e-14
1.41143e-15
2.9412e-05
6.15418e-15
1.27273e-14
1.80783e-16
9.80707e-06
6.03862e-15
0.00413118
8.82922e-07
6.3391e-09
8.52506e-16
7.7884e-05
0.00186245
0.0439667
1.62694e-14
8.52204e-06
0.00537584
1.14784e-15
2.56305e-15
3.69133e-14
1.35726e-14
0.00821669
0.0016317
0.003146
1.82529e-07
5.61987e-16
0.0228763
1.33363e-14
7.00633e-15
5.04386e-14
2.82418e-15
0.026477
3.55274e-15
2.71319e-15
1.53157e-06
0.0521626
3.2312e-15
0.00229413
6.48057e-15
0.00076283
9.70369e-14
9.83155e-15
3.49595e-14
5.86626e-15
0.00246418
0.000578594
0.301496
1.75099e-15
1.28987e-14
0.0020689
8.98351e-16
5.24705e-14
1.84078e-14
0.0358431
9.99612e-06
0.0319616
7.02286e-15
1.13401e-05
5.18827e-05
3.09687e-14
0.000134784
3.97768e-15
0.00117587
0.0244651
0.0202832
0.00112472
0.000220032
2.18156e-15
1.37846e-15
7.7531e-15
2.30402e-05
9.14343e-16
0.00765944
1.9153e-14
0.173925
9.67564e-16
0.0409401
0.00292716
1.61482e-15
3.65953e-15
7.37308e-14
8.54501e-15
0.0420499
9.84619e-15
4.06826e-15
0.0116516
0.00688556
8.33824e-14
7.14362e-14
1.22323e-13
3.78872e-14
1.49935e-15
1.77009e-15
0.0260566
0.000390714
5.36521e-15
3.0851e-16
5.64354e-07
3.93569e-14
0.00154744
0.000101908
2.89785e-15
0.00356204
4.54321e-15
0.000388538
9.71511e-16
0.00111477
3.8902e-15
6.56839e-08
2.17664e-06
0.000603424
0.0184817
0.0346417
1.14918e-06
5.70079e-16
0.000570399
1.39405e-15
0.00466659
3.06064e-15
6.01667e-15
7.49419e-15
3.07479e-15
2.64199e-14
9.98857e-15
0.00732911
0.00827972
4.96571e-15
3.54938e-14
9.95314e-16
0.00080819
1.22132e-05
2.19286e-15
0.0179945
0.000166978
2.4817e-17
0.0235199
0.00812795
0.00373171
0.010945
1.43903e-15
1.23469e-14
5.31047e-15
1.99291e-14
0.0369922
3.14894e-14
0.114943
2.06969e-15
0.000327076
0.000727175
6.40119e-16
0.000995195
3.72896e-15
3.27719e-15
0.0031189
2.19955e-08
0.00980936
2.42846e-15
1.27888e-15
6.76327e-16
0.000846967
7.89585e-15
2.06063e-15
5.72429e-15
2.6805e-07
4.12349e-14
6.204e-06
3.50312e-14
4.36412e-15
4.08412e-15
0.0183456
0.0098228
0.0182819
0.0359188
2.54586e-15
1.65124e-05
8.07322e-15
1.96076e-14
0.0095403
1.89303e-16
2.08444e-06
0.000365151
0.00674755
0.00038126
1.09361e-09
0.00184697
4.3118e-15
1.39249e-09
3.23393e-10
0.000130449
0.000753731
0.0153201
6.72679e-08
5.37464e-14
0.0299557
1.35151e-14
7.44134e-16
1.18432e-05
0.0749983
5.14467e-08
4.08444e-15
3.31928e-15
2.9897e-07
9.96134e-16
3.41831e-14
1.8793e-05
4.26195e-15
1.07666e-14
0.039935
0.000240114
0.000189874
0.0224132
0.00722332
1.40196e-15
4.76696e-15
2.65007e-05
0.00403719
1.05009e-15
4.22247e-15
0.00954808
2.57723e-16
3.24868e-14
4.06728e-15
3.0213e-14
2.58773e-13
2.56611
1.54666e-15
0.000219948
1.50564e-15
0.0218393
4.25057e-16
6.07554e-13
3.77076e-15
1.30012e-15
2.25078e-14
5.90476e-15
0.00278278
1.31282e-15
7.68141e-15
1.83834e-14
5.20168e-15
2.44911e-14
6.93808e-15
0.00972
5.68315e-15
0.0109256
0.00317314
4.2016e-16
0.00152166
3.66635e-15
0.000517637
2.10533e-06
0.00382252
0.0128613
6.80511e-16
9.28819e-05
0.00751391
1.06033e-05
2.64918e-14
3.23685e-06
0.0192532
0.00464145
4.49331e-15
0.0256738
3.17753e-15
1.80058e-14
3.15206e-15
1.42649e-15
0.00804672
2.31515e-15
5.66127e-16
0.00829043
4.1557e-07
0.00262278
2.97727e-15
1.36298e-13
0.000649947
3.47231e-15
5.91159e-05
3.08468e-15
0.0235119
6.83025e-16
1.11731e-15
5.33062e-05
1.53305e-15
0.000140362
9.24357e-15
6.84164e-16
0.00466089
0.000448625
0.00467647
0.0150805
0.217866
0.0202939
6.87554e-16
2.64311e-14
0.00304329
0.00670776
0.0369169
0.0102122
6.3398e-15
0.0125321
1.93906e-15
4.17889e-15
0.00929925
0.0111973
3.05093e-15
0.0133368
1.08392e-14
0.00272655
0.00897476
1.19054e-14
4.69425e-15
3.25144e-15
0.00287791
5.14904e-15
3.71593e-15
0.00424832
0.0216442
3.57713e-06
0.00733418
1.09645e-15
4.08865e-15
8.98604e-05
0.000793628
4.38286e-15
0.0102634
2.48727e-14
0.00255529
1.66307e-15
9.54506e-15
0.0122983
1.46113e-14
3.55478e-05
0.00369127
1.08557e-14
2.78339e-15
0.00447096
5.39828e-11
0.0517467
5.99105e-15
0.248464
9.32358e-15
7.73566e-14
3.87628e-14
0.00756222
2.67886e-15
9.63672e-15
0.00560248
3.37126e-14
0.000256814
7.00067e-14
5.26489e-15
8.78056e-15
9.6853e-08
0.000784172
1.6393e-15
7.98217e-15
0.0346164
0.000944843
4.49286e-16
0.000402866
2.00835e-15
3.5345e-15
1.75029e-06
0.00285771
0.00131387
8.80891e-15
3.71996e-15
2.56111e-14
2.17998e-16
3.9473e-15
1.49686e-15
2.02038e-15
1.03209e-15
2.19181e-16
3.4342e-15
1.42393e-15
5.54864e-15
4.83995e-15
1.67776e-15
2.80119e-15
4.58263e-15
3.43964e-16
1.12472e-14
2.00964e-15
5.7267e-15
3.54798e-15
0.0169109
5.55322e-15
2.56502e-15
6.19843e-15
0.00664799
1.23049e-14
4.66228e-16
0.299968
1.12368e-15
1.00216e-14
0.0228891
4.38451e-12
1.83632e-15
0.0080982
0.0244489
1.51279e-15
0.0029512
0.00437907
2.07795e-15
0.0135256
0.0391772
0.0177812
0.00337847
0.0106251
1.90974e-15
1.27569e-15
0.00301057
0.0104684
0.00323077
1.34758e-14
0.00682125
0.00179913
0.0214548
0.00993296
0.000697085
0.0156099
0.00100998
0.010328
1.39539e-14
0.0240024
0.00841973
0.00162048
0.00143493
1.91741e-15
1.99563e-14
1.51627e-14
2.17209e-15
1.59727e-15
0.00909858
0.0134748
1.75277e-15
1.3209e-16
1.36646e-14
3.24077e-15
1.5957e-15
2.46647e-15
3.54524e-15
3.61727e-15
0.00467741
0.000212617
0.0216842
7.30707e-05
2.80057e-16
2.2621e-14
0.0297818
7.74817e-06
2.95103e-15
3.15763e-15
0.007118
3.00246e-14
2.66818e-15
2.357e-06
0.00771031
0.0135127
0.0334315
0.0345155
8.62674e-15
0.0138804
0.000346843
6.36266e-15
2.48707e-15
0.0119116
1.6943e-15
7.5128e-16
0.0153069
1.04434
0.00017305
5.93255e-14
6.90997e-15
0.0168214
0.0195817
0.0178639
0.00557712
0.00447319
5.79855e-15
1.07348e-06
2.6875e-09
3.26926e-14
1.34663e-14
0.0168353
1.33815e-15
0.00197773
0.0245962
0.0175013
0.0109873
5.73938e-15
0.00595133
3.82737e-15
6.00666e-15
5.06402e-15
1.33667e-16
0.00244513
0.885961
6.24501e-15
4.7237e-16
4.1045e-06
0.0229132
0.00122904
0.00682452
0.0321738
0.00466744
0.0203923
1.42567e-14
2.02411e-15
8.5405e-15
0.0289097
0.00552464
3.06526e-08
1.56299e-15
5.78693e-15
2.56324e-14
0.0218129
0.00261937
4.08561e-15
0.0048182
0.0577225
0.0062193
0.00610877
1.09911e-14
1.20948e-14
0.00676059
0.0222506
1.77147e-15
0.000350099
0.0147606
0.000967965
0.0090202
0.00462696
0.00774722
2.1529e-14
0.00318584
0.0205828
0.0350365
4.07666e-10
0.0220147
3.33651e-13
0.015921
0.000149489
2.71404e-15
0.00246551
0.00744383
0.000408479
0.0113189
4.32653e-07
0.00012185
1.35935e-05
0.042105
0.00361451
6.40204e-15
0.0369767
0.00126574
3.15395e-15
5.40617e-16
4.26125e-08
1.46651e-05
0.00104299
1.05681
0.0345651
0.0121367
1.86148e-07
0.0445688
5.77837e-16
3.51666e-14
0.003782
1.58623e-15
0.00196656
0.0037497
0.00214664
0.00450079
5.21661e-15
0.000185303
0.104198
6.09864e-16
0.013169
0.00738755
5.09307e-15
0.00387309
0.000128058
2.61014e-15
6.88548e-09
8.16041e-05
8.08335e-15
1.54278e-15
8.13024e-15
0.00413201
0.00484708
0.0135715
1.01771e-14
0.00457033
0.0317904
1.8607e-15
0.0077746
0.0120179
0.022923
0.001476
2.3767e-15
0.000503088
0.00886878
0.0100746
0.00879106
0.0353827
0.157344
0.00314785
6.32787e-15
7.31402e-06
0.0475085
2.10307e-16
0.000405963
1.10022e-14
2.7221e-15
8.36977e-15
1.9477e-14
1.7477e-15
0.00313779
3.38627e-15
0.00690792
0.00108264
5.3053e-14
0.00360445
9.68355e-16
0.0132716
6.58479e-15
2.6743e-05
5.12362e-15
0.0207196
0.000154648
2.45895e-06
0.00409231
0.0270983
0.0157869
0.00374907
0.0260904
5.80939e-12
0.0222778
0.0519357
0.0094296
1.41216e-15
0.0010159
0.000231156
0.00542455
0.00966773
0.000584652
4.49308e-15
2.32109e-14
9.01809e-16
0.00333608
9.46655e-16
0.0003549
0.000202688
0.00171129
0.000247204
1.5152e-17
1.29806e-14
1.91619e-15
0.00838492
0.0203274
0.00112265
9.23048e-06
0.00176401
0.00662553
0.00174423
0.000783471
0.00622259
0.0059824
0.00259454
1.95956e-14
2.97729e-15
3.51551e-15
0.0121913
0.0103075
7.75077e-15
5.3599e-16
1.1102e-13
0.00815496
0.0173047
6.54689e-15
0.00214944
4.41603e-15
5.83171e-07
0.00437382
0.0861082
2.59464e-15
1.99247e-16
0.00343839
3.2237e-15
5.55936e-05
0.0114287
1.90558e-14
0.0103465
0.0310293
0.0182415
2.44421e-16
0.00148567
3.24922e-16
8.92365e-05
0.0460898
5.3914e-15
4.35623e-15
0.0100981
1.10054e-13
8.20281e-15
4.17172e-05
0.000900542
2.41241e-14
5.54264e-16
1.80444e-13
7.24569e-05
0.00119949
0.00296552
0.0245168
0.00813153
1.90027e-15
6.93567e-07
0.000690638
1.8855e-15
4.41049e-15
5.53875e-16
5.39661e-15
5.82631e-16
4.02416e-16
2.4651e-15
2.20192e-15
8.77069e-15
2.0245e-15
2.52295e-09
9.47476e-16
0.000309602
8.06807e-15
0.000252331
7.07542e-14
0.000102613
8.96662e-16
1.20673e-15
0.0272543
0.00847776
3.79988e-15
0.0814376
9.9612e-09
6.37134e-10
6.95955e-15
0.00115129
1.46355e-11
0.00262909
6.11109e-06
0.000785852
8.7288e-15
3.45589e-15
0.00116014
1.99633e-08
3.46157e-15
4.70541e-14
0.0365509
1.8819e-14
0.0350156
9.90066e-15
7.56194e-16
1.70251e-06
0.0264071
0.00731958
4.67962e-15
0.000301808
1.69033e-14
0.00355467
1.86192e-05
0.00163981
4.82468e-06
1.67743e-15
0.0191811
0.00115616
0.00496275
3.88692e-15
5.7427e-15
2.22065e-15
0.0198899
0.00356698
0.0498726
1.13666e-15
4.6919e-07
1.06381e-15
6.55049e-15
3.66411e-15
3.01043e-15
0.00320133
0.00212165
0.00290927
0.298665
1.06227e-14
0.0250944
0.0338669
0.0158648
0.00165993
1.27493e-14
0.00484957
0.00441923
0.00566471
2.70617e-07
0.00944504
9.31561e-16
0.00139159
0.001237
0.0307649
1.0483e-06
0.00330764
1.37361e-15
0.0174524
3.89678e-15
3.44875e-14
0.0015649
5.91164e-15
0.00559229
1.88462e-15
1.50536e-15
1.0533e-14
7.65304e-16
6.36453e-16
0.00079815
4.52238e-16
0.000498202
6.61951e-15
3.67099e-16
0.0164383
0.0049951
0.00753226
0.00682951
2.1262e-14
0.54908
1.60107e-15
0.0641976
2.42691e-15
0.0162744
0.0229915
0.00225358
0.0526347
2.8221e-14
8.73807e-15
2.64254e-16
0.00202972
2.03097e-14
7.0707e-15
0.0165514
2.64413e-15
7.21238e-16
0.00522305
2.1897e-15
0.0115718
6.15415e-08
2.24247e-14
5.82077e-15
5.95757e-15
0.0014336
0.00637359
1.11444e-15
0.0216917
0.000338615
8.67897e-15
0.0950038
1.09316e-14
0.014525
0.0169292
0.00356442
1.25409e-14
0.0169647
0.0096389
0.000862595
0.00516198
0.0117108
1.24985e-14
1.15433e-14
1.7641e-06
7.4043e-16
5.56037e-16
9.05642e-16
0.0185024
0.0462233
0.00430625
0.0020944
3.74961e-14
0.0475891
0.0432678
0.00397913
0.00215526
0.0088813
0.019672
0.00263161
7.9209e-15
4.52687e-15
1.06145e-14
0.00691551
4.24153e-15
0.023376
6.14048e-14
0.000733184
5.6827e-07
0.00247291
0.0207832
3.58542e-15
1.48596e-16
0.00245014
0.000369249
4.97207e-15
8.65136e-15
6.37692e-15
3.72476e-05
0.000293882
0.000144742
0.000805606
0.00970564
0.0816276
1.36839e-15
2.54476e-15
3.80099e-14
0.00359263
0.016435
0.0189336
0.0331233
0.00162816
0.00293318
1.53325e-15
3.38982e-14
2.25956e-13
8.2064e-16
0.00873606
0.0211961
2.49795e-15
2.50463e-15
5.37625e-15
1.10491e-14
8.6834e-15
1.05447e-14
0.013304
2.47501e-14
0.000887888
0.407195
1.99926e-15
1.27172e-05
0.0217084
0.000723689
1.6275e-14
2.18486e-15
0.00492082
1.13061e-14
0.01394
9.08484e-07
0.0234468
1.64665e-14
1.4015e-12
3.45181e-15
3.89186e-16
1.3467e-15
2.81951e-14
0.187719
3.17631e-16
0.00588162
0.00120223
6.75545e-14
1.69341e-14
0.00198519
6.26851e-15
6.98555e-15
0.0106233
0.000142703
1.00207e-15
1.11409e-14
1.02826e-16
0.0162595
1.42681e-15
2.84279e-15
0.000456335
0.00262071
0.00309959
1.58535e-14
1.23029e-15
3.38594e-16
0.00376032
0.00185108
0.0125872
0.00363968
5.63699e-15
0.000754512
0.0110608
0.00624357
1.32054e-14
3.54175e-14
1.46519e-14
2.81575e-14
6.14881e-15
0.029682
0.00486906
0.00577835
3.61509e-15
5.26702e-15
1.27537e-15
6.51341e-15
5.45109e-15
1.03525e-06
0.000214063
0.00208369
9.7467e-16
1.9096e-15
8.60288e-15
2.05439e-09
0.0339491
0.11217
1.22261e-15
9.33417e-10
2.96982e-11
8.94492e-16
1.429e-15
0.00367095
0.00614812
3.63657e-15
5.6688e-16
0.00278693
8.8591e-15
0.000671135
0.000992727
2.00254
1.32548e-15
3.48463e-15
0.0113811
0.000531045
4.15544e-15
0.636502
0.00058308
0.00596618
1.70117e-15
1.69915e-14
1.86034e-14
6.36119e-15
0.00819893
8.71854e-05
1.82745e-15
0.0244918
0.0184784
0.824608
1.46595e-15
1.33423e-15
1.47627e-15
1.68643e-15
0.00655835
8.04058e-08
1.04362e-14
4.03869e-15
0.0179638
0.000787476
0.00456783
2.0392e-15
8.97812e-15
0.0276832
6.02726e-15
2.28596e-14
6.52337e-15
1.2328e-14
0.0203482
2.18795e-15
2.2413e-15
1.73003e-15
0.0246343
0.0114552
7.22977e-16
7.32251e-15
2.49922e-16
0.0146981
1.94205e-07
6.01629e-15
9.5558e-17
9.58384e-15
2.80994e-15
0.00232003
0.0108926
1.82143e-15
0.00190456
0.00108084
0.00477606
5.33317e-15
2.52484e-14
6.49595e-15
5.18358e-15
9.04774e-16
0.0181959
2.43154e-14
0.0136848
5.75135e-15
0.00151992
1.14984e-13
0.00240165
6.91287e-15
3.90358e-14
0.0098401
0.152267
3.35705e-14
0.00356382
4.17436e-15
0.000379125
9.72368e-14
1.26333e-15
1.1738e-14
5.46818e-08
1.20477e-15
0.00028796
1.42369e-15
0.033754
7.19194e-15
3.58293e-14
1.1951e-14
2.14968e-15
7.43212e-06
0.000131871
2.91263e-15
0.00557902
2.30413e-15
0.00266832
0.0173197
0.00127892
2.41831e-15
4.78314e-06
0.000445604
2.19741e-06
0.0040417
2.95894e-07
0.0016702
5.08663e-14
6.393e-16
4.11297e-07
0.00553932
0.000240881
8.01615e-15
1.78173e-14
1.09038e-14
0.56416
2.70098e-14
1.46783e-15
9.22701e-15
1.6929e-14
9.62802e-15
3.24042e-05
0.000181812
0.000979513
6.68706e-05
1.02989e-12
0.00141467
4.59785e-15
0.00518492
1.22024e-14
1.79361e-15
5.57623e-15
1.45082e-15
1.37844e-05
4.07934e-16
1.29038e-14
9.97353e-15
0.0136369
2.39203e-14
3.38655e-15
0.0100277
1.25601e-14
0.0761741
0.121815
0.548113
1.70359e-14
0.193592
1.07685
1.04617
0.606409
5.65046e-15
3.17692e-16
0.00455487
0.00426021
1.00383e-14
0.0103814
1.88594e-15
0.0299773
4.23796e-15
2.03444e-15
0.000701364
8.36969e-15
2.96978e-15
1.03731e-05
3.89117e-05
3.84109e-15
2.05771e-15
2.871e-06
1.8875e-15
1.41714e-15
1.74108e-05
0.0078102
0.00147518
5.23456e-15
0.00756405
1.37617e-15
0.00326755
4.18185e-07
0.00705059
7.00916e-16
1.60855e-08
0.0054679
2.52936e-15
1.59053e-09
4.80959e-16
0.0297756
2.69664e-15
0.00879763
2.28908e-15
2.46864e-07
2.88727e-15
2.85628e-15
9.58525e-15
8.40019e-10
4.83469e-10
1.98483e-16
0.0111018
0.00870966
6.95801e-15
7.54759e-14
0.0301156
0.0158219
0.172472
1.01092e-14
6.71665e-05
0.0231516
0.0424515
5.64575e-08
7.60434e-15
0.0530464
9.40331e-15
0.212068
1.31687e-15
4.34283e-08
3.77568e-08
5.3096e-16
5.66315e-05
6.57635e-15
0.0193059
6.60576e-15
2.12087e-15
6.01085e-16
3.25318e-14
1.36748e-15
1.20892e-14
0.00025434
0.00186258
0.124593
4.69752e-16
2.75729e-15
0.037981
2.13908e-14
2.90683e-16
2.49479e-16
1.16153e-13
1.30236e-14
0.00550094
5.52368e-15
1.73148e-14
5.30744e-16
0.00304725
8.69738e-15
2.18881e-15
1.40156e-16
0.00306277
2.59086e-15
0.00564813
0.217404
0.00511588
0.00526308
0.0246356
1.63766e-14
1.77825e-14
3.09562e-15
0.00297484
0.00159418
1.10064e-15
7.03912e-14
0.000567964
3.31979e-15
3.39498e-15
0.309854
3.26725e-15
0.0198242
8.57673e-15
0.00217155
0.00292526
1.35404e-14
3.70315e-16
9.43021e-15
1.11645e-14
2.099e-16
0.0163753
2.96107e-14
0.00434918
1.035e-14
5.31041e-15
0.00642169
1.22879e-14
0.011511
6.51476e-15
5.56244e-15
0.00213945
6.58359e-05
0.129424
5.24123e-15
2.4746e-15
1.02985e-15
0.0031312
0.164289
2.66049e-15
2.40313e-15
5.04519e-16
0.0013741
1.65431e-15
0.0176663
0.0284946
3.60647e-14
1.1014e-15
0.00667432
1.49649e-14
2.05355e-14
2.30264e-16
3.34449e-15
3.53459e-14
0.0631119
8.21728e-15
3.46333e-15
5.1828e-15
3.79895e-14
8.82503e-15
7.18585e-15
5.50564e-15
2.34456e-15
3.69886e-14
0.00690559
5.36565e-15
0.00797182
4.23948e-16
4.04043e-15
0.531261
0.00254218
1.6429e-15
1.36178e-14
1.31325e-15
0.00224096
3.34911e-14
1.56549e-15
2.04838e-15
1.52552e-16
0.00685055
6.28124e-16
0.00431649
1.42163e-14
0.00868532
1.43321e-14
0.0517205
9.18816e-16
7.74857e-16
0.0199402
3.68207e-15
2.14416e-16
0.0242956
0.00024364
5.173e-15
1.09395e-15
0.0324407
0.00902778
0.00598492
0.000774585
0.00167646
0.0159053
0.000950678
0.00426916
1.50963e-15
0.0266195
3.82163e-14
6.12049e-14
2.83771e-15
1.00777e-15
5.18449e-14
0.00964721
7.55287e-16
1.55655e-15
3.36294e-15
4.52262e-06
7.38996e-06
6.13822e-14
0.00209563
2.7114e-14
0.00396918
1.18313e-15
1.2223e-06
0.00294938
1.45283e-13
0.0415453
2.72964e-15
1.46741e-16
3.44548e-16
0.00273848
0.00113049
4.33136e-15
6.07388e-15
0.00228667
9.15435e-15
0.608839
5.95079e-15
0.0939088
6.61528e-15
1.1657e-14
3.62204e-14
1.16316e-14
0.00918426
6.44012e-16
3.35055e-05
3.62371e-15
0.00890366
4.31122e-15
1.71667e-15
5.38615e-12
1.09196e-13
1.91538e-14
2.02517e-15
5.04733e-14
2.29594e-15
0.00379962
0.169566
3.41466e-14
7.73666e-15
0.000322605
3.852e-15
1.66945e-15
1.01592e-06
0.0156317
0.000135971
1.5744e-14
0.000623197
0.0029628
0.00492217
0.00754414
3.28636e-15
1.9302e-14
1.14165e-14
3.80782e-15
1.29954e-15
7.6008e-15
4.53019e-14
3.67976e-15
1.58146e-14
2.37862e-14
8.41056e-15
4.34153e-15
0.068564
2.37402e-15
2.99465e-16
3.85822e-10
1.48859e-15
2.39919e-15
1.00777
3.24922e-15
1.22468e-15
0.00189328
2.50343e-09
3.92893e-15
5.83838e-15
4.58588e-16
0.0209537
7.7559e-14
1.91029e-14
4.9423e-08
1.22466e-15
5.70561e-15
2.24519e-15
4.0557e-15
0.109975
2.92926e-16
0.000147218
3.5335e-15
1.89235e-14
5.16241e-16
1.72954e-14
8.98281e-16
1.50576e-08
2.88112e-08
0.000101152
3.84468e-15
5.85546e-15
5.47209e-15
8.43447e-08
1.79626e-15
2.78195e-07
8.35356e-09
1.16874e-15
8.96496e-15
1.1597e-13
4.29201e-09
1.04304e-15
6.56352e-15
2.19348e-09
1.26253e-14
0.0288218
6.19797e-16
0.00673668
2.37318e-14
2.16774e-06
5.42467e-15
0.00129683
3.51896e-15
0.0037282
0.0243282
3.07473e-15
0.00232808
1.36532e-05
9.94989e-15
0.0102067
6.02967e-15
2.0683e-15
2.61868e-15
4.34133e-16
1.01995e-14
2.84887e-15
6.17967e-16
6.13443e-15
0.268712
1.05726e-14
7.94666e-15
7.42167e-16
7.86178e-16
2.32131e-16
0.0299657
0.76565
3.03593e-06
9.74087e-06
7.64324e-17
0.00199147
0.00139188
7.50802e-16
6.04429e-16
1.31558e-14
8.78533e-16
1.82845e-15
5.92928e-16
5.44365e-15
2.91216e-14
0.000364404
1.01553e-14
3.61738e-14
0.000236402
3.75121e-06
1.61684e-14
0.0241568
1.0147e-15
1.33859e-15
3.23642e-14
0.1622
4.23604e-14
3.45154e-16
0.0250947
2.90098e-15
3.36246e-15
1.3515e-14
1.4917e-14
0.0532765
4.17584e-15
2.74972e-15
3.17087e-15
1.08248e-15
0.00561134
0.225152
0.0275485
0.0416265
0.00372836
0.000252149
7.34032e-15
1.20262e-15
0.1389
0.00122317
5.33431e-15
9.07324e-08
3.05679e-15
6.45255e-11
1.16655e-14
0.205401
4.99583e-15
3.39319e-15
0.000227794
2.29435e-10
7.39433e-16
0.00952286
1.46061e-15
6.03371e-15
0.198129
0.0296726
9.60994e-15
1.43826e-15
2.22947e-16
1.82303e-15
5.62832e-15
5.09227e-15
6.62259e-15
1.00561e-15
0.0030628
8.94057e-16
7.44861e-15
3.53555e-15
1.39453e-05
1.52868e-15
1.21612e-14
1.94705e-15
3.49137e-15
1.63853e-14
2.88169e-14
0.00336008
9.58651e-16
2.39573e-15
0.00500046
9.34645e-15
0.000358087
0.00446356
1.21342e-15
0.00342347
3.43587e-15
2.25799e-14
3.04501e-15
5.8221e-14
4.7383e-15
2.41271e-14
2.47597e-14
1.57199e-15
0.00235127
1.75291e-15
1.2021e-14
2.15286e-14
1.02559e-14
2.69831e-14
1.42736e-14
0.0354773
2.27273e-15
1.55013e-16
0.337983
2.44333e-16
3.60307e-16
1.22441e-14
0.00125784
5.16423e-16
6.0305e-06
4.67852e-15
4.85748e-05
0.00792557
1.42191e-14
8.96578e-15
0.0403631
3.41637e-14
8.78194e-16
0.000127556
7.22693e-07
0.00984122
2.30244e-06
9.15164e-07
1.40073e-07
1.91547e-14
7.91742e-15
0.0010215
0.00011885
0.0157177
0.0121094
2.85011e-05
4.79187e-14
0.00548787
0.00521376
0.0185649
3.50888e-14
0.0123056
0.0166473
0.0027695
0.00139446
0.0012618
0.00322069
0.0189676
0.0409178
0.00708656
0.0110812
0.00799352
1.14622e-14
0.0029103
0.00363626
0.000857883
0.00255998
0.0141691
0.0137852
0.0193269
1.17709e-14
0.0115341
5.01218e-16
0.00508602
0.00284928
0.000269035
0.0023207
1.02058e-14
1.64382e-15
0.0039603