/*--------------------------------*- C++ -*----------------------------------*\
  =========                 |
  \\      /  F ield         | OpenFOAM: The Open Source CFD Toolbox
   \\    /   O peration     | Website:  https://openfoam.org
    \\  /    A nd           | Version:  10
     \\/     M anipulation  |
\*---------------------------------------------------------------------------*/
FoamFile
{
    format      ascii;
    class       volScalarField;
    location    "29";
    object      T;
}
// * * * * * * * * * * * * * * * * * * * * * * * * * * * * * * * * * * * * * //

dimensions      [0 0 0 1 0 0 0];

internalField   nonuniform List<scalar> 
111485
(
303.15
285.065
300.94
303.15
298.371
283.15
298.877
293.336
296.24
286.196
300.475
296.131
300.159
284.538
299.936
286.699
299.3
297.027
293.971
303.15
303.15
283.15
297.187
288.633
301.571
303.15
293.104
300.599
288.796
303.15
300.766
294.274
303.15
283.15
283.439
283.15
302.301
297.539
283.149
296.561
283.15
289.53
296.984
302.867
303.193
303.15
287.291
288.493
289.566
303.15
303.15
283.15
303.15
298.861
303.15
293.431
287.83
283.15
283.316
295.39
295.791
303.15
302.033
300.177
283.15
284.533
300.038
291.442
302.084
302.506
303.157
301.86
303.15
302.084
303.15
295.321
283.15
293.344
283.15
283.15
283.234
293.295
283.15
303.15
300.261
284.197
283.15
301.52
303.112
299.046
283.321
289.501
300.815
300.359
289.73
303.15
303.15
301.52
303.149
283.413
303.15
286.575
283.15
285.139
285.692
283.15
283.15
293.009
301.398
283.147
298.833
287.998
301.245
301.65
303.15
301.943
303.15
283.15
300.097
303.15
303.15
283.15
283.15
283.15
283.389
303.151
283.15
301.775
303.15
283.175
303.099
301.906
303.15
283.15
283.15
292.442
283.15
294.137
298.757
301.073
303.135
296.776
298.941
284.741
302.262
297.729
283.15
303.15
283.15
297.085
284.9
303.15
303.144
287.25
283.156
293.651
295.577
302.51
283.154
303.15
303.15
292.106
286.186
283.153
283.157
301.144
283.678
283.15
283.152
283.153
283.15
303.15
283.206
283.15
291.462
287.11
283.15
303.15
303.15
283.15
303.15
303.15
297.598
293.415
295.709
289.686
301.328
300.372
283.19
303.15
301.408
303.15
303.15
300.107
286.224
301.363
301.307
295.651
303.15
300.83
284.565
283.159
300.711
297.011
303.15
300.366
288.129
303.15
283.222
300.123
284.778
300.646
303.15
303.15
300.66
283.15
292.7
283.15
300.566
298.61
290.262
303.15
301.709
300.519
283.15
283.15
283.15
289.45
283.156
283.15
303.15
298.563
291.285
289.842
283.15
303.15
303.108
303.15
284.306
300.033
299.187
299.446
299.317
283.15
283.144
298.811
283.15
283.15
288.705
288.297
283.15
301.127
298.824
303.15
283.15
301.05
303.15
303.15
303.122
303.15
288.196
285.815
290.699
303.15
298.279
303.15
303.15
303.15
283.148
297.979
300.938
299.369
291.141
299.42
296.187
283.21
290.241
291.486
283.15
303.15
283.149
292.368
298.712
286.404
303.15
297.955
297.223
298.826
302.953
283.167
297.035
299.302
302.012
283.15
283.603
283.15
283.149
303.15
283.843
290.209
286.245
303.15
283.15
297.539
285.217
303.15
303.15
303.15
284.555
290.165
301.014
284.386
292.946
283.15
283.15
303.15
298.304
303.15
283.804
289.376
283.153
283.15
303.15
303.15
283.15
294.281
289.89
283.15
295.628
283.15
303.15
300.974
297.23
293.922
295.736
283.15
283.15
283.15
296.535
290.924
302.372
283.15
283.15
283.15
290
296.889
283.21
290.399
283.15
292.716
299.495
284.176
298.553
285.209
283.15
303.15
283.15
303.15
290.596
296.645
287.89
291.868
283.15
286.291
283.15
303.15
293.74
303.15
301.695
303.15
283.15
291.854
283.15
288.7
284.597
283.15
283.964
297.95
283.15
300.106
284.652
298.783
303.017
290.974
285.951
283.15
303.15
303.144
283.15
300.948
300.766
283.15
283.15
294.67
284.331
298.125
296.862
283.15
294.971
295.997
283.15
302.039
283.874
303.15
303.15
288.177
298.526
283.15
303.15
303.15
303.15
300.706
283.15
303.15
293.9
283.17
286.865
299.895
283.15
283.15
302.605
283.15
302.441
301.387
297.756
288.374
283.15
293.826
303.376
303.15
298.569
292.203
303.15
283.15
283.302
283.15
289.927
286.047
291.563
283.15
292.788
296.508
292.981
303.147
283.15
303.15
303.15
283.168
292.647
283.15
284.296
303.131
283.15
303.15
303.15
303.15
301.845
290.439
285.937
284.171
284.283
283.15
285.646
303.15
300.666
283.15
303.15
303.15
300.606
303.15
303.15
283.151
303.15
283.15
300.611
283.15
283.15
283.15
303.15
283.15
303.15
283.15
283.656
283.15
303.128
301.854
283.737
283.15
303.084
283.15
303.15
284.671
284.641
286.056
297.435
283.15
297.409
297.521
292.202
286.754
285.222
303.15
291.675
283.15
299.801
283.15
296.714
283.15
291.991
298.464
303.151
283.15
286.735
303.15
295.435
299.02
283.15
283.15
283.15
283.15
303.15
293.603
283.15
283.15
283.236
283.15
299.753
283.15
284.751
303.15
283.424
303.118
284.615
291.819
283.15
301.406
283.15
283.15
285.634
283.15
283.254
283.15
299.614
303.15
290.569
303.15
283.15
302.378
284.433
300.025
285.6
300.023
289.405
283.15
300.571
284.506
283.15
283.141
300.249
301.551
283.15
282.488
301.009
303.058
283.124
303.15
287.514
302.151
284.37
285.33
288.121
282.601
283.15
303.15
300.529
303.15
283.543
283.15
283.15
291.687
282.696
303.149
303.114
283.15
286.201
299.55
283.15
283.15
299.571
303.15
283.15
283.15
283.15
286.089
283.15
303.15
284.777
284.203
303.15
299.675
283.15
289.177
303.15
283.15
286.08
283.15
283.15
283.15
285.328
283.15
285.39
291.882
303.15
300.302
283.436
298.627
300.924
283.294
283.449
283.15
288.871
298.385
303.15
302.245
295.961
296.817
284.683
297.381
297.145
303.15
300.173
303.133
283.15
297.074
284.796
283.15
292.292
295.641
284.812
298.707
300.587
292.254
283.15
298.855
283.457
303.15
300.551
301.95
294.017
283.15
286.43
303.15
283.15
283.15
283.15
283.299
283.15
303.15
303.15
283.15
300.393
299.18
303.15
285.556
303.15
303.15
303.15
289.96
283.415
283.15
303.15
283.15
283.15
286.763
292.301
283.15
295.056
283.138
283.15
295.223
302.194
287.707
283.15
283.15
300.21
292.014
283.15
283.15
283.15
293.889
303.15
303.15
283.15
296.168
302.346
283.15
282.352
301.646
286.488
283.15
283.15
287.415
302.956
283.15
283.159
287.099
283.745
288.712
283.15
285.65
300.205
283.15
303.15
283.15
283.15
283.15
283.15
295.592
303.15
283.15
283.15
295.203
291.732
303.15
303.15
289.723
298.332
298.232
303.15
283.15
297.899
303.15
283.818
298.775
298.282
303.15
303.15
303.15
283.15
285.996
283.15
283.15
302.699
303.15
297.731
302.242
283.15
293.977
283.272
296.353
291.901
283.416
289.668
283.15
283.15
296.796
287.982
290.754
283.15
283.15
297.489
294.864
283.15
283.884
284.55
283.463
303.15
303.15
303.15
290.658
283.15
299.991
283.15
284.339
297.511
298.425
292.19
283.15
283.15
303.15
295.298
283.15
283.15
303.096
283.15
283.15
303.15
283.15
299.244
283.15
283.15
283.15
283.15
283.15
303.15
283.15
283.171
298.703
303.15
302.52
283.132
283.389
283.097
285.473
283.15
284.416
290.457
283.389
303.15
283.149
299.667
283.15
300.188
283.14
283.144
286.147
297.408
283.205
291.815
297.977
283.15
283.15
298.987
299.73
283.15
297.256
291.187
297.543
283.15
283.243
283.15
297.847
296.973
283.15
300.014
297.623
283.149
299.714
283.15
295.542
283.145
303.129
283.161
283.16
283.15
283.15
284.406
283.15
302.962
283.573
283.064
303.147
303.149
303.148
283.15
283.15
293.737
303.15
303.217
283.847
283.15
283.15
303.154
303.149
283.15
303.165
283.15
283.15
303.15
303.15
303.15
303.15
283.36
283.15
283.15
283.15
303.157
283.299
283.868
293.391
283.15
283.15
283.327
283.15
283.15
283.15
287.182
293.51
283.15
283.15
283.15
283.15
283.15
283.15
283.984
283.15
303.15
291.469
283.15
303.15
303.15
303.154
303.15
303.15
283.15
303.171
283.15
283.678
283.145
303.152
283.15
303.061
284.356
292.005
303.15
303.129
284.418
303.15
283.15
303.15
283.15
293.965
293.369
284.591
303.148
283.15
293.16
283.15
283.15
303.15
283.15
294.776
283.15
303.15
283.163
298.076
303.15
284.353
283.15
283.56
283.15
283.15
283.15
303.15
285.794
283.464
284.073
283.15
283.15
285.591
283.15
283.15
303.15
284.314
303.165
298.481
303.15
303.126
303.127
283.15
303.129
283.15
283.439
289.035
301.029
283.776
283.165
283.15
283.15
283.15
303.184
283.15
302.891
303.15
292.527
303.15
288.664
283.809
303.15
283.15
303.15
283.15
301.754
303.15
303.15
286.359
300.505
283.15
283.15
283.15
283.15
283.15
283.15
300.756
283.566
303.15
303.15
303.157
303.15
300.137
284.39
283.15
302.087
303.15
301.586
283.15
302.558
283.15
283.148
303.152
283.309
302.087
300.17
283.147
283.15
289.295
303.15
293.3
303.15
283.15
303.15
283.15
283.15
283.15
300.753
302.029
303.15
303.15
303.15
302.898
283.15
303.15
292.807
283.087
303.15
297.458
298.301
296.433
283.37
283.15
283.15
283.15
283.15
294.565
283.15
294.706
283.15
303.055
289.775
283.15
302.851
283.15
283.15
302.723
283.148
302.908
283.15
303.15
283.15
302.372
283.15
303.15
283.15
283.148
283.15
283.17
283.15
283.15
303.15
292.935
301.063
296.01
296.94
303.15
303.115
283.15
283.15
285.639
283.15
283.158
302.835
298.749
302.933
303.15
283.356
283.15
303.15
283.15
302.987
283.311
298.297
283.15
303.15
288.005
303.15
283.15
283.127
294.973
283.148
283.15
283.15
283.149
303.15
283.15
303.141
303.15
303.15
289.872
302.98
302.988
288.944
293.179
283.15
283.15
303.079
289.014
283.15
303.15
284.712
283.15
303.15
283.15
283.15
283.15
297.247
283.15
302.932
283.15
300.416
283.15
283.15
283.15
283.15
283.15
283.15
284.986
283.15
283.15
283.15
283.15
283.15
283.15
291.928
283.15
298.368
302.924
283.15
302.333
283.15
302.502
303.145
292.247
288.727
303.15
292.111
284.749
303.106
303.15
303.14
295.029
288.604
283.15
287.827
283.15
283.15
283.15
283.15
287.455
283.15
283.15
291.591
303.135
285.274
283.15
283.15
302.521
283.15
283.181
303.15
299.862
283.15
283.15
302.818
283.15
303.178
303.15
283.15
288.989
297.991
292.652
285.616
292.454
294.029
283.15
283.15
302.263
290.526
292.708
284.378
283.15
294.357
283.15
303.15
300.682
298.726
283.15
297.383
283.15
292.7
297.157
303.15
283.15
283.15
301.742
283.15
283.15
300.451
296.087
283.196
291.159
283.15
283.15
302.784
300.47
283.15
300.599
283.15
300.454
283.15
283.15
300.758
283.15
283.225
301.569
283.15
283.15
302.417
283.15
287.845
303.15
290.258
303.15
303.15
303.15
300.901
283.15
283.15
299.483
283.15
302.981
283.15
283.15
303.15
283.151
288.138
283.15
283.15
288.002
288.181
283.15
283.666
283.15
303.15
302.406
283.703
301.527
283.15
283.15
283.15
283.15
283.15
283.15
283.15
283.15
283.15
283.15
283.15
303.15
283.15
283.15
283.15
283.15
283.15
283.15
283.15
283.15
303.15
286.886
283.15
283.15
283.15
294.632
283.15
303.15
302.87
283.15
283.15
294.634
283.15
283.15
301.75
295.111
283.15
303.684
303.604
283.15
301.437
293.884
297.474
301.441
298.098
303.15
283.15
296.384
291.694
301.384
283.15
302.118
302.402
300.832
287.98
287.264
301.021
301.751
301.754
303.15
285.825
297.493
285.483
297.195
283.15
283.15
283.15
303.15
283.15
291.913
297.88
283.15
283.15
283.15
283.15
283.15
303.15
283.15
303.15
292.073
303.105
298.974
302.836
283.15
283.15
285.362
283.168
283.15
283.15
301.723
303.15
283.15
298.117
299.475
297.484
298.581
300.76
303.15
290.979
302.565
303.15
303.15
300.266
303.15
283.15
282.999
295.492
302.94
283.15
303.15
289.507
286.115
297.129
292.113
302.35
303.15
303.135
303.15
303.15
283.15
298.968
283.15
291.724
290.379
299.64
284.728
303.15
301.896
303.15
283.15
303.15
303.15
291.419
299.402
283.15
303.15
303.132
291.703
303.025
299.308
292.734
288.263
292.842
283.15
303.15
283.15
291.164
298.247
303.151
303.15
303.15
303.15
297.432
302.56
283.15
299.933
301.092
284.832
299.473
303.15
303.15
298.632
292.894
283.15
302.893
299.652
302.602
291.899
297.26
298.184
303.15
286.93
298.16
291.257
283.15
288.992
303.15
288.331
301.016
303.15
288.642
301.237
300.059
293.108
283.151
283.16
283.237
301.562
300.873
303.15
288.761
301.439
303.15
283.15
303.15
303.208
298.692
290.503
296.713
303.26
283.149
297.347
303.15
303.15
292.717
303.15
300.271
283.298
301.278
291.474
303.15
283.646
293.139
303.15
283.073
298.626
303.15
300.654
286.203
303.15
303.15
283.973
303.15
283.15
283.15
285.872
299.183
291.101
303.15
285.176
297.4
283.15
298.798
298.834
288.904
303.099
283.15
301.505
299.629
298.799
300.033
288.604
290.69
302.48
303.15
301.513
288.656
303.15
298.81
283.15
283.15
303.15
283.15
303.15
297.395
283.15
300.483
283.628
303.15
283.785
283.15
289.773
303.15
303.144
303.15
294.053
302.996
303.116
299.804
290.346
289.374
290.524
298.337
303.15
299.326
292.107
298.878
303.15
283.856
283.439
299.187
287.106
283.502
303.15
283.15
303.15
285.283
303.15
303.346
284.656
303.391
302.953
303.15
303.15
283.15
300.5
300.653
285.448
303.083
286.949
295.609
301.86
292.443
288.085
302.064
296.046
283.15
283.15
303.15
285.768
289.63
283.15
283.15
303.15
301.967
288.629
303.15
296.348
303.15
283.155
285.146
301.154
303.15
303.15
292.213
303.15
283.296
290.547
283.15
297.11
294.563
296.08
303.15
302.695
283.15
302.657
293.338
303.15
303.15
288.733
283.15
303.15
301.769
284.415
303.15
303.15
283.15
302.323
303.48
289.428
299.638
298.084
303.15
303.159
302.579
303.15
283.15
303.15
303.15
303.15
303.15
303.15
303.15
303.15
283.15
303.15
303.15
283.336
303.15
303.353
303.15
303.164
303.15
303.15
300.877
303.674
303.15
291.883
303.15
303.15
283.15
302.542
303.15
302.124
303.113
283.288
283.15
303.15
302.559
283.149
303.15
303.15
291.305
283.15
292.529
283.15
283.15
283.153
291.152
284.802
303.15
296.582
283.15
303.793
303.133
284.29
302.58
283.15
292.104
303.083
301.632
283.15
303.15
283.15
304.15
284.788
296.843
303.15
303.15
303.15
303.15
303.15
303.15
302.334
302.804
297.543
291.935
303.15
287.093
292.584
284.943
303.209
283.15
286.857
302.747
284.725
283.148
287.419
303.15
283.379
302.916
292.469
302.841
301.847
303.15
302.239
303.15
303.15
297.907
303.15
284.455
303.15
303.15
283.15
303.15
303.15
302.84
303.15
283.294
283.15
283.15
285.782
284.847
300.905
286.055
303.15
294.51
303.15
290.363
303.15
287.1
300.635
301.448
293.236
303.15
303.15
303.15
289.747
283.15
303.15
289.5
283.15
283.15
301.791
303.15
286.132
283.148
283.15
303.15
303.15
300.619
298.137
303.15
293.355
303.032
283.15
298.567
303.15
286.365
288.168
302.12
303.15
296.261
296.727
302.946
301.858
301.623
303.15
303.15
303.147
303.15
283.15
303.15
289.502
300.172
294.252
302.103
283.15
300.33
291.334
298.197
283.59
298.255
289.539
302.14
283.15
283.15
283.15
302.188
283.15
290.402
283.15
301.219
303.162
289.656
298.012
283.15
303.15
301.207
301.183
303.15
283.15
303.15
286.38
301.409
302.973
302.322
297.954
288.381
303.15
303.15
303.15
294.172
285.93
289.722
295.806
283.94
302.952
303.15
303.15
283.15
283.15
285.385
299.571
303.15
303.15
283.15
303.15
303.15
303.15
300.205
303.15
285.304
292.105
283.15
283.246
293.285
285.649
303.15
303.15
301.861
303.15
299.163
283.147
297.493
303.15
303.15
283.15
303.15
303.15
303.15
305.121
303.15
301.812
301.105
303.15
303.15
301.584
303.15
283.15
287.185
303.098
303.15
303.15
303.15
297.88
303.15
303.15
302.381
302.474
301.749
303.15
283.15
303.15
302.021
302.499
301.493
302.521
283.15
300.622
287.424
297.384
283.15
303.15
303.15
303.15
303.15
294.273
287.514
299.653
303.15
303.15
303.15
303.15
283.15
303.148
284.744
285.111
283.15
303.15
303.15
283.148
299.511
294.754
283.15
303.15
303.15
303.15
303.15
289.546
289.59
303.15
303.15
302.396
303.15
301.447
283.934
291.789
303.15
283.15
301.166
303.121
303.15
302.972
301.279
286.781
303.15
303.15
303.15
303.15
293.217
284.129
303.15
302.672
298.001
289.171
303.15
303.15
303.15
303.15
299.525
303.151
303.15
303.15
298.211
302.594
288.287
303.15
303.15
297.691
303.15
303.15
303.15
303.15
288.737
303.15
283.15
283.15
295.876
291.003
303.15
303.15
303.15
296.972
303.146
303.15
303.15
303.15
303.15
303.382
300.826
303.15
287.273
302.634
299.342
303.15
303.15
303.15
303.15
283.15
285.631
303.15
302.843
283.15
302.158
303.15
303.133
303.15
283.15
301.943
285.516
283.15
302.824
303.15
302.401
283.15
303.15
303.15
303.151
303.15
283.27
303.15
290.764
283.15
283.15
303.15
303.15
298.796
302.352
283.15
302.384
283.15
284.097
287.895
302.687
283.15
303.155
302.98
303.133
284.378
283.156
302.979
283.15
283.15
283.156
302.052
302.272
303.15
283.15
283.15
295.099
303.15
283.15
303.15
303.15
303.15
303.107
303.043
302.92
302.425
303.15
302.896
303.15
284.778
303.15
303.15
283.15
303.15
303.11
303.15
283.15
303.15
288.254
303.15
303.15
303.168
283.15
302.763
301.908
296.606
303.15
289.095
294.113
283.752
289.795
283.15
283.15
287.153
284.294
283.15
303.862
283.15
286.358
303.15
283.15
303.155
303.15
303.15
303.011
303.155
303.15
283.15
303.138
303.15
283.15
283.107
298.659
302.688
303.15
301.807
303.15
285.662
303.152
301.133
303.15
303.15
300.993
303.15
303.15
303.15
287.631
303.15
285.103
303.15
303.147
303.15
283.15
283.15
303.15
303.15
303.15
288.63
302.53
303.15
303.15
288.526
286.454
291.084
303.15
302.685
287.613
287.485
303.15
303.15
287.551
283.15
291.829
303.15
303.153
303.149
303.15
300.481
283.15
302.311
283.15
303.15
303.15
303.15
303.15
303.15
284.301
302.222
290.968
303.15
303.15
290.497
303.15
303.15
303.15
303.15
303.15
300.1
303.15
303.15
283.15
299.403
303.15
283.15
303.15
301.329
283.15
299.904
290.704
302.671
299.968
299.387
303.15
303.15
303.15
300.804
288.416
283.15
303.15
300.265
303.15
303.15
291.901
303.15
287.412
303.15
297.77
284.285
303.15
283.15
303.15
303.15
303.15
285.199
303.15
300.44
303.15
303.15
299.646
283.15
284.709
303.15
303.15
288.024
301.538
296.35
303.15
303.15
303.15
301.555
292.178
303.15
283.15
303.15
300.628
303.15
284.732
296.229
303.15
303.15
301.097
303.15
303.15
283.15
303.15
283.15
294.471
303.15
283.15
303.15
303.15
303.15
303.15
303.15
303.15
283.15
301.505
283.15
302.048
303.15
303.15
296.041
300.424
303.15
283.15
303.15
300.835
283.15
303.15
303.15
303.15
300.685
303.15
297.592
303.15
285.804
283.15
286.678
303.15
303.15
298.47
283.15
303.15
287.793
283.244
303.15
303.15
285.046
283.826
300.799
301.697
301.143
293.103
301.703
283.824
303.15
297.624
283.15
283.15
303.15
303.15
303.15
301.173
303.15
303.15
303.15
303.129
283.168
283.15
283.552
303.15
301.977
283.15
303.142
296.013
283.15
294.451
303.15
303.15
283.15
299.829
283.905
303.15
283.15
299.858
303.15
297.636
303.15
295.2
303.15
283.15
303.15
283.15
299.364
283.15
283.222
283.15
286.142
303.15
303.15
283.15
283.15
303.15
303.15
303.15
303.15
284.835
284.687
283.15
303.15
283.231
283.15
283.15
303.154
289.806
283.535
283.15
301.46
284.844
300.433
288.116
303.15
303.15
303.15
303.15
283.15
283.15
283.15
303.15
283.15
283.15
303.15
283.15
297.195
283.15
303.15
283.15
303.15
303.15
283.273
283.15
303.15
301.913
303.149
303.15
303.15
303.15
288.654
283.15
303.15
303.149
283.15
303.15
303.15
303.15
295.269
283.15
283.177
303.15
303.15
303.15
303.15
303.15
303.149
303.147
284.085
303.15
283.15
303.15
303.149
303.15
303.148
303.149
283.15
283.15
283.15
303.149
303.15
283.15
303.149
283.15
287.655
283.15
301.755
283.15
303.154
303.15
284.571
283.15
284.417
297.316
303.15
284.653
303.174
303.15
297.322
283.15
303.15
303.15
303.15
303.15
283.15
303.15
303.15
299.075
283.15
303.15
303.15
303.15
303.15
292.268
290.073
303.171
283.164
303.15
301.787
302.302
303.15
283.15
283.15
303.15
303.15
303.15
283.15
283.15
283.803
303.15
303.15
303.2
303.151
283.15
288.796
303.15
283.15
303.15
287.976
303.15
283.15
302.077
283.15
283.15
283.15
303.15
299.583
303.15
303.15
303.15
283.15
284.469
293.502
295.132
289.484
303.117
303.012
283.15
283.15
301.015
283.678
283.15
303.149
303.15
303.15
283.15
294.462
303.15
283.15
302.971
303.15
303.15
283.774
303.15
303.15
288.33
289.465
303.15
283.15
303.15
283.15
303.15
303.15
303.15
303.15
283.929
303.15
303.15
303.15
302.918
303.15
303.15
283.15
283.15
283.15
283.15
302.931
283.15
283.15
300.909
303.15
284.729
284.886
303.15
301.075
303.15
283.15
303.15
283.15
283.15
303.15
303.15
303.15
302.65
303.15
303.15
303.15
283.15
303.15
283.15
286.326
303.15
303.15
291.518
303.15
283.15
283.15
302.398
303.15
303.147
283.15
303.183
286.597
283.15
283.15
299.131
283.15
283.15
303.048
303.162
293.26
303.167
303.151
303.153
283.15
283.15
302.627
283.439
285.749
300.827
283.156
283.15
290.972
301.541
301.441
283.15
300.188
290.632
300.108
302.188
302.71
284.646
295.413
299.165
286.206
293.255
300.078
303.15
297.963
297.506
302.772
283.656
292.271
301.126
287.273
303.15
300.96
303.15
300.675
301.456
283.628
284.952
303.15
283.15
302.279
301.645
283.146
303.173
288.487
302.667
301.779
300.773
303.15
303.235
301.069
294.897
300.408
288.795
302.899
301.639
302.187
302.253
284.195
302.484
301.55
283.177
303.15
302.886
303.15
303.15
302.061
301.969
294.214
303.15
284.644
292.2
292.264
300.748
303.15
283.977
285.15
284.377
303.15
298.733
303.15
296.379
295.26
300.667
303.141
303.15
303.15
301.903
301.212
302.77
303.15
292.538
302.735
289.899
283.15
298.336
293.916
303.15
300.497
283.15
283.202
283.15
302.542
303.092
303.15
302.979
298.312
283.148
300.483
302.203
295.277
283.524
295.738
296.976
283.447
303.132
284.718
296.314
283.314
296.738
300.439
300.188
300.309
301.954
289.567
301.533
303.15
302.711
302.641
302.652
296.52
302.888
283.15
301.987
293.388
303.15
283.422
286.792
301.172
302.575
290.45
284.788
287.618
302.601
296.315
303.15
303.15
294.934
283.15
292.593
283.419
303.15
290.497
290.218
283.893
303.15
297.211
298.502
284.211
301.193
294.132
290.108
300.488
303.111
303.15
303.15
283.516
302.595
283.339
285.756
303.15
303.017
303.033
303.15
285.37
300.836
297.791
283.241
299.469
302.341
300.449
286.855
283.15
303.103
301.774
283.724
283.134
303.15
303.07
303.15
303.15
284.162
302.518
296.389
283.033
283.153
303.15
283.15
302.948
303.04
302.485
301.375
303.15
283.15
283.15
301.793
301.85
283.209
295.89
303.15
303.15
301.583
285.465
283.256
301.647
301.753
301.689
284.371
303.15
283.15
298.466
297.691
303.15
302.684
302.048
284.603
284.939
302.083
303.056
303.15
298.109
284.394
283.15
303.15
300.556
301.175
301.982
289.545
302.042
285.625
300.108
300.291
290.279
297.48
303.15
303.15
300.89
284.437
302.059
283.151
300.432
301.667
283.618
288.238
302.397
283.15
283.15
283.029
303.15
303.15
299.907
298.879
302.255
283.148
283.15
283.912
283.151
283.15
283.151
303.075
300.875
299.091
295.804
283.361
303.09
300.077
303.15
283.15
302.533
289.177
300.765
292.65
283.501
303.056
283.148
283.15
302.823
301.169
302.592
283.155
291.135
284.858
303.15
284.234
300.994
283.15
283.303
284.918
284.062
283.15
283.15
301.607
283.15
289.309
302.51
302.686
301.762
283.466
298.057
289.902
283.15
303.354
292.016
283.15
283.15
283.15
303.15
301.192
302.393
299.107
301.425
299.893
288.799
283.154
290.922
290.099
303.057
290.975
299.96
292.011
283.15
286.27
301.034
301.538
283.15
283.971
299.626
283.15
303.15
283.186
301.234
303.15
283.99
302.251
303.015
303.15
283.15
292.722
303.153
301.661
283.15
283.15
283.15
302.16
297.483
303.144
302.168
303.167
303.15
288.32
303.167
290.382
300.171
300.129
296.527
283.156
301.661
283.15
290.516
301.375
289.382
290.425
298.909
300.66
301.558
287.12
291.085
284.965
283.171
302.189
286.085
283.15
283.144
300.147
283.081
300.245
286.942
296.036
299.376
289.123
299.222
283.122
299.15
283.15
289.925
288.802
298.586
283.325
283.15
300.502
283.15
302.783
283.15
303.15
286.423
286.429
283.15
298.93
298.56
286.967
303.15
303.15
301.675
289.729
302.979
283.717
301.538
287.028
303.147
284.167
288.109
303.15
301.382
283.15
283.15
287.504
286.973
283.145
285.218
301.459
286.178
301.221
303.15
285.081
301.712
291.138
303.15
303.15
301.576
302.016
303.15
292.944
294.233
283.655
296.335
286.734
289.937
303.15
302.735
296.971
284.955
283.15
287.664
291.822
299.564
283.161
283.739
282.96
301.919
303.113
283.151
303.132
303.15
300.539
292.95
298.774
293.761
283.15
291.885
295.854
285.534
283.211
291.237
283.15
300.286
303.165
292.445
284.083
303.143
291.786
298.543
288.184
300.336
291.278
287.265
283.15
303.141
285.3
289.825
293.375
283.15
283.15
283.15
303.14
283.15
283.137
286.366
303.15
283.15
303.168
283.172
291.071
288.658
303.568
302.904
289.787
303.15
296.92
303.178
301.984
287.216
283.15
292.85
303.144
303.091
286.14
283.15
283.15
283.462
285.956
303.049
303.143
287.466
289.417
283.471
283.162
289.783
293.158
303.15
283.15
303.094
303.15
302.313
284.973
302.324
303.091
284.041
283.761
284.027
302.855
302.146
297.362
293.98
303.066
291.177
290.969
303.15
303.095
302.568
285.389
283.373
303.15
285.897
283.38
302.925
301.686
302.148
283.15
300.295
301.827
303.15
302.123
285.361
303.15
297.83
303.15
283.15
300.663
302.664
286.263
302.473
283.15
285.136
303
283.15
302.279
285.322
294.795
284.307
303.15
303.015
302.878
286.45
283.15
287.069
284.231
289.701
285.69
302.228
303.15
283.15
283.15
293.079
283.15
301.023
302.135
290.296
283.15
293.986
283.15
303.15
283.15
300.074
298.506
283.151
285.231
301.721
303.061
303.154
291.779
294.124
301.156
283.196
301.794
283.145
303.15
303.144
298.827
283.15
300.586
294.7
303.15
300.914
287.241
301.949
284.864
288.135
283.15
302.194
287.651
298.371
303.078
283.15
303.15
291.595
302.134
283.079
283.147
286.702
298.249
303.149
284.417
300.979
300.95
301.206
303.153
299.834
287.563
284.876
301.547
299.828
283.703
283.107
303.16
303.149
303.15
297.287
283.163
283.15
303.15
303.149
289.831
298.873
300.246
287.702
302.786
303.15
286.378
301.563
303.15
300.922
283.783
301.417
303.15
284.521
301.364
295.487
302.757
303.15
303.15
285.127
295
296.301
287.315
303.15
303.15
283.15
287.137
302.373
296.087
303.15
285.514
303.15
303.15
300.436
288.644
283.15
295.462
295.795
299.048
283.15
303.15
292.592
287.147
303.15
297.877
300.46
300.362
303.15
303.15
303.15
300.168
298.261
302.778
299.83
283.15
292.817
287.586
290.521
300.51
303.15
303.15
300.71
303.09
286.478
296.005
303.15
303.147
283.15
286.379
298.837
285.523
303.15
303.15
283.333
303.121
303.15
303.15
283.15
290.442
303.15
303.15
284.551
299.246
283.15
303.15
284.578
301.276
300.098
286.92
294.913
303.15
283.489
303.15
303.15
283.309
300.479
290.332
300.33
303.15
303.129
302.136
292.51
299.695
301.285
284.412
283.447
300.844
298.312
303.15
302.74
284.113
299.67
301.335
287.597
303.15
297.342
301.365
301.452
301.494
292.821
303.15
283.15
299.094
283.15
283.15
287.673
283.15
283.983
283.15
283.15
283.15
283.15
302.735
288.073
302.683
283.15
295.594
290.859
284.698
283.15
303.15
302.657
301.694
303.16
302.613
283.15
294.723
300.195
290.081
283.15
283.15
299.725
285.876
283.15
283.15
303.149
290.48
283.15
287.06
303.149
303.152
284.278
283.15
288.127
291.947
300.76
294.55
302.945
285.557
302.481
295.14
286.195
283.15
283.53
291.49
303.066
288.977
302.634
283.15
292.294
287.671
300.982
301.273
284.864
303.098
284.865
296.928
302.982
303.145
285.081
303.145
302.999
293.175
302.677
283.15
303.15
303.15
294.635
290.906
283.155
301.011
284.636
284.119
284.578
303.145
288.257
300.394
283.15
283.15
302.473
303.15
294.418
302.883
303.183
299.701
303.225
302.869
283.15
301.242
302.865
283.15
303.15
301.273
303.15
284.286
298.638
283.163
291.414
283.15
287.498
303.005
299.684
283.15
303.017
290.816
301.172
303.123
303.076
283.15
283.15
301.924
301.963
283.781
302.802
302.387
302.353
303.141
283.15
293.61
283.15
302.778
287.784
302.978
303.15
283.15
302.803
285.081
291.398
302.013
283.15
302.557
301.954
301.513
302.456
303.04
303.213
303.002
303.15
283.15
301.47
297.742
303.086
303.15
289.825
284.797
303.15
283.15
285.262
303.184
303.166
302.906
301.067
284.234
303.094
290.65
294.143
303.148
288.939
303.165
283.15
289.771
283.15
299.877
298.022
284.743
288.076
299.508
296.624
295.18
299.07
293.62
303.154
293.8
296.243
283.162
299.276
293.772
303.15
298.839
299.033
303.15
291.081
303.171
301.613
303.15
286.84
285.965
302.779
289.579
283.15
283.15
300.257
301.145
283.704
283.15
303.15
300.147
302.285
300.562
299.792
302.767
292.471
289.553
286.561
292.397
284.264
290.288
283.301
295.653
290.333
293.808
287.022
284.248
303.164
283.27
303.148
285.525
300.632
283.151
300.393
298.356
288.64
302.078
285.346
298.965
283.15
302.942
283.154
283.119
287.484
299.54
303.15
300.304
303.014
299.845
302.742
303.15
301.193
284.906
294.816
302.003
303.149
283.686
283.15
290.208
285.192
285.687
303.122
303.148
283.15
283.15
283.175
303.15
293.335
303.15
303.146
293.784
303.435
303.15
300.384
303.15
303.15
293.536
290.488
303.15
289.736
302.018
289.467
303.15
303.15
285.821
283.33
290.218
303.228
303.15
303.145
285.407
283.238
283.15
288.868
287.48
303.15
284.271
303.15
303.15
303.131
287.256
303.15
303.147
283.268
303.152
302.633
287.836
283.153
283.575
297.325
290.615
303.15
285.876
284.395
301.269
287.03
302.153
290.482
293.727
303.15
303.15
283.977
303.146
302.937
295.843
302.937
302.72
287.091
283.15
285.265
283.215
297.03
302.575
285.318
303.15
283.766
286.643
303.123
283.175
303.15
286.326
283.15
300.099
303.15
299.622
299.733
283.295
283.352
302.295
290.727
301.345
303.15
301.334
301.695
303.15
303.15
298.229
293.3
283.15
288.684
303.15
295.186
283.347
303.15
296.785
298.646
288.901
303.15
302.735
294.11
295.276
284.421
303.161
298.595
296.003
283.956
303.121
302.786
287.281
298.333
289.721
290.693
289.644
283.15
302.934
303.151
303.15
303.177
292.974
296.194
302.97
301.222
303.15
284.41
303.15
303.035
302.842
303.15
293.422
296.151
303.15
285.314
303.093
303.15
303.085
303.159
285.991
293.228
290.987
288.312
293.32
303.15
301.153
291.323
295.208
293.321
303.14
303.15
300.474
303.191
284.209
303.192
303.15
303.15
303.143
303.15
284.879
303.15
284.177
303.146
303.15
290.077
303.144
292.37
295.388
303.133
295.223
285.923
283.432
303.123
302.932
284.643
283.15
297.004
303.15
285.44
302.894
302.001
303.016
298.413
286.955
303.15
298.604
289.803
299.211
283.15
283.604
303.15
303.145
303.191
293.98
303.15
292.304
289.22
303.196
303.15
284.725
298.664
293.119
299.497
302.444
301.576
300.305
303.15
284.671
296.94
302.345
285.541
298.318
292.151
284.419
291.535
303.15
286.516
291.71
290.029
299.34
303.15
286.371
284.059
303.15
302.402
288.05
302.078
283.15
303.15
299.747
301.642
288.897
301.94
301.913
301.766
303.15
289.223
285.066
301.915
302.198
297.021
303.15
283.199
303.15
301.94
303.15
302.783
303.15
291.565
303.15
296.403
283.15
289.379
303.15
283.15
292.109
301.394
300.341
289.093
300.425
303.15
302.463
303.15
302.348
285.164
303.15
300.327
290.281
303.15
300.736
303.15
303.15
293.098
283.15
285.471
293.11
300.853
303.15
291.059
293.72
288.078
289.56
288.022
299.154
300.241
300.723
287.293
287.012
301.2