/*--------------------------------*- C++ -*----------------------------------*\
  =========                 |
  \\      /  F ield         | OpenFOAM: The Open Source CFD Toolbox
   \\    /   O peration     | Website:  https://openfoam.org
    \\  /    A nd           | Version:  10
     \\/     M anipulation  |
\*---------------------------------------------------------------------------*/
FoamFile
{
    format      ascii;
    class       volScalarField;
    location    "25";
    object      SgP;
}
// * * * * * * * * * * * * * * * * * * * * * * * * * * * * * * * * * * * * * //

dimensions      [1 -1 -3 -1 0 0 0];

internalField   nonuniform List<scalar> 
111485
(
1.72741e-09
1.69151e-06
5.53599e-07
5.84811e-12
1.41101e-07
2.50871e-09
2.69213e-07
1.06826e-08
2.58266e-07
2.42135e-08
5.06948e-07
2.08958e-08
1.32418e-07
0.00517141
1.32943e-07
2.69371e-07
0.00378778
1.60614e-05
1.67196e-08
2.51665e-08
0.000692779
2.32495e-10
5.03188e-08
1.7651e-07
9.06596e-07
2.16956e-09
2.11152e-08
3.23958e-07
4.89641e-08
0.000902583
6.47462e-08
3.63529e-09
6.32648e-09
2.55527e-08
1.34889e-05
1.80201e-06
0.00241808
0.00380639
4.26755e-05
7.04023e-08
0.00072233
1.62885e-08
5.38009e-08
2.02658e-06
2.9134e-07
3.90992e-08
1.22405e-07
1.50865e-08
1.29234e-07
1.45277e-08
2.93051e-08
3.57722e-07
1.0457e-08
1.76251e-07
3.48828e-08
1.06459e-09
2.82479e-08
4.18566e-10
8.74174e-07
8.61451e-09
1.8818e-08
5.81941e-09
1.83325e-06
1.07229e-07
1.50085e-07
5.4944e-07
6.81648e-06
2.53165e-08
1.3983e-06
3.03924e-06
9.57347e-07
2.02876e-06
2.15036e-07
1.73561e-06
5.78043e-09
2.83337e-09
1.11076e-09
1.47293e-08
1.98222e-09
4.65486e-07
0.00496748
0.00922216
9.26244e-10
2.18249e-09
3.27072e-07
7.5072e-07
0.00249481
1.40715e-07
4.38187e-06
1.49884e-07
2.90972e-08
1.2675e-07
8.97407e-07
7.73575e-09
3.98723e-08
4.23961e-10
0.000505061
2.71953e-07
2.96785e-05
8.28584e-06
4.95737e-10
5.61017e-08
3.54573e-08
2.27662e-07
1.29464e-07
2.52872e-07
1.91596e-10
3.54626e-09
2.55176e-07
1.17395e-05
9.30765e-07
2.11518e-08
2.45736e-07
1.36319e-06
5.63536e-09
7.08303e-09
1.5572e-09
1.64877e-07
4.65994e-07
1.58092e-10
1.1498e-09
3.36053e-06
0.00124904
4.51686e-08
8.27087e-07
0.000530969
1.97715e-06
3.29288e-07
1.75374e-11
5.56419e-06
2.83735e-06
3.6691e-07
0.000884789
3.17078e-06
1.47667e-06
3.564e-09
2.00475e-10
1.17319e-08
2.26262e-07
4.12198e-07
1.36951e-06
2.58399e-09
0.0031697
1.74332e-06
5.9333e-07
5.97911e-08
2.30558e-10
8.09608e-10
2.22189e-09
1.97075e-08
6.02029e-07
0.000530748
0.00197815
2.40264e-07
1.18403e-06
1.50687e-09
7.41209e-08
2.98801e-06
1.61701e-05
1.09077e-07
6.79113e-11
5.25795e-09
7.24388e-07
1.1181e-06
1.3478e-06
1.01379e-06
1.19883e-07
0.000451772
2.74988e-05
2.20734e-06
4.09121e-11
2.10579e-09
0.00347408
2.7231e-11
5.15796e-09
7.02895e-08
7.93961e-09
1.63155e-07
4.08893e-09
9.87238e-08
1.49427e-07
4.99708e-09
2.6405e-08
7.30188e-09
5.01096e-08
4.14183e-07
1.95825e-07
8.15847e-07
6.43689e-06
5.52921e-09
1.17278e-06
9.08184e-08
1.31601e-07
3.7711e-07
1.111e-07
2.33645e-07
6.23562e-08
2.74384e-08
2.00859e-08
1.54323e-07
3.51319e-08
2.79639e-05
1.44794e-06
1.11904e-08
3.05504e-08
1.07759e-07
2.17799e-07
1.99752e-07
2.89907e-07
7.29389e-08
8.28648e-08
1.39565e-07
1.41364e-07
1.19258e-10
1.61284e-06
5.05227e-06
7.09297e-09
2.9564e-10
2.22214e-07
3.69942e-07
1.77734e-08
1.35316e-09
3.6602e-07
2.65984e-07
5.06248e-06
1.16083e-10
2.21974e-11
6.61211e-07
7.37699e-05
4.08715e-07
1.72713e-06
2.88291e-07
2.41753e-08
0.00255597
6.51643e-07
2.14186e-07
0.00284593
1.38357e-09
1.05475e-06
5.04776e-07
4.58035e-07
6.0531e-07
1.12295e-07
7.49336e-08
3.31029e-05
7.22876e-09
1.44423e-07
1.48146e-09
1.0774e-07
0.00240113
3.57471e-07
3.71571e-07
3.97588e-07
2.51456e-11
3.63318e-06
1.53999e-08
5.71071e-09
1.21327e-06
0.00180445
1.55855e-09
1.11261e-07
1.07294e-06
1.87795e-08
6.55611e-11
1.21984e-07
1.52102e-11
9.69917e-10
1.24519e-08
0.00296974
6.6017e-08
5.58044e-07
1.8027e-08
0.00311021
3.60914e-07
1.68999e-08
4.25202e-06
7.26481e-08
2.6111e-08
9.41898e-09
1.83043e-09
0.00203509
8.97006e-09
7.758e-07
4.30984e-07
2.76956e-11
0.00382566
0.00466911
3.38528e-08
6.15881e-06
5.90869e-07
5.75492e-08
1.42336e-07
2.44379e-07
1.64565e-10
1.3252e-07
3.26136e-10
6.31581e-06
4.94268e-06
2.86929e-07
3.58878e-08
0.0060602
6.05214e-09
0.00144089
1.37986e-08
1.28008e-07
2.31621e-10
2.20253e-09
0.000461982
6.46917e-08
3.12228e-08
1.29706e-07
2.96497e-06
7.79829e-09
4.5742e-07
7.73377e-10
3.91399e-09
8.73705e-08
7.45481e-05
0.00441218
5.87567e-08
1.39249e-05
1.7574e-10
1.0259e-09
4.4902e-10
1.49247e-06
2.65735e-08
1.48953e-08
5.71653e-08
1.31675e-08
1.3213e-06
0.00112862
9.8448e-08
9.79078e-09
5.58291e-08
3.1052e-08
0.000795766
9.2703e-07
1.07582e-08
1.57397e-08
1.18497e-08
2.35278e-07
2.71213e-09
0.00264749
4.35477e-06
8.52486e-09
6.66892e-08
4.86127e-06
1.18811e-08
0.000652054
2.6371e-09
2.07575e-07
1.05706e-07
8.89295e-09
3.59761e-07
1.75631e-07
6.85699e-09
9.12734e-09
2.06926e-08
5.20782e-08
0.00634265
5.44368e-07
1.40952e-09
0.000882312
3.24483e-07
4.2002e-10
8.77525e-09
2.12284e-09
0.000880216
1.23603e-05
0.000856222
0.000824261
6.28506e-09
2.16558e-10
3.0075e-08
5.10649e-08
3.46359e-11
1.79602e-07
4.5257e-08
2.82834e-07
4.9339e-07
2.54382e-06
8.22366e-08
1.25746e-05
2.31906e-08
8.214e-08
8.92451e-07
1.22994e-08
1.25901e-05
5.51639e-09
2.33951e-07
5.78706e-08
0.000503801
1.99465e-09
1.28858e-09
0.00272065
1.36529e-07
0.00538809
7.80699e-09
1.12873e-07
6.19083e-08
1.3185e-10
9.74961e-08
8.28277e-07
1.69078e-09
0.00059692
7.681e-08
4.94693e-08
1.66372e-08
3.23779e-10
1.31568e-05
3.50123e-10
1.60055e-07
6.68817e-08
1.73026e-12
1.675e-08
9.09611e-07
0.00433048
2.60098e-06
3.90535e-11
1.44089e-06
1.75428e-06
1.76832e-06
6.66676e-07
1.17817e-05
4.48896e-08
1.95427e-05
9.5064e-07
0.00371135
4.17482e-06
3.8349e-09
1.34768e-07
2.61609e-08
1.94483e-09
2.4332e-05
3.90956e-06
1.38888e-06
2.95845e-08
3.12036e-08
2.43099e-07
3.65218e-09
0.00636297
3.58917e-08
6.2077e-07
8.45011e-05
1.68903e-06
2.48974e-05
1.23007e-09
0.00449313
0.00601472
4.13317e-10
6.5153e-07
5.25317e-06
2.00012e-06
6.19441e-11
4.74382e-07
4.34161e-10
0.00501141
1.37986e-06
3.71197e-07
2.08227e-06
5.3853e-07
4.64731e-09
8.49084e-08
1.35134e-08
1.3322e-06
2.93153e-09
1.79444e-08
0.000977563
1.74006e-06
1.79657e-09
2.05281e-09
7.30754e-06
1.54089e-09
3.14536e-08
7.99514e-08
6.74819e-11
1.06169e-06
1.66767e-09
0.00138479
8.48722e-09
4.47087e-08
3.12645e-09
4.26515e-06
8.87437e-09
0.00396976
3.97163e-07
0.00416113
4.54585e-10
1.14195e-06
4.68536e-08
6.07398e-11
0.00646762
0.00251447
5.31881e-07
6.99332e-08
5.6491e-07
1.50362e-08
2.54772e-07
6.50741e-09
6.96197e-07
0.00507392
1.0568e-09
2.20881e-08
1.95673e-06
3.25748e-07
0.000986903
1.04913e-07
2.01658e-06
3.09783e-08
2.79168e-08
1.29907e-05
0.00136538
2.407e-07
9.65172e-09
2.21041e-08
7.73767e-08
6.03232e-08
2.31133e-08
4.04695e-07
2.103e-11
3.08399e-05
2.07044e-09
6.51422e-09
4.78967e-09
1.78639e-06
4.99926e-10
1.48226e-07
4.11987e-09
1.64022e-07
1.27024e-09
0.00205259
0.00198847
4.44805e-07
6.8558e-09
0.00108549
0.00150776
5.78802e-09
4.16486e-09
2.69905e-07
3.84585e-09
2.70513e-06
2.91306e-07
2.31212e-07
0.000795454
3.85266e-08
9.16598e-11
8.22784e-07
7.97761e-07
1.13202e-06
2.18935e-08
3.40618e-07
2.60803e-07
2.63575e-08
1.87721e-08
4.11512e-07
6.29343e-07
1.5289e-10
0.00225795
1.31299e-06
8.71465e-07
3.44919e-08
2.0734e-05
6.30627e-07
8.70066e-06
4.06469e-05
6.15355e-06
4.57099e-08
1.68199e-06
2.27837e-07
4.2705e-07
0.00205418
3.52989e-06
1.31274e-06
6.54144e-05
0.00135811
5.90743e-09
1.14821e-06
8.13619e-08
6.15297e-07
1.14566e-08
8.8077e-06
4.90736e-05
9.24489e-06
2.91755e-06
4.65716e-07
1.98352e-08
6.25931e-09
3.41923e-06
2.87058e-08
1.45105e-09
5.32646e-11
9.05968e-09
7.85158e-10
3.95431e-07
3.0078e-11
0.000651098
2.74521e-07
6.28935e-07
0.00181064
0.00561901
1.01718e-06
3.10544e-08
0.000691466
6.91669e-10
3.92549e-07
3.30092e-09
9.90512e-09
8.01877e-07
4.46542e-07
0.00208421
5.17115e-07
3.96097e-09
6.43743e-08
6.0224e-07
0.00253006
1.4163e-07
5.37175e-07
1.03923e-06
0.00345416
0.000696071
5.4409e-08
3.36773e-07
1.31935e-07
4.32092e-08
1.52595e-07
1.69304e-08
6.47426e-07
7.31038e-08
3.53056e-08
2.15248e-08
7.54528e-08
1.27679e-05
5.43832e-07
6.47841e-08
7.46805e-08
1.2282e-05
4.56962e-09
9.39455e-09
2.93541e-07
8.66752e-08
3.01687e-07
2.10752e-08
6.88858e-08
4.06127e-08
5.4178e-07
3.14899e-06
2.87343e-07
5.76279e-07
3.19667e-08
9.50975e-09
7.66616e-07
9.93216e-08
2.13297e-09
0.00129589
6.27114e-10
0.00241349
1.00966e-06
0.000236182
1.31617e-08
0.000492524
8.31547e-08
2.20515e-07
3.24542e-10
1.86231e-07
5.99921e-09
4.14021e-10
2.01032e-08
0.00498007
2.17234e-06
5.63585e-07
0.000762504
2.27953e-09
4.1467e-10
1.1367e-07
3.12639e-08
1.48933e-06
9.76818e-09
2.40136e-06
6.48509e-10
1.32271e-07
2.30885e-06
0.00299905
9.14658e-12
3.67916e-09
2.91918e-08
3.68355e-10
2.27488e-06
9.10416e-09
0.00104538
1.39361e-08
1.12909e-09
4.4779e-09
0.000759272
9.03279e-08
2.85149e-06
1.86782e-11
8.43546e-05
1.55559e-05
0.00322875
2.53232e-10
2.55929e-09
8.36403e-08
4.74803e-07
7.5154e-07
9.5758e-06
6.44161e-06
4.5942e-06
1.04162e-07
0.00105399
5.30256e-07
1.99784e-08
1.45571e-09
2.48187e-08
4.94489e-09
3.76946e-09
1.14111e-09
2.62881e-11
3.4295e-08
1.3623e-09
8.44559e-09
1.9777e-08
3.06493e-09
9.16419e-09
4.71663e-09
1.48663e-08
4.58845e-09
3.24239e-07
3.21656e-07
8.77602e-09
7.26389e-10
4.54513e-07
2.15628e-11
1.55246e-06
3.42586e-08
8.49562e-08
2.98245e-09
8.31751e-11
2.187e-10
4.53172e-11
3.21405e-07
2.07641e-09
1.18409e-08
3.86444e-07
2.21044e-10
2.69844e-07
1.41954e-06
6.97132e-08
1.47154e-08
9.45466e-06
5.5168e-08
0.004437
1.99994e-06
2.05874e-07
0.00376574
1.47772e-06
1.48019e-07
5.34527e-07
1.07264e-08
3.44557e-07
0.00169284
1.23287e-05
1.54297e-08
3.9163e-09
2.46391e-07
1.53659e-06
1.76722e-06
1.36579e-06
7.4605e-11
4.73745e-13
1.2555e-08
6.73028e-07
6.63716e-08
6.96049e-08
3.28785e-06
4.43214e-08
6.25032e-07
1.72894e-10
2.85845e-09
0.000558339
2.00517e-07
5.03504e-09
2.09489e-09
8.89065e-07
2.26559e-06
3.38362e-08
8.19116e-09
0.00075998
3.6114e-11
5.75113e-07
0.00106068
6.4654e-10
0.00125285
7.65049e-07
0.000617688
8.85885e-06
5.53764e-09
5.23928e-07
3.35601e-07
0.000852494
9.90785e-07
2.26079e-05
0.00285741
2.06355e-06
2.59333e-07
2.1122e-08
1.12036e-08
0.00855535
0.00286175
3.18704e-09
0.00418726
2.85309e-07
2.94463e-06
6.96078e-07
3.71163e-07
2.07926e-05
7.00314e-07
2.56234e-07
1.28552e-07
1.43409e-08
2.61417e-08
0.000765769
3.55968e-09
1.08755e-06
6.56022e-07
9.86683e-10
8.14788e-08
0.00383098
9.86573e-08
6.25047e-09
1.06508e-05
8.16174e-10
2.15974e-08
0.00388322
7.8298e-09
0.00330206
0.00626426
2.28628e-05
4.15922e-07
1.87321e-08
6.21849e-08
1.0515e-06
4.62847e-06
2.04297e-05
5.39661e-06
7.88585e-08
0.0007628
1.98389e-06
5.98909e-10
6.38535e-06
5.20046e-06
1.15456e-05
8.35926e-06
1.60008e-05
3.06261e-06
1.05307e-10
1.31374e-06
6.85219e-09
1.38051e-08
2.66226e-05
0.00614129
4.34627e-09
5.60853e-09
5.7246e-05
6.28053e-05
4.21613e-11
1.12201e-05
9.87824e-09
2.28807e-10
3.46038e-10
7.70219e-09
1.06194e-07
8.23765e-09
1.36571e-06
0.000856368
5.60503e-11
1.36597e-08
7.90945e-05
0.00205623
1.44619e-06
1.13317e-09
0.000544609
6.93435e-11
2.4662e-06
5.4188e-10
8.54131e-10
1.0765e-05
0.0022923
3.05397e-08
2.00254e-09
3.27244e-09
0.000593824
8.51232e-09
0.000388429
4.64574e-09
2.16007e-06
1.33797e-10
3.85513e-05
4.33937e-08
4.30219e-11
1.79255e-08
9.88695e-09
2.73157e-05
1.61144e-08
3.57541e-09
3.52937e-08
8.49968e-05
0.000907104
1.33049e-06
1.05054e-05
2.04189e-05
4.01355e-09
2.24946e-05
1.80502e-07
3.58641e-09
4.96252e-08
4.27674e-06
3.77641e-07
4.61269e-09
1.56517e-07
2.78454e-06
4.13903e-09
1.15105e-08
1.62594e-08
3.25947e-07
0.00125653
9.61518e-11
1.56846e-09
0.00101243
2.12039e-06
1.36389e-06
2.91725e-10
2.32162e-08
2.85989e-09
1.96293e-08
4.46845e-07
1.06517e-06
1.77934e-08
4.72049e-07
4.42207e-07
1.46766e-06
3.91865e-07
9.25528e-11
6.24094e-08
7.86863e-11
1.35184e-08
1.63288e-06
3.01838e-06
3.63824e-09
8.66444e-09
1.81872e-08
8.88151e-11
7.82119e-07
9.30565e-09
1.25795e-06
1.53378e-05
1.44274e-06
4.7416e-09
2.69054e-05
2.10332e-06
1.33301e-06
2.79284e-06
9.00572e-10
2.69478e-06
6.3163e-08
0.00206711
6.17103e-07
1.7992e-06
8.94993e-09
1.292e-11
1.28665e-09
0.00328403
0.00125597
9.86441e-07
8.16706e-12
2.40506e-06
6.44782e-10
0.00304137
3.36803e-06
1.51436e-08
2.53313e-09
4.84893e-08
1.55982e-08
1.68997e-06
4.40954e-08
2.09732e-06
0.00555606
9.15582e-08
1.28983e-06
5.24636e-07
1.33909e-06
9.22657e-07
7.90845e-09
1.17032e-11
7.94203e-08
5.70116e-07
4.74917e-09
3.75451e-09
1.07195e-05
6.84345e-09
5.6937e-08
0.00743183
2.70825e-08
1.21895e-06
1.23999e-11
8.06079e-08
3.77334e-09
0.00584274
3.89983e-10
0.00214941
0.000105699
2.33058e-06
3.2943e-07
3.03482e-07
1.78069e-05
4.60095e-08
8.50594e-08
4.8295e-08
8.75399e-09
1.29185e-08
3.82991e-08
1.52513e-06
5.64429e-08
0.00118882
4.63507e-09
9.72697e-08
5.78114e-06
9.31129e-11
7.33595e-06
4.58236e-09
8.52305e-07
1.41003e-05
2.34822e-09
4.07245e-09
1.16997e-06
9.79887e-09
1.77941e-07
0.00336305
9.82901e-09
1.82438e-07
1.32547e-10
0.000778554
1.59075e-07
1.22199e-08
1.14385e-08
8.10076e-08
1.32958e-07
1.41588e-09
0.00270473
2.04776e-08
5.05002e-11
2.28249e-06
8.18956e-09
1.35398e-10
8.20405e-07
1.58915e-05
1.46552e-05
4.40392e-10
3.411e-08
8.4232e-10
9.63741e-07
8.68376e-07
0.000643251
1.06207e-07
1.44322e-05
1.25367e-06
2.06223e-05
5.23357e-07
5.39149e-08
2.20052e-08
1.30722e-08
1.4219e-06
3.98634e-08
1.41824e-07
0.000820171
5.21436e-06
0.000801461
4.27139e-11
1.78984e-07
1.79687e-09
1.40723e-06
1.69096e-06
1.154e-07
8.81933e-07
8.56911e-06
2.69686e-06
1.54365e-11
0.000116925
0.000144139
1.87035e-06
7.71326e-07
2.02781e-08
1.58713e-05
3.6935e-08
7.27041e-08
7.13184e-09
1.18332e-09
4.38111e-06
1.53411e-07
1.63798e-05
1.51736e-08
0.000792904
1.13332e-05
1.60566e-08
1.97355e-08
1.11178e-05
5.87937e-08
0.00104031
0.00493553
2.31101e-06
4.22465e-06
1.10892e-07
6.6246e-10
5.00211e-10
2.90919e-09
1.22212e-06
8.53246e-08
0.000582786
0.00102664
5.65931e-07
5.89076e-09
5.69187e-06
0.000704138
4.6139e-07
2.10951e-05
4.41815e-05
0.00073921
0.00215104
0.000859547
2.62576e-06
1.58431e-10
3.59055e-05
3.17436e-08
3.49394e-09
4.58644e-09
5.50798e-09
5.21695e-07
1.30147e-09
3.30583e-09
1.58436e-06
2.33848e-09
2.47158e-10
1.71506e-08
3.36118e-09
0.00100099
1.238e-07
6.14738e-07
0.00129165
0.00464965
1.99504e-09
0.00333591
3.18511e-06
0.00709186
1.28991e-07
1.36752e-09
1.94077e-09
8.08146e-07
0.00464568
3.77176e-11
2.28618e-05
3.29241e-09
9.07592e-08
2.9005e-07
2.30422e-07
2.64892e-08
5.83679e-09
0.00131168
2.59056e-09
1.35659e-07
4.75336e-09
9.23029e-09
9.99561e-09
8.88272e-06
2.14142e-06
1.98462e-08
6.56681e-06
3.94109e-07
9.8978e-09
2.31477e-06
2.20646e-08
7.11732e-07
3.79566e-09
2.31933e-09
0.00450944
0.000743948
7.85745e-06
6.01304e-09
6.76299e-10
3.05669e-08
0.00344443
6.25136e-09
2.0668e-07
1.47512e-08
4.25149e-08
5.33763e-10
0.000597729
2.36684e-06
3.0978e-09
2.0179e-08
3.20997e-07
3.14941e-09
0.00317959
3.63065e-10
0.000756226
1.47296e-06
9.37355e-08
3.06384e-10
3.87221e-08
2.49542e-08
2.20431e-09
5.03715e-08
7.4965e-08
2.26046e-11
1.21888e-10
1.7732e-06
0.00136758
2.58961e-10
6.74494e-07
1.02114e-07
1.81657e-06
3.08149e-09
0.000821964
3.21234e-08
1.12452e-06
1.06614e-06
7.66414e-09
1.09499e-06
4.55814e-08
3.12278e-07
3.46456e-09
6.45302e-09
2.64234e-07
1.38483e-09
3.29499e-06
8.9185e-07
1.25366e-09
5.76513e-09
2.45399e-06
9.51564e-06
0.00545049
2.49739e-09
1.12772e-07
3.95432e-08
6.66024e-06
3.71332e-06
5.24091e-07
1.55442e-06
0.00135968
7.08614e-08
9.53433e-07
1.39944e-05
0.00115441
1.53131e-08
9.33086e-10
7.35051e-06
2.07452e-08
0.000707508
4.90357e-09
2.07911e-07
2.28969e-08
4.34425e-09
0.00410007
1.18222e-09
1.08699e-08
1.5056e-08
4.67601e-07
0.00574339
0.000971275
8.7693e-09
2.44451e-09
7.59376e-11
1.11111e-08
1.06743e-08
1.74648e-08
2.98609e-09
1.34763e-10
3.90703e-09
1.92427e-10
5.39357e-09
0.00106601
0.000635181
2.12173e-10
2.61412e-07
4.08704e-09
8.40622e-09
2.102e-09
0.000622969
0.0015455
1.98402e-07
4.36617e-09
1.38186e-09
1.65515e-08
3.31828e-08
8.82732e-08
5.81842e-09
6.43287e-06
5.00529e-09
5.40843e-08
8.80243e-08
3.17998e-06
9.94413e-08
1.36688e-05
4.12284e-08
4.87816e-09
8.33795e-06
7.93729e-06
6.11875e-09
4.87229e-07
6.19678e-08
2.3676e-07
8.08606e-07
1.74072e-07
7.39134e-08
3.46413e-09
0.00582971
2.23157e-08
9.52387e-07
0.00106923
2.41742e-06
2.68702e-07
3.25826e-07
6.31079e-08
1.28617e-08
5.09853e-07
1.61641e-06
1.35926e-06
8.03864e-08
8.20429e-07
6.82542e-08
3.66744e-08
1.39418e-08
1.49264e-10
7.89678e-09
5.61073e-10
1.00603e-11
2.75798e-09
1.68137e-08
1.10173e-07
2.37349e-09
3.58904e-11
8.11507e-09
3.09392e-07
6.46296e-09
2.17637e-10
1.46948e-08
4.15411e-08
2.41073e-09
1.86373e-06
1.27898e-07
0.00437949
2.25151e-09
2.04946e-07
3.68256e-07
7.94295e-08
4.04685e-10
1.04775e-08
0.00396454
9.40919e-09
2.92322e-10
6.41221e-08
0.00398256
1.53337e-08
1.12699e-06
1.11869e-06
2.99161e-08
1.88205e-07
1.9388e-07
6.91876e-06
2.67348e-10
8.20796e-07
1.05568e-07
3.59155e-09
5.21939e-06
7.24749e-06
0.00346922
1.35796e-07
3.03672e-08
1.89855e-07
7.58904e-07
3.55418e-07
1.21183e-08
4.39445e-05
3.94808e-09
1.29106e-05
6.88075e-06
0.00113131
1.42954e-07
0.0045671
4.87788e-09
1.91336e-08
1.03725e-07
3.97615e-07
9.88684e-07
7.15806e-08
2.55082e-06
9.62075e-10
1.66122e-07
4.14347e-10
2.17536e-10
2.57902e-08
7.70427e-06
5.47467e-09
3.61193e-10
8.12436e-06
5.27901e-09
9.66496e-06
4.51845e-08
1.39702e-08
3.03659e-08
2.76881e-09
3.67319e-07
9.82175e-08
3.74507e-06
9.19504e-09
1.30385e-07
6.3362e-05
3.10959e-08
3.09359e-10
2.68055e-06
6.46256e-08
6.0153e-07
8.82275e-10
0.002557
2.28965e-06
9.74348e-07
3.96648e-08
6.05088e-09
3.73408e-06
1.02677e-07
2.70481e-09
7.92558e-11
1.2602e-06
1.41422e-06
1.50111e-06
0.00343456
8.53988e-08
1.40976e-07
4.70855e-06
1.38549e-07
1.14322e-07
4.15108e-08
1.23733e-06
5.2212e-08
2.26139e-06
0.00324685
2.72969e-07
3.16199e-13
5.16119e-08
1.14507e-06
2.23777e-07
4.84697e-09
1.13092e-05
1.52393e-05
8.5846e-06
1.73934e-05
3.63148e-07
9.00217e-07
2.27869e-07
4.06402e-07
6.3996e-09
4.23514e-10
0.00186894
9.42892e-06
4.04985e-08
2.56757e-05
1.08395e-07
5.26572e-07
8.93042e-06
8.6268e-08
4.97921e-08
5.96384e-08
6.60301e-10
7.81913e-07
5.98302e-07
2.28546e-06
7.68717e-07
6.60051e-09
8.50159e-09
4.18169e-07
1.59129e-08
5.49435e-10
5.98265e-06
9.73988e-08
1.82485e-07
8.61198e-07
6.89077e-08
2.81395e-09
9.77334e-06
0.00242929
1.34527e-08
4.16004e-10
1.02646e-10
0.00256541
0.00438524
7.38797e-09
0.00100116
1.65095e-07
4.45013e-07
1.45595e-07
1.7472e-07
2.68364e-07
3.08819e-07
5.97839e-07
0.00195956
0.00599074
0.00730805
2.33149e-07
6.28297e-07
2.39786e-07
1.45972e-07
0.00635394
6.26873e-10
0.0032551
4.54514e-07
5.41096e-10
7.30162e-09
1.01655e-08
7.30936e-09
1.44832e-09
3.7306e-09
1.20258e-09
0.00242418
1.2292e-09
7.55351e-07
3.65038e-06
4.29678e-10
8.71067e-08
1.2478e-07
1.04552e-07
2.05141e-09
1.09014e-05
1.03798e-07
2.52271e-08
1.48983e-06
1.04565e-07
6.69469e-07
1.23184e-07
2.04908e-08
3.34332e-09
4.0229e-07
5.21636e-05
9.74184e-07
9.14965e-09
3.34524e-07
1.9655e-08
5.11154e-07
2.39234e-06
2.6055e-07
9.90318e-08
8.89318e-08
2.22845e-08
1.05946e-06
8.83223e-09
2.26489e-07
0.000764445
7.35752e-06
0.00582196
1.29857e-05
1.82919e-06
2.66091e-10
0.00114893
7.86793e-10
1.13263e-06
1.2754e-07
2.34758e-07
1.62671e-06
1.20799e-08
5.63052e-09
7.76625e-07
1.87049e-08
1.69397e-09
5.17055e-07
1.03322e-08
4.59133e-07
0.00131566
4.52962e-09
6.96795e-07
2.3911e-08
2.20474e-08
2.99068e-10
4.26325e-06
1.7437e-06
8.52039e-08
7.10021e-09
2.27518e-08
0.000831517
3.94556e-06
2.2017e-07
3.18927e-07
6.47855e-11
3.56961e-12
1.30769e-08
3.13161e-10
8.67111e-07
6.37822e-09
3.94172e-07
3.21377e-08
6.18477e-09
1.0634e-07
6.46472e-10
1.10192e-06
1.52925e-06
8.31426e-07
8.69175e-09
2.07947e-09
1.99021e-08
3.23913e-08
9.91841e-06
2.89102e-08
0.00298487
4.85897e-07
3.98928e-09
6.22337e-09
4.13112e-06
2.72211e-07
1.98762e-05
3.19733e-08
1.92122e-06
0.00412947
3.50495e-10
5.76287e-06
3.5786e-07
0.00079613
2.88462e-08
0.000886365
0.00154927
2.18147e-06
1.3364e-07
3.26739e-07
8.06058e-10
2.79451e-07
4.66645e-07
6.36792e-06
3.25441e-07
8.99117e-08
4.49917e-07
7.05009e-06
6.29423e-06
8.21387e-06
2.74349e-06
1.87911e-09
1.73713e-06
1.48016e-05
1.12228e-07
6.27935e-08
4.1953e-06
3.58574e-06
2.84433e-07
3.16292e-07
4.52411e-06
2.75332e-07
7.05451e-06
4.53212e-06
3.8384e-07
6.58293e-10
6.41531e-07
8.06761e-06
0.00123982
4.7398e-08
2.12717e-08
8.03899e-07
2.71415e-08
1.41554e-06
1.513e-08
6.83299e-06
9.35642e-09
1.63343e-06
4.56811e-09
3.49589e-09
2.36401e-07
1.64647e-05
2.29537e-05
0.0059593
2.44591e-07
2.95632e-08
2.09325e-09
7.71317e-06
4.23301e-07
0.000562508
0.00131328
1.84903e-11
1.39863e-05
1.31222e-06
9.60136e-08
1.04443e-08
2.26468e-05
2.02488e-08
0.000799703
4.04943e-09
2.72696e-10
5.26351e-07
2.03641e-08
3.51339e-08
6.96914e-07
0.00073695
3.58551e-07
1.59848e-08
1.62148e-06
0.0038835
0.000719259
1.01453e-07
5.33433e-06
4.55576e-07
1.00759e-05
7.75627e-08
0.000698376
8.65518e-07
3.48269e-06
3.13434e-09
9.24289e-09
8.65292e-08
1.38931e-08
3.83935e-07
3.3132e-08
1.22159e-08
4.4689e-08
8.35996e-08
1.80049e-06
5.42591e-10
1.19994e-08
0.00134084
1.64784e-10
1.635e-09
8.1804e-07
8.35687e-09
4.45666e-06
6.23532e-07
0.00110274
3.79544e-07
0.00458784
2.99891e-07
3.63577e-07
0.000745019
3.04356e-06
9.2821e-12
1.61479e-08
0.000523458
2.40505e-07
1.56926e-06
3.26908e-07
1.31412e-09
1.32073e-07
1.49503e-07
1.9862e-08
0.00224375
3.55886e-08
2.29182e-08
4.48016e-08
1.23308e-08
1.09433e-09
1.72042e-06
5.92617e-08
0.00480565
1.63106e-06
6.39692e-07
7.89162e-07
1.00307e-06
4.05919e-07
5.71842e-08
1.13823e-10
8.23709e-09
1.74896e-06
3.82214e-07
7.30782e-08
5.6299e-09
2.45999e-07
1.90004e-08
9.58778e-07
6.25404e-09
1.3008e-08
3.01985e-08
5.84948e-07
4.25006e-07
6.24276e-07
4.74971e-09
3.87536e-09
3.24611e-05
7.06306e-09
1.48831e-09
1.5139e-10
2.50282e-08
0.00544437
5.60643e-09
3.25616e-06
1.28866e-06
4.4448e-07
3.23919e-09
1.71151e-08
3.83e-06
1.45672e-07
4.90434e-09
7.88748e-07
2.20971e-09
1.67191e-09
5.7928e-10
1.58333e-06
4.88564e-09
0.00576631
9.3343e-06
6.87008e-07
3.44728e-05
3.90888e-09
3.28031e-07
9.65695e-10
0.00110659
1.59452e-07
1.08687e-07
3.35464e-08
2.09802e-08
1.25707e-09
0.0084119
3.39076e-07
9.04802e-06
1.25574e-06
2.27225e-08
0.00214836
1.57201e-08
6.42462e-09
1.0587e-08
1.09231e-08
5.0308e-07
8.13896e-09
4.6987e-07
5.23039e-07
1.00682e-05
5.58235e-08
3.42188e-10
3.2117e-06
9.61271e-09
0.00277464
5.15161e-08
5.91435e-09
2.78022e-08
3.579e-07
0.00114294
0.000558916
3.19658e-07
9.53194e-07
0.00167383
6.06977e-08
5.65449e-07
0.000784308
2.22075e-07
1.05751e-07
0.00304291
0.000348769
1.73026e-07
6.3886e-07
1.72237e-09
7.38125e-07
3.02142e-05
1.90602e-07
1.71716e-07
6.48531e-06
3.38487e-10
0.000430888
2.54377e-09
4.95012e-07
0.00343914
2.59916e-09
2.22487e-07
1.24176e-07
9.006e-09
1.01165e-08
9.94214e-07
1.22246e-08
2.79869e-09
6.1441e-07
2.14135e-07
8.76356e-10
0.000432159
0.000820509
1.91135e-07
7.0338e-12
1.37628e-10
2.6242e-06
2.89504e-07
9.35233e-08
5.2174e-09
1.00024e-08
2.48926e-06
1.38865e-06
8.79574e-07
1.65066e-06
0.00638736
1.22106e-10
0.00260557
2.76726e-07
9.8402e-08
0.000939761
2.85964e-08
9.86594e-10
0.000426421
7.37924e-11
1.22984e-07
1.06463e-07
5.04498e-08
1.72486e-08
6.49217e-09
1.80136e-10
6.23584e-10
3.6924e-07
0.00231391
0.00377318
6.84808e-07
6.75065e-08
4.85575e-12
0.00104275
0.00397829
5.78753e-06
2.45007e-08
6.38617e-09
2.20587e-05
4.04594e-06
3.63503e-09
5.84323e-10
1.73583e-08
1.28354e-07
2.39228e-09
1.75632e-07
1.3627e-06
0.00111285
0.00359345
1.00719e-06
1.29848e-05
2.26267e-10
1.17463e-08
5.62761e-07
2.42183e-06
5.28816e-07
6.88672e-06
1.97996e-07
2.57442e-07
2.05699e-09
9.66494e-09
2.76932e-07
0.00108574
6.02127e-09
0.00314077
7.82643e-10
2.07435e-07
4.50799e-08
3.4449e-07
5.85502e-10
3.30106e-11
1.09986e-08
1.17053e-09
4.74174e-08
6.02997e-06
6.59333e-09
0.000690502
3.39174e-07
0.00280906
2.63016e-08
4.61489e-08
3.0484e-08
3.83392e-08
2.01194e-07
2.36726e-10
1.01478e-09
8.55889e-10
7.13033e-08
1.51496e-07
0.000963347
0.000937463
1.0523e-07
1.65856e-08
1.07071e-10
5.3892e-11
4.36479e-10
1.94657e-08
3.62001e-06
7.71171e-09
3.03359e-10
1.0504e-10
0.000407933
7.56581e-07
9.02152e-07
0.000756395
1.45967e-08
0.0054719
1.42434e-07
1.44547e-08
1.7939e-11
4.84261e-09
0.00100054
1.58115e-11
4.49223e-07
9.01258e-10
1.13641e-05
7.72634e-07
1.62327e-06
2.4148e-06
4.96525e-07
6.821e-10
4.43882e-10
0.00633549
6.91561e-07
6.09062e-07
4.39824e-06
1.62876e-08
1.62997e-06
1.58391e-06
5.14335e-08
9.24134e-08
5.74174e-06
6.28267e-09
1.1986e-05
0.000728448
3.55273e-08
6.96123e-09
1.45678e-06
1.46519e-08
0.000635787
0.00331026
4.42076e-07
7.60858e-10
6.82212e-05
5.82855e-09
2.47406e-07
3.52769e-08
2.24646e-06
4.85209e-11
1.72502e-05
1.62751e-06
2.52297e-06
4.51235e-07
2.12484e-06
5.10968e-07
1.17786e-07
2.6803e-11
3.20785e-06
1.19058e-06
1.09984e-06
2.07971e-08
1.71636e-07
2.10713e-06
7.80771e-06
1.93297e-10
3.9549e-10
1.62503e-09
1.91018e-11
2.18032e-09
0.00039535
8.25675e-06
2.51287e-06
9.19846e-07
3.75005e-06
1.65098e-06
6.45999e-12
3.37421e-07
3.76798e-10
9.48064e-09
1.46136e-09
4.33783e-07
3.8106e-05
4.26443e-07
2.38975e-09
4.75663e-09
2.93885e-08
7.51756e-09
2.60543e-09
0.00259591
1.93616e-07
1.16535e-05
1.77479e-05
1.29857e-05
1.30787e-09
1.00183e-05
1.21825e-05
2.26079e-05
1.24311e-05
6.40246e-10
4.29665e-11
3.07182e-08
2.15325e-07
1.17561e-06
6.35733e-06
0.00070577
4.12245e-07
5.62196e-07
7.36901e-08
1.02194e-05
3.94377e-09
9.74329e-11
2.12909e-06
7.03191e-06
0.000488565
2.17924e-10
0.00207718
2.0823e-06
1.44015e-08
1.50533e-06
1.10361e-07
2.02346e-06
4.90578e-08
1.9448e-06
5.78062e-09
1.39355e-07
3.96242e-05
7.418e-07
1.4552e-08
3.21935e-05
9.01097e-07
1.80816e-07
5.86933e-05
1.35534e-09
1.97338e-07
9.39152e-07
1.68834e-06
1.26322e-08
0.0033805
2.70201e-09
2.8868e-08
4.13292e-09
0.00209326
0.00206467
4.50691e-08
4.73229e-08
3.06836e-06
0.00102865
1.07843e-08
1.71194e-07
5.10845e-07
2.04862e-07
2.62815e-08
0.00340361
1.95527e-07
3.62711e-07
7.72678e-05
1.50095e-09
1.15819e-07
3.4091e-08
4.42707e-08
5.14707e-10
4.56934e-05
6.6221e-05
1.66787e-09
1.55208e-08
3.18973e-08
1.76051e-06
3.51476e-10
0.000737166
1.08868e-08
2.26061e-07
1.46272e-08
1.37184e-08
4.53519e-08
6.79306e-07
2.97688e-08
9.2863e-08
4.24368e-06
2.32405e-08
2.60811e-08
0.000800092
2.17114e-08
5.5534e-08
5.90349e-08
5.70134e-07
3.22701e-11
4.66323e-10
4.52407e-11
2.29727e-07
1.16355e-08
0.00112138
3.58399e-07
4.18704e-07
8.81565e-10
6.02404e-07
0.00206862
1.66815e-06
2.47113e-07
1.08447e-06
2.05089e-07
6.26337e-09
6.99768e-09
3.6148e-07
3.72662e-08
4.73235e-08
8.81554e-06
2.18957e-07
2.08414e-09
5.692e-09
2.98251e-08
1.33333e-08
1.23633e-07
9.54182e-10
1.56487e-07
2.80301e-07
5.06354e-09
2.62431e-11
0.000852917
1.43077e-10
6.40911e-11
4.78886e-07
0.00105457
6.34136e-07
3.96015e-08
6.23422e-10
2.50575e-07
1.0262e-07
5.17047e-07
9.49182e-08
1.9096e-09
3.2631e-08
1.57012e-08
1.04332e-07
1.10667e-09
6.68679e-10
8.27455e-09
7.7143e-08
3.79162e-07
2.56521e-08
3.60391e-09
1.28181e-07
1.11371e-06
2.62159e-09
5.70915e-07
9.73716e-09
1.71153e-08
5.95326e-10
9.99168e-07
2.95039e-09
3.65851e-07
5.34818e-11
4.52484e-07
5.29395e-10
2.93247e-08
6.06018e-06
2.47207e-09
1.09812e-09
0.0012657
9.74387e-10
0.00104146
9.96733e-09
1.17175e-08
2.01233e-07
4.36576e-07
0.000774581
1.64236e-06
0.000922646
0.00112102
1.784e-06
1.85342e-07
0.000752149
1.93535e-07
5.07174e-10
5.89583e-07
0.00236722
0.000688208
0.000781296
5.62658e-10
1.68773e-07
1.52461e-10
1.19048e-07
1.79495e-08
1.22276e-07
3.13895e-06
1.54468e-07
1.96763e-08
3.85825e-09
6.87536e-08
5.39876e-06
1.18773e-09
2.11797e-07
6.25769e-07
3.95828e-08
1.26155e-11
1.19782e-06
6.27443e-07
5.91048e-07
4.75481e-07
4.35172e-07
9.4229e-08
2.66099e-07
2.81237e-06
1.57065e-07
1.16558e-07
2.21928e-06
8.29446e-06
1.38195e-10
1.78934e-08
3.87609e-09
3.73005e-07
1.86425e-09
4.95833e-08
6.27009e-12
7.40348e-06
0.0069305
0.00150827
2.55882e-06
3.87269e-10
2.04681e-07
0.000918475
0.00179231
2.3389e-08
4.88626e-06
4.90251e-08
1.07515e-08
7.6246e-09
2.40313e-09
2.83228e-07
7.65419e-07
7.68642e-09
8.62269e-10
2.99062e-07
1.0549e-08
0.00311357
0.00100849
2.15607e-07
2.30922e-10
3.06248e-09
0.000786964
4.75217e-10
5.16439e-07
1.00527e-08
1.10358e-05
3.25707e-10
1.29608e-07
8.14123e-09
3.83456e-09
1.99961e-05
0.00268431
0.0012055
2.57063e-08
0.0012792
7.01033e-10
2.55954e-07
2.97904e-08
0.0020097
7.81553e-09
3.06618e-06
4.30684e-10
5.40549e-08
4.93424e-06
2.42371e-08
2.71893e-06
4.86042e-09
2.69534e-07
6.05914e-07
2.99713e-07
6.99533e-08
1.08619e-08
7.12514e-09
6.05365e-08
2.41307e-08
4.19445e-09
2.49371e-09
0.00125143
0.000691111
2.80926e-09
0.00139196
1.89277e-10
5.60009e-09
8.2592e-07
1.18477e-08
1.03257e-10
0.000647897
2.37191e-09
6.90407e-11
1.07659e-05
1.58963e-10
3.02595e-11
1.02696e-06
0.00156559
3.73956e-09
0.000694135
7.77439e-10
3.79903e-08
0.00083276
1.24156e-07
1.67216e-05
2.037e-11
3.01986e-09
2.30391e-08
3.89103e-09
0.00369635
0.000756757
1.94997e-06
8.65722e-10
0.00086422
1.64879e-10
6.5371e-09
8.53474e-10
0.00174705
3.47538e-05
2.04225e-07
2.50406e-11
1.72853e-08
0.000899341
1.86745e-05
7.58833e-09
4.57743e-06
0.00185291
0.00143098
6.49441e-07
0.00144917
1.81084e-05
0.000795307
7.26033e-07
0.00113999
6.00269e-06
7.75855e-08
3.51832e-08
4.36142e-08
7.81493e-06
1.64023e-05
1.06001e-10
1.05703e-07
1.85267e-09
7.52045e-07
1.58143e-07
2.78363e-08
1.64021e-07
5.41501e-06
4.6138e-09
1.76805e-07
6.89211e-09
4.7584e-10
1.89187e-09
8.89585e-10
8.91351e-08
1.99634e-09
1.33108e-08
2.06024e-09
2.67605e-07
7.60774e-07
7.13288e-11
4.8111e-11
1.06951e-09
2.1798e-09
2.29571e-08
2.10472e-05
4.00693e-05
1.92088e-06
1.34776e-10
5.72585e-07
1.47154e-07
0.000861591
5.27036e-07
2.99929e-07
9.40992e-09
1.67638e-08
5.00944e-08
3.92088e-06
2.00747e-06
0.00315655
0.00124967
1.46563e-09
1.42323e-05
5.52978e-06
8.62824e-10
4.56047e-08
9.04156e-08
2.10865e-09
3.88448e-08
7.49184e-08
0.00115007
2.69546e-11
1.56341e-06
3.06497e-09
0.000814037
9.72949e-07
0.000664158
6.26728e-07
8.52214e-10
1.16073e-09
8.85389e-09
4.87425e-07
3.43886e-07
7.08872e-08
1.63629e-07
1.88818e-08
1.44632e-05
5.36008e-06
2.52765e-10
2.01478e-06
9.63249e-07
8.43724e-07
1.70529e-06
5.7068e-05
8.09573e-08
0.00169829
5.70501e-09