/*--------------------------------*- C++ -*----------------------------------*\
  =========                 |
  \\      /  F ield         | OpenFOAM: The Open Source CFD Toolbox
   \\    /   O peration     | Website:  https://openfoam.org
    \\  /    A nd           | Version:  10
     \\/     M anipulation  |
\*---------------------------------------------------------------------------*/
FoamFile
{
    format      ascii;
    class       volScalarField;
    location    "25";
    object      SgRate;
}
// * * * * * * * * * * * * * * * * * * * * * * * * * * * * * * * * * * * * * //

dimensions      [1 -1 -3 -1 0 0 0];

internalField   nonuniform List<scalar> 
111485
(
1.72741e-09
0.00900347
0.0210978
5.84812e-12
0.0451022
2.50871e-09
0.0417266
0.00586838
0.018356
0.0011308
0.0418781
0.00915314
0.00427286
0.00601355
0.00591059
0.0316424
0.0071451
1.99755
0.010031
2.51665e-08
0.000692779
2.32495e-10
0.0235399
0.0355203
0.00847653
2.16956e-09
0.0401171
0.00273279
0.0159713
0.000902583
0.0434622
0.00050073
6.32648e-09
2.55527e-08
0.00968295
1.80201e-06
0.0129688
0.00380742
4.27402e-05
0.0215919
0.00072233
0.0720695
0.014473
0.000999529
3.68984e-05
3.90992e-08
0.032825
0.000721209
0.0476107
1.45277e-08
2.93051e-08
3.57722e-07
1.0457e-08
0.044468
3.48828e-08
0.0422704
0.00354648
4.18566e-10
2.79149e-05
0.00450678
0.0149892
5.81941e-09
0.00290406
0.0884371
1.50085e-07
0.00358127
0.300924
0.0972969
0.000584786
0.00451946
7.56563e-06
0.000306042
2.15036e-07
0.00201681
5.78043e-09
0.00139174
1.11076e-09
0.0425287
1.98222e-09
4.65486e-07
0.00501912
0.0408509
9.26245e-10
2.18249e-09
0.00800121
0.00442464
0.00249481
0.0225438
5.0902e-05
0.000529064
0.000868675
0.041103
0.00952454
1.1879e-05
0.0559681
4.23961e-10
0.000505061
0.00145279
2.9687e-05
0.0014875
4.95738e-10
0.0195141
3.54573e-08
0.0214553
0.00482962
2.52872e-07
1.91596e-10
0.00200568
0.00319353
1.18896e-05
0.000338931
0.00492152
0.00314511
0.00264441
5.63536e-09
0.00132162
1.5572e-09
1.64877e-07
0.0113819
1.58093e-10
1.1498e-09
3.36053e-06
0.00124904
4.51686e-08
0.00233575
0.000533299
1.97715e-06
0.000912385
1.75374e-11
0.000178568
0.000990833
0.0280709
0.000884789
3.17078e-06
1.47667e-06
0.0491933
2.00475e-10
0.0258538
0.0225302
0.00252813
0.000173226
0.00187109
0.0236604
0.00310567
0.00379454
1.62064e-07
2.30559e-10
8.09608e-10
2.22189e-09
0.0262521
0.00182997
0.000530748
0.00197828
2.70643e-07
1.66427e-06
0.0106122
0.0154651
0.00944193
1.63388e-05
1.09077e-07
6.79114e-11
0.0526854
0.0252403
6.28516e-06
1.57934e-06
0.0183414
0.00369262
0.000451772
3.74776e-05
6.81973e-05
4.09121e-11
2.10579e-09
0.00362226
2.7231e-11
1.53521e-06
8.10818e-08
7.93961e-09
1.63155e-07
4.08893e-09
9.87238e-08
1.49427e-07
4.99708e-09
0.00134225
0.00671389
0.0277667
4.29398e-07
0.00641962
0.0219153
0.000101408
5.52921e-09
0.0418772
9.08184e-08
1.31601e-07
0.0171823
0.0110791
0.0228065
0.00540533
6.78828e-07
2.00859e-08
0.00605832
0.000572693
7.31983e-05
0.0111927
0.00147642
3.05504e-08
0.000453644
0.0275343
1.99752e-07
0.000230506
0.00651742
0.0022791
0.00296626
1.41364e-07
1.19258e-10
0.0206184
5.05228e-06
0.12386
2.9564e-10
0.00205866
0.00573928
0.121862
1.35316e-09
0.00322466
0.01201
5.06248e-06
1.16083e-10
2.21974e-11
0.1667
7.41901e-05
4.08715e-07
1.72713e-06
0.0153877
2.14191e-05
0.0181312
6.51643e-07
2.14186e-07
0.00285537
1.38357e-09
0.00272954
0.00903152
0.00464525
0.00372182
0.00271081
7.49336e-08
3.34253e-05
0.00608523
1.44423e-07
1.48146e-09
0.0306966
0.0232501
3.57471e-07
0.000164448
0.00948329
2.51456e-11
3.63318e-06
0.000153381
5.71071e-09
1.21327e-06
0.00184366
1.55855e-09
0.00768221
0.00764087
2.05648e-07
6.55611e-11
0.00161923
1.52103e-11
9.69917e-10
1.24519e-08
0.00296978
0.0225703
0.00523064
0.00457557
0.040075
0.0110488
0.00146187
0.000595214
2.37794e-05
3.95897e-05
9.41898e-09
1.83043e-09
0.00203543
0.00239421
0.0215175
2.25844e-05
2.76956e-11
0.0100664
0.00662358
0.0030964
1.23231e-05
4.99657e-06
0.0123657
0.00255885
0.00186449
1.64565e-10
0.000779094
3.26136e-10
6.84247e-06
4.94268e-06
0.266651
0.0682785
0.0198874
6.05214e-09
0.00144089
0.00883249
3.06305e-05
2.31622e-10
2.20253e-09
0.000461982
0.000452879
3.45558e-05
0.00333211
0.0154114
0.0182786
4.5742e-07
7.73377e-10
3.91399e-09
0.00251521
7.45481e-05
0.00572203
0.186927
1.45078e-05
1.7574e-10
1.0259e-09
4.4902e-10
1.49247e-06
0.0566725
0.0123179
5.71653e-08
0.00483611
1.3213e-06
0.00112862
0.0672785
0.00579616
0.010725
0.00773107
0.000795766
9.2703e-07
1.07582e-08
0.00905855
1.51411e-07
0.00468403
2.71213e-09
0.0026475
0.000229537
0.0017858
0.00724241
6.82416e-05
0.0284483
0.000652054
0.0370311
0.000989702
0.00784723
0.0231014
0.0147392
1.75631e-07
6.85699e-09
9.12734e-09
2.06926e-08
0.032096
0.0167859
0.0370904
0.0669501
0.000882312
0.02015
4.2002e-10
8.77525e-09
0.0160909
0.000880216
0.0398893
0.000856222
0.000824261
0.0237326
2.16558e-10
1.2752e-07
0.000335424
3.4636e-11
0.00111714
0.0174993
2.82834e-07
0.00714031
0.0106737
0.00704049
0.000447837
4.47948e-07
3.50028e-06
8.92451e-07
1.22994e-08
0.00137704
5.51639e-09
0.00500584
0.112116
0.000503801
1.99465e-09
0.0262595
0.00284829
2.93319e-05
0.027835
7.80699e-09
0.038997
0.019747
1.3185e-10
0.000696702
0.00281917
1.69078e-09
0.00059692
2.17922e-07
0.00483131
1.66372e-08
3.23779e-10
1.31676e-05
3.50123e-10
0.0105616
6.68817e-08
1.73027e-12
0.0177217
3.38355e-06
0.0189785
0.0272853
3.90536e-11
1.44089e-06
0.00108542
1.76832e-06
0.000108334
0.0108264
0.121698
0.905657
9.5064e-07
0.00406421
0.000238445
3.8349e-09
0.0350403
0.033105
1.94483e-09
2.43433e-05
0.000112478
1.38888e-06
0.0257003
0.0268885
1.58035e-06
3.65218e-09
0.00636355
0.0206198
1.39545e-06
8.5106e-05
1.68903e-06
2.48975e-05
1.23007e-09
0.00451389
0.00601526
4.13317e-10
0.00957808
7.33292e-05
2.00012e-06
6.19441e-11
4.74382e-07
4.34161e-10
0.00930144
2.42903e-06
0.00711321
0.00244329
0.00338937
4.64731e-09
0.00228416
1.35134e-08
0.0362421
2.93153e-09
1.79444e-08
0.000977563
0.0317986
1.79657e-09
2.05281e-09
7.6448e-06
1.54089e-09
3.14536e-08
0.000875166
6.74819e-11
1.06169e-06
1.66767e-09
0.00138479
8.48723e-09
4.47087e-08
3.12645e-09
0.00816064
8.87437e-09
0.00436177
0.00166182
0.00679595
4.54586e-10
0.000624674
4.68536e-08
6.07398e-11
0.00957727
0.00456722
0.029405
0.0222378
5.6491e-07
0.00187036
0.0726584
4.75655e-06
2.47485e-06
0.00873436
1.0568e-09
2.02302e-06
1.95673e-06
0.00428033
0.000986903
0.0691147
2.01658e-06
7.12617e-05
0.000323136
1.30693e-05
0.00136538
7.93063e-06
9.65172e-09
0.0759055
0.044315
6.03232e-08
2.31133e-08
4.04695e-07
2.103e-11
3.08401e-05
0.0545776
6.51422e-09
4.78967e-09
0.00288238
4.99926e-10
0.0304132
4.11987e-09
0.000351155
1.27024e-09
0.00263897
0.00198921
0.00114384
6.10419e-05
0.00108549
0.00150776
5.78802e-09
4.16486e-09
0.0162847
3.84585e-09
3.83941e-05
2.91306e-07
0.00147786
0.000795454
0.0661453
9.16601e-11
8.22784e-07
0.0121751
0.00388239
0.00150529
0.00431142
0.00591077
0.0208879
1.87721e-08
0.0207341
0.00708764
1.5289e-10
0.00225801
0.0314354
0.0125517
3.44919e-08
0.00552031
0.00543723
0.00128679
0.0014335
6.1537e-06
0.0137956
0.000982003
0.000166774
0.0267784
0.00213269
0.00109708
1.31274e-06
6.54174e-05
0.621695
5.90743e-09
0.000419467
8.13619e-08
6.15297e-07
0.000939985
0.00364668
4.91984e-05
1.76684e-05
2.91755e-06
0.0185168
0.0100054
6.25931e-09
3.41924e-06
0.00202148
1.45105e-09
5.32648e-11
9.05968e-09
7.85159e-10
0.015249
3.00781e-11
0.000651098
0.00987647
0.00127145
0.00181064
0.0150303
1.01718e-06
0.0107309
0.000691466
6.91669e-10
0.0571483
3.30092e-09
9.90512e-09
8.01877e-07
4.64521e-07
0.00208421
0.0328328
0.00161136
6.43743e-08
0.0726647
0.00536303
0.0262323
0.0235895
0.000929592
0.00354588
0.000696071
0.0569181
0.0415606
1.31935e-07
2.128e-05
0.0362102
0.00701024
6.4987e-07
0.024633
0.0238685
2.15248e-08
0.010464
1.64463e-05
5.43832e-07
0.0319523
0.00029963
1.2282e-05
0.00264646
0.0386295
0.00158921
0.0185375
0.0168504
0.000291814
6.88858e-08
0.00924748
0.000401113
3.149e-06
0.014473
0.0149119
0.00496871
9.50975e-09
8.21583e-07
9.93216e-08
2.13297e-09
0.00129589
6.27114e-10
0.00243032
1.00966e-06
0.000236182
1.31617e-08
0.000492524
5.15445e-05
0.0396738
3.24542e-10
0.0366104
5.99921e-09
4.14021e-10
2.01032e-08
0.044645
0.000498695
5.63585e-07
0.000762504
2.27953e-09
4.1467e-10
0.238375
0.00661593
1.48933e-06
0.0017709
7.07914e-06
6.48509e-10
0.0349082
0.00649478
0.00304766
9.14661e-12
3.67916e-09
0.000446168
0.000508885
2.27488e-06
9.10416e-09
0.00104538
0.00920143
1.12909e-09
4.4779e-09
0.000759272
0.038497
0.00161809
1.86783e-11
4.12143
0.143017
0.00325763
2.53232e-10
2.55929e-09
0.0567833
0.000304517
7.5154e-07
1.7175e-05
0.170081
0.00291788
1.95558e-07
0.00105399
0.0577856
0.00152169
1.45571e-09
2.48187e-08
4.9449e-09
3.76946e-09
1.14111e-09
2.62883e-11
0.0193361
1.3623e-09
8.44559e-09
1.9777e-08
0.0119173
0.00476813
4.71663e-09
1.48663e-08
0.105664
0.00876958
0.0104858
8.77602e-09
7.26389e-10
0.00128441
2.15628e-11
0.00227538
0.00428217
0.00154635
2.98245e-09
8.31751e-11
2.187e-10
4.53172e-11
0.0158638
2.07641e-09
1.18409e-08
0.000816859
2.21044e-10
0.0104597
0.00140685
6.97132e-08
0.00588417
0.59949
0.00331254
0.0338712
0.000202532
0.0480061
0.00376574
1.47772e-06
0.0104445
0.0766294
4.89051e-08
3.44557e-07
0.00169284
0.517847
2.2005e-06
3.9163e-09
0.0029159
0.00313691
0.00143606
1.36579e-06
7.4605e-11
4.7375e-13
0.00266133
6.73028e-07
6.34097e-05
6.96049e-08
0.00146012
1.98228e-06
0.000697315
0.00243618
2.85845e-09
0.000558339
2.00517e-07
0.00588477
2.09489e-09
8.89065e-07
4.49482e-05
3.38362e-08
8.19116e-09
0.00075998
3.61141e-11
0.000276311
0.00106068
6.46541e-10
0.00125285
7.65049e-07
0.000617688
8.85885e-06
5.53764e-09
3.79619e-06
0.00168081
0.000852494
0.00333715
3.48926e-05
0.00285769
8.74415e-05
0.00026377
2.1122e-08
1.00656e-05
0.0178433
0.00323318
3.18704e-09
0.00418727
0.000619177
2.94463e-06
0.000795461
0.000300499
2.2801e-05
0.0252439
0.00013417
0.00216112
5.34362e-07
0.000290146
0.000765769
3.55968e-09
0.000249356
4.66769e-05
9.86683e-10
2.44212e-05
0.0575214
0.000371945
6.25047e-09
0.00166988
8.16174e-10
0.000473997
0.00423405
7.8298e-09
0.00330873
0.00657388
2.43625e-05
1.43707e-06
1.87321e-08
0.0471349
2.03654e-05
0.00186549
6.0679e-05
1.9195e-05
7.88585e-08
0.0007628
0.00834293
5.98909e-10
9.59932e-05
0.000334174
2.22863e-05
8.42423e-06
1.60626e-05
4.29747e-06
1.05307e-10
1.31374e-06
0.0284782
1.38051e-08
0.00118447
0.00848788
4.34627e-09
5.60853e-09
5.78867e-05
6.28055e-05
4.21613e-11
1.45608e-05
9.87824e-09
2.28807e-10
3.46038e-10
7.70219e-09
1.06194e-07
8.23765e-09
0.000332136
0.000856368
5.60503e-11
1.36597e-08
8.38244e-05
0.00212669
0.0020446
0.00799491
0.000544609
6.93436e-11
0.000235168
5.4188e-10
8.54131e-10
1.0765e-05
0.0217796
0.0408743
2.00254e-09
3.27244e-09
0.000593824
8.51232e-09
0.000388429
4.64574e-09
0.00845895
1.33797e-10
3.86308e-05
0.0269299
4.30219e-11
1.79255e-08
9.88695e-09
4.25581e-05
1.61144e-08
3.57541e-09
3.52937e-08
9.08811e-05
0.000907104
0.00530602
1.15763e-05
2.04232e-05
4.01355e-09
6.91916e-05
0.00260408
0.0434723
4.96252e-08
9.83149e-06
0.0072173
4.61269e-09
1.56517e-07
2.78454e-06
4.13903e-09
0.00660227
0.00173701
0.00396161
0.00125669
9.61518e-11
0.0182684
0.00101243
2.12039e-06
1.36389e-06
2.91725e-10
0.0253601
2.85989e-09
1.96293e-08
3.08037e-06
0.0100629
1.77934e-08
0.00300218
4.42207e-07
0.00112546
3.91865e-07
9.25529e-11
6.24094e-08
7.86863e-11
4.89551e-05
0.000681467
0.339397
3.63824e-09
8.66444e-09
6.66006e-05
8.88152e-11
7.82119e-07
9.30565e-09
0.0422225
2.09382e-05
0.0287307
4.7416e-09
3.34027e-05
3.17944e-05
1.33301e-06
7.22816e-05
9.00572e-10
0.00182785
0.027641
0.0220504
0.00164482
0.000328312
8.94993e-09
1.29201e-11
1.28665e-09
0.00329804
0.00125597
0.00544228
8.16708e-12
0.175944
6.44782e-10
0.0447458
0.00354442
1.51436e-08
2.53313e-09
4.84893e-08
1.55982e-08
0.031327
4.40954e-08
2.09732e-06
0.00562569
0.00535715
1.28983e-06
5.24636e-07
1.33909e-06
9.22657e-07
7.90845e-09
1.17032e-11
0.0203888
0.000520562
4.74917e-09
3.75451e-09
1.09988e-05
6.84345e-09
0.00132761
0.00743268
2.70825e-08
0.00271188
1.24e-11
3.80115e-07
3.77334e-09
0.00672959
3.89983e-10
0.00214954
0.000107493
0.000879236
0.0143895
0.0274053
1.88189e-05
4.60095e-08
0.000451032
4.8295e-08
0.00434451
1.29185e-08
3.82991e-08
1.52513e-06
5.64429e-08
0.00118882
4.63507e-09
0.00569632
0.00628001
9.31129e-11
7.33595e-06
4.58236e-09
0.000535849
3.17283e-05
2.34822e-09
0.0185753
0.00021442
9.79887e-09
0.00121504
0.00391807
0.0033751
0.01347
1.32547e-10
0.000778554
1.59075e-07
1.22199e-08
0.0357099
8.10076e-08
0.103818
1.41588e-09
0.0029219
0.000729345
5.05002e-11
0.000672968
8.18956e-09
1.35398e-10
0.00227327
1.59173e-05
0.0059186
4.40392e-10
3.411e-08
8.4232e-10
0.000604237
8.68376e-07
0.000643251
1.06207e-07
1.49413e-05
1.25367e-06
3.25158e-05
5.23357e-07
5.39149e-08
2.20052e-08
0.00211199
0.0020538
0.0176821
0.0343264
0.000820171
1.49047e-05
0.000801461
4.27139e-11
5.56841e-05
1.79687e-09
4.51462e-06
0.000257478
0.000197272
0.000241592
8.5692e-06
0.00242549
1.54365e-11
0.000116925
0.00014414
9.51478e-05
0.00123629
0.0142018
1.59374e-05
3.6935e-08
0.0311683
7.13185e-09
1.18332e-09
3.40597e-05
0.0745021
1.64814e-05
1.51736e-08
0.000792904
1.19362e-05
1.60566e-08
1.97355e-08
2.13023e-05
5.87937e-08
0.00104031
0.0453938
0.000144015
0.00010992
0.0229055
0.00519974
5.00212e-10
2.90919e-09
4.91195e-06
0.00420147
0.000582786
0.00102664
0.0112482
5.89076e-09
5.69187e-06
0.000704138
4.6139e-07
2.10951e-05
2.52196
0.00073921
0.00233523
0.000859547
0.0153102
1.58431e-10
3.59055e-05
3.17436e-08
3.49395e-09
4.58644e-09
5.50798e-09
0.00337009
1.30147e-09
3.30583e-09
1.58436e-06
2.33848e-09
2.47158e-10
1.71506e-08
0.0100044
0.00100099
0.0101851
0.00233693
0.00129165
0.00637603
1.99504e-09
0.00373487
4.68704e-06
0.00712721
0.000164761
1.36752e-09
0.000160849
0.00933811
0.00465019
3.77176e-11
2.3937e-05
0.0162921
1.94451e-06
2.9005e-07
7.19385e-06
2.64892e-08
5.83679e-09
0.00131168
2.59056e-09
1.66478e-06
4.75336e-09
9.23029e-09
3.32468e-06
8.99022e-06
2.37627e-06
1.98462e-08
6.56681e-06
0.000676297
9.8978e-09
0.000149665
2.20646e-08
0.00018911
3.79566e-09
2.31933e-09
0.00456483
0.000743948
0.000109423
6.01304e-09
6.76299e-10
0.00471294
0.00383512
0.00478194
0.017466
0.217502
0.0194443
5.33763e-10
0.000597729
0.00234742
0.00514426
0.0353167
0.0133401
3.14941e-09
0.0147742
3.63065e-10
0.000756226
0.00758793
0.00959569
3.06385e-10
0.00899038
2.49542e-08
0.00314681
0.00181545
7.4965e-08
2.26047e-11
1.21888e-10
0.00232287
0.00136758
2.58962e-10
0.0035541
0.00533177
5.81455e-06
3.50536e-06
0.000821964
3.21234e-08
5.59822e-05
0.000652666
7.66414e-09
0.00926752
4.55814e-08
0.00244609
3.46456e-09
6.45302e-09
0.0111358
1.38483e-09
4.83138e-05
0.00298816
1.25366e-09
5.76513e-09
0.00367816
9.51566e-06
0.0593783
2.49739e-09
0.285347
3.95432e-08
6.66024e-06
3.71332e-06
0.00645111
1.55442e-06
0.00135968
0.00504003
9.53433e-07
0.000175843
0.00115441
1.53131e-08
9.33089e-10
7.50748e-06
0.000775225
0.000707508
4.90357e-09
0.0359755
0.000942539
4.34425e-09
0.00469397
1.18222e-09
1.08699e-08
1.21786e-06
0.00372811
0.00574339
0.000971275
8.7693e-09
2.44451e-09
7.59376e-11
1.11111e-08
1.06743e-08
1.74648e-08
2.98609e-09
1.34763e-10
3.90703e-09
1.92427e-10
5.39357e-09
0.00106601
0.000635181
2.12173e-10
2.61412e-07
4.08704e-09
8.40622e-09
2.102e-09
0.000622969
0.0015455
0.018347
4.36617e-09
1.38186e-09
1.65515e-08
0.0062099
8.82732e-08
5.81842e-09
0.19484
5.00529e-09
5.40843e-08
0.0218712
3.17999e-06
9.94413e-08
0.00439402
0.0233713
4.87816e-09
0.00127957
0.0021738
6.11875e-09
0.0111004
0.0374452
0.0164566
0.00249491
0.00429848
7.39134e-08
3.46413e-09
0.0083809
0.0106485
0.00241181
0.00106923
0.00415003
0.00135292
0.018717
1.02871e-05
2.86037e-06
0.0133855
0.00334231
0.00758248
8.03864e-08
0.0264591
0.00750704
0.00182178
0.00114613
1.49264e-10
7.89678e-09
5.61073e-10
1.00604e-11
2.75798e-09
0.0087465
0.0120361
2.37349e-09
3.58905e-11
8.11507e-09
3.09392e-07
6.46297e-09
2.17637e-10
1.46948e-08
4.15411e-08
0.00412931
8.86177e-05
0.0194507
0.00442864
2.25151e-09
2.04946e-07
0.0331664
2.93097e-06
4.04685e-10
1.04775e-08
0.0109687
9.40919e-09
2.92322e-10
3.77852e-06
0.0108182
0.0123248
0.0294785
0.0270211
2.99161e-08
2.5391e-07
0.000261839
6.91876e-06
2.67348e-10
0.0100032
1.05568e-07
3.59155e-09
0.0276673
0.993964
0.00361865
1.35796e-07
3.03672e-08
0.0159028
0.0221705
4.82693e-07
0.00576811
0.0020371
3.94808e-09
1.35936e-05
6.88303e-06
0.00113131
1.42954e-07
0.0215335
4.87788e-09
0.00207086
3.48449e-07
0.0155625
0.0120118
7.15806e-08
0.012683
9.62075e-10
1.66122e-07
4.14347e-10
2.17536e-10
0.000359582
0.710303
5.47467e-09
3.61193e-10
1.24825e-05
0.0233267
0.0004734
0.00518119
0.0305068
9.75241e-05
0.0202784
3.67319e-07
9.82175e-08
3.74507e-06
0.0305428
0.0020029
6.33892e-05
3.10959e-08
3.09359e-10
2.68055e-06
0.0187035
0.00269031
8.82275e-10
0.0036126
0.0450566
0.00818254
0.00381773
6.05088e-09
3.73408e-06
0.00340886
0.021858
7.92558e-11
0.000239405
0.012036
0.000858937
0.0128445
0.00669705
0.00238804
4.70855e-06
4.38905e-05
0.0175996
0.0238558
1.23861e-06
0.0229007
2.26139e-06
0.0191702
0.00711738
3.16202e-13
9.92455e-06
0.0125402
0.00555892
0.0105733
1.15267e-05
0.000207028
2.58484e-05
0.024635
0.00137169
9.00217e-07
0.000267712
0.014353
6.3996e-09
4.23514e-10
0.00186896
1.44062e-05
0.0010394
1.0133
0.0325005
0.0077844
9.18654e-06
0.0370917
4.97921e-08
5.96384e-08
0.00389833
7.81913e-07
0.00195294
0.00616015
0.00619995
1.6642e-05
8.50159e-09
0.000238884
0.0998971
5.49435e-10
0.0596399
0.0059766
1.82485e-07
0.0364295
7.67671e-05
2.81395e-09
9.77547e-06
0.00252469
1.34527e-08
4.16004e-10
1.02646e-10
0.00257616
0.00887087
0.0133589
0.00100116
0.0055994
0.00190066
1.45595e-07
0.00153745
0.00133041
0.000258223
0.00130346
0.00195956
0.00647689
0.00735713
0.00276715
0.0079177
0.00053226
0.146356
0.00960519
6.26873e-10
0.0032551
0.00104489
5.41096e-10
0.00148551
1.01655e-08
7.30936e-09
1.44832e-09
3.7306e-09
1.20258e-09
0.00508414
1.2292e-09
0.00512394
0.00144615
4.29678e-10
0.004083
1.2478e-07
0.000332745
2.05141e-09
1.78395e-05
1.03798e-07
0.0206497
0.000112715
1.37158e-06
0.00877893
0.000809715
0.0165505
4.89229e-05
0.00171933
5.21636e-05
0.00911271
0.0495365
0.00436421
1.9655e-08
0.00118985
0.000360389
0.00574241
0.0112899
0.000753787
2.22845e-08
1.05946e-06
8.83223e-09
0.00404458
0.000764445
5.52638e-05
0.00582333
0.000549462
0.000273752
2.66091e-10
0.00114893
7.86793e-10
0.00321101
0.0199703
0.0004425
8.96596e-06
5.91505e-06
0.00590819
0.00103082
0.000753098
0.000156602
0.00527635
0.00248221
4.59133e-07
0.00131566
4.52962e-09
0.013766
0.0104913
2.20474e-08
2.99068e-10
4.26325e-06
0.0572948
0.000892248
7.10021e-09
0.00205939
0.000831517
4.31867e-06
0.00524858
0.0739875
6.47855e-11
3.56961e-12
0.00339868
3.13161e-10
8.57227e-05
0.000608821
3.94172e-07
0.00940199
0.0313562
3.23049e-05
6.46472e-10
0.000660303
1.52925e-06
5.79184e-05
0.045677
2.07947e-09
1.99021e-08
0.00180044
9.91841e-06
2.89102e-08
0.00378764
1.30273e-06
3.98928e-09
6.22337e-09
4.13112e-06
0.0110716
0.00125745
0.00307918
0.0201891
0.0135818
3.50495e-10
6.08751e-06
0.000421901
0.00079613
2.88462e-08
0.000886365
0.00154927
2.18147e-06
1.3364e-07
3.26739e-07
8.06059e-10
2.79451e-07
4.66645e-07
6.36931e-06
3.25441e-07
0.000410086
4.49917e-07
9.33376e-05
6.29423e-06
7.15613e-05
2.74349e-06
1.87911e-09
0.0220174
0.00805551
1.12228e-07
0.0867684
4.19678e-06
3.58578e-06
2.84433e-07
0.00104651
4.52411e-06
0.00219049
1.18118e-05
0.000977644
3.8384e-07
6.58294e-10
0.000635037
8.12593e-06
0.00123982
4.7398e-08
0.0369728
8.03899e-07
0.0339328
1.41554e-06
1.513e-08
7.93805e-06
0.0266665
0.00841524
4.56812e-09
0.000397213
2.36401e-07
0.00104748
3.51628e-05
0.00719925
0.000646582
2.95632e-08
0.0190311
0.000767639
0.0048103
0.000562508
0.00131328
1.84904e-11
0.00523123
0.00265083
0.0413141
1.04443e-08
2.28838e-05
2.02488e-08
0.000799703
4.04943e-09
2.72696e-10
0.00237764
0.00156368
0.00331862
0.279471
0.00073695
0.0287053
0.0330209
0.0107949
0.00510706
0.000719259
0.00500964
0.00326837
0.00617705
1.09168e-05
0.00961957
0.000698376
0.00172265
0.000892812
0.0304591
8.1232e-07
0.00241082
1.38931e-08
0.016627
3.3132e-08
1.22159e-08
0.00145519
8.35996e-08
0.00695608
5.42591e-10
1.19994e-08
0.00134084
1.64784e-10
1.635e-09
0.000591112
8.35688e-09
0.00060383
6.23532e-07
0.00110274
0.0187912
0.0105144
0.00356065
0.00808652
0.000745019
0.554741
9.2821e-12
0.0666693
0.000523458
0.0185459
0.0180486
0.00183177
0.0533959
1.32073e-07
1.49503e-07
1.9862e-08
0.00477971
3.55886e-08
2.29182e-08
0.0177716
1.23308e-08
1.09433e-09
0.00403828
5.92617e-08
0.0174021
1.74206e-06
6.39692e-07
7.89162e-07
1.00307e-06
0.000298114
0.00574486
1.13823e-10
1.66919e-07
0.000244294
3.82214e-07
0.094309
5.6299e-09
0.0139222
0.0170246
0.0400392
6.25404e-09
0.0155651
0.0081927
0.000598963
0.00410339
0.0110985
4.74971e-09
3.87536e-09
3.39552e-05
7.06306e-09
1.48831e-09
1.5139e-10
0.0182593
0.0413724
0.00416046
0.00174712
1.28866e-06
0.0416926
0.0430656
0.00365947
0.00299855
0.0077536
0.0200814
0.00204155
2.20971e-09
1.67191e-09
5.7928e-10
0.0050542
4.88564e-09
0.0299481
9.3343e-06
0.000630396
3.47691e-05
0.00267985
0.0015997
9.65695e-10
0.00110659
0.00197847
0.000279334
3.35464e-08
2.09802e-08
1.25707e-09
0.00846547
0.000257101
0.00011493
0.000636141
2.46076e-05
0.085793
1.57201e-08
6.42462e-09
1.0587e-08
7.972e-06
0.0188241
7.13972e-08
0.0310251
0.00175682
0.00212214
5.58235e-08
3.42188e-10
3.2117e-06
9.61271e-09
0.00278385
0.0191276
5.91435e-09
2.78022e-08
3.579e-07
0.00114294
0.000558916
3.19658e-07
0.0109402
0.00167383
0.00108749
0.291849
0.000784308
1.57435e-05
5.10481e-07
0.00414588
0.000348769
1.73026e-07
0.00368085
1.72237e-09
0.011594
3.16841e-05
0.0175101
1.71716e-07
6.48531e-06
3.38487e-10
0.000430888
2.54377e-09
4.95013e-07
0.176734
2.59916e-09
0.00441206
0.000758861
9.006e-09
1.01165e-08
0.00146221
1.22246e-08
2.79869e-09
0.0124541
5.04964e-05
8.76357e-10
0.000432159
0.000820509
0.00139501
7.0338e-12
1.37628e-10
0.000246945
0.00196807
0.00224638
5.2174e-09
1.00024e-08
2.48926e-06
0.00295268
0.00140654
0.0103586
0.00936367
1.22106e-10
0.00495564
3.80799e-07
1.90001e-06
0.000939761
2.85964e-08
9.86594e-10
0.000426421
7.37925e-11
0.0284411
0.00569709
0.00544961
1.72486e-08
6.49217e-09
1.80136e-10
6.23584e-10
3.6924e-07
0.00231454
0.00377326
6.93859e-07
6.75065e-08
4.85589e-12
0.00104275
0.00397829
0.0275306
0.0946924
6.38617e-09
2.20588e-05
4.04594e-06
3.63503e-09
5.84323e-10
0.00361275
0.00674512
2.39228e-09
1.75632e-07
0.00243737
0.00111285
0.0036567
0.00118569
2.00893
2.26268e-10
1.17463e-08
0.00344132
0.000363957
5.28816e-07
0.634753
2.82899e-07
0.00672186
2.05699e-09
9.66494e-09
2.76932e-07
0.00108574
0.000109848
0.00316745
7.82644e-10
0.0217425
0.0159849
0.838245
5.85502e-10
3.30106e-11
1.09986e-08
1.17053e-09
0.00537167
6.05822e-06
6.59333e-09
0.000690502
0.00286618
0.00386681
0.0016697
4.61489e-08
3.0484e-08
0.0256219
2.01194e-07
2.36726e-10
1.01478e-09
8.5589e-10
0.0226154
1.51496e-07
0.000963347
0.000937463
0.000597493
0.0125912
1.07071e-10
5.3892e-11
4.36479e-10
0.013431
3.69423e-06
7.71171e-09
3.0336e-10
1.0504e-10
0.000407933
0.00217644
0.0086202
0.000756395
0.00205288
0.00633394
0.00406479
1.44547e-08
1.7939e-11
4.84261e-09
0.00100054
1.58116e-11
0.0213729
9.01259e-10
0.0155318
7.72634e-07
0.00115453
2.4148e-06
0.00170027
6.821e-10
4.43882e-10
0.0165166
0.261415
6.09062e-07
0.00259765
1.62876e-08
0.00028746
1.58391e-06
5.14335e-08
9.24134e-08
5.90783e-06
6.28267e-09
0.000370959
0.000728448
0.0335018
6.96123e-09
1.45678e-06
1.46519e-08
0.000635787
0.00518466
0.000111378
7.60858e-10
0.00383432
5.82855e-09
0.0035195
0.0195477
0.000891052
4.85209e-11
2.02184e-05
0.000306894
3.89718e-06
0.00492207
2.61922e-06
0.001196
1.17786e-07
2.68032e-11
3.53512e-06
0.0129689
0.000170161
2.07971e-08
1.71636e-07
2.10713e-06
0.431149
1.93297e-10
3.95491e-10
1.62503e-09
1.91018e-11
2.18032e-09
0.00048081
0.000129704
0.000755305
0.00131695
3.75005e-06
0.000914173
6.45999e-12
0.00632028
3.76799e-10
9.48064e-09
1.46136e-09
4.33783e-07
6.21418e-05
4.26443e-07
2.38975e-09
4.75664e-09
0.0144994
7.51757e-09
2.60543e-09
0.013203
1.93616e-07
0.0364378
0.0655309
0.384323
1.30787e-09
0.204561
1.27474
1.80593
0.669077
6.40246e-10
4.29665e-11
0.00473154
0.00523648
1.17561e-06
0.00293812
0.00070577
0.0310518
5.62196e-07
7.36901e-08
0.000480269
3.94377e-09
9.74331e-11
8.93262e-06
3.49396e-05
0.000488565
2.17924e-10
0.00207852
2.0823e-06
1.44015e-08
2.16626e-05
0.00742443
0.0011198
4.90578e-08
0.00604826
5.78062e-09
0.00356671
4.00107e-05
0.00511693
1.4552e-08
3.21947e-05
0.00465435
1.80816e-07
5.86935e-05
1.35534e-09
0.0317419
9.39152e-07
0.0101745
1.26322e-08
0.00338059
2.70201e-09
2.8868e-08
4.13292e-09
0.00209326
0.00206467
4.50691e-08
0.0119387
0.00671613
0.00102865
1.07843e-08
0.0326543
7.16014e-07
0.173694
2.62815e-08
0.00345069
0.0240839
0.045595
7.72708e-05
1.50095e-09
0.0647002
3.4091e-08
0.213505
5.14707e-10
4.57043e-05
6.62276e-05
1.66787e-09
7.4126e-05
3.18973e-08
0.0198235
3.51476e-10
0.000737166
1.08868e-08
2.26061e-07
1.46272e-08
1.37184e-08
0.000364946
0.00178398
0.137709
9.2863e-08
4.24368e-06
0.0407798
2.60811e-08
0.000800092
2.17114e-08
5.5534e-08
5.90349e-08
5.96628e-07
3.22701e-11
4.66323e-10
4.52407e-11
2.73918e-07
1.16355e-08
0.00112138
3.58399e-07
1.00501e-05
8.81565e-10
6.28192e-05
0.198133
0.00380597
2.0592e-05
3.4121e-05
2.05089e-07
6.26337e-09
6.99768e-09
1.09561e-05
0.000788898
4.73235e-08
8.81554e-06
2.98705e-05
2.08414e-09
5.692e-09
0.311707
1.33333e-08
0.0215561
9.54183e-10
0.000108693
0.00365845
5.06355e-09
2.62432e-11
0.000852917
1.43077e-10
6.40912e-11
0.0200324
0.00105457
5.03336e-05
3.96015e-08
6.23422e-10
0.00571663
1.0262e-07
0.0137644
9.49182e-08
1.9096e-09
0.0022037
7.76949e-05
0.12362
1.10667e-09
6.68679e-10
8.27455e-09
0.00022278
0.170984
2.56521e-08
3.60391e-09
1.28181e-07
0.064387
2.62159e-09
0.0212527
0.0233567
1.71153e-08
5.95326e-10
0.0366239
2.95039e-09
3.65851e-07
5.34818e-11
4.52484e-07
5.29395e-10
0.0601318
6.06018e-06
2.47207e-09
1.09812e-09
0.0012657
9.74387e-10
0.00104146
9.96733e-09
1.17175e-08
2.01233e-07
0.00526386
0.000774581
0.0325781
0.000922646
0.00112102
0.5429
0.0140395
0.000752149
1.93535e-07
5.07174e-10
0.0480236
0.00236722
0.000688208
0.000781296
5.62658e-10
0.0212711
1.52461e-10
0.00293089
1.79495e-08
0.010012
3.13895e-06
0.0551891
1.96763e-08
3.85825e-09
0.0170958
5.39876e-06
1.18773e-09
0.00925497
0.000269482
3.95828e-08
1.26155e-11
0.0385831
0.0118387
0.0144085
0.011041
0.0104493
0.0156155
0.00203203
0.00544009
1.57065e-07
0.0199349
2.21928e-06
8.29446e-06
1.38195e-10
1.78934e-08
3.87609e-09
0.0184923
1.86425e-09
4.95833e-08
6.27009e-12
7.92142e-06
0.00694467
0.00150827
0.00281086
3.87269e-10
0.00408018
0.000918475
0.00179301
0.00182679
4.88626e-06
0.0399054
1.07515e-08
7.6246e-09
2.40313e-09
0.0114915
0.00142307
7.68642e-09
8.62269e-10
0.00758112
1.0549e-08
0.625654
0.00100849
0.0801164
2.30922e-10
3.06248e-09
0.000786964
4.75217e-10
0.011092
1.00527e-08
7.17473e-05
3.25707e-10
0.00933707
8.14123e-09
3.83456e-09
1.99961e-05
0.00268431
0.0012055
2.57063e-08
0.0012792
7.01033e-10
0.00435619
0.227568
0.0020097
7.81553e-09
0.000398816
4.30684e-10
5.40549e-08
6.77661e-06
0.0165584
0.000172902
4.86042e-09
0.000393706
0.00368103
0.00426119
0.00843121
1.08619e-08
7.12514e-09
6.05365e-08
2.41307e-08
4.19445e-09
2.49371e-09
0.00125143
0.000691111
2.80926e-09
0.00139196
1.89277e-10
5.60009e-09
0.0706862
1.18477e-08
1.03257e-10
0.000647901
2.37191e-09
6.90407e-11
1.05391
1.58964e-10
3.02596e-11
0.00138754
0.00156559
3.73956e-09
0.000694135
7.77439e-10
0.0207131
0.00083276
1.24156e-07
1.67564e-05
2.037e-11
3.01986e-09
2.30391e-08
3.89103e-09
0.104696
0.000756757
0.000250095
8.65722e-10
0.00086422
1.64879e-10
6.5371e-09
8.53474e-10
0.00174709
3.48176e-05
0.000107441
2.50406e-11
1.72853e-08
0.000899341
1.87865e-05
7.58833e-09
4.82213e-06
0.00185294
0.00143098
6.49441e-07
0.00144917
1.81214e-05
0.000795307
7.26033e-07
0.00113999
6.00269e-06
0.0302456
3.51832e-08
0.00546166
7.81493e-06
1.81538e-05
1.06001e-10
0.0015618
1.85267e-09
0.00448737
0.0193285
2.78363e-08
0.00264515
1.44102e-05
4.6138e-09
0.00819376
6.89211e-09
4.75841e-10
1.89187e-09
8.89585e-10
8.91351e-08
1.99634e-09
1.33108e-08
2.06024e-09
0.239203
7.60774e-07
7.13289e-11
4.81111e-11
1.06951e-09
2.1798e-09
0.0293119
0.779212
4.20051e-05
1.8615e-05
1.34776e-10
0.00156593
0.00104614
0.000861591
5.27036e-07
2.99929e-07
9.40992e-09
1.67638e-08
5.00944e-08
3.92088e-06
2.00747e-06
0.00356828
0.00124967
1.46563e-09
0.000109124
7.05966e-06
8.62824e-10
0.0263854
9.04156e-08
2.10865e-09
3.88448e-08
0.165433
0.00115007
2.69546e-11
0.0215536
3.06497e-09
0.000814037
9.72949e-07
0.000664158
0.0481823
8.52214e-10
1.16073e-09
8.85389e-09
4.87425e-07
0.00645017
0.230618
0.026837
0.0452093
0.00267389
0.000159273
2.52765e-10
2.01478e-06
0.105991
0.0015688
1.70529e-06
5.71151e-05
8.09573e-08
0.00169829
5.70501e-09
0.210806
0.000713294
7.04123e-10
0.000170438
0.000143056
2.11976e-09
0.0116439
5.60983e-10
4.40843e-09
0.202235
0.027967
1.6051e-09
2.3467e-09
2.44754e-08
3.06794e-10
1.78622e-09
2.00637e-06
4.40843e-10
1.89693e-11
0.00343931
9.11103e-11
2.55936e-09
3.55629e-09
1.438e-05
8.90637e-09
3.01742e-06
1.33857e-08
2.10498e-09
3.9568e-07
1.23009e-06
0.00242396
0.000714581
1.38691e-06
0.00420731
4.42598e-08
0.00603709
0.0105575
6.03031e-09
0.00277395
3.85707e-09
0.000768295
0.000710893
6.93087e-06
0.00150373
0.00127909
9.87354e-08
1.74595e-11
0.00183074
3.0753e-09
3.55373e-10
1.30684e-08
2.93797e-07
3.27028e-09
3.42079e-07
0.0401927
1.79925e-10
8.23117e-10
0.323966
5.98195e-11
0.000287445
1.76293e-07
0.000947815
4.41414e-10
1.1222e-05
2.55981e-06
0.00430491
6.02691e-06
0.000400358
3.40622e-06
0.0376657
4.55063e-06
0.00126105
8.76956e-05
4.75523e-06
9.57057e-08
0.000989096
5.43318e-06
2.08443e-05
8.5539e-08
2.79935e-09
0.00074446
0.000219335
0.0206213
0.0106746
3.74937e-05
3.39457e-08
0.000294214
0.00412051
0.0159771
2.90997e-12
0.0108413
0.000253752
0.00214462
0.00111531
0.000410272
0.00451353
0.00109238
0.0357212
9.26184e-07
0.00928827
0.00719263
1.43092e-06
5.06112e-07
1.50098e-07
0.000576536
0.00309938
1.2796e-06
0.0121629
3.38313e-07
1.91184e-06
0.00732567