/*--------------------------------*- C++ -*----------------------------------*\
  =========                 |
  \\      /  F ield         | OpenFOAM: The Open Source CFD Toolbox
   \\    /   O peration     | Website:  https://openfoam.org
    \\  /    A nd           | Version:  10
     \\/     M anipulation  |
\*---------------------------------------------------------------------------*/
FoamFile
{
    format      ascii;
    class       volScalarField;
    location    "25";
    object      T;
}
// * * * * * * * * * * * * * * * * * * * * * * * * * * * * * * * * * * * * * //

dimensions      [0 0 0 1 0 0 0];

internalField   nonuniform List<scalar> 
111485
(
303.15
285.232
301.172
303.15
298.735
283.15
299.231
293.58
296.717
286.438
300.738
296.446
300.46
284.665
300.214
286.915
290.287
300.895
294.506
303.15
303.15
283.15
297.606
288.888
301.551
303.15
293.484
299.396
289.288
303.15
300.819
284.926
303.15
283.15
283.495
283.15
302.329
283.187
283.149
296.965
283.15
290.081
297.368
302.939
303.181
303.15
287.678
288.743
290.132
303.15
303.15
283.15
303.15
299.323
303.15
293.814
288.088
283.15
283.338
295.855
296.249
303.15
302.15
300.528
283.15
284.644
301.548
291.801
302.118
302.52
303.172
301.252
303.15
302.17
303.15
292.933
283.15
293.872
283.15
283.15
283.255
293.934
283.15
303.15
300.525
284.303
283.15
301.742
303.142
287.799
283.518
289.911
301.07
283.286
290.275
303.15
303.15
301.742
303.15
283.452
303.15
286.905
283.15
285.424
285.872
283.15
283.15
285.699
301.627
283.145
283.532
288.435
301.481
301.866
303.15
286.409
303.15
283.15
300.343
303.15
303.15
283.15
283.15
283.15
283.451
303.153
283.15
284.144
303.15
283.186
303.065
302.137
303.15
283.15
283.15
292.947
283.15
291.742
299.065
301.248
303.142
297.165
299.232
284.89
302.353
283.171
283.15
303.15
283.15
297.485
285.062
303.15
303.145
283.153
283.156
294.159
296.016
302.578
283.153
303.15
303.15
292.622
286.429
283.151
283.156
288.725
283.751
283.15
283.152
283.16
283.15
303.15
283.21
283.15
283.209
283.154
283.15
303.15
303.15
283.15
303.15
303.15
297.975
293.924
296.182
283.156
301.583
297.134
283.195
303.15
291.897
303.15
303.15
297.902
286.466
301.629
301.353
283.177
303.15
300.994
284.704
283.163
301.057
287.593
303.15
297.824
288.58
303.15
283.247
300.352
284.927
297.462
303.15
303.15
297.637
283.15
293.354
283.15
298.009
292.853
290.704
303.15
296.227
300.753
283.15
283.15
283.15
289.964
283.158
283.15
303.15
293.571
283.318
290.296
283.15
303.15
303.112
303.15
284.407
293.746
294.041
294.189
294.321
283.15
283.143
290.932
283.15
283.15
289.002
288.727
283.15
283.473
289.05
303.15
283.15
301.035
303.15
303.15
303.12
303.15
286.393
284.959
283.167
303.15
290.34
303.15
303.15
303.15
283.148
298.411
301.138
299.671
291.416
299.763
296.592
283.217
283.261
283.341
283.15
303.15
283.149
285.729
299.032
283.226
303.15
298.281
297.588
299.154
302.987
283.164
297.424
299.617
302.044
283.15
283.678
283.15
283.148
303.15
284.087
290.475
286.628
303.15
283.15
297.713
283.245
303.15
303.15
303.15
284.079
283.275
301.25
284.509
293.461
283.15
283.15
303.15
298.433
303.15
283.921
290.097
283.151
283.15
303.15
303.15
283.15
294.702
290.169
283.15
295.932
283.15
303.15
301.326
297.507
294.179
296.029
283.15
283.15
283.15
296.826
283.168
302.408
283.15
283.15
283.147
290.306
296.941
283.234
290.915
283.15
293.231
299.541
284.314
299.075
285.392
283.15
303.15
283.15
303.15
290.858
296.576
288.319
292.4
283.15
286.532
283.15
303.15
294.239
303.15
302.199
303.15
283.15
292.361
283.15
283.16
284.734
283.15
284.037
298.275
283.15
300.215
284.798
299.007
303.051
283.181
283.188
283.15
303.15
303.147
283.15
301.178
301.112
283.15
283.15
294.882
284.461
283.308
296.848
283.15
295.625
296.443
283.15
302.167
283.958
303.15
303.15
283.158
298.923
283.15
303.15
303.15
303.15
300.836
283.15
303.15
294.145
283.172
287.424
300.228
283.15
283.15
302.689
283.15
302.557
301.657
298.327
291.035
283.15
284.603
303.393
303.15
299.056
292.571
303.15
283.15
283.317
283.15
290.395
286.416
283.192
283.15
283.185
296.79
283.191
303.147
283.15
303.15
303.15
283.17
283.186
283.15
284.407
303.137
283.15
303.15
303.15
303.15
301.817
283.182
286.183
284.267
284.438
283.15
285.876
303.15
300.956
283.15
303.15
303.15
300.913
303.15
303.15
283.151
303.15
283.15
300.953
283.15
283.15
283.15
303.15
283.15
303.15
283.15
283.699
283.15
303.132
301.873
283.86
283.15
303.095
283.15
303.15
284.824
284.793
286.302
298.066
283.15
297.911
298.011
283.228
283.263
285.41
303.15
283.23
283.15
300.167
283.15
297.223
283.15
283.678
298.921
303.15
283.15
283.281
303.15
296.019
299.437
283.15
283.15
283.15
283.15
303.15
294.191
283.15
283.15
283.249
283.15
300.129
283.15
284.948
303.15
283.461
303.128
284.716
283.612
283.15
283.152
283.15
283.15
285.866
283.15
283.26
283.15
299.99
303.15
291.112
303.15
283.15
302.534
284.576
300.369
285.83
300.375
289.678
283.15
300.872
284.665
283.15
283.138
300.726
301.76
283.15
282.26
301.259
303.078
283.132
303.15
287.779
302.265
284.507
285.564
283.351
282.34
283.15
303.15
301.355
303.15
283.581
283.15
283.15
285.965
282.622
303.15
303.125
283.15
286.502
299.825
283.15
283.15
299.831
303.15
283.15
283.15
283.15
286.367
283.15
303.15
284.964
283.778
303.15
299.912
283.15
288.218
303.15
283.15
286.37
283.15
283.15
283.15
283.152
283.15
285.622
286.248
303.15
300.669
283.482
299.044
301.141
283.414
283.478
283.15
289.335
298.773
303.15
301.776
296.562
297.262
283.151
297.809
297.556
303.15
300.434
303.141
283.15
297.546
284.956
283.15
286.222
296.154
284.972
299.099
300.829
286.177
283.15
299.217
283.501
303.15
300.801
302.071
287.771
283.15
283.156
303.15
283.15
283.15
283.15
283.313
283.15
303.15
303.15
283.15
300.602
299.59
303.15
285.816
303.15
303.15
303.15
290.276
283.432
283.15
303.15
283.15
283.15
287.34
287.171
283.15
295.614
283.13
283.15
295.778
302.338
283.346
283.15
283.15
300.427
286.793
283.15
283.15
283.15
293.604
303.15
303.15
283.15
296.681
302.476
283.15
282.922
301.823
283.267
283.15
283.15
287.665
303.011
283.15
283.161
288.214
283.802
283.155
283.15
285.861
300.57
283.15
303.15
283.15
283.15
283.15
283.15
296.145
303.15
283.15
283.15
295.77
286.636
303.15
303.15
290.245
287.663
287.865
303.15
283.15
287.608
303.15
283.936
289.09
289.46
303.15
303.15
303.15
283.15
286.227
283.15
283.15
302.736
303.15
296.927
302.402
283.15
287.166
283.207
295.913
292.214
283.457
290.191
283.15
283.15
296.213
288.472
283.16
283.15
283.15
299.519
283.242
283.15
283.982
284.724
283.515
303.15
303.15
303.15
286.481
283.15
284.049
283.15
284.456
283.217
284.149
287.183
283.15
283.15
303.15
288.547
283.15
283.15
303.11
283.15
283.15
303.15
283.15
284.195
283.15
283.15
283.15
283.15
283.15
303.15
283.15
283.174
284.565
303.15
302.583
283.125
283.429
283.086
283.574
283.15
284.555
290.865
283.429
303.15
283.15
284.234
283.15
283.89
283.184
283.142
286.369
283.547
283.245
283.181
284.579
283.15
283.15
283.39
283.329
283.15
283.47
291.516
284.531
283.15
283.257
283.15
284.823
284.679
283.15
283.225
284.435
283.148
283.173
283.15
295.97
283.143
303.116
283.163
283.159
283.15
283.15
284.536
283.15
302.997
283.645
283.158
303.147
303.148
303.147
283.15
283.15
292.973
303.15
303.135
283.955
283.15
283.15
303.153
303.15
283.15
303.162
283.15
283.15
303.15
303.15
303.15
303.15
283.382
283.15
283.15
283.15
303.159
283.324
283.941
292.57
283.15
283.15
283.365
283.15
283.15
283.15
287.483
293.843
283.15
283.15
283.15
283.15
283.15
283.15
284.1
283.15
303.151
291.894
283.15
303.15
303.15
303.15
303.15
303.15
283.15
303.166
283.15
283.768
283.143
303.152
283.15
303.071
284.549
292.538
303.15
303.131
284.631
303.15
283.15
303.15
283.15
293.003
293.844
284.827
303.148
283.15
292.286
283.15
283.15
303.15
283.15
295.245
283.15
303.15
283.162
297.959
303.15
284.555
283.15
283.649
283.15
283.15
283.15
303.15
283.431
283.495
285.022
283.15
283.15
283.381
283.15
283.15
303.15
284.476
303.161
298.881
303.15
303.132
303.133
283.15
303.135
283.15
283.489
289.523
301.007
283.915
283.172
283.15
283.15
283.15
303.177
283.15
302.961
303.15
293.859
303.15
288.893
283.872
303.15
283.15
303.15
283.15
302.004
303.15
303.15
283.472
300.891
283.15
283.15
283.15
283.15
283.15
283.15
301.139
283.622
303.15
303.15
303.155
303.15
300.56
283.203
283.15
302.247
303.15
283.173
283.15
302.628
283.15
283.147
303.152
283.346
302.261
300.561
283.147
283.15
289.643
303.15
293.8
303.15
283.15
303.15
283.15
283.15
283.15
301.1
302.189
303.15
303.15
303.15
302.941
283.148
303.15
293.328
283.077
303.15
287.446
284.625
296.842
283.4
283.15
283.15
283.15
283.15
295.042
283.15
295.437
283.15
303.077
290.038
283.15
302.907
283.15
283.15
302.812
283.147
302.896
283.15
303.15
283.15
302.434
283.15
303.15
283.15
283.147
283.15
283.176
283.15
283.15
303.15
285.258
283.955
296.506
297.376
303.15
303.124
283.15
283.15
283.396
283.15
283.159
302.896
283.612
302.986
303.15
283.398
283.15
303.15
283.15
303.018
283.382
298.383
283.15
303.15
288.339
303.15
283.15
283.113
295.498
283.147
283.15
283.15
283.146
303.15
283.15
303.144
303.15
303.15
290.337
303.021
303.03
289.4
289.847
283.15
283.15
303.116
289.472
283.15
303.15
284.936
283.15
303.15
283.15
283.15
283.15
298.451
283.15
302.97
283.15
300.894
283.15
283.15
283.15
283.15
283.15
283.15
285.233
283.15
283.15
283.15
283.15
283.15
283.15
292.415
283.15
298.459
302.989
283.15
302.339
283.15
302.594
303.146
283.698
283.483
303.15
283.952
284.983
303.122
303.15
303.14
295.086
283.193
283.15
283.207
283.15
283.15
283.15
283.15
283.211
283.15
283.15
283.24
303.139
283.158
283.15
283.15
302.547
283.15
283.2
303.15
283.751
283.15
283.15
302.849
283.15
303.175
303.15
283.15
289.098
298.056
290.404
285.926
293.07
294.436
283.15
283.15
302.393
288.961
293.177
284.543
283.15
294.544
283.15
303.15
300.973
298.922
283.15
294.829
283.15
290.828
292.094
303.15
283.15
283.15
301.928
283.15
283.15
300.746
292.891
283.198
283.274
283.15
283.15
302.854
300.763
283.15
300.861
283.15
300.727
283.15
283.15
301.02
283.15
283.233
301.74
283.15
283.15
302.505
283.15
288.112
303.15
290.966
303.15
303.15
303.15
301.154
283.15
283.15
299.804
283.15
303.011
283.15
283.15
303.15
283.149
288.407
283.15
283.15
288.264
288.446
283.15
283.758
283.15
303.15
302.498
283.801
283.15
283.15
283.15
283.15
283.15
283.15
283.15
283.15
283.15
283.15
283.15
283.15
303.15
283.15
283.15
283.15
283.15
283.15
283.15
283.15
283.15
303.15
287.151
283.15
283.15
283.15
295.098
283.15
303.15
303.066
283.15
283.15
295.109
283.15
283.15
302.183
295.578
283.15
303.475
303.521
283.15
301.746
294.374
297.879
301.613
297.31
303.15
283.15
296.452
292.123
301.57
283.15
301.788
302.48
301.056
283.256
283.27
301.252
283.994
301.816
303.15
286.033
297.843
285.796
297.565
283.15
283.15
283.15
303.15
283.15
292.348
298.206
283.15
283.15
283.15
283.15
283.15
303.15
283.15
303.15
292.327
303.157
299.27
302.867
283.15
283.15
285.587
283.172
283.15
283.15
301.698
303.15
283.15
298.425
299.723
297.821
298.976
301.059
303.15
283.159
302.607
303.15
303.15
300.556
303.15
283.15
282.802
296.197
302.978
283.15
303.15
290.241
286.342
283.164
292.542
302.61
303.15
303.141
303.15
303.15
283.15
298.951
283.15
292.141
283.163
299.944
284.868
303.15
298.682
303.15
283.15
303.15
303.15
284.081
300.449
283.15
303.15
303.14
292.133
303.069
299.16
293.165
283.658
293.263
283.15
303.15
283.15
291.725
296.795
303.15
303.15
303.15
303.15
297.937
302.582
283.15
298.069
301.393
285.081
297.649
303.15
303.15
296.994
293.302
283.15
302.942
300.072
302.652
292.173
296.522
296.918
303.15
283.408
297.832
289.805
283.15
289.449
303.15
288.59
297.303
303.15
283.29
295.636
298.004
293.567
283.148
283.158
283.244
302.064
295.687
303.15
283.418
294.635
303.15
283.15
303.15
303.203
299.059
292.304
297.002
303.234
283.149
298.156
303.15
303.15
293.137
303.15
299.323
283.34
294.625
283.587
303.15
283.714
293.556
303.15
282.965
293.115
303.15
292.647
284.802
303.15
303.15
284.047
303.15
283.15
283.15
283.215
299.974
291.663
303.15
285.471
285.898
283.15
286.716
287.358
283.512
303.138
283.15
300.436
283.273
287.014
285.871
283.488
291.505
302.512
303.15
283.151
283.562
303.15
287.167
283.15
283.15
303.15
283.15
303.15
297.865
283.15
285.533
283.681
303.15
283.878
283.15
283.781
303.15
303.147
303.15
294.489
303.012
303.128
285.724
283.877
289.655
283.659
287.057
303.15
286.541
292.601
287.064
303.15
283.876
283.519
287.07
287.399
283.558
303.15
283.15
303.15
285.583
303.15
303.249
283.197
303.266
302.977
303.15
303.15
283.15
300.536
300.656
284.048
303.103
283.289
295.884
300.288
292.932
283.863
300.024
296.267
283.15
283.15
303.15
285.969
289.917
283.15
283.15
303.15
300.024
284.051
303.15
296.546
303.15
283.155
285.431
301.022
303.15
303.15
292.704
303.15
283.335
286.086
283.15
297.484
294.895
283.503
303.15
302.779
283.15
302.723
293.887
303.15
303.15
284.9
283.15
303.15
286.413
283.163
303.15
303.15
283.15
296.58
303.24
289.919
300.062
298.064
303.15
303.157
302.698
303.15
283.15
303.15
303.15
303.15
303.15
303.15
303.15
303.15
283.15
303.15
303.15
283.384
303.15
303.263
303.15
303.162
303.15
303.15
301.225
303.65
303.15
292.495
303.15
303.15
283.15
302.634
303.15
302.239
303.123
283.3
283.15
303.15
302.958
283.149
303.15
303.15
291.814
283.15
293.032
283.15
283.15
283.147
291.655
284.945
303.15
296.902
283.15
303.52
303.136
283.854
302.671
283.15
292.612
303.091
301.844
283.15
303.15
283.15
303.777
284.299
296.782
303.15
303.15
303.15
303.15
303.15
303.15
302.451
302.854
297.158
292.728
303.15
287.459
293.085
284.182
303.201
283.15
286.292
302.804
284.858
283.147
287.641
303.15
283.409
302.951
292.973
302.887
302.103
303.15
302.262
303.15
303.15
298.232
303.15
284.618
303.15
303.15
283.15
303.15
303.15
302.887
303.15
283.307
283.15
283.15
286.068
285.156
300.539
286.32
303.15
295.795
303.15
290.767
303.15
287.484
300.949
301.688
293.724
303.15
303.15
303.15
289.481
283.15
303.15
289.159
283.15
283.15
302.004
303.15
286.334
283.147
283.15
303.15
303.15
299.165
298.519
303.15
283.165
303.058
283.15
298.734
303.15
286.091
288.441
290.761
303.15
296.671
296.872
302.984
302.033
301.779
303.15
303.15
303.147
303.15
283.15
303.15
289.341
300.037
294.605
302.254
283.15
300.594
291.839
298.532
283.678
298.698
290.106
302.279
283.15
283.15
283.15
302.317
283.15
290.957
283.15
301.469
303.158
289.542
285.545
283.15
303.15
301.458
301.439
303.15
283.15
303.15
286.413
301.628
303
302.432
283.395
288.598
303.15
303.15
303.15
283.311
286.193
283.159
296.273
283.843
302.98
303.15
303.15
283.15
283.15
283.182
299.829
303.15
303.15
283.15
303.15
303.15
303.15
300.558
303.15
285.572
294.077
283.15
283.254
283.174
285.56
303.15
303.15
302.033
303.15
299.577
283.145
297.104
303.15
303.15
283.15
303.15
303.15
303.15
305.827
303.15
301.99
301.013
303.15
303.15
301.797
303.15
283.15
287.458
303.139
303.15
303.15
303.15
287.851
303.15
303.15
302.739
302.573
301.943
303.15
283.15
303.15
302.172
302.584
301.695
302.597
283.15
284.576
283.162
283.19
283.15
303.15
303.15
303.15
303.15
294.73
287.75
299.741
303.15
303.15
303.15
303.15
283.15
303.149
283.156
283.151
283.15
303.15
303.15
283.147
299.975
295.633
283.15
303.15
303.15
303.15
303.15
289.803
289.996
303.15
303.15
302.43
303.15
300.606
283.999
292.669
303.15
283.15
300.537
303.133
303.15
303.817
283.157
287.141
303.15
303.15
303.15
303.15
283.717
283.624
303.15
302.766
298.524
291.862
303.15
303.15
303.15
303.15
299.791
303.151
303.15
303.15
286.198
302.6
285.524
303.15
303.15
298.214
303.15
303.15
303.15
303.15
289.041
303.15
283.15
283.15
289.42
291.442
303.15
303.15
303.15
297.356
303.148
303.15
303.15
303.15
303.15
303.497
301.115
303.15
287.566
302.697
299.655
303.15
303.15
303.15
303.15
283.15
285.917
303.15
302.818
283.15
302.3
303.15
303.14
303.15
283.15
301.943
287.008
283.15
302.87
303.15
302.514
283.15
303.15
303.15
303.152
303.15
283.28
303.15
291.103
283.15
283.15
303.15
303.15
288.818
302.489
283.15
302.566
283.15
284.262
288.391
302.771
283.15
303.154
303.015
303.138
284.551
283.157
303.006
283.15
283.15
283.155
294.3
302.4
303.15
283.15
283.15
296.863
303.15
283.15
303.15
303.15
303.15
303.1
303.061
302.977
298.936
303.15
302.972
303.15
285.029
303.15
303.15
283.15
303.15
303.114
303.15
283.15
303.15
288.504
303.15
303.15
303.201
283.15
303.419
302.917
298.515
303.15
291.69
297.438
284.598
292.079
283.15
283.15
287.378
284.497
283.15
303.582
283.15
286.564
303.15
283.15
303.159
303.15
303.15
303.031
303.154
303.15
283.15
303.142
303.15
283.15
283.1
299.099
302.76
303.15
302.001
303.15
285.839
303.151
301.473
303.15
303.15
301.258
303.15
303.15
303.15
287.882
303.15
285.272
303.15
303.148
303.15
283.15
283.15
303.15
303.15
303.15
288.963
302.648
303.15
303.15
288.921
283.157
292.613
303.15
302.763
287.859
287.787
303.15
303.15
288.786
283.15
292.712
303.15
303.151
303.15
303.15
300.378
283.15
302.347
283.15
303.15
303.15
303.15
303.15
303.15
284.513
302.175
291.833
303.15
303.15
291.352
303.15
303.15
303.15
303.15
303.15
283.154
303.15
303.15
283.15
283.155
303.15
283.15
303.15
283.203
283.15
283.355
291.132
302.745
283.319
283.425
303.15
303.15
303.15
283.337
285.743
283.15
303.15
283.339
303.15
303.15
292.789
303.15
287.722
303.15
283.69
284.465
303.15
283.15
303.15
303.15
303.15
285.501
303.15
283.316
303.15
303.15
289.884
283.15
284.954
303.15
303.15
288.487
301.421
297.163
303.15
303.15
303.15
301.408
293.026
303.15
283.15
303.15
291.861
303.15
284.978
297.058
303.15
303.15
289.954
303.15
303.15
283.15
303.15
283.15
295.522
303.15
283.15
303.15
303.15
303.15
303.15
303.15
303.15
283.15
301.362
283.15
286.896
303.15
303.15
296.503
291.316
303.15
283.15
303.15
289.429
283.15
303.15
303.15
303.15
293.456
303.15
298.35
303.15
286.138
283.15
286.957
303.15
303.15
298.832
283.15
303.15
285.36
283.251
303.15
303.15
285.24
283.994
289.16
287.732
289.569
293.403
287.52
283.919
303.15
298.404
283.15
283.15
303.15
303.15
303.15
290.268
303.15
303.15
303.15
303.135
283.173
283.15
283.593
303.15
302.137
283.15
303.144
293.141
283.15
294.992
303.15
303.15
283.15
293.901
283.993
303.15
283.15
294.6
303.15
298.219
303.15
296.072
303.15
283.15
303.15
283.15
289.109
283.15
283.257
283.15
286.396
303.15
303.15
283.15
283.15
303.15
303.15
303.15
303.15
285.008
285.227
283.15
303.15
283.237
283.15
283.15
303.155
290.306
283.588
283.15
283.67
285.014
300.494
288.564
303.15
303.15
303.15
303.15
283.15
283.15
283.15
303.15
283.15
283.15
303.15
283.15
297.824
283.15
303.15
283.15
303.15
303.15
283.966
283.15
303.15
302.088
303.15
303.15
303.15
303.15
288.924
283.15
303.15
303.149
283.15
303.15
303.15
303.15
295.49
283.15
283.21
303.15
303.15
303.15
303.15
303.15
303.15
303.146
283.94
303.15
283.15
303.15
303.15
303.15
303.148
303.15
283.15
283.15
283.15
303.15
303.15
283.15
303.15
283.15
287.934
283.15
301.993
283.15
303.154
303.15
284.718
283.15
284.553
297.919
303.15
284.807
303.169
303.15
297.941
283.15
303.15
303.15
303.15
303.15
283.15
303.15
303.15
299.507
283.15
303.15
303.15
303.15
303.15
292.486
292.052
303.166
283.174
303.15
301.953
302.403
303.15
283.15
283.15
303.15
303.15
303.15
283.15
283.15
283.876
303.15
303.15
303.18
303.15
283.15
289.275
303.15
283.15
303.15
288.665
303.15
283.15
302.264
283.15
283.15
283.15
303.15
299.975
303.15
303.15
303.15
283.15
284.62
294.296
295.931
290.015
303.133
303.044
283.15
283.15
301.371
283.74
283.15
303.149
303.15
303.15
283.15
295.26
303.15
283.15
303.011
303.15
303.15
283.863
303.15
303.15
289.013
290.246
303.15
283.15
303.15
283.15
303.15
303.15
303.15
303.15
284.005
303.15
303.15
303.15
302.97
303.15
303.15
283.15
283.15
283.15
283.15
302.984
283.15
283.15
301.191
303.15
284.909
285.08
303.15
301.327
303.15
283.15
303.15
283.15
283.15
303.15
303.15
303.15
302.716
303.15
303.15
303.15
283.15
303.15
283.15
286.602
303.15
303.15
292.23
303.15
283.15
283.15
302.499
303.15
303.148
283.15
303.206
283.21
283.15
283.15
299.493
283.15
283.15
303.067
303.158
283.163
303.164
303.151
303.152
283.15
283.15
302.719
283.522
286.145
301.024
283.164
283.15
284.43
301.722
301.609
283.15
300.442
283.826
300.199
302.299
302.905
284.902
286.186
299.507
283.154
293.041
300.332
303.15
283.173
283.16
302.844
283.702
283.2
301.303
283.162
303.15
301.372
303.15
300.298
301.666
283.675
285.118
303.15
283.15
302.315
301.833
283.146
303.168
285.305
302.73
302.084
301.051
303.15
303.192
301.376
295.608
300.479
289.742
302.971
301.651
302.227
302.357
284.243
302.577
283.151
283.181
303.15
302.929
303.15
303.15
302.224
302.155
283.28
303.15
284.83
292.893
292.538
301.705
303.15
284.152
283.151
284.459
303.15
288.532
303.15
296.447
295.726
301.009
303.145
303.15
303.15
302.127
301.456
302.835
303.15
292.861
302.79
290.503
283.15
298.416
283.225
303.15
300.564
283.15
283.207
283.15
302.685
303.124
303.15
302.998
283.312
283.147
300.719
302.32
286.792
283.602
296.289
283.237
283.527
303.138
284.939
285.91
283.331
297.404
300.731
300.556
298.332
302.125
290.979
284.009
303.15
302.773
302.711
302.695
292.219
302.915
283.15
302.152
293.641
303.15
283.473
283.155
301.377
302.677
283.678
283.151
287.959
302.702
296.9
303.15
303.15
295.562
283.15
293.251
283.474
303.15
283.754
290.844
283.961
303.15
297.508
298.534
284.338
301.522
294.355
286.801
300.586
303.115
303.15
303.15
283.657
302.692
283.382
285.997
303.15
303.033
303.053
303.15
285.547
300.817
283.271
283.292
299.861
302.488
285.327
287.205
283.15
303.115
301.587
283.843
283.168
303.15
303.088
303.15
303.15
284.26
302.601
296.425
283.083
283.151
303.15
283.15
302.974
303.059
302.567
301.569
303.15
283.15
283.15
301.941
301.991
283.259
295.969
303.15
303.15
301.76
285.708
283.268
301.818
301.905
301.885
284.527
303.15
283.15
298.554
283.245
303.15
302.773
302.207
285.284
285.124
302.232
303.052
303.15
298.448
284.532
283.15
303.15
283.17
283.166
285.986
283.433
302.198
285.871
286.082
300.317
290.531
283.636
303.15
303.15
283.151
283.179
302.218
283.152
300.785
301.862
283.668
288.462
302.508
283.15
283.15
283.019
303.15
303.15
300.188
299.075
302.396
283.145
283.15
284.026
283.149
283.15
283.153
303.09
301.156
299.509
283.203
283.411
303.116
283.455
303.15
283.15
302.658
285.906
300.959
289.011
283.548
303.077
283.147
283.15
302.88
283.753
302.682
283.163
291.789
285.045
303.15
284.402
284.209
283.15
283.324
285.123
284.942
283.15
283.15
301.776
283.15
283.173
302.597
302.731
301.868
283.536
300.01
291.251
283.15
303.269
292.676
283.15
283.15
283.15
303.15
301.178
302.495
299.347
299.961
299.983
289.299
283.154
287.098
283.445
303.074
291.51
300.152
292.274
283.15
286.555
299.548
301.669
283.15
284.09
299.88
283.15
303.15
283.197
299.467
303.15
284.093
302.309
303.044
303.15
283.15
283.3
303.152
301.85
283.15
283.15
283.15
302.328
298.051
303.14
290.783
303.162
303.15
287.444
303.162
290.632
283.193
283.193
295.578
283.158
283.165
283.15
290.34
283.926
283.164
290.687
283.66
283.424
283.278
283.515
283.181
285.26
283.184
302.329
286.33
283.145
283.147
283.514
283.076
283.592
283.159
296.152
289.573
289.69
289.454
283.124
295.587
283.15
290.452
291.091
298.895
283.365
283.15
300.847
283.15
302.854
283.15
303.15
286.637
286.692
283.15
288.605
298.618
287.332
303.15
303.15
301.942
289.534
303.075
283.776
283.896
287.426
303.147
284.357
288.536
303.15
301.612
283.15
283.15
287.745
286.402
283.144
285.264
288.065
286.487
301.183
303.15
285.509
287.027
291.484
303.15
303.15
301.794
302.177
303.15
293.938
283.183
283.797
283.34
284.593
290.341
303.15
303.059
297.308
285.285
283.15
287.897
292.976
299.996
283.176
283.769
282.856
302.086
303.134
283.15
303.138
303.15
300.705
293.498
288.196
283.163
283.15
283.169
296.494
285.803
283.218
294.618
283.15
300.319
303.162
293.042
284.168
303.146
291.751
283.203
288.558
283.263
283.221
287.688
283.15
303.143
285.5
283.157
293.899
283.15
283.15
283.15
303.142
283.15
283.135
286.685
303.15
283.15
303.161
283.172
291.305
290.597
303.198
302.953
290.196
303.15
283.672
303.167
302.121
286.967
283.15
283.563
303.147
303.105
285.667
283.15
283.15
283.511
286.335
303.075
303.145
287.799
289.76
283.574
283.162
284.727
293.442
303.15
283.15
303.117
303.15
302.433
285.121
301.669
303.104
283.461
283.808
284.125
302.872
302.312
296.409
294.203
303.09
291.659
288.03
303.15
303.108
302.673
285.618
283.424
303.15
286.105
283.404
302.959
301.686
302.281
283.15
300.554
301.971
303.15
302.235
285.563
303.15
298.245
303.15
283.15
300.862
302.755
286.568
302.562
283.15
283.201
303.039
283.15
302.247
285.497
295.179
284.446
303.15
303.03
302.888
286.703
283.15
287.333
283.262
290.105
285.896
302.056
303.15
283.15
283.15
283.197
283.15
301.03
297.589
283.838
283.15
284.658
283.15
303.15
283.15
300.075
283.16
283.151
285.438
301.695
303.122
303.155
292.523
294.799
298.044
283.3
301.776
283.145
303.15
303.158
300.296
283.15
302.692
283.169
303.15
300.941
287.534
301.953
283.173
288.588
283.15
297.272
287.992
298.81
303.081
283.15
303.15
291.934
298.046
283.093
283.145
287.228
298.759
303.15
284.879
291.289
283.166
290.913
303.151
294.055
287.912
285.076
284.688
292.763
283.835
283.083
303.158
303.15
303.15
288.182
283.161
283.15
303.15
303.15
283.465
283.251
283.16
288.035
302.845
303.15
283.187
301.695
303.15
300.997
283.839
301.622
303.15
284.665
295.312
283.42
302.796
303.15
303.15
285.329
286.792
286.34
283.163
303.15
303.15
283.15
287.432
302.499
285.826
303.15
285.698
303.15
303.15
283.234
283.183
283.15
285.807
286.156
283.184
283.15
303.15
291.917
287.444
303.15
284.678
283.917
283.998
303.15
303.15
303.15
284.222
285.173
302.866
283.884
283.15
284.137
287.936
291.237
300.852
303.15
303.15
283.531
303.116
286.851
296.482
303.15
303.148
283.15
284.188
299.44
285.739
303.15
303.15
283.373
303.13
303.15
303.15
283.15
290.695
303.15
303.15
284.765
299.378
283.15
303.15
284.72
283.378
283.673
287.188
295.054
303.15
283.515
303.15
303.15
283.192
300.735
290.64
283.59
303.15
303.137
302.284
293.476
300.095
301.575
284.539
283.503
300.862
284.097
303.15
302.795
284.234
284.146
301.527
288.02
303.15
297.606
301.555
301.631
301.668
286.582
303.15
283.15
299.399
283.15
283.15
287.936
283.15
284.046
283.15
283.15
283.15
283.15
302.791
284.864
302.746
283.15
293.96
291.1
284.847
283.15
303.15
302.721
301.87
303.202
302.686
283.15
283.16
283.593
283.535
283.15
283.15
296.607
285.4
283.15
283.15
303.149
283.159
283.15
287.464
303.15
303.152
284.388
283.15
288.586
294.591
283.227
283.172
302.992
285.846
302.574
295.49
286.452
283.15
283.564
291.966
303.12
289.617
302.73
283.15
292.536
287.936
300.992
301.238
285.079
303.13
283.156
297.496
302.992
303.149
284.744
303.146
303.027
293.606
302.691
283.15
303.15
303.15
295.117
291.423
283.156
301.391
284.812
284.221
284.716
303.145
288.528
286.198
283.15
283.15
302.609
303.151
294.895
302.954
303.177
300.22
303.206
302.934
283.15
285.648
302.928
283.15
303.15
283.154
303.15
284.41
299.168
283.171
291.979
283.15
287.756
303.044
283.413
283.15
303.049
285.216
301.355
303.137
303.09
283.15
283.15
301.965
302.119
283.812
302.848
302.502
302.451
303.141
283.15
283.17
283.15
302.827
284.799
303.013
303.15
283.15
302.885
285.27
291.633
302.16
283.15
302.663
302.125
283.151
302.572
303.057
303.183
303.032
303.15
283.15
301.578
298.288
303.096
303.15
290.185
285.457
303.15
283.15
284.283
303.181
303.161
302.953
301.347
284.393
303.108
291.037
283.382
303.148
289.309
303.16
283.15
288.658
283.15
300.252
298.558
284.886
288.45
299.928
283.176
295.54
299.481
294.078
303.151
294.015
296.828
283.152
299.698
288.357
303.15
287.83
299.467
303.15
290.052
303.166
301.841
303.15
287.108
286.166
302.855
289.84
283.15
283.15
300.591
301.135
283.817
283.15
303.15
283.174
302.417
300.793
298.627
302.826
292.779
289.824
283.152
292.69
284.418
290.61
283.314
295.765
290.586
294.451
287.431
284.176
303.16
283.278
303.147
285.439
300.961
283.151
300.418
283.158
288.91
302.155
285.21
293.308
283.15
302.982
283.155
283.102
288.407
299.979
303.15
300.403
303.038
283.859
302.816
303.15
301.469
285.084
283.183
302.182
303.149
283.765
283.15
290.71
283.17
285.927
303.166
303.149
283.15
283.15
283.18
303.15
293.977
303.15
303.164
296.407
303.439
303.15
283.256
303.15
303.15
294.189
290.813
303.15
290.006
302.142
289.731
303.15
303.15
286.37
283.349
290.601
303.205
303.15
303.147
285.646
283.323
283.15
289.22
287.907
303.15
284.366
303.15
303.15
303.133
287.52
303.15
303.147
283.312
303.152
302.734
288.101
283.147
283.736
297.394
291.237
303.15
286.072
283.324
297.494
283.176
302.382
284.968
294.161
303.15
303.15
284.077
303.154
302.976
295.914
302.972
302.752
283.185
283.15
283.151
283.229
285.287
302.661
285.247
303.15
283.887
286.889
303.132
283.181
303.15
286.603
283.15
288.168
303.15
300.064
300.314
283.276
283.399
302.407
283.202
301.319
303.15
301.593
301.911
303.15
303.15
283.224
293.901
283.15
283.155
303.15
295.324
283.398
303.15
283.625
298.991
289.193
303.15
302.82
286.761
295.756
284.564
303.161
283.588
296.597
283.819
303.133
302.85
287.672
298.852
283.156
283.169
289.908
283.15
302.987
303.151
303.15
303.165
293.625
296.77
302.996
301.474
303.15
284.492
303.15
303.064
302.9
303.15
293.925
296.415
303.15
285.576
303.106
303.15
303.106
303.154
286.365
293.732
291.354
288.577
283.227
303.15
284.477
291.993
295.675
293.969
303.142
303.15
286.742
303.18
284.374
303.18
303.15
303.15
303.143
303.15
285.127
303.15
284.387
303.146
303.15
290.58
303.145
292.89
295.972
303.136
295.68
285.385
283.48
303.131
302.955
284.784
283.15
283.331
303.15
285.655
302.956
302.12
303.031
298.463
287.31
303.15
283.317
290.082
299.657
283.15
283.655
303.15
303.144
303.184
284.068
303.15
292.706
289.555
303.188
303.15
285.014
283.158
293.624
283.253
302.575
301.528
283.151
303.15
284.804
296.949
302.419
285.77
297.623
291.929
284.628
292.025
303.15
287.089
292.046
286.687
283.177
303.15
286.576
283.406
303.15
302.475
288.325
300.889
283.15
303.15
300.058
291.422
283.22
291.076
301.911
293.345
303.15
289.669
285.27
290.434
290.106
283.177
303.15
283.208
303.15
291.2
303.15
302.874
303.15
292.095
303.15
297
283.15
290.094
303.15
283.15
283.163
300.985
299.885
289.408
300.077
303.15
302.57
303.15
301.516
285.064
303.15
299.983
290.465
303.15
300.217
303.15
303.15
293.092
283.15
285.835
283.249
298.896
303.15
284.292
283.44
288.405
289.804
288.25
299.194
300.269
299.19
283.178
287.28
300.089