/*--------------------------------*- C++ -*----------------------------------*\
  =========                 |
  \\      /  F ield         | OpenFOAM: The Open Source CFD Toolbox
   \\    /   O peration     | Website:  https://openfoam.org
    \\  /    A nd           | Version:  10
     \\/     M anipulation  |
\*---------------------------------------------------------------------------*/
FoamFile
{
    format      ascii;
    class       volVectorField;
    location    "25";
    object      U;
}
// * * * * * * * * * * * * * * * * * * * * * * * * * * * * * * * * * * * * * //

dimensions      [0 1 -1 0 0 0 0];

internalField   nonuniform List<vector> 
111485
(
(0.200095 -0.200265 0.000404091)
(0.567945 -0.00145595 -0.0037307)
(0.561716 0.00130825 0.0017603)
(0.200481 -0.200535 9.71806e-06)
(0.583983 0.00263115 -0.00016128)
(0.199421 0.19938 3.97938e-05)
(0.573818 0.00144019 0.000310222)
(0.588487 -0.00142848 0.000878809)
(0.574417 -0.000321213 0.000383148)
(0.58613 -0.00599155 -0.00249301)
(0.565149 0.00136112 0.00161863)
(0.591912 -0.00115211 0.00283412)
(0.55669 0.000205841 0.00119532)
(0.561144 -0.00146126 -0.00377981)
(0.570255 0.00217523 0.00118187)
(0.580546 -0.00347509 -0.00217053)
(0.572107 -0.000646078 0.000718462)
(0.205458 -0.0240437 0.0333485)
(0.585411 0.00154022 -0.0013365)
(0.197959 -0.197629 -4.37526e-05)
(0.198486 -0.198477 -0.000279257)
(0.2001 0.200029 9.71635e-06)
(0.578812 0.00143382 -0.000306353)
(0.586881 -0.00383881 -0.00111965)
(0.576125 0.00280372 -0.000981456)
(0.201851 -0.201067 -0.000298609)
(0.594147 -0.00252515 0.00316104)
(0.561902 -0.00102178 0.000138545)
(0.586631 0.000800458 -0.00151411)
(0.199437 -0.199493 1.78533e-06)
(0.59126 0.0108659 -0.00300709)
(0.583817 -0.00113427 0.000163361)
(0.198128 -0.198602 0.000328913)
(0.199753 0.200124 -0.000504618)
(0.200768 0.0820122 0.0345217)
(0.200691 0.201823 -0.00281334)
(0.588835 0.0106574 -0.00439809)
(0.568728 0.000665745 0.00493756)
(0.581518 0.174213 0.0112902)
(0.583982 0.00303192 0.000415352)
(0.196574 0.198198 -0.0013947)
(0.590894 0.000549198 -0.00360423)
(0.583155 0.00318579 0.00115091)
(0.562555 -0.00436773 -0.000862033)
(0.589493 -0.0107493 -0.00526897)
(0.199677 -0.198553 0.00122413)
(0.590737 -0.00258517 0.00286108)
(0.586059 -0.00353259 -0.00102571)
(0.590821 0.000111855 -0.00275462)
(0.199138 -0.19693 0.00120085)
(0.197762 -0.195889 0.00126693)
(0.228039 0.191108 0.00311644)
(0.197017 -0.196416 0.000673946)
(0.590699 0.00263364 -0.00537366)
(0.196666 -0.195748 0.000169027)
(0.583421 0.00160234 -0.000592898)
(0.583083 -0.00256668 -0.00106094)
(0.200069 0.199793 4.24317e-05)
(0.531261 -0.0012028 -0.00940834)
(0.586208 0.00240453 -0.000337139)
(0.585941 0.00271638 -0.000229785)
(0.199653 -0.199984 0.000247109)
(0.542545 0.000576072 0.00360559)
(0.593632 -0.00112225 0.0045166)
(0.206086 0.186291 0.000178504)
(0.535695 0.00101389 -0.00129099)
(0.410974 -0.0374524 0.0141762)
(0.587968 -0.00187679 0.000867758)
(0.529223 0.000319669 0.001819)
(0.499722 -0.00109128 0.000196989)
(0.56574 0.00454618 -0.00370692)
(0.524383 -0.000941729 0.00184418)
(0.214902 -0.194232 -0.00423762)
(0.536521 0.00105558 0.00420058)
(0.199885 -0.199761 7.5802e-05)
(0.585126 -0.0012831 0.000593118)
(0.200003 0.200067 -5.54261e-05)
(0.591027 -0.00122745 0.00315285)
(0.199865 0.19978 -4.90488e-05)
(0.178444 0.173427 -0.00624329)
(0.56849 -0.008815 0.00591741)
(0.585737 0.0021231 0.000447192)
(0.198946 0.198547 -2.60647e-06)
(0.199828 -0.19979 9.278e-05)
(0.553029 -0.000146365 0.00101281)
(0.530846 0.00144284 -0.00227105)
(0.453205 0.288757 -0.080419)
(0.582547 0.00726986 0.000638064)
(0.560434 0.0149944 0.0136918)
(0.567116 0.000805746 0.00155521)
(0.598982 0.0110049 -0.00728773)
(0.584835 -0.000989357 0.00103322)
(0.546081 -0.00100094 0.00189222)
(0.554928 -0.000587191 0.000579825)
(0.591867 0.00171234 -0.00375965)
(0.199881 -0.199861 1.93027e-05)
(0.199196 -0.199047 0.00013488)
(0.582348 0.0067793 0.00203622)
(0.610138 -0.126976 0.00392739)
(0.549756 0.0053351 -0.00164303)
(0.199827 -0.199834 0.000110526)
(0.585169 -0.00319994 0.000498915)
(0.200924 0.201225 0.00109941)
(0.580094 2.39634e-05 -0.00030999)
(0.573649 -0.00260023 -0.0032733)
(0.196387 0.174356 -0.00430853)
(0.200198 0.200099 -6.90554e-05)
(0.584136 -0.00136151 -9.38855e-05)
(0.540201 -0.00303623 0.0004261)
(0.518134 -0.0152949 -0.0165508)
(0.553097 -0.000506074 0.00132276)
(0.579897 0.000885034 -0.000240784)
(0.541529 -0.000415901 0.00196289)
(0.53231 -0.00327353 0.000946271)
(0.201792 -0.200741 3.48591e-05)
(0.510794 -0.000437586 0.00149085)
(0.200954 -0.200358 -0.000264749)
(0.20082 0.199604 0.00116241)
(0.570699 0.00217629 0.00159871)
(0.200389 -0.200259 6.07144e-05)
(0.202 -0.20101 -0.000105962)
(0.264552 0.207209 0.0129305)
(0.197212 0.198144 -0.000383235)
(0.199959 0.199459 -0.000716834)
(0.557961 -0.00133882 0.00237043)
(0.160356 -0.114502 -0.0293277)
(0.252357 0.215883 0.0084632)
(0.515738 -0.000174264 0.00239982)
(0.200135 -0.20004 -8.21372e-05)
(0.585481 0.0419819 -0.0153743)
(0.58718 0.0126999 -0.00675082)
(0.581338 0.00696596 0.00201198)
(0.198972 -0.198497 -0.0011385)
(0.25884 0.224543 0.0235744)
(0.241189 0.214625 0.0107614)
(0.586539 0.00167874 -0.00144778)
(0.200326 0.200263 -8.78798e-05)
(0.581771 0.00124943 1.91765e-05)
(0.578001 0.0026741 0.00170609)
(0.568101 0.0025898 0.00252357)
(0.44247 -3.1987e-06 0.00187106)
(0.582294 0.00323612 0.000727196)
(0.577356 0.00300835 0.00192057)
(0.551127 0.00054409 -0.00227891)
(0.577623 -0.000915939 -0.000549794)
(0.568202 -0.000832489 0.00143571)
(0.200424 0.200444 -3.27506e-05)
(0.200037 -0.200071 1.16056e-05)
(0.199729 0.199949 0.000471395)
(0.583605 0.00268421 0.000498908)
(0.551663 0.000920277 -0.00200466)
(0.198525 -0.198482 0.000115511)
(0.375671 -0.00219787 0.00370861)
(0.570003 0.00268078 0.00189226)
(0.624214 0.0245182 0.0105867)
(0.586548 0.00167519 -0.00125768)
(0.584127 0.00183275 -0.000577396)
(0.540856 0.00014405 -0.00130229)
(0.626016 0.0339578 0.00585235)
(0.198831 -0.200839 0.00104355)
(0.199926 -0.200087 0.000242762)
(0.585813 0.00159251 -0.00128585)
(0.573354 -0.00190141 -0.0019139)
(0.630242 0.034355 0.00646634)
(0.620967 0.0311783 0.00841673)
(0.540906 0.000334312 0.00267803)
(0.584101 0.00688356 -0.00265921)
(0.196875 0.198965 -0.000242827)
(0.63876 0.0419526 0.00904167)
(0.608846 0.0311492 0.00882553)
(0.200026 0.200158 5.20281e-05)
(0.199609 -0.199665 9.21215e-06)
(0.465917 0.000484587 -0.00382944)
(0.200297 0.200389 2.83377e-05)
(0.581507 -0.000874461 -9.55083e-05)
(0.560326 0.000513261 -0.00108833)
(0.199893 0.194949 -0.00119013)
(0.215572 -0.198764 0.00202972)
(0.198867 -0.19787 -0.000444475)
(0.197239 0.185862 -0.00191655)
(0.216585 -0.200235 0.00318445)
(0.199819 -0.199954 0.000200349)
(0.582029 0.00213288 0.000675266)
(0.583546 0.00145154 -0.00120327)
(0.581291 0.00161741 -0.000759302)
(0.572477 -0.00265406 0.0023496)
(0.552089 -0.00172732 0.000297072)
(0.554556 0.000903792 0.00193234)
(0.494762 0.00632774 0.000768973)
(0.199304 -0.198528 4.66395e-05)
(0.535348 8.61416e-05 0.000845227)
(0.215054 -0.200325 0.00193782)
(0.201308 -0.201491 -3.89942e-05)
(0.559122 0.000929859 0.0019447)
(0.586376 -0.00676303 -0.00237313)
(0.582358 0.000989398 -0.00292279)
(0.558682 -0.00079338 0.00053295)
(0.568992 0.000249504 0.000464049)
(0.199355 -0.199036 0.000483616)
(0.558835 -0.0026438 0.000694475)
(0.556156 -0.000458591 -0.00309261)
(0.385058 0.119443 0.0152082)
(0.570129 -0.00486184 5.2738e-05)
(0.579099 -0.000909494 0.000497912)
(0.200418 -0.199165 -0.000505389)
(0.556535 0.00128335 0.002114)
(0.584711 0.00128407 -5.44087e-05)
(0.218567 -0.198444 0.000656319)
(0.561454 0.00115017 0.00259047)
(0.589797 -0.000489198 0.00321079)
(0.551074 0.000632966 -0.00230882)
(0.554654 0.00141089 0.00263321)
(0.216386 -0.200795 0.00251772)
(0.198887 -0.198962 -2.28963e-05)
(0.554478 0.0015242 0.00290984)
(0.360269 0.224066 -0.0210336)
(0.595752 0.00246831 -0.00615943)
(0.199885 0.199932 -0.000150305)
(0.558184 0.00114364 0.00241481)
(0.559387 0.000285118 0.000392592)
(0.592646 -0.00198065 0.00386961)
(0.200119 -0.200078 3.04864e-05)
(0.520384 -0.000368779 0.00156651)
(0.585165 0.00898663 0.00440522)
(0.319103 0.213676 -0.0244667)
(0.200293 0.200356 -0.000146726)
(0.200005 0.200154 5.7791e-05)
(0.597537 -0.00292556 0.00594309)
(0.555393 0.0121837 -0.00331127)
(0.21045 0.176896 -0.00428548)
(0.246106 -0.191892 0.00806843)
(0.560901 0.00056057 0.00102815)
(0.579774 0.000804647 -9.42614e-05)
(0.583142 0.00125502 0.000515241)
(0.206976 0.179392 -0.00552067)
(0.209525 -0.194798 -0.00117345)
(0.562523 0.00718386 -0.00853298)
(0.19987 -0.199806 8.71854e-05)
(0.534113 0.000664732 -0.00297316)
(0.554395 0.000384825 0.00239597)
(0.560762 0.000174673 0.00145941)
(0.561286 0.00110022 0.0014262)
(0.56361 0.000539061 0.00191735)
(0.199301 0.199404 0.000611692)
(0.426303 -0.000872468 -0.0160435)
(0.569237 0.00171411 0.00162475)
(0.198214 0.198815 -3.41268e-05)
(0.200134 0.200215 4.99175e-05)
(0.592933 -0.00686302 -0.000362774)
(0.579551 0.00274345 -0.000667158)
(0.204721 0.173265 -0.00562594)
(0.528032 -0.00067515 0.00101938)
(0.568407 0.00154421 0.00137809)
(0.200285 -0.200183 -5.18701e-05)
(0.253927 0.240369 -0.00126081)
(0.584809 0.00622586 -0.00277274)
(0.201122 -0.198606 0.000172524)
(0.221707 -0.159458 -0.00382474)
(0.300913 -0.107204 -0.0107431)
(0.2005 -0.19985 -0.000125097)
(0.572867 -0.000884515 -0.00101618)
(0.556313 -0.000932369 -0.00100631)
(0.579202 0.000644482 -0.00147393)
(0.199978 -0.200056 -3.99966e-05)
(0.572244 0.00154347 0.00132179)
(0.200459 -0.200512 4.93809e-06)
(0.200322 -0.200468 0.000137789)
(0.199169 -0.198303 0.000395198)
(0.395797 0.0018162 -0.00533954)
(0.589866 -0.00261212 0.00320929)
(0.560188 0.00211705 0.00249922)
(0.570841 0.00194021 0.00138448)
(0.590093 -0.00298877 7.38304e-05)
(0.568633 0.000974391 0.00174032)
(0.582359 0.00222339 0.00078963)
(0.586559 0.0106334 -0.000987022)
(0.575639 0.000477357 -0.000327126)
(0.580056 0.000843461 -0.000314254)
(0.203843 0.200481 -0.000117542)
(0.199011 -0.199083 -0.000272109)
(0.362771 0.00258684 -0.00770537)
(0.582774 -0.00121318 0.000378737)
(0.587067 0.00479467 0.00499018)
(0.556092 -0.000719347 -0.00100512)
(0.200426 -0.200295 4.82085e-05)
(0.57895 0.00192887 0.0011954)
(0.581421 0.00309076 0.00147867)
(0.570659 0.00127583 0.00076669)
(0.500969 -0.000599911 -0.00233945)
(0.52703 -0.00582726 -0.0133728)
(0.579387 0.00178508 0.000501557)
(0.569353 0.00147106 0.00143135)
(0.580697 0.00539573 -0.00333861)
(0.200001 0.200097 1.01439e-05)
(0.53371 0.00296446 -9.12693e-06)
(0.199885 0.199997 -7.20117e-05)
(0.161214 0.119906 -0.0268415)
(0.226194 -0.146016 -0.0120456)
(0.602013 -0.0058253 0.0111313)
(0.590241 -0.0029813 9.99052e-05)
(0.575673 -0.000294091 0.000230395)
(0.200289 -0.199769 -8.09491e-05)
(0.199229 0.20034 0.0017271)
(0.578535 0.00215286 0.00117993)
(0.554599 0.000713433 -0.000816582)
(0.198663 -0.198632 4.90094e-05)
(0.200233 -0.200112 0.000232299)
(0.19541 -0.196551 0.00126656)
(0.549419 0.000627442 -2.15478e-05)
(0.577525 0.000472155 -0.000641949)
(0.550181 -0.000111156 0.00204378)
(0.530444 0.00104483 -0.00205714)
(0.587992 0.00193541 -0.0013601)
(0.229539 0.196905 0.00582014)
(0.199712 0.200194 0.000382846)
(0.19959 -0.199413 -8.3878e-05)
(0.576326 0.00221633 0.00166961)
(0.377792 -0.318043 -0.0157422)
(0.549591 -0.000550511 0.000790641)
(0.598638 -0.00375516 0.013752)
(0.482864 0.00103418 -0.00971979)
(0.200157 0.200137 -1.48784e-07)
(0.199805 -0.200003 0.000165552)
(0.200386 -0.200496 -8.76777e-05)
(0.253535 0.211948 0.0133853)
(0.583904 0.00197637 -0.000112656)
(0.588405 -0.00293707 0.000551361)
(0.199754 0.200765 5.3523e-05)
(0.580745 0.0015858 -0.000149589)
(0.211848 0.170173 0.0125429)
(0.199681 -0.197291 -0.000303394)
(0.595455 -0.00184474 0.00498621)
(0.578914 0.00205176 0.00107985)
(0.591097 -0.000311406 0.00139415)
(0.580979 0.00164488 -9.34969e-05)
(0.19187 0.168972 0.010716)
(0.251029 0.215298 0.0145602)
(0.199381 0.199641 -0.000382748)
(0.579993 0.00202049 0.000788142)
(0.579135 0.00165184 -3.77257e-05)
(0.589889 0.0114841 -0.00436348)
(0.197104 0.196605 0.000380516)
(0.403859 0.35368 -0.0872671)
(0.55116 0.00205865 0.00480017)
(0.589492 -0.00262654 0.00145373)
(0.5797 0.00209247 0.00138308)
(0.5494 0.0557922 -0.00395337)
(0.588041 0.00127427 -0.00174576)
(0.19897 0.198964 0.00011749)
(0.587737 0.00152711 -0.00138236)
(0.565794 0.000795813 0.00123373)
(0.593864 -0.0135138 6.41045e-05)
(0.597351 -0.00355716 0.00753557)
(0.574634 -0.00486504 -0.00416887)
(0.198775 0.199821 -0.00065172)
(0.199229 -0.199677 -0.000439281)
(0.200197 0.198871 0.000770216)
(0.198121 -0.198682 -4.37075e-05)
(0.587744 -0.00244933 0.000265963)
(0.582009 -0.000707491 0.000139693)
(0.584008 0.00266149 -0.00245529)
(0.587986 0.00156777 -0.00179748)
(0.198062 0.198239 -0.000851848)
(0.581025 -0.00380129 -0.00165733)
(0.200003 0.200023 6.10927e-05)
(0.199399 -0.199847 6.41162e-06)
(0.58776 0.00190261 -0.00133049)
(0.184394 -0.184464 0.00273179)
(0.325952 -0.0635213 -0.00352483)
(0.197001 -0.196225 -0.000205977)
(0.200341 0.19666 0.00116487)
(0.582541 0.000668283 -0.000570058)
(0.200041 0.199901 2.18376e-05)
(0.575531 0.00135899 -0.000385553)
(0.547116 0.000416579 -0.00225916)
(0.200589 0.200596 -5.45671e-05)
(0.525648 -0.000242854 -0.00257249)
(0.573098 0.000990258 0.00104268)
(0.201664 0.176209 -0.0065334)
(0.569426 0.00258203 0.00307456)
(0.540921 0.00228335 -0.000571597)
(0.573571 0.00277089 0.00101212)
(0.533673 0.00108731 0.00737819)
(0.57837 0.001389 0.000411626)
(0.553489 0.000280306 -0.00106397)
(0.197842 0.167911 -0.000820384)
(0.198826 -0.198487 0.00123249)
(0.494656 0.000894245 0.0121868)
(0.198285 0.198926 -0.0011758)
(0.572618 0.00298662 0.00286115)
(0.596134 -0.00327588 0.00587478)
(0.200697 0.191463 0.00175828)
(0.199498 0.200387 -3.28838e-05)
(0.586173 -0.00101456 0.00044787)
(0.5636 -0.00253281 -0.00510883)
(0.565685 0.00285698 0.000283088)
(0.586961 0.00196626 -0.000770428)
(0.199968 0.199611 -7.80976e-05)
(0.59767 -0.000965225 0.0100339)
(0.589329 -0.00202042 0.0030276)
(0.200885 0.200572 2.28257e-06)
(0.576256 0.00952887 0.00784436)
(0.549799 -0.00229019 -0.00629594)
(0.19962 -0.19969 -1.67883e-05)
(0.198949 -0.198963 7.90212e-05)
(0.574079 0.00135422 -0.000370672)
(0.578216 0.000402621 -0.000919064)
(0.200122 0.200048 -0.000310856)
(0.199614 -0.199198 -0.000300584)
(0.345028 -0.189167 0.0417671)
(0.200336 -0.200473 7.91383e-05)
(0.578529 -0.00115158 -0.00019683)
(0.198569 0.199285 0.000422145)
(0.200431 -0.200506 1.02817e-05)
(0.591189 -0.000223026 0.00186624)
(0.536839 -0.0064758 -0.0153606)
(0.58411 -0.00370527 0.00083576)
(0.565433 -0.000202443 0.000998125)
(0.200765 0.200632 2.82931e-05)
(0.260988 0.200057 0.0100538)
(0.56528 0.0078685 0.0118959)
(0.24416 0.214395 0.0122256)
(0.563746 0.00251516 0.00478097)
(0.560252 -0.00492933 0.000165451)
(0.58621 -0.00219003 -0.00175362)
(0.404222 0.00712399 0.0154991)
(0.239718 0.205337 0.0107355)
(0.584035 0.00080627 -0.00561036)
(0.592494 0.0189951 -0.00576961)
(0.199877 -0.200207 0.000269494)
(0.591705 0.00144439 -0.00626096)
(0.592147 -0.00245258 0.00227515)
(0.200044 -0.199982 0.000182669)
(0.574778 0.0326797 -0.0193048)
(0.498374 0.000173063 -0.00643964)
(0.253575 0.198719 0.00802392)
(0.589815 -0.00115075 0.00237942)
(0.582336 0.000787853 -0.000778504)
(0.578326 0.00136126 -0.000433217)
(0.200001 0.199891 -5.58371e-05)
(0.575 -0.00120944 0.00408258)
(0.592079 0.00011478 0.00193641)
(0.57281 0.0054414 -0.000620834)
(0.358785 -0.00561248 0.0066387)
(0.244416 0.229859 -0.00507267)
(0.338801 -0.0109201 0.0125054)
(0.199753 -0.200051 0.000188629)
(0.531217 -0.0187075 -0.0178574)
(0.575206 -0.00132342 -0.00371471)
(0.200075 0.199981 0.000281117)
(0.548732 0.00129414 -0.00389883)
(0.450096 -0.00105092 0.00886035)
(0.261091 0.229652 -0.00245593)
(0.200057 -0.199932 -3.53104e-05)
(0.233025 -0.199331 0.00631683)
(0.200323 -0.200261 -3.01024e-05)
(0.572689 0.00345477 -0.000417275)
(0.577343 0.00305053 -0.00095091)
(0.573259 -0.00167084 -0.00163294)
(0.538217 0.001152 -0.00299456)
(0.585871 -0.0114813 -0.0023307)
(0.199811 0.198906 -0.000387483)
(0.568178 -0.000586605 -0.00121089)
(0.200774 -0.199048 -5.4866e-05)
(0.563596 0.00205533 0.00140549)
(0.200792 0.200855 -1.90886e-05)
(0.200165 -0.199999 -2.9019e-05)
(0.1974 -0.197984 -0.000313879)
(0.553632 -0.00393304 0.000455398)
(0.199102 -0.199302 -0.000210818)
(0.199922 -0.199999 4.26286e-05)
(0.196962 0.128827 -0.00862315)
(0.200334 -0.20048 9.35385e-05)
(0.197567 0.200157 0.00186552)
(0.567147 -0.00227874 -0.00124223)
(0.200049 0.199861 -3.1384e-06)
(0.237852 0.174891 0.000425186)
(0.200145 0.200264 0.000285195)
(0.199051 -0.198389 1.03819e-05)
(0.199914 0.199072 -0.000339436)
(0.198845 -0.197787 -0.00105019)
(0.198432 0.198609 1.28399e-05)
(0.515824 -4.50492e-05 -0.00401871)
(0.200191 0.19904 0.0008618)
(0.53031 0.00806802 0.0113078)
(0.580414 0.0013896 -0.00087505)
(0.596578 -0.0241903 -0.0036989)
(0.2008 0.199883 1.01249e-05)
(0.504209 0.00155786 0.00924491)
(0.200261 0.199503 0.000110315)
(0.200405 -0.200501 -8.65183e-05)
(0.569558 -0.00481981 -0.00578198)
(0.570776 -0.00412763 -0.00528328)
(0.574378 -0.00168771 -0.000816697)
(0.600014 0.00109478 -0.0111509)
(0.230743 0.193578 -0.00637493)
(0.587451 0.000685775 -0.00351929)
(0.586977 0.000727256 -0.00318706)
(0.579542 0.000995315 1.11111e-05)
(0.570238 0.000663214 0.000217925)
(0.578788 -0.00589088 -0.0045845)
(0.198628 -0.198703 -0.000127846)
(0.580041 0.000850129 -7.99176e-06)
(0.263459 0.227996 -0.00117181)
(0.578568 0.00141086 -0.000733129)
(0.199683 0.199432 -7.08568e-05)
(0.589358 0.00179702 -0.00329739)
(0.260499 0.215609 0.00270156)
(0.58106 0.00030804 -0.000739608)
(0.583254 -0.00300252 0.00199035)
(0.230127 -0.119385 -0.000710797)
(0.199676 0.199854 0.00230158)
(0.570801 0.00104264 0.00112109)
(0.199719 -0.199706 4.65986e-05)
(0.591687 0.00222168 -0.00408446)
(0.587486 0.00238834 -0.00263854)
(0.199863 0.199229 -0.00165247)
(0.199296 0.199312 0.000463788)
(0.195778 0.174234 -0.00404381)
(0.200066 0.200204 7.60043e-05)
(0.40956 -0.0230385 0.00884497)
(0.591964 0.00202073 -0.00390611)
(0.203275 0.198349 -0.000153193)
(0.199551 0.199992 0.000363328)
(0.50608 0.000719746 -0.00110563)
(0.200344 0.200363 2.73986e-05)
(0.58297 0.00167687 -0.00238958)
(0.200204 0.200126 1.47893e-05)
(0.576905 -0.00348526 -0.00162896)
(0.20025 -0.20029 -4.06158e-05)
(0.54064 -0.00248059 -0.00787295)
(0.44398 -0.00195456 0.000495668)
(0.542998 0.0018578 -0.00105038)
(0.581346 0.000598776 -0.000774497)
(0.200418 0.199019 -0.000641154)
(0.52387 0.000865342 -0.00031754)
(0.200371 0.199643 0.000195153)
(0.200175 0.200177 -0.000540551)
(0.574341 -0.00128986 -0.000693326)
(0.199809 0.199519 -7.89415e-05)
(0.488851 -2.28909e-05 -0.00484062)
(0.192218 0.17646 -0.00599623)
(0.583953 0.00173626 -0.00201406)
(0.198884 -0.199026 6.39993e-06)
(0.588667 0.000731153 -0.0012985)
(0.200564 -0.20036 2.02381e-05)
(0.239383 0.210814 0.00666902)
(0.595165 0.0220367 -0.00209913)
(0.570219 -0.00486621 -0.0058951)
(0.5805 0.00237506 -1.26108e-05)
(0.583688 -0.00620178 -0.00404246)
(0.577715 0.00128799 -0.000577064)
(0.589876 -0.00345286 -0.000306016)
(0.197822 0.199279 -0.000902391)
(0.580342 0.00333929 0.00174307)
(0.573036 -0.00550025 -0.00557221)
(0.199987 0.20007 -9.8191e-05)
(0.488668 -0.00634768 -0.0197155)
(0.593444 -0.00528957 -0.00337789)
(0.569887 0.00259591 0.00223722)
(0.197326 0.194594 -0.00115554)
(0.246655 0.0443092 -0.0398406)
(0.557202 0.00142416 0.00182915)
(0.453092 -0.00202325 0.00487801)
(0.467635 0.108968 -0.00448109)
(0.255959 -0.133885 -0.00991741)
(0.588 -0.00574853 -0.00103225)
(0.553283 0.00226676 0.00437037)
(0.569631 -0.00529728 -0.00575246)
(0.581795 -0.00310937 -0.00108466)
(0.571678 0.00317722 0.00141337)
(0.504177 0.0630234 -0.00176672)
(0.248779 0.210327 0.00184108)
(0.513733 -0.022344 0.00561198)
(0.499445 -0.0462969 0.0103753)
(0.199759 -0.199803 0.000143575)
(0.510922 0.00359267 -0.00148896)
(0.201318 0.19744 -0.00105071)
(0.235321 0.213355 0.00203459)
(0.5785 0.000911997 -0.00020257)
(0.508853 0.0832801 -0.00149966)
(0.613149 -0.0576391 -0.00786562)
(0.556006 -0.104187 0.000417591)
(0.234846 0.222776 -0.0160504)
(0.586941 -0.00358305 -0.000978674)
(0.579304 0.00321116 0.00261422)
(0.199576 0.199019 -2.24962e-05)
(0.259572 0.142172 -0.00542197)
(0.578806 0.00454788 0.00288699)
(0.200014 -0.19925 0.00016967)
(0.2 0.199892 -4.80373e-05)
(0.199238 0.19915 1.73758e-05)
(0.200458 0.199371 0.000220741)
(0.586335 -0.00571576 -0.00244507)
(0.200172 0.200144 0.000117577)
(0.200312 -0.200516 0.00101267)
(0.576115 -0.00358855 -0.00262315)
(0.53085 0.000182724 -0.00132913)
(0.290333 -0.255367 -0.0138491)
(0.578927 0.00442271 0.00273206)
(0.234262 0.188252 0.00447753)
(0.581426 -0.00210009 -0.00119815)
(0.195644 -0.195348 -0.000637304)
(0.1996 0.20002 -7.12036e-05)
(0.585371 -0.00366426 -0.000837204)
(0.199872 0.198703 -0.000797081)
(0.200291 0.199776 8.88551e-05)
(0.229832 0.219379 0.00664217)
(0.551688 -0.000462835 -0.000404343)
(0.332753 0.277704 -0.0370343)
(0.576811 -0.002306 -0.000988564)
(0.578195 0.000854632 -0.000210415)
(0.197851 -0.196611 -0.00155188)
(0.59901 -0.00118123 0.0192147)
(0.547277 -0.00315843 -0.00809811)
(0.574972 -5.37632e-05 -0.000488361)
(0.582293 0.0111658 0.00126482)
(0.583473 0.00426291 -0.0120682)
(0.501759 0.000249722 -0.00455134)
(0.199816 0.199502 8.39248e-05)
(0.586577 0.000599559 0.00175812)
(0.58224 0.00242368 -0.000377071)
(0.197849 -0.200443 0.000289645)
(0.539643 -0.000504538 -0.000206642)
(0.586292 0.00360776 -0.000997473)
(0.587502 0.00277777 -0.000993175)
(0.532677 -0.0024021 -0.005122)
(0.587199 0.00266356 -0.00109147)
(0.587572 0.0032701 -0.000268584)
(0.199878 -0.197237 0.0013076)
(0.588884 -0.00104151 0.00259602)
(0.483819 -0.00362386 -0.00115735)
(0.241707 0.209165 0.013271)
(0.587301 0.00215811 -0.00155945)
(0.559964 0.000908265 -0.00129789)
(0.323327 0.262344 -0.0402203)
(0.578653 0.000856362 -0.000210851)
(0.587502 0.00187697 -0.00185877)
(0.560254 0.000546525 -0.00215796)
(0.583354 0.00262416 -0.000315058)
(0.575503 0.00588813 0.00244437)
(0.579362 0.000849525 -0.000122684)
(0.195482 0.190836 0.00029954)
(0.582803 0.00308744 0.000229003)
(0.546097 -0.00345317 -0.00746246)
(0.223445 -0.13731 0.00511733)
(0.580158 0.00539112 0.00356917)
(0.572293 0.00514373 0.00526108)
(0.580983 0.00141021 -5.57739e-05)
(0.19936 0.198897 0.000183074)
(0.562682 0.00331969 -0.00532631)
(0.199859 -0.198719 0.000622557)
(0.200039 0.200031 -0.000197073)
(0.198786 0.197431 -0.000116999)
(0.200593 0.199339 4.42518e-05)
(0.487691 0.000261737 -0.00196695)
(0.238987 0.205857 0.00873393)
(0.449606 -0.0288589 0.0298888)
(0.198505 -0.198731 -5.40457e-05)
(0.199423 0.202054 -0.000407993)
(0.579813 0.00625786 0.00324665)
(0.584667 0.00125234 -0.0025412)
(0.19999 -0.199978 1.68109e-05)
(0.584215 -0.00376666 -0.000168586)
(0.200016 -0.199816 0.0006625)
(0.200254 -0.200102 -4.25474e-05)
(0.196503 -0.196625 0.000582538)
(0.592041 -0.00429324 -0.000493512)
(0.495653 0.00317725 -0.00120735)
(0.237879 0.212483 0.00356263)
(0.199643 -0.197802 0.000817302)
(0.199759 0.200451 -0.000296986)
(0.19956 0.199777 2.74908e-05)
(0.596396 0.00103373 -0.00683746)
(0.579881 0.000951748 -0.00022752)
(0.238014 0.223655 0.0104697)
(0.590554 0.00179063 -0.0033532)
(0.549696 -0.009494 -0.0227223)
(0.199669 0.199819 -7.20496e-05)
(0.589091 0.00125138 -0.00299945)
(0.538643 0.000254196 0.00290176)
(0.571822 0.00294306 -0.00352731)
(0.200627 0.200556 2.23866e-06)
(0.199339 0.199269 9.68124e-05)
(0.569339 0.00251091 0.00324428)
(0.581769 0.00109836 -0.000292848)
(0.237619 0.215126 0.00348066)
(0.19914 0.199062 6.37509e-05)
(0.201995 0.195461 -0.000579477)
(0.578762 -0.00125821 0.000546628)
(0.199896 -0.199858 -0.000281787)
(0.199023 -0.198294 0.000171491)
(0.198672 0.198627 -4.36481e-05)
(0.58867 0.00171715 -0.00270617)
(0.513876 -0.00266103 0.000639699)
(0.200528 0.200546 2.27899e-05)
(0.224175 0.0368131 0.0424444)
(0.249162 -0.0328956 -0.00946459)
(0.567899 0.00304549 0.00015441)
(0.19971 0.199998 -7.96016e-05)
(0.200071 0.199727 -0.000169166)
(0.589716 -0.00686075 -0.000962241)
(0.565262 0.0103018 0.00948634)
(0.24088 0.21487 0.0110009)
(0.352743 0.111054 0.00703721)
(0.555716 0.0104607 0.0172216)
(0.533421 0.00170467 -0.00358299)
(0.569023 0.00039273 -0.000307151)
(0.206267 0.193453 -0.000425232)
(0.563899 0.00133322 -0.000405734)
(0.585695 -0.00388254 0.00415272)
(0.200372 0.199754 -0.00023276)
(0.198272 -0.194915 0.000302954)
(0.198557 0.198664 3.5459e-05)
(0.199255 0.199202 -5.03581e-05)
(0.200134 0.200525 -0.000279167)
(0.200578 0.200645 -2.56042e-05)
(0.59007 0.00196679 -0.00299979)
(0.200108 -0.200013 0.000105809)
(0.199003 0.199022 2.78458e-05)
(0.198923 0.196224 -0.000221516)
(0.590634 0.00189386 -0.00335498)
(0.5816 0.00112647 -0.000258779)
(0.200812 -0.198168 -5.48909e-05)
(0.197314 -0.195229 0.000439855)
(0.595089 -0.00282006 0.00529791)
(0.565247 2.27736e-05 0.000663984)
(0.564319 0.000228069 0.000767002)
(0.199895 -0.199439 -9.39486e-05)
(0.198987 0.198957 0.000116069)
(0.564804 0.000132274 0.000684964)
(0.200306 -0.200129 2.01074e-05)
(0.559258 0.00145301 0.000212293)
(0.569802 0.00115192 0.00178576)
(0.571607 0.00153948 0.00098708)
(0.19997 -0.198505 0.000482243)
(0.200285 -0.200385 3.70802e-05)
(0.200205 -0.20038 -3.65115e-05)
(0.20024 0.200278 6.32684e-05)
(0.577848 -0.00289525 -0.00150804)
(0.199928 0.200135 6.9087e-05)
(0.198422 0.198646 6.39518e-05)
(0.576698 0.00198697 -0.00297502)
(0.200288 -0.200349 0.000103177)
(0.568096 0.00047717 0.000805574)
(0.513535 -0.00562092 0.00120716)
(0.200981 0.193871 0.0011082)
(0.580587 0.00128341 -0.000225439)
(0.26995 0.0383056 -0.0053838)
(0.57359 0.00050603 0.00050322)
(0.591255 -0.00141227 0.00133508)
(0.522978 0.00204078 0.00104984)
(0.592344 -3.3999e-05 0.00425827)
(0.429938 0.0113842 -0.0160527)
(0.239144 0.189993 0.00401515)
(0.57233 0.000127449 0.000499203)
(0.594967 0.00422158 -2.7603e-05)
(0.580274 -0.00110543 -0.000438948)
(0.204904 0.177549 -0.00621375)
(0.268193 0.0179077 -0.00803817)
(0.309114 -0.0303544 0.011684)
(0.572692 0.000392504 0.000257501)
(0.198831 0.199207 0.000246316)
(0.560546 -0.00104569 -0.00384391)
(0.572516 -0.000179371 -0.00103536)
(0.555592 -0.00473161 -0.00884729)
(0.214678 -0.156867 -0.0117348)
(0.20034 -0.200469 8.68701e-05)
(0.2 -0.200002 -4.91656e-06)
(0.583014 -0.00171933 5.0324e-05)
(0.234433 0.193625 -0.00251109)
(0.553116 0.00192169 0.00101746)
(0.217568 0.198069 0.00274439)
(0.549895 -0.000965683 -0.00389808)
(0.567521 -0.00104409 0.000537269)
(0.560385 -0.000600718 0.0012001)
(0.581645 0.00123636 -0.000384126)
(0.199021 0.199009 -5.06926e-05)
(0.198032 0.197416 -0.000447815)
(0.213139 -0.194657 0.000908968)
(0.580241 0.00143371 9.39644e-05)
(0.200389 0.199793 -1.80887e-05)
(0.231933 0.198631 -0.00904663)
(0.59381 0.0122591 -0.0102784)
(0.200118 0.199809 -0.000160044)
(0.198785 0.199721 0.000701728)
(0.198465 -0.197816 -0.000325777)
(0.200418 0.200476 4.99064e-05)
(0.554148 -0.000107057 0.00154893)
(0.203463 0.193115 0.00032436)
(0.200134 0.199972 8.49747e-05)
(0.464103 0.0618064 -0.0456535)
(0.235517 0.189592 -0.00230116)
(0.197836 0.19823 -0.00186982)
(0.284062 -0.17169 0.0114149)
(0.199862 0.199632 -0.000258761)
(0.454989 0.00225817 -0.00300199)
(0.565464 -0.00105612 0.000918669)
(0.198522 -0.198565 8.44122e-07)
(0.55589 0.000728921 -0.00175693)
(0.553563 0.0889692 -0.00805681)
(0.551535 -0.00529091 -0.00886565)
(0.606057 0.0231409 0.00026209)
(0.547319 0.000398255 -0.00072928)
(0.19991 0.198204 0.000832643)
(0.571853 -0.00533387 -0.00600189)
(0.592391 -0.00156832 0.00119179)
(0.55127 -0.00536308 -0.00885291)
(0.199999 -0.200214 1.09401e-05)
(0.598298 0.152873 0.0385778)
(0.552472 0.00100079 0.00115703)
(0.267609 0.213279 -0.0132006)
(0.548716 -1.2362e-05 0.000616869)
(0.598656 0.00710428 -0.00549826)
(0.572149 0.0115978 0.000429823)
(0.567226 -0.0014035 -0.00197615)
(0.56764 0.00178968 0.00018945)
(0.603291 0.00880175 -0.00299111)
(0.582082 -0.000637686 -0.000734503)
(0.576181 -0.000696482 0.000524858)
(0.198235 0.198999 0.000710133)
(0.198968 0.197828 0.000592658)
(0.556475 0.00151856 0.00100523)
(0.546806 0.000879781 0.000909584)
(0.199533 0.20008 -1.67185e-06)
(0.564822 0.000498253 0.000128764)
(0.59094 -0.00184279 0.000586181)
(0.577119 -0.00126345 0.000448867)
(0.199419 0.197295 -8.58688e-05)
(0.569923 0.0114936 0.00235385)
(0.199226 0.199082 -1.08583e-05)
(0.576574 -0.000712597 0.000463385)
(0.577807 -0.000720899 0.000316839)
(0.199898 0.199798 -2.96126e-05)
(0.550838 0.00307397 -0.00172869)
(0.576183 -0.00045212 -2.52553e-05)
(0.567844 0.0104984 0.00057618)
(0.555963 0.000183415 0.00201636)
(0.204429 0.200447 -0.000329686)
(0.584632 -0.00174028 0.00174135)
(0.569699 0.0130481 -6.48223e-05)
(0.602347 -0.015957 0.00346317)
(0.508082 0.00692957 0.00109324)
(0.452893 0.00143494 -0.00582213)
(0.199833 0.197661 -0.000274506)
(0.199466 0.1993 6.57259e-05)
(0.559911 0.00787168 0.00102586)
(0.200429 0.200426 -9.08384e-05)
(0.487474 -0.00135258 -0.00143427)
(0.562599 -0.00285076 -0.00408773)
(0.339808 0.0441278 -0.0134565)
(0.625534 -0.0423083 0.0166781)
(0.552576 -0.0249531 0.00787622)
(0.614284 -0.0234964 0.00579878)
(0.200348 0.200366 -5.8815e-05)
(0.273521 0.232354 0.00161825)
(0.582706 0.00151026 -0.000338477)
(0.199286 -0.200195 -0.000805133)
(0.114285 -0.0814948 0.0313265)
(0.574668 -0.0107186 -0.00809301)
(0.198568 0.198157 -0.000467817)
(0.200459 0.20021 2.43551e-05)
(0.517149 -0.00983759 -0.000135777)
(0.418389 -0.0298144 0.000932836)
(0.200472 0.200502 -3.15084e-05)
(0.517965 -0.0105137 0.00202055)
(0.198523 0.198274 6.81583e-06)
(0.20003 0.200393 -0.000333562)
(0.200059 -0.200037 -5.10341e-05)
(0.200137 -0.199662 0.000477381)
(0.195958 -0.194323 0.00060005)
(0.199488 -0.199077 -4.36239e-06)
(0.520465 0.0047724 -0.00177118)
(0.197573 0.196054 -0.000150415)
(0.199999 0.200131 8.11818e-05)
(0.198319 0.1995 0.000473326)
(0.484853 -0.108433 -0.0279067)
(0.54856 -0.00492727 -0.0107295)
(0.530474 -2.23842e-05 -0.00489914)
(0.582704 0.00146099 -0.000370593)
(0.198599 0.197391 5.55324e-05)
(0.201083 0.200335 2.03015e-05)