/*--------------------------------*- C++ -*----------------------------------*\
  =========                 |
  \\      /  F ield         | OpenFOAM: The Open Source CFD Toolbox
   \\    /   O peration     | Website:  https://openfoam.org
    \\  /    A nd           | Version:  10
     \\/     M anipulation  |
\*---------------------------------------------------------------------------*/
FoamFile
{
    format      ascii;
    class       volScalarField;
    location    "42";
    object      SgP;
}
// * * * * * * * * * * * * * * * * * * * * * * * * * * * * * * * * * * * * * //

dimensions      [1 -1 -3 -1 0 0 0];

internalField   nonuniform List<scalar> 
111485
(
1.3923e-09
1.70156e-06
5.54738e-07
6.07707e-12
1.4084e-07
2.50175e-09
2.69395e-07
1.09057e-08
2.58532e-07
2.42012e-08
5.07648e-07
2.07302e-08
1.31493e-07
0.00517133
1.32904e-07
2.70101e-07
0.0036763
1.60665e-05
1.67197e-08
2.52222e-08
0.000692772
2.32608e-10
5.03551e-08
1.75915e-07
9.0835e-07
2.17911e-09
2.09903e-08
3.15098e-07
4.87718e-08
0.000902605
6.47237e-08
3.17423e-09
6.32331e-09
2.55533e-08
1.3464e-05
1.80201e-06
0.00241767
0.00362995
4.26522e-05
7.00964e-08
0.00072233
1.63095e-08
5.34329e-08
2.02628e-06
2.86979e-07
3.90992e-08
1.22616e-07
1.51564e-08
1.29297e-07
1.45383e-08
2.91076e-08
3.57661e-07
1.03743e-08
1.76841e-07
3.48143e-08
1.17081e-09
2.8156e-08
4.18563e-10
8.70099e-07
8.46328e-09
1.84539e-08
5.82051e-09
1.87183e-06
1.04177e-07
1.49991e-07
5.3028e-07
6.79758e-06
2.78966e-08
1.42291e-06
3.03275e-06
9.65458e-07
2.01418e-06
2.15477e-07
1.76291e-06
5.78015e-09
2.65488e-09
1.11168e-09
1.47367e-08
1.98225e-09
5.1563e-07
0.0049675
0.00922151
9.27037e-10
2.1829e-09
3.33018e-07
7.53854e-07
0.0024948
1.40849e-07
4.39e-06
1.43662e-07
2.88001e-08
1.26611e-07
9.04654e-07
7.61798e-09
3.99989e-08
4.23907e-10
0.000505018
2.71695e-07
3.06493e-05
8.30081e-06
4.69811e-10
5.59216e-08
3.54575e-08
2.27807e-07
1.30458e-07
2.65247e-07
1.91556e-10
3.75654e-09
2.55725e-07
1.17371e-05
8.67114e-07
2.11333e-08
2.45494e-07
1.36251e-06
5.62791e-09
6.34807e-09
1.55536e-09
1.64877e-07
4.70766e-07
1.58111e-10
1.14991e-09
3.36028e-06
0.00124904
4.51687e-08
8.31955e-07
0.00053087
1.97542e-06
3.07815e-07
1.75459e-11
5.56209e-06
2.8261e-06
3.67132e-07
0.000884789
3.16924e-06
1.47947e-06
3.64199e-09
1.97856e-10
1.19485e-08
2.16674e-07
4.22428e-07
1.36966e-06
3.20111e-09
0.00317028
1.74182e-06
5.86728e-07
5.09018e-08
2.29949e-10
8.08788e-10
2.22175e-09
1.95312e-08
6.01794e-07
0.000530776
0.00197892
2.62785e-07
1.18466e-06
1.52353e-09
7.43944e-08
2.99961e-06
1.61697e-05
1.09077e-07
7.99232e-11
5.19155e-09
7.22151e-07
1.11839e-06
1.34657e-06
9.56595e-07
1.19789e-07
0.000451772
2.7493e-05
2.20789e-06
4.09243e-11
2.10603e-09
0.00347447
2.73319e-11
6.36257e-09
6.60154e-08
8.06812e-09
1.64116e-07
4.09743e-09
1.02115e-07
1.48583e-07
4.98697e-09
2.63988e-08
7.3633e-09
5.01786e-08
4.05449e-07
1.95963e-07
8.23852e-07
6.44641e-06
5.52169e-09
1.12649e-06
9.08006e-08
1.31595e-07
3.90152e-07
1.11504e-07
2.3402e-07
5.44368e-08
2.76558e-08
2.00858e-08
1.54832e-07
3.51687e-08
2.79952e-05
1.4473e-06
1.05914e-08
3.05503e-08
1.01771e-07
2.17767e-07
2.01421e-07
2.90076e-07
6.45825e-08
8.30568e-08
1.45378e-07
1.4159e-07
1.23901e-10
1.57983e-06
5.06604e-06
6.99992e-09
2.98532e-10
2.23349e-07
3.61303e-07
1.88e-08
1.35316e-09
3.19032e-07
2.6585e-07
5.03334e-06
1.16339e-10
2.22071e-11
6.62175e-07
7.37796e-05
4.09906e-07
1.72448e-06
2.86103e-07
2.27742e-08
0.00255586
6.52728e-07
2.14105e-07
0.00284578
1.38372e-09
1.03622e-06
4.8661e-07
4.58038e-07
5.89818e-07
1.10476e-07
7.49332e-08
3.28068e-05
6.57229e-09
1.44423e-07
1.48978e-09
1.08207e-07
0.00240156
3.58209e-07
3.37717e-07
3.83092e-07
2.51705e-11
3.63986e-06
1.51741e-08
5.71649e-09
1.20096e-06
0.00180426
1.55821e-09
1.09986e-07
1.06961e-06
1.9949e-08
6.55659e-11
1.13166e-07
1.5754e-11
9.67809e-10
1.2452e-08
0.00297152
6.64051e-08
5.69299e-07
1.82832e-08
0.00311027
3.68018e-07
1.702e-08
4.24488e-06
7.35952e-08
2.81477e-08
9.42413e-09
1.83268e-09
0.00203531
1.02471e-08
7.75526e-07
4.33161e-07
2.73731e-11
0.00382587
0.00466936
3.44788e-08
6.16529e-06
5.77476e-07
5.81959e-08
1.44234e-07
2.44413e-07
1.64546e-10
1.32217e-07
3.24428e-10
6.32269e-06
4.94014e-06
2.86608e-07
3.59996e-08
0.00606065
6.0408e-09
0.00144089
1.44756e-08
1.27998e-07
2.28816e-10
2.20155e-09
0.000461977
6.43728e-08
3.25187e-08
1.30294e-07
2.96103e-06
7.25322e-09
4.57487e-07
7.73315e-10
3.91411e-09
8.6969e-08
7.34774e-05
0.00441249
5.86706e-08
1.38558e-05
1.76029e-10
1.01848e-09
4.4948e-10
1.49181e-06
2.74219e-08
1.48656e-08
5.71653e-08
1.33039e-08
1.32286e-06
0.00112863
9.80536e-08
1.00805e-08
5.61813e-08
3.26731e-08
0.000795762
9.27322e-07
1.07581e-08
1.62743e-08
1.67564e-08
2.40534e-07
2.71901e-09
0.00264761
4.36004e-06
8.61964e-09
6.65141e-08
4.86198e-06
1.18364e-08
0.00065205
2.57707e-09
2.12682e-07
1.05715e-07
8.93574e-09
3.61151e-07
1.75631e-07
6.85703e-09
9.12891e-09
2.12412e-08
4.96167e-08
0.00634449
5.44509e-07
1.34858e-09
0.000882313
3.30693e-07
4.20109e-10
8.77591e-09
2.17385e-09
0.00088017
1.23294e-05
0.000856222
0.000824261
6.24994e-09
2.16555e-10
2.97718e-08
5.10343e-08
3.45909e-11
1.84467e-07
4.69761e-08
2.84081e-07
5.06423e-07
2.54413e-06
8.45694e-08
1.25991e-05
2.51675e-08
9.10933e-08
8.98051e-07
1.22997e-08
1.25584e-05
5.51639e-09
2.34948e-07
5.82073e-08
0.000503776
1.99465e-09
1.30012e-09
0.00272047
1.21747e-07
0.00538827
7.80767e-09
1.13765e-07
6.18092e-08
1.31979e-10
9.75132e-08
8.28648e-07
1.69214e-09
0.000596819
8.09771e-08
4.94773e-08
1.66372e-08
3.29312e-10
1.31561e-05
3.4486e-10
1.60999e-07
6.68813e-08
1.57339e-12
1.6449e-08
9.09853e-07
0.00433052
2.59837e-06
3.90961e-11
1.43974e-06
1.75216e-06
1.76379e-06
6.64386e-07
1.17712e-05
4.48736e-08
1.95598e-05
9.21445e-07
0.00358987
4.16826e-06
3.79757e-09
1.34431e-07
2.59512e-08
1.94483e-09
2.43349e-05
3.89447e-06
1.39006e-06
2.95232e-08
3.11913e-08
2.33917e-07
3.64643e-09
0.00614938
3.80744e-08
6.03665e-07
8.44155e-05
1.68944e-06
2.51298e-05
1.23013e-09
0.00449325
0.00581329
4.12966e-10
6.51574e-07
5.25546e-06
1.99677e-06
6.19441e-11
4.79102e-07
4.21702e-10
0.00501115
1.34707e-06
3.71259e-07
2.08129e-06
5.38961e-07
4.64243e-09
8.49631e-08
1.35154e-08
1.33581e-06
2.93136e-09
1.79459e-08
0.000977567
1.74174e-06
1.79343e-09
1.99588e-09
7.27304e-06
1.54176e-09
3.14539e-08
7.96833e-08
6.74824e-11
1.06214e-06
1.66767e-09
0.00138476
8.49326e-09
4.4708e-08
3.1262e-09
4.26404e-06
8.8745e-09
0.00397003
3.92734e-07
0.00415925
4.71659e-10
1.14324e-06
4.68534e-08
6.07386e-11
0.0064678
0.00251369
5.31993e-07
7.00457e-08
5.65629e-07
1.49986e-08
2.54781e-07
6.1712e-09
6.94772e-07
0.00507393
1.05606e-09
2.07393e-08
1.93662e-06
3.25183e-07
0.000986901
1.04416e-07
2.00728e-06
3.06262e-08
2.79553e-08
1.31228e-05
0.00136538
2.38177e-07
9.67835e-09
2.21223e-08
7.69486e-08
6.03231e-08
2.30962e-08
4.01602e-07
2.10349e-11
3.08138e-05
2.05423e-09
6.52217e-09
4.7899e-09
1.78405e-06
4.9975e-10
1.48155e-07
4.11988e-09
1.64181e-07
1.28364e-09
0.00205238
0.00198838
4.46164e-07
6.91468e-09
0.00108549
0.00142059
5.67241e-09
4.16684e-09
2.69998e-07
3.84638e-09
2.69891e-06
2.92761e-07
2.31031e-07
0.000795453
3.85538e-08
9.19366e-11
8.14693e-07
7.50182e-07
1.13219e-06
2.16982e-08
3.40817e-07
2.60362e-07
2.57798e-08
1.87728e-08
4.11738e-07
6.29321e-07
1.72351e-10
0.00225873
1.3048e-06
8.71032e-07
3.45525e-08
2.07204e-05
6.32803e-07
8.70706e-06
4.06185e-05
6.15621e-06
4.60216e-08
1.69583e-06
2.2761e-07
4.27114e-07
0.00201691
3.5196e-06
1.31356e-06
6.5046e-05
0.00135835
5.96778e-09
1.14802e-06
8.13619e-08
6.13542e-07
1.09743e-08
8.78848e-06
4.98319e-05
9.35122e-06
2.98886e-06
4.65731e-07
1.94962e-08
6.21965e-09
3.50885e-06
2.8985e-08
1.45101e-09
5.37177e-11
9.05042e-09
7.64248e-10
3.96694e-07
3.00873e-11
0.000651099
2.74577e-07
6.17727e-07
0.00181266
0.00561968
1.01904e-06
3.20407e-08
0.000691462
6.91665e-10
3.93124e-07
3.29654e-09
9.91857e-09
8.01663e-07
4.56913e-07
0.00208401
5.16621e-07
4.01896e-09
6.43729e-08
6.02836e-07
0.00253009
1.40783e-07
5.37302e-07
1.0403e-06
0.00345441
0.000696063
5.42629e-08
3.39057e-07
1.31935e-07
4.35928e-08
1.54017e-07
1.61015e-08
6.6194e-07
7.27305e-08
3.49738e-08
2.15243e-08
7.3587e-08
1.27678e-05
5.43447e-07
6.49126e-08
7.47056e-08
1.22981e-05
4.95527e-09
8.93679e-09
2.93717e-07
8.31092e-08
3.00312e-07
2.18331e-08
7.04114e-08
6.88383e-08
5.43912e-07
3.15282e-06
2.86619e-07
5.74936e-07
3.1116e-08
9.51181e-09
8.00748e-07
9.93212e-08
2.15595e-09
0.00129589
6.28669e-10
0.00241365
1.01276e-06
0.000232818
1.30669e-08
0.000492525
8.34251e-08
2.20831e-07
3.25744e-10
1.85379e-07
6.00005e-09
4.14007e-10
2.01058e-08
0.00498002
2.17157e-06
5.59263e-07
0.000762504
2.26845e-09
4.17132e-10
1.13621e-07
2.96267e-08
1.49201e-06
9.7794e-09
2.40187e-06
6.48494e-10
1.32592e-07
2.31218e-06
0.00294922
9.21074e-12
3.68677e-09
2.88467e-08
3.67381e-10
2.28001e-06
9.10549e-09
0.00104527
1.3348e-08
1.12922e-09
4.47886e-09
0.00075928
9.06657e-08
2.85375e-06
1.87313e-11
8.43442e-05
1.5559e-05
0.00318825
2.53215e-10
2.56289e-09
8.31456e-08
4.74941e-07
7.50121e-07
9.57695e-06
6.51006e-06
4.59151e-06
1.08497e-07
0.00105398
5.30564e-07
1.99991e-08
1.45573e-09
2.4678e-08
4.93663e-09
3.77787e-09
1.14109e-09
2.62958e-11
3.42807e-08
1.36318e-09
8.43971e-09
1.93362e-08
3.04577e-09
9.41082e-09
4.73379e-09
1.48029e-08
4.59764e-09
3.11054e-07
3.03807e-07
8.77816e-09
7.25485e-10
4.25851e-07
2.14317e-11
1.55374e-06
3.24195e-08
7.95109e-08
2.93905e-09
8.5187e-11
2.25013e-10
4.54279e-11
3.20917e-07
2.09426e-09
1.18404e-08
3.86309e-07
2.22039e-10
2.80851e-07
1.41823e-06
6.92375e-08
1.46996e-08
9.4936e-06
5.65989e-08
0.00443665
2.00029e-06
2.05731e-07
0.00376574
1.47493e-06
1.56783e-07
5.3503e-07
1.04754e-08
3.46394e-07
0.00169268
1.23323e-05
1.37003e-08
3.91525e-09
2.46052e-07
1.53602e-06
1.77294e-06
1.3665e-06
7.65914e-11
4.74273e-13
1.26824e-08
6.73074e-07
7.16692e-08
6.94493e-08
3.26441e-06
4.69288e-08
5.974e-07
1.55688e-10
2.85896e-09
0.000558343
2.04095e-07
4.79024e-09
2.09283e-09
8.89621e-07
2.25299e-06
3.38362e-08
8.19118e-09
0.00075997
3.61888e-11
5.53453e-07
0.00106067
6.47302e-10
0.0012528
7.64913e-07
0.000617688
8.86608e-06
5.53849e-09
5.17353e-07
3.37228e-07
0.000852505
9.91835e-07
2.26304e-05
0.00285744
2.06365e-06
2.64923e-07
2.11225e-08
1.11279e-08
0.00855405
0.00286184
3.18695e-09
0.00418714
2.81885e-07
2.98228e-06
6.38213e-07
3.71218e-07
2.07789e-05
7.06079e-07
2.43818e-07
1.28608e-07
1.32847e-08
2.3728e-08
0.000765769
3.69586e-09
1.02302e-06
6.07866e-07
9.86707e-10
7.60357e-08
0.00383103
9.07022e-08
6.18104e-09
1.06574e-05
8.16624e-10
1.95301e-08
0.00372349
7.82469e-09
0.00313008
0.0059894
2.28732e-05
3.76019e-07
1.87222e-08
6.2487e-08
1.04849e-06
4.6405e-06
2.04244e-05
5.38538e-06
7.8858e-08
0.000762802
1.99179e-06
6.03215e-10
6.36937e-06
5.2013e-06
1.15424e-05
8.3506e-06
1.60536e-05
3.05526e-06
1.04591e-10
1.28416e-06
7.14684e-09
1.3805e-08
2.66467e-05
0.00614146
4.34658e-09
5.60939e-09
5.73174e-05
6.20599e-05
4.20377e-11
1.11955e-05
9.89241e-09
2.28852e-10
3.46027e-10
7.70044e-09
1.06352e-07
8.23845e-09
1.36763e-06
0.00085634
5.60253e-11
1.36598e-08
7.90821e-05
0.0020564
1.44517e-06
1.26439e-09
0.000544609
6.94298e-11
2.4667e-06
5.31431e-10
8.54174e-10
1.07743e-05
0.00229238
3.37737e-08
2.0012e-09
3.26755e-09
0.000593828
8.50175e-09
0.000388429
4.64414e-09
2.15805e-06
1.34653e-10
3.85603e-05
4.34343e-08
4.31189e-11
1.79266e-08
9.79564e-09
2.73059e-05
1.61924e-08
3.71341e-09
3.52936e-08
8.50225e-05
0.000907105
1.3315e-06
1.04784e-05
2.04074e-05
4.01376e-09
2.251e-05
1.80563e-07
3.56389e-09
4.96208e-08
4.25208e-06
3.77672e-07
4.61151e-09
1.56598e-07
2.79125e-06
4.13873e-09
1.17363e-08
1.6299e-08
3.26606e-07
0.00125586
9.57798e-11
1.53337e-09
0.00101243
2.12562e-06
1.35986e-06
2.91673e-10
2.35322e-08
2.85818e-09
1.95604e-08
4.46429e-07
1.0447e-06
1.77702e-08
4.7274e-07
4.4214e-07
1.46896e-06
3.94996e-07
9.28572e-11
6.24091e-08
7.97897e-11
1.32859e-08
1.62569e-06
3.03181e-06
3.63707e-09
8.64761e-09
1.74193e-08
8.45059e-11
7.8781e-07
9.30342e-09
1.25891e-06
1.52982e-05
1.4462e-06
4.81124e-09
2.68636e-05
2.09546e-06
1.30871e-06
2.78573e-06
8.78084e-10
2.69721e-06
6.32276e-08
0.00206714
6.20404e-07
1.80295e-06
8.9515e-09
1.28678e-11
1.27917e-09
0.00328543
0.00125597
9.89651e-07
8.16836e-12
2.4238e-06
6.45668e-10
0.00304142
3.36684e-06
1.52263e-08
2.53365e-09
4.85868e-08
1.55983e-08
1.68847e-06
4.41358e-08
2.09867e-06
0.00549151
9.15304e-08
1.2932e-06
5.16663e-07
1.33662e-06
9.17318e-07
7.85682e-09
1.16518e-11
8.03657e-08
5.73687e-07
4.74555e-09
3.75737e-09
1.08586e-05
6.84168e-09
5.77893e-08
0.00738014
2.75435e-08
1.21161e-06
1.21903e-11
8.30389e-08
3.79316e-09
0.00584155
3.89943e-10
0.00214945
0.000105566
2.32268e-06
3.30082e-07
3.03235e-07
1.78385e-05
4.59919e-08
1.0458e-07
4.83309e-08
8.56532e-09
1.29141e-08
3.8299e-08
1.52607e-06
5.64414e-08
0.00118882
4.63502e-09
9.69825e-08
5.78735e-06
9.3164e-11
7.32628e-06
4.58299e-09
8.51679e-07
1.40986e-05
2.34977e-09
4.23217e-09
1.17029e-06
9.75417e-09
1.67761e-07
0.00321137
9.95067e-09
1.8261e-07
1.30404e-10
0.000778553
1.59117e-07
1.22216e-08
1.12609e-08
8.10084e-08
1.32671e-07
1.41632e-09
0.00270456
2.05574e-08
5.05209e-11
2.28343e-06
8.18975e-09
1.36054e-10
8.21149e-07
1.58995e-05
1.46607e-05
4.40219e-10
3.41428e-08
8.4179e-10
9.82568e-07
8.68609e-07
0.000643251
1.06177e-07
1.44824e-05
1.25229e-06
2.06234e-05
5.19196e-07
5.38589e-08
2.20281e-08
1.2908e-08
1.30045e-06
3.9798e-08
1.42345e-07
0.000820171
5.25223e-06
0.000801462
4.26984e-11
1.79564e-07
1.80048e-09
1.407e-06
1.68028e-06
1.13117e-07
8.81973e-07
9.06696e-06
2.69889e-06
1.54387e-11
0.000115045
0.000144152
1.86975e-06
7.72204e-07
1.94742e-08
1.56642e-05
3.69391e-08
7.22986e-08
7.13208e-09
1.18252e-09
4.38432e-06
1.54654e-07
1.63686e-05
1.51804e-08
0.000792904
1.13334e-05
1.6054e-08
1.97301e-08
1.11506e-05
5.88546e-08
0.00104031
0.00493551
2.31267e-06
4.23533e-06
1.11891e-07
6.17438e-10
4.9272e-10
2.913e-09
1.22715e-06
8.53889e-08
0.000582785
0.00102662
5.66567e-07
5.61454e-09
5.67906e-06
0.000704166
4.62348e-07
2.11246e-05
4.41897e-05
0.000739214
0.00215075
0.00085955
2.61277e-06
1.58787e-10
3.58965e-05
3.1661e-08
3.41347e-09
4.58637e-09
5.48754e-09
5.21218e-07
1.29961e-09
3.29222e-09
1.57771e-06
2.33623e-09
2.47214e-10
1.71511e-08
3.35595e-09
0.00100099
1.16016e-07
6.18244e-07
0.0012917
0.00464945
1.99569e-09
0.00333608
3.20343e-06
0.00688123
1.23101e-07
1.3747e-09
1.89917e-09
8.08261e-07
0.00464652
3.77095e-11
2.2927e-05
3.07609e-09
8.72396e-08
2.89786e-07
2.33249e-07
2.65141e-08
5.83669e-09
0.00131167
2.59057e-09
1.40783e-07
4.74316e-09
9.23168e-09
9.9353e-09
8.87101e-06
2.18843e-06
1.98462e-08
6.54228e-06
3.94669e-07
9.89839e-09
2.31266e-06
2.20611e-08
6.52747e-07
3.76652e-09
2.32445e-09
0.00450896
0.000743949
7.83948e-06
6.01084e-09
6.76121e-10
2.98971e-08
0.00344437
6.59815e-09
2.07195e-07
1.50898e-08
4.228e-08
5.35486e-10
0.000599848
2.40048e-06
3.23406e-09
2.01082e-08
3.21016e-07
3.16766e-09
0.00318093
3.66525e-10
0.000756225
1.47306e-06
9.33231e-08
3.02795e-10
3.89439e-08
2.49542e-08
1.86652e-09
4.77227e-08
7.57942e-08
2.25328e-11
1.21601e-10
1.77503e-06
0.00136757
2.60645e-10
6.74575e-07
9.43975e-08
1.81537e-06
2.77216e-09
0.000821964
3.21232e-08
1.10646e-06
1.06333e-06
7.66399e-09
1.09702e-06
4.61807e-08
3.12965e-07
3.46308e-09
6.45392e-09
2.63733e-07
1.3751e-09
3.28437e-06
8.93041e-07
1.25813e-09
5.76689e-09
2.47865e-06
9.50687e-06
0.00545089
2.49768e-09
1.12069e-07
3.95409e-08
6.64996e-06
3.64647e-06
5.24181e-07
1.55834e-06
0.00135979
7.08619e-08
9.56993e-07
1.4179e-05
0.00115441
1.53308e-08
9.3401e-10
7.35937e-06
2.13014e-08
0.000707508
4.90211e-09
2.0994e-07
2.30792e-08
4.33965e-09
0.00410026
1.18294e-09
1.08717e-08
1.51296e-08
4.67703e-07
0.00540879
0.000971275
8.76932e-09
2.42318e-09
7.3893e-11
1.11177e-08
1.06745e-08
1.74679e-08
2.98679e-09
1.34455e-10
3.907e-09
1.92765e-10
5.39366e-09
0.001066
0.000635183
2.14409e-10
2.61499e-07
4.08751e-09
8.41027e-09
2.09794e-09
0.000622969
0.0015455
1.94336e-07
4.36983e-09
1.38138e-09
1.65515e-08
3.41089e-08
8.82731e-08
5.81914e-09
6.44529e-06
5.01121e-09
5.41031e-08
9.08648e-08
3.20799e-06
9.8074e-08
1.37015e-05
4.23308e-08
4.88029e-09
8.35159e-06
7.9428e-06
6.11832e-09
4.88286e-07
6.29627e-08
2.37722e-07
8.17117e-07
1.75181e-07
7.3914e-08
3.4642e-09
0.0058324
2.21438e-08
9.71468e-07
0.00106923
2.43184e-06
2.6852e-07
3.30999e-07
6.03806e-08
1.39256e-08
5.12565e-07
1.52844e-06
1.38797e-06
8.03864e-08
7.92583e-07
7.0715e-08
3.65237e-08
1.41093e-08
1.49811e-10
7.88606e-09
5.61066e-10
1.01984e-11
2.7582e-09
1.65929e-08
1.13829e-07
2.37072e-09
3.59695e-11
8.11525e-09
3.11716e-07
6.46377e-09
2.164e-10
1.47061e-08
4.15434e-08
2.39972e-09
1.88282e-06
1.30302e-07
0.00437903
2.25084e-09
2.04644e-07
3.66596e-07
7.93711e-08
4.04856e-10
1.04559e-08
0.0039644
9.40982e-09
2.91937e-10
6.48349e-08
0.00398091
1.50504e-08
1.13169e-06
1.11808e-06
2.99143e-08
1.75699e-07
2.12711e-07
6.91696e-06
2.6739e-10
8.26882e-07
1.05571e-07
3.61776e-09
5.21828e-06
7.23906e-06
0.00346875
1.36351e-07
3.03672e-08
1.90293e-07
6.99076e-07
3.55681e-07
1.22771e-08
4.39022e-05
3.96263e-09
1.28874e-05
6.88338e-06
0.00113131
1.42684e-07
0.00456722
4.87658e-09
1.90822e-08
1.01909e-07
3.95651e-07
9.9617e-07
7.1582e-08
2.54565e-06
9.62388e-10
1.66053e-07
4.13973e-10
2.17892e-10
2.56913e-08
7.72224e-06
5.47496e-09
3.73043e-10
8.08001e-06
5.44455e-09
9.64943e-06
4.60118e-08
1.51525e-08
3.01538e-08
2.87054e-09
3.65668e-07
9.82655e-08
3.74199e-06
9.17297e-09
1.26579e-07
6.31518e-05
3.11122e-08
3.16722e-10
2.69719e-06
6.55055e-08
6.01374e-07
9.03472e-10
0.00253823
2.29927e-06
9.71927e-07
3.66793e-08
6.16178e-09
3.75633e-06
1.00493e-07
2.75728e-09
7.94648e-11
1.2584e-06
1.41599e-06
1.50414e-06
0.00343213
8.50304e-08
1.46912e-07
4.71804e-06
1.45194e-07
1.08881e-07
4.12447e-08
1.2354e-06
4.80748e-08
2.27028e-06
0.00324671
2.7369e-07
3.16738e-13
5.54402e-08
1.08578e-06
2.66745e-07
4.83737e-09
1.12994e-05
1.5224e-05
8.57454e-06
1.73843e-05
3.57809e-07
9.00174e-07
2.34654e-07
3.84418e-07
6.40033e-09
4.19139e-10
0.00187557
9.50685e-06
3.88708e-08
2.5673e-05
1.08941e-07
5.22923e-07
8.92917e-06
8.64455e-08
4.97484e-08
5.96335e-08
6.6056e-10
7.82493e-07
5.99596e-07
2.28418e-06
7.24935e-07
6.2291e-09
8.50435e-09
4.19143e-07
1.80018e-08
5.50355e-10
6.00888e-06
8.97907e-08
1.82479e-07
8.21637e-07
6.65121e-08
2.81464e-09
9.78283e-06
0.0024298
1.34339e-08
4.14828e-10
1.02645e-10
0.00253882
0.00438439
7.34484e-09
0.00100116
1.64999e-07
4.18541e-07
1.45895e-07
1.62894e-07
2.48933e-07
3.08462e-07
6.06044e-07
0.00195957
0.00599042
0.00691043
2.16151e-07
5.95641e-07
2.36924e-07
1.46347e-07
0.00635392
6.28072e-10
0.00306238
4.41903e-07
5.77679e-10
6.98119e-09
1.01688e-08
7.44208e-09
1.44817e-09
3.73062e-09
1.20328e-09
0.00242423
1.22927e-09
7.0999e-07
3.64913e-06
4.29682e-10
8.72013e-08
1.25746e-07
1.05586e-07
2.05209e-09
1.08642e-05
1.03778e-07
2.46755e-08
1.4883e-06
1.03167e-07
6.36632e-07
1.21713e-07
1.99436e-08
3.39203e-09
3.80788e-07
5.72229e-05
9.28257e-07
9.08137e-09
3.17293e-07
1.9655e-08
4.88875e-07
2.3917e-06
2.47703e-07
9.90691e-08
8.87154e-08
2.22831e-08
1.0592e-06
8.84122e-09
2.26212e-07
0.000764467
7.35442e-06
0.00577292
1.29731e-05
1.82777e-06
2.67466e-10
0.00114893
7.88364e-10
1.14617e-06
1.27372e-07
2.30467e-07
1.62396e-06
1.32291e-08
5.78259e-09
7.52866e-07
1.86914e-08
1.66924e-09
4.78527e-07
1.01276e-08
4.58543e-07
0.00131566
4.52959e-09
6.9218e-07
2.5383e-08
2.19071e-08
3.0001e-10
4.2629e-06
1.76866e-06
8.58373e-08
7.0867e-09
2.22946e-08
0.000831521
3.94448e-06
2.19955e-07
3.15913e-07
6.46981e-11
3.53774e-12
1.30114e-08
3.12955e-10
8.65917e-07
5.6368e-09
3.94148e-07
3.22619e-08
6.14328e-09
9.75582e-08
6.48429e-10
1.09412e-06
1.53401e-06
8.32511e-07
8.61992e-09
2.0856e-09
1.99023e-08
3.26409e-08
9.93912e-06
2.88948e-08
0.00283365
5.01702e-07
4.01056e-09
6.23311e-09
4.10321e-06
2.77876e-07
1.98767e-05
3.19889e-08
1.92128e-06
0.00412947
2.6412e-10
5.75609e-06
3.58056e-07
0.000796129
2.8847e-08
0.000886368
0.00154928
2.18759e-06
1.31556e-07
3.26938e-07
8.07094e-10
2.79571e-07
4.6582e-07
6.47306e-06
3.27237e-07
9.03489e-08
4.44125e-07
7.04653e-06
6.34235e-06
8.21229e-06
2.75485e-06
1.80937e-09
1.73768e-06
1.48105e-05
1.1461e-07
6.29072e-08
4.19445e-06
3.5951e-06
2.85997e-07
3.15837e-07
4.52433e-06
2.81387e-07
7.01313e-06
4.52992e-06
3.81354e-07
6.57579e-10
6.4384e-07
8.06864e-06
0.00123981
4.7397e-08
2.11016e-08
8.23582e-07
2.65791e-08
1.40821e-06
1.513e-08
6.82506e-06
9.58855e-09
1.62375e-06
4.49416e-09
3.61296e-09
2.36463e-07
1.64616e-05
2.30171e-05
0.00594376
2.44478e-07
2.95636e-08
1.94006e-09
7.69368e-06
4.24373e-07
0.000562506
0.00131328
1.86281e-11
1.39753e-05
1.28694e-06
8.81607e-08
1.0445e-08
2.27281e-05
2.02486e-08
0.000799702
4.04998e-09
2.6914e-10
5.28302e-07
2.02111e-08
3.40437e-08
6.77049e-07
0.00073695
3.58102e-07
1.61696e-08
1.65448e-06
0.0038839
0.000719259
1.04196e-07
5.34256e-06
4.59413e-07
1.00744e-05
8.93208e-08
0.000698375
8.66705e-07
3.51027e-06
3.14206e-09
8.80291e-09
8.6568e-08
1.39208e-08
3.83379e-07
3.31129e-08
1.22148e-08
4.46078e-08
8.35977e-08
1.80072e-06
5.59374e-10
1.18904e-08
0.00134083
1.64638e-10
1.63478e-09
8.01605e-07
8.37379e-09
4.44827e-06
6.23923e-07
0.00110274
3.75777e-07
0.00458874
2.84642e-07
3.63571e-07
0.000745019
3.14096e-06
9.29783e-12
1.61552e-08
0.000523467
2.34754e-07
1.57403e-06
3.23866e-07
1.39197e-09
1.32576e-07
1.49888e-07
1.9856e-08
0.00223869
3.5588e-08
2.28841e-08
4.50022e-08
1.2318e-08
1.0928e-09
1.7234e-06
5.95203e-08
0.00480361
1.63176e-06
6.29674e-07
7.86742e-07
1.00397e-06
3.73528e-07
5.73145e-08
1.15055e-10
7.22073e-09
1.74688e-06
3.8248e-07
7.3274e-08
5.63116e-09
2.51119e-07
1.88765e-08
9.32908e-07
6.25987e-09
1.30733e-08
2.88572e-08
5.84623e-07
4.2465e-07
6.22715e-07
4.79928e-09
3.63073e-09
3.21827e-05
7.0588e-09
1.49555e-09
1.58141e-10
1.96796e-08
0.00544406
5.3392e-09
3.24253e-06
1.2906e-06
4.47732e-07
3.2343e-09
1.69758e-08
3.83038e-06
1.45103e-07
4.83889e-09
8.03101e-07
2.20003e-09
1.68182e-09
5.79243e-10
1.58149e-06
4.88521e-09
0.00576637
9.24084e-06
6.9453e-07
3.44958e-05
5.42354e-09
3.06389e-07
9.65304e-10
0.00110659
1.56946e-07
1.11822e-07
3.35464e-08
2.09823e-08
1.25705e-09
0.00839476
3.57982e-07
9.06295e-06
1.25351e-06
2.20369e-08
0.00214852
1.57005e-08
6.42471e-09
1.05897e-08
1.0413e-08
8.32402e-07
1.00375e-08
4.71574e-07
5.44122e-07
1.00649e-05
5.5872e-08
2.72549e-10
3.21064e-06
9.62231e-09
0.00274623
5.14599e-08
5.85922e-09
2.77989e-08
3.5649e-07
0.00114294
0.000558916
3.02851e-07
9.54096e-07
0.00167385
6.05713e-08
5.67957e-07
0.000784308
2.2203e-07
1.07352e-07
0.00303486
0.000348769
1.73069e-07
6.39277e-07
1.69044e-09
7.39247e-07
3.02152e-05
1.88116e-07
1.62416e-07
6.50532e-06
3.37905e-10
0.000430889
2.54898e-09
4.95299e-07
0.00343916
2.59962e-09
2.22579e-07
1.13045e-07
9.00695e-09
1.01813e-08
9.9468e-07
1.22252e-08
2.7961e-09
6.18485e-07
2.14635e-07
8.79413e-10
0.00043211
0.000820532
1.82838e-07
8.18391e-12
1.38535e-10
2.58769e-06
2.89624e-07
9.37227e-08
5.21537e-09
1.00064e-08
2.49129e-06
1.39022e-06
8.80523e-07
1.65132e-06
0.00638679
1.21876e-10
0.00246816
3.44139e-07
9.26401e-08
0.000939761
2.8596e-08
9.86757e-10
0.000426421
7.44911e-11
1.25692e-07
1.07085e-07
5.20438e-08
1.72486e-08
6.4997e-09
1.80858e-10
6.32194e-10
3.69554e-07
0.00231299
0.00373115
7.50151e-07
6.75085e-08
5.00297e-12
0.00104275
0.0039782
5.79566e-06
2.46643e-08
6.38608e-09
2.17181e-05
4.04267e-06
3.63469e-09
5.85184e-10
1.7445e-08
1.34431e-07
2.39149e-09
1.75632e-07
1.36468e-06
0.00111285
0.00359472
1.00423e-06
1.30124e-05
2.27219e-10
1.16603e-08
5.31638e-07
2.43582e-06
5.29203e-07
6.8667e-06
1.64592e-07
2.577e-07
2.0567e-09
9.66666e-09
2.76933e-07
0.00108574
6.16328e-09
0.00313139
7.8247e-10
2.06479e-07
4.51345e-08
3.45355e-07
5.97238e-10
3.30434e-11
1.0995e-08
1.17034e-09
4.73688e-08
6.02894e-06
6.59031e-09
0.000690413
3.20807e-07
0.00280929
2.64524e-08
4.63597e-08
3.04885e-08
3.82457e-08
2.02572e-07
2.35305e-10
1.01424e-09
8.5542e-10
6.87871e-08
1.51404e-07
0.000963347
0.000937461
9.83207e-08
1.84871e-08
1.06735e-10
5.39344e-11
4.35857e-10
1.956e-08
3.62194e-06
7.7282e-09
3.03786e-10
1.05003e-10
0.000407931
7.41525e-07
9.06873e-07
0.000756395
1.44906e-08
0.00547005
1.42157e-07
1.44547e-08
1.79441e-11
4.83835e-09
0.00100054
1.58406e-11
4.66435e-07
9.02158e-10
1.13534e-05
7.73311e-07
1.62474e-06
2.4136e-06
4.97284e-07
6.96089e-10
4.5133e-10
0.00633551
6.9081e-07
6.05905e-07
4.40332e-06
1.62897e-08
1.63181e-06
1.57896e-06
5.14254e-08
9.24182e-08
5.74237e-06
6.27885e-09
1.19538e-05
0.000728444
3.55681e-08
6.96039e-09
1.45621e-06
1.46521e-08
0.00063579
0.0031994
4.42347e-07
7.61827e-10
6.82866e-05
5.82854e-09
2.47674e-07
3.48695e-08
2.24713e-06
4.85184e-11
1.73319e-05
1.62678e-06
2.53231e-06
4.51176e-07
2.12505e-06
5.11767e-07
1.17725e-07
2.6911e-11
3.20551e-06
1.14774e-06
1.10049e-06
2.07834e-08
1.71556e-07
2.10474e-06
7.78728e-06
1.93293e-10
4.31146e-10
1.6237e-09
1.91028e-11
2.18037e-09
0.000395342
8.24989e-06
2.52008e-06
9.64894e-07
3.76074e-06
1.64954e-06
6.38106e-12
3.37638e-07
3.76231e-10
9.48067e-09
1.46879e-09
4.12564e-07
3.81497e-05
4.00476e-07
2.38973e-09
4.74476e-09
2.93866e-08
7.51595e-09
2.59646e-09
0.002596
1.96042e-07
1.16588e-05
1.77107e-05
1.29844e-05
1.30843e-09
1.00064e-05
1.22041e-05
2.25772e-05
1.24147e-05
6.40502e-10
4.24907e-11
3.06722e-08
2.14892e-07
1.1971e-06
6.33106e-06
0.000705769
4.1371e-07
5.62637e-07
7.29614e-08
1.02214e-05
3.92768e-09
1.00153e-10
2.13636e-06
7.0259e-06
0.000488565
2.16429e-10
0.00207829
2.09229e-06
1.43914e-08
1.50603e-06
1.09196e-07
2.03163e-06
4.93495e-08
1.94774e-06
5.77552e-09
1.47632e-07
3.99752e-05
7.44045e-07
1.46272e-08
3.23221e-05
9.02882e-07
1.80751e-07
6.02038e-05
1.35568e-09
1.97786e-07
9.41334e-07
1.69507e-06
1.26337e-08
0.00338209
2.70234e-09
2.88776e-08
4.1347e-09
0.00208646
0.0020666
4.50692e-08
4.65102e-08
3.07161e-06
0.00102865
1.08362e-08
1.7372e-07
5.66906e-07
2.05664e-07
2.62813e-08
0.00340131
1.94953e-07
3.61382e-07
7.67838e-05
1.50094e-09
1.16056e-07
3.40898e-08
4.41633e-08
5.1726e-10
4.55735e-05
6.63507e-05
1.6658e-09
1.6251e-08
3.12368e-08
1.77002e-06
3.5169e-10
0.000737173
1.08863e-08
2.26066e-07
1.46264e-08
1.37192e-08
4.59366e-08
7.01296e-07
2.96568e-08
9.28585e-08
4.24818e-06
2.31351e-08
2.60828e-08
0.000800092
2.17086e-08
5.55338e-08
5.9034e-08
5.03212e-07
3.32167e-11
4.6852e-10
4.5018e-11
1.98099e-07
1.1801e-08
0.00112138
3.60764e-07
3.83732e-07
8.84944e-10
5.53741e-07
0.0020686
1.66779e-06
2.32302e-07
1.01383e-06
2.05451e-07
6.26356e-09
7.02838e-09
3.35316e-07
3.76629e-08
4.73229e-08
8.83485e-06
2.1553e-07
2.09791e-09
5.67754e-09
2.98535e-08
1.33108e-08
1.24009e-07
9.5269e-10
1.44409e-07
2.80529e-07
5.06298e-09
2.62686e-11
0.000852917
1.42931e-10
1.21042e-10
4.79611e-07
0.00105457
5.59639e-07
3.9623e-08
6.23248e-10
2.3879e-07
1.02613e-07
5.1642e-07
9.54777e-08
1.90067e-09
3.27013e-08
1.53754e-08
1.04122e-07
1.10662e-09
6.68257e-10
8.27634e-09
6.76597e-08
3.63726e-07
2.57615e-08
3.60403e-09
1.28954e-07
1.08067e-06
2.63436e-09
5.70412e-07
1.05205e-08
1.71263e-08
5.9207e-10
9.48998e-07
2.94976e-09
3.66789e-07
5.28681e-11
4.52705e-07
5.31172e-10
2.9483e-08
6.06749e-06
2.39479e-09
1.09721e-09
0.00126537
9.73789e-10
0.00104155
9.98368e-09
1.17317e-08
2.01528e-07
4.20937e-07
0.000774542
1.53374e-06
0.000922576
0.00112103
1.788e-06
1.77324e-07
0.000752146
1.93519e-07
5.07668e-10
6.04198e-07
0.00236724
0.00068823
0.000781323
5.64018e-10
1.72888e-07
1.53205e-10
1.19556e-07
1.79494e-08
1.22411e-07
3.14695e-06
1.55128e-07
1.96572e-08
3.9138e-09
8.07167e-08
5.39546e-06
1.18764e-09
2.13277e-07
6.25338e-07
3.95827e-08
1.26423e-11
1.19871e-06
6.27418e-07
5.555e-07
4.50842e-07
4.08103e-07
9.57721e-08
2.451e-07
2.81364e-06
1.57884e-07
1.14991e-07
2.23887e-06
8.31482e-06
1.36897e-10
1.79306e-08
3.86054e-09
3.59037e-07
1.86428e-09
4.95834e-08
6.27374e-12
7.41209e-06
0.0069308
0.00150821
2.55946e-06
3.87251e-10
2.08854e-07
0.000918463
0.00179193
2.5536e-08
4.88665e-06
4.91082e-08
1.07637e-08
7.60378e-09
2.4034e-09
2.68778e-07
7.6723e-07
8.56337e-09
8.57397e-10
2.91822e-07
1.0548e-08
0.00311363
0.00100849
2.13367e-07
2.31115e-10
3.0585e-09
0.000786964
4.75689e-10
4.97954e-07
1.01108e-08
1.10014e-05
3.25701e-10
1.28672e-07
8.1138e-09
3.83934e-09
2.00095e-05
0.00268392
0.0012055
2.68673e-08
0.00127913
7.01275e-10
2.56077e-07
2.97202e-08
0.00200962
7.81581e-09
3.06299e-06
4.3069e-10
5.40551e-08
4.94965e-06
2.40207e-08
2.71534e-06
4.8272e-09
2.50371e-07
6.05861e-07
2.94766e-07
6.38627e-08
1.08586e-08
7.12515e-09
6.05366e-08
2.41309e-08
4.17229e-09
2.48948e-09
0.0012514
0.000691125
2.80466e-09
0.00139196
1.62619e-10
5.59688e-09
8.56127e-07
1.18571e-08
1.03155e-10
0.000647861
2.37225e-09
7.24503e-11
1.07467e-05
1.59141e-10
3.00668e-11
1.02827e-06
0.0015643
3.73997e-09
0.000694135
7.81788e-10
3.78914e-08
0.00083276
1.24154e-07
1.68368e-05
2.07196e-11
3.01966e-09
2.30386e-08
3.89458e-09
0.00369497
0.000756754
1.95288e-06
8.64967e-10
0.000864174
1.6458e-10
6.50816e-09
8.54098e-10
0.00174774
3.41766e-05
2.16562e-07
2.50291e-11
1.724e-08
0.000899341
1.86091e-05
7.58944e-09
4.74572e-06
0.0018517
0.00143098
6.49601e-07
0.00144916
1.81472e-05
0.000795304
7.25186e-07
0.00113907
6.00409e-06
7.72472e-08
3.51842e-08
4.34464e-08
7.84048e-06
1.63893e-05
1.18024e-10
1.05771e-07
1.85428e-09
7.52095e-07
1.58212e-07
2.78384e-08
1.64094e-07
5.3953e-06
4.61217e-09
1.77038e-07
6.89249e-09
4.76971e-10
1.86581e-09
8.89493e-10
8.93523e-08
1.9963e-09
1.33398e-08
2.0601e-09
2.66838e-07
7.62986e-07
7.57275e-11
4.80089e-11
1.07018e-09
2.1846e-09
2.31235e-08
2.10731e-05
4.01163e-05
1.91813e-06
1.34628e-10
5.71664e-07
1.46089e-07
0.000861662
5.27467e-07
3.00115e-07
9.41518e-09
1.67769e-08
5.08047e-08
3.90746e-06
2.01437e-06
0.00315657
0.00124968
1.46563e-09
1.42372e-05
5.52941e-06
8.64237e-10
4.56964e-08
9.03999e-08
2.06583e-09
3.88432e-08
7.57501e-08
0.00115007
2.70358e-11
1.55793e-06
3.06323e-09
0.000814037
9.74248e-07
0.000664158
6.26028e-07
8.43912e-10
1.15876e-09
8.85041e-09
4.85684e-07
3.4367e-07
7.12611e-08
1.62444e-07
1.88866e-08
1.44546e-05
5.34081e-06
2.5728e-10
2.01065e-06
9.51924e-07
8.44902e-07
1.7051e-06
5.71003e-05
8.09578e-08
0.00169765
5.77547e-09