/*--------------------------------*- C++ -*----------------------------------*\
  =========                 |
  \\      /  F ield         | OpenFOAM: The Open Source CFD Toolbox
   \\    /   O peration     | Website:  https://openfoam.org
    \\  /    A nd           | Version:  10
     \\/     M anipulation  |
\*---------------------------------------------------------------------------*/
FoamFile
{
    format      ascii;
    class       volScalarField;
    location    "42";
    object      SgT;
}
// * * * * * * * * * * * * * * * * * * * * * * * * * * * * * * * * * * * * * //

dimensions      [1 -1 -3 -1 0 0 0];

internalField   nonuniform List<scalar> 
111485
(
6.77588e-19
0.00902377
0.0210428
4.72519e-18
0.0449977
5.31692e-16
0.0416919
0.00587624
0.0183842
0.0011285
0.0418781
0.00915774
0.00425298
0.000835567
0.0059259
0.0316561
0.00129269
1.99831
0.0100199
3.02266e-15
4.50025e-16
4.19334e-17
0.0234706
0.0355204
0.00847985
4.52398e-16
0.040118
0.00174624
0.0159348
4.28001e-17
0.0435098
0.0173576
5.08279e-16
1.04554e-17
0.0096691
1.68711e-18
0.0105464
0.00388848
6.4493e-08
0.0215933
1.0113e-17
0.0720128
0.0144295
0.00099743
3.68808e-05
3.49687e-18
0.0328232
0.000720792
0.0475742
5.77011e-16
1.64425e-15
2.28744e-14
3.36413e-15
0.0444814
4.45158e-15
0.0430398
0.00355323
8.70625e-19
2.70477e-05
0.0044921
0.0149311
1.33365e-16
0.00401842
0.0884403
7.51102e-15
0.00359242
0.300945
0.0972904
0.000921238
0.00512705
6.6198e-06
0.00547543
4.89758e-16
0.00244573
3.38624e-17
0.000637612
8.74632e-16
0.0425295
7.55369e-16
2.10379e-14
5.18709e-05
0.0316067
1.91105e-15
5.41408e-17
0.00813303
0.00442607
5.80392e-10
0.0225452
4.6554e-05
0.00678518
0.000866457
0.0410976
0.0103478
6.14158e-05
0.055982
6.79663e-17
6.48562e-17
0.00145279
8.83797e-09
0.00147944
9.99324e-16
0.0195231
2.01406e-18
0.0214726
0.0048288
3.7266e-15
1.06027e-17
0.00747776
0.0031878
1.49921e-07
0.00562742
0.00507173
0.00313871
0.00264271
1.10445e-15
3.04909e-05
1.73553e-16
2.35509e-17
0.0113574
3.15097e-16
1.78866e-15
1.24736e-14
4.43299e-16
6.85878e-18
0.0023385
2.33053e-06
1.59725e-15
0.00149777
3.32566e-18
0.000173373
0.000988559
0.0280759
1.12615e-17
5.52676e-14
5.61633e-16
0.049169
1.30193e-16
0.0409743
0.0225354
0.00255613
0.000171941
0.00186975
0.0204564
0.00310477
0.0037951
0.0122028
2.18634e-16
2.23113e-16
1.31147e-17
0.026243
0.00182987
2.02912e-16
1.33551e-07
0.0050274
4.79282e-07
0.0106313
0.0154772
0.00942508
1.689e-07
7.16317e-18
3.23333e-17
0.0526951
0.0252306
5.16242e-06
2.32012e-07
0.00518787
0.00369078
1.12274e-18
9.97112e-06
6.58218e-05
3.24264e-18
3.34038e-17
0.000148368
3.77831e-17
0.00613685
0.00226961
4.16379e-16
5.16414e-15
1.29175e-15
8.84272e-15
2.45219e-15
1.32689e-16
0.00134064
0.00671541
0.0277057
0.00415721
0.0064195
0.00356634
9.49355e-05
9.04554e-17
0.00425185
2.07947e-15
7.31633e-18
0.00582123
0.0110722
0.0228154
0.0103147
0.0046326
2.94884e-17
0.00604968
0.000573229
4.52116e-05
0.0111769
0.00230495
6.07728e-17
0.00326189
0.0275359
1.603e-14
0.000230073
0.00652767
0.00228003
0.000309988
9.65484e-15
1.33293e-16
0.00728372
6.97401e-12
0.123845
1.72788e-16
0.00601159
0.0190253
0.121857
9.2482e-18
0.00267336
0.0119973
1.9814e-13
2.07388e-17
8.1847e-18
0.166658
4.18888e-07
1.2312e-14
3.84543e-15
0.00914784
0.00847111
0.0160033
3.51121e-15
1.34233e-15
9.36956e-06
4.81923e-18
0.00272557
0.00832818
0.0149846
0.0107792
0.00917522
1.14179e-17
3.2254e-07
0.000565419
5.93504e-18
5.76702e-16
0.030701
0.0214582
1.1202e-14
0.00559152
0.00978875
2.25007e-18
1.972e-14
0.000153238
2.32615e-16
4.01539e-16
3.92559e-05
3.24644e-16
0.0156188
0.0117271
0.00336382
2.23502e-17
0.0109686
8.97483e-18
9.77932e-17
3.08384e-18
3.72234e-08
0.0225612
0.00552718
0.00466737
0.0369481
0.0109672
0.00149682
0.000590618
0.0340419
0.00941752
1.06612e-16
1.1148e-17
3.36947e-07
0.0220549
0.0215113
0.0128334
3.04798e-17
0.00632934
0.00194961
0.00276319
6.23099e-06
4.40585e-06
0.0122117
0.00211479
0.00186394
2.83702e-17
0.000778939
3.96117e-17
5.27554e-07
2.35305e-13
0.266605
0.0682447
0.013837
2.03993e-16
1.79664e-17
0.00831096
0.00190138
4.15976e-16
1.86224e-17
1.08867e-15
0.000415316
0.0622597
0.00334048
0.015446
0.0182844
3.47727e-15
4.14938e-17
4.08543e-17
0.00351379
4.81559e-13
0.00132617
0.187128
5.82192e-07
7.09008e-18
4.01528e-17
1.51861e-17
2.21398e-14
0.05743
0.0123196
1.4752e-18
0.00486164
4.09057e-15
3.81488e-15
0.0672039
0.00538648
0.0107159
0.00855148
2.4812e-14
1.4813e-14
2.54838e-18
0.0087225
0.0189756
0.0046883
2.04647e-15
2.01156e-10
0.000225197
0.00178032
0.00734476
6.34215e-05
0.0284725
1.37596e-16
0.0370389
0.00315943
0.00784862
0.0230795
0.0147252
4.4226e-17
1.46114e-17
3.09519e-17
1.13518e-16
0.0320988
0.00856152
0.0370864
0.0669743
1.90549e-17
0.0201535
8.83923e-19
3.54975e-16
0.016137
4.30068e-16
0.039787
3.53208e-18
1.2696e-18
0.0237428
1.05112e-18
0.014095
0.000335376
4.42873e-17
0.00112369
0.0150654
5.24843e-15
0.00798272
0.0106768
0.00739093
0.000434835
0.00291564
0.00614009
1.22834e-14
2.5242e-17
0.00136419
6.41456e-18
0.00500698
0.112074
1.03858e-15
2.63894e-17
0.0256126
0.00012779
0.00759303
0.0224454
3.87815e-16
0.039029
0.0197522
4.10586e-18
0.000696552
0.00281931
7.15128e-18
3.18643e-16
0.0118006
0.00487597
2.61691e-18
2.03458e-16
1.0811e-08
1.6313e-16
0.0105686
1.69269e-16
5.66151e-17
0.0177174
2.4748e-06
0.014628
0.0266816
2.33235e-16
1.28587e-14
0.00108326
9.92162e-16
0.000107742
0.010821
0.12169
0.905615
1.20032e-15
0.00260247
0.000234379
1.71782e-16
0.035028
0.0331043
3.11314e-17
1.14598e-08
0.000108587
7.18786e-15
0.025701
0.0268932
0.0127492
8.71837e-16
0.000590919
0.0206502
0.0212234
6.02723e-07
4.21879e-15
9.51344e-11
5.48959e-18
2.07629e-05
0.0318353
1.63196e-17
0.00957907
6.80625e-05
3.98465e-14
3.84509e-19
1.40893e-14
8.07237e-16
0.00428638
0.00951613
0.00711449
0.00244169
0.00338933
1.16801e-16
0.00228285
1.47895e-16
0.035653
1.08185e-15
1.13978e-17
5.83589e-17
0.0317861
2.03308e-17
4.99828e-17
3.36721e-07
2.53664e-17
2.01837e-17
0.000875521
4.63418e-18
3.2471e-14
2.27888e-17
9.77822e-17
9.97384e-15
2.2691e-17
7.92025e-16
0.00815717
7.23833e-17
0.000393038
0.00166326
0.00265168
9.7471e-16
0.000624811
2.97054e-17
1.94012e-17
0.00310923
0.00204982
0.0294044
0.0222309
6.44779e-15
0.00187073
0.0726726
0.00841731
0.00110931
0.00365709
1.15739e-16
0.0223923
1.28099e-14
0.00427992
8.4714e-17
0.0691163
1.35718e-15
0.0210606
0.000322827
8.26707e-08
6.9851e-17
0.00233209
4.18969e-17
0.0759266
0.0443196
2.77009e-18
3.24964e-17
1.13822e-14
1.15317e-18
1.77562e-10
0.0545995
2.83394e-15
1.27859e-17
0.0028797
6.96461e-17
0.0304191
2.45063e-15
0.000350909
1.13545e-16
0.000586187
7.48667e-07
0.00112174
0.0124538
4.41584e-15
0.000366015
2.67508e-15
6.07618e-18
0.0162818
9.07226e-17
3.57204e-05
1.35739e-15
0.00147575
1.3669e-16
0.0661484
4.33568e-16
3.22805e-15
0.0121497
0.00387931
0.00150481
0.00431059
0.00590841
0.0208797
7.83509e-18
0.0207396
0.0070867
1.50162e-16
5.69375e-08
0.0314462
0.0125475
1.2767e-14
0.00549896
0.00543944
0.00127796
0.00139214
1.47802e-10
0.0138014
0.000982353
0.000166772
0.0267897
0.0141764
0.00109169
9.9664e-15
3.20076e-09
0.619833
4.34233e-18
0.00041798
1.6398e-18
2.09944e-14
0.0072979
0.00363656
1.26251e-07
8.4868e-06
1.68427e-15
0.0185182
0.00994227
8.18559e-16
1.02049e-11
0.00204048
3.37207e-15
1.445e-15
2.41369e-16
1.33269e-15
0.0152552
1.65596e-17
3.14675e-17
0.00987677
0.00234034
6.22027e-14
0.00937726
8.62015e-15
0.00859447
8.17035e-16
4.34512e-17
0.057155
5.4217e-17
1.46359e-15
1.38133e-14
0.00490065
8.82025e-15
0.0328157
0.00638639
1.20067e-16
0.0728339
0.00283054
0.0261329
0.0235962
0.000929708
9.17216e-05
1.4145e-16
0.0569121
0.0415939
3.00812e-17
0.0003087
0.036186
0.00708197
0.00155666
0.0244401
0.0237746
1.2435e-17
0.0104622
3.69199e-06
4.03263e-15
0.0320022
0.000299234
5.01841e-14
0.0109202
0.0388164
0.00158798
0.0185355
0.0168463
0.00706345
1.42764e-14
0.00915849
0.000400271
7.34255e-12
0.0144618
0.014898
0.0347903
1.06815e-16
0.00211383
1.61312e-17
7.34864e-16
5.66055e-17
2.58188e-15
1.68461e-05
1.23883e-14
1.32058e-10
1.47654e-16
1.74264e-15
5.13956e-05
0.0396423
2.21575e-15
0.0365942
3.37794e-16
1.46533e-17
4.03267e-15
0.0396575
0.000496146
2.18323e-14
1.36143e-17
1.21143e-16
2.98612e-17
0.238108
0.0684243
9.90868e-15
0.00176915
4.67403e-06
6.61452e-18
0.034891
0.00649739
0.0129287
3.28081e-16
2.40785e-16
0.000393119
0.00106906
1.96044e-14
2.07291e-17
5.30632e-15
0.00706693
1.43742e-17
2.51151e-16
2.35045e-16
0.038485
0.00161298
2.36515e-16
4.12137
0.142726
0.0108976
1.4436e-18
2.33876e-15
0.056796
0.000304916
9.90017e-17
7.60518e-06
0.170048
0.00291212
0.0119154
1.24643e-14
0.0577902
0.00152056
4.69669e-18
4.42915e-15
9.39094e-16
3.60663e-17
8.2498e-18
4.42672e-16
0.0193252
1.12112e-16
1.16227e-16
3.99016e-15
0.0119184
0.0234259
3.67875e-16
9.40097e-16
0.105664
0.0133312
0.00878067
2.14456e-15
9.14504e-17
0.0345923
1.68076e-18
0.0022759
0.00240379
0.00353466
1.66664e-15
9.66108e-18
5.83707e-17
1.76624e-17
0.015855
3.72889e-17
4.05548e-16
0.000816518
1.33644e-16
0.0211502
0.00140643
3.47435e-15
0.0358234
0.601086
0.00232226
0.0294452
0.000200051
0.0480106
2.4483e-10
7.08869e-14
0.0218644
0.0766371
0.00620211
6.00152e-15
1.32554e-09
0.517818
0.00988946
1.26782e-17
0.00291567
0.00313562
0.00143451
1.83109e-14
2.16333e-17
1.02157e-17
0.0126413
5.93701e-15
0.00232922
4.8206e-15
0.00145628
0.00127647
0.0343182
0.000535376
1.26347e-15
6.69757e-16
6.96293e-16
0.0197183
4.92096e-16
1.98195e-15
4.26723e-05
1.14303e-17
1.74732e-18
2.17393e-17
4.63798e-17
0.00897231
4.5221e-15
6.59592e-19
7.15933e-10
8.29748e-15
1.30488e-18
1.64852e-15
1.37862e-16
3.26517e-06
0.00151549
2.12e-16
0.00333703
1.23084e-05
2.76667e-07
8.52747e-05
0.00439103
3.49887e-17
1.00725e-05
0.00930149
0.00037142
4.98955e-17
1.09646e-08
0.000752531
9.92268e-15
0.00888563
0.000300082
2.00963e-06
0.025311
0.00867031
0.00215981
0.00553714
0.00197555
6.84566e-17
3.3663e-16
0.030127
0.0243836
2.82254e-17
0.00775811
0.0536469
0.0277297
7.7072e-15
0.00166049
4.63028e-17
0.0102742
0.0134787
4.58718e-15
0.00144179
0.000475522
1.50106e-06
0.00451216
1.66465e-15
0.0471442
1.93616e-05
0.00186047
4.022e-05
1.377e-05
3.44245e-17
1.78519e-17
0.00833419
1.86234e-16
8.94555e-05
0.000328647
1.08017e-05
6.45278e-08
6.14674e-08
1.23179e-06
5.35083e-17
5.31794e-15
0.0216323
1.58622e-17
0.00115887
0.00235015
1.35275e-15
8.88325e-16
6.3987e-07
1.45433e-10
4.72898e-17
3.32276e-06
2.12673e-16
1.58031e-16
6.41883e-18
5.72555e-17
2.36635e-14
3.49338e-17
0.000330641
6.6026e-15
1.62318e-17
7.25022e-17
4.7348e-06
7.05131e-05
0.0020419
0.00916472
1.62791e-17
9.23609e-16
0.000232685
1.54276e-16
1.44506e-15
4.76012e-14
0.0194521
0.0407549
1.44019e-15
3.29069e-15
2.69741e-15
8.12767e-16
5.09178e-19
8.34986e-16
0.00845417
5.11646e-16
7.893e-08
0.0269331
4.23264e-17
9.20427e-17
1.84969e-15
1.51886e-05
3.30975e-16
5.57498e-17
2.64708e-17
5.90714e-06
7.63243e-18
0.00530309
1.07025e-06
4.34091e-09
7.16243e-16
4.6857e-05
0.00260402
0.0434681
9.5216e-15
5.49364e-06
0.00721875
1.28547e-15
5.28922e-16
3.15552e-15
2.16983e-15
0.00787596
0.0017476
0.00396177
1.59792e-07
1.00061e-16
0.0222938
2.43683e-15
4.77162e-15
7.05216e-14
1.24814e-17
0.0253036
6.10144e-17
1.06353e-14
2.63526e-06
0.048795
5.03593e-15
0.00300225
3.06424e-15
0.00112385
1.55839e-15
4.38628e-17
2.59128e-17
2.95321e-16
0.0026445
0.000683009
0.33888
3.5304e-17
6.17058e-15
0.00205221
3.8281e-17
3.50697e-14
5.75736e-17
0.0422359
5.59635e-06
0.0286761
5.31879e-16
6.49664e-06
2.96446e-05
1.00342e-13
6.94226e-05
2.85741e-15
0.00182491
0.0276309
0.020006
0.00164637
0.000326287
1.24699e-15
2.05383e-17
2.62396e-17
1.39988e-05
1.50181e-17
0.00544356
2.16677e-18
0.176002
1.3054e-16
0.0417117
0.00354355
1.46276e-15
1.16743e-16
1.12129e-15
4.30017e-18
0.031341
1.49935e-14
9.02508e-14
0.0129867
0.00536449
1.44998e-14
4.46525e-14
3.87047e-14
2.6421e-14
7.15357e-15
4.3222e-17
0.0204055
0.000519839
3.63524e-16
2.61671e-17
2.7755e-07
1.2677e-17
0.00133002
0.000115988
6.3497e-15
0.00271246
2.96887e-16
0.000331719
6.13646e-16
0.000889169
4.5118e-15
1.27477e-07
1.80244e-06
0.000876758
0.0143982
0.0274151
1.01401e-06
3.54388e-16
0.000450954
8.39672e-16
0.00436912
6.45846e-17
4.63727e-18
6.83785e-14
2.90115e-17
1.87825e-17
1.29825e-17
0.00569439
0.00627487
5.07115e-17
1.19863e-14
2.08285e-15
0.00053465
1.76254e-05
9.81556e-18
0.0184361
0.000213088
2.39471e-15
0.0224798
0.00811995
0.00332311
0.0134601
1.0867e-16
1.0355e-16
1.42001e-18
5.41949e-16
0.0362721
3.65465e-18
0.103851
4.12349e-17
0.00021661
0.000728978
3.1605e-18
0.000669301
2.44275e-18
1.03539e-16
0.00226857
2.58562e-08
0.00590555
5.97799e-17
3.34281e-15
3.2734e-16
0.000693858
9.17008e-15
1.77018e-17
1.34247e-15
5.10508e-07
1.0274e-14
1.1906e-05
3.74847e-15
4.3662e-16
1.8705e-16
0.0178262
0.009593
0.0176884
0.034315
6.47282e-18
9.64709e-06
3.99316e-17
5.88513e-18
0.0107363
1.48662e-15
3.10632e-06
0.000254924
0.00628891
0.000240216
9.5232e-11
0.00242464
2.53134e-17
1.68812e-10
9.71909e-10
9.32073e-05
0.00123524
0.0134885
6.6052e-08
3.89117e-16
0.0311614
1.86468e-15
1.8677e-15
2.96568e-05
0.0745117
1.01219e-07
6.52751e-17
7.04798e-17
6.04075e-07
1.73382e-16
8.29376e-16
1.0154e-05
1.74279e-14
7.44956e-15
0.0419793
0.000141438
0.000105861
0.023449
0.00717106
1.77587e-15
3.63206e-16
3.77598e-06
0.00419999
4.87431e-16
1.68524e-14
0.0112377
1.23242e-15
8.58266e-15
1.39927e-15
7.72542e-15
3.77892e-13
2.52261
4.92885e-17
0.000184267
3.636e-15
0.0153342
6.82089e-16
3.81414e-12
6.06581e-15
1.26882e-15
5.06381e-18
7.31934e-16
0.00336417
2.89166e-17
2.80471e-16
2.85478e-15
1.52582e-15
5.47668e-18
6.1914e-17
0.00996533
3.3447e-17
0.0110271
0.00233807
1.43791e-15
0.00172588
1.5193e-15
0.000399975
1.49616e-06
0.00407133
0.0141847
2.84606e-16
8.95852e-05
0.00933975
4.48952e-06
3.56348e-18
1.07478e-06
0.0169609
0.00476144
1.89535e-15
0.0267109
2.09609e-15
2.43404e-17
2.54581e-15
4.39861e-16
0.00827124
6.97009e-17
1.10362e-15
0.00805218
1.10026e-07
0.00278433
5.72184e-18
5.93323e-14
0.000676133
2.95223e-18
0.000147316
4.82057e-15
0.0217484
1.44672e-15
7.31879e-16
5.53752e-05
2.4983e-15
0.000101545
5.68521e-17
1.01866e-15
0.00534925
0.000390982
0.00488697
0.0174744
0.217374
0.0197397
4.24034e-16
5.01765e-14
0.00237078
0.00669164
0.0351981
0.0133414
9.8032e-17
0.0112867
3.49638e-17
5.74209e-16
0.00763492
0.00958123
4.36998e-15
0.012431
6.18326e-18
0.00284078
0.00827073
4.58731e-15
2.56976e-16
9.61347e-19
0.00232351
2.26007e-16
3.74375e-17
0.00354745
0.0199297
3.98864e-06
0.00767463
3.80051e-15
1.23338e-17
5.48017e-05
0.000656523
1.33468e-15
0.00923876
2.71627e-14
0.00243609
1.67272e-15
1.42118e-15
0.0111199
4.6775e-17
4.50498e-05
0.00296721
4.62231e-15
2.54471e-16
0.00365249
2.67656e-11
0.05391
5.83549e-17
0.285215
5.81605e-17
3.33452e-14
3.44358e-14
0.00643435
5.95501e-15
4.7549e-16
0.00501308
1.0932e-14
0.000161557
2.65771e-14
3.0813e-15
3.53676e-15
1.57203e-07
0.000774109
1.10503e-16
2.09332e-17
0.0359628
0.00094114
1.07724e-15
0.000596121
5.5197e-16
2.03684e-15
1.213e-06
0.00368942
0.00117223
3.2509e-15
2.12354e-17
2.70393e-16
4.77699e-17
8.5754e-16
1.30922e-15
1.46443e-17
1.03054e-15
7.93307e-16
1.16563e-16
4.78122e-17
2.33901e-16
1.2832e-15
6.40292e-16
4.88609e-17
1.87518e-15
5.28524e-16
7.52651e-16
3.55165e-16
1.55454e-16
5.56888e-18
0.0183534
3.47088e-16
8.14219e-16
6.21163e-18
0.00619311
3.62723e-18
9.42354e-16
0.194631
1.57228e-15
4.09285e-16
0.0218911
3.65115e-12
2.72919e-15
0.0043698
0.0232896
2.01647e-16
0.00127197
0.00216189
1.48608e-14
0.0111014
0.0373961
0.0165066
0.00287569
0.00975689
1.69351e-15
1.47731e-15
0.00275311
0.0101708
0.00268384
2.08436e-16
0.00559747
0.00135202
0.0186454
0.0107028
0.000639759
0.0135884
0.00106972
0.00844722
2.14064e-17
0.0265779
0.00755797
0.00181914
0.00117424
8.60609e-17
2.17684e-17
1.01788e-17
4.14382e-17
6.66985e-17
0.00873643
0.0121966
1.25219e-17
1.91249e-16
1.56469e-14
7.28264e-16
8.20429e-16
4.15054e-16
1.26048e-15
1.41129e-15
0.0041011
8.61707e-05
0.0194753
4.91155e-05
5.17739e-16
9.90846e-15
0.0331664
2.84402e-06
3.24574e-16
7.96954e-16
0.00700958
9.78633e-19
4.12156e-17
3.59487e-06
0.0070131
0.0122273
0.0293506
0.0270144
9.48842e-16
0.0139874
0.000261357
7.68716e-15
1.0832e-16
0.0101972
4.8871e-16
2.05247e-15
0.0276801
0.994259
0.000149396
3.07408e-14
6.04168e-18
0.0155664
0.0222155
0.0162119
0.0057714
0.0019866
6.34909e-17
6.81533e-07
2.27967e-09
1.59315e-17
4.80618e-15
0.016971
1.00001e-15
0.00193969
0.0258668
0.0155031
0.0119747
1.91203e-17
0.00522887
9.49048e-19
1.53563e-15
1.45456e-17
2.59568e-16
0.00250912
0.70968
2.81777e-16
2.37153e-16
4.11787e-06
0.0224737
0.000464365
0.00617128
0.0311983
0.00456127
0.0197281
2.03636e-15
6.41699e-15
6.61562e-15
0.0306355
0.00510529
2.71084e-08
3.86146e-15
1.24337e-16
5.50868e-15
0.0186929
0.00268937
7.15932e-17
0.00431975
0.0450467
0.00817544
0.0054447
2.02881e-17
1.01697e-13
0.00613183
0.021496
4.1318e-17
0.000238166
0.0120379
0.000857196
0.00884852
0.00411579
0.00747437
2.23192e-14
0.00346594
0.018689
0.0364752
1.2658e-09
0.0230113
6.00731e-15
0.0159238
0.000146428
3.40425e-18
0.00249408
0.00635171
0.00031229
0.0106802
2.18279e-07
0.00019186
1.72892e-05
0.0245674
0.00311864
4.84754e-15
0.0377488
0.00105714
1.00043e-15
2.09557e-17
2.55693e-08
4.96192e-06
0.00090038
1.01329
0.032502
0.00778058
2.56532e-07
0.0371374
1.60468e-15
3.86736e-18
0.00382968
6.45863e-15
0.00230722
0.00615306
0.00180847
0.0044557
3.05687e-16
0.000238449
0.102136
1.89742e-16
0.0595848
0.00653183
2.77782e-18
0.00341971
0.000180941
3.03789e-17
2.11407e-09
9.47674e-05
1.79763e-15
2.68465e-16
1.17716e-17
0.00427006
0.00449801
0.0132488
1.47648e-17
0.00560873
0.0296836
3.64136e-16
0.00702061
0.0108744
0.0240727
0.00130049
6.386e-16
0.000617718
0.00894693
0.00917496
0.00780175
0.0369092
0.146414
0.0032425
1.53072e-16
5.94148e-06
0.0502996
9.00648e-17
0.000374976
6.27151e-17
7.71835e-18
7.80948e-18
2.39862e-19
8.44952e-17
0.00265725
2.84632e-17
0.00612887
0.00144156
2.20439e-18
0.00408483
6.71988e-15
0.0139183
9.4339e-16
6.93898e-06
2.94751e-15
0.020632
0.000111162
1.26836e-06
0.0035692
0.0277731
0.016555
0.00363833
0.0239599
2.87402e-12
0.0196673
0.0497423
0.00818475
4.33083e-18
0.00118919
0.000358076
0.00478972
0.0113137
0.000756038
1.48595e-17
1.00066e-14
4.13998e-16
0.00404638
7.34356e-17
4.74327e-05
0.000227585
0.000533961
0.000271603
9.76001e-17
3.94824e-17
4.71498e-16
0.00738328
0.0199814
0.00127614
7.32238e-06
0.00185318
0.00613011
0.0019695
0.00072036
0.00628847
0.00530553
0.00231674
7.39302e-15
5.43412e-18
1.93333e-18
0.0138003
0.0102502
6.27751e-15
4.92094e-16
1.22711e-14
0.00707874
0.0185992
1.96153e-16
0.00188891
1.61162e-16
3.74327e-07
0.00524987
0.0740221
1.42231e-16
2.27044e-18
0.00342023
1.4603e-16
8.4784e-05
0.0109792
5.35768e-15
0.00938736
0.0313258
0.016033
7.31314e-17
0.000661048
8.07409e-15
5.70606e-05
0.0454479
1.80801e-16
3.87276e-17
0.0107308
5.18748e-13
1.17552e-17
3.51161e-05
0.00107344
1.71579e-16
9.43584e-16
5.53138e-15
4.68028e-05
0.00124784
0.0030516
0.0201898
0.00945052
3.95521e-17
3.25128e-07
0.000421043
3.67268e-17
4.28826e-17
5.00691e-17
1.31408e-15
9.27743e-15
2.28516e-15
4.08313e-15
1.3038e-16
4.46018e-15
7.18402e-16
1.38694e-09
4.47915e-15
0.000410287
8.62275e-15
8.62804e-05
6.15084e-15
6.32879e-05
2.6426e-14
6.23896e-17
0.0219987
0.0080439
7.86693e-15
0.0867958
1.56873e-09
3.4467e-11
3.34134e-16
0.00104554
8.4993e-14
0.00218891
4.75205e-06
0.000972685
5.36736e-15
1.20645e-16
0.000633944
5.84229e-08
8.30443e-16
3.13274e-18
0.0368816
1.37329e-14
0.0339039
2.97192e-15
1.71078e-17
1.10285e-06
0.0266652
0.00843993
5.41906e-17
0.00039944
1.09085e-14
0.00102909
1.22143e-05
0.00186521
0.000645691
2.21617e-18
0.0190144
0.000757748
0.00480734
4.97516e-16
4.81339e-16
9.64648e-16
0.00522005
0.00398367
0.0440418
3.96275e-17
2.34922e-07
5.22768e-16
1.93709e-16
1.54932e-15
3.89525e-17
0.00237813
0.00156324
0.00236482
0.279162
8.87828e-18
0.0286975
0.0329532
0.0174894
0.00122387
7.15652e-18
0.00544367
0.00326254
0.00476754
8.4291e-07
0.00959998
3.2575e-16
0.00172247
0.000890733
0.0303758
8.02335e-07
0.00241215
7.79071e-16
0.0166112
2.15035e-16
4.00452e-17
0.00142526
1.36551e-17
0.00695257
2.16698e-17
5.18742e-16
1.00526e-14
2.80294e-16
2.39262e-17
0.000591235
2.27076e-15
0.000599404
4.60737e-16
1.86487e-17
0.018788
0.00593173
0.00722374
0.00808553
3.49111e-19
0.556251
5.87157e-18
0.0666581
3.20815e-15
0.0185509
0.0180604
0.00183399
0.0533903
1.85751e-14
8.21158e-14
2.23165e-16
0.00205746
3.13034e-17
8.81241e-16
0.0167546
3.28932e-15
1.75035e-15
0.00404242
1.01271e-15
0.0125673
1.11217e-07
3.2554e-15
1.30251e-15
2.04233e-14
0.00143067
0.00575125
3.40306e-16
0.0207047
0.00024227
7.4324e-16
0.0942445
8.31577e-18
0.0153801
0.0170171
0.00295967
1.24901e-16
0.0154923
0.00824492
0.000598329
0.0041052
0.0111043
7.5596e-16
1.52366e-17
1.48884e-06
2.80171e-16
8.47706e-16
1.66524e-17
0.0182923
0.035927
0.00400697
0.00175332
1.08845e-15
0.0416399
0.04299
0.00365593
0.00300016
0.00796186
0.0200943
0.0020412
2.10837e-16
1.42701e-16
3.49552e-16
0.00504778
3.87087e-17
0.0241681
3.74942e-14
0.000630268
2.9263e-07
0.00238446
0.0208676
8.65303e-16
1.45569e-16
0.00197931
0.000278547
8.53249e-17
3.22588e-15
4.74221e-18
2.70785e-05
0.000258064
0.000105996
0.000634656
0.00876623
0.0836241
3.31825e-15
1.64526e-17
1.26381e-16
0.00354688
0.0188267
0.0186927
0.0310224
0.00191419
0.00211256
5.64538e-16
3.3507e-16
2.39455e-13
2.94179e-15
0.00934408
0.0190691
6.95251e-17
1.07967e-15
2.94191e-15
2.50382e-17
9.16839e-19
5.54412e-15
0.0109365
2.59351e-15
0.00108509
0.291757
1.38483e-15
1.55265e-05
0.0208983
0.000615183
7.18744e-18
9.25828e-16
0.00367973
8.31422e-17
0.0116001
1.46142e-06
0.0218125
2.18817e-15
1.55268e-12
3.7086e-16
2.85588e-16
4.72266e-16
1.83126e-14
0.173523
4.71476e-16
0.00440983
0.00105878
2.85578e-16
1.21973e-16
0.001463
3.52495e-16
1.29402e-16
0.014184
5.07227e-05
1.13945e-16
4.06219e-15
1.03543e-15
0.0148037
2.80873e-17
1.10136e-16
0.000245452
0.00196794
0.00224758
6.17314e-16
7.24031e-16
3.30209e-16
0.00295143
0.00140559
0.0103564
0.00295261
4.54748e-17
0.000685082
0.012356
0.00582323
3.0508e-18
1.98708e-17
1.16069e-16
1.32803e-17
1.01165e-16
0.0282302
0.00716479
0.00426424
1.45175e-17
3.27301e-17
2.85467e-17
5.88245e-18
2.5065e-15
6.34276e-07
0.000291348
0.00229988
1.43151e-15
7.87878e-17
1.22757e-17
3.8193e-09
0.0275173
0.0947303
4.16838e-17
5.28626e-11
3.94995e-13
1.00056e-15
1.58799e-17
0.0032676
0.00676151
7.35843e-16
6.33512e-15
0.00243754
3.82483e-16
0.0006827
0.00115207
2.00869
1.02508e-16
1.33313e-15
0.0119865
0.000361
1.52783e-15
0.634873
0.000510103
0.00672589
9.10045e-16
1.06056e-15
1.47863e-17
1.42213e-16
0.00695881
9.03275e-05
2.04056e-15
0.0217322
0.0159728
0.838353
1.57516e-16
7.72523e-17
1.13028e-15
2.73133e-16
0.00536178
2.8199e-08
7.41851e-16
6.1617e-15
0.0167587
0.00105785
0.00481346
9.65904e-17
1.18618e-17
0.0256089
8.61076e-15
1.06112e-16
4.556e-16
2.36362e-16
0.0227248
9.47963e-15
3.44645e-16
2.34381e-15
0.0228926
0.0126265
1.87257e-16
2.39374e-18
7.10818e-16
0.0133835
7.42517e-08
6.00703e-15
9.25704e-16
4.30509e-19
9.79612e-17
0.00217107
0.00864807
4.19295e-18
0.00205607
0.000863542
0.00392734
3.82715e-17
3.03264e-18
3.14584e-16
2.24084e-18
2.02992e-16
0.0213949
3.65535e-15
0.0155214
6.41308e-17
0.00115262
4.93797e-14
0.00169954
7.79078e-17
1.68955e-17
0.0101908
0.261384
2.70706e-14
0.00259158
3.88365e-17
0.000285505
9.01906e-15
1.33017e-15
6.71367e-16
1.66381e-07
9.07883e-16
0.000358533
2.13034e-16
0.0335051
8.7369e-17
8.3713e-15
7.43228e-18
8.59771e-16
7.14781e-06
0.000110963
2.6831e-16
0.00376457
1.51419e-18
0.00351671
0.0195659
0.000889215
4.14319e-18
2.96607e-06
0.000305436
1.3757e-06
0.00490641
4.9406e-07
0.00119428
2.02202e-14
9.59642e-16
3.27034e-07
0.00471914
0.000169033
5.46184e-15
2.50857e-15
5.85171e-15
0.43125
7.67355e-19
8.7064e-16
2.17588e-17
2.49581e-18
2.73568e-18
8.54251e-05
0.00012144
0.000752376
5.20753e-05
5.6539e-13
0.000912351
1.37702e-17
0.00632686
1.34736e-16
3.69687e-18
2.76614e-17
4.35797e-15
2.38326e-05
5.46104e-16
5.14892e-18
4.02065e-16
0.0145179
3.42886e-16
3.59018e-18
0.0106237
8.8918e-15
0.0365057
0.0656223
0.384789
7.87153e-18
0.204526
1.27476
1.80466
0.668676
2.5974e-15
1.48119e-16
0.00473378
0.00523598
3.65952e-15
0.00293561
3.98746e-16
0.031054
7.14031e-16
3.71127e-15
0.000470526
2.9962e-16
2.87811e-17
6.80869e-06
2.79176e-05
1.53332e-18
5.69959e-16
1.33982e-06
2.5371e-14
5.11163e-15
2.01747e-05
0.0073906
0.00113049
6.3436e-15
0.0060522
4.15887e-17
0.00337922
3.9162e-07
0.00512111
1.36846e-15
1.13083e-09
0.00465294
5.31533e-16
2.20224e-10
8.05068e-16
0.0317599
7.06621e-16
0.010196
1.55544e-16
9.58617e-08
7.10749e-16
1.0611e-15
7.62983e-18
9.37766e-11
7.91538e-10
8.83613e-17
0.0119582
0.00671123
4.97075e-18
1.12041e-15
0.0327199
0.0177136
0.173768
5.77808e-18
4.71224e-05
0.0240762
0.04556
2.98881e-09
2.08417e-18
0.0647456
7.48135e-16
0.213516
8.5806e-17
1.0707e-08
6.73025e-09
3.13188e-16
3.69177e-05
1.04639e-14
0.0198379
1.87255e-16
4.10613e-16
1.45255e-15
3.83007e-16
3.18e-16
1.89925e-16
0.000366241
0.00147715
0.137751
2.92159e-15
1.45208e-14
0.0407685
1.33616e-16
4.67847e-18
7.90241e-16
1.09259e-17
2.25597e-15
0.00497331
2.20122e-16
8.54793e-18
5.28873e-16
0.00278267
1.56727e-15
1.90569e-16
2.81981e-15
0.00270533
1.24806e-16
0.00512897
0.195966
0.00380633
0.0044945
0.0226602
4.36276e-16
2.64266e-15
1.06549e-16
0.00255805
0.00167131
5.08548e-16
4.82154e-14
0.0004845
2.15203e-17
1.23584e-17
0.311708
5.28484e-16
0.0215719
1.56715e-15
0.00205803
0.00365511
8.91188e-16
4.70578e-17
3.59357e-15
8.31465e-18
2.05788e-16
0.0200085
6.89058e-15
0.00382362
2.08452e-15
1.76232e-16
0.00569033
2.64484e-17
0.0137787
2.65661e-15
4.91672e-17
0.00220376
7.76347e-05
0.123601
6.60761e-17
2.92339e-18
8.30884e-16
0.00357492
0.171005
1.35971e-15
6.47021e-17
6.07879e-15
0.00124831
7.55669e-16
0.0212827
0.0233039
2.43945e-15
1.48222e-16
0.00583587
2.42354e-16
1.50973e-14
1.36251e-16
1.36316e-15
2.04043e-16
0.0601264
5.49833e-14
7.3752e-15
3.6569e-17
5.03865e-15
4.83537e-17
5.39872e-15
5.72462e-16
2.05134e-16
2.60403e-14
0.00753597
2.80729e-14
0.00674456
2.49896e-14
1.06327e-15
0.542416
0.00216164
5.74003e-15
4.32839e-15
6.693e-16
0.0019356
1.02342e-14
1.36539e-16
2.69269e-15
6.29464e-16
0.00573998
3.74968e-17
0.00291772
5.81706e-18
0.010016
3.66376e-16
0.055149
1.09904e-14
7.7279e-17
0.0170833
5.73251e-15
1.52339e-16
0.0259866
0.000268975
8.85768e-18
6.66868e-18
0.0385579
0.0118438
0.00526993
0.000651279
0.0014533
0.0156348
0.000768321
0.00543744
1.14169e-14
0.0199367
1.89478e-16
2.75558e-15
1.89232e-16
7.19903e-15
3.25873e-16
0.00827445
1.1298e-18
1.24042e-18
8.3045e-19
5.09548e-07
1.41852e-05
2.99539e-14
0.00280674
1.55005e-17
0.0040781
7.86606e-16
6.9975e-07
0.00311003
2.27211e-13
0.0398917
2.18427e-16
4.67387e-15
3.26968e-16
0.00235978
0.00142207
1.22048e-16
4.33804e-17
0.0020158
2.37662e-17
0.622175
2.84666e-17
0.0801615
1.13365e-16
1.15693e-16
1.32165e-17
1.58204e-15
0.00835765
9.18659e-16
6.06557e-05
3.09059e-17
0.00932922
3.72247e-16
7.8746e-17
8.15211e-12
1.32322e-13
2.61195e-16
2.71945e-15
1.0712e-15
1.7394e-17
0.00435515
0.227493
1.66314e-14
1.40155e-17
0.000395654
1.59812e-16
6.5125e-17
1.84429e-06
0.016564
0.000170271
7.37404e-17
0.000545816
0.0036767
0.00442513
0.00842612
2.08278e-17
1.67137e-18
1.78219e-17
2.06445e-16
2.74636e-16
1.67535e-15
5.35251e-16
2.13926e-15
5.31856e-16
9.38263e-16
1.2886e-16
2.71265e-16
0.0706392
3.80698e-16
1.52665e-16
3.90481e-09
4.02417e-18
5.01868e-17
1.05455
7.91679e-16
1.49183e-16
0.0013962
2.30779e-10
3.39403e-16
2.61726e-17
1.7238e-17
0.020695
1.83048e-18
1.17305e-16
3.46397e-08
3.71203e-17
2.19193e-15
3.97525e-17
7.29976e-18
0.10102
3.14689e-17
0.000248523
7.48154e-18
6.09366e-17
2.94959e-17
5.82838e-16
8.76266e-17
4.3388e-08
6.498e-08
0.000126762
3.8255e-18
6.57101e-16
1.00832e-16
1.12815e-07
6.53413e-16
2.43365e-07
3.09073e-08
2.34291e-16
2.01532e-14
2.76081e-14
1.29899e-08
7.00495e-16
5.12132e-15
1.17681e-09
6.07599e-15
0.0302553
5.11231e-17
0.00546048
1.0075e-15
1.74834e-06
2.57382e-16
0.00156193
2.60181e-17
0.00448474
0.0193464
2.26175e-15
0.00264389
8.96005e-06
4.1281e-17
0.00820281
9.41322e-16
1.2112e-15
1.27261e-15
2.40014e-16
9.90692e-15
4.02502e-17
2.3835e-16
4.08715e-18
0.239188
2.25304e-15
6.74022e-17
1.34126e-16
1.83679e-17
1.68103e-16
0.0293109
0.779471
1.93882e-06
1.66698e-05
1.62459e-17
0.00156627
0.00104535
2.9141e-17
2.65337e-15
1.01673e-14
2.87997e-16
2.80151e-16
1.57641e-15
9.22967e-15
2.42137e-15
0.000411506
1.53561e-15
5.41618e-19
9.50849e-05
1.53499e-06
1.57584e-15
0.0263807
1.1166e-15
5.07264e-15
3.09883e-17
0.1653
5.15377e-17
6.15601e-17
0.0215588
4.74895e-16
3.43064e-17
3.73317e-15
4.63762e-18
0.0481876
4.30458e-16
2.03696e-16
1.05024e-15
2.89245e-15
0.00644547
0.230649
0.0268802
0.0452045
0.00265941
0.000154038
8.42792e-17
4.20828e-15
0.105904
0.00156872
7.71737e-15
4.69251e-08
2.65671e-17
1.54293e-09
7.71098e-15
0.210825
9.70591e-16
1.32931e-15
0.000165477
6.4042e-11
4.79408e-16
0.0116457
8.13676e-17
3.91597e-17
0.202165
0.027797
1.62249e-17
3.87317e-16
1.99614e-17
4.46749e-16
4.65863e-16
1.95772e-14
8.65336e-18
1.47737e-17
0.0034405
1.99252e-17
1.42201e-16
6.46619e-16
1.01189e-05
6.01416e-16
3.02419e-15
2.17046e-16
1.24804e-16
1.53118e-14
1.45628e-14
0.0024211
2.02771e-16
4.4901e-15
0.00419512
5.73344e-18
0.000415002
0.00509741
1.21684e-15
0.00277096
2.60347e-17
1.11272e-14
1.56873e-17
1.49396e-14
6.36738e-17
1.6341e-17
5.39735e-18
1.14176e-18
0.00183612
3.10948e-16
2.21797e-16
8.78476e-18
4.94662e-15
3.77613e-16
5.35165e-15
0.0402368
6.64559e-17
2.36484e-18
0.324689
7.77285e-17
6.53751e-17
9.11689e-18
0.000955811
1.31674e-16
3.15594e-06
7.67633e-16
5.07182e-05
0.0085445
1.55305e-16
8.15809e-15
0.0375528
5.94528e-15
4.87383e-16
8.78547e-05
3.72742e-07
0.00970983
1.30085e-06
3.77487e-07
7.93348e-08
5.60476e-17
6.54545e-15
0.000742125
0.000217597
0.0206126
0.010647
3.55111e-05
1.25258e-17
0.0053673
0.00412324
0.0159483
1.95918e-17
0.010805
0.0157491
0.00239535
0.00111587
0.000408308
0.00451919
0.018041
0.0356813
0.00748468
0.0109626
0.0071682
2.77544e-15
0.00254617
0.00341368
0.000571452
0.0030975
0.013551
0.012143
0.020438
7.65583e-15
0.00733094
3.39188e-14
0.00443083
0.00231843
0.000312296
0.00281448
2.81634e-15