/*--------------------------------*- C++ -*----------------------------------*\
  =========                 |
  \\      /  F ield         | OpenFOAM: The Open Source CFD Toolbox
   \\    /   O peration     | Website:  https://openfoam.org
    \\  /    A nd           | Version:  10
     \\/     M anipulation  |
\*---------------------------------------------------------------------------*/
FoamFile
{
    format      ascii;
    class       volVectorField;
    location    "42";
    object      U;
}
// * * * * * * * * * * * * * * * * * * * * * * * * * * * * * * * * * * * * * //

dimensions      [0 1 -1 0 0 0 0];

internalField   nonuniform List<vector> 
111485
(
(0.200121 -0.200173 0.000289304)
(0.567965 -0.00141854 -0.00374526)
(0.561674 0.0012959 0.00174466)
(0.200481 -0.200533 9.24569e-06)
(0.584 0.00262117 -0.000173112)
(0.199422 0.19938 3.96807e-05)
(0.573824 0.00144868 0.000317939)
(0.588523 -0.00140218 0.000851398)
(0.574397 -0.00036276 0.000380039)
(0.586148 -0.0059944 -0.00249307)
(0.565147 0.00136617 0.00162541)
(0.59192 -0.00115113 0.00283267)
(0.556689 0.000201897 0.00120005)
(0.561142 -0.00147254 -0.00378788)
(0.570256 0.00217648 0.00118559)
(0.580557 -0.00345976 -0.00218241)
(0.572362 -0.000558078 0.0006693)
(0.205445 -0.0240338 0.0333365)
(0.585418 0.00154176 -0.00134037)
(0.197959 -0.197628 -4.42689e-05)
(0.198484 -0.198474 -0.000280246)
(0.2001 0.200029 9.48229e-06)
(0.578821 0.00143656 -0.000302996)
(0.586889 -0.00384502 -0.00111327)
(0.576113 0.00279667 -0.000978834)
(0.201851 -0.201067 -0.00029847)
(0.594152 -0.00252798 0.00316231)
(0.56257 -0.000952029 1.59146e-05)
(0.586633 0.0007869 -0.00151434)
(0.199437 -0.199497 2.34137e-06)
(0.591238 0.0108691 -0.00301903)
(0.583865 -0.00106613 0.000179545)
(0.198127 -0.198603 0.0003282)
(0.199753 0.200124 -0.000504617)
(0.200752 0.082041 0.0345277)
(0.200691 0.201823 -0.00281334)
(0.588789 0.010647 -0.00439552)
(0.569595 0.000830409 0.00506202)
(0.581507 0.174235 0.0112976)
(0.584007 0.00302544 0.00041094)
(0.196574 0.198198 -0.00139491)
(0.590896 0.000546011 -0.00360511)
(0.583172 0.00318568 0.0011488)
(0.562575 -0.0043709 -0.000876419)
(0.589494 -0.0107143 -0.00521487)
(0.199677 -0.198553 0.00122413)
(0.590741 -0.00258519 0.00286138)
(0.586066 -0.00353625 -0.00102061)
(0.590823 0.000109154 -0.00275506)
(0.199137 -0.19693 0.00120059)
(0.197755 -0.195892 0.00126424)
(0.228032 0.191098 0.0031272)
(0.197018 -0.196415 0.000675129)
(0.5907 0.0026372 -0.00536885)
(0.196666 -0.195746 0.000169809)
(0.583413 0.00150049 -0.000609923)
(0.58309 -0.00256904 -0.00105055)
(0.200069 0.199793 4.24263e-05)
(0.531238 -0.00120738 -0.00940865)
(0.586219 0.00240566 -0.000332059)
(0.585958 0.00270979 -0.000225831)
(0.199653 -0.199985 0.000246995)
(0.542316 0.000578102 0.00362087)
(0.593677 -0.00120536 0.00455726)
(0.206085 0.18629 0.000182413)
(0.535866 0.00100477 -0.00134999)
(0.410931 -0.0373432 0.0142368)
(0.587897 -0.00194938 0.000825633)
(0.528885 0.000336124 0.00179677)
(0.499538 -0.00111996 0.000249294)
(0.565643 0.0044873 -0.00345503)
(0.523822 -0.00100905 0.00188724)
(0.214908 -0.19423 -0.0042417)
(0.53624 0.00105232 0.00423213)
(0.199885 -0.199761 7.58274e-05)
(0.585178 -0.00117179 0.000584102)
(0.200003 0.200067 -5.5162e-05)
(0.591026 -0.00123518 0.00315373)
(0.199866 0.19978 -4.90083e-05)
(0.178177 0.173613 -0.00660982)
(0.568491 -0.00881747 0.00591648)
(0.58573 0.00212874 0.000486875)
(0.198946 0.198547 -2.64465e-06)
(0.199828 -0.19979 9.29279e-05)
(0.552881 -0.000134244 0.00103876)
(0.530867 0.00144059 -0.00227314)
(0.453202 0.288772 -0.0803995)
(0.582543 0.00727201 0.000635575)
(0.560372 0.0149856 0.0136112)
(0.567352 0.000869527 0.00166188)
(0.599005 0.0110254 -0.00728108)
(0.58483 -0.000988112 0.00104262)
(0.545896 -0.000982712 0.00195812)
(0.55495 -0.000560046 0.000553562)
(0.591868 0.00171 -0.00376272)
(0.199881 -0.199861 1.93904e-05)
(0.199166 -0.199066 0.000159608)
(0.582345 0.00678123 0.00203035)
(0.608596 -0.127383 0.00343927)
(0.549749 0.00534232 -0.00164078)
(0.199826 -0.199833 9.65764e-05)
(0.585168 -0.00320502 0.000499631)
(0.200924 0.201225 0.00109941)
(0.580097 2.13114e-05 -0.000310121)
(0.573663 -0.00258277 -0.003261)
(0.19648 0.174375 -0.00439022)
(0.200198 0.200099 -6.88848e-05)
(0.584132 -0.00131821 -5.93034e-05)
(0.540218 -0.00302992 0.000414255)
(0.518133 -0.0152948 -0.016551)
(0.553264 -0.000410445 0.00122119)
(0.579959 0.000847715 -0.000240566)
(0.541503 -0.000426033 0.00197049)
(0.532312 -0.00327071 0.000934915)
(0.201793 -0.200743 3.49741e-05)
(0.510895 -0.000472258 0.00148629)
(0.200956 -0.200359 -0.000264202)
(0.20082 0.199604 0.00116241)
(0.570664 0.00216826 0.00164716)
(0.200389 -0.200259 6.05354e-05)
(0.202002 -0.20101 -0.000105951)
(0.26454 0.207215 0.0129363)
(0.197213 0.198144 -0.00038278)
(0.199959 0.199459 -0.000716834)
(0.557961 -0.00135136 0.00239085)
(0.16038 -0.114505 -0.0292963)
(0.252353 0.215887 0.00846885)
(0.516085 -0.000178875 0.00248339)
(0.200135 -0.20004 -8.21017e-05)
(0.585473 0.0419676 -0.015398)
(0.587213 0.0126643 -0.00677881)
(0.581334 0.00697035 0.0020095)
(0.198972 -0.198497 -0.00113845)
(0.258835 0.224543 0.0235738)
(0.241202 0.214619 0.0107548)
(0.586544 0.00167562 -0.00144205)
(0.200324 0.200264 -8.77326e-05)
(0.581759 0.00135891 3.34257e-05)
(0.577938 0.00265091 0.00177966)
(0.568092 0.00267009 0.0026805)
(0.442451 -3.71288e-08 0.00186391)
(0.582341 0.00322757 0.000685604)
(0.577231 0.00291609 0.00186875)
(0.551138 0.000544898 -0.00227673)
(0.577591 -0.000926913 -0.000569401)
(0.569314 -0.0005379 0.00143207)
(0.200424 0.200444 -3.16476e-05)
(0.200036 -0.200071 1.12889e-05)
(0.199729 0.199949 0.000471337)
(0.583601 0.0026879 0.000493152)
(0.551667 0.000923835 -0.00200255)
(0.198531 -0.198486 0.000115874)
(0.375732 -0.00219945 0.00379834)
(0.569206 0.00287525 0.00179429)
(0.624217 0.0245246 0.0105897)
(0.586554 0.00167509 -0.00125795)
(0.584122 0.00183006 -0.000567748)
(0.5408 0.00012378 -0.00129888)
(0.626021 0.0339565 0.00585083)
(0.198831 -0.200839 0.00104355)
(0.199937 -0.200085 0.000251436)
(0.585818 0.00158581 -0.00129144)
(0.57336 -0.00190558 -0.00191442)
(0.63025 0.0343566 0.00645949)
(0.620977 0.031183 0.00840409)
(0.541516 0.000387595 0.00279948)
(0.584112 0.00688717 -0.00265693)
(0.196875 0.198965 -0.000242832)
(0.638769 0.0419492 0.00903642)
(0.608869 0.0311847 0.00880774)
(0.200026 0.200158 5.20017e-05)
(0.199609 -0.199666 9.68201e-06)
(0.465947 0.000487164 -0.00383162)
(0.200296 0.200388 2.80531e-05)
(0.581559 -0.00105212 -0.000207413)
(0.559981 0.000338727 -0.000988143)
(0.199889 0.194942 -0.00120166)
(0.215595 -0.198791 0.00200898)
(0.198868 -0.197873 -0.000447009)
(0.197167 0.185806 -0.00195574)
(0.216569 -0.200246 0.00319541)
(0.199822 -0.199943 0.000204622)
(0.582041 0.00213592 0.000682459)
(0.583551 0.0014549 -0.00120527)
(0.581293 0.00160963 -0.00075926)
(0.572324 -0.00221009 0.00230147)
(0.552072 -0.00172645 0.000295677)
(0.554222 0.000874469 0.00180462)
(0.494713 0.00634603 0.000783137)
(0.1993 -0.19853 5.05295e-05)
(0.535645 7.93349e-05 0.000778845)
(0.215038 -0.200359 0.00192521)
(0.201309 -0.201491 -3.88478e-05)
(0.558821 0.000914859 0.00188768)
(0.586393 -0.00675276 -0.00236321)
(0.58236 0.000968233 -0.00292428)
(0.55926 -0.00066985 0.000496348)
(0.569344 0.000215896 0.000306177)
(0.199355 -0.199036 0.000483618)
(0.558793 -0.00264496 0.000705003)
(0.556177 -0.000468748 -0.00310202)
(0.385019 0.119399 0.0152761)
(0.57011 -0.00486008 4.33544e-05)
(0.579139 -0.0008501 0.000489916)
(0.200418 -0.199165 -0.000505392)
(0.556279 0.00126458 0.00201299)
(0.584709 0.00128258 -5.2017e-05)
(0.218532 -0.198484 0.000670977)
(0.561458 0.00114514 0.00259779)
(0.58958 -0.000497918 0.00321203)
(0.55109 0.000628572 -0.00231246)
(0.554482 0.00141703 0.0025565)
(0.216382 -0.200809 0.00251226)
(0.198889 -0.198964 -2.38367e-05)
(0.554247 0.00149823 0.00284788)
(0.360267 0.224015 -0.0210393)
(0.595754 0.00247435 -0.00615427)
(0.199877 0.199933 -0.000140224)
(0.557959 0.00110788 0.00233306)
(0.559303 0.000285792 0.000308713)
(0.592655 -0.00193525 0.00384913)
(0.200119 -0.200078 3.04842e-05)
(0.520616 -0.000412058 0.00134002)
(0.58516 0.00897919 0.00439688)
(0.319119 0.2138 -0.0244889)
(0.200293 0.200356 -0.000146787)
(0.200005 0.200154 5.7774e-05)
(0.597537 -0.00292213 0.00595749)
(0.555396 0.0121807 -0.00330852)
(0.210484 0.176879 -0.00428463)
(0.246133 -0.191864 0.00807591)
(0.560841 0.000508714 0.00101566)
(0.579804 0.000824245 -7.87729e-05)
(0.583177 0.00122601 0.000520121)
(0.206978 0.179392 -0.00552645)
(0.209527 -0.194795 -0.00117361)
(0.56252 0.00716648 -0.00851773)
(0.19987 -0.199806 8.73308e-05)
(0.534241 0.000640363 -0.00288073)
(0.554307 0.000391389 0.00233592)
(0.560659 0.000201244 0.00135123)
(0.561244 0.00109358 0.00143251)
(0.563559 0.000536576 0.00188766)
(0.199301 0.199404 0.000611683)
(0.426334 -0.000911836 -0.0161793)
(0.569483 0.00181772 0.00173088)
(0.198214 0.198815 -3.41331e-05)
(0.200133 0.200215 5.02579e-05)
(0.593009 -0.00680674 -0.000381515)
(0.579612 0.00271263 -0.000656707)
(0.20473 0.17325 -0.00563241)
(0.528372 -0.000522749 0.00114218)
(0.568648 0.00161145 0.00147593)
(0.200285 -0.200183 -5.19262e-05)
(0.25394 0.24034 -0.00126848)
(0.584795 0.00622318 -0.0027747)
(0.201122 -0.198605 0.000172986)
(0.221763 -0.15945 -0.00381297)
(0.300917 -0.107233 -0.0106978)
(0.200499 -0.19985 -0.000124945)
(0.57281 -0.000882142 -0.000969586)
(0.556222 -0.00102014 -0.000841991)
(0.579302 0.000848195 -0.00153299)
(0.199978 -0.200056 -3.99979e-05)
(0.572461 0.00163032 0.00138597)
(0.200462 -0.200511 4.47245e-06)
(0.200322 -0.200469 0.000137499)
(0.199169 -0.198303 0.000395213)
(0.395922 0.0017944 -0.00534349)
(0.589869 -0.00260188 0.00321185)
(0.560021 0.00210025 0.00248813)
(0.570759 0.00191107 0.00137717)
(0.590096 -0.00299192 7.44228e-05)
(0.568533 0.000938964 0.00172578)
(0.582355 0.00221147 0.000789775)
(0.586565 0.0106372 -0.000993611)
(0.575635 0.000505272 -0.000236418)
(0.580103 0.00092103 -0.000310957)
(0.203842 0.200481 -0.00011834)
(0.199011 -0.199083 -0.000271451)
(0.362763 0.00247481 -0.00759654)
(0.582835 -0.00116045 0.000491362)
(0.587073 0.00479587 0.00499115)
(0.555399 -0.000852818 -0.000826576)
(0.200426 -0.200295 4.78651e-05)
(0.57898 0.00191292 0.00118008)
(0.581435 0.00309359 0.00148202)
(0.570567 0.00123343 0.00076776)
(0.500977 -0.000599821 -0.0023488)
(0.527059 -0.00586064 -0.0133709)
(0.57934 0.00174717 0.000503737)
(0.569277 0.00144414 0.00142734)
(0.5807 0.00539521 -0.00334392)
(0.200001 0.200097 1.01407e-05)
(0.533695 0.00296865 -7.52913e-06)
(0.199876 0.200007 -7.84247e-05)
(0.161188 0.119866 -0.0269147)
(0.226285 -0.145957 -0.0120042)
(0.602011 -0.00582268 0.0111346)
(0.590242 -0.00298048 0.000103629)
(0.575699 -0.000297548 0.000227847)
(0.200289 -0.199769 -8.21869e-05)
(0.199229 0.20034 0.00172709)
(0.578346 0.00205066 0.00123035)
(0.554244 0.000829457 -0.000703772)
(0.198664 -0.198632 5.3352e-05)
(0.200233 -0.200113 0.000232043)
(0.195409 -0.196552 0.00126649)
(0.549394 0.000657295 -6.50859e-05)
(0.57741 0.00055925 -0.000636275)
(0.550162 -0.000109715 0.00204987)
(0.530514 0.00111314 -0.00211785)
(0.587986 0.00193499 -0.00137766)
(0.229506 0.196885 0.00585223)
(0.199712 0.200194 0.000382845)
(0.19959 -0.199413 -8.38063e-05)
(0.576172 0.00214336 0.00160062)
(0.378727 -0.320339 -0.0169062)
(0.54961 -0.000552775 0.000799038)
(0.598639 -0.0037664 0.0137516)
(0.482906 0.00101888 -0.00972477)
(0.200157 0.200138 -5.75462e-07)
(0.199804 -0.200002 0.000163441)
(0.200386 -0.200497 -8.73207e-05)
(0.253539 0.211943 0.0133933)
(0.583897 0.00189742 -0.00013012)
(0.588401 -0.00292989 0.000549489)
(0.199754 0.200765 5.35171e-05)
(0.580642 0.00150326 -0.000172738)
(0.211856 0.170168 0.0125453)
(0.199683 -0.197291 -0.000303114)
(0.595459 -0.00185347 0.00497566)
(0.578779 0.00198899 0.00106664)
(0.591103 -0.00031119 0.00139775)
(0.580852 0.00156092 -0.000103804)
(0.191861 0.168972 0.010722)
(0.251034 0.215306 0.0145686)
(0.199381 0.199641 -0.000382757)
(0.579877 0.0019477 0.000767179)
(0.579005 0.00178065 -9.39842e-05)
(0.589874 0.0115168 -0.00434511)
(0.197103 0.196605 0.000381489)
(0.403868 0.353697 -0.0872527)
(0.551161 0.00206738 0.00479883)
(0.589496 -0.00261845 0.0014515)
(0.579602 0.00203856 0.00134893)
(0.549401 0.0557974 -0.00395777)
(0.588047 0.00126914 -0.00174928)
(0.198969 0.198963 0.000117566)
(0.587751 0.00151265 -0.00139819)
(0.565421 0.000717651 0.00120672)
(0.593868 -0.0135133 6.35975e-05)
(0.597345 -0.0035619 0.00754457)
(0.57464 -0.00487098 -0.00419484)
(0.198775 0.199821 -0.000651654)
(0.199229 -0.199677 -0.000439269)
(0.200197 0.198871 0.000770389)
(0.198122 -0.198676 -5.08549e-05)
(0.587724 -0.00244592 0.000252636)
(0.582197 -0.000470394 7.56304e-05)
(0.584011 0.00266715 -0.00245774)
(0.587993 0.00155644 -0.00180456)
(0.198062 0.198239 -0.000851942)
(0.58105 -0.00374839 -0.00169192)
(0.200003 0.200023 6.13461e-05)
(0.199399 -0.199848 6.47482e-06)
(0.587789 0.00184942 -0.00133471)
(0.184389 -0.184463 0.00272943)
(0.32573 -0.0635353 -0.00357807)
(0.197001 -0.196225 -0.000205976)
(0.200341 0.19666 0.00116487)
(0.58255 0.000636794 -0.000553811)
(0.200041 0.199901 2.18333e-05)
(0.575114 0.00163191 -0.000181198)
(0.54712 0.000418555 -0.00225522)
(0.200589 0.200596 -5.4703e-05)
(0.525686 -0.000202188 -0.0025008)
(0.572862 0.000922702 0.00103192)
(0.201668 0.176178 -0.00653852)
(0.56921 0.00252016 0.00301387)
(0.540923 0.00228354 -0.000567112)
(0.573399 0.00272345 0.000974247)
(0.533631 0.00106879 0.00737637)
(0.578458 0.00156353 0.000464002)
(0.553023 0.000262125 -0.000935752)
(0.197988 0.167963 -0.000851991)
(0.198827 -0.198487 0.0012326)
(0.494729 0.000912166 0.0122035)
(0.198285 0.198926 -0.00117581)
(0.572423 0.00293818 0.00295445)
(0.596123 -0.00327702 0.00587902)
(0.200684 0.19148 0.00175261)
(0.199498 0.200387 -3.29016e-05)
(0.586209 -0.000845347 0.000438124)
(0.563581 -0.00253633 -0.00512195)
(0.566375 0.00292308 0.000297284)
(0.586969 0.0019658 -0.000770604)
(0.199968 0.199611 -7.81017e-05)
(0.597649 -0.000968278 0.010034)
(0.589329 -0.0020239 0.0030247)
(0.200885 0.200572 2.05119e-06)
(0.576257 0.00953623 0.00784778)
(0.549792 -0.00228959 -0.00629311)
(0.199618 -0.199689 -1.34948e-05)
(0.19893 -0.198944 8.00487e-05)
(0.573948 0.00165658 -0.000556709)
(0.578214 0.000387091 -0.000917273)
(0.200122 0.200048 -0.000310869)
(0.199617 -0.199197 -0.000304818)
(0.345014 -0.189144 0.0417704)
(0.200341 -0.200472 8.15842e-05)
(0.578527 -0.0011525 -0.000200442)
(0.198569 0.199285 0.000422122)
(0.200434 -0.200508 1.17662e-05)
(0.591181 -0.000205361 0.00185421)
(0.536855 -0.00647449 -0.0153579)
(0.584114 -0.00373285 0.000856163)
(0.565434 -0.000206042 0.00100634)
(0.200766 0.200632 2.78948e-05)
(0.260979 0.200058 0.0100564)
(0.565277 0.00787564 0.0118942)
(0.244176 0.214372 0.0122301)
(0.563756 0.00253694 0.00478514)
(0.560221 -0.00490531 0.000154195)
(0.586216 -0.00218998 -0.00175002)
(0.404149 0.00703055 0.0155382)
(0.239685 0.205362 0.010714)
(0.584096 0.000858335 -0.00561903)
(0.592479 0.0189993 -0.00574855)
(0.199875 -0.200204 0.000261803)
(0.591704 0.00144135 -0.00626267)
(0.592172 -0.00245939 0.00227956)
(0.200044 -0.199982 0.000182668)
(0.574775 0.0326778 -0.0193064)
(0.498403 0.000171428 -0.00644491)
(0.253598 0.198713 0.00801768)
(0.589823 -0.00115164 0.00238463)
(0.582342 0.000786279 -0.000779491)
(0.57845 0.00156459 -0.000410704)
(0.200001 0.199891 -5.60063e-05)
(0.575231 -0.000958438 0.00410862)
(0.592092 6.10264e-05 0.00193937)
(0.573081 0.00567381 -0.000583541)
(0.35884 -0.0057616 0.0066093)
(0.244404 0.229861 -0.00505282)
(0.338974 -0.0107587 0.01289)
(0.199753 -0.200051 0.000188616)
(0.531215 -0.0186961 -0.0178499)
(0.575358 -0.00106921 -0.00370393)
(0.200076 0.199981 0.000281368)
(0.548731 0.0012907 -0.00389769)
(0.450102 -0.00104509 0.00887305)
(0.261077 0.229598 -0.00242255)
(0.200057 -0.199932 -3.53106e-05)
(0.233058 -0.199303 0.00632219)
(0.200323 -0.200265 -3.09895e-05)
(0.572676 0.00344973 -0.000418579)
(0.577282 0.00328638 -0.00102299)
(0.57326 -0.00167524 -0.00163427)
(0.538218 0.0011486 -0.00298638)
(0.585872 -0.011496 -0.00233957)
(0.199812 0.198906 -0.000389037)
(0.568177 -0.000589707 -0.00120927)
(0.200774 -0.199049 -5.46946e-05)
(0.563556 0.00204483 0.00140194)
(0.200792 0.200855 -1.8861e-05)
(0.200165 -0.2 -2.87801e-05)
(0.1974 -0.197984 -0.000313738)
(0.55362 -0.00392942 0.000450288)
(0.199102 -0.199302 -0.000210778)
(0.199932 -0.199972 3.59532e-05)
(0.197026 0.128797 -0.00859416)
(0.200335 -0.20048 9.41037e-05)
(0.197567 0.200157 0.00186552)
(0.567142 -0.00227647 -0.0012515)
(0.200049 0.199861 -3.1417e-06)
(0.237834 0.174884 0.000407441)
(0.200145 0.200264 0.000285027)
(0.199054 -0.198378 1.03852e-05)
(0.199914 0.199073 -0.000339656)
(0.198845 -0.197787 -0.00105019)
(0.198432 0.198609 1.27816e-05)
(0.515831 -4.77228e-05 -0.00402044)
(0.200191 0.19904 0.000861808)
(0.530329 0.00806373 0.0113302)
(0.58043 0.00139093 -0.000820459)
(0.596479 -0.0236987 -0.00370558)
(0.200803 0.199885 1.03964e-05)
(0.504259 0.00155744 0.00926661)
(0.200261 0.199503 0.000110331)
(0.200405 -0.200502 -8.62942e-05)
(0.569557 -0.00482304 -0.00574961)
(0.570761 -0.00409733 -0.00521634)
(0.57438 -0.0016905 -0.000817135)
(0.60004 0.00109838 -0.0111344)
(0.230745 0.19358 -0.00637735)
(0.587455 0.000683355 -0.00351892)
(0.586981 0.000722675 -0.00318742)
(0.579659 0.00115104 3.49635e-05)
(0.570025 0.000687145 0.000246771)
(0.578786 -0.00588988 -0.00457852)
(0.198628 -0.198703 -0.000127958)
(0.580122 0.00101801 1.67793e-05)
(0.263391 0.227939 -0.00114234)
(0.578574 0.00140348 -0.00073507)
(0.199683 0.199432 -7.09596e-05)
(0.589362 0.00178767 -0.00329752)
(0.260514 0.215777 0.00269324)
(0.581086 0.000358893 -0.000751506)
(0.583251 -0.00300693 0.00198376)
(0.229838 -0.119327 -0.000900125)
(0.199676 0.199855 0.00230149)
(0.570649 0.0010783 0.00112549)
(0.19972 -0.199707 4.64037e-05)
(0.591681 0.00222046 -0.00407942)
(0.587487 0.00238744 -0.00264146)
(0.199863 0.199229 -0.00165248)
(0.199296 0.199312 0.000463881)
(0.195828 0.174132 -0.00407131)
(0.200066 0.200204 7.60481e-05)
(0.40922 -0.0225727 0.00972661)
(0.591962 0.0020183 -0.00390267)
(0.203277 0.198348 -0.000153381)
(0.199551 0.199992 0.000363312)
(0.506083 0.000718937 -0.00110115)
(0.200344 0.200363 2.72554e-05)
(0.582973 0.00167205 -0.00239333)
(0.200204 0.200126 1.50179e-05)
(0.576905 -0.00348542 -0.00162626)
(0.200232 -0.200315 -7.55816e-05)
(0.540607 -0.00248283 -0.00787537)
(0.443974 -0.00195407 0.000500641)
(0.543461 0.00177644 -0.00103862)
(0.581374 0.0006626 -0.000794592)
(0.200418 0.199019 -0.000641231)
(0.524799 0.000692824 -4.30419e-06)
(0.200381 0.199638 0.000180508)
(0.200174 0.200178 -0.000540749)
(0.574342 -0.00128749 -0.000690505)
(0.199809 0.199519 -7.92603e-05)
(0.488889 -2.21396e-05 -0.00485121)
(0.192384 0.176338 -0.00621117)
(0.583955 0.001734 -0.00202065)
(0.198884 -0.199026 5.2653e-06)
(0.58867 0.000730305 -0.00129598)
(0.200564 -0.20036 1.96586e-05)
(0.239385 0.210769 0.00667366)
(0.595437 0.0218637 -0.00211761)
(0.570219 -0.00486408 -0.00589246)
(0.580501 0.00236878 -1.44108e-05)
(0.583689 -0.00619841 -0.00404036)
(0.577718 0.00128302 -0.00057752)
(0.589877 -0.00346559 -0.000305068)
(0.197822 0.199279 -0.000902418)
(0.580337 0.00333131 0.00173544)
(0.573036 -0.00549891 -0.00556921)
(0.199985 0.200077 -9.93189e-05)
(0.488631 -0.00628469 -0.0198717)
(0.593393 -0.00527712 -0.00337514)
(0.569885 0.00259298 0.00223403)
(0.19733 0.194595 -0.00115492)
(0.246627 0.0443244 -0.0398521)
(0.557171 0.00141233 0.00183056)
(0.453066 -0.00202038 0.00487828)
(0.467643 0.108877 -0.00444484)
(0.255969 -0.133858 -0.00991662)
(0.588015 -0.00575219 -0.00102859)
(0.553257 0.00225902 0.00435352)
(0.56963 -0.0052956 -0.00574919)
(0.581797 -0.00311181 -0.0010809)
(0.571636 0.00321768 0.00140853)
(0.504183 0.0629559 -0.00174854)
(0.248781 0.210301 0.0018681)
(0.513344 -0.022578 0.00574304)
(0.499513 -0.0463379 0.0103655)
(0.199754 -0.199807 0.000127883)
(0.510923 0.00359685 -0.00148777)
(0.201318 0.19744 -0.00105072)
(0.235289 0.213339 0.00202501)
(0.578449 0.000977535 -0.000203746)
(0.50888 0.0832399 -0.0015675)
(0.613833 -0.0571133 -0.0080653)
(0.55627 -0.103486 0.000335049)
(0.235173 0.222434 -0.0151884)
(0.586941 -0.00358193 -0.000977046)
(0.579322 0.00322227 0.00262342)
(0.19958 0.19902 -2.39208e-05)
(0.259482 0.142327 -0.00542155)
(0.578845 0.00454542 0.00288705)
(0.200014 -0.19925 0.000169646)
(0.2 0.199891 -4.81803e-05)
(0.199238 0.19915 1.69944e-05)
(0.200462 0.199369 0.000221152)
(0.586336 -0.00571105 -0.00243732)
(0.200172 0.200144 0.000117453)
(0.200312 -0.200516 0.00101267)
(0.576117 -0.00359115 -0.00262443)
(0.531049 0.000260902 -0.00136867)
(0.290406 -0.255532 -0.0138551)
(0.578959 0.00441131 0.00273109)
(0.234249 0.188259 0.00447549)
(0.581384 -0.00201701 -0.00110084)
(0.195643 -0.195349 -0.000636343)
(0.1996 0.20002 -7.1224e-05)
(0.58537 -0.00366759 -0.000835431)
(0.199873 0.198705 -0.000796036)
(0.200292 0.199771 8.67232e-05)
(0.229825 0.21937 0.00664577)
(0.550233 -0.000341751 -0.000437799)
(0.332764 0.277692 -0.0370441)
(0.576813 -0.00230071 -0.000990217)
(0.578147 0.000918072 -0.00021842)
(0.197851 -0.19661 -0.00155185)
(0.599008 -0.000977765 0.0191686)
(0.547275 -0.0031609 -0.00810044)
(0.574987 -4.8335e-05 -0.000475504)
(0.582291 0.0111556 0.00125866)
(0.58347 0.0042593 -0.0120777)
(0.501777 0.000247853 -0.00454884)
(0.199816 0.199501 8.60512e-05)
(0.586573 0.000595518 0.00176571)
(0.582252 0.00239806 -0.000392024)
(0.197849 -0.200443 0.000289643)
(0.540537 -0.000406386 -0.000302257)
(0.5862 0.00364752 -0.000898339)
(0.587535 0.00276203 -0.000994319)
(0.532032 -0.00237596 -0.00520361)
(0.58724 0.00264386 -0.0011019)
(0.587604 0.0032422 -0.000291454)
(0.199878 -0.197237 0.00130757)
(0.588817 -0.00104259 0.00260633)
(0.483892 -0.00361907 -0.00112986)
(0.241693 0.209184 0.0132282)
(0.587326 0.00213208 -0.00154385)
(0.559956 0.000903068 -0.00129208)
(0.323278 0.262318 -0.0402927)
(0.57861 0.000923338 -0.000228265)
(0.587527 0.00188118 -0.00183413)
(0.560245 0.000541104 -0.00215339)
(0.583333 0.00241722 -0.000223872)
(0.575283 0.00638488 0.00259371)
(0.579351 0.000893183 -0.000129193)
(0.195504 0.190835 0.000262352)
(0.582965 0.00274864 -0.00035596)
(0.546081 -0.00345809 -0.0074669)
(0.223429 -0.137303 0.00511483)
(0.580151 0.00538048 0.00356327)
(0.572316 0.005138 0.00527174)
(0.581038 0.00149557 -4.95046e-05)
(0.19936 0.198897 0.000182955)
(0.562003 0.00344764 -0.00542711)
(0.199859 -0.198719 0.00062256)
(0.200034 0.20003 -0.000198364)
(0.198786 0.197431 -0.000116693)
(0.200597 0.199344 4.32698e-05)
(0.487708 0.000261695 -0.00196654)
(0.239044 0.205908 0.00870334)
(0.450357 -0.0289563 0.029746)
(0.198504 -0.198726 -5.76787e-05)
(0.199423 0.202054 -0.000407968)
(0.579801 0.00606258 0.00318078)
(0.584662 0.00124897 -0.00253964)
(0.19999 -0.199977 1.72365e-05)
(0.584172 -0.00379519 -0.000169206)
(0.200016 -0.199816 0.000662529)
(0.200254 -0.200102 -4.25442e-05)
(0.196507 -0.196624 0.000585179)
(0.592018 -0.00427552 -0.000460169)
(0.495659 0.00318221 -0.00120678)
(0.237878 0.212436 0.00357864)
(0.199643 -0.197802 0.000817301)
(0.199757 0.200449 -0.000297525)
(0.19956 0.199777 2.74628e-05)
(0.596399 0.00104013 -0.00682822)
(0.579892 0.00102786 -0.000245149)
(0.238026 0.223649 0.0104711)
(0.590552 0.00178835 -0.00335229)
(0.5497 -0.00948838 -0.0227218)
(0.199669 0.199819 -7.20686e-05)
(0.58909 0.00124857 -0.00299692)
(0.538662 0.000232769 0.00290536)
(0.571821 0.00299532 -0.00356039)
(0.200627 0.200556 1.85972e-06)
(0.199339 0.199269 9.67729e-05)
(0.569171 0.00248112 0.00318783)
(0.581781 0.0012073 -0.000295768)
(0.237616 0.215105 0.00351182)
(0.19914 0.199061 6.34361e-05)
(0.201994 0.195443 -0.000573516)
(0.578666 -0.00130482 0.000534577)
(0.199896 -0.199858 -0.000281613)
(0.199022 -0.198293 0.000171119)
(0.198669 0.198629 -4.34654e-05)
(0.588664 0.00171488 -0.00271102)
(0.51389 -0.00266634 0.000607314)
(0.200528 0.200546 2.30134e-05)
(0.224162 0.0368484 0.0424061)
(0.249123 -0.0328998 -0.0095034)
(0.567811 0.00311729 7.46597e-05)
(0.19971 0.199998 -7.96034e-05)
(0.200071 0.199726 -0.000169372)
(0.589717 -0.00684491 -0.000927102)
(0.565272 0.0103089 0.00947999)
(0.240894 0.214865 0.010994)
(0.35274 0.111062 0.00703439)
(0.555964 0.0103639 0.0170696)
(0.533418 0.00170713 -0.00357935)
(0.568661 0.000373108 -0.000374389)
(0.206264 0.193454 -0.000425559)
(0.56389 0.00130945 -0.000419272)
(0.585687 -0.00388419 0.00414814)
(0.200372 0.199754 -0.000232765)
(0.198266 -0.194917 0.000302537)
(0.198557 0.198663 3.53782e-05)
(0.199258 0.199203 -4.88892e-05)
(0.200134 0.200525 -0.000279145)
(0.200578 0.200645 -2.57361e-05)
(0.590073 0.00196133 -0.00299594)
(0.200108 -0.200013 0.00010613)
(0.199003 0.199022 2.76356e-05)
(0.198918 0.196227 -0.000228082)
(0.590632 0.00189203 -0.00335365)
(0.581611 0.00122451 -0.000273256)
(0.200817 -0.198166 -6.04725e-05)
(0.197313 -0.19523 0.000442124)
(0.595098 -0.00282892 0.00530561)
(0.565356 5.61266e-05 0.000808613)
(0.564416 0.000248395 0.000883942)
(0.199895 -0.199439 -9.31828e-05)
(0.198987 0.198957 0.000115513)
(0.5649 0.000160263 0.000806976)
(0.200306 -0.200129 2.02362e-05)
(0.559251 0.00145362 0.000216485)
(0.570057 0.00123621 0.00188624)
(0.571799 0.00164907 0.00107995)
(0.199971 -0.198503 0.000480564)
(0.200285 -0.200384 3.82985e-05)
(0.200203 -0.200379 -3.64132e-05)
(0.200239 0.200278 6.31061e-05)
(0.57784 -0.00287935 -0.00148518)
(0.199929 0.200136 6.80994e-05)
(0.198422 0.198646 6.39112e-05)
(0.576704 0.00200531 -0.00298011)
(0.200291 -0.200343 0.000108942)
(0.567686 0.000358711 0.000738914)
(0.513547 -0.00562684 0.00121677)
(0.200975 0.193879 0.00110675)
(0.580635 0.00138458 -0.000223803)
(0.269931 0.0383062 -0.00538506)
(0.57338 0.000423793 0.00045805)
(0.591233 -0.00138005 0.00132559)
(0.522959 0.00204548 0.00104627)
(0.592339 -3.30451e-05 0.00425739)
(0.429941 0.0113795 -0.0160478)
(0.239147 0.189986 0.00402385)
(0.572054 3.20707e-06 0.000447884)
(0.594968 0.00422449 -2.55155e-05)
(0.580549 -0.0013234 -0.000485001)
(0.204923 0.17754 -0.00621199)
(0.268179 0.0179105 -0.00803227)
(0.309079 -0.0303787 0.011677)
(0.572875 0.000523103 0.000235392)
(0.198831 0.199207 0.000245723)
(0.560543 -0.00104768 -0.00383988)
(0.57251 -0.000180251 -0.00102854)
(0.5556 -0.00473481 -0.0088447)
(0.214677 -0.15687 -0.0117619)
(0.200342 -0.200471 8.66909e-05)
(0.2 -0.200002 -4.92055e-06)
(0.582991 -0.00168745 7.56997e-05)
(0.234435 0.193624 -0.00251138)
(0.553536 0.00200939 0.000899158)
(0.217571 0.198068 0.00274846)
(0.549954 -0.00105118 -0.00391158)
(0.567345 -0.00135976 0.000546052)
(0.560494 -0.000838837 0.0014903)
(0.581665 0.00133107 -0.000398457)
(0.199021 0.199009 -5.07649e-05)
(0.198033 0.197417 -0.00044863)
(0.213155 -0.194693 0.000920416)
(0.580298 0.00151693 0.00012169)
(0.200389 0.199797 -1.61792e-05)
(0.231936 0.198627 -0.00905001)
(0.593786 0.0122618 -0.0102248)
(0.200118 0.199809 -0.000160045)
(0.198785 0.199721 0.000701723)
(0.198463 -0.197816 -0.000325439)
(0.200418 0.200475 4.99294e-05)
(0.554227 -0.000166387 0.00155898)
(0.203462 0.193114 0.000325839)
(0.200133 0.199972 8.46593e-05)
(0.464096 0.0618065 -0.0456484)
(0.235515 0.189588 -0.00229915)
(0.197836 0.19823 -0.00186982)
(0.284091 -0.171665 0.011415)
(0.199861 0.199632 -0.000258542)
(0.455046 0.00225431 -0.00301177)
(0.565769 -0.00103338 0.00103302)
(0.198523 -0.198566 1.11874e-06)
(0.555883 0.000724238 -0.00174571)
(0.553539 0.0889436 -0.00800987)
(0.551541 -0.00529108 -0.00886215)
(0.606055 0.0231496 0.000276461)
(0.54697 0.000420365 -0.000780807)
(0.19991 0.198204 0.000832605)
(0.571851 -0.00533293 -0.00599447)
(0.592315 -0.00160063 0.00116444)
(0.55128 -0.00536232 -0.00884993)
(0.199999 -0.200214 1.10554e-05)
(0.598289 0.152876 0.0385723)
(0.552603 0.00104543 0.00108683)
(0.267567 0.21318 -0.0131023)
(0.548934 -2.16556e-06 0.000648459)
(0.598664 0.00710437 -0.00549793)
(0.572152 0.0115983 0.000438945)
(0.567283 -0.0015754 -0.00196267)
(0.567968 0.00178956 0.000162743)
(0.603297 0.00880932 -0.00298379)
(0.582234 -0.000836584 -0.000762377)
(0.576421 -0.000572827 0.00048149)
(0.198235 0.198999 0.000710177)
(0.198969 0.197886 0.000565124)
(0.556826 0.00150032 0.000936267)
(0.547231 0.000863555 0.000739947)
(0.199533 0.20008 -1.69251e-06)
(0.565098 0.000500972 0.000105209)
(0.590952 -0.00184589 0.000576124)
(0.577313 -0.00114405 0.000418739)
(0.199412 0.197291 -8.39544e-05)
(0.569919 0.0114971 0.00236471)
(0.199226 0.199082 -1.09181e-05)
(0.576806 -0.000602827 0.000434745)
(0.577989 -0.000611085 0.000299016)
(0.199898 0.199798 -2.89685e-05)
(0.552284 0.00307072 -0.00175101)
(0.576397 -0.000348894 -4.76423e-05)
(0.567861 0.0104825 0.000557808)
(0.557724 0.000207052 0.00204175)
(0.204427 0.200448 -0.000329547)
(0.58464 -0.00173622 0.00174491)
(0.569696 0.0130386 -5.75354e-05)
(0.602348 -0.0159885 0.00345991)
(0.508084 0.00692163 0.00111089)
(0.453009 0.00143754 -0.00582854)
(0.199833 0.197661 -0.000274401)
(0.199466 0.1993 6.60017e-05)
(0.559886 0.00787716 0.00104524)
(0.200429 0.200427 -9.02061e-05)
(0.487466 -0.00136008 -0.00143098)
(0.562598 -0.0028546 -0.00408751)
(0.339819 0.0441154 -0.0134316)
(0.625565 -0.0423131 0.0167497)
(0.552618 -0.0250913 0.0078)
(0.614302 -0.0235245 0.00582969)
(0.200349 0.200366 -5.83238e-05)
(0.273512 0.232356 0.0015212)
(0.582685 0.00153055 -0.000347602)
(0.199286 -0.200195 -0.000805116)
(0.114275 -0.0814842 0.0313247)
(0.574678 -0.0107383 -0.00810231)
(0.198568 0.198157 -0.000468245)
(0.200459 0.20021 2.36863e-05)
(0.517224 -0.00988752 -0.000136483)
(0.418478 -0.0300595 0.000993287)
(0.200472 0.200502 -3.10475e-05)
(0.518007 -0.0105473 0.00199966)
(0.198522 0.198275 8.27961e-06)
(0.20003 0.200393 -0.000333442)
(0.200059 -0.200037 -5.10336e-05)
(0.200138 -0.199663 0.000477487)
(0.195959 -0.194323 0.000604)
(0.199488 -0.199077 -4.2045e-06)
(0.520478 0.0047842 -0.00175166)
(0.197569 0.196048 -0.000148267)
(0.199999 0.200131 8.11433e-05)
(0.198319 0.1995 0.000473248)
(0.484839 -0.108433 -0.0279023)
(0.548573 -0.00492814 -0.0107418)
(0.530494 -2.4454e-05 -0.00490483)
(0.582699 0.0014701 -0.000397319)
(0.198599 0.197391 5.5546e-05)
(0.201083 0.200335 2.02548e-05)