/*--------------------------------*- C++ -*----------------------------------*\
  =========                 |
  \\      /  F ield         | OpenFOAM: The Open Source CFD Toolbox
   \\    /   O peration     | Website:  https://openfoam.org
    \\  /    A nd           | Version:  10
     \\/     M anipulation  |
\*---------------------------------------------------------------------------*/
FoamFile
{
    format      ascii;
    class       surfaceScalarField;
    location    "8.8";
    object      phi;
}
// * * * * * * * * * * * * * * * * * * * * * * * * * * * * * * * * * * * * * //

dimensions      [0 3 -1 0 0 0 0];

internalField   nonuniform List<scalar> 
214403
(
-0.00678987
0.00520602
0.000287576
0.00129628
-0.00337001
-0.0113269
0.000965116
0.0137317
-0.0103371
6.90026e-05
-0.000140988
0.0104091
0.00893622
-0.00600875
-0.0149779
0.0120504
0.0123975
-0.0156764
0.00373453
-0.000455555
-0.00544285
0.00566893
-5.50877e-05
-0.00017099
-0.000860125
-0.00163507
-0.00930975
0.0118049
-0.0171675
0.00976662
-0.00257891
0.00997975
-0.0235092
0.0165942
0.0167518
-0.00983672
0.0143345
0.00170093
-0.0160162
-1.92256e-05
0.00508266
-0.0100684
0.0020707
0.00291508
-0.0104376
0.00328475
0.00540767
0.00174523
0.000481888
-0.0115484
0.0139073
-0.00284075
-0.010042
0.0101081
-6.60744e-05
0.00193657
0.0120412
-0.0154346
0.00145679
-0.0121634
0.0101722
0.00308245
-0.00109131
-0.0122354
0.0119395
0.000295921
0.0039602
-4.92863e-06
-0.00102382
-0.00293145
0.0158323
-0.00947589
-0.0210507
0.0146943
-7.63558e-05
-0.00312928
9.17447e-05
0.00311389
0.00645441
-0.00630297
-0.000151448
-0.0124933
-0.00432194
0.00429744
0.0125178
-0.0023068
0.0137684
-0.0110978
-0.000363828
0.00679151
0.000715026
0.00237035
-0.00987688
-0.0103397
-0.004964
0.0133844
0.00191931
0.00927094
-0.0117428
7.02408e-05
0.0024016
0.0032616
-0.00285259
0.0106729
-0.011082
0.00770588
0.0100811
-0.0121427
-0.00564432
0.0112844
-0.00707794
-0.000321256
-0.00388519
-0.00591092
0.0060255
-0.000114581
0.00246283
-0.00512718
0.0136669
-0.0110025
0.014272
0.000676315
-0.00249186
-0.0124565
-0.00567007
-0.00581886
0.00595912
0.00552981
-0.0012136
-0.00684558
0.00606425
0.00199493
0.00447374
-0.00311258
-0.00953032
0.00816917
-0.00173239
0.00864206
-0.00312215
-0.00378752
0.0161798
-0.000391117
-0.0157887
-0.00696795
0.0135897
-0.00662178
0.0012616
-0.0149192
0.00863396
0.0050236
0.00248024
-0.000996974
0.00607115
-0.00755442
0.00577755
-6.10661e-05
-0.00571648
0.0103444
-0.000223301
0.00183539
-0.0119564
-0.0131215
0.00164755
0.0139542
0.00086981
0.000893849
0.00870999
-0.0104737
-0.00415037
-0.0271435
0.0263203
0.00497362
0.00575096
0.00103834
0.00129988
-0.00808918
0.00428138
0.00324106
-0.0104603
0.00293787
0.0134969
0.00808979
-0.0147952
0.00122051
0.011449
-0.0023252
0.00183511
-0.00687043
-0.00404291
0.00907824
0.00312697
0.00480601
0.00143004
-0.00936302
0.00187388
-0.00140687
-0.00433739
0.00387038
0.00692218
-0.012529
0.00873375
0.0120208
-0.0113168
-0.00388343
0.00317952
0.0107189
-0.00196157
-0.00868302
0.011773
-0.000500488
-0.00258946
0.00894202
-0.0114333
0.000131104
0.00236015
-0.00839232
0.000554399
0.0134111
-0.00557315
-0.0154826
-0.0145455
0.0122176
0.0178105
-0.00828032
0.00833046
0.00163896
-0.0016891
0.00130594
-0.0105832
-0.00864042
-0.000179855
0.00449147
0.00432881
-0.0135478
0.00581681
0.00876546
-0.0010345
0.0158923
-0.0128019
0.000820957
-0.00391138
0.000731291
0.000265887
-0.0104902
0.00949298
0.000524564
-0.00287844
0.014234
-0.0118802
-0.0351475
0.00365058
0.00389994
0.027597
-0.00324673
0.00956484
-0.00303467
-0.00328344
0.004698
-0.00247454
-0.010022
0.00779854
0.00112579
0.00700003
-0.00889924
0.000773419
-0.000175305
0.00858987
0.00298929
-0.0114038
-0.00170585
-0.000269902
-0.00355105
0.0055268
-0.00907983
0.00992666
-0.00037828
-0.000468555
0.000318532
-0.0091683
-0.00641429
0.0056813
0.00172456
-0.000991562
-0.0170953
-0.00107906
0.00834323
0.00983112
-0.00518341
-0.00220912
0.00441022
0.00298232
0.00759988
-0.0254891
0.00353436
0.0143548
-0.0039816
0.00801338
-0.00437631
0.000344537
0.00571927
-0.00443936
0.000566625
-0.00184653
0.000128379
-0.010715
0.0105866
3.2449e-05
0.00870038
-0.00873283
0.00769067
-0.00150536
0.00101988
-0.0072052
-0.00458242
0.00653818
0.00216703
-0.00412279
-0.00324137
0.0138052
-0.00331707
-0.00724678
0.00651498
-0.0111013
-0.000423982
0.0050103
0.00745645
0.0078943
-0.0153507
0.0109973
-0.0123587
0.00316696
-0.0018056
0.00106753
-0.00198409
0.0143574
-0.0134409
0.000412141
-0.00232198
0.0103419
-0.00843204
0.00245165
0.0216435
0.00623774
-0.0303329
-0.0189268
0.0166525
0.0107927
-0.00851849
0.000869963
0.00666618
-0.0089636
0.00142746
0.00881582
0.00980411
-0.00320954
-0.0154104
0.0164069
-0.00996686
-0.00032859
-0.00611148
0.000714906
-0.00209577
-0.00658052
0.00796138
-0.00665994
3.79339e-05
0.00662201
0.00996595
0.000344492
0.000686859
0.0123825
0.00105141
-0.0188228
0.00538884
-0.00992907
0.00219329
0.00176426
0.00597152
-0.00628469
0.00155844
0.000772751
0.0039535
0.00154552
0.00110527
-0.0131055
0.0104547
-0.00269318
-0.0156736
0.00999287
0.00837395
0.00626744
-0.00741429
-0.0048315
0.00597835
0.0101322
-0.000110466
-0.0101323
0.000110483
0.00777738
-0.0109907
-0.00381764
0.00703097
0.0201231
-0.0060887
-0.00313608
-0.0108983
0.0113872
-1.88713e-05
-0.010475
-0.000893387
-0.00573453
0.00675424
0.0140757
-0.0150954
0.0122986
-0.00431924
-0.0118267
0.0038474
0.0022621
-0.00330803
0.0143916
-0.0133457
-0.0162589
0.0148188
0.0140476
-0.0126075
0.000732292
-0.0126566
0.00488531
0.00703901
0.01584
-0.000839843
-0.000322011
-0.0146781
0.011141
-0.00217141
0.00215374
-0.0111233
-0.0129369
-0.0117644
0.0139242
0.0107771
-0.00245004
0.00702814
0.00190467
-0.00648277
-0.00554737
0.000302368
0.010752
-0.00550698
-0.00123412
0.0139085
-0.0129454
0.000271007
-0.0119616
0.0111092
0.00216297
-0.00131057
-0.000401813
-0.00698126
0.016654
0.00221762
-0.00739422
-0.0054012
0.0105778
-0.00587165
7.70957e-05
0.00579455
0.00180009
0.00818563
-0.00757203
-0.00241369
0.0130267
-0.00751059
-0.00199543
-0.00352066
8.51169e-05
-0.00382223
0.00373711
-0.00735626
-0.00198176
0.00276214
0.00657588
0.000755715
0.00416171
-0.00933863
0.0044212
0.0159039
-0.00143592
0.00621594
-0.020684
0.00114568
-0.00140241
-0.0193326
0.0195893
0.00124724
-0.00552539
-0.00731054
0.0115887
0.000467946
0.0100591
-0.000561077
4.03303e-05
-0.00590342
0.00586309
0.0122704
-0.00455015
-0.00550267
-0.00743985
0.00621516
-0.00613158
0.0135266
-0.0112575
-0.00136355
-0.000905532
0.00135802
-0.0064221
0.00280778
0.0022563
-0.0110428
-0.00334201
0.00224414
0.0121407
0.00918736
-0.0149285
0.00983615
-0.00409501
-0.000409236
0.0134807
-0.0134997
0.0004282
-4.39292e-05
0.0122768
-0.0121642
-6.86671e-05
-0.0171585
0.0136936
-0.0109917
0.0144566
0.0143143
-0.0138533
-0.000460983
-0.0131119
0.0175631
-0.00321166
-0.00123955
-0.0117176
0.00281705
-0.000881821
0.00978236
-0.0193242
0.00148916
0.0124248
0.00541025
0.00343908
-0.00469644
0.00261538
-0.00471973
0.00536633
0.00863306
-0.00927967
-0.00514852
-0.00231059
0.00294635
0.00451276
-0.00695688
0.00455214
-0.00879408
0.0111988
0.00209431
0.000167974
-0.0153742
-0.00683976
0.00682566
1.41072e-05
0.00749872
-0.00720856
-0.000290167
-0.0113203
-0.00074022
-0.00301305
0.00279559
-0.0148997
0.0173543
-0.00525014
0.00671155
0.01155
-0.0146881
-0.00357345
0.0128222
-0.0139268
0.000373875
0.000730702
0.00682737
0.00177504
-0.00705763
-0.00154478
-0.0107943
-0.000600141
0.0141901
0.00619717
-0.000448066
-0.0075546
0.00180549
0.00698324
-0.00597906
0.00688761
-0.00789179
-0.012209
0.00229286
0.0166277
-0.0041228
-0.00578606
0.0191023
-0.00919342
-0.00588973
-0.00648375
0.00157915
0.00175876
0.00465243
-0.0123009
-0.00832371
-0.000733943
0.0133753
-0.00431763
0.00129786
0.00204667
0.00744022
-0.0107848
-0.00397231
0.00972381
-0.0057515
0.00315216
-0.0150747
0.00543878
0.00898081
0.00627306
-0.0134951
-0.0127188
0.000153004
0.0158495
-0.0032837
0.00214157
0.00183474
0.00573465
-0.00971095
0.00852749
-0.0085908
6.33112e-05
0.0032197
-0.00121551
0.0108082
-0.0128124
0.0113083
-0.00358554
0.00543782
-0.0131606
0.0207738
-0.00667846
0.0155027
-0.0295981
0.00340624
0.00633728
-0.00263258
-0.00711094
-0.00937803
0.00385881
0.00491852
0.000600695
0.00672002
-0.00506327
-0.00013847
-0.00151828
-0.00437685
-0.00555159
0.0161646
-0.00623611
-0.00753264
0.00977008
0.00390362
-0.00614106
0.0113352
-0.000619733
-0.00373224
-0.0176585
0.0116712
-0.000969629
-0.0168409
0.0155373
0.007215
-0.00591143
0.0107419
-0.0121062
-0.00174685
0.00311116
0.00606482
-0.0109568
-0.00573969
-0.00624864
-0.00573434
0.00324052
0.00874246
-0.00892016
0.00276967
0.00880426
-0.00265377
0.0103027
-0.00980179
-0.00674777
0.00624685
6.44212e-05
-8.93643e-05
-0.00964851
0.00967345
0.00023287
-0.00849074
-0.000322584
0.00858045
-0.00243995
-0.0144707
0.00227223
-0.00836348
0.00752317
-0.00143192
-0.00570686
-0.00240578
-0.000807519
-0.000194498
0.0143249
0.000204072
-0.0341868
0.0240472
0.0173783
-0.00723871
-0.0100996
0.000686445
0.000367265
0.00904586
-0.00201115
0.0320134
-0.0376682
0.00766595
0.00159369
0.00245822
-0.00551629
0.00146438
-0.0216262
0.0116548
0.0015067
0.00846471
-0.000256044
-0.0143623
-0.00204295
0.0166613
-0.00600179
0.0216594
-0.0149902
-0.000667385
0.00971437
0.0141208
-0.0130515
-0.0107837
-0.0115928
0.0110396
0.0137126
-0.0131594
0.00448375
0.00626541
-0.00780402
-0.00294515
0.00447267
-0.00301765
-0.00716188
-0.0230328
-0.000905852
0.0188185
0.00512019
0.00674952
0.00103067
-0.00392137
0.0069478
0.00930115
-0.0085881
-0.00766085
-0.0114989
0.00256165
0.0112162
-0.00227895
0.0013687
0.00361009
0.0125843
-0.0133464
0.0131799
0.00127741
-0.00111098
0.00823312
0.00645547
-0.00581866
-0.000230488
-0.00163702
0.00768617
-0.00882345
-0.00175326
0.00490692
-0.0170286
0.00724311
0.00487859
0.000518402
0.00917756
-0.0101842
0.000488264
-0.00354056
0.000684685
-0.00329201
0.00614789
0.0141997
-0.0101496
0.000422584
-0.00804287
-0.00629159
0.00846374
0.00587073
0.0304028
-0.0325237
0.0106227
-0.00850187
-0.00582343
0.00723599
0.00291484
-0.0043274
-0.0133304
0.00579542
0.0116232
-0.00408821
-0.00578357
0.00839525
0.010797
-0.0134087
0.0162314
-0.00628106
-0.0107462
0.000795834
0.000282885
-0.00394959
0.00960802
-0.00594132
-0.00167015
0.00165688
-0.0127056
0.0116454
0.00378625
-0.0124662
-0.00296543
0.0146277
-0.0119979
-0.00322992
0.00308002
0.00455725
-0.0107728
0.00313549
-0.00599524
-0.0110038
0.00977096
0.00722803
-0.00183462
-0.0047633
-0.00144495
0.00597624
-0.00638575
0.0137598
-0.0133503
0.00144813
-0.0166657
0.0152176
0.00568381
-0.00743025
0.00482646
0.00307237
0.00177164
0.00251911
-0.00736312
-0.000310673
-0.0138776
0.0141883
-0.00755849
0.00100401
-0.00245263
0.00900711
-0.000907636
0.0105061
-0.00957639
-2.21062e-05
-0.00713721
-0.00377733
0.00412124
0.0067933
-0.0026612
-0.00631063
-0.00586141
-0.00861536
0.00718585
0.00729091
0.000316444
-0.00883906
0.0152662
-0.0062771
-0.000812665
-0.00817641
0.00807767
-0.000770675
-0.00589338
-0.00141362
-0.00129203
0.0113899
-0.0142236
0.00412568
0.00735952
0.000283151
0.00358268
-0.0112254
-0.000270037
-0.00605023
0.00291959
0.00340068
-0.00418162
0.00544179
0.0105201
-0.0117803
-0.0148108
-0.00384309
-0.00414626
0.0136732
-0.0126522
0.000298141
0.00397043
0.00838365
0.00121828
-0.00448921
-0.00799612
0.011267
-0.00579577
-0.0113133
0.0028546
0.0142544
-0.00530198
-0.00588492
0.00611895
0.00506795
-0.0137052
0.0131915
0.0139196
-0.013406
-0.00185444
-0.00323658
-0.00974743
0.0148385
-0.0133464
0.00136341
0.0135832
-0.00160024
-0.00231896
0.00623399
-0.00391503
-0.0054083
0.00999702
-0.00752599
0.00293727
-0.000235627
0.0179937
-0.00667845
-0.0110796
-0.00643679
-0.00311049
0.0129205
-0.00337325
0.00207696
-0.00544794
0.0123628
-0.00899177
0.000565051
0.00801245
-0.00140373
-3.69685e-05
-0.0131714
0.0131615
4.68266e-05
0.0149886
-0.00265426
-0.0219075
0.00957315
-0.013842
-0.00135649
0.0172828
-0.00208436
-0.00751256
0.01135
0.000931789
-0.0047692
0.00669599
-0.00661287
-8.31192e-05
-0.00801788
0.000772964
-0.0069191
0.014164
-0.0115724
0.0159476
-0.00332494
-0.00105023
0.00721217
-0.00302498
-0.00869621
0.00450901
-0.0139378
0.0140635
-0.000125734
0.0114841
-0.0166996
0.00135088
0.0038647
-0.0130119
-0.00356229
0.0222517
-0.00567755
0.00959927
-0.000399768
-0.00201644
-0.00718307
-0.00547294
-0.00928051
0.0207297
-0.000976223
-0.013698
0.00828849
0.0215878
-0.024085
-0.0022855
0.00478269
0.00575827
0.00274537
-0.00636207
-0.00603092
0.00628899
-0.000258075
-0.00246373
0.0137644
-0.000873739
-0.0104269
-0.00299683
0.00355463
0.0119553
-0.0125131
0.00781023
0.0183272
-0.0107243
-0.0154131
0.0133798
-0.0160529
0.00510331
-0.00243018
0.0121887
0.000170622
-0.0123594
0.000225777
0.0118628
-0.0120886
0.0133735
-0.016188
0.0142986
0.000145407
-0.000122857
0.0104023
-0.0104248
0.000273809
0.0189552
-0.0188876
-0.000341427
-0.0016203
-0.00479146
-0.00969697
0.0161087
-0.0059318
-0.00355566
0.00119122
0.0112209
-0.0195285
0.00711636
-0.00949046
-0.00248853
0.0101752
0.00180381
-0.011177
0.0123425
-0.00329686
0.00213128
0.00176569
0.00920039
-0.00312973
-0.00783635
-0.00446977
0.00111435
0.00757249
-0.00421707
-1.19905e-05
0.00341081
-0.00427425
0.000875428
-0.00476853
0.011659
-0.0067204
-0.000170064
0.00348636
-0.0109988
-0.00642538
7.79809e-05
-0.0102575
0.0101796
-0.00380061
-0.00364673
0.00169134
0.005756
0.00574205
-0.0033126
-0.00242945
0.0143484
-0.0142504
-0.0029065
0.00280847
-0.00130248
-0.00847454
0.00781455
0.00196247
-3.55883e-05
4.78013e-05
0.00767337
-0.00768558
0.0038276
-0.00314572
-0.0121784
0.0114965
0.00883387
-0.000222163
-0.0086117
-0.0129408
-0.00837944
0.012488
0.00883227
0.00758596
0.0118884
-0.0204505
0.00720299
-0.00259186
0.00405529
-0.00866643
-0.00288346
0.0028606
-0.0158663
0.0158892
0.00449722
-0.00885582
-0.00861877
0.0129774
-0.000909442
-0.00203833
0.00960244
-0.00665466
0.00669807
-0.00823237
0.00298323
-0.00144893
0.00365236
-0.00605395
-0.00585147
0.00825306
-0.0117995
0.0132869
-0.00353955
0.0020521
0.0134405
0.0172573
-0.019013
-0.0116848
-0.0103894
0.0103451
4.42573e-05
-0.00116391
0.0122769
-0.0153354
0.00422233
0.000476968
-0.000780096
-0.0117898
0.0120929
0.011622
0.000487687
-0.0133721
0.00126245
-0.00494067
-0.00835134
0.0105025
0.00278952
-0.0119394
0.016916
-0.00598958
0.00101299
-0.00494126
-0.00603589
0.00358292
-0.000733494
-0.000124868
-0.00849529
0.00935366
-0.0277533
0.000113334
0.00249032
0.0251496
0.00109979
-0.00706735
-0.00365787
0.00962544
0.0173312
-0.0014243
-0.00561005
-0.0102968
-0.00309515
-0.00667987
0.00130174
0.00847328
0.00485841
-1.93343e-05
-0.00483907
0.00813982
0.00433791
-0.00269992
-0.00977781
0.00630599
-0.00499407
0.0124397
-0.0137516
0.000409382
0.0129407
-0.0042766
-0.00907345
0.00314146
0.00448363
0.00970609
-0.00621158
0.000438469
0.00577312
-0.0080633
0.00114029
0.00213991
0.00135317
-0.0111579
0.00766478
-0.0105384
0.01542
0.00467062
0.0159344
-0.00337614
-0.0172289
-0.0101152
0.00993472
-0.0157219
0.0159024
-0.00152193
-0.00763228
0.00266961
0.00648461
-0.00841039
0.0158668
0.00470933
-0.00548192
0.00122669
-0.000454095
-0.00519558
-0.016572
0.00518722
0.0165803
0.0108882
-0.0108663
-9.87518e-05
7.68702e-05
0.00880578
-0.0102776
0.00219252
-0.000720732
0.00225953
0.00883926
-0.0157459
0.00464707
3.76882e-05
0.00760645
-0.00764414
0.00492371
-0.0126188
0.00995459
-0.00475965
0.0127784
0.0107638
-0.0187825
0.00363556
-0.00369783
-0.0172039
0.0172661
-0.00518454
0.00858883
-0.0172274
0.0138231
-0.0123516
0.00983457
0.0128959
-0.0103788
-0.00775469
0.0106242
-0.00686423
0.0039947
-0.00162699
0.00708852
0.0011532
-0.00661473
0.00361052
-0.00526432
0.00542891
-0.00377511
0.00677805
0.00252198
0.00222941
-0.0115294
0.0193533
-0.0131402
-0.000790446
-0.0054226
-1.06248e-05
-0.00938312
0.00939375
0.0058772
-0.0085942
-0.0263528
0.0290698
-0.00117999
-0.0127753
-0.00387307
0.0178283
-0.000777905
-0.00589077
0.00666867
0.00179051
0.00849293
-0.00134106
-0.00894238
-0.00237649
-0.0085779
0.0069226
0.00403179
0.00660295
-0.00552989
-0.00971349
0.0168859
-0.0131422
0.00370669
0.00392751
-0.0076342
0.0127362
-0.000340662
-0.0015308
-0.0108647
-0.00244213
-0.00415371
0.00659583
0.00456642
0.00303417
0.0254857
-0.0306516
-0.0108279
0.0159937
0.00392234
0.00835605
-0.00639115
-0.00588724
-0.00892326
0.0170816
0.0113552
-0.0195135
0.0100515
0.00348869
-0.00134577
-0.0121944
0.0166706
-0.0111158
0.00717333
-0.0127281
-0.00931558
0.00425935
-0.0116768
0.0167331
-0.0151748
0.0271972
-0.0106604
-0.00136198
-0.000400733
-0.00651215
-0.00897419
0.0158871
0.0123214
0.00509021
-0.0144583
-0.00295329
0.00658978
-0.0175687
0.0110901
-0.000111159
-0.0155432
-0.000592161
0.0101704
0.00596494
-0.0031182
0.0080613
0.00350558
-0.00844868
-0.00197699
0.00792801
0.00637724
-0.0123283
-0.0161885
0.00832807
-0.000789649
0.00865003
0.00148942
-0.0044257
0.00879208
-0.0058558
0.00685117
-0.00344643
0.00244546
-0.00585019
0.00664826
0.00127878
0.000654264
-0.00858131
-0.0098523
0.0105709
0.00391528
-0.00463387
-0.00232702
0.0124571
0.000253177
-0.0103833
0.0100491
-0.00590011
-0.003897
-0.000252031
0.00871228
6.75694e-05
-0.00877985
0.00636898
0.00493149
-0.00111831
-0.0101822
0.00296924
0.00783648
0.00670755
-0.0175133
-1.73632e-05
-0.0140873
0.0141047
-0.00735455
0.02845
-0.00414593
-0.0169495
-0.000135224
0.0106014
-0.0104662
-0.000710264
-0.00765341
0.00137461
0.00698907
-0.013833
0.00704761
0.00535145
0.00143394
0.00282285
0.00234872
-0.0161758
0.0110043
0.00827683
0.0130744
-0.00488647
-0.0164647
0.0124402
-0.00426218
-0.0119072
0.00372918
-0.0155555
0.00886961
0.0237087
-0.0170229
-3.94158e-05
0.00593794
-0.00593814
3.96204e-05
-0.00614355
0.00607944
6.41074e-05
-0.0158219
0.000244558
0.00665411
0.00176665
0.00382052
0.0104568
-0.016044
0.00827154
-0.00983808
0.00634518
-0.00477864
-0.00787569
0.00689779
-0.000261547
0.00123945
-0.00165605
-0.0129767
0.0166219
-0.00198914
-0.00579983
0.00279285
0.00918311
-0.00617612
0.0100818
-0.00388621
0.00148781
-0.00768337
-0.0067149
-0.00117066
0.00786066
2.49024e-05
-0.00114756
-6.15919e-05
0.0109004
-0.00969122
0.00139451
-0.00117151
0.0109502
-0.0111732
-0.00984919
0.0137654
-0.0144229
0.0105067
6.7811e-05
-0.0124169
0.0123491
-0.00442033
0.000388002
0.011144
-0.00711165
-0.00850375
0.00994181
-0.013558
0.01212
-0.00871179
0.000659439
0.00265116
-0.00402531
0.0109069
0.000605999
-0.00748761
-0.00291024
0.000406721
-0.00493633
-0.00429289
-0.013947
0.0140103
0.00422961
-0.00621309
-0.000728051
-0.00156125
0.00850239
-0.0212928
0.00719748
0.00209771
0.0119976
-0.00675341
0.0154382
-0.00766612
-0.0010187
0.00471275
0.00184766
-0.00947065
0.00927865
0.009462
-0.0187406
0.00124068
0.0203501
-0.00471002
-0.0168807
-0.000257794
-0.000360091
-0.00894885
0.00956674
-0.00976516
0.0160883
-0.00648516
0.00016205
0.00927186
-0.00585556
-0.008403
0.0049867
0.00230704
-0.000309364
0.00282405
0.0142444
0.00398485
-0.0206124
0.00238316
-0.00986181
-0.00128736
0.00323433
0.00791484
0.00374446
-0.00415092
-0.00562943
0.0171682
-0.0115486
0.00897305
-0.0145927
-0.00189887
0.0110841
-0.0191706
0.00998543
0.00666181
-0.00841849
-0.000853143
0.00260982
-0.00738253
-0.00256891
-0.000249345
0.0102008
-0.00549344
-0.00519524
0.0106887
0.00137893
-0.014738
0.0130715
0.000287621
0.00565394
-0.00545156
-0.00569582
-0.00922456
0.0117062
-0.00223014
-0.000251491
0.013207
0.00363492
-0.014231
-0.0026109
-0.00510201
-0.00746063
-0.000856474
0.0134191
0.00834821
-0.00254003
0.00968052
-0.0154887
-0.00932422
-0.00052497
-0.0111753
0.00598009
0.00144193
-0.0125441
0.00401363
0.00708855
0.00363751
-0.0130244
0.0071738
0.00221308
0.00194663
0.000511205
-0.00976642
0.00730858
0.00149928
0.00640572
-0.000430815
0.0109499
-0.00216372
-0.00835539
-0.00429876
-0.000436418
-0.00401887
0.00875404
-0.00254196
-0.00342419
0.00654706
-0.00058092
-0.0101942
-0.000145531
-0.0172464
0.00619119
0.0090782
0.0245062
-0.00019897
0.00333999
-0.0276472
-0.0107149
0.0166509
0.00337507
-0.00931108
-0.00305499
0.0016753
0.0105507
-0.00917096
0.00128178
0.00363841
-0.00281493
-0.00210527
-0.0184308
-0.00380296
0.0159064
0.00632738
0.000402117
0.00775726
-0.00155642
0.00023754
0.00391954
-0.0122988
0.00814176
-0.00763003
-2.69777e-05
0.0028136
0.00484341
-0.010402
0.012855
-0.00205085
0.00586988
-0.00529309
-0.000576791
-0.00868812
0.00125242
-0.00674876
0.0141845
-0.0039138
0.00588964
-0.0045395
0.00256366
-0.0084249
0.00948738
-0.00392059
0.00285812
0.00380324
-0.000623821
-0.00904348
0.00586405
-0.00376781
0.0236175
-0.031789
-0.00345165
-0.00240898
0.00235874
0.0035019
0.0112572
-0.0175722
-0.000797982
0.00711294
-0.00476692
0.00355735
0.00613018
-0.00492061
-0.00141219
0.00752921
-0.0020768
-0.00404022
-0.00847406
0.00187997
0.00198063
0.00461345
-0.00469616
0.000403574
0.00429258
0.0108989
-0.00518982
-0.00552994
-0.000179165
0.00079385
0.00540876
-0.00820966
0.00200706
-0.00583501
-0.00707349
0.00721284
0.00569566
-0.00300808
0.00776463
-0.00666019
0.00190365
0.00281857
-0.00533587
0.00367772
-0.00116042
0.0101875
0.00027694
-0.0104644
0.00877465
-0.0108035
0.00534601
-0.00331718
-0.0137742
-0.000405626
0.0141799
0.00568931
-0.00471959
0.00110024
-0.00206996
-0.000447878
0.00976464
-0.0106575
0.00134075
-0.00491115
0.00614834
0.00158138
-0.00541793
0.0116082
0.0107257
-0.00926679
0.00918643
8.03634e-05
0.000255301
-0.0146489
0.0143936
0.0197851
0.00239221
-0.00422037
-0.0179569
0.00413039
-0.0161197
-0.00199728
0.0139866
0.00314853
0.00372368
0.00208997
-0.00896217
-0.00554489
-0.00555295
7.49615e-05
0.0110229
-0.00264595
0.00363589
-0.00653483
-0.0122033
0.00220378
0.0160192
-0.00601962
-0.0239495
0.0175395
0.00771973
-0.00130968
0.0105922
9.18794e-05
-0.0106841
-0.0059966
-0.00806813
0.00521849
0.00884624
-0.00604438
-0.00877863
0.00261966
-0.00871637
0.00473595
0.0054797
0.00353305
-0.00459481
-0.00843188
0.00949364
-0.00596898
4.02464e-06
0.00596496
-0.0138788
0.00564251
0.00572899
0.00250731
0.00351523
-0.00939665
-0.00283494
0.0119276
-0.00378282
-0.000301242
-0.00784355
-0.00800176
0.0132586
0.0078704
-0.0131272
-0.00234255
-0.00492111
0.0018047
0.00545896
-0.00338692
-0.00272409
0.00611101
-0.00588932
-0.0123789
-0.0056813
0.00275693
3.54414e-05
0.00556266
-0.00835503
0.0113349
-0.00825506
-0.0119379
0.00885803
-0.00420552
0.00149882
0.0084981
-0.0057914
0.00799843
-0.00563081
-0.000793006
-0.00157461
-0.00917179
0.00148881
0.00716418
0.000518793
-0.00568361
0.0130603
-0.0141437
0.00551445
0.000409233
0.00822005
0.013238
-0.0105721
-0.00832779
0.00566189
-0.0105232
0.00219137
0.0196667
-0.0102543
-0.00675997
0.0110359
0.00597831
-0.00119793
0.0106806
-0.00405155
-0.00543116
0.000605077
-0.00626001
-0.00412934
0.00978427
0.0121594
-0.00802157
-0.000493398
-0.00364442
0.00374619
0.00279853
-0.00919067
-0.00255595
0.00289392
0.00713689
-0.00747486
-0.00211318
0.0110482
-0.0136181
0.00468305
-0.00660454
0.00159293
0.00159879
0.00341282
-0.0145247
0.0147755
-0.000250828
0.00999229
-0.0098476
-0.000144695
0.00401953
-0.0155276
-0.00596198
0.0174701
0.00356501
0.00678146
0.00158114
-0.000171533
0.00594324
-0.0057717
0.00948355
0.00850043
-0.017984
-0.0105783
0.00645783
0.0045646
-0.000444088
-0.00594102
0.00195763
0.00483012
-0.000846728
-0.0177143
0.00826691
0.00971553
-0.000268125
-0.00575792
-0.00641976
0.0062087
0.00908295
-0.00142943
-0.00585505
-0.00179848
-0.00981567
0.0106035
-0.00647149
0.00172901
-0.010971
-0.000560857
0.0098028
-1.24571e-05
-0.0053668
0.00537926
0.026487
0.000213429
0.00281435
-0.0295148
-0.000992651
-0.00194186
-0.0143048
0.0172393
0.00460436
-0.00623396
-0.00290762
0.00453721
0.00178333
0.0136968
-0.0055358
-0.00994435
0.0149437
-0.0149521
-3.5647e-05
4.40578e-05
-0.00838198
-0.00756292
0.0118209
0.00412404
0.00489388
0.00374664
-0.00975464
0.00111412
6.83369e-05
0.00907012
-0.00926854
0.000130084
-0.0124864
0.00399824
0.0101196
-0.00163146
0.00961865
0.00581506
-0.00973768
-0.00569603
0.000226318
-0.00853996
0.00434151
-0.0022245
0.0128267
-0.00692618
-0.00090199
-0.00108112
0.00890929
-0.0115131
0.000605476
0.0109076
0.0168744
0.00729241
-0.00547074
-0.0186961
-0.0110183
0.00023644
0.0110082
-0.00101184
-0.00263404
-0.00672535
0.0103712
-0.00134695
-0.00132121
-0.00354446
0.00621262
0.00277729
-0.0140887
0.0106223
0.000689176
0.00874881
-0.00136509
-0.00851266
0.00112894
-0.01085
0.00227791
0.000887312
0.00768474
-0.00411868
0.00269152
-0.00555199
0.00697915
0.00237314
0.00150374
-0.0139712
0.0100943
0.000488233
-0.00946195
-0.000659234
0.00963295
0.00939125
0.00122855
-0.000158366
-0.0104614
-0.0112042
0.00261069
0.010139
-0.00804519
-0.010683
0.0187281
0.0155388
-0.00792787
0.00334065
-0.0109516
0.00121969
0.00873939
-0.00535471
-0.0125503
0.00231626
0.00444305
0.00579103
0.0154845
-0.0159429
0.00045841
-0.00934139
-0.00317161
0.00653877
0.00597424
-0.0121446
-0.00943485
0.00632442
0.015255
0.0127047
-0.0132689
-0.00162361
0.00218786
-0.00184787
0.00616472
-0.00485883
0.000541994
-0.0158655
0.0051726
0.00364444
0.0070485
-0.0233817
0.0290977
0.00481544
-0.0105314
0.0104106
-0.0225954
-0.00114921
0.013334
-0.0092744
0.0117856
-0.0218273
0.0193162
-0.00975155
0.0214915
0.00213378
-0.0138738
0.000856057
0.0101745
-0.00237344
-0.00865714
0.0154663
-0.0116005
-0.000389724
-0.00347614
-0.00272394
-0.00261643
0.00399812
0.00134225
-0.00734638
-0.0152688
0.013007
0.00960819
-0.0103737
0.0138189
0.0120212
0.00840317
-0.00617761
-0.00769849
0.00547293
0.00312599
-0.00404492
-0.0017866
0.00270553
0.00691633
-0.00683898
-0.0091161
0.00903875
-0.00280535
0.00804754
-0.000582307
-0.00465988
-0.0111202
-0.00177133
0.0137476
-0.0084086
-0.00206758
0.0103956
8.05791e-05
0.00341782
-0.00763592
0.00421809
0.00273466
-0.00363212
0.013536
-0.0126385
0.0105524
-0.0148374
0.0021476
0.00213737
0.00672298
-0.00725444
0.000531456
-0.0106572
0.000283517
0.00955957
-0.00363985
-0.00922204
0.00330232
0.00299371
0.00243084
0.0106579
-0.0160824
0.00655159
-0.00711378
0.000562191
-8.1709e-05
0.00831012
-0.00939469
0.00116629
-0.0117106
-0.00112948
0.0155747
-0.00506666
-0.000866611
0.00117074
0.00476253
0.000700087
-0.00578546
0.00426746
0.000817911
0.0094722
-0.00906647
-0.00225361
0.00108384
0.0156036
-0.00982711
-0.00686037
-0.00537815
0.0113763
-0.00599818
-0.0145425
0.00556916
-0.00341353
0.0123869
0.0114573
-0.0103783
-0.0169445
-0.00555407
-0.00664596
0.0228414
-0.0106413
-0.0163576
0.0104215
0.0148492
-0.00891315
-0.000366592
-0.0139617
0.0143283
0.0221552
4.4834e-05
-0.0127645
-0.00943546
0.0128391
-0.00826942
-0.00114227
-0.00342744
-0.0093689
0.00665364
-0.00168261
0.00439787
0.000127712
-0.0096063
0.00947858
-0.00706148
0.00726812
-0.000206638
-0.00511134
-0.00540039
-0.0138405
0.0243522
-0.0130355
0.00284347
-0.00145799
0.01165
0.00301268
0.00488889
0.0133668
-0.0120626
-0.00997565
0.00867146
-0.00371496
-0.00765712
0.00844841
0.00292368
-0.00771687
-0.00392487
0.0116525
-1.07454e-05
0.00251943
-0.00145069
-0.00713398
0.00606524
0.00851839
0.000377116
-0.0108873
0.00199176
0.00262729
-0.00182577
0.00281069
-0.00339096
0.00337839
-0.00279811
0.00696043
0.00682006
-0.00696221
-0.00681828
0.00342475
0.00799783
-0.00827479
-0.00314779
0.00727735
0.00315614
-0.00572073
0.00899912
-0.0109121
0.00229014
-0.011957
0.00835878
0.00450001
-0.000901765
0.0142378
-0.00471257
-0.0149034
-0.00379176
0.0101491
0.0050999
0.00989463
-0.00482037
-0.00833252
-0.00226937
-0.00135513
-0.0133003
0.0124454
0.00117054
-0.00031565
-0.000827
0.0166198
-0.0017211
-0.0140717
-0.0108396
0.00221062
0.00483725
-0.00174556
-0.0110236
0.00309755
0.00967166
0.00993172
0.00137699
-2.19243e-05
-0.0112868
-0.0148318
-0.000125723
0.000103394
0.0148541
-0.00380806
0.00417305
-0.00677034
0.00640535
-0.0102149
0.0129198
-0.00133436
-0.00137051
0.0134222
-0.0125338
-0.0111033
-0.00993579
0.00895753
-0.00284484
0.00382311
0.00804099
-0.000362515
-0.00252912
-0.00514935
-0.0150187
0.0144849
0.00709686
-0.00656305
0.0071012
0.00270467
-0.000901741
-0.00890413
0.0025778
0.00653186
-0.00817009
-0.000939571
-0.00483512
0.0048631
-2.79801e-05
-0.00282938
-0.00722504
0.00724907
0.0108574
-0.0107627
-9.47028e-05
-0.00615411
-0.00489527
0.00481542
-0.000645471
-0.00736176
-0.000805263
0.00881249
-0.000831407
-0.00640049
0.00572155
0.00151035
0.0101293
-0.0115133
0.00138395
-0.012889
0.0132353
0.0121066
-0.012453
-0.00868823
0.0067109
-0.00457271
0.00655004
-0.00346432
0.00148054
0.00313637
-0.0011526
-0.000366324
0.0156894
-0.000137147
-0.0151859
-0.00790643
0.00383314
0.00389343
0.00452319
0.00575648
-0.0100438
-0.000235911
0.000436036
-0.0124749
-0.000490059
-0.0113424
0.0113372
5.25772e-06
-0.00760232
0.00382753
-0.00836976
0.0025855
-0.00572204
0.000228926
0.0049604
0.0021539
0.0075229
0.000146793
-0.00643295
-0.00123674
0.00629807
-0.015714
0.0125987
-0.00318278
0.00260107
-0.00354395
0.0131797
-0.0122368
0.0161508
0.00476454
-0.00248387
-0.0184315
-0.00411773
-0.00675141
-0.00218877
0.0130579
0.00488888
0.0203729
-0.0183974
-0.00686438
0.00234789
0.0147539
-0.0142432
-0.00285863
-0.00509222
0.000671636
0.0104371
-0.00601649
-0.001783
0.0144935
-0.00782161
0.0104804
-0.00827365
-0.0032305
0.00102378
0.00343339
0.0089869
-0.0124203
0.00842419
0.00186938
-0.00112276
-0.00917081
-0.00774605
0.0061901
0.000622855
0.000933095
-0.000753365
-0.0109317
0.000637161
0.0110479
-0.00802896
-0.00101964
-0.000336532
0.00938513
0.00463248
-0.010273
0.00010193
0.0040384
0.00613263
8.83359e-05
0.00667257
-0.0067609
0.000824754
0.0116814
-0.0298545
0.0173483
0.0032865
-0.00828109
0.0078678
-0.00287321
0.00471714
0.0053847
-0.00372975
-0.00637209
4.89993e-05
-0.00598573
0.00593674
-0.00323681
-0.00229601
0.0131079
-0.00757504
-0.00399768
0.0133543
-0.0115281
0.00217155
0.01466
-0.0101859
-0.00983818
0.00536408
-0.00603127
0.0040759
0.00186746
8.79076e-05
-0.000800779
0.00459945
-0.00247153
-0.00132714
0.0157244
-0.012291
0.0073259
-0.000846584
-0.0119919
0.00551263
-0.00334497
0.0031277
0.00374736
-0.00353008
0.000190846
0.0150352
-9.55569e-05
-0.0151305
-0.0109682
-0.00361421
0.0148698
-0.000287412
-0.00311937
-0.0013284
0.00342273
0.00443524
-0.00652957
0.00887261
0.00626573
-0.0132773
-0.00186104
-0.00273282
-0.00177865
-0.0118722
0.0163837
0.015638
-0.0123684
-0.0217956
0.0185261
-0.00609792
-4.50992e-05
0.00614302