/*--------------------------------*- C++ -*----------------------------------*\
  =========                 |
  \\      /  F ield         | OpenFOAM: The Open Source CFD Toolbox
   \\    /   O peration     | Website:  https://openfoam.org
    \\  /    A nd           | Version:  10
     \\/     M anipulation  |
\*---------------------------------------------------------------------------*/
FoamFile
{
    format      ascii;
    class       volScalarField;
    location    "8.8";
    object      SgRate;
}
// * * * * * * * * * * * * * * * * * * * * * * * * * * * * * * * * * * * * * //

dimensions      [1 -1 -3 -1 0 0 0];

internalField   nonuniform List<scalar> 
111485
(
1.52626e-17
9.50242e-06
2.8714e-05
9.03075e-19
5.89941e-05
1.55819e-18
5.53469e-05
7.23551e-06
2.29954e-05
1.44193e-06
5.58773e-05
1.12313e-05
5.75336e-06
1.05089e-06
7.85124e-06
3.63802e-05
1.69063e-06
0.00312549
1.24799e-05
5.0557e-17
1.17708e-17
5.2319e-19
3.16112e-05
4.14142e-05
1.06448e-05
6.38714e-18
4.77045e-05
2.18351e-06
1.80104e-05
2.67101e-19
5.49945e-05
2.27588e-05
4.98359e-18
2.39639e-18
7.98295e-06
7.91609e-18
1.32266e-05
5.00808e-06
4.82967e-11
2.83771e-05
6.66751e-18
8.50655e-05
1.89253e-05
1.74059e-06
7.31429e-08
1.69169e-17
3.61046e-05
8.53555e-07
5.66897e-05
3.59515e-18
9.9411e-19
2.78095e-17
1.96642e-17
6.15491e-05
1.05708e-17
5.25259e-05
3.76589e-06
5.42899e-18
2.56626e-08
5.71142e-06
1.91864e-05
3.24029e-18
5.70098e-06
0.000117465
4.54799e-18
3.80017e-06
0.000379557
0.000113167
1.32498e-06
7.20888e-06
1.8026e-08
7.73583e-06
3.31531e-18
3.45583e-06
3.06621e-18
8.44109e-07
6.49547e-17
5.0115e-05
2.06475e-18
1.39462e-17
3.12581e-09
4.01101e-05
1.00966e-17
6.48148e-18
1.10664e-05
4.67473e-06
4.55648e-13
3.05372e-05
7.19835e-08
8.78921e-06
3.31011e-07
4.92681e-05
1.41371e-05
7.15817e-08
6.28761e-05
5.29146e-18
1.03227e-17
2.13507e-06
3.17134e-11
1.36673e-06
2.05011e-18
2.16238e-05
1.34798e-18
2.18589e-05
5.56163e-06
2.9099e-18
2.22034e-18
9.03731e-06
4.84668e-06
7.55048e-11
6.65681e-06
5.78012e-06
4.46407e-06
3.79022e-06
1.35092e-17
4.02539e-08
8.54927e-18
1.30367e-18
1.53917e-05
3.51123e-18
3.03788e-18
1.02989e-17
9.7493e-18
3.63119e-18
1.97068e-06
3.65906e-09
1.03773e-18
1.9902e-06
1.60742e-19
3.78023e-08
1.73105e-06
3.91735e-05
4.30431e-18
1.14139e-17
2.14946e-18
5.81794e-05
4.99757e-18
5.05979e-05
3.02829e-05
3.35396e-06
2.86503e-07
2.40036e-06
2.68209e-05
3.21778e-06
4.82155e-06
1.55186e-05
2.06902e-17
7.01709e-18
6.06707e-18
3.35584e-05
1.85977e-06
5.99628e-18
2.68381e-10
5.69972e-06
5.32191e-10
1.30288e-05
1.95378e-05
1.2888e-05
7.95191e-11
2.85344e-18
2.28081e-19
6.27827e-05
2.77665e-05
2.20284e-09
3.88874e-10
7.00801e-06
4.08873e-06
2.83289e-18
5.37899e-09
5.48902e-08
1.70653e-18
3.4651e-18
1.5852e-07
1.86651e-19
6.67452e-06
2.50935e-06
2.37239e-19
1.49143e-17
8.26804e-18
1.14885e-17
1.33786e-17
1.40602e-19
1.77041e-06
8.14664e-06
3.5627e-05
4.96301e-06
9.0442e-06
4.84595e-06
9.25763e-08
1.83376e-19
5.79437e-06
1.67699e-17
4.83063e-18
7.80877e-06
1.25026e-05
3.39575e-05
1.34743e-05
6.00467e-06
6.35449e-18
7.96966e-06
5.83599e-07
5.15542e-08
1.67982e-05
2.79128e-06
3.45597e-18
4.49168e-06
3.09564e-05
7.04954e-17
1.9441e-07
9.32492e-06
2.39254e-06
4.2862e-07
2.59383e-18
2.22685e-17
9.97047e-06
1.24226e-14
0.000144891
9.78099e-19
8.01078e-06
2.45195e-05
0.000144154
3.10267e-18
3.83313e-06
1.64601e-05
2.41469e-16
3.28285e-18
2.97792e-18
0.000181148
3.16255e-10
3.70486e-18
2.77984e-18
1.1662e-05
9.29415e-06
1.82359e-05
5.37026e-18
5.53924e-18
1.68389e-08
9.57369e-18
2.95652e-06
1.10952e-05
1.92336e-05
1.40589e-05
1.19046e-05
6.28449e-18
3.03372e-10
7.45827e-07
1.88262e-18
7.78731e-18
3.65763e-05
2.47735e-05
2.21018e-18
7.62716e-06
1.2797e-05
6.73913e-18
1.82904e-17
1.61776e-07
3.17174e-18
3.87265e-18
5.28012e-08
1.32887e-18
1.78643e-05
1.29878e-05
4.44812e-06
2.56163e-17
1.39609e-05
3.58945e-19
5.8245e-19
1.59713e-17
2.39604e-11
2.7635e-05
7.47738e-06
6.42629e-06
4.38294e-05
1.47891e-05
1.89641e-06
6.64638e-07
3.89317e-05
1.06004e-05
8.19246e-18
4.50862e-18
3.03298e-10
2.68874e-05
2.92204e-05
1.43289e-05
9.83179e-19
8.35989e-06
2.49112e-06
3.6308e-06
4.1958e-09
4.24142e-09
1.62596e-05
2.69312e-06
2.37973e-06
1.02178e-17
7.76043e-07
1.1305e-18
2.00611e-10
5.97852e-16
0.000287325
8.12044e-05
1.43849e-05
1.11007e-17
2.26565e-18
1.07033e-05
1.95457e-06
3.19468e-18
1.15176e-17
8.79761e-18
3.68592e-07
6.98421e-05
4.71101e-06
1.6338e-05
2.27456e-05
1.37613e-17
1.53723e-18
1.45203e-17
4.55961e-06
1.61256e-15
1.21387e-06
0.00022103
3.6939e-10
7.43234e-18
3.99349e-18
1.2902e-18
3.92835e-18
7.16428e-05
1.43213e-05
4.29206e-18
6.26111e-06
5.60808e-18
4.38622e-17
8.28956e-05
7.01424e-06
1.34003e-05
1.11896e-05
3.26854e-17
6.54174e-18
4.29792e-18
1.12531e-05
2.21932e-05
6.17359e-06
2.90778e-18
3.70951e-13
1.88867e-07
2.58924e-06
9.55213e-06
4.14063e-08
3.39781e-05
2.00828e-18
4.46912e-05
4.23588e-06
9.34327e-06
3.00117e-05
1.62249e-05
5.18915e-18
6.01354e-18
4.1033e-18
1.51489e-17
3.74885e-05
1.16054e-05
3.95641e-05
8.05234e-05
4.53122e-18
2.23781e-05
1.16981e-18
4.11021e-19
2.00411e-05
5.49498e-18
9.18673e-05
9.05184e-18
7.24159e-20
2.77146e-05
8.0761e-19
1.62746e-05
3.29181e-07
2.46145e-18
1.2048e-06
1.96562e-05
2.84344e-19
1.07211e-05
1.10131e-05
9.75715e-06
7.91732e-07
3.22543e-06
6.65972e-06
2.44634e-18
1.54553e-18
2.2405e-06
3.50435e-19
7.40315e-06
0.000141938
5.6514e-18
5.6902e-18
3.2391e-05
1.37068e-07
9.88554e-06
2.56565e-05
1.25575e-18
5.4573e-05
2.29343e-05
6.70293e-18
9.94819e-07
2.91493e-06
1.84849e-17
1.05019e-17
1.32252e-05
6.30143e-06
8.56877e-18
6.30848e-18
4.12557e-11
3.99292e-18
1.4453e-05
2.11607e-18
1.11631e-18
2.04056e-05
2.02125e-09
1.43852e-05
3.60142e-05
1.01207e-17
3.29624e-17
1.78468e-06
8.04956e-18
1.791e-07
1.69408e-05
0.000147087
0.00101286
1.18126e-17
3.29962e-06
6.11386e-07
8.3441e-18
4.69673e-05
3.78783e-05
1.35223e-17
8.56231e-12
1.08878e-07
8.515e-18
2.92025e-05
2.8961e-05
1.68416e-05
1.66518e-17
7.97606e-07
2.1674e-05
2.73871e-05
9.85699e-10
1.20022e-17
7.55953e-13
2.02043e-18
1.55555e-08
3.73238e-05
2.0533e-19
1.01027e-05
1.13939e-07
2.18051e-17
2.31e-18
2.93316e-17
3.34409e-18
4.78592e-06
1.14862e-05
7.86626e-06
2.48793e-06
3.23427e-06
2.69832e-18
2.32988e-06
4.28257e-19
4.90149e-05
5.01846e-19
5.69117e-19
1.52737e-18
4.37479e-05
2.78572e-18
4.11488e-18
2.02494e-10
5.40792e-20
5.1039e-19
1.2589e-06
6.62919e-18
9.61803e-18
1.30874e-18
9.08211e-19
4.40682e-17
2.39158e-17
3.29695e-17
8.43019e-06
4.37195e-18
6.44413e-07
2.28597e-06
1.08842e-06
4.20476e-18
1.02366e-06
1.76818e-18
4.14376e-19
3.36571e-06
2.16683e-06
3.28073e-05
3.01214e-05
7.68139e-18
2.45343e-06
9.84919e-05
1.02327e-05
1.21953e-06
3.9423e-06
1.15623e-17
2.77565e-05
2.45362e-17
6.01943e-06
9.07214e-19
9.158e-05
1.36995e-17
2.57589e-05
2.94552e-07
6.19381e-10
1.68808e-18
2.44288e-06
1.4389e-18
9.5562e-05
5.87847e-05
1.4035e-17
2.2561e-18
3.37211e-18
1.67515e-19
1.6605e-12
6.5065e-05
2.8696e-18
5.86462e-18
2.91799e-06
1.38324e-18
4.05619e-05
1.01292e-18
3.74308e-07
1.81471e-17
5.84378e-07
1.30877e-09
1.19381e-06
1.56541e-05
1.43047e-17
4.98828e-07
1.53972e-17
9.10046e-19
1.80788e-05
8.62491e-19
3.63294e-08
2.51417e-18
1.92601e-06
1.76715e-17
7.7785e-05
2.88719e-19
2.84469e-17
2.1327e-05
4.01126e-06
2.10975e-06
4.72664e-06
8.25945e-06
2.48307e-05
1.56077e-18
3.00944e-05
7.38227e-06
1.2235e-18
9.54266e-11
4.8196e-05
1.82065e-05
1.14517e-17
4.74604e-06
8.00115e-06
2.07155e-06
1.24855e-06
2.64999e-13
1.62673e-05
1.46967e-06
1.56628e-07
2.85225e-05
1.63531e-05
7.40869e-07
1.34851e-17
4.01029e-12
0.000779496
1.10848e-18
4.15929e-07
1.55643e-18
7.88923e-17
8.81167e-06
3.38852e-06
2.67846e-10
1.86066e-08
2.02129e-17
1.97124e-05
1.32901e-05
4.50194e-18
1.788e-13
2.31329e-06
1.02539e-17
1.04218e-17
6.8765e-20
2.48781e-18
1.56971e-05
7.48634e-18
1.57399e-18
1.04937e-05
2.32471e-06
2.96986e-17
1.27358e-05
4.94489e-18
1.01207e-05
3.35686e-18
3.03996e-18
6.3414e-05
1.90312e-18
9.68759e-18
4.23905e-18
5.23971e-06
3.0659e-17
3.47001e-05
7.49062e-06
5.24025e-19
0.000105225
2.92097e-06
3.42364e-05
3.37834e-05
5.48223e-07
9.3642e-08
5.29761e-18
6.50167e-05
5.58294e-05
6.69083e-18
3.87198e-07
4.78648e-05
9.36491e-06
1.7003e-06
3.28959e-05
3.11679e-05
1.78718e-17
1.29172e-05
6.60739e-09
6.90935e-18
4.14397e-05
3.11314e-07
7.73134e-17
1.30098e-05
4.8548e-05
1.61977e-06
2.5503e-05
2.35085e-05
8.36726e-06
8.13128e-18
1.23849e-05
3.84803e-07
4.43201e-15
2.05458e-05
2.13957e-05
4.30542e-05
2.56531e-18
2.24615e-06
2.09242e-19
2.82283e-18
1.22326e-17
2.40771e-18
1.67365e-08
2.16286e-17
3.75117e-13
1.16124e-17
1.80591e-19
9.24856e-08
5.19968e-05
1.07791e-17
3.7895e-05
2.03411e-17
1.34309e-17
1.5428e-17
4.65755e-05
4.81377e-07
1.22902e-17
2.97545e-17
3.22895e-20
1.30412e-18
0.000250201
8.2874e-05
2.19451e-17
2.36745e-06
2.50327e-09
5.12172e-18
4.46552e-05
1.0031e-05
1.44426e-05
7.16115e-18
1.26429e-17
5.12649e-07
1.30248e-06
5.20454e-17
5.68146e-18
9.15141e-18
8.74355e-06
5.8313e-18
4.65313e-17
3.62353e-18
5.00243e-05
2.42819e-06
3.39206e-18
0.00463342
0.000401315
1.20968e-05
4.52116e-19
7.86679e-18
6.58376e-05
4.97132e-07
1.42639e-17
6.31035e-09
0.000137893
2.93002e-06
1.3432e-05
9.65461e-18
6.34253e-05
2.23307e-06
9.82316e-19
1.40599e-17
1.21322e-17
3.13749e-19
1.24085e-18
3.13594e-18
2.63892e-05
1.61993e-17
6.27846e-18
1.56589e-18
1.3741e-05
2.7689e-05
2.2277e-19
4.98645e-18
0.000127025
1.71942e-05
1.14113e-05
2.02883e-17
4.83973e-18
4.45466e-05
4.36594e-18
2.09569e-06
3.09932e-06
4.58726e-06
1.68351e-18
5.16962e-18
6.56895e-18
6.35946e-19
1.79037e-05
6.27227e-18
2.08845e-18
1.21405e-06
1.13809e-17
2.75231e-05
2.23574e-06
8.96194e-18
4.43368e-05
0.000434224
3.04208e-06
3.47495e-05
1.70044e-07
5.3063e-05
1.05389e-13
1.13717e-17
2.81966e-05
8.27868e-05
7.2441e-06
7.77552e-18
7.1678e-13
0.000895378
1.20772e-05
5.16729e-18
2.95797e-06
3.06693e-06
1.40794e-06
1.72155e-17
1.04112e-17
1.53679e-17
1.58276e-05
7.78503e-18
3.09379e-06
1.39606e-17
1.51571e-06
1.68669e-06
4.39422e-05
6.54844e-07
3.04445e-18
5.72702e-19
2.9605e-18
2.46662e-05
2.25418e-18
4.17746e-18
8.32989e-08
3.17798e-18
1.36127e-18
1.28805e-19
1.1283e-18
1.20461e-05
6.665e-18
3.72793e-18
5.44602e-13
6.11726e-18
1.64529e-18
9.91567e-18
5.17726e-18
3.36625e-09
1.91932e-06
1.65114e-18
4.75142e-06
7.792e-09
3.43188e-10
7.32161e-08
4.84848e-06
1.33972e-19
1.12482e-08
1.17967e-05
4.74804e-07
3.45134e-18
4.24879e-12
1.01813e-06
2.80395e-18
1.16577e-05
2.18386e-07
1.951e-09
2.80699e-05
1.11749e-05
2.69804e-06
5.95684e-06
2.39951e-06
1.1861e-17
1.17355e-18
3.94787e-05
3.1356e-05
7.01098e-18
9.99915e-06
6.43122e-05
3.39907e-05
2.772e-17
1.51932e-06
6.25452e-18
1.23431e-05
1.66101e-05
2.40595e-18
1.88803e-06
5.50818e-07
1.42332e-09
5.90029e-06
4.32373e-18
5.8403e-05
1.77272e-08
1.7779e-06
3.80669e-08
1.39662e-08
2.38038e-18
4.5645e-18
8.34079e-06
4.44592e-18
1.41836e-07
2.99384e-07
3.32137e-07
6.50578e-11
8.45271e-11
3.32977e-10
3.72936e-18
8.72393e-17
2.77148e-05
1.06707e-17
1.40239e-07
2.42632e-06
9.02691e-18
7.25571e-18
7.60745e-10
1.07843e-12
2.87743e-18
5.97123e-09
5.71093e-18
6.22351e-19
3.57311e-18
1.06589e-17
1.99343e-17
6.75966e-18
3.28833e-07
1.12183e-17
4.06323e-18
4.70161e-18
7.66133e-09
6.24576e-08
2.14996e-06
1.12084e-05
8.70809e-19
3.76021e-18
2.01338e-07
7.02854e-18
2.22054e-18
9.13212e-17
2.21328e-05
5.05633e-05
3.09281e-18
6.37526e-18
1.23466e-17
1.36711e-17
4.18615e-20
1.95833e-17
8.31208e-06
7.90043e-19
6.32951e-11
3.19753e-05
5.87057e-18
1.12774e-17
2.14552e-18
3.30557e-08
3.54254e-18
6.92165e-19
2.02098e-18
1.11096e-08
9.89203e-19
5.19966e-06
1.11079e-09
6.80548e-12
2.47801e-18
8.97656e-08
2.36454e-06
5.26514e-05
4.20248e-17
1.01497e-08
6.72494e-06
8.98379e-18
9.15233e-18
6.71576e-17
1.80839e-17
1.00573e-05
1.95087e-06
3.89489e-06
2.09584e-10
2.40362e-18
2.61397e-05
2.5486e-18
1.59228e-17
2.57235e-17
2.67685e-18
3.15907e-05
3.77929e-18
1.47813e-17
2.04971e-09
6.13754e-05
2.41659e-17
2.85673e-06
1.8783e-17
9.8782e-07
2.76006e-17
7.53026e-18
1.13712e-18
3.1119e-18
2.91193e-06
7.13559e-07
0.000359148
3.85817e-18
2.28006e-17
2.37977e-06
8.43947e-19
8.11212e-18
3.86769e-17
4.37845e-05
1.13397e-08
3.86261e-05
7.48061e-18
1.25538e-08
5.86803e-08
9.0105e-18
1.49401e-07
9.21515e-18
1.43118e-06
3.02213e-05
2.44153e-05
1.43958e-06
2.82043e-07
1.47824e-18
1.8809e-19
3.54366e-18
2.61032e-08
9.20515e-19
8.93275e-06
2.61939e-18
0.000210375
1.11417e-18
4.91562e-05
3.72334e-06
1.15011e-17
7.00894e-18
3.45691e-18
1.17448e-18
4.93808e-05
6.21299e-18
1.56364e-17
1.4129e-05
8.18604e-06
5.50869e-18
4.59214e-17
1.02362e-17
1.48559e-17
2.31423e-17
3.64704e-18
3.086e-05
4.95583e-07
1.11278e-18
3.8268e-19
6.29461e-10
2.64726e-18
1.89469e-06
1.28032e-07
3.24809e-18
4.19176e-06
8.11692e-18
4.54241e-07
2.91194e-18
1.32097e-06
3.96674e-18
8.83591e-11
2.54761e-09
7.50336e-07
2.16286e-05
4.06466e-05
1.40563e-09
3.65214e-18
6.10006e-07
2.2656e-17
5.48431e-06
1.36143e-18
7.34497e-19
3.02986e-17
5.51136e-19
4.51843e-19
8.28085e-18
8.59339e-06
9.71355e-06
3.05829e-18
8.88693e-18
1.45713e-17
9.11295e-07
1.58999e-08
5.38846e-18
2.16921e-05
2.15025e-07
1.33806e-17
2.7925e-05
9.81209e-06
4.31164e-06
1.37207e-05
2.60581e-18
1.7667e-18
5.87357e-19
2.21522e-18
4.41235e-05
6.59873e-18
0.000136503
1.38429e-18
3.80088e-07
8.71082e-07
3.95872e-18
1.14402e-06
2.29471e-18
1.08059e-17
3.67215e-06
2.62965e-11
1.13432e-05
1.83466e-18
1.63026e-17
4.12287e-18
9.96471e-07
2.80531e-18
1.07456e-19
3.19509e-17
3.33066e-10
8.52825e-20
8.03255e-09
1.01568e-16
7.30712e-18
5.41472e-18
2.16711e-05
1.18403e-05
2.18926e-05
4.31503e-05
5.00182e-18
1.95083e-08
4.51609e-18
9.726e-19
1.17339e-05
9.16885e-19
2.64746e-09
4.30702e-07
7.91282e-06
4.29918e-07
1.29585e-12
2.26216e-06
2.96979e-19
1.45341e-12
4.76122e-13
1.49898e-07
9.36412e-07
1.77013e-05
7.62396e-11
5.2794e-17
3.63314e-05
1.83141e-18
1.19526e-18
1.65722e-08
8.97811e-05
6.6973e-11
1.01795e-18
1.003e-18
3.65747e-10
3.96093e-18
7.97427e-18
2.14635e-08
5.74149e-17
2.24408e-17
4.84233e-05
2.68606e-07
2.12648e-07
2.71004e-05
8.68927e-06
5.20369e-18
7.69508e-18
2.14956e-08
4.82568e-06
2.19929e-17
3.72562e-17
1.1518e-05
2.46543e-17
3.90339e-18
1.26509e-17
1.74932e-17
1.77648e-16
0.00308579
1.82032e-18
2.58129e-07
1.88392e-18
2.52639e-05
2.62434e-19
8.11276e-16
2.34009e-17
1.23543e-17
8.58197e-18
5.4239e-18
3.3516e-06
3.84644e-19
1.80519e-17
3.24733e-17
1.24079e-17
3.737e-18
7.81926e-18
1.16853e-05
1.72932e-17
1.32713e-05
3.6847e-06
2.79066e-18
1.93761e-06
9.52768e-19
5.91806e-07
2.37756e-09
4.56294e-06
1.56554e-05
5.92261e-18
1.09021e-07
9.28686e-06
1.10867e-08
1.5411e-18
3.11262e-09
2.22618e-05
5.65093e-06
1.36626e-17
3.10557e-05
1.35745e-17
4.57795e-19
7.64772e-18
3.72998e-18
9.74936e-06
1.70643e-18
3.17808e-18
9.83956e-06
3.813e-10
3.22636e-06
2.35293e-18
1.15211e-16
8.00191e-07
3.72836e-18
8.13483e-08
1.80396e-17
2.78041e-05
4.77982e-18
4.48979e-18
6.69757e-08
1.23553e-17
1.64473e-07
2.17766e-18
1.42682e-17
5.73283e-06
5.08997e-07
5.67016e-06
1.84741e-05
0.000263761
2.4325e-05
5.12935e-19
9.59223e-18
3.55835e-06
8.01217e-06
4.35848e-05
1.28394e-05
1.09497e-17
1.44936e-05
7.59665e-18
2.53494e-18
1.08755e-05
1.30696e-05
4.75368e-18
1.56909e-05
2.60086e-18
3.25837e-06
1.04167e-05
1.81704e-17
1.09503e-18
2.52892e-18
3.34805e-06
7.85441e-18
3.10447e-19
4.98822e-06
2.52912e-05
4.25763e-09
8.86117e-06
7.8734e-19
5.09121e-19
9.92403e-08
9.06077e-07
1.66722e-17
1.23931e-05
5.63248e-17
3.15613e-06
7.8687e-18
1.3593e-17
1.47052e-05
1.70636e-17
4.5694e-08
4.32786e-06
5.67887e-18
1.83414e-19
5.27423e-06
6.43453e-14
6.23268e-05
1.94969e-17
0.000307151
8.28503e-18
2.67968e-17
8.93796e-19
8.94727e-06
1.68531e-17
6.79726e-18
6.64228e-06
1.24143e-17
2.89865e-07
2.22665e-17
3.84225e-18
1.05949e-18
1.26326e-10
9.16703e-07
8.60434e-19
1.77519e-17
4.17165e-05
1.11177e-06
8.0819e-18
5.17658e-07
4.83028e-18
1.11195e-17
1.95959e-09
3.11201e-06
1.56596e-06
1.06798e-17
3.19814e-19
2.5618e-18
6.96311e-18
1.86575e-18
2.10132e-17
2.04753e-17
3.0765e-18
1.40453e-17
3.1821e-18
2.46436e-18
2.36171e-18
4.421e-17
5.00215e-18
3.31475e-19
4.75241e-18
9.18074e-18
1.58955e-18
1.34661e-17
5.55443e-18
4.15069e-18
2.07349e-05
4.00624e-18
7.14884e-18
4.16269e-18
7.87037e-06
4.24466e-18
3.87046e-18
0.000344268
2.29387e-18
6.33094e-18
2.74907e-05
4.49531e-15
1.37936e-18
9.09593e-06
2.91323e-05
3.00786e-19
3.26787e-06
4.88709e-06
5.59686e-18
1.57992e-05
4.68533e-05
2.12048e-05
4.0119e-06
1.27385e-05
2.35216e-17
1.89439e-17
3.49073e-06
1.22617e-05
3.81553e-06
5.65364e-18
7.80373e-06
2.09442e-06
2.54084e-05
1.20969e-05
8.25825e-07
1.85698e-05
1.24902e-06
1.20735e-05
2.05585e-18
2.93437e-05
1.0018e-05
1.94805e-06
1.62783e-06
2.52455e-18
1.51387e-18
6.0511e-18
1.03487e-17
3.58209e-19
1.06927e-05
1.6128e-05
5.92851e-18
4.91095e-19
5.04314e-17
1.62339e-18
8.69884e-18
2.38958e-18
3.69234e-18
2.66129e-17
5.39272e-06
2.17102e-07
2.57951e-05
7.96767e-08
2.7993e-18
2.96452e-17
3.63977e-05
8.34906e-09
9.3635e-19
3.358e-17
8.59976e-06
4.31474e-18
6.96612e-19
3.90625e-09
9.30748e-06
1.5983e-05
3.99354e-05
4.05345e-05
1.1822e-17
1.66048e-05
3.94705e-07
8.13705e-18
2.68339e-18
1.40115e-05
4.40464e-18
3.07695e-19
1.95787e-05
0.00124202
2.06087e-07
3.70536e-18
1.27673e-18
2.08768e-05
2.37858e-05
2.07218e-05
6.80197e-06
4.94979e-06
5.82041e-18
1.26153e-09
3.15958e-12
1.32783e-17
6.08149e-17
2.041e-05
2.31162e-18
2.35454e-06
2.96153e-05
2.07306e-05
1.36354e-05
5.78617e-18
7.16447e-06
4.77881e-18
1.33919e-18
7.07241e-19
1.30147e-18
2.88265e-06
0.00103926
1.14025e-18
9.83119e-19
3.68736e-09
2.71236e-05
1.35303e-06
8.12858e-06
3.85366e-05
5.64861e-06
2.42752e-05
9.14337e-19
1.20992e-17
2.14911e-17
3.51875e-05
6.67284e-06
3.2023e-11
4.72848e-18
3.23154e-18
4.32335e-17
2.61107e-05
3.28529e-06
8.00042e-18
5.75262e-06
6.82905e-05
7.81825e-06
7.20062e-06
3.62911e-18
7.64806e-17
8.11688e-06
2.63784e-05
2.43984e-18
3.9681e-07
1.71856e-05
1.17455e-06
1.06689e-05
5.44942e-06
9.42511e-06
3.61766e-17
3.87519e-06
2.41474e-05
4.24218e-05
5.21531e-13
2.65511e-05
3.29172e-16
1.90677e-05
1.86096e-07
4.0223e-18
3.00084e-06
8.82123e-06
4.44877e-07
1.33403e-05
2.1644e-10
1.50581e-07
1.69681e-08
4.80251e-05
4.25576e-06
6.73001e-18
4.46909e-05
1.51503e-06
5.98249e-18
5.42951e-18
4.81339e-11
1.23346e-08
1.20274e-06
0.00127983
4.0584e-05
1.41174e-05
2.40454e-10
5.19232e-05
9.54619e-18
3.07585e-19
4.53378e-06
1.56768e-17
2.46453e-06
4.86614e-06
2.52467e-06
5.33332e-06
2.42327e-18
2.3605e-07
0.00012497
3.51417e-18
2.2008e-05
8.67698e-06
9.49176e-18
4.65814e-06
1.54301e-07
4.17838e-18
7.56961e-12
1.05985e-07
2.78519e-18
2.42037e-17
5.32719e-19
5.06937e-06
5.59447e-06
1.63368e-05
1.29469e-18
5.72499e-06
3.81288e-05
1.36712e-18
9.24684e-06
1.42815e-05
2.7868e-05
1.77269e-06
4.65397e-19
6.73687e-07
1.08304e-05
1.20206e-05
1.04106e-05
4.28528e-05
0.000189341
3.88275e-06
8.77026e-18
8.69668e-09
5.76852e-05
2.58937e-18
4.89842e-07
4.34114e-20
1.16903e-18
2.40362e-18
3.10614e-18
6.71099e-18
3.69846e-06
3.91605e-18
8.25559e-06
1.31667e-06
8.39297e-18
4.33029e-06
1.36866e-17
1.60633e-05
7.35715e-18
2.57397e-08
5.14601e-17
2.51556e-05
1.81355e-07
2.87981e-09
4.83648e-06
3.27683e-05
1.91547e-05
4.41797e-06
3.10057e-05
7.52849e-15
2.59348e-05
6.17397e-05
1.08101e-05
8.41365e-18
1.26321e-06
2.96663e-07
6.41e-06
1.17185e-05
6.90699e-07
6.39139e-18
8.62115e-18
3.91303e-18
4.08459e-06
1.6888e-17
3.36071e-07
2.4913e-07
1.81184e-06
3.22786e-07
1.54232e-18
1.21863e-17
2.03271e-18
9.97511e-06
2.46105e-05
1.37936e-06
1.09549e-08
2.14256e-06
7.83778e-06
2.23838e-06
9.01677e-07
7.60636e-06
6.85333e-06
3.01252e-06
1.98538e-17
4.16619e-19
1.10707e-17
1.49448e-05
1.21923e-05
3.68234e-18
1.2401e-18
8.63268e-17
9.49531e-06
2.12232e-05
1.02591e-18
2.48006e-06
8.25745e-18
7.03603e-10
5.31806e-06
0.00010126
1.34199e-18
7.28387e-19
4.09806e-06
7.60431e-18
6.71178e-08
1.33666e-05
4.44139e-18
1.22439e-05
3.70438e-05
2.10171e-05
7.24793e-19
1.54123e-06
1.61275e-18
9.71716e-08
5.53976e-05
2.27231e-18
9.36123e-18
1.22442e-05
3.83873e-16
2.70132e-17
5.05784e-08
1.08972e-06
1.86306e-17
1.43921e-18
1.01698e-18
6.95693e-08
1.38372e-06
3.49905e-06
2.92345e-05
1.03975e-05
4.58442e-18
8.05978e-10
7.50046e-07
6.07872e-18
4.71479e-18
1.71445e-18
1.16084e-18
5.92501e-18
1.60623e-17
5.41242e-17
7.58779e-19
1.33605e-17
1.45359e-17
2.71882e-12
2.60927e-17
3.83655e-07
3.32094e-17
2.68556e-07
4.25124e-17
6.87423e-08
1.00606e-16
6.86652e-18
3.22337e-05
1.0211e-05
1.24561e-17
0.000100484
1.23989e-11
3.94967e-13
1.81252e-18
1.49368e-06
9.16218e-15
3.08745e-06
7.40323e-09
9.57943e-07
1.14699e-18
1.30617e-17
1.03233e-06
2.69681e-11
7.61129e-18
2.05316e-18
4.38042e-05
3.67457e-18
4.15715e-05
1.45446e-17
1.05172e-17
1.99237e-09
3.16905e-05
9.0028e-06
1.20603e-17
3.60434e-07
7.35351e-18
3.67058e-06
2.06349e-08
2.02662e-06
1.07374e-06
2.60156e-18
2.29304e-05
1.34385e-06
5.83991e-06
1.38977e-18
3.89204e-20
3.26325e-18
2.17351e-05
4.43106e-06
5.85447e-05
2.0223e-17
5.26358e-10
1.54675e-18
2.44052e-18
1.01617e-17
3.01385e-18
3.69914e-06
2.51032e-06
3.36961e-06
0.000359203
2.45924e-17
3.06786e-05
4.01689e-05
1.95108e-05
1.96623e-06
3.96805e-18
5.89423e-06
5.13981e-06
6.92197e-06
3.72276e-10
1.13832e-05
1.50437e-18
1.70556e-06
1.42829e-06
3.6747e-05
1.31707e-09
3.77398e-06
7.10583e-18
2.11959e-05
2.77983e-17
9.97099e-18
1.85373e-06
7.64484e-18
6.88558e-06
1.04171e-17
1.12472e-17
5.82089e-18
2.24209e-18
1.26328e-17
9.10968e-07
7.82545e-18
6.12414e-07
1.48255e-17
1.38953e-17
2.00642e-05
6.09727e-06
8.92693e-06
8.34873e-06
4.05584e-18
0.000665944
1.07002e-18
7.84148e-05
7.86707e-18
1.99312e-05
2.69003e-05
2.68673e-06
6.38339e-05
6.99041e-18
3.5763e-17
1.2493e-18
2.43681e-06
1.81697e-17
1.90909e-18
1.98406e-05
6.32655e-18
1.45595e-18
6.08024e-06
7.77905e-18
1.43087e-05
7.75546e-11
5.84866e-18
6.63559e-18
1.51945e-17
1.82099e-06
7.64387e-06
5.36207e-18
2.56361e-05
3.87699e-07
3.99797e-18
0.000116724
6.98781e-18
1.76782e-05
2.0264e-05
4.01326e-06
3.5481e-18
2.00899e-05
1.09801e-05
9.6935e-07
6.06124e-06
1.42622e-05
3.09524e-18
2.11234e-17
2.03815e-09
2.04068e-18
4.13316e-18
7.28334e-18
2.20073e-05
5.11222e-05
5.00695e-06
2.46771e-06
2.36745e-17
5.67493e-05
5.17957e-05
4.78682e-06
2.73547e-06
1.05761e-05
2.3669e-05
3.05965e-06
7.42011e-18
8.9267e-19
2.53331e-18
7.91167e-06
4.54522e-18
2.79177e-05
3.34579e-17
8.4625e-07
6.441e-10
2.88754e-06
2.50919e-05
1.88759e-17
8.47189e-18
2.82366e-06
4.1583e-07
1.18271e-18
3.04004e-17
1.80756e-18
3.83266e-08
3.64443e-07
1.67321e-07
9.428e-07
1.14662e-05
9.81156e-05
1.10719e-17
1.30204e-17
3.06113e-17
4.23142e-06
2.01257e-05
2.26717e-05
3.9896e-05
1.99253e-06
3.36863e-06
6.35145e-18
1.15053e-17
1.30879e-16
1.43457e-18
1.0723e-05
2.55719e-05
9.02208e-18
8.61906e-18
6.87036e-18
2.52829e-18
6.74141e-18
5.48061e-17
1.57183e-05
3.37593e-17
1.09865e-06
0.000464911
6.46896e-18
1.58435e-08
2.60624e-05
8.60788e-07
5.09518e-19
4.69131e-17
5.63089e-06
1.44172e-18
1.62391e-05
1.18013e-09
2.77687e-05
5.84824e-17
3.25057e-15
4.10407e-20
4.53355e-19
8.80567e-18
3.17023e-17
0.000224412
4.35684e-18
6.8034e-06
1.37572e-06
5.43421e-18
1.26016e-17
2.21659e-06
3.38018e-18
3.57946e-18
1.29855e-05
1.5032e-07
2.55415e-18
1.18812e-17
6.71084e-18
1.92146e-05
3.25322e-18
1.58132e-17
4.75663e-07
3.01397e-06
3.52908e-06
7.3496e-18
5.12051e-18
1.28872e-17
4.38714e-06
2.13006e-06
1.49757e-05
4.27919e-06
3.8267e-19
9.19376e-07
1.3558e-05
7.40421e-06
2.5446e-19
9.979e-18
2.34562e-17
4.17711e-18
6.8499e-18
3.57213e-05
6.00176e-06
6.35415e-06
6.80371e-19
3.54482e-18
8.01536e-18
4.46634e-18
1.30471e-18
1.12999e-09
2.78045e-07
2.57347e-06
7.39574e-18
1.52316e-18
3.66268e-18
2.68902e-12
3.98707e-05
0.000131039
3.73e-18
8.60882e-13
2.38908e-14
7.27877e-18
1.1563e-17
4.39906e-06
7.5479e-06
1.68538e-18
4.00348e-17
3.33143e-06
2.25735e-18
8.10124e-07
1.25758e-06
0.00240853
2.61797e-18
2.67137e-18
1.39723e-05
6.1254e-07
1.35109e-18
0.000764429
6.88051e-07
7.26761e-06
1.17553e-17
1.08451e-17
6.97604e-18
1.61553e-17
9.27829e-06
1.05421e-07
1.70012e-17
2.91962e-05
2.20449e-05
0.00099397
2.93709e-19
1.08751e-18
4.45166e-18
2.45928e-18
7.53846e-06
7.86138e-11
5.18363e-18
2.49143e-17
2.15844e-05
1.07716e-06
5.56847e-06
4.68304e-18
9.2638e-18
3.30881e-05
4.89762e-17
1.05973e-17
6.02076e-19
1.99684e-18
2.49105e-05
3.76861e-17
5.22622e-18
7.04093e-18
2.89244e-05
1.38879e-05
2.93724e-18
8.39796e-18
3.4368e-18
1.75254e-05
2.10575e-10
1.99561e-17
2.25169e-18
3.89489e-18
2.38667e-17
2.75411e-06
1.26313e-05
2.64046e-18
2.32981e-06
1.281e-06
5.50107e-06
7.18063e-17
1.10366e-17
3.95368e-18
1.09423e-18
5.73273e-19
2.24492e-05
1.32639e-17
1.65645e-05
2.01354e-18
1.76023e-06
9.20738e-18
2.74249e-06
2.46328e-18
6.60944e-18
1.23788e-05
0.000189567
6.4685e-17
4.12281e-06
9.04574e-18
4.47634e-07
3.93404e-17
1.43426e-17
1.03604e-17
1.5473e-10
3.48815e-18
3.52195e-07
1.03775e-18
4.02781e-05
1.77729e-18
7.35558e-18
2.67358e-18
5.29521e-18
8.93367e-09
1.5326e-07
8.90932e-18
6.44349e-06
4.28615e-18
3.16585e-06
2.12689e-05
1.44606e-06
1.91592e-19
5.33312e-09
5.01535e-07
2.47283e-09
4.82324e-06
3.74677e-10
1.91359e-06
1.79218e-17
1.44169e-18
5.00355e-10
6.52832e-06
2.71368e-07
3.92098e-17
6.69081e-18
7.37908e-18
0.000659436
6.75295e-19
9.42746e-18
9.63962e-19
1.17658e-18
1.13182e-18
3.29049e-08
2.02743e-07
1.16997e-06
7.83016e-08
1.12512e-15
1.67926e-06
1.35772e-18
6.33248e-06
2.81533e-17
4.55152e-19
6.63293e-19
6.24142e-17
2.12535e-08
1.98099e-17
2.46184e-18
5.44122e-19
1.6458e-05
1.35777e-17
1.74188e-18
1.25323e-05
2.75033e-18
8.2961e-05
0.000142362
0.000643531
1.40427e-17
0.000229535
0.00131819
0.00133381
0.000739903
1.28696e-17
1.37891e-18
5.47177e-06
5.2396e-06
1.01949e-18
1.0818e-05
7.67987e-18
3.61578e-05
2.49731e-18
5.91433e-19
8.00631e-07
5.25791e-18
7.06168e-18
1.16104e-08
4.54833e-08
3.79631e-19
2.86751e-19
3.17582e-09
1.40368e-17
6.34315e-18
2.24775e-08
9.3769e-06
1.70616e-06
1.77508e-17
8.7873e-06
3.69862e-18
3.97908e-06
4.5484e-10
8.22845e-06
1.07016e-17
1.80973e-11
6.35818e-06
7.94511e-18
1.79027e-12
2.51304e-18
3.6079e-05
2.7829e-18
1.08564e-05
7.33202e-18
2.61282e-10
1.02912e-17
1.44017e-17
4.28064e-18
9.30527e-13
5.71979e-13
8.67058e-18
1.3625e-05
1.02797e-05
6.39299e-18
3.98989e-18
3.66477e-05
1.93128e-05
0.000206337
7.13202e-19
7.6003e-08
2.78548e-05
5.12993e-05
6.86616e-11
5.95884e-18
6.4121e-05
1.98738e-17
0.00025401
4.09876e-18
4.19545e-11
4.04277e-11
1.94725e-18
5.75419e-08
3.09927e-17
2.40709e-05
1.31986e-18
1.69526e-18
4.20232e-18
1.67492e-18
7.76387e-18
5.38504e-17
3.40939e-07
2.13201e-06
0.000150314
1.84578e-17
6.9548e-17
4.56198e-05
1.11026e-18
2.10785e-19
3.45537e-18
8.00613e-19
4.90083e-18
6.53434e-06
1.21556e-18
4.84891e-18
3.15293e-18
3.65533e-06
2.26652e-17
8.25815e-18
1.47396e-18
3.58605e-06
6.95234e-18
6.81088e-06
0.000257765
5.79182e-06
5.94654e-06
2.95775e-05
2.31143e-18
1.97899e-17
5.08958e-18
3.3757e-06
1.93856e-06
1.88504e-18
1.65991e-16
6.5673e-07
1.26675e-17
8.73051e-18
0.000371026
2.40701e-18
2.43486e-05
3.11331e-18
2.59755e-06
3.67451e-06
6.49237e-18
1.22078e-17
8.50188e-18
2.81341e-18
3.6343e-19
2.06794e-05
3.54699e-17
5.12875e-06
2.84047e-18
2.12867e-18
7.50136e-06
6.13577e-18
1.40994e-05
7.12022e-17
2.80292e-18
2.67613e-06
8.58801e-08
0.000155263
4.92822e-17
1.20858e-17
2.4658e-18
4.05768e-06
0.000198468
3.78403e-18
3.99398e-19
1.00427e-16
1.68694e-06
3.27181e-18
2.17174e-05
3.42566e-05
3.59747e-17
7.10758e-19
7.96209e-06
6.13745e-17
1.81165e-17
2.82461e-18
4.79166e-17
1.09475e-17
7.54788e-05
3.39318e-17
2.70976e-17
1.79255e-18
2.47534e-17
1.52258e-18
5.46258e-18
1.40509e-17
1.28804e-18
2.27273e-17
8.59179e-06
1.48114e-17
9.20118e-06
2.14426e-17
7.42646e-18
0.000639376
2.94616e-06
1.07809e-17
7.63168e-18
3.31874e-18
2.62699e-06
8.49647e-18
1.06355e-18
4.40018e-17
8.24803e-18
7.86437e-06
1.81083e-18
5.27968e-06
2.21401e-18
1.05498e-05
5.21627e-18
6.2502e-05
7.35395e-17
1.60515e-18
2.33487e-05
3.40352e-18
1.2106e-18
2.94078e-05
2.9825e-07
1.15851e-18
1.32083e-17
4.02419e-05
1.10314e-05
6.99591e-06
9.19101e-07
1.97576e-06
1.8849e-05
1.06608e-06
5.35026e-06
1.64906e-17
3.14268e-05
7.06423e-18
5.58149e-18
6.30653e-18
2.45484e-17
6.96851e-18
1.12793e-05
6.68175e-18
1.18351e-19
3.70134e-19
3.20687e-09
9.97653e-09
2.06688e-17
2.51159e-06
3.02731e-17
4.71405e-06
1.18394e-18
1.3593e-09
3.95816e-06
2.05398e-16
4.98571e-05
4.51914e-18
1.9063e-17
1.00555e-18
3.223e-06
1.42836e-06
1.30629e-18
4.01093e-19
2.73806e-06
4.99507e-18
0.000725953
3.1787e-18
0.000113218
3.08333e-18
3.86842e-18
6.87212e-18
1.73091e-17
1.08635e-05
2.55145e-18
4.3077e-08
2.54705e-18
1.06895e-05
5.55377e-19
1.7478e-18
5.86769e-15
1.91881e-16
4.48184e-18
1.50765e-17
7.66496e-17
1.53918e-17
4.70134e-06
0.000209643
2.89379e-17
1.24399e-17
3.9704e-07
1.86349e-17
1.40529e-18
1.22395e-09
1.88517e-05
1.61615e-07
3.95572e-18
7.57432e-07
3.6211e-06
5.69522e-06
9.18081e-06
3.97316e-18
4.56619e-18
3.32418e-17
3.03401e-18
1.71461e-18
1.18349e-17
6.38218e-18
7.44982e-18
3.97837e-17
2.77175e-17
7.63034e-19
5.41838e-18
8.26544e-05
2.99387e-18
3.13658e-18
9.35668e-14
1.14706e-17
4.05242e-18
0.00121492
1.36551e-18
4.68785e-19
2.16455e-06
2.04797e-12
5.46133e-18
5.91157e-18
1.09115e-18
2.49349e-05
3.7207e-19
2.45065e-17
5.59784e-11
2.89572e-18
8.40075e-18
1.06289e-17
2.97408e-17
0.000126571
2.93765e-18
1.87088e-07
3.81568e-18
1.48179e-18
1.04272e-18
5.08779e-18
2.01001e-18
2.03832e-11
4.19105e-11
1.24107e-07
6.84882e-19
1.0827e-18
1.6077e-17
1.12662e-10
1.32966e-18
3.36869e-10
1.1582e-11
5.40187e-18
1.14662e-18
2.60897e-17
5.30369e-12
8.55537e-18
7.65255e-18
2.56783e-12
3.49441e-17
3.49229e-05
1.20686e-17
7.78777e-06
5.18616e-17
2.53681e-09
5.41594e-19
1.63254e-06
1.53489e-18
4.69238e-06
2.86282e-05
1.98611e-18
2.86266e-06
1.59316e-08
1.08749e-17
1.19864e-05
6.56562e-18
8.70898e-19
6.39237e-18
1.61617e-18
8.89889e-18
1.20039e-18
1.37215e-18
4.15307e-18
0.000319554
9.2212e-19
2.78268e-19
4.1115e-18
1.89133e-18
2.16558e-18
3.55937e-05
0.00092011
3.49072e-09
1.28246e-08
4.44383e-18
2.3295e-06
1.59562e-06
2.70672e-18
8.81816e-18
1.16226e-17
3.90371e-18
2.30806e-18
3.98829e-17
1.50796e-18
1.10472e-18
4.52686e-07
6.0118e-18
4.40076e-18
2.46279e-07
4.05577e-09
2.65573e-17
2.9387e-05
2.12857e-18
1.80191e-17
1.81791e-17
0.000198337
1.89953e-17
1.01436e-18
2.91973e-05
2.71358e-18
9.57255e-18
1.58975e-18
1.78149e-17
6.26832e-05
6.33932e-19