/*--------------------------------*- C++ -*----------------------------------*\
  =========                 |
  \\      /  F ield         | OpenFOAM: The Open Source CFD Toolbox
   \\    /   O peration     | Website:  https://openfoam.org
    \\  /    A nd           | Version:  10
     \\/     M anipulation  |
\*---------------------------------------------------------------------------*/
FoamFile
{
    format      ascii;
    class       volScalarField;
    location    "8.8";
    object      T;
}
// * * * * * * * * * * * * * * * * * * * * * * * * * * * * * * * * * * * * * //

dimensions      [0 0 0 1 0 0 0];

internalField   nonuniform List<scalar> 
111485
(
303.15
285.105
300.966
303.15
298.399
283.15
298.908
293.377
296.308
286.246
300.504
296.185
300.199
284.569
299.963
286.756
299.294
297.821
294.025
303.15
303.15
283.15
297.225
288.69
301.54
303.15
293.179
300.608
288.85
303.15
300.726
294.301
303.15
283.15
283.448
283.15
302.28
297.575
283.149
296.585
283.15
289.588
297.003
302.88
303.191
303.15
287.365
288.549
289.629
303.15
303.15
283.15
303.15
298.902
303.15
293.478
287.891
283.15
283.321
295.428
295.829
303.15
302.046
300.256
283.15
284.548
300.246
291.517
302.1
302.524
303.162
301.889
303.15
302.097
303.15
295.347
283.15
293.441
283.15
283.15
283.238
293.362
283.15
303.15
300.297
284.206
283.15
301.537
303.116
299.067
283.334
289.564
300.848
300.367
289.758
303.15
303.15
301.537
303.149
283.414
303.15
286.649
283.15
285.163
285.744
283.15
283.15
293.049
301.444
283.146
298.887
288.059
301.281
301.692
303.15
301.97
303.15
283.15
300.112
303.15
303.15
283.15
283.15
283.15
283.399
303.151
283.15
301.801
303.15
283.176
303.086
301.929
303.15
283.15
283.15
292.48
283.15
294.19
298.764
301.075
303.137
296.789
298.945
284.765
302.273
297.77
283.15
303.15
283.15
297.108
284.922
303.15
303.144
287.304
283.156
293.69
295.602
302.52
283.154
303.15
303.15
292.151
286.237
283.153
283.157
301.166
283.684
283.15
283.152
283.152
283.15
303.15
283.205
283.15
291.519
287.158
283.15
303.15
303.15
283.15
303.15
303.15
297.617
293.468
295.757
289.746
301.366
300.401
283.19
303.15
301.431
303.15
303.15
300.135
286.273
301.392
301.318
295.72
303.15
300.869
284.591
283.16
300.762
297.04
303.15
300.394
288.183
303.15
283.225
300.162
284.8
300.666
303.15
303.15
300.681
283.15
292.741
283.15
300.585
298.685
290.348
303.15
301.742
300.519
283.15
283.15
283.15
289.481
283.157
283.15
303.15
298.62
291.343
289.907
283.15
303.15
303.107
303.15
284.327
300.058
299.232
299.482
299.351
283.15
283.144
298.828
283.15
283.15
288.742
288.348
283.15
301.168
298.847
303.15
283.15
301.009
303.15
303.15
303.121
303.15
288.253
285.855
290.763
303.15
298.307
303.15
303.15
303.15
283.148
298.067
300.956
299.393
291.182
299.45
296.207
283.21
290.307
291.552
283.15
303.15
283.149
292.424
298.72
286.448
303.15
297.963
297.228
298.858
302.959
283.166
297.067
299.331
301.993
283.15
283.605
283.15
283.149
303.15
283.882
290.244
286.306
303.15
283.15
297.557
285.234
303.15
303.15
303.15
284.58
290.215
301.043
284.396
292.999
283.15
283.15
303.15
298.319
303.15
283.818
289.466
283.153
283.15
303.15
303.15
283.15
294.321
289.947
283.15
295.674
283.15
303.15
301.052
297.262
293.952
295.783
283.15
283.15
283.15
296.573
290.984
302.358
283.15
283.15
283.15
290.067
296.911
283.212
290.459
283.15
292.768
299.527
284.197
298.655
285.254
283.15
303.15
283.15
303.15
290.654
296.623
287.925
291.917
283.15
286.349
283.15
303.15
293.785
303.15
301.75
303.15
283.15
291.923
283.15
288.76
284.617
283.15
283.98
297.993
283.15
300.122
284.661
298.811
303.022
291.034
285.991
283.15
303.15
303.143
283.15
300.968
300.833
283.15
283.15
294.679
284.362
298.158
296.807
283.15
295.087
296.085
283.15
302.043
283.894
303.15
303.15
288.234
298.56
283.15
303.15
303.15
303.15
300.72
283.15
303.15
293.922
283.171
286.96
299.942
283.15
283.15
302.604
283.15
302.452
301.425
297.823
288.742
283.15
293.886
303.38
303.15
298.607
292.281
303.15
283.15
283.305
283.15
290.011
286.093
291.626
283.15
292.846
296.552
293.039
303.147
283.15
303.15
303.15
283.169
292.705
283.15
284.313
303.133
283.15
303.15
303.15
303.15
301.815
290.5
285.985
284.185
284.311
283.15
285.69
303.15
300.715
283.15
303.15
303.15
300.656
303.15
303.15
283.151
303.15
283.15
300.654
283.15
283.15
283.15
303.15
283.15
303.15
283.15
283.662
283.15
303.125
301.839
283.743
283.15
303.083
283.15
303.15
284.705
284.666
286.108
297.483
283.15
297.452
297.565
292.268
286.8
285.262
303.15
291.737
283.15
299.834
283.15
296.753
283.15
292.055
298.555
303.151
283.15
286.781
303.15
295.468
299.056
283.15
283.15
283.15
283.15
303.15
293.649
283.15
283.15
283.237
283.15
299.788
283.15
284.788
303.15
283.433
303.121
284.63
291.877
283.15
301.439
283.15
283.15
285.683
283.15
283.254
283.15
299.64
303.15
290.635
303.15
283.15
302.373
284.464
300.058
285.649
300.056
289.453
283.15
300.603
284.543
283.15
283.14
300.314
301.573
283.15
282.453
301.045
303.062
283.119
303.15
287.559
302.16
284.401
285.382
288.185
282.562
283.15
303.15
300.578
303.15
283.546
283.15
283.15
291.737
282.678
303.149
303.117
283.15
286.265
299.558
283.15
283.15
299.572
303.15
283.15
283.15
283.15
286.147
283.15
303.15
284.817
284.216
303.15
299.666
283.15
289.233
303.15
283.15
286.143
283.15
283.15
283.15
285.36
283.15
285.436
291.933
303.15
300.342
283.447
298.678
300.923
283.31
283.456
283.15
288.941
298.41
303.15
302.254
296.011
296.846
284.708
297.41
297.164
303.15
300.226
303.135
283.15
297.112
284.821
283.15
292.34
295.687
284.842
298.737
300.607
292.3
283.15
298.878
283.468
303.15
300.565
301.954
294.052
283.15
286.479
303.15
283.15
283.15
283.15
283.3
283.15
303.15
303.15
283.15
300.389
299.217
303.15
285.612
303.15
303.15
303.15
290.005
283.417
283.15
303.15
283.15
283.15
286.794
292.348
283.15
295.101
283.137
283.15
295.276
302.212
287.762
283.15
283.15
300.223
292.057
283.15
283.15
283.15
293.957
303.15
303.15
283.15
296.205
302.372
283.15
282.386
301.716
286.52
283.15
283.15
287.442
302.963
283.15
283.159
287.226
283.751
288.758
283.15
285.68
300.282
283.15
303.15
283.15
283.15
283.15
283.15
295.634
303.15
283.15
283.15
295.248
291.781
303.15
303.15
289.825
298.391
298.289
303.15
283.15
297.964
303.15
283.825
298.795
298.316
303.15
303.15
303.15
283.15
286.048
283.15
283.15
302.699
303.15
297.783
302.269
283.15
294.018
283.258
296.4
291.945
283.416
289.753
283.15
283.15
296.848
288.025
290.813
283.15
283.15
297.766
294.94
283.15
283.902
284.581
283.474
303.15
303.15
303.15
290.718
283.15
300.027
283.15
284.369
297.564
298.479
292.23
283.15
283.15
303.15
295.337
283.15
283.15
303.097
283.15
283.15
303.15
283.15
299.295
283.15
283.15
283.15
283.15
283.15
303.15
283.15
283.171
298.745
303.15
302.527
283.131
283.398
283.095
285.504
283.15
284.447
290.503
283.399
303.15
283.149
299.71
283.15
300.227
283.144
283.144
286.189
297.458
283.204
291.857
297.967
283.15
283.15
299.031
299.776
283.15
297.321
291.249
297.532
283.15
283.243
283.15
297.844
296.965
283.15
300.039
297.614
283.149
299.743
283.15
295.619
283.145
303.125
283.162
283.16
283.15
283.15
284.416
283.15
302.969
283.586
283.064
303.148
303.149
303.147
283.15
283.15
293.761
303.15
303.184
283.868
283.15
283.15
303.154
303.149
283.15
303.165
283.15
283.15
303.15
303.15
303.15
303.15
283.362
283.15
283.15
283.15
303.157
283.304
283.886
293.413
283.15
283.15
283.335
283.15
283.15
283.15
287.228
293.563
283.15
283.15
283.15
283.15
283.15
283.15
284.006
283.15
303.15
291.545
283.15
303.15
303.15
303.153
303.15
303.15
283.15
303.171
283.15
283.694
283.144
303.152
283.15
303.062
284.388
292.055
303.15
303.128
284.442
303.15
283.15
303.15
283.15
294.004
293.449
284.631
303.148
283.15
293.217
283.15
283.15
303.15
283.15
294.815
283.15
303.15
283.163
298.133
303.15
284.371
283.15
283.574
283.15
283.15
283.15
303.15
285.84
283.468
284.23
283.15
283.15
285.627
283.15
283.15
303.15
284.321
303.164
298.526
303.15
303.127
303.128
283.15
303.13
283.15
283.44
289.124
301.002
283.798
283.167
283.15
283.15
283.15
303.183
283.15
302.9
303.15
292.677
303.15
288.712
283.822
303.15
283.15
303.15
283.15
301.78
303.15
303.15
286.398
300.54
283.15
283.15
283.15
283.15
283.15
283.15
300.794
283.577
303.15
303.15
303.157
303.15
300.172
284.412
283.15
302.105
303.15
301.617
283.15
302.565
283.15
283.148
303.152
283.311
302.103
300.211
283.147
283.15
289.337
303.15
293.35
303.15
283.15
303.15
283.15
283.15
283.15
300.794
302.045
303.15
303.15
303.15
302.898
283.15
303.15
292.86
283.085
303.15
297.494
298.289
296.462
283.374
283.15
283.15
283.15
283.15
294.606
283.15
294.845
283.15
303.057
289.828
283.15
302.855
283.15
283.15
302.735
283.148
302.917
283.15
303.15
283.15
302.384
283.15
303.15
283.15
283.148
283.15
283.171
283.15
283.15
303.15
292.972
301.081
296.099
296.995
303.15
303.115
283.15
283.15
285.684
283.15
283.158
302.84
298.763
302.941
303.15
283.358
283.15
303.15
283.15
302.992
283.316
298.279
283.15
303.15
288.082
303.15
283.15
283.126
295.074
283.147
283.15
283.15
283.149
303.15
283.15
303.142
303.15
303.15
289.934
302.986
302.993
289.003
293.228
283.15
283.15
303.088
289.072
283.15
303.15
284.723
283.15
303.15
283.15
283.15
283.15
297.424
283.15
302.94
283.15
300.49
283.15
283.15
283.15
283.15
283.15
283.15
285.006
283.15
283.15
283.15
283.15
283.15
283.15
291.98
283.15
298.346
302.933
283.15
302.321
283.15
302.512
303.145
292.286
288.781
303.15
292.152
284.776
303.108
303.15
303.14
295.037
288.66
283.15
287.88
283.15
283.15
283.15
283.15
287.505
283.15
283.15
291.636
303.136
285.308
283.15
283.15
302.516
283.15
283.183
303.15
299.878
283.15
283.15
302.82
283.15
303.178
303.15
283.15
289.042
297.946
292.693
285.652
292.517
294.106
283.15
283.15
302.284
290.58
292.753
284.402
283.15
294.356
283.15
303.15
300.727
298.709
283.15
297.395
283.15
292.748
297.191
303.15
283.15
283.15
301.77
283.15
283.15
300.493
296.115
283.195
291.213
283.15
283.15
302.796
300.511
283.15
300.631
283.15
300.485
283.15
283.15
300.791
283.15
283.227
301.587
283.15
283.15
302.425
283.15
287.907
303.15
290.387
303.15
303.15
303.15
300.938
283.15
283.15
299.521
283.15
302.99
283.15
283.15
303.15
283.151
288.196
283.15
283.15
288.059
288.238
283.15
283.675
283.15
303.15
302.412
283.723
301.557
283.15
283.15
283.15
283.15
283.15
283.15
283.15
283.15
283.15
283.15
283.15
303.15
283.15
283.15
283.15
283.15
283.15
283.15
283.15
283.15
303.15
286.95
283.15
283.15
283.15
294.679
283.15
303.15
302.891
283.15
283.15
294.684
283.15
283.15
301.806
295.161
283.15
303.66
303.597
283.15
301.496
293.932
297.524
301.461
298.11
303.15
283.15
296.356
291.755
301.404
283.15
302.138
302.409
300.856
288.033
287.313
301.043
301.769
301.772
303.15
285.855
297.515
285.524
297.219
283.15
283.15
283.15
303.15
283.15
291.967
297.889
283.15
283.15
283.15
283.15
283.15
303.15
283.15
303.15
292.114
303.114
298.996
302.839
283.15
283.15
285.406
283.167
283.15
283.15
301.693
303.15
283.15
298.127
299.487
297.497
298.626
300.786
303.15
291.032
302.582
303.15
303.15
300.309
303.15
283.15
282.985
295.529
302.948
283.15
303.15
289.579
286.146
297.122
292.166
302.384
303.15
303.136
303.15
303.15
283.15
298.93
283.15
291.785
290.438
299.671
284.763
303.15
301.915
303.15
283.15
303.15
303.15
291.481
299.523
283.15
303.15
303.133
291.764
303.029
299.325
292.782
288.317
292.889
283.15
303.15
283.15
291.218
298.276
303.151
303.15
303.15
303.15
297.46
302.554
283.15
299.944
301.121
284.856
299.49
303.15
303.15
298.659
292.941
283.15
302.902
299.725
302.604
291.958
297.28
298.225
303.15
286.978
298.153
291.317
283.15
289.039
303.15
288.386
301.046
303.15
288.7
301.27
300.116
293.15
283.149
283.159
283.237
301.624
300.908
303.15
288.814
301.472
303.15
283.15
303.15
303.209
298.735
290.76
296.755
303.255
283.149
297.507
303.15
303.15
292.765
303.15
300.294
283.303
301.308
291.521
303.15
283.661
293.186
303.15
283.054
298.653
303.15
300.676
286.245
303.15
303.15
283.993
303.15
283.15
283.15
285.91
299.225
291.154
303.15
285.217
297.459
283.15
298.82
298.855
288.964
303.098
283.15
301.497
299.612
298.82
300.062
288.655
290.762
302.477
303.15
301.543
288.71
303.15
298.831
283.15
283.15
303.15
283.15
303.15
297.429
283.15
300.506
283.63
303.15
283.788
283.15
289.832
303.15
303.144
303.15
294.141
302.993
303.117
299.856
290.405
289.433
290.581
298.408
303.15
299.382
292.152
298.919
303.15
283.87
283.45
299.238
287.16
283.51
303.15
283.15
303.15
285.323
303.15
303.328
284.682
303.358
302.954
303.15
303.15
283.15
300.537
300.625
285.489
303.085
286.997
295.648
301.87
292.483
288.141
302.075
296.078
283.15
283.15
303.15
285.807
289.694
283.15
283.15
303.15
301.982
288.66
303.15
296.371
303.15
283.156
285.183
301.087
303.15
303.15
292.261
303.15
283.301
290.608
283.15
297.129
294.62
296.074
303.15
302.707
283.15
302.66
293.393
303.15
303.15
288.785
283.15
303.15
301.793
284.433
303.15
303.15
283.15
302.343
303.469
289.487
299.682
298.025
303.15
303.159
302.602
303.15
283.15
303.15
303.15
303.15
303.15
303.15
303.15
303.15
283.15
303.15
303.15
283.34
303.15
303.34
303.15
303.16
303.15
303.15
300.929
303.678
303.15
291.996
303.15
303.15
283.15
302.553
303.15
302.124
303.114
283.289
283.15
303.15
302.922
283.149
303.15
303.15
291.356
283.15
292.576
283.15
283.15
283.153
291.202
284.838
303.15
296.639
283.15
303.753
303.134
284.311
302.589
283.15
292.153
303.084
301.674
283.15
303.15
283.15
304.109
284.816
296.867
303.15
303.15
303.15
303.15
303.15
303.15
302.339
302.804
297.607
292.002
303.15
287.123
292.627
284.971
303.206
283.15
286.908
302.748
284.759
283.148
287.475
303.15
283.381
302.916
292.517
302.841
301.898
303.15
302.222
303.15
303.15
297.917
303.15
284.467
303.15
303.15
283.15
303.15
303.15
302.841
303.15
283.297
283.15
283.15
285.801
284.91
300.894
286.084
303.15
294.675
303.15
290.444
303.15
287.133
300.671
301.474
293.339
303.15
303.15
303.15
289.799
283.15
303.15
289.553
283.15
283.15
301.816
303.15
286.188
283.148
283.15
303.15
303.15
300.648
298.171
303.15
293.408
303.037
283.15
298.557
303.15
286.413
288.227
302.139
303.15
296.277
296.729
302.951
301.874
301.653
303.15
303.15
303.147
303.15
283.15
303.15
289.557
300.065
294.32
302.126
283.15
300.351
291.384
298.207
283.601
298.307
289.583
302.158
283.15
283.15
283.15
302.204
283.15
290.466
283.15
301.256
303.161
289.71
298.038
283.15
303.15
301.244
301.222
303.15
283.15
303.15
286.429
301.433
302.976
302.332
297.999
288.435
303.15
303.15
303.15
294.223
285.955
289.778
295.859
283.955
302.954
303.15
303.15
283.15
283.15
285.418
299.571
303.15
303.15
283.15
303.15
303.15
303.15
300.245
303.15
285.352
292.43
283.15
283.248
293.345
285.694
303.15
303.15
301.88
303.15
299.22
283.147
297.558
303.15
303.15
283.15
303.15
303.15
303.15
305.191
303.15
301.832
301.109
303.15
303.15
301.611
303.15
283.15
287.238
303.103
303.15
303.15
303.15
297.912
303.15
303.15
302.463
302.484
301.771
303.15
283.15
303.15
302.038
302.505
301.518
302.527
283.15
300.638
287.483
297.438
283.15
303.15
303.15
303.15
303.15
294.352
287.565
299.646
303.15
303.15
303.15
303.15
283.15
303.148
284.765
285.142
283.15
303.15
303.15
283.148
299.58
294.919
283.15
303.15
303.15
303.15
303.15
289.602
289.658
303.15
303.15
302.393
303.15
301.439
283.949
291.88
303.15
283.15
301.157
303.123
303.15
303.051
301.312
286.813
303.15
303.15
303.15
303.15
293.277
284.144
303.15
302.692
298.043
289.375
303.15
303.15
303.15
303.15
299.528
303.151
303.15
303.15
298.242
302.583
288.335
303.15
303.15
297.726
303.15
303.15
303.15
303.15
288.803
303.15
283.15
283.15
295.922
291.081
303.15
303.15
303.15
296.987
303.146
303.15
303.15
303.15
303.15
303.405
300.87
303.15
287.33
302.64
299.374
303.15
303.15
303.15
303.15
283.15
285.651
303.15
302.845
283.15
302.173
303.15
303.133
303.15
283.15
301.918
285.667
283.15
302.824
303.15
302.415
283.15
303.15
303.15
303.151
303.15
283.27
303.15
290.842
283.15
283.15
303.15
303.15
298.816
302.378
283.15
302.408
283.15
284.091
287.981
302.703
283.15
303.155
302.987
303.134
284.39
283.156
302.982
283.15
283.15
283.156
302.071
302.287
303.15
283.15
283.15
295.312
303.15
283.15
303.15
303.15
303.15
303.108
303.045
302.929
302.445
303.15
302.902
303.15
284.817
303.15
303.15
283.15
303.15
303.11
303.15
283.15
303.15
288.312
303.15
303.15
303.166
283.15
302.833
302.059
296.671
303.15
289.277
294.447
283.791
289.931
283.15
283.15
287.21
284.317
283.15
303.823
283.15
286.412
303.15
283.15
303.156
303.15
303.15
303.012
303.155
303.15
283.15
303.138
303.15
283.15
283.105
298.729
302.7
303.15
301.842
303.15
285.708
303.152
301.177
303.15
303.15
301.041
303.15
303.15
303.15
287.69
303.15
285.144
303.15
303.147
303.15
283.15
283.15
303.15
303.15
303.15
288.705
302.547
303.15
303.15
288.573
286.498
291.222
303.15
302.7
287.67
287.531
303.15
303.15
287.67
283.15
291.888
303.15
303.152
303.149
303.15
300.513
283.15
302.3
283.15
303.15
303.15
303.15
303.15
303.15
284.328
302.245
291.025
303.15
303.15
290.558
303.15
303.15
303.15
303.15
303.15
300.139
303.15
303.15
283.15
299.442
303.15
283.15
303.15
301.363
283.15
299.946
290.799
302.683
300.009
299.424
303.15
303.15
303.15
300.817
288.468
283.15
303.15
300.306
303.15
303.15
291.95
303.15
287.476
303.15
297.809
284.311
303.15
283.15
303.15
303.15
303.15
285.24
303.15
300.479
303.15
303.15
299.688
283.15
284.748
303.15
303.15
288.095
301.53
296.401
303.15
303.15
303.15
301.547
292.264
303.15
283.15
303.15
300.657
303.15
284.77
296.281
303.15
303.15
301.128
303.15
303.15
283.15
303.15
283.15
294.538
303.15
283.15
303.15
303.15
303.15
303.15
303.15
303.15
283.15
301.496
283.15
302.073
303.15
303.15
296.052
300.465
303.15
283.15
303.15
300.872
283.15
303.15
303.15
303.15
300.722
303.15
297.656
303.15
285.824
283.15
286.727
303.15
303.15
298.486
283.15
303.15
287.844
283.244
303.15
303.15
285.071
283.844
300.842
301.725
301.176
293.137
301.731
283.844
303.15
297.688
283.15
283.15
303.15
303.15
303.15
301.198
303.15
303.15
303.15
303.129
283.169
283.15
283.555
303.15
302.009
283.15
303.142
296.081
283.15
294.561
303.15
303.15
283.15
299.873
283.924
303.15
283.15
299.899
303.15
297.641
303.15
295.291
303.15
283.15
303.15
283.15
299.408
283.15
283.226
283.15
286.194
303.15
303.15
283.15
283.15
303.15
303.15
303.15
303.15
284.874
284.733
283.15
303.15
283.232
283.15
283.15
303.154
289.848
283.535
283.15
301.489
284.866
300.454
288.159
303.15
303.15
303.15
303.15
283.15
283.15
283.15
303.15
283.15
283.15
303.15
283.15
297.27
283.15
303.15
283.15
303.15
303.15
283.311
283.15
303.15
301.939
303.149
303.15
303.15
303.15
288.714
283.15
303.15
303.149
283.15
303.15
303.15
303.15
295.225
283.15
283.18
303.15
303.15
303.15
303.15
303.15
303.149
303.147
284.097
303.15
283.15
303.15
303.149
303.15
303.148
303.149
283.15
283.15
283.15
303.15
303.15
283.15
303.149
283.15
287.697
283.15
301.805
283.15
303.154
303.15
284.604
283.15
284.447
297.358
303.15
284.688
303.173
303.15
297.366
283.15
303.15
303.15
303.15
303.15
283.15
303.15
303.15
299.139
283.15
303.15
303.15
303.15
303.15
292.307
290.315
303.17
283.165
303.15
301.804
302.308
303.15
283.15
283.15
303.15
303.15
303.15
283.15
283.15
283.82
303.15
303.15
303.197
303.151
283.15
288.837
303.15
283.15
303.15
288.063
303.15
283.15
302.111
283.15
283.15
283.15
303.15
299.663
303.15
303.15
303.15
283.15
284.5
293.585
295.195
289.526
303.12
303.017
283.15
283.15
301.01
283.692
283.15
303.149
303.15
303.15
283.15
294.533
303.15
283.15
302.977
303.15
303.15
283.793
303.15
303.15
288.392
289.529
303.15
283.15
303.15
283.15
303.15
303.15
303.15
303.15
283.945
303.15
303.15
303.15
302.926
303.15
303.15
283.15
283.15
283.15
283.15
302.94
283.15
283.15
300.954
303.15
284.765
284.925
303.15
301.112
303.15
283.15
303.15
283.15
283.15
303.15
303.15
303.15
302.658
303.15
303.15
303.15
283.15
303.15
283.15
286.361
303.15
303.15
291.594
303.15
283.15
283.15
302.412
303.15
303.147
283.15
303.191
286.645
283.15
283.15
299.187
283.15
283.15
303.046
303.161
293.313
303.167
303.151
303.152
283.15
283.15
302.641
283.451
285.815
300.831
283.157
283.15
291.032
301.556
301.453
283.15
300.201
290.687
300.13
302.197
302.74
284.679
295.46
299.191
286.249
293.279
300.087
303.15
297.946
297.545
302.786
283.657
292.335
301.131
287.325
303.15
301.039
303.15
300.707
301.484
283.631
284.968
303.15
283.15
302.274
301.677
283.146
303.173
288.541
302.672
301.82
300.81
303.15
303.232
301.11
295.046
300.414
288.925
302.908
301.623
302.183
302.264
284.207
302.497
301.581
283.178
303.15
302.892
303.15
303.15
302.089
301.994
294.245
303.15
284.659
292.279
292.32
300.89
303.15
284.005
285.181
284.386
303.15
298.756
303.15
296.36
295.357
300.737
303.142
303.15
303.15
301.934
301.249
302.781
303.15
292.599
302.74
289.935
283.15
298.335
293.977
303.15
300.496
283.15
283.203
283.15
302.568
303.096
303.15
302.979
298.367
283.148
300.487
302.214
295.312
283.535
295.831
297.045
283.459
303.133
284.727
296.308
283.318
296.836
300.489
300.231
300.338
301.995
289.784
301.563
303.15
302.713
302.643
302.646
296.486
302.88
283.15
302.005
293.419
303.15
283.432
286.833
301.182
302.594
290.513
284.815
287.691
302.619
296.361
303.15
303.15
294.991
283.15
292.66
283.43
303.15
290.555
290.302
283.909
303.15
297.272
298.479
284.219
301.223
294.159
290.165
300.524
303.106
303.15
303.15
283.526
302.606
283.348
285.781
303.15
303.016
303.036
303.15
285.409
300.788
297.826
283.245
299.55
302.367
300.497
286.884
283.15
303.106
301.811
283.734
283.137
303.15
303.071
303.15
303.15
284.173
302.523
296.362
283.035
283.153
303.15
283.15
302.948
303.042
302.496
301.397
303.15
283.15
283.15
301.808
301.865
283.214
295.862
303.15
303.15
301.605
285.481
283.258
301.667
301.769
301.718
284.403
303.15
283.15
298.447
297.742
303.15
302.699
302.075
284.694
284.962
302.105
303.052
303.15
298.118
284.427
283.15
303.15
300.57
301.202
302.008
289.599
302.067
285.646
300.125
300.264
290.329
297.512
303.15
303.15
300.922
284.455
302.086
283.151
300.49
301.7
283.62
288.294
302.416
283.15
283.15
283.029
303.15
303.15
299.923
298.927
302.281
283.147
283.15
283.93
283.151
283.15
283.151
303.074
300.919
299.158
295.862
283.367
303.096
300.122
303.15
283.15
302.552
289.22
300.769
292.689
283.502
303.06
283.148
283.15
302.834
301.194
302.611
283.156
291.268
284.865
303.15
284.256
301.029
283.15
283.309
284.931
284.147
283.15
283.15
301.625
283.15
289.36
302.523
302.701
301.772
283.479
298.28
290.001
283.15
303.346
292.075
283.15
283.15
283.15
303.15
301.195
302.409
299.158
301.458
299.909
288.845
283.155
290.98
290.154
303.058
291.071
299.972
292.055
283.15
286.287
301.073
301.535
283.15
283.973
299.625
283.15
303.15
283.187
301.271
303.15
284.016
302.254
303.019
303.15
283.15
292.786
303.153
301.684
283.15
283.15
283.15
302.191
297.556
303.143
302.189
303.167
303.15
288.367
303.167
290.431
300.214
300.174
296.577
283.156
301.692
283.15
290.582
301.401
289.443
290.478
298.966
300.68
301.588
287.17
291.136
285.013
283.172
302.212
286.126
283.149
283.144
300.197
283.079
300.289
286.988
296.045
299.419
289.189
299.261
283.121
299.127
283.15
289.992
289.026
298.65
283.329
283.15
300.561
283.15
302.798
283.15
303.15
286.482
286.481
283.15
298.975
298.551
287.037
303.15
303.15
301.724
289.781
302.996
283.724
301.568
287.079
303.147
284.19
288.191
303.15
301.417
283.15
283.15
287.56
287.019
283.145
285.242
301.487
286.235
301.172
303.15
285.103
301.738
291.185
303.15
303.15
301.61
302.04
303.15
293.023
294.273
283.678
296.38
286.785
290.008
303.15
302.774
296.996
285.01
283.15
287.72
291.913
299.64
283.163
283.746
282.945
301.943
303.116
283.151
303.133
303.15
300.56
293.054
298.799
293.822
283.15
291.934
295.969
285.59
283.21
291.539
283.15
300.258
303.164
292.533
284.095
303.144
291.844
298.599
288.228
300.344
291.323
287.314
283.15
303.142
285.344
289.879
293.468
283.15
283.15
283.15
303.141
283.15
283.137
286.425
303.15
283.15
303.167
283.172
291.101
288.947
303.533
302.91
289.853
303.15
296.962
303.176
301.995
287.256
283.15
292.906
303.145
303.093
286.183
283.15
283.15
283.473
286.013
303.053
303.144
287.509
289.471
283.48
283.162
289.846
293.204
303.15
283.15
303.095
303.15
302.325
285.008
302.333
303.093
284.054
283.769
284.032
302.85
302.176
297.381
293.975
303.07
291.266
291.021
303.15
303.097
302.579
285.43
283.377
303.15
285.937
283.384
302.929
301.663
302.169
283.15
300.32
301.841
303.15
302.149
285.406
303.15
297.88
303.15
283.15
300.668
302.681
286.328
302.484
283.15
285.16
303.009
283.15
302.302
285.37
294.864
284.337
303.15
303.016
302.871
286.501
283.15
287.119
284.247
289.774
285.723
302.244
303.15
283.15
283.15
293.12
283.15
301.038
302.155
290.355
283.15
294.012
283.15
303.15
283.15
300.048
298.54
283.151
285.269
301.716
303.072
303.156
291.824
294.172
301.191
283.208
301.791
283.145
303.15
303.141
299.034
283.15
300.822
294.745
303.15
300.936
287.303
301.943
284.892
288.19
283.15
302.214
287.724
298.396
303.074
283.15
303.15
291.629
302.154
283.076
283.147
286.731
298.32
303.149
284.481
301.015
300.987
301.241
303.153
299.87
287.637
284.918
301.57
299.874
283.723
283.104
303.16
303.149
303.15
297.32
283.163
283.15
303.15
303.149
289.894
298.894
300.263
287.772
302.798
303.15
286.421
301.544
303.15
300.943
283.794
301.444
303.15
284.533
301.37
295.493
302.762
303.15
303.15
285.166
295.027
296.338
287.366
303.15
303.15
283.15
287.199
302.395
296.126
303.15
285.539
303.15
303.15
300.439
288.7
283.15
295.511
295.837
299.052
283.15
303.15
292.649
287.21
303.15
297.916
300.476
300.382
303.15
303.15
303.15
300.189
298.289
302.796
299.857
283.15
292.86
287.654
290.565
300.548
303.15
303.15
300.728
303.096
286.542
296.064
303.15
303.147
283.15
286.423
298.886
285.568
303.15
303.15
283.34
303.122
303.15
303.15
283.15
290.495
303.15
303.15
284.567
299.26
283.15
303.15
284.612
301.305
300.139
286.97
294.91
303.15
283.491
303.15
303.15
283.311
300.506
290.372
300.371
303.15
303.129
302.169
292.603
299.77
301.339
284.443
283.452
300.823
298.35
303.15
302.744
284.123
299.695
301.356
287.663
303.15
297.387
301.385
301.472
301.512
292.86
303.15
283.15
299.16
283.15
283.15
287.731
283.15
284
283.15
283.15
283.15
283.15
302.749
288.124
302.696
283.15
295.648
290.909
284.722
283.15
303.15
302.671
301.725
303.162
302.629
283.15
294.76
300.234
290.141
283.15
283.15
299.79
285.921
283.15
283.15
303.149
290.54
283.15
287.118
303.149
303.152
284.306
283.15
288.166
292.368
300.774
294.564
302.955
285.603
302.491
295.209
286.25
283.15
283.533
291.586
303.072
289.087
302.649
283.15
292.335
287.728
301.003
301.24
284.874
303.105
284.888
297.024
302.981
303.146
285.117
303.145
303.002
293.265
302.669
283.15
303.15
303.15
294.722
291.002
283.155
301.078
284.671
284.143
284.603
303.145
288.325
300.429
283.15
283.15
302.497
303.15
294.521
302.897
303.182
299.783
303.222
302.879
283.15
301.263
302.874
283.15
303.15
301.291
303.15
284.295
298.725
283.163
291.5
283.15
287.556
303.011
299.712
283.15
303.022
290.874
301.171
303.125
303.078
283.15
283.15
301.92
301.982
283.793
302.805
302.406
302.36
303.141
283.15
293.667
283.15
302.781
287.838
302.985
303.15
283.15
302.815
285.096
291.444
302.028
283.15
302.575
301.975
301.543
302.475
303.044
303.211
303.008
303.15
283.15
301.495
297.78
303.086
303.15
289.887
284.865
303.15
283.15
285.286
303.184
303.165
302.915
301.112
284.251
303.096
290.631
294.18
303.148
289.002
303.164
283.15
289.796
283.15
299.925
298.08
284.759
288.139
299.581
296.619
295.244
299.131
293.717
303.153
293.781
296.334
283.161
299.343
293.809
303.15
298.861
299.098
303.15
291.13
303.172
301.656
303.15
286.897
286.005
302.795
289.631
283.15
283.15
300.325
301.114
283.712
283.15
303.15
300.192
302.307
300.582
299.826
302.78
292.531
289.6
286.606
292.444
284.295
290.358
283.303
295.653
290.389
293.883
287.05
284.268
303.163
283.27
303.148
285.579
300.689
283.151
300.363
298.351
288.704
302.084
285.377
299.033
283.15
302.949
283.154
283.116
287.626
299.621
303.15
300.319
303.016
299.889
302.754
303.15
301.231
284.941
294.868
302.03
303.149
283.703
283.15
290.251
285.223
285.734
303.128
303.148
283.15
283.15
283.176
303.15
293.414
303.15
303.149
294.207
303.431
303.15
300.392
303.15
303.15
293.619
290.563
303.15
289.792
302.04
289.519
303.15
303.15
285.913
283.331
290.277
303.225
303.15
303.145
285.453
283.244
283.15
288.939
287.559
303.15
284.294
303.15
303.15
303.132
287.304
303.15
303.147
283.275
303.152
302.655
287.883
283.152
283.594
297.283
290.692
303.15
285.914
284.414
301.301
287.078
302.197
290.544
293.805
303.15
303.15
284.001
303.148
302.942
295.822
302.938
302.735
287.141
283.15
285.294
283.217
297.075
302.577
285.355
303.15
283.786
286.69
303.124
283.175
303.15
286.356
283.15
300.09
303.15
299.686
299.849
283.252
283.357
302.313
290.786
301.31
303.15
301.371
301.723
303.15
303.15
298.287
293.361
283.15
288.731
303.15
295.169
283.355
303.15
296.845
298.663
288.948
303.15
302.751
294.149
295.312
284.453
303.161
298.626
296.057
283.971
303.123
302.795
287.336
298.377
289.778
290.754
289.698
283.15
302.939
303.152
303.15
303.175
293.018
296.245
302.973
301.266
303.15
284.438
303.15
303.039
302.853
303.15
293.491
296.18
303.15
285.358
303.095
303.15
303.088
303.158
286.044
293.273
291.065
288.368
293.355
303.15
301.177
291.356
295.301
293.398
303.141
303.15
300.524
303.189
284.232
303.19
303.15
303.15
303.143
303.15
284.923
303.15
284.211
303.146
303.15
290.174
303.144
292.42
295.461
303.133
295.263
285.969
283.443
303.124
302.932
284.662
283.15
297.057
303.15
285.485
302.909
302.02
303.015
298.373
287.025
303.15
298.645
289.86
299.305
283.15
283.608
303.15
303.145
303.19
294.015
303.15
292.38
289.298
303.195
303.15
284.773
298.703
293.164
299.535
302.463
301.568
300.343
303.15
284.704
296.899
302.354
285.562
298.299
292.232
284.454
291.585
303.15
286.613
291.769
290.089
299.391
303.15
286.426
284.078
303.15
302.414
288.107
302.087
283.15
303.15
299.786
301.671
288.951
301.964
301.895
301.788
303.15
289.271
285.113
301.942
302.22
297.088
303.15
283.201
303.15
301.964
303.15
302.791
303.15
291.62
303.15
296.446
283.15
289.393
303.15
283.15
292.148
301.413
300.37
289.159
300.45
303.15
302.483
303.15
302.357
285.188
303.15
300.357
290.35
303.15
300.764
303.15
303.15
293.135
283.15
285.53
293.17
300.883
303.15
291.115
293.795
288.142
289.616
288.078
299.176
300.228
300.755
287.339
287.073