/*--------------------------------*- C++ -*----------------------------------*\
  =========                 |
  \\      /  F ield         | OpenFOAM: The Open Source CFD Toolbox
   \\    /   O peration     | Website:  https://openfoam.org
    \\  /    A nd           | Version:  10
     \\/     M anipulation  |
\*---------------------------------------------------------------------------*/
FoamFile
{
    format      ascii;
    class       volScalarField;
    location    "47";
    object      SgP;
}
// * * * * * * * * * * * * * * * * * * * * * * * * * * * * * * * * * * * * * //

dimensions      [1 -1 -3 -1 0 0 0];

internalField   nonuniform List<scalar> 
59698
(
0.00309481
0.00189796
0.0023957
0.00281374
1.14034e-06
0.00145199
0.00249702
1.11246e-07
1.98789e-09
3.91959e-09
0.000586477
1.81911e-09
1.58148e-09
0.00237116
2.74116e-08
4.26282e-07
9.40944e-09
4.00274e-09
1.64822e-09
5.90738e-10
0.000365183
1.55923e-06
0.000498612
8.81924e-08
1.978e-07
1.24558e-09
1.23151e-09
0.0024818
0.00239308
2.11885e-09
1.35096e-07
0.000600689
6.68103e-08
0.00403569
1.11232e-06
3.94693e-09
0.000465017
5.05166e-07
1.75903e-08
0.00245275
2.97191e-08
2.30463e-07
2.31426e-08
2.4565e-08
0.000402108
1.04865e-07
2.75456e-09
4.88356e-08
0.00290853
3.26131e-08
2.95338e-10
2.41599e-09
0.00178439
0.00272948
0.00216807
2.10235e-09
8.45418e-08
1.5562e-08
1.77262e-08
2.74454e-05
0.00178294
6.28189e-08
1.9886e-07
1.56443e-09
5.00685e-07
4.16813e-08
1.75059e-09
3.33059e-09
4.29128e-09
6.76634e-09
6.37785e-07
2.79491e-08
0.000359567
1.59393e-06
0.000411955
1.11366e-06
2.15812e-08
2.2322e-08
6.39452e-09
9.17984e-09
4.80073e-07
9.8733e-10
4.00401e-09
8.34113e-09
1.70074e-05
3.14533e-08
9.15522e-09
2.29235e-07
2.34159e-06
2.37305e-08
4.50688e-09
6.36021e-08
1.70432e-07
6.84878e-09
6.28538e-08
0.00372239
1.34624e-07
6.13754e-08
4.91085e-08
8.59463e-10
0.00353636
2.07589e-05
2.95112e-07
0.00329256
5.51747e-08
0.000564778
2.40662e-09
2.4074e-09
2.68753e-09
4.40952e-10
3.84958e-08
2.72372e-06
1.36738e-06
1.56284e-07
1.00839e-07
3.53508e-08
3.60584e-07
0.00366108
3.08281e-07
1.13476e-08
2.30576e-09
2.97914e-07
2.25715e-07
3.45647e-09
1.68109e-09
7.86471e-09
8.00418e-09
7.19765e-09
1.33912e-08
3.99224e-07
0.003356
3.95839e-09
1.10491e-09
1.88057e-07
6.28199e-08
3.23995e-09
5.08324e-07
2.29434e-10
1.77792e-09
5.64295e-09
2.16018e-08
0.00240402
0.00252093
1.58662e-09
1.96816e-07
7.94656e-10
5.53658e-07
3.93225e-07
0.00465181
7.0553e-07
0.000257291
0.000434377
2.83691e-08
2.63448e-07
9.29752e-09
1.04562e-07
7.81274e-09
0.00168872
6.72447e-08
5.75452e-10
3.06887e-09
7.85204e-09
2.20721e-08
9.7148e-08
1.85385e-08
0.00222897
1.09667e-09
0.000567278
0.00152525
6.91634e-09
2.55284e-07
1.50988e-06
2.18005e-07
9.2537e-07
5.75258e-07
0.00122061
4.37593e-09
0.00139602
0.000326018
0.00293307
2.25154e-06
7.41139e-07
3.99109e-07
1.16297e-08
2.52611e-07
6.76175e-08
3.71351e-07
0.00242339
1.24827e-10
1.84281e-08
6.41887e-09
7.29835e-09
2.29752e-08
6.06233e-07
1.22203e-07
0.00432113
1.74739e-06
0.00294366
1.2774e-05
9.07262e-08
0.000227075
6.72597e-07
1.50335e-09
2.61046e-09
0.00356766
0.00244687
3.55725e-08
0.0020581
0.00270787
0.00350318
0.00251172
6.11017e-09
0.00262717
1.56785e-08
2.30504e-09
0.00349017
1.02149e-08
4.54583e-08
1.54999e-07
4.65815e-09
1.37335e-05
0.00217454
1.7852e-09
5.08867e-07
8.89178e-09
0.00274729
2.11481e-08
5.5009e-09
4.85331e-08
6.81413e-07
7.55721e-09
1.87394e-08
7.40657e-09
1.13192e-08
9.74583e-09
9.36583e-09
3.0579e-07
2.0137e-08
1.82481e-07
8.18185e-09
0.0027062
1.18811e-07
3.47024e-08
0.000664542
8.941e-09
2.218e-07
2.29324e-05
3.51665e-06
5.28255e-09
5.12231e-09
6.15572e-08
6.16543e-09
3.08269e-08
0.000233553
1.99303e-08
0.00169897
1.09979e-07
5.43635e-08
0.00325509
2.76421e-09
7.84222e-06
1.80915e-09
7.83938e-09
0.00270837
0.00357836
8.51549e-07
1.12017e-09
1.06724e-07
2.05462e-08
6.11911e-10
3.23163e-09
1.53425e-06
6.91237e-05
6.66865e-10
1.23987e-07
5.01673e-08
0.00151615
3.9781e-08
2.95586e-09
1.22985e-09
0.000574139
1.84514e-09
1.72047e-09
4.66859e-07
0.00335021
1.02091e-07
5.27066e-09
0.000647239
3.82922e-07
1.00231e-07
2.67213e-06
0.00232503
9.60681e-09
1.40206e-09
7.0284e-07
0.00283328
4.82626e-10
1.52195e-07
1.45007e-08
6.65167e-07
3.07595e-09
2.36415e-09
6.86668e-08
5.99188e-10
1.10989e-09
1.19392e-09
3.63251e-07
2.19292e-08
5.37516e-09
5.23438e-10
0.00196759
4.40075e-08
3.71778e-09
2.37995e-08
0.00198537
5.59912e-09
0.000403389
8.30146e-09
0.000829308
8.5198e-08
9.53038e-08
3.13438e-07
1.67274e-08
2.9661e-09
1.65622e-06
2.56265e-07
1.60702e-08
8.69538e-09
4.39984e-10
0.000361923
0.00289994
4.01964e-08
3.58763e-07
2.45698e-06
0.000430954
1.03026e-08
8.0478e-09
4.28319e-09
1.39707e-07
0.00122098
2.13424e-08
0.00206217
0.00258983
4.95022e-09
1.00307e-07
1.33566e-09
2.62117e-10
1.25121e-06
1.39927e-09
0.00203384
9.21826e-10
1.47031e-08
1.25473e-06
7.9569e-10
9.4418e-07
0.00191565
2.6994e-06
1.46295e-08
3.42248e-08
1.82577e-09
2.20626e-08
1.11247e-08
1.1041e-07
3.59626e-09
1.18079e-10
1.04125e-07
0.00289968
0.00201718
2.93238e-08
9.80315e-07
1.13285e-07
0.000533991
0.00379244
0.000651139
2.08551e-08
2.99143e-09
3.75838e-08
2.16296e-09
0.000460521
2.49409e-09
0.000347124
4.61253e-08
4.51266e-08
5.15473e-08
8.75149e-10
6.76757e-06
1.12172e-08
0.000544826
8.93725e-10
3.51089e-08
2.11549e-08
0.0004575
0.00330063
3.32635e-09
5.37913e-05
0.00179759
3.65675e-06
0.00189344
0.00278849
8.41499e-08
0.00243871
0.00236484
0.00266081
5.48776e-09
0.00153804
0.0043307
0.00383971
0.0027628
5.92955e-09
8.2555e-07
1.88128e-07
0.0004043
0.00163748
0.000434524
4.84698e-10
2.05763e-07
2.03713e-09
2.25931e-06
0.00189809
0.00175779
0.00292207
0.00226134
0.00249159
0.00166479
8.13815e-09
2.11503e-09
7.86153e-09
1.70791e-08
0.00143432
5.48432e-10
7.79625e-09
0.00195918
0.0011657
2.34767e-08
3.70787e-08
1.4445e-08
1.39901e-08
0.00126203
3.53662e-09
0.00211827
1.92329e-07
0.00328735
5.13318e-09
4.56192e-08
1.93069e-07
2.01924e-06
8.59976e-08
4.51331e-10
2.25234e-09
1.29214e-07
0.0026293
6.98464e-09
7.31362e-08
1.96855e-06
6.1217e-07
1.19322e-07
3.39729e-07
1.38824e-09
1.1531e-06
1.71142e-07
6.08875e-08
4.60197e-09
0.00320864
6.46177e-09
2.20087e-09
2.02463e-07
3.50743e-07
9.3119e-09
4.44439e-08
6.20098e-09
0.00247467
4.42584e-09
2.06213e-10
6.9084e-09
6.3147e-08
2.03712e-06
8.09488e-07
2.16749e-09
0.00300899
0.00194626
2.44073e-08
2.1468e-07
1.65045e-08
1.90483e-08
2.52153e-07
4.26432e-08
4.61695e-08
2.0366e-08
1.60024e-09
1.64417e-09
2.48914e-07
4.11316e-07
3.76658e-10
4.38662e-08
0.0040207
2.20457e-07
1.59289e-08
0.00245315
3.72047e-08
0.000365619
9.70272e-10
1.18119e-07
2.03716e-07
1.21196e-08
1.71066e-08
1.12044e-09
8.42832e-08
2.1574e-09
5.27349e-09
8.28304e-09
5.76305e-09
7.86362e-09
1.36693e-06
5.41924e-08
1.60554e-08
2.64825e-09
6.87044e-09
9.68488e-09
7.03894e-08
2.48583e-08
1.71823e-08
3.46782e-09
5.06963e-09
3.86333e-09
2.18724e-09
6.32098e-06
3.29819e-08
2.91401e-09
0.00339748
0.00370813
2.99692e-09
0.00385349
1.82779e-08
5.69696e-09
0.00150462
3.56406e-10
1.3553e-08
0.00178839
1.95654e-09
0.000384877
4.32331e-08
2.6842e-09
4.64765e-08
2.98237e-06
1.48259e-08
5.19929e-09
8.93471e-06
0.000167048
1.87122e-08
7.45936e-06
1.87973e-08
2.284e-09
3.19477e-08
1.9128e-09
5.25715e-09
1.49117e-08
1.924e-08
1.62045e-08
2.58106e-09
2.23748e-09
0.000768497
1.7496e-09
1.62163e-08
1.03106e-05
1.56351e-08
1.80908e-09
1.21638e-06
2.32117e-08
8.58549e-09
0.000539255
7.77325e-10
7.87875e-09
1.90918e-07
1.57828e-09
4.418e-08
1.30542e-09
3.03636e-10
4.34436e-10
0.00200343
2.31309e-09
0.000732638
4.0646e-08
0.00320762
1.56601e-08
3.28649e-09
0.000313367
1.18192e-09
1.41267e-08
1.78792e-08
1.64077e-08
1.99068e-09
0.00316749
8.43806e-09
1.74555e-08
8.51279e-10
4.24182e-08
9.29014e-07
0.00264856
0.000349776
7.30294e-09
7.94999e-09
1.64047e-09
2.86133e-09
0.00349843
1.35486e-08
4.42967e-09
2.609e-09
0.0010876
0.00385605
1.55652e-08
1.28553e-08
1.57127e-09
1.14249e-08
4.29922e-09
4.13173e-09
5.13161e-09
5.04777e-09
3.61211e-08
7.84672e-05
7.4669e-09
5.02289e-09
7.8841e-09
1.82374e-08
2.54063e-05
0.00241926
1.10474e-08
0.00266357
1.63244e-09
8.76339e-09
4.32331e-09
0.00269465
0.000211218
9.91926e-10
8.40102e-09
7.03489e-10
2.86106e-08
6.31144e-09
2.88401e-09
0.00156963
0.00323671
1.27917e-07
1.68063e-07
0.000607886
1.44893e-09
5.07914e-09
1.60478e-09
4.26637e-07
0.00214571
3.50565e-08
1.78236e-09
0.000439476
7.90296e-09
3.1819e-08
3.32686e-09
2.38103e-09
4.54462e-09
9.4426e-10
7.66776e-06
1.01448e-09
0.00182038
5.16177e-08
1.12027e-07
6.86617e-09
1.54543e-06
3.46246e-06
5.38966e-09
2.15538e-08
0.00239456
0.00311015
7.30822e-08
3.86975e-09
7.8507e-07
1.63178e-09
0.0035587
3.24486e-10
1.95821e-08
0.000428464
0.00255413
4.28726e-09
1.66366e-09
1.96433e-07
6.0973e-07
3.53431e-07
0.000378102
0.00139638
1.20049e-10
6.62071e-09
8.53351e-10
4.63332e-09
0.00277468
2.71689e-08
0.00302874
1.00943e-08
0.00131533
0.00209608
0.00244722
6.39766e-08
4.11634e-09
0.000650601
1.32875e-09
2.31967e-10
1.03775e-09
4.35429e-09
1.8151e-08
4.69053e-09
1.49107e-09
9.21977e-08
6.97094e-08
7.69084e-09
2.72e-09
0.00186398
4.17928e-08
3.59061e-08
0.000362132
9.97096e-09
3.4655e-08
3.82613e-08
2.01745e-09
1.36421e-09
0.000646938
0.00196367
0.00241497
4.00129e-09
1.11777e-08
6.78336e-09
1.63574e-07
0.00194619
1.34315e-09
5.68338e-07
2.6749e-08
1.3181e-05
0.000344566
0.00169854
2.25057e-07
1.48101e-07
2.22957e-08
0.00440797
0.000532168
1.8956e-08
9.00567e-07
3.61359e-09
7.05357e-08
3.45142e-06
0.00231958
2.45535e-08
1.20668e-07
1.00779e-07
1.59154e-05
2.50556e-08
0.00185648
2.42186e-09
5.18587e-08
1.16171e-08
0.00212974
7.06232e-10
6.46043e-09
2.07691e-07
4.48758e-06
0.000599772
1.13107e-07
7.0088e-08
0.000383645
4.15915e-08
2.50761e-09
0.00196734
0.00219674
5.51524e-09
8.01487e-09
0.000401553
1.01752e-08
1.7422e-08
0.000373922
3.51287e-10
0.00273986
2.55899e-09
1.93376e-08
1.87757e-07
4.11222e-09
3.95902e-08
3.60763e-08
4.9908e-05
3.75426e-09
6.0993e-09
7.08598e-09
1.17664e-08
9.70611e-08
1.53984e-08
0.000326091
7.04328e-09
2.03511e-08
0.00145208
5.66977e-08
9.85098e-08
8.54635e-06
0.00187235
2.40583e-06
0.000541616
6.95555e-09
0.000383024
1.64419e-08
4.3492e-09
1.61872e-09
0.00324497
3.94844e-07
3.24933e-08
7.12866e-05
6.43828e-08
0.00157968
1.68676e-07
9.83219e-06
3.57267e-09
0.00100439
3.2683e-09
0.00130488
5.37255e-05
2.45121e-07
0.000651796
0.00185406
1.23044e-06
1.11183e-05
4.28385e-09
1.12824e-06
2.55981e-08
4.09432e-05
0.000444762
0.000428761
0.00211179
3.52304e-08
3.18496e-08
0.000561236
4.52602e-08
0.00235351
7.10246e-10
0.000401154
2.33799e-09
2.75316e-09
2.943e-05
0.000503644
0.000206063
0.000108533
7.69771e-09
5.15036e-09
1.91387e-09
0.000487284
1.97588e-09
0.00350809
0.0049009
2.47904e-09
0.000499716
2.05877e-09
1.0147e-09
2.92525e-09
3.30815e-06
0.000469636
3.04691e-09
1.30475e-09
1.05406e-06
4.35217e-09
1.12196e-07
3.93148e-09
3.10241e-09
8.847e-08
2.63804e-07
3.11902e-08
1.07512e-08
0.000532564
8.1578e-10
0.00012759
2.7992e-10
2.47275e-09
0.00124308
1.4833e-09
7.74672e-06
8.98253e-08
7.43156e-09
0.000108821
1.29507e-08
0.00157162
2.72496e-08
4.59435e-10
0.00174582
5.91218e-09
1.13411e-08
0.000307138
1.24544e-09
0.00212894
1.74887e-08
1.51636e-09
0.00438033
3.05409e-09
5.481e-09
1.49447e-08
1.64678e-08
0.000319936
8.2472e-09
5.59992e-09
1.70169e-07
0.00180907
0.000633466
0.000584063
2.2423e-08
1.77087e-09
0.000379941
0.00245131
6.78199e-09
8.57948e-09
5.57317e-08
1.19742e-08
3.017e-09
2.56033e-08
0.000412259
0.0015
0.00271704
1.49184e-07
2.03647e-09
0.00276333
0.0041475
0.00538738
5.06998e-08
1.81237e-08
1.55598e-07
4.40668e-07
1.80761e-08
2.77801e-08
7.85872e-07
2.90774e-08
7.49962e-09
8.14346e-09
1.35481e-06
7.29463e-08
7.36904e-09
0.0025423
1.6215e-09
5.99564e-08
1.87658e-08
2.81895e-08
6.49817e-09
3.85576e-10
0.000761137
1.88594e-08
3.11263e-09
0.00193676
1.91045e-08
2.39088e-08
0.00328172
2.9389e-08
3.33291e-07
5.70104e-09
2.05511e-08
2.49642e-08
0.000825751
3.09471e-08
0.00227658
1.8278e-07
2.05333e-07
3.7924e-08
0.00552443
0.000295014
4.81015e-09
5.64167e-09
9.92328e-07
1.45503e-09
1.16018e-08
8.5481e-09
0.00167222
1.1709e-09
2.28671e-09
8.13918e-09
2.47752e-09
3.57515e-08
2.39005e-08
7.53655e-09
0.000429221
0.00219277
0.000466222
6.29849e-08
0.00314139
0.00256353
5.58952e-08
1.81979e-09
0.00183291
6.43311e-06
0.0015462
0.00208218
0.00203131
3.32865e-09
6.08352e-08
0.0023784
1.96546e-07
3.34806e-08
1.8852e-07
2.64592e-08
0.000443732
2.17591e-08
0.000538421
1.70189e-05
2.57355e-08
0.00196167
1.99944e-08
0.000608731
6.8829e-09
1.79327e-08
1.20406e-09
3.99188e-08
0.00153657
0.00377519
1.2614e-09
0.000395622
0.00188713
0.00140184
0.00278312
5.67421e-10
1.01101e-08
1.17396e-09
0.00355439
8.06036e-10
1.29718e-07
0.00356084
5.71803e-09
0.00359815
0.0035168
0.00379092
1.54735e-08
5.71491e-08
4.63171e-08
9.00791e-09
1.108e-08
6.15087e-08
1.32202e-08
4.9318e-09
0.000475237
3.717e-09
3.70821e-08
2.76018e-07
5.61723e-10
0.00162435
2.93656e-08
4.82455e-09
6.66814e-08
2.75206e-10
7.00797e-08
4.05313e-09
2.03345e-07
0.00306618
3.11481e-05
9.23555e-10
1.56046e-08
0.00210095
0.0031493
1.78127e-07
0.00076042
9.97463e-09
7.76673e-09
0.00257395
2.22466e-08
0.00322068
0.000542246
1.04649e-09
7.28129e-08
0.000765797
1.67782e-08
2.49713e-08
0.00250176
6.37259e-09
1.35728e-08
3.11786e-09
0.000534601
3.14791e-06
0.00193138
1.82059e-07
9.39137e-09
0.00175017
1.37796e-07
2.54249e-10
5.96525e-06
2.18427e-09
7.19347e-07
0.00129401
2.70418e-09
9.6658e-10
1.18751e-08
5.84128e-09
1.5479e-08
5.85898e-09
1.26249e-08
1.03587e-06
9.92276e-10
1.3219e-09
0.00176136
4.65371e-09
5.32567e-06
2.96132e-08
6.1964e-06
1.3034e-06
1.21053e-06
5.32839e-06
1.26163e-06
5.35497e-09
1.65755e-08
0.00100306
3.13171e-06
2.47993e-08
2.24348e-08
2.57111e-08
0.000449091
1.36909e-06
8.16388e-08
2.28718e-07
3.56663e-09
0.00226279
4.91005e-09
1.22628e-08
2.08789e-08
1.18566e-08
2.99215e-08
0.0021256
5.58228e-08
2.40671e-08
1.86737e-08
4.84627e-09
0.000477736
2.2493e-09
5.35486e-09
3.35176e-08
2.47871e-10
1.42584e-09
6.14582e-09
9.35352e-09
1.41977e-08
0.000332521
1.18235e-08
1.31681e-08
2.58981e-09
2.00744e-08
1.29164e-08
1.01796e-08
5.84812e-08
0.000380629
0.00250621
1.59046e-08
8.29764e-09
0.00284486
1.70199e-09
4.31219e-05
0.00203076
4.97689e-09
7.13175e-07
1.52535e-06
0.00186578
2.20687e-08
3.29926e-08
2.25404e-07
1.74379e-05
8.67e-07
2.17958e-07
1.39905e-09
3.79445e-09
4.25026e-07
1.08933e-07
5.91021e-09
1.5602e-09
1.24008e-08
7.53512e-09
3.0566e-06
0.00129442
6.41342e-08
3.68695e-08
5.28494e-08
0.00264606
0.00253755
9.32851e-07
1.51361e-08
3.38918e-08
4.01502e-08
4.46247e-09
2.90007e-09
1.81479e-07
4.22297e-09
3.4583e-08
2.10736e-09
1.26625e-08
2.26777e-08
3.41314e-09
4.16148e-07
2.93658e-09
0.00043443
9.50525e-08
0.00394815
0.00165204
1.12437e-07
2.16421e-08
0.000579702
0.00034517
2.77933e-08
2.34236e-08
9.34547e-06
2.29429e-09
1.93904e-09
2.44392e-08
1.73646e-08
0.000781455
0.000646969
9.57677e-09
1.22412e-08
7.93565e-09
3.44718e-07
5.05358e-08
0.00275991
0.000496398
1.38021e-08
0.000238786
7.21261e-09
0.000315423
0.00022781
0.000223591
2.80732e-08
1.05447e-07
1.81356e-09
1.01242e-07
2.54137e-08
0.00240341
4.90472e-09
4.26895e-08
6.91581e-09
7.70002e-08
2.27608e-05
0.00194501
0.00235683
2.20009e-08
3.08539e-08
0.000377612
4.01905e-08
1.03793e-06
1.04907e-08
0.00304788
4.16329e-08
2.26579e-08
8.53041e-06
0.00262287
6.84377e-08
2.29259e-08
0.00131289
2.04643e-08
4.64674e-10
1.39061e-09
4.30165e-09
3.19348e-08
1.32755e-08
6.13167e-10
2.30963e-08
3.69167e-08
1.13354e-08
6.07201e-08
1.80545e-08
5.51848e-07
0.00191142
2.91376e-09
1.60223e-08
5.83658e-08
0.00200094
8.74323e-07
2.0219e-08
0.000373916
2.96276e-09
2.25158e-07
1.46158e-07
0.000983777
3.58827e-07
3.21752e-10
1.21859e-07
1.40109e-08
1.22672e-07
5.0962e-08
3.22432e-09
1.58408e-07
6.88481e-09
8.69821e-08
8.33017e-10
0.000584266
5.01485e-08
0.002074
1.40296e-09
6.48967e-08
2.17179e-06
1.07223e-08
4.72454e-06
4.7896e-09
6.60857e-10
2.45854e-07
4.18554e-08
5.01031e-09
1.71896e-05
6.10927e-08
7.67812e-08
0.000547249
3.08379e-09
0.000563699
3.25254e-08
2.25767e-09
7.72034e-09
5.79998e-09
1.98349e-08
3.90415e-07
3.24329e-07
1.50185e-07
0.00246769
2.10569e-07
0.0039321
0.00209529
0.00329183
8.50147e-08
2.30992e-07
0.00143523
3.96663e-09
2.47454e-08
3.05705e-08
0.00236959
9.35497e-09
0.000635586
0.000492199
2.87319e-09
0.0026259
5.11954e-06
0.00263999
1.89495e-08
0.00249651
5.58853e-08
0.000340287
1.66649e-09
3.8731e-09
4.26437e-08
0.000746736
7.83363e-07
4.16183e-10
2.69763e-08
6.35287e-10
0.000532961
0.00031361
5.69789e-08
0.00190927
4.55653e-07
0.000544605
3.1992e-08
5.60431e-10
6.11589e-09
2.5934e-09
8.95371e-08
2.04482e-05
5.69608e-09
1.34184e-06
4.4991e-08
4.22797e-08
4.65504e-09
9.87725e-05
2.24247e-07
1.85985e-09
6.39271e-09
0.000432452
1.08371e-06
7.79627e-08
0.00152081
1.76802e-06
1.49297e-06
7.77596e-09
8.50139e-09
4.05407e-09
0.000681518
2.70686e-08
5.48617e-09
1.49753e-08
3.62553e-07
9.94062e-07
2.03523e-07
1.82212e-09
3.15591e-06
6.73275e-07
7.49389e-09
5.97991e-09
5.5104e-06
2.51677e-09
5.21487e-09
0.00246635
0.00229012
6.17319e-08
4.50407e-09
1.15802e-09
3.39835e-08
0.00192978
2.59786e-07
1.34611e-06
5.57984e-10
5.51058e-07
3.25843e-08
0.00111997
0.000444879
6.52129e-07
2.48144e-08
3.41527e-06
5.20169e-07
0.000100638
2.2323e-09
1.88058e-08
0.00118805
2.54828e-08
7.85007e-07
5.8928e-07
2.02738e-06
1.22617e-06
1.16786e-08
0.00162305
1.31109e-05
2.48704e-09
1.22015e-08
4.72111e-09
0.000427673
0.00011352
1.91508e-08
0.000637651
1.22184e-07
7.27207e-05
0.0029247
0.000398952
0.00281992
0.00183704
0.00221777
4.4948e-10
2.86107e-06
8.44819e-08
3.45503e-06
1.49105e-05
2.21828e-06
2.01719e-09
3.98354e-07
1.47846e-08
3.3131e-07
0.000761567
2.87481e-07
9.12454e-10
0.00178403
1.45127e-07
0.000207826
1.83352e-07
4.24871e-07
5.01482e-09
4.01869e-07
2.19336e-07
0.00156803
2.09761e-07
3.5696e-08
1.49745e-07
2.59741e-05
0.00129738
0.00136245
0.00293922
4.8165e-09
0.000502802
0.00155109
0.00175316
0.00149465
2.40852e-07
0.00224788
2.68227e-07
4.71008e-09
5.4622e-09
6.77075e-09
0.00152564
0.00183363
5.63142e-09
1.45061e-08
8.42757e-09
4.22939e-07
0.000298099
0.00368272
0.00140432
8.19289e-08
0.00247911
8.2595e-10
3.62435e-08
0.00112933
0.000804555
5.36092e-09
2.78606e-06
1.21889e-08
6.33176e-09
0.00351988
6.36206e-09
0.000423289
1.17211e-09
0.000378709
0.000405407
0.000581336
0.0019093
3.38951e-07
0.0016163
1.26975e-08
1.17988e-05
0.000460533
0.00124699
0.00220787
0.00109665
7.5346e-09
0.0012444
8.97239e-09
1.59928e-08
0.00292775
1.64015e-07
6.6423e-06
5.66774e-08
5.19982e-08
0.000573422
1.43531e-06
3.27484e-09
1.49365e-07
4.36421e-07
0.000403311
0.00219829
2.81381e-07
7.62005e-09
0.000614679
1.85504e-08
1.56442e-08
5.13499e-08
6.04553e-07
0.00214117
3.68737e-09
0.00241635
8.43122e-10
0.000256108
0.00433597
8.69246e-09
3.03341e-06
0.002429
4.99582e-05
5.12097e-06
2.4702e-09
0.00177858
0.00277879
5.08215e-10
0.000489116
8.34796e-07
0.000618779
1.49138e-08
8.49612e-07
5.12676e-07
3.52525e-08
7.68787e-11
0.000345787
0.00131379
6.81628e-09
1.20908e-09
0.00218131
1.11151e-08
2.20329e-09
3.73763e-08
1.87752e-09
7.8787e-08
0.00354114
0.00209326
2.65187e-08
5.48296e-10
0.0022113
2.03681e-07
0.00270361
2.77406e-09
1.90477e-06
4.56405e-08
7.43468e-09
2.75137e-09
1.07125e-08
0.00333555
5.04147e-09
2.79453e-07
0.000274722
0.00237688
0.000453101
1.3789e-08
1.17815e-06
2.56675e-09
0.000229091
0.00228075
9.13253e-10
3.74439e-09
3.97695e-08
3.30967e-08
0.00050253
2.62086e-07
0.000529723
1.92324e-07
6.60739e-09
5.869e-11
4.97128e-08
0.000221081
0.000394062
5.42653e-09
0.00384295
0.00245682
9.35762e-09
3.05696e-10
3.94254e-09
7.327e-09
3.80992e-09
1.553e-08
0.00275147
0.000620083
0.000514079
7.76097e-05
0.000348218
0.000381682
2.90808e-09
4.26979e-08
1.55047e-09
3.02414e-08
1.88611e-08
0.00234601
1.0892e-08
4.98175e-09
0.00115947
1.9032e-08
7.92833e-08
8.74692e-08
1.76367e-09
8.42341e-08
3.50773e-08
0.00220974
5.38153e-09
1.48849e-08
4.36374e-09
1.58344e-08
2.13114e-08
0.00377548
4.52833e-07
1.13914e-07
7.33089e-08
1.04135e-09
4.53001e-05
1.24481e-06
3.20823e-09
5.74647e-07
1.23581e-05
1.05019e-08
1.12937e-08
1.04104e-05
2.03084e-06
2.48733e-07
0.00304103
3.99397e-09
3.98012e-07
1.44808e-06
0.00290143
2.24974e-07
4.14053e-10
1.9296e-06
1.52758e-05
3.46363e-07
1.03462e-08
1.70323e-07
4.59527e-08
6.621e-08
1.99843e-08
3.31387e-08
0.00185742
2.24259e-09
1.18144e-08
1.11943e-08
6.77112e-10
4.64371e-09
9.30808e-10
0.00421423
1.2411e-07
2.01246e-09
3.30478e-09
3.18785e-09
1.0831e-09
5.06686e-08
5.17703e-09
2.83725e-09
5.48768e-08
1.33645e-08
0.00228554
3.06201e-09
0.000384377
3.4726e-08
1.17215e-07
1.8857e-08
1.21282e-06
1.01783e-09
0.00315759
9.75902e-09
0.00178969
2.96119e-07
4.02829e-08
1.39329e-08
1.82408e-06
2.74787e-09
3.74323e-09
2.93292e-09
0.0002591
0.000626647
0.0021367
1.00317e-07
1.58622e-07
0.00227937
1.72798e-06
3.36535e-09
1.42822e-08
2.97779e-07
1.06527e-08
0.00425451
2.77327e-06
0.00307945
2.74309e-08
7.9598e-09
0.00158886
0.00149241
0.00180574
1.70976e-08
1.46992e-06
0.00190157
1.73681e-09
1.23343e-05
1.51485e-07
0.00183788
0.000459313
1.80697e-07
0.00238716
2.04677e-05
6.22968e-07
0.00205392
0.00224342
1.98984e-08
0.00237869
0.00311875
0.0018695
2.49331e-08
4.38549e-09
6.27349e-09
7.94924e-10
2.8113e-09
0.00162998
0.00275214
0.00182462
2.62839e-09
0.00303275
2.73381e-09
0.00228117
0.00257954
5.76033e-09
3.78798e-08
0.00170964
2.45852e-08
1.35503e-08
3.22855e-07
4.23212e-10
0.0026467
0.00199028
8.29529e-07
0.0016348
4.33218e-09
3.04513e-09
7.1062e-09
3.3014e-08
6.71425e-08
3.13205e-07
1.21452e-09
5.58214e-09
1.48603e-08
8.11007e-09
6.21722e-09
1.04432e-07
3.84408e-10
2.30567e-08
2.10932e-06
1.20913e-08
3.43871e-08
2.77445e-09
1.24273e-07
1.56139e-09
5.21753e-09
2.2264e-07
1.65622e-09
3.09032e-09
0.00188092
3.54075e-08
5.36194e-09
6.52825e-07
3.10765e-09
1.47371e-08
4.78158e-08
0.00185749
9.3608e-08
0.00220812
0.00153825
1.75267e-08
2.07044e-08
5.727e-08
6.79071e-09
0.00163042
4.99913e-08
2.2701e-07
3.67678e-07
3.00501e-08
0.00243815
0.00154754
1.95355e-09
3.23241e-09
7.01192e-09
6.3885e-08
5.91894e-08
7.53579e-09
4.16187e-07
5.31283e-09
1.4841e-06
2.49579e-09
1.52526e-09
6.55392e-09
1.57433e-08
2.33373e-07
8.17638e-09
1.91179e-08
0.00444215
0.00150045
0.00265773
0.00160668
1.48218e-06
1.20832e-08
0.00208229
6.95598e-07
6.76304e-09
0.000410059
1.31843e-09
1.4471e-07
0.00235116
4.40115e-08
1.24473e-07
2.30275e-08
4.28639e-08
0.0014
8.48475e-09
1.06925e-09
2.11215e-07
2.6257e-09
4.86001e-07
5.97823e-06
6.66144e-08
0.00211109
4.18427e-08
0.000460609
2.62685e-07
0.00209887
4.02689e-10
5.03026e-09
2.68323e-07
3.90927e-09
0.00183882
3.83385e-07
0.000518185
1.49302e-07
1.84609e-07
1.33901e-07
2.65968e-08
8.84179e-09
5.03005e-08
3.01927e-06
4.11248e-08
2.60266e-06
0.00324762
5.32612e-08
0.00421553
5.63278e-09
2.56783e-09
4.54652e-06
0.00186424
1.41786e-08
1.33925e-09
9.02054e-07
5.67478e-08
3.39118e-08
0.00233944
1.34739e-08
6.13186e-07
0.00262093
1.35778e-09
8.0739e-09
4.18553e-07
9.96794e-10
8.1874e-09
0.00261882
5.38506e-09
0.00286062
2.3158e-08
2.15775e-07
3.96096e-08
0.000894228
6.08152e-08
2.77409e-08
1.48812e-07
0.00262182
1.58856e-06
1.25596e-08
9.30601e-09
1.24026e-07
0.00207316
3.24725e-09
5.18398e-08
6.30489e-08
1.59459e-06
0.00261583
0.00026985
0.0011906
1.7493e-08
0.000358018
1.32908e-08
9.02346e-07
0.000790296
1.15631e-08
0.000881494
3.29609e-06
4.85826e-09
2.64184e-09
1.20078e-08
0.00261859
1.51319e-08
2.61293e-09
2.60653e-07
1.12169e-08
5.60697e-09
0.00030147
2.88129e-09
4.45388e-08
0.00251959
1.26527e-06
4.51423e-09
0.00210939
3.25417e-06
6.51018e-09
1.37396e-08
1.20293e-05
4.30941e-08
2.22529e-07
1.67341e-08
4.1399e-08
6.05758e-08
4.73819e-06
0.00109765
4.84209e-08
0.00248244
1.50431e-08
3.79248e-08
0.00271652
3.07098e-08
7.8347e-08
9.90389e-09
1.33905e-07
0.00244874
3.00237e-08
2.12997e-08
0.00163537
5.79367e-09
0.00276038
1.43587e-09
7.51033e-09
1.08541e-09
9.58417e-09
0.00151679
5.36813e-08
1.40938e-09
2.57842e-09
1.43114e-08
5.28433e-08
0.00255056
4.81256e-09
4.62859e-09
1.88403e-09
1.5471e-07
5.27293e-06
5.04482e-09
0.00156964
3.5029e-08
9.38576e-09
6.59671e-09
5.12202e-08
0.000429644
6.72731e-07
1.60822e-10
1.00527e-09
0.00182623
0.00217019
6.14449e-08
3.93646e-09
0.00183564
1.60527e-08
8.68011e-10
0.00355994
9.43054e-09
0.00275309
2.92308e-07
1.81729e-08
1.97385e-08
9.77097e-09
9.61116e-09
4.41176e-09
3.05932e-05
7.4466e-07
2.26529e-09
4.12449e-08
5.64691e-08
5.58792e-09
0.0026269
8.69696e-09
1.33158e-08
0.00197405
2.61636e-08
3.59866e-08
3.04557e-10
0.00228709
2.83717e-08
1.33174e-07
3.45522e-09
3.70008e-08
4.051e-09
0.00233762
5.91786e-09
7.08162e-09
0.000615896
1.10952e-08
7.34415e-09
0.00241664
6.52385e-08
3.93635e-10
3.2611e-08
6.13383e-09
0.00188369
4.57312e-07
6.00414e-08
3.52369e-09
4.02329e-07
1.40915e-07
8.65927e-09
1.34706e-09
1.02848e-09
3.53779e-08
1.05299e-08
8.22446e-10
8.08812e-09
6.01468e-09
1.10782e-08
0.00239741
7.21276e-07
1.47656e-08
2.14371e-09
9.35852e-10
0.00219982
1.9441e-08
0.00339707
9.39317e-07
0.00163984
7.5846e-10
0.00222979
0.00292638
8.47105e-09
9.37987e-09
8.96535e-08
0.00210518
0.00251641
3.06883e-07
6.78296e-09
2.49808e-07
1.04982e-09
2.20319e-07
8.55989e-09
9.42029e-08
1.66477e-08
1.39183e-09
3.86875e-09
9.47136e-10
6.51038e-09
9.57221e-09
3.93721e-09
5.06886e-09
1.50619e-08
9.01326e-08
3.25895e-11
3.36275e-09
7.50347e-10
5.91562e-09
1.51045e-09
1.74752e-07
0.001965
0.0028926
4.50076e-09
0.00230925
1.45482e-08
3.07197e-09
4.60213e-09
1.63956e-06
1.79766e-07
7.18095e-08
9.94425e-10
1.10392e-08
2.14214e-09
8.23781e-09
1.5968e-09
1.3281e-08
1.41363e-07
0.00164344
2.43336e-09
2.11109e-08
0.0014538
0.00184801
0.00227207
0.00206338
0.00176517
4.64607e-08
3.77486e-08
2.94122e-09
8.14228e-09
7.59587e-09
1.39047e-06
3.93506e-09
2.9222e-08
3.41132e-08
7.16821e-09
2.39471e-09
2.77322e-09
7.63716e-07
3.15507e-06
3.97473e-07
5.99421e-09
1.68135e-09
3.34024e-09
0.00294807
2.52472e-09
0.00192125
1.0836e-07
8.78625e-09
7.52468e-07
0.00105424
6.7574e-08
4.05221e-10
3.80236e-09
3.20337e-08
1.50344e-09
2.38604e-08
8.42273e-10
0.00114492
3.4658e-10
4.18293e-08
0.00284553
2.941e-09
0.00137943
5.86642e-08
0.00223981
1.01213e-07
0.00125736
3.53754e-10
0.00289539
0.00232085
2.78353e-08
4.26323e-09
0.00158365
2.00455e-08
0.00186988
1.70102e-08
7.8723e-09
5.04142e-10
1.68704e-08
2.04514e-08
1.50962e-08
6.36845e-07
0.00292251
0.0016619
1.22298e-06
3.74181e-09
3.45902e-07
0.00316054
0.00136145
0.00245211
0.00243135
5.35488e-09
6.1266e-08
2.75718e-08
1.25097e-08
0.00314663
6.52239e-09
0.00153945
0.00333289
5.40671e-09
3.30637e-09
0.00166398
0.00313832
2.92733e-08
9.39265e-10
0.00169073
8.99583e-08
2.56241e-09
4.67417e-07
9.92426e-08
0.000406167
7.13657e-08
5.68073e-08
2.4725e-07
2.70185e-07
9.0737e-08
3.82191e-09
4.53386e-09
1.06254e-08
2.0304e-09
2.05452e-08
8.67193e-09
1.83764e-10
2.22576e-09
0.00200648
0.00293929
3.42329e-10
2.54394e-08
6.61688e-09
2.88201e-09
4.80693e-07
1.95043e-08
2.41049e-09
0.00270667
0.00156005
0.0014486
0.00162327
4.87958e-08
0.00136291
2.55056e-07
0.0039063
7.56221e-10
0.00235629
2.70262e-08
3.79165e-08
1.5547e-07
6.3732e-10
0.00294162
1.85598e-07
0.00423661
6.1992e-09
9.87191e-10
9.29313e-09
9.21093e-09
0.00133995
0.00297244
1.44014e-10
3.53293e-09
2.43203e-08
0.00167437
3.93678e-09
0.00280342
3.52364e-07
1.9843e-09
5.70025e-09
0.00241519
3.6413e-08
0.00221573
8.46165e-08
0.00395888
0.00331018
7.99594e-08
3.81108e-09
0.003657
8.88146e-09
8.5033e-07
0.000344637
1.61865e-08
1.42712e-07
2.28166e-08
8.86099e-09
0.00311322
4.07204e-09
7.39033e-08
4.03879e-10
7.0322e-08
4.26758e-09
5.52528e-09
1.51712e-08
9.90956e-09
1.76883e-08
0.00294981
2.20847e-08
2.86146e-08
4.8327e-09
1.43316e-08
9.02464e-09
9.93544e-09
1.16036e-08
0.0021743
8.95583e-09
0.0030361
0.0018951
5.00951e-09
0.000360669
2.97078e-09
3.31356e-09
2.70728e-08
3.49328e-08
3.14563e-08
0.0015814
0.0020985
1.12576e-07
1.05665e-07
8.31961e-08
0.00305496
0.00110984
4.81984e-08
0.00216268
0.00453156
1.26934e-06
0.00259043
0.000410464
6.63264e-09
7.83051e-07
2.52477e-08
0.000563895
6.769e-10
0.00252481
3.30945e-10
2.41541e-09
0.000636551
0.000341714
1.63396e-08
0.000460457
4.24903e-08
1.07843e-07
2.58067e-08
2.69632e-09
3.92991e-07
2.88116e-09
4.96068e-09
0.00243076
1.3406e-08
1.39e-08
4.34401e-09
1.21998e-07
1.66041e-09
4.57227e-05
2.9638e-08
2.03944e-08
7.70752e-08
1.68929e-07
0.000297091
0.00227272
4.17899e-08
7.10536e-09
0.00236629
0.00234097
3.70328e-08
2.34505e-08
1.27924e-08
3.15737e-09
3.055e-08
9.95709e-09
0.00200137
0.00447591
6.23142e-09
2.08326e-09
3.88161e-09
6.0213e-09
0.00252209
0.000394486
1.75663e-09
1.8113e-08
1.56218e-08
0.00211901
1.05094e-05
1.09423e-06
0.00194314
2.49462e-08
2.57315e-08
4.87347e-09
4.11699e-08
2.52846e-08
0.00220491
5.26451e-08
0.000310606
5.51831e-09
6.25851e-09
0.00320552
0.00260271
7.55373e-09
0.00306977
1.08147e-09
1.47302e-09
4.53343e-07
5.03003e-09
3.57859e-09
0.00179324
2.67079e-08
1.23929e-07
0.00385003
1.24274e-08
0.00155003
0.0031157
1.48473e-08
0.00330359
1.48172e-08
1.31827e-08
1.83806e-08
1.87119e-07
9.90129e-09
4.63619e-08
5.96498e-09
2.46491e-08
4.82688e-07
1.94685e-08
0.0023233
6.50213e-09
0.00301323
8.58136e-10
1.15252e-08
5.43561e-09
0.00230979
8.79714e-09
0.00223819
0.00192369
0.0030971
1.57321e-08
0.00209379
1.4433e-07
2.13303e-08
3.19948e-09
8.00206e-09
1.2783e-08
7.64217e-08
1.47394e-07
2.94498e-07
3.41981e-09
0.00282184
3.2099e-08
1.20561e-09
9.90385e-10
4.50612e-09
7.04467e-10
0.00200406
3.71438e-08
0.00294254
2.69897e-08
0.000624952
3.60163e-09
3.59223e-09
0.00176863
0.00346361
6.65821e-08
3.70671e-09
0.00375556
1.56776e-08
1.02608e-09
3.32384e-09
1.32537e-08
6.35847e-10
1.37533e-08
1.52665e-09
1.40528e-08
2.85362e-09
6.11555e-08
2.70087e-08
0.00246212
5.69296e-07
1.02985e-07
1.12158e-08
4.65383e-09
0.00208843
1.38075e-08
0.00298224
4.13683e-08
2.80469e-08
6.32864e-09
6.20102e-09
7.92767e-08
7.67848e-07
0.00129736
0.00121782
8.25473e-09
0.003691
2.38492e-08
0.0028629
9.03507e-09
1.73241e-08
2.96745e-09
0.00260222
0.00132458
0.000427412
4.4918e-08
2.03135e-09
0.00133735
5.4548e-09
3.45536e-09
9.34911e-09
5.3394e-09
0.00245418
0.0020964
1.82165e-08
3.15233e-08
5.16124e-08
4.08351e-09
3.23688e-06
1.81309e-06
6.18146e-09
2.47948e-08
0.00157767
8.96838e-09
3.11596e-08
1.08717e-09
3.00379e-08
4.55849e-09
0.00226815
4.57247e-09
1.69037e-06
0.000526663