/*--------------------------------*- C++ -*----------------------------------*\
  =========                 |
  \\      /  F ield         | OpenFOAM: The Open Source CFD Toolbox
   \\    /   O peration     | Website:  https://openfoam.org
    \\  /    A nd           | Version:  10
     \\/     M anipulation  |
\*---------------------------------------------------------------------------*/
FoamFile
{
    format      ascii;
    class       surfaceScalarField;
    location    "117";
    object      phi;
}
// * * * * * * * * * * * * * * * * * * * * * * * * * * * * * * * * * * * * * //

dimensions      [0 3 -1 0 0 0 0];

internalField   nonuniform List<scalar> 
109758
(
-3.14891e-06
0.00121983
-0.00121668
-0.00125268
0.00128852
-3.58414e-05
0.000104111
-0.00114988
0.00104577
-0.00144
8.78848e-05
0.00135211
0.00146233
-0.000168319
-0.00125778
-3.62345e-05
-0.000405295
0.000396328
8.96715e-06
-0.00110845
-6.4766e-06
0.00111492
0.00202379
-0.000255907
-0.000384872
-0.00138301
-2.37286e-05
0.000849319
1.44623e-05
-0.000840053
0.000466433
-7.2196e-05
0.000596525
-0.000990762
-3.94252e-06
0.000586479
-0.000582537
0.00187435
-0.00152687
-0.00143887
0.00109139
0.000320906
0.00125913
-0.0014378
-0.000142232
0.00118863
-0.00121936
3.07293e-05
-0.000973981
0.00110819
0.00132813
0.000691314
-0.000946091
-0.000684555
0.000939331
0.000819589
-0.00157363
0.00140327
-0.000649232
0.00148429
0.000242361
-0.00110138
-0.000625269
0.00150007
0.000227951
-0.00121147
-0.000516548
-0.00144003
0.000171262
-0.000108861
0.00137763
0.00021538
-0.000290113
7.47329e-05
-2.63893e-05
-0.00119637
0.00028566
0.000937096
-0.000275683
0.000846886
-0.000571203
0.000251248
-0.000301533
0.00102946
0.00116203
0.000420202
-0.000405315
-0.00117691
1.77064e-05
0.000563459
0.000903126
0.0012414
0.00151639
-0.00194186
-0.000815933
-0.00109121
0.0010814
9.80778e-06
3.41942e-05
0.00112783
0.00149192
-0.00102643
0.000795212
-0.0012607
-0.00146094
0.00152969
-8.4302e-05
1.55549e-05
-4.98833e-05
0.000604438
-0.000554555
-1.44871e-05
0.000898686
-3.48098e-05
-0.000849389
-0.000827249
0.000824099
3.15034e-06
-0.000123994
-0.00131747
0.00110489
0.000336578
-0.00115982
0.00212098
-0.000718807
0.000577991
0.000169845
-0.000747836
0.000198061
0.00103984
-0.00147427
0.000236368
-0.000252273
-0.00111669
8.16857e-06
0.00136079
0.00114047
5.14574e-06
-0.00114561
0.00167383
-0.00110249
0.000734913
-0.00130625
-0.000392233
-0.000504919
0.000676483
0.000220669
-3.41722e-05
3.33212e-05
0.00167468
-0.00144721
0.00142462
1.3237e-05
9.35544e-06
0.000796994
-0.00079802
1.02601e-06
0.000330628
-0.00214983
-0.000329158
0.00214836
0.000997935
-0.000282626
-0.000251219
-0.00046409
-0.00111255
0.00138815
-0.000195405
-8.0192e-05
1.65576e-05
0.00102433
-0.00104089
-0.00224762
0.000142323
0.000187779
0.00191752
0.00107968
-0.000522352
0.000520001
-0.00107733
0.000398921
0.000616721
1.43396e-05
0.00140048
-0.00141482
-0.00105836
0.0010619
-3.54377e-06
-0.00122
0.00125419
-0.000329722
-0.00175407
-0.000430749
0.00251454
-0.00228278
0.00318362
-0.000667432
-0.000233403
-0.00111419
0.000983059
0.00117053
-0.0010394
-0.00180371
0.000708463
-5.92461e-05
0.00115449
-0.00071908
0.000264502
0.000646556
-0.000191979
-0.00149364
0.00142215
7.1488e-05
-0.00323418
0.000189516
0.00163168
0.00141298
-0.000314186
0.00130137
-0.0012495
0.00026232
0.00156927
0.00151348
-0.00189096
-0.00113798
0.00151545
-0.00190108
0.000921713
0.000514731
0.000464636
0.0013926
-0.00153986
-0.000857906
0.00100516
-0.00147634
9.85681e-05
0.000349152
0.00102862
-0.00112267
-0.000798871
0.0004452
0.00107496
-7.64966e-05
-9.37187e-05
-0.000904748
0.00100522
-0.000590747
0.000373174
-0.000787644
0.00141974
5.1853e-05
0.000602387
-0.00207398
-0.000520795
0.000192165
0.00032863
-0.00211831
0.00134812
0.00158033
-0.000810136
0.00080301
-0.000759549
-4.34612e-05
-0.000627635
0.000201069
-0.00169174
0.000106486
-0.000881208
-0.000283636
-0.000270532
5.59949e-05
-0.000860632
0.00107517
0.00174248
-0.00158309
-0.000333493
0.000174102
-0.00170479
0.00153666
-0.00105187
0.00119821
-0.000810948
-0.00100335
0.000616088
-0.000650729
0.00269958
-0.00135003
-0.000698827
-0.000152323
8.23448e-05
0.00152942
-0.00145945
3.6395e-05
0.00216824
0.000227609
-0.00243224
0.000866675
-0.0015724
-0.000132839
0.000838564
0.00123805
-0.000233153
-0.000898413
0.000128785
0.000991266
-0.00135852
0.000238471
0.000543378
0.00204822
0.000129552
-0.00272115
0.000961926
-0.00113403
0.000180272
-8.16872e-06
0.000655172
0.000735448
-0.00276357
0.00137295
0.000933331
-0.000103678
6.16144e-05
-0.000891267
0.00199179
-0.00149349
-0.00296907
0.00247077
0.00169105
-0.00190376
0.000844305
-0.000631591
2.05957e-05
-0.00159272
0.00146395
0.000108171
0.00164639
-0.0011528
-0.000363105
-0.000130489
0.000889515
2.08635e-05
-0.000910379
-0.0017005
0.000293925
0.00118735
0.000219227
0.00111499
0.000743618
0.000571249
-0.00242985
0.000918927
-0.0016575
0.00114788
0.00249095
-0.00144435
-0.00219448
0.000917401
1.52615e-06
-0.000367669
0.00119353
0.00119928
-0.00202514
0.00105165
0.000300451
-0.000148999
-0.0012031
8.12735e-05
0.000922192
-0.00100347
0.00141388
-0.00011673
5.53248e-05
-0.00135248
-0.00057788
-1.89587e-06
0.000579775
-0.00132411
0.00102149
-0.000798762
-0.000237712
0.00179641
-0.00188909
0.000330386
0.000431863
-0.000362753
-0.00145273
0.00138362
0.000287592
-0.000293291
-0.000681618
0.000687317
-0.000368702
-0.000989312
0.00123682
0.000121193
0.000447952
-0.00121942
0.00126885
-0.000497383
0.000927778
0.000283548
-9.27819e-06
-0.00054947
-9.87632e-05
0.000657511
0.00017957
0.000352964
-0.00203726
0.00150473
-0.00131194
0.000166441
0.00134823
-0.000202723
0.000973622
0.000158178
9.90402e-05
-0.00123084
0.000205014
0.000768608
0.00143166
0.000288444
-0.00156192
-0.000766622
-0.000873124
0.00130306
0.000336686
0.00135803
0.000183632
0.000199572
-0.00174123
-0.00146803
0.00125525
-0.000411804
0.000624589
0.00134627
0.000290397
-0.00104609
0.00117848
-0.00108772
0.00095533
0.00146317
-0.000211206
-0.000286424
-0.000965544
4.01806e-05
-0.00160661
0.00174203
-0.000175595
-0.00152933
-3.75946e-05
-0.000422815
0.00198974
0.00093875
0.000505947
-0.00148563
4.0934e-05
-0.00101895
9.45165e-05
0.000894846
2.9589e-05
0.000184212
5.69e-05
-0.00188305
0.00164194
-0.000930533
-6.15206e-06
0.000936685
0.000193161
0.0013321
-0.00134105
-0.00106141
0.00142124
-0.00077387
0.000414045
-0.00121286
-0.000777966
0.00157838
0.000412444
0.00127428
0.000244322
-0.000722733
-0.000795867
-0.0020102
-2.81323e-05
-0.000282977
0.00232131
-0.00129462
-0.000777601
0.000565876
0.00150635
0.00177657
-0.00174076
-0.000112065
7.62552e-05
-0.000263762
-0.000789095
-0.000701212
0.0014608
0.00108166
0.000271165
-0.00281363
0.00211353
0.000267145
-0.00234428
0.00021472
0.00110498
-0.0013197
3.51821e-05
-0.00108863
0.00105345
-0.00103479
-0.000214747
0.000197583
0.00105196
9.21851e-05
0.00134678
-0.00128485
-0.000154114
-0.00221982
-0.000254857
0.000576584
0.00189809
0.00122521
-0.00129639
0.00110861
-0.00103743
0.000159162
0.000143142
0.000922907
-0.00087412
0.000847544
2.65762e-05
-0.000919785
3.02569e-05
0.00133314
-0.000443612
0.000264659
-0.000672199
-0.000492904
0.000900444
0.000674456
-0.000702071
2.76151e-05
-0.000961829
0.00091002
-0.000218723
-5.08452e-05
-0.00101116
-1.05857e-05
0.00107259
0.00171109
-0.000192157
-0.00108597
-0.00043296
-0.000408177
-0.00186735
0.00250692
-0.000231395
-0.00162342
0.000562171
-0.00135661
0.00151467
-0.00015806
-0.000731673
0.000659174
-0.00102721
0.00109971
0.000547796
-0.0006707
-0.000497652
0.000620556
-0.000920537
-0.00126231
0.00100161
0.00118123
5.03279e-05
0.00141134
-0.000139976
-0.00132169
-0.000358599
0.0017098
-0.000286493
-0.00106471
-0.00159265
0.00134674
-9.64262e-05
0.000342333
-0.00117003
0.000933211
-0.00100751
0.00124433
0.00121547
6.63903e-06
-0.00122211
-0.00180189
0.000389468
0.00176157
-0.000345086
0.0014217
-0.00107662
8.78499e-05
0.00143507
-0.00152292
0.000197942
0.00123674
-0.00189563
0.000460952
-0.000951331
-0.000989072
0.00106156
0.000878845
0.000694145
-0.000200728
0.0005118
-0.00142012
0.00148316
-3.7985e-05
-2.50534e-05
-0.00141764
1.41177e-05
-1.65981e-05
0.000752131
-0.000451094
0.00184966
-0.0021507
-6.86133e-05
0.00180461
-0.001736
-0.00118323
0.000849687
-6.619e-06
0.000340161
-0.00090275
-0.00109798
0.00200073
-0.000674702
-0.000253295
0.000927997
0.00100457
1.25478e-05
-0.00101712
-0.00159626
-2.57008e-05
0.00131316
0.000308804
-0.000461636
0.000638551
0.000839054
-0.00101597
-0.00176756
0.000484145
0.000821775
0.00172074
-0.00271127
0.000575302
0.00041523
-0.00144935
0.00146277
-3.98341e-05
2.64077e-05
0.00193047
-0.00192973
-1.55685e-05
1.48269e-05
-0.00109048
1.54012e-05
0.000268986
0.000806092
7.65169e-05
-0.00113686
0.00106035
-0.00123427
-0.00175227
0.00118841
0.00179812
0.000148984
0.00161165
-0.000746233
-0.00101441
2.03177e-05
-0.00155704
-2.3308e-05
0.00156003
0.000256091
0.00139847
0.00032989
-0.00198445
0.000203743
0.00139804
-0.00147293
-0.000128849
-7.4755e-05
-0.00109359
0.00137209
-0.000894727
-0.000757647
0.000384944
0.00126743
0.000841574
4.83441e-05
-0.000889918
0.00135949
0.00130347
-0.0015746
-0.00108837
1.71624e-05
-0.00108209
0.00106493
0.000302571
0.000131706
6.00292e-05
-0.000494307
-0.0014204
-2.27973e-05
0.0004699
0.000973295
-0.00104626
-0.000536662
0.00158293
0.000845584
-0.00111024
0.000393585
-0.000128925
-0.00146892
0.000185115
0.0013402
-5.63957e-05
-0.00147996
0.00179845
-0.0014129
0.00109442
-5.92302e-06
-0.000888804
-0.00114272
0.00111069
3.20338e-05
-0.00147868
-0.000770744
0.000146049
0.00210338
-0.000136585
0.0013004
-0.00116382
0.00103751
-0.000815789
-0.000221723
0.000925033
-0.000930956
-0.00111197
-1.76603e-07
0.00111215
0.000508603
0.00138601
-1.33912e-05
-0.00188123
-0.00113551
0.000172994
0.000962512
-0.0012633
-0.00044459
0.0013158
0.000392084
-0.00190957
0.000262471
0.00186421
-0.000217113
0.0009442
-0.0009168
-2.73995e-05
-0.000726228
-0.00101909
0.00390906
-0.00216374
-0.00148232
0.000543017
-0.000373407
0.00131271
-0.00075081
-0.000179471
-0.00117523
0.00210551
-4.27028e-06
2.69589e-06
0.00130691
-0.00130534
0.000708148
-0.00209726
0.00285914
-0.00147004
-0.00121626
0.00121199
0.00155709
0.000401068
-0.00190737
-5.07933e-05
0.00108531
0.000148469
-0.00136322
0.000129444
0.000950348
0.000445365
-0.00159417
0.000198458
0.000903615
0.000181694
-0.000541831
0.00169142
-8.92291e-05
-0.00106036
0.000326678
-0.00148646
0.00190081
-0.000741027
-0.00167251
0.00012185
-4.41394e-07
0.0015511
0.000972041
0.00374476
-0.000593425
-0.00412338
0.000450126
0.000343069
-0.000596688
-0.000196507
0.000310162
0.0011236
-0.000508283
-0.00092548
-0.000905614
0.000884287
-0.000520504
-5.06147e-06
0.00169152
4.96283e-06
0.0013353
-0.00135024
0.000213991
-0.000199055
0.000316159
-0.000105589
0.000806847
-0.00101742
-0.00130098
0.00126668
0.000182762
0.00039256
-0.000768644
-0.000879936
0.00125602
0.000541996
0.00150816
-0.00150678
0.00112912
-0.00147853
0.000199697
0.000149716
0.00111297
2.04533e-07
-0.00111317
0.00242812
-0.00249727
0.00202066
-0.00195151
0.000370259
-0.000955487
-0.000476574
0.0010618
0.000384902
0.000204412
-0.00163411
0.000974019
-0.000580756
0.00124084
-0.00200267
0.000452182
0.00168509
-0.000134598
-0.00156214
-0.000862111
0.0031324
-0.00016001
0.00191866
-0.000633353
-0.0011253
0.000924593
-0.00046656
0.00171247
-0.0021705
0.000184424
-0.000870261
0.000741013
-5.51759e-05
-0.000382731
-0.00125563
0.00144249
0.000195866
0.0010811
-0.000611834
-0.000439659
-2.96059e-05
0.000548047
0.000229712
0.000290557
-0.00106832
-0.000776212
0.000995615
-0.000219404
0.000889422
-0.000828527
0.000123529
3.05324e-05
-0.00135782
0.00132728
0.00104324
-0.00121554
-0.000210426
0.00026465
0.00118147
-0.000265084
-0.00118104
-4.00225e-06
-0.000963837
0.000967839
0.000524872
0.00161286
-0.000883496
-0.00125424
-8.80107e-05
-0.000630562
-0.000428592
0.00114717
-0.000294723
-0.00162195
1.07686e-05
0.0019059
-0.00102994
0.000416976
0.00125933
-0.000646361
7.62026e-05
0.000967037
-0.000857703
0.000933906
0.000926234
0.000247611
9.96764e-05
-0.00127352
-0.00048927
0.00218877
-0.000142404
-8.91137e-05
-0.000621709
0.000566731
0.000144092
-0.000206155
0.0024352
-0.000115512
0.00197588
-0.00102621
-0.000424803
0.00225369
-0.000275475
-0.00120931
0.00180755
-0.000322758
-0.00228037
0.00191484
0.000937715
-0.000572189
5.77222e-05
0.00104783
0.000870327
-0.00100404
-0.00131893
0.00139243
-0.000716487
-0.000988296
0.00190979
-0.00020501
0.00074036
0.000843268
-0.00158363
2.61965e-05
0.000168861
0.00222426
-0.00241932
-0.00117462
0.000992973
0.00144023
-0.00125857
0.00135766
-0.00214586
0.00172481
-0.000936608
0.000449863
-2.28576e-05
-0.000427005
-0.000923928
-0.000517184
0.00017193
0.00126918
-0.00047373
-0.000679157
8.94556e-05
0.00117074
-0.000968957
-0.000291238
0.000984383
-0.00102499
4.061e-05
0.000109462
-0.00130637
0.00137852
-0.000181612
0.00114614
-0.00282831
0.00139765
0.000284522
0.00065533
-0.00087423
0.0002189
0.000867606
-0.000110841
-0.000859828
0.000103063
-0.000174099
-0.00286964
0.00259051
0.000453231
-0.00113324
0.000195075
0.00132081
-0.000382643
-0.00118631
3.82081e-05
0.0011481
0.00118295
0.000200054
0.000785237
-0.000590192
-4.9026e-05
0.00152864
0.000102743
-0.00168152
0.00140468
-6.40148e-05
0.00116672
-0.0011027
-0.000816948
0.000505918
0.00135505
-0.00104402
-0.000185977
0.00155265
-4.38358e-05
-0.00132283
-0.000187238
0.00144232
-0.000975391
-0.000279691
-0.00100245
-2.22232e-05
0.00118133
-0.000156659
0.000832419
-0.0017401
0.000949973
-4.2293e-05
-0.000891559
0.00069698
-0.000716482
0.000911061
0.000863737
3.41356e-05
-0.000100879
0.000132408
-0.00125903
-0.000303371
0.00143
-0.000258132
-0.00138333
0.000618344
0.00102311
0.000493546
-2.11582e-05
0.00113427
0.000275156
-0.00138827
0.000581749
-0.000410102
0.00117228
-0.00134393
-0.00075139
0.000930907
0.00124243
-0.00142194
0.00203439
0.000510701
-0.00205154
1.26239e-07
-0.00121046
0.00121033
7.49234e-06
-0.00122642
0.00127536
-5.64399e-05
2.39638e-05
0.00131068
-0.00117884
-0.00015581
0.000394341
-0.00198937
-6.49561e-05
0.00165999
-0.00110095
0.00132101
-0.000220068
0.000202244
-9.24021e-05
0.0013259
-0.00143574
-0.00102586
0.000227835
-0.000709006
0.00107355
-0.00143077
0.00106622
-0.000327226
-8.10684e-05
0.000408294
0.00324054
-0.00158162
-0.000703458
-0.000955455
0.00130479
0.00334328
-0.00140753
0.00216015
-0.00199884
0.000188988
0.00110084
-0.000852264
0.00121912
-0.000386484
1.9625e-05
-0.0002585
4.94309e-05
0.0017894
-0.001251
0.000470921
0.000960679
-0.000180603
-0.00105227
0.00174107
0.000130784
0.00122123
-0.00139807
0.000708614
-0.000531782
0.000181402
0.0024566
-0.00243575
0.000735105
6.3853e-07
-0.000735744
-3.86266e-07
-0.000956608
0.000956994
0.00170507
0.000137892
-0.000381595
-0.00146137
0.00221022
-0.000712142
-0.000935278
-0.000562799
-0.000139741
-0.002804
0.000846489
-8.60881e-06
-0.000679292
0.000687901
0.00147048
-0.00134928
-0.00133355
0.00121234
0.00106481
0.000444019
-0.00125274
0.000864079
-0.000532506
-0.00131812
0.000986552
-0.00104282
-9.40982e-06
-0.000803493
0.00185572
-0.00159305
-6.82519e-06
0.00159987
0.000993016
9.37486e-05
-0.00105663
-3.01379e-05
-0.00127232
-2.08186e-05
0.00129313
6.42913e-05
0.00107032
-0.00113462
-0.000782629
0.00173423
-0.000125974
-0.000825623
-0.00187843
0.00226235
0.00142707
-0.00181099
0.000901206
0.000769379
-0.000208423
0.00133807
-0.000865031
-0.000264619
-0.000229753
-7.79137e-05
-0.00115527
0.00146294
0.00130449
-0.00114735
0.000912638
-0.00106978
-0.00123774
0.00128823
-5.04964e-05
-0.00151431
0.000253319
0.00130058
-3.95892e-05
-0.00264293
0.000528635
0.00201061
0.000103687
0.000260904
-0.000334764
-0.00130883
0.00138269
0.00190151
0.000181185
-0.00109221
-0.00099049
0.00103464
-0.00078646
-0.00104197
0.000793785
0.00119116
1.19864e-05
-0.00120314
0.000110225
-0.00202627
0.00148252
0.000433523
0.000752764
0.000448907
-0.000300465
0.000273715
-0.00088182
0.00128576
-0.000677651
-0.000545329
0.000529509
-0.000121954
0.000137774
-0.00362618
0.00437319
0.00141029
-0.00215729
0.00181971
-1.19103e-05
-0.00181894
1.11401e-05
9.15501e-06
0.00146345
-0.00157285
0.00010024
-0.00219283
0.00192113
-0.000510931
0.000974376
0.00121973
-0.00110391
-0.0010902
-0.000967717
-6.9498e-05
-0.000105246
0.00114246
0.00101053
5.27188e-05
-0.00106325
0.00128827
-7.10635e-05
-0.00121721
-0.0022776
0.00214628
8.4496e-05
4.68215e-05
7.05308e-05
0.00146779
-7.18557e-05
-0.00146646
0.000909422
0.000458531
-0.0029775
0.00160955
-0.000630634
0.000630645
-1.03451e-08
0.00092418
2.1134e-06
-0.000926293
-4.6174e-07
-0.00055687
0.000557332
-0.000530735
0.0010803
0.000725873
-0.00127544
3.54013e-06
-0.00114345
0.000897099
0.000242806
-0.00128318
-0.000526049
-0.000468364
3.25693e-06
-0.000888553
-0.00013224
0.00101754
-0.000687379
1.28534e-05
0.000674525
0.000235009
0.000729256
-0.000237593
-0.000726672
0.000502839
-0.000895073
0.000392233
-0.00024304
-0.000833082
-0.000310434
0.00138656
0.000709541
0.000940495
0.000138631
-0.00178867
0.00185642
-0.000675192
-0.000601585
-0.000579647
-6.80607e-05
-0.00153316
0.00178691
-0.000185684
0.000736049
0.000387748
0.000212049
-0.00133585
0.0023203
0.00103341
-0.00217624
-0.00117747
-2.84197e-06
0.000587579
-0.000584737
-0.00137322
4.09722e-05
0.000317713
0.00101454
-0.00134582
-0.000149406
0.00153108
-3.58595e-05
0.000374644
-0.000468975
0.00191404
-0.000476428
0.000629258
-0.00015283
0.000937425
2.69456e-05
-0.00096437
0.000194427
0.000122403
-0.00123671
0.00091988
0.00131904
-0.000130247
-0.00122689
3.81055e-05
-0.0011134
-7.86562e-07
0.000237472
0.000322161
-0.00146061
0.00090098
-0.00135676
9.78265e-05
0.00125894
-5.32459e-05
-0.000949205
-0.000123769
0.00208953
0.000147246
-0.002113
0.00111649
-0.00118251
6.60266e-05
-0.00119419
0.0011814
1.27874e-05
0.000959585
-0.00108335
0.000262532
0.000876314
0.0010891
-0.00222794
-0.00117263
-0.00064015
0.00181278
-9.06719e-06
0.000836211
-0.000827144
-1.95357e-05
-0.00090963
0.000929166
0.00111456
-0.00110769
-6.87064e-06
-0.00123528
4.73902e-05
0.00124195
-5.40524e-05
0.000302168
-0.00139081
0.00106225
0.000693743
0.00058334
-0.00233832
0.00106124
0.000721231
4.94161e-06
-0.000726172
4.73453e-05
0.00136519
-0.00141253
0.000672028
2.42781e-06
-0.00153956
0.00137049
0.0012989
-0.00112983
-0.000969632
0.00012303
0.00124332
-0.000396719
0.00169647
-0.00244432
0.000590931
0.000156923
-0.00218978
0.000487903
-0.00104578
0.00115598
-0.000110209
2.54709e-05
-0.00115977
0.0011343
-0.00100321
-1.97484e-05
0.00102296
-0.00117457
6.32066e-06
0.00116825
0.00112363
-0.00123201
0.000108378
1.49736e-05
0.00173321
-0.00174818
-0.000256879
-0.000234226
0.00124387
0.00123784
-0.0012928
-0.000883985
0.000938943
-0.000698733
0.000127432
0.00135651
-0.000785207
0.000666911
-0.00156866
-0.000101466
-7.29284e-05
0.00153349
-0.00146056
0.000454904
0.000424172
-0.000580052
-0.000299024
-0.000706418
0.00115822
-0.00139179
0.000939991
-0.00112391
-0.000427038
0.00155094
0.0022761
-0.00140324
-0.000872856
-0.000432104
0.00163506
0.00107134
-0.00227429
-0.0011864
0.00143892
-0.00143576
0.00118323
0.000508844
-0.000382373
-0.000584536
0.000458064
2.12508e-05
-1.36442e-05
-0.00127992
0.00127231
-0.000119561
-0.00180081
0.00192037
0.000404992
5.33193e-05
-0.00152678
0.00106847
-0.00150305
0.00116642
0.000336629
-0.000702811
-0.000351916
0.00101383
4.08984e-05
-0.000991038
0.000985989
5.04915e-06
0.000963447
-0.00081483
0.00120904
-1.0363e-05
-0.00157777
0.00158068
7.44987e-06
0.00304721
-0.000787984
-0.00152945
-0.000729783
-0.000471267
0.00166302
7.96081e-06
-0.00119972
-0.000550107
0.000819093
0.000457376
-0.000726361
-0.00132476
0.000778042
0.00137623
-0.000829507
0.000727337
-0.000868496
-0.000339368
0.00150741
3.97613e-05
-0.0012078
0.000906339
-0.000999649
0.000103566
-0.00213752
2.41028e-05
-2.11581e-05
0.00213458
-0.000297316
-8.37867e-05
-0.000799662
0.00118076
-0.00108435
0.00139479
-0.00110852
0.000798083
-0.00247903
-0.000334655
0.00260753
-0.00160744
2.26785e-05
0.00160914
-2.43781e-05
0.00100649
0.000162802
-0.000678807
-0.000490483
-0.00031724
-0.00123362
0.000655388
0.00089547
0.00106764
-0.000418618
-0.0014072
0.00075818
-0.00138744
-0.00035769
-3.09006e-05
0.00177603
0.00111013
-0.000136197
-0.00101856
4.4634e-05
0.000940069
-0.000944039
3.96945e-06
-0.000745569
0.00242683
-0.00201601
0.000334755
0.000156322
0.00143143
-0.00230354
0.000715782
-0.000945354
-0.000307795
0.000993447
0.000259703
0.000330069
-0.000316867
-0.000958556
0.000822376
3.31594e-05
0.000161055
-0.00101659
-8.81459e-05
0.000615868
-0.00266525
-0.00138856
2.84937e-05
0.00178203
-0.000421964
-0.000995178
0.00116128
-0.000166105
0.000489792
-0.00045934
-0.000649093
0.000618641
-0.000700634
-0.00128677
0.000808943
0.00117846
-0.00057719
0.00179593
-0.00066147
-0.00055727
-0.00148029
1.03027e-05
-0.00129564
0.00161541
-3.91792e-05
3.45553e-05
-0.00128141
0.00128604
0.00123734
0.00132704
-0.00141032
-0.00115407
0.000982107
-0.00101301
3.08996e-05
0.00125367
-7.85846e-06
-0.00124582
0.00106974
-0.00124165
0.000351301
-0.000179385
-0.000312086
-0.000915103
0.00222064
-0.00164466
0.00141174
-0.000212792
0.000445708
0.000547178
-0.000744651
0.00176755
-0.00157007
-0.00157617
-0.00114987
0.00187381
0.000852239
-8.45321e-05
-0.00173661
0.000176487
0.000274851
-0.00144882
-1.18738e-05
0.00118585
0.00133501
0.000351587
0.00180881
-0.00158397
-0.000594431
0.000369593
-0.00133912
0.00132917
0.00108382
-0.00107387
0.00101472
0.000503311
-0.00115199
-0.000366033
0.000508292
-0.00111704
0.00092798
-0.000319234
0.00139174
-0.00114095
-0.0018129
0.00156211
0.00145934
-0.00162443
8.05514e-05
-0.000901074
0.000905034
-3.96064e-06
0.000112621
-0.000102101
0.00151071
-0.00180489
0.00170268
-0.0014085
0.00111973
-0.00100711
0.0011374
-0.00122993
-3.76022e-05
0.000130132
-2.44469e-05
-0.000519486
0.000543933
-0.000123567
-0.00103694
0.00124388
-8.3373e-05
0.00191013
-0.00171908
0.000135752
-0.000326801
0.000204314
-0.00226689
0.000184142
0.00169606
-0.001736
-0.000187502
0.00022744
0.000371552
0.000279054
0.000461247
-0.00111185
-0.000100996
0.000948676
0.00092388
-0.00177156
-8.04581e-05
-0.00117136
-0.000325273
0.00157709
-0.000570283
0.00170889
-0.000464649
-0.000673957
-0.00106834
0.00045308
0.001685
0.0010458
-0.00211863
0.00023226
0.000840571
-0.00030533
7.13943e-05
0.00193
0.000313021
0.00142701
-0.000488567
-0.00125147
-5.16899e-05
5.39096e-05
-0.00123882
0.0012366
0.00185861
0.00010445
-1.30838e-05
-0.00194998
0.00103639
0.000454096
-0.000412047
-0.00107844
-0.00112279
-0.000479898
0.000534345
9.1926e-05
0.000648198
-0.000657843
-8.2281e-05
0.000189503
1.63499e-05
-0.00144751
0.00100858
-0.000527315
-0.000136938
-0.000344326
0.000148166
0.000701587
-9.81234e-05
-0.00075163
-0.00112206
0.000962933
0.00120493
0.000743302
-0.00323126
0.000629972
0.00185799
0.000176844
-2.97965e-05
3.30028e-05
0.00127207
-0.00127528
0.00220461
-0.000708037
-0.000732166
-0.00076441
-0.00107624
1.37151e-05
0.00147792
-0.000415394
-0.000136292
-0.00103831
0.00125229
-7.76929e-05
0.00104301
-0.00142211
-0.000694695
0.0010738
-0.000986747
0.000958576
2.81706e-05
-2.95045e-05
0.000952353
-0.000922848
-0.000466134
-0.00109054
-0.000402455
0.00195913
-0.000809267
0.000906115
-9.68474e-05
-0.000152961
-0.00132768
-0.000334602
0.00181524
-0.00234319
0.000863872
-0.00127881
0.00275812
-0.00160392
3.71503e-05
0.00156677
0.000757879
0.000839144
-0.000810992
-0.000786031
0.000976153
-0.000559229
-0.000184669
-0.000232254
0.0013038
2.83842e-05
-0.00133218
0.00124572
-0.00372524
0.000136336
0.000845565
-3.13736e-05
-0.000814191
-0.00144438
-0.000573032
0.00194082
7.65967e-05
-0.000876889
0.00452869
-0.00277259
-0.000879204
-0.00263805
0.00317648
-0.000465201
-7.32257e-05
0.00157673
-0.000908582
0.00219099
-0.000771827
-0.00168097
0.00248288
-3.00856e-05
-4.83628e-06
-0.000121778
-0.000680357
0.000806971
0.00148824
0.00190603
-0.00216802
-0.00122625
-0.0015293
0.00180791
0.000496074
-0.000774676
0.00169575
-0.000310947
-0.000663189
-0.000721618
0.000145259
-0.00108549
-0.000188527
0.00112876
-0.00322222
9.97254e-05
0.0016492
0.0014733
-0.000591313
0.00225046
-0.00087247
-0.000786679
0.000382054
-0.000937498
0.00178659
-0.00123115
-0.000193154
-0.000553009
0.00104585
-0.000299683
-0.000918781
0.000977633
-6.24503e-05
3.59848e-06
0.0016006
-0.00180673
-8.66757e-05
0.000292806
-4.87241e-05
-0.00159579
0.0016084
3.61133e-05
0.000130414
-0.000116285
-0.00152643
0.0015123
0.00220871
-0.000362557
9.40466e-05
-0.0019402
-0.00145324
-0.000305387
0.000372924
0.00138571
0.000491614
-0.000491626
1.25338e-08
0.00108931
-0.00074114
0.000726795
0.000226323
0.00208679
-0.000124766
-0.00218835
-0.000333411
0.000222407
0.000278801
-0.000167798
-0.00162885
-0.00202539
0.00292801
-0.00115806
0.00132611
0.00126298
-0.00143103
-6.49392e-05
0.00129206
-0.00163002
0.000402893
-0.00123957
-0.00129808
-8.23592e-05
-0.000334378
0.00171482
-7.02322e-06
-0.000660541
0.000667564
-7.60188e-06
-0.000952222
0.00221979
-0.00125996
0.000650564
0.000916141
0.0016342
-0.000818249
7.66389e-05
-0.000892589
0.00071787
-0.000199443
-0.00119857
0.000680142
0.000901556
4.28818e-05
-0.00137382
0.00042938
-0.000648997
0.000537521
0.00203442
-0.00192294
0.00174325
0.00124581
0.000163174
-0.00315224
-0.00155845
-9.83747e-05
0.000315745
0.00134108
-0.00130656
0.00139166
-8.51088e-05
-9.1125e-05
0.000865385
-0.000129782
-0.000644478
-0.00026796
0.000551179
-0.000283219
0.00109025
0.00154932
-0.000695658
-0.00194392
0.000933204
-0.00093412
9.16055e-07
-0.00264369
0.000617079
0.00147719
0.000549419
0.000107169
-4.72215e-05
0.00128425
-0.0013442
0.000822267
3.41318e-06
-0.000825681
0.00168881
-0.00187529
-0.00120429
0.00139077
-0.00148674
-0.00287191
0.00171496
-0.000290458
0.00018759
0.00119569
-0.00109283
-0.000512318
0.00155844
-0.000164333
-0.000881785
0.000320293
-0.000846602
0.00124418
0.000973904
4.67179e-05
-0.00102062
0.00289245
-0.000699381
0.000171901
-0.00236497
0.0010929
0.000312811
0.000699757
-0.00167179
0.000803469
0.000168562
-0.00175998
4.98224e-05
0.00131964
0.000390519
-0.000328154
-0.000724035
0.000767115
0.000285074
0.00103127
-0.00132811
0.000296846
-0.000365138
-0.000709917
0.00107505
0.000910558
-0.000589656
-0.00103368
0.000712774
-0.000390015
-0.000217004
0.00156008
-0.000953062
-0.000766326
-0.00122495
0.00094775
0.00104353
-0.00150508
0.00137443
-2.52991e-05
0.000155952
-8.74963e-06
-0.000928748
-0.000225012
-0.000820706
0.00103525
1.04688e-05
0.00157
-0.00147643
0.000428705
-0.000522275
0.00238292
-0.00237115
0.00108114
-0.000415491
0.000456084
-4.05931e-05
-0.000870992
0.000859691
1.1301e-05
-7.87041e-05
0.00109045
0.00037253
-0.00138428
-0.000691258
-0.00108918
-0.000429695
0.00221014
-0.000645515
-0.000496051
0.00224166
-0.00110009
0.00110986
0.000297604
-0.00148617
-0.000214392
0.00165447
-0.000752223
-0.000687851
0.000235171
-0.00109263
-0.000478883
0.00133634
-0.000304481
0.000187173
-0.0015233
0.00164061
0.00151747
-0.00109887
-0.000840019
-0.000626454
-0.000186892
0.00165337
0.000453068
-0.000229347
-0.000227152
3.43076e-06
-0.00177937
0.00207582
-0.000211453
-8.50042e-05
0.000581187
0.000641816
-0.000610878
-0.000612124
-0.000244579
0.0012686
2.66711e-05
-0.00105069
0.00141763
6.04561e-05
-0.00126685
-0.000211234
-0.000174888
-0.00174046
-0.000431428
0.00234678
-0.000150272
0.00125956
-0.00110929
0.00152478
0.00129505
-0.00173591
-0.00108392
0.0010111
7.41123e-07
-0.00101184
0.000111315
-0.00133188
-0.000333242
0.00155381
0.00238336
-0.000340062
-0.00112024
-0.000923067
3.39347e-05
0.00239626
-4.68344e-05
0.00117146
-0.00111949
-5.19709e-05
-0.000421808
-0.000821538
0.00124335
0.00217767
-0.000581108
-0.00136861
-0.00101852
-0.000995941
0.0016744
9.4809e-05
0.000402992
-0.00157213
0.00107433
5.65045e-05
-0.00135669
0.000848713
0.000451473
-6.62824e-06
0.0011825
6.85669e-06
-0.00118273
-0.00023025
-3.16475e-05
-0.00111783
-0.000294163
0.00141199
-1.89841e-05
-0.000970238
0.000989222
0.00207607
0.000157754
-0.000133171
-0.00210065
0.000869587
-0.00161069
0.0003882
0.000352899
0.000548516
1.34292e-06
-0.000549859
-0.00158317
0.000258325
-6.39391e-05
0.00138879
0.000567009
4.18495e-05
0.00123647
-0.00184533
-0.000582827
0.000629064
-0.00174774
0.00170151
0.000174465
-0.000229334
-0.00163484
0.00168971
0.00116265
-0.00108613
-0.00249663
0.000284749
0.000736537
-0.000751325
-0.000762018
0.000776806
-0.000672315
0.000675194
-2.87849e-06
-0.00159847
-0.000564542
0.00239531
-0.000343171
-0.00148759
-0.000931588
-0.000283282
0.00126392
-4.90539e-05
0.000268455
0.00151826
-0.000581399
-0.00120532
-0.00300912
-0.00252846
0.000197107
0.00242342
-9.20644e-05
0.000179812
0.000129611
-0.00104288
0.000733459
0.00166677
-0.00153987
-0.00171995
0.0012151
0.000348059
-0.00156316
0.00173156
-0.000320162
-0.00123898
-0.000172425
-0.00103542
-5.73694e-05
-0.000699097
0.00179189
0.00170072
-0.00143857
-0.000506295
0.000244143
7.47497e-05
0.000527571
-0.00162523
0.00102291
5.46361e-06
0.000885028
0.000135925
-0.00102642
-0.00082498
0.00105043
0.000296723
-0.000522169
1.23347e-05
0.00145331
-1.14918e-05
-0.00145415
-0.00109796
0.00111029
-0.00102338
-2.28672e-06
0.00102567
-0.00167017
-0.00015421
0.0004178
0.00140658
0.00117466
-0.00114862
0.000687407
-0.000713444
0.000289878
0.00102037
-0.00110174
-0.000208505
-0.00141381
0.00206931
-0.000238201
-0.000417306
0.000823428
-0.000786849
-3.65792e-05
1.6044e-05
0.000652586
0.00171429
-0.00138146
0.00117765
0.000507087
-0.000303282
-0.000340573
0.000758879
-0.000418306
-3.54442e-05
0.00118655
-0.00115111
-0.00185958
0.000705301
0.000361774
0.000792508
-0.00334
0.00243422
0.000921822
0.00247913
-0.000296431
-0.000424102
-0.00175859
0.000991678
0.000121628
0.000634621
-2.94358e-05
-0.000665032
5.98474e-05
0.000686735
-0.000538569
2.68021e-05
-0.00159544
0.00156864
-0.00275522
0.00197001
-0.000875208
0.00211122
-0.00142883
0.000192809
0.00144122
-0.00194933
0.000602922
0.00110791
-0.00202365
0.000390128
0.000525621
-0.00102911
0.00123611
-0.000206995
0.00214738
0.000449578
-5.27753e-06
-0.00259168
-0.0010317
0.00104049
-8.79291e-06
0.00280678
-0.00251562
0.000324705
0.00166339
-5.42718e-05
-0.00160911
0.00119367
-0.00121683
2.31624e-05
-0.00119336
0.000134071
0.00105929
-0.000459961
-0.0011292
0.000395801