/*--------------------------------*- C++ -*----------------------------------*\
  =========                 |
  \\      /  F ield         | OpenFOAM: The Open Source CFD Toolbox
   \\    /   O peration     | Website:  https://openfoam.org
    \\  /    A nd           | Version:  10
     \\/     M anipulation  |
\*---------------------------------------------------------------------------*/
FoamFile
{
    format      ascii;
    class       volScalarField;
    location    "117";
    object      SgT;
}
// * * * * * * * * * * * * * * * * * * * * * * * * * * * * * * * * * * * * * //

dimensions      [1 -1 -3 -1 0 0 0];

internalField   nonuniform List<scalar> 
59698
(
0.0132572
0.000152861
0.000210302
2.02383e-06
0.0304848
3.26554e-18
0.00213494
3.0333e-05
1.62059e-15
2.51737e-17
1.78888e-15
0.000299043
3.4599e-17
6.17824e-06
0.000354936
7.63379e-16
6.94345e-06
0.000145933
4.51695e-05
0.000268966
0.00140666
0.0140993
1.21004e-07
1.59436e-18
0.0422046
6.76486e-05
0.000342734
0.0075668
0.00671297
0.00748717
0.00481295
2.91384e-16
1.92095e-16
0.0123165
0.00249549
0.000163091
0.0189045
0.0205234
3.08747e-05
0.0224838
0.00863223
1.04393e-17
0.00369142
0.000643102
1.56781e-17
0.0321469
7.34556e-05
0.000731348
0.00024642
0.000174114
0.00151631
0.00011939
0.000336861
5.06243e-06
0.00916701
7.68968e-05
0.00132407
0.000213129
0.000806654
0.00276367
0.00346645
0.00049843
0.122078
7.0384e-05
0.0124485
0.00161156
3.49439e-16
0.000399414
5.55692e-05
1.08077e-15
7.87723e-10
0.000252238
4.41799e-06
0.0422465
7.54767e-18
0.039237
0.000118649
0.00923666
0.000360128
0.0061744
0.00885046
0.000477194
6.45636e-17
1.60807e-05
0.00855781
0.000552012
3.69527e-06
4.19717e-05
0.0634591
0.000129315
1.47951e-16
0.00206072
0.0148232
9.70964e-06
7.32802e-05
0.00016036
0.00534449
6.10532e-05
0.000266297
1.46226e-18
0.0734064
0.00179266
0.0162622
0.0121288
0.000121442
6.09015e-17
4.40233e-05
3.67378e-05
3.11013e-16
4.45345e-17
0.000250292
4.65522e-06
0.0380765
5.74102e-18
2.62419e-05
4.49202e-05
3.98199e-05
4.40114e-06
2.33055e-05
6.5343e-17
3.63481e-05
0.000707662
9.25815e-07
6.17988e-06
2.12185e-05
3.34554e-05
0.0108239
4.33515e-17
2.79013e-05
2.92717e-05
0.0418172
3.72084e-05
3.19493e-17
0.10016
0.00431523
0.00440473
1.63478e-06
1.05342e-16
0.000255199
0.000131033
0.00010942
1.59675e-06
0.000175145
0.00266787
9.78406e-06
0.000694064
5.78827e-06
2.17789e-05
1.72935e-06
0.0292733
4.19367e-05
7.85124e-16
0.00147168
7.35477e-06
0.000161103
0.000343129
4.75373e-05
3.19259e-07
0.0124548
1.49593e-16
0.000864507
5.12114e-05
0.0163413
0.00162507
0.00339282
0.0322987
0.000238021
0.071527
0.000496264
0.000412713
0.011902
2.33738e-08
0.0107997
0.0146608
0.0790282
0.000728415
2.86287e-17
5.07961e-05
5.30856e-16
0.0063276
0.00943872
0.0182436
0.0148229
1.98174e-05
0.0458064
0.000235339
0.0114812
9.91443e-05
6.47731e-06
0.00118087
0.000405935
6.7491e-05
0.00265529
0.0385799
0.00408187
3.89814e-06
0.00986011
0.0558273
1.43893e-05
0.00774815
1.36702e-15
0.00610669
0.0211767
6.64986e-05
0.00690658
0.00032141
0.00610739
0.000803543
0.00511388
0.00798032
0.000134093
2.36311e-05
0.000165081
3.52816e-18
0.00408943
4.88625e-07
3.72019e-05
3.5922e-05
0.0127944
0.00662778
0.00561068
0.000508506
2.99151e-05
0.0662763
0.000825058
0.0236457
0.00733138
0.00324523
0.00691298
0.15886
6.28469e-16
0.00470363
0.00292896
0.0032262
1.38536e-05
0.00964073
0.0831676
1.91271e-05
6.87493e-07
0.000442688
1.11099e-05
0.00147741
0.013498
4.73053e-18
0.00611033
0.00012037
0.00375359
0.230776
0.00122089
0.000426431
0.00070482
0.00164838
0.000629409
8.54799e-16
0.000618263
0.00069476
0.00601615
0.00128684
0.000497143
4.09437e-05
7.02674e-06
2.14219e-17
0.000392071
0.00321575
0.00114401
0.0478521
2.32888e-05
4.58973e-15
0.000165074
1.63209e-05
0.000141356
0.0441052
0.000154108
1.84911e-05
0.0179527
0.000206294
1.634e-07
0.000510492
0.00211154
3.6622e-17
9.69297e-17
0.00019327
0.000212332
0.105292
0.0458772
0.0201247
0.000134597
3.44265e-10
0.0731463
0.000445369
0.0915577
1.49673e-05
0.000187927
0.000164575
0.000321319
3.25143e-06
0.000356221
0.000804562
0.00422305
1.11244e-05
0.00272407
1.3479e-17
1.58565e-17
0.000825189
6.48013e-05
5.25881e-05
0.0519508
0.00101044
2.00824e-06
0.000267273
7.85113e-05
7.0949e-05
3.8469e-05
1.12753e-17
2.45974e-05
0.00513273
2.02218e-17
0.000392273
1.71587e-17
0.000805533
0.00034152
0.324263
0.000320237
4.94352e-18
0.0476127
0.0103762
0.000327977
0.000352905
0.000438148
1.22837e-17
0.00639877
0.00417285
0.0202678
0.207338
3.14806e-16
1.90228e-05
1.00088e-05
0.00066392
0.00911897
0.00327908
0.0102496
3.91535e-06
2.89738e-05
0.00147428
9.66825e-05
6.71995e-06
9.90864e-05
0.0393388
4.80303e-05
1.49627e-05
0.00800194
9.1688e-05
0.0401645
6.92112e-19
0.243691
0.000255605
0.0141159
0.000126217
3.79161e-05
7.12898e-16
2.76166e-05
8.7994e-06
1.33663e-15
0.000882272
1.43123e-17
8.76273e-19
1.65152e-05
1.33146e-05
0.000156433
0.00165958
0.00189555
4.71851e-16
5.02743e-06
2.64229e-17
0.00619353
3.45065e-17
0.000153489
2.46165e-05
2.71598e-16
9.72715e-16
1.25161e-19
0.000103484
5.66795e-05
0.000523321
0.000140003
1.29268e-05
0.00021132
7.11573e-18
2.82399e-17
0.000143354
8.76495e-05
5.048e-19
0.00126319
0.0025714
0.00129418
0.000474827
0.0484061
1.32579e-05
2.28189e-05
0.000145519
0.000408225
2.2528e-05
1.26679e-05
3.9952e-05
3.53256e-06
2.79207e-05
0.0818748
0.0252332
2.21103e-05
0.00540432
0.0316741
9.37294e-16
0.000147625
4.81015e-15
4.5277e-08
0.0595345
2.72464e-06
0.0103678
0.000510682
8.20853e-05
0.00011601
4.95579e-06
3.60818e-05
0.308776
3.76598e-05
1.3093e-05
9.33596e-16
0.000220898
4.67415e-05
1.25024e-16
0.000261678
0.00018675
0.0151645
0.00303139
0.00212988
2.51056e-16
3.51542e-15
0.212343
0.000123737
0.00105838
1.73913e-18
4.69678e-05
5.96303e-16
2.17269e-05
4.01673e-05
0.00239707
0.0699752
6.62227e-18
6.4706e-05
0.00906767
1.81927e-05
0.000124988
5.8483e-05
0.0331247
0.00028231
9.69664e-05
0.108243
2.73696e-17
0.00956419
2.87683e-05
0.0541646
8.62274e-06
0.0124786
0.013326
5.55336e-17
0.000974835
0.000447349
0.00847496
3.31783e-05
0.00804853
0.000449923
3.67022e-16
1.89556e-16
1.50758e-16
0.000384629
0.000814747
0.00112844
0.0691315
0.00320121
0.000254589
3.4998e-05
0.000496623
3.94138e-05
1.30431e-16
0.00543758
4.57342e-05
5.56422e-05
9.3851e-05
0.0659274
0.00178406
0.0232375
0.0657764
0.00111195
0.000163559
0.0545564
6.15667e-05
5.52537e-07
3.60777e-06
0.00946974
3.08815e-17
4.02729e-17
0.0643272
0.00712565
0.00460117
6.24677e-17
2.78213e-16
3.82665e-05
1.29893e-16
1.24401e-05
0.00316061
0.000583635
0.074808
0.00727414
1.2339e-18
0.00912157
5.59383e-05
1.59235e-17
3.85415e-05
2.75545e-17
3.45166e-18
0.00546472
0.0037776
1.16766e-05
9.66513e-18
1.13251e-17
0.00124388
0.00949294
1.02643e-05
0.00724563
0.00019121
3.88528e-05
0.03907
4.82192e-19
2.22486e-05
7.24934e-07
4.0364e-16
3.16846e-18
6.92166e-05
0.00013891
1.19008e-15
0.00966559
0.000357642
0.000148167
0.0682465
0.00818764
0.0135344
0.0101097
6.3701e-06
0.0117091
3.84353e-07
4.20096e-05
4.36034e-16
3.93814e-05
3.05842e-18
0.000283535
3.0036e-06
4.05239e-17
0.00114532
0.00689094
0.000444812
1.03333e-16
9.94836e-17
3.2993e-05
8.40609e-05
5.56426e-05
8.91746e-18
0.0744795
5.28247e-05
0.00553779
1.64961e-15
0.00288286
6.43282e-05
3.28278e-16
0.00259925
0.00287659
0.00338438
6.78974e-05
0.00401058
0.000114381
4.47649e-17
1.20564e-18
7.6054e-05
0.001988
5.43003e-05
0.00408385
2.53498e-17
0.00242535
1.77219e-05
0.00420659
0.0026885
0.00216247
0.000155662
0.000371816
0.00016775
1.61439e-17
1.89976e-05
1.21564e-12
0.00167236
6.9636e-18
4.55018e-17
0.00518974
3.36511e-05
3.40582e-17
3.039e-05
0.00146926
0.00216184
0.000165314
2.82871e-18
7.46624e-05
6.39758e-07
8.07859e-06
0.000546687
1.01279e-05
0.0043396
0.00141786
0.00279428
2.20864e-05
0.2248
1.87978
2.05839e-05
3.59668e-16
0.000594692
0.0021302
0.000896786
6.06371e-05
4.84553e-05
0.0044627
0.00246156
0.003187
0.00155427
7.36001e-05
5.05724e-16
9.19991e-05
0.00113759
0.000107498
0.00134045
0.00023938
2.42133e-05
5.23073e-05
0.106159
0.000237945
4.95126e-06
7.76048e-16
1.7755e-16
0.00242989
0.00382664
4.11062e-05
0.000336703
0.000120782
9.90615e-17
2.10239e-16
0.000176123
0.00827345
0.000799626
0.000583892
0.000113919
4.06339e-05
2.81611e-07
0.00032716
0.000209655
0.000308148
0.000815601
0.000892081
0.0196858
0.0914279
0.0013669
3.36491e-05
2.55273e-05
8.77483e-05
0.0415189
2.95944e-17
2.08586e-05
0.000460714
0.000109203
0.000144027
0.00168493
3.67877e-19
0.00826149
0.0472807
0.000145007
0.000422063
7.97626e-05
1.24858e-18
8.67265e-18
1.04843e-05
1.5616e-05
0.00214999
0.000194931
0.000191685
0.00869201
0.0043976
0.0364591
0.00080606
7.00389e-05
2.02773e-05
7.79942e-05
0.000243015
0.00118142
5.45743e-17
0.000159028
2.0039e-17
7.28017e-17
0.00660573
0.000820208
4.50054e-05
2.91517e-16
0.00637703
2.87099e-05
4.39706e-06
6.72852e-19
0.00156913
1.80717e-18
0.000506353
4.45293e-16
2.80727e-05
0.00198591
0.00924542
3.42356e-05
3.87961e-16
1.49197e-16
0.059951
0.00081911
3.8325e-05
0.000949845
0.00146359
0.0256861
0.00695432
5.19108e-17
0.05548
5.1766e-05
0.00256054
3.16597e-17
0.00770787
7.28392e-05
6.48282e-18
0.0112564
0.000185369
6.65231e-16
0.0030752
0.0598822
0.000585002
6.93186e-05
0.24665
6.82597e-06
0.000730864
0.00240558
0.00191747
0.00176725
5.24782e-06
0.0132323
1.90454e-05
0.0600184
0.00316994
0.022592
4.62331e-17
0.000212756
0.104929
0.238805
7.68173e-16
6.85226e-05
0.0499792
2.88645e-18
0.00225385
0.00519712
3.67804e-05
0.0061396
0.00410608
5.96446e-05
4.20421e-16
0.00195344
0.0142062
2.9109e-17
5.91239e-17
3.84197e-05
5.09073e-16
0.00438366
3.82115e-05
0.000223518
0.00609684
0.00520111
1.23023
1.94152e-17
0.0247171
0.0097278
0.0210674
0.0010422
0.00470018
3.71548e-18
0.000994743
0.00161343
1.51463e-06
0.00667596
0.0111209
0.10456
0.000320984
0.0054419
5.53172e-16
3.67981e-16
9.66601e-17
0.000367499
0.000233682
2.31844e-16
6.19641e-05
1.75796e-06
0.00950546
0.000140421
0.000722212
2.71628e-06
5.04725e-17
0.0068734
4.78245e-17
8.32857e-16
6.0939e-05
8.15476e-11
6.18998e-05
0.0137049
2.46142e-17
1.19122e-06
0.0200696
0.210348
8.06216e-05
0.00884464
0.000128914
0.000680911
2.95458e-16
5.62905e-16
0.00169058
0.000847019
0.00751384
5.02678e-17
0.00628079
1.97669e-06
2.02828e-06
4.54476e-17
7.34586e-05
8.32102e-05
3.98286e-06
4.75679e-16
6.82431e-05
0.000212381
4.55081e-15
1.27014e-16
7.50341e-16
1.68246e-16
1.54751e-16
0.00206735
0.000191816
0.00153385
8.37839e-18
0.00405876
1.64954e-05
6.40405e-17
0.015895
3.16306e-17
0.000153068
2.27695e-17
0.0358337
0.00489867
0.000874808
8.92821e-06
2.47392e-05
0.0105696
1.27493e-18
0.00980045
0.000131938
3.35922e-16
0.00048899
7.91207e-07
3.31419e-05
1.11508e-16
9.96413e-05
1.6992e-17
0.008871
1.14006e-18
0.00208375
5.62017e-18
7.03343e-05
6.52698e-05
0.00164699
0.000597542
0.000178114
6.05078e-06
0.00202542
2.27401e-18
5.62288e-17
6.50858e-07
6.29616e-05
3.31119e-05
8.02061e-06
1.81362e-17
0.000268356
0.00373248
0.0183078
3.74546e-17
0.00106013
0.00297314
9.16445e-05
0.00279888
1.08554e-15
4.3701e-17
0.00449448
0.000149385
1.7663e-17
0.000184726
0.00162398
5.31523e-17
0.00262052
0.000106138
1.2237e-05
0.0653352
5.3811e-17
8.00189e-06
1.33117e-06
1.04323e-17
7.18656e-17
5.43943e-05
2.43226e-05
6.39166e-06
0.0202001
0.00398595
4.8666e-07
0.0407024
9.37503e-05
0.00132974
0.1148
0.000230231
0.00458787
0.00452229
0.0323829
0.0583273
3.64707e-17
1.09869e-06
6.76003e-17
0.0247288
0.000271852
0.000344632
0.00141613
6.01735e-17
1.20666e-17
0.00244783
0.000575626
1.56676e-05
0.00676471
0.00281722
1.61088e-06
8.1587e-05
0.0250904
0.000728294
0.000141371
4.69944e-05
6.03938e-14
5.68945e-05
0.00018119
0.00107011
2.04277e-05
4.82039e-05
1.67566e-07
4.90157e-16
0.000163458
0.000107153
0.00542902
2.51902e-17
0.000141121
0.00961175
0.00190504
0.000294451
0.000415104
0.000265999
0.000129481
0.000424987
4.01844e-17
4.99463e-17
6.06286e-17
0.000149619
5.91472e-19
0.000396987
0.0109738
0.0161411
0.0177732
7.58007e-06
8.46183e-06
0.00292252
0.00115791
0.00273083
0.00391306
0.000405672
4.61784e-05
0.00018156
4.41234e-05
0.0109784
0.0564128
0.00197966
7.71336e-17
6.84559e-07
1.77921e-17
8.88532e-05
0.0011465
0.00032142
0.00233519
4.98577e-16
7.90803e-15
0.000123136
0.00237191
0.00235374
0.000784138
6.43213e-06
0.0473365
1.52819e-18
1.57688e-05
2.87977e-06
0.0200845
1.96676e-17
0.000396146
1.39779e-05
0.00105325
0.000453874
0.0015993
0.00112688
3.43089e-05
7.89737e-06
4.96419e-05
1.3425e-06
0.00546366
0.00948665
0.0100965
0.00817141
0.00529228
0.00576091
1.40782e-07
0.000147699
5.82547e-18
0.00592875
0.00474349
0.00222816
8.58665e-17
0.000118911
0.00395188
0.000245547
0.00161774
6.36268e-05
0.0148334
0.00012689
0.0406785
8.36554e-05
0.736302
7.59917e-06
1.67105e-16
1.34733e-05
2.44745e-05
3.54839e-16
2.23756e-10
0.00398764
0.0069898
0.00174087
0.00063713
0.00358552
7.48187e-18
6.28695e-18
0.019792
1.24491e-16
0.00093372
0.00115771
0.000177687
0.000324108
0.00112634
3.68249e-16
1.86914e-17
0.00818153
0.000783646
0.0921227
2.58496e-16
0.000657757
0.0822016
5.54786e-17
0.00878952
0.00277809
0.0251906
1.56521e-05
0.00361971
3.5039e-05
6.76797e-06
0.00132415
7.61081e-20
0.00124607
4.23094e-05
0.000117342
0.000125638
9.14112e-06
1.88361e-05
0.00323448
0.00967357
1.09657e-16
0.00218866
0.000524186
0.000160435
0.0362159
0.0543881
0.00503312
0.000369537
0.00327611
0.459125
0.0239875
0.0262671
0.000459383
5.47913e-18
0.102363
0.000136681
2.18461e-18
1.49043e-06
0.014403
0.000215032
0.00170418
0.000327784
0.00174756
1.09965e-18
0.0025029
0.00901828
0.00288376
0.00064489
0.000740417
1.3364e-17
1.50284e-17
0.000131083
0.00363992
8.74014e-17
0.00114651
0.000585316
0.00777731
0.000354485
0.117044
4.50013e-05
0.00118617
3.38812e-07
0.00563711
9.29182e-05
0.00109979
0.00258015
6.48263e-19
1.57019e-07
1.23443e-05
0.000137575
1.39229e-05
3.82692e-05
0.0187073
0.0101652
1.04756e-05
0.00150459
0.0838633
0.0010965
0.0040058
0.000114378
1.80763e-05
0.00366646
0.0362747
0.00877891
0.0026477
0.000182972
0.001924
0.00336373
0.00299777
0.00371415
0.00537527
1.69067e-17
0.115666
0.0500269
0.000489892
9.85608e-07
3.04066e-05
0.000481102
3.49772e-06
0.0261319
0.00113449
7.10468e-07
0.00229464
0.000371798
1.34233e-16
0.003561
2.27922e-19
0.00269213
2.67507e-05
0.00148413
0.00377258
9.24478e-05
0.0194336
0.000150801
1.2277e-18
0.0036328
0.000183429
0.000398137
0.00211519
0.0119159
2.26882e-18
1.46251e-18
0.00037382
0.000265819
3.40453e-10
4.37601e-16
0.000190231
7.30219e-05
9.71784e-05
9.09631e-17
4.91996e-18
0.00085616
5.18703e-06
1.83885e-05
1.82539e-05
0.000319549
6.09059e-08
5.63656e-17
4.42639e-05
7.3972e-16
2.93147e-05
2.16658e-15
4.37822e-06
6.05806e-16
0.00389162
0.103333
5.30387e-05
0.00477726
0.00167789
0.00173878
2.83635e-17
3.49088e-06
4.40575e-05
0.00838096
0.0196357
0.00287864
5.0179e-05
1.74645e-16
8.49484e-05
6.60267e-15
0.00476998
0.00949231
2.74413e-17
0.00211368
0.00285173
0.00107686
0.00350279
1.68389e-05
0.0145305
0.00189997
0.00252279
9.77413e-05
2.75699e-18
8.77131e-17
5.25818e-05
0.00561852
8.24238e-06
2.22467e-17
3.49516e-05
0.00502244
0.000211691
0.00100843
0.0010186
5.96084e-05
3.28833e-07
4.82427e-05
0.00388715
9.71147e-05
8.59498e-05
0.0283451
0.00206969
0.000858533
6.11647e-05
4.04065e-20
0.00101957
9.64857e-18
0.0145751
1.32313e-16
1.13743e-15
0.00123169
1.26003e-16
0.000869098
0.000217111
4.53199e-12
1.0076e-19
0.000215348
0.000283232
3.69696e-17
0.00219734
6.99271e-06
0.000277415
0.000575539
2.33306e-05
2.82131e-17
0.00523935
0.000203747
2.73418e-17
0.0475915
6.51323e-05
3.26643e-05
0.000268113
1.62902e-18
1.62623e-05
5.93732e-17
8.77308e-05
8.4079e-18
9.54416e-06
0.000953833
0.000351299
0.00273665
0.00430195
0.00129314
1.52417e-05
0.0629015
4.18298e-06
3.09153e-14
0.00214063
0.000802006
0.00342053
1.11624e-05
3.60679e-15
0.35096
1.66466e-06
1.78691e-15
3.47583e-05
0.023092
0.00302486
4.09188e-15
9.70713e-17
2.06283e-05
0.000589097
0.036144
0.00218335
0.00870993
0.0117044
4.83687e-18
1.53581e-16
6.52769e-17
3.62681e-05
0.00828401
1.0498e-15
0.0747712
2.33476e-17
0.000475242
1.43257e-16
3.72641e-15
4.51438e-16
0.000377227
0.0085616
0.0180921
1.0586e-16
0.00185082
0.00450744
7.75925e-18
0.000242245
0.00098857
0.00200765
0.000398292
0.000821595
0.00749764
0.0106979
0.000591942
0.00161287
0.00266779
3.70081e-05
3.01424e-17
7.63048e-18
0.0137916
0.0115525
0.00350859
0.0471846
0.00266764
0.000171738
0.00522834
0.00018493
7.41949e-15
0.00106297
0.0223328
0.000286984
0.0205724
0.0115439
0.0340347
3.23087e-19
0.101572
0.00880735
0.00175406
0.00467236
0.0645454
0.000401546
0.00283171
4.14553e-06
7.88766e-05
0.00798049
0.00112734
3.14323e-05
1.83018e-06
0.000102854
0.0248766
0.294207
0.000156588
0.00900678
0.000291755
0.000136626
2.03908e-17
0.190478
0.000615516
0.286867
0.781508
3.2946e-06
2.46004e-16
7.58653e-06
0.000174615
0.0106676
0.00561925
0.0101521
0.0633948
0.0340917
0.00183778
1.51474e-05
0.0103887
0.0113605
9.46087e-16
0.000534039
8.95587e-18
0.000245424
0.000420627
3.3501e-18
0.137947
0.000201046
6.90629e-05
3.92701e-16
0.000257741
0.000182498
4.8349e-18
2.02385e-17
0.479726
0.0314166
0.184605
0.148596
0.00217661
1.12324e-16
0.00652764
0.00125268
2.81134e-05
2.28631e-18
0.0850183
4.22524e-17
3.3087e-06
6.97453e-05
8.48778e-18
0.0165596
4.71836e-05
0.00854448
5.29878e-05
6.46078e-05
0.000137417
0.000599209
0.00112597
0.0129913
3.35345e-06
0.00115694
7.02244e-05
0.0149197
4.22713e-17
3.30124e-17
2.19327e-06
0.0134322
0.000152826
0.000165883
9.19816e-05
0.0313818
0.000503101
0.000196394
3.07781e-05
9.69304e-06
5.50736e-06
0.00307328
5.44193e-16
2.91137e-05
2.42264e-05
1.76911e-15
0.000122788
5.94388e-07
2.00609e-16
0.000208732
3.5411e-17
0.010757
4.03087e-08
2.95037e-16
0.00190811
0.00168361
0.0095218
0.000579117
0.010231
0.000301526
3.82827e-16
8.13605e-18
3.01338e-18
1.16014e-16
2.09998e-16
5.28644e-05
1.76657e-07
1.60794e-05
0.00946884
0.00172596
1.61124e-15
0.0174919
4.3788e-05
0.00020567
0.0145545
0.00618771
0.0123129
0.0131398
0.00332605
2.363e-18
0.321839
0.0624093
0.000811998
6.54916e-17
0.0148968
0.00091304
0.0242487
0.000104142
4.14616e-18
0.0119975
5.3848e-06
0.00677094
6.19545e-16
0.000131919
0.00755859
1.66397e-05
0.0312632
0.354882
0.0011346
0.0548888
2.59751e-16
1.04911e-15
1.53634e-05
1.69848e-06
0.104231
1.30437e-05
0.00167247
0.000483985
4.21336e-16
0.00164572
1.78506e-05
2.01121e-16
2.69146e-17
0.0265625
8.61444e-18
5.70678e-05
0.0619484
1.04155e-13
0.00270655
2.72384e-18
4.59147e-16
0.00110486
0.000153301
6.84252e-17
3.41749e-06
1.90938e-15
0.0025112
0.000524635
1.38033e-15
1.22655e-16
0.000849246
5.43307e-06
0.00279346
1.39318e-16
3.63628e-06
0.000626765
9.22848e-05
5.11168e-05
0.0319995
5.72597e-18
5.57288e-05
6.45104e-17
0.0016942
0.0338127
3.52485e-16
3.22954e-14
2.18382e-16
0.000169998
5.85877e-16
0.00195122
0.29624
1.13237e-16
2.94622e-06
4.12216e-05
1.54585e-17
1.35604e-15
4.19271e-17
0.000176332
3.10821e-17
0.000846651
1.22273e-16
0.000105329
0.000199475
1.18662e-16
0.0114768
2.47421e-17
1.2704e-18
0.00147953
0.000106074
0.00140067
0.0445614
4.84558e-16
0.000172832
0.000122942
8.521e-05
0.0001069
2.70711e-05
6.21482e-17
2.94633e-15
4.2558e-05
6.72764e-16
4.64605e-17
1.1275e-05
1.29215e-16
8.46902e-05
0.022613
7.68173e-16
0.00622563
0.000123612
0.0155509
2.03329e-05
0.000118576
4.66973e-05
0.00437208
2.77933e-05
0.00410902
0.01925
2.20379e-05
6.15799e-05
2.5456e-05
0.000149664
0.000859311
0.00034809
0.000107436
0.0163054
7.15343e-05
0.0103728
4.66003e-06
0.877081
0.443264
0.00010986
0.0413258
8.3084e-05
0.000391809
0.00937766
8.94095e-10
0.603632
0.0440504
0.00451498
0.000622448
0.0283173
0.393505
8.98458e-05
0.0251229
0.00438087
0.00223031
0.123257
0.04407
0.000577294
0.000949443
0.0259915
0.0487856
0.00412154
0.000309393
0.031291
0.0002057
0.0140475
3.11048e-17
1.11598e-05
0.00662687
0.000214145
9.40401e-07
0.00392531
0.000125304
0.000127967
0.000294784
5.50126e-17
0.00785677
0.00604389
5.51931e-17
0.00044422
0.00170027
1.42843e-05
0.00410447
7.93552e-16
0.0115732
0.0634303
4.31372e-07
0.0333891
0.000141044
0.00115523
0.000143877
0.000439152
0.0304167
0.00412927
0.000222988
0.0270141
0.000304518
7.64467e-05
0.000365703
2.63242e-16
1.11144e-16
0.00544392
0.0258808
0.0146835
0.00504919
0.00548947
0.00105366
0.000132828
8.04633e-05
0.000136767
1.64116e-05
1.31551e-08
0.00174844
3.25329e-07
3.61368e-06
4.79722e-06
3.71895e-06
9.29863e-06
5.68662e-05
0.0101702
5.11082e-06
2.20961e-06
0.0033658
0.000275439
2.53581e-05
4.96436e-16
0.00679309
4.24385e-06
0.00504216
0.000438837
0.00426471
0.00011992
4.34084e-05
1.10403e-05
0.000117096
7.71442e-07
0.0015337
9.47109e-17
4.7113e-05
8.92023e-05
0.0347438
0.000165827
0.0042754
1.75269e-05
0.000176662
0.000307999
0.00844103
1.86375e-07
1.54769e-05
0.00362727
1.18916e-06
1.01314e-06
0.00190146
0.000365664
4.17042e-05
0.00300015
5.98665e-05
0.00598836
0.0289135
3.71088e-05
8.10736e-05
0.0030035
0.000327741
0.00426142
7.65731e-05
0.00614825
0.000358466
0.00278856
2.85251e-05
0.000732942
0.000923365
0.00721562
6.17077e-05
0.019872
0.00617135
0.000238213
0.0013895
0.00159725
0.000251796
2.90984e-05
0.00247412
0.0219375
3.39224e-06
0.0377894
0.000202816
3.76392e-08
0.000109674
0.00188448
1.00691e-05
0.000880037
0.0138732
0.0212089
0.0020819
0.00952117
6.57318e-05
7.63104e-05
0.00437305
0.0144656
0.00044744
7.61092e-07
2.47689e-05
0.0826144
0.0419812
0.000104198
5.02554e-05
1.43823e-07
7.83928e-06
0.000113581
0.0337838
0.00863256
0.015839
3.87552e-05
0.00100256
2.86012e-05
0.0193924
2.42865e-18
0.00338195
2.53934e-05
0.00104728
0.0201725
7.456e-05
0.000396037
3.61773e-05
2.66058e-05
5.97792e-06
1.67849e-06
0.0235822
0.000227157
2.27695e-07
0.0200078
2.05563e-05
5.1511e-17
0.000426817
0.000363374
1.80359e-05
0.0134
0.000466032
1.04251e-18
5.24341e-05
1.20942e-05
1.45295e-06
5.67139e-06
2.08092e-05
1.66353e-16
2.59878e-05
3.1991e-05
0.0116538
0.00289083
0.000369951
9.43988e-10
0.000295737
0.0602991
3.81008e-05
4.37584e-17
0.0180756
0.00280844
2.19372e-05
0.00331934
4.58647e-15
2.03569e-18
0.0182979
0.00216974
0.0228858
0.000773059
0.0497949
0.0142528
0.000125377
0.0256535
1.52272e-05
0.0895602
0.00325759
3.78551e-15
3.55271e-05
0.256638
0.00480984
0.00100795
0.00308894
0.000158661
0.0033608
0.0308615
0.00849908
0.00287785
0.143873
0.00374303
9.84123e-19
0.0177148
0.0639956
0.0346659
0.00132792
3.30637e-05
0.000211058
6.08916e-05
0.000667451
0.0188912
0.0197639
2.17112e-08
0.0522708
0.0229838
0.000628268
4.0614e-06
0.0136772
0.00323775
0.000697595
0.0502882
0.00053918
0.00011392
0.0107502
0.0108641
0.0219081
5.89892e-05
5.04498e-07
0.00160062
0.0162798
1.88397e-16
9.40202e-05
0.173053
0.00259725
0.00122802
0.00072977
4.36039e-05
0.00436497
4.84263e-17
0.0186709
1.7121e-06
0.0141048
3.2916e-05
0.00557999
6.31976e-18
0.0164716
2.01575e-11
0.000118369
0.0087248
1.29672e-05
0.00666261
0.00770577
3.32657e-05
0.0159066
0.000134051
0.0156802
0.00656528
0.00926738
0.0563547
0.0055837
0.0293508
0.0345953
0.0170441
4.36684e-05
0.00452882
0.000172298
0.000972855
0.000916148
0.00126089
0.00222245
0.000636897
8.928e-06
3.29789e-05
2.79492e-06
0.00133727
0.00127908
0.052089
0.00324693
3.01317e-05
0.000110756
2.3665e-05
0.000452496
8.78409e-06
0.00106499
0.0299352
0.00254352
0.0019295
5.2359e-05
0.0170292
4.90803e-07
3.28051e-05
1.89098e-06
0.000217811
0.034635
0.0068703
0.000514256
0.000730338
0.00447661
0.000220986
8.8417e-05
0.00491542
4.69878e-16
1.49526e-05
8.47442e-05
2.56515e-05
4.54387e-05
4.69693e-05
0.00104477
0.00859298
0.101147
0.000239721
1.81463e-05
6.7993e-06
0.000327473
0.00834197
0.00240334
5.34636e-05
5.16491e-05
0.00319683
4.85259e-05
0.0101129
0.0738438
0.0449379
0.000174824
0.000527105
8.89001e-06
0.000115341
5.56245e-05
0.00392029
0.000450921
0.000751623
0.0141854
0.00195246
0.00027883
2.32728e-05
0.000430886
0.0298841
9.31846e-07
2.22632e-18
0.0110391
6.05276e-06
0.000563871
0.00459927
2.02209e-09
0.000106135
0.000510706
0.000146118
0.0227268
4.00166e-05
0.000114349
0.000300828
0.00512948
7.81125e-05
0.000698935
0.00010874
0.00128929
0.00959132
3.60022e-05
0.0285969
4.42034e-18
5.10811e-05
0.00237805
7.46214e-05
0.000338758
0.00346384
0.00119915
5.56954e-05
8.62093e-06
0.00180379
3.64343e-05
7.59447e-05
6.71526e-05
0.00335143
1.28643e-05
0.299534
0.000145042
0.000953637
8.52002e-05
3.11291e-05
0.000283272
0.000244408
0.00370051
4.91214e-05
0.000575717
7.21564e-05
0.000905741
0.0139951
0.00279043
0.111865
0.000860281
0.0101487
0.0103514
0.0123848
0.00126063
3.17933e-05
8.00172e-05
9.46998e-05
0.000101406
1.11576e-16
0.00025777
0.0115241
3.61926e-17
6.03605e-18
0.00377392
2.30915e-05
3.21491e-05
0.014937
2.48508e-05
0.000112563
0.00190938
5.22466e-05
5.09795e-05
0.00159142
4.25278e-05
0.0243052
0.0131973
0.0102498
0.00191361
0.00013946
0.00158911
0.000292487
5.87994e-06
4.16221e-05
6.92928e-18
0.000101219
0.0110163
0.0068795
5.32709e-05
7.45536e-06
4.97155e-08
0.000257612
1.44364e-06
0.000341876
0.00411327
8.37266e-06
4.07039e-05
1.44603e-15
4.89664e-05
0.00276025
6.6891e-05
0.000334864
0.00227834
5.32893e-05
0.000100006
6.35319e-06
1.26518e-18
0.0536132
0.000488351
0.000674351
3.63703e-05
1.68573e-07
0.00221211
2.12742e-06
0.00343682
3.82039e-05
2.07964e-18
1.68731e-19
2.8013e-05
0.019473
0.00321421
0.0241303
0.00158437
0.0511503
0.000104686
2.35855e-06
0.000236614
4.57222e-19
0.000885084
7.52131e-05
6.40408e-06
0.000102582
5.04762e-05
0.0192848
0.000441487
0.00232583
0.0057422
7.24801e-05
0.010886
0.0036135
5.15586e-05
0.00093456
0.00320856
0.0297174
0.000302823
6.00911e-17
0.0636079
0.00888574
0.00649831
4.18555e-05
0.062705
0.0002686
0.0153221
3.23371e-05
0.0172338
0.000198136
8.23594e-08
5.9639e-06
9.27504e-06
5.49496e-06
0.040289
0.0145694
0.0145658
1.52375e-06
0.00231857
0.000107348
1.0083e-06
0.000964659
0.000103862
1.76618e-06
6.2119e-06
3.52208e-07
0.000131062
3.14335e-07
0.0363659
0.00307835
0.00034588
2.23336e-15
4.45283e-17
0.00169175
0.000455955
0.00151681
0.000733742
1.38243e-06
0.0140735
0.000252288
0.000667542
0.00205709
0.00126146
0.000134703
7.52782e-05
0.000176089
4.4305e-05
1.8019e-06
1.35397e-05
0.000108547
0.00067158
0.000102676
1.08366e-06
0.016748
0.000217005
0.000571827
2.41079e-05
5.50245e-05
0.000490551
0.00695941
0.0029243
0.000594375
0.000214217
7.15999e-05
5.55872e-06
0.00434298
9.32251e-06
0.00753717
0.000392516
2.48548e-05
0.00187402
0.0959884
5.46018e-05
0.000193816
0.000517796
3.76909e-05
3.85037e-05
1.82843e-06
0.000200061
1.61985e-05
0.00137567
0.00370437
0.000582652
6.71461e-05
7.65171e-07
0.000463903
0.00946821
6.03638e-07
0.000140651
8.69681e-06
2.46604e-05
0.000369592
0.000182023
2.15751e-05
0.000292627
4.79479e-08
0.000101272
7.37086e-13
2.6235e-18
0.000198327
0.120095
7.85645e-06
0.000565005
0.00022563
0.000105363
0.0117096
8.43774e-06
0.00274838
0.000121101
7.95682e-05
0.000520788
1.87721e-05
0.000205542
1.7064e-06
3.87888e-06
0.000108677
0.000122972
0.0185427
0.000602139
0.000357171
0.000355507
3.41359e-06
4.45046e-05
0.000179448
0.00267516
3.06138e-05
1.02981e-16
2.99728e-06
0.00116666
1.47935e-05
0.0123771
0.000291619
8.51706e-08
0.000162113
0.000126776
0.0849201
0.000382935
6.7749e-06
1.19529e-18
5.86455e-18
0.000210227
0.000598097
0.0266057
0.00851826
3.71046e-16
3.07066e-05
0.0380493
0.0398913
2.78639e-18
0.0179745
0.00593008
0.000395362
0.000129994
1.39597e-17
5.76125e-17
0.000317074
3.08026e-16
0.00429386
1.50919e-05
0.000162076
2.64756e-05
5.66877e-05
0.00599901
7.75678e-05
3.9127e-05
3.90507e-05
2.93561e-18
0.00020048
1.64895e-18
2.60026e-16
0.999985
0.000184747
0.0194164
0.00306898
1.08909e-05
1.37223e-16
0.0155576
0.00188608
1.98872e-05
1.62513e-05
0.00329132
1.59374e-15
5.38787e-06
0.000396997
1.69722e-05
0.00222314
0.000556575
0.000462742
0.000533926
5.96154e-06
7.01195e-05
0.01961
0.00282759
0.000589519
1.38564e-17
0.00355234
9.6093e-05
9.44022e-05
0.000246059
0.0093309
0.0126333
0.00411969
0.000756438
0.000179014
0.00253877
0.00190057
0.00202735
0.000459761
0.000229132
1.55238e-18
0.0036646
0.00169252
0.000124857
0.000106732
0.000751602
0.00158177
2.56284e-17
1.41247e-15
0.0226087
1.1091e-05
0.000909558
0.000299317
0.00330696
0.00991894
3.50523e-07
8.86156e-05
0.00556526
0.000154095
0.00012539
7.26947e-05
4.35587e-06
1.27153e-05
1.75156e-05
0.00360834
0.012995
7.10138e-19
0.0060499
0.00159569
0.151715
0.000166406
0.00139391
3.06406e-05
0.00906837
1.14356e-05
8.56643e-05
2.58516e-05
0.0197972
1.205e-05
0.000511835
0.000685383
1.96964e-05
0.00677874
6.61457e-05
0.00221081
0.0168578
0.00693476
5.47266e-05
3.78752e-05
0.0122621
0.000135956
4.4294e-05
0.0019
0.000772753
0.00188793
2.09938e-05
0.000111155
0.00465409
0.0032689
6.44929e-05
2.77916e-05
0.00025709
0.00189702
2.996e-17
7.63118e-05
2.54281e-06
0.000926901
0.015021
0.00284742
0.00156228
0.00333551
0.000491475
0.0314474
0.00132563
0.00741471
0.000250819
1.03742e-05
0.000235691
2.74147e-05
0.000449162
5.86774e-06
1.10499e-17
0.00119483
0.000152839
0.037494
0.000766083
0.00782426
5.30218e-05
0.0074834
0.000341528
0.0148664
0.0174264
0.0013954
0.00971596
1.07664e-05
0.000373305
2.79769e-06
0.000597364
0.000218042
0.000351024
6.17979e-05
0.000307424
9.93564e-05
0.00265612
2.10931e-05
5.5941e-05
5.9628e-05
2.67559e-17
0.0265787
0.000161695
1.60964e-05
3.39004e-05
3.1156e-05
0.000138111
0.00542015
8.64347e-05
3.26774e-07
3.44575e-05
0.00159782
0.00312482
0.00025272
0.0157154
0.0132576
1.32244e-16
0.000208379
0.000164459
0.000100075
0.000291356
0.000473304
0.000452448
2.38405e-05
0.000932714
0.00045104
0.00531832
2.26498e-17
0.00116891
0.000539483
0.00836906
0.00527435
0.00868974
2.06117e-05
0.0537873
0.0219814
0.0974037
2.06509e-05
0.000145965
3.71033e-05
0.000281553
0.00675081
0.0100402
0.0299568
0.0247174
9.17868e-06
1.5957e-05
0.00772684
0.000401017
0.017461
0.30206
0.0175932
0.000343244
0.000448614
0.0160522
0.00157024
0.000242406
0.00072721
0.161547
1.36787
6.95393e-05
1.03645e-06
6.38205e-05
0.00339047
0.0010505
0.00185544
0.00269913
0.00196445
0.00212237
0.000884982
2.85747e-06
3.12098e-05
0.000207763
1.04986e-07
5.73952e-05
0.000443079
2.80083e-05
8.99863e-07
0.00320133
0.0109175
0.00402482
2.46055e-07
1.08748e-05
3.22859e-05
1.98665e-07
6.58653e-05
3.00746e-05
0.00870662
3.99997e-17
0.0311097
0.000107455
0.0482761
0.0150093
0.000250026
0.00216304
1.01712e-05
0.00236658
0.000137206
0.000872481
0.0835217
1.10271e-05
4.69434e-19
5.85513e-10
4.29348e-05
0.00346168
0.00150857