/*--------------------------------*- C++ -*----------------------------------*\
  =========                 |
  \\      /  F ield         | OpenFOAM: The Open Source CFD Toolbox
   \\    /   O peration     | Website:  https://openfoam.org
    \\  /    A nd           | Version:  10
     \\/     M anipulation  |
\*---------------------------------------------------------------------------*/
FoamFile
{
    format      ascii;
    class       volScalarField;
    location    "7.5";
    object      SgT;
}
// * * * * * * * * * * * * * * * * * * * * * * * * * * * * * * * * * * * * * //

dimensions      [1 -1 -3 -1 0 0 0];

internalField   nonuniform List<scalar> 
111485
(
1.01764e-17
9.60614e-06
2.84823e-05
7.64857e-19
5.87123e-05
2.2935e-19
5.5024e-05
7.20982e-06
2.28616e-05
1.43725e-06
5.55145e-05
1.12069e-05
5.70322e-06
1.05177e-06
7.82032e-06
3.65808e-05
1.67607e-06
0.00310751
1.24639e-05
4.06978e-18
6.40675e-18
2.72628e-19
3.13662e-05
4.1598e-05
1.05617e-05
9.02935e-20
4.78185e-05
2.17473e-06
1.82286e-05
4.01871e-18
5.4892e-05
2.25996e-05
2.79486e-18
9.16644e-19
8.21831e-06
6.67002e-19
1.3194e-05
4.98813e-06
4.93742e-11
2.81396e-05
5.82196e-18
8.51399e-05
1.89367e-05
1.70983e-06
7.14198e-08
1.73923e-17
3.63872e-05
8.55724e-07
5.67651e-05
3.31472e-18
6.38566e-18
1.03568e-17
2.72738e-18
6.08529e-05
1.39314e-17
5.23588e-05
3.79697e-06
7.72916e-19
2.61034e-08
5.71506e-06
1.92135e-05
1.66861e-17
5.63282e-06
0.000116438
3.13496e-18
3.83825e-06
0.00037852
0.000113302
1.30594e-06
7.11079e-06
1.6335e-08
7.64125e-06
1.93004e-18
3.41619e-06
4.11565e-17
8.33475e-07
1.10458e-17
5.01465e-05
2.54391e-18
2.20519e-18
3.98928e-09
3.9966e-05
5.20718e-18
2.00193e-17
1.09581e-05
4.73038e-06
4.98847e-13
3.03179e-05
7.03476e-08
8.74326e-06
3.47591e-07
4.93266e-05
1.39901e-05
7.16881e-08
6.3119e-05
2.0616e-18
5.11705e-18
2.1018e-06
3.02711e-11
1.39047e-06
2.92477e-18
2.17966e-05
9.05309e-20
2.20687e-05
5.58372e-06
7.08788e-19
3.38277e-19
9.02967e-06
4.77643e-06
7.90045e-11
6.69696e-06
5.77812e-06
4.41535e-06
3.74582e-06
1.10906e-17
3.98553e-08
1.22115e-18
4.83357e-18
1.52708e-05
9.33636e-18
4.27558e-18
7.92375e-18
1.7108e-18
1.3139e-18
1.98996e-06
3.65679e-09
2.51086e-18
1.97215e-06
2.90891e-18
4.43301e-08
1.6823e-06
3.88361e-05
1.08354e-17
2.23333e-17
1.05782e-18
5.82945e-05
8.67325e-19
5.05513e-05
3.01077e-05
3.32342e-06
2.81594e-07
2.39526e-06
2.6742e-05
3.26353e-06
4.774e-06
1.54728e-05
2.65587e-18
4.8242e-18
1.99129e-17
3.344e-05
1.88819e-06
8.43501e-18
2.60333e-10
5.74922e-06
5.38639e-10
1.29732e-05
1.95321e-05
1.27576e-05
8.17975e-11
9.88262e-19
1.09243e-18
6.28035e-05
2.80116e-05
2.29457e-09
3.89949e-10
6.93825e-06
4.13309e-06
3.9924e-18
5.62201e-09
5.6021e-08
3.00545e-18
7.77571e-18
1.60652e-07
9.88222e-20
6.76416e-06
2.52964e-06
2.45861e-19
6.44893e-19
5.42574e-18
2.33002e-18
1.27157e-18
3.23211e-19
1.75816e-06
8.14591e-06
3.54404e-05
4.9891e-06
8.96289e-06
4.78736e-06
9.39476e-08
1.07183e-17
5.72314e-06
5.73273e-19
3.23897e-18
7.76451e-06
1.25866e-05
3.35291e-05
1.33546e-05
5.96063e-06
5.02951e-18
7.90805e-06
5.94413e-07
5.21692e-08
1.65581e-05
2.78811e-06
4.67869e-17
4.44203e-06
3.11561e-05
1.03726e-17
1.98579e-07
9.23478e-06
2.42153e-06
4.23121e-07
1.33946e-18
1.60423e-17
9.85087e-06
1.23955e-14
0.000145121
2.56734e-18
7.94129e-06
2.43574e-05
0.00014438
3.35265e-18
3.77738e-06
1.64964e-05
2.5805e-16
7.97001e-19
4.05585e-19
0.000182449
3.31597e-10
3.10696e-18
2.66328e-17
1.15891e-05
9.30977e-06
1.81849e-05
6.6794e-18
1.25555e-17
1.62466e-08
9.48075e-18
2.98303e-06
1.09963e-05
1.91159e-05
1.39661e-05
1.18291e-05
1.90358e-18
3.09183e-10
7.41939e-07
1.02131e-17
1.23614e-18
3.65396e-05
2.48398e-05
7.24606e-18
7.5717e-06
1.2729e-05
5.94473e-19
8.18438e-18
1.64801e-07
6.70743e-19
2.46709e-19
5.17845e-08
1.19466e-18
1.79544e-05
1.30626e-05
4.4574e-06
2.2077e-17
1.39569e-05
3.67721e-18
4.15712e-18
9.53549e-18
2.46793e-11
2.74948e-05
7.42582e-06
6.34502e-06
4.38979e-05
1.4665e-05
1.91552e-06
6.6914e-07
3.91643e-05
1.06853e-05
5.67118e-19
3.95517e-17
3.09982e-10
2.6863e-05
2.91555e-05
1.44202e-05
4.39012e-19
8.34544e-06
2.49719e-06
3.60773e-06
4.06701e-09
4.29644e-09
1.61474e-05
2.68814e-06
2.35812e-06
1.77903e-18
7.8938e-07
2.48504e-18
1.76431e-10
2.87212e-16
0.00029092
8.13727e-05
1.44485e-05
7.58046e-18
1.218e-17
1.06844e-05
1.97594e-06
1.22266e-17
1.48499e-17
1.39837e-18
3.72419e-07
7.01957e-05
4.67042e-06
1.653e-05
2.27825e-05
5.24311e-19
1.83704e-18
6.77012e-18
4.5506e-06
2.02474e-15
1.19932e-06
0.000221604
3.83882e-10
1.16944e-18
9.52964e-18
1.1852e-17
5.75426e-18
7.14579e-05
1.43776e-05
4.63019e-19
6.22643e-06
2.97785e-18
6.03909e-18
8.26479e-05
6.96313e-06
1.33718e-05
1.11179e-05
4.27242e-18
9.22299e-18
2.99225e-17
1.11982e-05
2.22611e-05
6.13679e-06
6.74353e-18
3.81963e-13
1.93365e-07
2.56551e-06
9.5198e-06
4.29947e-08
3.39718e-05
1.04286e-18
4.4733e-05
4.20441e-06
9.28175e-06
2.97629e-05
1.63575e-05
5.22937e-18
3.6345e-17
6.34869e-18
7.92278e-18
3.76118e-05
1.15238e-05
3.99699e-05
8.05115e-05
4.42914e-18
2.2556e-05
6.09101e-18
2.13356e-17
1.98708e-05
1.38375e-17
8.88188e-05
4.97077e-17
5.19408e-20
2.77676e-05
5.80343e-20
1.63501e-05
3.35405e-07
3.78284e-19
1.21905e-06
1.95471e-05
9.52738e-19
1.06252e-05
1.11736e-05
9.69742e-06
7.72675e-07
3.2538e-06
6.74753e-06
9.48673e-19
1.01301e-17
2.19773e-06
3.7272e-18
7.31798e-06
0.000141243
1.42566e-18
1.02038e-17
3.22883e-05
1.38113e-07
9.82462e-06
2.58159e-05
2.0765e-18
5.3819e-05
2.29125e-05
8.99708e-20
9.87447e-07
2.95485e-06
1.24175e-17
4.81636e-19
1.33029e-05
6.27566e-06
4.92824e-17
2.73739e-18
3.93546e-11
1.18813e-17
1.43101e-05
2.15716e-18
6.35839e-18
2.04736e-05
2.06972e-09
1.46638e-05
3.57045e-05
4.93523e-19
2.23034e-17
1.74712e-06
6.6748e-18
1.76132e-07
1.67088e-05
0.000147015
0.0010194
1.31527e-18
3.28726e-06
5.89151e-07
1.93438e-17
4.66056e-05
3.80815e-05
1.73251e-17
8.75573e-12
1.10799e-07
6.27257e-18
2.92896e-05
2.91733e-05
1.69069e-05
6.13794e-19
7.98386e-07
2.18909e-05
2.74593e-05
9.87461e-10
4.61271e-18
7.56094e-13
5.1698e-18
1.58687e-08
3.74305e-05
2.38111e-18
1.02221e-05
1.12001e-07
2.3977e-17
3.31042e-18
3.89702e-17
1.70923e-17
4.77609e-06
1.15169e-05
7.91886e-06
2.52787e-06
3.30086e-06
3.59905e-18
2.36424e-06
5.50357e-18
4.85616e-05
5.30427e-20
1.85956e-18
3.17557e-19
4.33423e-05
1.05013e-17
6.17875e-18
2.18539e-10
1.25118e-17
6.72951e-18
1.25125e-06
1.48879e-18
4.93014e-17
2.89622e-18
2.91442e-18
1.03063e-17
8.04865e-18
6.6415e-18
8.54273e-06
1.07525e-17
6.29409e-07
2.25814e-06
1.13422e-06
1.60352e-18
1.00531e-06
2.43296e-17
7.57706e-18
3.39078e-06
2.18908e-06
3.30329e-05
2.98094e-05
1.02375e-18
2.44308e-06
9.78047e-05
1.02134e-05
1.22825e-06
3.97317e-06
4.74151e-17
2.78367e-05
8.23631e-18
5.94369e-06
1.73121e-18
9.10065e-05
6.38563e-18
2.57674e-05
2.92076e-07
6.06696e-10
2.6755e-18
2.44878e-06
2.41128e-18
9.57319e-05
5.84466e-05
7.91361e-18
2.21546e-18
3.67809e-18
1.22963e-18
1.69512e-12
6.51937e-05
3.32331e-18
6.49894e-18
2.96574e-06
8.77939e-19
4.03151e-05
3.00402e-18
3.7803e-07
2.03628e-17
5.92755e-07
1.28152e-09
1.21079e-06
1.56357e-05
9.64109e-18
4.90849e-07
3.49475e-18
2.59719e-18
1.821e-05
2.22674e-18
3.69801e-08
8.80092e-19
1.91661e-06
2.00361e-17
7.77609e-05
5.44278e-18
4.56595e-18
2.10607e-05
4.05891e-06
2.09811e-06
4.75742e-06
8.18685e-06
2.48761e-05
6.76563e-19
2.97156e-05
7.47423e-06
4.72632e-19
9.59914e-11
4.77105e-05
1.79605e-05
5.37921e-18
4.73255e-06
7.9053e-06
2.03553e-06
1.279e-06
1.76335e-13
1.63059e-05
1.44231e-06
1.61068e-07
2.883e-05
1.64149e-05
7.67743e-07
3.3562e-18
4.00219e-12
0.000778118
1.00174e-17
4.24628e-07
3.10378e-18
1.02813e-17
8.82054e-06
3.45654e-06
2.58138e-10
1.78866e-08
1.54037e-18
1.9904e-05
1.32399e-05
7.17674e-19
1.55708e-13
2.32359e-06
5.11549e-19
3.28167e-19
1.53188e-18
8.28398e-19
1.59318e-05
2.95982e-18
5.34002e-17
1.06079e-05
2.35553e-06
5.08889e-17
1.26304e-05
2.11497e-18
1.01693e-05
3.64976e-18
2.86122e-17
6.39062e-05
6.01622e-19
9.59346e-19
9.22755e-19
5.28978e-06
4.06043e-17
3.50856e-05
7.50231e-06
3.91515e-18
0.000104298
2.95435e-06
3.40535e-05
3.34513e-05
5.85496e-07
9.50983e-08
1.52861e-18
6.51882e-05
5.54223e-05
3.79627e-17
3.84474e-07
4.76611e-05
9.25717e-06
1.71605e-06
3.28287e-05
3.11001e-05
2.95201e-17
1.28219e-05
6.40229e-09
7.31184e-19
4.12715e-05
3.13848e-07
4.34872e-17
1.30341e-05
4.82985e-05
1.63875e-06
2.53712e-05
2.33479e-05
8.42018e-06
1.85965e-18
1.23376e-05
3.90419e-07
6.6746e-15
2.03487e-05
2.11563e-05
4.30076e-05
4.21349e-18
2.26264e-06
8.44442e-17
5.48881e-18
1.28747e-18
7.61009e-18
1.7061e-08
1.33932e-18
3.35233e-13
2.5634e-18
2.05847e-18
9.11846e-08
5.17717e-05
1.06766e-17
3.84626e-05
1.81698e-18
3.54295e-17
1.79535e-18
4.66567e-05
4.9063e-07
6.98395e-18
2.7722e-17
1.09277e-17
7.40573e-19
0.000252211
8.28144e-05
9.40026e-19
2.34815e-06
2.61062e-09
1.00237e-18
4.44877e-05
9.89465e-06
1.45788e-05
5.32274e-19
1.88059e-18
5.07767e-07
1.29744e-06
3.97023e-18
2.17681e-18
4.84718e-18
8.72325e-06
3.07662e-18
7.88138e-18
9.21963e-19
4.98006e-05
2.39067e-06
6.35084e-19
0.0046645
0.00038193
1.21841e-05
8.5542e-18
1.43744e-18
6.60438e-05
4.8859e-07
4.19895e-18
7.14869e-09
0.000141722
2.97597e-06
1.3518e-05
4.79846e-19
6.38643e-05
2.21111e-06
5.31227e-19
8.98411e-18
1.53743e-18
6.18275e-18
2.75215e-18
7.00582e-19
2.6203e-05
1.40211e-17
1.55459e-18
1.08987e-18
1.378e-05
2.77923e-05
1.8235e-18
4.21999e-18
0.000127056
1.71093e-05
1.13684e-05
4.15622e-18
3.49619e-19
4.43311e-05
1.03216e-18
2.12602e-06
3.09414e-06
4.56462e-06
7.20207e-19
5.47432e-18
9.1037e-18
1.0186e-18
1.80269e-05
1.28491e-18
4.52438e-19
1.19269e-06
2.1752e-18
2.73587e-05
2.20536e-06
1.43944e-18
4.4293e-05
0.000449245
3.02196e-06
3.48408e-05
1.73393e-07
5.3363e-05
1.2059e-13
4.81697e-18
2.80483e-05
8.33221e-05
7.26498e-06
3.26525e-19
7.56475e-13
0.000879281
1.20547e-05
3.36837e-18
3.00768e-06
3.11629e-06
1.43383e-06
3.07913e-17
8.13683e-19
2.11044e-17
1.5786e-05
2.23877e-18
3.07289e-06
4.01289e-18
1.53426e-06
1.66928e-06
4.37121e-05
6.60726e-07
1.7752e-18
1.32382e-18
1.80464e-18
2.46195e-05
2.76318e-19
9.52745e-19
7.94051e-08
1.9081e-17
6.46683e-19
2.80975e-18
1.19709e-18
1.19073e-05
7.14895e-18
1.47696e-18
5.45082e-13
1.26552e-18
2.37215e-17
1.20977e-16
4.52557e-18
3.41828e-09
1.91666e-06
7.15385e-18
4.69296e-06
8.23421e-09
3.52084e-10
7.42657e-08
4.88846e-06
8.03709e-18
1.11979e-08
1.17207e-05
4.71819e-07
5.4215e-18
2.17109e-12
1.00457e-06
9.83195e-18
1.15727e-05
2.21892e-07
1.98787e-09
2.8275e-05
1.11132e-05
2.69633e-06
6.0211e-06
2.40062e-06
6.14573e-18
7.1685e-19
3.91619e-05
3.11812e-05
2.36277e-18
9.93397e-06
6.4416e-05
3.39454e-05
1.20578e-17
1.53902e-06
7.19154e-18
1.2345e-05
1.65823e-05
3.82912e-18
1.87506e-06
5.52502e-07
1.43852e-09
5.85542e-06
9.75996e-19
5.83e-05
1.78718e-08
1.82856e-06
3.89298e-08
1.42382e-08
2.47464e-18
5.96511e-19
8.45345e-06
2.87473e-18
1.39319e-07
3.05082e-07
3.24348e-07
6.16909e-11
8.39337e-11
4.4469e-10
5.31298e-19
2.94154e-19
2.76262e-05
3.68174e-17
1.68523e-07
2.45229e-06
1.07542e-17
2.08432e-18
7.14513e-10
1.08877e-12
3.62843e-19
5.81498e-09
4.51079e-18
3.88909e-18
3.21258e-17
1.64166e-17
1.31625e-17
3.18211e-17
3.34758e-07
6.4827e-18
2.04416e-17
4.09994e-17
7.46317e-09
6.34699e-08
2.17356e-06
1.11681e-05
1.06982e-19
5.01099e-19
2.05332e-07
6.61194e-19
4.77442e-19
2.15052e-16
2.22348e-05
5.05253e-05
1.69683e-19
7.42325e-18
1.70502e-18
2.11753e-18
2.10207e-18
2.77734e-19
8.42801e-06
9.00613e-19
6.14108e-11
3.20252e-05
1.47487e-18
2.86695e-18
2.38232e-18
3.20622e-08
5.34029e-18
9.18326e-20
7.50575e-19
1.08111e-08
1.38189e-18
5.27935e-06
1.1333e-09
7.76758e-12
5.0686e-19
8.7979e-08
2.42707e-06
5.27768e-05
2.20895e-17
9.71579e-09
6.76783e-06
1.29648e-18
6.45643e-20
1.66712e-16
2.48056e-18
1.00035e-05
1.97194e-06
3.96132e-06
2.06246e-10
3.15061e-19
2.63162e-05
1.87419e-18
2.24608e-18
2.79276e-17
6.14993e-19
3.14426e-05
5.91246e-18
8.10525e-18
2.11175e-09
6.11386e-05
1.13801e-17
2.89256e-06
5.90066e-19
1.01554e-06
3.4554e-19
2.57388e-18
3.98034e-18
1.72583e-17
2.93869e-06
7.23465e-07
0.000366041
3.66024e-19
4.87563e-18
2.41013e-06
8.51948e-19
1.24895e-17
1.53075e-17
4.41658e-05
1.09701e-08
3.83031e-05
1.33893e-17
1.22023e-08
5.70365e-08
6.49741e-18
1.44408e-07
4.35872e-18
1.47068e-06
3.04767e-05
2.43318e-05
1.471e-06
2.87164e-07
5.02133e-18
2.1434e-18
9.41347e-18
2.54197e-08
4.47869e-19
8.74255e-06
5.26329e-17
0.000210864
1.28626e-18
4.92914e-05
3.76785e-06
1.03282e-17
6.96101e-19
4.20948e-18
1.07813e-17
4.85667e-05
7.14566e-18
7.49816e-17
1.42447e-05
8.08343e-06
2.02819e-18
2.02953e-17
1.00795e-17
3.70245e-18
1.31063e-17
1.82742e-18
3.0437e-05
5.02926e-07
2.39951e-18
4.3224e-19
6.05207e-10
1.21092e-17
1.88579e-06
1.30027e-07
4.17094e-18
4.1261e-06
2.0171e-18
4.48261e-07
4.78352e-19
1.29881e-06
2.01654e-18
9.13436e-11
2.52945e-09
7.65838e-07
2.13555e-05
4.01689e-05
1.40174e-09
9.8095e-20
5.88209e-07
1.49414e-18
5.44532e-06
7.25455e-19
1.96626e-18
6.92029e-17
1.54461e-17
7.93367e-18
2.72572e-17
8.47953e-06
9.5585e-06
6.93715e-18
4.91583e-17
2.64727e-18
8.92949e-07
1.6243e-08
9.43012e-18
2.17345e-05
2.19378e-07
9.23087e-18
2.78481e-05
9.80438e-06
4.25335e-06
1.39357e-05
1.40033e-18
2.83194e-18
9.15384e-18
1.9665e-19
4.40698e-05
8.75446e-18
0.00013554
7.71097e-19
3.69263e-07
8.71209e-07
8.1059e-19
1.1192e-06
2.2648e-18
5.59918e-19
3.60357e-06
2.66568e-11
1.10187e-05
9.65827e-19
6.08288e-18
1.27244e-18
9.823e-07
9.41475e-19
5.47663e-17
1.42787e-19
3.50367e-10
2.12396e-18
8.39264e-09
2.87164e-18
2.64369e-18
1.52393e-18
2.16622e-05
1.1822e-05
2.18315e-05
4.30276e-05
1.97637e-16
1.87173e-08
1.40518e-17
6.00321e-18
1.18324e-05
1.68283e-18
2.69711e-09
4.20578e-07
7.87896e-06
4.20948e-07
1.28048e-12
2.3016e-06
1.33011e-18
1.38648e-12
5.26178e-13
1.47112e-07
9.5911e-07
1.76023e-05
7.26991e-11
7.39137e-18
3.64903e-05
1.07092e-18
2.30588e-21
1.73842e-08
8.95548e-05
7.01309e-11
4.36977e-18
4.24455e-19
3.74334e-10
4.46479e-19
4.46616e-18
2.06844e-08
2.2372e-17
2.91601e-18
4.83105e-05
2.60613e-07
2.05448e-07
2.70776e-05
8.68669e-06
3.64824e-18
3.83773e-19
1.93956e-08
4.8516e-06
5.23121e-18
1.3799e-17
1.16476e-05
6.74153e-19
1.50431e-17
2.26166e-18
1.2907e-18
3.07318e-16
0.00308438
3.42542e-18
2.54219e-07
3.77097e-18
2.48564e-05
8.10312e-19
1.40787e-15
3.07242e-18
1.44448e-18
1.06466e-17
1.74826e-18
3.40677e-06
5.14512e-20
6.75593e-19
5.4728e-18
4.9706e-18
1.60507e-17
1.01582e-17
1.16932e-05
7.52259e-18
1.32467e-05
3.62103e-06
9.22876e-19
1.92878e-06
6.14056e-19
5.82864e-07
2.342e-09
4.59281e-06
1.58428e-05
5.34883e-20
1.08924e-07
9.40506e-06
1.04718e-08
1.39007e-17
2.97045e-09
2.21618e-05
5.65359e-06
9.19187e-20
3.11341e-05
9.66305e-19
9.51623e-18
2.12046e-18
9.17554e-19
9.7627e-06
1.26865e-17
4.66037e-19
9.83367e-06
3.49136e-10
3.2209e-06
2.66067e-18
1.36616e-16
7.93826e-07
1.58752e-18
8.54484e-08
8.2413e-18
2.76721e-05
2.38845e-18
4.50163e-20
6.65772e-08
6.53037e-18
1.62129e-07
1.76533e-17
1.22938e-18
5.80741e-06
5.03868e-07
5.69797e-06
1.86117e-05
0.000263946
2.42677e-05
2.73962e-19
7.37215e-18
3.50306e-06
8.03177e-06
4.35388e-05
1.3054e-05
2.10517e-18
1.44264e-05
2.07954e-19
1.52776e-18
1.07533e-05
1.29441e-05
2.74617e-18
1.56313e-05
1.45066e-17
3.26894e-06
1.03963e-05
1.15716e-17
5.41816e-19
8.67786e-19
3.3098e-06
5.32056e-18
2.48248e-17
4.93843e-06
2.5184e-05
4.3156e-09
8.89973e-06
1.93353e-18
7.59435e-18
9.74297e-08
8.98636e-07
2.68148e-18
1.23141e-05
7.34817e-18
3.14216e-06
3.03066e-18
1.90173e-19
1.4617e-05
2.14903e-17
4.64439e-08
4.26946e-06
6.87194e-18
9.67784e-19
5.20585e-06
6.27033e-14
6.26624e-05
3.01527e-17
0.000309817
8.92578e-18
1.02727e-16
3.03696e-18
8.8573e-06
1.65459e-17
2.7669e-18
6.60487e-06
6.09241e-18
2.84717e-07
1.18157e-17
3.14241e-18
4.91131e-18
1.26231e-10
9.17677e-07
2.12102e-19
4.54485e-19
4.19395e-05
1.11372e-06
1.71121e-18
5.20723e-07
3.27684e-19
2.33798e-18
1.93467e-09
3.16311e-06
1.54647e-06
1.43452e-18
6.00353e-18
8.84446e-18
1.08461e-18
9.2446e-18
4.12619e-18
2.26907e-18
7.03384e-19
3.13454e-19
1.59995e-19
7.56264e-19
9.39466e-19
2.01455e-18
1.80466e-19
3.55697e-19
6.86765e-19
1.66457e-18
1.02124e-18
6.29266e-18
2.92142e-19
1.16409e-17
2.08935e-05
2.32275e-18
1.42011e-18
1.52499e-17
7.80598e-06
3.10547e-18
5.36179e-18
0.000336267
2.97532e-19
9.31857e-19
2.74386e-05
3.59581e-15
4.10687e-18
8.80054e-06
2.90022e-05
4.3248e-19
3.12817e-06
4.69836e-06
5.09104e-18
1.5614e-05
4.67528e-05
2.10878e-05
3.97125e-06
1.26964e-05
2.24496e-18
7.96526e-19
3.47858e-06
1.23467e-05
3.77175e-06
1.21505e-18
7.70936e-06
2.065e-06
2.51781e-05
1.21917e-05
8.1421e-07
1.84052e-05
1.25662e-06
1.1924e-05
2.52494e-17
2.96027e-05
9.96353e-06
1.96433e-06
1.59857e-06
3.6549e-19
1.19437e-17
1.45879e-17
5.82507e-18
3.81714e-19
1.07887e-05
1.60706e-05
1.6612e-18
5.49211e-20
5.31518e-17
5.87095e-19
2.20605e-18
4.04689e-18
1.70451e-18
9.02868e-19
5.37833e-06
2.05647e-07
2.56374e-05
7.84092e-08
3.0019e-19
6.7838e-18
3.67202e-05
8.02229e-09
1.70896e-19
5.5838e-18
8.5555e-06
2.35901e-17
4.68594e-18
3.99993e-09
9.26706e-06
1.5913e-05
3.95862e-05
4.00612e-05
4.74225e-19
1.66454e-05
3.88922e-07
4.36389e-17
2.47507e-18
1.38663e-05
1.27206e-18
3.08161e-18
2.02139e-05
0.0012328
2.02885e-07
4.74297e-18
3.20722e-17
2.11502e-05
2.40157e-05
2.06131e-05
6.77088e-06
4.73563e-06
1.39237e-17
1.22479e-09
3.10924e-12
2.83409e-16
3.6565e-18
2.03365e-05
2.19918e-19
2.36094e-06
2.97166e-05
2.05789e-05
1.37085e-05
7.79904e-18
7.08356e-06
1.48196e-18
2.3057e-18
4.02186e-18
1.45976e-18
2.89325e-06
0.00102801
3.05003e-18
9.57451e-18
3.43542e-09
2.72093e-05
1.29437e-06
8.09165e-06
3.85202e-05
5.61444e-06
2.40257e-05
1.77307e-18
1.39691e-17
2.13116e-18
3.53568e-05
6.6398e-06
3.04832e-11
5.11551e-19
2.93206e-18
1.16409e-16
2.59622e-05
3.26107e-06
2.84498e-18
5.70557e-06
6.75746e-05
7.88807e-06
7.15264e-06
1.33311e-17
4.51148e-17
8.07802e-06
2.64326e-05
1.39174e-18
3.9015e-07
1.70128e-05
1.16053e-06
1.07156e-05
5.40702e-06
9.39552e-06
2.68024e-17
3.90162e-06
2.40164e-05
4.25652e-05
5.56007e-13
2.65775e-05
2.38774e-16
1.91144e-05
1.83907e-07
3.49985e-18
2.98899e-06
8.71748e-06
4.36386e-07
1.32911e-05
2.73044e-10
1.55316e-07
1.74744e-08
4.64656e-05
4.20401e-06
4.30915e-17
4.48292e-05
1.49168e-06
4.29551e-19
2.73945e-19
4.73303e-11
1.14463e-08
1.19302e-06
0.00127791
4.0434e-05
1.35798e-05
2.4513e-10
5.12038e-05
2.07389e-17
1.11376e-16
4.57227e-06
6.71191e-18
2.45925e-06
4.99294e-06
2.49665e-06
5.34442e-06
6.02902e-19
2.38973e-07
0.000124878
4.78671e-19
2.42723e-05
8.60175e-06
9.22157e-18
4.60756e-06
1.65624e-07
1.36783e-17
8.62086e-12
1.0709e-07
8.79058e-18
1.54975e-18
8.03485e-19
5.04422e-06
5.45858e-06
1.63259e-05
2.49081e-17
5.76538e-06
3.79272e-05
3.02738e-18
9.1745e-06
1.41864e-05
2.79615e-05
1.75628e-06
3.10144e-19
6.76271e-07
1.08286e-05
1.19478e-05
1.03037e-05
4.30594e-05
0.000187635
3.85653e-06
2.18381e-17
8.47415e-09
5.80501e-05
5.70953e-18
4.87007e-07
5.55743e-18
1.44841e-18
9.08441e-18
1.85231e-17
1.17421e-18
3.68301e-06
2.61468e-18
8.16462e-06
1.34086e-06
1.15456e-17
4.40004e-06
2.21897e-17
1.61381e-05
6.9049e-19
2.39669e-08
3.11281e-18
2.5116e-05
1.77378e-07
2.73343e-09
4.76598e-06
3.28523e-05
1.92187e-05
4.42086e-06
3.07986e-05
6.63762e-15
2.56602e-05
6.18235e-05
1.06827e-05
1.28903e-16
1.28806e-06
3.03789e-07
6.35929e-06
1.18606e-05
6.92739e-07
2.53717e-17
5.79506e-18
1.38684e-18
4.12991e-06
1.48451e-18
2.98632e-07
2.50864e-07
1.69929e-06
3.1956e-07
4.86173e-18
2.53778e-17
6.22341e-19
9.87822e-06
2.45252e-05
1.40054e-06
1.06143e-08
2.14863e-06
7.78859e-06
2.24029e-06
9.13849e-07
7.69446e-06
6.77983e-06
2.98186e-06
1.98327e-19
1.83164e-18
1.63546e-17
1.50768e-05
1.22571e-05
5.23117e-18
2.93071e-19
8.42824e-17
9.41387e-06
2.13661e-05
1.29139e-18
2.45633e-06
2.00312e-18
6.95365e-10
5.3822e-06
0.000100341
2.35156e-18
1.29948e-18
4.14557e-06
4.87307e-18
6.83467e-08
1.33836e-05
1.27293e-18
1.21987e-05
3.71513e-05
2.08674e-05
1.3658e-18
1.48319e-06
1.24081e-18
9.58787e-08
5.5369e-05
5.67283e-18
4.27879e-18
1.23238e-05
1.45231e-16
1.36656e-17
4.92307e-08
1.10533e-06
7.36902e-18
1.24095e-18
1.28268e-17
6.81673e-08
1.3746e-06
3.51848e-06
2.88855e-05
1.04496e-05
2.19952e-17
7.92989e-10
7.3458e-07
2.22616e-18
4.74523e-18
1.19959e-17
3.62017e-18
1.87219e-18
4.56576e-18
4.00345e-18
6.7998e-19
1.99701e-17
1.00333e-18
2.79766e-12
1.76759e-17
3.88889e-07
6.95489e-18
2.55419e-07
2.89399e-17
6.74296e-08
1.05032e-16
1.66994e-18
3.18622e-05
1.0247e-05
6.67434e-18
0.000101022
1.21595e-11
3.55601e-13
6.9696e-19
1.47818e-06
8.17212e-15
3.05737e-06
7.16726e-09
9.75031e-07
4.79246e-19
6.53198e-18
1.01425e-06
2.86493e-11
3.26667e-18
9.10533e-17
4.39168e-05
1.70022e-18
4.16343e-05
1.39794e-18
6.39268e-18
1.94707e-09
3.17235e-05
9.09434e-06
3.44972e-18
3.6294e-07
1.92104e-18
3.38368e-06
2.01819e-08
2.0469e-06
1.05222e-06
9.07755e-18
2.29497e-05
1.31815e-06
5.79064e-06
2.21734e-18
8.35001e-18
1.94391e-18
2.05308e-05
4.46119e-06
5.82174e-05
6.82269e-18
5.07125e-10
6.99423e-19
6.28888e-18
3.92165e-18
5.4855e-19
3.64561e-06
2.45233e-06
3.3285e-06
0.000358206
4.33135e-17
3.09132e-05
4.01684e-05
1.95971e-05
1.92029e-06
1.36586e-17
5.96178e-06
5.05747e-06
5.60504e-06
3.96305e-10
1.14185e-05
3.80806e-18
1.73319e-06
1.40286e-06
3.67508e-05
1.29696e-09
3.7111e-06
1.70739e-18
2.10314e-05
2.14934e-18
1.24599e-17
1.85254e-06
1.00609e-18
6.98334e-06
3.11989e-18
1.29696e-17
1.12856e-18
2.13421e-18
4.94906e-17
8.95022e-07
5.80088e-18
6.23929e-07
1.40712e-18
9.08485e-19
2.02355e-05
6.13373e-06
8.8655e-06
8.4576e-06
3.17494e-18
0.000660152
1.24421e-18
7.86224e-05
9.65593e-18
2.00737e-05
2.65722e-05
2.66022e-06
6.39223e-05
1.91906e-17
3.64633e-17
1.70855e-18
2.44296e-06
1.68706e-17
1.43378e-18
1.9928e-05
1.73671e-18
1.1498e-18
6.00434e-06
1.08929e-17
1.43888e-05
7.39404e-11
4.32532e-18
2.35363e-18
1.45495e-17
1.81904e-06
7.59789e-06
4.92954e-18
2.56484e-05
3.81403e-07
1.50899e-18
0.000116544
1.76422e-17
1.77612e-05
2.03191e-05
3.95914e-06
1.04399e-17
2.00544e-05
1.08995e-05
9.50478e-07
5.98406e-06
1.40946e-05
5.70129e-19
1.47713e-17
2.00896e-09
4.31347e-19
5.17833e-19
1.7873e-17
2.20783e-05
5.0331e-05
4.98622e-06
2.43633e-06
3.67739e-18
5.6302e-05
5.18095e-05
4.78426e-06
2.77417e-06
1.04964e-05
2.35864e-05
3.01645e-06
2.42778e-18
2.10151e-18
2.25653e-18
7.7912e-06
6.66166e-18
2.80139e-05
4.43123e-17
8.42216e-07
6.20285e-10
2.90309e-06
2.50912e-05
1.96043e-18
2.19872e-17
2.79498e-06
4.11289e-07
7.28546e-18
2.26593e-17
3.18658e-17
3.77169e-08
3.57581e-07
1.64431e-07
9.31948e-07
1.13776e-05
9.83963e-05
2.58413e-18
7.93852e-17
3.34815e-18
4.24736e-06
2.0343e-05
2.26871e-05
3.96945e-05
2.03666e-06
3.31365e-06
6.71913e-18
1.53722e-17
2.02247e-16
2.5483e-18
1.07396e-05
2.53602e-05
3.15483e-18
2.76406e-18
2.10592e-18
7.32321e-17
8.66849e-18
2.05039e-17
1.55613e-05
5.66964e-18
1.12128e-06
0.000457613
1.16596e-18
1.61229e-08
2.59677e-05
8.40172e-07
2.2563e-19
1.81193e-17
5.5666e-06
3.53663e-18
1.60916e-05
1.22556e-09
2.76419e-05
3.05904e-17
1.65406e-15
1.37995e-18
3.98381e-18
3.89849e-18
2.67399e-17
0.000226646
1.5993e-19
6.71012e-06
1.36684e-06
7.47599e-18
3.60426e-17
2.20152e-06
2.32252e-19
1.15205e-18
1.48773e-05
1.41211e-07
5.41418e-18
7.19286e-18
6.63106e-18
1.91206e-05
9.97479e-18
3.25525e-18
4.62064e-07
2.97193e-06
3.48684e-06
7.47594e-19
8.20224e-19
1.74882e-18
4.32579e-06
2.09846e-06
1.47965e-05
4.22526e-06
1.53794e-18
9.08728e-07
1.3686e-05
7.3604e-06
5.27897e-18
9.01359e-18
1.28912e-17
3.09788e-17
9.80748e-18
3.5574e-05
6.03642e-06
6.24085e-06
6.00844e-18
4.41044e-17
4.86385e-18
7.31615e-18
6.05323e-19
1.0959e-09
2.79979e-07
2.58835e-06
8.39552e-19
1.63646e-17
2.49386e-17
2.7032e-12
3.94942e-05
0.000129846
1.82647e-18
8.26667e-13
2.04405e-14
6.64351e-19
1.79379e-17
4.38419e-06
7.59135e-06
3.46938e-18
1.14046e-18
3.29114e-06
1.20605e-17
8.06443e-07
1.2701e-06
0.00242356
4.37356e-19
3.99237e-19
1.39588e-05
6.00353e-07
7.29189e-18
0.000770634
6.78986e-07
7.33732e-06
1.16925e-17
2.66651e-19
9.78907e-17
2.53321e-18
9.17582e-06
1.07076e-07
5.79911e-18
2.88661e-05
2.18663e-05
0.000997957
2.14142e-19
1.46975e-19
2.84561e-18
2.57913e-19
7.45327e-06
7.42812e-11
1.21819e-17
7.84083e-18
2.14678e-05
1.07668e-06
5.62326e-06
1.26333e-18
1.56247e-17
3.29603e-05
1.51977e-17
3.42559e-18
9.16297e-19
6.57026e-18
2.50967e-05
8.20193e-19
2.36048e-18
2.91484e-18
2.89281e-05
1.39814e-05
1.06312e-19
3.58732e-18
8.10876e-19
1.75425e-05
2.02233e-10
3.00782e-18
5.21494e-19
1.1866e-17
1.71329e-18
2.73801e-06
1.24789e-05
3.2825e-18
2.34291e-06
1.25863e-06
5.42967e-06
2.39552e-16
8.22301e-17
4.64146e-18
1.80337e-16
3.04901e-19
2.26685e-05
2.86785e-17
1.67351e-05
3.11158e-18
1.73663e-06
1.00267e-17
2.69375e-06
1.48915e-18
2.82192e-18
1.23669e-05
0.000194039
8.74642e-18
4.05445e-06
3.268e-18
4.39738e-07
3.56701e-17
6.6873e-19
6.62976e-19
1.85914e-10
2.65148e-18
3.59456e-07
1.71092e-19
4.03215e-05
1.87437e-18
1.32185e-18
3.35998e-18
1.11635e-17
8.9492e-09
1.519e-07
2.47742e-18
6.2966e-06
8.43632e-19
3.21845e-06
2.14717e-05
1.42371e-06
3.66993e-19
5.21567e-09
4.93583e-07
2.41335e-09
4.91859e-06
3.8288e-10
1.88106e-06
8.46363e-18
6.35364e-20
4.89877e-10
6.45284e-06
2.67967e-07
1.14006e-17
1.81375e-18
4.27866e-18
0.000650512
3.74717e-17
1.78893e-18
6.91195e-18
3.58642e-18
1.86433e-18
3.57813e-08
1.99528e-07
1.15734e-06
7.6298e-08
1.18983e-15
1.66099e-06
2.45716e-18
6.41021e-06
2.02291e-17
5.24028e-17
7.64427e-19
1.93111e-17
2.19182e-08
1.14131e-17
1.31121e-18
3.61386e-18
1.65621e-05
1.69568e-17
3.86228e-18
1.25026e-05
1.2017e-18
8.07804e-05
0.000139836
0.000633092
5.93639e-17
0.000229168
0.00133147
0.00137564
0.000745772
2.35253e-18
1.20093e-18
5.49731e-06
5.28582e-06
2.82384e-18
1.00867e-05
1.43408e-19
3.63403e-05
3.90813e-19
8.56422e-19
7.85254e-07
9.15545e-19
1.80769e-17
1.14237e-08
4.47299e-08
1.12467e-17
5.66888e-19
2.98392e-09
3.16756e-17
1.91362e-18
2.27569e-08
9.33986e-06
1.67646e-06
7.0148e-18
8.67627e-06
1.04048e-17
3.96051e-06
4.4284e-10
8.14224e-06
2.51783e-18
1.7278e-11
6.2877e-06
1.13145e-17
1.70739e-12
2.93996e-19
3.63017e-05
9.30947e-18
1.09651e-05
7.59103e-19
2.25267e-10
6.4274e-19
7.53003e-18
9.23537e-18
8.83468e-13
5.17949e-13
1.99603e-18
1.36955e-05
1.01176e-05
1.92813e-17
4.52351e-18
3.68257e-05
1.95273e-05
0.000204615
5.9991e-17
7.48804e-08
2.80012e-05
5.15848e-05
6.80028e-11
3.12159e-17
6.38742e-05
8.408e-19
0.00025369
8.14236e-18
3.96223e-11
3.89406e-11
1.07272e-18
5.70205e-08
2.12753e-18
2.39412e-05
1.1554e-18
6.38866e-19
2.56915e-18
6.76729e-18
2.12969e-18
2.56465e-18
3.39382e-07
2.10147e-06
0.000150988
2.40766e-18
1.34673e-17
4.57909e-05
5.35273e-18
1.57883e-19
3.81306e-18
1.97159e-16
6.97867e-18
6.48243e-06
6.39531e-19
1.16002e-17
6.2426e-19
3.6236e-06
3.22218e-18
6.33274e-20
3.94127e-19
3.55437e-06
1.06047e-18
6.73717e-06
0.000257517
5.71789e-06
5.90603e-06
2.93546e-05
1.11771e-18
6.177e-18
3.82394e-18
3.35342e-06
1.95519e-06
2.22026e-19
7.6242e-17
6.48185e-07
2.93536e-17
1.59538e-17
0.000370801
6.18294e-20
2.44913e-05
1.0299e-18
2.58743e-06
3.72822e-06
1.91762e-18
6.81673e-19
2.20878e-18
3.49242e-19
3.87992e-18
2.09382e-05
5.13274e-18
5.07329e-06
2.61679e-18
7.15657e-18
7.43669e-06
1.99789e-18
1.42388e-05
1.49856e-17
7.05069e-19
2.67829e-06
8.59872e-08
0.000155175
1.76691e-18
2.25599e-19
1.95453e-17
4.05452e-06
0.000197224
1.83715e-18
4.66741e-19
2.79861e-18
1.66745e-06
1.36004e-17
2.19284e-05
3.42464e-05
2.34632e-17
2.79421e-19
7.87422e-06
2.22985e-17
1.23428e-17
8.61867e-19
6.50052e-17
1.46451e-17
7.50489e-05
1.11594e-16
3.99146e-18
8.45732e-18
3.75897e-17
2.17128e-18
2.19304e-17
1.91046e-18
2.13014e-18
6.03678e-19
8.59893e-06
8.30544e-19
9.07957e-06
4.25504e-17
6.72516e-19
0.0006401
2.91736e-06
1.65223e-18
4.65918e-18
1.99242e-18
2.59715e-06
1.77575e-18
4.50888e-17
3.64931e-18
1.58016e-19
7.78964e-06
3.9013e-19
5.30952e-06
2.32262e-17
1.06514e-05
3.52999e-18
6.28576e-05
6.86834e-18
4.30477e-18
2.31989e-05
2.08294e-18
9.20382e-19
2.96086e-05
3.04176e-07
1.19799e-17
2.61482e-18
4.06859e-05
1.11758e-05
6.93305e-06
9.00952e-07
1.95172e-06
1.88555e-05
1.0529e-06
5.44664e-06
5.77151e-18
3.13287e-05
1.45927e-17
1.89535e-17
1.49357e-19
8.4367e-18
2.79321e-18
1.1147e-05
2.89123e-16
6.14399e-18
1.29153e-17
2.96851e-09
1.03373e-08
1.82994e-17
2.55928e-06
2.08165e-17
4.6683e-06
5.28914e-18
1.32565e-09
3.96439e-06
2.07785e-16
4.96176e-05
1.60279e-18
1.21531e-18
6.68054e-19
3.187e-06
1.44867e-06
1.97212e-18
5.58703e-19
2.70941e-06
4.41208e-18
0.000725773
8.14933e-18
0.000111771
1.14648e-17
4.55184e-18
6.81185e-18
1.78915e-19
1.07986e-05
4.63538e-19
4.39336e-08
6.77457e-19
1.07496e-05
3.70341e-18
1.9813e-19
7.09674e-15
9.74459e-17
1.97924e-18
9.2062e-18
3.70491e-17
1.61629e-18
4.74686e-06
0.000212887
1.12805e-17
3.2346e-18
4.04391e-07
4.21886e-19
1.5561e-19
1.27876e-09
1.88701e-05
1.6365e-07
1.03193e-17
7.42841e-07
3.67784e-06
5.6458e-06
9.22539e-06
3.90977e-18
3.48796e-18
1.41951e-17
2.18398e-18
2.72129e-19
9.32683e-19
2.15049e-17
8.86419e-18
8.64355e-18
1.29144e-17
1.93731e-18
9.61293e-19
8.27603e-05
1.17665e-19
2.01143e-18
2.87261e-13
3.56568e-18
7.54962e-18
0.00121766
4.09413e-19
1.69668e-18
2.13364e-06
1.68447e-12
1.96686e-18
1.91482e-17
1.33092e-19
2.4963e-05
2.09409e-17
1.34308e-17
5.55959e-11
7.34612e-19
1.68445e-18
2.8247e-18
1.66884e-17
0.000126269
5.14487e-19
1.91581e-07
2.52486e-18
9.78054e-18
2.93807e-18
2.69066e-18
2.30331e-18
2.2307e-11
4.42105e-11
1.26682e-07
7.06968e-18
3.77374e-19
4.44044e-18
1.06196e-10
2.1333e-18
3.34709e-10
1.3138e-11
1.01247e-18
6.08244e-19
3.68274e-17
5.56161e-12
2.37848e-18
6.3661e-19
2.50934e-12
7.29522e-18
3.50464e-05
2.5558e-18
7.68815e-06
3.84997e-18
2.55132e-09
7.86863e-18
1.65373e-06
1.50337e-18
4.74611e-06
2.84711e-05
1.02699e-18
2.88461e-06
1.54081e-08
6.43751e-18
1.19483e-05
6.42125e-19
5.19777e-19
9.17838e-18
6.56997e-19
1.15545e-17
1.07435e-18
9.07151e-19
3.0438e-17
0.000317885
8.54243e-19
4.84042e-18
7.7029e-19
6.53123e-19
2.31307e-19
3.56171e-05
0.000922395
3.43974e-09
1.32333e-08
1.09591e-18
2.30284e-06
1.57233e-06
1.45785e-17
4.50406e-19
2.31192e-18
1.78456e-18
5.96878e-18
1.48893e-18
3.59245e-18
1.82583e-18
4.54768e-07
2.93776e-17
2.21527e-17
2.35541e-07
3.80092e-09
4.81363e-19
2.95983e-05
1.60166e-17
1.63378e-18
1.01224e-17
0.000196956
3.01852e-16
3.1487e-19
2.88715e-05
7.59626e-19
4.93199e-19
1.6333e-19
9.90252e-17
6.21575e-05
1.03736e-17
1.0111e-17