/*--------------------------------*- C++ -*----------------------------------*\
  =========                 |
  \\      /  F ield         | OpenFOAM: The Open Source CFD Toolbox
   \\    /   O peration     | Website:  https://openfoam.org
    \\  /    A nd           | Version:  10
     \\/     M anipulation  |
\*---------------------------------------------------------------------------*/
FoamFile
{
    format      ascii;
    class       volScalarField;
    location    "7.5";
    object      T;
}
// * * * * * * * * * * * * * * * * * * * * * * * * * * * * * * * * * * * * * //

dimensions      [0 0 0 1 0 0 0];

internalField   nonuniform List<scalar> 
111485
(
303.15
285.116
300.982
303.15
298.425
283.15
298.932
293.398
296.341
286.26
300.523
296.212
300.219
284.578
299.983
286.772
299.302
298.028
294.058
303.15
303.15
283.15
297.252
288.711
301.546
303.15
293.209
300.619
288.873
303.15
300.734
294.314
303.15
283.15
283.451
283.15
302.284
297.608
283.149
296.601
283.15
289.611
297.018
302.884
303.191
303.15
287.391
288.57
289.652
303.15
303.15
283.15
303.15
298.931
303.15
293.512
287.911
283.15
283.323
295.449
295.85
303.15
302.057
300.28
283.15
284.559
300.321
291.541
302.11
302.531
303.163
301.9
303.15
302.107
303.15
295.366
283.15
293.475
283.15
283.15
283.239
293.399
283.15
303.15
300.318
284.215
283.15
301.551
303.118
299.094
283.342
289.595
300.867
300.376
289.788
303.15
303.15
301.551
303.149
283.416
303.15
286.671
283.15
285.177
285.756
283.15
283.15
293.062
301.457
283.146
298.91
288.078
301.296
301.703
303.15
301.981
303.15
283.15
300.13
303.15
303.15
283.15
283.15
283.15
283.4
303.151
283.15
301.814
303.15
283.177
303.085
301.942
303.15
283.15
283.15
292.51
283.15
294.224
298.788
301.091
303.137
296.816
298.968
284.777
302.28
297.804
283.15
303.15
283.15
297.137
284.935
303.15
303.144
287.331
283.156
293.722
295.632
302.524
283.154
303.15
303.15
292.185
286.255
283.153
283.157
301.184
283.687
283.15
283.152
283.152
283.15
303.15
283.206
283.15
291.537
287.181
283.15
303.15
303.15
283.15
303.15
303.15
297.644
293.504
295.789
289.777
301.38
300.423
283.19
303.15
301.447
303.15
303.15
300.158
286.287
301.408
301.326
295.756
303.15
300.882
284.602
283.16
300.777
297.055
303.15
300.416
288.215
303.15
283.226
300.181
284.812
300.686
303.15
303.15
300.701
283.15
292.779
283.15
300.605
298.713
290.378
303.15
301.753
300.531
283.15
283.15
283.15
289.506
283.157
283.15
303.15
298.649
291.383
289.927
283.15
303.15
303.107
303.15
284.335
300.082
299.26
299.508
299.377
283.15
283.144
298.854
283.15
283.15
288.759
288.371
283.15
301.184
298.874
303.15
283.15
301.014
303.15
303.15
303.121
303.15
288.272
285.867
290.796
303.15
298.334
303.15
303.15
303.15
283.148
298.094
300.973
299.416
291.206
299.474
296.229
283.211
290.343
291.591
283.15
303.15
283.149
292.444
298.732
286.465
303.15
297.985
297.253
298.884
302.961
283.166
297.095
299.355
301.998
283.15
283.609
283.15
283.149
303.15
283.894
290.268
286.315
303.15
283.15
297.581
285.252
303.15
303.15
303.15
284.591
290.249
301.06
284.406
293.016
283.15
283.15
303.15
298.343
303.15
283.823
289.507
283.152
283.15
303.15
303.15
283.15
294.349
289.971
283.15
295.707
283.15
303.15
301.073
297.292
293.977
295.815
283.15
283.15
283.15
296.604
291.018
302.363
283.15
283.15
283.15
290.092
296.935
283.213
290.478
283.15
292.786
299.552
284.201
298.687
285.266
283.15
303.15
283.15
303.15
290.674
296.634
287.951
291.945
283.15
286.364
283.15
303.15
293.806
303.15
301.776
303.15
283.15
291.957
283.15
288.791
284.628
283.15
283.986
298.022
283.15
300.143
284.674
298.837
303.024
291.066
286.006
283.15
303.15
303.144
283.15
300.982
300.853
283.15
283.15
294.694
284.37
298.19
296.817
283.15
295.131
296.114
283.15
302.051
283.899
303.15
303.15
288.262
298.586
283.15
303.15
303.15
303.15
300.733
283.15
303.15
293.945
283.171
286.964
299.963
283.15
283.15
302.611
283.15
302.46
301.438
297.855
288.881
283.15
293.923
303.381
303.15
298.637
292.309
303.15
283.15
283.306
283.15
290.043
286.107
291.659
283.15
292.879
296.579
293.071
303.147
283.15
303.15
303.15
283.169
292.737
283.15
284.322
303.133
283.15
303.15
303.15
303.15
301.82
290.531
286.003
284.193
284.318
283.15
285.706
303.15
300.733
283.15
303.15
303.15
300.672
303.15
303.15
283.151
303.15
283.15
300.671
283.15
283.15
283.15
303.15
283.15
303.15
283.15
283.667
283.15
303.126
301.847
283.745
283.15
303.084
283.15
303.15
284.714
284.676
286.126
297.525
283.15
297.482
297.595
292.302
286.823
285.274
303.15
291.769
283.15
299.858
283.15
296.785
283.15
292.093
298.581
303.151
283.15
286.804
303.15
295.5
299.081
283.15
283.15
283.15
283.15
303.15
293.677
283.15
283.15
283.238
283.15
299.811
283.15
284.801
303.15
283.435
303.121
284.642
291.915
283.15
301.456
283.15
283.15
285.699
283.15
283.255
283.15
299.664
303.15
290.671
303.15
283.15
302.381
284.472
300.08
285.663
300.079
289.474
283.15
300.624
284.553
283.15
283.14
300.34
301.587
283.15
282.447
301.06
303.063
283.118
303.15
287.577
302.169
284.409
285.396
288.213
282.548
283.15
303.15
300.615
303.15
283.549
283.15
283.15
291.774
282.674
303.149
303.118
283.15
286.284
299.58
283.15
283.15
299.594
303.15
283.15
283.15
283.15
286.165
283.15
303.15
284.829
284.226
303.15
299.686
283.15
289.249
303.15
283.15
286.161
283.15
283.15
283.15
285.378
283.15
285.451
291.969
303.15
300.361
283.449
298.704
300.938
283.319
283.459
283.15
288.972
298.435
303.15
302.259
296.047
296.869
284.719
297.433
297.185
303.15
300.245
303.136
283.15
297.137
284.833
283.15
292.378
295.716
284.854
298.76
300.622
292.338
283.15
298.898
283.47
303.15
300.583
301.965
294.089
283.15
286.501
303.15
283.15
283.15
283.15
283.302
283.15
303.15
303.15
283.15
300.406
299.241
303.15
285.628
303.15
303.15
303.15
290.025
283.419
283.15
303.15
283.15
283.15
286.817
292.385
283.15
295.134
283.136
283.15
295.309
302.22
287.788
283.15
283.15
300.244
292.092
283.15
283.15
283.15
293.989
303.15
303.15
283.15
296.235
302.379
283.15
282.405
301.798
286.541
283.15
283.15
287.457
302.967
283.15
283.16
287.287
283.757
288.789
283.15
285.697
300.304
283.15
303.15
283.15
283.15
283.15
283.15
295.664
303.15
283.15
283.15
295.28
291.815
303.15
303.15
289.86
298.422
298.319
303.15
283.15
297.994
303.15
283.831
298.823
298.344
303.15
303.15
303.15
283.15
286.065
283.15
283.15
302.703
303.15
297.813
302.276
283.15
294.054
283.255
296.433
291.971
283.419
289.788
283.15
283.15
296.88
288.057
290.832
283.15
283.15
297.859
294.977
283.15
283.909
284.593
283.477
303.15
303.15
303.15
290.736
283.15
300.053
283.15
284.377
297.588
298.51
292.265
283.15
283.15
303.15
295.372
283.15
283.15
303.098
283.15
283.15
303.15
283.15
299.322
283.15
283.15
283.15
283.15
283.15
303.15
283.15
283.172
298.761
303.15
302.532
283.131
283.4
283.095
285.522
283.15
284.455
290.526
283.4
303.15
283.149
299.737
283.15
300.251
283.147
283.143
286.207
297.491
283.207
291.87
297.975
283.15
283.15
299.06
299.8
283.15
297.354
291.275
297.54
283.15
283.244
283.15
297.853
296.974
283.15
300.065
297.622
283.149
299.77
283.15
295.645
283.144
303.124
283.162
283.16
283.15
283.15
284.426
283.15
302.97
283.59
283.064
303.148
303.149
303.147
283.15
283.15
293.797
303.15
303.177
283.873
283.15
283.15
303.154
303.149
283.15
303.165
283.15
283.15
303.15
303.15
303.15
303.15
283.364
283.15
283.15
283.15
303.157
283.306
283.891
293.449
283.15
283.15
283.336
283.15
283.15
283.15
287.244
293.597
283.15
283.15
283.15
283.15
283.15
283.15
284.011
283.15
303.15
291.577
283.15
303.15
303.15
303.153
303.15
303.15
283.15
303.17
283.15
283.699
283.144
303.152
283.15
303.063
284.401
292.083
303.15
303.128
284.45
303.15
283.15
303.15
283.15
294.039
293.48
284.645
303.148
283.15
293.25
283.15
283.15
303.15
283.15
294.842
283.15
303.15
283.163
298.154
303.15
284.381
283.15
283.579
283.15
283.15
283.15
303.15
285.859
283.471
284.273
283.15
283.15
285.646
283.15
283.15
303.15
284.331
303.164
298.553
303.15
303.128
303.128
283.15
303.131
283.15
283.443
289.158
301.007
283.805
283.167
283.15
283.15
283.15
303.183
283.15
302.904
303.15
292.757
303.15
288.732
283.827
303.15
283.15
303.15
283.15
301.796
303.15
303.15
286.42
300.563
283.15
283.15
283.15
283.15
283.15
283.15
300.817
283.581
303.15
303.15
303.157
303.15
300.196
284.422
283.15
302.115
303.15
301.631
283.15
302.57
283.15
283.148
303.152
283.312
302.114
300.234
283.147
283.15
289.356
303.15
293.383
303.15
283.15
303.15
283.15
283.15
283.15
300.813
302.055
303.15
303.15
303.15
302.902
283.15
303.15
292.893
283.084
303.15
297.509
298.296
296.487
283.376
283.15
283.15
283.15
283.15
294.628
283.15
294.887
283.15
303.058
289.852
283.15
302.859
283.15
283.15
302.741
283.148
302.92
283.15
303.15
283.15
302.392
283.15
303.15
283.15
283.148
283.15
283.171
283.15
283.15
303.15
292.985
301.09
296.132
297.025
303.15
303.116
283.15
283.15
285.703
283.15
283.158
302.845
298.775
302.944
303.15
283.36
283.15
303.15
283.15
302.994
283.319
298.29
283.15
303.15
288.105
303.15
283.15
283.125
295.105
283.147
283.15
283.15
283.149
303.15
283.15
303.142
303.15
303.15
289.953
302.989
302.996
289.023
293.263
283.15
283.15
303.09
289.094
283.15
303.15
284.733
283.15
303.15
283.15
283.15
283.15
297.499
283.15
302.942
283.15
300.512
283.15
283.15
283.15
283.15
283.15
283.15
285.02
283.15
283.15
283.15
283.15
283.15
283.15
292.011
283.15
298.357
302.937
283.15
302.325
283.15
302.519
303.145
292.299
288.795
303.15
292.164
284.787
303.11
303.15
303.139
295.051
288.68
283.15
287.9
283.15
283.15
283.15
283.15
287.527
283.15
283.15
291.65
303.136
285.321
283.15
283.15
302.52
283.15
283.184
303.15
299.888
283.15
283.15
302.823
283.15
303.178
303.15
283.15
289.063
297.959
292.71
285.669
292.568
294.134
283.15
283.15
302.292
290.599
292.784
284.413
283.15
294.369
283.15
303.15
300.744
298.724
283.15
297.41
283.15
292.769
297.219
303.15
283.15
283.15
301.781
283.15
283.15
300.511
296.133
283.196
291.23
283.15
283.15
302.8
300.529
283.15
300.647
283.15
300.503
283.15
283.15
300.807
283.15
283.228
301.6
283.15
283.15
302.432
283.15
287.928
303.15
290.43
303.15
303.15
303.15
300.955
283.15
283.15
299.544
283.15
302.992
283.15
283.15
303.15
283.151
288.217
283.15
283.15
288.079
288.259
283.15
283.679
283.15
303.15
302.419
283.728
301.574
283.15
283.15
283.15
283.15
283.15
283.15
283.15
283.15
283.15
283.15
283.15
303.15
283.15
283.15
283.15
283.15
283.15
283.15
283.15
283.15
303.15
286.968
283.15
283.15
283.15
294.71
283.15
303.15
302.909
283.15
283.15
294.716
283.15
283.15
301.835
295.193
283.15
303.648
303.593
283.15
301.512
293.964
297.553
301.475
298.136
303.15
283.15
296.367
291.781
301.418
283.15
302.148
302.415
300.873
288.049
287.324
301.059
301.778
301.784
303.15
285.872
297.543
285.537
297.247
283.15
283.15
283.15
303.15
283.15
291.996
297.912
283.15
283.15
283.15
283.15
283.15
303.15
283.15
303.15
292.135
303.117
299.02
302.841
283.15
283.15
285.417
283.167
283.15
283.15
301.699
303.15
283.15
298.151
299.508
297.521
298.652
300.804
303.15
291.047
302.588
303.15
303.15
300.329
303.15
283.15
282.976
295.57
302.95
283.15
303.15
289.615
286.165
297.131
292.195
302.404
303.15
303.137
303.15
303.15
283.15
298.942
283.15
291.811
290.465
299.693
284.773
303.15
301.927
303.15
283.15
303.15
303.15
291.503
299.591
283.15
303.15
303.133
291.79
303.031
299.346
292.819
288.331
292.922
283.15
303.15
283.15
291.254
298.305
303.151
303.15
303.15
303.15
297.487
302.558
283.15
299.967
301.138
284.867
299.515
303.15
303.15
298.686
292.973
283.15
302.904
299.746
302.608
291.98
297.308
298.254
303.15
286.992
298.165
291.353
283.15
289.069
303.15
288.408
301.064
303.15
288.719
301.285
300.134
293.182
283.149
283.159
283.238
301.658
300.926
303.15
288.826
301.487
303.15
283.15
303.15
303.21
298.762
290.84
296.784
303.252
283.149
297.556
303.15
303.15
292.8
303.15
300.307
283.305
301.324
291.534
303.15
283.664
293.222
303.15
283.049
298.682
303.15
300.696
286.262
303.15
303.15
283.999
303.15
283.15
283.15
285.92
299.259
291.19
303.15
285.229
297.493
283.15
298.85
298.884
288.981
303.099
283.15
301.503
299.618
298.85
300.088
288.667
290.796
302.483
303.15
301.559
288.726
303.15
298.86
283.15
283.15
303.15
283.15
303.15
297.45
283.15
300.529
283.635
303.15
283.795
283.15
289.851
303.15
303.144
303.15
294.172
302.995
303.118
299.881
290.419
289.457
290.594
298.442
303.15
299.41
292.18
298.948
303.15
283.875
283.454
299.268
287.182
283.513
303.15
283.15
303.15
285.336
303.15
303.322
284.693
303.348
302.956
303.15
303.15
283.15
300.556
300.633
285.504
303.087
287.008
295.678
301.877
292.512
288.172
302.082
296.105
283.15
283.15
303.15
285.822
289.712
283.15
283.15
303.15
301.99
288.693
303.15
296.395
303.15
283.156
285.196
301.088
303.15
303.15
292.291
303.15
283.302
290.623
283.15
297.15
294.649
296.084
303.15
302.713
283.15
302.666
293.428
303.15
303.15
288.798
283.15
303.15
301.807
284.445
303.15
303.15
283.15
302.351
303.464
289.51
299.704
298.038
303.15
303.159
302.608
303.15
283.15
303.15
303.15
303.15
303.15
303.15
303.15
303.15
283.15
303.15
303.15
283.342
303.15
303.335
303.15
303.16
303.15
303.15
300.945
303.679
303.15
292.044
303.15
303.15
283.15
302.559
303.15
302.133
303.115
283.29
283.15
303.15
302.925
283.149
303.15
303.15
291.383
283.15
292.604
283.15
283.15
283.153
291.23
284.848
303.15
296.668
283.15
303.732
303.134
284.32
302.594
283.15
292.181
303.084
301.685
283.15
303.15
283.15
304.088
284.827
296.883
303.15
303.15
303.15
303.15
303.15
303.15
302.349
302.808
297.63
292.042
303.15
287.147
292.656
284.984
303.206
283.15
286.925
302.753
284.781
283.148
287.491
303.15
283.383
302.918
292.546
302.845
301.91
303.15
302.227
303.15
303.15
297.94
303.15
284.477
303.15
303.15
283.15
303.15
303.15
302.845
303.15
283.298
283.15
283.15
285.819
284.91
300.902
286.106
303.15
294.752
303.15
290.472
303.15
287.156
300.689
301.487
293.37
303.15
303.15
303.15
289.816
283.15
303.15
289.569
283.15
283.15
301.827
303.15
286.202
283.148
283.15
303.15
303.15
300.66
298.197
303.15
293.446
303.039
283.15
298.571
303.15
286.423
288.249
302.147
303.15
296.302
296.743
302.954
301.885
301.664
303.15
303.15
303.147
303.15
283.15
303.15
289.573
300.063
294.345
302.135
283.15
300.369
291.413
298.23
283.605
298.334
289.615
302.167
283.15
283.15
283.15
302.212
283.15
290.493
283.15
301.27
303.161
289.727
298.05
283.15
303.15
301.258
301.237
303.15
283.15
303.15
286.438
301.447
302.978
302.34
298.019
288.451
303.15
303.15
303.15
294.259
285.975
289.814
295.89
283.961
302.956
303.15
303.15
283.15
283.15
285.429
299.592
303.15
303.15
283.15
303.15
303.15
303.15
300.265
303.15
285.369
292.535
283.15
283.249
293.38
285.704
303.15
303.15
301.891
303.15
299.242
283.146
297.581
303.15
303.15
283.15
303.15
303.15
303.15
305.238
303.15
301.844
301.118
303.15
303.15
301.624
303.15
283.15
287.259
303.105
303.15
303.15
303.15
297.942
303.15
303.15
302.485
302.491
301.783
303.15
283.15
303.15
302.048
302.512
301.531
302.534
283.15
300.661
287.512
297.459
283.15
303.15
303.15
303.15
303.15
294.385
287.578
299.656
303.15
303.15
303.15
303.15
283.15
303.148
284.78
285.155
283.15
303.15
303.15
283.148
299.601
294.972
283.15
303.15
303.15
303.15
303.15
289.622
289.688
303.15
303.15
302.399
303.15
301.446
283.954
291.883
303.15
283.15
301.165
303.124
303.15
303.098
301.328
286.838
303.15
303.15
303.15
303.15
293.298
284.153
303.15
302.699
298.077
289.481
303.15
303.15
303.15
303.15
299.547
303.151
303.15
303.15
298.274
302.587
288.364
303.15
303.15
297.76
303.15
303.15
303.15
303.15
288.827
303.15
283.15
283.15
295.954
291.113
303.15
303.15
303.15
297.002
303.146
303.15
303.15
303.15
303.15
303.412
300.887
303.15
287.351
302.645
299.396
303.15
303.15
303.15
303.15
283.15
285.669
303.15
302.843
283.15
302.182
303.15
303.134
303.15
283.15
301.923
285.741
283.15
302.828
303.15
302.422
283.15
303.15
303.15
303.151
303.15
283.271
303.15
290.866
283.15
283.15
303.15
303.15
298.844
302.384
283.15
302.421
283.15
284.101
288.013
302.707
283.15
303.155
302.988
303.134
284.4
283.156
302.984
283.15
283.15
283.156
302.082
302.295
303.15
283.15
283.15
295.418
303.15
283.15
303.15
303.15
303.15
303.108
303.046
302.932
302.452
303.15
302.906
303.15
284.826
303.15
303.15
283.15
303.15
303.11
303.15
283.15
303.15
288.332
303.15
303.15
303.168
283.15
302.881
302.115
296.741
303.15
289.392
294.624
283.821
290.028
283.15
283.15
287.226
284.326
283.15
303.804
283.15
286.427
303.15
283.15
303.156
303.15
303.15
303.014
303.155
303.15
283.15
303.138
303.15
283.15
283.105
298.755
302.705
303.15
301.852
303.15
285.716
303.152
301.192
303.15
303.15
301.056
303.15
303.15
303.15
287.709
303.15
285.155
303.15
303.147
303.15
283.15
283.15
303.15
303.15
303.15
288.73
302.553
303.15
303.15
288.604
286.517
291.245
303.15
302.704
287.69
287.545
303.15
303.15
287.707
283.15
291.92
303.15
303.152
303.149
303.15
300.533
283.15
302.306
283.15
303.15
303.15
303.15
303.15
303.15
284.337
302.253
291.064
303.15
303.15
290.596
303.15
303.15
303.15
303.15
303.15
300.164
303.15
303.15
283.15
299.47
303.15
283.15
303.15
301.379
283.15
299.971
290.81
302.688
300.034
299.452
303.15
303.15
303.15
300.84
288.497
283.15
303.15
300.329
303.15
303.15
291.993
303.15
287.499
303.15
297.843
284.323
303.15
283.15
303.15
303.15
303.15
285.259
303.15
300.499
303.15
303.15
299.713
283.15
284.756
303.15
303.15
288.127
301.536
296.433
303.15
303.15
303.15
301.554
292.268
303.15
283.15
303.15
300.678
303.15
284.779
296.315
303.15
303.15
301.145
303.15
303.15
283.15
303.15
283.15
294.58
303.15
283.15
303.15
303.15
303.15
303.15
303.15
303.15
283.15
301.503
283.15
302.084
303.15
303.15
296.086
300.486
303.15
283.15
303.15
300.891
283.15
303.15
303.15
303.15
300.736
303.15
297.679
303.15
285.841
283.15
286.742
303.15
303.15
298.504
283.15
303.15
287.869
283.245
303.15
303.15
285.086
283.851
300.86
301.738
301.193
293.162
301.744
283.85
303.15
297.722
283.15
283.15
303.15
303.15
303.15
301.215
303.15
303.15
303.15
303.13
283.169
283.15
283.559
303.15
302.02
283.15
303.142
296.116
283.15
294.596
303.15
303.15
283.15
299.897
283.93
303.15
283.15
299.923
303.15
297.66
303.15
295.295
303.15
283.15
303.15
283.15
299.427
283.15
283.227
283.15
286.21
303.15
303.15
283.15
283.15
303.15
303.15
303.15
303.15
284.885
284.748
283.15
303.15
283.233
283.15
283.15
303.154
289.878
283.538
283.15
301.505
284.879
300.466
288.186
303.15
303.15
303.15
303.15
283.15
283.15
283.15
303.15
283.15
283.15
303.15
283.15
297.259
283.15
303.15
283.15
303.15
303.15
283.333
283.15
303.15
301.949
303.149
303.15
303.15
303.15
288.735
283.15
303.15
303.149
283.15
303.15
303.15
303.15
295.24
283.15
283.182
303.15
303.15
303.15
303.15
303.15
303.149
303.147
284.105
303.15
283.15
303.15
303.149
303.15
303.148
303.149
283.15
283.15
283.15
303.15
303.15
283.15
303.149
283.15
287.713
283.15
301.819
283.15
303.154
303.15
284.613
283.15
284.455
297.389
303.15
284.697
303.173
303.15
297.398
283.15
303.15
303.15
303.15
303.15
283.15
303.15
303.15
299.162
283.15
303.15
303.15
303.15
303.15
292.329
290.429
303.17
283.165
303.15
301.815
302.317
303.15
283.15
283.15
303.15
303.15
303.15
283.15
283.15
283.824
303.15
303.15
303.196
303.151
283.15
288.867
303.15
283.15
303.15
288.08
303.15
283.15
302.121
283.15
283.15
283.15
303.15
299.686
303.15
303.15
303.15
283.15
284.508
293.598
295.226
289.557
303.121
303.018
283.15
283.15
301.03
283.695
283.15
303.149
303.15
303.15
283.15
294.549
303.15
283.15
302.979
303.15
303.15
283.797
303.15
303.15
288.41
289.564
303.15
283.15
303.15
283.15
303.15
303.15
303.15
303.15
283.949
303.15
303.15
303.15
302.929
303.15
303.15
283.15
283.15
283.15
283.15
302.942
283.15
283.15
300.97
303.15
284.774
284.934
303.15
301.128
303.15
283.15
303.15
283.15
283.15
303.15
303.15
303.15
302.663
303.15
303.15
303.15
283.15
303.15
283.15
286.375
303.15
303.15
291.633
303.15
283.15
283.15
302.419
303.15
303.147
283.15
303.193
286.667
283.15
283.15
299.21
283.15
283.15
303.047
303.161
293.334
303.167
303.151
303.152
283.15
283.15
302.645
283.455
285.841
300.847
283.158
283.15
291.049
301.568
301.465
283.15
300.217
290.7
300.143
302.206
302.749
284.688
295.495
299.215
286.261
293.315
300.106
303.15
297.953
297.579
302.789
283.661
292.37
301.146
287.338
303.15
301.058
303.15
300.72
301.497
283.635
284.982
303.15
283.15
302.28
301.69
283.146
303.173
288.555
302.677
301.843
300.828
303.15
303.23
301.132
295.092
300.424
288.974
302.912
301.631
302.188
302.273
284.216
302.503
301.596
283.18
303.15
302.895
303.15
303.15
302.098
302.004
294.284
303.15
284.672
292.321
292.342
300.941
303.15
284.016
285.195
284.392
303.15
298.784
303.15
296.373
295.389
300.757
303.142
303.15
303.15
301.947
301.263
302.785
303.15
292.624
302.745
289.969
283.15
298.349
294.003
303.15
300.506
283.15
283.203
283.15
302.576
303.098
303.15
302.981
298.396
283.148
300.501
302.222
295.329
283.537
295.865
297.077
283.463
303.133
284.741
296.316
283.32
296.876
300.507
300.253
300.359
302.004
289.855
301.578
303.15
302.719
302.649
302.651
296.494
302.884
283.15
302.015
293.434
303.15
283.435
286.844
301.196
302.599
290.532
284.826
287.715
302.624
296.387
303.15
303.15
295.02
283.15
292.691
283.432
303.15
290.569
290.312
283.914
303.15
297.294
298.491
284.229
301.243
294.18
290.18
300.538
303.107
303.15
303.15
283.534
302.613
283.35
285.799
303.15
303.018
303.037
303.15
285.422
300.796
297.858
283.246
299.575
302.373
300.515
286.909
283.15
303.106
301.821
283.739
283.139
303.15
303.073
303.15
303.15
284.181
302.53
296.372
283.034
283.153
303.15
283.15
302.95
303.044
302.503
301.411
303.15
283.15
283.15
301.82
301.876
283.215
295.872
303.15
303.15
301.618
285.498
283.259
301.681
301.781
301.73
284.41
303.15
283.15
298.465
297.766
303.15
302.703
302.084
284.73
284.977
302.114
303.054
303.15
298.144
284.437
283.15
303.15
300.58
301.221
302.019
289.627
302.076
285.663
300.15
300.27
290.351
297.546
303.15
303.15
300.941
284.467
302.095
283.151
300.511
301.712
283.625
288.31
302.423
283.15
283.15
283.029
303.15
303.15
299.943
298.945
302.289
283.147
283.15
283.939
283.151
283.15
283.152
303.076
300.935
299.183
295.899
283.369
303.098
300.145
303.15
283.15
302.561
289.237
300.786
292.705
283.505
303.061
283.148
283.15
302.837
301.213
302.616
283.156
291.311
284.876
303.15
284.262
301.043
283.15
283.31
284.944
284.19
283.15
283.15
301.638
283.15
289.393
302.53
302.706
301.781
283.482
298.366
290.077
283.15
303.34
292.103
283.15
283.15
283.15
303.15
301.203
302.417
299.179
301.472
299.92
288.868
283.155
290.998
290.168
303.06
291.107
299.994
292.08
283.15
286.297
301.089
301.545
283.15
283.982
299.646
283.15
303.15
283.188
301.284
303.15
284.022
302.26
303.02
303.15
283.15
292.811
303.153
301.696
283.15
283.15
283.15
302.199
297.59
303.143
302.197
303.166
303.15
288.397
303.166
290.454
300.236
300.196
296.605
283.156
301.706
283.15
290.603
301.418
289.478
290.5
298.992
300.703
301.603
287.185
291.151
285.031
283.172
302.22
286.138
283.149
283.144
300.217
283.079
300.31
287.013
296.061
299.446
289.224
299.288
283.121
299.135
283.15
290.015
289.14
298.673
283.33
283.15
300.58
283.15
302.801
283.15
303.15
286.498
286.497
283.15
299.004
298.563
287.062
303.15
303.15
301.737
289.798
303.002
283.729
301.583
287.108
303.147
284.198
288.221
303.15
301.431
283.15
283.15
287.574
287.043
283.145
285.258
301.503
286.256
301.177
303.15
285.126
301.752
291.208
303.15
303.15
301.623
302.049
303.15
293.043
294.29
283.682
296.414
286.807
290.039
303.15
302.793
297.026
285.029
283.15
287.734
291.923
299.661
283.163
283.752
282.941
301.953
303.118
283.151
303.134
303.15
300.576
293.09
298.828
293.862
283.15
291.949
296.013
285.606
283.211
291.7
283.15
300.265
303.164
292.571
284.102
303.144
291.866
298.627
288.255
300.353
291.338
287.342
283.15
303.142
285.355
289.916
293.503
283.15
283.15
283.15
303.141
283.15
283.137
286.445
303.15
283.15
303.167
283.172
291.117
289.039
303.514
302.913
289.884
303.15
296.996
303.176
302.006
287.281
283.15
292.942
303.145
303.094
286.203
283.15
283.15
283.476
286.037
303.055
303.144
287.522
289.492
283.483
283.162
289.865
293.224
303.15
283.15
303.096
303.15
302.334
285.023
302.338
303.093
284.062
283.774
284.041
302.852
302.184
297.398
293.994
303.071
291.299
291.039
303.15
303.098
302.586
285.447
283.379
303.15
285.953
283.386
302.932
301.669
302.178
283.15
300.338
301.852
303.15
302.158
285.417
303.15
297.907
303.15
283.15
300.685
302.686
286.347
302.491
283.15
285.176
303.011
283.15
302.31
285.382
294.892
284.345
303.15
303.018
302.873
286.517
283.15
287.134
284.257
289.802
285.74
302.254
303.15
283.15
283.15
293.135
283.15
301.048
302.165
290.369
283.15
294.03
283.15
303.15
283.15
300.056
298.572
283.151
285.283
301.722
303.077
303.157
291.867
294.212
301.207
283.21
301.797
283.145
303.15
303.141
299.092
283.15
300.944
294.783
303.15
300.946
287.323
301.948
284.903
288.212
283.15
302.224
287.747
298.418
303.075
283.15
303.15
291.652
302.164
283.076
283.147
286.76
298.347
303.149
284.504
301.033
301.003
301.258
303.153
299.895
287.661
284.931
301.586
299.898
283.729
283.103
303.16
303.149
303.15
297.352
283.163
283.15
303.15
303.149
289.918
298.907
300.274
287.795
302.801
303.15
286.433
301.553
303.15
300.954
283.799
301.457
303.15
284.545
301.379
295.505
302.765
303.15
303.15
285.179
295.066
296.374
287.393
303.15
303.15
283.15
287.221
302.402
296.163
303.15
285.558
303.15
303.15
300.447
288.721
283.15
295.548
295.874
299.062
283.15
303.15
292.671
287.23
303.15
297.95
300.5
300.406
303.15
303.15
303.15
300.214
298.321
302.8
299.883
283.15
292.874
287.678
290.603
300.566
303.15
303.15
300.751
303.097
286.566
296.096
303.15
303.147
283.15
286.439
298.92
285.583
303.15
303.15
283.342
303.122
303.15
303.15
283.15
290.517
303.15
303.15
284.577
299.278
283.15
303.15
284.622
301.322
300.163
286.991
294.924
303.15
283.495
303.15
303.15
283.31
300.526
290.391
300.392
303.15
303.13
302.178
292.658
299.791
301.355
284.452
283.455
300.832
298.383
303.15
302.748
284.131
299.723
301.37
287.693
303.15
297.409
301.399
301.486
301.526
292.875
303.15
283.15
299.179
283.15
283.15
287.751
283.15
284.006
283.15
283.15
283.15
283.15
302.754
288.133
302.701
283.15
295.68
290.929
284.733
283.15
303.15
302.676
301.735
303.164
302.634
283.15
294.8
300.258
290.159
283.15
283.15
299.809
285.931
283.15
283.15
303.149
290.567
283.15
287.141
303.149
303.152
284.313
283.15
288.194
292.501
300.783
294.576
302.957
285.624
302.498
295.235
286.269
283.15
283.537
291.618
303.075
289.125
302.653
283.15
292.357
287.747
301.014
301.249
284.888
303.106
284.903
297.06
302.983
303.147
285.128
303.145
303.004
293.296
302.672
283.15
303.15
303.15
294.753
291.038
283.155
301.095
284.68
284.15
284.614
303.145
288.344
300.452
283.15
283.15
302.503
303.15
294.554
302.9
303.182
299.807
303.221
302.882
283.15
301.282
302.878
283.15
303.15
301.302
303.15
284.305
298.753
283.164
291.511
283.15
287.576
303.013
299.739
283.15
303.024
290.889
301.185
303.126
303.078
283.15
283.15
301.926
301.993
283.798
302.809
302.413
302.368
303.141
283.15
293.702
283.15
302.785
287.856
302.987
303.15
283.15
302.82
285.113
291.463
302.038
283.15
302.58
301.986
301.559
302.481
303.046
303.21
303.01
303.15
283.15
301.506
297.805
303.087
303.15
289.91
284.906
303.15
283.15
285.303
303.184
303.165
302.917
301.126
284.259
303.097
290.637
294.197
303.148
289.032
303.164
283.15
289.824
283.15
299.946
298.112
284.771
288.167
299.602
296.63
295.268
299.154
293.75
303.153
293.799
296.372
283.16
299.365
293.827
303.15
298.889
299.121
303.15
291.167
303.172
301.668
303.15
286.916
285.982
302.798
289.654
283.15
283.15
300.343
301.121
283.717
283.15
303.15
300.212
302.314
300.601
299.85
302.784
292.555
289.621
286.625
292.462
284.303
290.378
283.304
295.671
290.409
293.905
287.074
284.28
303.163
283.272
303.147
285.592
300.706
283.151
300.369
298.359
288.725
302.091
285.394
299.058
283.15
302.951
283.154
283.116
287.676
299.645
303.15
300.331
303.018
299.905
302.758
303.15
301.246
284.95
294.902
302.04
303.149
283.706
283.15
290.281
285.234
285.747
303.131
303.149
283.15
283.15
283.176
303.15
293.435
303.15
303.15
294.34
303.434
303.15
300.401
303.15
303.15
293.642
290.587
303.15
289.816
302.05
289.541
303.15
303.15
285.946
283.333
290.301
303.224
303.15
303.145
285.465
283.246
283.15
288.966
287.587
303.15
284.302
303.15
303.15
303.132
287.318
303.15
303.147
283.277
303.152
302.66
287.901
283.152
283.598
297.301
290.717
303.15
285.904
284.426
301.316
287.098
302.207
290.558
293.835
303.15
303.15
284.008
303.148
302.945
295.836
302.94
302.738
287.16
283.15
285.311
283.218
297.109
302.583
285.369
303.15
283.794
286.704
303.125
283.176
303.15
286.378
283.15
300.095
303.15
299.706
299.884
283.303
283.359
302.321
290.82
301.315
303.15
301.383
301.734
303.15
303.15
298.313
293.396
283.15
288.762
303.15
295.181
283.357
303.15
296.873
298.684
288.97
303.15
302.755
294.186
295.34
284.462
303.161
298.657
296.088
283.978
303.123
302.799
287.362
298.404
289.794
290.777
289.721
283.15
302.943
303.152
303.15
303.174
293.055
296.275
302.975
301.279
303.15
284.445
303.15
303.041
302.856
303.15
293.525
296.203
303.15
285.372
303.095
303.15
303.089
303.158
286.055
293.299
291.092
288.389
293.37
303.15
301.196
291.398
295.334
293.428
303.141
303.15
300.542
303.189
284.239
303.19
303.15
303.15
303.143
303.15
284.938
303.15
284.222
303.146
303.15
290.209
303.144
292.441
295.491
303.134
295.291
285.979
283.445
303.125
302.934
284.673
283.15
297.081
303.15
285.5
302.912
302.03
303.017
298.386
287.049
303.15
298.662
289.884
299.331
283.15
283.613
303.15
303.145
303.19
294.031
303.15
292.41
289.322
303.195
303.15
284.79
298.734
293.191
299.562
302.47
301.574
300.365
303.15
284.713
296.912
302.36
285.581
298.309
292.258
284.465
291.617
303.15
286.647
291.792
290.103
299.416
303.15
286.441
284.085
303.15
302.422
288.127
302.093
283.15
303.15
299.808
301.685
288.98
301.976
301.9
301.802
303.15
289.302
285.126
301.953
302.229
297.119
303.15
283.201
303.15
301.977
303.15
302.799
303.15
291.643
303.15
296.479
283.15
289.436
303.15
283.15
292.16
301.428
300.391
289.183
300.47
303.15
302.489
303.15
302.362
285.202
303.15
300.377
290.377
303.15
300.783
303.15
303.15
293.153
283.15
285.535
293.202
300.901
303.15
291.15
293.833
288.161
289.636
288.094
299.197
300.236
300.774
287.362