/*--------------------------------*- C++ -*----------------------------------*\
  =========                 |
  \\      /  F ield         | OpenFOAM: The Open Source CFD Toolbox
   \\    /   O peration     | Website:  https://openfoam.org
    \\  /    A nd           | Version:  10
     \\/     M anipulation  |
\*---------------------------------------------------------------------------*/
FoamFile
{
    format      ascii;
    class       volScalarField;
    location    "26";
    object      SgP;
}
// * * * * * * * * * * * * * * * * * * * * * * * * * * * * * * * * * * * * * //

dimensions      [1 -1 -3 -1 0 0 0];

internalField   nonuniform List<scalar> 
59698
(
0.00309491
0.00189709
0.00239371
0.00281305
1.1473e-06
0.00145199
0.00257976
1.11307e-07
1.98512e-09
3.91344e-09
0.000586478
1.64481e-09
1.57712e-09
0.00237192
2.76415e-08
4.26095e-07
9.84682e-09
4.09759e-09
1.75475e-09
6.01893e-10
0.000365063
1.56211e-06
0.000498682
8.8193e-08
2.03739e-07
1.15892e-09
9.87492e-10
0.00248185
0.00239427
2.17708e-09
1.35164e-07
0.000600687
6.68152e-08
0.0040356
1.1178e-06
4.05289e-09
0.000465425
5.06953e-07
1.77398e-08
0.00245372
3.06866e-08
2.30455e-07
2.39469e-08
2.33695e-08
0.000402108
1.04721e-07
2.34823e-09
5.14731e-08
0.00302693
3.33314e-08
3.65802e-10
1.94309e-09
0.00178312
0.00284208
0.00216772
2.05964e-09
8.69612e-08
1.55915e-08
1.65482e-08
2.74762e-05
0.00183374
6.35996e-08
1.98376e-07
1.48921e-09
4.97217e-07
4.23568e-08
1.75198e-09
3.28314e-09
4.19298e-09
6.7702e-09
6.3231e-07
3.16277e-08
0.000359979
1.78333e-06
0.000411959
1.12701e-06
2.46461e-08
2.19355e-08
6.49199e-09
1.03998e-08
4.79378e-07
9.1576e-10
4.0372e-09
8.38885e-09
1.70305e-05
3.31665e-08
9.04918e-09
2.30154e-07
2.34034e-06
2.3336e-08
4.50533e-09
6.60416e-08
1.71516e-07
6.75503e-09
6.2865e-08
0.00372026
1.36464e-07
6.03743e-08
5.07887e-08
8.58893e-10
0.00353802
2.07311e-05
2.94955e-07
0.0032936
5.49439e-08
0.000564778
2.62781e-09
2.25677e-09
2.71278e-09
4.40721e-10
3.83346e-08
2.71593e-06
1.35841e-06
1.56286e-07
1.00203e-07
3.5069e-08
3.59653e-07
0.0036609
3.08083e-07
1.13548e-08
2.12326e-09
3.05679e-07
2.23599e-07
3.25503e-09
1.83564e-09
7.95856e-09
7.90673e-09
7.1996e-09
1.2839e-08
3.97985e-07
0.00335559
3.8429e-09
1.10185e-09
1.81715e-07
6.47155e-08
3.26805e-09
5.06648e-07
2.19329e-10
1.72252e-09
5.23941e-09
2.11851e-08
0.00240467
0.00258891
1.71791e-09
1.9532e-07
6.32789e-10
5.52365e-07
3.98024e-07
0.00465196
7.1095e-07
0.000257361
0.000434378
2.77841e-08
2.63273e-07
6.82015e-09
1.06189e-07
7.07374e-09
0.00168897
6.71896e-08
6.04828e-10
3.06888e-09
7.81327e-09
2.22422e-08
9.71399e-08
1.87645e-08
0.00222856
1.0133e-09
0.000567431
0.00152525
6.97632e-09
2.55724e-07
1.50673e-06
2.17154e-07
9.23842e-07
5.75922e-07
0.00126153
4.36591e-09
0.00139616
0.00032602
0.00293209
2.25643e-06
7.42196e-07
4.01393e-07
1.15509e-08
2.49392e-07
6.91608e-08
3.7235e-07
0.00247271
1.08889e-10
1.85678e-08
6.4476e-09
7.19719e-09
2.30414e-08
6.05791e-07
1.21959e-07
0.00432343
1.77867e-06
0.00294372
1.27799e-05
9.09709e-08
0.000227094
6.7491e-07
1.5198e-09
2.37371e-09
0.00356728
0.00251358
3.60295e-08
0.00214727
0.0027076
0.00350263
0.00250982
6.04706e-09
0.00262739
1.56813e-08
2.4152e-09
0.00349042
9.75677e-09
4.70131e-08
1.55092e-07
4.77772e-09
1.36998e-05
0.00224791
1.69654e-09
5.08882e-07
8.60283e-09
0.00274672
2.16544e-08
5.64732e-09
4.88724e-08
6.8606e-07
7.5665e-09
1.94398e-08
6.98274e-09
1.15899e-08
9.7072e-09
9.27924e-09
3.07139e-07
2.00628e-08
1.82424e-07
8.55734e-09
0.00270493
1.19006e-07
3.43441e-08
0.000664542
9.22314e-09
2.20029e-07
2.30347e-05
3.54865e-06
4.51674e-09
5.11673e-09
5.99808e-08
6.48502e-09
3.21378e-08
0.000233554
1.87762e-08
0.00176868
1.10057e-07
5.54841e-08
0.00325197
2.56481e-09
7.84898e-06
1.86073e-09
8.43709e-09
0.00282103
0.0037341
8.55968e-07
1.17575e-09
1.06452e-07
2.05505e-08
5.47359e-10
3.0699e-09
1.54017e-06
6.90799e-05
5.88234e-10
1.2561e-07
5.12586e-08
0.00151624
3.96242e-08
2.9275e-09
1.21682e-09
0.000574139
2.13134e-09
1.68917e-09
4.71687e-07
0.00334933
1.02e-07
4.42215e-09
0.000647307
3.82563e-07
1.07232e-07
2.76511e-06
0.00239142
9.22963e-09
1.43826e-09
7.28718e-07
0.00283323
7.00101e-10
1.62851e-07
1.43416e-08
6.59429e-07
3.09925e-09
2.27359e-09
6.86643e-08
8.20593e-10
1.00196e-09
1.19237e-09
3.61284e-07
2.27326e-08
5.4932e-09
3.95349e-10
0.00196641
4.43216e-08
4.16796e-09
2.37992e-08
0.00198567
5.71679e-09
0.00040339
8.33867e-09
0.000829308
9.00839e-08
9.72258e-08
2.76439e-07
1.68149e-08
2.9473e-09
1.7942e-06
2.55747e-07
1.60837e-08
9.65287e-09
4.39489e-10
0.000361923
0.00289979
4.12907e-08
3.55441e-07
2.40068e-06
0.000430951
1.09687e-08
7.79745e-09
4.18158e-09
1.39617e-07
0.00125627
2.22015e-08
0.0021528
0.00259045
5.13714e-09
9.9868e-08
1.27529e-09
2.83149e-10
1.24405e-06
1.54915e-09
0.00206597
1.00025e-09
1.36732e-08
1.23624e-06
7.95989e-10
9.43421e-07
0.00191601
2.7477e-06
1.44774e-08
3.2153e-08
1.82589e-09
2.21268e-08
1.04243e-08
1.10382e-07
3.72761e-09
1.41233e-10
1.04128e-07
0.00289824
0.00206864
2.97243e-08
9.75612e-07
1.1328e-07
0.000533995
0.00379078
0.000651133
2.15956e-08
2.99396e-09
3.77821e-08
2.17031e-09
0.00046052
2.49528e-09
0.000347124
4.65989e-08
4.51816e-08
5.34502e-08
8.0472e-10
6.76463e-06
1.13735e-08
0.000544826
8.40849e-10
3.64253e-08
2.28982e-08
0.000457485
0.0034345
3.23762e-09
5.38011e-05
0.00179777
3.58991e-06
0.0018926
0.00278905
8.30974e-08
0.00243868
0.00247006
0.00266209
4.90049e-09
0.00153842
0.00432974
0.00383876
0.00276233
6.31218e-09
8.28096e-07
1.88288e-07
0.000404302
0.00170833
0.000434526
4.89846e-10
2.05383e-07
2.00687e-09
2.29118e-06
0.00189753
0.00175627
0.00304364
0.00226125
0.002559
0.00166359
8.44788e-09
3.1234e-09
7.78344e-09
1.78669e-08
0.00143512
5.61054e-10
8.11965e-09
0.00195944
0.00116543
2.42547e-08
3.71073e-08
1.44891e-08
1.39972e-08
0.00126394
3.52146e-09
0.00211838
1.92333e-07
0.00331057
5.01642e-09
4.54003e-08
1.92297e-07
2.03526e-06
8.65988e-08
4.52621e-10
2.2948e-09
1.28652e-07
0.00263046
6.5893e-09
7.40087e-08
1.97049e-06
6.40665e-07
1.1659e-07
3.40909e-07
1.40564e-09
1.15183e-06
1.72032e-07
6.11569e-08
4.45372e-09
0.00320849
6.44365e-09
2.20143e-09
2.13577e-07
3.57963e-07
9.46526e-09
4.53453e-08
6.6161e-09
0.00258015
4.42045e-09
2.01582e-10
6.8603e-09
6.37043e-08
2.09971e-06
8.22604e-07
2.21287e-09
0.00312175
0.00202062
2.42255e-08
2.27865e-07
1.52237e-08
1.93881e-08
2.53007e-07
4.09518e-08
4.52637e-08
2.00018e-08
1.6305e-09
1.69265e-09
2.51941e-07
4.07669e-07
4.0282e-10
4.32818e-08
0.0040208
2.2044e-07
1.58698e-08
0.00245503
3.70932e-08
0.000365619
9.71256e-10
1.18575e-07
2.03858e-07
1.21321e-08
1.71092e-08
1.11982e-09
8.4055e-08
2.14094e-09
5.00774e-09
8.27687e-09
5.81305e-09
7.84829e-09
1.34225e-06
5.41922e-08
1.63707e-08
2.4993e-09
6.87308e-09
9.54523e-09
7.04654e-08
2.48692e-08
1.71765e-08
3.65639e-09
4.8597e-09
3.86724e-09
2.18708e-09
6.32271e-06
3.39386e-08
2.34676e-09
0.00342198
0.0037357
3.13813e-09
0.00384344
1.82768e-08
5.23074e-09
0.00150516
3.56543e-10
1.35523e-08
0.00178826
2.05826e-09
0.000384871
4.39886e-08
2.35855e-09
4.50445e-08
3.01125e-06
1.39586e-08
5.52778e-09
8.92152e-06
0.0001671
1.93635e-08
7.49115e-06
1.86086e-08
2.28845e-09
3.15491e-08
1.90953e-09
5.35612e-09
1.42755e-08
1.91254e-08
1.68734e-08
2.65676e-09
2.32625e-09
0.0007685
1.74552e-09
1.57306e-08
1.02271e-05
1.50358e-08
1.80837e-09
1.2183e-06
2.27026e-08
1.03169e-08
0.000539256
7.81151e-10
7.85928e-09
2.04328e-07
1.66329e-09
4.41384e-08
1.4618e-09
2.64414e-10
5.71205e-10
0.00209069
2.31378e-09
0.000732638
4.11739e-08
0.00320711
1.46585e-08
3.45324e-09
0.000313341
1.20682e-09
1.24504e-08
1.78205e-08
1.69608e-08
2.21947e-09
0.00331561
7.85934e-09
1.61541e-08
8.51607e-10
4.15418e-08
9.27998e-07
0.00264876
0.000349776
7.23485e-09
8.46607e-09
1.42232e-09
2.96071e-09
0.00349997
1.48397e-08
5.11126e-09
2.22472e-09
0.00108764
0.00395732
1.49039e-08
1.25988e-08
1.16616e-09
1.07902e-08
4.80911e-09
3.22558e-09
4.94329e-09
4.86127e-09
3.62047e-08
7.85381e-05
7.12432e-09
5.02774e-09
7.00092e-09
1.68665e-08
2.52237e-05
0.00252272
1.15656e-08
0.00266362
2.36446e-09
8.93324e-09
4.87626e-09
0.00281315
0.000211191
1.29231e-09
9.29491e-09
8.88486e-10
2.97072e-08
1.37239e-08
2.77464e-09
0.0015701
0.00323676
1.30916e-07
1.65147e-07
0.000607901
1.45165e-09
5.54709e-09
1.6964e-09
4.24574e-07
0.0021878
3.6075e-08
1.74526e-09
0.000439476
7.56382e-09
3.192e-08
4.33763e-09
2.24234e-09
4.59183e-09
8.614e-10
7.66469e-06
1.04496e-09
0.00188076
5.10716e-08
1.14913e-07
6.86969e-09
1.57148e-06
3.5327e-06
5.66078e-09
2.24802e-08
0.00239418
0.00320849
7.3494e-08
3.86735e-09
7.84811e-07
1.8799e-09
0.00356647
3.15744e-10
1.77612e-08
0.000428465
0.0026643
4.49975e-09
1.50757e-09
2.0309e-07
6.11853e-07
3.53434e-07
0.000378103
0.00143843
1.22717e-10
6.20517e-09
1.09804e-09
4.70353e-09
0.00277453
2.79567e-08
0.00302982
1.0578e-08
0.00135395
0.00215184
0.0024538
6.44171e-08
3.67924e-09
0.000650622
1.24586e-09
2.35107e-10
9.90337e-10
4.56334e-09
1.84504e-08
5.0246e-09
1.48867e-09
9.22394e-08
6.91527e-08
8.60462e-09
2.72142e-09
0.00192923
4.17913e-08
3.72561e-08
0.000362091
9.66307e-09
3.47447e-08
3.96231e-08
1.89783e-09
1.36576e-09
0.000646941
0.00196293
0.00241578
3.74725e-09
1.01033e-08
7.25988e-09
1.63322e-07
0.00194552
1.40795e-09
5.69254e-07
2.62719e-08
1.32434e-05
0.000344565
0.00169862
2.24579e-07
1.48076e-07
2.23743e-08
0.00444783
0.000532167
1.89871e-08
8.79102e-07
4.05811e-09
7.123e-08
3.44889e-06
0.00242043
2.55486e-08
1.2461e-07
1.01246e-07
1.59457e-05
2.46645e-08
0.00185631
1.97378e-09
5.16014e-08
1.16381e-08
0.00213033
6.89691e-10
5.79015e-09
2.05944e-07
4.44122e-06
0.000599772
1.13859e-07
6.99222e-08
0.000383644
4.13842e-08
2.53901e-09
0.00196691
0.00219653
5.43396e-09
8.9697e-09
0.000401557
1.0261e-08
1.73929e-08
0.000373922
3.51109e-10
0.00273955
2.57881e-09
2.00957e-08
1.88367e-07
4.1432e-09
3.97292e-08
3.5783e-08
4.98493e-05
3.75468e-09
6.11924e-09
7.4979e-09
1.17056e-08
1.01271e-07
1.53853e-08
0.000326091
7.08707e-09
2.04353e-08
0.00145234
5.71456e-08
9.85336e-08
8.42225e-06
0.00193687
2.37151e-06
0.000541223
6.85084e-09
0.000383011
1.24598e-08
2.75728e-09
1.52087e-09
0.00324286
3.95227e-07
3.23807e-08
7.1192e-05
6.44255e-08
0.00162583
1.6776e-07
9.84045e-06
3.54532e-09
0.00100438
3.34358e-09
0.00130383
5.34791e-05
2.42629e-07
0.000651796
0.00185322
1.20884e-06
1.10976e-05
3.84823e-09
1.12908e-06
2.59495e-08
4.08744e-05
0.000444785
0.000428767
0.00217101
3.65621e-08
3.19678e-08
0.000561237
4.57189e-08
0.00235268
6.40086e-10
0.000401151
2.35218e-09
2.92237e-09
2.94175e-05
0.000503635
0.000206348
0.00010862
7.69407e-09
5.08921e-09
1.89104e-09
0.000487256
2.19817e-09
0.00360689
0.00489762
3.17877e-09
0.000499709
2.03627e-09
1.03683e-09
2.93859e-09
3.23537e-06
0.000469635
2.99895e-09
1.29401e-09
1.05837e-06
4.36459e-09
1.1509e-07
3.85146e-09
3.11184e-09
8.79673e-08
2.63801e-07
3.10929e-08
1.06844e-08
0.000532566
7.50813e-10
0.000127625
2.83014e-10
2.50932e-09
0.00128091
1.50039e-09
7.74541e-06
8.98259e-08
7.80213e-09
0.000108824
1.22375e-08
0.0016195
2.83505e-08
4.47123e-10
0.00180023
5.99293e-09
9.80115e-09
0.00030713
1.2417e-09
0.00212848
1.70012e-08
1.73304e-09
0.00438374
3.05406e-09
4.313e-09
1.49105e-08
1.61408e-08
0.000319936
4.94545e-09
5.85789e-09
1.69063e-07
0.00181902
0.000633463
0.000584031
2.23604e-08
3.16236e-09
0.000379941
0.00245032
5.81377e-09
8.5761e-09
5.60466e-08
1.21169e-08
3.27433e-09
2.53719e-08
0.000412232
0.00149905
0.00271536
1.49198e-07
2.03616e-09
0.00276128
0.00414507
0.00538478
5.04677e-08
1.78021e-08
1.64347e-07
4.36646e-07
1.8557e-08
2.42891e-08
7.86089e-07
2.86618e-08
7.68287e-09
8.34487e-09
1.35567e-06
7.17859e-08
7.3725e-09
0.00260244
1.66617e-09
6.02437e-08
1.95179e-08
2.89887e-08
6.70576e-09
3.85735e-10
0.000761137
1.87526e-08
3.3963e-09
0.00198415
1.91557e-08
2.38207e-08
0.00328106
3.0746e-08
3.34719e-07
5.68821e-09
2.03282e-08
2.47963e-08
0.000826064
2.84132e-08
0.00227478
1.90749e-07
2.04591e-07
3.62206e-08
0.00552268
0.000295017
4.43368e-09
5.29716e-09
9.94456e-07
1.45601e-09
1.2245e-08
8.34482e-09
0.00174057
7.08242e-10
1.63434e-09
7.48192e-09
2.59034e-09
3.62135e-08
2.38877e-08
7.53486e-09
0.000429221
0.00228864
0.000466222
6.31519e-08
0.00318038
0.00256313
5.58259e-08
2.06885e-09
0.00191221
6.44145e-06
0.00156451
0.00216873
0.00212216
3.45797e-09
5.99485e-08
0.00248337
2.19706e-07
3.2819e-08
1.87948e-07
2.53626e-08
0.000443759
2.23024e-08
0.000538421
1.68451e-05
2.68955e-08
0.00196148
1.97726e-08
0.000608737
6.88704e-09
1.66728e-08
7.10709e-10
4.0947e-08
0.00158939
0.00377377
1.29432e-09
0.000395621
0.00196085
0.00140269
0.00278174
5.67184e-10
8.93888e-09
1.2311e-09
0.00355401
1.03953e-09
1.33654e-07
0.00355909
5.95272e-09
0.00359753
0.00351539
0.00378975
1.53811e-08
5.87906e-08
4.54998e-08
9.08549e-09
1.10029e-08
6.06364e-08
1.29366e-08
5.74607e-09
0.000475247
3.62072e-09
3.85187e-08
2.88401e-07
5.17533e-10
0.00168252
2.92884e-08
4.35736e-09
6.22464e-08
3.31085e-10
7.01527e-08
3.67499e-09
2.03527e-07
0.00319521
3.12552e-05
8.5605e-10
1.56064e-08
0.00217546
0.00314929
1.78674e-07
0.000760348
1.06585e-08
8.15274e-09
0.00269038
2.58857e-08
0.00322069
0.000542246
1.04637e-09
7.43762e-08
0.000765799
1.79801e-08
2.30298e-08
0.00260178
6.60097e-09
1.16938e-08
3.11684e-09
0.000534597
3.15229e-06
0.00200776
1.81462e-07
9.37338e-09
0.00182094
1.24321e-07
2.55568e-10
5.95609e-06
3.06199e-09
7.24833e-07
0.00133352
2.77301e-09
8.77093e-10
1.17671e-08
6.26884e-09
1.54781e-08
6.23201e-09
1.26168e-08
1.03775e-06
9.50244e-10
1.36646e-09
0.00176182
4.96896e-09
5.42586e-06
2.96446e-08
5.31247e-06
1.33379e-06
1.21459e-06
5.34206e-06
1.25933e-06
5.46763e-09
1.72801e-08
0.00100309
3.34524e-06
2.46506e-08
2.26157e-08
2.46511e-08
0.000449091
1.36961e-06
7.86461e-08
2.28796e-07
3.66125e-09
0.0022628
5.55531e-09
1.29549e-08
2.10911e-08
1.25715e-08
2.99267e-08
0.00212628
5.59776e-08
2.49539e-08
1.97012e-08
5.11134e-09
0.000477736
2.25247e-09
5.10199e-09
3.34055e-08
2.50306e-10
1.56926e-09
6.83598e-09
9.94791e-09
1.35778e-08
0.00033377
1.18172e-08
1.36505e-08
2.56108e-09
2.01173e-08
1.17782e-08
1.01185e-08
6.11486e-08
0.000380629
0.00250592
1.5722e-08
8.2497e-09
0.00291594
1.68212e-09
4.32554e-05
0.00203014
4.96113e-09
7.41929e-07
1.53122e-06
0.00186542
2.28475e-08
3.1821e-08
2.25723e-07
1.74165e-05
8.68119e-07
2.06506e-07
1.37993e-09
3.74791e-09
4.48671e-07
1.14061e-07
5.8126e-09
1.48876e-09
1.29724e-08
7.53549e-09
3.00704e-06
0.00129391
6.68937e-08
3.74926e-08
5.34473e-08
0.00277025
0.00253909
9.17754e-07
1.58114e-08
3.43019e-08
4.16161e-08
4.55393e-09
2.89875e-09
1.87606e-07
4.224e-09
3.58123e-08
1.91063e-09
1.15413e-08
2.34028e-08
3.11084e-09
4.14188e-07
2.71241e-09
0.000434431
9.88143e-08
0.00407141
0.00168406
1.16225e-07
2.14283e-08
0.000579703
0.000345169
2.78409e-08
2.36135e-08
9.23396e-06
2.3151e-09
1.98871e-09
2.35025e-08
1.63963e-08
0.000781453
0.000646967
1.00976e-08
1.20895e-08
7.808e-09
3.44056e-07
5.06127e-08
0.00275969
0.000496397
1.49052e-08
0.000238787
7.32238e-09
0.000315446
0.000227843
0.000223573
2.82517e-08
1.06166e-07
1.90797e-09
1.01602e-07
2.64101e-08
0.00241218
4.90399e-09
4.27449e-08
6.89652e-09
7.65753e-08
2.31604e-05
0.00197938
0.00235576
2.19559e-08
3.0867e-08
0.000377618
4.07369e-08
1.04103e-06
1.0408e-08
0.00313395
4.26377e-08
2.10573e-08
8.52685e-06
0.00270714
6.84011e-08
2.32618e-08
0.00135104
2.21139e-08
4.65212e-10
1.39126e-09
4.30802e-09
3.25703e-08
1.35413e-08
6.28589e-10
2.18699e-08
3.72242e-08
9.85795e-09
6.66843e-08
1.73168e-08
5.7432e-07
0.00198885
3.08666e-09
1.56239e-08
5.61458e-08
0.0020006
8.70517e-07
2.09631e-08
0.000373959
3.01674e-09
2.25159e-07
1.4902e-07
0.000983777
3.5959e-07
3.20692e-10
1.21834e-07
1.40209e-08
1.2268e-07
5.07867e-08
3.29085e-09
1.4798e-07
6.88516e-09
8.92668e-08
7.77612e-10
0.000584268
5.24999e-08
0.002135
1.33489e-09
5.68236e-08
2.14691e-06
1.07208e-08
6.13196e-06
4.9901e-09
6.53572e-10
2.47078e-07
4.05356e-08
4.76951e-09
1.74289e-05
6.10917e-08
7.61631e-08
0.00054725
3.1019e-09
0.000563699
3.12086e-08
2.27349e-09
7.85822e-09
5.76582e-09
1.98e-08
4.05642e-07
3.22837e-07
1.50317e-07
0.00246861
2.16527e-07
0.00405504
0.00209922
0.00342771
8.86486e-08
2.22936e-07
0.00143515
3.96202e-09
2.47713e-08
2.92519e-08
0.00236998
9.05745e-09
0.000635587
0.000492202
2.77372e-09
0.00262905
5.04426e-06
0.00274428
1.95432e-08
0.00249638
5.58879e-08
0.000340265
1.63821e-09
4.18328e-09
4.27434e-08
0.000746766
7.7262e-07
4.16334e-10
2.68759e-08
6.35364e-10
0.000532961
0.000313596
5.8877e-08
0.00190925
4.56166e-07
0.00054461
3.19275e-08
3.78308e-10
6.15129e-09
3.47291e-09
8.93033e-08
2.0407e-05
5.16555e-09
1.32364e-06
4.63543e-08
4.29802e-08
5.15816e-09
9.88303e-05
2.33505e-07
1.26813e-09
6.38524e-09
0.000432452
1.09765e-06
7.69938e-08
0.00153321
1.76307e-06
1.48658e-06
7.75032e-09
8.62259e-09
4.05328e-09
0.000681667
2.75775e-08
5.31019e-09
1.65534e-08
3.63759e-07
9.948e-07
2.08247e-07
1.82253e-09
3.19986e-06
6.72192e-07
7.38968e-09
5.98211e-09
5.49498e-06
2.07331e-09
5.18465e-09
0.00246546
0.0022919
6.16191e-08
3.23788e-09
1.13272e-09
3.33731e-08
0.00192952
2.59647e-07
1.38638e-06
6.6493e-10
5.49945e-07
3.29721e-08
0.00112024
0.00044488
6.73085e-07
2.45255e-08
3.48845e-06
5.75888e-07
0.000100672
2.23903e-09
1.86742e-08
0.00118818
2.69338e-08
7.78596e-07
5.8941e-07
2.03011e-06
1.22007e-06
9.77727e-09
0.00162264
1.30871e-05
2.39747e-09
1.2203e-08
4.6872e-09
0.000427672
0.000113474
1.87633e-08
0.000637651
1.24318e-07
7.25772e-05
0.00292352
0.000398953
0.00281959
0.00183707
0.00221777
4.58081e-10
2.74952e-06
8.3861e-08
3.42886e-06
1.48793e-05
2.21527e-06
2.0179e-09
3.97639e-07
1.53163e-08
3.29891e-07
0.000761567
2.86086e-07
9.14518e-10
0.00178375
1.45881e-07
0.000207824
1.84748e-07
4.23645e-07
5.31048e-09
4.01479e-07
2.20313e-07
0.0015688
2.09615e-07
3.56556e-08
1.50209e-07
2.60374e-05
0.00129739
0.001363
0.00294051
4.82086e-09
0.000502803
0.0015516
0.00175309
0.00149449
2.5104e-07
0.00224587
2.6877e-07
4.30225e-09
4.97435e-09
7.23761e-09
0.00152618
0.00183433
5.5959e-09
1.45108e-08
8.38304e-09
4.23031e-07
0.0002981
0.00370161
0.00140455
8.23378e-08
0.00247967
8.50612e-10
3.61702e-08
0.00112945
0.000804588
5.34595e-09
2.72563e-06
1.2268e-08
6.44202e-09
0.00351969
6.36038e-09
0.000423284
1.17846e-09
0.000378709
0.000405407
0.000581336
0.00198648
3.38829e-07
0.00161697
1.26207e-08
1.17707e-05
0.00046054
0.00124698
0.00221722
0.00109661
7.52782e-09
0.00124436
9.08584e-09
1.64239e-08
0.00292747
1.64013e-07
6.56395e-06
5.66884e-08
5.46826e-08
0.00057343
1.43601e-06
2.67095e-09
1.49413e-07
4.35314e-07
0.000403311
0.00219856
2.8181e-07
7.99257e-09
0.000614678
1.84924e-08
1.62229e-08
5.30664e-08
6.01264e-07
0.00214125
3.8557e-09
0.00241689
8.4342e-10
0.000256108
0.00444405
8.93182e-09
3.02822e-06
0.00253622
4.98836e-05
5.20048e-06
2.47201e-09
0.00178036
0.00284775
5.07598e-10
0.0004891
8.56959e-07
0.00061878
1.53176e-08
8.50134e-07
5.13088e-07
3.60723e-08
7.6759e-11
0.000345787
0.00131413
6.44839e-09
1.19463e-09
0.00218223
1.11106e-08
2.25146e-09
3.52219e-08
1.87522e-09
7.8782e-08
0.003638
0.0020942
2.47061e-08
5.48472e-10
0.00221222
2.0352e-07
0.00277516
2.92281e-09
1.91499e-06
4.54444e-08
7.81005e-09
2.75095e-09
1.07731e-08
0.00333618
5.03149e-09
2.79552e-07
0.000274722
0.00245617
0.000453091
1.43051e-08
1.17386e-06
2.56682e-09
0.000229044
0.00234483
9.03081e-10
3.7468e-09
3.97722e-08
3.42056e-08
0.00050253
2.73827e-07
0.000529724
1.97984e-07
5.49063e-09
5.87057e-11
5.00684e-08
0.000221068
0.000394063
6.04347e-09
0.00395002
0.00252439
9.29114e-09
3.13315e-10
3.47547e-09
9.26209e-09
4.88659e-09
1.80411e-08
0.00275347
0.000619961
0.000514081
7.75891e-05
0.000348235
0.000381681
2.96417e-09
4.26906e-08
1.14331e-09
3.05125e-08
1.89335e-08
0.00234571
1.09221e-08
4.88147e-09
0.00115994
1.77555e-08
7.99442e-08
8.81251e-08
1.80243e-09
8.44265e-08
3.45748e-08
0.00226846
4.81434e-09
1.49261e-08
4.22206e-09
1.45615e-08
2.13341e-08
0.00387142
4.52703e-07
1.1679e-07
7.36983e-08
1.05929e-09
4.52828e-05
1.02146e-06
3.71465e-09
5.77458e-07
1.26204e-05
9.89759e-09
1.16671e-08
1.03994e-05
1.7066e-06
2.50056e-07
0.00315245
4.02212e-09
3.96578e-07
1.3802e-06
0.00291524
2.24144e-07
3.96795e-10
1.91958e-06
1.63683e-05
3.44778e-07
1.03689e-08
1.70692e-07
4.57873e-08
6.62614e-08
2.05815e-08
3.46104e-08
0.00185961
1.89384e-09
1.16963e-08
1.08679e-08
6.28724e-10
4.67856e-09
8.83136e-10
0.00421489
1.25407e-07
2.53241e-09
3.32604e-09
3.42351e-09
1.08495e-09
5.0104e-08
5.13401e-09
2.81117e-09
5.6037e-08
1.3772e-08
0.00228448
3.04757e-09
0.000384355
3.5139e-08
1.1607e-07
1.80657e-08
1.20884e-06
1.53665e-09
0.0032832
9.48868e-09
0.00185492
2.9686e-07
4.11213e-08
1.196e-08
1.82761e-06
2.37574e-09
3.77624e-09
3.08039e-09
0.000259109
0.000626648
0.00213655
1.00835e-07
1.57922e-07
0.00227932
1.72176e-06
3.56041e-09
1.32253e-08
2.98214e-07
1.18953e-08
0.00425494
2.76956e-06
0.00316753
2.86891e-08
7.64261e-09
0.00158927
0.0014924
0.00180506
1.6862e-08
1.47411e-06
0.00194092
1.7293e-09
1.23381e-05
1.56535e-07
0.00183917
0.000459349
1.81206e-07
0.00238486
2.04689e-05
6.21437e-07
0.00205401
0.00224152
1.87036e-08
0.00245154
0.0031166
0.00186901
2.17694e-08
4.36858e-09
6.69589e-09
8.10312e-10
2.79163e-09
0.0016299
0.00284282
0.00182467
3.06198e-09
0.00303331
2.71983e-09
0.00228096
0.0025813
1.05976e-08
3.76037e-08
0.00170907
2.56089e-08
1.32082e-08
3.2163e-07
6.31462e-10
0.00264529
0.00204676
8.28128e-07
0.00163457
5.17234e-09
3.03535e-09
6.44196e-09
3.32814e-08
7.20947e-08
3.24644e-07
1.21656e-09
5.5553e-09
1.49934e-08
7.90751e-09
6.22257e-09
1.09105e-07
3.26033e-10
2.3111e-08
2.11107e-06
1.2074e-08
3.5814e-08
2.72199e-09
1.27282e-07
1.52079e-09
5.04524e-09
2.22418e-07
1.51845e-09
3.03254e-09
0.00194162
3.4513e-08
5.47248e-09
6.72729e-07
3.01144e-09
1.47591e-08
4.81296e-08
0.00185716
9.29945e-08
0.00220804
0.00153855
1.65189e-08
2.0619e-08
5.78861e-08
6.19485e-09
0.00162989
4.78258e-08
2.2384e-07
3.64536e-07
2.88152e-08
0.00243713
0.00154699
1.99315e-09
3.16676e-09
6.97168e-09
6.37974e-08
5.90988e-08
7.31144e-09
4.25396e-07
4.8725e-09
1.49086e-06
2.49709e-09
1.64789e-09
6.54544e-09
1.67145e-08
2.3291e-07
7.56721e-09
1.89402e-08
0.00443989
0.00150012
0.0026569
0.00160621
1.48936e-06
1.13325e-08
0.00208241
6.94151e-07
6.58678e-09
0.00041006
1.35772e-09
1.44522e-07
0.00242339
4.41611e-08
1.34875e-07
2.30265e-08
4.39952e-08
0.00139996
8.38529e-09
1.25397e-09
2.13916e-07
2.66278e-09
4.88785e-07
5.96735e-06
6.71441e-08
0.00211685
4.05053e-08
0.000460485
2.61898e-07
0.00209888
4.57092e-10
5.00147e-09
2.67005e-07
4.13363e-09
0.00188547
3.9425e-07
0.000518346
1.49304e-07
1.83904e-07
1.36404e-07
2.65518e-08
9.105e-09
4.94781e-08
3.01156e-06
4.15691e-08
2.593e-06
0.00338774
5.30604e-08
0.00434928
5.62085e-09
2.61848e-09
4.55575e-06
0.00194506
1.48498e-08
1.37708e-09
9.00981e-07
5.67064e-08
3.33801e-08
0.00235693
1.34768e-08
6.13925e-07
0.00273472
1.35697e-09
8.15278e-09
4.17733e-07
9.68853e-10
6.89177e-09
0.0026167
4.70533e-09
0.00285906
2.45715e-08
2.15343e-07
3.91907e-08
0.000935224
6.00747e-08
2.78907e-08
1.54079e-07
0.00262039
1.58883e-06
1.3202e-08
9.32735e-09
1.24502e-07
0.00207299
3.15386e-09
5.18945e-08
6.29811e-08
1.602e-06
0.00261359
0.000270065
0.00119128
1.75556e-08
0.000358066
1.13745e-08
8.98649e-07
0.000789879
1.22681e-08
0.000881028
3.27847e-06
4.97538e-09
2.64074e-09
1.20986e-08
0.0026179
1.52704e-08
2.92133e-09
2.59687e-07
1.12448e-08
5.99713e-09
0.000301494
3.01921e-09
4.47057e-08
0.00251955
1.2673e-06
4.87077e-09
0.00210795
3.25869e-06
6.92535e-09
1.38865e-08
1.20136e-05
4.3047e-08
2.23742e-07
1.7902e-08
4.14115e-08
6.07942e-08
4.75216e-06
0.00109757
5.03979e-08
0.00254131
1.5102e-08
3.89466e-08
0.00283285
3.25376e-08
8.23468e-08
9.85571e-09
1.33372e-07
0.00244785
2.74171e-08
2.02187e-08
0.00163504
6.68462e-09
0.00275928
1.3709e-09
7.60381e-09
1.00946e-09
9.3198e-09
0.00155871
5.39708e-08
8.32118e-10
2.0669e-09
1.41939e-08
5.46512e-08
0.00265844
4.7338e-09
4.47216e-09
2.53287e-09
1.54786e-07
5.28018e-06
5.16663e-09
0.00156987
3.6599e-08
1.02693e-08
6.6742e-09
5.35121e-08
0.000429643
6.72074e-07
1.32278e-10
1.02271e-09
0.00190372
0.00227454
6.40755e-08
3.85848e-09
0.00183541
1.67896e-08
6.74206e-10
0.00356042
9.60834e-09
0.00283084
2.97847e-07
1.79822e-08
1.90076e-08
1.04138e-08
9.42954e-09
4.34525e-09
3.04803e-05
7.45748e-07
2.36152e-09
4.27819e-08
5.64607e-08
5.76039e-09
0.00267553
9.08882e-09
1.21499e-08
0.00205989
2.61305e-08
3.68589e-08
1.67399e-10
0.00238869
2.83384e-08
1.34174e-07
3.58137e-09
3.70035e-08
4.01923e-09
0.00244156
5.8494e-09
7.09232e-09
0.000614779
1.12671e-08
7.32282e-09
0.00241575
6.55503e-08
3.34922e-10
3.14645e-08
5.92558e-09
0.00193981
4.55972e-07
6.28696e-08
3.31699e-09
4.20274e-07
1.41451e-07
9.43212e-09
1.38347e-09
1.03052e-09
3.50377e-08
1.05051e-08
8.43012e-10
7.19956e-09
6.85994e-09
1.05181e-08
0.00239661
7.18525e-07
1.5477e-08
2.17062e-09
1.00468e-09
0.00230486
2.04379e-08
0.00339925
9.43465e-07
0.00163926
6.75767e-10
0.00222921
0.00303671
7.38148e-09
9.69243e-09
9.33559e-08
0.00218077
0.00260734
3.20952e-07
8.2325e-09
2.4945e-07
1.05631e-09
2.21191e-07
8.50848e-09
9.41837e-08
1.66554e-08
1.4613e-09
3.43334e-09
1.09671e-09
6.4337e-09
9.41274e-09
4.00061e-09
5.06836e-09
1.40396e-08
9.01328e-08
3.4836e-11
3.36488e-09
7.85821e-10
5.98418e-09
1.36532e-09
1.77254e-07
0.00196421
0.00289108
4.10218e-09
0.00230924
1.46701e-08
2.83226e-09
4.94087e-09
1.64667e-06
1.80103e-07
7.17709e-08
6.31275e-10
1.04752e-08
2.06827e-09
8.38882e-09
1.63771e-09
1.37515e-08
1.41319e-07
0.00164236
2.47832e-09
2.25272e-08
0.00145477
0.00184928
0.00227138
0.00206376
0.00176717
4.46434e-08
3.969e-08
3.04237e-09
8.39103e-09
7.59453e-09
1.39485e-06
4.19452e-09
2.98988e-08
3.49778e-08
7.91181e-09
2.5787e-09
2.58478e-09
7.62625e-07
3.15505e-06
3.98271e-07
6.12414e-09
1.45857e-09
3.76181e-09
0.00294814
2.61694e-09
0.00192119
1.09684e-07
9.01769e-09
7.52283e-07
0.00105424
7.03081e-08
4.00853e-10
3.93833e-09
3.41514e-08
1.59055e-09
2.36649e-08
1.20311e-09
0.00114507
3.70504e-10
4.18318e-08
0.00284553
3.09043e-09
0.00137991
6.055e-08
0.00223745
9.76551e-08
0.00126168
3.67296e-10
0.00289518
0.00240259
2.75177e-08
4.34574e-09
0.0016265
1.85949e-08
0.00186961
1.68539e-08
8.03251e-09
5.13644e-10
1.66691e-08
2.04862e-08
1.50088e-08
6.49448e-07
0.00292327
0.00171381
1.2264e-06
3.55285e-09
3.46508e-07
0.00315739
0.00141948
0.00245321
0.0024318
5.2015e-09
6.07479e-08
2.7588e-08
1.24972e-08
0.00314791
5.58941e-09
0.0015379
0.00333321
5.14691e-09
3.36815e-09
0.00166415
0.00313839
2.97728e-08
7.15646e-10
0.00174279
9.27048e-08
2.48856e-09
4.90033e-07
9.60956e-08
0.000406173
7.19397e-08
5.70081e-08
2.51827e-07
2.74028e-07
9.72191e-08
3.88905e-09
4.71915e-09
1.24792e-08
2.59853e-09
1.7281e-08
8.89288e-09
2.39044e-10
1.9931e-09
0.00207013
0.00293864
2.56087e-10
2.47437e-08
6.66305e-09
3.24775e-09
4.81188e-07
1.94808e-08
2.46778e-09
0.00273871
0.00156121
0.00144864
0.00168439
4.8787e-08
0.00136271
2.66631e-07
0.00390934
5.96431e-10
0.00235412
2.72195e-08
3.59867e-08
1.55478e-07
5.70385e-10
0.00305695
1.8567e-07
0.00423683
5.9937e-09
1.26751e-09
1.02855e-08
8.96621e-09
0.0013922
0.00297241
1.4299e-10
2.94975e-09
2.5471e-08
0.00167424
4.0021e-09
0.0029263
3.50731e-07
1.7197e-09
5.78969e-09
0.0025021
3.52382e-08
0.00221653
8.41758e-08
0.00395601
0.0033067
7.93177e-08
2.1349e-09
0.00365642
9.05312e-09
8.50775e-07
0.000344637
1.60195e-08
1.38762e-07
2.37892e-08
8.56564e-09
0.00311014
5.22394e-09
7.32038e-08
3.46101e-10
7.25537e-08
7.20455e-09
4.74289e-09
1.58503e-08
1.06234e-08
1.79406e-08
0.00302993
2.16679e-08
2.50561e-08
4.86234e-09
1.40795e-08
9.49689e-09
9.05363e-09
9.77392e-09
0.00226532
8.14582e-09
0.00303313
0.0018945
4.85246e-09
0.000360669
2.86548e-09
3.441e-09
2.70478e-08
3.61046e-08
3.09744e-08
0.00158158
0.00209643
1.12566e-07
1.0562e-07
8.68368e-08
0.00318257
0.00110975
4.81508e-08
0.00216285
0.00453403
1.25097e-06
0.00259005
0.000410463
6.42451e-09
7.8323e-07
2.46355e-08
0.000563896
6.72347e-10
0.00260803
2.57384e-10
2.39709e-09
0.000636567
0.000341714
1.96518e-08
0.000460449
4.28234e-08
1.0908e-07
2.69548e-08
2.94058e-09
4.21381e-07
2.77958e-09
5.30293e-09
0.00254782
1.29511e-08
1.39026e-08
4.6905e-09
1.22003e-07
1.66428e-09
4.56403e-05
3.16916e-08
2.03389e-08
8.24233e-08
1.67071e-07
0.000297091
0.00227201
4.33122e-08
6.8298e-09
0.0024302
0.00234073
3.70398e-08
2.29989e-08
1.32275e-08
2.9828e-09
2.9498e-08
1.12828e-08
0.00200163
0.00447672
6.75022e-09
2.32081e-09
3.8424e-09
5.49788e-09
0.00254862
0.000394487
2.09847e-09
1.8702e-08
1.70118e-08
0.0021307
1.05279e-05
1.09123e-06
0.00201448
2.61069e-08
2.3612e-08
4.12716e-09
3.89265e-08
2.32985e-08
0.00220492
5.33726e-08
0.000310598
5.67764e-09
6.39832e-09
0.00328764
0.00266996
7.76767e-09
0.00314901
1.08016e-09
1.47363e-09
4.53129e-07
5.02084e-09
2.99429e-09
0.00187339
2.72431e-08
1.2391e-07
0.00385151
1.30637e-08
0.00155131
0.00311384
1.40286e-08
0.00330138
1.3814e-08
1.30528e-08
1.79714e-08
1.87113e-07
9.74593e-09
4.636e-08
5.91944e-09
2.44669e-08
4.78787e-07
1.98806e-08
0.00232359
6.43023e-09
0.00310664
7.19926e-10
1.13516e-08
6.03606e-09
0.00231048
8.04438e-09
0.00230791
0.0019237
0.00319646
1.60816e-08
0.00209745
1.44354e-07
2.12665e-08
3.24323e-09
7.74166e-09
1.29024e-08
7.62602e-08
1.47594e-07
2.94601e-07
3.6956e-09
0.00291826
3.53819e-08
1.20758e-09
9.3362e-10
4.57392e-09
6.99984e-10
0.00206017
3.43736e-08
0.00307457
2.80794e-08
0.000624968
2.94579e-09
3.34862e-09
0.00182053
0.00346545
7.04564e-08
3.99715e-09
0.00375571
1.45911e-08
1.06788e-09
3.32914e-09
1.34919e-08
5.7342e-10
1.33764e-08
1.79904e-09
1.4064e-08
3.94918e-09
6.01294e-08
2.7006e-08
0.00246199
5.71418e-07
1.018e-07
1.26218e-08
4.83164e-09
0.00216889
1.37421e-08
0.00304512
4.13054e-08
2.81769e-08
6.15467e-09
6.21314e-09
8.27468e-08
7.65928e-07
0.00135013
0.00125144
8.25734e-09
0.00380631
2.3414e-08
0.00286614
1.06023e-08
8.00617e-09
2.83178e-09
0.00270036
0.00132547
0.000427425
4.46577e-08
2.06013e-09
0.00133817
5.22168e-09
3.95705e-09
9.01916e-09
6.71874e-09
0.00245318
0.00209676
1.7563e-08
3.28336e-08
5.15836e-08
3.87044e-09
3.23983e-06
1.8079e-06
6.18929e-09
2.37341e-08
0.00164068
8.42813e-09
3.26568e-08
1.21117e-09
3.14137e-08
3.47957e-09
0.0023494
5.36736e-09
1.68734e-06
0.000526667