/*--------------------------------*- C++ -*----------------------------------*\
  =========                 |
  \\      /  F ield         | OpenFOAM: The Open Source CFD Toolbox
   \\    /   O peration     | Website:  https://openfoam.org
    \\  /    A nd           | Version:  10
     \\/     M anipulation  |
\*---------------------------------------------------------------------------*/
FoamFile
{
    format      ascii;
    class       surfaceScalarField;
    location    "2";
    object      phi;
}
// * * * * * * * * * * * * * * * * * * * * * * * * * * * * * * * * * * * * * //

dimensions      [0 3 -1 0 0 0 0];

internalField   nonuniform List<scalar> 
214403
(
-0.00407301
0.00312073
0.000173761
0.000778515
-0.00191183
-0.00653241
0.000492814
0.00795142
-0.00606332
1.49613e-05
-7.32263e-05
0.00612158
0.00535766
-0.00359028
-0.00898452
0.00721714
0.00706649
-0.00891377
0.00208175
-0.000234465
-0.00311274
0.00324299
-3.59148e-05
-9.43291e-05
-0.000494399
-0.000968453
-0.00534926
0.00681211
-0.00961228
0.0054818
-0.00143685
0.00556733
-0.013649
0.00958727
0.00976317
-0.00570146
0.00808149
0.00096885
-0.00911079
6.04558e-05
0.00299098
-0.0058887
0.00123258
0.00166513
-0.00585307
0.00180861
0.00304343
0.00100103
0.000278264
-0.00683814
0.00827432
-0.00171444
-0.00590554
0.00588842
1.71173e-05
0.00114706
0.00696828
-0.0089628
0.000847472
-0.00686598
0.00571346
0.00170785
-0.000555338
-0.0070226
0.0068345
0.000188106
0.00231675
-2.70207e-05
-0.000563619
-0.00172611
0.00894277
-0.00534068
-0.0119328
0.00833071
-4.56209e-05
-0.00187486
5.45629e-05
0.00186592
0.00385177
-0.0037462
-0.000105567
-0.00714122
-0.00246959
0.00245486
0.00715595
-0.00133573
0.00787613
-0.00632794
-0.000212462
0.0038364
0.000370939
0.00131436
-0.0055217
-0.00591987
-0.0028128
0.00764556
0.00108711
0.00556032
-0.00703696
4.49239e-05
0.00143172
0.00183466
-0.00156866
0.00600944
-0.00627543
0.00454936
0.00593093
-0.00715583
-0.00332446
0.00637231
-0.00398452
-0.000191192
-0.00219661
-0.00353904
0.00360919
-7.0142e-05
0.00141182
-0.00295304
0.00792407
-0.00638285
0.00805789
0.000388013
-0.00139422
-0.00705169
-0.00339371
-0.0034815
0.0035675
0.00330771
-0.000692493
-0.00391413
0.00346011
0.00114651
0.00255817
-0.00168715
-0.00554017
0.00466915
-0.000988091
0.00493688
-0.00178445
-0.00216435
0.0093715
-0.000242847
-0.00912866
-0.00399484
0.00785323
-0.00385839
0.000716713
-0.0086634
0.00504133
0.00290536
0.0013786
-0.000559167
0.00344145
-0.00426089
0.00330315
-3.09463e-05
-0.00327221
0.00586208
-0.000139048
0.00106707
-0.0067901
-0.0073978
0.000894469
0.00788193
0.000563084
0.000517517
0.00505636
-0.00613696
-0.00243202
-0.0158593
0.0154002
0.00289116
0.00345623
0.000631877
0.000776467
-0.00486457
0.00243277
0.0018676
-0.00598365
0.00168328
0.00759745
0.0045257
-0.00828675
0.000680541
0.00650898
-0.00132745
0.00110624
-0.00411999
-0.00243407
0.00544781
0.00188267
0.00288791
0.000854204
-0.00562478
0.00108207
-0.00081682
-0.00248123
0.00221599
0.00415617
-0.00751844
0.00524494
0.00691484
-0.00653483
-0.00220709
0.00182708
0.0064341
-0.00117168
-0.00492885
0.00667895
-0.000267124
-0.00148297
0.00504796
-0.00648773
9.19897e-05
0.00134779
-0.00480267
0.000324742
0.00766901
-0.00319108
-0.00902861
-0.00877044
0.00722131
0.0105777
-0.00468686
0.00470169
0.000919377
-0.000934215
0.000717809
-0.00596383
-0.00518149
-0.00010651
0.00269212
0.00259589
-0.00824118
0.00353027
0.00528411
-0.000573202
0.00919605
-0.0074047
0.000435072
-0.00222642
0.000419517
0.000164028
-0.00600039
0.00541685
0.000351086
-0.00179542
0.00881054
-0.0073662
-0.0209337
0.00240001
0.00229302
0.0162407
-0.00179873
0.00539617
-0.00171614
-0.00188129
0.00293322
-0.00151963
-0.00625531
0.00484172
0.000715022
0.00462803
-0.00585138
0.000508329
-7.91902e-05
0.00504611
0.00171877
-0.00668569
-0.00104718
-0.000172394
-0.00224204
0.00346162
-0.00542655
0.00593358
-0.000223911
-0.000283119
0.0002303
-0.00553826
-0.00383924
0.00340649
0.00103175
-0.000599
-0.00966931
-0.000613946
0.0047033
0.00557995
-0.00296631
-0.00126012
0.00251538
0.00171104
0.00431547
-0.0144836
0.00194761
0.00822056
-0.00228145
0.00458364
-0.00250579
0.00020361
0.00324073
-0.00252766
0.00032148
-0.00103456
0.000105236
-0.00625216
0.00614693
2.81694e-05
0.00497229
-0.00500046
0.00439879
-0.000863393
0.000573324
-0.00410872
-0.00274548
0.00391918
0.0012987
-0.0024724
-0.00190893
0.00823379
-0.00199284
-0.00433202
0.00401047
-0.00691935
-0.000222645
0.00313153
0.00434434
0.00456555
-0.00890989
0.00633728
-0.00713888
0.00184434
-0.00104274
0.000607622
-0.00114459
0.0083616
-0.00782463
0.000266268
-0.00134269
0.00599241
-0.00491599
0.00151245
0.012594
0.00356624
-0.0176727
-0.0107341
0.00943423
0.00611989
-0.00482005
0.00051796
0.00405126
-0.00541633
0.000847108
0.00521353
0.00579741
-0.00187521
-0.00913573
0.00933281
-0.00571313
-0.000139676
-0.00348
0.000425363
-0.00125248
-0.00393867
0.00476579
-0.00397865
1.87263e-05
0.00395993
0.00576012
0.000187394
0.000389773
0.00726741
0.000617422
-0.0110918
0.00320696
-0.00592713
0.0012512
0.00104175
0.00363417
-0.00376338
0.00093487
0.000462198
0.00236632
0.000847555
0.00064873
-0.00746466
0.00596838
-0.00154371
-0.00896999
0.00572051
0.0047932
0.00357968
-0.00424986
-0.00277221
0.00344238
0.00581943
-1.97913e-05
-0.00582325
2.36031e-05
0.00444933
-0.00628097
-0.00215089
0.00398253
0.0115148
-0.00349136
-0.00179499
-0.0062285
0.00643013
-1.14191e-05
-0.00589786
-0.000520849
-0.00355118
0.00416629
0.00861077
-0.00922589
0.00722671
-0.00249904
-0.00696852
0.00224084
0.00136725
-0.00200149
0.00867437
-0.00804013
-0.0092263
0.00839116
0.00798127
-0.00714612
0.000462208
-0.0077332
0.00297373
0.00429727
0.00978137
-0.000475763
-0.000260201
-0.00904541
0.00667261
-0.00129819
0.00129436
-0.00666878
-0.00828895
-0.00757744
0.00895772
0.00690868
-0.00146809
0.00421268
0.00114645
-0.00389104
-0.00317105
0.000172988
0.00614612
-0.00314805
-0.000690922
0.00805527
-0.00745506
9.07155e-05
-0.00718251
0.00666714
0.00130093
-0.000785562
-0.000236918
-0.00417932
0.00997655
0.00127773
-0.00423808
-0.00311787
0.00607823
-0.00335637
4.30083e-05
0.00331336
0.00103073
0.00468515
-0.00433285
-0.00138303
0.00760749
-0.0043946
-0.00118168
-0.00203121
8.95478e-05
-0.00234405
0.00225451
-0.00423452
-0.0011495
0.0016046
0.00377941
0.000481487
0.00267065
-0.005951
0.00279887
0.00954944
-0.000863759
0.00372338
-0.0124091
0.000654507
-0.000893358
-0.0112281
0.0114669
0.000695714
-0.00321804
-0.00421124
0.00673357
0.000253255
0.00580792
-0.000301056
2.35029e-05
-0.00352696
0.00350346
0.00707093
-0.00263887
-0.00315433
-0.00427485
0.00356344
-0.00352312
0.00761717
-0.00635669
-0.000781467
-0.000479015
0.000779691
-0.00367464
0.00160916
0.00128579
-0.00624765
-0.00190944
0.00128403
0.00687305
0.00525804
-0.008453
0.00562686
-0.0024319
-0.000177082
0.007873
-0.00787306
0.000177141
2.35046e-05
0.00834858
-0.00831005
-6.20327e-05
-0.00966885
0.00775847
-0.00623526
0.00814563
0.00812244
-0.00791526
-0.000207184
-0.00790829
0.0105502
-0.00187216
-0.000769782
-0.00679454
0.0016656
-0.000533828
0.00566277
-0.0111826
0.000839027
0.00720358
0.00314004
0.00196607
-0.00268628
0.0014999
-0.00283155
0.00321293
0.00517616
-0.00555754
-0.0029396
-0.00132271
0.00168217
0.00258013
-0.00398335
0.0026047
-0.00497395
0.0063526
0.00121159
0.000110591
-0.00923047
-0.00409304
0.004083
1.00386e-05
0.00481606
-0.00464559
-0.000170471
-0.00659312
-0.00042936
-0.00174494
0.00160777
-0.00872235
0.010107
-0.0029924
0.00381761
0.00650116
-0.00829673
-0.00202204
0.00725985
-0.00791194
0.000239278
0.000412811
0.00415195
0.0010757
-0.00430255
-0.000925102
-0.00631412
-0.000327087
0.00824898
0.00371443
-0.000266791
-0.00452755
0.00107991
0.00418499
-0.00357285
0.00411741
-0.00472954
-0.00687818
0.0013073
0.00938849
-0.00245785
-0.00326038
0.0110026
-0.00528441
-0.00341891
-0.00377522
0.000880006
0.000989211
0.0027368
-0.00714491
-0.00505339
-0.000406313
0.00811819
-0.00265848
0.000748341
0.00129014
0.00426936
-0.00630784
-0.00227264
0.00555756
-0.00328493
0.00176127
-0.00876701
0.00323052
0.00518766
0.00366004
-0.00785849
-0.00728167
9.38347e-05
0.00906405
-0.00187621
0.001275
0.00110068
0.0034375
-0.00581317
0.0058751
-0.00587723
2.12443e-06
0.00184393
-0.00069871
0.00618177
-0.00732699
0.00643813
-0.00202772
0.0030855
-0.00749591
0.0123635
-0.00399158
0.00921257
-0.0175845
0.00195066
0.00361782
-0.00150205
-0.00406643
-0.0055973
0.00229966
0.00293493
0.000362717
0.00401577
-0.00302321
-8.9185e-05
-0.000903371
-0.00251399
-0.0031513
0.00922207
-0.00355679
-0.00449941
0.00584889
0.00232261
-0.00367209
0.00678699
-0.000367902
-0.0022341
-0.0100312
0.00661755
-0.000569716
-0.00954885
0.00884932
0.00409441
-0.00339488
0.00611733
-0.00689741
-0.000977773
0.00175785
0.0034426
-0.00626309
-0.00324963
-0.00371317
-0.00344372
0.0019264
0.00523049
-0.0052793
0.0016614
0.00524275
-0.00162486
0.00634105
-0.00602884
-0.00418393
0.00387172
3.95319e-05
-5.26603e-05
-0.00578034
0.00579347
0.000165167
-0.0052666
-0.000181337
0.00528277
-0.00145369
-0.00864302
0.00136549
-0.0050123
0.00450385
-0.000857039
-0.00336274
-0.00141406
-0.000502493
-4.0714e-05
0.00807196
5.02377e-05
-0.0197617
0.0138871
0.0100964
-0.00422179
-0.00596762
0.000403748
0.000207453
0.00535642
-0.00118523
0.0186446
-0.0219642
0.00450487
0.000950432
0.00147685
-0.00330605
0.000878775
-0.0128038
0.0068936
0.000925235
0.00498495
-0.000140357
-0.00853089
-0.00125864
0.00992988
-0.00337909
0.0126075
-0.00876184
-0.000466573
0.00569893
0.00827429
-0.00766256
-0.00631066
-0.00663957
0.0063304
0.00784247
-0.0075333
0.00268736
0.00374828
-0.00467385
-0.00176179
0.0026574
-0.00176899
-0.00425115
-0.0131522
-0.000494157
0.0106988
0.00294755
0.00401339
0.00063271
-0.00234644
0.00405369
0.00546892
-0.00503057
-0.00449205
-0.00664213
0.00148445
0.00644054
-0.00128286
0.000779553
0.00222268
0.007548
-0.0079336
0.00779219
0.000752208
-0.0006108
0.00491337
0.00387044
-0.00347956
-0.000133786
-0.000984646
0.00459799
-0.0051906
-0.0010816
0.00288906
-0.00982058
0.00414617
0.00278536
0.000266137
0.00528306
-0.00583387
0.000284671
-0.00202822
0.000394755
-0.00188309
0.00351656
0.00836695
-0.005986
0.000276456
-0.00474707
-0.00373372
0.00502252
0.00345827
0.0172302
-0.01855
0.00614059
-0.00482077
-0.00349078
0.00433724
0.0017439
-0.00259036
-0.00847228
0.00365002
0.007361
-0.00253873
-0.00334501
0.00486079
0.00623036
-0.00774614
0.00936119
-0.00356608
-0.00622137
0.000426265
0.00016376
-0.00226781
0.00549866
-0.00339462
-0.000953009
0.000929405
-0.00725807
0.00677098
0.00216693
-0.00724101
-0.0016969
0.00859962
-0.00706155
-0.00186515
0.00175803
0.00258759
-0.00615014
0.00180453
-0.00362214
-0.00655453
0.00587741
0.00429927
-0.00108384
-0.00282695
-0.000836276
0.00344462
-0.00365532
0.00787909
-0.00766839
0.000833205
-0.00941
0.00857679
0.00324129
-0.004256
0.00277274
0.00183685
0.00107367
0.00149913
-0.00440965
-0.000186453
-0.00809422
0.00828068
-0.00452753
0.00060277
-0.00147197
0.00539673
-0.000595775
0.00652585
-0.00591353
-1.65473e-05
-0.00423358
-0.00228361
0.00247269
0.00404451
-0.0015499
-0.00376753
-0.00344983
-0.00507427
0.00423564
0.00428846
0.000198455
-0.00519818
0.00872904
-0.00358523
-0.00046696
-0.00467685
0.00502148
-0.00054791
-0.003646
-0.000827573
-0.000709612
0.00654276
-0.00819865
0.0023655
0.00421079
0.000162765
0.00204439
-0.00641794
-0.000159437
-0.00346565
0.00167663
0.00194846
-0.00243299
0.00315538
0.00600588
-0.00672827
-0.0083931
-0.00220662
-0.00236907
0.00781698
-0.0078899
0.000205879
0.00245888
0.00522515
0.000726059
-0.00265366
-0.0046195
0.0065471
-0.00347511
-0.00678871
0.00171332
0.00855049
-0.00305682
-0.00338768
0.00351874
0.00292575
-0.00786207
0.00756662
0.00799537
-0.00769992
-0.00110468
-0.00193256
-0.00585934
0.00889658
-0.00801059
0.000782236
0.00815173
-0.000923372
-0.0014111
0.00369695
-0.00228585
-0.0032458
0.00600512
-0.00452059
0.00176127
-0.000119068
0.0103987
-0.00390248
-0.00637716
-0.00381134
-0.00188763
0.00764326
-0.00194428
0.00118406
-0.00311972
0.00705228
-0.00511662
0.000339589
0.00479922
-0.000840609
8.90369e-06
-0.00757792
0.00757227
-3.26054e-06
0.00898824
-0.00160006
-0.0131414
0.00575317
-0.00830491
-0.000809607
0.0103675
-0.00125301
-0.00449613
0.00679678
0.000554577
-0.00285523
0.00434656
-0.00434066
-5.89297e-06
-0.00459488
0.000490534
-0.00389424
0.00799859
-0.0067622
0.00932031
-0.0018726
-0.000685511
0.0041746
-0.00172928
-0.00505231
0.00260699
-0.00783176
0.00787269
-4.09284e-05
0.00669361
-0.00969642
0.000754927
0.00224788
-0.00733251
-0.00202697
0.0125997
-0.00324022
0.00561815
-0.000263054
-0.00116439
-0.00419071
-0.00315817
-0.0053505
0.0119533
-0.000550141
-0.00783927
0.00473409
0.0123554
-0.0137838
-0.00130673
0.00273509
0.0034424
0.0016447
-0.0038121
-0.00406297
0.00417932
-0.000116348
-0.00139509
0.00782971
-0.000512493
-0.00592213
-0.00167924
0.0019996
0.00678934
-0.0071097
0.00464023
0.0109557
-0.0063363
-0.00925959
0.00803439
-0.00962702
0.00306241
-0.00146978
0.0069385
5.47674e-05
-0.00699327
9.13552e-05
0.00672199
-0.00681334
0.00775511
-0.00936255
0.00830106
8.51063e-05
-5.34592e-05
0.00671433
-0.00674598
9.55705e-05
0.0111485
-0.0111164
-0.000127737
-0.000906569
-0.00271733
-0.00558598
0.00920988
-0.00348561
-0.00203622
0.000677695
0.00650434
-0.0112789
0.00409685
-0.00543026
-0.00142279
0.00581955
0.00103349
-0.00690447
0.00759085
-0.00202832
0.00134194
0.00101356
0.00526501
-0.0017917
-0.00448687
-0.00246802
0.000570376
0.00428263
-0.00238499
-2.26352e-06
0.00200425
-0.00256159
0.000559604
-0.00276774
0.00677046
-0.00392718
-7.55395e-05
0.00193922
-0.00618889
-0.00358209
3.89852e-05
-0.00583603
0.00579705
-0.00227993
-0.0021833
0.00101068
0.00345255
0.00328801
-0.00189659
-0.00139142
0.00815255
-0.00813651
-0.00162462
0.00160857
-0.000779723
-0.00504531
0.00467039
0.00115465
-2.31238e-05
2.77508e-05
0.00459309
-0.00459771
0.0022897
-0.00189132
-0.00728859
0.0068902
0.00530902
-0.000146539
-0.00516248
-0.0077284
-0.00502239
0.00745664
0.00529415
0.00437242
0.00680059
-0.0117232
0.00432352
-0.00153554
0.00243098
-0.00521895
-0.00178499
0.00176723
-0.00988562
0.00990339
0.0025037
-0.00497099
-0.00482219
0.00728948
-0.000529635
-0.00118157
0.00550913
-0.00379793
0.00383218
-0.00470604
0.00170684
-0.000832988
0.00218444
-0.00362708
-0.00350269
0.00494534
-0.00677134
0.00761299
-0.00199221
0.00115055
0.00793237
0.0101897
-0.0112306
-0.00689143
-0.00622579
0.00618997
3.582e-05
-0.000738616
0.00712707
-0.00887786
0.0024894
0.000231893
-0.000377022
-0.00712062
0.00726575
0.00664742
0.000278767
-0.00764764
0.000721453
-0.00296597
-0.00500354
0.00629461
0.0016749
-0.00714643
0.0101203
-0.00358557
0.000611722
-0.00283005
-0.00348502
0.00207698
-0.000398191
-8.69707e-05
-0.00480442
0.00528959
-0.0155222
9.93147e-05
0.00132551
0.0140974
0.00063156
-0.00404288
-0.00209382
0.00550514
0.00988218
-0.000823931
-0.00321028
-0.00584798
-0.0017436
-0.0038291
0.000713371
0.00485934
0.00290789
-5.16315e-06
-0.00290272
0.00474459
0.00244698
-0.00158883
-0.00560275
0.00362701
-0.00286704
0.00709228
-0.00785224
0.000211634
0.00724504
-0.00237653
-0.00508015
0.00177304
0.00257463
0.00553451
-0.00354898
0.000262028
0.00328696
-0.00465267
0.000673114
0.00122804
0.000772958
-0.00638217
0.00438117
-0.00599197
0.00879504
0.00265981
0.00910517
-0.00191514
-0.00984984
-0.0058668
0.00571537
-0.00909477
0.00924621
-0.00086436
-0.00435669
0.00152152
0.00369953
-0.00487315
0.00921749
0.00280217
-0.00325199
0.000743887
-0.000294069
-0.00292976
-0.00929542
0.00287582
0.00934936
0.00617973
-0.00614887
-9.67833e-05
6.59258e-05
0.00510763
-0.00600001
0.00126672
-0.000374338
0.00124585
0.00495485
-0.00884711
0.00264641
2.6003e-05
0.00435139
-0.0043774
0.00278014
-0.00710334
0.00556905
-0.00278358
0.00746992
0.00632403
-0.0110104
0.00203744
-0.00215805
-0.00990852
0.0100291
-0.00294093
0.00488015
-0.00991451
0.00797529
-0.00713991
0.00563383
0.00735428
-0.0058482
-0.0044375
0.00607342
-0.00392332
0.0022874
-0.000970573
0.00424247
0.000688992
-0.00396089
0.00206038
-0.00301112
0.00310493
-0.00215419
0.00406158
0.00151749
0.00133708
-0.00691615
0.0108614
-0.00735216
-0.000479596
-0.00302966
4.53713e-07
-0.00528791
0.00528745
0.00332563
-0.00489304
-0.0150131
0.0165805
-0.000708883
-0.00719192
-0.00216229
0.0100631
-0.0004467
-0.00336631
0.00381301
0.00101861
0.00482174
-0.000814216
-0.00502614
-0.00135707
-0.00490847
0.00395495
0.00231059
0.00395509
-0.00331614
-0.00582044
0.00947933
-0.00740808
0.0022261
0.00236002
-0.00458613
0.0074767
4.41162e-05
-0.000861738
-0.00665908
-0.00146098
-0.0024887
0.00394968
0.00260899
0.00173729
0.0145369
-0.017467
-0.00614077
0.00907094
0.00223403
0.00478502
-0.00365369
-0.00336536
-0.00510904
0.00984603
0.0064722
-0.0112092
0.00607538
0.0021054
-0.000791888
-0.0073889
0.00954793
-0.00637646
0.00410334
-0.00727481
-0.00572926
0.00262249
-0.007339
0.0104458
-0.00883749
0.0157196
-0.00612779
-0.000754341
-0.000266198
-0.00369659
-0.00509423
0.00905701
0.00715329
0.00296599
-0.00833463
-0.00178465
0.00403417
-0.010695
0.00667439
-1.3594e-05
-0.00895115
-0.000347865
0.00583841
0.00346061
-0.00185712
0.00479574
0.00206233
-0.00500094
-0.00112238
0.0045044
0.00364442
-0.00702644
-0.00970028
0.00497066
-0.000429054
0.00515867
0.000828088
-0.00251472
0.00501949
-0.00333286
0.00410169
-0.00205833
0.00146396
-0.00350732
0.0039794
0.000788925
0.000400429
-0.00516876
-0.00562304
0.00604096
0.00223601
-0.00265393
-0.00136865
0.00717652
0.000134907
-0.00594277
0.00579379
-0.00339387
-0.00221058
-0.00018934
0.00497103
4.07372e-05
-0.00501176
0.0036367
0.00281539
-0.000640242
-0.00581185
0.00169183
0.00440736
0.00374353
-0.00984273
7.53418e-05
-0.00823451
0.00815917
-0.00432106
0.0165385
-0.0024311
-0.00978634
-8.39685e-05
0.00593398
-0.00585001
-0.000404071
-0.00437986
0.000786731
0.0039972
-0.00801401
0.00410294
0.00313073
0.000780337
0.0016551
0.00126808
-0.0091749
0.00625172
0.00473928
0.00747797
-0.00279079
-0.00942645
0.00714552
-0.00242024
-0.00684333
0.00211804
-0.00902579
0.00522942
0.0141397
-0.0103433
-2.09806e-05
0.00355857
-0.00356088
2.32892e-05
-0.00367077
0.00363658
3.41964e-05
-0.00908275
0.000127855
0.00384586
0.00103053
0.00216673
0.0059945
-0.00919175
0.00470777
-0.00561848
0.00363305
-0.00272234
-0.00471522
0.00411906
-0.000148267
0.00074443
-0.000944107
-0.00772417
0.00982848
-0.0011602
-0.00347751
0.00166873
0.00550538
-0.00369661
0.00579721
-0.00223585
0.000838961
-0.00440032
-0.00383943
-0.000665563
0.00448943
1.5564e-05
-0.000687387
-3.25563e-05
0.00653284
-0.00581289
0.000757307
-0.000632596
0.00610563
-0.00623034
-0.00571279
0.00800517
-0.00844308
0.00615071
4.55683e-06
-0.00707555
0.00707099
-0.00255377
0.000229053
0.00653956
-0.00421485
-0.00486247
0.00568925
-0.0077627
0.00693591
-0.00500039
0.000383008
0.00149951
-0.00230014
0.00631739
0.000351256
-0.00436851
-0.00167755
0.000234589
-0.00283189
-0.00246717
-0.00812036
0.00813814
0.0024494
-0.0036717
-0.000422118
-0.000944958
0.00503878
-0.0121908
0.00409323
0.00119627
0.00690127
-0.00389789
0.00902443
-0.00450825
-0.000618291
0.00269336
0.00107597
-0.00544688
0.00529225
0.00534356
-0.0106358
0.000776721
0.0118123
-0.00274255
-0.00984643
-0.000152
-0.000219368
-0.00536462
0.00573598
-0.00564512
0.00923773
-0.0037469
0.000154293
0.00521718
-0.00325395
-0.00471211
0.00274888
0.00138253
-0.000185336
0.00169235
0.00836435
0.00229919
-0.0120242
0.00136067
-0.00622277
-0.000720663
0.00199198
0.00495146
0.0021272
-0.00239282
-0.0032194
0.00965115
-0.00652484
0.0051535
-0.00827981
-0.00109699
0.00629292
-0.0109055
0.00570953
0.00377645
-0.00479692
-0.000482645
0.00150311
-0.00422508
-0.0014739
-0.00014064
0.00583962
-0.00313874
-0.0029387
0.00607744
0.000746818
-0.00830758
0.00735853
0.00020223
0.00320125
-0.00311803
-0.00322196
-0.00568837
0.00716512
-0.00134231
-0.000134448
0.00762007
0.00208895
-0.00818323
-0.00152578
-0.00302632
-0.00450224
-0.000540917
0.00806948
0.00500777
-0.00152673
0.00580955
-0.00929058
-0.00545995
-0.000252846
-0.00634613
0.00340743
0.000826086
-0.00717333
0.00229316
0.00405409
0.00214905
-0.00783016
0.00427983
0.00140128
0.00125968
0.00027525
-0.00628821
0.00475327
0.000870266
0.00369299
-0.000256125
0.00656001
-0.00129626
-0.00500762
-0.00256525
-0.000277091
-0.00239593
0.00523827
-0.00152447
-0.00205305
0.00392446
-0.000346943
-0.00581822
-0.000101652
-0.00983467
0.00354564
0.00516664
0.0141832
-0.000160629
0.00194836
-0.0159709
-0.00672282
0.0102283
0.00214914
-0.00565467
-0.00181769
0.000955536
0.00608094
-0.00521878
0.0007348
0.00208098
-0.00161057
-0.00120521
-0.0107207
-0.00222948
0.00925898
0.0036912
0.000240248
0.00465056
-0.00093572
0.000168407
0.00229315
-0.00722023
0.00475868
-0.00436682
-1.561e-05
0.00161248
0.00276995
-0.00623068
0.00770091
-0.00122999
0.00351075
-0.00315904
-0.000351708
-0.0052329
0.000630186
-0.0039916
0.00859431
-0.00234166
0.00352703
-0.00272147
0.0015361
-0.00505229
0.00569108
-0.0023504
0.00171161
0.00220986
-0.00037319
-0.00512183
0.00328516
-0.00225995
0.0141663
-0.0190528
-0.00197066
-0.0013757
0.00134672
0.00199964
0.00659646
-0.0102928
-0.000459446
0.00415576
-0.00272275
0.00203119
0.00350447
-0.00281292
-0.00083035
0.00432023
-0.00118646
-0.00230343
-0.00484481
0.00107212
0.0011375
0.0026352
-0.00281046
0.00023988
0.00257058
0.00623581
-0.00296615
-0.0031682
-0.000101465
0.000481183
0.00323748
-0.0049199
0.00120123
-0.00333614
-0.00403559
0.0041185
0.00325323
-0.00194718
0.00493743
-0.00417058
0.00118033
0.00161346
-0.00305114
0.00210134
-0.000663662
0.00603357
0.00011388
-0.00614745
0.00501548
-0.00620555
0.0030811
-0.00189102
-0.00802479
-0.000191936
0.00821672
0.00324566
-0.00269613
0.000633743
-0.00118327
-0.00021407
0.00584407
-0.00642777
0.000797772
-0.00281174
0.00352077
0.00090443
-0.00325227
0.00694523
0.00642732
-0.00533469
0.0052345
0.000100186
2.13344e-05
-0.00837254
0.00835121
0.0114119
0.00135879
-0.00238732
-0.0103834
0.00242013
-0.0093727
-0.00114989
0.00810246
0.0017846
0.00212044
0.0012344
-0.00513945
-0.00317415
-0.00315648
1.9185e-05
0.00631144
-0.0015315
0.00208662
-0.00372927
-0.00695236
0.00127103
0.0091206
-0.00343927
-0.01384
0.0101336
0.00446502
-0.00075867
0.0060036
-1.97059e-05
-0.0059839
-0.00358679
-0.00483688
0.00312468
0.00529899
-0.00345454
-0.00498129
0.00148347
-0.00501331
0.00272524
0.00315833
0.00202064
-0.00267627
-0.00482793
0.00548355
-0.00340655
-1.19884e-06
0.00340775
-0.00793934
0.00325252
0.00326711
0.00141972
0.00201501
-0.00537944
-0.00164888
0.00679013
-0.00216631
-0.000156861
-0.00446696
-0.00459336
0.00765316
0.00441485
-0.00747464
-0.00141874
-0.0029572
0.00115206
0.00322388
-0.00193351
-0.00155502
0.00348854
-0.00339829
-0.00716062
-0.00328108
0.00165257
2.24486e-05
0.00332676
-0.00500178
0.00647849
-0.00468192
-0.00680943
0.00501286
-0.00242485
0.000876809
0.00485025
-0.00330222
0.00456933
-0.00321927
-0.000448607
-0.000901447
-0.00523576
0.000860401
0.00408833
0.000287029
-0.00323132
0.00741446
-0.00809081
0.00316002
0.000230621
0.00470017
0.00780597
-0.00621402
-0.00490517
0.00331322
-0.0059913
0.00130425
0.0111655
-0.00585431
-0.00387649
0.00630751
0.00342329
-0.000682716
0.00610437
-0.00231975
-0.00310191
0.000374971
-0.00409287
-0.00267325
0.00639116
0.00695615
-0.00459015
-0.000281328
-0.00208467
0.00214023
0.00160623
-0.00527796
-0.00146593
0.00165956
0.00407853
-0.00427217
-0.00123299
0.00632237
-0.00780998
0.0027206
-0.00395595
0.000956585
0.000955876
0.00204349
-0.0086183
0.00867339
-5.50849e-05
0.00684885
-0.00678144
-6.74172e-05
0.00249826
-0.00953087
-0.00367785
0.0107105
0.00202939
0.00384308
0.000917664
-9.10646e-05
0.00339191
-0.00330085
0.00597218
0.00529226
-0.0112644
-0.00605628
0.00369724
0.00261356
-0.000254523
-0.00339775
0.00112007
0.00276224
-0.00048456
-0.0101916
0.00476481
0.0055905
-0.000163741
-0.00328404
-0.00366771
0.0035452
0.00583144
-0.000992432
-0.00365305
-0.00118595
-0.00557352
0.00603101
-0.00368882
0.000970319
-0.00630071
-0.000299677
0.00563007
-1.26074e-05
-0.00320863
0.00322124
0.0150249
0.000104795
0.00164796
-0.0167777
-0.000586472
-0.00117706
-0.00858092
0.0103445
0.00265147
-0.00359088
-0.00166723
0.00260664
0.00104987
0.00797773
-0.00323571
-0.00579189
0.00853321
-0.00849804
5.51075e-05
-9.02789e-05
-0.00482174
-0.00434846
0.00680188
0.00236832
0.00279299
0.0020635
-0.00549869
0.00064219
2.72963e-05
0.00523939
-0.00535051
8.38212e-05
-0.00701527
0.00227386
0.0056808
-0.000939388
0.00549377
0.00331815
-0.00555578
-0.00325613
0.000115101
-0.00490955
0.00237983
-0.00124864
0.00740202
-0.00396678
-0.000515653
-0.000617941
0.00510037
-0.00678176
0.000270349
0.00651141
0.00975691
0.00423483
-0.00314358
-0.0108482
-0.00638043
0.000127124
0.00636841
-0.000579499
-0.00150039
-0.00382601
0.0059059
-0.000720061
-0.000784595
-0.0020752
0.00357986
0.00164977
-0.00836916
0.00632812
0.000391268
0.00579297
-0.000847541
-0.00565886
0.000713435
-0.00629454
0.00130055
0.000495499
0.00449849
-0.00238402
0.00159262
-0.00335227
0.00414367
0.00132883
0.000938874
-0.00792219
0.00565448
0.000234134
-0.0056225
-0.000315191
0.00570355
0.005332
0.000764071
-0.000165463
-0.00593061
-0.00638625
0.00147397
0.00575984
-0.00460619
-0.00609496
0.0107012
0.00903962
-0.0045897
0.00195885
-0.00640876
0.00071433
0.00501122
-0.00307409
-0.00735095
0.00137843
0.00258674
0.00338578
0.00907664
-0.00935109
0.000274453
-0.00559471
-0.00190014
0.003919
0.00357585
-0.00773705
-0.00599566
0.00403588
0.00969683
0.00726492
-0.00758672
-0.000931542
0.00125335
-0.00107024
0.00354371
-0.00279646
0.000322989
-0.00910943
0.00298673
0.00208595
0.00403675
-0.0136233
0.0168218
0.00284339
-0.00604187
0.00612306
-0.0132354
-0.000668327
0.00778063
-0.00546456
0.00695229
-0.0128195
0.0113318
-0.00563762
0.0123678
0.00123431
-0.00796449
0.000479625
0.00578813
-0.00140476
-0.00486299
0.00876925
-0.00661375
-0.000171584
-0.00198391
-0.00155486
-0.00149217
0.00228481
0.000762226
-0.00420175
-0.00873466
0.00752171
0.0054147
-0.00591891
0.0078711
0.00681706
0.0050444
-0.00370692
-0.00462456
0.00328708
0.00178597
-0.00231445
-0.00101948
0.00154795
0.0039492
-0.00391484
-0.0051955
0.00516114
-0.00160458
0.00459719
-0.000332803
-0.00265981
-0.00623191
-0.00107883
0.00779037
-0.00480655
-0.00118627
0.00594377
4.90519e-05
0.00204963
-0.00457405
0.00252443
0.00159129
-0.00207991
0.00774836
-0.00725973
0.00657028
-0.00926121
0.0013713
0.00131963
0.00399376
-0.00431579
0.00032203
-0.00602254
0.000103625
0.00546772
-0.00210467
-0.00528204
0.00191898
0.00172257
0.00137125
0.00599816
-0.00909198
0.00392589
-0.00426663
0.000340734
-4.41736e-05
0.00474908
-0.00537028
0.000665371
-0.00664937
-0.000604384
0.00884504
-0.00289719
-0.000489898
0.000668383
0.0027187
0.00040065
-0.00330005
0.00243963
0.000459767
0.00544053
-0.00520487
-0.0013059
0.0006514
0.00929248
-0.00587008
-0.0040738
-0.00313372
0.00658804
-0.00345432
-0.0084118
0.00319913
-0.00192257
0.00713525
0.00657111
-0.00594343
-0.00973711
-0.00334398
-0.00398695
0.0137031
-0.00637217
-0.00958877
0.00606845
0.00872163
-0.00520131
-0.000120274
-0.00816392
0.00828419
0.0127588
7.9268e-06
-0.00736383
-0.00540288
0.00742988
-0.00478341
-0.000677233
-0.00196924
-0.00545815
0.00387689
-0.000955996
0.00253725
2.78367e-05
-0.00624675
0.00621892
-0.0040352
0.00415542
-0.000120216
-0.00296098
-0.00308608
-0.00787654
0.0139236
-0.00742034
0.00159641
-0.000806658
0.00663058
0.00180368
0.00293331
0.00813189
-0.00734934
-0.00604862
0.00526608
-0.0021072
-0.00439991
0.00483645
0.00167065
-0.00437019
-0.00220057
0.00657231
-1.55047e-06
0.00157552
-0.000894204
-0.00439302
0.0037117
0.00480051
0.000245833
-0.00614297
0.00109663
0.00145825
-0.00102792
0.00168372
-0.00203072
0.00201807
-0.00167107
0.0040386
0.00387747
-0.00400099
-0.00391508
0.0020717
0.00501825
-0.00516623
-0.00192372
0.00418344
0.00181293
-0.00330301
0.00510305
-0.00615583
0.00129861
-0.00704033
0.00492031
0.00268424
-0.000564211
0.00822406
-0.00272915
-0.00862863
-0.00219344
0.00582937
0.00293517
0.00561219
-0.0027097
-0.00488695
-0.00138768
-0.000765698
-0.00756478
0.00706336
0.000638097
-0.000136669
-0.000421285
0.0095071
-0.000972766
-0.00811305
-0.00624031
0.0012722
0.00277467
-0.00100133
-0.00630304
0.00177776
0.0055266
0.00566347
0.000773994
-2.14834e-05
-0.00641598
-0.00874758
6.23842e-06
-9.74063e-06
0.00875108
-0.00226278
0.00245902
-0.00407273
0.00387648
-0.0058643
0.0073453
-0.00071017
-0.000770825
0.00769938
-0.00715174
-0.00641195
-0.00567493
0.00510135
-0.00160715
0.00218073
0.00459774
-0.000206215
-0.0014445
-0.00294702
-0.00876988
0.00843851
0.00416019
-0.00382881
0.00426456
0.00162183
-0.000542153
-0.00534424
0.00146301
0.00373305
-0.00466907
-0.000526985
-0.00275954
0.00278104
-2.15093e-05
-0.00162021
-0.00413797
0.00415361
0.0072922
-0.00726192
-3.02826e-05
-0.00353643
-0.00283037
0.00277592
-0.000352451
-0.00433602
-0.000505598
0.00519406
-0.000495713
-0.00382223
0.00340036
0.000917583
0.00579204
-0.00658085
0.000788812
-0.0073657
0.00750209
0.00691758
-0.00705398
-0.00498147
0.00383672
-0.0025953
0.00374005
-0.00207575
0.000887756
0.0018769
-0.000688903
-0.000183354
0.00899375
-0.000115768
-0.00869463
-0.00473967
0.00229739
0.00233577
0.00271147
0.00344945
-0.00601384
-0.000147082
0.000258974
-0.00748288
-0.000294536
-0.00641365
0.00645817
-4.4518e-05
-0.0048723
0.00250039
-0.00536514
0.00148223
-0.00329268
0.000143214
0.00297146
0.00129067
0.00430209
8.33831e-05
-0.00367818
-0.000707293
0.00360857
-0.00899281
0.00720758
-0.00182333
0.00148564
-0.00205646
0.00761511
-0.00704429
0.00926085
0.00271017
-0.00142526
-0.0105458
-0.00237067
-0.0038794
-0.00125842
0.0075085
0.00279536
0.0115356
-0.0103836
-0.00394744
0.0013626
0.00863854
-0.00834819
-0.00165295
-0.00291028
0.000382743
0.00597077
-0.00344324
-0.0010328
0.00824741
-0.00441925
0.0062589
-0.00495236
-0.00191218
0.000605637
0.00197857
0.00513038
-0.00710894
0.00481371
0.00106497
-0.000637275
-0.0052414
-0.00442106
0.00353659
0.000352745
0.000531725
-0.000391195
-0.00636026
0.000375495
0.00637596
-0.004587
-0.000580096
-0.000176419
0.00534352
0.00265527
-0.00588161
6.12408e-05
0.00231122
0.00350915
5.0184e-05
0.0038106
-0.00386078
0.000487693
0.00671384
-0.0171138
0.00991229
0.00196837
-0.00496982
0.00471753
-0.00171609