/*--------------------------------*- C++ -*----------------------------------*\
  =========                 |
  \\      /  F ield         | OpenFOAM: The Open Source CFD Toolbox
   \\    /   O peration     | Website:  https://openfoam.org
    \\  /    A nd           | Version:  10
     \\/     M anipulation  |
\*---------------------------------------------------------------------------*/
FoamFile
{
    format      ascii;
    class       volScalarField;
    location    "24";
    object      p;
}
// * * * * * * * * * * * * * * * * * * * * * * * * * * * * * * * * * * * * * //

dimensions      [0 2 -2 0 0 0 0];

internalField   nonuniform List<scalar> 
111485
(
7.8718
0.0239955
0.0145377
7.87299
0.00763406
7.60904
0.00799668
0.0167489
0.00828962
-0.00535846
0.00751017
0.00445529
0.0117205
-0.00371187
0.00981123
0.0351313
0.025449
8.79398
0.0130604
7.87371
7.87394
7.61177
0.00588996
0.0241832
0.00232504
7.84771
0.0108622
0.0436584
0.0137651
7.87274
-0.0880111
0.0156382
7.87554
7.60674
8.57465
7.56668
-0.0634417
0.0516759
-0.119905
0.0186368
7.65377
-0.00496648
0.0193581
-0.0356363
-0.262586
7.88592
-0.0190095
0.019916
-0.0102124
7.91585
7.91399
7.36106
7.9225
-0.050654
7.9275
0.0230967
0.0132579
7.6149
-0.0989903
0.0160202
0.0172044
7.87231
0.0163979
-0.0766152
7.65746
0.0223267
5.10228
0.0149222
0.00259454
0.0135388
-0.144066
0.0285575
7.726
0.00301086
7.87782
0.0291842
7.61134
-0.0080635
7.61022
8.05619
-0.116837
-0.0374256
7.61081
7.87421
0.0208789
0.0067491
1.74232
-0.0570542
-0.108546
0.0371302
-0.216139
0.00839263
0.0199352
0.0456458
-0.00504914
7.87391
7.8723
-0.0404533
-0.742297
0.0636727
7.87221
0.00229837
7.59591
-0.0123262
0.00829984
7.91274
7.61375
0.0143958
0.00590918
-0.351846
0.0206112
0.0307401
0.0138826
0.00301948
7.84426
0.030131
7.86075
7.60713
0.00982456
7.87461
7.8467
6.66119
7.61165
7.61509
-0.00617174
8.95492
6.62371
0.0180324
7.87466
0.38631
-0.10775
-0.041902
7.87833
6.5077
6.79721
0.00808551
7.61115
0.0307991
0.00406753
0.0247444
-0.0419874
0.00633699
0.0142868
0.0158441
-0.0263637
0.0326494
7.61115
7.87341
7.62001
0.0145198
0.0115753
7.87159
-0.0763198
0.00924154
-0.668953
0.0162514
0.0120229
0.00682038
-0.526575
7.87927
7.87327
0.013346
0.00484686
-0.486188
-0.606069
0.0241989
-0.0685591
7.64216
-0.44844
-0.413974
7.61472
7.87293
0.00339514
7.61244
0.0287854
0.0172004
7.66715
7.70416
7.86348
7.8113
7.67518
7.87233
0.021266
0.0165523
0.0234245
0.0700776
-0.00182676
0.0264019
-0.053346
7.87296
0.0139702
7.69924
7.86058
0.0343649
-0.0117996
-0.052032
0.0292925
0.0156774
7.87867
0.0202809
0.0155445
5.28521
-0.026383
0.0243523
7.86883
0.0301925
-0.0129029
7.69807
-0.0582841
-0.0179181
0.0108948
0.0128995
7.66793
7.8718
0.0267103
4.95416
-0.0414237
7.61214
0.0292318
0.0321415
-0.00732948
7.87093
0.0180158
-0.0678474
5.98676
7.61216
7.61482
-0.121667
-0.595175
7.72541
7.29572
0.0302812
0.0225202
-0.0844193
7.72357
7.80626
-0.074973
7.87552
0.00490171
0.027671
0.028021
0.0156098
0.0271718
7.61602
-0.114988
0.0155501
7.61882
7.61097
-0.0559595
0.029757
7.78344
0.0298221
0.0286014
7.87359
6.35173
-0.0311414
7.88791
8.02468
7.18778
7.8737
0.0242683
0.0179347
-0.0107567
7.87525
0.0274775
7.87282
7.87101
7.87829
-0.0825418
-0.0146061
0.0233847
0.0142456
-0.0019864
0.0169849
0.0144303
-0.0852914
0.00958261
0.0202956
7.57121
7.87331
-0.0876942
0.0187206
-0.0976078
0.0249394
7.87416
0.0237112
0.0102819
0.017318
0.0139191
-0.113775
0.0124127
0.0156864
-0.0283624
7.61143
-0.0164417
7.6125
8.73912
8.09204
-0.12572
-0.014166
0.00676376
7.86693
7.67564
0.0255562
0.0257404
7.8713
7.8696
7.93101
0.0168464
0.0293381
0.0180547
0.0136898
0.00939412
7.22512
7.61799
7.87469
0.0291588
3.24351
-0.00732157
-0.117921
-0.0919437
7.61168
7.8715
7.87225
6.79105
0.0222356
0.0156436
7.60385
0.0252333
7.77978
7.86358
-0.0387411
0.0227556
-0.000475572
0.0252827
7.98525
6.75511
7.6071
0.0226315
0.0195627
-0.0886282
7.64999
0.443085
-0.156011
0.0151543
0.027191
1.27046
0.00825208
7.60963
0.00302835
0.0283303
-0.105702
-0.0448159
0.0046259
7.60939
7.87615
7.61233
7.87623
0.0234368
0.0221867
-0.0190497
0.0129267
7.6274
0.00867746
7.6148
7.87935
0.00929268
8.13942
6.95071
7.91515
7.56199
0.015066
7.61353
0.0171598
0.0137649
7.60999
0.00263337
0.024159
7.85379
0.0239705
0.00841004
0.0298755
-0.0529403
0.0405175
0.0292984
7.99337
7.87404
-0.0244903
7.63168
0.00154647
-0.0514532
7.6659
7.61418
0.0246766
0.0061179
-0.00121126
0.0203327
7.61102
-0.0849704
7.79834e-05
7.60712
-0.0385711
-0.014647
7.87082
7.87256
0.0246463
0.00266463
7.59207
7.86464
5.85726
7.87156
0.00730197
7.61236
7.87248
-0.00322325
-0.101031
-0.0126757
0.0157716
7.61013
6.80874
-0.011202
6.90693
-0.0339844
-0.0071139
0.00123381
5.27496
6.9814
-0.490398
-0.291306
7.87024
-0.0551462
0.00717597
7.86902
-0.515271
-0.00576961
6.94572
0.00134529
0.00382315
0.0383761
7.6113
0.268348
0.00054448
0.0487635
-0.140751
6.60012
-0.60759
7.87132
-0.047103
-0.169372
7.61536
-0.0097168
-0.0141331
6.41792
7.8742
7.47059
7.8729
0.00814361
0.0780112
0.00755221
0.00690085
-0.0608545
7.61274
-0.048914
7.88414
0.0204876
7.59828
7.8815
7.88861
-0.0023999
7.87488
7.87175
8.34555
7.87071
7.62326
-0.0232322
7.61291
7.41629
7.60923
7.85928
7.60379
7.88095
7.61207
-0.0045164
7.60774
-0.0259805
-0.00155758
-0.0950872
7.61856
-0.0235019
7.61688
7.87153
-0.00815503
-0.00643794
0.038203
-0.128797
7.32109
-0.0181847
-0.0285286
0.0225956
-0.0144326
-0.00601612
7.87407
-0.00472465
6.42916
-0.000183253
7.61193
-0.024276
6.65367
0.0220472
0.0117223
8.29254
7.67642
-0.0327043
7.87164
-0.0169183
-0.0244447
7.62199
7.62931
7.92157
7.61418
-0.983495
-0.0172127
7.60767
7.61928
0.00569125
7.6117
-0.0203235
7.61061
-0.0224767
7.87182
0.00427127
0.00296932
0.0494429
0.0210305
7.59066
-0.128717
7.60555
7.61177
4.3886e-05
7.61302
-0.00554924
7.92769
-0.0377089
7.87331
0.0198456
7.87397
6.95337
-0.105393
-0.050673
-0.0210422
0.00372436
-0.0332198
-0.00883076
7.61905
-0.028382
-0.0312006
7.61163
-0.0565877
-0.0683282
-0.0133386
7.68115
8.03696
0.0284775
-0.0434495
3.67396
7.71989
-0.00380808
0.0168121
0.000808943
-0.00230928
0.155763
2.52195
6.85972
-0.705618
3.13712
7.87315
0.00522687
7.63094
6.98428
0.0289304
2.47918
-0.725918
1.41965
6.8579
-0.0168965
0.0121291
7.62681
7.4434
0.0192414
7.87937
7.61177
7.61243
7.61704
-0.00475845
7.61336
7.82942
0.00168226
0.0245058
6.0142
-0.0332456
7.30802
0.0254353
7.92135
7.61696
-0.00998426
7.61102
7.61698
6.95104
0.0455401
4.63408
-0.0288147
0.0365577
7.88762
-0.228793
-0.0723514
0.00101618
-0.0191204
0.248446
-0.00319825
7.61432
-0.0115917
0.00382816
7.8764
0.0180632
-0.0256355
0.0100485
0.035482
0.0101208
0.00912367
7.88627
-0.00443832
-0.0601638
6.93126
0.0108445
0.00948202
4.83371
0.0376089
0.0113374
0.000390349
0.0035411
0.0120658
0.03169
7.75704
0.00582603
-0.00523464
8.23076
-0.0088038
-0.0228727
0.0351141
7.61377
0.0492153
7.89093
7.61148
7.62389
7.61511
0.0134443
7.04417
-1.04837
7.86879
7.55243
0.000652818
-0.00487746
7.87053
-0.0142909
7.87005
7.87339
7.9237
-0.0111137
0.00295456
6.98029
7.82025
7.61341
7.61355
-0.0692688
0.0192153
6.79866
-0.00150036
-0.418094
7.61757
0.00608301
-0.0207051
0.0827145
7.61104
7.61171
0.0199898
0.0299568
6.91468
7.61539
7.60257
0.0147018
7.87636
7.87026
7.6135
0.00234888
0.017137
7.61108
8.48006
8.21333
0.148931
7.61668
7.61082
-0.0260131
-0.0788314
6.89927
5.94532
1.13115
-0.0156979
0.00200476
7.59052
-0.023437
-0.00827074
7.60989
7.92108
7.61061
7.6125
7.61583
7.61035
0.0189813
7.87124
7.61134
7.67172
0.0104219
0.0150517
7.87788
7.93444
-0.0282465
0.0242755
0.033622
7.86955
7.61193
0.0243521
7.87399
-0.011466
0.0177664
0.0402223
7.85054
7.87229
7.87214
7.61263
0.0322231
7.61185
7.6112
-0.0373197
7.87225
0.0325471
0.00243223
7.63578
0.0338374
7.84109
0.0221639
-0.00881565
-0.027778
-0.0207704
-1.27935
7.22828
0.0202127
-0.022604
0.000896073
7.78647
-2.11695
7.14624
0.0232797
7.61536
-0.0322809
-0.016659
-0.0356796
8.07987
7.87234
7.87435
0.0281457
7.30478
-0.027148
7.44197
0.0171337
0.0333503
0.00896095
0.0229212
7.60998
7.63818
7.74764
0.0256984
7.61421
7.22574
-0.161085
7.61393
7.62086
7.8738
7.61105
0.00951182
7.60119
7.61277
-1.58465
7.28718
7.63345
7.06501
7.61304
-0.0407519
0.0127114
7.87147
0.0135975
1.00197
-0.0407483
-0.390546
0.0230746
7.61744
-0.0119864
-0.0357422
-0.0398702
7.87358
-2.6484
0.00965313
6.46615
-0.00442288
-0.121099
-0.106685
0.000787818
0.0265649
-0.143843
0.0383506
0.027159
7.59106
7.62827
0.0107582
-0.000880223
7.61614
0.0132794
0.00294313
0.0214295
7.60995
-0.125004
7.61107
0.0191044
0.0130095
7.61121
-0.0667602
0.0267653
-0.163167
-0.0221687
7.56855
0.0130529
-0.157338
-0.0763598
-0.16097
-0.0436448
7.60176
7.62174
-0.0267353
7.61106
0.0253403
-0.082142
6.71887
-0.474611
-0.82842
-0.305519
7.61095
6.37821
0.0240302
7.87391
9.46365
-0.0516204
7.60678
7.61024
-0.727141
-0.865488
7.61118
-0.126485
7.61251
7.61106
7.87564
7.87082
7.95539
7.87303
-0.0295423
7.616
7.6151
7.62145
-1.44235
0.010303
-0.00175744
0.0250328
7.62545
7.61042
-0.0532019
7.61214
7.61408
5.80901
-0.0576302
0.0227391
7.61098
7.60626
7.62309
7.61055
7.55728
7.60959
-0.0764563
7.61601
-0.206692
0.0100397
7.61319
7.88269
7.93103
-0.12831
7.92321
7.87369
7.6288
-0.215119
7.61005
-0.0694183
-0.0736662
-0.184524
7.60863
5.29024
-0.0448336
0.00490368
7.66503
-0.202736
-0.017346
7.88185
7.58778
6.8987
7.60702
0.0225115
0.0115606
-0.0677598
-0.351593
7.61207
0.0253285
7.56688
6.82503
6.85553
7.61496
0.0173674
7.61212
7.94159
-0.0693843
0.0278948
7.93867
-0.00405482
7.31149
-0.0880442
7.97755
7.61175
7.58324
7.87257
0.0248259
0.0195621
0.353292
7.61294
7.66282
0.0147752
7.61132
7.06967
7.87184
-0.00644582
-0.339583
0.0423496
7.86325
-0.0767453
-0.0645815
8.24152
-0.0643439
7.61998
-0.0445493
-0.0285856
0.00499655
-0.0916184
-0.182618
7.61172
7.6125
7.61213
-0.0764108
7.68249
-0.113174
7.87579
0.734026
7.87235
0.0159957
0.0237099
7.94333
7.61082
7.96061
7.6213
-0.114821
7.96876
6.90655
0.00431065
-0.10795
7.91093
7.03545
7.70428
7.05611
7.61299
7.61143
-0.106538
0.00321734
7.87303
7.86623
-0.631687
7.8783
-0.106207
0.022774
7.69652
-0.0382234
7.8725
0.0174861
7.6212
0.0129997
7.61107
-0.590496
-0.310818
-0.150906
-0.0437199
-0.0481027
4.68261
7.54194
-0.0354454
7.91757
0.0114242
7.87106
7.64121
7.62377
7.62255
7.64653
7.61615
-0.0584029
-0.069803
7.87277
6.65283
7.87899
-0.0572589
-0.12781
7.86902
0.0232064
-0.153855
7.9315
0.0256513
0.0261434
0.0145456
-0.150728
7.61132
7.61062
7.64015
7.61171
0.0176453
7.54115
-0.0385285
7.61176
-0.0482573
0.0170831
7.61437
-0.0562327
7.60239
7.61106
-0.0495173
-0.0868032
2.1329
7.6124
7.95477
7.6044
0.0187
7.50411
7.923
7.52171
0.861072
6.72389
-0.533688
7.0266
7.48517
7.76899
0.0190563
0.00409094
0.00919737
0.0174041
7.85806
-0.0336165
7.61295
7.61448
0.0162177
7.58873
-0.64964
-0.0442513
0.0320485
-0.0507977
-0.966109
-0.00515696
7.61366
-1.42322
-2.97776
-0.0117053
-0.0394734
0.0216881
5.50409
7.86767
-0.00136307
7.87676
7.61009
-0.248667
-0.00491872
-1.1234
7.59621
7.43928
-0.078603
7.93107
7.61302
-0.0569447
7.94991
7.93892
0.110222
-0.0571052
-0.0958783
0.0457007
0.025607
7.61579
7.61124
-0.276996
0.0239893
7.61239
7.94416
0.0297692
7.62365
6.60977
6.75837
6.79501
4.35731
6.6266
7.61395
0.0181374
7.59914
-0.0820441
7.61252
3.42505
7.67128
7.63657
7.61402
7.61201
0.0267964
7.61176
7.61148
6.91519
7.60794
7.61469
7.60828
0.0226734
7.62914
0.0200874
-0.0861269
7.63889
0.0392941
7.61208
-0.0306707
-0.204063
0.0171641
0.0256027
7.84648
0.0227696
0.0225399
-0.154638
7.87502
-0.111606
0.0235626
0.0260244
7.32731
0.0173169
7.68376
7.61238
7.61467
7.61107
0.0229951
7.61236
7.60176
0.0196116
-0.13926
0.00817883
7.62342
5.42579
0.0280225
7.61691
-0.374043
7.92825
0.0123155
7.609
7.61135
-0.00755007
7.60852
-0.0239922
7.87545
7.61208
0.0263347
-0.0416855
0.0232819
0.0178043
-0.138138
0.0165171
7.61242
8.01853
0.01156
0.0278285
0.0285058
-0.0976746
7.61124
0.0210823
7.61113
7.79918
0.00210913
-0.0724729
7.62433
0.0224591
7.59984
0.017892
0.0302137
7.71244
7.6109
7.61275
0.0107168
7.61367
7.61222
0.0140395
0.0186167
-0.0460512
0.0223725
7.63345
7.62341
0.00876304
0.0265472
7.61717
0.00895414
7.70036
0.00506157
7.61212
7.6119
-0.00955998
7.61073
-0.0264991
0.0286132
7.61822
7.61027
0.00242768
6.47062
0.0291942
7.87191
-0.0638225
7.88236
6.67901
6.45521
0.0256254
6.96225
6.88781
0.00979846
6.84572
4.25732
6.33066
7.67389
7.87767
-0.183082
0.0228235
7.65219
7.61028
-0.000669636
0.0108208
7.62269
0.010991
7.60995
7.8828
0.00169067
-0.00832275
0.126064
7.61097
7.61331
7.6122
7.61121
7.6065
7.60969
7.60529
7.60697
7.61073
7.60926
7.61111
7.87905
7.61463
7.61034
7.61308
7.78573
7.61082
7.61098
7.6113
7.63932
7.81764
0.0170525
7.61293
7.61112
7.62326
0.0251629
7.61528
7.88271
2.94613
7.60134
7.5088
0.0164275
8.24414
7.56505
3.48052
0.0115686
7.61236
6.75997
7.26039
7.6103
-0.0330266
0.0137712
0.0101612
0.00226468
0.0311091
7.90273
7.60521
0.0161673
0.0223958
0.00129358
7.60885
0.0204932
-0.0186738
0.0250544
0.0212054
0.0222596
0.00299814
0.0255941
0.0143755
7.88627
0.020791
0.0245825
0.0111851
0.017493
7.61087
7.61053
7.61084
7.8726
7.60849
0.0240639
0.023352
7.61402
7.61066
7.61129
7.81914
7.61284
7.87455
7.61807
7.87924
0.0280834
-0.226729
0.0240538
0.0290688
7.58753
7.62925
-0.0366437
-0.267101
7.61102
7.61183
0.00553643
7.885
7.61127
0.0629637
-0.00332338
0.0138778
0.0299366
-0.0328295
7.89903
0.0144446
0.0200804
6.9083
7.87641
0.00884961
7.89585
7.62476
2.38044
1.27216
-0.0115642
7.76603
7.8496
-0.0474862
0.0203328
0.0327553
0.0233148
3.39162
7.87219
-0.0217344
8.23695
7.8738
7.55792
-0.00401301
7.61239
0.0250973
0.00873627
0.0100668
0.0119575
7.87962
0.034894
7.87552
7.45323
7.87362
7.86596
0.0214609
4.48804
7.61137
7.87299
8.35951
0.0257132
6.85682
0.0100057
0.0188717
0.0209883
0.0214746
7.82433
7.86827
6.62737
0.0111191
0.0255769
-0.924669
7.92057
7.87191
6.82377
-0.0260922
-0.027325
7.61
-0.0346315
2.48867
0.0132961
0.0189438
7.87247
6.64313
0.0111749
0.023888
7.61259
0.00311324
0.00138174
-0.0051426
-0.00652947
0.0194299
0.0365793
6.91129
0.030926
0.0220658
0.0280461
7.9656
0.0156664
6.99792
0.0306033
0.0194368
7.87411
0.0206547
0.0153483
0.0100252
0.0235756
8.73899
2.0732
-0.0559579
4.27763
0.0172037
7.64791
0.0219842
0.0171713
7.88005
7.6115
-0.363436
-0.120665
0.0186077
8.73125
0.00434329
-0.210488
-1.17238
-0.0865273
7.88103
7.89229
0.0218542
8.34665
0.023296
-0.22065
0.0166099
0.0325497
7.87257
-0.00473867
0.0233704
7.87173
6.93048
0.0348144
7.88712
0.0268698
0.0314543
7.87328
8.78957
0.0208492
7.87274
7.61073
7.61173
0.0288881
0.0236502
0.0109611
7.9264
0.00808878
0.0280577
7.673
0.0310414
0.0191698
0.0244558
-0.133132
7.61161
0.0172887
0.0534865
0.0309701
0.0192686
0.0263018
-0.162567
0.0271579
7.87167
-0.0497284
0.0217408
7.87213
0.0264101
7.61782
7.61251
7.8751
7.6219
7.87429
-0.000730321
7.61267
0.0264141
-0.0208439
7.87576
0.0117727
7.8044
0.016864
7.87927
-0.171221
7.65333
0.00542221
-0.00056134
-0.190579
0.0436041
0.0233411
0.015661
0.0282831
0.0386438
2.76546
0.0356313
0.00388015
0.041471
7.87314
0.0394262
-0.127307
0.0351345
0.0114598
-0.171617
7.87535
6.7682
7.87714
0.0115108
7.8719
6.16778
0.0244589
8.39046
0.00559141
7.86413
7.84045
7.61146
0.0165575
0.0418778
0.0222462
-0.0491555
0.0243579
0.0191326
0.031194
0.00766065
0.0150349
0.0293061
0.020565
7.87982
7.56547
7.86581
0.0161511
0.0274714
7.64897
7.61138
6.3048
0.0439628
0.0178992
7.8724
0.0222883
7.86986
-0.439164
0.0154008
-0.070593
7.87336
7.8715
0.00936142
7.87215
-0.0107589
0.0293738
7.45402
0.0187138
0.0140134
0.0269608
7.87184
-0.115181
6.98019
-0.0290725
0.00786116
7.8749
7.88418
0.0267673
5.52397
7.9041
0.0342278
0.0309086
7.87243
7.85537
6.93631
0.0120654
6.2847
0.014775
-0.0382803
-0.0038521
7.87187
7.03426
-0.0396488
7.87061
7.61785
7.874
7.87579
7.14533
7.72554
7.57196
7.8732
7.89001
7.29668
8.39855
7.64082
-0.00125537
7.65034
6.75529
6.39131
8.90758
6.89662
7.87198
-0.0377
7.38958
7.71
-0.0382444
8.20957
8.57433
7.77162
-0.0472579
8.36843
-0.0362941
-0.0893842
0.00909173
7.16465
7.87539
-0.0278205
-0.46173
7.83567
7.86539
0.0194317
7.08562
0.0193176
7.00997
7.59395
7.72917
0.0177174
0.0212054
7.87067
0.00246064
7.89771
7.38933
-0.191716
0.0422441
-0.0356099
7.60843
0.0208967
7.23031
-0.0248931
7.61233
7.8723
7.611
6.98899
0.0400732
0.0297885
7.87419
-0.772614
7.88184
7.89493
7.88151
7.87349
-0.0286701
-0.042939
0.0317036
-0.0213831
7.83281
0.00916343
0.0108604
0.035522
-0.0346566
7.66133
0.0262708
-0.00355464
-0.00629132
-0.435057
0.0206653
7.92417
-0.0159391
-0.0276489
0.0208936
-0.0272716
-0.0512946
7.90293
-0.0442551
7.77848
7.87618
0.0191709
7.87951
0.0236424
7.86965
7.93937
7.55113
7.87979
7.87326
-0.0507553
7.87841
-0.0202205
7.1955
7.61571
0.0183701
-0.00627574
0.0286733
-0.0194757
7.89011
0.696787
7.8743
-0.0226946
7.94056
0.0129823
-0.0314388
-0.0201112
-0.0074696
7.97091
7.97785
7.88017
0.0274175
7.62667
7.86592
0.0230025
7.604
7.6106
-0.00220494
7.97076
0.00681549
-0.441929
7.14578
7.49939
7.4377
0.0100464
0.0108337
7.87261
0.00734083
-0.0147319
6.98786
-0.0252028
7.87054
0.0194153
0.0204529
0.0379338
7.87477
0.00932005
0.0189267
-0.0320988
-0.00638949
0.00506536
7.87403
7.87231
-0.112189
7.8682
7.60931
7.87016
0.0129911
-0.0220014
0.0169845
-0.0384815
6.86799
-0.00604745
0.0135448
0.010046
-0.062188
0.0163701
-0.0216401
0.0101422
7.61112
7.61154
7.6113
0.0281012
7.61251
-0.0358242
5.24206
0.000253642
-0.561982
0.00675245
0.012753
7.61023
7.87295
0.00124673
0.000409315
7.88702
7.60525
7.87372
0.00961955
0.00302274
-0.000250009
0.00543467
0.0291508
0.0127366
7.87342
7.87328
7.87177
0.0395216
0.00419274
0.00237448
0.0136389
0.0315807
0.00131418
7.84918
7.87199
6.33884
7.65537
0.0238431
0.0249404
7.86761
7.90637
7.86733
7.87539
7.83636
7.71675
-0.00876641
7.8747
-0.0538383
-0.120729
7.61884
-0.00338788
0.026739
0.0203724
7.9177
7.76306
-0.00817109
7.87273
-0.00991835
-1.23637
0.0175681
7.66689
5.95016
7.611
7.87691
7.86857
7.60464
2.11007
7.88654
0.00596179
-0.00425454
7.87511
7.87256
-0.0121816
7.87898
7.61245
0.0106357
-0.206518
7.862
7.8626
7.67644
0.0414255
7.87227
7.87201
1.16309
-0.0274743
-0.0131735
7.87232
7.61821
7.20784
-0.0177539
-0.0128362
-0.0152205
0.00353048
7.61159
0.0523092
0.0124805
-0.00121335
7.55583
7.86915
7.87184
7.82505
7.87245
0.0219163
0.0182012
0.00315376
7.88969
7.87246
7.87205
7.86954
7.68634
-0.0435625
0.109192
0.0197369
7.61553
7.87288
7.92664
-1.01521
-0.0452339
-0.0738586
7.61032
-1.94779
8.25748
7.8392
7.87132
0.0209918
0.0328729
7.87504
7.90737
0.00931513
7.87336
0.0122059
0.027211
2.73774
7.87084
7.66177
0.0214591
-0.0650688
7.91131
2.54094
0.0538061
0.0295442
7.87408
7.87696
7.88209
7.88107
0.0255687
0.025327
7.87722
-0.0548549
-0.0168597
0.202664
7.8728
7.87212
7.87351
7.87748
0.0062798
8.38449
7.87403
7.76822
0.0237627
-0.0121677
0.0286186
7.84574
7.87191
-0.0229314
7.62487
7.8728
7.87509
7.87428
0.0182334
7.69589
7.59665
7.61427
0.0190769
0.0246775
7.86948
7.8741
7.85579
0.0132516
8.15205
7.87843
7.85784
7.87413
7.87365
-0.20287
0.0206469
7.9144
0.0193175
0.0129223
0.0181072
7.87833
7.87486
7.8741
7.83366
7.61159
0.0275688
7.87373
7.37982
7.33263
-0.0200871
7.6527
-0.0279753
7.8722
7.61393
-0.0199381
0.289618
7.03238
-0.00884875
7.87509
-0.0129498
8.12455
7.89188
7.9228
9.10794
7.88035
-0.0411331
7.87079
0.00713282
7.61356
6.93456
7.87938
7.86813
0.0137626
0.0301531
7.61114
2.64433
7.60861
-0.0751044
-0.0439959
0.00748279
7.61323
-0.35296
-0.0263289
-0.053673
0.0206837
-0.629956
-0.0324068
7.59305
7.61158
-0.754254
0.0208295
-0.00488311
7.91005
7.51489
6.37002
3.25387
7.87424
7.61701
7.87458
7.87494
7.87567
8.30336
0.031983
-0.0770127
0.0283342
6.96853
-0.0969791
7.87417
0.00783045
7.8717
7.88043
7.61227
7.71251
-0.109238
7.69301
7.60523
7.87249
0.0142368
7.87102
7.87231
-0.0599184
7.82819
5.75154
4.92684
4.58772
7.87647
4.8079
4.64951
4.75879
5.45921
7.61115
7.61166
0.00839667
-0.0165469
6.95661
7.14023
7.60732
0.00328634
8.19152
7.71228
-0.103682
7.87516
7.87274
-0.0402918
-0.0923954
7.83801
7.61292
-0.0352513
7.03304
7.6051
-0.409115
0.00467179
0.048891
7.81217
0.0194841
7.87457
0.0137418
-0.397555
0.0142052
7.873
-0.392132
0.0187711
7.96771
-1.04356
7.86487
0.0172769
7.53102
0.0244712
7.80461
-0.0524858
7.87407
7.57221
7.61276
-1.4701
-1.47737
7.8856
0.00736358
0.00835129
7.91897
7.87263
-0.00726562
0.0212438
-0.127189
7.8801
0.0127712
0.00725272
-0.0516949
-0.854023
7.87581
-0.174707
7.62049
-0.154984
7.87175
-1.73373
-2.01031
7.85328
0.020492
7.67487
-0.0488007
7.61035
7.85755
7.88591
7.89039
7.85133
7.85898
-0.00512945
0.0264854
-0.158857
7.88245
6.34474
-0.14664
7.88075
7.82904
7.90605
7.86647
7.90543
0.0226938
7.87309
7.87428
7.61144
0.015761
7.85844
7.61161
7.54142
0.0362939
7.612
0.0082332
-0.788845
-0.0546496
0.0339406
-0.0156593
8.22114
7.87807
7.87144
0.0691716
0.029923
7.54222
6.31005
0.0099953
7.87255
7.87542
-0.136373
7.86404
0.0138179
7.87523
-0.0127266
-0.0593161
7.88143
7.61093
7.8748
7.87486
7.8703
-0.0285765
7.87145
0.011259
7.94393
7.87543
0.0233197
7.60519
0.00555893
7.77507
7.87223
-0.0154415
0.0290511
-0.12223
7.87388
7.87426
7.87295
0.0276863
-0.0908372
7.95145
7.61046
7.64269
0.0118915
7.8664
0.0121897
-0.137915
7.87213
7.86868
0.0204874
7.86643
7.64506
7.61213
7.95979
7.61214
-0.156028
6.21778
7.63718
7.87322
6.38075
7.86834
6.60247
7.84742
7.8674
7.72915
0.0156893
7.78888
0.0100613
7.86091
7.86761
-0.0602075
0.00438939
7.86293
7.8259
7.87479
0.0252386
6.6999
7.87429
7.73365
7.87095
0.0181696
7.86423
-0.183341
7.87409
-0.0124264
6.9157
-0.0300294
7.8898
7.87027
0.00268744
6.54268
7.88031
0.028106
-0.00984445
7.89241
7.87491
-0.02087
-0.060197
0.0193494
0.0156321
0.0057406
-0.0102337
0.0212345
-0.0422714
7.94884
-0.193372
6.256
6.14145
7.87383
7.87187
7.87066
0.0340448
7.87464
7.86771
7.87485
-0.125353
-0.0458038
5.94735
-0.0415382
7.87565
-0.0183498
7.61039
-0.0627031
0.0212821
6.32972
0.000101717
7.86669
7.84643
7.61189
0.0394148
-0.0133613
7.87311
7.61183
0.0300224
7.87368
-0.135388
7.91456
-0.0853615
7.87198
7.6124
7.85251
7.61123
0.0242145
7.61149
0.270307
7.61366
-0.00762141
7.87296
7.86936
4.30921
3.98403
7.8912
7.86977
7.87238
7.87292
-0.00942845
-0.145622
5.20975
7.87673
-0.00197324
7.60989
7.62144
-0.428578
0.0102472
-0.0712822
7.61248
0.025279
-0.0238402
0.0238152
0.0128519
7.87258
7.8752
7.87942
7.87585
7.61224
7.61119
7.61194
7.84095
7.61281
7.61213
7.87225
7.61185
-0.111395
7.6111
7.873
8.61616
7.87423
7.87329
2.70417
7.61136
7.87218
-0.00752834
-0.0953084
7.84921
7.8514
7.87288
0.0157999
7.64603
7.86024
-0.113101
7.61263
7.87362
7.86857
7.87658
-0.0503971
7.61108
-0.176921
7.87649
7.85724
7.87178
7.87253
7.87037
-0.107011
-0.149495
0.0200007
7.87446
7.63613
7.90915
-0.126397
7.87266
-0.149275
-0.0811959
7.60961
7.84452
5.93751
-0.406893
7.85595
7.01488
-0.393984
6.01562
-0.013631
7.64415
-0.0430712
5.98259
5.61303
7.87203
-0.00286417
7.61258
-0.0158519
-0.05687
7.88188
-0.00374107
-0.286283
7.87019
-0.0714718
7.61426
7.85704
7.8659
7.85295
7.86796
7.60978
7.87255
7.87183
-0.155726
7.10505
7.87278
7.86995
7.87157
7.87561
0.0166543
4.03938
-0.134954
-0.308459
7.8719
0.0118033
0.000955884
7.87275
6.99252
7.78725
7.86278
7.89994
7.96236
6.43046
7.16378
-0.0373978
7.87452
7.8777
6.09864
6.63805
7.61098
-0.00856962
7.88091
7.62603
7.87426
-0.0826255
7.87625
7.61126
-0.0188094
7.61168
7.57196
7.76406
7.91999
-0.0190954
7.87385
7.87232
7.87224
7.8438
-0.0179604
-0.0689239
-0.0599071
-0.00505524
-0.0337436
-0.0420144
7.61227
6.54128
-0.165892
-0.0354324
6.53135
-0.152143
7.86827
-1.0882
7.63404
-0.0921582
7.87483
7.61658
-0.0342935
-1.39207
7.87741
-0.0356611
7.87611
7.87606
-0.0984959
-0.0596066
7.87234
7.61171
7.91784
7.61114
7.86974
6.86015
7.87362
7.87174
-0.0359742
7.87317
7.86836
7.87133
-0.0272253
7.8847
6.90228
7.61193
7.61131
7.29804
6.9198
-0.0287589
7.61603
6.92846
0.00334675
7.86615
-0.0453954
-0.0281582
7.87464
-0.00206505
7.87122
7.45396
7.9347
6.78281
7.61376
7.85128
7.86521
7.87572
0.0178379
7.87471
7.87311
7.87137
7.73433
7.87217
7.78523
-0.126671
7.87219
7.87708
-0.073067
7.87328
7.61214
7.61083
0.0296778
7.87472
-0.165955
6.7015
-0.382367
0.0150787
7.60837
6.5361
0.0056264
6.26539
7.61247
-0.199978
-0.380741
-0.00274791
-0.0607103
-0.260373
-1.1695
7.63598
7.61748
0.00610466
-0.104891
-0.0868358
0.0143766
-0.401473
7.60978
0.0190922
-0.00375268
0.0026808
7.6142
0.00534014
0.0218145
0.021378
0.00186536
-0.126062
0.0126089
0.0416247
-0.00682111
0.0134703
0.0250501
0.00852678
6.91592
0.091633
0.00624366
-0.00443052
-0.0276569
0.0232469
0.00989078
0.0152034
7.07675
-0.117556
7.0254
0.0335091
0.00837413
-0.0528913
0.000652364
7.01406
7.6096
0.010046
0.0134241
-0.131063
-0.0670264
0.0235093
-0.00318887
4.82739
0.00658115
7.87219
0.000787238
-0.116053
-0.0514326
0.0285379
-0.143981
-0.179572
-0.00505331
0.00460149
-0.00545612
0.0299279
-0.00102461
0.123468
6.13862
5.39811
-0.00079662
7.87667
7.87287
-0.00117702
0.0193883
0.0229306
7.87393
-0.0760202
-0.0593905
0.0157663
5.58498
7.87168
-0.21141
0.00818843
-0.122632
7.87538
0.028425
7.87207
0.00574261
-0.00749952
-0.0498814
-0.0492075
7.87249
7.87416
-0.040963
0.00994828
0.0250233
7.8656
0.00559789
0.0248542
-0.02867
7.61694
0.0319577
0.0493464
7.00598
0.0204811
-1.50786
-0.108734
7.58004
-0.0660081
-0.103703
7.8721
-0.000136846
0.0174467
1.38725
-0.0166447
0.00570095
0.0221255
0.0188314
-0.0371655
-0.0234335
-0.231536
-0.113588
0.0295596
0.02152
-0.0170007
-0.175921
0.0190279
-0.0228973
0.0582162
0.0120769
-0.163579
0.0395084
7.87216
-0.0055774
-0.0155886
-0.108983
0.0383147
-0.0444864
7.63934
-0.00786208
0.0224298
7.86756
-0.0779162
-0.00671773
-0.00783739
-0.000457498
0.0221122
-0.0446918
0.0100963
-0.0198457
-0.0568183
7.87178
7.87241
-0.0528223
7.6156
-0.049605
-0.00777442
7.706
0.0220248
-0.0230534
0.0375967
7.8714
0.0238424
0.00936311
-0.0662061
-0.147139
0.0186834
0.0442305
0.00621173
-0.0130079
7.87236
7.8556
-0.0991361
-0.035592
-0.0620914
0.0183325
7.85528
-0.0361607
0.0130263
7.70645
-0.00190488
0.00841969
-0.0839415
-0.228202
-0.0339157
-0.0409502
0.0381805
-0.00600806
7.62058
0.000594053
0.00116423
-0.00282746
-0.205567
7.85648
-0.0250826
8.01357
7.87324
0.0104391
-0.0149973
0.00368044
0.12201
-0.12117
1.48427
7.61396
-0.0341389
0.0231737
0.0649169
0.00744842
7.87981
7.61304
7.60255
-0.00347847
0.00141565
-0.232563
0.0231341
7.62699
7.8598
-0.0112959
0.00374015
-0.0464732
0.0115437
0.00659369
0.0272443
-0.0550253
4.37233
7.61116
-0.00676814
0.0231302
7.85929
-0.00719886
0.0226248
-0.0781649
0.00829977
0.00744574
-0.0457133
7.85944
0.0237792
0.00393947
7.61402
7.64352
0.0285112
0.0791719
0.0142386
0.0205533
0.0160156
0.0113101
0.0329918
0.0278798
0.0228229
0.0137228
7.85523
7.8477
0.00993641
0.0305583
0.0150027
-0.102475
0.0186949
-0.0052719
-0.00402532
0.0221396
0.0149131
7.61415
7.62188
-0.115943
7.85398
6.86243
0.0108864
0.0189963
-0.00128135
-0.0988578
7.16157
-0.0380469
-0.0840344
7.29269
-0.105622
-0.211481
0.0181863
0.0203223
0.0197377
0.0260572
-0.147965
0.0204124
7.87273
7.23559
-0.0832829
0.0295338
0.00305058
0.0256207
-0.1117
-0.0359215
-0.112874
7.26173
0.0231612
0.0526031
0.0124382
-0.126133
-0.0399679
-0.0984613
-0.20575
0.00113833
0.0220785
7.15347
-0.00680775
0.0248475
2.78652
6.78889
6.23674
0.036083
6.63341
0.0133548
0.021705
0.00599786
0.0210955
-0.111012
5.04353
3.04231
8.06144
6.72976
-0.0507194
7.61108
7.6108
-1.28392
7.87035
0.0264294
0.00991181
0.0263665
0.0210824
0.021191
0.00352811
6.26695
0.0223153
0.0250823
-0.0337669
0.012577
0.033452
0.011406
7.61117
-0.208258
0.0283771
-0.0991711
7.61122
-0.0114733
-0.00769793
7.61117
7.86465
-0.083868
0.0177545
7.90817
0.010398
0.0116558
-0.0878697
7.87338
7.61113
0.0199246
-0.21161
0.0207284
7.61122
7.59604
7.61126
-0.000665749
2.5493
2.32125
-0.00236298
-0.371058
7.88115
0.0255359
-0.348127
0.0163554
0.0232851
0.00680471
0.0189561
-0.506789
0.0280431
7.66091
0.00973304
0.0393455
0.0176982
0.0184133
0.0136969
0.0348728
0.0165398
0.00935605
0.0297656
-0.0655551
-0.390375
0.00980654
-0.0882998
-0.135963
-0.461504
0.00990033
-0.374836
0.019358
0.0300938
0.0207342
0.0386998
-0.0572315
0.0339081
-0.380506
0.0219938
7.46952
0.00868664
3.81205
0.0121879
-0.00858102
7.61471
-0.019037
7.46898
-0.0067001
7.49706
7.90459
0.0414801
-0.0285813
6.84512
0.022894
0.0181623
-0.0264951
7.86063
7.87395
0.0107519
-0.000345141
-0.182783
0.0140547
0.0316688
-0.0271508
-0.0679093
-0.0108707
-0.0199115
6.50842
0.00763373
7.61077
7.80633
0.0295416
0.0286189
-0.0999293
0.0287593
0.0308892
-0.0122661
-0.0241243
7.78161
-0.114791
0.0212791
-0.0154353
7.79352
7.87994
0.00754033
-0.0042428
6.16052
-0.0459022
0.0288883
-0.00174667
-0.135818
0.0319351
0.0209744
7.86399
4.57343
0.0204126
-0.0774837
7.6785
0.0385689
-0.0521336
-0.0159972
-0.1225
0.0152658
-0.152958
0.00730402
-0.0416264
4.83046
-0.0521745
7.87386
-0.00257549
-0.0232401
0.0297333
0.00958455
6.57146
0.0143922
-0.0831246
-0.0166441
-0.11265
7.42363
7.61135
0.0275845
-0.0765744
-0.00670793
0.00209581
-0.0461407
0.0203768
-0.00269847
0.00605046
0.0412154
0.0259442
-0.0537976
7.03107
-0.136849
-0.0256856
-0.000892349
-0.0443583
7.22627
7.61109
-2.38982
-0.119361
8.15384
-0.145483
-0.0276455
7.36955
4.99494
5.45777
-0.0475649
0.0223816
0.173342
5.84149
-0.0805267
0.0295346
7.61693
0.226782
6.88648
-0.0159057
0.0206712
7.64458
-0.0288968
-0.0297345
-0.0335636
0.0258842
7.61082
-0.271926
-0.044039
-0.0793195
-0.0239825
-0.0250014
-0.0458043
-0.0127187
-0.179412
-0.0258702
0.0211161
0.0213896
7.87255
6.44429
6.55653
7.72701
-0.0339851
0.0236769
0.0294948
-0.0677724
0.019657
0.0278897
-0.00880078
-0.0229074
-0.0190821
0.0223437
-0.0174113
-0.0897899
0.000268458
0.0244406
7.87303
-0.0460326
-0.0646705
-0.0198765
-0.0133178
7.60991
-0.00025695
0.00211912
0.032988
0.000328357
0.0106289
7.63107
0.0215443
0.0108047
6.87842
0.0217559
-0.0111652
7.72109
-0.00339257
7.71265
7.60883
0.000858571
-0.0646076
-0.00909163
0.0119863
7.61422
0.0342499
-0.0418348
7.61321
0.0279854
0.0097394
0.01657
-0.015587
7.75232
-0.0353015
-0.030183
0.00724703
7.69511
0.0443058
0.0198627
-0.00484996
0.0257908
0.0109676
7.90125
7.45258
7.05846
0.0264323
7.18696
0.0269365
0.0143271
0.0245362
7.83441
0.0208896
7.65535
7.87362
7.80879
0.00774024
-0.0128021
-0.212319
0.000551603
0.032874
7.51682
6.88429
-0.0444753
-0.049136