/*--------------------------------*- C++ -*----------------------------------*\
  =========                 |
  \\      /  F ield         | OpenFOAM: The Open Source CFD Toolbox
   \\    /   O peration     | Website:  https://openfoam.org
    \\  /    A nd           | Version:  10
     \\/     M anipulation  |
\*---------------------------------------------------------------------------*/
FoamFile
{
    format      ascii;
    class       volScalarField;
    location    "24";
    object      SgP;
}
// * * * * * * * * * * * * * * * * * * * * * * * * * * * * * * * * * * * * * //

dimensions      [1 -1 -3 -1 0 0 0];

internalField   nonuniform List<scalar> 
111485
(
1.4078e-09
0.000121581
2.82262e-05
5.70769e-11
8.58518e-06
3.18864e-08
1.52119e-05
2.54128e-07
1.0492e-05
2.97668e-06
2.56836e-05
9.31275e-07
6.87014e-06
0.295475
6.75824e-06
1.6138e-05
0.209096
0.00105445
8.8354e-07
4.80422e-08
0.0372185
3.42423e-09
3.16294e-06
1.13811e-05
4.00786e-05
3.46539e-08
5.86642e-07
1.46841e-05
1.05777e-06
0.0481517
4.27449e-06
5.03542e-07
2.17987e-07
1.47877e-06
0.000742597
9.18036e-05
0.136651
0.205804
0.00246287
9.02186e-07
0.0435692
1.26335e-06
3.02691e-06
0.000107897
1.87214e-05
1.58711e-06
6.56392e-06
4.4127e-07
6.18779e-06
4.28806e-07
1.09509e-06
1.73196e-05
4.63397e-07
9.97478e-06
1.51081e-06
1.61356e-07
2.8071e-06
4.44369e-08
5.07425e-05
3.86463e-07
5.827e-07
2.65164e-07
8.64329e-05
7.08117e-06
6.5274e-06
2.13657e-05
0.000425173
2.41213e-06
7.19631e-05
0.000142817
4.81903e-05
8.73315e-05
1.12643e-05
9.2307e-05
4.65363e-08
1.78315e-06
1.52325e-08
7.19519e-07
2.80377e-08
3.12545e-05
0.281042
0.526499
4.39657e-08
5.24137e-09
1.60487e-05
3.81223e-05
0.143738
9.18698e-06
0.000247525
4.46978e-06
1.36639e-06
6.63749e-06
4.64399e-05
4.79833e-07
2.27926e-06
6.66406e-09
0.0270677
1.19034e-05
0.00153832
0.000577708
1.41652e-09
2.64093e-06
1.9675e-06
1.43871e-05
6.14245e-06
1.64517e-05
5.83884e-09
2.84942e-07
1.52056e-05
0.000730455
4.22505e-05
1.37929e-06
1.32737e-05
7.42536e-05
1.03226e-07
1.88307e-07
3.04934e-08
6.55774e-06
2.31564e-05
4.66514e-09
9.17894e-08
0.00018996
0.0753265
2.27065e-06
5.82368e-05
0.0278142
0.000107302
1.33794e-05
3.0101e-10
0.000323331
0.000137315
1.75995e-05
0.04721
0.000175282
7.84786e-05
8.50424e-07
8.18327e-10
3.23502e-07
9.78125e-06
2.4526e-05
7.14652e-05
3.43596e-07
0.180369
9.95388e-05
4.16856e-05
2.41626e-06
7.61892e-10
8.98918e-10
4.76496e-08
5.12026e-07
3.35344e-05
0.0285516
0.115722
1.41615e-05
3.52748e-05
5.57978e-07
5.67173e-06
0.000154092
0.000823543
5.43722e-06
9.62813e-10
7.21807e-07
4.04127e-05
7.39809e-05
6.37774e-05
3.86021e-05
7.37157e-06
0.0270975
0.00156551
0.000127624
1.583e-09
1.52303e-08
0.197975
1.07821e-10
2.69556e-07
2.86513e-06
5.25493e-07
9.61755e-06
3.65817e-08
5.8033e-06
9.90028e-06
3.7152e-08
2.65636e-06
5.08954e-07
2.39737e-06
2.06087e-05
9.84449e-06
5.5502e-05
0.000387164
1.78755e-07
5.43152e-05
5.72735e-06
7.13691e-06
3.73016e-05
5.16057e-06
1.20433e-05
2.07252e-06
1.39018e-06
8.46216e-07
8.90094e-06
3.06856e-06
0.00165271
8.06862e-05
9.31058e-07
1.82938e-06
4.12824e-06
1.25637e-05
1.18006e-05
1.82242e-05
2.98992e-06
5.67803e-06
9.87275e-06
8.72255e-06
7.79647e-09
7.05248e-05
0.000312255
4.56129e-07
7.63701e-09
1.20541e-05
1.76826e-05
8.73072e-07
8.33262e-08
1.62563e-05
1.65632e-05
0.000277914
6.85097e-09
4.38684e-10
3.16849e-05
0.00418339
2.35477e-05
9.36434e-05
1.39149e-05
2.37648e-06
0.146166
3.87508e-05
2.03419e-05
0.160957
4.66745e-08
6.20029e-05
2.22541e-05
2.7099e-05
3.30272e-05
4.84592e-06
3.89952e-06
0.00195913
9.69426e-07
7.84811e-06
1.23808e-08
5.19699e-06
0.136614
1.83478e-05
1.0948e-05
2.21902e-05
7.86842e-10
0.000193262
4.72888e-07
2.78906e-07
6.70612e-05
0.0996991
1.85292e-08
4.65398e-06
5.49746e-05
2.52049e-06
3.37119e-09
1.20576e-05
6.4519e-11
6.09171e-08
5.10144e-07
0.165033
4.36569e-06
3.23451e-05
1.39144e-06
0.177477
1.98397e-05
1.42169e-06
0.000254282
4.74774e-06
1.18439e-06
4.52635e-07
5.3657e-09
0.111621
4.28025e-07
4.00425e-05
2.10008e-05
1.8499e-09
0.217772
0.266007
1.57533e-06
0.000319557
3.5196e-05
3.1811e-06
8.86349e-06
1.19302e-05
2.01127e-08
7.53708e-06
3.0438e-09
0.000358178
0.000274545
1.57147e-05
1.71222e-06
0.346849
1.77508e-08
0.0860597
1.10838e-06
7.78117e-06
3.02399e-09
1.14988e-07
0.0246318
4.89966e-06
1.51541e-06
5.95777e-06
0.00017179
7.70703e-07
3.04919e-05
3.05306e-08
3.5394e-08
5.73238e-06
0.004406
0.250414
3.41129e-06
0.000792706
1.783e-09
8.71908e-09
1.4069e-08
8.47754e-05
5.71473e-07
5.8231e-07
2.17473e-06
8.73225e-07
7.16114e-05
0.0608138
5.63649e-06
1.23544e-07
1.90819e-06
2.27926e-06
0.0483145
4.9966e-05
7.37763e-07
7.25165e-07
7.84544e-07
1.34855e-05
6.98561e-08
0.151345
0.000173497
8.55073e-07
3.2164e-06
0.000304011
4.759e-07
0.0391298
5.38972e-07
1.07671e-05
6.20597e-06
3.88542e-07
2.02133e-05
9.10895e-06
1.95316e-07
5.46057e-07
7.13622e-07
1.76606e-06
0.362319
2.98789e-05
1.71383e-07
0.0530077
1.65344e-05
1.74085e-08
4.07889e-07
3.75724e-07
0.0469272
0.00062301
0.0459062
0.0496782
2.81863e-07
2.50227e-08
2.80261e-06
4.04638e-06
4.14986e-10
7.79803e-06
3.04206e-06
1.57937e-05
2.65172e-05
0.000141481
5.60529e-06
0.000707182
4.77526e-07
8.21233e-06
4.31782e-05
1.16178e-06
0.000673245
3.89617e-07
1.47509e-05
2.85433e-06
0.0303733
1.17522e-07
2.09035e-07
0.154815
4.77763e-06
0.306542
6.51426e-08
4.65428e-06
3.52782e-06
7.62754e-09
5.17658e-06
4.62505e-05
3.79992e-09
0.0320463
3.17249e-06
2.84312e-06
4.5047e-07
2.60446e-08
0.000758478
3.77418e-09
1.04061e-05
3.62543e-06
4.31659e-10
1.16375e-06
3.88135e-05
0.246877
0.000135031
2.00598e-09
7.96038e-05
0.000102803
9.93069e-05
3.91151e-05
0.00063205
2.42781e-06
0.00112504
5.57104e-05
0.2049
0.000201303
4.59764e-08
7.41578e-06
1.0591e-06
2.03801e-07
0.00141953
0.000222624
8.3222e-05
1.484e-06
1.33894e-06
9.5809e-06
3.70525e-08
0.351638
8.30543e-07
3.36405e-05
0.00439302
9.16497e-05
0.00127163
3.56757e-08
0.253561
0.332486
2.63501e-08
3.56405e-05
0.000262279
0.00010354
4.05572e-09
3.01388e-05
3.52691e-09
0.28506
7.24033e-05
2.1336e-05
0.000108414
2.11311e-05
1.93533e-07
1.77615e-06
4.99913e-07
6.96479e-05
1.54514e-07
5.98518e-07
0.0524101
9.60721e-05
4.03729e-08
1.54726e-09
0.000384954
8.46751e-08
1.60507e-06
3.62736e-06
2.75043e-08
6.13579e-05
6.73342e-08
0.074166
6.93722e-08
1.65975e-06
3.68276e-08
0.000238915
4.30888e-07
0.22411
1.96713e-05
0.23694
1.12189e-08
6.66617e-05
2.58951e-06
2.67803e-09
0.369848
0.143226
2.6298e-05
3.05273e-06
3.06247e-05
6.62122e-07
1.21398e-05
7.91202e-07
4.60366e-05
0.289923
2.543e-08
2.42155e-06
0.000108427
1.76876e-05
0.0590977
5.64074e-06
0.000114991
2.45306e-06
1.37953e-06
0.000780052
0.082018
1.77831e-05
2.17696e-08
1.35765e-06
3.51483e-06
3.55447e-06
1.14476e-06
1.96203e-05
1.75474e-09
0.00169676
1.59437e-07
3.49237e-07
1.78684e-07
9.59951e-05
4.43407e-09
1.00876e-05
2.98744e-08
9.31596e-06
2.05932e-09
0.116283
0.114763
2.00656e-05
1.16499e-06
0.0652955
0.0813818
4.79307e-08
2.55938e-07
1.51704e-05
4.50412e-08
0.000173678
1.78299e-05
1.0958e-05
0.0426573
1.69784e-06
2.39474e-09
4.68742e-05
4.11577e-05
6.31308e-05
1.65719e-06
1.58536e-05
1.03741e-05
1.19813e-06
9.75072e-07
2.12642e-05
3.35221e-05
2.58822e-09
0.126576
6.74152e-05
4.34769e-05
1.34603e-06
0.00120962
3.20781e-05
0.000463707
0.00302084
0.000387119
4.17747e-06
8.65197e-05
1.1508e-05
2.12125e-05
0.115087
0.00021223
7.4464e-05
0.00359037
0.0770642
3.16337e-08
6.61004e-05
4.59447e-06
4.0709e-05
3.66401e-07
0.000523836
0.00274632
0.000432734
0.000167287
2.67606e-05
2.3699e-06
5.25038e-08
0.000198622
3.46658e-06
2.8839e-08
6.17285e-10
5.60587e-08
3.20092e-08
1.00137e-05
1.82095e-09
0.0347574
1.28155e-05
2.56318e-05
0.0989276
0.319459
6.03858e-05
3.02428e-06
0.0371549
5.53185e-08
1.87568e-05
1.82732e-07
1.90601e-08
4.78075e-05
2.37033e-05
0.121518
2.65191e-05
1.67877e-07
2.69344e-06
2.9116e-05
0.143861
7.09665e-06
2.7607e-05
7.04606e-05
0.196919
0.0415892
2.85096e-06
1.77991e-05
5.96213e-06
2.4121e-06
6.08861e-06
1.07228e-06
3.18043e-05
4.21327e-06
2.17283e-06
1.14052e-06
4.36004e-06
0.000658978
3.26452e-05
4.24897e-06
5.05095e-06
0.000660283
4.09943e-07
5.13408e-07
1.81637e-05
3.10507e-06
1.66245e-05
3.10554e-06
3.26848e-06
3.40793e-06
3.29086e-05
0.00019796
1.25983e-05
1.84807e-05
3.12366e-06
4.64199e-07
4.47946e-05
4.45455e-06
3.97422e-09
0.077842
1.61171e-08
0.136809
5.88296e-05
0.0117521
8.01549e-08
0.0295228
1.447e-06
1.13578e-05
1.36596e-09
7.2022e-06
3.01169e-07
1.65423e-08
8.17527e-07
0.282963
0.000130905
2.95932e-05
0.0411916
1.02215e-07
2.68565e-09
3.67065e-06
1.90982e-06
8.3673e-05
5.30353e-07
0.000128474
6.48357e-08
7.37297e-06
0.000125503
0.168363
6.17999e-10
4.6409e-09
3.33426e-06
8.47601e-07
0.000132804
4.58939e-07
0.0631787
1.19775e-06
2.66166e-08
1.22948e-07
0.0456409
6.51987e-06
0.00013963
6.36876e-10
0.00504476
0.00104557
0.182363
1.61151e-08
1.88516e-08
3.58537e-06
2.27387e-05
3.95598e-05
0.000587875
0.000330577
0.000260491
5.03501e-06
0.0636438
2.69499e-05
8.15285e-07
6.90379e-08
1.20223e-06
1.37415e-08
9.27499e-09
7.71662e-08
9.33373e-10
3.37469e-06
7.12806e-08
1.95185e-08
3.2652e-07
1.96863e-07
1.67219e-06
1.08281e-07
5.83371e-07
2.71318e-07
1.50946e-05
1.67782e-05
2.70047e-08
7.42945e-09
2.24027e-05
7.88703e-10
9.20356e-05
2.09734e-06
5.44261e-06
1.23615e-07
1.25695e-10
9.46083e-10
1.59419e-09
1.56735e-05
1.83021e-08
6.59587e-08
2.10378e-05
4.7923e-09
1.4129e-05
8.26238e-05
2.35286e-06
1.72388e-06
0.000529679
4.55884e-06
0.252394
0.000111232
8.29295e-06
0.20996
8.25049e-05
6.21594e-06
2.87591e-05
9.67607e-07
2.04635e-05
0.0890534
0.000706985
6.22852e-07
4.07434e-08
1.27737e-05
8.02037e-05
9.97033e-05
9.28099e-05
1.85805e-09
1.56037e-10
1.31407e-06
3.86595e-05
9.34379e-06
3.91639e-06
0.000207535
3.51336e-06
2.99932e-05
1.43323e-07
1.5276e-08
0.0335938
8.23096e-06
3.64084e-07
2.77318e-08
4.98189e-05
0.000131051
1.78686e-06
3.47645e-07
0.0407142
1.5791e-09
2.75238e-05
0.0640317
9.80337e-09
0.0726966
4.30362e-05
0.0372315
0.000609859
1.01113e-07
2.49222e-05
2.20722e-05
0.0458777
5.69601e-05
0.00131485
0.161879
0.000144644
1.15073e-05
1.00051e-06
1.26531e-06
0.487162
0.162234
4.31018e-08
0.242167
1.38978e-05
0.000162655
2.53184e-05
2.21542e-05
0.00121413
3.99433e-05
1.39962e-05
6.83954e-06
1.33797e-07
1.76771e-06
0.0458352
8.19294e-08
5.57234e-05
2.82653e-05
9.79308e-08
3.96756e-06
0.217686
4.47468e-06
2.9615e-07
0.00064623
1.55133e-08
4.07164e-06
0.212699
2.37479e-08
0.178137
0.342994
0.00135388
1.78123e-05
1.09516e-06
3.76427e-06
6.3138e-05
0.00022503
0.00120355
0.000318206
4.30154e-06
0.0455529
0.000112061
9.20554e-10
0.000304607
0.000299689
0.000611441
0.0004673
0.000864269
0.000171704
9.60038e-10
6.88758e-05
1.02624e-06
4.12604e-07
0.00171247
0.350128
1.7518e-07
3.31798e-08
0.00324324
0.00330487
3.24347e-09
0.000605227
8.6762e-08
1.58004e-08
1.25073e-08
4.4938e-07
5.06489e-06
1.65609e-07
7.85177e-05
0.0520851
1.45465e-09
5.43428e-07
0.00451228
0.116188
7.52539e-05
7.90142e-07
0.0327246
1.08369e-08
0.000134302
4.01253e-09
2.30168e-09
0.000575574
0.130184
2.58317e-06
7.24002e-09
6.7126e-08
0.0358732
1.8497e-08
0.0232486
4.71308e-08
0.000104169
6.84529e-09
0.00196147
3.19014e-06
2.80306e-09
7.57032e-07
5.59173e-07
0.00140833
6.26284e-07
2.36489e-08
2.09262e-06
0.0044473
0.0543595
7.25283e-05
0.000614576
0.00107015
4.31469e-08
0.00132863
1.03342e-05
3.41013e-07
3.54512e-06
0.000215875
2.26463e-05
1.17393e-07
9.55411e-06
0.000151152
1.00793e-07
1.37444e-06
7.52429e-07
1.64769e-05
0.0734511
1.3677e-09
8.98783e-07
0.0611849
0.000121967
7.75255e-05
5.43788e-09
8.91336e-07
1.81527e-08
1.1378e-06
2.75953e-05
5.33645e-05
5.53496e-07
3.02029e-05
2.76584e-05
8.33405e-05
1.69402e-05
7.07737e-09
3.83387e-06
1.68125e-09
5.03545e-07
6.72924e-05
0.000186718
3.13968e-08
5.07866e-07
4.57327e-06
1.49748e-10
4.79822e-05
4.46756e-07
7.31616e-05
0.000841214
7.55586e-05
1.4971e-08
0.00139409
0.00011959
6.3212e-05
0.000159557
4.75253e-08
0.000164418
2.56645e-06
0.117507
3.50468e-05
9.77102e-05
6.38653e-08
6.49771e-10
2.35631e-08
0.186961
0.0751507
4.46879e-05
6.78648e-10
0.000140345
2.97868e-08
0.173733
0.00015957
7.61118e-07
9.24654e-08
3.40959e-06
6.17867e-07
9.01306e-05
2.12267e-06
0.000123378
0.313554
4.19084e-06
7.22134e-05
3.3801e-05
7.03221e-05
5.22317e-05
3.27043e-08
3.21913e-10
2.84197e-06
3.68301e-05
8.22764e-09
2.03085e-07
0.000610753
4.59385e-07
1.44067e-06
0.423788
1.76712e-06
6.87949e-05
4.00271e-10
3.34601e-06
2.64702e-07
0.331948
2.96828e-09
0.119412
0.00554615
0.000137996
1.72612e-05
1.58123e-05
0.000948366
2.57639e-06
3.4222e-06
2.31059e-06
1.03087e-06
6.19533e-08
1.87096e-06
8.60413e-05
2.39899e-06
0.0710213
2.76744e-07
4.35755e-06
0.000309284
2.06683e-09
0.000385596
8.59509e-08
3.97702e-05
0.0008323
6.86054e-08
2.13049e-06
7.06246e-05
5.53531e-07
9.40448e-06
0.18266
7.986e-07
9.95771e-06
1.51836e-10
0.0468516
8.99746e-06
1.92434e-07
1.91866e-07
4.95641e-06
7.30501e-06
9.28647e-09
0.15246
1.5265e-06
2.09074e-09
0.000125787
4.13237e-07
2.48804e-09
4.59129e-05
0.001022
0.000885662
8.4361e-09
1.11669e-06
4.65639e-08
4.90956e-05
5.06498e-05
0.034353
6.26202e-06
0.000912091
6.78976e-05
0.00117708
3.09324e-05
3.53412e-06
1.09126e-06
4.80866e-07
5.15286e-05
2.10576e-06
7.41347e-06
0.0440824
0.000252823
0.0482155
1.28001e-09
7.966e-06
1.20317e-07
6.05406e-05
0.000102827
1.18397e-05
4.90976e-05
0.000541324
0.0001519
7.83979e-10
0.00722083
0.00842366
8.69606e-05
4.74045e-05
8.49104e-07
0.000995371
1.6876e-06
2.86811e-06
1.38841e-07
5.56529e-09
0.000253487
9.81292e-06
0.00100045
6.59854e-07
0.0477121
0.000673203
7.22407e-07
1.384e-07
0.00058321
2.91794e-06
0.0557587
0.282129
0.00013195
0.000237518
1.65647e-06
5.28177e-07
2.14741e-08
1.34511e-08
6.29814e-05
5.03915e-06
0.0351264
0.0551797
3.19527e-05
3.17964e-08
0.000323784
0.0419256
2.76843e-05
0.00116026
0.0026162
0.0443682
0.122387
0.0516106
0.00012284
1.1449e-09
0.00204338
6.64423e-07
1.64079e-07
1.95313e-07
7.41839e-09
2.88202e-05
4.00918e-09
2.08944e-09
9.22003e-05
4.94722e-08
6.70682e-09
9.5748e-07
5.55738e-07
0.0603015
6.48251e-06
3.09122e-05
0.0778524
0.263574
5.82349e-09
0.188755
0.000159254
0.392462
3.83563e-07
1.09632e-07
6.92546e-08
4.49158e-05
0.263431
1.72558e-09
0.0011864
7.42609e-08
3.99753e-06
1.63777e-05
7.80777e-06
1.08193e-06
2.42304e-07
0.0792474
9.94262e-09
7.2068e-06
1.18514e-07
9.26293e-07
1.76513e-06
0.000460536
0.000121595
1.16634e-06
0.000391191
2.17887e-05
4.24798e-07
0.000143508
7.50815e-07
2.53313e-05
1.43075e-07
1.3133e-07
0.255752
0.0447465
0.000400164
3.32952e-07
6.37695e-09
4.49735e-06
0.195458
2.5298e-07
1.16788e-05
5.40528e-07
2.95422e-06
2.45829e-09
0.0365366
0.000111895
7.64603e-07
6.20056e-07
1.77489e-05
8.04133e-09
0.181152
1.10407e-09
0.0405981
7.98469e-05
5.13978e-06
1.54132e-08
3.3684e-06
1.33526e-06
1.02998e-06
3.65564e-06
5.09234e-06
3.0236e-10
4.72212e-09
9.64731e-05
0.0821948
2.43246e-09
3.44504e-05
5.2078e-06
9.86054e-05
3.92256e-07
0.0493522
2.34319e-06
5.15834e-05
5.55692e-05
6.11089e-08
5.89686e-05
1.98144e-06
1.73119e-05
2.91842e-08
2.69838e-08
1.08028e-05
6.2407e-09
0.00018504
4.03689e-05
2.99297e-08
8.12126e-08
0.000136293
0.000549269
0.307045
1.18171e-07
4.99655e-06
1.84665e-06
0.000371866
0.00017173
2.73554e-05
8.37931e-05
0.0807814
3.53033e-06
5.51904e-05
0.000835815
0.0682228
7.05491e-07
5.02354e-08
0.000427604
2.93808e-06
0.0424855
1.91112e-07
6.99367e-06
3.52434e-06
1.4839e-08
0.23228
9.74466e-09
1.70493e-07
6.28731e-07
2.75324e-05
0.310896
0.0586585
4.90631e-07
2.48399e-08
1.69692e-09
1.11338e-07
1.09664e-07
6.6223e-07
1.2139e-07
6.59583e-09
6.40721e-08
1.17846e-08
1.8428e-07
0.0643309
0.0381479
2.81702e-09
1.38425e-05
7.84957e-09
7.79614e-08
1.32385e-08
0.0373932
0.0824479
5.65562e-06
4.54228e-08
1.30836e-08
8.38469e-07
1.28923e-06
4.09151e-06
1.37003e-07
0.000334172
2.68624e-07
3.12675e-06
3.58562e-06
0.000189994
5.36369e-06
0.000806991
1.80829e-06
3.00116e-08
0.000495074
0.00044684
1.84977e-08
2.30934e-05
4.04328e-06
1.37537e-05
4.37138e-05
1.05348e-05
3.75272e-06
1.12979e-07
0.332635
5.03061e-07
4.044e-05
0.064359
0.000120137
1.22451e-05
1.50922e-05
1.67979e-06
2.38661e-06
2.29025e-05
6.74471e-05
5.75691e-05
3.37695e-06
4.57476e-05
7.61507e-06
3.94964e-06
2.19138e-06
5.53877e-09
6.35301e-08
4.72085e-08
6.74243e-10
1.78615e-07
3.49992e-08
7.45443e-06
1.96505e-08
3.16315e-09
1.8381e-07
1.73971e-05
4.46511e-09
9.83073e-09
8.25748e-07
1.12678e-06
1.01223e-06
8.84677e-05
6.56931e-06
0.248167
1.16566e-07
1.15997e-05
1.55395e-05
4.25529e-06
4.2303e-09
1.81368e-08
0.225335
5.6226e-07
5.73985e-09
2.36423e-06
0.226451
1.74488e-06
5.93347e-05
5.9069e-05
1.10025e-06
7.70387e-06
9.31181e-06
0.000388087
1.95446e-08
4.40919e-05
4.9717e-06
1.86165e-07
0.000324941
0.000400522
0.197358
6.79119e-06
1.37779e-06
7.39801e-06
3.86081e-05
1.61747e-05
1.974e-07
0.00262006
1.19608e-08
0.000639919
0.000416407
0.0611121
1.00502e-05
0.259438
3.14888e-08
1.29941e-07
5.18947e-06
2.5093e-05
7.45391e-05
3.26786e-06
0.000117739
3.60625e-08
9.82874e-06
1.12118e-09
2.03372e-08
1.63237e-06
0.000493586
1.01141e-07
5.38793e-09
0.000419065
2.18493e-07
0.000551633
3.49203e-06
2.02467e-06
1.51033e-06
4.54535e-07
2.01401e-05
4.59147e-06
0.000205894
6.44333e-07
8.29532e-06
0.00331406
1.21896e-06
7.27095e-09
0.000157873
2.29377e-06
4.09028e-05
4.95872e-09
0.144465
0.000117102
7.19281e-05
1.78737e-06
7.39868e-09
0.000197064
4.71379e-06
2.47906e-07
8.06024e-10
6.62849e-05
7.19248e-05
8.05459e-05
0.196818
2.92556e-06
6.12484e-06
0.000247347
1.01281e-05
6.56578e-06
2.69697e-06
8.42941e-05
3.64297e-06
0.000120569
0.184227
1.50724e-05
5.42378e-10
1.71178e-06
5.31022e-05
1.50778e-05
2.70877e-07
0.000459728
0.000884449
0.000486937
0.000879822
1.73653e-05
5.29261e-05
7.19117e-06
2.04142e-05
1.25936e-07
1.06682e-08
0.102362
0.000504534
2.86544e-06
0.00166571
5.16646e-06
2.48068e-05
0.000434662
4.33347e-06
2.27404e-06
3.23195e-06
4.06322e-07
4.23225e-05
3.01462e-05
0.000153111
2.86296e-05
5.60444e-07
6.45126e-09
2.82262e-05
9.88558e-07
2.02673e-08
0.000313278
3.03034e-06
8.05e-06
3.82441e-05
7.53727e-06
4.06083e-08
0.000601297
0.138998
4.78223e-08
5.52778e-09
2.11851e-08
0.144934
0.247452
4.30475e-07
0.0533459
5.39364e-06
2.04698e-05
8.01192e-06
8.4018e-06
1.18612e-05
1.39045e-05
2.97728e-05
0.11835
0.340846
0.393181
1.21049e-05
3.2021e-05
6.72722e-06
7.40812e-06
0.361791
1.41145e-08
0.175532
4.06475e-06
1.10139e-08
7.28871e-07
5.92467e-07
2.88543e-08
3.75423e-08
2.29665e-07
1.75149e-08
0.137339
4.45676e-08
2.91385e-05
0.0001978
2.29671e-08
4.56157e-06
7.34437e-06
6.39077e-06
6.55186e-08
0.00058749
6.47165e-06
8.60985e-07
6.89859e-05
4.25488e-06
3.13981e-05
4.66482e-06
1.18431e-06
5.25485e-07
2.02912e-05
0.00342678
4.87748e-05
9.01197e-07
1.38968e-05
8.35237e-07
2.53927e-05
0.000100519
1.20798e-05
2.22622e-06
5.46565e-06
1.15427e-06
5.79573e-05
1.34874e-07
8.17599e-06
0.041224
0.000425291
0.329214
0.000777187
0.000114864
1.58952e-08
0.0615613
1.18633e-09
4.96072e-05
1.61084e-05
8.26092e-07
8.75663e-05
1.66362e-06
9.32119e-07
4.47685e-05
8.00133e-07
2.07844e-07
1.97445e-05
6.52633e-07
2.24424e-05
0.0790268
3.56128e-07
3.80251e-05
1.39167e-06
8.0327e-07
5.57282e-10
0.000261543
9.15776e-05
3.70898e-06
1.40356e-08
7.0085e-07
0.0444018
0.00021233
9.86606e-06
1.49388e-05
1.70582e-09
8.3327e-11
9.35526e-07
4.14605e-09
4.90882e-05
3.58677e-07
2.1753e-05
1.69933e-06
1.9939e-07
6.02906e-07
3.05491e-08
4.80544e-05
9.0536e-05
4.40915e-05
5.14826e-07
2.88079e-08
9.82111e-07
2.32225e-06
0.000536634
1.00097e-06
0.162119
2.18765e-05
2.89822e-08
4.14881e-08
0.000230904
1.28536e-05
0.0011433
5.4304e-07
9.90913e-05
0.23449
3.90827e-10
0.000333871
2.70235e-05
0.0425377
1.76229e-06
0.0475063
0.0830905
0.000120046
7.58552e-06
2.01784e-05
1.12975e-08
1.56784e-05
2.71125e-05
0.000379334
1.9251e-05
6.87502e-06
2.61428e-05
0.000431762
0.000346059
0.00051541
0.000130869
1.67374e-08
8.99183e-05
0.000891628
6.33626e-06
4.01304e-06
0.00024961
0.000215313
1.38518e-05
1.87611e-05
0.0002664
1.57535e-05
0.000380562
0.00025045
1.95031e-05
2.46039e-08
3.49224e-05
0.000422987
0.0668823
2.13411e-06
5.21604e-07
4.93265e-05
1.87996e-07
8.53812e-05
8.39197e-07
0.0003976
5.83644e-07
7.04316e-05
2.51971e-08
9.99336e-08
1.10401e-05
0.000917225
0.0012049
0.339124
4.1717e-05
2.04876e-06
2.04638e-07
0.000411083
2.32442e-05
0.0338426
0.0704318
4.06668e-10
0.000790019
6.46642e-05
6.77539e-06
5.69082e-09
0.00114831
5.70485e-07
0.042756
4.99849e-08
4.8767e-09
3.01961e-05
1.14467e-06
1.32289e-06
3.74897e-05
0.0395548
2.03973e-05
2.39491e-07
8.42572e-05
0.219261
0.0432435
6.79564e-06
0.00028497
3.03954e-05
0.000579921
3.02931e-06
0.0374116
3.85753e-05
0.000187038
2.38145e-07
8.85943e-07
4.73509e-06
5.22199e-07
2.43362e-05
2.38589e-06
7.70063e-07
2.55276e-06
4.1531e-06
0.000101374
2.46411e-08
3.66565e-07
0.0806072
9.69856e-09
7.733e-08
4.34059e-05
6.34812e-08
0.000186215
3.56188e-05
0.0658923
2.34822e-05
0.26138
1.28659e-05
2.16581e-05
0.0399243
0.000160154
2.53913e-10
2.01319e-06
0.0279862
1.56524e-05
7.90105e-05
1.69055e-05
1.63609e-07
7.04289e-06
7.47152e-06
8.49713e-07
0.127588
1.09594e-06
1.03033e-07
1.77691e-06
6.6722e-07
1.52479e-08
8.72122e-05
2.50005e-06
0.274367
8.26529e-05
3.52768e-05
4.63958e-05
5.86801e-05
1.6758e-05
2.97047e-06
1.38516e-10
8.98919e-07
7.40955e-05
2.1542e-05
6.49153e-06
6.9245e-08
1.1339e-05
1.26226e-06
4.02409e-05
3.21689e-08
1.345e-07
1.23268e-06
2.86158e-05
2.19724e-05
3.3075e-05
2.92568e-08
2.25746e-08
0.00166613
2.23769e-08
1.4797e-09
2.78229e-09
1.46687e-06
0.308919
9.32426e-07
0.000116045
6.91344e-05
2.10825e-05
1.74675e-07
1.25183e-06
0.000226405
7.38692e-06
3.47036e-07
3.75959e-05
4.12523e-09
3.03165e-09
4.10887e-09
9.94941e-05
1.12219e-07
0.329039
0.000527032
3.54493e-05
0.0018405
6.84495e-07
1.71193e-05
2.5471e-09
0.0592855
8.29759e-06
6.19988e-06
1.55191e-06
4.13082e-07
1.61678e-07
0.481405
1.68516e-05
0.000437453
6.61212e-05
1.3828e-06
0.122482
3.16635e-07
3.20373e-07
4.99779e-07
7.24725e-07
3.51943e-05
5.01859e-07
2.44826e-05
1.81525e-05
0.000503082
3.60475e-06
4.21845e-10
0.00019007
3.77599e-07
0.156832
3.46604e-06
2.40869e-07
1.25312e-06
1.89534e-05
0.0606487
0.0297531
1.83952e-05
4.85666e-05
0.0905638
3.58508e-06
2.5432e-05
0.0473474
1.25447e-05
5.94176e-06
0.173226
0.0186447
1.06201e-05
3.33143e-05
1.53243e-08
3.85698e-05
0.00172629
1.03586e-05
1.14124e-05
0.00038078
1.26782e-09
0.0231258
1.05871e-08
2.88179e-05
0.194347
1.22138e-07
1.22326e-05
4.6086e-06
3.74886e-07
4.1021e-08
4.81773e-05
4.17733e-07
1.17793e-07
3.16714e-05
9.72962e-06
1.39699e-08
0.0232804
0.0440548
5.01446e-06
2.93542e-10
1.91305e-09
0.000144212
1.41479e-05
5.40344e-06
3.35696e-09
9.77431e-08
0.000132737
6.96017e-05
4.7573e-05
8.34457e-05
0.363445
1.43476e-09
0.14082
1.76476e-05
6.68157e-06
0.0562294
1.08575e-06
2.11129e-08
0.0228082
7.45766e-10
6.83416e-06
6.45557e-06
7.27113e-06
1.10189e-06
9.25591e-09
3.93779e-09
1.62652e-08
2.03784e-05
0.134024
0.212341
3.14731e-05
2.55001e-06
1.72439e-10
0.0557492
0.22553
0.000279559
1.04265e-06
1.49155e-07
0.000968586
0.000246465
2.38408e-07
1.32221e-08
2.17749e-06
8.00735e-06
3.69988e-08
1.10686e-05
6.98785e-05
0.0599535
0.204388
5.61875e-05
0.000853723
1.0035e-08
3.74747e-07
3.28694e-05
0.000180812
3.37458e-05
0.000432046
8.25922e-06
1.51392e-05
8.12577e-09
8.77783e-08
1.26574e-05
0.0582476
1.15637e-06
0.177795
1.98171e-08
1.22168e-05
2.38192e-06
1.65882e-05
1.06845e-08
1.27849e-09
1.10403e-07
3.5321e-08
1.22192e-06
0.000328119
1.02181e-08
0.0373105
1.791e-05
0.159252
1.9513e-06
3.02041e-06
1.65251e-06
1.97925e-06
1.33503e-05
3.04483e-08
2.38465e-08
1.34751e-08
3.34424e-06
9.57255e-06
0.0582315
0.0563687
5.22464e-06
1.01072e-06
5.98972e-09
2.40891e-09
2.5226e-08
1.72397e-06
0.000250094
2.02665e-07
3.6626e-08
3.5757e-09
0.0219337
2.67128e-05
4.46798e-05
0.0403684
8.78118e-07
0.310781
9.92215e-06
4.39597e-07
4.25259e-10
2.59277e-07
0.0534495
9.65094e-10
2.33042e-05
2.24984e-08
0.000703606
4.50326e-05
8.47438e-05
0.00014554
2.93801e-05
3.87368e-09
1.5974e-08
0.359212
3.29568e-05
3.51141e-05
0.000234791
4.21976e-07
8.60396e-05
9.62941e-05
3.0128e-06
3.29953e-06
0.000305455
8.25462e-08
0.000718787
0.0391472
1.42542e-06
2.06649e-07
8.33384e-05
9.06444e-07
0.0340715
0.182105
2.17908e-05
9.10489e-10
0.0041106
3.43055e-07
2.22211e-05
1.54035e-06
0.000125326
1.12253e-08
0.000880833
8.74097e-05
0.000132127
2.14582e-05
0.000123231
3.0658e-05
5.37737e-06
7.59413e-10
0.000155867
4.75208e-05
5.81806e-05
6.63936e-07
9.66511e-06
0.000121727
0.000454674
9.44029e-09
1.8668e-08
3.48965e-08
3.51758e-10
1.27392e-07
0.0216165
0.000405055
0.000144245
4.07545e-05
0.000206316
8.31434e-05
2.79596e-10
1.16329e-05
6.6403e-09
5.38932e-07
7.86269e-09
2.61338e-05
0.00203912
1.54998e-05
1.11503e-07
1.33279e-08
1.50227e-06
1.22493e-07
6.95131e-09
0.146397
9.24739e-06
0.00067312
0.00103052
0.0007301
8.99697e-09
0.000675375
0.000756972
0.00135781
0.000729048
3.7021e-09
3.55439e-10
3.4495e-06
8.66767e-06
6.83199e-05
0.000321031
0.0424757
8.30243e-06
3.30664e-05
4.47029e-06
0.000557265
3.40098e-08
1.24482e-09
0.000114692
0.000371679
0.026091
6.77649e-09
0.117911
0.000126852
3.39299e-07
9.38039e-05
4.97008e-06
8.98372e-05
2.2904e-06
9.86428e-05
6.73395e-09
9.6202e-06
0.00217098
3.67045e-05
5.82395e-08
0.00175775
4.48726e-05
1.06993e-05
0.00323427
8.698e-08
7.68756e-06
5.71373e-05
0.00010356
8.63842e-07
0.193222
5.67587e-08
8.61358e-07
2.73262e-08
0.118083
0.121018
2.06831e-06
1.82124e-06
0.00015547
0.0550621
3.32719e-08
1.10081e-05
2.14537e-05
1.3495e-05
1.2802e-06
0.195365
7.198e-06
1.66776e-05
0.00364015
1.60634e-07
7.21547e-06
1.73167e-06
2.54609e-06
1.78557e-09
0.00240453
0.00398142
1.0865e-07
7.66748e-07
1.27273e-06
0.000102349
7.66113e-09
0.0397974
2.89886e-07
1.00023e-05
1.09941e-06
5.30543e-07
4.9851e-06
3.37362e-05
1.30625e-06
5.07356e-06
0.000247824
1.60558e-06
1.3509e-06
0.042999
7.71299e-07
3.38026e-06
2.47902e-06
1.99414e-05
1.92304e-10
5.0419e-09
7.80108e-10
6.0205e-06
5.61993e-08
0.0676799
2.22807e-05
1.21336e-05
3.95839e-09
3.2778e-05
0.117482
7.9032e-05
1.38659e-05
6.19178e-05
1.25368e-05
2.01439e-07
7.87611e-08
2.4375e-05
4.39889e-06
2.71594e-06
0.00054666
9.73391e-06
4.66056e-08
2.98426e-08
2.33727e-06
7.86401e-08
7.01695e-06
4.13242e-08
1.20814e-05
1.63024e-05
1.91798e-07
7.61945e-10
0.0457021
7.11282e-09
2.67258e-09
2.52101e-05
0.0564524
2.06777e-05
2.24669e-06
1.40332e-08
1.01169e-05
5.36127e-06
2.23258e-05
6.09531e-06
7.43519e-09
1.79577e-06
1.5822e-06
5.55174e-06
4.04696e-09
4.97436e-09
4.40827e-09
5.25196e-06
1.70773e-05
9.61877e-07
1.70053e-08
7.58265e-06
5.2201e-05
1.91661e-08
2.49245e-05
4.61371e-07
5.24327e-08
4.41408e-09
3.95505e-05
2.3993e-07
2.0637e-05
1.5137e-09
2.5604e-05
1.03892e-08
1.54555e-06
0.00035088
1.34872e-07
5.51429e-09
0.0688185
2.98159e-08
0.0565831
2.44054e-07
4.63443e-08
9.60777e-06
2.58511e-05
0.0470011
5.91036e-05
0.0499316
0.0606579
9.06211e-05
1.15132e-05
0.040372
1.08457e-05
1.67015e-08
4.28455e-05
0.141146
0.0370113
0.0422109
1.19091e-08
1.04093e-05
1.54328e-08
5.57828e-06
9.90091e-07
7.916e-06
0.000171673
7.03047e-06
5.29516e-07
1.65944e-08
3.7527e-06
0.000295102
2.38154e-08
1.21086e-05
3.8421e-05
1.97716e-06
9.78646e-10
6.37229e-05
2.61949e-05
2.61398e-05
1.78127e-05
1.65924e-05
2.19081e-06
7.63685e-06
0.000153874
8.70564e-06
6.74174e-06
0.000126029
0.000457915
4.01333e-09
6.37522e-07
2.78221e-08
1.99491e-05
9.05666e-08
2.31309e-06
1.02436e-10
0.000396974
0.391856
0.0890282
0.000149944
4.91973e-09
1.13377e-05
0.0553011
0.102911
2.50489e-06
0.000271615
2.09238e-06
5.56948e-07
1.20719e-07
3.09707e-09
9.35607e-06
4.46803e-05
3.86448e-08
4.37159e-09
1.77131e-05
1.65743e-07
0.17634
0.0539187
1.16876e-05
5.24793e-09
1.15258e-08
0.0420817
5.08421e-09
2.57444e-05
9.78757e-09
0.000613699
2.27765e-08
5.29626e-06
5.14089e-08
6.10969e-09
0.00108268
0.154937
0.0646418
1.45544e-08
0.068986
4.24681e-08
1.37071e-05
1.66353e-06
0.118037
2.40025e-07
0.000162861
3.92322e-09
1.96507e-06
0.000277145
1.71754e-06
0.000165243
1.00461e-08
1.16576e-05
3.29716e-05
2.07923e-05
5.39045e-06
3.66664e-07
3.32589e-07
3.38537e-06
6.10567e-07
1.00026e-08
3.55726e-09
0.0753515
0.0371727
1.43016e-08
0.0844854
3.29204e-10
2.10448e-08
5.28435e-05
4.90053e-09
4.81129e-09
0.0402208
1.82529e-08
7.47864e-10
0.00065136
1.9762e-09
1.28847e-09
5.06685e-05
0.0930023
1.4243e-07
0.0371367
8.4355e-09
4.67194e-06
0.0503646
6.28e-06
0.00086539
6.03679e-10
7.27885e-08
1.0457e-06
1.79042e-07
0.209793
0.0456345
0.000109456
3.25746e-08
0.0462969
1.00996e-09
2.05475e-08
1.77814e-09
0.103163
0.00179382
9.24925e-06
1.29593e-09
1.29481e-06
0.0481519
0.000914989
3.64742e-07
0.000253921
0.109072
0.0862356
3.55397e-05
0.0853448
0.000926985
0.0426848
4.2103e-05
0.0657547
0.000345249
4.76882e-06
1.48043e-06
2.32138e-06
0.000458428
0.000931082
6.89055e-10
3.9187e-06
7.45387e-08
4.6285e-05
7.40796e-06
9.99577e-07
8.14194e-06
0.000297671
1.74528e-07
8.0951e-06
9.23948e-08
2.71526e-08
2.74596e-08
4.52754e-08
5.07821e-06
4.44846e-08
4.87432e-08
7.45412e-08
1.06351e-05
4.32592e-05
2.21856e-10
1.81648e-09
5.46216e-08
1.00366e-07
1.07764e-06
0.00129763
0.00210092
0.000131246
9.43841e-09
3.23115e-05
5.78931e-06
0.0463635
3.20469e-05
1.29666e-05
5.65728e-07
1.10899e-06
2.46235e-06
0.00022299
0.000117013
0.179484
0.0671912
8.23558e-08
0.000828313
0.000296512
1.41738e-08
2.67989e-06
4.60764e-06
3.77339e-08
1.73154e-06
3.95125e-06
0.0621708
1.24206e-09
8.34951e-05
1.36845e-08
0.0487916
5.12865e-05
0.035513
3.34543e-05
4.59722e-09
6.70616e-09
2.31291e-08
2.50957e-05
2.44733e-05
4.23579e-06
7.28065e-06
9.68609e-07
0.000763855
0.000290038
9.6847e-10
0.000117095
4.86913e-05
5.2891e-05
9.54268e-05
0.00296666
4.0525e-06
0.0992023
4.91256e-08
5.88846e-06
0.0383677
1.31619e-08
0.00026117
0.00717275
4.04388e-08
0.000103025
1.37042e-08
1.85994e-07
2.58635e-06
3.92903e-06
5.32611e-08
8.28341e-09
6.93179e-07
2.55076e-09
6.10298e-09
0.000126724
2.4554e-08
5.75332e-10
2.93848e-05
7.67098e-09
9.77587e-08
2.7013e-07
0.000215434
2.1975e-07
0.000169489
1.059e-07
4.69946e-08
2.26197e-05
6.61209e-05
0.00023187
0.0432192
8.07508e-05
4.29965e-05
2.30045e-06
0.319976
0.311142
1.24368e-07
2.91402e-05
1.77755e-08
0.0458822
0.0380359
0.000405764
0.0904311
0.0685126
7.16444e-06
1.10451e-09
0.000116161
1.13124e-08
1.23511e-09
3.97677e-07
1.5884e-05
7.39647e-09
1.73821e-05
3.43525e-05
5.15143e-09
2.40724e-08