/*--------------------------------*- C++ -*----------------------------------*\
  =========                 |
  \\      /  F ield         | OpenFOAM: The Open Source CFD Toolbox
   \\    /   O peration     | Website:  https://openfoam.org
    \\  /    A nd           | Version:  10
     \\/     M anipulation  |
\*---------------------------------------------------------------------------*/
FoamFile
{
    format      ascii;
    class       volScalarField;
    location    "24";
    object      SgRate;
}
// * * * * * * * * * * * * * * * * * * * * * * * * * * * * * * * * * * * * * //

dimensions      [1 -1 -3 -1 0 0 0];

internalField   nonuniform List<scalar> 
111485
(
1.40781e-09
0.00783556
0.0243372
5.70773e-11
0.0489649
3.18864e-08
0.0464872
0.00616941
0.0190702
0.00125148
0.0468593
0.00948439
0.00482701
0.29627
0.00651361
0.0302312
0.210531
2.62457
0.0103564
4.80422e-08
0.0372185
3.42424e-09
0.0269348
0.0345354
0.00876968
3.46539e-08
0.0393444
0.0017983
0.0152653
0.0481517
0.0446807
0.0196046
2.17987e-07
1.47877e-06
0.00706
9.18036e-05
0.147281
0.210017
0.00246291
0.0242231
0.0435692
0.0707847
0.0158723
0.00167451
8.21227e-05
1.58711e-06
0.0294438
0.000711814
0.0474269
4.28806e-07
1.09509e-06
1.73196e-05
4.63397e-07
0.0514813
1.51081e-06
0.0437733
0.00303567
4.44369e-08
7.07846e-05
0.00480369
0.0160777
2.65164e-07
0.00490018
0.0983155
6.5274e-06
0.0031282
0.316431
0.0943937
0.00118765
0.0063247
6.76145e-05
0.00675675
1.12643e-05
0.00300901
4.65363e-08
0.000720218
1.52326e-08
0.0411325
2.80377e-08
3.12545e-05
0.281043
0.560409
4.39658e-08
5.2414e-09
0.00940785
0.00384309
0.143738
0.0254008
0.000308067
0.00744105
0.00025942
0.0402873
0.0120099
5.8417e-05
0.0520883
6.66407e-09
0.0270677
0.00183753
0.00153835
0.00169949
1.41653e-09
0.0176692
1.9675e-06
0.0180271
0.00458283
1.64517e-05
5.83884e-09
0.00758943
0.00421575
0.00073051
0.00558979
0.00476159
0.00381978
0.00334805
1.03226e-07
3.44035e-05
3.04934e-08
6.55774e-06
0.0129095
4.66514e-09
9.17894e-08
0.00018996
0.0753265
2.27065e-06
0.00158488
0.0278172
0.000107302
0.00173701
3.01012e-10
0.000345934
0.00166277
0.0328661
0.04721
0.000175282
7.84786e-05
0.0482947
8.18333e-10
0.0425413
0.0254409
0.00273271
0.000323833
0.00199933
0.202886
0.0027126
0.0041148
0.0130623
7.61942e-10
8.98927e-10
4.76496e-08
0.0281248
0.00156021
0.0285516
0.115722
0.00469513
3.5702e-05
0.0109484
0.0161099
0.0110097
0.000823602
5.43722e-06
9.62815e-10
0.0523895
0.0225233
7.56331e-05
6.408e-05
0.00589176
0.00339982
0.0270975
0.00156952
0.000170601
1.583e-09
1.52303e-08
0.198098
1.07822e-10
0.00548521
0.00206637
5.25493e-07
9.61755e-06
3.65817e-08
5.8033e-06
9.90028e-06
3.7152e-08
0.00152014
0.0067777
0.0299276
0.00414367
0.00771308
0.00408918
0.000464524
1.78755e-07
0.00491386
5.72735e-06
7.13691e-06
0.00658282
0.010367
0.0287673
0.0114964
0.00502587
8.46216e-07
0.00680833
0.000500958
0.00169363
0.0145375
0.00233936
1.82938e-06
0.00385992
0.0249628
1.18006e-05
0.000176451
0.00792374
0.00199989
0.000380835
8.72255e-06
7.79647e-09
0.00840598
0.000312255
0.119347
7.63702e-09
0.00670133
0.0206226
0.119079
8.33262e-08
0.00331302
0.0137118
0.000277914
6.85098e-09
4.38686e-10
0.150134
0.00418362
2.35477e-05
9.36434e-05
0.00945887
0.00783671
0.161141
3.87508e-05
2.03419e-05
0.16097
4.66745e-08
0.00242549
0.00959801
0.016685
0.0116651
0.00966525
3.89952e-06
0.00195938
0.000633011
7.84811e-06
1.23808e-08
0.030952
0.157191
1.83478e-05
0.0065782
0.0108007
7.86842e-10
0.000193262
0.000113009
2.78906e-07
6.70612e-05
0.0997446
1.85292e-08
0.0147677
0.0106672
0.0036907
3.3712e-09
0.0118049
6.45191e-11
6.09171e-08
5.10144e-07
0.165033
0.0230439
0.00619979
0.00551214
0.213681
0.0124064
0.00155948
0.000818085
0.032214
0.008712
4.52635e-07
5.3657e-09
0.111621
0.0226925
0.024612
0.0118054
1.8499e-09
0.224774
0.268035
0.0030381
0.000321578
3.87413e-05
0.0138637
0.0021937
0.0019916
2.01127e-08
0.000651179
3.04381e-09
0.000358396
0.000274545
0.234078
0.0678403
0.358622
1.77508e-08
0.0860597
0.00897676
0.00172788
3.024e-09
1.14988e-07
0.0246318
0.000300605
0.0569207
0.00402574
0.0134294
0.0192065
3.04919e-05
3.05306e-08
3.5394e-08
0.0037823
0.004406
0.251278
0.184239
0.000792993
1.783e-09
8.71908e-09
1.40691e-08
8.47754e-05
0.060145
0.0118142
2.17473e-06
0.00529128
7.16114e-05
0.0608138
0.0671729
0.00598816
0.0114439
0.00933176
0.0483145
4.9966e-05
7.37763e-07
0.00951105
0.0187503
0.00489429
6.98561e-08
0.151345
0.000328229
0.00230575
0.00806075
0.000336422
0.0284616
0.0391298
0.0375029
0.00359029
0.00773819
0.0257664
0.0131755
9.10895e-06
1.95316e-07
5.46057e-07
7.13622e-07
0.0311095
0.372115
0.0326211
0.0673016
0.0530077
0.0182972
1.74085e-08
4.07889e-07
0.0167126
0.0469272
0.0819124
0.0459062
0.0496782
0.0228187
2.50227e-08
0.013514
0.000288145
4.14989e-10
0.00097978
0.0166462
1.57937e-05
0.00896535
0.00912754
0.00819419
0.00141134
0.00266384
0.00547315
4.31782e-05
1.16178e-06
0.00268311
3.89617e-07
0.00633142
0.117956
0.0303733
1.17522e-07
0.0276853
0.154925
0.00829836
0.326973
6.51426e-08
0.047813
0.0188908
7.62754e-09
0.000845817
0.00240259
3.79992e-09
0.0320463
0.0109319
0.00518478
4.5047e-07
2.60446e-08
0.000758518
3.77419e-09
0.0125072
3.62543e-06
4.3166e-10
0.0167022
4.03674e-05
0.259187
0.030055
2.00598e-09
7.96038e-05
0.0016397
9.93069e-05
0.000203912
0.0152195
0.121774
0.830678
5.57104e-05
0.207666
0.000753551
4.59764e-08
0.0389881
0.0308677
2.03801e-07
0.00141954
0.00030888
8.3222e-05
0.023713
0.0239525
0.0138793
3.70525e-08
0.3523
0.0167101
0.0228107
0.00439384
9.16497e-05
0.00127163
3.56757e-08
0.253572
0.363683
2.63501e-08
0.00820025
0.000364195
0.00010354
4.05572e-09
3.01388e-05
3.52691e-09
0.288774
0.00965658
0.00631501
0.00213983
0.00259531
1.93533e-07
0.00194516
4.99913e-07
0.0412455
1.54514e-07
5.98518e-07
0.0524101
0.0375974
4.0373e-08
1.54726e-09
0.000385096
8.46751e-08
1.60507e-06
0.00107222
2.75043e-08
6.13579e-05
6.73342e-08
0.074166
6.93723e-08
1.65975e-06
3.68276e-08
0.00703406
4.30888e-07
0.22465
0.00200044
0.237778
1.12189e-08
0.000971993
2.58951e-06
2.67803e-09
0.372578
0.144981
0.0267641
0.0251287
3.06247e-05
0.00203913
0.0823394
0.00852001
0.00105629
0.29312
2.543e-08
0.0232301
0.000108427
0.00504758
0.0590977
0.0763937
0.000114991
0.0211947
0.000248284
0.000780562
0.082018
0.00204657
2.17696e-08
0.0800319
0.0489375
3.55447e-06
1.14476e-06
1.96203e-05
1.75475e-09
0.00169677
0.0546857
3.49237e-07
1.78684e-07
0.00250691
4.43408e-09
0.0340024
2.98744e-08
0.000320802
2.05932e-09
0.11675
0.114765
0.00100052
0.01277
0.0652955
0.0817994
4.79307e-08
2.55938e-07
0.0147463
4.50412e-08
0.000202196
1.78299e-05
0.00165194
0.0426573
0.0644941
2.39474e-09
4.68742e-05
0.0177238
0.00326296
0.00174174
0.00386348
0.00688281
0.0206728
9.75072e-07
0.025454
0.00597515
2.58822e-09
0.126576
0.0413433
0.0155072
1.34603e-06
0.00488836
0.00694655
0.00226772
0.00399516
0.000387119
0.0136825
0.00131868
0.000130944
0.022884
0.128825
0.000782094
7.4464e-05
0.00359037
0.727654
3.16337e-08
0.000410427
4.59447e-06
4.0709e-05
0.00731048
0.00316768
0.00274656
0.000450622
0.000167287
0.0159548
0.0110326
5.25038e-08
0.000198622
0.00130151
2.8839e-08
6.17298e-10
5.60587e-08
3.20092e-08
0.012647
1.82096e-09
0.0347574
0.00847468
0.0019374
0.0989276
0.329998
6.03858e-05
0.00846512
0.0371549
5.53185e-08
0.0517438
1.82732e-07
1.90601e-08
4.78075e-05
0.00422128
0.121518
0.0280611
0.00625227
2.69344e-06
0.0902598
0.146184
0.0287112
0.0282608
0.00048775
0.196992
0.0415892
0.0538548
0.046682
5.96213e-06
0.000322734
0.0406597
0.00803306
0.00141546
0.0276109
0.0261065
1.14052e-06
0.0109509
0.000665725
3.26452e-05
0.0348491
0.000254029
0.000660283
0.010856
0.0406824
0.00132679
0.0215343
0.0196622
0.00721086
3.26848e-06
0.0104326
0.000333414
0.00019796
0.0171701
0.0180011
0.0357509
4.64199e-07
0.00188768
4.45455e-06
3.97423e-09
0.077842
1.61171e-08
0.136822
5.88296e-05
0.0117521
8.01549e-08
0.0295228
8.29592e-05
0.042757
1.36596e-09
0.0304094
3.01169e-07
1.65423e-08
8.17527e-07
0.32151
0.000522376
2.95932e-05
0.0411916
1.02215e-07
2.68565e-09
0.205676
0.0698027
8.3673e-05
0.00200651
0.00013028
6.48357e-08
0.0373927
0.00870658
0.179822
6.18005e-10
4.64092e-09
0.000415715
0.00107341
0.000132804
4.58939e-07
0.0631787
0.00722827
2.66166e-08
1.22948e-07
0.0456409
0.0421372
0.00227622
6.36886e-10
3.84671
0.369872
0.192044
1.61151e-08
1.88516e-08
0.0550711
0.000452591
3.95598e-05
0.000592948
0.109263
0.00263348
0.0112113
0.0636438
0.0520603
0.00191657
6.90379e-08
1.20223e-06
1.37416e-08
9.275e-09
7.71662e-08
9.33377e-10
0.0224112
7.12806e-08
1.95185e-08
3.2652e-07
0.0113014
0.0235554
1.08281e-07
5.83371e-07
0.105554
0.0143405
0.00989626
2.70047e-08
7.42945e-09
0.0372149
7.88704e-10
0.00178511
0.00263629
0.00397072
1.23616e-07
1.25697e-10
9.46085e-10
1.59419e-09
0.0146102
1.83021e-08
6.59587e-08
0.00108429
4.7923e-09
0.023291
0.00200845
2.35286e-06
0.0368615
0.340125
0.00253781
0.281362
0.000250583
0.0434483
0.20996
8.25049e-05
0.0236882
0.0676457
0.0059922
2.04635e-05
0.0890534
0.786137
0.0100344
4.07434e-08
0.00242312
0.00248896
0.00122618
9.28099e-05
1.85806e-09
1.5605e-10
0.013471
3.86595e-05
0.00273864
3.91639e-06
0.001398
0.00143157
0.0367672
0.000566187
1.5276e-08
0.0335938
8.23096e-06
0.0204908
2.77318e-08
4.98189e-05
0.000206051
1.78686e-06
3.47645e-07
0.0407142
1.5791e-09
0.010168
0.0640317
9.80338e-09
0.0726966
4.30362e-05
0.0372315
0.000609859
1.01113e-07
2.78346e-05
0.00164049
0.0458777
0.00411276
0.00132106
0.161879
0.000202401
0.00396169
1.00051e-06
1.06429e-05
0.49729
0.162632
4.31018e-08
0.242167
0.000869966
0.000162655
0.00997802
0.00020926
0.00121572
0.0229694
0.00946956
0.00225015
0.00484022
0.00198083
0.0458352
8.19294e-08
0.0330337
0.0265292
9.79308e-08
0.00841633
0.271668
0.0284287
2.9615e-07
0.00189248
1.55133e-08
0.0101913
0.226665
2.37479e-08
0.179721
0.343441
0.00135505
0.00497171
1.09516e-06
0.0486648
7.78318e-05
0.00162554
0.0012328
0.000330209
4.30154e-06
0.0455529
0.00694386
9.20555e-10
0.000429173
0.000541526
0.000912781
0.00046736
0.000864339
0.000171884
9.60046e-10
6.88758e-05
0.0226526
4.12604e-07
0.00190327
0.35209
1.7518e-07
3.31798e-08
0.00324391
0.00330487
3.24348e-09
0.000610433
8.6762e-08
1.58004e-08
1.25073e-08
4.4938e-07
5.06489e-06
1.65609e-07
0.00034801
0.0520851
1.45465e-09
5.43428e-07
0.0045188
0.116236
0.00176245
0.00920349
0.0327246
1.08369e-08
0.00028997
4.01254e-09
2.30168e-09
0.000575574
0.148612
0.0420737
7.24003e-09
6.7126e-08
0.0358732
1.8497e-08
0.0232486
4.71308e-08
0.00674307
6.84529e-09
0.00196152
0.0263282
2.80309e-09
7.57032e-07
5.59173e-07
0.00143759
6.26285e-07
2.36489e-08
2.09262e-06
0.00445707
0.0543595
0.0042143
0.000615461
0.00107015
4.31469e-08
0.00140551
0.00188057
0.043979
3.54512e-06
0.000224396
0.00539863
1.17393e-07
9.55411e-06
0.000151152
1.00793e-07
0.0082116
0.00163433
0.00316865
0.0734513
1.3677e-09
0.0228956
0.0611849
0.000121967
7.75255e-05
5.43788e-09
0.0264576
1.81527e-08
1.1378e-06
2.91356e-05
0.0521623
5.53496e-07
0.00234276
2.76584e-05
0.000849989
1.69402e-05
7.07737e-09
3.83387e-06
1.68125e-09
0.00246793
0.000646956
0.302778
3.13968e-08
5.07866e-07
0.00207726
1.49754e-10
4.79822e-05
4.46756e-07
0.0360045
0.000851184
0.0319761
1.4971e-08
0.00140537
0.000171213
6.3212e-05
0.000293593
4.75253e-08
0.00134621
0.0244877
0.13777
0.00116372
0.000318481
6.38653e-08
6.49776e-10
2.35632e-08
0.186984
0.0751507
0.00767785
6.78648e-10
0.174285
2.97868e-08
0.214699
0.00309408
7.61118e-07
9.24655e-08
3.40959e-06
6.17867e-07
0.0420273
2.12267e-06
0.000123378
0.325219
0.00687513
7.22134e-05
3.3801e-05
7.03221e-05
5.22317e-05
3.27043e-08
3.21914e-10
0.0259941
0.000428872
8.22764e-09
2.03085e-07
0.000611313
4.59385e-07
0.00154842
0.42389
1.76712e-06
0.00361958
4.00277e-10
0.000391111
2.64702e-07
0.333059
2.96828e-09
0.119412
0.00554832
0.000743747
0.0184657
0.0346009
0.000949514
2.57639e-06
0.000571591
2.31059e-06
0.00466227
6.19533e-08
1.87096e-06
8.60413e-05
2.39899e-06
0.0710213
2.76744e-07
0.00731868
0.0085661
2.06683e-09
0.000385596
8.59509e-08
0.00084594
0.000844558
6.86054e-08
0.0179987
0.000238125
5.53531e-07
0.023509
0.190785
0.00372013
0.0109846
1.51849e-10
0.0468516
8.99746e-06
1.92434e-07
0.0369878
4.95641e-06
0.114835
9.28647e-09
0.152786
0.000729186
2.09074e-09
0.0011172
4.13237e-07
2.48804e-09
0.00315874
0.00102203
0.0106049
8.4361e-09
1.11669e-06
4.65639e-08
0.000894368
5.06498e-05
0.034353
6.26202e-06
0.000912361
6.78976e-05
0.00118331
3.09324e-05
3.53412e-06
1.09126e-06
0.0183394
0.00986116
0.01827
0.0359123
0.0440824
0.00026926
0.0482155
1.28001e-09
0.00956017
1.20317e-07
6.26347e-05
0.000466158
0.00675173
0.000429599
0.000541325
0.00200382
7.83981e-10
0.00722083
0.00842366
0.000217104
0.000803949
0.0152984
0.000995438
1.6876e-06
0.0299903
1.38841e-07
5.5653e-09
0.000265421
0.0749627
0.00100051
6.59854e-07
0.0477121
0.000673504
7.22407e-07
1.384e-07
0.000601942
2.91794e-06
0.0557587
0.322046
0.000371371
0.000426357
0.022399
0.00722188
2.14741e-08
1.34511e-08
8.8935e-05
0.00404466
0.0351264
0.0551797
0.00960812
3.17964e-08
0.000323784
0.0419256
2.76843e-05
0.00116026
2.56842
0.0443682
0.122606
0.0516106
0.0218951
1.14491e-09
0.00204338
6.64423e-07
1.64079e-07
1.95313e-07
7.41841e-09
0.00281854
4.00918e-09
2.08947e-09
9.22003e-05
4.94722e-08
6.70683e-09
9.5748e-07
0.00972045
0.0603015
0.0109291
0.00319693
0.0778524
0.265092
5.82349e-09
0.18927
0.000161346
0.396284
0.0128733
1.09632e-07
9.29494e-05
0.00758537
0.263442
1.72562e-09
0.00118961
0.019238
0.0046507
1.63777e-05
0.0257035
1.08193e-06
2.42304e-07
0.0792474
9.94263e-09
0.00806023
1.18514e-07
9.26293e-07
0.00829539
0.000460945
0.00274837
1.16634e-06
0.000391191
0.000670434
4.24798e-07
0.000203109
7.50815e-07
0.0235209
1.43075e-07
1.3133e-07
0.255805
0.0447465
0.000540288
3.32952e-07
6.37696e-09
0.00466851
0.195907
0.00467919
0.0151166
0.217844
0.0202863
2.45829e-09
0.0365366
0.00314679
0.00670939
0.0369153
0.0102615
8.04134e-09
0.193676
1.10408e-09
0.0405981
0.00936083
0.0111877
1.54132e-08
0.0133248
1.33526e-06
0.0027276
0.008984
5.09234e-06
3.02361e-10
4.72213e-09
0.0029687
0.0821948
2.4325e-09
0.0042747
0.0216223
0.000102189
0.00733444
0.0493522
2.34319e-06
0.000141229
0.000847991
6.11089e-08
0.0103104
1.98144e-06
0.00257115
2.91842e-08
2.69838e-08
0.0122937
6.2407e-09
0.000220746
0.00372221
2.99297e-08
8.12126e-08
0.00459601
0.00054927
0.358868
1.18171e-07
0.248839
1.84665e-06
0.000371866
0.00017173
0.00757407
8.37931e-05
0.0807814
0.00559718
5.51904e-05
0.00109224
0.0682228
7.05491e-07
5.02354e-08
0.000427701
0.000788257
0.0424855
1.91112e-07
0.0346723
0.000949834
1.4839e-08
0.232684
9.74466e-09
1.70493e-07
2.36347e-06
0.00289933
0.312207
0.0586585
4.90631e-07
2.48399e-08
1.69693e-09
1.11338e-07
1.09664e-07
6.6223e-07
1.2139e-07
6.59584e-09
6.40721e-08
1.17846e-08
1.8428e-07
0.0643309
0.0381479
2.81702e-09
1.38425e-05
7.84957e-09
7.79614e-08
1.32385e-08
0.0373932
0.0824479
0.0169483
4.54228e-08
1.30836e-08
8.38469e-07
0.00664032
4.09151e-06
1.37003e-07
0.299333
2.68624e-07
3.12675e-06
0.0228798
0.000189994
5.36369e-06
0.00887848
0.0244291
3.00116e-08
0.00342413
0.00478797
1.84977e-08
0.0135276
0.0391574
0.0177702
0.00341716
0.0106281
3.75272e-06
1.12979e-07
0.335643
0.0104813
0.00326632
0.064359
0.00692348
0.00180784
0.0214395
0.00994467
0.000700615
0.0156105
0.00107767
0.0103663
3.37695e-06
0.0240667
0.0084205
0.00162652
0.00143297
5.53878e-09
6.35301e-08
4.72085e-08
6.74247e-10
1.78615e-07
0.00910947
0.0134785
1.96505e-08
3.16315e-09
1.8381e-07
1.73971e-05
4.46512e-09
9.83073e-09
8.25748e-07
1.12678e-06
0.00467563
0.000299631
0.0216715
0.24824
1.16566e-07
1.15997e-05
0.0298278
1.19256e-05
4.2303e-09
1.81369e-08
0.232441
5.6226e-07
5.73986e-09
4.67824e-06
0.234159
0.0134834
0.0334241
0.0345165
1.10025e-06
0.0138945
0.000355303
0.000388087
1.95446e-08
0.0119352
4.9717e-06
1.86165e-07
0.0156871
1.04489
0.19753
6.79119e-06
1.37779e-06
0.0168813
0.0196454
0.0178563
0.00557356
0.00706714
1.19608e-08
0.00064099
0.00041641
0.0611121
1.00502e-05
0.276249
3.14888e-08
0.00197864
0.0246195
0.0175057
0.0110799
3.26786e-06
0.00605918
3.60625e-08
9.82874e-06
1.12118e-09
2.03372e-08
0.00244799
0.88552
1.01141e-07
5.38794e-09
0.000423314
0.0229268
0.00177002
0.00682333
0.0321635
0.00467321
0.0203762
2.01401e-05
4.59147e-06
0.000205894
0.0289224
0.00553155
0.00331409
1.21896e-06
7.27095e-09
0.000157873
0.021782
0.00265494
4.95872e-09
0.149277
0.0576226
0.00631268
0.00610259
7.39868e-09
0.000197064
0.00675966
0.0222611
8.0603e-10
0.000415357
0.0148065
0.00104649
0.205846
0.00462569
0.00775109
0.000247347
0.00320004
0.0205572
0.0350566
8.42945e-05
0.0220231
0.000120569
0.20016
0.000164629
5.42381e-10
0.00246965
0.00748301
0.00042276
0.011314
0.000460161
0.00100646
0.000500598
0.0428069
0.00362473
5.29261e-05
0.0370172
0.00128397
1.25936e-07
1.06682e-08
0.102362
0.00051894
0.00104469
1.05898
0.0345339
0.0121093
0.000434848
0.0444635
2.27404e-06
3.23195e-06
0.003786
4.23225e-05
0.00199601
0.00392037
0.00217057
0.0045017
6.45126e-09
0.000213791
0.10417
2.02673e-08
0.0136656
0.00737804
8.05e-06
0.00390641
0.000136133
4.06083e-08
0.000601303
0.13908
4.78223e-08
5.52779e-09
2.11851e-08
0.149072
0.252259
0.0135704
0.0533459
0.00459119
0.0317761
8.01192e-06
0.00777661
0.0120154
0.0229543
0.00150013
0.11835
0.34135
0.402039
0.0100783
0.00880924
0.0354204
0.157332
0.364937
1.41145e-08
0.175539
0.0475567
1.10139e-08
0.000406194
5.92467e-07
2.88543e-08
3.75423e-08
2.29665e-07
1.75149e-08
0.140471
4.45677e-08
0.00692236
0.00128238
2.29671e-08
0.00361074
7.34437e-06
0.0132861
6.55186e-08
0.00061397
6.47165e-06
0.0207196
0.00022319
6.69285e-06
0.00411608
0.0271215
0.0157986
0.00375098
0.0260938
0.00342678
0.0223012
0.0519516
0.009435
8.35237e-07
0.00104285
0.000332598
0.0054212
0.00968264
0.00059118
1.15427e-06
5.79573e-05
1.34874e-07
0.00335393
0.041224
0.000772443
0.329417
0.00248368
0.000361669
1.58952e-08
0.0615613
1.18635e-09
0.00841981
0.0203131
0.00112611
9.67576e-05
0.00176754
0.00662006
0.00178844
0.000784089
0.00623391
0.00598754
0.00259263
2.24424e-05
0.0790268
3.56128e-07
0.0122449
0.0103098
8.0327e-07
5.57287e-10
0.000261543
0.00823133
0.0173264
1.40356e-08
0.00214967
0.0444018
0.000212915
0.00439607
0.0860503
1.70582e-09
8.33271e-11
0.003444
4.14606e-09
0.000104374
0.0114265
2.1753e-05
0.0103402
0.0310362
0.018222
3.05491e-08
0.00152664
9.0536e-05
0.000133041
0.0461077
2.88079e-08
9.82111e-07
0.0101056
0.000536634
1.00097e-06
0.162161
0.000924327
2.89822e-08
4.14881e-08
0.000230904
8.48774e-05
0.00234007
0.00297136
0.0245481
0.24261
3.90829e-10
0.000334561
0.000715616
0.0425377
1.76229e-06
0.0475063
0.0830905
0.000120046
7.58552e-06
2.01784e-05
1.12975e-08
1.56784e-05
2.71125e-05
0.000379336
1.9251e-05
0.000318909
2.61428e-05
0.000682085
0.000346059
0.000615314
0.000130869
1.67374e-08
0.0272875
0.00938557
6.33626e-06
0.0814617
0.00024962
0.000215314
1.38518e-05
0.00116498
0.0002664
0.00263801
0.000386632
0.001038
1.95031e-05
2.46039e-08
0.00119066
0.000423008
0.0668823
2.13411e-06
0.0365559
4.93265e-05
0.0350277
8.53812e-05
8.39197e-07
0.000399302
0.0264028
0.00740175
2.51971e-08
0.000301206
1.10401e-05
0.00438641
0.00122344
0.340767
4.64843e-05
2.04876e-06
0.0191822
0.00156499
0.00497293
0.0338426
0.0704318
4.06672e-10
0.020546
0.00363791
0.0498354
5.69084e-09
0.00114878
5.70485e-07
0.042756
4.99849e-08
4.8767e-09
0.00322403
0.00211502
0.00290651
0.298626
0.0395548
0.025161
0.0338653
0.0159741
0.220915
0.0432435
0.00486338
0.00469418
0.00570404
0.000580196
0.00945976
0.0374116
0.00143311
0.00142074
0.0307747
1.93186e-06
0.00330516
5.22199e-07
0.0174541
2.38589e-06
7.70063e-07
0.00156692
4.1531e-06
0.00570856
2.46411e-08
3.66565e-07
0.0806072
9.69856e-09
7.73301e-08
0.000838904
6.34812e-08
0.000685599
3.56188e-05
0.0658923
0.0164905
0.266385
0.00753431
0.00686178
0.0399243
0.548738
2.53913e-10
0.064231
0.0279862
0.0163172
0.0230258
0.00226849
0.0526315
7.04289e-06
7.47152e-06
8.49713e-07
0.129619
1.09594e-06
1.03033e-07
0.0165693
6.6722e-07
1.52479e-08
0.00530084
2.50005e-06
0.285958
8.27151e-05
3.52768e-05
4.63958e-05
5.86801e-05
0.00145043
0.00637115
1.3852e-10
0.0216966
0.000411785
2.1542e-05
0.0948857
6.9245e-08
0.0145545
0.0169447
0.00359497
3.21689e-08
0.0169601
0.00962708
0.000889092
0.00517213
0.011724
2.92568e-08
2.25747e-08
0.00166789
2.23769e-08
1.47971e-09
2.7823e-09
0.0185121
0.355127
0.00430437
0.0022054
6.91344e-05
0.0475315
0.0432508
0.00398143
0.00239132
0.00887191
0.0196773
0.00266234
4.12523e-09
3.03165e-09
4.10887e-09
0.00699456
1.12219e-07
0.352423
0.000527032
0.000768303
0.00184107
0.00247532
0.0207902
2.54711e-09
0.0592855
0.00245549
0.000374935
1.55191e-06
4.13082e-07
1.61678e-07
0.481442
0.000309507
0.000581633
0.000869869
0.00969865
0.204153
3.16635e-07
3.20373e-07
4.99779e-07
0.00359741
0.0164991
0.0189386
0.0331209
0.00164982
0.00342832
3.60475e-06
4.21845e-10
0.00019007
3.77599e-07
0.165582
0.02116
2.40869e-07
1.25312e-06
1.89534e-05
0.0606487
0.0297531
1.83952e-05
0.0133197
0.0905638
0.00089396
0.406299
0.0473474
2.53145e-05
0.0217092
0.173951
0.0186447
1.06201e-05
0.00494226
1.53243e-08
0.0139671
0.0017272
0.0234391
1.14124e-05
0.00038078
1.26782e-09
0.0231258
1.05871e-08
2.88179e-05
0.38132
1.22138e-07
0.00587919
0.00120548
3.74886e-07
4.1021e-08
0.00202686
4.17733e-07
1.17793e-07
0.0106691
0.000151112
1.39699e-08
0.0232804
0.0440548
0.0162478
2.93543e-10
1.91306e-09
0.000597251
0.00262801
0.00309597
3.35696e-09
9.77432e-08
0.000132737
0.0038205
0.00189301
0.0126486
0.367078
1.43476e-09
0.141573
0.0110937
0.00624173
0.0562294
1.08575e-06
2.11129e-08
0.0228082
7.4577e-10
0.0296722
0.00488152
0.00577301
1.10189e-06
9.25591e-09
3.9378e-09
1.62652e-08
2.03784e-05
0.134025
0.212556
0.00211826
2.55001e-06
1.72443e-10
0.0557492
0.22553
0.0341753
0.111977
1.49155e-07
0.000968587
0.000246465
2.38408e-07
1.32221e-08
0.00367665
0.00616206
3.69988e-08
1.10686e-05
0.00285128
0.0599535
0.205059
0.00104999
2.00252
1.0035e-08
3.74747e-07
0.0114076
0.000710232
3.37458e-05
0.635076
0.000590362
0.00598695
8.12577e-09
8.77783e-08
1.26574e-05
0.0582476
0.00819634
0.177883
1.98171e-08
0.0244916
0.0184578
0.825429
1.06845e-08
1.27849e-09
1.10403e-07
3.5321e-08
0.00654507
0.0003282
1.02181e-08
0.0373105
0.0179607
0.160039
0.00457624
3.02041e-06
1.65251e-06
0.0276846
1.33503e-05
3.04483e-08
2.38465e-08
1.34751e-08
0.0203714
9.57255e-06
0.0582315
0.0563687
0.0246555
0.0114632
5.98972e-09
2.40891e-09
2.5226e-08
0.0146967
0.000250288
2.02665e-07
3.6626e-08
3.57573e-09
0.0219337
0.0023469
0.010911
0.0403684
0.00190746
0.311858
0.00476697
4.39598e-07
4.25275e-10
2.59277e-07
0.0534495
9.65094e-10
0.0182568
2.24984e-08
0.0144095
4.50326e-05
0.00160169
0.00014554
0.00242501
3.87369e-09
1.5974e-08
0.369032
0.153165
3.51141e-05
0.00379095
4.21976e-07
0.000464212
9.62941e-05
3.0128e-06
3.29953e-06
0.000305509
8.25462e-08
0.00100754
0.0391472
0.0337595
2.06649e-07
8.33384e-05
9.06444e-07
0.0340715
0.182112
0.000153407
9.1049e-10
0.00966325
3.43055e-07
0.00264335
0.0173371
0.00140049
1.12253e-08
0.0008856
0.000531791
0.000134317
0.0040756
0.000123529
0.00169559
5.37737e-06
7.59415e-10
0.00015628
0.00557648
0.000298213
6.63936e-07
9.66511e-06
0.000121727
0.563535
9.4403e-09
1.8668e-08
3.48965e-08
3.51763e-10
1.27393e-07
0.0216474
0.00058641
0.00112265
0.000107371
0.000206316
0.00149458
2.79597e-10
0.00521338
6.6403e-09
5.38932e-07
7.86269e-09
2.61338e-05
0.002053
1.54998e-05
1.11503e-07
1.33279e-08
0.0136532
1.22493e-07
6.95131e-09
0.156409
9.24739e-06
0.0760472
0.122633
0.54796
8.99699e-09
0.193958
1.07789
1.0499
0.608076
3.70212e-09
3.55447e-10
0.00456282
0.00429436
6.83199e-05
0.0105074
0.0424757
0.0300157
3.30664e-05
4.47029e-06
0.00125682
3.40098e-08
1.24482e-09
0.000125051
0.000410517
0.026091
6.7765e-09
0.117914
0.000126852
3.39299e-07
0.000111308
0.00781083
0.00156075
2.2904e-06
0.00764603
6.73396e-09
0.00328114
0.0021714
0.00707304
5.82395e-08
0.00175777
0.00550322
1.06993e-05
0.00323427
8.698e-08
0.0298211
5.71373e-05
0.0089148
8.63842e-07
0.193222
5.67587e-08
8.61358e-07
2.73262e-08
0.118083
0.121018
2.06831e-06
0.0111171
0.00884383
0.0550621
3.32719e-08
0.0301512
0.0158688
0.172646
1.2802e-06
0.195432
0.0231864
0.0425493
0.00364021
1.60634e-07
0.0531412
1.73167e-06
0.21217
1.78557e-09
0.00240458
0.00398146
1.0865e-07
5.72792e-05
1.27273e-06
0.019374
7.66114e-09
0.0397974
2.89886e-07
1.00023e-05
1.09941e-06
5.30543e-07
0.000257953
0.00189327
0.124702
5.07356e-06
0.000247824
0.0380127
1.3509e-06
0.042999
7.71299e-07
3.38026e-06
2.47902e-06
0.00551322
1.92304e-10
5.04191e-09
7.80109e-10
0.00304947
5.61993e-08
0.0676799
2.22807e-05
0.00306891
3.95839e-09
0.00567637
0.334578
0.00518353
0.0052653
0.0246772
1.25368e-05
2.01439e-07
7.87612e-08
0.00299288
0.00160014
2.71594e-06
0.00054666
0.000576617
4.66056e-08
2.98426e-08
0.309865
7.86401e-08
0.0198534
4.13242e-08
0.00218191
0.00295038
1.91798e-07
7.61957e-10
0.0457021
7.11283e-09
2.67259e-09
0.0164378
0.0564524
0.00436244
2.24669e-06
1.40332e-08
0.00642306
5.36127e-06
0.011565
6.09531e-06
7.43519e-09
0.00214476
6.74968e-05
0.129417
4.04699e-09
4.97436e-09
4.40827e-09
0.00313746
0.164161
9.61877e-07
1.70054e-08
7.58265e-06
0.00142586
1.91661e-08
0.0177404
0.0284942
5.24327e-08
4.41408e-09
0.00670379
2.3993e-07
2.0637e-05
1.51371e-09
2.5604e-05
1.03892e-08
0.0630864
0.00035088
1.34872e-07
5.51429e-09
0.0688185
2.98159e-08
0.0565831
2.44054e-07
4.63443e-08
9.60777e-06
0.00693092
0.0470011
0.00801329
0.0499316
0.0606579
0.531078
0.00254906
0.040372
1.08457e-05
1.67015e-08
0.00227984
0.141146
0.0370113
0.0422109
1.19091e-08
0.00685128
1.54328e-08
0.0043294
9.90091e-07
0.00870916
0.000171673
0.0517885
5.29516e-07
1.65944e-08
0.0199397
0.000295102
2.38154e-08
0.0243283
0.000283053
1.97716e-06
9.78656e-10
0.0325682
0.00908067
0.00600276
0.000789972
0.00169011
0.0158989
0.000955294
0.00443383
8.70564e-06
0.0266056
0.000126029
0.000457915
4.01333e-09
6.37522e-07
2.78221e-08
0.00964882
9.05666e-08
2.31309e-06
1.02437e-10
0.000401399
0.391863
0.0890282
0.00222494
4.91978e-09
0.00397223
0.0553011
0.102912
0.00294691
0.000271615
0.0414945
5.56948e-07
1.20719e-07
3.09707e-09
0.00274351
0.00117825
3.86448e-08
4.3716e-09
0.00230154
1.65743e-07
0.785175
0.0539187
0.093751
5.24793e-09
1.15258e-08
0.0420817
5.08424e-09
0.00920314
9.78757e-09
0.000647266
2.27765e-08
0.00892158
5.14089e-08
6.10969e-09
0.00108268
0.154937
0.0646418
1.45544e-08
0.068986
4.24681e-08
0.00382091
0.169643
0.118037
2.40025e-07
0.000486706
3.92322e-09
1.96507e-06
0.000278166
0.0156401
0.000301359
1.00461e-08
0.000633698
0.00299806
0.00493678
0.00756005
3.66664e-07
3.32589e-07
3.38537e-06
6.10567e-07
1.00026e-08
3.55728e-09
0.0753515
0.0371727
1.43017e-08
0.0844854
3.29213e-10
2.10448e-08
0.0686137
4.90053e-09
4.81129e-09
0.0402208
1.82529e-08
7.47865e-10
1.00935
1.97621e-09
1.28848e-09
0.00193901
0.0930023
1.4243e-07
0.0371367
8.4355e-09
0.0209657
0.0503646
6.28e-06
0.00086544
6.03679e-10
7.27885e-08
1.0457e-06
1.79042e-07
0.31992
0.0456345
0.000257285
3.25746e-08
0.0462969
1.00996e-09
2.05475e-08
1.77814e-09
0.103163
0.00179385
0.000110613
1.29595e-09
1.29481e-06
0.0481519
0.000915074
3.64742e-07
0.000254199
0.109072
0.0862356
3.55397e-05
0.0853448
0.000926989
0.0426848
4.2103e-05
0.0657547
0.000345249
0.0288469
1.48043e-06
0.00672672
0.000458428
0.000933241
6.89056e-10
0.00130288
7.45387e-08
0.00378293
0.024297
9.99577e-07
0.00233981
0.000311305
1.74528e-07
0.0101644
9.23948e-08
2.71526e-08
2.74596e-08
4.52754e-08
5.07821e-06
4.44846e-08
4.87432e-08
7.45412e-08
0.268366
4.32592e-05
2.21857e-10
1.81649e-09
5.46216e-08
1.00366e-07
0.0299607
0.767267
0.00210395
0.000141025
9.43841e-09
0.00201879
0.00139384
0.0463635
3.20469e-05
1.29666e-05
5.65728e-07
1.10899e-06
2.46235e-06
0.00022299
0.000117013
0.179849
0.0671912
8.23558e-08
0.00106128
0.000300218
1.41738e-08
0.0241876
4.60764e-06
3.77339e-08
1.73154e-06
0.162112
0.0621708
1.24206e-09
0.0251459
1.36845e-08
0.0487916
5.12865e-05
0.035513
0.0532414
4.59723e-09
6.70616e-09
2.31291e-08
2.50957e-05
0.00565028
0.22518
0.027616
0.0416688
0.00448082
0.000540886
9.68474e-10
0.000117095
0.138545
0.00127864
9.54268e-05
0.00296675
4.0525e-06
0.0992023
4.91256e-08
0.205447
0.0383677
1.31619e-08
0.000488279
0.00717275
4.04388e-08
0.0096466
1.37042e-08
1.85994e-07
0.197982
0.0295983
5.32611e-08
8.28342e-09
6.93179e-07
2.55077e-09
6.10298e-09
0.000126724
2.4554e-08
5.75333e-10
0.00309595
7.67098e-09
9.77587e-08
2.7013e-07
0.000229298
2.1975e-07
0.000169489
1.059e-07
4.69946e-08
2.26197e-05
6.61209e-05
0.00358135
0.0432192
8.07508e-05
0.00503286
2.30045e-06
0.320335
0.315613
1.24368e-07
0.00344485
1.77755e-08
0.0458822
0.0380359
0.000405764
0.0904311
0.0685126
7.16444e-06
1.10452e-09
0.00246126
1.13124e-08
1.23511e-09
3.97677e-07
1.5884e-05
7.39648e-09
1.73821e-05
0.0355686
5.15143e-09
2.40724e-08
0.338053
1.51954e-09
0.0172818
8.29479e-06
0.00132999
9.72958e-09
0.000442173
0.000145779
0.239762
0.00794756
0.0239824
0.000182964
0.0403489
0.000271218
0.0754292
0.000153798
0.000227111
0.00984271
0.0581151
0.000324634
0.00127715
4.32113e-06
1.7885e-07
0.00111554
0.000224798
0.0157733
0.0121083
0.000147695
1.90753e-06
0.00548952
0.00521607
0.0185312
2.18811e-09
0.0123044
0.0166508
0.00277285
0.00149506
0.00131686
0.0032698
0.0189718
0.0408608
0.00715246
0.011076
0.00799662
9.06179e-05
0.00291524
0.00363837
0.0010847
0.00260601
0.0141789
0.0137641
0.0193474
0.000121945
0.0115001
0.000423276
0.0051069
0.00285863
0.00035563
0.002351
0.000204269
0.075814
0.00398932
0.00123634
0.000142325
0.000728447
0.0158481
0.00246304
0.216955
0.00354642
6.8184e-10
0.231802
0.0460943
0.021661
0.00715616
0.0203084
0.000407038
0.00865654
0.463434
0.00213692
0.00137769
0.0025115
0.175102
0.00119183
0.0745125
7.61273e-05
7.72455e-08
1.31196e-08
0.00223729
0.00619533
0.0118371
0.070954
0.006781
0.060924
0.0549882
0.0718606
2.90124e-08
0.0070252
0.00263399
0.0249346
1.05868e-06
0.00635129
9.223e-08
0.225573
0.0116456
0.00754874
0.221391
5.14594e-09
8.98586e-08
0.00223027
0.000111658
0.000766368
1.55924e-07
0.006571
0.000974736
0.0780992
9.37551e-07
0.0223535
0.00309708
0.000351873
0.000126711
0.00238684
0.00130992
2.4649e-07
0.00188289
5.31718e-05
9.76836e-09
0.269322
0.00380791
0.0025557
0.0101933
0.00128796