/*--------------------------------*- C++ -*----------------------------------*\
  =========                 |
  \\      /  F ield         | OpenFOAM: The Open Source CFD Toolbox
   \\    /   O peration     | Website:  https://openfoam.org
    \\  /    A nd           | Version:  10
     \\/     M anipulation  |
\*---------------------------------------------------------------------------*/
FoamFile
{
    format      ascii;
    class       volScalarField;
    location    "20";
    object      p;
}
// * * * * * * * * * * * * * * * * * * * * * * * * * * * * * * * * * * * * * //

dimensions      [0 2 -2 0 0 0 0];

internalField   nonuniform List<scalar> 
111485
(
7.87167
0.027223
0.017653
7.87303
0.0109991
7.6119
0.0109794
0.0193183
0.011425
-0.00119516
0.0103342
0.00803188
0.0146517
-0.000495143
0.0125159
0.0384595
0.0264815
8.793
0.0161849
7.87382
7.87408
7.61495
0.00871954
0.0273616
0.00577788
7.84815
0.0140106
0.0451931
0.0161595
7.87248
-0.083075
0.0163087
7.87554
7.61086
8.57315
7.57167
-0.0596663
0.051864
-0.113795
0.0216057
7.65836
-0.00120179
0.0222957
-0.0312225
-0.258428
7.88529
-0.0156641
0.0231146
-0.00610746
7.91617
7.91432
7.36346
7.92282
-0.0467109
7.92779
0.0248521
0.0164756
7.61981
-0.0951935
0.0189861
0.0201841
7.87212
0.0189886
-0.0728374
7.65893
0.02445
5.1009
0.017598
0.00539465
0.016359
-0.141711
0.0308029
7.72659
0.00546621
7.87737
0.0298102
7.61475
-0.0043696
7.6134
8.05843
-0.112319
-0.0328983
7.61455
7.87381
0.0238322
0.00946447
1.74966
-0.0526717
-0.104623
0.0379925
-0.211653
0.0114359
0.022537
0.0460478
-0.00109856
7.87353
7.87217
-0.03573
-0.744381
0.0679404
7.87213
0.00622469
7.60055
-0.00867081
0.0110265
7.91394
7.6181
0.0154311
0.00906636
-0.346671
0.021037
0.0329294
0.0169635
0.00676207
7.84473
0.03099
7.86113
7.61206
0.0108251
7.87469
7.84713
6.66417
7.61532
7.62001
-0.00198306
8.95365
6.62661
0.0188869
7.87415
0.388683
-0.10341
-0.0368161
7.8779
6.51089
6.79982
0.0118953
7.61463
0.0319779
0.00917765
0.0275768
-0.0380251
0.0107212
0.0168622
0.0186819
-0.0222362
0.0328364
7.61458
7.87306
7.62456
0.0172833
0.0144202
7.87171
-0.0718105
0.00923372
-0.662536
0.0191916
0.0148435
0.00979407
-0.519933
7.87867
7.87331
0.0164787
0.00770311
-0.479831
-0.600126
0.025181
-0.0640592
7.64697
-0.441601
-0.40829
7.6193
7.87261
0.00666657
7.61644
0.0291578
0.0174266
7.66935
7.70523
7.864
7.81321
7.67639
7.87238
0.0240942
0.0193676
0.0265658
0.0700185
0.00179213
0.0276015
-0.0491319
7.87284
0.0152791
7.70035
7.86039
0.0355745
-0.00753852
-0.0473625
0.0316036
0.0160423
7.87822
0.022983
0.0182244
5.30236
-0.0220871
0.025324
7.86828
0.0314211
-0.00950131
7.69916
-0.0538318
-0.0261091
0.0135839
0.0141228
7.66914
7.87161
0.0279075
4.95875
-0.0371664
7.61611
0.0304506
0.0334048
-0.00325446
7.87029
0.0196552
-0.0627429
5.99036
7.6162
7.61943
-0.117598
-0.588253
7.72689
7.29743
0.0316068
0.0229671
-0.0820355
7.72489
7.80685
-0.0707415
7.87504
0.00787544
0.0290224
0.0293711
0.0168675
0.0285535
7.62066
-0.101367
0.0144795
7.62354
7.61459
-0.0519857
0.032004
7.7847
0.0304154
0.0289146
7.87325
6.35514
-0.0260455
7.8883
8.0248
7.18651
7.87397
0.0252414
0.0186638
-0.0104963
7.8746
0.0291294
7.87283
7.87087
7.87777
-0.0781459
-0.0107965
0.0253146
0.016528
0.00150266
0.0191904
0.0167274
-0.0802399
0.0101671
0.0207269
7.57353
7.873
-0.0864378
0.0195387
-0.0932854
0.0256864
7.87421
0.02612
0.0129117
0.0195108
0.017617
-0.110924
0.0145286
0.0180155
-0.0238829
7.61637
-0.0127802
7.61651
8.73911
8.0918
-0.124527
-0.010927
0.00991379
7.86726
7.68037
0.0270629
0.0262705
7.87147
7.86937
7.93136
0.0179338
0.029812
0.0202497
0.0167432
0.012596
7.22702
7.62236
7.87428
0.0292053
3.27514
-0.00425139
-0.113611
-0.087536
7.61535
7.87137
7.8721
6.79339
0.0240925
0.0184892
7.60879
0.0269117
7.78093
7.86409
-0.0344682
0.0244731
0.00323201
0.0270511
7.98575
6.75751
7.61179
0.0242747
0.0198757
-0.0842371
7.65224
0.451914
-0.15134
0.018311
0.0289229
1.27095
0.0113921
7.61312
0.00620942
0.0302542
-0.104472
-0.0406193
0.00777927
7.6137
7.87572
7.61681
7.87625
0.0261514
0.0240128
-0.0131847
0.0160472
7.63202
0.0118995
7.6192
7.87918
0.0124949
8.13935
6.95008
7.91455
7.56705
0.0179659
7.61846
0.0173192
0.0169496
7.6132
0.00544224
0.0260851
7.85506
0.0258224
0.0117157
0.0317205
-0.048108
0.0407218
0.0300586
7.99476
7.87382
-0.0200196
7.63643
0.00527882
-0.0470028
7.66771
7.61893
0.0262679
0.00900241
-0.000749316
0.0238265
7.61445
-0.0805375
0.00344573
7.60985
-0.0339868
-0.0114186
7.87063
7.87262
0.0248868
0.00596156
7.59681
7.86505
5.8582
7.87148
0.0107704
7.61613
7.87244
-5.27033e-05
-0.0966535
-0.00865849
0.0190726
7.61305
6.81144
-0.00669394
6.90861
-0.0294941
-0.00246479
0.00495925
5.27475
6.98039
-0.489528
-0.282858
7.87001
-0.0510983
0.0106831
7.86837
-0.510042
-0.00174326
6.94754
0.00529292
0.00682007
0.0386135
7.61431
0.268367
0.00405399
0.0490226
-0.136369
6.60324
-0.603306
7.87086
-0.0430075
-0.168894
7.61991
-0.00560279
-0.00986208
6.42125
7.87356
7.47221
7.87304
0.0121628
0.0782403
0.0109289
0.0106891
-0.0563136
7.61666
-0.0452786
7.88398
0.0238471
7.60093
7.88134
7.88834
0.00125338
7.87452
7.87157
8.34602
7.87055
7.6279
-0.0189536
7.61785
7.41811
7.61365
7.85907
7.60663
7.88052
7.61534
-0.00112443
7.61219
-0.022442
0.00160947
-0.082143
7.62136
-0.0197208
7.62131
7.87141
-0.0047531
-0.00449683
0.0419212
-0.124298
7.32318
-0.0127533
-0.0223821
0.0230526
-0.0144477
-0.00234138
7.87375
-0.00423896
6.43248
0.00442447
7.616
-0.0193555
6.65671
0.0225082
0.0156327
8.2919
7.68067
-0.0326335
7.87183
-0.0118465
-0.0196622
7.62668
7.6337
7.92246
7.61868
-0.979097
-0.0120481
7.60995
7.6241
0.00908025
7.61493
-0.0147877
7.61394
-0.0190876
7.87167
0.00829844
0.00687717
0.0512304
0.0216196
7.59309
-0.128538
7.60812
7.61567
0.00359309
7.61712
-0.00154303
7.92863
-0.0331345
7.87303
0.023086
7.87411
6.95608
-0.111397
-0.0473524
-0.0163097
0.00768864
-0.0278285
-0.00466753
7.62364
-0.0233852
-0.027837
7.61551
-0.0523631
-0.063373
-0.00853369
7.68334
8.03452
0.0317166
-0.0395863
3.67766
7.72021
-1.18655e-05
0.0200982
0.00452685
0.00152862
0.155911
2.52523
6.8624
-0.701076
3.13886
7.87315
0.0092267
7.63572
6.98694
0.0300924
2.46908
-0.722323
1.41847
6.86068
-0.0131596
0.0154532
7.62925
7.44513
0.0225303
7.87969
7.6149
7.6157
7.61951
-0.000971455
7.61774
7.82886
0.00549382
0.0257015
6.02048
-0.0298955
7.31012
0.0267842
7.92167
7.62157
-0.00617823
7.61521
7.61958
6.95379
0.0461613
4.63879
-0.0249341
0.0375884
7.88792
-0.225414
-0.068201
0.00462431
-0.0148034
0.252221
0.000123667
7.61851
-0.00760513
0.0074681
7.87586
0.0204165
-0.021388
0.0131512
0.0356673
0.0131482
0.0121439
7.88584
-0.00046208
-0.0556667
6.93254
0.0139318
0.0133974
4.83832
0.0387969
0.014348
0.00427726
0.00713855
0.0157472
0.0331465
7.75913
0.00955629
-0.00125309
8.2302
-0.00506724
-0.019257
0.0360513
7.61814
0.0494364
7.89036
7.61504
7.62814
7.6176
0.0167101
7.04668
-1.04692
7.86862
7.55543
0.004405
-0.00129359
7.87072
-0.0102768
7.86989
7.87287
7.92402
-0.00749817
0.00694611
6.98354
7.81958
7.61765
7.61769
-0.0651711
0.0201779
6.80158
0.00214405
-0.412246
7.62227
0.00974801
-0.0167154
0.0828117
7.61411
7.6157
0.0220813
0.0309589
6.91749
7.61982
7.60554
0.0159735
7.87603
7.8706
7.6174
0.00601834
0.0203155
7.6143
8.47997
8.21282
0.148841
7.62151
7.61357
-0.0220087
-0.0741066
6.90156
5.94699
1.13561
-0.0117468
0.00236769
7.59225
-0.0200102
-0.00341791
7.61485
7.92142
7.61416
7.61649
7.62027
7.61365
0.0227191
7.87101
7.61487
7.67398
0.0140991
0.0157315
7.87833
7.93474
-0.0244805
0.0248078
0.0344687
7.86985
7.61551
0.0252143
7.87363
-0.00786994
0.0186038
0.0411959
7.85107
7.87221
7.87207
7.61687
0.0353388
7.6155
7.61462
-0.0327558
7.8722
0.0340622
0.00627251
7.63773
0.0347758
7.84116
0.0237319
-0.00578165
-0.0237001
-0.0169905
-1.28065
7.23048
0.0217738
-0.0187796
0.000918194
7.78779
-2.1136
7.14577
0.0237197
7.61954
-0.0283222
-0.0135852
-0.0317612
8.07991
7.87224
7.87371
0.0289891
7.30694
-0.026409
7.44425
0.0255813
0.034164
0.00953078
0.0238885
7.6133
7.64057
7.74863
0.026495
7.61687
7.228
-0.157258
7.61876
7.62566
7.87371
7.61461
0.0101255
7.60317
7.61673
-1.57361
7.2893
7.63827
7.06766
7.61688
-0.0366488
0.0134227
7.8716
0.0169362
1.00847
-0.0366716
-0.385202
0.0239736
7.62193
-0.00785579
-0.0316893
-0.0357567
7.87317
-2.64262
0.0101831
6.46924
-0.00392853
-0.116871
-0.102332
0.00352578
0.0269889
-0.139514
0.0385379
0.0277728
7.59538
7.63064
0.0112223
-0.000364248
7.62082
0.013814
0.00686504
0.0220892
7.61233
-0.12053
7.61538
0.0196802
0.0136129
7.61417
-0.066254
0.0274104
-0.158675
-0.0218315
7.57081
0.0160013
-0.152901
-0.0737621
-0.156412
-0.0392786
7.60599
7.62604
-0.0228525
7.61459
0.0291345
-0.0774641
6.72023
-0.472224
-0.825955
-0.302269
7.61453
6.38157
0.0252549
7.87342
9.46195
-0.0472064
7.60933
7.61315
-0.724406
-0.862265
7.61467
-0.122087
7.61649
7.61519
7.87511
7.87065
7.95569
7.8727
-0.0251899
7.61846
7.61967
7.62485
-1.44243
0.0146849
0.000943263
0.0262255
7.62847
7.61311
-0.0486403
7.61595
7.61691
5.81383
-0.0533602
0.0246248
7.61429
7.60907
7.62562
7.61332
7.56192
7.61226
-0.0718768
7.61865
-0.202424
0.0131756
7.61737
7.88258
7.93137
-0.124032
7.92353
7.87372
7.63302
-0.211322
7.6142
-0.0649774
-0.0693312
-0.180146
7.61187
5.28941
-0.0403809
0.00831996
7.66367
-0.198707
-0.0132776
7.88214
7.5899
6.90055
7.60983
0.0236652
0.0141471
-0.0634587
-0.347266
7.61507
0.0264788
7.56764
6.82793
6.85778
7.61952
0.0204123
7.61594
7.94192
-0.0649598
0.0295036
7.93901
-0.00239328
7.31386
-0.0836314
7.97938
7.61587
7.58776
7.87254
0.0255251
0.0224038
0.358469
7.61607
7.66478
0.0155144
7.61486
7.0719
7.87167
-0.00304926
-0.335282
0.0456532
7.86356
-0.0724905
-0.0602922
8.2426
-0.0600502
7.62246
-0.0399391
-0.0247819
0.00987667
-0.0869143
-0.177997
7.61536
7.61654
7.61613
-0.0720702
7.68729
-0.108846
7.87522
0.737062
7.8727
0.0195174
0.021527
7.94365
7.61424
7.9609
7.62608
-0.110708
7.96905
6.90856
0.00502613
-0.103824
7.91235
7.03769
7.70561
7.05857
7.61549
7.61512
-0.102452
0.00752618
7.87308
7.86665
-0.62764
7.87813
-0.102113
0.023408
7.69854
-0.0338132
7.87244
0.0179355
7.62347
0.0162123
7.61399
-0.583785
-0.307048
-0.146484
-0.0394384
-0.0437804
4.68654
7.54414
-0.0311101
7.91794
0.0144857
7.8713
7.64556
7.62418
7.62693
7.65098
7.62081
-0.054126
-0.0654546
7.8727
6.65464
7.87931
-0.0533593
-0.123242
7.8688
0.0258984
-0.149323
7.93181
0.0265852
0.0263641
0.0169264
-0.146029
7.61485
7.61441
7.64443
7.61503
0.0203441
7.54576
-0.0341086
7.6155
-0.045082
0.0203705
7.61872
-0.0523394
7.60714
7.61455
-0.0453331
-0.0824912
2.1354
7.61617
7.95511
7.60714
0.021985
7.50592
7.92245
7.52392
0.864696
6.72663
-0.52824
7.02907
7.48745
7.76952
0.0194794
0.00528708
0.0131275
0.0201746
7.85748
-0.0280607
7.61633
7.61917
0.0169236
7.5913
-0.643559
-0.0412015
0.032511
-0.0460884
-0.961688
-0.00183023
7.6182
-1.4209
-2.97538
-0.00776451
-0.0349364
0.0223083
5.54266
7.86752
0.0019755
7.87711
7.61295
-0.242346
-0.00107257
-1.0956
7.60039
7.44385
-0.0740303
7.93139
7.61541
-0.0522005
7.95022
7.93923
0.112345
-0.0524525
-0.091375
0.0479644
0.0268463
7.61837
7.61488
-0.272418
0.0262351
7.61568
7.94446
0.0338744
7.62612
6.61192
6.7613
6.79795
4.3624
6.62597
7.61718
0.0215971
7.60191
-0.0767127
7.61544
3.431
7.67353
7.63885
7.61858
7.61551
0.0299766
7.61529
7.61498
6.91792
7.61077
7.61921
7.61242
0.0247886
7.63266
0.0212664
-0.0815376
7.64112
0.0424942
7.6152
-0.0264848
-0.20596
0.0177414
0.0263882
7.84692
0.0233646
0.0256846
-0.150738
7.8745
-0.107289
0.025198
0.0264975
7.32967
0.0180103
7.68622
7.61691
7.6175
7.61428
0.0236826
7.61645
7.60467
0.0202579
-0.13449
0.00871196
7.6281
5.42994
0.0312989
7.62119
-0.367805
7.92858
0.0131896
7.61128
7.61391
-0.00405664
7.61146
-0.0196107
7.87528
7.61499
0.0276998
-0.0369771
0.0239026
0.0203004
-0.135631
0.0186451
7.61537
8.02076
0.0146475
0.0286439
0.0306279
-0.09335
7.61477
0.0226189
7.61459
7.79942
0.00506375
-0.0674321
7.62678
0.0232352
7.60442
0.01852
0.0318385
7.71348
7.61415
7.61698
0.0137883
7.61776
7.61621
0.0171283
0.018615
-0.0417476
0.0230114
7.63636
7.62781
0.0122521
0.0295676
7.62014
0.0119737
7.70265
0.00804044
7.61527
7.61486
-0.00652967
7.6143
-0.0223106
0.0314618
7.62079
7.61352
0.00526914
6.47353
0.032367
7.87177
-0.0592223
7.88221
6.68068
6.45869
0.0286535
6.96602
6.89054
0.0122859
6.84882
4.25382
6.33422
7.67605
7.87797
-0.178511
0.0260164
7.65614
7.61447
0.00245156
0.0139523
7.62521
0.0144556
7.61329
7.88311
0.00540209
-0.00454394
0.12594
7.61412
7.61777
7.61615
7.61471
7.60905
7.61225
7.6095
7.60964
7.61347
7.61254
7.61519
7.87934
7.61835
7.61341
7.61582
7.78731
7.6139
7.61421
7.61492
7.64277
7.81711
0.020504
7.61673
7.6142
7.62791
0.0276521
7.62022
7.883
2.94719
7.60349
7.51118
0.0191594
8.2443
7.56705
3.48122
0.0149293
7.61606
6.75962
7.2601
7.61321
-0.0284182
0.0163693
0.0157906
0.00492871
0.0323988
7.90311
7.60811
0.0177663
0.0245213
0.00348004
7.61228
0.0228678
-0.014179
0.0274017
0.0218463
0.0228465
0.00470359
0.0260303
0.0168052
7.88575
0.0235208
0.026928
0.0143173
0.0198127
7.61518
7.61459
7.61535
7.87254
7.61279
0.0261468
0.0254689
7.61834
7.61343
7.61393
7.82052
7.61575
7.87482
7.62034
7.87951
0.0303757
-0.22708
0.026172
0.0325549
7.59016
7.63033
-0.0322211
-0.263171
7.61423
7.61533
0.00922786
7.88442
7.61529
0.0653028
-0.000875266
0.0161812
0.0333082
-0.0285244
7.89931
0.0144414
0.0226069
6.91048
7.8767
0.0114429
7.89611
7.62716
2.38246
1.27348
-0.00803345
7.76771
7.84902
-0.0429303
0.022995
0.0329061
0.0252759
3.39276
7.87212
-0.0175145
8.23629
7.87323
7.55978
-0.00108889
7.61525
0.0277504
0.00920785
0.0128242
0.0144396
7.87931
0.0363848
7.87512
7.45543
7.87328
7.86632
0.0220229
4.48868
7.61491
7.87301
8.35889
0.0280474
6.85689
0.0112468
0.020714
0.0215915
0.0233961
7.82574
7.86874
6.63055
0.0143396
0.0268121
-0.92191
7.9209
7.87178
6.82634
-0.0221009
-0.0238225
7.61353
-0.0333404
2.49101
0.0160888
0.0202203
7.87246
6.64545
0.0124244
0.0257886
7.61664
0.00686949
0.00567845
-0.00174966
-0.00437761
0.0207095
0.0380029
6.91253
0.0315155
0.0254002
0.0289725
7.96912
0.0184051
6.99893
0.0335281
0.0208264
7.87347
0.0212388
0.0167005
0.0116732
0.0255815
8.73974
2.07138
-0.0515455
4.2782
0.0184627
7.64862
0.0223839
0.0182563
7.88061
7.61514
-0.365452
-0.117499
0.0209217
8.73043
0.00797664
-0.206532
-1.16699
-0.0820061
7.88134
7.89173
0.0236957
8.34586
0.0247465
-0.216564
0.0178471
0.0331197
7.87269
0.000156243
0.0251579
7.87205
6.93133
0.0360931
7.8868
0.0280838
0.0324396
7.87311
8.78845
0.0235974
7.87295
7.61379
7.6167
0.0294887
0.035538
0.0142108
7.92587
0.0112311
0.0286933
7.67495
0.0316755
0.0195118
0.024736
-0.128746
7.61499
0.0189634
0.0540478
0.0314377
0.0199396
0.0263226
-0.158286
0.0300091
7.87152
-0.0497282
0.0226028
7.87212
0.0268659
7.6226
7.61641
7.87465
7.62675
7.87436
0.00336834
7.61716
0.0270164
-0.0171093
7.87521
0.0154841
7.80624
0.0175214
7.87957
-0.166895
7.65457
0.00846512
0.00389611
-0.18689
0.0427623
0.0239521
0.01798
0.0290032
0.0400785
2.80161
0.0348466
0.00612921
0.0426063
7.87259
0.0412282
-0.124076
0.037351
0.0148548
-0.167187
7.87485
6.771
7.8779
0.0147235
7.87199
6.16736
0.0249904
8.38985
0.0101443
7.86442
7.83995
7.61497
0.0186282
0.0451568
0.0232066
-0.0445788
0.0250002
0.0230816
0.032829
0.00995902
0.0157005
0.0309263
0.0215775
7.8816
7.56996
7.86516
0.0183068
0.0292405
7.65108
7.61485
6.30698
0.0455119
0.018634
7.87254
0.0234903
7.86966
-0.433439
0.0185661
-0.0660784
7.87336
7.87135
0.0115573
7.87209
-0.0066936
0.030396
7.45591
0.0213546
0.0172297
0.0274412
7.87222
-0.110821
6.98281
-0.0249086
0.0112023
7.87489
7.88372
0.027348
5.52805
7.90313
0.0353783
0.0317397
7.87232
7.85577
6.9386
0.0136939
6.28375
0.0166298
-0.0338748
4.56146e-05
7.87174
7.03484
-0.035075
7.87045
7.62196
7.87371
7.87589
7.14838
7.72657
7.57336
7.87352
7.89056
7.29908
8.39783
7.64201
0.00287657
7.65146
6.75495
6.39408
8.9063
6.89783
7.87184
-0.0332673
7.38907
7.71096
-0.0340279
8.2089
8.57342
7.7732
-0.042712
8.36785
-0.0317349
-0.0848964
0.013006
7.16713
7.87554
-0.0234375
-0.461498
7.83604
7.86483
0.0215677
7.08771
0.0213887
7.01248
7.59813
7.7303
0.0200774
0.023893
7.87043
0.00609035
7.89925
7.38899
-0.18755
0.0433775
-0.0312452
7.61321
0.0228216
7.23015
-0.0223838
7.61582
7.87265
7.61406
6.98886
0.041176
0.0315928
7.87381
-0.768877
7.88214
7.89432
7.88175
7.87359
-0.0246116
-0.0389739
0.0332902
-0.0174824
7.83216
0.0123452
0.0137491
0.0368491
-0.0306221
7.66595
0.0275066
0.000479322
-0.00368339
-0.431782
0.0233319
7.9245
-0.0129721
-0.023534
0.0237676
-0.0230869
-0.0467012
7.90327
-0.0396513
7.78009
7.87601
0.0213878
7.87912
0.0267994
7.86937
7.93964
7.55317
7.88012
7.87279
-0.0465559
7.87883
-0.0128036
7.19784
7.61994
0.0225009
-0.00210165
0.030294
-0.0154358
7.88967
0.699983
7.87391
-0.0188733
7.94091
0.0158984
-0.0260369
-0.0160053
-0.00367722
7.9712
7.97814
7.88056
0.0285025
7.63088
7.86625
0.0241088
7.60641
7.6135
0.00200751
7.97106
0.00960991
-0.439977
7.14786
7.50093
7.43934
0.0115596
0.0137294
7.87271
0.00745809
-0.0110977
6.99052
-0.0200734
7.87023
0.0205332
0.0231069
0.0390154
7.87491
0.01295
0.0206702
-0.0275939
-0.00245197
0.0086836
7.87402
7.87221
-0.10704
7.86848
7.61263
7.86994
0.0141235
-0.017093
0.0189043
-0.0354432
6.87074
-0.00242562
0.017
0.0128871
-0.0590259
0.0197044
-0.0176429
0.0139234
7.61464
7.61503
7.6148
0.0329585
7.6167
-0.0321252
5.24635
0.00397968
-0.557403
0.00790119
0.0136162
7.61317
7.8727
0.00496936
0.00422061
7.88686
7.6089
7.87311
0.0110028
0.00637328
0.00286406
0.00900337
0.0295829
0.0154679
7.8737
7.87287
7.87163
0.0399802
0.00691991
0.00253753
0.0167402
0.0330081
0.00467671
7.84979
7.87189
6.34243
7.65764
0.0245698
0.0284087
7.86754
7.90672
7.86891
7.87486
7.83573
7.71763
-0.0052508
7.87488
-0.0492652
-0.116091
7.62152
0.000181341
0.0268171
0.0216288
7.9174
7.76403
-0.00428262
7.87269
-0.00614199
-1.20574
0.0191288
7.66796
5.9563
7.61438
7.87709
7.86883
7.60612
2.10384
7.88688
0.00953597
-0.00307497
7.87495
7.87249
-0.00820592
7.87926
7.61645
0.0132179
-0.202342
7.86236
7.86292
7.67342
0.042169
7.87222
7.87193
1.16517
-0.0233582
-0.00923122
7.87244
7.62087
7.20907
-0.0137488
-0.00898576
-0.0111843
0.00676504
7.61472
0.0531453
0.0128237
-0.0005227
7.56069
7.86868
7.87169
7.8245
7.87238
0.0245152
0.0207758
0.0023611
7.88915
7.87216
7.87198
7.8693
7.68813
-0.0389587
0.109338
0.0197745
7.61805
7.87286
7.92611
-1.0053
-0.0411206
-0.0691912
7.61414
-1.94949
8.2571
7.83968
7.87123
0.0235365
0.0354354
7.87537
7.90779
0.0125517
7.87327
0.0137938
0.0293489
2.73478
7.87116
7.66408
0.0230482
-0.0602758
7.91175
2.53856
0.0541086
0.0326086
7.87423
7.87729
7.88156
7.88094
0.026043
0.026437
7.8775
-0.0500967
-0.0126869
0.206387
7.87289
7.87237
7.87383
7.87775
0.0101478
8.38349
7.87411
7.76899
0.0244038
-0.00745236
0.0295504
7.84636
7.87144
-0.0188673
7.62618
7.8727
7.87534
7.87443
0.0209564
7.69695
7.59959
7.61718
0.0200535
0.0272012
7.86975
7.87375
7.85619
0.0160426
8.15137
7.87888
7.85823
7.87374
7.87334
-0.199289
0.0240024
7.91377
0.0219932
0.0162631
0.0204871
7.87775
7.87435
7.8741
7.8331
7.61448
0.0323013
7.87381
7.37913
7.3347
-0.0160707
7.65261
-0.0238811
7.87215
7.61818
-0.0213564
0.293041
7.03491
-0.00478164
7.87518
-0.00905176
8.1267
7.89226
7.92309
9.1064
7.88067
-0.0367687
7.87111
0.0103384
7.61789
6.9367
7.87906
7.86841
0.0148295
0.0347835
7.6146
2.64654
7.61352
-0.0735619
-0.0398981
0.0173576
7.61819
-0.349711
-0.0227017
-0.0490719
0.0241316
-0.623793
-0.0288145
7.59455
7.61461
-0.747673
0.0220687
-0.000797797
7.91039
7.51667
6.37356
3.25473
7.87365
7.61955
7.87421
7.8744
7.87504
8.3026
0.0356785
-0.0723145
0.0302508
6.9691
-0.0928287
7.87379
0.0109272
7.87156
7.87982
7.61612
7.71345
-0.104743
7.69419
7.61018
7.8726
0.017222
7.87107
7.87207
-0.0558483
7.82953
5.7512
4.92739
4.59032
7.87593
4.80951
4.64778
4.75848
5.46017
7.61437
7.61471
0.0113175
-0.0126671
6.9592
7.13996
7.61051
0.00651806
8.19131
7.71424
-0.0991104
7.87539
7.87271
-0.0364444
-0.0882209
7.83738
7.61564
-0.0317046
7.0355
7.60738
-0.404018
0.00776539
0.052048
7.81286
0.022516
7.87411
0.0156148
-0.393526
0.0172021
7.87306
-0.387427
0.021795
7.96797
-1.03734
7.86528
0.0206927
7.53232
0.0278194
7.80525
-0.0472875
7.87444
7.57419
7.6171
-1.4684
-1.47607
7.88514
0.0105017
0.012543
7.91834
7.87271
-0.00461323
0.021098
-0.123016
7.87954
0.0159783
0.0102221
-0.0448418
-0.850914
7.87519
-0.170465
7.62342
-0.15056
7.87162
-1.73192
-2.00874
7.85371
0.0224504
7.67706
-0.0440277
7.61381
7.85791
7.88619
7.89024
7.85158
7.85884
-0.00126715
0.0291167
-0.154431
7.88255
6.3502
-0.14228
7.88105
7.82839
7.90639
7.8659
7.90583
0.0228845
7.87315
7.87386
7.61443
0.0159548
7.85881
7.61522
7.54257
0.0368214
7.61583
0.00873124
-0.783298
-0.0510549
0.034393
-0.0151921
8.22106
7.87849
7.87146
0.0695834
0.0308631
7.54443
6.31531
0.0105282
7.87233
7.87496
-0.132054
7.86439
0.0167573
7.87556
-0.0122843
-0.0548445
7.88204
7.61399
7.87603
7.87447
7.87006
-0.0239153
7.87184
0.0117643
7.94424
7.87558
0.0245685
7.60962
0.00867645
7.77601
7.87199
-0.01146
0.0315665
-0.117769
7.8735
7.87386
7.87296
0.0301033
-0.0865285
7.95191
7.61404
7.64397
0.0131719
7.86673
0.0153462
-0.133503
7.87229
7.86895
0.021969
7.8663
7.64372
7.61597
7.95995
7.61625
-0.151646
6.22051
7.63946
7.8729
6.38404
7.86859
6.60493
7.84782
7.8677
7.73085
0.018403
7.79043
0.0108978
7.86175
7.8679
-0.05284
0.00560665
7.86325
7.8272
7.87505
0.0265633
6.70318
7.87437
7.73419
7.87124
0.0190184
7.86459
-0.179001
7.87349
-0.00879933
6.91958
-0.0257575
7.89025
7.87008
0.00615883
6.54603
7.88061
0.0289971
-0.00711796
7.89189
7.87454
-0.0168802
-0.0553756
0.0202361
0.0168214
0.00707905
-0.00658994
0.0221345
-0.0378759
7.94912
-0.189066
6.25916
6.14487
7.87394
7.87231
7.87046
0.0353207
7.87409
7.86708
7.87433
-0.121117
-0.0414867
5.95067
-0.0373735
7.87522
-0.0181186
7.61254
-0.0582055
0.0226338
6.33276
0.00357505
7.8671
7.84691
7.61535
0.0411138
-0.0103224
7.87312
7.61578
0.031582
7.8733
-0.130799
7.91443
-0.0811754
7.87188
7.61586
7.852
7.6147
0.0253736
7.61492
0.277384
7.618
-0.00377541
7.87306
7.8696
4.3143
3.98933
7.8915
7.86999
7.87225
7.87247
-0.0060225
-0.141154
5.2139
7.87639
0.00179758
7.61308
7.62557
-0.424714
0.0131795
-0.0669013
7.61599
0.0259718
-0.0198304
0.0259895
0.0155165
7.87243
7.87457
7.87879
7.87545
7.61579
7.61463
7.61537
7.84152
7.61631
7.61557
7.8722
7.61526
-0.107149
7.61458
7.87328
8.61683
7.87383
7.87339
2.70766
7.61451
7.87237
-0.00440959
-0.0963654
7.8496
7.85077
7.87285
0.0187862
7.65077
7.8601
-0.109355
7.61659
7.87395
7.86836
7.876
-0.0462717
7.61484
-0.171806
7.87617
7.85585
7.87196
7.87264
7.87062
-0.108368
-0.142393
0.0212292
7.87404
7.638
7.9087
-0.123034
7.873
-0.135132
-0.0822605
7.61346
7.84516
5.94101
-0.402736
7.8564
7.0174
-0.389819
6.01959
-0.00997978
7.64828
-0.0387005
5.98665
5.61303
7.87196
0.000778497
7.61648
-0.0121512
-0.0526696
7.88221
-0.00037126
-0.282123
7.87006
-0.0669199
7.6171
7.85743
7.86619
7.85337
7.8685
7.61312
7.87288
7.87128
-0.151441
7.10745
7.87282
7.86976
7.87192
7.876
0.0196815
4.04105
-0.130578
-0.303284
7.87219
0.0154157
0.00461516
7.87275
6.99518
7.78939
7.86325
7.90035
7.96281
6.43358
7.16613
-0.0345978
7.87468
7.87714
6.09812
6.63907
7.61458
-0.00566115
7.88145
7.62856
7.87388
-0.0783743
7.87572
7.61445
-0.0150104
7.61547
7.57693
7.76553
7.91939
-0.0151562
7.87397
7.87248
7.87246
7.84495
-0.0145796
-0.0646488
-0.0556051
-0.00196054
-0.028982
-0.0375517
7.61627
6.54452
-0.162532
-0.0312199
6.53459
-0.149289
7.86792
-1.08591
7.6361
-0.0879121
7.87489
7.61919
-0.0298439
-1.38439
7.87781
-0.0314963
7.87614
7.8759
-0.0942622
-0.054873
7.87193
7.61506
7.91818
7.61466
7.87
6.86258
7.87319
7.8716
-0.031815
7.87272
7.86828
7.87143
-0.022716
7.885
6.90427
7.61557
7.6147
7.30032
6.92233
-0.0242758
7.61859
6.93107
0.00601266
7.86576
-0.0409937
-0.0241319
7.8749
0.000961567
7.87112
7.45612
7.93446
6.7858
7.61819
7.85069
7.86456
7.87513
0.0207223
7.87424
7.87286
7.87088
7.73596
7.87224
7.78661
-0.116571
7.87213
7.87673
-0.0682196
7.87328
7.61573
7.61578
0.0327685
7.87488
-0.161606
6.70434
-0.37824
0.0158332
7.61188
6.53932
0.0087123
6.26897
7.61593
-0.195842
-0.376862
-0.0026775
-0.0559895
-0.256911
-1.16702
7.64048
7.61982
0.00961924
-0.0999888
-0.0824304
0.0183609
-0.396029
7.61413
0.0198561
-0.00024243
0.00617428
7.61916
0.00875294
0.0224105
0.0236058
0.00527779
-0.121415
0.0160771
0.0422988
-0.00357293
0.0137818
0.0263587
0.0118928
6.91802
0.091209
0.0062357
-0.000737771
-0.0236107
0.02357
0.0136125
0.0155961
7.0779
-0.113274
7.02674
0.035146
0.0118257
-0.0491163
0.00351279
7.01556
7.61317
0.0136199
0.0156984
-0.126602
-0.0627246
0.0251391
0.000416547
4.82777
0.0100614
7.87211
0.00365228
-0.111504
-0.0471304
0.0305096
-0.139771
-0.175131
-0.0010885
0.00627333
-0.00224633
0.0319837
0.00270057
0.123392
6.13946
5.40728
0.00289701
7.87697
7.87282
0.00233486
0.0228846
0.0233997
7.87415
-0.0714776
-0.0552323
0.0184741
5.58369
7.87161
-0.209069
0.00838704
-0.11835
7.87475
0.0289779
7.87172
0.00915823
-0.00390705
-0.0453733
-0.0448277
7.87272
7.87404
-0.0365248
0.0134608
0.0283622
7.86547
0.00848122
0.0284004
-0.0253373
7.62256
0.0279853
0.0488342
7.00726
0.0226945
-1.50106
-0.104639
7.58248
-0.0613417
-0.0990631
7.872
0.00374066
0.0179164
1.39391
-0.0125256
0.00987996
0.0230631
0.0224372
-0.033387
-0.0230213
-0.233182
-0.109247
0.03334
0.0223333
-0.0137754
-0.174829
0.0213094
-0.0189258
0.0600824
0.0155912
-0.15884
0.0403822
7.872
-0.00139717
-0.0113751
-0.104682
0.0389735
-0.0399127
7.64162
-0.00348308
0.0247891
7.86737
-0.0735111
-0.00775815
-0.00368716
0.00346061
0.0226822
-0.0442814
0.0136803
-0.0160165
-0.0520263
7.8716
7.87237
-0.0479974
7.62026
-0.0449361
-0.00333218
7.70723
0.0225045
-0.0193075
0.0406321
7.87093
0.0265783
0.0119219
-0.0617785
-0.142405
0.0213904
0.0447337
0.00913021
-0.00874174
7.8723
7.85601
-0.0950027
-0.0313054
-0.0576838
0.0214476
7.85569
-0.0317134
0.016773
7.70773
0.00128038
0.0118156
-0.0834777
-0.219556
-0.0294383
-0.0373948
0.0387371
-0.00347006
7.62521
0.0042994
0.0038496
0.00115341
-0.200519
7.85687
-0.0206786
8.01388
7.87326
0.0130961
-0.0111482
0.00575481
0.127872
-0.116768
1.48407
7.61758
-0.0301214
0.0269008
0.0665526
0.0100015
7.88011
7.61801
7.60749
-0.00107646
0.00387307
-0.227046
0.0254405
7.62826
7.86016
-0.00868502
0.00575764
-0.0420191
0.014309
0.00921453
0.0304557
-0.050612
4.37677
7.61423
-0.00297343
0.0232479
7.85965
-0.00296303
0.0259015
-0.0737602
0.0118545
0.0106899
-0.0412601
7.85982
0.0266726
0.00684295
7.61861
7.6448
0.0293833
0.0795123
0.0154578
0.0211415
0.0192232
0.0141331
0.033558
0.0302008
0.0253682
0.0141521
7.85564
7.84815
0.0099151
0.0311046
0.018311
-0.0975293
0.0217942
-0.00224251
-0.000603238
0.0247073
0.0179996
7.61753
7.62646
-0.111322
7.8544
6.86506
0.0140814
0.0204575
0.00171839
-0.0945335
7.16386
-0.033586
-0.0787707
7.29486
-0.100299
-0.207509
0.0212024
0.023405
0.0200815
0.0283791
-0.143653
0.0209179
7.87273
7.23785
-0.0787968
0.0281227
0.00588811
0.0267293
-0.107167
-0.0313914
-0.109048
7.26396
0.026337
0.0530806
0.0150512
-0.121296
-0.0355738
-0.0940641
-0.201634
0.00419369
0.0225904
7.15576
-0.00286857
0.0277897
2.78769
6.79183
6.24051
0.0386085
6.63655
0.0136297
0.0242229
0.00550007
0.0244087
-0.106571
5.04431
3.0429
8.06128
6.72937
-0.045986
7.61457
7.6143
-1.28427
7.87032
0.0288112
0.0121157
0.0198409
0.0229898
0.023869
0.0068265
6.2696
0.0246761
0.0255818
-0.0294763
0.015869
0.0352796
0.014768
7.61477
-0.203719
0.0302733
-0.0947876
7.61471
-0.00739897
-0.0043056
7.61459
7.86497
-0.0794985
0.0195836
7.90793
0.0136837
0.0148159
-0.0829558
7.87305
7.61461
0.0206903
-0.207354
0.0241346
7.61474
7.60056
7.61471
0.000704445
2.55113
2.32255
-0.00281867
-0.367304
7.88057
0.0265136
-0.344468
0.0193923
0.0237284
0.00731656
0.0203974
-0.499197
0.0284507
7.66576
0.0108456
0.0400914
0.0180073
0.0211219
0.0142971
0.0353684
0.0175154
0.0099838
0.0300541
-0.0614234
-0.384496
0.0129463
-0.0836734
-0.131758
-0.456013
0.00991167
-0.369358
0.0196923
0.0304258
0.0223433
0.039845
-0.0526134
0.0349577
-0.375583
0.0225836
7.47139
0.0114317
3.81572
0.0145598
-0.00507786
7.61931
-0.0152632
7.47094
-0.00293948
7.49895
7.90499
0.0442455
-0.0253112
6.8477
0.0233116
0.0202298
-0.0228339
7.86097
7.87356
0.0151325
0.00077613
-0.180881
0.0165924
0.0325312
-0.0231408
-0.0636381
-0.00687163
-0.0159748
6.50961
0.010744
7.61438
7.80856
0.0312321
0.0297399
-0.095552
0.030341
0.0320089
-0.00815584
-0.021339
7.78249
-0.110651
0.0223123
-0.0113709
7.79503
7.87944
0.010818
-0.000300561
6.16372
-0.0419335
0.0290469
0.00176685
-0.135269
0.032881
0.0236174
7.86431
4.57357
0.0222592
-0.0730905
7.68331
0.0402592
-0.0479976
-0.0116825
-0.118277
0.0171815
-0.147807
0.0105645
-0.03673
4.8353
-0.0476438
7.874
0.00112185
-0.0191598
0.0314223
0.00971856
6.57443
0.0144451
-0.078801
-0.0124939
-0.108239
7.42358
7.6148
0.0299866
-0.0726617
-0.00289131
0.00526
-0.0415994
0.0214208
-0.00232124
0.0089629
0.0417423
0.0263315
-0.0494435
7.0335
-0.127709
-0.0217172
-0.000751235
-0.0400592
7.22902
7.61406
-2.38423
-0.11509
8.15525
-0.141056
-0.0236124
7.37169
5.00145
5.45717
-0.0435459
0.0242793
0.177177
5.84038
-0.0759235
0.0316995
7.61772
0.227064
6.88676
-0.0121631
0.0218249
7.6487
-0.0283953
-0.0253147
-0.0291606
0.0269623
7.614
-0.267464
-0.0395257
-0.076626
-0.0195882
-0.0202091
-0.0403008
-0.00912193
-0.172839
-0.0219335
0.0218834
0.0233738
7.87279
6.44731
6.55679
7.72797
-0.0296951
0.0261229
0.0317181
-0.0632653
0.0208734
0.0298977
-0.00546168
-0.0190765
-0.0153825
0.0243778
-0.0130633
-0.0852009
0.00411749
0.0259726
7.87312
-0.0416878
-0.0604602
-0.01581
-0.00903992
7.61116
0.0023952
0.0049858
0.036743
0.00387451
0.0135832
7.63334
0.024455
0.0134717
6.87997
0.0247828
-0.00771847
7.72209
-0.000399185
7.71359
7.61378
0.00367437
-0.0606702
-0.00505921
0.0148581
7.61709
0.0348566
-0.037826
7.61815
0.0292016
0.0132114
0.0190036
-0.0115236
7.75313
-0.0314947
-0.0262835
0.010856
7.69692
0.0464335
0.0205365
-0.000800973
0.0275673
0.0136578
7.90082
7.45488
7.06078
0.0266439
7.19258
0.0293648
0.0158965
0.0251386
7.83648
0.0215592
7.65695
7.87371
7.80987
0.0189225
-0.012627
-0.207848
0.00431851
0.0350915
7.51664
6.88428
-0.0401622
-0.0448957
0.0365544
-0.165325
0.0249525
-0.400164
7.87595
5.73646
5.84964
7.61343
5.9246
0.0181028
7.87252