/*--------------------------------*- C++ -*----------------------------------*\
  =========                 |
  \\      /  F ield         | OpenFOAM: The Open Source CFD Toolbox
   \\    /   O peration     | Website:  https://openfoam.org
    \\  /    A nd           | Version:  10
     \\/     M anipulation  |
\*---------------------------------------------------------------------------*/
FoamFile
{
    format      ascii;
    class       volScalarField;
    location    "20";
    object      SgRate;
}
// * * * * * * * * * * * * * * * * * * * * * * * * * * * * * * * * * * * * * //

dimensions      [1 -1 -3 -1 0 0 0];

internalField   nonuniform List<scalar> 
111485
(
1.30093e-09
0.0078844
0.0242698
5.62639e-11
0.0490505
3.2215e-08
0.0464162
0.00616198
0.0190658
0.0012436
0.046812
0.00943584
0.00481888
0.295975
0.00651648
0.0303328
0.210319
2.62315
0.0103477
4.80242e-08
0.0372299
3.23881e-09
0.0268397
0.0346056
0.00873501
3.49767e-08
0.0394751
0.00178932
0.0153598
0.0481665
0.044596
0.0195379
2.17983e-07
1.45873e-06
0.00715198
9.1618e-05
0.147163
0.209846
0.00244801
0.0241791
0.0434774
0.0708285
0.0158635
0.00166038
8.21421e-05
1.58751e-06
0.0295703
0.000712494
0.0474571
4.28472e-07
1.09489e-06
1.72295e-05
4.62274e-07
0.0513921
1.50668e-06
0.0437253
0.00305834
4.42165e-08
7.07378e-05
0.00480012
0.0160684
2.65317e-07
0.00488549
0.0979151
6.45104e-06
0.00313934
0.315985
0.0944059
0.00118394
0.0062757
6.77768e-05
0.00671934
1.123e-05
0.00300004
4.6565e-08
0.000716617
1.55865e-08
0.0411764
2.78301e-08
3.13146e-05
0.280748
0.55988
4.69857e-08
5.21175e-09
0.00936703
0.00386683
0.14354
0.0253898
0.000307312
0.00745041
0.000264454
0.0403725
0.0119709
5.82396e-05
0.0521647
6.63311e-09
0.027076
0.00182929
0.0015359
0.00170559
1.39281e-09
0.0177782
1.96278e-06
0.0180263
0.00459858
1.64166e-05
5.71588e-09
0.00758372
0.00418232
0.000728155
0.00552184
0.00473575
0.0038049
0.00331877
1.04151e-07
3.41779e-05
3.05403e-08
6.5449e-06
0.0128873
4.30151e-09
9.17186e-08
0.000189783
0.0751719
2.26547e-06
0.00158444
0.0278401
0.000107013
0.00172574
2.90649e-10
0.000344299
0.0016413
0.0328291
0.0472245
0.00017532
7.81362e-05
0.0482984
1.00137e-09
0.042527
0.0254052
0.00274472
0.000322164
0.00200368
0.202752
0.00273469
0.00408392
0.0130697
1.61336e-09
8.95269e-10
4.75854e-08
0.0281302
0.00157162
0.0285603
0.115511
0.00472678
3.57053e-05
0.0108719
0.0162183
0.0109351
0.000821812
5.439e-06
9.62116e-10
0.0522787
0.0226489
7.56835e-05
6.36151e-05
0.00588876
0.00341157
0.0270409
0.00156559
0.000171014
1.57859e-09
1.52591e-08
0.198027
1.1007e-10
0.00549812
0.00207262
5.26215e-07
9.63085e-06
3.63651e-08
5.81481e-06
9.87595e-06
3.7166e-08
0.00151616
0.00677997
0.0298715
0.00414403
0.00768299
0.00409018
0.000464251
1.78743e-07
0.00490952
5.72034e-06
7.13894e-06
0.00658421
0.010393
0.028647
0.0114218
0.00504386
8.46574e-07
0.00677414
0.000506529
0.00167896
0.0144475
0.0023338
1.8296e-06
0.00383226
0.0251159
1.17881e-05
0.000178102
0.00789045
0.00201153
0.000378464
8.6938e-06
7.82071e-09
0.00840619
0.000312002
0.119476
7.65817e-09
0.00670139
0.0205849
0.119206
8.334e-08
0.00330304
0.0137785
0.00027778
6.94817e-09
4.24377e-10
0.150661
0.00417649
2.36333e-05
9.36212e-05
0.00946883
0.00779883
0.160909
3.86577e-05
2.03027e-05
0.160823
4.65715e-08
0.00244431
0.00957688
0.0166694
0.0116902
0.00965938
3.89353e-06
0.0019437
0.00062716
7.83127e-06
1.18191e-08
0.0309512
0.157028
1.82941e-05
0.00654599
0.0107956
7.85649e-10
0.000193092
0.000113984
2.79031e-07
6.72296e-05
0.099736
1.85751e-08
0.014812
0.01071
0.00367495
3.36308e-09
0.0118511
6.81561e-11
6.08366e-08
5.10352e-07
0.164994
0.0229924
0.00620328
0.00548803
0.213636
0.0123812
0.00156942
0.000820247
0.0323276
0.00876025
4.51551e-07
5.36341e-09
0.111629
0.0226984
0.0245959
0.0118399
1.79982e-09
0.224624
0.267805
0.00302929
0.000321725
3.46682e-05
0.0138346
0.00219349
0.00197778
2.02714e-08
0.000653829
3.02535e-09
0.0003596
0.000273964
0.235428
0.067936
0.358366
1.77068e-08
0.0858799
0.00899056
0.00172207
2.98116e-09
1.15037e-07
0.0246356
0.000300224
0.0569512
0.00400927
0.0135277
0.0192395
3.04261e-05
3.05382e-08
3.54014e-08
0.00378469
0.00433145
0.250975
0.18437
0.000790548
1.75671e-09
8.71237e-09
1.40257e-08
8.45318e-05
0.060055
0.0118535
2.16998e-06
0.00527662
7.1406e-05
0.0608326
0.0671006
0.00596301
0.011448
0.0093257
0.0482213
4.9953e-05
7.36785e-07
0.00948393
0.0187433
0.00486555
7.12435e-08
0.151131
0.000329702
0.00226787
0.00805338
0.000334656
0.0284578
0.0390475
0.0375031
0.00357976
0.00774625
0.0256301
0.0132275
9.0942e-06
1.95796e-07
5.45801e-07
7.13825e-07
0.0311975
0.371747
0.0327653
0.0672942
0.0528793
0.0183868
1.73426e-08
4.08006e-07
0.0166744
0.0469502
0.0808641
0.0459203
0.0495744
0.022854
2.48865e-08
0.0135381
0.00028919
4.21234e-10
0.000987973
0.0166094
1.57622e-05
0.00895934
0.00919334
0.00817803
0.00140438
0.00268606
0.00549629
4.31683e-05
1.16279e-06
0.0026693
3.88893e-07
0.00631572
0.11765
0.0303113
1.17144e-07
0.0276297
0.154771
0.0082985
0.326808
6.60782e-08
0.0474937
0.0188448
7.53709e-09
0.000845189
0.00242261
3.8065e-09
0.032056
0.0109259
0.00520359
4.57958e-07
2.56261e-08
0.000757417
3.77477e-09
0.0124321
3.61734e-06
4.30519e-10
0.0167758
4.0392e-05
0.25892
0.030047
1.9665e-09
7.95174e-05
0.00162868
9.88785e-05
0.000202974
0.0151326
0.121805
0.833753
5.55741e-05
0.207459
0.000742554
4.58696e-08
0.0389418
0.0310712
2.03879e-07
0.00141889
0.000308978
8.30864e-05
0.0238095
0.0239921
0.0138864
3.70123e-08
0.351949
0.0168538
0.0228896
0.00439678
9.15815e-05
0.00127617
3.56759e-08
0.253367
0.363388
2.62912e-08
0.0082631
0.000363707
0.000103474
4.06022e-09
3.01103e-05
3.54196e-09
0.288523
0.00964238
0.00635428
0.00215827
0.00262617
1.91122e-07
0.00195759
4.99823e-07
0.0411676
1.54602e-07
5.98841e-07
0.0524262
0.0373752
4.03359e-08
1.54616e-09
0.000384149
8.46092e-08
1.60084e-06
0.00107058
2.74166e-08
6.15346e-05
6.71058e-08
0.0741894
6.95106e-08
1.66028e-06
3.68994e-08
0.00709174
4.29225e-07
0.224468
0.00198387
0.237546
1.78272e-08
0.000965615
2.58422e-06
2.68076e-09
0.372214
0.144847
0.0269053
0.0250235
3.06562e-05
0.00203459
0.0822184
0.00849656
0.00105686
0.292828
2.54951e-08
0.0232946
0.000108401
0.00504604
0.0589735
0.0762462
0.000114959
0.0210971
0.000246964
0.000780231
0.0818465
0.00202871
2.16801e-08
0.0800441
0.0488439
3.54888e-06
1.14249e-06
1.9591e-05
1.75618e-09
0.00170272
0.0546886
3.52627e-07
1.78754e-07
0.00252537
4.43656e-09
0.0339391
2.90227e-08
0.000324022
2.04057e-09
0.116659
0.114624
0.00100789
0.0126958
0.065159
0.0817254
4.75619e-08
2.45673e-07
0.014809
4.7094e-08
0.000202141
1.77981e-05
0.00165001
0.0426704
0.0644243
2.40527e-09
4.68698e-05
0.0176151
0.00327822
0.00174111
0.00387722
0.00688274
0.020707
9.75015e-07
0.025388
0.006015
2.57006e-09
0.126495
0.0411095
0.0154598
1.34598e-06
0.0048307
0.00690954
0.00225755
0.00399926
0.000386604
0.0136826
0.00131562
0.00013318
0.023059
0.128685
0.000791799
7.42879e-05
0.00359458
0.726952
3.16864e-08
0.000413222
4.58379e-06
4.06927e-05
0.007317
0.00318964
0.00275112
0.000445647
0.000167152
0.0160442
0.0110591
5.59064e-08
0.00019877
0.00132475
2.8744e-08
5.58332e-10
5.41006e-08
3.21437e-08
0.0127575
1.87152e-09
0.0347681
0.00853334
0.00193321
0.0988713
0.329737
6.0373e-05
0.00849281
0.0371672
5.51344e-08
0.0519966
1.51387e-07
1.99322e-08
4.77621e-05
0.00422255
0.121331
0.0282596
0.00624149
2.694e-06
0.0897024
0.146066
0.0286612
0.0281399
0.000496756
0.196881
0.0415016
0.0538696
0.0466218
5.96424e-06
0.000320762
0.0405393
0.00801327
0.00142574
0.0275944
0.0260801
1.14105e-06
0.0108896
0.000666109
3.23736e-05
0.0348108
0.0002554
0.000660002
0.0108982
0.0406458
0.00133445
0.0215366
0.0196746
0.00720153
3.27622e-06
0.0104345
0.000335574
0.000197464
0.0171366
0.0179589
0.0357481
4.96201e-07
0.00188304
4.45588e-06
4.11905e-09
0.0776784
1.62312e-08
0.136748
5.87683e-05
0.0118115
8.05767e-08
0.0294609
8.28645e-05
0.0427794
1.32349e-09
0.0306908
3.01033e-07
1.64921e-08
8.16734e-07
0.321244
0.000525534
2.95202e-05
0.0412042
9.92372e-08
2.89992e-09
0.206267
0.069595
8.36082e-05
0.00199457
0.000130215
6.46971e-08
0.0373462
0.00866477
0.179668
6.7266e-10
4.68427e-09
0.000416821
0.00106881
0.000132702
4.44794e-07
0.0630455
0.0072303
2.65823e-08
1.23012e-07
0.045543
0.042081
0.002255
6.21447e-10
3.85199
0.367132
0.191853
1.61179e-08
1.89878e-08
0.0551411
0.000450979
3.95796e-05
0.000591954
0.110532
0.00265352
0.0112368
0.0634982
0.0522499
0.00190718
6.87135e-08
1.20222e-06
1.42308e-08
9.3987e-09
7.69148e-08
9.54347e-10
0.0223562
7.10164e-08
1.94353e-08
3.26468e-07
0.011341
0.023603
1.08835e-07
5.79414e-07
0.10557
0.0143371
0.00990168
2.69613e-08
7.36923e-09
0.0371542
7.91267e-10
0.00178324
0.00264452
0.00396952
1.2246e-07
1.28324e-10
9.45956e-10
1.59531e-09
0.0146762
1.89928e-08
6.59678e-08
0.00107264
4.78942e-09
0.0232149
0.00199576
2.36715e-06
0.0368741
0.344779
0.00253496
0.281147
0.000251601
0.0435828
0.209726
8.24834e-05
0.0236489
0.0678686
0.00599658
2.05069e-05
0.089018
0.778482
0.00998876
3.64649e-08
0.00244701
0.00251439
0.00123813
9.27795e-05
1.85251e-09
1.56515e-10
0.0134715
3.86366e-05
0.00271489
3.91137e-06
0.00140739
0.00142768
0.0366909
0.000572161
1.53926e-08
0.0335241
8.26533e-06
0.0205053
2.79349e-08
4.9843e-05
0.000205193
1.78324e-06
3.46628e-07
0.0407267
1.53792e-09
0.0101523
0.0638991
9.85561e-09
0.0725981
4.30342e-05
0.0371536
0.000609134
1.04628e-07
2.77247e-05
0.00163259
0.0458915
0.00408365
0.00132611
0.161738
0.000203287
0.00398546
9.9814e-07
1.06868e-05
0.496906
0.162485
4.31307e-08
0.241912
0.000868548
0.000162606
0.00993613
0.000209607
0.00121282
0.0230905
0.00943421
0.00224958
0.00486138
0.00197633
0.0457395
8.16687e-08
0.0330164
0.0264466
9.76797e-08
0.00843668
0.271532
0.0283669
2.95324e-07
0.00189963
1.56368e-08
0.0101748
0.226417
2.28823e-08
0.179585
0.343096
0.00135184
0.00497187
1.07467e-06
0.0485822
7.78603e-05
0.0016423
0.00122976
0.000329478
4.2912e-06
0.0454575
0.00697939
9.0164e-10
0.00042735
0.000542558
0.000913373
0.000467297
0.000864295
0.000171606
1.02188e-09
6.88059e-05
0.0226337
4.12563e-07
0.00186682
0.351748
1.75254e-07
3.28833e-08
0.00324296
0.00330963
3.05838e-09
0.000610387
8.64935e-08
1.58057e-08
1.25309e-08
4.49501e-07
5.05935e-06
1.656e-07
0.000350119
0.0519763
1.47367e-09
4.979e-07
0.0045161
0.116132
0.00177418
0.00916731
0.0326561
1.04625e-08
0.00029118
4.14267e-09
2.28338e-09
0.000575434
0.148498
0.0421091
5.84274e-09
6.71683e-08
0.0357983
1.82715e-08
0.0232
4.72843e-08
0.0067877
6.67475e-09
0.00196411
0.0263645
2.76444e-09
7.57123e-07
5.59291e-07
0.00143717
6.26489e-07
2.36682e-08
2.08838e-06
0.0044606
0.0542417
0.00424833
0.000613883
0.00107407
4.3105e-08
0.00140438
0.00190958
0.0439988
2.97187e-06
0.000224501
0.00538107
1.17366e-07
9.54511e-06
0.000150919
1.00573e-07
0.00816829
0.00162205
0.00319346
0.073357
1.26535e-09
0.0230352
0.0610407
0.000121824
7.75828e-05
5.87702e-09
0.0263968
1.96367e-08
1.13561e-06
2.90103e-05
0.0519466
5.52379e-07
0.00235145
2.76267e-05
0.000861999
1.69168e-05
7.13204e-09
3.82669e-06
1.67677e-09
0.00246973
0.00065135
0.303697
3.13839e-08
5.09382e-07
0.00209904
1.7943e-10
4.79709e-05
4.47096e-07
0.036044
0.000851116
0.0319927
1.48434e-08
0.0014078
0.000170586
6.33158e-05
0.0002917
4.76423e-08
0.00135335
0.0246205
0.137582
0.00117594
0.00032053
6.40136e-08
6.49758e-10
2.32183e-08
0.186816
0.0749936
0.00763923
6.77805e-10
0.17444
2.96118e-08
0.214617
0.00311735
7.60975e-07
9.19881e-08
3.40938e-06
6.17195e-07
0.0418372
2.11703e-06
0.000123373
0.324856
0.00683898
7.22975e-05
3.34875e-05
7.07453e-05
5.15984e-05
3.22138e-08
3.57105e-10
0.0258692
0.000431689
8.19232e-09
2.02369e-07
0.000612504
4.59464e-07
0.00153606
0.423671
1.76225e-06
0.00360421
3.95782e-10
0.000389376
2.6613e-07
0.332831
2.71241e-09
0.119341
0.0055563
0.000748501
0.0183867
0.0344723
0.000948647
2.57569e-06
0.00056128
2.31569e-06
0.0046379
6.19845e-08
1.86811e-06
8.59329e-05
2.39851e-06
0.070873
2.76148e-07
0.00729301
0.00852888
2.06911e-09
0.000385311
8.56721e-08
0.000841549
0.000842353
6.86114e-08
0.018016
0.00023971
5.51218e-07
0.0234389
0.190591
0.00371125
0.0110741
3.30379e-10
0.0467544
8.97206e-06
1.94853e-07
0.0369319
4.94863e-06
0.11446
9.51678e-09
0.152671
0.000729134
2.07162e-09
0.00111245
4.12086e-07
2.68163e-09
0.00314722
0.00102039
0.0105074
8.53414e-09
1.11708e-06
4.63781e-08
0.000891067
5.07613e-05
0.0343636
6.27201e-06
0.000934109
6.78027e-05
0.00118084
3.09597e-05
3.52831e-06
1.08938e-06
0.0183279
0.00979894
0.0182372
0.0359038
0.0440959
0.000268604
0.0481148
1.25109e-09
0.00956007
1.20364e-07
6.28893e-05
0.000464389
0.00672555
0.000427584
0.000543281
0.00201119
8.3541e-10
0.0072164
0.0084127
0.000216798
0.000810779
0.0152324
0.000860827
1.6879e-06
0.0301037
1.38526e-07
6.07789e-09
0.000265516
0.0747591
0.00100923
6.4978e-07
0.0476104
0.000671468
7.21695e-07
1.37878e-07
0.000600488
2.91525e-06
0.0557777
0.321597
0.000369425
0.000423917
0.0223487
0.0072123
2.1782e-08
1.30074e-08
8.77459e-05
0.0040504
0.0350535
0.0551989
0.00962983
3.1745e-08
0.000323941
0.0418476
2.76678e-05
0.00115886
2.57039
0.0442755
0.122477
0.0515028
0.0217559
1.17705e-09
0.00204067
6.66267e-07
1.63009e-07
1.94493e-07
7.40678e-09
0.00283526
4.10505e-09
2.18827e-09
9.21198e-05
4.94028e-08
6.69263e-09
9.56208e-07
0.00969625
0.0601753
0.0109062
0.00318346
0.0776892
0.264864
5.91559e-09
0.189124
0.00016238
0.395888
0.012945
1.10147e-07
9.30172e-05
0.00759125
0.263125
1.73862e-09
0.00118711
0.0191778
0.00467183
1.63734e-05
0.0257761
1.11564e-06
2.41392e-07
0.079082
1.01202e-08
0.00808654
1.06773e-07
9.18396e-07
0.00830171
0.000461465
0.00276424
1.16371e-06
0.000391165
0.000667579
4.23431e-07
0.000204092
7.50773e-07
0.0234107
1.43277e-07
1.32866e-07
0.255563
0.0446536
0.000541005
3.32877e-07
6.38599e-09
0.00469931
0.195721
0.00468119
0.0151159
0.217862
0.0202571
2.51304e-09
0.0364162
0.00313329
0.00672196
0.0368466
0.0103659
7.95856e-09
0.193465
1.13224e-09
0.0406106
0.00931798
0.0111356
1.48815e-08
0.0132869
1.33226e-06
0.00273095
0.00899957
5.10033e-06
2.92163e-10
4.67032e-09
0.00295495
0.082017
2.38561e-09
0.00426047
0.0215636
0.000101762
0.00735309
0.049249
2.33852e-06
0.000140952
0.000841981
6.11322e-08
0.0103139
1.98516e-06
0.00257949
2.87369e-08
2.70599e-08
0.0122721
6.21214e-09
0.000220565
0.00371059
3.09026e-08
8.25333e-08
0.00458385
0.000549783
0.358685
1.18017e-07
0.249993
1.84718e-06
0.000371584
0.000171804
0.0075567
8.33343e-05
0.0806335
0.00558603
5.52177e-05
0.00109073
0.0681032
7.11823e-07
5.02499e-08
0.000426362
0.000784971
0.0423966
1.90976e-07
0.0347617
0.000946541
1.52879e-08
0.232439
9.86148e-09
1.70264e-07
2.37459e-06
0.0029026
0.311932
0.0585361
4.59375e-07
2.49209e-08
1.8213e-09
1.11219e-07
1.0918e-07
6.59881e-07
1.20976e-07
6.47402e-09
6.39718e-08
1.17248e-08
1.84063e-07
0.0641945
0.0380688
2.9465e-09
1.38354e-05
8.10647e-09
7.87732e-08
1.3172e-08
0.0373145
0.0824732
0.0170489
4.35286e-08
1.21153e-08
8.36424e-07
0.00661688
4.0828e-06
1.3681e-07
0.296244
2.70465e-07
3.13502e-06
0.0228777
0.000189128
5.3638e-06
0.00874412
0.0243824
3.06907e-08
0.00337826
0.00472829
1.8276e-08
0.0134396
0.0391364
0.0177268
0.00341379
0.0106532
3.72635e-06
1.12501e-07
0.335316
0.0105199
0.00325516
0.0642243
0.00689324
0.00179624
0.0214016
0.00998872
0.000699309
0.0155923
0.00106629
0.0103093
3.37772e-06
0.024196
0.00842359
0.00163064
0.00142304
5.55962e-09
6.34285e-08
4.71843e-08
6.71521e-10
1.78451e-07
0.00915737
0.0134841
1.92704e-08
3.18733e-09
1.83092e-07
1.73632e-05
4.33688e-09
9.79389e-09
8.23536e-07
1.12446e-06
0.00465705
0.000292625
0.0216666
0.24799
1.23815e-07
1.16073e-05
0.029968
1.1586e-05
4.08974e-09
1.82692e-08
0.232225
5.62536e-07
5.82031e-09
4.81265e-06
0.23399
0.013535
0.0333885
0.0343665
1.10043e-06
0.0139171
0.000352669
0.000388166
1.94785e-08
0.0118875
4.97707e-06
1.89834e-07
0.0159255
1.04179
0.197326
6.78691e-06
1.37819e-06
0.0171972
0.0197112
0.0177943
0.00553768
0.00696233
1.19517e-08
0.000641506
0.000416315
0.0611308
1.0049e-05
0.275964
3.11221e-08
0.00196861
0.0246772
0.0174658
0.0111275
3.26868e-06
0.00606215
3.6055e-08
9.8163e-06
1.11411e-09
2.03063e-08
0.00245305
0.88118
1.00876e-07
5.30639e-09
0.000423806
0.0229273
0.00174952
0.00681477
0.0321986
0.00468079
0.0202062
2.01177e-05
4.60245e-06
0.000205738
0.0290322
0.00555162
0.00331272
1.21959e-06
7.30343e-09
0.00015799
0.0217425
0.00264538
4.93518e-09
0.149161
0.0574152
0.00630008
0.00608669
7.42136e-09
0.000196615
0.00676557
0.0222744
8.25927e-10
0.000413324
0.0147323
0.00103982
0.205664
0.00461338
0.00775943
0.000247156
0.00321678
0.0204806
0.0350831
8.50524e-05
0.0219947
0.000120423
0.199992
0.00016576
5.43066e-10
0.00247561
0.00746965
0.000421562
0.011286
0.000462105
0.000994535
0.000499167
0.042173
0.00361401
5.27877e-05
0.0371156
0.0012839
1.16232e-07
1.05423e-08
0.102301
0.000519619
0.00103359
1.06095
0.0343984
0.0119542
0.000434435
0.0441607
2.27559e-06
3.23266e-06
0.00379968
4.22443e-05
0.00199062
0.00396683
0.00216455
0.00450818
6.44649e-09
0.000214902
0.104217
2.01901e-08
0.0143397
0.00734872
8.05153e-06
0.00390913
0.000137339
4.05792e-08
0.000599739
0.138987
4.789e-08
5.53979e-09
2.11501e-08
0.148975
0.251988
0.0135763
0.0533623
0.00457898
0.031751
8.0033e-06
0.00777228
0.0120179
0.0230224
0.00149765
0.118101
0.34106
0.401605
0.0100939
0.00879842
0.0355418
0.156877
0.364616
1.39962e-08
0.175375
0.0477722
1.10545e-08
0.000406074
5.84315e-07
2.93943e-08
3.74584e-08
2.29279e-07
1.75576e-08
0.140298
5.12698e-08
0.00692485
0.00128823
2.29898e-08
0.00363627
7.34467e-06
0.0133266
6.54686e-08
0.000613879
6.45797e-06
0.0207266
0.00022136
6.65468e-06
0.00411885
0.0271926
0.01584
0.00375534
0.0260779
0.00334353
0.0222607
0.0519523
0.00940183
8.35533e-07
0.00105837
0.000334893
0.00541074
0.00975155
0.000590973
1.15454e-06
5.79663e-05
1.24062e-07
0.00335399
0.0412367
0.00075591
0.329258
0.00247646
0.000361529
1.57217e-08
0.0615802
1.15123e-09
0.00840235
0.0202806
0.0011334
9.68667e-05
0.00177528
0.00660224
0.00178091
0.000797066
0.00631556
0.00594806
0.00257562
2.25513e-05
0.0788616
3.56217e-07
0.0123222
0.0103595
8.04565e-07
8.02811e-10
0.000261346
0.00818068
0.0173787
1.40412e-08
0.00213684
0.0444154
0.000212554
0.00440373
0.0857907
1.70981e-09
8.2082e-11
0.00347515
4.16643e-09
0.000104725
0.0114563
2.17714e-05
0.010334
0.0310475
0.0181469
3.07435e-08
0.00150135
9.04738e-05
0.000132589
0.0460764
2.93085e-08
9.82379e-07
0.0101456
0.00053654
1.01214e-06
0.162031
0.000923686
2.89685e-08
4.1212e-08
0.000230896
8.36757e-05
0.00232993
0.0029876
0.0244771
0.242439
4.25457e-10
0.000334183
0.000708715
0.0425507
1.75959e-06
0.0475209
0.0831159
0.000119723
7.62165e-06
2.01378e-05
1.12709e-08
1.5734e-05
2.70874e-05
0.000378849
1.92232e-05
0.000319615
2.61057e-05
0.000675929
0.000346512
0.000602191
0.000130608
1.67804e-08
0.0271927
0.00942973
6.32347e-06
0.0816819
0.000248902
0.00021498
1.38633e-05
0.00115955
0.000265803
0.00262679
0.000387498
0.00104421
1.94914e-05
2.47088e-08
0.00118363
0.000420113
0.0669074
2.13479e-06
0.0365413
4.93339e-05
0.0350689
8.52859e-05
8.37485e-07
0.000399009
0.0263319
0.00745185
2.51013e-08
0.000299501
1.10609e-05
0.00429459
0.00122611
0.340551
4.63416e-05
2.04086e-06
0.0191604
0.00155704
0.00494693
0.0337729
0.0704539
4.7997e-10
0.0201506
0.00366326
0.0496956
5.68278e-09
0.0011486
5.70323e-07
0.042769
4.9865e-08
4.88498e-09
0.00320942
0.00210671
0.00290204
0.298443
0.039567
0.0251888
0.0338299
0.0160343
0.220744
0.0431531
0.0048905
0.0046733
0.00464896
0.000578708
0.00949304
0.037424
0.00144204
0.00141356
0.0307536
1.92966e-06
0.00327674
5.21736e-07
0.017372
2.30185e-06
7.70286e-07
0.00156992
4.15445e-06
0.00573134
2.46398e-08
3.6173e-07
0.0804436
9.73225e-09
7.73478e-08
0.000834893
6.33841e-08
0.000688901
3.56001e-05
0.0657538
0.0165276
0.266094
0.00749869
0.00690152
0.0399366
0.54911
2.49003e-10
0.064342
0.0279957
0.0163411
0.0229172
0.00226368
0.0526638
7.04956e-06
7.47538e-06
8.51375e-07
0.129491
1.09382e-06
1.02755e-07
0.0166281
6.60577e-07
1.48642e-08
0.00527294
2.51409e-06
0.285732
8.22971e-05
3.54789e-05
4.62864e-05
5.85925e-05
0.00144597
0.00637246
1.46544e-10
0.0217669
0.000409854
2.14859e-05
0.094894
6.92538e-08
0.0146147
0.0169561
0.00357676
3.21929e-08
0.0169526
0.00957449
0.000879307
0.00514869
0.01165
2.89929e-08
2.26152e-08
0.00166338
2.23269e-08
1.45892e-09
2.77311e-09
0.0185553
0.355037
0.0042857
0.00219909
6.91153e-05
0.0474849
0.0431833
0.00398516
0.00238698
0.00885612
0.0196226
0.002652
3.98621e-09
2.59895e-09
4.1491e-09
0.00695598
1.12321e-07
0.352118
0.000526713
0.000763496
0.00184123
0.00248934
0.0207244
2.47658e-09
0.0593036
0.0024409
0.000371799
1.55258e-06
4.12827e-07
1.61827e-07
0.480976
0.000310213
0.000581248
0.000867221
0.00967974
0.204217
3.17186e-07
3.20577e-07
4.99875e-07
0.00363012
0.0165826
0.0189816
0.0331347
0.00167092
0.00341163
3.60747e-06
5.3999e-10
0.000190011
3.80348e-07
0.165499
0.021206
2.40877e-07
1.25259e-06
1.89321e-05
0.0606673
0.0297622
1.83083e-05
0.0132779
0.0905916
0.000904567
0.40324
0.0472497
2.54317e-05
0.0216932
0.173783
0.0186504
1.05657e-05
0.0049151
1.53848e-08
0.0138948
0.00172608
0.02338
1.13598e-05
0.000379671
1.27136e-09
0.0231329
1.02665e-08
2.87812e-05
0.381289
1.22231e-07
0.00585255
0.00119851
3.74545e-07
3.97213e-08
0.00201469
4.17984e-07
1.14979e-07
0.0121029
0.000148163
1.38073e-08
0.0232877
0.044114
0.0162607
2.91168e-10
1.91346e-09
0.000590397
0.0026162
0.00307949
3.35287e-09
9.66437e-08
0.000132975
0.00380556
0.00188437
0.0126133
0.366805
1.36498e-09
0.141478
0.0111175
0.00622977
0.0561119
1.08624e-06
2.10812e-08
0.0228152
7.42698e-10
0.0296594
0.00492498
0.00571025
1.10215e-06
9.27761e-09
3.94262e-09
1.62836e-08
2.03923e-05
0.133883
0.212308
0.00213428
2.54374e-06
1.74696e-10
0.0557663
0.225319
0.0340138
0.111461
1.45873e-07
0.00096688
0.000245971
2.38176e-07
1.32186e-08
0.00365976
0.00619382
3.7006e-08
1.10757e-05
0.00283316
0.059972
0.204883
0.00106093
2.00551
9.98626e-09
3.73596e-07
0.0113816
0.000708103
3.36957e-05
0.636377
0.000589141
0.00601812
7.90238e-09
8.83419e-08
1.26601e-05
0.0582655
0.00817628
0.1777
1.99809e-08
0.0243534
0.018443
0.827473
1.09108e-08
1.27763e-09
1.10355e-07
3.51994e-08
0.0065409
0.000327166
1.01723e-08
0.0373219
0.0179813
0.159904
0.00459661
3.00559e-06
1.6531e-06
0.0276659
1.33201e-05
3.04931e-08
2.39168e-08
1.3409e-08
0.0204682
9.55662e-06
0.0581099
0.0562509
0.0247424
0.0114934
5.98686e-09
2.41454e-09
2.51227e-08
0.0146855
0.000250083
2.03335e-07
3.6342e-08
3.58657e-09
0.0219404
0.00234381
0.0108548
0.0403808
0.00191748
0.311643
0.00472599
4.39893e-07
4.27498e-10
2.5935e-07
0.0534659
9.56597e-10
0.0183092
2.24135e-08
0.0144387
4.50071e-05
0.00159331
0.000145555
0.00241138
3.93611e-09
1.54525e-08
0.368634
0.154656
3.51346e-05
0.00377393
4.22015e-07
0.00046258
9.61269e-05
3.00876e-06
3.30015e-06
0.000304248
8.23126e-08
0.00100853
0.0391591
0.0337864
2.05985e-07
8.32705e-05
9.06686e-07
0.0340819
0.181946
0.000152669
9.38429e-10
0.0096041
3.42595e-07
0.00265782
0.0174085
0.00139275
1.12174e-08
0.000885888
0.000529037
0.000134406
0.00409707
0.000123314
0.00168603
5.42084e-06
7.77806e-10
0.000155526
0.00555818
0.000297093
6.6478e-07
9.65363e-06
0.000121675
0.560196
9.44823e-09
1.87973e-08
3.4886e-08
3.52139e-10
1.27356e-07
0.0216478
0.000585358
0.00111941
0.000107211
0.000206093
0.00149212
2.78284e-10
0.00522025
7.0574e-09
5.39151e-07
7.67266e-09
2.60194e-05
0.00205333
1.54465e-05
1.11509e-07
1.33174e-08
0.0137081
1.22534e-07
6.93802e-09
0.156351
9.22807e-06
0.0746407
0.121614
0.544533
8.99555e-09
0.193746
1.0826
1.06449
0.610115
2.62054e-09
3.7707e-10
0.00457694
0.00431309
6.82664e-05
0.0102564
0.0423887
0.0301154
3.30197e-05
4.47096e-06
0.0012524
3.40055e-08
1.23833e-09
0.000124872
0.000410846
0.026099
6.44918e-09
0.11778
0.000127034
3.38519e-07
0.000111642
0.00779551
0.00155341
2.2895e-06
0.00759996
6.7314e-09
0.00326789
0.0021757
0.00704269
5.77739e-08
0.00176255
0.00546949
1.06908e-05
0.00323809
8.66637e-08
0.0299511
5.70643e-05
0.00897237
8.62157e-07
0.192927
5.66293e-08
8.54642e-07
2.7392e-08
0.1179
0.120934
2.06914e-06
0.0111739
0.00881321
0.055079
3.33253e-08
0.0301907
0.0159234
0.171595
1.28042e-06
0.195264
0.0232521
0.042684
0.00363183
1.60664e-07
0.052914
1.72694e-06
0.211676
1.78865e-09
0.00240525
0.00397589
1.08703e-07
5.59412e-05
1.2685e-06
0.0193355
7.55415e-09
0.0398102
2.89776e-07
1.00059e-05
1.09981e-06
5.30801e-07
0.00025817
0.00188168
0.124812
5.03952e-06
0.000246791
0.0380553
1.34729e-06
0.0430122
7.71173e-07
3.38101e-06
2.48899e-06
0.00550132
1.89778e-10
5.0656e-09
7.30748e-10
0.00304808
5.61154e-08
0.0675392
2.22249e-05
0.00305803
3.96112e-09
0.00567804
0.33577
0.00514719
0.00521554
0.024701
1.25105e-05
2.01294e-07
7.9163e-08
0.00296662
0.00160741
2.72669e-06
0.000544909
0.000571967
4.66472e-08
2.97297e-08
0.309721
7.60734e-08
0.0199541
4.12572e-08
0.0021851
0.00297517
1.94063e-07
8.20961e-10
0.0457163
7.12243e-09
2.60498e-09
0.0165741
0.0564699
0.00435479
2.24561e-06
1.39094e-08
0.0064082
5.35178e-06
0.0115667
6.05481e-06
7.41272e-09
0.00215513
6.74852e-05
0.129331
4.02943e-09
5.00339e-09
4.42256e-09
0.00312754
0.163403
9.55796e-07
1.61887e-08
7.57239e-06
0.00143406
1.9112e-08
0.0177343
0.0284943
5.2505e-08
4.39445e-09
0.00668975
2.40047e-07
2.09396e-05
1.54633e-09
2.54931e-05
1.01948e-08
0.0629693
0.000350586
1.35045e-07
5.5125e-09
0.0688074
2.98207e-08
0.0565818
2.45306e-07
4.63481e-08
9.61157e-06
0.00692049
0.0469008
0.00797414
0.0499393
0.0606763
0.532231
0.00253371
0.0403843
1.08542e-05
1.66337e-08
0.00227336
0.140876
0.0370227
0.04222
1.18817e-08
0.00682362
1.60231e-08
0.00436302
9.90263e-07
0.00873679
0.000170829
0.0519287
5.30443e-07
1.6521e-08
0.0198894
0.0002946
2.37982e-08
0.0243954
0.000287144
1.97772e-06
1.0047e-09
0.0327619
0.00912326
0.00597263
0.000790228
0.00168691
0.0159198
0.000949785
0.0044756
8.72304e-06
0.0265336
0.000125922
0.000457783
4.10583e-09
6.32533e-07
2.79211e-08
0.00961414
9.06734e-08
2.31393e-06
1.02936e-10
0.000401216
0.391449
0.0888809
0.00223717
4.8857e-09
0.00394972
0.0551876
0.102839
0.00289812
0.000271502
0.0414289
5.5815e-07
1.18379e-07
2.86506e-09
0.00273194
0.00118682
3.89869e-08
4.27552e-09
0.00229761
1.65752e-07
0.785413
0.0539352
0.0933669
5.27367e-09
1.14069e-08
0.0420947
4.81939e-09
0.00915539
9.4305e-09
0.000647601
2.08845e-08
0.00892848
5.15169e-08
6.0535e-09
0.0010816
0.154711
0.0646617
1.44992e-08
0.0690072
4.24917e-08
0.00383849
0.171028
0.117851
2.40007e-07
0.000489658
3.79404e-09
1.96084e-06
0.000277986
0.0156348
0.000301603
1.02734e-08
0.000635231
0.00301787
0.00491066
0.00756456
3.66769e-07
3.32722e-07
3.38646e-06
6.1081e-07
1.00496e-08
3.43186e-09
0.0751965
0.0371753
1.43961e-08
0.0843115
3.22304e-10
2.13479e-08
0.0687282
4.9097e-09
4.78561e-09
0.0401106
1.82987e-08
7.58462e-10
1.01055
1.98466e-09
1.26406e-09
0.00192749
0.0927547
1.39905e-07
0.0371482
8.4722e-09
0.0209764
0.0502592
6.28194e-06
0.000875803
5.88758e-10
7.27777e-08
1.04612e-06
1.79484e-07
0.319314
0.045539
0.000258761
3.27308e-08
0.0462994
1.01631e-09
2.04764e-08
1.83309e-09
0.10318
0.00178305
0.000111282
1.28253e-09
1.30217e-06
0.0481667
0.000911708
3.64986e-07
0.000264602
0.108832
0.0860507
3.56544e-05
0.0852012
0.000928716
0.0426951
4.20564e-05
0.0656567
0.000345015
0.0289043
1.47928e-06
0.00667834
0.000458205
0.000931982
6.96766e-10
0.00131318
7.00759e-08
0.00380342
0.0243699
1.0026e-06
0.00234685
0.000311255
1.74699e-07
0.0102171
9.05364e-08
2.70952e-08
2.734e-08
4.48874e-08
5.06635e-06
4.47078e-08
4.90215e-08
7.45481e-08
0.267313
4.32499e-05
2.04171e-10
1.72203e-09
5.4803e-08
1.00154e-07
0.0299614
0.768323
0.00210318
0.000140447
9.56037e-09
0.00201464
0.00138767
0.0463777
3.20215e-05
1.29276e-05
5.65208e-07
1.11141e-06
2.44284e-06
0.000222862
0.000117014
0.179684
0.067212
8.24012e-08
0.00105522
0.000299876
1.42899e-08
0.0242828
4.60722e-06
3.84325e-08
1.73213e-06
0.160892
0.06219
1.35483e-09
0.0249613
1.31667e-08
0.0486895
5.12728e-05
0.0355239
0.0529755
4.70799e-09
6.67744e-09
2.31807e-08
2.50142e-05
0.00566205
0.22497
0.028044
0.0417858
0.00445704
0.000538833
1.13853e-09
0.000117033
0.137964
0.00128691
9.53323e-05
0.00296851
4.05343e-06
0.0991109
5.15386e-08
0.205568
0.0383795
1.39429e-08
0.000487394
0.00716083
4.02429e-08
0.00971383
1.39737e-08
1.86053e-07
0.197245
0.029959
5.33518e-08
8.62241e-09
6.92848e-07
2.53643e-09
6.08384e-09
0.000126694
2.45318e-08
5.80695e-10
0.00310269
7.70587e-09
9.76572e-08
2.70347e-07
0.000229438
2.19828e-07
0.000168962
1.06574e-07
4.67866e-08
2.26085e-05
6.60953e-05
0.00356067
0.043129
8.07278e-05
0.00502003
2.30107e-06
0.320016
0.315315
1.24856e-07
0.00343008
1.78129e-08
0.0457901
0.0380476
0.000405331
0.0902504
0.0685336
7.16671e-06
1.10016e-09
0.00245235
1.12846e-08
1.23982e-09
3.97783e-07
1.58302e-05
7.24183e-09
1.73554e-05
0.0356521
5.13545e-09
2.40779e-08
0.337203
1.50248e-09
0.0172456
8.2781e-06
0.00132301
9.71049e-09
0.000442665
0.000145714
0.23954
0.00795339
0.0239318
0.00018281
0.0403081
0.000271029
0.0752735
0.000152771
0.000227324
0.00983112
0.0580421
0.000325374
0.00127792
4.31293e-06
1.79244e-07
0.00110733
0.000226298
0.0159192
0.0120818
0.000148728
1.9028e-06
0.00549284
0.00520546
0.0184975
2.19185e-09
0.0122809
0.0166593
0.00274459
0.00149152
0.00129639
0.00327261
0.0189944
0.040747
0.00715143
0.011039
0.00799724
9.06729e-05
0.00289968
0.00363495
0.00107616
0.00262707
0.0141907
0.0137657
0.0194326
0.000121988
0.011357
0.000422586
0.00507595
0.00284747
0.00035858
0.0023542
0.000203878
0.0756578
0.00398576
0.0012267
0.000141899
0.000728899
0.0159123
0.00245191
0.214201
0.00353275
6.84984e-10
0.231602
0.0457222
0.0218193
0.00712198
0.020254
0.000405709
0.00868238
0.463014
0.00213301
0.00138209
0.00250134
0.174942
0.00118008
0.0747178
7.55635e-05
7.74818e-08
1.31285e-08
0.00222513
0.00616645
0.0118357
0.0709754
0.006826
0.0613934
0.0549868
0.0705404
2.90188e-08
0.00710655
0.00265032
0.0252579
1.05898e-06
0.00634737
9.26598e-08
0.225307
0.0116014
0.00750602
0.221202
5.12927e-09
8.99638e-08
0.00221273
0.000110759
0.000763883
1.55932e-07
0.00656742
0.000969926
0.0783739
9.24651e-07
0.0222629
0.00309057
0.000351638
0.000126772
0.00238182
0.00132432
2.46952e-07
0.00186536
5.32681e-05
9.76978e-09
0.269057
0.00378818