/*--------------------------------*- C++ -*----------------------------------*\
  =========                 |
  \\      /  F ield         | OpenFOAM: The Open Source CFD Toolbox
   \\    /   O peration     | Website:  https://openfoam.org
    \\  /    A nd           | Version:  10
     \\/     M anipulation  |
\*---------------------------------------------------------------------------*/
FoamFile
{
    format      ascii;
    class       volScalarField;
    location    "20";
    object      T;
}
// * * * * * * * * * * * * * * * * * * * * * * * * * * * * * * * * * * * * * //

dimensions      [0 0 0 1 0 0 0];

internalField   nonuniform List<scalar> 
111485
(
303.15
285.075
300.946
303.15
298.378
283.15
298.885
293.357
296.257
286.207
300.483
296.153
300.168
284.546
299.943
286.712
299.314
297.174
293.985
303.15
303.15
283.15
297.198
288.649
301.576
303.15
293.125
300.61
288.802
303.15
300.772
294.297
303.15
283.15
283.442
283.15
302.305
297.545
283.149
296.569
283.15
289.543
296.992
302.87
303.193
303.15
287.311
288.509
289.578
303.15
303.15
283.15
303.15
298.874
303.15
293.443
287.847
283.15
283.317
295.4
295.801
303.15
302.037
300.194
283.15
284.54
300.082
291.467
302.088
302.51
303.158
301.867
303.15
302.088
303.15
295.341
283.15
293.37
283.15
283.15
283.235
293.315
283.15
303.15
300.271
284.203
283.15
301.526
303.113
299.051
283.326
289.524
300.824
300.372
289.744
303.15
303.15
301.527
303.149
283.414
303.15
286.592
283.15
285.145
285.703
283.15
283.15
293.031
301.408
283.147
298.85
287.998
301.252
301.658
303.15
301.949
303.15
283.15
300.103
303.15
303.15
283.15
283.15
283.15
283.39
303.151
283.15
301.781
303.15
283.175
303.099
301.913
303.15
283.15
283.15
292.451
283.15
294.14
298.761
301.076
303.135
296.778
298.943
284.75
302.267
297.737
283.15
303.15
283.15
297.09
284.91
303.15
303.144
287.26
283.156
293.658
295.582
302.514
283.154
303.15
303.15
292.118
286.2
283.153
283.157
301.149
283.681
283.15
283.152
283.152
283.15
303.15
283.207
283.15
291.488
287.128
283.15
303.15
303.15
283.15
303.15
303.15
297.604
293.429
295.721
289.687
301.336
300.378
283.19
303.15
301.414
303.15
303.15
300.113
286.234
301.369
301.315
295.669
303.15
300.841
284.573
283.159
300.721
297.031
303.15
300.372
288.149
303.15
283.223
300.138
284.787
300.65
303.15
303.15
300.665
283.15
292.717
283.15
300.57
298.621
290.285
303.15
301.716
300.521
283.15
283.15
283.15
289.466
283.157
283.15
303.15
298.573
291.298
289.84
283.15
303.15
303.108
303.15
284.313
300.041
299.197
299.455
299.325
283.15
283.144
298.814
283.15
283.15
288.718
288.303
283.15
301.137
298.828
303.15
283.15
301.057
303.15
303.15
303.122
303.15
288.214
285.828
290.703
303.15
298.283
303.15
303.15
303.15
283.148
298.001
300.943
299.376
291.157
299.429
296.192
283.21
290.256
291.497
283.15
303.15
283.149
292.393
298.719
286.421
303.15
297.96
297.226
298.835
302.955
283.167
297.042
299.311
302.017
283.15
283.604
283.15
283.149
303.15
283.852
290.223
286.251
303.15
283.15
297.546
285.223
303.15
303.15
303.15
284.557
290.174
301.021
284.391
292.954
283.15
283.15
303.15
298.31
303.15
283.805
289.4
283.153
283.15
303.15
303.15
283.15
294.285
289.907
283.15
295.64
283.15
303.15
300.99
297.239
293.941
295.749
283.15
283.15
283.15
296.545
290.93
302.375
283.15
283.15
283.15
290.019
296.894
283.211
290.408
283.15
292.723
299.506
284.18
298.575
285.218
283.15
303.15
283.15
303.15
290.616
296.66
287.902
291.88
283.15
286.303
283.15
303.15
293.749
303.15
301.71
303.15
283.15
291.873
283.15
288.706
284.604
283.15
283.969
297.963
283.15
300.112
284.659
298.792
303.018
290.976
285.967
283.15
303.15
303.144
283.15
300.954
300.781
283.15
283.15
294.687
284.338
298.131
296.868
283.15
295.002
296.021
283.15
302.045
283.878
303.15
303.15
288.179
298.536
283.15
303.15
303.15
303.15
300.715
283.15
303.15
293.917
283.17
286.864
299.906
283.15
283.15
302.609
283.15
302.445
301.395
297.775
288.451
283.15
293.829
303.377
303.15
298.58
292.226
303.15
283.15
283.303
283.15
289.954
286.055
291.564
283.15
292.788
296.529
292.981
303.147
283.15
303.15
303.15
283.168
292.648
283.15
284.302
303.131
283.15
303.15
303.15
303.15
301.849
290.44
285.951
284.177
284.287
283.15
285.659
303.15
300.676
283.15
303.15
303.15
300.618
303.15
303.15
283.151
303.15
283.15
300.62
283.15
283.15
283.15
303.15
283.15
303.15
283.15
283.66
283.15
303.128
301.86
283.74
283.15
303.084
283.15
303.15
284.678
284.648
286.071
297.455
283.15
297.421
297.532
292.205
286.758
285.23
303.15
291.676
283.15
299.809
283.15
296.726
283.15
291.996
298.485
303.151
283.15
286.739
303.15
295.447
299.029
283.15
283.15
283.15
283.15
303.15
293.614
283.15
283.15
283.237
283.15
299.761
283.15
284.761
303.15
283.426
303.119
284.622
291.825
283.15
301.414
283.15
283.15
285.648
283.15
283.255
283.15
299.621
303.15
290.591
303.15
283.15
302.383
284.439
300.033
285.61
300.031
289.42
283.15
300.578
284.513
283.15
283.141
300.262
301.557
283.15
282.481
301.017
303.058
283.123
303.15
287.525
302.154
284.376
285.341
288.123
282.593
283.15
303.15
300.556
303.15
283.546
283.15
283.15
291.7
282.691
303.149
303.114
283.15
286.215
299.555
283.15
283.15
299.576
303.15
283.15
283.15
283.15
286.101
283.15
303.15
284.786
284.208
303.15
299.679
283.15
289.196
303.15
283.15
286.094
283.15
283.15
283.15
285.334
283.15
285.402
291.896
303.15
300.32
283.438
298.64
300.931
283.299
283.451
283.15
288.891
298.395
303.15
302.25
295.982
296.828
284.694
297.392
297.154
303.15
300.188
303.133
283.15
297.085
284.805
283.15
292.306
295.654
284.822
298.716
300.592
292.266
283.15
298.863
283.459
303.15
300.557
301.954
294.026
283.15
286.433
303.15
283.15
283.15
283.15
283.3
283.15
303.15
303.15
283.15
300.399
299.192
303.15
285.569
303.15
303.15
303.15
289.975
283.417
283.15
303.15
283.15
283.15
286.774
292.313
283.15
295.067
283.137
283.15
295.236
302.197
287.709
283.15
283.15
300.215
292.02
283.15
283.15
283.15
293.913
303.15
303.15
283.15
296.176
302.35
283.15
282.363
301.678
286.489
283.15
283.15
287.426
302.958
283.15
283.159
287.137
283.749
288.731
283.15
285.662
300.222
283.15
303.15
283.15
283.15
283.15
283.15
295.599
303.15
283.15
283.15
295.211
291.74
303.15
303.15
289.75
298.342
298.242
303.15
283.15
297.909
303.15
283.82
298.778
298.287
303.15
303.15
303.15
283.15
286.008
283.15
283.15
302.702
303.15
297.744
302.247
283.15
293.984
283.271
296.365
291.918
283.416
289.693
283.15
283.15
296.809
288
290.78
283.15
283.15
297.543
294.881
283.15
283.889
284.56
283.465
303.15
303.15
303.15
290.68
283.15
300
283.15
284.346
297.532
298.437
292.197
283.15
283.15
303.15
295.306
283.15
283.15
303.097
283.15
283.15
303.15
283.15
299.255
283.15
283.15
283.15
283.15
283.15
303.15
283.15
283.172
298.721
303.15
302.524
283.132
283.391
283.096
285.485
283.15
284.422
290.474
283.391
303.15
283.149
299.677
283.15
300.197
283.142
283.144
286.161
297.42
283.207
291.84
297.993
283.15
283.15
298.998
299.741
283.15
297.272
291.207
297.56
283.15
283.243
283.15
297.864
296.991
283.15
300.021
297.641
283.149
299.721
283.15
295.566
283.145
303.128
283.161
283.16
283.15
283.15
284.412
283.15
302.964
283.576
283.063
303.147
303.149
303.148
283.15
283.15
293.743
303.15
303.21
283.85
283.15
283.15
303.154
303.149
283.15
303.165
283.15
283.15
303.15
303.15
303.15
303.15
283.361
283.15
283.15
283.15
303.157
283.3
283.873
293.397
283.15
283.15
283.329
283.15
283.15
283.15
287.192
293.524
283.15
283.15
283.15
283.15
283.15
283.15
283.988
283.15
303.15
291.495
283.15
303.15
303.15
303.154
303.15
303.15
283.15
303.171
283.15
283.681
283.145
303.152
283.15
303.061
284.365
292.018
303.15
303.129
284.424
303.15
283.15
303.15
283.15
293.97
293.393
284.6
303.148
283.15
293.162
283.15
283.15
303.15
283.15
294.786
283.15
303.15
283.163
298.095
303.15
284.359
283.15
283.564
283.15
283.15
283.15
303.15
285.797
283.466
284.103
283.15
283.15
285.595
283.15
283.15
303.15
284.318
303.165
298.493
303.15
303.127
303.127
283.15
303.129
283.15
283.44
289.06
301.036
283.781
283.165
283.15
283.15
283.15
303.184
283.15
302.894
303.15
292.573
303.15
288.678
283.813
303.15
283.15
303.15
283.15
301.761
303.15
303.15
286.363
300.515
283.15
283.15
283.15
283.15
283.15
283.15
300.767
283.569
303.15
303.15
303.157
303.15
300.15
284.4
283.15
302.091
303.15
301.594
283.15
302.56
283.15
283.148
303.152
283.31
302.092
300.181
283.147
283.15
289.308
303.15
293.314
303.15
283.15
303.15
283.15
283.15
283.15
300.763
302.034
303.15
303.15
303.15
302.899
283.15
303.15
292.821
283.087
303.15
297.478
298.318
296.441
283.371
283.15
283.15
283.15
283.15
294.572
283.15
294.735
283.15
303.056
289.792
283.15
302.853
283.15
283.15
302.726
283.148
302.91
283.15
303.15
283.15
302.375
283.15
303.15
283.15
283.148
283.15
283.17
283.15
283.15
303.15
292.957
301.074
296.035
296.955
303.15
303.115
283.15
283.15
285.642
283.15
283.158
302.837
298.766
302.934
303.15
283.357
283.15
303.15
283.15
302.988
283.313
298.309
283.15
303.15
288.025
303.15
283.15
283.127
294.997
283.147
283.15
283.15
283.149
303.15
283.15
303.141
303.15
303.15
289.871
302.981
302.989
288.945
293.186
283.15
283.15
303.081
289.016
283.15
303.15
284.716
283.15
303.15
283.15
283.15
283.15
297.293
283.15
302.934
283.15
300.43
283.15
283.15
283.15
283.15
283.15
283.15
284.992
283.15
283.15
283.15
283.15
283.15
283.15
291.933
283.15
298.38
302.926
283.15
302.336
283.15
302.504
303.145
292.27
288.748
303.15
292.134
284.752
303.107
303.15
303.14
295.048
288.626
283.15
287.847
283.15
283.15
283.15
283.15
287.474
283.15
283.15
291.616
303.135
285.288
283.15
283.15
302.524
283.15
283.182
303.15
299.876
283.15
283.15
302.82
283.15
303.178
303.15
283.15
289.008
298.003
292.674
285.621
292.477
294.053
283.15
283.15
302.267
290.547
292.713
284.386
283.15
294.373
283.15
303.15
300.691
298.738
283.15
297.401
283.15
292.722
297.159
303.15
283.15
283.15
301.748
283.15
283.15
300.46
296.106
283.197
291.183
283.15
283.15
302.786
300.479
283.15
300.607
283.15
300.462
283.15
283.15
300.766
283.15
283.225
301.574
283.15
283.15
302.42
283.15
287.86
303.15
290.288
303.15
303.15
303.15
300.909
283.15
283.15
299.492
283.15
302.982
283.15
283.15
303.15
283.151
288.152
283.15
283.15
288.016
288.196
283.15
283.668
283.15
303.15
302.409
283.705
301.535
283.15
283.15
283.15
283.15
283.15
283.15
283.15
283.15
283.15
283.15
283.15
303.15
283.15
283.15
283.15
283.15
283.15
283.15
283.15
283.15
303.15
286.9
283.15
283.15
283.15
294.644
283.15
303.15
302.885
283.15
283.15
294.648
283.15
283.15
301.769
295.125
283.15
303.677
303.603
283.15
301.448
293.898
297.486
301.447
298.099
303.15
283.15
296.397
291.698
301.389
283.15
302.122
302.407
300.838
288
287.281
301.027
301.759
301.759
303.15
285.837
297.498
285.487
297.2
283.15
283.15
283.15
303.15
283.15
291.92
297.883
283.15
283.15
283.15
283.15
283.15
303.15
283.15
303.15
292.094
303.107
298.98
302.838
283.15
283.15
285.369
283.168
283.15
283.15
301.727
303.15
283.15
298.121
299.48
297.487
298.593
300.769
303.15
291.004
302.569
303.15
303.15
300.276
303.15
283.15
282.994
295.5
302.942
283.15
303.15
289.531
286.127
297.149
292.119
302.363
303.15
303.136
303.15
303.15
283.15
298.978
283.15
291.728
290.404
299.648
284.737
303.15
301.9
303.15
283.15
303.15
303.15
291.444
299.446
283.15
303.15
303.132
291.707
303.026
299.313
292.746
288.282
292.852
283.15
303.15
283.15
291.18
298.253
303.151
303.15
303.15
303.15
297.448
302.563
283.15
299.935
301.103
284.836
299.476
303.15
303.15
298.638
292.903
283.15
302.895
299.666
302.605
291.904
297.262
298.193
303.15
286.947
298.175
291.273
283.15
289.005
303.15
288.346
301.023
303.15
288.664
301.244
300.072
293.115
283.15
283.16
283.237
301.585
300.88
303.15
288.781
301.446
303.15
283.15
303.15
303.208
298.704
290.552
296.732
303.259
283.149
297.382
303.15
303.15
292.728
303.15
300.284
283.299
301.285
291.498
303.15
283.649
293.151
303.15
283.069
298.634
303.15
300.659
286.218
303.15
303.15
283.979
303.15
283.15
283.15
285.887
299.209
291.117
303.15
285.179
297.412
283.15
298.803
298.838
288.925
303.102
283.15
301.513
299.644
298.803
300.04
288.623
290.716
302.484
303.15
301.521
288.676
303.15
298.814
283.15
283.15
303.15
283.15
303.15
297.412
283.15
300.489
283.631
303.15
283.787
283.15
289.796
303.15
303.144
303.15
294.078
302.997
303.117
299.815
290.368
289.392
290.546
298.35
303.15
299.337
292.11
298.89
303.15
283.861
283.441
299.198
287.123
283.504
303.15
283.15
303.15
285.286
303.15
303.341
284.667
303.393
302.954
303.15
303.15
283.15
300.51
300.659
285.451
303.084
286.966
295.619
301.867
292.448
288.093
302.07
296.053
283.15
283.15
303.15
285.78
289.648
283.15
283.15
303.15
301.973
288.638
303.15
296.353
303.15
283.155
285.149
301.158
303.15
303.15
292.218
303.15
283.297
290.569
283.15
297.116
294.586
296.101
303.15
302.699
283.15
302.66
293.355
303.15
303.15
288.751
283.15
303.15
301.775
284.422
303.15
303.15
283.15
302.328
303.477
289.427
299.651
298.092
303.15
303.159
302.583
303.15
283.15
303.15
303.15
303.15
303.15
303.15
303.15
303.15
283.15
303.15
303.15
283.336
303.15
303.35
303.15
303.163
303.15
303.15
300.887
303.677
303.15
291.91
303.15
303.15
283.15
302.546
303.15
302.13
303.113
283.289
283.15
303.15
302.562
283.149
303.15
303.15
291.307
283.15
292.531
283.15
283.15
283.153
291.156
284.812
303.15
296.607
283.15
303.779
303.133
284.298
302.583
283.15
292.106
303.083
301.641
283.15
303.15
283.15
304.138
284.798
296.862
303.15
303.15
303.15
303.15
303.15
303.15
302.338
302.805
297.563
291.965
303.15
287.105
292.585
284.954
303.209
283.15
286.872
302.748
284.747
283.148
287.436
303.15
283.38
302.918
292.472
302.843
301.855
303.15
302.243
303.15
303.15
297.911
303.15
284.46
303.15
303.15
283.15
303.15
303.15
302.842
303.15
283.296
283.15
283.15
285.79
284.846
300.913
286.07
303.15
294.563
303.15
290.385
303.15
287.11
300.644
301.454
293.261
303.15
303.15
303.15
289.767
283.15
303.15
289.52
283.15
283.15
301.796
303.15
286.145
283.148
283.15
303.15
303.15
300.631
298.146
303.15
293.361
303.033
283.15
298.58
303.15
286.376
288.185
302.126
303.15
296.267
296.742
302.948
301.862
301.632
303.15
303.15
303.147
303.15
283.15
303.15
289.521
300.186
294.276
302.108
283.15
300.337
291.336
298.203
283.591
298.268
289.552
302.145
283.15
283.15
283.15
302.192
283.15
290.406
283.15
301.226
303.162
289.676
298.031
283.15
303.15
301.214
301.191
303.15
283.15
303.15
286.391
301.415
302.974
302.325
297.974
288.398
303.15
303.15
303.15
294.178
285.94
289.739
295.82
283.945
302.953
303.15
303.15
283.15
283.15
285.399
299.576
303.15
303.15
283.15
303.15
303.15
303.15
300.215
303.15
285.316
292.171
283.15
283.247
293.311
285.661
303.15
303.15
301.866
303.15
299.176
283.147
297.513
303.15
303.15
283.15
303.15
303.15
303.15
305.146
303.15
301.818
301.114
303.15
303.15
301.59
303.15
283.15
287.203
303.099
303.15
303.15
303.15
297.885
303.15
303.15
302.396
302.477
301.754
303.15
283.15
303.15
302.026
302.502
301.5
302.523
283.15
300.627
287.436
297.406
283.15
303.15
303.15
303.15
303.15
294.297
287.525
299.664
303.15
303.15
303.15
303.15
283.15
303.148
284.75
285.125
283.15
303.15
303.15
283.148
299.526
294.792
283.15
303.15
303.15
303.15
303.15
289.566
289.613
303.15
303.15
302.401
303.15
301.454
283.938
291.815
303.15
283.15
301.174
303.121
303.15
302.997
301.287
286.795
303.15
303.15
303.15
303.15
293.243
284.133
303.15
302.677
298.012
289.252
303.15
303.15
303.15
303.15
299.531
303.151
303.15
303.15
298.217
302.596
288.297
303.15
303.15
297.702
303.15
303.15
303.15
303.15
288.759
303.15
283.15
283.15
295.881
291.028
303.15
303.15
303.15
296.98
303.146
303.15
303.15
303.15
303.15
303.388
300.835
303.15
287.291
302.637
299.351
303.15
303.15
303.15
303.15
283.15
285.639
303.15
302.844
283.15
302.162
303.15
303.133
303.15
283.15
301.947
285.573
283.15
302.825
303.15
302.404
283.15
303.15
303.15
303.151
303.15
283.27
303.15
290.788
283.15
283.15
303.15
303.15
298.8
302.356
283.15
302.393
283.15
284.091
287.915
302.69
283.15
303.155
302.981
303.133
284.382
283.156
302.98
283.15
283.15
283.156
302.056
302.276
303.15
283.15
283.15
295.164
303.15
283.15
303.15
303.15
303.15
303.108
303.044
302.921
302.429
303.15
302.898
303.15
284.78
303.15
303.15
283.15
303.15
303.11
303.15
283.15
303.15
288.271
303.15
303.15
303.17
283.15
302.786
301.945
296.637
303.15
289.156
294.201
283.773
289.846
283.15
283.15
287.167
284.3
283.15
303.848
283.15
286.37
303.15
283.15
303.155
303.15
303.15
303.012
303.155
303.15
283.15
303.138
303.15
283.15
283.106
298.675
302.69
303.15
301.814
303.15
285.67
303.152
301.142
303.15
303.15
301.003
303.15
303.15
303.15
287.648
303.15
285.113
303.15
303.147
303.15
283.15
283.15
303.15
303.15
303.15
288.652
302.533
303.15
303.15
288.542
286.471
291.098
303.15
302.688
287.629
287.495
303.15
303.15
287.577
283.15
291.845
303.15
303.153
303.149
303.15
300.49
283.15
302.315
283.15
303.15
303.15
303.15
303.15
303.15
284.307
302.229
290.988
303.15
303.15
290.517
303.15
303.15
303.15
303.15
303.15
300.109
303.15
303.15
283.15
299.413
303.15
283.15
303.15
301.337
283.15
299.914
290.65
302.674
299.978
299.396
303.15
303.15
303.15
300.808
288.425
283.15
303.15
300.274
303.15
303.15
291.925
303.15
287.43
303.15
297.78
284.293
303.15
283.15
303.15
303.15
303.15
285.213
303.15
300.449
303.15
303.15
299.655
283.15
284.711
303.15
303.15
288.045
301.545
296.365
303.15
303.15
303.15
301.561
292.172
303.15
283.15
303.15
300.634
303.15
284.734
296.247
303.15
303.15
301.104
303.15
303.15
283.15
303.15
283.15
294.492
303.15
283.15
303.15
303.15
303.15
303.15
303.15
303.15
283.15
301.512
283.15
302.053
303.15
303.15
296.057
300.433
303.15
283.15
303.15
300.842
283.15
303.15
303.15
303.15
300.696
303.15
297.603
303.15
285.809
283.15
286.688
303.15
303.15
298.474
283.15
303.15
287.799
283.245
303.15
303.15
285.056
283.83
300.808
301.703
301.15
293.12
301.71
283.828
303.15
297.64
283.15
283.15
303.15
303.15
303.15
301.179
303.15
303.15
303.15
303.129
283.168
283.15
283.555
303.15
301.986
283.15
303.142
296.029
283.15
294.479
303.15
303.15
283.15
299.839
283.909
303.15
283.15
299.868
303.15
297.656
303.15
295.201
303.15
283.15
303.15
283.15
299.379
283.15
283.223
283.15
286.154
303.15
303.15
283.15
283.15
303.15
303.15
303.15
303.15
284.842
284.696
283.15
303.15
283.232
283.15
283.15
303.154
289.82
283.536
283.15
301.467
284.853
300.443
288.129
303.15
303.15
303.15
303.15
283.15
283.15
283.15
303.15
283.15
283.15
303.15
283.15
297.192
283.15
303.15
283.15
303.15
303.15
283.289
283.15
303.15
301.918
303.149
303.15
303.15
303.15
288.672
283.15
303.15
303.149
283.15
303.15
303.15
303.15
295.282
283.15
283.178
303.15
303.15
303.15
303.15
303.15
303.149
303.147
284.09
303.15
283.15
303.15
303.149
303.15
303.148
303.149
283.15
283.15
283.15
303.15
303.15
283.15
303.149
283.15
287.668
283.15
301.766
283.15
303.154
303.15
284.577
283.15
284.423
297.334
303.15
284.66
303.174
303.15
297.343
283.15
303.15
303.15
303.15
303.15
283.15
303.15
303.15
299.094
283.15
303.15
303.15
303.15
303.15
292.287
290.141
303.171
283.164
303.15
301.792
302.306
303.15
283.15
283.15
303.15
303.15
303.15
283.15
283.15
283.806
303.15
303.15
303.199
303.151
283.15
288.81
303.15
283.15
303.15
287.98
303.15
283.15
302.084
283.15
283.15
283.15
303.15
299.6
303.15
303.15
303.15
283.15
284.475
293.493
295.139
289.498
303.118
303.013
283.15
283.15
301.026
283.68
283.15
303.149
303.15
303.15
283.15
294.458
303.15
283.15
302.972
303.15
303.15
283.777
303.15
303.15
288.334
289.488
303.15
283.15
303.15
283.15
303.15
303.15
303.15
303.15
283.931
303.15
303.15
303.15
302.92
303.15
303.15
283.15
283.15
283.15
283.15
302.932
283.15
283.15
300.919
303.15
284.735
284.893
303.15
301.083
303.15
283.15
303.15
283.15
283.15
303.15
303.15
303.15
302.652
303.15
303.15
303.15
283.15
303.15
283.15
286.336
303.15
303.15
291.546
303.15
283.15
283.15
302.401
303.15
303.147
283.15
303.185
286.613
283.15
283.15
299.144
283.15
283.15
303.049
303.162
293.287
303.167
303.151
303.153
283.15
283.15
302.63
283.441
285.766
300.833
283.157
283.15
290.995
301.547
301.447
283.15
300.195
290.654
300.12
302.191
302.716
284.65
295.417
299.173
286.223
293.264
300.084
303.15
297.981
297.513
302.775
283.657
292.275
301.13
287.292
303.15
300.973
303.15
300.686
301.462
283.631
284.961
303.15
283.15
302.284
301.652
283.146
303.173
288.505
302.669
301.795
300.781
303.15
303.234
301.084
294.93
300.418
288.826
302.901
301.646
302.193
302.256
284.2
302.487
301.558
283.177
303.15
302.887
303.15
303.15
302.066
301.974
294.228
303.15
284.652
292.233
292.287
300.774
303.15
283.983
285.163
284.381
303.15
298.738
303.15
296.392
295.285
300.682
303.141
303.15
303.15
301.909
301.22
302.772
303.15
292.56
302.737
289.91
283.15
298.351
293.941
303.15
300.506
283.15
283.202
283.15
302.548
303.093
303.15
302.98
298.325
283.148
300.486
302.206
295.299
283.525
295.761
296.994
283.449
303.132
284.722
296.332
283.316
296.764
300.45
300.198
300.315
301.961
289.614
301.54
303.15
302.713
302.643
302.655
296.535
302.889
283.15
301.991
293.408
303.15
283.424
286.81
301.176
302.578
290.474
284.799
287.638
302.604
296.323
303.15
303.15
294.945
283.15
292.604
283.42
303.15
290.519
290.217
283.898
303.15
297.232
298.515
284.216
301.202
294.152
290.128
300.501
303.112
303.15
303.15
283.521
302.599
283.341
285.766
303.15
303.018
303.033
303.15
285.381
300.843
297.796
283.242
299.486
302.345
300.461
286.866
283.15
303.103
301.781
283.727
283.135
303.15
303.071
303.15
303.15
284.167
302.521
296.403
283.035
283.153
303.15
283.15
302.949
303.041
302.488
301.381
303.15
283.15
283.15
301.797
301.854
283.21
295.903
303.15
303.15
301.589
285.473
283.257
301.652
301.758
301.695
284.376
303.15
283.15
298.478
297.711
303.15
302.687
302.054
284.628
284.949
302.087
303.057
303.15
298.113
284.401
283.15
303.15
300.569
301.182
301.988
289.567
302.047
285.634
300.113
300.299
290.297
297.488
303.15
303.15
300.9
284.443
302.064
283.151
300.444
301.673
283.62
288.255
302.401
283.15
283.15
283.029
303.15
303.15
299.913
298.898
302.26
283.148
283.15
283.918
283.151
283.15
283.151
303.076
300.884
299.106
295.817
283.362
303.09
300.087
303.15
283.15
302.539
289.196
300.768
292.671
283.503
303.057
283.148
283.15
302.825
301.175
302.596
283.155
291.164
284.863
303.15
284.236
301.005
283.15
283.304
284.924
284.085
283.15
283.15
301.612
283.15
289.327
302.513
302.689
301.769
283.468
298.116
289.945
283.15
303.35
292.023
283.15
283.15
283.15
303.15
301.2
302.396
299.125
301.434
299.906
288.811
283.154
290.944
290.121
303.058
290.998
299.966
292.03
283.15
286.277
301.044
301.543
283.15
283.974
299.63
283.15
303.15
283.186
301.243
303.15
283.995
302.256
303.015
303.15
283.15
292.747
303.153
301.667
283.15
283.15
283.15
302.166
297.506
303.143
302.174
303.167
303.15
288.327
303.167
290.4
300.182
300.14
296.526
283.156
301.668
283.15
290.538
301.381
289.397
290.446
298.922
300.666
301.565
287.138
291.11
284.978
283.171
302.193
286.092
283.15
283.144
300.159
283.081
300.255
286.955
296.053
299.386
289.143
299.23
283.121
299.162
283.15
289.925
288.863
298.606
283.325
283.15
300.514
283.15
302.786
283.15
303.15
286.437
286.44
283.15
298.94
298.573
286.986
303.15
303.15
301.684
289.749
302.983
283.72
301.545
287.046
303.147
284.173
288.131
303.15
301.39
283.15
283.15
287.517
286.977
283.145
285.229
301.466
286.194
301.227
303.15
285.092
301.718
291.156
303.15
303.15
301.582
302.021
303.15
292.95
294.258
283.655
296.339
286.739
289.961
303.15
302.748
296.98
284.969
283.15
287.677
291.826
299.579
283.161
283.742
282.956
301.924
303.114
283.151
303.132
303.15
300.553
292.979
298.779
293.781
283.15
291.911
295.884
285.546
283.211
291.333
283.15
300.293
303.165
292.469
284.088
303.143
291.811
298.557
288.201
300.35
291.302
287.281
283.15
303.141
285.308
289.842
293.4
283.15
283.15
283.15
303.141
283.15
283.137
286.38
303.15
283.15
303.168
283.172
291.088
288.717
303.558
302.905
289.809
303.15
296.925
303.177
301.988
287.23
283.15
292.853
303.144
303.092
286.145
283.15
283.15
283.464
285.973
303.05
303.143
287.477
289.433
283.473
283.162
289.805
293.178
303.15
283.15
303.094
303.15
302.316
284.986
302.329
303.091
284.046
283.765
284.032
302.857
302.151
297.381
293.998
303.066
291.202
290.99
303.15
303.095
302.571
285.402
283.374
303.15
285.91
283.382
302.927
301.691
302.153
283.15
300.302
301.831
303.15
302.128
285.37
303.15
297.843
303.15
283.15
300.667
302.667
286.278
302.476
283.15
285.145
303.002
283.15
302.284
285.332
294.819
284.313
303.15
303.016
302.88
286.461
283.15
287.082
284.237
289.723
285.696
302.232
303.15
283.15
283.15
293.105
283.15
301.033
302.139
290.318
283.15
294.01
283.15
303.15
283.15
300.084
298.513
283.151
285.242
301.728
303.065
303.155
291.793
294.14
301.163
283.198
301.801
283.145
303.15
303.144
298.891
283.15
300.656
294.711
303.15
300.924
287.256
301.955
284.876
288.138
283.15
302.199
287.67
298.378
303.079
283.15
303.15
291.613
302.138
283.079
283.147
286.717
298.272
303.149
284.43
300.987
300.959
301.214
303.153
299.844
287.582
284.886
301.552
299.839
283.707
283.107
303.16
303.149
303.15
297.293
283.163
283.15
303.15
303.149
289.854
298.891
300.26
287.72
302.788
303.15
286.394
301.571
303.15
300.932
283.787
301.423
303.15
284.527
301.373
295.509
302.76
303.15
303.15
285.138
295.011
296.309
287.328
303.15
303.15
283.15
287.154
302.377
296.096
303.15
285.527
303.15
303.15
300.449
288.666
283.15
295.474
295.805
299.065
283.15
303.15
292.616
287.162
303.15
297.885
300.465
300.368
303.15
303.15
303.15
300.173
298.267
302.781
299.837
283.15
292.841
287.606
290.533
300.519
303.15
303.15
300.715
303.091
286.496
296.02
303.15
303.147
283.15
286.394
298.857
285.535
303.15
303.15
283.335
303.121
303.15
303.15
283.15
290.464
303.15
303.15
284.555
299.263
283.15
303.15
284.585
301.283
300.107
286.937
294.93
303.15
283.492
303.15
303.15
283.309
300.487
290.347
300.34
303.15
303.129
302.144
292.539
299.71
301.296
284.419
283.448
300.852
298.321
303.15
302.742
284.116
299.675
301.341
287.617
303.15
297.363
301.371
301.458
301.499
292.843
303.15
283.15
299.11
283.15
283.15
287.687
283.15
283.989
283.15
283.15
283.15
283.15
302.738
288.089
302.686
283.15
295.596
290.879
284.706
283.15
303.15
302.66
301.702
303.161
302.616
283.15
294.736
300.204
290.104
283.15
283.15
299.739
285.887
283.15
283.15
303.149
290.505
283.15
287.075
303.149
303.152
284.284
283.15
288.14
292.035
300.773
294.574
302.946
285.571
302.484
295.162
286.21
283.15
283.533
291.516
303.067
289.002
302.637
283.15
292.316
287.685
300.992
301.279
284.87
303.099
284.872
296.958
302.984
303.146
285.092
303.145
302.999
293.199
302.679
283.15
303.15
303.15
294.658
290.936
283.155
301.023
284.642
284.124
284.586
303.145
288.275
300.402
283.15
283.15
302.476
303.15
294.444
302.885
303.183
299.719
303.224
302.871
283.15
301.247
302.867
283.15
303.15
301.283
303.15
284.29
298.656
283.163
291.417
283.15
287.512
303.006
299.691
283.15
303.018
290.838
301.177
303.123
303.077
283.15
283.15
301.931
301.968
283.785
302.803
302.39
302.357
303.141
283.15
293.611
283.15
302.78
287.803
302.979
303.15
283.15
302.806
285.091
291.416
302.017
283.15
302.56
301.959
301.521
302.459
303.041
303.212
303.003
303.15
283.15
301.479
297.761
303.086
303.15
289.831
284.822
303.15
283.15
285.271
303.184
303.166
302.907
301.076
284.238
303.094
290.661
294.167
303.148
288.962
303.164
283.15
289.772
283.15
299.889
298.038
284.752
288.097
299.523
296.645
295.202
299.084
293.649
303.154
293.815
296.271
283.161
299.29
293.794
303.15
298.843
299.047
303.15
291.089
303.171
301.621
303.15
286.854
285.94
302.782
289.595
283.15
283.15
300.27
301.151
283.707
283.15
303.15
300.16
302.289
300.568
299.801
302.77
292.495
289.568
286.579
292.418
284.269
290.291
283.302
295.669
290.353
293.827
287.032
284.26
303.164
283.271
303.148
285.526
300.643
283.151
300.4
298.374
288.659
302.084
285.361
298.98
283.15
302.943
283.154
283.118
287.517
299.556
303.15
300.316
303.014
299.86
302.744
303.15
301.201
284.912
294.818
302.008
303.149
283.688
283.15
290.219
285.206
285.697
303.123
303.148
283.15
283.15
283.175
303.15
293.354
303.15
303.146
293.87
303.438
303.15
300.397
303.15
303.15
293.558
290.511
303.15
289.754
302.023
289.481
303.15
303.15
285.843
283.331
290.237
303.228
303.15
303.145
285.415
283.24
283.15
288.891
287.499
303.15
284.278
303.15
303.15
303.131
287.268
303.15
303.147
283.269
303.152
302.636
287.848
283.153
283.576
297.334
290.633
303.15
285.864
284.399
301.276
287.049
302.16
290.504
293.753
303.15
303.15
283.983
303.146
302.938
295.858
302.938
302.723
287.11
283.15
285.275
283.215
297.033
302.578
285.32
303.15
283.772
286.654
303.124
283.175
303.15
286.337
283.15
300.11
303.15
299.635
299.759
283.296
283.353
302.301
290.735
301.352
303.15
301.342
301.701
303.15
303.15
298.247
293.318
283.15
288.703
303.15
295.201
283.349
303.15
296.805
298.655
288.914
303.15
302.738
294.117
295.281
284.428
303.16
298.601
296.02
283.962
303.122
302.788
287.297
298.347
289.745
290.719
289.662
283.15
302.936
303.151
303.15
303.176
292.993
296.209
302.971
301.231
303.15
284.416
303.15
303.036
302.843
303.15
293.441
296.17
303.15
285.324
303.093
303.15
303.085
303.158
285.993
293.237
291.013
288.326
293.344
303.15
301.159
291.341
295.233
293.344
303.14
303.15
300.486
303.19
284.211
303.191
303.15
303.15
303.143
303.15
284.889
303.15
284.185
303.146
303.15
290.104
303.144
292.375
295.412
303.133
295.234
285.935
283.434
303.123
302.934
284.652
283.15
297.025
303.15
285.453
302.896
302.006
303.017
298.423
286.974
303.15
298.623
289.82
299.23
283.15
283.607
303.15
303.145
303.191
294.004
303.15
292.326
289.243
303.196
303.15
284.737
298.674
293.128
299.506
302.448
301.583
300.316
303.15
284.679
296.952
302.35
285.552
298.332
292.177
284.428
291.549
303.15
286.54
291.715
290.048
299.353
303.15
286.383
284.067
303.15
302.405
288.065
302.084
283.15
303.15
299.759
301.648
288.902
301.945
301.918
301.771
303.15
289.237
285.076
301.921
302.203
297.041
303.15
283.199
303.15
301.945
303.15
302.786
303.15
291.569
303.15
296.426
283.15
289.403
303.15
283.15
292.134
301.399
300.35
289.112
300.433
303.15
302.467
303.15
302.352
285.167
303.15
300.336
290.303
303.15
300.744
303.15
303.15
293.12
283.15
285.472
293.134
300.861
303.15
291.062
293.74
288.097
289.58
288.038
299.17
300.251
300.731
287.311
287.026
301.206
283.15