/*--------------------------------*- C++ -*----------------------------------*\
  =========                 |
  \\      /  F ield         | OpenFOAM: The Open Source CFD Toolbox
   \\    /   O peration     | Website:  https://openfoam.org
    \\  /    A nd           | Version:  10
     \\/     M anipulation  |
\*---------------------------------------------------------------------------*/
FoamFile
{
    format      ascii;
    class       volScalarField;
    location    "5.1";
    object      p;
}
// * * * * * * * * * * * * * * * * * * * * * * * * * * * * * * * * * * * * * //

dimensions      [0 2 -2 0 0 0 0];

internalField   nonuniform List<scalar> 
111485
(
31.9397
1.3522
1.58728
31.8992
1.62221
31.1566
1.38511
1.23678
1.39727
1.97783
1.36046
1.72426
1.40816
1.28254
1.40829
1.48002
0.521852
35.1397
1.41101
31.8847
31.8759
31.2166
1.39446
1.46627
1.59361
31.7071
1.91951
0.920247
1.57544
31.9701
2.30428
0.368798
31.9203
31.3362
34.428
31.2931
2.37903
0.277164
2.74717
1.46234
31.5626
1.95921
1.46721
2.17797
1.94638
32.1121
2.086
1.45049
1.96596
31.9485
31.9382
30.1119
31.9697
2.1831
31.9907
0.922031
1.40932
31.4674
1.83435
1.44973
1.45684
31.9408
1.15791
2.29713
31.2078
1.03446
21.6762
1.2785
1.10451
1.22
2.28115
1.03193
31.2045
1.10026
32.0399
0.653017
31.2468
1.88848
31.2096
32.6506
2.26099
2.10001
31.2821
32.0106
1.16078
1.47665
9.60529
2.17487
2.33085
0.479419
2.13818
1.48877
1.16585
0.320464
1.95044
32.0084
31.9418
2.21472
0.187573
2.68534
31.9243
1.9297
31.3594
1.83961
1.30317
32.1286
31.3839
0.428987
1.51216
1.66436
0.31396
1.08131
1.50821
1.78355
31.6996
0.636275
31.7706
31.4421
1.09026
31.8895
31.7053
27.5382
31.2852
31.4704
2.04859
35.7044
27.4012
0.482145
32.0413
4.48101
2.2307
2.20879
32.0399
26.9794
28.0425
1.35414
31.2571
0.671249
1.22742
1.30582
1.86519
1.25618
1.26727
1.57701
2.02472
0.171772
31.2554
31.9979
31.4403
1.31719
1.56818
31.8675
2.36829
0.0394471
0.594829
1.32585
1.30519
1.36094
1.11162
32.0805
31.9011
1.31349
1.5287
1.25821
0.832418
0.549768
2.27315
31.5576
1.39901
1.52382
31.4223
31.9899
1.65852
31.3287
0.195258
0.0698737
31.2803
31.1255
31.7734
31.7808
31.0277
31.8958
1.33523
1.3435
1.32912
0.247871
1.90765
0.778954
2.42515
31.9204
0.649889
31.1156
31.9069
0.807306
1.94541
2.31255
1.01849
0.132515
32.0437
1.36032
1.5881
22.469
2.14697
0.478837
32.0267
0.800496
1.80113
31.1036
2.28534
2.08445
1.54762
0.743765
30.9966
31.9531
0.774559
21.302
2.21403
31.3217
0.794744
0.693742
2.00029
32.0611
0.835277
2.22007
25.0709
31.3274
31.4262
2.3736
0.863305
31.4588
29.6091
0.711511
0.240053
0.666532
31.446
31.5149
2.30246
32.0403
1.2895
0.680305
0.701809
0.649415
0.693138
31.4358
2.31785
0.521699
31.461
31.2762
2.15338
1.0781
31.6542
0.368525
0.535764
31.9953
26.4217
2.10707
31.8478
32.2847
29.2215
31.8432
0.6302
0.630529
0.0195739
32.0789
0.550114
31.9048
31.9316
32.056
2.31159
1.87951
1.12393
1.05334
1.78601
1.09718
1.10124
2.39178
0.204443
0.26983
30.9388
31.9891
2.39907
0.403534
1.64292
0.277587
31.8951
1.13899
1.3408
1.10765
1.86697
2.31102
1.10616
1.03898
2.12331
31.4576
1.83726
31.3319
35.078
32.5326
2.33698
1.76685
1.41699
31.8014
31.6811
0.908611
0.339123
31.862
31.951
32.0019
0.647463
0.289185
1.32802
1.38347
1.45246
29.619
31.4048
32.0193
0.88898
14.7222
1.37391
2.31894
2.23419
31.279
31.9333
31.9427
28.0191
0.947437
1.61154
31.4288
0.942218
31.6369
31.7604
2.27259
0.949027
1.77258
0.940697
32.3885
27.8921
31.4096
0.936593
0.10652
2.33596
31.2422
4.88337
2.09647
1.64589
0.880822
7.73819
1.45855
31.2337
1.45674
0.970645
2.32823
2.24128
1.62205
31.3598
32.0248
31.3985
31.9109
1.30004
0.833723
1.72318
1.48305
31.4072
1.7023
31.397
31.9685
1.4701
32.7315
28.4152
32.2188
31.2873
1.33831
31.4663
0.0946843
1.70296
31.2126
1.17172
1.00042
31.9138
0.962697
1.71902
1.02275
2.30807
0.208254
0.248791
32.4242
31.9993
2.20464
31.5106
1.76647
2.25354
31.2602
31.4419
0.92827
1.68643
0.147115
1.73741
31.2503
2.30951
1.7044
31.1376
2.16818
1.67405
31.95
31.8899
0.116338
1.59764
31.3732
31.783
24.3123
31.9214
1.64475
31.3234
31.9174
1.71405
2.25875
2.06799
1.63666
31.1706
28.0814
2.2501
28.4462
2.1684
2.29638
1.97246
22.3142
28.7179
-1.47176
1.74725
31.9573
2.20723
1.70571
32.0562
1.22542
1.9936
28.5863
1.7794
1.70615
0.218242
31.192
1.03739
1.79708
0.248178
2.33692
27.3269
0.666544
32.0141
2.44398
-0.538336
31.4204
1.75519
2.15748
26.658
32.0727
30.2578
31.871
1.61848
0.354362
1.75903
1.7977
2.27174
31.3313
1.65004
31.9846
1.66207
31.0882
31.9739
32.0425
1.76538
32.0069
31.9513
33.6625
31.9395
31.4638
2.13138
31.4641
30.2953
31.3816
31.9107
31.1367
32.0449
31.2288
1.77024
31.3772
2.14115
1.80016
2.62601
31.1572
2.15416
31.4102
31.9361
1.77995
1.81718
1.9078
2.29628
29.969
1.99012
1.97768
0.211639
0.149014
1.81246
31.9895
0.118624
26.6989
2.12241
31.3332
2.03919
27.5216
0.305581
1.78546
33.2691
31.6206
0.098973
31.8548
1.98575
1.96697
31.461
31.4506
32.1627
31.4085
-0.683561
1.97581
31.0771
31.4735
1.61535
31.2176
1.96134
31.238
2.08516
31.9398
2.01206
2.0527
1.06253
0.288794
31.0372
-0.401727
31.1043
31.343
1.82261
31.3452
1.99297
32.1886
2.06601
31.976
1.94693
31.8711
28.6264
2.51543
1.77139
1.95119
1.90032
1.89834
1.71008
31.4355
1.92636
1.8434
31.3112
2.52714
2.30526
1.99438
31.3307
32.4377
1.68521
1.94242
16.5612
31.172
1.80148
1.63839
1.91232
1.90699
0.774257
12.319
28.2844
0.303072
14.4811
31.9081
2.04247
31.5099
28.7398
0.547634
12.161
0.24806
8.12592
28.2736
1.875
1.62717
31.1793
30.3641
1.63354
31.8471
31.2117
31.2301
31.1417
1.92132
31.3911
31.8813
1.9608
0.690925
24.8876
1.47701
29.9108
0.673603
31.9635
31.433
1.90916
31.3334
31.1619
28.6172
0.219142
20.1482
1.88697
0.486262
31.8701
2.09078
1.75242
1.64632
2.44944
3.9398
1.60309
31.3514
1.94274
1.65383
32.054
0.9992
2.13549
1.70866
0.18111
1.69252
1.69622
32.066
2.00915
2.29106
28.5337
1.6933
2.07906
20.8749
0.46616
1.70901
2.05825
1.82343
1.81819
0.386463
31.5964
1.80848
1.98845
33.0439
1.8903
1.8573
0.545064
31.3537
0.213158
32.1177
31.2652
31.4023
31.1368
1.67873
28.9502
-0.951642
31.9392
30.9357
1.91329
1.89179
31.8508
1.98954
31.9335
32.0388
31.9754
1.98702
2.04301
28.7259
31.8767
31.3408
31.3544
2.3128
0.503107
28.0593
1.8612
1.45868
31.4491
1.88694
2.09686
0.50869
31.1959
31.3211
1.03922
0.545101
28.486
31.4191
31.0527
0.764707
32.0052
31.811
31.3189
1.84497
1.52792
31.2186
34.0181
33.0348
0.733011
31.4634
31.1522
2.03899
2.29604
28.4219
24.8558
7.08961
2.09415
0.0259735
30.9679
1.51541
2.17517
31.4571
31.9609
31.2594
31.3298
31.4054
31.2272
1.89916
31.9342
31.2614
31.3089
1.88612
0.537615
31.8104
32.0136
2.0592
0.525639
0.573208
31.8197
31.2694
0.539836
32.0032
1.84095
0.517606
0.576713
31.7212
31.9245
31.9235
31.3663
1.69059
31.2781
31.231
2.21726
31.9197
0.858764
2.21168
31.1548
0.57654
31.7369
0.832179
1.93912
1.92483
2.0601
-1.6046
29.6205
0.817801
2.07698
0.0259188
31.667
-4.6443
29.1529
0.2053
31.3882
2.10689
2.09292
2.08958
32.4956
31.931
32.0739
0.520249
29.9054
0.202361
30.4279
1.49865
0.234679
0.343495
0.538626
31.2329
31.1939
31.2804
0.537515
31.1485
29.6139
2.29618
31.4545
31.4761
31.9275
31.2646
0.364572
31.0084
31.3226
-2.59253
29.8378
31.529
28.7752
31.3112
2.073
0.342102
31.872
1.63398
6.79676
2.08177
1.60702
0.471575
31.4182
1.91112
2.42488
2.08505
32.0127
-6.37432
0.334894
26.8341
0.259476
2.31027
2.46198
1.18122
0.303979
2.27173
0.18252
0.352034
31.297
31.1683
0.238151
0.19176
31.441
0.253394
1.77601
0.343426
31.0938
2.37397
31.3699
0.338173
0.311223
31.185
-0.129892
0.361684
2.24751
0.00730217
30.9314
1.32561
2.27394
2.65457
2.23822
2.24028
31.316
31.4064
2.26076
31.2603
1.87735
2.14939
27.6503
1.16007
-0.125568
1.81058
31.2651
26.5133
0.729854
32.038
37.5526
2.22127
31.1101
31.1647
0.252487
-0.274406
31.263
2.39218
31.3289
31.3337
32.05
31.9393
32.0818
31.9992
2.31841
31.1286
31.4233
31.4647
-2.39866
2.44324
1.50513
0.716218
31.2477
31.1364
2.31795
31.3019
31.1752
24.4119
2.26676
0.904862
31.2008
31.1415
31.1722
31.1531
31.2105
31.1374
2.21921
31.1563
2.09242
1.47453
31.3566
31.9706
31.9989
2.37072
31.9687
31.904
31.4188
2.0654
31.3748
2.23947
2.3289
2.14118
31.213
22.2768
2.33793
1.41177
30.9751
2.12355
2.00492
31.8528
30.9765
28.152
31.1451
0.725483
1.28846
2.3084
1.60911
31.1921
0.719793
30.8581
28.1602
27.9904
31.4266
1.2149
31.3165
32.0358
2.40126
0.895672
32.0255
2.00193
29.9568
2.24211
32.3658
31.3403
31.2936
31.9171
0.396992
1.30586
4.37331
31.2029
31.268
0.352634
31.2621
29.0395
31.9441
1.82411
1.57168
1.73836
31.7831
2.39841
2.42814
33.316
2.43811
31.1519
2.15948
1.99158
1.21479
2.33584
2.02271
31.2807
31.3318
31.3308
2.389
31.7147
2.2879
32.0611
5.57137
31.81
1.44802
1.49415
32.0434
31.249
32.1007
31.4818
2.2707
32.1264
28.1794
0.330721
2.29236
32.1195
28.9198
31.3328
28.9961
31.1287
31.2878
2.3236
2.12408
31.8982
31.769
0.612481
31.9678
2.32245
0.394255
31.3769
2.22443
31.9204
0.21991
31.1368
1.58235
31.1773
0.880158
1.73161
2.23814
2.21134
2.19989
20.2625
30.8128
2.25215
31.9499
1.2024
31.836
31.4902
30.8128
31.4244
31.5258
31.4382
2.15669
2.112
31.9218
27.2432
31.8427
2.19664
2.374
31.9485
1.2204
2.26534
31.9997
0.485855
0.353945
1.15504
2.24683
31.2604
31.3052
31.4589
31.2367
1.19762
31.1407
2.27854
31.2933
2.26666
1.60527
31.3879
2.22739
31.3906
31.254
2.25846
2.25128
10.7857
31.2955
32.0772
31.1269
1.23462
30.6423
32.2342
30.7417
6.28956
27.7823
1.05999
28.8949
30.6111
31.3781
0.40012
0.296406
1.77331
1.34136
31.996
2.27007
31.3474
31.4364
0.348495
31.029
0.674678
2.25932
0.331272
2.2839
-0.617216
1.695
31.4125
-2.35294
-7.75724
2.05001
2.35794
0.943939
23.2699
31.9234
1.6674
31.8413
31.1607
2.08802
1.91936
-0.929926
31.2865
30.7265
2.35592
31.9977
31.1199
2.26984
32.0651
32.0276
1.36987
2.28475
2.19272
1.17832
0.602898
31.1512
31.2772
1.91826
1.08632
31.2287
32.0448
1.87508
31.1657
27.0862
27.9046
28.051
19.1324
27.2135
31.234
1.73542
31.1103
2.23798
31.1841
15.7411
31.302
31.1915
31.4178
31.2622
1.65412
31.2645
31.261
28.4898
31.1491
31.4131
31.3249
1.02396
31.3298
0.935438
2.23728
31.2012
1.85768
31.2104
2.0391
2.14309
0.289131
0.317361
31.7046
0.32744
1.64195
2.22306
32.0431
2.20864
0.831464
0.205134
30.0103
0.20967
31.3454
31.4072
31.184
31.2192
0.221047
31.3287
31.137
0.186007
2.12024
0.111796
31.4692
23.0274
1.79783
31.3873
1.65747
31.9881
0.273544
31.0918
31.1176
1.69025
31.1668
2.50757
31.958
31.1831
0.829743
2.02988
0.628345
1.27708
2.35992
1.01954
31.1874
32.5097
1.49122
0.646014
1.03622
2.23838
31.2634
0.935638
31.248
31.5588
1.48946
2.34909
31.1719
0.647235
31.3643
0.632594
0.594435
31.1635
31.2222
31.3663
1.49647
31.3226
31.3267
1.50663
0.6332
2.329
0.21753
31.2581
31.431
1.91456
1.5576
31.2067
1.48791
31.4023
1.47511
31.2133
31.1968
1.40883
31.2651
2.01155
1.4295
31.1581
31.2233
1.34759
26.8104
1.70858
31.9355
2.29398
31.9831
27.3394
26.5166
1.44306
28.656
28.366
1.27756
28.2273
18.4972
26.3471
31.3069
31.8427
2.12289
1.68366
31.4649
31.3383
1.57629
1.64609
31.1703
1.5138
31.2305
31.8599
1.87088
1.79399
0.462243
31.2047
31.3512
31.3273
31.2602
31.1104
31.1236
31.3261
31.127
31.1509
31.2172
31.3282
31.8493
31.2963
31.1956
31.1616
31.6751
31.1951
31.2241
31.2743
31.3985
31.8359
1.71416
31.3112
31.1979
31.4599
1.20192
31.4785
31.8585
13.782
31.0439
30.7023
1.18616
33.2889
30.8801
15.7174
1.17496
31.2916
27.6804
29.5139
31.1634
2.17781
1.17195
1.17948
1.09896
0.764599
31.9318
31.1481
0.900616
0.956544
1.09172
31.2361
1.06922
2.15656
1.16519
0.245622
0.280349
1.09883
0.438033
1.14132
32.0812
1.30213
1.10986
1.57978
1.07595
31.3645
31.3335
31.3972
31.9212
31.3527
0.94893
1.08165
31.3601
31.1555
31.1405
31.7901
31.1786
31.8486
31.1165
31.8506
1.06715
2.3437
1.07923
1.80532
31.0201
31.0987
2.14412
1.95586
31.2191
31.2617
1.62898
32.096
31.3129
1.20565
1.0208
1.05896
1.70263
2.14851
31.9293
0.0755852
1.27461
28.1882
31.8434
1.22085
31.9068
31.1579
11.7461
7.6335
1.7349
31.6029
31.9598
2.40051
1.28926
0.130063
0.953665
15.3728
31.9218
2.33016
33.0556
32.0557
30.8552
1.59624
31.1722
0.954408
0.0628852
1.2042
1.26297
32.0084
0.85354
32.0181
30.4796
31.9957
31.7852
0.363508
19.4261
31.2674
31.8926
33.5285
0.964189
28.0228
0.8492
0.943186
0.343501
0.951823
31.8117
31.7461
27.4302
1.60845
0.758732
-0.475919
31.9615
31.9362
27.8747
2.20299
1.61701
31.2575
0.593252
12.1096
1.28275
0.726838
31.9048
27.2053
0.722696
0.949503
31.3415
1.9976
1.9335
1.68385
0.757629
0.751131
0.835205
28.1951
0.381772
0.778181
0.697255
32.2807
1.22142
28.5087
1.61356
0.815412
32.0731
0.257197
0.772975
0.804179
1.03269
35.0898
10.6576
2.33457
18.6459
0.773257
30.9042
0.295266
0.786253
31.8231
31.2762
1.55016
2.35462
1.13359
34.944
1.75612
2.10696
-1.19974
2.25615
31.8123
32.1203
0.9392
33.4764
0.869269
2.02863
0.788318
0.328466
31.8776
2.08642
0.933114
31.821
28.4419
0.648967
32.0402
0.641673
0.624213
31.9465
35.0984
1.29399
31.8482
31.1985
31.464
0.310593
3.05027
1.61949
32.2444
1.57323
0.474168
31.2723
0.465001
0.523237
0.323616
2.27934
31.234
0.830482
0.348737
0.544635
0.462838
0.327819
2.17051
1.49869
31.9345
-0.120371
0.342665
31.9085
0.530196
31.4471
31.3192
32.0269
31.4858
31.8957
2.27816
31.3982
0.459629
1.78766
32.0538
1.84633
31.746
0.339149
31.8439
2.11387
30.9657
1.51562
2.36785
2.17715
0.571845
0.33969
1.57878
0.33284
0.595228
12.9975
0.538839
0.999575
0.592258
32.0453
1.01861
2.3341
0.558099
1.41853
2.20538
32.0418
27.9386
31.8161
1.60315
31.8805
25.5118
0.34303
33.6529
1.97174
31.7912
31.9126
31.2638
1.05259
1.79148
0.560715
2.26771
0.312566
0.873316
0.894705
1.03594
0.361822
0.876363
0.887167
32.0197
31.2234
32.044
1.2892
0.979369
31.2187
31.2621
25.9646
0.951492
0.373849
31.87
0.886541
31.9498
1.41736
1.61961
2.2858
31.9093
31.9399
1.00471
31.9202
2.03567
0.515746
30.454
1.16632
1.42501
0.261465
31.8023
2.19613
28.7144
1.89022
1.61254
31.9184
32.0693
0.491971
23.3852
32.1068
0.651857
0.30716
31.9357
31.7452
28.5309
0.839821
25.9335
1.2709
2.13154
1.95894
31.9391
28.6624
2.11036
31.9382
31.3497
31.9831
31.8952
29.0469
31.1999
30.6347
31.8238
31.8008
29.9011
33.6566
30.8948
2.06286
30.9268
27.6597
26.2789
35.5292
28.1328
31.9413
2.14664
29.9977
31.1426
2.20231
32.9667
34.3058
31.62
2.13585
33.5509
2.17189
2.23087
1.98381
29.3975
31.8764
2.19608
1.40063
31.6445
32.0178
1.27756
29.1002
1.26379
28.8295
31.2756
31.3856
1.26878
1.27771
31.9617
1.76721
32.0845
29.9642
2.03144
0.783088
2.1597
31.4261
1.26684
29.3973
1.8399
31.2314
31.8091
31.1952
28.5096
0.755103
0.867325
32.0094
0.096605
31.851
31.9055
31.8477
31.8904
2.05301
2.00565
0.868772
2.86097
31.9232
1.5964
1.30432
0.703623
2.03097
31.6075
0.714275
2.13632
1.08737
1.52789
1.22818
31.977
1.43613
2.08017
1.28035
2.11722
2.11451
31.9089
2.16756
31.4135
31.9616
1.08548
32.0273
1.63564
31.9671
32.0314
30.818
31.8339
32.0252
2.01893
31.8192
1.75733
29.5083
31.3749
1.54246
2.08867
0.927164
1.69184
32.0812
5.54693
32.0102
1.87219
32.0354
1.52613
2.03317
2.11248
1.91789
32.1347
32.1604
31.8026
0.763705
31.4133
31.7996
0.753977
31.0673
31.1728
2.16699
32.1317
1.14066
1.50561
29.3263
30.3589
30.1334
0.821849
1.36437
31.8827
0.0519433
1.83541
28.755
2.13102
31.9829
0.750908
1.59934
0.737218
31.8805
1.6662
0.9029
2.17381
2.09375
1.82391
31.9185
31.9258
2.40223
31.8189
31.2277
31.9533
0.731742
2.13896
0.966828
1.30085
28.2985
1.62448
1.28237
1.36491
1.36588
1.68288
1.97269
1.81026
31.2622
31.2567
31.2555
1.87507
31.3638
1.76738
22.368
1.78005
0.868812
0.720085
0.394536
31.1755
31.968
1.78903
1.773
32.0007
31.261
32.0607
0.791363
1.76597
1.85928
1.86888
0.262916
1.2679
31.8402
32.0138
31.937
0.304343
1.21175
0.0478295
1.42266
0.872276
1.86593
31.6653
31.935
26.3476
31.2521
0.29439
1.66378
31.9053
31.9178
31.9645
32.0525
31.926
31.1685
1.90155
31.8698
2.18357
2.50859
31.1752
1.88305
0.148698
0.772765
32.1512
31.3422
1.89247
31.918
1.89678
-1.31701
0.845866
30.9831
24.6787
31.2382
31.8745
31.8243
30.752
10.6595
31.8557
1.97465
0.969561
31.949
31.9347
1.93647
31.8565
31.3222
1.12561
2.12073
31.7819
31.7749
31.0386
0.489244
31.9214
31.9242
7.20971
1.8906
1.94386
31.8748
31.1703
29.2787
1.92597
1.92145
1.92224
1.42567
31.2084
0.508067
0.111705
0.148365
31.2334
32.0092
31.9352
31.862
31.9223
1.14012
1.16851
0.939898
32.1133
31.9833
31.9177
31.9564
31.3062
2.2607
0.532029
0.105277
31.1336
31.9117
32.2469
-0.637816
2.09133
2.34125
31.3254
-4.33788
33.1461
31.6763
31.9247
1.14626
1.30724
31.8318
31.906
1.50378
31.9332
0.834565
1.07605
12.9423
31.8156
31.2781
0.868555
2.20126
31.8825
12.2409
0.319173
1.67886
31.8689
31.8477
32.0765
31.9702
0.305054
0.63771
31.8513
2.24552
2.02313
3.70913
31.8857
31.8346
31.8276
31.8509
1.68112
33.6205
31.8897
31.4036
0.443597
1.76786
0.550003
31.6703
32.0217
2.04952
30.8374
31.9345
31.8527
31.8699
1.21783
31.1053
31.134
31.1889
0.537915
1.27385
31.8243
32.0027
31.7449
1.43587
32.7639
31.814
31.7534
32.0114
31.9907
2.16012
1.68134
32.2229
1.34252
1.65174
1.17066
32.0729
32.0428
31.919
31.8954
31.1714
1.54377
31.8891
29.9549
30.0104
2.03184
30.9164
1.98903
31.9231
31.3662
2.41196
4.0365
28.9203
2.07261
31.8868
2.05702
32.8976
31.8746
32.0164
36.2526
31.8474
2.25523
31.811
1.36906
31.3883
28.5449
32.0105
31.8167
0.496488
2.04045
31.2499
12.6435
31.4452
1.8622
2.23197
1.94969
31.4682
1.58922
1.82284
2.22008
1.70413
0.7355
1.83992
30.9712
31.1904
0.31104
0.746347
1.90674
31.9184
30.6758
26.4875
14.9268
32.0611
31.1493
32.0077
32.0473
32.0764
33.3247
1.97081
2.26582
0.976337
28.4042
2.33485
32.0064
1.57363
31.9378
32.0884
31.3092
31.1491
2.15393
31.0799
31.4371
31.8838
1.36916
31.884
31.9666
2.31045
31.8318
24.0259
21.0323
19.8121
32.0541
20.6157
20.0248
20.44
22.9806
31.1974
31.1995
1.34209
1.94766
28.6324
29.0621
31.218
1.33618
32.9138
31.427
2.1435
31.8548
31.9169
1.99926
2.25324
31.9327
31.1553
2.57795
28.6368
31.0731
1.52004
1.44934
1.54846
31.5391
1.48666
32.0278
0.916605
1.43038
1.45255
31.8915
1.44454
1.4813
32.0955
-0.895761
31.7743
1.37781
30.48
1.44249
31.5183
2.20408
31.8156
30.9332
31.3808
-2.53121
-2.50564
32.0708
1.4776
2.41655
32.241
31.8878
1.05806
0.111202
2.4428
32.075
1.53703
1.51293
2.33455
-0.177988
32.0751
2.27369
31.2186
2.24114
31.9381
-3.43881
-4.43364
31.7358
0.984373
31.3167
2.30935
31.2498
31.7416
31.8711
32.0094
31.7564
31.8874
1.96121
1.18974
2.21272
31.8494
26.1163
2.24548
31.8548
31.9092
31.9099
32.0262
31.9273
0.124966
31.8923
32.0207
31.1874
0.102307
31.7654
31.2748
30.5258
0.33453
31.3054
0.211316
0.0770294
1.75954
0.316359
0.141811
33.0247
31.8434
31.8957
0.439216
0.568073
30.8166
25.977
0.265716
31.9631
32.0313
2.27352
31.7691
1.50213
31.8284
0.176653
2.26817
31.855
31.1932
31.8278
32.0108
31.9504
2.3912
31.8233
0.274349
32.0444
31.8716
0.575953
31.3635
1.56476
31.3946
31.9644
1.97453
1.00091
2.36188
32.0086
32.0133
31.9069
1.01667
2.36757
32.0629
31.2691
30.914
0.641533
31.7985
1.60125
2.29661
31.8662
31.8255
0.64026
31.9136
30.9093
31.3045
32.064
31.3421
2.23396
25.6413
31.1955
31.9897
26.2521
31.8286
27.0687
31.6957
31.7939
31.4666
0.977293
31.687
0.596383
31.6983
31.8122
2.69333
0.654496
31.7839
31.8187
31.8412
0.588726
27.7138
31.8906
31.2444
31.8263
0.687574
31.7912
2.17822
32.0628
1.83921
28.4823
2.15512
31.8504
31.9501
1.7931
27.1014
31.8442
0.558376
1.81264
32.1103
32.0092
1.9515
2.11284
0.636613
0.590946
0.590822
1.98158
0.654471
2.20564
32.0514
2.14021
26.0535
25.6417
31.8799
31.7696
31.9456
0.637451
32.0527
32.0457
32.0448
2.19584
2.17766
24.9241
1.98323
32.0247
2.10621
31.0813
2.34368
0.717558
26.3188
1.85026
31.7615
31.6961
31.256
0.680117
1.84936
31.9057
31.3253
0.666522
32.0045
2.39453
32.0975
2.4072
31.9298
31.2547
31.9573
31.248
0.590624
31.2469
4.02927
31.388
1.91361
31.8753
31.8323
18.9563
17.7784
31.9076
31.8429
31.9369
32.0202
1.84033
2.33288
22.2412
32.0064
1.88217
31.2115
31.3927
1.32697
1.43039
2.3791
31.2621
0.430015
1.93209
1.04669
1.53764
31.9445
32.0739
32.0898
32.0198
31.267
31.2489
31.2512
31.6774
31.2622
31.2519
31.9207
31.2447
2.32188
31.2529
31.835
34.6566
32.0147
31.8824
12.9457
31.2103
31.8522
1.49444
2.44648
31.711
31.9803
31.9194
1.38103
31.5656
31.8928
2.38098
31.3183
31.8271
31.9482
31.9949
2.36095
31.292
2.26783
32.0047
31.909
31.8546
31.88
31.8337
2.39284
2.29523
0.801906
32.0186
31.1578
32.1591
2.35854
31.8189
2.31679
2.49495
31.2997
31.8607
24.8944
1.37521
31.7343
28.8417
1.4205
25.198
2.03715
31.4833
2.23056
25.0695
23.4485
31.9219
1.81908
31.3262
1.78618
2.31107
31.8361
1.83894
1.81162
31.9242
2.28077
31.1797
31.7517
31.8051
31.7309
31.7366
31.2367
31.8177
32.0409
2.24125
29.1718
31.894
31.949
31.803
31.806
1.37679
17.8205
2.3681
1.9063
31.8227
1.78874
1.74242
31.9068
28.7702
31.6795
31.7437
31.8801
32.0974
26.6979
29.3703
2.05794
31.8764
32.0669
25.2449
27.2006
31.2728
1.78239
31.7904
31.1803
32.0092
2.32574
32.053
31.2133
1.97652
31.3004
31.3092
31.5826
32.2372
1.99598
31.8782
31.862
31.8444
31.8702
2.09764
2.39187
2.42508
1.80112
2.19249
2.16696
31.3276
27.1122
2.31101
2.14326
27.0743
2.31777
31.9776
-1.04015
31.1916
2.32343
31.9018
31.1596
2.19871
-2.22213
31.8205
2.1347
31.9
31.9558
2.30357
2.33765
32.0103
31.2355
31.9515
31.2608
31.8316
28.0011
32.0169
31.9407
2.11576
32.0198
31.9111
31.8751
2.22928
31.8679
28.153
31.2856
31.2257
29.8957
28.4811
2.22582
31.1436
28.5244
1.36531
31.9821
2.09043
2.14679
31.8463
1.40371
31.9267
30.472
32.2047
28.0171
31.3953
31.9753
32.0436
32.0657
1.4429
32.0336
31.9719
32.0205
31.4855
31.8871
31.6629
2.29174
31.9231
32.0114
2.28233
31.9065
31.2744
31.4595
1.48452
31.872
2.02707
27.6966
1.51935
0.223206
31.2503
27.0936
1.38157
26.1098
31.2585
2.13299
1.49873
0.0136405
2.22363
1.97587
-1.37827
31.4948
31.1314
1.71328
2.36138
2.33017
1.68651
1.55312
31.3673
0.368931
1.66024
1.68412
31.4709
1.69846
0.327685
1.03508
1.62042
2.27294
1.65253
0.507953
1.54718
0.052699
0.794877
1.63392
28.2065
0.372682
0.0420109
1.80167
2.02826
0.164576
1.63172
0.106811
28.7994
2.34521
28.6125
0.995724
1.72657
1.98006
1.27873
28.5646
31.2592
1.59212
1.32189
2.25542
2.4063
0.514797
1.68643
20.6404
1.73482
31.9234
2.94281
2.34118
2.24701
1.06173
2.25505
2.17571
1.94229
1.22385
1.13704
0.974899
1.705
0.531935
25.5358
22.6305
1.70373
31.8503
31.9215
1.62244
1.71282
0.218477
31.8546
2.20214
2.33273
1.22476
23.4154
31.9181
2.00869
0.0630046
2.3198
32.0756
0.535117
31.9563
1.29618
1.91682
2.18283
2.20957
31.841
31.9374
2.42371
1.69338
1.73937
31.9107
1.36643
1.7444
2.02411
31.3235
1.24247
0.145972
28.556
1.03654
-2.39534
2.23769
30.9865
2.28121
2.54128
31.9299
2.04565
0.237753
8.20821
1.99752
2.09053
0.439049
1.88053
1.97461
0.0751368
1.9275
2.21094
1.94587
0.409658
1.69213
2.22139
1.33628
2.04948
0.884351
1.64188
2.25563
0.522472
31.9428
2.06058
2.01742
2.29357
0.629103
2.2667
31.206
2.03967
1.05122
31.931
2.1858
0.0218178
2.04361
2.00899
0.315299
-0.116911
1.8308
1.94241
2.27937
31.9465
31.9183
2.32237
31.4347
2.33897
2.40678
31.1456
0.322651
2.08144
1.17374
32.0201
1.05735
1.16737
2.23045
2.2411
1.12708
0.553408
1.36643
2.20301
31.9214
31.7458
2.34574
2.11835
2.24022
1.47548
31.7443
2.1402
1.98719
31.1416
1.32287
1.72454
-0.17952
2.12019
2.21181
1.80324
0.533393
1.54858
31.4619
2.09724
1.07619
1.96125
2.17998
31.7499
2.25811
32.2794
31.9023
1.16355
1.88121
1.24991
3.43958
2.12806
8.26678
31.2898
1.8197
2.03794
1.51997
1.27358
31.8473
31.4676
31.4254
1.27678
1.29921
2.08761
1.03603
30.8688
31.7668
1.24345
1.40153
2.23173
1.29767
1.27075
1.59049
2.15306
18.8925
31.2002
1.89496
0.174079
31.7615
1.72764
1.56777
2.68847
1.91224
1.51069
2.34147
31.7637
1.33138
1.53918
31.4182
30.9305
0.210913
0.406888
0.578682
0.286893
1.54676
1.61741
0.517809
1.06438
1.46471
0.261305
31.744
31.7121
0.0435007
0.329577
1.54087
2.49127
1.50618
1.41264
1.94596
1.27705
1.48855
31.237
31.4481
2.4486
31.7336
28.0079
1.5854
1.04318
1.48911
2.42394
29.3651
2.22594
2.56887
29.8643
2.49586
2.11319
1.49265
1.51318
0.165751
1.73416
2.21024
0.312818
31.9099
29.6585
2.31754
0.551549
1.25897
0.555
2.07237
2.09951
2.29832
29.7527
1.60958
0.524945
1.36051
2.41233
2.19958
2.28693
2.1238
1.54094
0.426509
29.3518
2.12762
1.54225
13.271
28.0093
25.9971
1.44572
27.4355
0.10918
1.39485
1.26863
1.74467
2.17239
21.4715
14.1625
32.6358
27.5774
2.31499
31.2523
31.2523
-1.61348
31.9048
1.05797
1.31292
1.11717
0.980456
1.03311
1.71731
26.0444
0.532973
0.272143
2.07635
1.61165
0.995213
1.54946
31.2712
2.12142
0.982091
1.63417
31.2572
2.0014
1.56109
31.2543
31.7965
2.15834
0.947207
32.1104
1.81468
1.65007
2.14832
31.9938
31.2486
0.228706
2.09885
1.74059
31.2607
31.3399
31.2539
1.9308
12.3175
11.4249
0.603883
1.51207
32.0854
0.694009
1.59382
1.42734
0.234721
0.164448
0.725016
1.21698
0.26571
31.6377
0.690746
0.501473
0.109579
1.1746
0.303364
0.368065
0.29315
0.3353
0.169251
2.30645
1.59721
1.53998
2.17463
2.26312
1.32984
0.303711
1.65126
0.33999
0.154822
0.888927
0.622234
2.25345
0.591608
1.65333
0.627086
30.5041
1.55834
16.969
1.17294
1.66799
31.4238
2.02872
30.5078
1.74305
30.6126
31.8666
1.35306
2.02675
28.1961
0.52818
1.3222
2.05785
31.7717
32.0092
2.53628
0.694585
2.2676
1.17628
0.483553
2.0013
2.42192
1.94722
2.04329
26.7132
1.55075
31.278
31.7754
0.949946
0.709998
2.44258
0.917053
0.631444
2.07285
2.09326
31.439
2.29318
0.603868
2.0359
31.4725
32.0633
1.5479
1.76846
25.4288
2.27855
0.156148
1.83203
-0.346489
0.556373
1.21355
31.801
19.7105
0.99339
2.34147
31.7011
0.981965
2.25418
1.8717
2.57718
0.946638
2.45582
1.54552
2.37431
20.8372
2.40462
31.8751
1.75277
2.05557
0.525531
0.0821077
27.2118
0.081308
2.32055
1.97797
2.14556
30.1751
31.2581
1.0476
2.3425
2.00368
1.74772
2.26209
0.742651
0.12963
1.34066
0.296322
0.176111
2.25671
28.885
2.29187
1.90976
0.0284041
2.22266
29.5958
31.184
-5.58793
2.35199
32.9945
2.26849
2.11083
29.8858
21.4376
22.8825
1.99203
0.957917
3.57736
24.3178
2.13127
1.10467
30.7891
1.0662
28.1243
1.85858
0.750062
31.4721
0.0877334
2.2901
2.27577
0.714741
31.2156
1.92223
2.14005
2.27763
2.30874
2.41482
2.38873
2.13271
2.28949
2.15224
0.423243
0.968046
31.8071
26.7482
26.9159
31.2035
1.94712
1.11692
1.01395
2.16011
0.594339
1.02358
1.81719
2.06418
1.98543
0.749055
2.13554
2.08947
1.92713
0.584768
31.8859
2.21822
2.14375
2.03421
2.18286
30.7723
1.25947
1.27209
1.86638
1.73661
1.42394
31.172
1.45068
1.40728
28.0636
1.4644
1.93054
31.1937
1.37343
31.1436
31.4526
1.24224
1.91943
1.95789
1.42031
31.1818
0.342159
2.0732
31.4644
1.23651
1.46668
1.23337
1.97041
31.2986
2.03623
2.03797
1.90961
31.3361
1.11547
0.448358
1.90047
0.922264
1.10498
32.1225
30.4818
29.0003
0.170668
29.488
1.05373
0.850766
0.335983
31.8544
0.365006
31.1846
31.8859
31.7382
1.2494
-0.0245408
2.12531
1.92401
1.14067
30.4281
28.1232
2.26665
2.20465
0.927612
2.14008
1.11353
1.47914
31.8894
23.9309
24.3974
31.2209
24.6644
0.103065
31.9188
1.0946
1.78552
1.14507
0.233884
1.28192
26.2678
0.809285
1.80607
2.07451
2.33782
26.4261
31.8739
2.08354
0.86248
1.9016
1.00663
2.3211
2.21908
1.89906
2.15968
0.750928
0.158763
0.721537
-0.0272392
0.708942
1.82851
1.9172
0.530267
0.686275
2.2811
0.751131
1.06382
-0.599514
-1.72199
0.51979
2.31693
31.4651
-0.987467
-4.47403
0.33857
0.214734
0.0597404
1.82714
1.49944
-5.16944
0.237147
2.37297
31.9544
1.07084
1.44437
1.49513
31.8464
1.09543
0.654574
0.254107
1.36217
32.0741
31.9517
1.94579
0.449102
0.446246
0.0939615
31.6315
31.9468
31.338
1.53734
1.84176
0.405878
31.9515
1.02614
31.962
32.0439
0.269115
0.198393
31.135
0.41733
0.443336
-0.00921628
31.4276
31.9983
0.715853
1.83243
31.9942
0.370689
0.489786
0.10546
32.1897
32.2149
32.0936
0.0969793
0.369228
2.28757
0.492477
31.3898
0.341312
1.69058
2.27642
2.14162
31.0421
31.8583
0.518193
2.34042
2.28422
1.31733
31.0406
2.15623
31.2779
0.503512
2.33201
1.70848
31.2278
29.0548
2.31248
2.49341
28.5401
28.7051
31.2873
1.27102
30.5864
27.3966
1.7771
1.75025
31.2861
28.1136
1.55466
0.504036
0.406368
1.23675
1.06208
28.5537
1.85001
26.3973
25.7932
31.9166
1.27891
2.03437
0.364293
25.9369
33.9123
1.81427
2.34308
1.93156
2.02941
1.62109
1.45744
1.58761
0.568909
25.4932
1.70248
1.23302
0.549959
1.24918
1.96445
19.1085
1.09947
1.19326
1.20045
1.19229
0.476027
24.7581
29.252
1.38025
29.4559
29.8185
1.6443
29.5243
1.04865
28.8856
29.2141
31.2456
28.1459
1.31952
0.495417
1.28443
28.8174
0.70096
1.25017
1.62854
29.259
31.9416
1.33115
1.40111
2.22831
1.33326
28.008
0.0513639
0.427976
0.303041
31.1776
31.4294
0.847746
0.69001
31.5364
29.3585
2.19013
0.0377584
28.7563
2.35977
2.13972
2.17855
1.4679
29.0557
1.613
6.64989
0.285606
0.384585
2.26984
2.13119
2.08128
0.899038
1.69712
28.4496
1.84008
1.68786
2.18741
2.29423
2.19913
29.1838
1.12695
1.71133
1.00668
1.41524
1.67962
2.17739
0.584608
2.21031
2.10399
2.2344
0.76229
2.23476
2.38201
1.64588
2.00717
32.0237
1.3563
32.0569
1.63041
1.70394
2.22125
2.26249
2.2708
1.62882
1.64907
2.24773
1.31687
0.530695
31.1385
24.3158
2.28289
2.33234
1.92306
2.35816
2.34132
2.23872
2.36778
2.6891
25.2813
0.48731
2.76551
-4.05248
26.3211
0.180502
24.5598
1.27253
1.57582
1.69981
1.22732
31.4632
1.61583
2.17644
-0.917409
31.2594
2.28172
0.446604
2.1437
2.28485
2.32199
24.723
31.2417
1.2096
1.74285
1.02494
1.74699
1.57575
1.72301
2.43429
27.1545
0.293289
26.2474
1.87944
0.48799
1.86834
31.9889
22.5524
2.25355
1.76729
1.31482
1.82957
31.2565
1.88675
1.84839
0.26418
1.82972
13.1941
7.6701
1.95927
31.8979
31.2101
1.18876
12.808
2.20505
32.0078
0.917238
31.8591
-0.336953
31.4153
0.608047
2.2542
1.5995
1.82871
1.95057
1.69199
2.08438
2.18008
0.239852
1.70033
1.11778
1.69129
30.4554
0.701875
31.1516
1.97856
1.99215
1.5817
1.44051
1.92573
0.515444
1.26905
1.84517
1.90206
1.70354
2.15691
2.37879
32.3759
1.86911
0.532655
0.0334143
0.479681
1.90715
-0.200877
0.698261
2.3985
1.74542
0.21814
1.73917
1.15092
1.972
1.6124
31.195
31.1814
1.67758
1.76399
2.10253
31.296
-1.08862
0.282779
1.69615
1.28012
0.84111
1.37303
1.15863
1.77464
0.0624792
1.07915
2.15591
0.904346
1.49824
1.38255
1.25809
2.1829
1.94951
0.888212
2.12234
1.83292
1.13049
0.727736
2.00447
0.124163
1.03191
0.684625
1.32787
1.72462
0.910678
0.695112
31.1052
1.98641
0.750132
1.08476
12.4524
1.99183
26.4823
1.22018
1.90146
0.284426
2.08407
31.7423
1.94917
2.05419
-0.656054
2.05649
-0.423788
2.13612
31.2506
1.40059
0.4061
2.19063
2.10388
0.716809
31.0615
31.2676
5.45005
29.5129
2.16325
31.8304
2.06047
5.53134
29.49
29.6945
0.338258
30.1951
31.9248
2.13871
1.32999
32.1499
1.61928
1.17319
1.59751
-3.2163
31.9239
2.33934
2.11873
2.10353
3.34921
31.9197
2.42109
2.12179
2.2601
31.2449
1.34634
2.12178