/*--------------------------------*- C++ -*----------------------------------*\
  =========                 |
  \\      /  F ield         | OpenFOAM: The Open Source CFD Toolbox
   \\    /   O peration     | Website:  https://openfoam.org
    \\  /    A nd           | Version:  10
     \\/     M anipulation  |
\*---------------------------------------------------------------------------*/
FoamFile
{
    format      ascii;
    class       volVectorField;
    location    "5.1";
    object      U;
}
// * * * * * * * * * * * * * * * * * * * * * * * * * * * * * * * * * * * * * //

dimensions      [0 1 -1 0 0 0 0];

internalField   nonuniform List<vector> 
111485
(
(2.81837 -2.81835 0.00139485)
(8.16937 -0.0188744 -0.0424914)
(8.05562 0.0192083 0.0252278)
(2.81901 -2.81995 0.000172529)
(8.3648 0.0358541 -0.0023409)
(2.91566 2.91344 0.000977545)
(8.22315 0.0225338 0.00521843)
(8.43889 -0.021752 0.0122386)
(8.23392 -0.00581158 0.0042332)
(8.41212 -0.0883393 -0.0381868)
(8.10463 0.0199189 0.0226805)
(8.47366 -0.0194038 0.0384487)
(7.98822 0.00554062 0.0192393)
(8.05367 -0.01573 -0.0558015)
(8.17301 0.031194 0.0183583)
(8.33476 -0.0545658 -0.0426783)
(8.21673 -0.00642729 0.0112462)
(2.89312 -0.245565 0.445099)
(8.38219 0.0233887 -0.0175803)
(2.79876 -2.7948 -0.00163746)
(2.80347 -2.80343 -0.0030989)
(2.92241 2.9216 6.03537e-05)
(8.29299 0.0224271 -0.00257407)
(8.41669 -0.0545085 -0.0162101)
(8.25736 0.0351597 -0.00972747)
(2.84082 -2.82847 -0.00273044)
(8.5119 -0.0401132 0.04386)
(8.07021 -0.00886817 0.000637938)
(8.40758 0.0123528 -0.0193592)
(2.80946 -2.80947 8.77467e-05)
(8.48423 0.141594 -0.0378799)
(8.36389 -0.0167003 0.00272934)
(2.79693 -2.8027 0.00420999)
(2.91922 2.92481 -0.00686294)
(2.93364 1.20524 0.471955)
(2.93702 2.95653 -0.0432152)
(8.44378 0.139607 -0.0568405)
(8.15433 0.0302179 0.0709695)
(8.39903 2.53275 0.143044)
(8.37308 0.0408743 0.00447999)
(2.88268 2.90882 -0.0209853)
(8.46931 0.0100904 -0.0483843)
(8.36604 0.0432074 0.0152403)
(8.07899 -0.048246 -0.000215049)
(8.45268 -0.150525 -0.076683)
(2.829 -2.80763 0.0141613)
(8.4703 -0.0398644 0.0404838)
(8.40494 -0.05036 -0.0153713)
(8.46962 0.00346677 -0.0374069)
(2.80251 -2.76972 0.0160638)
(2.78701 -2.76204 0.0171553)
(3.32251 2.7915 0.0480854)
(2.7798 -2.7689 0.00927523)
(8.4599 0.0377892 -0.0699682)
(2.77378 -2.76088 0.00244652)
(8.35408 0.0215867 -0.00768427)
(8.35649 -0.0341324 -0.0159424)
(2.92181 2.9169 0.00179227)
(7.63535 -0.0176648 -0.131894)
(8.39817 0.0356913 -0.00420841)
(8.39635 0.0390295 -0.00325483)
(2.80989 -2.81533 0.00342968)
(7.7941 0.00959305 0.0504287)
(8.50399 -0.0200834 0.0644468)
(3.01395 2.72968 0.0043033)
(7.69438 0.0160177 -0.0145106)
(5.90513 -0.487625 0.211719)
(8.4211 -0.0312298 0.0123843)
(7.61323 0.00211825 0.026442)
(7.23002 -0.0145623 0.0032254)
(8.13794 0.0515509 -0.0431119)
(7.56323 -0.00872948 0.0238469)
(3.04034 -2.73954 -0.062813)
(7.71182 0.0142092 0.0582218)
(2.81556 -2.81484 -0.000250044)
(8.37893 -0.0175093 0.00830582)
(2.92203 2.92173 -0.00082857)
(8.46198 -0.0188285 0.0443375)
(2.92061 2.91906 -7.40147e-05)
(2.62797 2.56202 -0.0884451)
(8.15732 -0.124868 0.0842429)
(8.41999 0.0347559 0.00605957)
(2.91079 2.90431 -0.000353131)
(2.81597 -2.81585 0.00151849)
(7.94249 -0.00340334 0.0143098)
(7.62927 0.0211287 -0.0297134)
(6.52042 4.22664 -1.1392)
(8.34914 0.0982613 0.00953734)
(8.04394 0.208854 0.178987)
(8.14972 0.0179538 0.0148357)
(8.60768 0.168758 -0.109809)
(8.37293 -0.0142706 0.0137189)
(7.84846 -0.0135728 0.02328)
(7.9855 -0.00711553 0.00689509)
(8.48053 0.0248074 -0.051162)
(2.81615 -2.81526 -0.000630532)
(2.81034 -2.81043 0.0016876)
(8.34595 0.0920057 0.0290291)
(8.61725 -1.70752 0.121258)
(7.82826 0.0284959 0.0495082)
(2.8163 -2.81647 0.00108328)
(8.38642 -0.0445643 0.00488895)
(2.93417 2.93926 0.0159906)
(8.31869 -0.000414596 -0.00484104)
(8.23877 -0.0384596 -0.0483649)
(2.8655 2.55951 -0.0611333)
(2.92182 2.92003 -0.000792583)
(8.3694 -0.0207525 -0.00179921)
(7.76232 -0.0424783 0.00894232)
(7.4315 -0.221062 -0.234476)
(7.94822 -0.00546747 0.0151645)
(8.31988 0.0119254 -0.00437501)
(7.77833 -0.00548259 0.0305906)
(7.6622 -0.0398586 0.0156997)
(2.84331 -2.8282 0.00234029)
(7.39698 -0.00648995 0.0203545)
(2.82705 -2.81861 -0.00396788)
(2.9344 2.92192 0.012206)
(8.18812 0.028947 0.0234412)
(2.81871 -2.81699 0.00097884)
(2.84192 -2.82751 -0.00112879)
(3.85012 3.02429 0.181629)
(2.88973 2.9028 -0.00485253)
(2.92752 2.92044 -0.00697638)
(8.00455 -0.0194895 0.0377846)
(2.25445 -1.59706 -0.412644)
(3.66913 3.15335 0.111881)
(7.46684 -0.00222788 0.0326433)
(2.81601 -2.81472 -0.00129796)
(8.42213 0.623444 -0.227344)
(8.41673 0.165591 -0.0860692)
(8.3306 0.0943031 0.028473)
(2.80324 -2.79549 -0.0136146)
(3.7683 3.27488 0.340076)
(3.51533 3.13536 0.148515)
(8.40413 0.0243208 -0.016599)
(2.92367 2.92364 -0.000885266)
(8.33431 0.018532 0.00181946)
(8.2898 0.0379139 0.022899)
(8.15245 0.0348648 0.0348028)
(6.4186 0.000812432 0.0255197)
(8.35402 0.04321 0.0100937)
(8.28461 0.0415646 0.0265367)
(7.91231 0.00677572 -0.0307824)
(8.26673 -0.0153136 0.00668581)
(8.16291 -0.00570262 0.0172991)
(2.92379 2.92473 -0.000748991)
(2.81624 -2.81765 0.000393399)
(2.91605 2.91765 0.00602818)
(8.36065 0.0372031 0.0049112)
(7.91738 0.0119836 -0.0280325)
(2.80519 -2.80402 0.000794391)
(5.46032 -0.0310451 0.0541676)
(8.15719 0.0370111 0.0200272)
(8.93232 0.352768 0.15628)
(8.40308 0.0239635 -0.01656)
(8.36651 0.0264716 -0.00597195)
(7.77933 0.00393811 -0.0161642)
(9.00962 0.43406 0.106733)
(2.80046 -2.82673 0.011073)
(2.81403 -2.81653 0.00287119)
(8.39009 0.0228735 -0.0166751)
(8.22237 -0.0275789 -0.0288915)
(9.06809 0.490558 0.116631)
(8.94266 0.429476 0.161036)
(7.79425 0.00812185 0.0387177)
(8.37576 0.101912 -0.0373639)
(2.88504 2.90902 0.000743269)
(9.17637 0.60716 0.144056)
(8.75305 0.433422 0.132621)
(2.91948 2.92069 0.0012018)
(2.81044 -2.80986 -4.79378e-05)
(6.73359 0.00779841 -0.0556735)
(2.92269 2.92416 0.000508272)
(8.32084 -0.0179206 -0.00234928)
(8.03367 0.00424019 -0.0172409)
(2.92112 2.85053 -0.0167585)
(3.04404 -2.79591 0.0309332)
(2.80933 -2.795 -0.00468751)
(2.87958 2.71709 -0.028782)
(3.05822 -2.81941 0.048228)
(2.81364 -2.8152 0.00269995)
(8.34345 0.0292496 0.00549898)
(8.35537 0.0197923 -0.0152716)
(8.32656 0.0227545 -0.00986528)
(8.20982 -0.0280426 0.0295276)
(7.92972 -0.0199913 0.00628478)
(7.9573 0.0112063 0.023976)
(7.07812 0.0859943 -0.000471803)
(2.81144 -2.80205 -0.000564577)
(7.71524 0.000700389 0.0101971)
(3.03651 -2.81777 0.0301615)
(2.83645 -2.84117 -0.0011785)
(8.02035 0.0123954 0.0275462)
(8.41644 -0.0992608 -0.0349856)
(8.3474 0.0154949 -0.0378102)
(8.02779 -0.00652319 0.00679793)
(8.15927 -0.000768695 0.00862354)
(2.81049 -2.80599 0.00725697)
(8.01521 -0.0329724 0.00912787)
(7.98176 -0.00792798 -0.047224)
(5.5814 1.76833 0.229744)
(8.18056 -0.066013 0.00557857)
(8.29309 -0.0115958 0.00711884)
(2.82405 -2.80883 -0.00468477)
(7.98724 0.0168607 0.0275219)
(8.37981 0.0197267 -0.00199273)
(3.08803 -2.78394 0.0118652)
(8.04582 0.0195261 0.0304941)
(8.44561 -0.00710245 0.0414648)
(7.91204 0.00758123 -0.0317553)
(7.96385 0.0196084 0.0359825)
(3.05575 -2.8285 0.0394771)
(2.8086 -2.80929 -0.00110035)
(7.96127 0.0200406 0.0398012)
(5.21103 3.26463 -0.323168)
(8.53834 0.0363462 -0.0822818)
(2.92091 2.92137 -0.00115153)
(8.01023 0.0147637 0.032768)
(8.02185 0.00499587 0.00353596)
(8.49056 -0.0260252 0.0528296)
(2.81811 -2.8166 0.00137533)
(7.51544 -0.00305743 0.016344)
(8.39411 0.121895 0.0637764)
(4.603 3.08552 -0.338116)
(2.92282 2.92273 -0.0017116)
(2.91943 2.92058 0.000930198)
(8.57923 -0.0495449 0.0824391)
(8.01372 0.185779 -0.0237318)
(3.07336 2.59191 -0.060571)
(3.48704 -2.70608 0.108757)
(8.04396 0.00668145 0.0134879)
(8.29445 0.0130715 -0.00129296)
(8.37229 0.0182582 0.00808621)
(3.02812 2.63164 -0.0771904)
(2.96984 -2.7352 -0.010871)
(8.0787 0.0982787 -0.1168)
(2.81522 -2.81524 0.00181192)
(7.67842 0.00729083 -0.0468133)
(7.95643 0.00520664 0.0331173)
(8.04063 0.00241977 0.0188011)
(8.04897 0.0157113 0.020317)
(8.08015 0.00779992 0.0275291)
(2.91151 2.91215 0.00944958)
(6.11132 -0.0173618 -0.232752)
(8.17286 0.0248807 0.0232393)
(2.907 2.91222 -0.00419511)
(2.92183 2.92275 -0.000261219)
(8.51774 -0.100323 -0.00854898)
(8.31622 0.0379441 -0.0117512)
(2.99227 2.54586 -0.0804617)
(7.62941 -0.00833842 0.0191659)
(8.15439 0.0178994 0.0192371)
(2.81735 -2.81639 -0.000850963)
(3.69898 3.48534 -0.0230941)
(8.38679 0.0794108 -0.0351825)
(2.82829 -2.7919 0.00126672)
(3.12605 -2.22646 -0.0533252)
(4.28729 -1.50655 -0.149106)
(2.82061 -2.81265 -0.00186326)
(8.20221 -0.0126124 -0.0170099)
(7.98614 -0.0146862 -0.0133378)
(8.29738 0.0125109 -0.0216443)
(2.81408 -2.81438 -0.00040106)
(8.20648 0.0246602 0.0191931)
(2.81921 -2.81991 -0.000207777)
(2.81848 -2.81965 0.000905009)
(2.81054 -2.7997 0.00468071)
(5.65385 0.0203948 -0.0815134)
(8.44585 -0.0395816 0.045586)
(8.03991 0.0302708 0.0408835)
(8.1903 0.0270715 0.0133099)
(8.47156 -0.046048 -0.00217317)
(8.15464 0.012311 0.0139579)
(8.35022 0.0302028 0.0106397)
(8.42127 0.141045 -0.0126241)
(8.23657 0.0118506 -0.00320831)
(8.30185 0.0123097 -0.00429473)
(2.97248 2.92495 -0.0017208)
(2.8068 -2.80688 -0.00361385)
(5.18066 0.0314374 -0.126251)
(8.34771 -0.0168674 0.00276282)
(8.42477 0.0648603 0.069706)
(7.96965 -0.0112932 -0.0118745)
(2.81896 -2.81723 0.00132419)
(8.30761 0.0269458 0.015295)
(8.34244 0.0426244 0.019853)
(8.17923 0.0172672 0.0109029)
(7.22128 -0.0060863 -0.0390096)
(7.5504 -0.0887715 -0.186817)
(8.29663 0.0253265 0.00957523)
(8.16864 0.0222394 0.015196)
(8.32388 0.0662228 -0.04188)
(2.92166 2.9224 0.00138817)
(7.65419 0.0410786 -0.0023716)
(2.92052 2.92103 -0.000974867)
(2.36703 1.79297 -0.38329)
(3.16974 -2.03934 -0.205228)
(8.6448 -0.0781066 0.113511)
(8.47394 -0.0457835 -0.00119266)
(8.27139 -0.00383277 0.000762119)
(2.82003 -2.81302 -0.00113372)
(2.90892 2.92587 0.0237821)
(8.2903 0.0286855 0.0172575)
(7.96554 0.0162148 -0.010534)
(2.80745 -2.80601 3.20057e-05)
(2.81879 -2.8166 0.00261839)
(2.75398 -2.77318 0.0165552)
(7.90261 0.00987951 -0.00393625)
(8.26698 0.00741976 -0.0077929)
(7.90222 0.00130239 0.0270696)
(7.66885 0.0100517 -0.0391826)
(8.42696 0.0207025 -0.0189258)
(3.34732 2.87445 0.0782222)
(2.91552 2.92249 0.00520902)
(2.8155 -2.81182 -0.00102817)
(8.26482 0.0273816 0.0183394)
(5.37777 -4.56009 -0.325178)
(7.88829 -0.00804946 0.0117256)
(8.58559 -0.0600001 0.188704)
(6.93356 0.0058506 -0.141156)
(2.92222 2.92327 0.000153297)
(2.81423 -2.81686 0.00204391)
(2.81773 -2.8191 -0.00144835)
(3.68712 3.08965 0.191674)
(8.36684 0.0245792 -0.00291401)
(8.44012 -0.0469399 0.0108299)
(2.92667 2.93425 0.00100209)
(8.31545 0.0216094 -0.00156132)
(3.0868 2.49627 0.178124)
(2.82195 -2.78735 -0.00345779)
(8.52861 -0.0278981 0.0686457)
(8.29247 0.0288668 0.0152337)
(8.47619 -0.00952254 0.0199258)
(8.31822 0.0233028 -0.00145574)
(2.8072 2.48538 0.153223)
(3.64976 3.13809 0.202152)
(2.91502 2.91828 -0.004325)
(8.30513 0.0278404 0.0111919)
(8.29174 0.0248515 0.000726949)
(8.45836 0.153381 -0.0534905)
(2.88852 2.88144 0.005301)
(5.79021 5.12299 -1.23051)
(7.93249 0.0782036 0.0718483)
(8.44797 -0.0382508 0.0204242)
(8.3092 0.030201 0.0189622)
(7.91217 0.813114 -0.0647333)
(8.42663 0.0198741 -0.0231797)
(2.9113 2.90988 0.00159786)
(8.42776 0.0214318 -0.0142837)
(8.10617 0.0111917 0.0163378)
(8.52995 -0.19724 -0.00133124)
(8.55438 -0.0510368 0.104169)
(8.25559 -0.0645086 -0.0592241)
(2.90767 2.92195 -0.0103791)
(2.81152 -2.81511 -0.00483639)
(2.92696 2.9093 0.011327)
(2.79452 -2.80252 -0.000604052)
(8.42658 -0.038172 0.000629892)
(8.35269 -0.0102137 0.00257239)
(8.36448 0.0379376 -0.0318424)
(8.42245 0.0219043 -0.0254651)
(2.89717 2.90048 -0.0124599)
(8.33599 -0.0591932 -0.0211123)
(2.91859 2.91896 0.00181961)
(2.80604 -2.81384 -5.54116e-05)
(8.42272 0.0238146 -0.0175252)
(2.59283 -2.59568 0.0370403)
(4.64217 -0.856309 -0.0648209)
(2.78301 -2.77265 0.0020407)
(2.94573 2.90689 0.0233646)
(8.34445 0.0128386 -0.0102191)
(2.92017 2.91846 0.00121805)
(8.23903 0.0201519 -0.00685073)
(7.85671 0.00413311 -0.034104)
(2.92598 2.92617 -0.000687718)
(7.57554 -0.00418634 -0.0353368)
(8.20612 0.0140639 0.010723)
(2.94256 2.58009 -0.0959721)
(8.16707 0.0353632 0.0401761)
(7.7504 0.0390319 -0.00339722)
(8.22036 0.0359403 0.0131265)
(7.6687 0.0280211 0.0970658)
(8.28658 0.0222347 0.00406528)
(7.94246 0.00251632 -0.0120183)
(2.88888 2.46609 -0.0122885)
(2.80637 -2.80084 0.016653)
(7.1102 0.0112901 0.166447)
(2.90106 2.91056 -0.0163608)
(8.2087 0.040883 0.0405681)
(8.53568 -0.0424117 0.0843752)
(2.93471 2.80418 0.0239961)
(2.91449 2.92679 -0.00176479)
(8.40209 -0.0141627 0.0055567)
(8.10298 -0.0372117 -0.0808541)
(8.12807 0.0399681 0.00433371)
(8.42305 0.0223113 -0.00922774)
(2.92152 2.91779 -0.000690934)
(8.57108 -0.0219483 0.13798)
(8.43968 -0.0279661 0.0407555)
(2.93012 2.92582 3.94236e-05)
(8.26462 0.129373 0.105901)
(7.89463 -0.0312402 -0.0829948)
(2.81155 -2.81178 -0.000292778)
(2.80791 -2.80779 0.000520208)
(8.226 0.0227147 -0.007642)
(8.28576 0.00699553 -0.0119125)
(2.93277 2.93279 -0.00384394)
(2.81413 -2.80782 -0.0040948)
(4.95271 -2.67191 0.607097)
(2.81769 -2.81985 0.000510414)
(8.28838 -0.0024235 0.013698)
(2.90161 2.91226 0.00654428)
(2.81857 -2.81975 0.000193575)
(8.48037 -0.00910985 0.0273035)
(7.69491 -0.0888669 -0.220056)
(8.38755 -0.0479032 0.0103592)
(8.11222 -0.00192223 0.0156885)
(2.92809 2.92561 0.000304248)
(3.79332 2.92187 0.147591)
(8.10993 0.107414 0.15878)
(3.55338 3.13317 0.166625)
(8.08557 0.0350714 0.0618161)
(8.04748 -0.0644587 0.00629168)
(8.40169 -0.0256274 -0.0217351)
(5.84815 0.167729 0.220741)
(3.48697 3.0037 0.152569)
(8.37654 0.0126441 -0.0799834)
(8.51136 0.266666 -0.0830474)
(2.81378 -2.81877 0.00555369)
(8.47634 0.0211338 -0.0825643)
(8.48076 -0.0366084 0.0316409)
(2.81902 -2.81827 0.00307342)
(8.17491 0.464282 -0.249328)
(7.17264 -0.000451642 -0.0954924)
(3.69048 2.89933 0.123575)
(8.44731 -0.0156222 0.0322111)
(8.34689 0.0123893 -0.00940007)
(8.28934 0.0209078 -0.00653958)
(2.92123 2.91807 -0.000652667)
(8.25096 -0.0142724 0.0569923)
(8.48294 -0.00153204 0.0263562)
(8.22035 0.0787246 -0.00833402)
(5.179 -0.07199 0.0859125)
(3.55428 3.35071 -0.0690719)
(4.88836 -0.12467 0.165322)
(2.81322 -2.81719 0.00215956)
(7.62486 -0.257906 -0.249014)
(8.25291 -0.015748 -0.0545451)
(2.92224 2.92027 0.00425136)
(7.87639 0.0184043 -0.0577278)
(6.49389 -0.0168874 0.117959)
(3.79004 3.35076 -0.0347402)
(2.81577 -2.81377 0.000342896)
(3.29671 -2.80118 0.0903155)
(2.81809 -2.81706 -0.000142421)
(8.21201 0.0507326 -0.00510352)
(8.27833 0.0429777 -0.0139051)
(8.21888 -0.0214676 -0.0213602)
(7.73219 0.0189672 -0.0392982)
(8.41132 -0.169042 -0.0353752)
(2.91945 2.90704 -0.00539241)
(8.16812 -0.00122407 -0.0152856)
(2.82449 -2.80318 0.000294596)
(8.08137 0.029087 0.0199757)
(2.93075 2.93198 -0.00035056)
(2.81609 -2.81382 0.000141437)
(2.78718 -2.79436 -0.00354931)
(7.94879 -0.0501398 0.0103871)
(2.80514 -2.80688 -0.00217826)
(2.81741 -2.81793 0.00128106)
(2.88295 1.9128 -0.120628)
(2.81839 -2.81991 0.00118067)
(2.88971 2.92983 0.0274354)
(8.14017 -0.0311469 -0.0126699)
(2.92226 2.91802 0.000568118)
(3.46474 2.55676 0.00372)
(2.92315 2.9243 0.00361958)
(2.80716 -2.7975 -0.000909855)
(2.92198 2.91141 -0.00461546)
(2.80615 -2.79175 -0.0141215)
(2.90466 2.90703 3.51612e-05)
(7.42844 -0.00301381 -0.0586008)
(2.92636 2.91176 0.0118328)
(7.60121 0.111488 0.153619)
(8.31743 0.0130996 -0.00429141)
(8.56765 -0.345407 -0.058451)
(2.92735 2.9158 -0.000470365)
(7.24251 0.0204824 0.118829)
(2.92652 2.9167 0.00288325)
(2.81851 -2.81954 -0.00136323)
(8.18242 -0.0771643 -0.0834061)
(8.19671 -0.0620283 -0.075144)
(8.22228 -0.0165362 -0.0206907)
(8.59467 0.0209036 -0.143316)
(3.36126 2.82521 -0.0929644)
(8.41677 0.00856357 -0.0454547)
(8.41138 0.0131323 -0.0418659)
(8.30148 0.0136013 -0.00010264)
(8.17674 0.00897597 0.00272099)
(8.31827 -0.0832469 -0.0565433)
(2.80625 -2.80695 -0.000829911)
(8.30912 0.010324 7.05074e-05)
(3.8285 3.33297 -0.024882)
(8.29419 0.0211805 -0.0109175)
(2.91807 2.91561 -0.00251526)
(8.4436 0.0265809 -0.0379017)
(3.78602 3.14219 0.0289477)
(8.31887 0.00555617 -0.0120616)
(8.35623 -0.0387928 0.0306341)
(3.24798 -1.64788 -0.017252)
(2.92256 2.92474 0.0323026)
(8.18667 0.0138687 0.0152466)
(2.81517 -2.81386 0.000250222)
(8.47884 0.0337253 -0.0550171)
(8.41694 0.0328636 -0.034525)
(2.91953 2.91122 -0.0232233)
(2.9132 2.91256 0.00697354)
(2.85753 2.56024 -0.0571772)
(2.91958 2.92207 0.00134409)
(5.87691 -0.317333 0.16361)
(8.48312 0.0294112 -0.0517982)
(2.96386 2.89358 -0.00216377)
(2.91619 2.91988 0.00265236)
(7.27507 0.00965535 -0.0166152)
(2.92406 2.92441 -0.000302509)
(8.35453 0.0233539 -0.0288907)
(2.92206 2.92126 0.00104863)
(8.269 -0.0488295 -0.0353708)
(2.81871 -2.81904 0.000881085)
(7.76454 -0.0387905 -0.114548)
(6.43958 -0.0253236 0.00509995)
(7.80092 0.022052 -0.015877)
(8.32111 0.00766092 -0.0132488)
(2.93335 2.91113 -0.00921414)
(7.59349 0.00809726 -0.00399994)
(2.92763 2.91683 0.002785)
(2.92291 2.92369 -0.00804658)
(8.23744 -0.0215251 -0.0112853)
(2.9198 2.91617 -0.00277455)
(7.03734 -0.00230817 -0.0721347)
(2.81775 2.5924 -0.0860514)
(8.36481 0.0221114 -0.0258363)
(2.80923 -2.81007 8.08528e-05)
(8.43338 0.0174952 -0.019289)
(2.82021 -2.81773 -0.000570236)
(3.47264 3.07002 0.0899099)
(8.5396 0.310372 -0.0230327)
(8.1893 -0.0696273 -0.0859761)
(8.31989 0.0350579 0.000320545)
(8.37976 -0.092313 -0.0601767)
(8.28426 0.0157693 -0.00900908)
(8.4634 -0.0570877 -0.00573367)
(2.90136 2.92391 -0.013263)
(8.31412 0.0475076 0.0260471)
(8.22307 -0.0817023 -0.0821159)
(2.92166 2.92207 -0.00138518)
(7.00266 -0.104019 -0.26751)
(8.5063 -0.0630426 -0.042319)
(8.16759 0.0343922 0.0318791)
(2.88867 2.84997 -0.0165279)
(3.60246 0.703282 -0.581198)
(7.99485 0.0198767 0.0264405)
(6.55329 -0.0263905 0.0660279)
(6.77223 1.7329 -0.0121375)
(3.64311 -1.86149 -0.14924)
(8.44784 -0.0947921 -0.0210505)
(7.93836 0.0295244 0.0585862)
(8.18211 -0.0758656 -0.0831753)
(8.34257 -0.0459634 -0.0177464)
(8.19959 0.047113 0.0204963)
(7.28305 0.932785 -0.0427424)
(3.6161 3.06443 0.0255604)
(7.41471 -0.286562 0.070397)
(7.16809 -0.633776 0.146149)
(2.81269 -2.81438 0.00139595)
(7.33351 0.0501321 -0.0216986)
(2.93699 2.88214 -0.0155704)
(3.42988 3.11733 0.0298372)
(8.27505 0.0205209 -0.00389074)
(7.33154 1.23274 -0.0408661)
(8.84214 -0.760491 -0.140216)
(7.97848 -1.38569 0.029825)
(3.4213 3.2503 -0.241742)
(8.41256 -0.0510182 -0.0164862)
(8.30655 0.0478552 0.0379793)
(2.91587 2.90694 -0.000884507)
(3.76701 2.08518 -0.0875461)
(8.30581 0.0624437 0.0398105)
(2.81634 -2.80657 0.00305902)
(2.92041 2.9194 -0.000325798)
(2.91228 2.91136 8.21428e-05)
(2.92528 2.90934 0.003663)
(8.40896 -0.0851335 -0.0380235)
(2.922 2.92112 0.00161842)
(2.82577 -2.82548 0.0146974)
(8.26329 -0.0496491 -0.0401468)
(7.64173 -0.000836225 -0.0215888)
(4.13382 -3.62174 -0.190577)
(8.30629 0.0610342 0.0382798)
(3.40413 2.74733 0.0624956)
(8.33793 -0.0313157 -0.0170803)
(2.76143 -2.75969 -0.0125258)
(2.91524 2.92095 -0.00250105)
(8.39099 -0.0523103 -0.0151011)
(2.92065 2.90421 -0.0112477)
(2.92201 2.91555 0.00161783)
(3.34987 3.20523 0.092931)
(7.91317 -0.0051555 -0.00451241)
(4.82059 4.03497 -0.536726)
(8.27273 -0.0336344 -0.0156509)
(8.27552 0.0201387 -0.00695128)
(2.79105 -2.77291 -0.02257)
(8.59448 -0.024386 0.272435)
(7.86697 -0.0472848 -0.115434)
(8.24266 0.00062765 -0.00400342)
(8.34801 0.151676 0.015703)
(8.38554 0.0804107 -0.18031)
(7.24038 0.00237292 -0.0656996)
(2.91665 2.91357 0.0021532)
(8.40639 0.00726333 0.0241095)
(8.3411 0.0355031 -0.00672399)
(2.78878 -2.82559 0.00532863)
(7.78637 -0.00338299 -0.00448578)
(8.41783 0.052377 -0.0117409)
(8.41578 0.0381928 -0.013517)
(7.68038 -0.0341995 -0.0744454)
(8.41396 0.0367988 -0.0145439)
(8.41716 0.0445777 -0.00412165)
(2.82107 -2.78374 0.0172539)
(8.4225 -0.0159758 0.0405741)
(6.97323 -0.0435809 -0.0142158)
(3.52212 3.05735 0.19509)
(8.41213 0.0309657 -0.0190159)
(8.03876 0.00842483 -0.0186046)
(4.69365 3.81844 -0.578911)
(8.27746 0.0171798 -0.0069976)
(8.41693 0.0246521 -0.025964)
(8.04138 0.00203566 -0.0330158)
(8.35096 0.035597 0.00385273)
(8.25485 0.0853325 0.0396135)
(8.30209 -0.00277123 0.0163801)
(2.85742 2.79233 0.00396729)
(8.35066 0.0434375 0.00317033)
(7.84064 -0.0509041 -0.104561)
(3.15065 -1.90141 0.0726531)
(8.30889 0.076429 0.0476944)
(8.20423 0.0743478 0.0726853)
(8.31871 0.0211751 -0.000425515)
(2.91726 2.90998 0.00274058)
(8.06912 0.0456395 -0.0756423)
(2.81602 -2.80358 0.00736292)
(2.921 2.92193 -0.00139748)
(2.90627 2.88653 -0.00117599)
(2.92738 2.91004 0.000907183)
(7.03353 0.00395212 -0.0298292)
(3.48463 2.9966 0.122621)
(6.27965 -0.451003 0.520252)
(2.80107 -2.80256 -0.000554166)
(2.91519 2.95484 -0.00473856)
(8.31986 0.0827341 0.045173)
(8.36893 0.0210093 -0.0379096)
(2.81824 -2.81706 0.000206643)
(8.37539 -0.0512861 -0.00519278)
(2.81618 -2.81415 0.00826802)
(2.81788 -2.81618 -0.00108335)
(2.77187 -2.77208 0.00879569)
(8.49905 -0.0658393 -0.00920186)
(7.11622 0.0404539 -0.0196417)
(3.44829 3.1046 0.0379839)
(2.84416 -2.81263 0.00743551)
(2.91802 2.92751 -0.00375091)
(2.91971 2.92323 -0.00144529)
(8.55513 0.0174879 -0.0946476)
(8.29886 0.0144477 0.0027807)
(3.47387 3.26569 0.151411)
(8.46035 0.0252664 -0.0454016)
(7.87617 -0.111103 -0.326649)
(2.91563 2.91754 -0.000760287)
(8.43847 0.021793 -0.0396889)
(7.74315 0.00507449 0.0413337)
(8.20334 0.042459 -0.0486292)
(2.92593 2.92468 -0.000403093)
(2.91773 2.91513 9.69115e-05)
(8.16172 0.0396128 0.0477823)
(8.326 0.0185562 -0.00210177)
(3.45606 3.14125 0.0492422)
(2.90866 2.90979 -9.5849e-05)
(2.95589 2.86346 -0.0103577)
(8.28313 -0.0165333 0.00673916)
(2.8138 -2.8137 -0.00338473)
(2.80901 -2.79864 0.0018891)
(2.90582 2.90493 0.00209043)
(8.43618 0.0249194 -0.035047)
(7.40347 -0.036216 0.0137064)
(2.92481 2.92514 0.000133336)
(3.25516 0.63413 0.582155)
(3.56252 -0.399459 -0.134314)
(8.15191 0.0428301 -0.00116088)
(2.91626 2.92168 -0.0015021)
(2.922 2.91683 -0.00208499)
(8.45884 -0.104033 -0.015084)
(8.11317 0.137694 0.13006)
(3.50465 3.12899 0.148792)
(5.11043 1.64993 0.120387)
(8.00239 0.167236 0.234096)
(7.66457 0.0222172 -0.0524126)
(8.14167 0.00620919 -0.00451621)
(3.02031 2.8349 -0.0068835)
(8.09301 0.0228566 -0.00462922)
(8.38641 -0.0557333 0.0591355)
(2.92656 2.91926 -0.00339145)
(2.79535 -2.74684 0.00425893)
(2.90634 2.90735 0.000439278)
(2.91605 2.9158 -0.000466997)
(2.92148 2.92642 -0.00319532)
(2.92591 2.92635 -0.00032153)
(8.45314 0.0235817 -0.036858)
(2.81565 -2.81516 0.00216201)
(2.91417 2.91441 0.000679163)
(2.90488 2.86721 -0.00343768)
(8.46024 0.0257754 -0.0461774)
(8.31825 0.0195792 0.0025522)
(2.8277 -2.79036 -0.00121918)
(2.78303 -2.75141 0.00595466)
(8.52476 -0.0396687 0.0724183)
(8.10407 0.00310438 0.0128612)
(8.09209 0.00780355 0.0151735)
(2.8163 -2.80912 -0.00148667)
(2.91187 2.91328 0.00183572)
(8.0991 0.00575405 0.0146724)
(2.81767 -2.81524 0.000390353)
(8.00635 0.0218552 0.00220119)
(8.17399 0.020185 0.0276853)
(8.19816 0.0190151 0.0174192)
(2.82575 -2.80474 0.00742483)
(2.81718 -2.81865 0.000650869)
(2.81688 -2.81874 4.86864e-05)
(2.92215 2.9232 0.000867592)
(8.28878 -0.0376758 -0.0220643)
(2.91897 2.92341 0.00222867)
(2.91351 2.91026 5.87787e-05)
(8.26259 0.0241321 -0.0342407)
(2.81735 -2.81858 0.00103365)
(8.13548 0.00207222 0.00971261)
(7.42993 -0.0648481 0.0242496)
(2.9392 2.83928 0.0155039)
(8.30788 0.0203368 -0.010184)
(3.91663 0.5808 -0.093204)
(8.2121 0.00769352 0.00411025)
(8.48493 -0.026702 0.0191693)
(7.51391 0.0287825 0.00938322)
(8.49095 -0.00343986 0.0552193)
(6.14337 0.127715 -0.237441)
(3.4807 2.78199 0.0578736)
(8.19427 0.00439228 0.0031686)
(8.52224 0.0646799 0.0107678)
(8.31018 -0.0185565 -0.00760714)
(2.99278 2.6012 -0.0882721)
(3.7521 0.365252 -0.19468)
(4.44548 -0.331796 0.154276)
(8.2038 0.0110678 0.0029409)
(2.91267 2.91673 0.00379298)
(8.04855 -0.0188071 -0.0579602)
(8.22278 -0.00862793 -0.0157424)
(7.97853 -0.0682576 -0.126164)
(3.07439 -2.18 -0.163467)
(2.8179 -2.81939 0.00122985)
(2.8147 -2.81497 -0.000197929)
(8.34927 -0.0253422 -0.00149804)
(3.40834 2.82214 -0.0372338)
(7.94869 0.0276215 0.0109035)
(3.16961 2.88883 0.0396091)
(7.8999 -0.0174895 -0.0550398)
(8.13046 -0.0180545 0.00830345)
(8.03866 -0.0174565 0.023532)
(8.32428 0.0188713 -0.00270518)
(2.91315 2.91318 -0.000793526)
(2.90036 2.89254 -0.00566766)
(3.00792 -2.74291 0.0134699)
(8.31033 0.0227843 0.000243843)
(2.9257 2.91764 -0.00108261)
(3.37591 2.90082 -0.129893)
(8.50962 0.16157 -0.135857)
(2.93078 2.92699 -0.0020409)
(2.90776 2.92142 0.00877746)
(2.80151 -2.79258 -0.00486647)
(2.92379 2.92469 0.0010066)
(7.95724 -0.00511212 0.0196983)
(2.98126 2.83028 0.00469143)
(2.92265 2.91965 0.00109403)
(6.74552 0.946705 -0.685045)
(3.42203 2.76547 -0.037741)
(2.90815 2.90964 -0.0239642)
(4.04859 -2.39147 0.147287)
(2.92056 2.91683 -0.00362619)
(6.535 0.0247336 -0.055459)
(8.11742 -0.0119282 0.0183292)
(2.80592 -2.80645 -0.000836818)
(7.97822 0.00918778 -0.0223811)
(8.03533 1.2952 -0.177921)
(7.92017 -0.0754143 -0.126483)
(8.70562 0.319495 0.00469511)
(7.85923 0.00566069 -0.0114037)
(2.91915 2.89939 0.00882015)
(8.21374 -0.0757335 -0.0865802)
(8.51092 -0.0288754 0.0165931)
(7.91689 -0.0760236 -0.126612)
(2.81526 -2.81525 -0.000787542)
(8.62175 2.25603 0.605524)
(7.93887 0.0127903 0.00953872)
(3.89514 3.10562 -0.18519)
(7.88899 0.00125376 0.00742593)
(8.59204 0.106247 -0.0817296)
(8.20859 0.165118 0.00849213)
(8.13943 -0.0221279 -0.0305832)
(8.13929 0.0278955 3.22317e-05)
(8.66218 0.125827 -0.0466045)
(8.33815 -0.0123439 -0.0128161)
(8.2682 -0.00978381 0.00773753)
(2.89707 2.90769 0.011026)
(2.90781 2.89315 0.00883876)
(7.99273 0.0210926 0.00960908)
(7.86661 0.00880399 0.00992292)
(2.91506 2.92206 -0.00160549)
(8.10043 0.00826252 6.19602e-05)
(8.47716 -0.0385518 0.00541442)
(8.28496 -0.0177481 0.00663814)
(2.92027 2.88997 -0.00133625)
(8.17977 0.165723 0.0367187)
(2.91332 2.91058 0.000105726)
(8.27242 -0.00965242 0.00677213)
(8.29409 -0.0104502 0.00515267)
(2.92025 2.91877 -0.000538278)
(7.93418 0.0381044 -0.0313812)
(8.27311 -0.00682753 0.00112771)
(8.14718 0.153918 0.0132375)
(8.01264 0.00140947 0.0318135)
(2.98079 2.92395 -0.00460421)
(8.3682 -0.0214013 0.0239565)
(8.17279 0.187971 0.00153174)
(8.62088 -0.20485 0.0562219)
(7.26573 0.0931244 0.0245741)
(6.50337 0.0206469 -0.0903037)
(2.92206 2.89209 -0.00514537)
(2.91269 2.90983 0.00267416)
(8.04168 0.108934 0.0136671)
(2.92413 2.9246 -0.00100788)
(7.04194 -0.0194617 -0.0218128)
(8.07029 -0.0415475 -0.060559)
(4.91574 0.677538 -0.180204)
(8.95086 -0.577048 0.215627)
(7.89553 -0.357056 0.103466)
(8.7889 -0.31843 0.0869902)
(2.92317 2.92382 -0.000744552)
(3.96995 3.36934 0.028738)
(8.34318 0.0192994 -0.00690943)
(2.80332 -2.81419 -0.00975239)
(1.56226 -1.09551 0.453734)
(8.25865 -0.154497 -0.120476)
(2.91046 2.90265 -0.00562504)
(2.92575 2.92169 0.000171836)
(7.38617 -0.145648 -0.00531309)
(6.02713 -0.392981 0.0835209)
(2.92407 2.92482 1.64991e-05)
(7.46924 -0.140067 0.0245563)
(2.91161 2.90881 0.00184693)
(2.92026 2.92513 -0.00523123)
(2.81451 -2.81521 -0.000173617)
(2.81824 -2.81203 0.00559915)
(2.76228 -2.7385 0.00828488)
(2.81254 -2.8065 -0.000423801)
(7.47351 0.0607503 -0.027931)
(2.89885 2.87936 -0.00310961)
(2.91928 2.9203 0.000987696)
(2.90314 2.91801 0.00464321)
(6.95343 -1.53978 -0.403046)
(7.86676 -0.0649896 -0.142567)
(7.62947 -8.41874e-05 -0.0763072)
(8.34374 0.0179429 -0.0068399)
(2.90495 2.88603 -0.000128137)
(2.93265 2.9214 -5.50127e-05)
(8.00131 -0.135843 -0.164939)
(2.92067 2.92273 -0.00307002)
(2.92015 2.91682 0.000324212)
(4.66175 2.6739 0.0986521)
(8.51534 -0.113841 -0.00242599)
(8.32936 0.0196621 -0.00531865)
(2.9186 2.91751 -0.000416321)
(2.91641 2.91108 0.00462154)
(2.90559 2.89653 -0.00385181)
(2.91042 2.90383 -0.000168834)
(2.92312 2.92149 -0.00296511)
(2.92972 2.92264 0.00126518)
(8.3359 -0.192115 -0.120233)
(2.92661 2.91798 -0.000313919)
(5.78318 0.0826221 0.195177)
(8.40988 -0.0191565 0.0224105)
(2.91981 2.92442 -0.000924306)
(2.79527 -2.80713 -0.00757622)
(2.77677 -2.74828 0.00280336)
(7.05517 0.084212 0.383882)
(2.75673 -2.75387 -0.010798)
(2.81311 -2.8158 0.00274811)
(2.90358 2.9082 -0.0182992)
(7.55718 -0.118157 0.00666052)
(2.91056 2.90962 -0.000225601)
(8.29081 -0.106867 -0.0674404)
(6.63827 0.101005 -0.0372643)
(5.43992 0.00587828 0.219442)
(2.91136 2.91359 0.000903925)
(5.68791 -1.46728 0.118255)
(8.35659 -0.0155555 0.00325825)
(8.41151 0.0223191 -0.0198428)
(3.02342 -2.88597 -0.0330854)
(8.09508 -0.131828 -0.0214522)
(8.26023 -0.0157735 -0.00891289)
(2.81835 -2.79854 0.00258065)
(3.02003 2.86319 0.0134358)
(3.96768 -3.06106 -0.255642)
(2.9037 2.90356 0.000585359)
(8.34583 0.015081 -0.00214614)
(8.34733 -0.00892137 0.01049)
(8.48869 -0.102642 0.0424461)
(5.57625 -0.00638981 0.307513)
(2.92541 2.92385 -0.00042959)
(8.34787 0.0153392 -0.00338728)
(2.99928 2.85192 -0.00729286)
(3.65551 3.08942 -0.0128735)
(3.78059 -2.9457 -0.120723)
(2.92009 2.91987 0.00117206)
(8.37185 0.0236123 -0.00461736)
(2.91009 2.90394 0.0016002)
(2.78502 -2.73466 0.00108252)
(7.64603 -0.104109 -0.190299)
(8.20756 -0.0179237 0.00686028)
(2.78725 -2.74107 -0.0069671)
(8.23903 0.0138007 -0.00466406)
(3.1117 3.04288 -0.0182541)
(8.366 -0.0707308 -0.0365316)
(2.74447 2.62354 0.0264868)
(2.9227 2.92399 -0.000875661)
(2.9353 2.92531 0.00968722)
(2.81858 -2.8195 0.000814523)
(8.09856 0.0110857 -0.0124726)
(7.28821 0.0148022 -0.032099)
(8.39127 -0.0283883 0.182123)
(2.90776 2.91096 0.00137244)
(2.9027 2.8496 0.0197227)
(8.06017 0.013089 -0.0123691)
(2.92349 2.92399 -0.00109529)
(3.39878 3.07307 0.0419503)
(2.81583 -2.81408 0.000509858)
(8.02161 0.0499854 -0.00573981)
(8.5383 -0.210998 -0.0618185)
(8.35444 0.0204126 -0.00800506)
(2.81107 -2.80618 0.00666781)
(6.61949 -0.0104268 0.185116)
(6.91115 0.00690989 0.178458)
(2.62397 2.31395 0.0162143)
(7.47146 0.0965687 0.15186)
(2.92454 2.90895 0.00340438)
(7.89998 0.0724196 -0.00812736)
(8.47068 -0.0150466 0.0498841)
(8.21107 0.00794718 -0.0145864)
(8.48114 -0.105815 0.0135266)
(7.79267 -0.170581 -0.23904)
(2.9231 2.91975 0.000406497)
(2.92281 2.92312 7.24876e-05)
(2.91619 2.9201 -0.000433064)
(6.83521 0.066507 0.246561)
(2.89449 2.86919 0.00334075)
(8.29592 0.0352799 -0.0140083)