/*--------------------------------*- C++ -*----------------------------------*\
  =========                 |
  \\      /  F ield         | OpenFOAM: The Open Source CFD Toolbox
   \\    /   O peration     | Website:  https://openfoam.org
    \\  /    A nd           | Version:  10
     \\/     M anipulation  |
\*---------------------------------------------------------------------------*/
FoamFile
{
    format      ascii;
    class       volScalarField;
    location    "14";
    object      SgRate;
}
// * * * * * * * * * * * * * * * * * * * * * * * * * * * * * * * * * * * * * //

dimensions      [1 -1 -3 -1 0 0 0];

internalField   nonuniform List<scalar> 
111485
(
1.65242e-09
1.73131e-06
5.9656e-07
5.25316e-12
1.63309e-07
2.4927e-09
3.06223e-07
1.18087e-08
2.66332e-07
2.46942e-08
5.56621e-07
2.18822e-08
1.52556e-07
0.00510418
1.44982e-07
3.2422e-07
0.00375438
2.00007
2.11495e-08
2.49572e-08
0.0006928
2.26286e-10
5.71672e-08
2.25886e-07
8.6558e-07
2.15578e-09
1.68105e-08
7.85745e-08
4.88979e-08
0.000902689
0.0464217
2.76971e-08
6.38819e-09
2.55475e-08
0.0096678
1.80201e-06
0.0188392
0.00372306
4.26354e-05
7.38737e-08
0.000722329
1.72568e-08
5.90099e-08
0.00880344
3.75717e-05
3.90991e-08
1.15786e-05
1.72958e-08
1.33732e-07
1.46196e-08
2.81545e-08
3.58895e-07
9.88464e-09
0.00938332
3.48413e-08
1.56317e-08
3.41481e-08
4.18557e-10
8.336e-07
9.42363e-09
1.96142e-08
5.81895e-09
1.74598e-06
0.143404
1.50108e-07
2.51576e-07
0.301273
4.10674e-08
9.95251e-07
2.15963e-06
8.18364e-06
9.93192e-07
2.15326e-07
1.42833e-06
5.78005e-09
8.94381e-09
1.11247e-09
1.50655e-08
1.98609e-09
4.77756e-07
0.00498266
0.00967988
9.33592e-10
2.18004e-09
3.49178e-07
6.43652e-07
0.00249464
0.0453145
6.0321e-05
2.41297e-08
0.000864967
1.28362e-07
6.28085e-07
6.00662e-09
4.70617e-08
4.24552e-10
0.00050503
0.0126157
2.89107e-05
0.000204958
5.04721e-10
5.59349e-08
3.54584e-08
2.12348e-07
1.4126e-07
2.56298e-07
1.92721e-10
1.60767e-08
1.92022e-07
1.18689e-05
3.90562e-09
2.40097e-08
2.44899e-07
1.45691e-06
5.58382e-09
1.35707e-09
1.57238e-09
1.64877e-07
4.72486e-07
1.59264e-10
1.14021e-09
3.36056e-06
0.00124901
4.51687e-08
8.30954e-07
0.000533198
1.97795e-06
1.18354e-08
1.75632e-11
0.000165991
0.00319022
0.0250619
0.000884789
3.16909e-06
1.47356e-06
5.70755e-09
1.99669e-10
9.7425e-09
2.63001e-07
4.68091e-07
1.5273e-06
2.73126e-09
0.00332428
1.69361e-06
1.89454e-05
4.42277e-08
2.24509e-10
8.21811e-10
2.22209e-09
2.12294e-08
6.0704e-07
0.00053076
0.00781641
1.21482e-07
1.6501e-06
1.39404e-09
9.14974e-08
2.46133e-06
1.63433e-05
1.09077e-07
7.00915e-11
2.60635e-09
8.16862e-07
6.18387e-06
1.56798e-06
3.33169e-08
0.00144773
0.000451772
3.74063e-05
6.71385e-05
4.102e-11
2.08624e-09
0.00350079
2.44099e-11
3.93969e-09
1.6343e-09
8.0024e-09
1.65182e-07
4.0293e-09
1.00158e-07
1.46753e-07
4.9894e-09
2.98423e-08
8.15258e-09
6.55682e-08
4.17377e-07
2.01728e-07
2.78405e-08
7.2621e-05
5.73146e-09
7.17614e-08
9.06183e-08
1.31601e-07
8.19168e-08
1.14481e-07
0.0421215
9.45518e-08
3.81844e-10
2.00855e-08
1.45494e-07
2.00417e-08
7.31713e-05
0.000468612
4.58482e-09
3.05502e-08
3.20765e-08
2.04049e-07
2.01384e-07
4.30603e-05
8.79466e-05
6.39806e-08
2.76646e-08
1.40514e-07
1.09171e-10
2.38671e-07
5.05507e-06
0.0287992
2.83618e-10
3.23239e-08
1.47986e-08
5.94952e-08
1.35315e-09
3.881e-08
0.0729221
5.05903e-06
1.16641e-10
2.22028e-11
0.167919
7.42102e-05
4.10356e-07
1.72849e-06
7.97347e-09
5.90053e-09
0.00258976
6.53066e-07
2.39639e-07
0.00311792
1.38223e-09
8.54688e-07
2.41072e-08
1.18906e-08
4.44151e-09
1.60747e-08
7.49333e-08
3.36772e-05
7.72649e-09
1.44422e-07
1.46893e-09
0.000977613
0.00242497
3.57955e-07
5.29946e-09
1.58505e-08
2.54722e-11
3.63239e-06
0.000154318
5.69371e-09
1.20865e-06
0.0018434
1.53513e-09
2.59945e-09
5.51238e-08
1.77715e-08
6.55595e-11
1.31657e-08
1.61069e-11
9.67844e-10
1.24519e-08
0.00297034
5.88579e-08
5.15802e-07
1.81906e-08
0.00319877
3.22155e-07
1.97902e-08
0.000711855
7.10777e-09
1.36793e-08
9.43076e-09
1.83411e-09
0.00202942
4.73206e-09
8.25174e-07
5.2005e-09
2.7881e-11
0.00397513
0.00488406
2.82722e-08
6.03066e-06
4.54172e-06
7.90576e-08
1.09931e-07
0.00129037
1.64554e-10
1.35944e-07
3.1201e-10
6.84703e-06
4.93965e-06
0.274238
3.68504e-08
0.00612365
6.02377e-09
0.00144089
1.30418e-08
4.19761e-08
2.39183e-10
2.2044e-09
0.000461976
1.35052e-09
1.59739e-08
1.38062e-07
2.42347e-06
8.61797e-09
4.57573e-07
7.73109e-10
3.91465e-09
4.87905e-08
7.39037e-05
0.00445199
0.202927
1.36979e-05
1.75049e-10
1.01485e-09
4.4795e-10
1.49588e-06
5.36517e-08
1.31248e-08
5.71652e-08
1.25081e-08
1.32198e-06
0.00112862
0.160145
1.54005e-08
5.25888e-08
3.03837e-08
0.000795739
9.29103e-07
1.07583e-08
1.89124e-08
6.25949e-09
0.00548064
2.66541e-09
0.00264732
0.000185642
8.91245e-09
4.22694e-08
6.81839e-05
1.19237e-08
0.000652031
3.60667e-09
9.98261e-08
0.00955778
0.0239178
4.19191e-07
1.75628e-07
6.85543e-09
9.12761e-09
1.92218e-08
7.43321e-08
0.00642398
4.85965e-07
2.38544e-09
0.000882295
3.98891e-07
4.19188e-10
8.77593e-09
2.70696e-09
0.000880323
0.0403023
0.000856222
0.000824261
3.23026e-09
2.16555e-10
3.39506e-08
2.14203e-08
3.62817e-11
1.85509e-07
5.31342e-08
2.84043e-07
3.25443e-07
2.25855e-06
6.64534e-08
0.0363172
3.86588e-08
3.63192e-08
9.06404e-07
1.22998e-08
0.0179896
5.51643e-09
2.78741e-07
0.17367
0.000503779
1.99465e-09
4.34145e-09
0.00271412
1.22604e-07
0.00564518
7.80602e-09
0.0492901
5.4148e-08
1.31286e-10
0.00136356
9.75079e-07
1.82049e-09
0.000596848
5.2452e-08
5.4555e-08
1.66372e-08
3.17465e-10
1.3171e-05
3.60243e-10
1.25728e-07
6.68763e-08
1.21336e-12
1.33353e-08
2.08325e-06
0.00439653
2.79411e-06
3.87217e-11
1.44008e-06
0.00279265
1.78533e-06
0.00591077
0.0281235
6.03383e-08
0.905127
9.78848e-07
0.00350604
0.000238073
3.78899e-09
0.0467842
2.47931e-08
1.94483e-09
2.43543e-05
3.687e-06
1.38844e-06
3.14634e-08
3.19837e-08
2.75926e-07
3.66158e-09
0.0060227
3.40297e-08
6.40554e-07
8.4825e-05
1.68943e-06
2.48359e-05
1.23013e-09
0.00450758
0.00566964
4.12356e-10
6.7499e-07
6.18238e-05
1.99928e-06
6.19476e-11
4.74272e-07
4.15171e-10
0.00535613
1.18898e-06
3.64547e-07
2.10898e-06
0.000580036
4.64693e-09
7.34533e-08
1.35109e-08
1.4691e-06
2.92988e-09
1.79419e-08
0.00097756
1.73548e-06
1.79444e-09
2.09097e-09
7.64794e-06
1.54077e-09
3.14533e-08
0.000333306
6.74865e-11
1.05985e-06
1.66634e-09
0.0013848
8.46588e-09
4.4708e-08
3.12928e-09
3.93079e-06
8.87462e-09
0.00687815
3.96171e-07
0.00688882
5.26207e-10
0.000469769
4.68572e-08
6.10828e-11
0.00646739
0.00251266
5.36155e-07
0.0221042
5.64408e-07
8.99855e-08
4.40655e-07
7.80264e-09
5.50476e-07
0.00509741
1.05575e-09
2.05159e-08
1.9564e-06
8.65957e-07
0.00098684
3.61112e-07
2.01626e-06
2.29489e-08
3.0749e-08
1.33411e-05
0.00136538
1.38118e-07
9.6065e-09
2.74072e-07
4.41178e-07
6.03226e-08
2.3112e-08
4.05711e-07
2.11657e-11
3.01606e-05
1.10128e-07
6.52726e-09
4.78988e-09
1.88546e-06
4.96083e-10
2.97887e-07
4.12975e-09
2.30336e-07
1.28926e-09
0.00205034
0.00213269
2.15078e-07
3.68517e-09
0.00108551
0.00173906
5.6339e-09
4.1674e-09
2.67847e-07
3.78614e-09
2.43811e-06
2.93887e-07
1.02324e-06
0.000795446
3.41984e-08
9.16746e-11
8.17816e-07
0.0120195
1.14555e-06
5.43611e-07
3.6557e-07
6.85546e-07
2.44601e-08
1.87735e-08
7.72312e-07
6.65029e-07
1.39017e-10
0.0022597
0.0495557
1.20911e-06
3.44061e-08
0.00551692
6.6298e-07
1.09354e-05
0.00142704
6.15621e-06
5.00499e-08
1.91187e-06
2.48191e-07
4.43373e-07
0.00195278
0.00109432
1.3121e-06
6.52318e-05
0.621494
5.95648e-09
1.05898e-06
8.13625e-08
6.14414e-07
1.72759e-10
0.00363619
4.91409e-05
1.79553e-05
2.91518e-06
4.92567e-07
1.99818e-08
6.34551e-09
3.44396e-06
3.44721e-08
1.4578e-09
5.12497e-11
9.04124e-09
7.9797e-10
4.01927e-07
3.01059e-11
0.000651099
2.80968e-07
4.00878e-08
0.00181167
0.0059382
1.01884e-06
6.04737e-09
0.000691479
6.91687e-10
4.05902e-07
3.29646e-09
9.89823e-09
8.01208e-07
2.52047e-07
0.00208413
5.22202e-07
6.38185e-11
6.43895e-08
0.0722201
0.00252969
1.62417e-07
0.0795742
0.000923437
0.00342723
0.000696091
6.65522e-08
3.65293e-07
1.31935e-07
2.85209e-08
0.000377233
1.9873e-08
4.82412e-07
8.56123e-08
4.15685e-08
2.15241e-08
2.4819e-07
0.113742
5.48226e-07
7.998e-08
7.75984e-08
1.22802e-05
8.28763e-10
1.15664e-08
2.85015e-07
9.7383e-08
3.36531e-07
5.94262e-09
6.95012e-08
5.10991e-08
5.49826e-07
3.15151e-06
3.26885e-07
6.36215e-07
7.27296e-09
9.52196e-09
3.46956e-07
9.93212e-08
2.15047e-09
0.0012959
6.09545e-10
0.00244307
1.0146e-06
0.000234949
1.31665e-08
0.00049252
8.29893e-08
2.51066e-07
3.09155e-10
2.4235e-07
6.00098e-09
4.14073e-10
2.01282e-08
0.00510351
2.04565e-06
5.65663e-07
0.000762504
2.27508e-09
4.07789e-10
0.139664
6.41093e-09
1.48948e-06
1.06304e-08
7.1199e-06
6.4848e-10
1.58308e-07
0.000244421
0.00286538
9.91783e-12
3.67344e-09
2.64104e-08
3.03086e-08
2.27335e-06
9.10606e-09
0.00104532
3.34173e-09
1.12817e-09
4.46508e-09
0.000759235
1.11523e-07
3.08904e-06
1.90608e-11
4.12172
0.143343
0.00311265
2.53185e-10
2.5596e-09
1.76006e-07
0.000714397
7.52118e-07
1.71523e-05
0.170212
4.57342e-06
6.73653e-10
0.00105399
5.43225e-07
0.000229063
1.45574e-09
2.39902e-08
4.86984e-09
3.74869e-09
1.14179e-09
2.51476e-11
3.90134e-08
1.36128e-09
8.46816e-09
2.00582e-08
3.05185e-09
3.81447e-09
4.89596e-09
1.48711e-08
5.82863e-05
1.87094e-09
1.84451e-08
8.77485e-09
7.23697e-10
3.32798e-09
2.14318e-11
1.38356e-06
5.06849e-09
9.87178e-09
2.84918e-09
8.41514e-11
2.12595e-10
4.20353e-11
3.35654e-07
2.07617e-09
1.17966e-08
0.0113195
2.23082e-10
1.17865e-07
6.77659e-05
6.89194e-08
8.57143e-09
0.598676
3.794e-09
0.00457894
1.92782e-06
1.45885e-05
0.00376542
1.47828e-06
7.93233e-08
6.8511e-05
2.66491e-09
3.45735e-07
0.00169266
0.518796
9.10065e-10
3.90943e-09
1.47876e-06
1.86153e-06
1.99761e-06
1.36477e-06
8.22954e-11
4.73715e-13
1.27733e-08
6.72819e-07
5.67604e-08
6.94199e-08
3.36748e-06
3.06049e-09
3.45513e-09
1.14825e-09
2.87112e-09
0.000558341
2.01424e-07
2.86095e-10
2.09079e-09
8.89795e-07
4.45491e-05
3.38364e-08
8.1913e-09
0.000760024
3.62752e-11
1.89593e-09
0.00106068
6.44164e-10
0.00125268
7.65171e-07
0.000617688
8.86689e-06
5.53608e-09
4.80844e-07
9.28188e-10
0.000852491
9.70114e-07
3.50424e-05
0.00285746
8.52726e-05
5.33247e-09
2.11223e-08
1.22723e-08
0.0136201
0.00286101
3.18763e-09
0.00418674
1.54262e-09
2.94575e-06
5.52845e-09
0.000250957
2.28429e-05
7.16924e-07
1.1914e-08
0.00210546
3.27139e-08
1.52322e-08
0.000765767
3.4015e-09
9.88411e-09
3.47811e-09
9.86643e-10
3.36076e-09
0.00394166
1.1347e-08
6.21372e-09
0.00164642
8.16611e-10
1.45069e-08
0.00366225
7.83995e-09
0.00338801
0.00594303
2.44411e-05
2.14718e-07
1.9018e-08
3.62559e-08
1.95931e-05
0.00186223
5.87227e-05
5.63532e-06
7.88521e-08
0.000762813
0.000254317
6.00246e-10
7.23151e-06
3.01083e-05
2.0029e-05
8.44484e-06
1.61812e-05
4.31206e-06
1.05273e-10
1.31297e-06
1.94205e-08
1.38053e-08
0.00118481
0.00625372
4.34631e-09
5.65172e-09
5.78156e-05
6.24121e-05
4.0666e-11
1.50383e-05
9.85653e-09
2.29912e-10
3.45939e-10
7.69715e-09
1.06519e-07
8.23931e-09
1.20538e-05
0.000856321
5.60449e-11
1.36598e-08
8.37616e-05
0.00205558
1.41783e-06
2.37443e-08
0.000544604
6.98805e-11
2.75215e-05
5.4584e-10
8.54519e-10
1.07825e-05
0.00569621
2.79199e-08
2.0002e-09
3.25619e-09
0.000593828
8.50319e-09
0.000388428
4.6378e-09
0.00135693
1.37855e-10
3.84952e-05
4.59245e-08
4.2336e-11
1.79228e-08
9.48113e-09
4.30875e-05
1.65514e-08
3.53182e-09
3.52932e-08
9.31129e-05
0.000907105
0.000960828
1.10421e-05
2.1302e-05
4.06671e-09
6.93095e-05
0.000455695
4.97851e-09
4.85351e-08
9.65948e-06
3.87423e-07
4.64716e-09
1.561e-07
2.79294e-06
4.14007e-09
9.17015e-08
1.22806e-08
0.00264224
0.0012571
1.00944e-10
1.59779e-08
0.00101243
2.12248e-06
1.35511e-06
2.91876e-10
3.81228e-08
2.75586e-09
1.93931e-08
1.60504e-06
3.19307e-07
1.77751e-08
4.52423e-07
4.42213e-07
0.000217307
3.89458e-07
9.4529e-11
6.24077e-08
8.04343e-11
4.59964e-09
1.34569e-06
0.339964
3.66792e-09
8.665e-09
5.93909e-08
8.95932e-11
7.83467e-07
9.2975e-09
1.14789e-06
2.1017e-05
1.58853e-06
4.80211e-09
0.000180495
0.000286759
1.32584e-06
0.000129165
8.442e-10
2.2505e-05
7.23623e-07
0.00220908
0.00127761
0.000226591
8.96128e-09
1.35284e-11
1.15277e-09
0.0036295
0.00125597
0.00643076
8.1683e-12
0.176293
6.4809e-10
0.00309054
3.55146e-06
1.55266e-08
2.53665e-09
4.83165e-08
1.55983e-08
0.0377011
4.41599e-08
2.10309e-06
0.00551367
0.00720366
1.28943e-06
5.26916e-07
1.33929e-06
9.26757e-07
7.9173e-09
1.16439e-11
0.0247721
5.77108e-07
4.74858e-09
3.71487e-09
1.10277e-05
6.84038e-09
0.00269847
0.00844222
2.70016e-08
0.00892268
1.35128e-11
7.42868e-09
3.75115e-09
0.00619985
3.95542e-10
0.0021496
0.000106627
0.000816254
0.0204125
0.0164827
1.88608e-05
4.59937e-08
0.000253595
4.83837e-08
7.70657e-09
1.31661e-08
3.82992e-08
1.52563e-06
5.64432e-08
0.00118881
4.63505e-09
0.0108789
0.0204044
9.37296e-11
7.28429e-06
4.62467e-09
0.00381329
3.11345e-05
2.35295e-09
2.34076e-09
0.000207591
9.84794e-09
1.52848e-09
0.0032273
1.05016e-08
0.0133668
1.32629e-10
0.000778638
1.59053e-07
1.22085e-08
1.62791e-08
8.10098e-08
0.0746028
1.3932e-09
0.00688076
1.86657e-08
5.02885e-11
0.00357393
8.19037e-09
1.32817e-10
0.00955187
1.65672e-05
0.00590211
4.48952e-10
3.34037e-08
8.40607e-10
7.1723e-07
8.68838e-07
0.000643251
1.0642e-07
1.51098e-05
1.2542e-06
3.2289e-05
5.21992e-07
5.39122e-08
2.20183e-08
1.81042e-08
2.03941e-08
3.81752e-08
1.61523e-07
0.000820171
0.0232689
0.000801461
4.27215e-11
1.82026e-08
1.80018e-09
4.39558e-06
0.00332962
2.72966e-08
0.015082
8.53034e-06
2.35191e-06
1.53995e-11
0.000113163
0.000144124
2.2669e-06
0.000369404
1.23202e-08
1.52526e-05
3.69355e-08
8.3005e-08
7.14953e-09
1.18354e-09
3.41037e-05
1.59637e-07
1.64754e-05
1.51674e-08
0.000792904
1.19654e-05
1.60404e-08
1.97273e-08
0.159829
5.89497e-08
0.00104034
0.00500832
0.00319833
0.00014724
1.54293e-07
2.87521e-08
4.82482e-10
3.04954e-09
5.20809e-06
7.72508e-08
0.000582791
0.00102659
5.26922e-07
4.73363e-09
5.67713e-06
0.000704123
4.61322e-07
2.1095e-05
2.52189
0.000739212
0.00232888
0.000859553
0.0406879
1.55879e-10
3.58972e-05
3.1746e-08
3.57747e-09
4.58676e-09
5.47704e-09
4.69745e-07
1.29334e-09
3.33231e-09
1.58474e-06
2.32563e-09
2.47097e-10
1.71495e-08
7.82022e-09
0.00100099
3.45068e-08
0.00789007
0.00129156
0.00497978
1.99293e-09
0.00361918
6.00082e-06
0.00660902
8.27431e-08
1.3642e-09
1.32099e-08
7.39007e-07
0.00465137
3.76976e-11
0.0366739
4.35118e-09
3.66665e-09
2.89933e-07
2.91539e-09
2.65189e-08
5.83641e-09
0.00131167
2.59758e-09
4.75215e-10
4.74837e-09
9.21757e-09
1.8055e-08
0.0206758
5.75704e-07
1.98457e-08
6.56245e-06
3.87873e-07
9.89541e-09
0.000150842
2.19755e-08
4.25173e-08
3.8019e-09
2.30389e-09
0.00485944
0.000743946
0.013938
6.00903e-09
6.88137e-10
1.73674e-08
0.00364208
7.76691e-09
1.59748e-07
0.222832
1.87682e-08
5.15394e-10
0.000597611
2.5856e-06
2.05574e-08
3.15077e-08
0.00704224
3.15155e-09
0.00323238
3.67405e-10
0.000756225
1.52669e-06
0.0140893
2.98498e-10
9.43269e-09
2.49548e-08
1.20108e-08
1.99373e-08
7.53005e-08
2.30104e-11
1.22427e-10
1.70895e-06
0.00136758
2.52847e-10
6.88201e-07
1.08876e-08
3.13911e-06
2.22484e-09
0.000821959
3.21228e-08
8.85167e-07
1.12119e-06
7.66758e-09
1.21857e-06
4.48056e-08
3.0178e-07
3.43879e-09
6.45245e-09
2.5798e-07
1.36355e-09
3.14917e-06
1.14704e-06
1.29796e-09
5.75673e-09
2.90938e-06
9.49561e-06
0.00553408
2.49797e-09
0.101682
3.95361e-08
6.6539e-06
3.54673e-06
5.45593e-07
1.57214e-06
0.00135964
8.8739e-08
9.50597e-07
0.000176711
0.00115438
1.53518e-08
9.28399e-10
7.50154e-06
2.34857e-08
0.000707509
4.90859e-09
2.69288e-07
2.16008e-08
4.39172e-09
0.00413194
1.2112e-09
1.08657e-08
1.73017e-08
4.48368e-07
0.00668588
0.000971274
8.65898e-09
2.42957e-09
7.36232e-11
1.11022e-08
1.06634e-08
1.74642e-08
2.981e-09
1.34253e-10
3.91122e-09
1.92863e-10
5.39087e-09
0.00106597
0.000635184
2.08994e-10
2.60972e-07
4.09172e-09
8.38833e-09
2.10572e-09
0.000622969
0.0015455
2.36796e-07
4.37562e-09
1.38996e-09
1.65517e-08
3.71111e-08
8.82729e-08
5.80723e-09
0.194923
4.99374e-09
5.4136e-08
1.06114e-07
3.17991e-06
9.75355e-08
0.0044004
5.51143e-08
4.88017e-09
0.00129146
0.00218963
6.08139e-09
0.00590299
8.21895e-08
2.20785e-07
6.71714e-07
4.77601e-08
7.39319e-08
3.45718e-09
0.00596113
3.3106e-08
1.00082e-06
0.00106923
1.33828e-06
0.000545142
3.29128e-07
2.65032e-08
5.53837e-08
5.13253e-07
1.91599e-08
1.3447e-06
8.03859e-08
7.50673e-07
6.92146e-08
3.33912e-08
2.11633e-08
1.49509e-10
7.31956e-09
5.61509e-10
1.02822e-11
2.75802e-09
2.82305e-08
1.23196e-07
2.3823e-09
3.49206e-11
8.11269e-09
3.09793e-07
6.46555e-09
2.11518e-10
1.46776e-08
4.15505e-08
4.71832e-09
9.51024e-05
1.36125e-07
0.00472561
2.24436e-09
2.04979e-07
5.51064e-05
2.98331e-06
4.06273e-10
1.05085e-08
0.00423177
9.41045e-09
2.94714e-10
6.75486e-08
0.00414644
1.264e-08
1.24135e-06
0.000422479
2.99322e-08
1.96537e-07
4.09356e-07
6.93807e-06
2.70555e-10
7.45264e-07
1.05572e-07
3.63819e-09
0.0276652
0.990442
0.00375839
1.35703e-07
3.03671e-08
0.00516517
9.00468e-07
1.67761e-07
2.0958e-08
0.00203208
3.84721e-09
0.121834
6.88627e-06
0.00113131
1.42642e-07
0.0048221
4.86419e-09
2.38234e-08
2.44365e-09
4.47356e-07
1.1095e-06
7.15806e-08
5.59339e-07
9.62004e-10
1.66126e-07
4.1566e-10
2.19965e-10
2.81965e-10
0.710158
5.47601e-09
3.52228e-10
1.24335e-05
1.83308e-08
0.000477672
3.82085e-08
1.88401e-08
1.33861e-09
8.99117e-09
3.6664e-07
9.76252e-08
3.74525e-06
7.08471e-09
7.06524e-09
6.32968e-05
3.12025e-08
3.13685e-10
2.69362e-06
0.00536713
5.71106e-07
8.82915e-10
0.00260732
0.0449481
7.26524e-07
3.86491e-08
6.26272e-09
3.76837e-06
2.72962e-08
7.30623e-09
8.35481e-11
1.17788e-06
1.43366e-06
1.42176e-06
0.0034146
4.09225e-08
2.44042e-08
4.72534e-06
1.31404e-08
4.30355e-08
1.5681e-09
1.236e-06
3.38917e-08
2.272e-06
0.00329854
2.55846e-08
3.16157e-13
3.08849e-09
7.87872e-08
9.4151e-08
7.23493e-09
1.15348e-05
0.000205999
1.53906e-05
0.0245806
5.5043e-08
9.00884e-07
2.12206e-08
1.89022e-08
6.41523e-09
4.19043e-10
0.00187458
1.34694e-05
3.77613e-08
1.01324
1.05413e-07
0.0076564
9.17535e-06
0.0504999
4.96494e-08
5.96373e-08
2.04189e-09
7.83788e-07
1.01812e-07
0.00615594
5.59373e-08
2.70553e-08
8.47925e-09
3.97682e-07
4.13651e-08
5.60129e-10
0.0592352
2.61117e-08
1.82475e-07
1.68777e-08
1.96042e-09
2.81372e-09
9.77807e-06
0.002375
1.34339e-08
4.33643e-10
1.02641e-10
0.00264976
0.00884395
9.11415e-09
0.00100116
1.84317e-07
4.00819e-09
1.46186e-07
1.7714e-08
2.20084e-08
5.46169e-09
0.00128167
0.00195952
0.00649875
0.00716408
4.80423e-09
1.00458e-08
3.92831e-08
0.144629
0.00683933
6.27891e-10
0.00376591
1.28104e-07
5.86422e-10
1.33759e-08
1.01692e-08
7.2258e-09
1.44799e-09
3.7307e-09
1.18913e-09
0.00289711
1.22945e-09
3.4821e-08
3.44528e-06
4.2967e-10
7.67608e-08
1.25558e-07
4.03019e-09
2.04981e-09
2.46332e-05
1.03984e-07
1.97558e-08
0.00671977
1.33892e-06
4.96997e-09
1.39768e-08
2.00907e-08
2.77997e-08
1.41967e-09
6.07828e-05
1.21041e-08
1.41722e-08
5.58613e-09
1.9655e-08
1.54166e-07
0.000354287
4.98158e-09
1.47737e-07
0.00074704
2.22777e-08
1.05882e-06
8.82577e-09
2.40927e-07
0.000764453
5.41948e-05
0.00646924
0.000547895
1.87091e-06
2.69262e-10
0.00114893
8.05119e-10
5.62045e-07
1.21673e-07
1.08176e-07
0.00489716
2.12909e-08
8.625e-09
1.03779e-07
1.8024e-08
3.2674e-09
1.41883e-07
3.19601e-08
4.58612e-07
0.00131566
4.52963e-09
7.33243e-07
4.13665e-08
2.20314e-08
2.95637e-10
4.26904e-06
2.99647e-07
1.48853e-09
7.08523e-09
3.51507e-08
0.00083162
4.30387e-06
2.3057e-07
0.12021
6.46571e-11
3.84492e-12
1.19272e-08
3.13237e-10
8.37006e-07
1.47563e-08
3.93697e-07
3.98618e-08
9.61169e-09
8.53853e-08
6.42513e-10
0.00121625
1.53002e-06
8.77203e-07
1.3126e-08
2.08081e-09
1.99035e-08
1.31236e-08
9.91565e-06
2.89048e-08
0.00356005
1.7054e-07
3.95237e-09
6.22908e-09
4.10371e-06
1.18906e-07
0.00127658
3.23894e-08
0.0030927
0.00434585
3.39478e-10
6.08441e-06
0.00205715
0.000796176
2.8844e-08
0.000886359
0.00154927
2.1842e-06
1.39529e-07
3.26014e-07
8.02186e-10
2.83163e-07
4.66602e-07
6.2732e-06
3.26373e-07
8.33725e-08
4.50445e-07
9.49082e-05
6.36607e-06
7.13766e-05
2.75708e-06
1.82939e-09
0.00218134
0.00808014
1.08588e-07
0.00791213
4.2498e-06
3.57718e-06
2.85316e-07
0.00476141
4.52582e-06
0.00306863
0.00168929
4.24049e-06
3.83359e-07
6.60041e-10
0.00221889
8.12218e-06
0.00123984
4.73958e-08
2.51041e-08
8.09436e-07
2.94789e-08
1.41288e-06
1.51311e-08
7.79522e-06
7.41902e-09
1.88919e-06
4.50237e-09
3.27861e-09
2.34443e-07
0.00105151
0.000113388
0.00651941
0.00230894
2.95637e-08
2.55169e-09
0.000772652
4.11009e-07
0.000562495
0.00131326
1.88926e-11
0.00529591
8.33426e-08
2.28769e-08
1.04514e-08
2.27732e-05
2.02437e-08
0.000799704
4.05849e-09
2.77258e-10
3.62385e-05
5.35516e-05
1.00936e-08
0.278724
0.00073695
2.94478e-07
1.67787e-08
6.8854e-08
0.00427967
0.000719259
5.09336e-08
9.43223e-05
4.04554e-07
1.09154e-05
1.04697e-07
0.000698406
8.91749e-07
0.000410422
3.09848e-09
0.000306785
0.006242
1.40922e-08
0.00837345
3.28688e-08
1.22111e-08
4.44315e-08
8.36016e-08
1.57303e-06
5.46267e-10
1.19928e-08
0.00134083
1.63342e-10
1.63492e-09
0.00011941
8.48145e-09
4.47932e-06
6.23633e-07
0.00110274
3.37593e-07
0.00461967
1.33034e-07
3.80682e-07
0.000745019
0.554755
9.34014e-12
1.6544e-08
0.0005235
2.14617e-07
0.000130188
0.000168609
2.12385e-09
1.32889e-07
1.49857e-07
2.00233e-08
0.00217568
3.55866e-08
2.30073e-08
2.96449e-08
1.21896e-08
1.09181e-09
0.000312818
5.91991e-08
0.00476143
1.74492e-06
6.33411e-07
7.87878e-07
1.00418e-06
7.24717e-08
7.06139e-08
9.50378e-11
2.91514e-08
1.66733e-06
3.8284e-07
0.0012837
5.63418e-09
9.08453e-08
2.12964e-08
6.20441e-08
6.2276e-09
1.29658e-08
2.21219e-08
0.00320906
1.3118e-05
6.14797e-07
4.61083e-09
3.52299e-09
3.31172e-05
7.1168e-09
1.54956e-09
1.54519e-10
2.55206e-08
0.00583106
2.69833e-09
3.17635e-06
1.28673e-06
4.77091e-07
2.98396e-09
1.63486e-08
3.54168e-06
1.6556e-07
4.4715e-08
8.8944e-07
2.22038e-09
1.68348e-09
5.83528e-10
2.01442e-06
4.88353e-09
0.0059232
9.3301e-06
6.65765e-07
3.46083e-05
1.70307e-08
2.16205e-09
9.54512e-10
0.00110658
2.13418e-07
1.10436e-07
3.35393e-08
2.09854e-08
1.25707e-09
0.00819038
3.51108e-07
9.1647e-06
1.48694e-06
4.19073e-09
0.00216987
1.55442e-08
6.42598e-09
1.0589e-08
5.43885e-08
2.22928e-07
5.24156e-10
4.84134e-07
4.34365e-07
1.05074e-05
5.5887e-08
3.53714e-10
3.20943e-06
9.54258e-09
0.00287463
5.22464e-08
6.06923e-09
2.7894e-08
3.5675e-07
0.00114294
0.000558916
3.31812e-07
1.11254e-06
0.00167382
7.7555e-05
0.296515
0.000784272
1.86267e-07
3.8825e-10
0.00299294
0.000348768
1.7214e-07
6.92463e-07
1.74865e-09
8.47968e-07
3.16452e-05
3.8877e-08
1.78466e-07
6.48879e-06
3.38883e-10
0.000430885
2.54297e-09
4.95711e-07
0.175354
2.60364e-09
2.76643e-07
6.26604e-08
9.0093e-09
1.01718e-08
1.05172e-06
1.22235e-08
2.79717e-09
5.45078e-07
5.39486e-05
8.8287e-10
0.000432117
0.000820461
1.40807e-08
7.04605e-12
1.37493e-10
0.000244362
3.07115e-07
1.32639e-07
5.18828e-09
1.00242e-08
2.49331e-06
1.56462e-06
1.007e-06
1.8578e-06
0.00675519
1.21656e-10
0.00274687
1.28845e-08
2.52976e-09
0.000939761
2.85963e-08
9.87749e-10
0.000426421
7.40551e-11
8.52986e-08
1.1245e-07
2.04844e-08
1.72487e-08
6.52846e-09
1.79138e-10
6.32437e-10
3.69462e-07
0.00424357
0.00400376
3.22928e-07
6.75042e-08
4.62215e-12
0.00104275
0.00397808
0.00394765
0.154349
6.38095e-09
2.18458e-05
4.0305e-06
3.64292e-09
5.85816e-10
2.4054e-08
1.15182e-07
2.41024e-09
1.75551e-07
1.25613e-06
0.00111285
0.003879
4.09709e-07
2.01112
2.05418e-10
1.17157e-08
1.20146e-07
0.0219947
5.29453e-07
0.634609
3.9759e-07
2.50467e-07
2.08503e-09
9.69313e-09
2.76932e-07
0.00108574
5.5334e-09
0.00342133
7.75131e-10
0.0853808
4.82916e-06
0.83863
5.90609e-10
3.33485e-11
1.10194e-08
1.16687e-09
4.7313e-08
6.05524e-06
6.6256e-09
0.000690484
2.24464e-09
0.00300375
3.78244e-09
4.5995e-08
3.04898e-08
7.69105e-06
2.00273e-07
2.18007e-10
9.96658e-10
8.55584e-10
1.02185e-07
1.50389e-07
0.000963349
0.00093746
7.48231e-09
2.57607e-08
1.05933e-10
5.42042e-11
4.36562e-10
2.65541e-08
3.68672e-06
7.81879e-09
3.01272e-10
1.05106e-10
0.000407937
0.00220188
1.01432e-06
0.000756395
1.11473e-08
0.00580399
1.46213e-07
1.44547e-08
1.79469e-11
4.85507e-09
0.00100054
1.53811e-11
4.08169e-07
9.04692e-10
0.0155276
7.72874e-07
6.83278e-06
2.41463e-06
1.19879e-06
6.87912e-10
4.50654e-10
0.0613608
0.262654
6.08386e-07
1.80894e-05
1.62939e-08
3.56316e-06
1.58082e-06
5.14246e-08
9.24239e-08
5.91038e-06
6.277e-09
1.75616e-05
0.000728436
5.31652e-08
6.96223e-09
1.45669e-06
1.46514e-08
0.000635755
0.0032904
5.04534e-07
7.64703e-10
0.00383231
5.82863e-09
8.29295e-07
0.00123682
2.08386e-06
4.85208e-11
2.06617e-05
1.88664e-06
0.0567062
4.387e-07
2.58332e-06
7.21356e-07
1.17806e-07
2.66413e-11
3.52835e-06
1.66886e-07
1.16349e-06
2.08437e-08
1.71452e-07
2.10704e-06
0.431367
1.93313e-10
3.9367e-10
1.61862e-09
1.91073e-11
2.18034e-09
0.000480984
8.45268e-06
0.00411144
5.88249e-07
3.74954e-06
0.00250277
6.40521e-12
3.4504e-07
3.84212e-10
9.48066e-09
1.4553e-09
4.26432e-07
0.113554
4.26655e-07
2.38976e-09
4.74818e-09
3.97109e-08
7.5166e-09
2.58643e-09
0.0320213
1.94401e-07
0.036319
0.065587
0.385585
1.31106e-09
0.204855
1.27529
1.80383
0.669355
6.41952e-10
4.30825e-11
3.87576e-08
2.10691e-07
1.1756e-06
0.00296281
0.000705818
4.826e-07
5.64269e-07
7.31512e-08
0.0372962
3.94244e-09
9.33946e-11
1.89403e-05
0.0723748
0.000488565
2.20405e-10
0.00207801
2.08843e-06
1.44011e-08
2.20656e-05
1.17272e-07
1.84962e-06
4.97411e-08
1.6236e-06
5.78877e-09
8.14257e-08
4.031e-05
7.63653e-07
1.47118e-08
3.23733e-05
9.45174e-07
1.79423e-07
5.99169e-05
1.355e-09
2.61679e-07
9.40422e-07
1.72643e-06
1.24631e-08
0.156209
2.70634e-09
2.892e-08
4.13607e-09
0.00209361
0.00207421
4.50697e-08
5.95352e-08
0.00815725
0.00102865
1.07481e-08
1.05721e-07
3.19704e-08
0.172507
2.62812e-08
0.00363211
2.57748e-07
0.0218051
7.78331e-05
1.50093e-09
0.0630062
3.40996e-08
0.211707
5.06244e-10
4.5382e-05
6.55061e-05
1.65083e-09
1.10414e-08
3.18443e-08
0.0908898
3.52441e-10
0.000737329
1.08742e-08
2.26056e-07
1.46229e-08
1.37203e-08
4.22652e-08
8.61973e-07
0.134937
9.28817e-08
4.24562e-06
0.0393173
2.60685e-08
0.000800092
2.17695e-08
5.55337e-08
5.9066e-08
9.68893e-08
3.39931e-11
4.70868e-10
4.60387e-11
3.53267e-08
1.17805e-08
0.00112139
3.60612e-07
4.13054e-08
8.83226e-10
2.20266e-08
0.197848
1.58395e-06
1.48505e-07
1.0793e-07
2.05286e-07
6.29409e-09
6.91812e-09
4.21649e-07
5.26197e-09
4.74154e-08
8.82083e-06
5.60094e-09
2.08045e-09
5.71375e-09
0.309078
1.34516e-08
1.19504e-07
9.58298e-10
4.11735e-09
0.000884763
5.05939e-09
2.73051e-11
0.000852904
1.43052e-10
8.93917e-11
0.00254171
0.00105456
2.51609e-08
3.9542e-08
6.19121e-10
1.89664e-08
1.02614e-07
5.27898e-07
9.63842e-08
2.08246e-09
4.4504e-08
2.2288e-08
0.124793
1.10817e-09
6.67272e-10
8.25143e-09
7.86736e-08
0.153769
2.57287e-08
3.60673e-09
1.27696e-07
5.82964e-09
2.53602e-09
5.7446e-07
0.0244661
1.69755e-08
5.53409e-10
2.78646e-08
2.95008e-09
3.65668e-07
4.96335e-11
4.54082e-07
6.31898e-10
0.0607743
6.05368e-06
2.55912e-09
1.08518e-09
0.00126358
9.92631e-10
0.00104132
9.82213e-09
1.17626e-08
2.00618e-07
1.44998e-07
0.000774558
9.81077e-08
0.000922721
0.00112103
0.542546
3.76921e-08
0.000752114
1.9437e-07
5.09365e-10
1.5861e-08
0.0023672
0.000688226
0.000781319
5.83301e-10
1.11364e-08
1.52013e-10
0.00324386
1.79494e-08
1.10601e-07
3.16978e-06
4.27393e-05
1.97128e-08
3.89131e-09
8.19711e-08
5.39604e-06
1.1914e-09
9.2476e-09
5.78255e-07
3.95828e-08
1.26165e-11
1.1798e-06
7.80141e-05
3.17322e-08
1.80677e-08
8.35533e-09
1.34917e-07
1.41881e-08
7.75525e-05
1.57865e-07
0.0203154
2.22022e-06
8.29253e-06
1.3503e-10
1.70473e-08
3.8662e-09
1.27294e-07
1.86411e-09
4.95833e-08
6.27729e-12
3.11108e-05
0.00692772
0.00150818
2.66324e-06
3.87215e-10
0.000250078
0.000918468
0.0768679
3.4293e-08
4.88375e-06
4.59415e-08
1.05641e-08
7.66652e-09
2.40162e-09
3.77738e-08
7.92219e-07
8.75822e-09
8.78497e-10
1.95974e-08
1.05481e-08
0.625356
0.0010085
0.0840237
2.33733e-10
3.0337e-09
0.000786964
4.74272e-10
4.72318e-09
1.00465e-08
7.30771e-05
3.26234e-10
1.31812e-07
8.15609e-09
3.83514e-09
1.99948e-05
0.00268417
0.00120548
2.68923e-08
0.00127913
7.01191e-10
2.64472e-07
0.225208
0.00200971
7.81494e-09
2.84921e-06
4.39068e-10
5.40438e-08
6.77552e-06
1.63766e-08
0.000152273
4.86405e-09
2.54219e-09
6.12126e-07
1.42989e-07
5.36266e-08
1.0852e-08
7.12518e-09
6.05366e-08
2.41306e-08
4.23448e-09
2.51478e-09
0.00125143
0.000691133
2.78866e-09
0.00139194
1.57536e-10
5.60764e-09
0.0693236
1.19532e-08
1.015e-10
0.000647926
2.37544e-09
8.19151e-11
1.05408
1.58442e-10
3.02181e-11
1.09505e-06
0.00157
3.73787e-09
0.000694135
7.91759e-10
5.23244e-08
0.00083276
1.24153e-07
1.77531e-05
1.88607e-11
3.03259e-09
2.30386e-08
3.89414e-09
0.0914059
0.000756746
0.000255804
8.65409e-10
0.000864197
1.59874e-10
6.60475e-09
8.47088e-10
0.00175404
3.54755e-05
7.61327e-08
2.50417e-11
1.7261e-08
0.000899341
1.89087e-05
7.6062e-09
4.82841e-06
0.00185651
0.00143097
6.49808e-07
0.0014491
1.8226e-05
0.000795302
7.25576e-07
0.00114189
6.00145e-06
1.87549e-07
3.5179e-08
0.0155132
7.81791e-06
1.81228e-05
8.32888e-11
1.09865e-07
1.85297e-09
7.53311e-07
0.0162058
2.78532e-08
1.78607e-07
1.46801e-05
4.61417e-09
0.00706568
6.86004e-09
4.75848e-10
1.8942e-09
8.9232e-10
8.93394e-08
2.03164e-09
1.32028e-08
2.06039e-09
0.233661
7.60344e-07
7.13343e-11
4.859e-11
1.07807e-09
2.16954e-09
2.44566e-08
0.779555
4.29094e-05
1.86775e-05
1.31797e-10
6.42585e-07
1.60651e-07
0.000861646
5.27179e-07
2.9975e-07
9.39151e-09
1.67753e-08
5.08202e-08
3.92257e-06
2.01375e-06
0.00316216
0.00124968
1.46564e-09
0.000109409
7.07542e-06
8.44015e-10
4.07727e-08
9.09382e-08
1.97842e-09
3.88442e-08
0.149162
0.00115007
2.66588e-11
1.95253e-06
3.06494e-09
0.000814037
9.71132e-07
0.000664158
1.15672e-06
8.30291e-10
1.15702e-09
8.84453e-09
4.87454e-07
8.36659e-07
0.202227
0.0296718
1.91726e-08
0.0294889
0.0447801
2.48445e-10
2.01402e-06
0.104748
1.21854e-06
1.70561e-06
5.74018e-05
8.09468e-08
0.00170225
5.91208e-09
0.200282
0.00071329
6.82197e-10
0.0199749
0.000142624
2.12832e-09
1.68321e-05
5.59116e-10
4.40632e-09
0.185597
0.0102274
1.60484e-09
2.34845e-09
2.44847e-08
3.07352e-10
1.78751e-09
1.96318e-06
4.40855e-10
1.93169e-11
4.23659e-06
9.10573e-11
2.54492e-09
3.55438e-09
0.0326265
8.89998e-09
3.02244e-06
1.3321e-08
2.15471e-09
3.9562e-07
1.23661e-06
0.0142252
0.000714607
1.38692e-06
8.34322e-07
4.42599e-08