/*--------------------------------*- C++ -*----------------------------------*\
  =========                 |
  \\      /  F ield         | OpenFOAM: The Open Source CFD Toolbox
   \\    /   O peration     | Website:  https://openfoam.org
    \\  /    A nd           | Version:  10
     \\/     M anipulation  |
\*---------------------------------------------------------------------------*/
FoamFile
{
    format      ascii;
    class       volScalarField;
    location    "39";
    object      SgP;
}
// * * * * * * * * * * * * * * * * * * * * * * * * * * * * * * * * * * * * * //

dimensions      [1 -1 -3 -1 0 0 0];

internalField   nonuniform List<scalar> 
111485
(
1.73601e-09
1.70273e-06
5.54772e-07
5.40572e-12
1.40822e-07
2.50125e-09
2.6994e-07
1.08679e-08
2.58561e-07
2.46603e-08
5.08725e-07
2.07828e-08
1.31719e-07
0.00517134
1.33068e-07
2.70025e-07
0.00367623
1.60678e-05
1.67629e-08
2.52219e-08
0.00069277
2.32794e-10
5.04631e-08
1.76097e-07
9.07228e-07
2.17695e-09
2.1135e-08
3.15466e-07
4.86427e-08
0.000902594
6.96702e-08
3.1665e-09
6.326e-09
2.55517e-08
1.34923e-05
1.80201e-06
0.00241818
0.00362996
4.26335e-05
7.00738e-08
0.00072233
1.63081e-08
5.34161e-08
2.02858e-06
2.86901e-07
3.90997e-08
1.22513e-07
1.5074e-08
1.29356e-07
1.4543e-08
2.91448e-08
3.585e-07
1.0389e-08
1.76753e-07
3.48921e-08
1.1692e-09
2.8157e-08
4.18562e-10
8.70108e-07
8.49668e-09
1.84323e-08
5.81949e-09
1.87055e-06
1.10575e-07
1.49929e-07
5.32648e-07
6.80028e-06
2.73966e-08
1.42283e-06
3.03248e-06
9.65564e-07
2.02056e-06
2.15732e-07
1.76315e-06
5.78044e-09
2.66353e-09
1.11176e-09
1.4741e-08
1.9818e-09
4.86383e-07
0.0049675
0.00922148
9.27177e-10
2.18135e-09
3.32421e-07
7.54515e-07
0.00249492
1.40834e-07
4.40178e-06
1.43575e-07
2.88477e-08
1.28322e-07
9.04817e-07
7.61235e-09
4.00119e-08
4.24535e-10
0.000505071
2.71754e-07
3.04772e-05
8.30175e-06
6.25812e-10
5.60443e-08
3.54574e-08
2.27838e-07
1.30327e-07
2.58934e-07
1.91446e-10
3.77355e-09
2.56099e-07
1.17395e-05
8.67677e-07
2.11304e-08
2.45504e-07
1.36242e-06
5.59939e-09
6.3383e-09
1.55737e-09
1.64877e-07
4.68213e-07
1.57782e-10
1.14205e-09
3.35986e-06
0.00124904
4.51687e-08
8.32104e-07
0.000530913
1.97755e-06
3.07761e-07
1.75883e-11
5.56749e-06
2.83998e-06
3.67211e-07
0.000884792
3.16896e-06
1.4734e-06
3.63888e-09
1.99243e-10
1.1987e-08
2.2636e-07
4.13469e-07
1.36993e-06
2.5823e-09
0.00316987
1.74221e-06
5.87919e-07
5.09783e-08
2.29396e-10
8.27529e-10
2.22166e-09
1.95182e-08
6.02074e-07
0.000530798
0.00197859
2.65694e-07
1.18678e-06
1.52107e-09
7.46341e-08
2.99983e-06
1.61662e-05
1.09077e-07
8.0516e-11
5.2242e-09
7.2171e-07
1.11985e-06
1.34645e-06
9.55648e-07
1.20079e-07
0.000451772
2.74854e-05
2.203e-06
4.09146e-11
2.10619e-09
0.00347447
2.7047e-11
6.39495e-09
6.60647e-08
8.21509e-09
1.63471e-07
4.05378e-09
1.01377e-07
1.49803e-07
4.982e-09
2.64072e-08
7.37497e-09
5.01546e-08
4.05649e-07
1.95886e-07
8.24448e-07
6.44233e-06
5.52471e-09
1.12641e-06
9.09868e-08
1.31594e-07
3.90355e-07
1.07228e-07
2.33509e-07
5.46002e-08
2.7765e-08
2.00855e-08
1.54886e-07
3.51158e-08
2.7974e-05
1.44769e-06
1.06275e-08
3.05502e-08
1.01592e-07
2.17809e-07
1.99537e-07
2.902e-07
6.47701e-08
8.29061e-08
1.45411e-07
1.41542e-07
1.18285e-10
1.57911e-06
5.06003e-06
6.99923e-09
3.05169e-10
2.22922e-07
3.60978e-07
1.88151e-08
1.35315e-09
3.19202e-07
2.66687e-07
5.04304e-06
1.16678e-10
2.22034e-11
6.61584e-07
7.37748e-05
4.08701e-07
1.72671e-06
2.86098e-07
2.20427e-08
0.00255586
6.5118e-07
2.51562e-07
0.00284544
1.38671e-09
1.0362e-06
4.86707e-07
4.58688e-07
5.87363e-07
1.10425e-07
7.49333e-08
3.27749e-05
6.57822e-09
1.44423e-07
1.49029e-09
1.07132e-07
0.00240156
3.5725e-07
3.3732e-07
3.82903e-07
2.5254e-11
3.63618e-06
1.51147e-08
5.71138e-09
1.20218e-06
0.00180458
1.55837e-09
1.10068e-07
1.06915e-06
1.98105e-08
6.55689e-11
1.13272e-07
1.50595e-11
9.68556e-10
1.24519e-08
0.0029715
6.6493e-08
5.69522e-07
1.82106e-08
0.00311021
3.68558e-07
1.67126e-08
4.2557e-06
7.46098e-08
2.82219e-08
9.41875e-09
1.83139e-09
0.00203541
1.02848e-08
7.75423e-07
4.33504e-07
2.68028e-11
0.00382547
0.00466936
3.47844e-08
6.15783e-06
5.47688e-07
5.83287e-08
1.44524e-07
2.4428e-07
1.64552e-10
1.32148e-07
3.25796e-10
6.32687e-06
4.94193e-06
2.86496e-07
3.61162e-08
0.00606065
6.05499e-09
0.00144089
1.44581e-08
1.28016e-07
2.25911e-10
2.20353e-09
0.000461979
6.43713e-08
3.28494e-08
1.29995e-07
2.96196e-06
7.161e-09
4.57559e-07
7.73321e-10
3.91461e-09
8.71055e-08
7.49847e-05
0.00441249
5.87664e-08
1.38526e-05
1.76553e-10
1.02069e-09
4.48482e-10
1.49462e-06
2.74288e-08
1.48819e-08
5.71653e-08
1.32615e-08
1.3193e-06
0.00112862
9.65473e-08
1.00221e-08
5.6482e-08
3.26998e-08
0.000795736
9.29548e-07
1.07582e-08
1.62308e-08
1.47448e-08
2.39454e-07
2.7112e-09
0.00264743
4.35998e-06
8.51525e-09
6.65342e-08
4.85786e-06
1.18226e-08
0.000652048
2.57645e-09
2.12599e-07
1.0587e-07
8.8699e-09
3.60991e-07
1.75631e-07
6.85754e-09
9.12905e-09
1.88904e-08
4.94789e-08
0.00634443
5.44459e-07
1.37435e-09
0.000882311
3.30149e-07
4.20159e-10
8.77504e-09
2.18532e-09
0.00088017
1.23182e-05
0.000856222
0.000824261
6.32439e-09
2.16557e-10
2.92974e-08
5.09696e-08
3.45707e-11
1.74939e-07
4.71658e-08
2.83334e-07
5.06567e-07
2.54425e-06
8.47134e-08
1.25876e-05
2.58124e-08
9.06095e-08
9.02978e-07
1.22972e-08
1.25719e-05
5.51639e-09
2.35034e-07
5.7906e-08
0.000503761
1.99467e-09
1.37277e-09
0.00272047
1.21568e-07
0.00538819
7.80811e-09
1.12928e-07
6.1804e-08
1.32058e-10
9.75604e-08
8.2843e-07
1.68361e-09
0.000596817
8.34941e-08
4.94708e-08
1.66372e-08
3.1781e-10
1.31526e-05
3.42941e-10
1.62072e-07
6.68828e-08
1.40728e-12
1.77915e-08
9.10737e-07
0.00433053
2.59816e-06
3.90862e-11
1.4392e-06
1.75176e-06
1.7848e-06
6.63727e-07
1.17677e-05
4.48768e-08
1.95323e-05
9.81193e-07
0.00358996
4.16006e-06
3.79788e-09
1.34547e-07
2.58164e-08
1.94485e-09
2.43391e-05
3.89449e-06
1.39011e-06
2.9512e-08
3.11246e-08
2.34058e-07
3.64626e-09
0.00614955
3.82318e-08
6.03418e-07
8.4413e-05
1.68229e-06
2.51218e-05
1.23006e-09
0.00449331
0.00581348
4.13446e-10
6.51589e-07
5.25335e-06
2.00507e-06
6.19374e-11
4.7551e-07
4.13897e-10
0.00501121
1.34633e-06
3.70766e-07
2.08169e-06
5.39569e-07
4.6501e-09
8.49748e-08
1.35151e-08
1.33552e-06
2.93049e-09
1.79432e-08
0.000977567
1.74091e-06
1.78622e-09
2.09447e-09
7.29967e-06
1.53978e-09
3.14537e-08
7.99064e-08
6.74826e-11
1.05924e-06
1.66745e-09
0.0013848
8.47455e-09
4.47078e-08
3.12623e-09
4.2641e-06
8.87444e-09
0.00396979
3.93094e-07
0.00415911
5.01501e-10
1.14457e-06
4.68533e-08
6.03358e-11
0.0064675
0.00251514
5.32116e-07
6.99983e-08
5.65257e-07
1.50232e-08
2.54883e-07
6.05892e-09
6.94447e-07
0.00507383
1.0565e-09
2.04573e-08
1.94156e-06
3.25408e-07
0.000986909
1.04537e-07
2.00516e-06
3.07164e-08
2.78769e-08
1.30819e-05
0.00136538
2.38088e-07
9.63979e-09
2.212e-08
7.70585e-08
6.03231e-08
2.31071e-08
4.05276e-07
2.10191e-11
3.0513e-05
2.05956e-09
6.51631e-09
4.78979e-09
1.78405e-06
4.99426e-10
1.4823e-07
4.11917e-09
1.64145e-07
1.3388e-09
0.00205237
0.00198829
4.4718e-07
6.94669e-09
0.00108549
0.00142056
5.67137e-09
4.16283e-09
2.70022e-07
3.85977e-09
2.69904e-06
2.93484e-07
2.31169e-07
0.000795451
3.85667e-08
9.11223e-11
8.13981e-07
7.94993e-07
1.13244e-06
2.17395e-08
3.40754e-07
2.60562e-07
2.62599e-08
1.87724e-08
4.11633e-07
6.29569e-07
1.5407e-10
0.0022587
1.30564e-06
8.7117e-07
3.42154e-08
2.07133e-05
6.32467e-07
8.70631e-06
4.06393e-05
6.15899e-06
4.62015e-08
1.69838e-06
2.27812e-07
4.28351e-07
0.00201691
3.53059e-06
1.31175e-06
6.49231e-05
0.00135831
5.95933e-09
1.14813e-06
8.13618e-08
6.11599e-07
1.09645e-08
8.77364e-06
4.9829e-05
9.5095e-06
3.01538e-06
4.68296e-07
1.95255e-08
6.35453e-09
3.43268e-06
2.89319e-08
1.45082e-09
5.3326e-11
9.04188e-09
7.63737e-10
3.99317e-07
3.00578e-11
0.000651099
2.75567e-07
6.18226e-07
0.00181208
0.00561967
1.01982e-06
3.20676e-08
0.000691461
6.91659e-10
3.93623e-07
3.30116e-09
9.8889e-09
8.01463e-07
4.58061e-07
0.00208418
5.17593e-07
4.01354e-09
6.43739e-08
6.10834e-07
0.00253007
1.40793e-07
5.36938e-07
1.04119e-06
0.00345442
0.000696088
5.43056e-08
3.38997e-07
1.31934e-07
4.36098e-08
1.54027e-07
1.60529e-08
6.62135e-07
7.26739e-08
3.49893e-08
2.15241e-08
7.38283e-08
1.2774e-05
5.46159e-07
6.4901e-08
7.47491e-08
1.23071e-05
4.95562e-09
8.98189e-09
2.93673e-07
8.3218e-08
3.00246e-07
2.18465e-08
6.97586e-08
6.89333e-08
5.4401e-07
3.15211e-06
2.87598e-07
5.75729e-07
3.10977e-08
9.50988e-09
8.01236e-07
9.93212e-08
2.12948e-09
0.00129589
6.34433e-10
0.00241363
1.02092e-06
0.000231802
1.31351e-08
0.000492525
8.22842e-08
2.20712e-07
3.2418e-10
1.86575e-07
6.00006e-09
4.14104e-10
2.00968e-08
0.00497995
2.17176e-06
5.61629e-07
0.000762504
2.27559e-09
4.15706e-10
1.12595e-07
2.96283e-08
1.49103e-06
9.7758e-09
2.40128e-06
6.48508e-10
1.32479e-07
2.30995e-06
0.00294922
9.21331e-12
3.68515e-09
2.88863e-08
3.68828e-10
2.27339e-06
9.10624e-09
0.00104521
1.33215e-08
1.12869e-09
4.48669e-09
0.000759289
9.0589e-08
2.8537e-06
1.8713e-11
8.43185e-05
1.55409e-05
0.00318825
2.53222e-10
2.55614e-09
8.38981e-08
4.7493e-07
7.52132e-07
9.57288e-06
6.47777e-06
4.59147e-06
1.08538e-07
0.00105399
5.29953e-07
1.99109e-08
1.45573e-09
2.4704e-08
4.93748e-09
3.77505e-09
1.14109e-09
2.63327e-11
3.42704e-08
1.36161e-09
8.43986e-09
1.89932e-08
3.04609e-09
9.4108e-09
4.72331e-09
1.48729e-08
4.59896e-09
3.10907e-07
3.03656e-07
8.77678e-09
7.25467e-10
4.25778e-07
2.15205e-11
1.55312e-06
3.23863e-08
7.95611e-08
2.97009e-09
8.4732e-11
2.2302e-10
4.53202e-11
3.21102e-07
2.09387e-09
1.18402e-08
3.85745e-07
2.1746e-10
2.80734e-07
1.41968e-06
6.88146e-08
1.47088e-08
9.48101e-06
5.65086e-08
0.0044373
2.00044e-06
2.05695e-07
0.00376568
1.47979e-06
1.56657e-07
5.35015e-07
1.05189e-08
3.4492e-07
0.00169275
1.23315e-05
1.36649e-08
3.91535e-09
2.46007e-07
1.53592e-06
1.77294e-06
1.36629e-06
7.90288e-11
4.74188e-13
1.26947e-08
6.73514e-07
7.1562e-08
6.93556e-08
3.26436e-06
4.7125e-08
5.97226e-07
1.55672e-10
2.85871e-09
0.000558344
2.03631e-07
4.79165e-09
2.08818e-09
8.90832e-07
2.25325e-06
3.38361e-08
8.19117e-09
0.000759967
3.6132e-11
5.54129e-07
0.00106067
6.48132e-10
0.00125278
7.65067e-07
0.000617688
8.86752e-06
5.53671e-09
5.1757e-07
3.37122e-07
0.00085249
9.91524e-07
2.26496e-05
0.00285743
2.06904e-06
2.65047e-07
2.11223e-08
1.1431e-08
0.00855523
0.00286183
3.18744e-09
0.00418706
2.82734e-07
2.96103e-06
6.37631e-07
3.7102e-07
2.0789e-05
7.09782e-07
2.43648e-07
1.28547e-07
1.33365e-08
2.37569e-08
0.000765769
3.70278e-09
1.02273e-06
6.07619e-07
9.86692e-10
7.60041e-08
0.00383111
9.07481e-08
6.19278e-09
1.06503e-05
8.16502e-10
1.9504e-08
0.00372351
7.82482e-09
0.00313007
0.00598943
2.28587e-05
3.76084e-07
1.87458e-08
6.2785e-08
1.05308e-06
4.6409e-06
2.04242e-05
5.38118e-06
7.88556e-08
0.0007628
1.99257e-06
5.96892e-10
6.37208e-06
5.20302e-06
1.15505e-05
8.35302e-06
1.61012e-05
3.05993e-06
1.06716e-10
1.2953e-06
7.15045e-09
1.38047e-08
2.66446e-05
0.00614148
4.34633e-09
5.60951e-09
5.73171e-05
6.19095e-05
4.2016e-11
1.12052e-05
9.89883e-09
2.29048e-10
3.46032e-10
7.70226e-09
1.06297e-07
8.2393e-09
1.37271e-06
0.000856339
5.60282e-11
1.3659e-08
7.90764e-05
0.00205641
1.44475e-06
1.26793e-09
0.000544609
6.90636e-11
2.46651e-06
5.36407e-10
8.51626e-10
1.07722e-05
0.0022921
3.38346e-08
2.00184e-09
3.26721e-09
0.000593829
8.50948e-09
0.000388429
4.64788e-09
2.15905e-06
1.38591e-10
3.85656e-05
4.39425e-08
4.32628e-11
1.79264e-08
9.80885e-09
2.7314e-05
1.61704e-08
3.71817e-09
3.52939e-08
8.50071e-05
0.000907104
1.33106e-06
1.04767e-05
2.04107e-05
4.01368e-09
2.25384e-05
1.80752e-07
3.53655e-09
4.96643e-08
4.26437e-06
3.77846e-07
4.61064e-09
1.56589e-07
2.78957e-06
4.13886e-09
1.17439e-08
1.61684e-08
3.26837e-07
0.00125605
9.56212e-11
1.52718e-09
0.00101243
2.1259e-06
1.3489e-06
2.91704e-10
2.37953e-08
2.85943e-09
1.95785e-08
4.46931e-07
1.04423e-06
1.77809e-08
4.7282e-07
4.42171e-07
1.46914e-06
3.93498e-07
9.33083e-11
6.24095e-08
7.96613e-11
1.33274e-08
1.62586e-06
3.02277e-06
3.6371e-09
8.55106e-09
1.74764e-08
9.13601e-11
7.86235e-07
9.30192e-09
1.25883e-06
1.52744e-05
1.44577e-06
4.71681e-09
2.68778e-05
2.10278e-06
1.32591e-06
2.78969e-06
8.83469e-10
2.69655e-06
6.32641e-08
0.00206708
6.20494e-07
1.80426e-06
8.95095e-09
1.28716e-11
1.30779e-09
0.00328516
0.00125597
9.88524e-07
8.1686e-12
2.41775e-06
6.45478e-10
0.00304142
3.3665e-06
1.5204e-08
2.53362e-09
4.85106e-08
1.55982e-08
1.68722e-06
4.40962e-08
2.09854e-06
0.00549157
9.16251e-08
1.29701e-06
5.24974e-07
1.3386e-06
9.19537e-07
7.86429e-09
1.16544e-11
8.04153e-08
5.73926e-07
4.74709e-09
3.75599e-09
1.08758e-05
6.84214e-09
5.78313e-08
0.00737988
2.7345e-08
1.21145e-06
1.23498e-11
8.30031e-08
3.79009e-09
0.0058415
3.90091e-10
0.00214951
0.000105549
2.32351e-06
3.30121e-07
3.03243e-07
1.78081e-05
4.59986e-08
9.14866e-08
4.83129e-08
8.73854e-09
1.29235e-08
3.82989e-08
1.52627e-06
5.64414e-08
0.00118882
4.63503e-09
9.70318e-08
5.78495e-06
9.44191e-11
7.27905e-06
4.58132e-09
8.52208e-07
1.40995e-05
2.35094e-09
3.98186e-09
1.16996e-06
9.79428e-09
1.68004e-07
0.0032114
1.01185e-08
1.8257e-07
1.32138e-10
0.000778551
1.59048e-07
1.22218e-08
1.13462e-08
8.10082e-08
1.32624e-07
1.41645e-09
0.00270468
2.04257e-08
5.04652e-11
2.28368e-06
8.18957e-09
1.356e-10
8.2108e-07
1.59034e-05
1.46604e-05
4.40753e-10
3.40993e-08
8.41615e-10
9.82333e-07
8.68458e-07
0.000643251
1.0621e-07
1.44791e-05
1.25507e-06
2.06234e-05
5.21137e-07
5.39506e-08
2.20193e-08
1.29552e-08
1.31096e-06
3.97917e-08
1.42297e-07
0.000820171
5.21756e-06
0.000801461
4.27003e-11
1.79427e-07
1.79863e-09
1.4061e-06
1.69042e-06
1.13279e-07
8.82838e-07
9.0362e-06
2.69835e-06
1.54347e-11
0.000113685
0.000144109
1.86983e-06
7.7165e-07
1.94857e-08
1.55793e-05
3.69365e-08
7.31258e-08
7.1317e-09
1.18336e-09
4.38636e-06
1.54957e-07
1.63345e-05
1.51745e-08
0.000792905
1.13315e-05
1.60558e-08
1.97366e-08
1.11247e-05
5.88489e-08
0.00104031
0.00493559
2.31329e-06
4.22695e-06
1.11713e-07
6.16782e-10
4.9854e-10
2.91341e-09
1.24755e-06
8.54329e-08
0.000582785
0.00102663
5.6643e-07
5.61934e-09
5.67237e-06
0.000704159
4.62652e-07
2.10954e-05
4.41557e-05
0.000739216
0.00215077
0.000859547
2.62326e-06
1.58806e-10
3.5911e-05
3.16973e-08
3.42166e-09
4.58642e-09
5.48699e-09
5.23393e-07
1.30176e-09
3.30143e-09
1.56481e-06
2.33705e-09
2.47214e-10
1.71502e-08
3.36403e-09
0.00100099
1.16286e-07
6.14802e-07
0.00129168
0.00464946
1.99421e-09
0.00333589
3.19518e-06
0.00688128
1.23144e-07
1.36141e-09
1.90203e-09
8.0671e-07
0.00464616
3.77205e-11
2.29488e-05
3.19904e-09
8.70226e-08
2.8971e-07
2.32324e-07
2.81189e-08
5.83665e-09
0.00131169
2.59056e-09
1.40778e-07
4.74594e-09
9.232e-09
1.00148e-08
8.88494e-06
2.18852e-06
1.98463e-08
6.56342e-06
3.95113e-07
9.89825e-09
2.30744e-06
2.20573e-08
6.52598e-07
3.76656e-09
2.30412e-09
0.00450905
0.000743948
7.84702e-06
6.01154e-09
6.7606e-10
2.98759e-08
0.00344451
6.5478e-09
2.07233e-07
1.51382e-08
4.22741e-08
5.34739e-10
0.000597258
2.40122e-06
3.25467e-09
2.00928e-08
3.20884e-07
3.14722e-09
0.0031809
3.63774e-10
0.000756226
1.47358e-06
9.9422e-08
3.26287e-10
3.87744e-08
2.49543e-08
1.90933e-09
4.77054e-08
7.54926e-08
2.26209e-11
1.21681e-10
1.77432e-06
0.00136758
2.60298e-10
6.74997e-07
9.44104e-08
1.81563e-06
2.79159e-09
0.000821964
3.21226e-08
1.10378e-06
1.06278e-06
7.66439e-09
1.09691e-06
4.95216e-08
3.13817e-07
3.45868e-09
6.45517e-09
2.62576e-07
1.36813e-09
3.28454e-06
8.94402e-07
1.26547e-09
5.76618e-09
2.48597e-06
9.51477e-06
0.00545071
2.49749e-09
1.12159e-07
3.95405e-08
6.63712e-06
3.55891e-06
5.24095e-07
1.56178e-06
0.00135969
7.08179e-08
9.53402e-07
1.41808e-05
0.00115442
1.536e-08
9.33775e-10
7.35352e-06
2.13031e-08
0.000707508
4.90352e-09
2.09486e-07
2.30425e-08
4.35229e-09
0.0041003
1.1833e-09
1.08687e-08
1.51396e-08
4.67631e-07
0.00540869
0.000971275
8.75644e-09
2.45448e-09
7.37225e-11
1.11211e-08
1.06728e-08
1.74669e-08
2.98731e-09
1.3485e-10
3.90678e-09
1.92701e-10
5.394e-09
0.00106602
0.000635182
2.1404e-10
2.61327e-07
4.08773e-09
8.40905e-09
2.09938e-09
0.000622969
0.0015455
1.94968e-07
4.35944e-09
1.38155e-09
1.65515e-08
3.41549e-08
8.82731e-08
5.82008e-09
6.44847e-06
5.00794e-09
5.41067e-08
9.11077e-08
3.18767e-06
9.97791e-08
1.37118e-05
4.25809e-08
4.87876e-09
8.34984e-06
7.94086e-06
6.11434e-09
4.8823e-07
6.34297e-08
2.3712e-07
8.1813e-07
1.74693e-07
7.39117e-08
3.46459e-09
0.00583248
2.21504e-08
9.70409e-07
0.00106923
2.40502e-06
2.68343e-07
3.30094e-07
6.055e-08
1.39952e-08
5.12237e-07
1.52832e-06
1.38694e-06
8.03865e-08
7.9211e-07
7.00716e-08
3.64878e-08
1.41271e-08
1.50061e-10
7.93638e-09
5.61066e-10
1.06169e-11
2.7578e-09
1.66026e-08
1.12223e-07
2.37248e-09
3.58242e-11
8.10875e-09
3.10011e-07
6.46308e-09
2.1755e-10
1.47379e-08
4.15443e-08
2.39426e-09
1.89099e-06
1.29979e-07
0.00437918
2.24952e-09
2.04437e-07
3.67138e-07
7.91188e-08
4.05082e-10
1.04782e-08
0.00396444
9.41425e-09
2.8927e-10
6.48075e-08
0.00398117
1.53995e-08
1.13149e-06
1.11813e-06
2.99165e-08
1.7581e-07
2.1261e-07
6.92548e-06
2.67635e-10
8.27598e-07
1.05571e-07
3.61293e-09
5.22069e-06
7.24895e-06
0.00346876
1.35631e-07
3.03673e-08
1.91103e-07
6.99308e-07
3.56993e-07
1.23012e-08
4.39046e-05
3.94861e-09
1.29125e-05
6.88299e-06
0.00113131
1.42591e-07
0.00456704
4.87407e-09
1.90898e-08
1.02556e-07
3.96297e-07
9.94846e-07
7.15784e-08
2.54483e-06
9.61947e-10
1.66116e-07
4.16606e-10
2.17348e-10
2.58495e-08
7.72999e-06
5.47526e-09
3.73336e-10
8.08971e-06
5.44296e-09
9.64838e-06
4.6101e-08
1.51768e-08
3.02048e-08
2.88265e-09
3.66013e-07
9.83024e-08
3.74319e-06
9.16293e-09
1.26491e-07
6.3173e-05
3.11218e-08
3.17567e-10
2.68428e-06
6.53997e-08
5.99554e-07
8.7839e-10
0.00253828
2.30051e-06
9.71937e-07
3.66793e-08
5.89473e-09
3.76388e-06
1.00223e-07
2.75877e-09
7.97826e-11
1.26111e-06
1.41555e-06
1.50443e-06
0.00343212
8.50754e-08
1.46746e-07
4.71899e-06
1.45563e-07
1.08699e-07
4.14258e-08
1.2366e-06
4.80843e-08
2.27172e-06
0.00324692
2.73831e-07
3.16126e-13
5.44976e-08
1.08602e-06
2.6688e-07
4.83047e-09
1.13117e-05
1.5241e-05
8.57327e-06
1.73862e-05
3.57737e-07
9.00299e-07
2.3472e-07
3.84566e-07
6.36531e-09
4.19825e-10
0.0018771
9.50956e-06
3.92998e-08
2.56695e-05
1.0877e-07
5.2113e-07
8.92801e-06
8.55304e-08
4.97382e-08
5.9648e-08
6.61199e-10
7.82398e-07
5.99948e-07
2.28368e-06
7.24839e-07
6.22654e-09
8.51603e-09
4.19181e-07
1.8054e-08
5.49245e-10
5.97917e-06
8.95894e-08
1.82474e-07
8.21427e-07
6.64354e-08
2.81643e-09
9.78052e-06
0.0024298
1.34416e-08
4.14953e-10
1.02641e-10
0.00253876
0.0043847
7.35662e-09
0.00100116
1.65043e-07
4.18274e-07
1.4603e-07
1.62743e-07
2.48823e-07
3.07842e-07
6.05293e-07
0.00195957
0.00599053
0.00691046
2.16044e-07
5.95359e-07
2.37382e-07
1.44766e-07
0.00635392
6.27859e-10
0.00306232
4.43186e-07
5.45979e-10
6.98458e-09
1.01635e-08
7.43e-09
1.44791e-09
3.73061e-09
1.20348e-09
0.00242424
1.22916e-09
7.09785e-07
3.64862e-06
4.29674e-10
8.72387e-08
1.26016e-07
1.05762e-07
2.05232e-09
1.08716e-05
1.03932e-07
2.33446e-08
1.48888e-06
1.01724e-07
6.36602e-07
1.21669e-07
2.04401e-08
3.39047e-09
3.80709e-07
5.79365e-05
9.28294e-07
9.054e-09
3.17151e-07
1.9655e-08
4.87938e-07
2.39121e-06
2.47561e-07
9.8841e-08
8.87459e-08
2.22871e-08
1.05885e-06
8.83086e-09
2.2616e-07
0.000764436
7.35534e-06
0.00577268
1.29732e-05
1.82472e-06
2.67885e-10
0.00114893
7.86306e-10
1.13458e-06
1.27695e-07
2.3039e-07
1.62254e-06
1.32938e-08
5.81039e-09
7.52856e-07
1.8721e-08
1.68516e-09
4.77925e-07
1.01144e-08
4.52966e-07
0.00131566
4.52959e-09
6.92848e-07
2.52426e-08
2.18911e-08
2.98487e-10
4.27493e-06
1.76869e-06
8.60077e-08
7.08621e-09
2.22562e-08
0.000831512
3.94249e-06
2.19816e-07
3.1381e-07
6.5814e-11
3.51847e-12
1.3038e-08
3.07052e-10
8.65925e-07
5.6277e-09
3.94364e-07
3.2227e-08
6.25329e-09
9.76772e-08
6.47242e-10
1.09635e-06
1.53166e-06
8.31918e-07
8.63365e-09
2.08172e-09
1.99043e-08
3.26159e-08
9.93256e-06
2.8905e-08
0.00283369
5.01548e-07
3.98621e-09
6.238e-09
4.12133e-06
2.77546e-07
1.98678e-05
3.19077e-08
1.91975e-06
0.0041293
3.34912e-10
5.75913e-06
3.58028e-07
0.000796127
2.88465e-08
0.000886366
0.00154927
2.18969e-06
1.29736e-07
3.27966e-07
8.08047e-10
2.82414e-07
4.6624e-07
6.47146e-06
3.25232e-07
9.03413e-08
4.46645e-07
7.047e-06
6.34839e-06
8.21202e-06
2.75828e-06
1.88143e-09
1.73618e-06
1.48194e-05
1.16032e-07
6.20886e-08
4.18263e-06
3.59903e-06
2.83362e-07
3.16832e-07
4.52421e-06
2.765e-07
6.99538e-06
4.5297e-06
3.78096e-07
6.57561e-10
6.42445e-07
8.0646e-06
0.00123983
4.73982e-08
2.11887e-08
8.18875e-07
2.67864e-08
1.41254e-06
1.51304e-08
6.83588e-06
9.50584e-09
1.61914e-06
4.50217e-09
3.56195e-09
2.34711e-07
1.64708e-05
2.29966e-05
0.00594399
2.44442e-07
2.9563e-08
1.9977e-09
7.69543e-06
4.24705e-07
0.000562507
0.00131328
1.85452e-11
1.39663e-05
1.28631e-06
8.81323e-08
1.04485e-08
2.26787e-05
2.02493e-08
0.000799701
4.0497e-09
2.67408e-10
5.26452e-07
2.04446e-08
3.38704e-08
6.91676e-07
0.00073695
3.57972e-07
1.59106e-08
1.65493e-06
0.00388341
0.000719259
1.04156e-07
5.34039e-06
4.58292e-07
1.00743e-05
8.92239e-08
0.000698373
8.64769e-07
3.4904e-06
3.05779e-09
9.04495e-09
8.66145e-08
1.39133e-08
3.80576e-07
3.29173e-08
1.22134e-08
4.46392e-08
8.36017e-08
1.80024e-06
5.48754e-10
1.20211e-08
0.00134084
1.64938e-10
1.63494e-09
8.16701e-07
8.36365e-09
4.44839e-06
6.22717e-07
0.00110274
3.75627e-07
0.00458874
2.84728e-07
3.63617e-07
0.000745019
3.11286e-06
9.28253e-12
1.64744e-08
0.000523458
2.34101e-07
1.56964e-06
3.25991e-07
1.40328e-09
1.32221e-07
1.4965e-07
1.98729e-08
0.00223866
3.55888e-08
2.29381e-08
4.49286e-08
1.22926e-08
1.09963e-09
1.71952e-06
5.92973e-08
0.00480357
1.63221e-06
6.40337e-07
7.89771e-07
1.00281e-06
3.72836e-07
5.73889e-08
1.16923e-10
7.23384e-09
1.74827e-06
3.82864e-07
7.33719e-08
5.63185e-09
2.51656e-07
1.90069e-08
9.32766e-07
6.25533e-09
1.31574e-08
2.88135e-08
5.83538e-07
4.2517e-07
6.2234e-07
4.79961e-09
4.11629e-09
3.23117e-05
7.09629e-09
1.49767e-09
1.54693e-10
1.96161e-08
0.00544435
5.33794e-09
3.24368e-06
1.28701e-06
4.47559e-07
3.20022e-09
1.69775e-08
3.83057e-06
1.45164e-07
4.84909e-09
8.03312e-07
2.21596e-09
1.67324e-09
5.79624e-10
1.5849e-06
4.88525e-09
0.00576637
9.28089e-06
6.94274e-07
3.43917e-05
5.46985e-09
3.06908e-07
9.65604e-10
0.00110659
1.57111e-07
1.11823e-07
3.35491e-08
2.0984e-08
1.25707e-09
0.00839474
3.58021e-07
9.06814e-06
1.25486e-06
2.17885e-08
0.00214844
1.56987e-08
6.41958e-09
1.05883e-08
1.04657e-08
8.32988e-07
1.07706e-08
4.72146e-07
5.43922e-07
1.00738e-05
5.58599e-08
3.79837e-10
3.21123e-06
9.59722e-09
0.00274623
5.14364e-08
5.87853e-09
2.77932e-08
3.55333e-07
0.00114294
0.000558916
3.05204e-07
9.53364e-07
0.00167386
6.07797e-08
5.74734e-07
0.000784306
2.22054e-07
1.07323e-07
0.00303495
0.000348768
1.74499e-07
6.38631e-07
1.69453e-09
7.38572e-07
3.02735e-05
1.88215e-07
1.63533e-07
6.50222e-06
3.38049e-10
0.000430888
2.53891e-09
4.98549e-07
0.00343431
2.60041e-09
2.22413e-07
1.11446e-07
9.00854e-09
9.98997e-09
9.94537e-07
1.22249e-08
2.79705e-09
6.17861e-07
2.15469e-07
8.75336e-10
0.000432173
0.000820529
1.82787e-07
7.72675e-12
1.36241e-10
2.60566e-06
2.89604e-07
9.3538e-08
5.22958e-09
9.99672e-09
2.4907e-06
1.38914e-06
8.79994e-07
1.65121e-06
0.00638652
1.21849e-10
0.00246825
3.33464e-07
9.17399e-08
0.000939761
2.85961e-08
9.88243e-10
0.000426421
7.47372e-11
1.25667e-07
1.07208e-07
5.18345e-08
1.72485e-08
6.4942e-09
1.80904e-10
6.36079e-10
3.69086e-07
0.00231318
0.00373113
7.50316e-07
6.75041e-08
5.15786e-12
0.00104275
0.00397826
5.79016e-06
2.37148e-08
6.38428e-09
2.16443e-05
4.04923e-06
3.65135e-09
5.8367e-10
1.74196e-08
1.34694e-07
2.39068e-09
1.7558e-07
1.36477e-06
0.00111281
0.00359474
9.98531e-07
1.38822e-05
2.26394e-10
1.17653e-08
5.31165e-07
2.41973e-06
5.29251e-07
8.55967e-06
1.64668e-07
2.57712e-07
2.05888e-09
9.66647e-09
2.76932e-07
0.00108573
6.19876e-09
0.00313137
7.82603e-10
2.06939e-07
4.51309e-08
3.44905e-07
6.01567e-10
3.28387e-11
1.09953e-08
1.17108e-09
4.73727e-08
6.02894e-06
6.60171e-09
0.000690508
3.20527e-07
0.00280918
2.64613e-08
4.62374e-08
3.04789e-08
3.8271e-08
2.02149e-07
2.3268e-10
1.01452e-09
8.53643e-10
6.8384e-08
1.51124e-07
0.000963347
0.000937463
9.8346e-08
1.84204e-08
1.0768e-10
5.38997e-11
4.36616e-10
1.95733e-08
3.62285e-06
7.69563e-09
3.02544e-10
1.04822e-10
0.000407931
7.4798e-07
9.06191e-07
0.000756395
1.46856e-08
0.00547069
1.42997e-07
1.44542e-08
1.79389e-11
4.84125e-09
0.00100054
1.58732e-11
4.67555e-07
9.02273e-10
1.13572e-05
7.72828e-07
1.62444e-06
2.41377e-06
4.96994e-07
6.67919e-10
4.64342e-10
0.00633655
6.9242e-07
6.09739e-07
4.40181e-06
1.62837e-08
1.6315e-06
1.58547e-06
5.1443e-08
9.24155e-08
5.74056e-06
6.2789e-09
1.19667e-05
0.000728439
3.54951e-08
6.96051e-09
1.45672e-06
1.46514e-08
0.000635791
0.00319941
4.423e-07
7.6297e-10
6.828e-05
5.82855e-09
2.47667e-07
3.56198e-08
2.24764e-06
4.8522e-11
1.73894e-05
1.62678e-06
2.52832e-06
4.51123e-07
2.12632e-06
5.10642e-07
1.17815e-07
2.69026e-11
3.20802e-06
1.14763e-06
1.09973e-06
2.07956e-08
1.71694e-07
2.10588e-06
7.79685e-06
1.93276e-10
4.37899e-10
1.62535e-09
1.91465e-11
2.18033e-09
0.000395325
8.25531e-06
2.52338e-06
9.65236e-07
3.75824e-06
1.65159e-06
6.43144e-12
3.37759e-07
3.79656e-10
9.48066e-09
1.46674e-09
4.25865e-07
3.81761e-05
4.30807e-07
2.38973e-09
4.7431e-09
2.93837e-08
7.51343e-09
2.60876e-09
0.00259648
1.94355e-07
1.16618e-05
1.77047e-05
1.298e-05
1.30854e-09
1.00082e-05
1.22034e-05
2.25743e-05
1.24246e-05
6.4047e-10
4.25853e-11
3.06377e-08
2.1481e-07
1.18621e-06
6.33181e-06
0.000705769
4.13145e-07
5.62977e-07
7.24928e-08
1.02191e-05
3.94256e-09
9.8816e-11
2.13275e-06
7.0301e-06
0.000488565
2.06115e-10
0.00207778
2.09201e-06
1.43922e-08
1.50653e-06
1.0794e-07
2.03123e-06
4.91347e-08
1.94731e-06
5.60977e-09
1.4779e-07
4.00134e-05
7.42689e-07
1.46318e-08
3.23724e-05
9.04406e-07
1.80644e-07
6.03916e-05
1.35765e-09
1.97404e-07
9.41109e-07
1.69489e-06
1.25436e-08
0.0033811
2.70562e-09
2.88722e-08
4.13432e-09
0.00208604
0.00206993
4.50685e-08
4.64168e-08
3.07125e-06
0.00102865
1.08654e-08
1.73792e-07
5.67499e-07
2.05706e-07
2.62813e-08
0.00340123
1.94768e-07
3.58655e-07
7.68917e-05
1.50096e-09
1.16155e-07
3.40904e-08
4.39247e-08
5.08777e-10
4.54715e-05
6.62756e-05
1.6699e-09
1.63471e-08
3.13629e-08
1.77341e-06
3.51407e-10
0.000737175
1.08868e-08
2.2605e-07
1.46274e-08
1.37177e-08
4.59713e-08
7.01747e-07
2.96436e-08
9.28567e-08
4.24592e-06
2.32682e-08
2.60856e-08
0.000800092
2.17051e-08
5.55341e-08
5.90332e-08
5.03449e-07
3.319e-11
4.71917e-10
4.5031e-11
1.98292e-07
1.16049e-08
0.00112138
3.59976e-07
3.83768e-07
8.82185e-10
5.53945e-07
0.00206862
1.66827e-06
2.32455e-07
1.01361e-06
2.05434e-07
6.26331e-09
7.02149e-09
3.35381e-07
3.77128e-08
4.72843e-08
8.83736e-06
2.15575e-07
2.08584e-09
5.7361e-09
2.98062e-08
1.33309e-08
1.24338e-07
9.52398e-10
1.44627e-07
2.79867e-07
5.06323e-09
2.62543e-11
0.000852916
1.43049e-10
9.43006e-11
4.79278e-07
0.00105457
5.601e-07
3.96127e-08
6.20691e-10
2.38426e-07
1.02614e-07
5.16496e-07
9.4668e-08
1.90598e-09
3.2648e-08
1.50905e-08
1.042e-07
1.10717e-09
6.68001e-10
8.3286e-09
6.83509e-08
3.74807e-07
2.56549e-08
3.60341e-09
1.28183e-07
1.08114e-06
2.56699e-09
5.70295e-07
9.83245e-09
1.71237e-08
5.83395e-10
9.48944e-07
2.95049e-09
3.67417e-07
5.27675e-11
4.55203e-07
5.36133e-10
2.94371e-08
6.05916e-06
2.40218e-09
1.09781e-09
0.0012639
9.73128e-10
0.00104126
1.00035e-08
1.17178e-08
2.01019e-07
4.2152e-07
0.00077457
1.53359e-06
0.0009226
0.00112104
1.80075e-06
1.77271e-07
0.000752145
1.95028e-07
5.07561e-10
6.04576e-07
0.00236724
0.000688228
0.000781284
5.64745e-10
1.72913e-07
1.53759e-10
1.20133e-07
1.79495e-08
1.22362e-07
3.15139e-06
1.54604e-07
1.96932e-08
3.93413e-09
8.03616e-08
5.39596e-06
1.18826e-09
2.13437e-07
6.2544e-07
3.95827e-08
1.26178e-11
1.1987e-06
6.2738e-07
5.55869e-07
4.50878e-07
4.08053e-07
9.41226e-08
2.45056e-07
2.8156e-06
1.57031e-07
1.15106e-07
2.22335e-06
8.29538e-06
1.37563e-10
1.7673e-08
3.87714e-09
3.59285e-07
1.8641e-09
4.95833e-08
6.27373e-12
7.41607e-06
0.00693076
0.00150832
2.55947e-06
3.87625e-10
2.08337e-07
0.000918465
0.0017921
2.55835e-08
4.8873e-06
4.91039e-08
1.07674e-08
7.58157e-09
2.40394e-09
2.68768e-07
7.67372e-07
8.50648e-09
8.61277e-10
2.91929e-07
1.05481e-08
0.00311376
0.00100849
2.194e-07
2.33416e-10
3.06157e-09
0.000786964
4.73506e-10
4.9785e-07
1.00384e-08
1.09139e-05
3.25715e-10
1.30128e-07
8.11197e-09
3.84168e-09
2.00067e-05
0.002684
0.0012055
2.51282e-08
0.00127924
7.01185e-10
2.56004e-07
2.97017e-08
0.00200928
7.81545e-09
3.06298e-06
4.30681e-10
5.40555e-08
4.96e-06
2.40473e-08
2.72869e-06
4.85982e-09
2.50242e-07
6.05784e-07
2.94567e-07
6.36894e-08
1.08933e-08
7.12511e-09
6.05366e-08
2.41293e-08
4.19121e-09
2.49577e-09
0.00125144
0.000691136
2.79995e-09
0.00139196
1.87384e-10
5.59949e-09
7.80543e-07
1.18551e-08
1.03173e-10
0.00064784
2.37397e-09
7.90275e-11
1.07484e-05
1.5926e-10
3.03211e-11
1.02977e-06
0.0015644
3.7324e-09
0.000694135
7.76827e-10
3.78979e-08
0.00083276
1.24148e-07
1.67195e-05
2.02743e-11
3.02071e-09
2.30414e-08
3.89316e-09
0.00369618
0.000756756
1.95286e-06
8.65783e-10
0.000864212
1.66017e-10
6.58526e-09
8.54421e-10
0.00174318
3.41476e-05
2.17687e-07
2.48822e-11
1.73077e-08
0.000899342
1.85902e-05
7.58976e-09
4.60435e-06
0.00185141
0.00143098
6.49645e-07
0.00144927
1.81718e-05
0.000795315
7.27666e-07
0.00114115
6.00045e-06
7.77162e-08
3.51841e-08
4.33872e-08
7.82193e-06
1.64015e-05
1.142e-10
1.05739e-07
1.85413e-09
7.52087e-07
1.57892e-07
2.78353e-08
1.64022e-07
5.39899e-06
4.61305e-09
1.7699e-07
6.89241e-09
4.76443e-10
1.89947e-09
8.88391e-10
8.92969e-08
1.99608e-09
1.33295e-08
2.06059e-09
2.66107e-07
7.61879e-07
7.61033e-11
4.82031e-11
1.07062e-09
2.18366e-09
2.30211e-08
2.10867e-05
4.00957e-05
1.9198e-06
1.34121e-10
5.71652e-07
1.46136e-07
0.000861547
5.26739e-07
3.00878e-07
9.41385e-09
1.67699e-08
5.0125e-08
3.90442e-06
2.00929e-06
0.00315655
0.00124968
1.46563e-09
1.42368e-05
5.52978e-06
8.64076e-10
4.56978e-08
9.04376e-08
2.12918e-09
3.88445e-08
7.66082e-08
0.00115006
2.70347e-11
1.56282e-06
3.06279e-09
0.000814037
9.70573e-07
0.000664158
6.25683e-07
8.45809e-10
1.15917e-09
8.85462e-09
4.88218e-07
3.44165e-07
7.30086e-08
1.67217e-07
1.88962e-08
1.44569e-05
5.34504e-06
2.62463e-10
2.01221e-06
9.62805e-07
8.44085e-07
1.70547e-06
5.7152e-05
8.09446e-08
0.00169859
5.72482e-09
1.17924e-07
0.000713278