/*--------------------------------*- C++ -*----------------------------------*\
  =========                 |
  \\      /  F ield         | OpenFOAM: The Open Source CFD Toolbox
   \\    /   O peration     | Website:  https://openfoam.org
    \\  /    A nd           | Version:  10
     \\/     M anipulation  |
\*---------------------------------------------------------------------------*/
FoamFile
{
    format      ascii;
    class       volScalarField;
    location    "39";
    object      SgT;
}
// * * * * * * * * * * * * * * * * * * * * * * * * * * * * * * * * * * * * * //

dimensions      [1 -1 -3 -1 0 0 0];

internalField   nonuniform List<scalar> 
111485
(
4.68341e-16
0.00902138
0.0210426
1.54328e-18
0.0449952
4.68136e-17
0.0417109
0.00588046
0.0184056
0.00113014
0.0418737
0.00915841
0.00425132
0.000835843
0.00593055
0.0316636
0.00129238
1.99818
0.0100278
1.65939e-15
1.87419e-16
7.22088e-17
0.023481
0.0355363
0.00847542
9.65801e-17
0.0401117
0.00174073
0.0159349
1.69524e-17
0.0434986
0.0173525
4.22376e-16
8.2501e-18
0.00967073
7.32813e-18
0.0105301
0.00388985
6.4467e-08
0.0215948
1.03768e-17
0.0720124
0.0144301
0.000997524
3.68431e-05
1.03085e-17
0.0328087
0.000720923
0.0475736
9.36658e-16
4.36262e-15
3.30509e-15
7.66405e-15
0.0444962
8.18923e-15
0.0430205
0.00355021
5.63446e-20
2.70471e-05
0.00449393
0.0149341
1.45879e-16
0.00401865
0.0884842
1.44894e-16
0.00359224
0.300916
0.0973133
0.000921856
0.00512639
6.62117e-06
0.00547152
1.94195e-14
0.00244607
6.79241e-17
0.00063795
2.51061e-16
0.04253
2.79332e-17
1.45758e-15
5.21536e-05
0.0315987
1.31716e-16
1.34806e-16
0.00812956
0.00442578
5.81646e-10
0.0225473
4.64541e-05
0.00678578
0.000867264
0.0411123
0.0103449
6.14269e-05
0.0559732
2.02055e-16
2.98138e-18
0.00145343
8.95966e-09
0.00147954
1.82707e-15
0.0195226
2.76329e-18
0.0214715
0.00482653
3.56854e-15
6.4242e-20
0.00748156
0.00318566
1.49999e-07
0.00563264
0.00507043
0.00313945
0.00264386
6.10741e-17
3.0453e-05
8.63106e-16
4.47279e-19
0.0113634
9.24678e-17
8.48548e-16
2.32378e-16
1.81521e-17
1.18278e-18
0.00233903
2.33009e-06
9.57651e-16
0.00149836
4.74275e-18
0.000173133
0.000987936
0.0280814
5.8476e-17
3.16982e-16
1.57726e-15
0.0491565
9.83445e-18
0.0409655
0.0225463
0.00255436
0.00017197
0.00186891
0.0204566
0.00310543
0.00379526
0.0122038
1.19755e-17
7.47946e-17
1.20042e-19
0.0262485
0.00183007
8.03471e-17
1.32946e-07
0.00502805
4.80726e-07
0.0106193
0.0155043
0.0094279
1.69308e-07
4.86892e-18
6.81359e-17
0.0526816
0.0252388
5.16825e-06
2.3314e-07
0.00519031
0.00369123
1.04195e-18
9.97495e-06
6.5847e-05
2.12511e-18
4.63706e-17
0.000148398
1.94459e-17
0.00614025
0.00227108
5.62668e-16
2.19071e-15
2.32713e-15
1.06182e-15
1.66729e-15
1.03185e-16
0.00134064
0.00671918
0.027708
0.00415814
0.00641919
0.00356732
9.48772e-05
4.76145e-17
0.00425209
1.05494e-15
1.18831e-17
0.00582232
0.0110768
0.0228072
0.0103166
0.00463456
2.65988e-17
0.00604713
0.000572976
4.52207e-05
0.0111801
0.00230471
1.87167e-17
0.00325903
0.027535
1.10196e-14
0.000230208
0.00653373
0.00227968
0.000309514
1.41294e-14
7.61779e-17
0.00728473
7.07354e-12
0.123853
2.80262e-17
0.00601228
0.0190225
0.121874
1.71582e-18
0.00267411
0.0120025
1.76477e-13
2.67318e-18
3.72415e-19
0.166646
4.18296e-07
9.84855e-17
5.84006e-16
0.00915034
0.00846443
0.0160009
3.54997e-15
6.51724e-15
9.42918e-06
3.6346e-18
0.00272491
0.0083273
0.014984
0.0107883
0.00917701
4.12107e-18
3.22287e-07
0.000565348
8.09308e-19
1.10497e-16
0.030686
0.0214538
4.36226e-16
0.00558905
0.00978951
3.50536e-18
2.63061e-15
0.000153182
4.41513e-16
6.25322e-15
3.92693e-05
3.02777e-16
0.01562
0.0117258
0.0033601
2.19292e-17
0.0109702
4.23607e-18
3.05374e-18
3.57895e-18
3.72398e-08
0.022564
0.00553222
0.00466669
0.0369454
0.0109704
0.00149625
0.000590827
0.0340512
0.00942028
2.34181e-17
1.89344e-17
3.36806e-07
0.0220545
0.0215085
0.0128328
9.2581e-18
0.00632904
0.00194811
0.00276104
6.20788e-06
4.40759e-06
0.0121998
0.00211744
0.00186467
4.07384e-19
0.000779041
2.19079e-17
5.25965e-07
2.6145e-13
0.266565
0.0682489
0.0138371
8.73821e-16
4.03364e-19
0.00831023
0.00190106
2.40571e-16
4.5078e-17
4.53294e-15
0.000414753
0.0622534
0.00334079
0.0154429
0.0182834
2.31545e-15
5.18264e-18
5.53112e-17
0.0035119
2.74949e-13
0.00132619
0.187069
5.82746e-07
3.53639e-18
6.98114e-17
3.0408e-17
4.71784e-16
0.057413
0.0123227
4.72017e-19
0.00486076
3.53968e-15
3.12146e-15
0.067115
0.00538298
0.0107148
0.00855073
9.96789e-16
2.95108e-15
3.31298e-18
0.00872198
0.0189065
0.00468758
1.84379e-15
2.00147e-10
0.00022516
0.00177975
0.00734103
6.33585e-05
0.0284712
4.17135e-17
0.0370362
0.00315779
0.00784922
0.0230736
0.0147272
3.90492e-17
1.3418e-16
3.50653e-18
1.75165e-16
0.0320983
0.00856171
0.0370868
0.0669707
9.10038e-18
0.0201434
6.39636e-20
5.6148e-16
0.0161343
2.28018e-15
0.0397632
3.48613e-17
5.67663e-19
0.0237412
1.7138e-19
0.0140968
0.000335193
1.08159e-17
0.00112301
0.0150693
1.16122e-15
0.00798279
0.0106736
0.00739012
0.000434598
0.00291601
0.00614529
4.15726e-15
1.00292e-17
0.0013641
1.29566e-18
0.00500731
0.11186
7.39219e-17
5.77915e-19
0.0256077
0.000127426
0.00759403
0.0224466
6.86145e-17
0.0390205
0.01975
1.14867e-16
0.000696923
0.00281868
2.70353e-17
2.29309e-16
0.0118199
0.00487559
1.42789e-18
2.70778e-16
1.07932e-08
8.29073e-17
0.0105678
7.59758e-18
1.05711e-17
0.0176993
2.47305e-06
0.0146261
0.026689
7.25683e-17
3.78396e-15
0.00108365
2.45969e-15
0.000107766
0.010821
0.121699
0.905583
1.84539e-15
0.0026026
0.000234459
9.18823e-18
0.0350297
0.0331197
1.43484e-17
1.14336e-08
0.000108597
1.27682e-16
0.0257
0.0268884
0.0127277
3.53824e-16
0.000590544
0.0206418
0.0212216
6.04298e-07
1.63664e-15
9.62888e-11
1.2852e-17
2.07789e-05
0.0318455
6.4445e-18
0.0095771
6.81001e-05
2.8229e-15
4.11147e-18
1.23887e-14
7.96397e-17
0.00428424
0.00951813
0.00711469
0.00244127
0.00339095
5.5835e-17
0.00228317
9.007e-17
0.0356574
1.65427e-16
5.95755e-17
3.16605e-17
0.0317929
5.8647e-17
1.80484e-17
3.36765e-07
1.09667e-18
1.62307e-18
0.000875333
7.36305e-19
1.61526e-14
9.64829e-18
2.53158e-17
4.7391e-16
3.29266e-17
2.02586e-16
0.00815653
1.62107e-17
0.000392605
0.00166271
0.00264928
5.92896e-16
0.000624214
2.83077e-17
8.57742e-18
0.00311041
0.00205331
0.0294048
0.0222242
1.87301e-15
0.00187039
0.0726795
0.00841572
0.00110923
0.00365643
8.16002e-17
0.0223979
1.05281e-15
0.00427919
1.9264e-17
0.0691109
9.00102e-16
0.0210561
0.000322722
8.34518e-08
1.92465e-17
0.00233089
1.72058e-16
0.0759205
0.0443173
1.33123e-18
3.53085e-18
5.76884e-15
2.21358e-18
1.81146e-10
0.0545981
1.29455e-16
6.80107e-19
0.00287966
8.1859e-17
0.030419
5.97025e-17
0.000350716
4.09181e-16
0.000586297
7.46971e-07
0.00112215
0.0124488
2.92358e-16
0.000365887
3.72633e-16
6.86688e-18
0.0162771
4.72434e-18
3.57263e-05
7.15479e-16
0.00147525
2.28332e-16
0.0661517
7.43415e-17
3.3466e-16
0.0121704
0.00387785
0.00150499
0.00430966
0.00590754
0.020878
1.20298e-17
0.0207347
0.00708569
3.10262e-17
5.69883e-08
0.0314991
0.0125446
3.28935e-15
0.00549644
0.00543881
0.00127762
0.00139384
1.48919e-10
0.0137966
0.000982806
0.000166933
0.0267904
0.0141725
0.00109383
8.51084e-17
3.17947e-09
0.619989
7.03843e-17
0.000418104
4.27641e-19
1.99809e-15
0.00729663
0.00363812
1.26356e-07
8.47688e-06
2.5979e-15
0.0185179
0.00994181
1.60631e-16
9.46723e-12
0.00204039
3.91213e-16
1.03539e-16
2.23057e-17
2.4148e-16
0.0152591
5.40407e-18
3.4688e-18
0.009877
0.00234066
3.27832e-14
0.00937542
4.50939e-16
0.00859882
1.22455e-15
7.96101e-19
0.0571432
2.86417e-17
7.5761e-17
3.40596e-16
0.00490366
1.00316e-14
0.0328325
0.00638588
2.07491e-16
0.0726694
0.00283063
0.0261317
0.0235708
0.000930609
9.17386e-05
7.45496e-18
0.0569097
0.0415913
6.18047e-17
0.000308634
0.0361931
0.00708214
0.00155803
0.0244347
0.0237697
3.92012e-17
0.0104667
3.67727e-06
2.7109e-15
0.0319963
0.000299388
4.11978e-14
0.010918
0.0388153
0.0015881
0.0185363
0.0168472
0.00706353
3.40596e-15
0.00915925
0.000400204
7.09698e-12
0.0144647
0.0149016
0.0347923
3.66328e-17
0.00211093
2.93417e-18
1.28932e-17
1.59984e-17
3.15972e-16
1.68459e-05
8.43165e-16
1.31452e-10
8.37154e-17
2.81079e-16
5.13726e-05
0.0396508
1.21666e-15
0.0366126
2.75354e-16
5.54677e-17
3.73871e-15
0.0396602
0.00049625
4.25615e-15
1.41362e-17
4.23432e-17
1.53035e-17
0.238687
0.0684258
9.10774e-17
0.00176955
4.67603e-06
9.10725e-19
0.0348939
0.00649513
0.0129279
5.66807e-17
4.49035e-18
0.000393397
0.00106895
1.94009e-15
2.65514e-17
2.088e-15
0.00706625
3.39034e-18
2.68481e-16
3.34964e-17
0.0384879
0.00161244
2.10913e-17
4.12138
0.142761
0.0108961
3.60499e-19
3.30691e-16
0.0567845
0.000304565
1.63605e-15
7.60132e-06
0.170131
0.00291111
0.0119113
2.24944e-16
0.0577966
0.00152052
5.83021e-19
2.35704e-15
5.84917e-17
7.27946e-19
5.58973e-18
1.72519e-17
0.0193261
6.62554e-17
3.94174e-17
6.21915e-16
0.0119189
0.0234279
1.174e-15
9.45939e-16
0.105651
0.0133299
0.00877951
1.46883e-15
2.26908e-17
0.03459
9.62388e-18
0.00227571
0.002404
0.00353552
3.25011e-15
2.94438e-17
2.38254e-16
7.54435e-18
0.0158613
1.57315e-17
1.50555e-17
0.000816932
5.32079e-16
0.0211518
0.00140593
5.961e-16
0.0358216
0.600894
0.00232292
0.0294303
0.000200122
0.0479983
2.43981e-10
2.90388e-15
0.021867
0.0766404
0.00620597
2.00671e-15
1.31705e-09
0.517825
0.00988752
4.51086e-18
0.00291587
0.00313514
0.00143438
6.84339e-15
5.58151e-18
1.76968e-17
0.0126423
2.52586e-15
0.00232859
1.19902e-16
0.00145615
0.00127641
0.0343199
0.0005352
6.95867e-18
1.74788e-16
5.37115e-16
0.0197194
5.27861e-18
8.09016e-16
4.28963e-05
9.63266e-19
5.75501e-20
1.04002e-17
3.96429e-17
0.00896901
3.54381e-16
7.96101e-18
7.19776e-10
2.54849e-15
2.24507e-18
4.1807e-14
1.01688e-16
3.2675e-06
0.00151558
3.45096e-16
0.0033362
1.22865e-05
2.77614e-07
8.54139e-05
0.00439136
6.30492e-18
1.01035e-05
0.00925889
0.000371249
1.5166e-17
1.09429e-08
0.000752529
1.77162e-16
0.00888523
0.000300218
2.01185e-06
0.0253173
0.00866865
0.00216047
0.00554005
0.0019759
2.96768e-17
6.12452e-16
0.0301289
0.0243783
5.68871e-19
0.00776073
0.0536504
0.027735
3.70346e-16
0.00166164
2.49506e-18
0.0102776
0.0134811
1.96211e-16
0.00144273
0.000475563
1.50179e-06
0.00451325
3.57826e-16
0.047157
1.93668e-05
0.00186052
4.02127e-05
1.37849e-05
6.28563e-17
2.09013e-18
0.00833285
2.91424e-17
8.95806e-05
0.00032886
1.081e-05
6.45918e-08
6.1455e-08
1.2316e-06
1.98616e-17
1.24544e-15
0.02163
3.77173e-17
0.00115903
0.00234956
2.95928e-16
2.18019e-16
6.40337e-07
1.45845e-10
1.61443e-17
3.32463e-06
1.13668e-17
3.01836e-17
4.51468e-18
7.34633e-17
2.9637e-14
2.5483e-17
0.000330746
4.88275e-16
4.57267e-18
1.64021e-18
4.73179e-06
7.0511e-05
0.00204278
0.00916258
1.38334e-16
5.87848e-17
0.00023275
2.7701e-17
6.38477e-16
6.03661e-14
0.0194693
0.0407517
3.7118e-17
2.32897e-18
7.13954e-16
1.11204e-16
3.81816e-19
5.51736e-18
0.00845685
1.37753e-17
7.87411e-08
0.0269319
2.11807e-17
1.13317e-17
2.73993e-15
1.52082e-05
1.27601e-15
2.07667e-17
1.85172e-18
5.91674e-06
5.61115e-18
0.00530451
1.07035e-06
4.3459e-09
1.12613e-16
4.68527e-05
0.00260364
0.0434701
2.15568e-15
5.49199e-06
0.00721928
1.68267e-15
5.28284e-17
5.94594e-15
6.14008e-17
0.00787043
0.00174887
0.00396074
1.59763e-07
3.15557e-17
0.0222923
3.3019e-16
1.39059e-15
1.46864e-13
1.82963e-18
0.0253028
2.00158e-17
1.16929e-14
2.63522e-06
0.0487867
8.68916e-16
0.00300261
4.25372e-18
0.00112339
1.14342e-15
4.89628e-17
1.65632e-17
2.71351e-17
0.00264442
0.000683155
0.338998
1.24201e-16
5.23829e-16
0.00205247
6.86734e-18
3.32342e-16
1.39318e-17
0.0422346
5.59393e-06
0.0286783
2.18426e-16
6.49546e-06
2.97012e-05
4.06363e-14
6.94526e-05
3.98359e-16
0.00182372
0.0276271
0.0200031
0.00164494
0.000326875
4.5894e-17
4.05302e-18
1.15654e-17
1.4026e-05
1.28645e-18
0.00544329
1.02386e-18
0.175968
9.79189e-17
0.0416806
0.00354349
4.2684e-15
2.13744e-17
1.30121e-14
6.45411e-18
0.0313445
2.61901e-14
2.94956e-13
0.0129861
0.00536367
1.62617e-15
2.34744e-15
8.55634e-15
5.64259e-16
6.54195e-16
2.88017e-18
0.0204106
0.000519738
1.66475e-16
7.81451e-16
2.77446e-07
8.38383e-18
0.00132851
0.000115957
1.03504e-15
0.00271397
8.30543e-17
0.000331506
1.32282e-16
0.000889594
1.8513e-16
1.27364e-07
1.80377e-06
0.000876759
0.0143998
0.0274157
1.01203e-06
4.78177e-17
0.00045261
2.06538e-15
0.00436955
2.60823e-16
5.65956e-18
9.49082e-14
2.96008e-17
3.81303e-18
6.02135e-18
0.00569283
0.00627615
3.27449e-17
4.0571e-14
1.49793e-15
0.000535278
1.76251e-05
1.29202e-18
0.0184353
0.000213081
3.73593e-15
0.0224796
0.00812126
0.00332698
0.0134579
2.34931e-19
5.58038e-17
1.20323e-17
5.77201e-17
0.0362727
5.61635e-18
0.103824
9.52819e-18
0.00021679
0.000728933
2.15141e-18
0.000669525
3.69076e-18
8.21771e-17
0.00226921
2.58525e-08
0.00590439
1.5278e-17
3.56337e-15
2.38111e-17
0.000694224
1.49724e-15
1.48754e-17
7.31495e-17
5.10138e-07
5.45512e-16
1.19147e-05
1.45573e-15
2.9988e-16
4.95967e-16
0.0178308
0.00959261
0.0176841
0.034297
1.67356e-17
9.65693e-06
5.38727e-18
1.11474e-18
0.010736
1.12228e-16
3.11656e-06
0.000255224
0.00628967
0.000240361
9.72308e-11
0.00242445
2.54476e-18
1.66689e-10
9.82239e-10
9.31978e-05
0.00123561
0.0134859
6.5944e-08
2.96928e-16
0.0311545
1.14496e-15
1.19119e-16
2.96552e-05
0.0745052
1.01137e-07
2.03452e-17
1.87917e-17
6.04058e-07
5.64833e-16
2.33928e-15
1.01672e-05
1.79277e-14
9.3921e-15
0.0419732
0.000141488
0.000105716
0.0234419
0.00716993
1.32659e-17
6.4594e-17
3.75742e-06
0.00419947
2.54005e-17
1.02181e-14
0.0112354
2.56719e-16
1.12365e-14
4.30126e-16
4.63993e-16
4.07499e-13
2.52188
2.23561e-17
0.00018447
2.62797e-16
0.0153325
2.02847e-17
3.54467e-12
3.3583e-16
5.32797e-16
4.30916e-18
1.9545e-17
0.00336439
3.9133e-17
2.12823e-17
1.56348e-15
1.82752e-17
2.17526e-18
4.40144e-17
0.00996427
6.93657e-17
0.0110246
0.00233602
4.25669e-17
0.00172659
1.24051e-16
0.000399417
1.49406e-06
0.00407201
0.0141955
9.67813e-16
8.96566e-05
0.00933998
4.49494e-06
1.25096e-17
1.07993e-06
0.0169634
0.00475867
6.04833e-16
0.0267127
1.04989e-16
2.36732e-18
2.76067e-16
7.59221e-17
0.00827287
6.01086e-17
1.11364e-16
0.00805539
1.09597e-07
0.00278322
5.20828e-19
8.0818e-14
0.00067638
5.11418e-18
0.000147179
3.46222e-15
0.0217491
3.56618e-16
3.30255e-16
5.54161e-05
1.75007e-16
0.00010153
1.22663e-17
2.25583e-16
0.00535031
0.000391293
0.0048899
0.0174761
0.217385
0.0197363
5.36039e-17
1.29895e-15
0.00237013
0.00669426
0.0351705
0.0133356
5.12881e-17
0.0112867
2.40064e-17
2.12468e-16
0.00763465
0.00959841
1.4133e-16
0.0124315
8.9296e-18
0.00284096
0.00827512
4.66833e-15
7.30404e-17
1.91899e-17
0.00232385
6.88252e-17
7.74185e-18
0.00354803
0.0199318
3.99481e-06
0.00767762
1.97341e-16
1.36601e-17
5.48674e-05
0.000656135
2.03403e-17
0.00924157
6.56095e-15
0.00243703
2.1694e-16
1.09733e-15
0.011122
7.47717e-18
4.50465e-05
0.00296592
1.06882e-15
3.32822e-17
0.00365077
2.55569e-11
0.0538958
1.59225e-16
0.285295
1.46895e-16
7.32254e-14
2.30839e-14
0.00643061
1.29517e-15
1.07923e-15
0.00501085
2.01618e-15
0.000161589
1.29905e-16
7.99025e-16
5.12405e-15
1.57904e-07
0.000773252
3.74983e-17
2.40949e-17
0.0359588
0.000940324
1.7128e-16
0.000596099
3.71515e-17
7.3308e-16
1.20704e-06
0.00368895
0.00117213
1.25675e-16
1.22872e-17
1.40014e-18
2.2607e-18
4.66947e-16
2.1725e-15
2.50884e-17
4.46333e-17
2.9074e-17
1.28002e-16
1.93733e-17
1.56707e-16
8.1562e-17
4.24205e-17
4.70552e-17
1.71584e-15
8.92081e-17
1.24411e-17
2.39431e-17
1.41544e-17
1.16785e-17
0.0183437
9.97596e-18
4.72808e-19
3.20243e-18
0.00619283
5.54613e-19
4.47905e-16
0.194779
9.48748e-17
9.85202e-17
0.0218913
3.51085e-12
1.31396e-16
0.00437566
0.023282
2.55111e-17
0.0012711
0.00216141
1.43608e-16
0.0111024
0.0373829
0.0165061
0.00287548
0.00975936
2.60665e-16
5.46474e-17
0.00275227
0.0101743
0.00268368
9.03941e-17
0.00559353
0.00135159
0.0186442
0.0107067
0.00063907
0.0135921
0.00106964
0.00844029
1.95471e-17
0.0265793
0.00756103
0.00181916
0.00117352
2.559e-17
2.86897e-17
6.23734e-18
6.41261e-18
1.4521e-17
0.00874242
0.0121974
1.31429e-18
5.08052e-17
1.90154e-16
9.48313e-16
2.43136e-16
1.52206e-15
1.34086e-16
2.9508e-16
0.00410409
8.63958e-05
0.0194766
4.90933e-05
5.72327e-17
7.56558e-16
0.0331805
2.8342e-06
8.04723e-18
1.03191e-16
0.00701171
1.17199e-17
2.31794e-17
3.66182e-06
0.00701505
0.0122324
0.0293516
0.0270129
1.13794e-15
0.0139908
0.000261537
1.33403e-14
6.89823e-16
0.0102105
5.46867e-17
1.03687e-16
0.0276715
0.994046
0.000149589
1.17387e-14
2.96058e-18
0.0155678
0.0222144
0.0162163
0.00576626
0.00198937
3.67709e-17
6.81056e-07
2.28704e-09
2.82131e-17
4.8341e-16
0.0169696
1.89627e-16
0.00193919
0.0258608
0.0155085
0.0119695
3.07494e-18
0.00523167
7.18514e-18
4.22136e-17
7.05713e-17
1.65838e-16
0.00250944
0.710075
8.6891e-17
2.39856e-16
4.09871e-06
0.0224738
0.000464007
0.00617017
0.0312098
0.00455793
0.019684
3.07579e-15
2.57795e-16
1.87929e-16
0.0306345
0.0051096
2.71192e-08
3.53483e-15
1.49632e-17
2.2483e-14
0.0187001
0.0026909
6.47353e-18
0.00432028
0.0450446
0.0081753
0.00544183
1.95599e-16
1.25652e-13
0.00613259
0.0214913
1.28858e-17
0.000238244
0.0120356
0.000857779
0.00885104
0.00411451
0.00747834
3.01613e-14
0.00346693
0.0186911
0.0364815
1.26609e-09
0.0230143
3.60604e-15
0.0159223
0.000146471
3.94513e-19
0.00249246
0.00634998
0.000312431
0.010664
2.18423e-07
0.000191634
1.72721e-05
0.0246047
0.00311821
7.37073e-15
0.0377537
0.00105684
9.83236e-16
5.01179e-18
2.55668e-08
4.97518e-06
0.00089833
1.01328
0.0324938
0.00777375
2.56918e-07
0.0371205
4.61813e-15
3.77975e-17
0.00383432
5.93175e-15
0.00231336
0.00615834
0.00180749
0.00445709
2.78585e-17
0.000238456
0.102145
5.8389e-17
0.0596067
0.00652884
8.61242e-18
0.00342181
0.000181065
2.33948e-17
2.1059e-09
9.47511e-05
1.11428e-15
1.15637e-17
5.28828e-19
0.00426648
0.0044803
0.0132472
2.75114e-18
0.00560852
0.0296831
1.60698e-16
0.00702176
0.0108762
0.024072
0.0013001
5.77091e-17
0.000617342
0.00894669
0.00917539
0.00780422
0.0369196
0.146423
0.00324588
5.59351e-17
5.93775e-06
0.0503241
3.42855e-17
0.000374995
3.1728e-18
3.65754e-17
4.39384e-17
3.33286e-19
3.76775e-16
0.00265921
2.25121e-18
0.00612985
0.00144159
8.37751e-18
0.00408412
8.29987e-15
0.0139192
7.49732e-16
6.96274e-06
6.75546e-15
0.0206406
0.000111275
1.26992e-06
0.00357127
0.0277743
0.0165576
0.00364131
0.0239611
2.312e-12
0.0196758
0.0496969
0.00819019
2.42613e-17
0.00118801
0.000357958
0.00479077
0.0113043
0.000756712
7.39928e-17
4.64421e-16
6.36738e-16
0.00404643
1.14671e-16
4.75237e-05
0.000227495
0.000535248
0.000271299
6.88035e-16
9.60751e-17
3.59081e-18
0.00738068
0.0199874
0.0012762
7.32038e-06
0.00185329
0.00613114
0.00196853
0.000719745
0.00629094
0.00530409
0.00231669
4.14281e-16
2.26088e-17
6.95981e-18
0.0138041
0.0102522
6.27122e-17
2.03453e-17
2.42734e-14
0.00707772
0.0186004
3.03888e-16
0.00188901
8.24847e-17
3.77133e-07
0.00524991
0.0741092
9.757e-17
1.52095e-18
0.00341899
1.46116e-16
8.47877e-05
0.0109831
5.46212e-17
0.00938881
0.0313101
0.0160328
5.65182e-16
0.000660338
2.05892e-17
5.71185e-05
0.0454435
6.60328e-17
5.61908e-18
0.0107341
5.16606e-13
3.62948e-17
3.51047e-05
0.00107351
6.42829e-17
4.48015e-17
1.46897e-14
4.67682e-05
0.00124503
0.00305295
0.0201981
0.00945848
1.60565e-16
3.24988e-07
0.000421196
2.31247e-16
1.17784e-18
5.57763e-17
5.48276e-16
1.06398e-15
3.69072e-15
9.21996e-15
9.44583e-17
1.07276e-14
6.29426e-16
1.39612e-09
2.13092e-15
0.000410309
6.17876e-15
8.62108e-05
4.23161e-14
6.3273e-05
7.00571e-14
3.43243e-17
0.0220019
0.0080438
1.00881e-14
0.086754
1.58619e-09
3.30832e-11
1.20643e-16
0.00104575
1.20599e-13
0.0021891
4.75805e-06
0.000972757
8.35012e-16
9.18328e-16
0.000633905
5.84608e-08
5.74006e-16
3.57894e-18
0.0368915
2.59546e-17
0.0339054
6.92914e-16
2.83879e-19
1.10604e-06
0.0266694
0.00844118
1.31941e-16
0.000399659
6.18013e-16
0.00102964
1.22077e-05
0.00186555
0.000645887
1.27919e-18
0.0190169
0.000757742
0.00480859
1.32941e-17
4.53977e-16
1.5218e-17
0.00521426
0.00398306
0.0440129
2.69407e-17
2.34875e-07
9.68083e-17
2.47783e-16
2.71279e-15
4.5894e-17
0.0023772
0.00156221
0.00236576
0.279295
1.634e-17
0.0286962
0.0329509
0.0174877
0.00122265
2.7486e-18
0.00544368
0.00326228
0.00476817
8.44022e-07
0.00960363
1.6958e-15
0.0017226
0.000889567
0.0303806
8.00533e-07
0.00241212
2.32729e-15
0.0166367
1.35589e-16
3.65513e-17
0.00142574
5.00196e-18
0.00695285
1.9593e-17
1.97508e-15
1.24803e-15
1.49965e-16
2.42837e-17
0.000590699
4.4557e-15
0.000599384
6.50476e-16
2.15584e-18
0.0187888
0.00593193
0.00723883
0.0080839
9.14053e-18
0.556236
1.27378e-18
0.0666626
3.90965e-15
0.0185516
0.0180557
0.00183362
0.0533891
6.66023e-15
1.25913e-13
1.22807e-15
0.00205745
9.15061e-18
4.75821e-16
0.0167576
1.10766e-16
3.56623e-16
0.00404005
7.61539e-16
0.0125669
1.11297e-07
1.46821e-15
8.37269e-16
1.39009e-14
0.00143382
0.00575136
1.22082e-16
0.0207085
0.000242215
2.15346e-15
0.094191
1.67434e-16
0.0153815
0.0170205
0.00295793
2.86777e-16
0.0154917
0.00824214
0.000598321
0.00410449
0.011103
6.48686e-16
2.20552e-16
1.49154e-06
5.18787e-16
2.20671e-17
1.4144e-17
0.0182914
0.0358862
0.00400528
0.00175375
2.14057e-15
0.0416359
0.0429979
0.00365599
0.00300062
0.00796173
0.0200946
0.00204122
6.22272e-17
2.25093e-17
8.57216e-18
0.00504884
3.15474e-17
0.0241672
4.4606e-15
0.000630965
2.93107e-07
0.00238436
0.0208694
1.74006e-17
1.58808e-17
0.00197928
0.000278599
7.03916e-17
5.21283e-17
5.11741e-19
2.6982e-05
0.000257792
0.000105876
0.000634756
0.00876702
0.0836245
4.66889e-16
3.77394e-17
5.7849e-16
0.0035499
0.0188269
0.018687
0.0310601
0.00191341
0.0021122
8.60118e-16
1.49613e-16
2.88646e-13
3.22686e-17
0.0093427
0.0190654
2.40175e-16
2.12181e-15
1.08026e-16
5.25441e-17
3.54107e-18
1.17626e-14
0.0109382
1.2377e-16
0.00108572
0.29154
1.34564e-15
1.55289e-05
0.0209006
0.000615542
6.77338e-18
1.75751e-15
0.00367967
7.99998e-17
0.0115969
1.4602e-06
0.0218124
2.5326e-15
1.3694e-12
1.6083e-17
1.38187e-16
1.40165e-15
9.32074e-15
0.174501
1.38428e-16
0.00441135
0.00105911
1.69141e-16
1.7147e-16
0.00146271
1.47369e-16
8.07606e-17
0.0141902
5.06959e-05
8.57924e-16
7.28279e-16
1.30723e-15
0.0148049
5.32178e-17
1.25864e-16
0.000244437
0.0019687
0.00224766
3.41348e-16
9.4313e-16
6.21077e-15
0.00295235
0.00140626
0.010361
0.00295202
1.05037e-17
0.000685091
0.0123619
0.00582408
5.11894e-19
1.00922e-17
7.39948e-18
1.25986e-18
4.20733e-17
0.0282207
0.00716612
0.00425884
1.98137e-17
6.64737e-18
1.8879e-18
3.02806e-18
5.23635e-16
6.34309e-07
0.000291086
0.00230029
2.63353e-16
1.14749e-16
3.20224e-18
3.82466e-09
0.0275152
0.094761
5.834e-17
5.52268e-11
4.48413e-13
1.67203e-15
6.72717e-17
0.00326843
0.00676494
8.37204e-16
7.81461e-16
0.00243701
5.8841e-16
0.000680656
0.00114846
2.0083
2.08162e-16
5.31636e-16
0.0119995
0.000361125
1.96163e-15
0.634926
0.000509855
0.00672623
2.47487e-15
1.55921e-16
4.92011e-18
2.09716e-16
0.0069607
9.03138e-05
2.82433e-16
0.021656
0.0159731
0.838299
1.94631e-17
2.69484e-17
1.24843e-15
1.85701e-16
0.00536314
2.82571e-08
2.30926e-18
8.60247e-15
0.0167588
0.00105797
0.00481354
4.10948e-16
6.09773e-17
0.0256079
4.94763e-15
2.82096e-16
3.12063e-17
7.32798e-16
0.0227163
1.89447e-15
5.20271e-17
1.92525e-16
0.0228946
0.0126262
2.4461e-16
1.7759e-17
3.50452e-16
0.0133843
7.42215e-08
4.41374e-15
6.50766e-16
9.26365e-18
1.77285e-17
0.00217047
0.00864826
2.19217e-18
0.0020561
0.000863851
0.00392737
1.01458e-16
5.29217e-17
3.801e-16
6.92648e-18
2.85382e-17
0.0213983
4.94378e-16
0.0155235
3.8241e-16
0.00115269
1.10642e-13
0.00169888
3.04939e-17
3.50309e-17
0.0101527
0.261418
1.71306e-15
0.00259163
3.15911e-16
0.000285515
5.96012e-15
1.11701e-16
7.85142e-16
1.66347e-07
6.86589e-16
0.000358684
2.71732e-16
0.0335106
2.96639e-17
1.90909e-15
1.74524e-17
5.1018e-16
7.14336e-06
0.000110945
2.1627e-17
0.00376449
2.55816e-18
0.00351688
0.0195678
0.000888926
3.05146e-19
2.96644e-06
0.000305327
1.37615e-06
0.00490651
4.95845e-07
0.00119494
2.22759e-16
1.36972e-16
3.26476e-07
0.00471611
0.000169114
5.22421e-15
1.79629e-17
2.99763e-16
0.431185
1.28435e-17
9.39942e-18
4.13277e-17
7.96103e-17
2.75285e-17
8.54262e-05
0.000121434
0.000752682
5.21161e-05
6.11174e-13
0.000913696
1.30757e-17
0.00632674
4.09021e-16
1.82661e-17
8.51412e-18
3.24412e-15
2.39993e-05
1.03714e-15
9.98287e-19
1.64761e-15
0.0145215
8.02019e-16
2.88318e-17
0.0106184
5.06714e-15
0.0365012
0.0656357
0.384745
2.82578e-16
0.204499
1.27454
1.80451
0.668725
8.61166e-17
2.52372e-17
0.00473401
0.00523639
3.03945e-16
0.00293366
1.35013e-16
0.0310629
5.47573e-16
2.68593e-15
0.000470031
9.16246e-16
2.32047e-16
6.80777e-06
2.7921e-05
4.51881e-18
2.87303e-17
1.33786e-06
2.48742e-14
7.17044e-16
2.01891e-05
0.00738296
0.00112987
1.97736e-15
0.00605143
8.03592e-17
0.00337884
3.91006e-07
0.00511665
8.17832e-16
1.11184e-09
0.00465395
2.48635e-14
2.14581e-10
4.8447e-17
0.0317562
1.78875e-15
0.0101933
2.79804e-16
9.63214e-08
3.20301e-16
2.13812e-15
4.06067e-18
9.04292e-11
7.88235e-10
2.5287e-17
0.0119447
0.00671235
3.23042e-17
5.97947e-16
0.0327223
0.0177252
0.173728
8.76899e-18
4.71335e-05
0.0240863
0.0455619
3.03677e-09
9.4709e-19
0.0647518
7.19561e-17
0.21355
1.06131e-16
1.0829e-08
6.78189e-09
9.49189e-17
3.69744e-05
1.06255e-15
0.0198146
5.88445e-17
4.21752e-16
2.5835e-16
1.4988e-16
1.03484e-16
5.33578e-16
0.000366344
0.00147625
0.137738
1.59807e-15
1.96956e-15
0.0407805
6.6446e-16
5.21553e-18
8.52909e-16
2.46588e-18
4.14872e-15
0.00497353
5.34138e-17
6.09113e-18
5.25655e-18
0.00278251
4.26943e-16
7.52951e-17
3.48378e-15
0.00270471
5.73602e-18
0.00512944
0.195985
0.00380575
0.00448842
0.0226637
8.49668e-17
1.4967e-15
6.27852e-16
0.00255492
0.00167139
6.53225e-17
1.6454e-15
0.000484326
5.07759e-17
1.27132e-16
0.311743
7.112e-16
0.0215639
3.42999e-16
0.00205905
0.00365604
3.17741e-15
1.08246e-17
1.31439e-15
4.96511e-17
5.78278e-18
0.0200202
3.12954e-15
0.00382285
3.24041e-16
9.21095e-17
0.00568811
3.45883e-18
0.0137782
4.31594e-15
1.3695e-17
0.00220445
7.76065e-05
0.123587
3.50307e-16
4.11739e-17
2.41171e-15
0.00357177
0.170938
2.68382e-15
1.92616e-17
4.52384e-15
0.00125069
7.6545e-16
0.0212822
0.0233129
1.68107e-15
5.29488e-18
0.00583388
4.07747e-17
8.09044e-16
4.38457e-18
2.0017e-15
4.78658e-17
0.0601523
1.74288e-13
4.209e-16
1.23042e-17
1.05901e-14
6.54442e-16
5.38767e-14
2.6969e-16
1.13262e-15
2.39696e-15
0.00753362
1.32847e-15
0.00674273
4.69685e-14
3.29851e-16
0.542372
0.00216001
2.29627e-15
2.28028e-15
1.54204e-16
0.001935
1.56596e-16
1.06081e-16
1.43586e-15
1.60282e-16
0.00573875
8.50824e-17
0.00291825
8.0098e-18
0.0100161
6.3436e-15
0.0551984
2.92498e-15
4.54065e-17
0.017082
2.959e-15
1.55479e-16
0.0259849
0.000268967
9.07943e-19
1.81011e-17
0.0385739
0.0118409
0.00526797
0.000650938
0.00145301
0.0156314
0.000768356
0.00543677
7.58523e-15
0.0199342
3.47736e-15
5.37926e-15
4.34848e-17
8.17653e-15
6.2252e-16
0.00827244
3.23577e-17
3.62635e-18
6.76811e-18
5.11879e-07
1.41892e-05
2.56305e-15
0.00280645
6.84109e-17
0.0040807
1.2349e-16
7.00233e-07
0.00310434
1.55877e-13
0.0398982
5.81845e-16
6.69587e-16
7.55357e-18
0.00235891
0.00142191
1.06512e-16
5.42708e-17
0.0020159
1.37572e-17
0.622392
6.7266e-18
0.080144
1.14809e-17
3.03447e-17
1.00599e-17
3.00933e-18
0.00835624
1.46833e-16
6.0697e-05
1.22904e-17
0.00933737
2.84865e-17
1.78356e-17
8.00609e-12
2.35675e-13
3.06344e-16
9.66603e-17
4.38931e-16
6.43413e-18
0.00435352
0.227516
2.79307e-14
2.03776e-17
0.000395731
2.86738e-17
4.33458e-17
1.84324e-06
0.0165667
0.000170204
1.79724e-16
0.000546149
0.0036774
0.00442456
0.00842575
6.83869e-17
4.27533e-18
7.85396e-18
2.32818e-16
1.19353e-17
2.04041e-17
3.59955e-16
7.02137e-15
9.27145e-17
4.02334e-17
3.77221e-17
4.77264e-17
0.07074
1.44169e-17
3.51882e-17
3.89318e-09
3.68441e-17
2.7656e-16
1.05441
4.2473e-17
9.0181e-17
0.00139564
2.3106e-10
1.20065e-16
9.82315e-18
8.19028e-18
0.0207097
8.53878e-19
1.4612e-16
3.47117e-08
4.31136e-18
2.61648e-16
5.42262e-17
1.85912e-16
0.101317
1.47505e-17
0.000248408
3.51057e-17
1.44741e-16
1.33736e-16
3.26543e-16
6.86724e-17
4.34684e-08
6.52108e-08
0.000126737
5.83873e-18
1.23013e-16
1.17951e-17
1.1335e-07
2.36252e-16
2.43734e-07
3.1052e-08
1.13377e-17
6.77797e-16
1.3323e-15
1.28296e-08
1.28338e-15
1.61741e-16
1.17927e-09
1.50287e-15
0.0302519
4.26149e-18
0.00546
2.76728e-15
1.74907e-06
1.92262e-16
0.00156199
1.87491e-18
0.00448407
0.0193395
8.59781e-16
0.00264265
8.96671e-06
6.90376e-17
0.00817289
1.58529e-16
9.59052e-16
6.09985e-16
9.29747e-16
1.05272e-14
1.70834e-17
2.14535e-15
1.43814e-17
0.239122
1.15956e-15
1.35996e-16
9.75409e-17
2.30622e-16
2.29345e-16
0.0293183
0.779297
1.9425e-06
1.66401e-05
1.83184e-16
0.00156634
0.00104565
6.69628e-18
8.7597e-17
9.82612e-16
5.93784e-16
6.95032e-16
2.22876e-15
5.19338e-15
2.09462e-15
0.000411535
1.92166e-16
8.60114e-18
9.50716e-05
1.53343e-06
2.5304e-17
0.026383
3.44838e-15
6.56258e-16
1.52995e-17
0.16538
8.45036e-17
2.1381e-17
0.0215581
3.14584e-18
3.06787e-18
9.52426e-16
9.97964e-18
0.0481893
2.55149e-16
6.27773e-16
6.02198e-16
4.37982e-16
0.00644115
0.230605
0.0268454
0.0452077
0.0026591
0.000154079
5.73587e-19
2.8446e-16
0.105865
0.00156803
2.24469e-16
4.67467e-08
1.63836e-17
1.53707e-09
1.11775e-15
0.210724
7.77263e-16
1.15425e-16
0.000165488
6.27005e-11
9.20642e-16
0.0116453
3.60133e-18
3.41844e-17
0.202153
0.0279057
2.61527e-17
2.26228e-17
1.15622e-15
1.24882e-17
1.07755e-16
6.88207e-14
2.12082e-17
2.36495e-18
0.00344037
1.75899e-17
8.33993e-17
2.4209e-16
1.01516e-05
3.84183e-16
1.97027e-14
8.35327e-18
9.76912e-17
3.56335e-16
1.36226e-16
0.00242141
2.22068e-16
2.94935e-16
0.00419395
1.05081e-16
0.000414116
0.0050961
4.95557e-16
0.00276958
2.90775e-17
1.90044e-15
3.39047e-17
1.35588e-15
3.3054e-18
2.83126e-17
1.6372e-17
2.00691e-18
0.00183613
1.90076e-16
1.60063e-17
1.8583e-17
6.08234e-16
8.87703e-17
1.02639e-15
0.0402189
2.79535e-17
6.24771e-18
0.32728
2.64585e-18
8.7447e-18
1.14182e-18
0.000955636
2.19121e-16
3.15419e-06
1.80343e-16
5.07175e-05
0.00854395
1.5264e-17
1.05631e-15
0.0375638
1.91719e-15
3.7336e-17
8.7744e-05
3.73473e-07
0.00971148
1.3011e-06
3.7705e-07
7.91786e-08
1.33011e-18
8.78574e-16
0.000742579
0.000217502
0.0206144
0.010643
3.55494e-05
3.09885e-18
0.00536847
0.00412188
0.0159441
1.07143e-18
0.0108035
0.0157548
0.002396
0.0011163
0.000408453
0.00451977
0.0180434
0.0356799
0.00748142
0.0109607
0.00716605
1.70609e-14
0.00254483
0.00341355
0.000571714
0.00309666
0.0135719
0.0121407
0.020448
3.25996e-14
0.00732955
8.93434e-14
0.00443122
0.00231877