/*--------------------------------*- C++ -*----------------------------------*\
  =========                 |
  \\      /  F ield         | OpenFOAM: The Open Source CFD Toolbox
   \\    /   O peration     | Website:  https://openfoam.org
    \\  /    A nd           | Version:  10
     \\/     M anipulation  |
\*---------------------------------------------------------------------------*/
FoamFile
{
    format      ascii;
    class       volScalarField;
    location    "8.4";
    object      SgRate;
}
// * * * * * * * * * * * * * * * * * * * * * * * * * * * * * * * * * * * * * //

dimensions      [1 -1 -3 -1 0 0 0];

internalField   nonuniform List<scalar> 
111485
(
6.02717e-18
9.53098e-06
2.86606e-05
1.05684e-18
5.88901e-05
3.3954e-18
5.52704e-05
7.23204e-06
2.29654e-05
1.43468e-06
5.57939e-05
1.12284e-05
5.73964e-06
1.04817e-06
7.85294e-06
3.64318e-05
1.68634e-06
0.00312135
1.24843e-05
3.7873e-17
2.02984e-17
1.18297e-17
3.15254e-05
4.14576e-05
1.06387e-05
9.81619e-18
4.78124e-05
2.18008e-06
1.80386e-05
1.95661e-18
5.50302e-05
2.27147e-05
1.47144e-17
2.22656e-18
8.04195e-06
8.53777e-18
1.32319e-05
5.00673e-06
4.84342e-11
2.83207e-05
1.78364e-18
8.50415e-05
1.89403e-05
1.73115e-06
7.30961e-08
7.0047e-18
3.61848e-05
8.53942e-07
5.67009e-05
4.45049e-18
3.23061e-18
1.154e-16
2.35105e-17
6.12818e-05
4.47185e-17
5.25029e-05
3.77801e-06
1.47187e-18
2.57797e-08
5.71359e-06
1.92058e-05
5.04768e-17
5.68315e-06
0.000117152
2.69346e-17
3.81374e-06
0.000379144
0.000113217
1.32164e-06
7.18686e-06
1.76515e-08
7.71433e-06
6.0476e-18
3.44499e-06
5.07032e-17
8.43051e-07
5.737e-18
5.0128e-05
1.87146e-18
4.59574e-17
3.31596e-09
3.991e-05
1.54102e-17
7.96074e-18
1.1037e-05
4.69004e-06
4.68237e-13
3.04699e-05
7.15487e-08
8.78239e-06
3.35143e-07
4.92675e-05
1.41012e-05
7.15732e-08
6.29311e-05
2.24497e-17
6.91133e-19
2.12386e-06
3.15745e-11
1.37222e-06
2.023e-17
2.16919e-05
2.82267e-18
2.19253e-05
5.56608e-06
8.41519e-18
1.42061e-18
9.0286e-06
4.82826e-06
7.61977e-11
6.65055e-06
5.77794e-06
4.45215e-06
3.77757e-06
3.87899e-17
4.00876e-08
1.73291e-18
1.34797e-17
1.53674e-05
7.31798e-18
1.17716e-17
5.64657e-17
3.88151e-17
3.75243e-18
1.96852e-06
3.67189e-09
1.79177e-17
1.98467e-06
1.89181e-18
3.99888e-08
1.71836e-06
3.909e-05
2.66277e-18
7.89035e-17
1.26813e-17
5.82154e-05
6.57918e-18
5.05791e-05
3.02276e-05
3.3456e-06
2.85289e-07
2.39735e-06
2.67832e-05
3.22904e-06
4.81485e-06
1.55078e-05
6.90394e-17
1.9176e-17
3.15387e-17
3.35115e-05
1.86675e-06
1.21933e-17
2.66619e-10
5.70467e-06
5.32465e-10
1.30125e-05
1.95358e-05
1.28529e-05
8.06507e-11
1.08973e-18
3.17415e-18
6.27808e-05
2.78157e-05
2.22582e-09
3.92325e-10
6.99547e-06
4.09717e-06
2.86402e-18
5.43584e-09
5.51125e-08
2.74319e-18
1.2332e-17
1.59083e-07
2.02167e-19
6.6782e-06
2.5138e-06
4.85474e-18
4.008e-17
3.58389e-18
5.30262e-17
2.45915e-17
4.58383e-18
1.7665e-06
8.14734e-06
3.55821e-05
4.96733e-06
9.02581e-06
4.83202e-06
9.29357e-08
5.68469e-17
5.7839e-06
1.88281e-17
1.07343e-17
7.82014e-06
1.25092e-05
3.38677e-05
1.34383e-05
6.00288e-06
1.99097e-18
7.95425e-06
5.86539e-07
5.17439e-08
1.67281e-05
2.78687e-06
2.56007e-17
4.4795e-06
3.10196e-05
1.52654e-16
1.95164e-07
9.29264e-06
2.39974e-06
4.27039e-07
2.34828e-17
7.4805e-18
9.94462e-06
1.24568e-14
0.000144961
1.43645e-17
7.99911e-06
2.44876e-05
0.000144227
8.58943e-19
3.82115e-06
1.64977e-05
2.83257e-16
4.05608e-18
1.13516e-18
0.00018149
3.17612e-10
2.94174e-17
1.25734e-18
1.16571e-05
9.29097e-06
1.82075e-05
2.13309e-17
2.70884e-17
1.66581e-08
4.21806e-18
2.96385e-06
1.10601e-05
1.92049e-05
1.40443e-05
1.18846e-05
6.97437e-18
3.05099e-10
7.44638e-07
2.43016e-17
1.68872e-17
3.65671e-05
2.47881e-05
7.51413e-18
7.6075e-06
1.27836e-05
2.41299e-17
1.05764e-16
1.63116e-07
1.40063e-18
6.50585e-18
5.24365e-08
9.36764e-18
1.78815e-05
1.30257e-05
4.44952e-06
6.4378e-18
1.39677e-05
9.33618e-19
1.54011e-18
2.15908e-17
2.40803e-11
2.76033e-05
7.46768e-06
6.40842e-06
4.38752e-05
1.47567e-05
1.90353e-06
6.65722e-07
3.89899e-05
1.06269e-05
1.09226e-17
6.67681e-18
3.0413e-10
2.68757e-05
2.92343e-05
1.43495e-05
7.43651e-19
8.36209e-06
2.49536e-06
3.62287e-06
4.22169e-09
4.25293e-09
1.6232e-05
2.68933e-06
2.37417e-06
1.59469e-17
7.78313e-07
1.54393e-18
1.9364e-10
6.24137e-16
0.000288224
8.12061e-05
1.43861e-05
8.2219e-18
2.69371e-18
1.06954e-05
1.95928e-06
4.22397e-17
1.07181e-17
7.78005e-17
3.69629e-07
6.98995e-05
4.69981e-06
1.63925e-05
2.27415e-05
2.96691e-17
5.10821e-19
1.59282e-17
4.55889e-06
1.91715e-15
1.20519e-06
0.000221333
3.7178e-10
2.68308e-18
1.25651e-17
4.8928e-18
3.469e-17
7.16129e-05
1.43428e-05
2.29956e-18
6.25267e-06
4.7062e-17
6.25103e-17
8.28998e-05
7.00185e-06
1.33883e-05
1.11732e-05
1.86499e-16
2.91569e-17
1.25122e-17
1.12413e-05
2.2223e-05
6.15536e-06
5.86278e-19
3.66912e-13
1.90243e-07
2.56973e-06
9.54659e-06
4.17592e-08
3.39657e-05
3.70296e-18
4.47014e-05
4.22772e-06
9.3292e-06
2.99814e-05
1.624e-05
2.66071e-17
3.10225e-17
2.93192e-17
4.46431e-19
3.75443e-05
1.15831e-05
3.96588e-05
8.0502e-05
2.35376e-18
2.24112e-05
3.33479e-18
5.17339e-17
1.99875e-05
6.21031e-19
9.10121e-05
2.84008e-17
7.55601e-19
2.77297e-05
1.25131e-18
1.62791e-05
3.31094e-07
5.03577e-19
1.20859e-06
1.96252e-05
1.36819e-17
1.06983e-05
1.10601e-05
9.74286e-06
7.87151e-07
3.22947e-06
6.66541e-06
9.84398e-17
2.98595e-17
2.23115e-06
5.18568e-18
7.38314e-06
0.000141877
7.30751e-18
8.78859e-18
3.23748e-05
1.36857e-07
9.87102e-06
2.57248e-05
2.85545e-17
5.43479e-05
2.2957e-05
1.8527e-17
9.95987e-07
2.92577e-06
3.04022e-18
8.9901e-18
1.32251e-05
6.28994e-06
2.74825e-19
1.15199e-18
4.07691e-11
9.74007e-18
1.44212e-05
1.37198e-17
5.96034e-18
2.04478e-05
2.03056e-09
1.45236e-05
3.59343e-05
2.41847e-17
6.08905e-17
1.77631e-06
8.13588e-18
1.78173e-07
1.68798e-05
0.000147043
0.00101463
3.21121e-17
3.29155e-06
6.02738e-07
1.30923e-17
4.68411e-05
3.79963e-05
6.63036e-18
8.51492e-12
1.09398e-07
1.10666e-17
2.9228e-05
2.90128e-05
1.68593e-05
7.7652e-18
7.98496e-07
2.17769e-05
2.7407e-05
9.87354e-10
2.97922e-17
7.54359e-13
2.07035e-18
1.56187e-08
3.73262e-05
9.82737e-18
1.01376e-05
1.13347e-07
5.61912e-17
1.74257e-18
5.79588e-17
3.61838e-17
4.79219e-06
1.14926e-05
7.87511e-06
2.49961e-06
3.25043e-06
1.34674e-17
2.34073e-06
7.3838e-17
4.89013e-05
1.70152e-18
7.14915e-18
1.78765e-18
4.36276e-05
3.25153e-18
9.45496e-18
2.08511e-10
3.57301e-18
1.90509e-17
1.25824e-06
1.21981e-17
5.49151e-17
4.01477e-18
1.83214e-18
1.07168e-16
2.26128e-17
8.44528e-17
8.46139e-06
3.0061e-17
6.39928e-07
2.28095e-06
1.10852e-06
2.25783e-17
1.0192e-06
3.39676e-17
4.20598e-18
3.36601e-06
2.1699e-06
3.28611e-05
3.00177e-05
3.53289e-17
2.44871e-06
9.83266e-05
1.02125e-05
1.2216e-06
3.94613e-06
1.40087e-17
2.77689e-05
4.11308e-17
5.99453e-06
8.65522e-18
9.14295e-05
4.75842e-17
2.57496e-05
2.93463e-07
6.26298e-10
9.85224e-18
2.44769e-06
1.22848e-18
9.56897e-05
5.86969e-05
6.47189e-18
1.96532e-17
6.95028e-17
8.71903e-18
1.61742e-12
6.51094e-05
2.60839e-17
5.5814e-18
2.92966e-06
2.06149e-17
4.05098e-05
5.64309e-19
3.75555e-07
4.48624e-18
5.86471e-07
1.29989e-09
1.19762e-06
1.56427e-05
8.07495e-18
4.97969e-07
7.63009e-17
1.54287e-17
1.81164e-05
6.24945e-18
3.65041e-08
1.62914e-17
1.92337e-06
3.16961e-17
7.77538e-05
1.36215e-17
1.41511e-17
2.13256e-05
4.01862e-06
2.10701e-06
4.73248e-06
8.23632e-06
2.48436e-05
2.58705e-17
2.99669e-05
7.40457e-06
1.81445e-18
9.55524e-11
4.80405e-05
1.81316e-05
9.6121e-17
4.6285e-06
7.97802e-06
2.06071e-06
1.25596e-06
2.26606e-13
1.62499e-05
1.46207e-06
1.58544e-07
2.86363e-05
1.63666e-05
7.47512e-07
7.54936e-18
3.98266e-12
0.000779293
1.34121e-17
4.18387e-07
6.05629e-19
1.58888e-16
8.81231e-06
3.4059e-06
2.65721e-10
1.84068e-08
9.52446e-17
1.9776e-05
1.32666e-05
3.1665e-19
1.73562e-13
2.30884e-06
4.18238e-17
6.43764e-18
1.9082e-18
2.50112e-17
1.57811e-05
5.587e-18
8.96021e-18
1.05318e-05
2.3307e-06
1.27298e-16
1.27086e-05
3.62369e-17
1.01308e-05
1.49895e-17
1.14858e-17
6.35747e-05
2.03866e-18
2.17716e-17
1.92444e-16
5.25067e-06
2.48081e-17
3.48208e-05
7.48425e-06
1.76547e-17
0.000104817
2.9281e-06
3.41914e-05
3.36194e-05
5.63079e-07
9.39651e-08
6.07234e-17
6.50484e-05
5.57194e-05
6.68236e-18
3.86209e-07
4.78627e-05
9.31172e-06
1.70418e-06
3.29331e-05
3.11824e-05
1.63711e-17
1.28801e-05
6.54963e-09
2.32626e-17
4.13958e-05
3.1205e-07
8.12323e-17
1.30334e-05
4.84306e-05
1.62449e-06
2.54933e-05
2.34834e-05
8.42109e-06
1.16993e-16
1.22688e-05
3.85755e-07
4.38976e-15
2.04977e-05
2.13361e-05
4.30356e-05
1.58449e-17
2.24851e-06
3.32371e-17
8.43511e-18
2.20966e-18
1.35506e-17
1.68173e-08
2.78695e-17
3.91261e-13
2.18219e-17
2.57719e-18
9.20329e-08
5.19221e-05
5.24449e-17
3.80783e-05
3.85202e-17
4.91802e-17
5.90783e-17
4.65527e-05
4.84163e-07
1.04485e-16
1.0202e-17
1.00617e-17
1.33409e-18
0.000250757
8.28007e-05
6.89845e-17
2.36366e-06
2.52634e-09
7.34694e-18
4.45998e-05
9.99347e-06
1.44808e-05
2.3361e-17
3.21702e-17
5.11837e-07
1.29999e-06
1.36255e-16
1.53109e-18
6.04157e-17
8.74182e-06
6.80278e-18
2.86506e-17
1.57349e-17
4.99572e-05
2.41775e-06
7.66919e-18
0.00464094
0.000396289
1.21205e-05
5.12154e-19
3.46611e-17
6.58023e-05
4.95258e-07
8.18946e-18
6.45918e-09
0.000138762
2.94271e-06
1.34432e-05
2.03767e-17
6.35362e-05
2.2251e-06
3.64982e-18
2.4214e-17
1.95381e-17
2.02573e-17
2.29219e-18
1.9544e-18
2.63356e-05
2.62304e-17
2.95676e-18
5.87125e-17
1.37404e-05
2.77003e-05
1.30572e-18
9.65902e-18
0.00012703
1.71805e-05
1.13899e-05
4.81593e-17
4.1773e-18
4.45184e-05
1.23716e-17
2.10201e-06
3.10094e-06
4.58038e-06
3.29248e-18
5.16169e-18
4.20244e-18
4.13387e-18
1.79298e-05
6.71199e-18
7.27856e-18
1.20721e-06
2.79889e-18
2.7487e-05
2.22837e-06
3.62851e-17
4.42956e-05
0.000437775
3.03649e-06
3.47817e-05
1.71361e-07
5.31406e-05
1.03044e-13
2.22948e-16
2.81609e-05
8.29188e-05
7.24475e-06
2.04282e-17
7.63373e-13
0.000891574
1.20647e-05
9.2874e-19
2.97241e-06
3.08266e-06
1.4155e-06
3.01733e-17
7.91878e-18
3.97967e-18
1.58193e-05
2.06697e-17
3.08308e-06
1.22856e-17
1.52056e-06
1.68392e-06
4.38836e-05
6.57277e-07
4.48646e-18
2.59203e-18
4.2494e-18
2.46562e-05
1.26053e-17
1.32708e-17
8.2265e-08
3.86258e-19
6.49283e-19
8.86363e-18
5.61682e-18
1.20258e-05
8.74816e-18
1.44963e-18
5.69717e-13
5.46685e-17
1.11272e-18
7.82523e-17
1.11204e-17
3.37853e-09
1.91685e-06
6.52446e-18
4.73944e-06
7.85558e-09
3.46516e-10
7.3374e-08
4.85888e-06
2.82746e-17
1.12701e-08
1.18304e-05
4.73622e-07
1.20371e-17
3.68281e-12
1.01617e-06
7.20606e-18
1.1634e-05
2.19701e-07
1.96015e-09
2.81134e-05
1.1157e-05
2.69842e-06
5.96055e-06
2.39926e-06
1.07743e-17
3.51388e-17
3.94154e-05
3.1305e-05
2.09954e-17
9.98908e-06
6.43599e-05
3.39535e-05
1.43199e-16
1.52349e-06
1.49073e-17
1.23375e-05
1.65888e-05
1.10412e-16
1.88695e-06
5.5095e-07
1.42637e-09
5.89388e-06
2.12724e-17
5.83703e-05
1.77737e-08
1.79642e-06
3.82456e-08
1.40459e-08
2.26044e-18
2.75272e-17
8.37247e-06
2.31772e-18
1.41268e-07
3.00623e-07
3.30211e-07
6.40099e-11
8.50087e-11
3.73123e-10
8.07856e-18
2.56088e-17
2.76849e-05
6.01907e-18
1.46199e-07
2.4304e-06
6.14026e-17
3.20285e-17
7.41607e-10
1.03332e-12
2.55141e-18
5.93183e-09
5.70069e-18
1.79587e-18
4.45693e-17
2.76324e-17
1.52157e-16
2.2331e-17
3.30518e-07
8.36335e-17
6.97029e-19
4.10012e-18
7.60268e-09
6.26752e-08
2.1547e-06
1.11937e-05
2.15954e-18
1.86295e-17
2.01924e-07
2.69001e-17
1.97224e-17
7.90649e-17
2.2155e-05
5.05498e-05
1.16145e-17
1.59135e-17
3.45183e-17
8.93697e-17
3.87255e-18
4.15503e-17
8.32986e-06
1.22662e-17
6.24602e-11
3.19788e-05
4.49075e-18
2.22889e-17
4.68621e-18
3.28478e-08
2.35979e-17
5.40452e-18
2.6307e-18
1.10358e-08
4.95715e-18
5.21336e-06
1.11695e-09
6.71044e-12
3.32252e-18
8.94341e-08
2.38326e-06
5.26979e-05
7.18888e-17
1.00365e-08
6.73568e-06
2.65218e-17
1.25758e-17
3.20356e-16
7.99125e-17
1.00394e-05
1.95662e-06
3.91212e-06
2.08515e-10
1.35758e-17
2.61857e-05
1.42291e-17
5.21398e-18
1.72177e-16
1.45613e-17
3.15467e-05
1.13206e-17
8.33298e-17
2.06803e-09
6.12998e-05
4.42809e-17
2.86191e-06
6.95565e-17
9.94524e-07
1.30846e-16
1.29044e-17
8.14245e-18
7.20459e-18
2.9176e-06
7.16037e-07
0.000359901
8.8933e-19
8.28793e-17
2.38496e-06
1.10798e-17
7.55325e-17
8.02787e-18
4.38639e-05
1.12336e-08
3.85369e-05
2.7142e-17
1.24665e-08
5.82764e-08
9.71916e-17
1.48169e-07
2.40696e-17
1.44506e-06
3.02839e-05
2.43963e-05
1.449e-06
2.83397e-07
4.38726e-18
1.0474e-18
2.64064e-17
2.59339e-08
2.58222e-18
8.88655e-06
3.28819e-18
0.000210481
4.26748e-18
4.9197e-05
3.73497e-06
3.09774e-17
8.46567e-18
1.74836e-17
5.90168e-19
4.91795e-05
6.03521e-17
1.37768e-16
1.41551e-05
8.14424e-06
9.57326e-17
1.5609e-16
1.1785e-16
8.2861e-17
1.95076e-16
1.72447e-18
3.07258e-05
4.96295e-07
1.56107e-17
4.99845e-18
6.25851e-10
1.36125e-16
1.87957e-06
1.28423e-07
2.14348e-17
4.17144e-06
9.93464e-18
4.52861e-07
1.65776e-17
1.31474e-06
4.18696e-17
8.90108e-11
2.54247e-09
7.53704e-07
2.15453e-05
4.05009e-05
1.40572e-09
9.85088e-18
6.02914e-07
1.1379e-17
5.47451e-06
1.05406e-17
1.85364e-17
7.28163e-17
1.54523e-17
1.1366e-17
8.90509e-18
8.55682e-06
9.66438e-06
6.06728e-18
1.70741e-17
8.15297e-17
9.05579e-07
1.59699e-08
3.00386e-18
2.17024e-05
2.1598e-07
5.12978e-17
2.78845e-05
9.80818e-06
4.29024e-06
1.37611e-05
3.05059e-17
2.91007e-17
1.52417e-18
2.08017e-17
4.41199e-05
8.71528e-18
0.000136249
5.52019e-18
3.76786e-07
8.69819e-07
4.17413e-18
1.13654e-06
1.50491e-18
6.85801e-18
3.65298e-06
2.64032e-11
1.12694e-05
1.20363e-17
2.51877e-17
1.5749e-17
9.93372e-07
9.50534e-18
3.44506e-17
5.37627e-17
3.36708e-10
1.95353e-17
8.11741e-09
5.92059e-17
2.56821e-17
5.72626e-18
2.16588e-05
1.18289e-05
2.18802e-05
4.31209e-05
3.3361e-17
1.92194e-08
2.00714e-17
3.26647e-18
1.17569e-05
5.63515e-18
2.65425e-09
4.27645e-07
7.89645e-06
4.27848e-07
1.29297e-12
2.27247e-06
3.14861e-18
1.43198e-12
5.04053e-13
1.49155e-07
9.43993e-07
1.76791e-05
7.47894e-11
5.40787e-18
3.63644e-05
7.42887e-18
7.76454e-18
1.67533e-08
8.96867e-05
6.79599e-11
1.63891e-18
4.32859e-18
3.69227e-10
6.65318e-18
5.2995e-17
2.12757e-08
1.43254e-16
4.58993e-17
4.83623e-05
2.66581e-07
2.11017e-07
2.7071e-05
8.68716e-06
2.62433e-17
1.96484e-18
2.10621e-08
4.8306e-06
2.33523e-17
1.25057e-16
1.1554e-05
6.76524e-17
1.79349e-16
5.61584e-17
7.42766e-17
1.89639e-16
0.00308512
5.64596e-18
2.57521e-07
4.97698e-18
2.5171e-05
6.01537e-18
1.3568e-15
1.37044e-16
5.33801e-17
4.75323e-18
2.25261e-17
3.36282e-06
6.53738e-18
5.20328e-17
4.89895e-17
5.36431e-17
2.28169e-17
1.12574e-18
1.16829e-05
3.465e-19
1.32568e-05
3.67102e-06
9.50991e-18
1.93959e-06
4.6582e-18
5.88264e-07
2.36809e-09
4.56014e-06
1.56652e-05
1.4263e-17
1.08972e-07
9.31908e-06
1.09253e-08
1.93098e-17
3.06434e-09
2.22328e-05
5.66192e-06
4.64974e-17
3.10952e-05
6.50965e-17
7.53071e-18
2.19891e-17
1.57603e-17
9.76319e-06
2.93379e-17
1.25186e-17
9.83805e-06
3.72214e-10
3.23838e-06
1.97442e-18
9.20479e-17
7.99461e-07
5.34838e-19
8.23275e-08
2.4625e-17
2.77581e-05
8.0115e-18
8.16962e-18
6.7022e-08
1.03431e-17
1.64041e-07
2.55437e-17
1.92048e-17
5.719e-06
5.08009e-07
5.6752e-06
1.85222e-05
0.000263758
2.43143e-05
1.44593e-17
2.37352e-16
3.54453e-06
8.00996e-06
4.35829e-05
1.29003e-05
1.26017e-17
1.44806e-05
9.63197e-18
7.98033e-18
1.08462e-05
1.30507e-05
5.85727e-17
1.56751e-05
3.53617e-18
3.25905e-06
1.04061e-05
2.08507e-17
3.28433e-18
1.58218e-18
3.33826e-06
6.11936e-18
8.8625e-18
4.97635e-06
2.52665e-05
4.26978e-09
8.86212e-06
1.09165e-17
2.13426e-18
9.87964e-08
9.0389e-07
1.3643e-16
1.23785e-05
1.48248e-16
3.15591e-06
8.51305e-19
1.26988e-18
1.46871e-05
2.90798e-17
4.58962e-08
4.31563e-06
1.61477e-17
7.72867e-18
5.25913e-06
6.61548e-14
6.23604e-05
1.69329e-17
0.000307918
4.04424e-17
6.86122e-17
6.22936e-18
8.92423e-06
4.00177e-17
1.6343e-17
6.62942e-06
2.59753e-17
2.88579e-07
5.56354e-17
2.71474e-17
5.91113e-18
1.25131e-10
9.13454e-07
1.8609e-18
3.42254e-18
4.17423e-05
1.10818e-06
2.0456e-17
5.17741e-07
2.29851e-17
3.33339e-17
1.95698e-09
3.12379e-06
1.56324e-06
1.38612e-17
5.85691e-18
2.25869e-17
7.01983e-18
5.3652e-17
1.53271e-16
7.77044e-18
1.03044e-17
5.06231e-17
1.43011e-17
3.2823e-18
2.67652e-18
2.92589e-17
1.61611e-17
4.12105e-18
7.14881e-18
8.80082e-18
3.32631e-17
2.92311e-18
2.50865e-18
4.04925e-18
2.07774e-05
1.86698e-17
1.2652e-17
7.22661e-18
7.85257e-06
7.64963e-18
1.69563e-17
0.000342205
1.64618e-17
3.66111e-18
2.74749e-05
4.37609e-15
1.05186e-17
9.01823e-06
2.90968e-05
1.39045e-18
3.23265e-06
4.8335e-06
7.24518e-17
1.57418e-05
4.68173e-05
2.11732e-05
4.002e-06
1.27386e-05
4.02338e-17
5.77359e-17
3.48742e-06
1.22686e-05
3.80544e-06
3.04314e-18
7.78319e-06
2.0859e-06
2.53652e-05
1.21078e-05
8.26386e-07
1.85394e-05
1.24921e-06
1.20349e-05
1.26812e-17
2.94166e-05
1.0009e-05
1.95179e-06
1.61842e-06
4.12294e-18
2.16059e-17
2.52697e-18
1.52177e-17
2.54073e-18
1.07006e-05
1.61267e-05
1.12134e-18
6.01228e-18
3.04694e-16
5.57618e-18
2.79083e-17
7.12807e-18
1.27027e-17
3.31504e-17
5.40124e-06
2.14457e-07
2.57696e-05
7.93561e-08
1.23669e-17
9.76371e-17
3.64895e-05
8.20557e-09
7.39014e-18
1.45834e-17
8.59604e-06
3.39818e-18
1.58105e-17
3.95769e-09
9.30768e-06
1.5969e-05
3.98435e-05
4.04207e-05
4.23491e-17
1.6609e-05
3.92962e-07
4.16935e-18
5.14022e-18
1.39751e-05
1.9431e-17
7.55392e-18
1.97468e-05
0.00123886
2.05623e-07
1.97983e-16
4.37361e-19
2.09527e-05
2.38375e-05
2.06722e-05
6.80353e-06
4.89584e-06
1.10251e-17
1.25408e-09
3.15231e-12
5.39238e-17
5.12587e-17
2.04026e-05
3.94412e-18
2.35896e-06
2.96359e-05
2.06985e-05
1.36396e-05
3.71394e-19
7.15254e-06
3.57518e-18
1.28003e-17
2.4707e-17
2.34647e-18
2.88512e-06
0.00103644
8.37791e-18
6.79092e-18
3.54172e-09
2.71393e-05
1.34008e-06
8.12299e-06
3.85216e-05
5.65355e-06
2.42683e-05
4.13811e-17
6.57055e-17
3.96933e-17
3.5232e-05
6.66726e-06
3.129e-11
3.14456e-18
1.549e-17
3.56083e-16
2.60881e-05
3.2855e-06
6.16828e-18
5.7436e-06
6.81348e-05
7.8451e-06
7.18861e-06
7.25797e-18
3.31858e-16
8.11044e-06
2.63827e-05
1.60792e-18
3.95284e-07
1.71427e-05
1.17295e-06
1.06817e-05
5.43743e-06
9.42111e-06
7.01492e-17
3.88005e-06
2.41097e-05
4.24542e-05
5.19122e-13
2.65618e-05
3.05417e-16
1.90701e-05
1.8622e-07
1.03617e-18
3.00425e-06
8.79582e-06
4.43155e-07
1.33403e-05
2.32787e-10
1.51557e-07
1.70945e-08
4.76078e-05
4.24395e-06
2.95193e-17
4.47224e-05
1.50583e-06
6.03176e-18
4.74854e-18
4.7742e-11
1.1998e-08
1.19854e-06
0.00127953
4.05614e-05
1.40265e-05
2.41912e-10
5.1699e-05
1.34141e-17
3.98722e-17
4.5388e-06
1.93962e-17
2.46022e-06
4.89016e-06
2.52921e-06
5.3307e-06
6.46883e-18
2.36259e-07
0.000124925
8.15388e-18
2.2593e-05
8.65505e-06
2.99741e-17
4.64945e-06
1.54727e-07
5.51135e-18
7.91363e-12
1.06198e-07
1.72488e-17
4.25061e-17
1.32718e-18
5.07999e-06
5.59544e-06
1.63386e-05
1.22039e-17
5.74166e-06
3.80857e-05
3.3119e-18
9.23088e-06
1.42682e-05
2.78826e-05
1.77024e-06
5.31951e-18
6.72677e-07
1.0823e-05
1.20151e-05
1.03859e-05
4.28771e-05
0.000188575
3.87389e-06
1.54493e-17
8.6942e-09
5.77163e-05
2.73729e-18
4.89758e-07
1.89048e-17
1.65137e-18
2.33958e-17
6.70817e-18
4.33189e-19
3.70055e-06
5.48433e-18
8.24558e-06
1.32151e-06
3.5029e-17
4.35188e-06
7.28608e-17
1.60737e-05
7.53693e-18
2.52841e-08
3.22689e-17
2.51377e-05
1.80146e-07
2.8464e-09
4.82416e-06
3.27791e-05
1.91718e-05
4.41877e-06
3.09645e-05
6.76689e-15
2.58729e-05
6.17787e-05
1.0779e-05
4.65512e-17
1.26709e-06
2.98475e-07
6.39631e-06
1.17622e-05
6.90886e-07
2.44727e-18
2.85184e-17
2.91642e-18
4.09749e-06
2.51569e-19
3.28816e-07
2.5014e-07
1.78547e-06
3.22535e-07
6.36844e-18
5.25108e-17
2.58064e-17
9.95414e-06
2.46022e-05
1.3838e-06
1.08952e-08
2.14461e-06
7.82569e-06
2.23494e-06
9.05349e-07
7.62715e-06
6.83587e-06
3.00701e-06
9.63377e-17
9.83316e-18
2.3261e-18
1.49825e-05
1.21982e-05
9.73866e-17
1.84865e-18
4.57608e-17
9.47363e-06
2.12547e-05
2.779e-17
2.47741e-06
2.74841e-17
7.03424e-10
5.33433e-06
0.000101156
1.10113e-18
2.45858e-18
4.11487e-06
2.31129e-17
6.77131e-08
1.33632e-05
1.84111e-18
1.22382e-05
3.70878e-05
2.09734e-05
1.11029e-17
1.52591e-06
4.21046e-17
9.67058e-08
5.53893e-05
1.31098e-17
1.61876e-17
1.22562e-05
5.36813e-16
1.64786e-17
5.01522e-08
1.0918e-06
7.05309e-18
2.15513e-18
5.24271e-17
6.93053e-08
1.37912e-06
3.504e-06
2.91186e-05
1.04122e-05
1.02422e-17
8.008e-10
7.44955e-07
1.10003e-17
7.03123e-18
1.34924e-17
1.71017e-17
1.18109e-17
3.97514e-17
4.25837e-17
4.99465e-18
7.88026e-17
4.40964e-17
2.71729e-12
9.93694e-17
3.84918e-07
8.09425e-17
2.6503e-07
5.88416e-17
6.85761e-08
1.11307e-16
2.05835e-18
3.21375e-05
1.0224e-05
1.90441e-17
0.000100651
1.26258e-11
3.69663e-13
2.42789e-18
1.49608e-06
8.4339e-15
3.08776e-06
7.34233e-09
9.62546e-07
1.20473e-17
2.58054e-17
1.02828e-06
2.74843e-11
5.39797e-18
6.20588e-17
4.38406e-05
3.82653e-17
4.1584e-05
2.27265e-17
5.71412e-18
1.98052e-09
3.17161e-05
9.02523e-06
1.05611e-17
3.61616e-07
6.98376e-17
3.59015e-06
2.05119e-08
2.03187e-06
1.06914e-06
1.08313e-18
2.29422e-05
1.33384e-06
5.83437e-06
4.0678e-17
6.61552e-18
2.06475e-17
2.14843e-05
4.44181e-06
5.8473e-05
5.57461e-17
5.23079e-10
4.4522e-18
8.99578e-18
3.38125e-17
1.53964e-17
3.68423e-06
2.49163e-06
3.36199e-06
0.000359211
9.71813e-18
3.07412e-05
4.0178e-05
1.95659e-05
1.95128e-06
1.10355e-17
5.90745e-06
5.1162e-06
6.93827e-06
3.79015e-10
1.13879e-05
1.02191e-17
1.7124e-06
1.42135e-06
3.67603e-05
1.31375e-09
3.75656e-06
9.59265e-18
2.11364e-05
3.01285e-17
1.23769e-17
1.85405e-06
6.1274e-18
6.90925e-06
2.72196e-17
1.72299e-17
4.41219e-18
5.13809e-18
5.19354e-17
9.05632e-07
7.98912e-18
6.15786e-07
5.27501e-17
3.86412e-17
2.01077e-05
6.10597e-06
8.90945e-06
8.37873e-06
1.03671e-17
0.00066513
6.88116e-18
7.84619e-05
3.32659e-17
1.99701e-05
2.68192e-05
2.68033e-06
6.38501e-05
1.32135e-16
3.29377e-16
4.51904e-18
2.44042e-06
5.69443e-18
7.4174e-18
1.98583e-05
4.24757e-17
4.44427e-18
6.06198e-06
7.69317e-17
1.43147e-05
7.66777e-11
1.86943e-17
3.89583e-17
7.70513e-17
1.81821e-06
7.63468e-06
7.10865e-18
2.5632e-05
3.86242e-07
8.80627e-18
0.000116753
9.48633e-18
1.771e-05
2.02674e-05
4.00311e-06
2.68451e-17
2.0099e-05
1.09639e-05
9.63198e-07
6.04199e-06
1.42437e-05
1.39477e-18
3.03927e-17
2.02769e-09
9.5017e-20
1.11496e-17
9.10458e-18
2.20268e-05
5.07764e-05
5.00625e-06
2.46057e-06
1.57602e-17
5.66362e-05
5.18039e-05
4.79205e-06
2.74523e-06
1.05526e-05
2.36387e-05
3.05029e-06
9.44448e-18
7.34466e-19
5.89297e-19
7.88249e-06
1.05241e-18
2.79579e-05
1.34542e-16
8.44032e-07
6.42047e-10
2.89957e-06
2.50812e-05
4.33343e-17
2.8008e-17
2.81741e-06
4.14484e-07
3.07974e-17
7.79414e-17
8.35171e-18
3.82444e-08
3.63279e-07
1.6674e-07
9.40655e-07
1.14502e-05
9.82223e-05
4.18863e-17
4.1536e-18
7.77651e-17
4.23691e-06
2.01757e-05
2.26828e-05
3.98491e-05
1.99833e-06
3.35677e-06
1.05157e-17
1.26035e-17
1.1297e-16
8.99849e-18
1.07432e-05
2.55109e-05
1.23109e-17
1.76907e-17
1.78432e-17
7.26992e-17
1.15496e-17
7.97081e-17
1.5682e-05
1.05938e-16
1.10661e-06
0.000463214
6.4693e-18
1.59209e-08
2.6053e-05
8.63106e-07
7.24456e-18
7.65344e-17
5.61652e-06
9.70888e-18
1.62037e-05
1.18609e-09
2.77364e-05
5.63988e-17
3.69254e-15
3.30362e-18
3.265e-18
4.8129e-18
8.90656e-17
0.000224848
1.93546e-17
6.78017e-06
1.37417e-06
5.08572e-17
2.42782e-17
2.214e-06
7.70429e-18
8.57502e-18
1.30288e-05
1.48724e-07
7.2831e-18
3.58231e-17
1.94844e-17
1.91983e-05
6.4904e-18
6.65815e-18
4.72345e-07
3.00153e-06
3.51897e-06
6.03323e-18
1.53471e-17
9.4308e-18
4.37084e-06
2.12107e-06
1.49269e-05
4.26745e-06
4.63164e-18
9.18711e-07
1.35735e-05
7.39838e-06
4.51462e-18
1.4281e-17
9.05692e-18
1.09738e-17
1.02917e-17
3.56871e-05
6.00281e-06
6.33391e-06
1.3425e-17
1.49023e-17
2.54312e-17
5.47296e-18
4.23412e-18
1.1202e-09
2.78572e-07
2.58015e-06
1.04916e-17
2.06651e-17
6.51403e-17
2.68841e-12
3.97647e-05
0.000130704
1.58784e-18
8.94837e-13
2.39875e-14
1.36474e-17
2.03261e-17
4.40156e-06
7.55838e-06
5.95069e-18
5.95445e-17
3.32278e-06
1.91371e-17
8.08945e-07
1.26094e-06
0.00241089
5.56592e-18
1.22686e-17
1.39614e-05
6.08951e-07
4.67798e-18
0.000765439
6.86309e-07
7.28491e-06
1.07775e-17
5.25235e-17
4.65117e-17
2.28244e-18
9.26331e-06
1.05837e-07
6.38821e-17
2.90992e-05
2.19898e-05
0.00099639
3.34881e-18
4.31951e-18
1.86263e-18
4.49019e-18
7.50332e-06
7.76638e-11
1.54575e-17
5.17143e-17
2.15694e-05
1.07982e-06
5.58127e-06
5.94006e-18
1.00871e-16
3.30548e-05
8.96743e-17
6.33174e-18
2.76627e-18
3.87058e-17
2.49695e-05
8.58254e-17
2.35978e-17
4.73744e-17
2.8939e-05
1.39032e-05
4.31509e-18
2.01949e-17
8.99787e-18
1.7545e-05
2.08311e-10
2.84345e-17
1.36389e-17
1.01947e-17
7.35508e-17
2.75088e-06
1.25911e-05
6.5779e-19
2.3345e-06
1.27501e-06
5.47749e-06
6.58891e-17
1.39622e-17
2.24905e-19
7.36814e-17
1.96143e-18
2.25064e-05
1.0511e-16
1.66136e-05
4.02372e-18
1.75363e-06
8.97513e-17
2.72756e-06
6.04217e-18
5.81523e-18
1.23805e-05
0.00019132
1.80093e-16
4.10203e-06
2.62815e-17
4.45159e-07
7.79533e-17
2.58625e-17
4.93353e-17
1.6383e-10
2.06625e-17
3.54303e-07
5.53204e-18
4.02841e-05
7.75657e-18
2.66245e-17
6.94412e-18
7.36337e-18
8.95825e-09
1.52887e-07
6.17765e-18
6.40801e-06
2.02501e-18
3.17804e-06
2.1309e-05
1.4411e-06
2.46979e-18
5.30521e-09
4.99786e-07
2.45337e-09
4.84575e-06
3.7502e-10
1.90629e-06
1.26251e-16
1.2436e-17
4.983e-10
6.51327e-06
2.70469e-07
6.68136e-17
5.54304e-18
1.39763e-17
0.000657223
1.19857e-17
4.02105e-17
5.99148e-18
5.83903e-18
9.60661e-18
3.34745e-08
2.01973e-07
1.16838e-06
7.7747e-08
1.16357e-15
1.67725e-06
4.0015e-18
6.35346e-06
2.27775e-17
2.92832e-18
1.26806e-17
7.21787e-17
2.1496e-08
3.44754e-17
7.82325e-18
9.49618e-18
1.64858e-05
8.20814e-18
1.47491e-18
1.25419e-05
4.27824e-17
8.24822e-05
0.000142017
0.000640575
5.92534e-17
0.000229023
0.00131997
0.00134368
0.000741165
5.9283e-17
8.08249e-18
5.47733e-06
5.24778e-06
6.90514e-18
1.06218e-05
3.54231e-18
3.622e-05
1.47157e-18
2.88813e-18
7.97629e-07
1.62777e-17
1.27492e-17
1.15595e-08
4.53417e-08
8.63001e-18
2.57614e-18
3.12521e-09
5.94473e-17
2.36316e-17
2.25529e-08
9.36655e-06
1.69954e-06
9.68599e-17
8.75622e-06
1.26663e-17
3.98621e-06
4.49443e-10
8.20365e-06
1.97831e-18
1.81778e-11
6.33759e-06
5.9036e-17
1.76728e-12
4.26825e-18
3.61359e-05
9.59668e-18
1.08868e-05
2.14611e-17
2.51519e-10
5.99889e-18
8.84037e-18
4.61239e-18
8.98597e-13
5.77474e-13
1.01406e-17
1.36509e-05
1.02289e-05
2.26682e-18
1.28699e-17
3.66862e-05
1.93413e-05
0.000204658
5.08298e-17
7.57493e-08
2.78763e-05
5.13451e-05
6.78503e-11
4.05973e-18
6.37689e-05
8.81835e-17
0.000253458
1.64185e-17
4.13563e-11
4.04349e-11
3.97536e-18
5.71688e-08
1.50124e-16
2.40596e-05
1.66894e-17
5.66077e-18
4.12844e-17
7.21713e-17
3.84847e-17
1.19467e-17
3.38266e-07
2.12431e-06
0.00015044
6.20518e-17
7.23601e-17
4.56711e-05
1.05641e-17
7.13056e-20
1.88563e-17
9.52258e-17
3.45508e-17
6.52212e-06
1.56789e-17
3.52436e-17
3.97497e-18
3.64917e-06
3.83773e-17
8.91352e-18
4.48717e-19
3.57755e-06
4.53514e-18
6.79961e-06
0.00025937
5.77289e-06
5.92353e-06
2.95341e-05
1.19808e-17
2.77289e-17
1.05063e-17
3.36355e-06
1.94304e-06
6.30481e-19
4.1984e-16
6.54933e-07
2.04742e-17
2.1759e-17
0.000370909
1.33965e-17
2.43938e-05
2.75348e-17
2.59627e-06
3.68836e-06
1.81696e-17
1.79345e-17
2.46622e-17
1.54049e-17
2.50812e-18
2.07407e-05
4.4825e-17
5.11658e-06
3.95241e-18
7.97872e-18
7.48343e-06
2.32573e-17
1.41452e-05
1.46402e-16
2.10155e-18
2.67784e-06
8.57394e-08
0.00015518
9.805e-17
2.08806e-17
4.73137e-18
4.04943e-06
0.000197796
6.80601e-18
7.81686e-18
1.36135e-16
1.68455e-06
2.6213e-17
2.17877e-05
3.42441e-05
6.13537e-17
3.80161e-18
7.95759e-06
1.7643e-17
1.01674e-16
2.3838e-18
1.00591e-16
3.11892e-17
7.53181e-05
1.25112e-16
6.5079e-17
9.05068e-18
1.95576e-16
5.22406e-18
5.19247e-17
4.75112e-17
2.25733e-17
1.52825e-16
8.58368e-06
4.77266e-17
9.17251e-06
1.71385e-16
6.17057e-18
0.000638741
2.93898e-06
3.73413e-17
3.03375e-17
6.79656e-18
2.62389e-06
1.7993e-17
8.55675e-18
6.2128e-17
2.73527e-17
7.8532e-06
2.26014e-18
5.28854e-06
8.32734e-18
1.05698e-05
1.07469e-17
6.26027e-05
1.25736e-16
3.54356e-19
2.33218e-05
1.7793e-17
1.94424e-18
2.94544e-05
3.00242e-07
5.82348e-18
2.95754e-17
4.03637e-05
1.10694e-05
6.97903e-06
9.14474e-07
1.97367e-06
1.88539e-05
1.06408e-06
5.37887e-06
1.30872e-16
3.14273e-05
1.6407e-17
1.14276e-17
9.9195e-18
5.91574e-17
9.59463e-18
1.12544e-05
2.55808e-17
1.22874e-20
1.63553e-17
3.15852e-09
1.0116e-08
9.14184e-17
2.52354e-06
5.68417e-17
4.70514e-06
5.68401e-18
1.35135e-09
3.95333e-06
2.33277e-16
4.97942e-05
1.82643e-17
8.88215e-17
1.15984e-17
3.20998e-06
1.43322e-06
2.0754e-18
9.85753e-19
2.7299e-06
8.23706e-18
0.000725692
3.23913e-17
0.000112637
2.79633e-17
4.16869e-18
9.1307e-19
1.8722e-17
1.0842e-05
1.49864e-17
4.32705e-08
1.19721e-18
1.06721e-05
7.36451e-18
1.65483e-18
6.57334e-15
3.47544e-16
9.7564e-18
4.8722e-17
6.71003e-18
5.09817e-18
4.71091e-06
0.000210937
8.43269e-17
1.97374e-17
3.98967e-07
2.42336e-17
1.98927e-17
1.24809e-09
1.88491e-05
1.62249e-07
1.12022e-17
7.55563e-07
3.63721e-06
5.6826e-06
9.18924e-06
6.04881e-18
6.9523e-18
8.32042e-18
2.77382e-19
1.5129e-18
1.84857e-17
1.29495e-17
3.51331e-17
2.22995e-17
2.20583e-17
2.24842e-18
1.13207e-17
8.27564e-05
3.96217e-18
2.27449e-18
1.38505e-13
1.98066e-17
2.80222e-17
0.00121535
1.60789e-17
5.67111e-18
2.15693e-06
1.97308e-12
1.2703e-17
1.70119e-17
1.96463e-18
2.49431e-05
3.39716e-18
4.03478e-17
5.57377e-11
1.84785e-18
1.42166e-17
3.51974e-18
5.46731e-17
0.000126672
1.82637e-17
1.87615e-07
1.31511e-18
6.89026e-18
1.30202e-18
1.49299e-17
1.21711e-17
2.08448e-11
4.25497e-11
1.24448e-07
1.16348e-17
7.84373e-18
2.48211e-17
1.13246e-10
1.73249e-18
3.37042e-10
1.21009e-11
4.34343e-18
1.29551e-17
9.40744e-17
5.24389e-12
7.75872e-18
3.87042e-17
2.56037e-12
4.5984e-17
3.49545e-05
5.51938e-18
7.76028e-06
4.83404e-17
2.54044e-09
6.09596e-18
1.63775e-06
2.9769e-18
4.70191e-06
2.86436e-05
6.55719e-18
2.86621e-06
1.57952e-08
2.36713e-17
1.19835e-05
8.83755e-18
8.80314e-18
6.10721e-17
5.09714e-18
2.75958e-17
6.51107e-18
3.74604e-19
1.66759e-17
0.000319223
6.94406e-18
1.1551e-17
1.17846e-18
9.26219e-18
2.29475e-18
3.56074e-05
0.000920789
3.47922e-09
1.29256e-08
1.94387e-18
2.3232e-06
1.58862e-06
1.49294e-17
6.87269e-17
7.59202e-17
7.00294e-18
1.26897e-17
5.00579e-17
5.82435e-18
2.23497e-17
4.52893e-07
8.51765e-17
8.27212e-18
2.45012e-07
3.98623e-09
4.94745e-17
2.94343e-05
8.32584e-18
4.63118e-17
6.36154e-17
0.000197153
9.03348e-17
2.2076e-18
2.91044e-05
2.92582e-18
4.35628e-18
1.69874e-17
1.81362e-17
6.25441e-05
4.0427e-18
8.97388e-18