/*--------------------------------*- C++ -*----------------------------------*\
  =========                 |
  \\      /  F ield         | OpenFOAM: The Open Source CFD Toolbox
   \\    /   O peration     | Website:  https://openfoam.org
    \\  /    A nd           | Version:  10
     \\/     M anipulation  |
\*---------------------------------------------------------------------------*/
FoamFile
{
    format      ascii;
    class       volScalarField;
    location    "8.4";
    object      T;
}
// * * * * * * * * * * * * * * * * * * * * * * * * * * * * * * * * * * * * * //

dimensions      [0 0 0 1 0 0 0];

internalField   nonuniform List<scalar> 
111485
(
303.15
285.108
300.97
303.15
298.406
283.15
298.913
293.382
296.317
286.249
300.508
296.191
300.204
284.572
299.967
286.76
299.298
297.874
294.033
303.15
303.15
283.15
297.23
288.696
301.54
303.15
293.186
300.611
288.857
303.15
300.729
294.307
303.15
283.15
283.448
283.15
302.281
297.579
283.149
296.586
283.15
289.592
297.004
302.881
303.191
303.15
287.372
288.555
289.633
303.15
303.15
283.15
303.15
298.911
303.15
293.485
287.896
283.15
283.322
295.431
295.831
303.15
302.049
300.26
283.15
284.551
300.267
291.521
302.102
302.526
303.162
301.892
303.15
302.099
303.15
295.354
283.15
293.45
283.15
283.15
283.238
293.375
283.15
303.15
300.302
284.209
283.15
301.541
303.117
299.071
283.336
289.573
300.853
300.37
289.766
303.15
303.15
301.541
303.149
283.415
303.15
286.656
283.15
285.166
285.746
283.15
283.15
293.055
301.448
283.146
298.893
288.062
301.285
301.695
303.15
301.972
303.15
283.15
300.116
303.15
303.15
283.15
283.15
283.15
283.399
303.151
283.15
301.804
303.15
283.176
303.086
301.933
303.15
283.15
283.15
292.486
283.15
294.198
298.771
301.079
303.137
296.797
298.951
284.768
302.275
297.775
283.15
303.15
283.15
297.115
284.925
303.15
303.144
287.309
283.156
293.698
295.61
302.521
283.154
303.15
303.15
292.159
286.241
283.153
283.157
301.169
283.684
283.15
283.152
283.152
283.15
303.15
283.206
283.15
291.527
287.164
283.15
303.15
303.15
283.15
303.15
303.15
297.623
293.477
295.765
289.751
301.369
300.406
283.19
303.15
301.434
303.15
303.15
300.139
286.276
301.396
301.321
295.728
303.15
300.873
284.594
283.16
300.765
297.046
303.15
300.398
288.191
303.15
283.225
300.166
284.803
300.67
303.15
303.15
300.684
283.15
292.754
283.15
300.589
298.691
290.357
303.15
301.745
300.524
283.15
283.15
283.15
289.486
283.157
283.15
303.15
298.627
291.352
289.91
283.15
303.15
303.107
303.15
284.329
300.063
299.239
299.487
299.356
283.15
283.144
298.832
283.15
283.15
288.745
288.352
283.15
301.171
298.851
303.15
283.15
301.01
303.15
303.15
303.121
303.15
288.259
285.86
290.768
303.15
298.311
303.15
303.15
303.15
283.148
298.074
300.96
299.398
291.185
299.455
296.211
283.211
290.314
291.56
283.15
303.15
283.149
292.432
298.72
286.453
303.15
297.967
297.233
298.864
302.96
283.166
297.072
299.336
301.995
283.15
283.606
283.15
283.149
303.15
283.885
290.247
286.306
303.15
283.15
297.561
285.238
303.15
303.15
303.15
284.583
290.221
301.048
284.399
293.001
283.15
283.15
303.15
298.323
303.15
283.819
289.48
283.153
283.15
303.15
303.15
283.15
294.329
289.951
283.15
295.681
283.15
303.15
301.057
297.268
293.955
295.789
283.15
283.15
283.15
296.58
290.99
302.359
283.15
283.15
283.15
290.071
296.914
283.213
290.462
283.15
292.771
299.532
284.198
298.663
285.256
283.15
303.15
283.15
303.15
290.659
296.628
287.931
291.923
283.15
286.351
283.15
303.15
293.789
303.15
301.757
303.15
283.15
291.931
283.15
288.765
284.62
283.15
283.982
297.999
283.15
300.126
284.665
298.816
303.023
291.039
285.996
283.15
303.15
303.143
283.15
300.971
300.837
283.15
283.15
294.685
284.364
298.163
296.806
283.15
295.098
296.092
283.15
302.044
283.895
303.15
303.15
288.239
298.567
283.15
303.15
303.15
303.15
300.722
283.15
303.15
293.925
283.171
286.962
299.947
283.15
283.15
302.606
283.15
302.454
301.428
297.831
288.779
283.15
293.893
303.38
303.15
298.617
292.286
303.15
283.15
283.306
283.15
290.02
286.095
291.631
283.15
292.85
296.557
293.043
303.147
283.15
303.15
303.15
283.169
292.709
283.15
284.316
303.133
283.15
303.15
303.15
303.15
301.815
290.505
285.99
284.188
284.312
283.15
285.694
303.15
300.72
283.15
303.15
303.15
300.661
303.15
303.15
283.151
303.15
283.15
300.658
283.15
283.15
283.15
303.15
283.15
303.15
283.15
283.664
283.15
303.125
301.84
283.743
283.15
303.084
283.15
303.15
284.706
284.668
286.113
297.495
283.15
297.461
297.573
292.274
286.805
285.264
303.15
291.742
283.15
299.842
283.15
296.761
283.15
292.063
298.563
303.151
283.15
286.785
303.15
295.476
299.063
283.15
283.15
283.15
283.15
303.15
293.656
283.15
283.15
283.237
283.15
299.795
283.15
284.791
303.15
283.434
303.121
284.632
291.886
283.15
301.442
283.15
283.15
285.688
283.15
283.254
283.15
299.647
303.15
290.643
303.15
283.15
302.374
284.466
300.064
285.652
300.063
289.455
283.15
300.609
284.545
283.15
283.14
300.32
301.577
283.15
282.454
301.049
303.062
283.119
303.15
287.561
302.162
284.402
285.385
288.191
282.558
283.15
303.15
300.586
303.15
283.547
283.15
283.15
291.744
282.676
303.149
303.117
283.15
286.27
299.564
283.15
283.15
299.578
303.15
283.15
283.15
283.15
286.152
283.15
303.15
284.82
284.218
303.15
299.672
283.15
289.24
303.15
283.15
286.148
283.15
283.15
283.15
285.364
283.15
285.441
291.94
303.15
300.349
283.447
298.685
300.93
283.314
283.457
283.15
288.949
298.415
303.15
302.255
296.021
296.849
284.711
297.414
297.166
303.15
300.231
303.136
283.15
297.116
284.824
283.15
292.348
295.693
284.845
298.742
300.61
292.306
283.15
298.882
283.468
303.15
300.569
301.957
294.059
283.15
286.483
303.15
283.15
283.15
283.15
283.301
283.15
303.15
303.15
283.15
300.393
299.223
303.15
285.617
303.15
303.15
303.15
290.006
283.418
283.15
303.15
283.15
283.15
286.799
292.355
283.15
295.109
283.137
283.15
295.284
302.214
287.768
283.15
283.15
300.228
292.063
283.15
283.15
283.15
293.965
303.15
303.15
283.15
296.212
302.374
283.15
282.392
301.763
286.524
283.15
283.15
287.442
302.964
283.15
283.159
287.239
283.753
288.765
283.15
285.684
300.288
283.15
303.15
283.15
283.15
283.15
283.15
295.642
303.15
283.15
283.15
295.257
291.788
303.15
303.15
289.833
298.398
298.296
303.15
283.15
297.97
303.15
283.826
298.799
298.321
303.15
303.15
303.15
283.15
286.052
283.15
283.15
302.7
303.15
297.79
302.271
283.15
294.024
283.257
296.407
291.95
283.417
289.762
283.15
283.15
296.854
288.032
290.821
283.15
283.15
297.789
294.948
283.15
283.904
284.585
283.475
303.15
303.15
303.15
290.725
283.15
300.032
283.15
284.371
297.571
298.485
292.236
283.15
283.15
303.15
295.343
283.15
283.15
303.097
283.15
283.15
303.15
283.15
299.3
283.15
283.15
283.15
283.15
283.15
303.15
283.15
283.172
298.75
303.15
302.528
283.131
283.399
283.095
285.507
283.15
284.449
290.505
283.399
303.15
283.149
299.716
283.15
300.232
283.145
283.144
286.194
297.465
283.204
291.865
297.97
283.15
283.15
299.037
299.781
283.15
297.328
291.253
297.535
283.15
283.243
283.15
297.847
296.969
283.15
300.043
297.617
283.149
299.747
283.15
295.626
283.145
303.125
283.162
283.16
283.15
283.15
284.419
283.15
302.969
283.587
283.064
303.148
303.149
303.147
283.15
283.15
293.769
303.15
303.183
283.869
283.15
283.15
303.154
303.149
283.15
303.165
283.15
283.15
303.15
303.15
303.15
303.15
283.362
283.15
283.15
283.15
303.157
283.305
283.887
293.42
283.15
283.15
283.335
283.15
283.15
283.15
287.23
293.569
283.15
283.15
283.15
283.15
283.15
283.15
284.006
283.15
303.15
291.554
283.15
303.15
303.15
303.153
303.15
303.15
283.15
303.171
283.15
283.695
283.144
303.152
283.15
303.062
284.391
292.06
303.15
303.128
284.444
303.15
283.15
303.15
283.15
294.011
293.456
284.634
303.148
283.15
293.224
283.15
283.15
303.15
283.15
294.821
283.15
303.15
283.163
298.139
303.15
284.373
283.15
283.575
283.15
283.15
283.15
303.15
285.844
283.469
284.241
283.15
283.15
285.631
283.15
283.15
303.15
284.323
303.164
298.533
303.15
303.127
303.128
283.15
303.13
283.15
283.441
289.133
301.003
283.8
283.167
283.15
283.15
283.15
303.183
283.15
302.901
303.15
292.694
303.15
288.716
283.823
303.15
283.15
303.15
283.15
301.784
303.15
303.15
286.402
300.546
283.15
283.15
283.15
283.15
283.15
283.15
300.8
283.578
303.15
303.15
303.157
303.15
300.179
284.414
283.15
302.108
303.15
301.62
283.15
302.566
283.15
283.148
303.152
283.311
302.106
300.218
283.147
283.15
289.34
303.15
293.358
303.15
283.15
303.15
283.15
283.15
283.15
300.8
302.048
303.15
303.15
303.15
302.899
283.15
303.15
292.868
283.084
303.15
297.5
298.291
296.467
283.374
283.15
283.15
283.15
283.15
294.611
283.15
294.857
283.15
303.057
289.832
283.15
302.856
283.15
283.15
302.737
283.148
302.918
283.15
303.15
283.15
302.386
283.15
303.15
283.15
283.148
283.15
283.171
283.15
283.15
303.15
292.978
301.083
296.108
297.003
303.15
303.116
283.15
283.15
285.688
283.15
283.158
302.841
298.767
302.942
303.15
283.359
283.15
303.15
283.15
302.993
283.317
298.284
283.15
303.15
288.088
303.15
283.15
283.125
295.083
283.147
283.15
283.15
283.149
303.15
283.15
303.142
303.15
303.15
289.936
302.987
302.994
289.006
293.235
283.15
283.15
303.089
289.075
283.15
303.15
284.725
283.15
303.15
283.15
283.15
283.15
297.443
283.15
302.94
283.15
300.495
283.15
283.15
283.15
283.15
283.15
283.15
285.009
283.15
283.15
283.15
283.15
283.15
283.15
291.986
283.15
298.351
302.934
283.15
302.321
283.15
302.514
303.145
292.293
288.787
303.15
292.159
284.779
303.109
303.15
303.139
295.043
288.667
283.15
287.887
283.15
283.15
283.15
283.15
287.51
283.15
283.15
291.644
303.136
285.312
283.15
283.15
302.517
283.15
283.184
303.15
299.882
283.15
283.15
302.821
283.15
303.178
303.15
283.15
289.057
297.948
292.701
285.657
292.527
294.113
283.15
283.15
302.286
290.588
292.76
284.405
283.15
294.361
283.15
303.15
300.731
298.713
283.15
297.401
283.15
292.755
297.196
303.15
283.15
283.15
301.773
283.15
283.15
300.497
296.122
283.196
291.221
283.15
283.15
302.797
300.516
283.15
300.635
283.15
300.489
283.15
283.15
300.795
283.15
283.227
301.59
283.15
283.15
302.427
283.15
287.91
303.15
290.398
303.15
303.15
303.15
300.942
283.15
283.15
299.526
283.15
302.991
283.15
283.15
303.15
283.151
288.198
283.15
283.15
288.061
288.241
283.15
283.675
283.15
303.15
302.413
283.724
301.561
283.15
283.15
283.15
283.15
283.15
283.15
283.15
283.15
283.15
283.15
283.15
303.15
283.15
283.15
283.15
283.15
283.15
283.15
283.15
283.15
303.15
286.953
283.15
283.15
283.15
294.685
283.15
303.15
302.895
283.15
283.15
294.691
283.15
283.15
301.813
295.169
283.15
303.657
303.595
283.15
301.501
293.939
297.531
301.464
298.114
303.15
283.15
296.361
291.762
301.407
283.15
302.14
302.411
300.86
288.04
287.32
301.047
301.772
301.774
303.15
285.859
297.521
285.528
297.224
283.15
283.15
283.15
303.15
283.15
291.975
297.893
283.15
283.15
283.15
283.15
283.15
303.15
283.15
303.15
292.122
303.115
299.001
302.839
283.15
283.15
285.408
283.167
283.15
283.15
301.693
303.15
283.15
298.131
299.491
297.501
298.632
300.79
303.15
291.039
302.583
303.15
303.15
300.314
303.15
283.15
282.983
295.542
302.948
283.15
303.15
289.588
286.151
297.127
292.173
302.389
303.15
303.136
303.15
303.15
283.15
298.931
283.15
291.792
290.445
299.677
284.765
303.15
301.917
303.15
283.15
303.15
303.15
291.488
299.541
283.15
303.15
303.133
291.771
303.03
299.328
292.79
288.323
292.897
283.15
303.15
283.15
291.227
298.281
303.151
303.15
303.15
303.15
297.464
302.555
283.15
299.948
301.125
284.859
299.494
303.15
303.15
298.664
292.948
283.15
302.903
299.73
302.605
291.962
297.285
298.231
303.15
286.984
298.158
291.325
283.15
289.047
303.15
288.39
301.05
303.15
288.707
301.273
300.121
293.157
283.149
283.159
283.238
301.633
300.912
303.15
288.821
301.475
303.15
283.15
303.15
303.209
298.741
290.776
296.76
303.254
283.149
297.521
303.15
303.15
292.772
303.15
300.297
283.304
301.313
291.528
303.15
283.661
293.194
303.15
283.053
298.659
303.15
300.679
286.25
303.15
303.15
283.994
303.15
283.15
283.15
285.915
299.229
291.163
303.15
285.221
297.467
283.15
298.825
298.86
288.971
303.098
283.15
301.499
299.616
298.825
300.067
288.662
290.771
302.479
303.15
301.547
288.716
303.15
298.836
283.15
283.15
303.15
283.15
303.15
297.426
283.15
300.51
283.632
303.15
283.79
283.15
289.839
303.15
303.144
303.15
294.149
302.993
303.117
299.862
290.412
289.438
290.588
298.415
303.15
299.388
292.157
298.925
303.15
283.872
283.451
299.244
287.166
283.51
303.15
283.15
303.15
285.327
303.15
303.327
284.685
303.356
302.954
303.15
303.15
283.15
300.541
300.626
285.491
303.086
287.003
295.654
301.872
292.488
288.147
302.077
296.083
283.15
283.15
303.15
285.811
289.7
283.15
283.15
303.15
301.984
288.667
303.15
296.376
303.15
283.156
285.187
301.086
303.15
303.15
292.266
303.15
283.301
290.615
283.15
297.133
294.628
296.079
303.15
302.708
283.15
302.661
293.402
303.15
303.15
288.792
283.15
303.15
301.796
284.436
303.15
303.15
283.15
302.345
303.468
289.494
299.688
298.027
303.15
303.159
302.604
303.15
283.15
303.15
303.15
303.15
303.15
303.15
303.15
303.15
283.15
303.15
303.15
283.341
303.15
303.339
303.15
303.16
303.15
303.15
300.933
303.678
303.15
292.009
303.15
303.15
283.15
302.554
303.15
302.125
303.114
283.289
283.15
303.15
302.923
283.149
303.15
303.15
291.364
283.15
292.585
283.15
283.15
283.153
291.21
284.84
303.15
296.645
283.15
303.746
303.134
284.313
302.59
283.15
292.162
303.084
301.677
283.15
303.15
283.15
304.104
284.819
296.873
303.15
303.15
303.15
303.15
303.15
303.15
302.342
302.805
297.613
292.012
303.15
287.129
292.635
284.974
303.206
283.15
286.913
302.749
284.761
283.148
287.478
303.15
283.381
302.916
292.525
302.843
301.902
303.15
302.224
303.15
303.15
297.921
303.15
284.469
303.15
303.15
283.15
303.15
303.15
302.842
303.15
283.297
283.15
283.15
285.805
284.909
300.897
286.091
303.15
294.687
303.15
290.451
303.15
287.139
300.676
301.478
293.347
303.15
303.15
303.15
289.806
283.15
303.15
289.559
283.15
283.15
301.819
303.15
286.191
283.148
283.15
303.15
303.15
300.651
298.177
303.15
293.414
303.038
283.15
298.56
303.15
286.417
288.231
302.141
303.15
296.281
296.734
302.952
301.877
301.655
303.15
303.15
303.147
303.15
283.15
303.15
289.563
300.062
294.327
302.128
283.15
300.355
291.392
298.211
283.602
298.314
289.592
302.16
283.15
283.15
283.15
302.206
283.15
290.475
283.15
301.259
303.161
289.716
298.042
283.15
303.15
301.247
301.226
303.15
283.15
303.15
286.433
301.436
302.976
302.334
298.005
288.438
303.15
303.15
303.15
294.229
285.96
289.785
295.866
283.956
302.954
303.15
303.15
283.15
283.15
285.422
299.576
303.15
303.15
283.15
303.15
303.15
303.15
300.25
303.15
285.357
292.454
283.15
283.248
293.354
285.697
303.15
303.15
301.882
303.15
299.225
283.147
297.564
303.15
303.15
283.15
303.15
303.15
303.15
305.212
303.15
301.835
301.112
303.15
303.15
301.614
303.15
283.15
287.243
303.104
303.15
303.15
303.15
297.916
303.15
303.15
302.469
302.486
301.774
303.15
283.15
303.15
302.041
302.506
301.521
302.529
283.15
300.642
287.489
297.445
283.15
303.15
303.15
303.15
303.15
294.36
287.57
299.65
303.15
303.15
303.15
303.15
283.15
303.148
284.768
285.146
283.15
303.15
303.15
283.148
299.586
294.933
283.15
303.15
303.15
303.15
303.15
289.608
289.665
303.15
303.15
302.395
303.15
301.442
283.95
291.891
303.15
283.15
301.16
303.123
303.15
303.073
301.315
286.819
303.15
303.15
303.15
303.15
293.283
284.146
303.15
302.693
298.053
289.427
303.15
303.15
303.15
303.15
299.532
303.151
303.15
303.15
298.248
302.584
288.341
303.15
303.15
297.736
303.15
303.15
303.15
303.15
288.809
303.15
283.15
283.15
295.927
291.089
303.15
303.15
303.15
296.988
303.146
303.15
303.15
303.15
303.15
303.407
300.874
303.15
287.336
302.641
299.379
303.15
303.15
303.15
303.15
283.15
285.655
303.15
302.845
283.15
302.176
303.15
303.134
303.15
283.15
301.919
285.705
283.15
302.825
303.15
302.417
283.15
303.15
303.15
303.151
303.15
283.27
303.15
290.849
283.15
283.15
303.15
303.15
298.82
302.379
283.15
302.411
283.15
284.093
287.988
302.704
283.15
303.155
302.987
303.134
284.392
283.156
302.982
283.15
283.15
283.156
302.073
302.289
303.15
283.15
283.15
295.339
303.15
283.15
303.15
303.15
303.15
303.108
303.045
302.93
302.447
303.15
302.903
303.15
284.82
303.15
303.15
283.15
303.15
303.11
303.15
283.15
303.15
288.318
303.15
303.15
303.166
283.15
302.845
302.073
296.682
303.15
289.307
294.489
283.8
289.955
283.15
283.15
287.214
284.319
283.15
303.818
283.15
286.417
303.15
283.15
303.156
303.15
303.15
303.012
303.155
303.15
283.15
303.138
303.15
283.15
283.105
298.736
302.702
303.15
301.845
303.15
285.712
303.152
301.181
303.15
303.15
301.045
303.15
303.15
303.15
287.695
303.15
285.147
303.15
303.147
303.15
283.15
283.15
303.15
303.15
303.15
288.712
302.548
303.15
303.15
288.581
286.503
291.21
303.15
302.701
287.674
287.532
303.15
303.15
287.676
283.15
291.896
303.15
303.152
303.149
303.15
300.517
283.15
302.301
283.15
303.15
303.15
303.15
303.15
303.15
284.33
302.247
291.034
303.15
303.15
290.566
303.15
303.15
303.15
303.15
303.15
300.143
303.15
303.15
283.15
299.447
303.15
283.15
303.15
301.366
283.15
299.951
290.713
302.684
300.014
299.429
303.15
303.15
303.15
300.821
288.474
283.15
303.15
300.311
303.15
303.15
291.961
303.15
287.482
303.15
297.816
284.314
303.15
283.15
303.15
303.15
303.15
285.244
303.15
300.484
303.15
303.15
299.693
283.15
284.751
303.15
303.15
288.104
301.532
296.407
303.15
303.15
303.15
301.55
292.26
303.15
283.15
303.15
300.661
303.15
284.773
296.287
303.15
303.15
301.132
303.15
303.15
283.15
303.15
283.15
294.548
303.15
283.15
303.15
303.15
303.15
303.15
303.15
303.15
283.15
301.499
283.15
302.076
303.15
303.15
296.06
300.47
303.15
283.15
303.15
300.876
283.15
303.15
303.15
303.15
300.726
303.15
297.656
303.15
285.828
283.15
286.73
303.15
303.15
298.489
283.15
303.15
287.848
283.245
303.15
303.15
285.075
283.846
300.846
301.728
301.18
293.142
301.734
283.845
303.15
297.694
283.15
283.15
303.15
303.15
303.15
301.202
303.15
303.15
303.15
303.129
283.169
283.15
283.556
303.15
302.012
283.15
303.142
296.089
283.15
294.571
303.15
303.15
283.15
299.879
283.926
303.15
283.15
299.905
303.15
297.648
303.15
295.287
303.15
283.15
303.15
283.15
299.413
283.15
283.226
283.15
286.198
303.15
303.15
283.15
283.15
303.15
303.15
303.15
303.15
284.876
284.734
283.15
303.15
283.232
283.15
283.15
303.154
289.854
283.536
283.15
301.493
284.869
300.458
288.165
303.15
303.15
303.15
303.15
283.15
283.15
283.15
303.15
283.15
283.15
303.15
283.15
297.261
283.15
303.15
283.15
303.15
303.15
283.316
283.15
303.15
301.941
303.149
303.15
303.15
303.15
288.719
283.15
303.15
303.149
283.15
303.15
303.15
303.15
295.23
283.15
283.181
303.15
303.15
303.15
303.15
303.15
303.149
303.147
284.099
303.15
283.15
303.15
303.149
303.15
303.148
303.149
283.15
283.15
283.15
303.15
303.15
283.15
303.149
283.15
287.699
283.15
301.809
283.15
303.154
303.15
284.606
283.15
284.449
297.369
303.15
284.689
303.173
303.15
297.377
283.15
303.15
303.15
303.15
303.15
283.15
303.15
303.15
299.144
283.15
303.15
303.15
303.15
303.15
292.313
290.344
303.17
283.165
303.15
301.806
302.31
303.15
283.15
283.15
303.15
303.15
303.15
283.15
283.15
283.821
303.15
303.15
303.197
303.151
283.15
288.844
303.15
283.15
303.15
288.065
303.15
283.15
302.114
283.15
283.15
283.15
303.15
299.669
303.15
303.15
303.15
283.15
284.502
293.582
295.203
289.532
303.12
303.017
283.15
283.15
301.013
283.692
283.15
303.149
303.15
303.15
283.15
294.534
303.15
283.15
302.978
303.15
303.15
283.794
303.15
303.15
288.396
289.541
303.15
283.15
303.15
283.15
303.15
303.15
303.15
303.15
283.946
303.15
303.15
303.15
302.927
303.15
303.15
283.15
283.15
283.15
283.15
302.94
283.15
283.15
300.958
303.15
284.767
284.927
303.15
301.116
303.15
283.15
303.15
283.15
283.15
303.15
303.15
303.15
302.659
303.15
303.15
303.15
283.15
303.15
283.15
286.365
303.15
303.15
291.613
303.15
283.15
283.15
302.414
303.15
303.147
283.15
303.192
286.65
283.15
283.15
299.192
283.15
283.15
303.046
303.161
293.321
303.167
303.151
303.152
283.15
283.15
302.642
283.452
285.822
300.834
283.157
283.15
291.039
301.559
301.455
283.15
300.204
290.694
300.134
302.199
302.742
284.68
295.466
299.197
286.255
293.286
300.092
303.15
297.95
297.55
302.786
283.658
292.341
301.134
287.331
303.15
301.044
303.15
300.711
301.487
283.632
284.971
303.15
283.15
302.275
301.681
283.146
303.173
288.548
302.673
301.826
300.815
303.15
303.232
301.116
295.056
300.417
288.936
302.909
301.625
302.184
302.266
284.209
302.498
301.584
283.178
303.15
302.893
303.15
303.15
302.091
301.997
294.253
303.15
284.662
292.3
292.325
300.904
303.15
284.007
285.185
284.387
303.15
298.76
303.15
296.363
295.365
300.742
303.142
303.15
303.15
301.937
301.253
302.782
303.15
292.606
302.741
289.943
283.15
298.338
293.985
303.15
300.5
283.15
283.203
283.15
302.57
303.097
303.15
302.979
298.373
283.148
300.491
302.216
295.319
283.535
295.84
297.053
283.46
303.133
284.731
296.312
283.319
296.846
300.494
300.237
300.342
301.997
289.801
301.566
303.15
302.715
302.645
302.648
296.491
302.881
283.15
302.008
293.425
303.15
283.433
286.838
301.186
302.595
290.52
284.818
287.698
302.62
296.374
303.15
303.15
295.008
283.15
292.681
283.43
303.15
290.562
290.31
283.911
303.15
297.278
298.484
284.222
301.229
294.165
290.172
300.528
303.106
303.15
303.15
283.528
302.608
283.348
285.786
303.15
303.017
303.036
303.15
285.413
300.788
297.831
283.245
299.558
302.368
300.502
286.89
283.15
303.106
301.813
283.736
283.137
303.15
303.072
303.15
303.15
284.175
302.525
296.364
283.034
283.153
303.15
283.15
302.948
303.043
302.498
301.4
303.15
283.15
283.15
301.811
301.867
283.214
295.868
303.15
303.15
301.608
285.485
283.258
301.671
301.772
301.721
284.405
303.15
283.15
298.448
297.748
303.15
302.7
302.077
284.702
284.967
302.107
303.052
303.15
298.124
284.43
283.15
303.15
300.574
301.205
302.011
289.606
302.069
285.65
300.129
300.267
290.335
297.518
303.15
303.15
300.926
284.457
302.088
283.151
300.495
301.703
283.622
288.297
302.418
283.15
283.15
283.029
303.15
303.15
299.928
298.932
302.283
283.147
283.15
283.932
283.151
283.15
283.152
303.074
300.923
299.165
295.869
283.367
303.097
300.127
303.15
283.15
302.554
289.227
300.773
292.696
283.503
303.06
283.148
283.15
302.835
301.198
302.612
283.156
291.28
284.868
303.15
284.258
301.033
283.15
283.309
284.934
284.157
283.15
283.15
301.628
283.15
289.366
302.525
302.702
301.774
283.48
298.298
290.019
283.15
303.345
292.092
283.15
283.15
283.15
303.15
301.198
302.411
299.163
301.461
299.913
288.849
283.155
290.988
290.161
303.059
291.081
299.977
292.06
283.15
286.29
301.077
301.536
283.15
283.975
299.631
283.15
303.15
283.187
301.274
303.15
284.017
302.255
303.02
303.15
283.15
292.793
303.153
301.687
283.15
283.15
283.15
302.193
297.564
303.143
302.191
303.166
303.15
288.374
303.166
290.437
300.219
300.179
296.582
283.156
301.695
283.15
290.589
301.405
289.45
290.485
298.971
300.684
301.591
287.176
291.144
285.018
283.172
302.214
286.126
283.15
283.144
300.202
283.079
300.293
286.993
296.051
299.424
289.198
299.266
283.121
299.132
283.15
290.001
289.057
298.656
283.329
283.15
300.566
283.15
302.798
283.15
303.15
286.485
286.484
283.15
298.981
298.554
287.043
303.15
303.15
301.727
289.788
302.997
283.725
301.571
287.087
303.147
284.192
288.198
303.15
301.421
283.15
283.15
287.565
287.024
283.145
285.246
301.491
286.24
301.172
303.15
285.108
301.741
291.188
303.15
303.15
301.613
302.042
303.15
293.026
294.28
283.679
296.386
286.789
290.016
303.15
302.779
297.003
285.015
283.15
287.726
291.911
299.645
283.163
283.747
282.944
301.945
303.116
283.151
303.133
303.15
300.563
293.063
298.804
293.83
283.15
291.941
295.981
285.594
283.21
291.582
283.15
300.262
303.164
292.543
284.097
303.144
291.85
298.605
288.235
300.348
291.331
287.322
283.15
303.142
285.347
289.886
293.475
283.15
283.15
283.15
303.141
283.15
283.137
286.43
303.15
283.15
303.167
283.172
291.108
288.969
303.529
302.911
289.862
303.15
296.968
303.176
301.998
287.262
283.15
292.914
303.145
303.094
286.188
283.15
283.15
283.474
286.019
303.054
303.144
287.511
289.475
283.48
283.162
289.853
293.21
303.15
283.15
303.096
303.15
302.328
285.012
302.335
303.093
284.056
283.77
284.034
302.85
302.178
297.387
293.978
303.07
291.276
291.029
303.15
303.097
302.581
285.435
283.378
303.15
285.941
283.384
302.93
301.663
302.171
283.15
300.323
301.844
303.15
302.151
285.408
303.15
297.886
303.15
283.15
300.672
302.682
286.334
302.485
283.15
285.163
303.01
283.15
302.304
285.373
294.871
284.338
303.15
303.016
302.872
286.504
283.15
287.124
284.249
289.781
285.726
302.246
303.15
283.15
283.15
293.128
283.15
301.041
302.157
290.362
283.15
294.019
283.15
303.15
283.15
300.051
298.545
283.151
285.273
301.718
303.073
303.156
291.836
294.184
301.194
283.208
301.793
283.145
303.15
303.141
299.047
283.15
300.852
294.751
303.15
300.939
287.307
301.945
284.896
288.197
283.15
302.216
287.729
298.404
303.074
283.15
303.15
291.633
302.156
283.076
283.147
286.738
298.328
303.149
284.486
301.019
300.991
301.245
303.153
299.876
287.644
284.921
301.574
299.88
283.725
283.104
303.16
303.149
303.15
297.325
283.163
283.15
303.15
303.149
289.901
298.899
300.268
287.777
302.799
303.15
286.426
301.546
303.15
300.947
283.796
301.447
303.15
284.536
301.374
295.498
302.763
303.15
303.15
285.17
295.034
296.344
287.371
303.15
303.15
283.15
287.205
302.397
296.133
303.15
285.543
303.15
303.15
300.443
288.706
283.15
295.519
295.844
299.057
283.15
303.15
292.655
287.214
303.15
297.923
300.48
300.386
303.15
303.15
303.15
300.193
298.294
302.797
299.861
283.15
292.866
287.66
290.575
300.552
303.15
303.15
300.732
303.096
286.547
296.072
303.15
303.147
283.15
286.428
298.893
285.572
303.15
303.15
283.34
303.122
303.15
303.15
283.15
290.501
303.15
303.15
284.569
299.262
283.15
303.15
284.614
301.308
300.144
286.975
294.917
303.15
283.492
303.15
303.15
283.311
300.511
290.375
300.375
303.15
303.129
302.171
292.617
299.775
301.344
284.444
283.452
300.823
298.357
303.15
302.745
284.125
299.7
301.359
287.672
303.15
297.393
301.388
301.475
301.515
292.867
303.15
283.15
299.165
283.15
283.15
287.733
283.15
284.001
283.15
283.15
283.15
283.15
302.75
288.13
302.698
283.15
295.654
290.913
284.725
283.15
303.15
302.672
301.727
303.163
302.631
283.15
294.767
300.239
290.148
283.15
283.15
299.794
285.925
283.15
283.15
303.149
290.547
283.15
287.123
303.149
303.152
284.308
283.15
288.173
292.401
300.778
294.571
302.955
285.61
302.494
295.216
286.255
283.15
283.534
291.594
303.073
289.097
302.65
283.15
292.341
287.73
301.006
301.243
284.878
303.105
284.89
297.03
302.981
303.146
285.12
303.145
303.003
293.272
302.67
283.15
303.15
303.15
294.729
291.012
283.155
301.082
284.674
284.145
284.606
303.145
288.33
300.434
283.15
283.15
302.498
303.15
294.53
302.897
303.182
299.79
303.222
302.879
283.15
301.266
302.875
283.15
303.15
301.295
303.15
284.297
298.733
283.163
291.502
283.15
287.559
303.011
299.717
283.15
303.022
290.881
301.177
303.126
303.078
283.15
283.15
301.921
301.985
283.794
302.805
302.408
302.362
303.141
283.15
293.672
283.15
302.782
287.844
302.985
303.15
283.15
302.816
285.101
291.449
302.03
283.15
302.576
301.978
301.547
302.476
303.044
303.21
303.009
303.15
283.15
301.498
297.785
303.086
303.15
289.892
284.876
303.15
283.15
285.29
303.184
303.165
302.915
301.115
284.253
303.096
290.635
294.187
303.148
289.01
303.164
283.15
289.803
283.15
299.93
298.088
284.762
288.147
299.586
296.624
295.249
299.137
293.727
303.153
293.788
296.344
283.16
299.348
293.816
303.15
298.865
299.103
303.15
291.139
303.172
301.659
303.15
286.901
286.01
302.796
289.634
283.15
283.15
300.33
301.115
283.713
283.15
303.15
300.197
302.309
300.587
299.831
302.781
292.537
289.602
286.611
292.451
284.297
290.362
283.303
295.659
290.393
293.877
287.056
284.271
303.163
283.271
303.148
285.582
300.694
283.151
300.366
298.355
288.71
302.085
285.38
299.039
283.15
302.95
283.154
283.116
287.639
299.628
303.15
300.323
303.017
299.893
302.756
303.15
301.235
284.943
294.872
302.033
303.149
283.704
283.15
290.258
285.227
285.738
303.129
303.148
283.15
283.15
283.176
303.15
293.408
303.15
303.149
294.241
303.433
303.15
300.395
303.15
303.15
293.611
290.57
303.15
289.796
302.043
289.521
303.15
303.15
285.922
283.332
290.282
303.225
303.15
303.145
285.456
283.244
283.15
288.947
287.567
303.15
284.296
303.15
303.15
303.132
287.307
303.15
303.147
283.276
303.152
302.656
287.884
283.152
283.594
297.287
290.691
303.15
285.918
284.416
301.304
287.084
302.2
290.551
293.812
303.15
303.15
284.003
303.148
302.943
295.828
302.938
302.736
287.146
283.15
285.297
283.217
297.081
302.578
285.358
303.15
283.788
286.693
303.124
283.175
303.15
286.361
283.15
300.092
303.15
299.692
299.858
283.252
283.358
302.315
290.791
301.31
303.15
301.374
301.726
303.15
303.15
298.293
293.369
283.15
288.738
303.15
295.175
283.355
303.15
296.852
298.667
288.951
303.15
302.752
294.156
295.321
284.455
303.161
298.631
296.065
283.972
303.123
302.796
287.342
298.383
289.785
290.761
289.702
283.15
302.94
303.152
303.15
303.175
293.029
296.251
302.973
301.269
303.15
284.441
303.15
303.04
302.853
303.15
293.5
296.187
303.15
285.362
303.095
303.15
303.088
303.158
286.046
293.277
291.072
288.37
293.362
303.15
301.181
291.371
295.311
293.401
303.141
303.15
300.529
303.189
284.233
303.19
303.15
303.15
303.143
303.15
284.926
303.15
284.213
303.146
303.15
290.184
303.144
292.422
295.469
303.133
295.269
285.973
283.443
303.125
302.932
284.665
283.15
297.063
303.15
285.489
302.91
302.022
303.016
298.372
287.031
303.15
298.65
289.864
299.312
283.15
283.61
303.15
303.145
303.19
294.021
303.15
292.387
289.304
303.195
303.15
284.777
298.708
293.169
299.54
302.465
301.571
300.347
303.15
284.706
296.904
302.355
285.568
298.303
292.239
284.457
291.592
303.15
286.622
291.774
290.096
299.396
303.15
286.43
284.079
303.15
302.416
288.11
302.089
283.15
303.15
299.792
301.675
288.957
301.968
301.895
301.791
303.15
289.278
285.116
301.945
302.222
297.095
303.15
283.201
303.15
301.968
303.15
302.793
303.15
291.628
303.15
296.451
283.15
289.405
303.15
283.15
292.155
301.415
300.374
289.164
300.453
303.15
302.484
303.15
302.358
285.191
303.15
300.361
290.357
303.15
300.768
303.15
303.15
293.141
283.15
285.53
293.178
300.886
303.15
291.122
293.804
288.147
289.621
288.081