/*--------------------------------*- C++ -*----------------------------------*\
  =========                 |
  \\      /  F ield         | OpenFOAM: The Open Source CFD Toolbox
   \\    /   O peration     | Website:  https://openfoam.org
    \\  /    A nd           | Version:  10
     \\/     M anipulation  |
\*---------------------------------------------------------------------------*/
FoamFile
{
    format      ascii;
    class       volVectorField;
    location    "8.4";
    object      U;
}
// * * * * * * * * * * * * * * * * * * * * * * * * * * * * * * * * * * * * * //

dimensions      [0 1 -1 0 0 0 0];

internalField   nonuniform List<vector> 
111485
(
(2.90724 -2.90794 0.00359809)
(8.49786 -0.0225958 -0.0492541)
(8.37273 0.0200361 0.026013)
(2.90789 -2.90863 0.000249632)
(8.69884 0.0382567 -0.00330661)
(3.05042 3.04879 0.000209076)
(8.55029 0.0250903 0.00209284)
(8.78329 -0.025051 0.0120755)
(8.55428 -0.00497668 0.00616176)
(8.75417 -0.0949156 -0.0411495)
(8.42299 0.0207245 0.0250422)
(8.81227 -0.0217254 0.0406158)
(8.30045 0.00707216 0.0186567)
(8.38337 -0.01759 -0.0607719)
(8.49805 0.0335892 0.0179065)
(8.67748 -0.0587094 -0.0479674)
(8.54189 -0.00935633 0.0127287)
(2.99875 -0.220206 0.445619)
(8.72202 0.0251015 -0.0193283)
(2.88711 -2.88323 -0.00148164)
(2.89233 -2.89187 -0.00337628)
(3.05802 3.05703 -0.000253098)
(8.6265 0.0296275 -0.00905174)
(8.7615 -0.0590286 -0.0173972)
(8.58284 0.0332081 -0.0100156)
(2.93085 -2.91745 -0.00279354)
(8.85363 -0.0441384 0.0459149)
(8.37768 -0.0126454 0.00351464)
(8.7478 0.0152316 -0.0198162)
(2.89744 -2.89864 -2.41486e-05)
(8.81618 0.143493 -0.0375262)
(8.70957 -0.0192589 0.00250183)
(2.88519 -2.89145 0.00427024)
(3.05437 3.06064 -0.00750936)
(3.06311 1.28081 0.48856)
(3.07345 3.094 -0.0449286)
(8.77345 0.144034 -0.0579009)
(8.48818 0.0311527 0.0744102)
(8.73892 2.64812 0.147826)
(8.71235 0.0423523 0.0033305)
(3.0169 3.04431 -0.0212745)
(8.80863 0.0101987 -0.0508158)
(8.70308 0.0440957 0.0151216)
(8.39553 -0.0509447 0.00141188)
(8.77902 -0.153718 -0.0792309)
(2.91531 -2.89378 0.0152538)
(8.80791 -0.0405784 0.0415639)
(8.74894 -0.0545127 -0.0164149)
(8.80919 0.00409247 -0.0382169)
(2.89076 -2.85601 0.0166024)
(2.87431 -2.84841 0.0178025)
(3.47236 2.92176 0.0505461)
(2.86676 -2.85545 0.00926548)
(8.79421 0.0398918 -0.0738669)
(2.85943 -2.84698 0.000944628)
(8.69371 0.0232419 -0.00787498)
(8.69624 -0.0371191 -0.0176051)
(3.05798 3.05206 0.00174102)
(7.93116 -0.0178173 -0.13978)
(8.73679 0.0356613 -0.00523328)
(8.73528 0.0396093 -0.00374104)
(2.89829 -2.90398 0.0037204)
(8.09855 0.00860655 0.0529062)
(8.83757 -0.022677 0.0695236)
(3.15295 2.85818 0.00465937)
(7.9696 0.0182698 -0.0153377)
(6.12883 -0.487589 0.215185)
(8.76716 -0.0348421 0.014118)
(7.90397 0.00432736 0.0231034)
(7.47574 -0.014885 0.00381674)
(8.45515 0.0513114 -0.0423889)
(7.84299 -0.00813776 0.0245381)
(3.13915 -2.82591 -0.0652861)
(8.01095 0.0149764 0.0619875)
(2.9045 -2.90349 -5.32817e-05)
(8.72175 -0.0203646 0.00963645)
(3.05714 3.05719 -0.000561164)
(8.79897 -0.0187741 0.0467037)
(3.05625 3.05441 -0.000413889)
(2.75272 2.68591 -0.0911922)
(8.47981 -0.13068 0.0884815)
(8.7572 0.0344952 0.00763615)
(3.04585 3.03861 -0.000181758)
(2.90495 -2.90509 0.00163009)
(8.24728 -0.00144219 0.0160991)
(7.90444 0.0216758 -0.0325735)
(6.79077 4.40939 -1.18329)
(8.67723 0.102632 0.00939243)
(8.35995 0.215375 0.184259)
(8.46537 0.0109534 0.0256656)
(8.95416 0.179619 -0.114374)
(8.70778 -0.0150444 0.0139139)
(8.14505 -0.0124837 0.032486)
(8.28028 -0.0096931 0.00893932)
(8.81913 0.0267751 -0.0553014)
(2.90484 -2.90447 -0.000686403)
(2.89992 -2.89885 0.00155657)
(8.67391 0.0958165 0.0298988)
(8.93434 -1.77205 0.124453)
(8.1253 0.0300061 0.0533488)
(2.90474 -2.90524 0.0014407)
(8.72347 -0.0474658 0.00471361)
(3.07032 3.07545 0.0168442)
(8.65169 0.000582426 -0.00478043)
(8.57557 -0.0444112 -0.0549876)
(2.99938 2.6833 -0.0630946)
(3.05698 3.05592 -0.000564414)
(8.71692 -0.023745 -0.00232777)
(8.05382 -0.0443331 0.0100682)
(7.71893 -0.229589 -0.244729)
(8.24326 -0.00650015 0.0150859)
(8.6602 0.0123422 -0.00479119)
(8.07698 -0.00499362 0.0327504)
(7.95158 -0.0416604 0.0177187)
(2.93287 -2.91699 0.00226286)
(7.6468 -0.00716694 0.0232357)
(2.91625 -2.90709 -0.00338513)
(3.07072 3.05767 0.0126871)
(8.5121 0.0320719 0.0252059)
(2.90706 -2.90503 0.00104223)
(2.93204 -2.91616 -0.00154641)
(4.01891 3.16315 0.187794)
(3.02513 3.03779 -0.00577823)
(3.06349 3.05618 -0.00726349)
(8.31914 -0.0208034 0.0405318)
(2.32025 -1.63114 -0.432763)
(3.83196 3.29648 0.116215)
(7.7227 -0.0021239 0.0376912)
(2.90451 -2.90335 -0.00101964)
(8.76023 0.659201 -0.23836)
(8.74533 0.16938 -0.0870178)
(8.65809 0.0983861 0.0293729)
(2.89172 -2.88445 -0.0142641)
(3.93607 3.42341 0.352999)
(3.67308 3.278 0.154761)
(8.74463 0.0262529 -0.0161732)
(3.05929 3.05901 -0.000931347)
(8.67901 0.020427 0.0013797)
(8.62275 0.0399675 0.0235295)
(8.47622 0.0380981 0.0363442)
(6.64305 0.000724414 0.0277893)
(8.69189 0.0449232 0.010561)
(8.61816 0.0444787 0.0281252)
(8.21484 0.00864811 -0.0342304)
(8.58724 -0.0165311 0.00855952)
(8.49232 -0.00435063 0.0214045)
(3.05997 3.06023 -0.000627896)
(2.90481 -2.90608 0.000276823)
(3.05146 3.05314 0.00637141)
(8.69626 0.0385266 0.0068997)
(8.2188 0.0142971 -0.0310068)
(2.89434 -2.89285 0.00182848)
(5.67811 -0.0333418 0.0576059)
(8.47792 0.0409112 0.0191473)
(9.288 0.37483 0.163612)
(8.74339 0.0259338 -0.0169625)
(8.70372 0.0268895 -0.00669621)
(8.06507 0.002634 -0.0157318)
(9.37421 0.458894 0.113244)
(2.8887 -2.91594 0.0112482)
(2.90289 -2.90551 0.00281838)
(8.72853 0.0250303 -0.016726)
(8.55106 -0.0304737 -0.0315331)
(9.43638 0.51716 0.123158)
(9.30739 0.452807 0.169367)
(8.09323 0.0122293 0.0414211)
(8.70918 0.108729 -0.0394273)
(3.01901 3.04425 0.000508363)
(9.54794 0.639982 0.151865)
(9.10769 0.460949 0.140561)
(3.05493 3.05679 0.000878821)
(2.89946 -2.89884 0.000232306)
(6.94494 0.00872627 -0.0541307)
(3.05826 3.05955 0.00040109)
(8.66409 -0.0187885 -0.00360313)
(8.33665 0.00447307 -0.0192122)
(3.05747 2.98424 -0.0167897)
(3.1416 -2.88318 0.0313091)
(2.89872 -2.88387 -0.00481705)
(3.01341 2.84619 -0.0294698)
(3.1578 -2.907 0.0510215)
(2.9025 -2.90435 0.00265074)
(8.67493 0.0336371 0.00914707)
(8.69038 0.020703 -0.0163869)
(8.65914 0.0267372 -0.00895294)
(8.5493 -0.0253865 0.0307398)
(8.23906 -0.0204369 0.00670587)
(8.26805 0.0141294 0.0260989)
(7.33351 0.0952743 0.0100737)
(2.89946 -2.88944 -0.000190109)
(8.0065 0.0013103 0.0102186)
(3.13414 -2.90642 0.0316732)
(2.92598 -2.93105 -0.00147205)
(8.33733 0.0162032 0.0299562)
(8.75848 -0.106028 -0.0385242)
(8.67444 0.0171043 -0.0399412)
(8.32836 -0.00961901 0.0109623)
(8.48134 -0.00637409 0.0099347)
(2.89933 -2.89469 0.00721053)
(8.3182 -0.0375471 0.00635603)
(8.29495 -0.00870474 -0.0522237)
(5.81121 1.85873 0.2387)
(8.50305 -0.0688877 0.00547322)
(8.62374 -0.0144328 0.00740532)
(2.91327 -2.8969 -0.00469123)
(8.30146 0.0211227 0.0297695)
(8.71459 0.0205627 -0.0071853)
(3.18805 -2.87343 0.0145637)
(8.36254 0.021155 0.0319118)
(8.77803 -0.00654062 0.0449902)
(8.21462 0.0092626 -0.0356018)
(8.27735 0.0224174 0.039007)
(3.15484 -2.91648 0.041205)
(2.89781 -2.89798 -0.000813474)
(8.27505 0.0233773 0.0416347)
(5.43155 3.41238 -0.336401)
(8.87862 0.0390368 -0.0868666)
(3.0567 3.05772 -0.00185751)
(8.3266 0.0170098 0.0340387)
(8.33272 0.00583023 0.00463605)
(8.82928 -0.0283098 0.0551998)
(2.90692 -2.9056 0.00113784)
(7.77393 -0.00250514 0.0206738)
(8.72328 0.125333 0.0654365)
(4.80132 3.22783 -0.351729)
(3.05829 3.05882 -0.00224914)
(3.05502 3.05666 0.000837237)
(8.91995 -0.0569897 0.0849843)
(8.32898 0.19819 -0.0234897)
(3.2128 2.7142 -0.0622065)
(3.60477 -2.79095 0.114534)
(8.35872 0.00846367 0.0147806)
(8.63069 0.0147375 -0.000853843)
(8.71623 0.0192756 0.0081584)
(3.16622 2.75775 -0.0813847)
(3.06512 -2.82199 -0.0107843)
(8.39277 0.100106 -0.119282)
(2.90415 -2.90397 0.00173787)
(7.95816 0.0105766 -0.0508247)
(8.26578 0.00545704 0.0347009)
(8.35557 0.00406983 0.0188205)
(8.366 0.0171088 0.0214993)
(8.39976 0.00937653 0.0283307)
(3.04667 3.0473 0.00944887)
(6.32205 -0.0189249 -0.243896)
(8.49911 0.019123 0.0333357)
(3.04196 3.04718 -0.00369949)
(3.05692 3.05877 0.00035732)
(8.85829 -0.107626 -0.0103003)
(8.65638 0.0391314 -0.0130361)
(3.12963 2.66792 -0.0831858)
(7.88106 -0.00331613 0.023911)
(8.48261 0.0243758 0.022621)
(2.90646 -2.90504 -0.000884607)
(3.84884 3.6497 -0.0184673)
(8.71552 0.0801207 -0.0352038)
(2.91761 -2.87966 0.00154527)
(3.22938 -2.28891 -0.054551)
(4.44241 -1.54864 -0.157357)
(2.90962 -2.90125 -0.00147358)
(8.53252 -0.015318 -0.0164901)
(8.29476 -0.0132998 -0.016343)
(8.63905 0.0137772 -0.021529)
(2.90285 -2.9033 -0.000216648)
(8.55058 0.0241015 0.0201305)
(2.90786 -2.90861 0.000204452)
(2.90711 -2.90809 0.000680756)
(2.89924 -2.88794 0.00478238)
(5.83391 0.0224796 -0.09041)
(8.78128 -0.0424958 0.0498087)
(8.35856 0.0309845 0.0430845)
(8.51761 0.0286518 0.0138794)
(8.81354 -0.0506954 -0.00205843)
(8.47788 0.0127733 0.0152332)
(8.69013 0.0316199 0.0109663)
(8.75356 0.149309 -0.0144797)
(8.56693 0.0118304 -0.00364498)
(8.6405 0.0151798 -0.00437367)
(3.10968 3.06018 -0.00186683)
(2.89547 -2.89563 -0.00379545)
(5.33121 0.0330107 -0.129803)
(8.68938 -0.0195824 0.00235151)
(8.75907 0.06671 0.071193)
(8.2697 -0.0106981 -0.0135966)
(2.9075 -2.9058 0.000770073)
(8.64397 0.0275917 0.0160503)
(8.68001 0.0443175 0.0213578)
(8.5047 0.0197521 0.0109923)
(7.47704 -0.00778648 -0.0402808)
(7.83952 -0.092205 -0.19616)
(8.6303 0.0270087 0.009979)
(8.4939 0.0240591 0.0155948)
(8.64872 0.0668148 -0.0423594)
(3.05731 3.05757 0.000409307)
(7.93461 0.0444099 -0.00268706)
(3.05624 3.0566 -0.00094003)
(2.48207 1.89032 -0.395608)
(3.27593 -2.09367 -0.213381)
(8.99064 -0.0817611 0.119425)
(8.81611 -0.0507507 -0.00171535)
(8.60711 -0.00352244 0.00184478)
(2.90948 -2.90191 -0.000892408)
(3.04401 3.06185 0.0252003)
(8.63384 0.0291552 0.0143964)
(8.26482 0.018232 -0.0115774)
(2.89595 -2.89529 0.000806355)
(2.90757 -2.90542 0.00239278)
(2.84035 -2.85782 0.018928)
(8.2001 0.0112863 -0.00445921)
(8.60161 0.00944335 -0.00890114)
(8.20905 0.00222676 0.0300875)
(7.9414 0.0138657 -0.0425931)
(8.76882 0.0199564 -0.0207563)
(3.50051 3.00543 0.0837106)
(3.05076 3.05809 0.00555023)
(2.90425 -2.90064 -0.00135175)
(8.59766 0.0335066 0.0230792)
(5.57704 -4.71835 -0.338906)
(8.19148 -0.00980218 0.012162)
(8.92555 -0.0626441 0.196155)
(7.18652 0.00546549 -0.149338)
(3.05847 3.05795 -0.000349171)
(2.90249 -2.90577 0.00206365)
(2.90739 -2.90854 -0.00145537)
(3.8506 3.23139 0.198166)
(8.70929 0.0263793 -0.00331895)
(8.78248 -0.0512097 0.00908887)
(3.06257 3.07042 0.000992624)
(8.65164 0.0241054 -0.00164935)
(3.22824 2.61766 0.184309)
(2.91039 -2.87657 -0.00699656)
(8.86405 -0.0304404 0.0725808)
(8.62886 0.0321358 0.0158849)
(8.81803 -0.0118001 0.020821)
(8.65504 0.0246896 0.000355834)
(2.93859 2.60777 0.158594)
(3.81175 3.28179 0.20904)
(3.05024 3.05411 -0.00438127)
(8.64146 0.0303448 0.0114838)
(8.62885 0.024337 -0.00255366)
(8.78859 0.156522 -0.0534241)
(3.02266 3.01572 0.00554425)
(6.03224 5.3412 -1.27786)
(8.24014 0.0821886 0.0749382)
(8.79051 -0.0417611 0.0214461)
(8.65108 0.0314334 0.0196076)
(8.23349 0.858873 -0.0693833)
(8.76835 0.0195964 -0.024893)
(3.04528 3.04521 0.00133938)
(8.76997 0.0212801 -0.0135483)
(8.42548 0.0120444 0.0175988)
(8.87025 -0.209236 -0.00161522)
(8.89178 -0.0534571 0.108895)
(8.59339 -0.0694053 -0.0633168)
(3.04369 3.05709 -0.0114102)
(2.90103 -2.90424 -0.00546159)
(3.06276 3.04487 0.0116361)
(2.88261 -2.89092 -0.000563212)
(8.77175 -0.0418523 -0.000826582)
(8.69248 -0.0127157 0.00330783)
(8.69642 0.0419666 -0.033538)
(8.76246 0.0245998 -0.0274149)
(3.03215 3.03525 -0.0130811)
(8.67421 -0.064043 -0.0234659)
(3.05379 3.05467 0.00111902)
(2.89411 -2.90238 0.000124162)
(8.76361 0.024904 -0.0180572)
(2.67239 -2.6754 0.0386469)
(4.81491 -0.854801 -0.0670201)
(2.87091 -2.86019 0.00240691)
(3.08278 3.0418 0.0243743)
(8.6805 0.0156893 -0.0120918)
(3.05623 3.05452 0.00111869)
(8.57243 0.0248035 -0.00504585)
(8.15487 0.00465697 -0.0377554)
(3.06162 3.06177 -0.000753479)
(7.85215 -0.00355357 -0.0373293)
(8.53331 0.0152422 0.0123433)
(3.07962 2.70374 -0.0990172)
(8.49581 0.0381936 0.0426306)
(8.03359 0.0426887 -0.00377774)
(8.5504 0.0405292 0.0121109)
(7.96853 0.0299988 0.100453)
(8.62821 0.0249328 0.00429303)
(8.24123 0.00212967 -0.0161157)
(3.02306 2.58619 -0.0130106)
(2.89483 -2.88946 0.0173561)
(7.38488 0.0117288 0.173766)
(3.0355 3.04604 -0.0173013)
(8.5359 0.0464426 0.040768)
(8.87035 -0.0450954 0.0888463)
(3.07036 2.93587 0.024594)
(3.04965 3.06256 -0.000875994)
(8.74683 -0.0175044 0.00673579)
(8.43013 -0.0396958 -0.086742)
(8.45245 0.0452192 0.00141594)
(8.76142 0.0205998 -0.00783221)
(3.05685 3.05249 -0.00147441)
(8.90817 -0.0256973 0.144043)
(8.7751 -0.0300062 0.0440941)
(3.06599 3.0608 -2.43429e-05)
(8.58854 0.133779 0.109056)
(8.20089 -0.0333625 -0.0885872)
(2.90029 -2.89974 -0.00071324)
(2.89688 -2.89683 0.000933148)
(8.56362 0.0258714 -0.00905632)
(8.61524 0.00753288 -0.0129294)
(3.06912 3.06923 -0.00388912)
(2.90297 -2.89688 -0.00459538)
(5.12896 -2.75694 0.630021)
(2.90664 -2.90861 0.000607574)
(8.61314 -0.00300996 0.0160652)
(3.0364 3.04788 0.00703428)
(2.90758 -2.90849 0.000232047)
(8.82234 -0.0125219 0.028525)
(7.99407 -0.0932513 -0.231079)
(8.72576 -0.0520583 0.011795)
(8.43058 -0.000975244 0.0162267)
(3.06366 3.06151 0.000204897)
(3.96191 3.05667 0.153146)
(8.4286 0.113009 0.161341)
(3.71354 3.27626 0.173422)
(8.40245 0.0360804 0.0661151)
(8.36808 -0.0711897 0.00713615)
(8.73619 -0.0254612 -0.0234377)
(6.07985 0.197046 0.226121)
(3.64463 3.14267 0.157229)
(8.72435 0.0141246 -0.0826517)
(8.84199 0.27561 -0.0918382)
(2.9025 -2.90774 0.00538659)
(8.81149 0.0229494 -0.0873082)
(8.82296 -0.039227 0.0325595)
(2.90796 -2.90734 0.00298742)
(8.50057 0.487523 -0.260697)
(7.4332 3.08e-05 -0.10212)
(3.85416 3.0344 0.127622)
(8.78795 -0.0219008 0.0360656)
(8.68106 0.0139073 -0.00982054)
(8.63292 0.0235637 -0.00627414)
(3.05631 3.05369 -0.000919932)
(8.5947 -0.0128604 0.0595936)
(8.82032 -0.00347318 0.0282971)
(8.56289 0.0839161 -0.00849358)
(5.40151 -0.073115 0.0904326)
(3.71139 3.50436 -0.0706124)
(5.09742 -0.129982 0.173545)
(2.90181 -2.90572 0.0021356)
(7.92336 -0.268757 -0.262169)
(8.59657 -0.0144528 -0.0566147)
(3.05772 3.05549 0.00483487)
(8.17886 0.0205183 -0.0626175)
(6.73841 -0.0176294 0.123575)
(3.95943 3.50519 -0.0366058)
(2.9047 -2.90275 0.000187145)
(3.40532 -2.88905 0.0940719)
(2.90695 -2.90583 -0.00034204)
(8.53404 0.0477566 -0.00621417)
(8.62083 0.0463411 -0.0148972)
(8.54437 -0.0244479 -0.0248089)
(8.02598 0.022087 -0.0448777)
(8.74819 -0.178457 -0.0369233)
(3.05508 3.04185 -0.00582123)
(8.4877 0.000236657 -0.0211797)
(2.9133 -2.89192 0.000364006)
(8.40027 0.0314167 0.0203201)
(3.06709 3.06739 -0.00133545)
(2.90479 -2.90216 1.33559e-05)
(2.8751 -2.88323 -0.00388772)
(8.25465 -0.0556185 0.0118941)
(2.89419 -2.89534 -0.00244876)
(2.90634 -2.90657 0.00124795)
(3.0151 2.01352 -0.123462)
(2.9069 -2.90867 0.00102026)
(3.02441 3.06629 0.028826)
(8.46056 -0.0312012 -0.0132216)
(3.05829 3.05405 0.00110839)
(3.62226 2.67647 0.00522196)
(3.05868 3.06051 0.00366945)
(2.89575 -2.88605 -0.00104391)
(3.05769 3.04665 -0.0042386)
(2.89471 -2.88004 -0.0147395)
(3.03964 3.04199 6.93545e-05)
(7.69964 0.00206977 -0.0659124)
(3.06235 3.04614 0.0121883)
(7.89678 0.117345 0.160073)
(8.64284 0.0118141 -0.00362574)
(8.9145 -0.366384 -0.0631056)
(3.06483 3.04954 -0.000591873)
(7.52267 0.021902 0.125152)
(3.06239 3.0517 0.0029499)
(2.90746 -2.90866 -0.00131776)
(8.51673 -0.0809659 -0.0873187)
(8.52901 -0.0657278 -0.0789973)
(8.54842 -0.0185979 -0.0234502)
(8.93156 0.0228435 -0.15218)
(3.51151 2.95707 -0.0973247)
(8.75113 0.0100687 -0.0471384)
(8.74595 0.0151829 -0.0428472)
(8.64453 0.015805 -0.000285414)
(8.50413 0.00959918 0.00285905)
(8.65819 -0.0880778 -0.0606428)
(2.89419 -2.89573 -0.000834782)
(8.65228 0.0119969 8.16396e-05)
(3.99615 3.48111 -0.0269107)
(8.62126 0.0226835 -0.0116645)
(3.05346 3.0501 -0.00112662)
(8.78022 0.0285268 -0.0391465)
(3.95291 3.2865 0.0306457)
(8.66096 0.00757958 -0.0126889)
(8.68693 -0.0414739 0.0316618)
(3.35612 -1.68609 -0.0205397)
(3.05865 3.06083 0.0340474)
(8.51625 0.0152421 0.0150206)
(2.90385 -2.90277 0.000545586)
(8.81727 0.0365156 -0.0575425)
(8.75256 0.0344934 -0.0371798)
(3.05546 3.04637 -0.0243613)
(3.04887 3.04771 0.0075086)
(2.991 2.6837 -0.0597037)
(3.05523 3.05751 0.00147647)
(6.12093 -0.32637 0.167438)
(8.82222 0.0305037 -0.0551682)
(3.1009 3.02796 -0.00226094)
(3.05141 3.05568 0.00300215)
(7.52475 0.00982148 -0.017524)
(3.06011 3.05975 0.000147305)
(8.68578 0.0247099 -0.0314053)
(3.0579 3.05719 0.000295116)
(8.60219 -0.049906 -0.0377704)
(2.90801 -2.90773 0.000710829)
(8.06869 -0.0408521 -0.122607)
(6.66353 -0.0268482 0.00732849)
(8.08383 0.0254588 -0.0173891)
(8.66393 0.00982687 -0.0137062)
(3.06932 3.04677 -0.00999382)
(7.8551 0.00806903 -0.0011255)
(3.06314 3.05233 0.00274326)
(3.05856 3.05941 -0.00830508)
(8.56438 -0.0230627 -0.0136618)
(3.05469 3.05108 -0.00139402)
(7.28676 0.00112397 -0.0742883)
(2.94924 2.71533 -0.0899696)
(8.69727 0.0228798 -0.0279752)
(2.8974 -2.90046 0.000271329)
(8.77085 0.0215466 -0.0192909)
(2.90899 -2.90629 0.000383792)
(3.62703 3.21127 0.093011)
(8.86499 0.325389 -0.0211803)
(8.52066 -0.0729439 -0.0915851)
(8.64937 0.0367116 0.000245879)
(8.72083 -0.0986625 -0.0644853)
(8.61061 0.0172262 -0.00916799)
(8.8069 -0.0622771 -0.00605099)
(3.03601 3.0593 -0.0136072)
(8.64497 0.0486525 0.0267721)
(8.55558 -0.0857631 -0.0883985)
(3.0571 3.05892 -0.00171506)
(7.26071 -0.106484 -0.281088)
(8.84004 -0.0636994 -0.0446754)
(8.4886 0.0362092 0.0325689)
(3.02465 2.98333 -0.0171861)
(3.76029 0.759552 -0.598197)
(8.30765 0.0210305 0.0273868)
(6.7963 -0.0266917 0.0689612)
(7.04945 1.81934 -0.0144598)
(3.76982 -1.91002 -0.156847)
(8.78919 -0.100888 -0.0227154)
(8.24919 0.0316691 0.0612364)
(8.51493 -0.0804276 -0.0884209)
(8.67875 -0.0487654 -0.0183753)
(8.53592 0.0500486 0.0210796)
(7.58191 0.989125 -0.0433803)
(3.77677 3.20587 0.0264856)
(7.70555 -0.292364 0.0666002)
(7.44223 -0.647049 0.156425)
(2.90151 -2.90292 0.00154168)
(7.59277 0.0531509 -0.0225013)
(3.07309 3.01537 -0.0158072)
(3.58452 3.26005 0.0306279)
(8.60739 0.0189527 -0.00535112)
(7.63477 1.29378 -0.0432511)
(9.18504 -0.781444 -0.143215)
(8.27791 -1.42636 0.0301316)
(3.57496 3.3978 -0.25014)
(8.75395 -0.0542043 -0.0171451)
(8.63771 0.0504184 0.0391314)
(3.05059 3.0421 -0.00148361)
(3.93271 2.19072 -0.0912144)
(8.63744 0.064972 0.0405325)
(2.90504 -2.89395 0.00314174)
(3.05697 3.05565 -0.000634674)
(3.04751 3.04639 -0.000268931)
(3.06075 3.04485 0.00357887)
(8.75104 -0.090342 -0.0414457)
(3.05785 3.05708 0.00191144)
(2.91489 -2.91473 0.0153987)
(8.59474 -0.0528552 -0.0431304)
(7.90543 -0.0031046 -0.0242253)
(4.27636 -3.74378 -0.198697)
(8.63797 0.06347 0.0390921)
(3.55662 2.87667 0.0646249)
(8.68407 -0.0356118 -0.0195433)
(2.84813 -2.84627 -0.0133889)
(3.05031 3.05638 -0.00226249)
(8.72923 -0.0555399 -0.0159924)
(3.05678 3.03938 -0.0117361)
(3.05838 3.05129 0.001715)
(3.50135 3.35105 0.0966328)
(8.20821 -0.00634825 -0.00552261)
(5.02763 4.21083 -0.558401)
(8.60196 -0.0361085 -0.0174084)
(8.60674 0.0183879 -0.00687875)
(2.87933 -2.86059 -0.0229522)
(8.92605 -0.0267791 0.283911)
(8.17796 -0.0501797 -0.122682)
(8.57027 0.00142487 -0.00422354)
(8.67501 0.156709 0.0155735)
(8.72129 0.0864284 -0.188045)
(7.49724 0.00374969 -0.0705157)
(3.05187 3.04866 0.00171943)
(8.74029 0.00938267 0.0240537)
(8.674 0.0371523 -0.00765663)
(2.87672 -2.91478 0.00573919)
(8.06786 -0.00579713 -0.00232842)
(8.75474 0.0486061 -0.0175087)
(8.75336 0.0403477 -0.0145276)
(7.94987 -0.0344068 -0.0788369)
(8.75042 0.0385237 -0.0159689)
(8.75498 0.0460723 -0.00516645)
(2.91041 -2.87181 0.0177097)
(8.7537 -0.0185822 0.0448231)
(7.24116 -0.0453738 -0.0135592)
(3.68015 3.19789 0.2023)
(8.7494 0.03303 -0.0213639)
(8.34944 0.00947298 -0.0198602)
(4.89342 3.98608 -0.60113)
(8.60875 0.0161839 -0.00660186)
(8.7534 0.0273898 -0.0266824)
(8.35261 0.00266445 -0.0349523)
(8.68287 0.0382339 0.00392109)
(8.58303 0.0857551 0.0377506)
(8.63336 -0.00105121 0.0122076)
(2.99085 2.92323 0.0044562)
(8.681 0.0454828 0.00563753)
(8.14833 -0.0538194 -0.11042)
(3.25417 -1.95134 0.0762986)
(8.63953 0.0745843 0.0461074)
(8.5288 0.071035 0.0696796)
(8.65646 0.025773 0.0018114)
(3.05241 3.04521 0.00267976)
(8.39085 0.0488036 -0.0799823)
(2.90454 -2.89194 0.00722942)
(3.05787 3.05804 -0.0021305)
(3.04141 3.02069 -0.00134847)
(3.06257 3.0449 0.000692991)
(7.26618 0.00432025 -0.0329731)
(3.63972 3.13563 0.126514)
(6.56209 -0.460961 0.538937)
(2.88986 -2.89101 -0.000240553)
(3.05086 3.09177 -0.00460376)
(8.64866 0.0873413 0.0446727)
(8.70214 0.0224485 -0.0402225)
(2.9067 -2.90689 6.21877e-05)
(8.71082 -0.0529659 -0.0059218)
(2.90481 -2.90284 0.00846123)
(2.90681 -2.9048 -0.0011163)
(2.85854 -2.85856 0.00866171)
(8.84041 -0.0714188 -0.00948895)
(7.36144 0.0421316 -0.0201705)
(3.60291 3.24703 0.040424)
(2.93399 -2.90144 0.00780922)
(3.05317 3.06317 -0.0039606)
(3.05481 3.05669 -0.000725575)
(8.8969 0.0178312 -0.097973)
(8.63605 0.018137 -4.0713e-05)
(3.63012 3.41387 0.156993)
(8.79887 0.0278087 -0.0480958)
(8.18447 -0.114415 -0.340329)
(3.05132 3.05274 -0.00152851)
(8.77593 0.0240949 -0.0418464)
(8.04555 0.00648185 0.0429359)
(8.54062 0.045264 -0.0515619)
(3.06229 3.0607 -0.000180696)
(3.05328 3.05071 0.00033478)
(8.4793 0.0508338 0.0517243)
(8.66673 0.0213249 -0.00380117)
(3.61055 3.28516 0.0513143)
(3.04335 3.04438 0.000264139)
(3.09434 3.00129 -0.0109485)
(8.61331 -0.0164045 0.00739911)
(2.90232 -2.90226 -0.00321141)
(2.89801 -2.88694 0.00222508)
(3.03951 3.04002 0.00011719)
(8.77319 0.0269304 -0.0367534)
(7.66883 -0.0383537 0.0135861)
(3.06068 3.06094 5.85697e-05)
(3.39545 0.690642 0.595076)
(3.68531 -0.387838 -0.144964)
(8.48447 0.0458417 -0.0026393)
(3.05164 3.05667 -0.00137028)
(3.05765 3.05215 -0.00234975)
(8.80106 -0.110626 -0.0170441)
(8.43178 0.143448 0.135681)
(3.66136 3.27289 0.154599)
(5.32443 1.73566 0.125938)
(8.31603 0.18898 0.242095)
(7.95407 0.0244604 -0.0556743)
(8.4585 0.00518487 -0.00666465)
(3.15942 2.96722 -0.00756217)
(8.40884 0.0250714 -0.00361539)
(8.71544 -0.05893 0.0624016)
(3.06267 3.05515 -0.00328066)
(2.88345 -2.83354 0.0049869)
(3.0413 3.04302 0.000457432)
(3.05168 3.05139 -0.00061728)
(3.05735 3.06224 -0.00361149)
(3.06146 3.06253 -0.000654838)
(8.7906 0.0257121 -0.0389256)
(2.90465 -2.90393 0.00186965)
(3.0496 3.05023 0.000461741)
(3.03994 3.00007 -0.00403149)
(8.79862 0.0276898 -0.0492664)
(8.65922 0.0209124 0.00161225)
(2.91724 -2.87806 -0.000249412)
(2.87 -2.84018 0.00351886)
(8.86782 -0.0428092 0.0767163)
(8.42563 0.00283498 0.00864259)
(8.41325 0.00654799 0.0127194)
(2.90574 -2.89802 -0.00160907)
(3.04764 3.04782 0.00208221)
(8.41978 0.00456574 0.0120243)
(2.90664 -2.90424 0.000411332)
(8.3178 0.0231826 0.00235434)
(8.50847 0.0145688 0.0302394)
(8.53091 0.0295507 0.0100528)
(2.91407 -2.89238 0.00826838)
(2.90598 -2.90748 0.000565798)
(2.90549 -2.90745 0.000189767)
(3.05793 3.05823 0.00085542)
(8.62495 -0.0413599 -0.0239427)
(3.0544 3.05752 0.00132961)
(3.0488 3.0461 -0.000111603)
(8.58418 0.0232819 -0.0343576)
(2.9062 -2.90717 0.00123417)
(8.45776 0.00122203 0.00979226)
(7.71697 -0.0672435 0.0264737)
(3.07542 2.97177 0.0160043)
(8.64992 0.0233745 -0.00864053)
(4.07936 0.624503 -0.107719)
(8.53943 0.00914372 0.00458838)
(8.82744 -0.0300716 0.0203527)
(7.78774 0.0319291 0.010894)
(8.82895 -0.0016044 0.0577099)
(6.37401 0.138856 -0.242134)
(3.63642 2.91098 0.0588786)
(8.52017 0.00522131 0.00318616)
(8.86346 0.0699615 0.0110362)
(8.65369 -0.0207867 -0.00885867)
(3.13055 2.72481 -0.0912751)
(3.87452 0.383969 -0.197124)
(4.61416 -0.316333 0.155354)
(8.5299 0.0121351 0.00658028)
(3.04902 3.05351 0.00406126)
(8.36423 -0.0194899 -0.0616034)
(8.545 -0.00836715 -0.0187665)
(8.29339 -0.0736071 -0.133774)
(3.17527 -2.24226 -0.170305)
(2.90674 -2.90789 0.00141439)
(2.90368 -2.90371 -5.26764e-05)
(8.69437 -0.0283624 -0.00318696)
(3.56292 2.95454 -0.0383463)
(8.25303 0.028728 0.0135028)
(3.31549 3.02019 0.0421659)
(8.20918 -0.0160664 -0.058804)
(8.44198 -0.0177931 0.00867746)
(8.35401 -0.0104027 0.0298088)
(8.6633 0.0218645 -0.00441216)
(3.0487 3.04868 -0.00101007)
(3.03552 3.02605 -0.0056879)
(3.10445 -2.82748 0.0139922)
(8.64951 0.0267456 0.00444846)
(3.06137 3.05265 -0.00061359)
(3.52748 3.03538 -0.134069)
(8.83805 0.1656 -0.139093)
(3.06682 3.06305 -0.00181178)
(3.04285 3.05786 0.00923176)
(2.88971 -2.88074 -0.00478009)
(3.05939 3.06025 0.00092419)
(8.26324 -0.00327021 0.0282141)
(3.11944 2.96311 0.00600351)
(3.05817 3.05508 0.00102293)
(7.01975 0.993456 -0.726695)
(3.57564 2.89539 -0.0397396)
(3.0434 3.04499 -0.0253189)
(4.18825 -2.46432 0.153936)
(3.05573 3.05217 -0.00330485)
(6.74346 0.0267964 -0.0594709)
(8.42508 -0.0144576 0.0231351)
(2.89508 -2.89543 -0.000182184)
(8.28019 0.00854521 -0.0222406)
(8.36991 1.36078 -0.186908)
(8.23303 -0.0800695 -0.132563)
(9.05716 0.340581 0.0083968)
(8.14229 0.0070788 -0.0132323)
(3.05481 3.03385 0.00964792)
(8.54639 -0.0822158 -0.0920769)
(8.85202 -0.0316289 0.0185177)
(8.23069 -0.080601 -0.132957)
(2.90397 -2.90485 -0.000261794)
(8.97518 2.35826 0.629103)
(8.24358 0.012036 0.0127018)
(4.06595 3.24835 -0.192202)
(8.18686 0.00333277 0.00921409)
(8.9366 0.112849 -0.0846814)
(8.5281 0.173078 0.00946559)
(8.46007 -0.0252029 -0.0332712)
(8.4639 0.0283885 0.00109881)
(9.00724 0.133078 -0.04978)
(8.68519 -0.0151814 -0.0140388)
(8.59986 -0.0119101 0.0088418)
(3.03139 3.04299 0.0114446)
(3.04239 3.02745 0.00936501)
(8.30222 0.0225978 0.0117188)
(8.16256 0.0105342 0.0105233)
(3.05046 3.05773 -0.00129219)
(8.41896 0.00808715 0.000376593)
(8.81849 -0.041597 0.0055565)
(8.6222 -0.0209023 0.00756361)
(3.05588 3.0246 -0.00113927)
(8.49868 0.172834 0.0383042)
(3.04824 3.04576 0.00018242)
(8.60434 -0.0116722 0.0075912)
(8.63224 -0.0133536 0.00572771)
(3.05572 3.05441 -0.000287888)
(8.24972 0.0447956 -0.0212201)
(8.60915 -0.00966024 0.0012783)
(8.46398 0.161355 0.0141434)
(8.3288 0.00205508 0.0340815)
(3.1178 3.0593 -0.00464532)
(8.70319 -0.0228745 0.0254658)
(8.48993 0.196968 0.00244743)
(8.95071 -0.206354 0.0580326)
(7.53379 0.0987481 0.0262466)
(6.72417 0.0212054 -0.0951239)
(3.05762 3.02621 -0.00547474)
(3.04753 3.04477 0.00222499)
(8.34994 0.115277 0.0150098)
(3.0596 3.05979 -0.000980652)
(7.28725 -0.0207035 -0.0183731)
(8.3888 -0.0448516 -0.0656082)
(5.1196 0.722033 -0.186599)
(9.28979 -0.593646 0.227667)
(8.19819 -0.36514 0.110486)
(9.12594 -0.323748 0.0912992)
(3.05896 3.05917 -0.000906864)
(4.14554 3.52101 0.0283787)
(8.68391 0.021425 -0.00667036)
(2.89199 -2.90364 -0.00986379)
(1.59385 -1.11269 0.475401)
(8.59231 -0.164861 -0.128469)
(3.04552 3.03808 -0.00603247)
(3.06103 3.05747 0.000314662)
(7.67189 -0.148278 -0.00295718)
(6.2745 -0.405357 0.0857342)
(3.06007 3.0604 -0.000404108)
(7.76644 -0.144792 0.0249023)
(3.0469 3.04434 0.0013145)
(3.05568 3.06052 -0.00503579)
(2.90332 -2.90358 -0.000555675)
(2.90704 -2.90057 0.00592377)
(2.84915 -2.82474 0.00937879)
(2.90108 -2.89538 -0.000347569)
(7.75132 0.0643574 -0.0290978)
(3.03445 3.01417 -0.00361838)
(3.05468 3.05603 0.00106588)
(3.03843 3.0545 0.00543285)
(7.21957 -1.59214 -0.414479)
(8.178 -0.067819 -0.149733)
(7.91707 0.000139606 -0.0826665)
(8.68461 0.0201431 -0.0074469)
(3.04026 3.02064 -1.04989e-05)
(3.06831 3.05709 0.000161672)
(8.31902 -0.142839 -0.174072)
(3.05797 3.0589 -0.00355512)
(3.05536 3.05227 0.000867673)
(4.85873 2.80037 0.101456)
(8.85677 -0.121314 -0.0076569)
(8.6675 0.0205257 -0.00721389)
(3.05402 3.05326 -0.000304498)
(3.05198 3.04669 0.00449997)
(3.04045 3.03211 -0.00381382)
(3.04523 3.03888 -0.000413447)
(3.0587 3.05746 -0.00333052)
(3.06569 3.05692 0.00186595)
(8.67258 -0.20285 -0.128019)
(3.06251 3.05366 -9.21318e-05)
(6.02026 0.0869881 0.203021)
(8.74636 -0.0199999 0.022906)
(3.05543 3.05981 -0.000854518)
(2.88369 -2.89532 -0.00788741)
(2.8642 -2.83445 0.00326455)
(7.33401 0.0867487 0.39741)
(2.84326 -2.84028 -0.0115889)
(2.90213 -2.90443 0.00306061)
(3.03831 3.04343 -0.0191101)
(7.85708 -0.122944 0.00705093)
(3.04582 3.04479 0.00025895)
(8.6209 -0.113252 -0.071292)
(6.86677 0.112746 -0.0352276)
(5.66568 0.00717828 0.226952)
(3.04702 3.0493 0.000919319)
(5.89843 -1.50629 0.119491)
(8.68846 -0.0160802 0.00278281)
(8.7526 0.022222 -0.0225117)
(3.12066 -2.97806 -0.0338544)
(8.41306 -0.136243 -0.0228772)
(8.58911 -0.0163471 -0.00916454)
(2.90716 -2.88677 0.00284082)
(3.15766 2.99626 0.0147)
(4.10676 -3.16182 -0.265528)
(3.03937 3.03841 0.00103207)
(8.68829 0.017021 -0.002214)
(8.68086 -0.0111007 0.0105252)
(8.8282 -0.107081 0.0441694)
(5.80899 -0.00646229 0.319811)
(3.06125 3.05951 -0.000340724)
(8.69122 0.0171854 -0.00379341)
(3.13677 2.98584 -0.00749217)
(3.81807 3.23126 -0.0133592)
(3.9094 -3.0404 -0.12571)
(3.05532 3.05579 0.0012026)
(8.71112 0.0263085 -0.00550038)
(3.04597 3.03902 0.00201556)
(2.87349 -2.82129 0.00144234)
(7.94146 -0.109292 -0.199289)
(8.52616 -0.0188639 0.0102078)
(2.87526 -2.82752 -0.00788831)
(8.5652 0.0153251 -0.0037926)
(3.25452 3.18286 -0.0189052)
(8.69935 -0.0744784 -0.0385369)
(2.8746 2.75048 0.0273271)
(3.05859 3.06048 -0.00136369)
(3.07125 3.06089 0.0100141)
(2.90755 -2.90813 0.000791115)
(8.42002 0.0134075 -0.0134656)
(7.53465 0.0161797 -0.0345908)
(8.73314 -0.0307944 0.177126)
(3.04274 3.04555 0.00199247)
(3.03814 2.98357 0.0206324)
(8.37253 0.0163503 -0.0147225)
(3.05903 3.05916 -0.00113139)
(3.55003 3.21419 0.0443648)
(2.90457 -2.90263 0.000216328)
(8.33087 0.0535901 -0.00538984)
(8.86872 -0.218355 -0.0654125)
(8.68829 0.021688 -0.00915867)
(2.90039 -2.89452 0.00674353)
(6.88085 -0.0102811 0.192093)
(7.18291 0.00709297 0.184671)
(2.74827 2.42835 0.0169339)
(7.76561 0.099689 0.156221)
(3.05991 3.04401 0.00298232)
(8.20116 0.0770594 -0.00796716)
(8.80894 -0.0150491 0.0511155)
(8.53188 0.00582088 -0.0147887)
(8.81979 -0.111656 0.0135515)
(8.10172 -0.178553 -0.251591)
(3.05834 3.05507 0.000746878)
(3.05885 3.05861 -0.000210448)
(3.05173 3.05584 -0.000706074)
(7.10466 0.0702793 0.256243)
(3.02941 3.00244 0.0033301)
(8.61963 0.0363498 -0.015837)
(2.90331 -2.90299 -0.000225072)