/*--------------------------------*- C++ -*----------------------------------*\
  =========                 |
  \\      /  F ield         | OpenFOAM: The Open Source CFD Toolbox
   \\    /   O peration     | Website:  https://openfoam.org
    \\  /    A nd           | Version:  10
     \\/     M anipulation  |
\*---------------------------------------------------------------------------*/
FoamFile
{
    format      ascii;
    class       volScalarField;
    location    "27.5";
    object      p;
}
// * * * * * * * * * * * * * * * * * * * * * * * * * * * * * * * * * * * * * //

dimensions      [0 2 -2 0 0 0 0];

internalField   nonuniform List<scalar> 
111485
(
7.87154
0.027144
0.0173838
7.87248
0.0104799
7.60828
0.0105766
0.0190854
0.0109938
-0.00269124
0.0101178
0.00698629
0.0143894
-0.00056155
0.0123936
0.0380881
0.0262911
8.79398
0.0154729
7.8731
7.87327
7.61091
0.00843628
0.0272709
0.00499296
7.8466
0.0131439
0.0451167
0.015716
7.87264
-0.0844976
0.0163873
7.87508
7.60553
8.57361
7.56533
-0.0612804
0.0518189
-0.120752
0.0213888
7.6526
-0.00193591
0.0220873
-0.0323283
-0.259628
7.88635
-0.015972
0.0229615
-0.00673541
7.91476
7.91291
7.36085
7.92137
-0.0476783
7.92632
0.0244495
0.0164399
7.61357
-0.0956055
0.018756
0.0199639
7.87204
0.0187072
-0.0746585
7.65674
0.0241786
5.10264
0.0170453
0.00530651
0.0173957
-0.142539
0.0306878
7.72464
0.00500659
7.87801
0.0309514
7.61044
-0.0052425
7.60939
8.05567
-0.113869
-0.0347591
7.60987
7.87431
0.0239857
0.00914899
1.74144
-0.0536557
-0.105863
0.0379118
-0.213847
0.0111161
0.0223141
0.0458841
-0.00136705
7.874
7.87205
-0.0366652
-0.734265
0.0669929
7.87185
0.00514972
7.59464
-0.00942936
0.0111732
7.91214
7.61261
0.0153931
0.00869998
-0.350276
0.0213526
0.0326814
0.0167102
0.0058586
7.84316
0.0318369
7.85977
7.60579
0.0106831
7.874
7.84558
6.66075
7.61066
7.61375
-0.00395466
8.95704
6.62336
0.0186471
7.87492
0.386974
-0.104886
-0.0377824
7.8785
6.5073
6.79664
0.0109915
7.61024
0.0326747
0.00860062
0.027655
-0.038762
0.0102007
0.0164718
0.0170563
-0.0228273
0.0327177
7.61024
7.87345
7.61877
0.0169854
0.0135921
7.87093
-0.0733733
0.00922809
-0.668117
0.0186108
0.0143855
0.00953224
-0.525589
7.87965
7.87277
0.0156801
0.00748094
-0.485347
-0.605349
0.026297
-0.0653269
7.64086
-0.447498
-0.413257
7.61347
7.87293
0.00598116
7.61138
0.0289746
0.017213
7.66653
7.70241
7.86253
7.81071
7.67335
7.87181
0.023745
0.0189561
0.0258785
0.0700883
0.00104063
0.0279429
-0.0507606
7.87259
0.0163265
7.69752
7.86036
0.0359046
-0.00914852
-0.0493618
0.0314035
0.0158342
7.87885
0.0227481
0.0177024
5.28472
-0.0231544
0.0252036
7.86914
0.0317552
-0.00999239
7.69642
-0.0550362
-0.0193752
0.014994
0.0145019
7.66608
7.87162
0.028247
4.95354
-0.0381803
7.61114
0.0307924
0.0344894
-0.00454308
7.87138
0.0194962
-0.0646469
5.98622
7.61114
7.61358
-0.119057
-0.594223
7.7246
7.29271
0.0326317
0.0231983
-0.0825034
7.72271
7.80537
-0.0721818
7.87576
0.00711026
0.0299854
0.0302895
0.0178711
0.0293243
7.61475
-0.103084
0.0229777
7.61751
7.60992
-0.0507757
0.0317275
7.78262
0.0302551
0.0289687
7.87362
6.35131
-0.0280582
7.88684
8.02242
7.18772
7.87287
0.0257075
0.0186482
-0.0107307
7.87571
0.0302318
7.87234
7.87072
7.87856
-0.0797197
-0.0119071
0.0253497
0.0164785
0.000499304
0.01913
0.0165174
-0.0817665
0.0103409
0.0211132
7.57063
7.87332
-0.088072
0.0194879
-0.0937703
0.025583
7.87359
0.0259959
0.0127762
0.0194342
0.0167079
-0.112694
0.0144949
0.0177919
-0.0252819
7.61009
-0.0135005
7.61145
8.73871
8.08947
-0.123951
-0.0115675
0.00951484
7.86603
7.67436
0.0269465
0.0267239
7.87062
7.86944
7.93004
0.0186052
0.0303943
0.0202124
0.0164294
0.0126608
7.22485
7.6168
7.87483
0.0305587
3.22637
-0.00580764
-0.114869
-0.0890212
7.61072
7.87121
7.872
6.79065
0.0238144
0.0180871
7.60251
0.0267461
7.77899
7.86259
-0.0352157
0.0243202
0.00217255
0.0268279
7.98438
6.75475
7.60582
0.0241877
0.019667
-0.0856935
7.64935
0.44198
-0.152897
0.0178178
0.0286771
1.26984
0.0110871
7.60881
0.00604532
0.0299514
-0.104664
-0.0412923
0.00715453
7.60823
7.87629
7.61114
7.87574
0.0259536
0.0236723
-0.0161397
0.0157621
7.62675
0.0113058
7.61364
7.87909
0.0122605
8.1383
6.95035
7.91555
7.56062
0.0171515
7.6122
0.0171418
0.0162548
7.60915
0.00487448
0.0258872
7.85317
0.0256778
0.0109874
0.0315349
-0.0503757
0.0405472
0.0297984
7.9929
7.87419
-0.0206084
7.63039
0.0043398
-0.0480248
7.66513
7.61289
0.0261624
0.00865154
-0.000752505
0.0231023
7.6101
-0.0822559
0.00277317
7.60639
-0.0345569
-0.011986
7.87066
7.87198
0.0246352
0.0055465
7.59069
7.86375
5.85502
7.87121
0.0103113
7.61134
7.87208
-0.000572283
-0.0982017
-0.00930729
0.0185434
7.60936
6.80817
-0.00726809
6.90642
-0.0301333
-0.00332089
0.0040861
5.27592
6.9811
-0.48915
-0.305774
7.87014
-0.0519546
0.00978163
7.86948
-0.514503
-0.0030702
6.94529
0.00410254
0.00636507
0.0384479
7.6105
0.268457
0.00299277
0.048844
-0.137311
6.5997
-0.603681
7.87151
-0.0443859
-0.169358
7.61416
-0.00697736
-0.0109813
6.41751
7.87464
7.46796
7.87223
0.0110415
0.0780435
0.0102798
0.00961679
-0.05767
7.61171
-0.0461663
7.88387
0.0233632
7.59757
7.88124
7.88862
0.000375199
7.87495
7.87155
8.34502
7.87047
7.622
-0.020033
7.61158
7.41577
7.60801
7.85921
7.60303
7.8811
7.61121
-0.00175907
7.60653
-0.0229557
0.00104232
-0.0932001
7.61758
-0.0203732
7.61567
7.87126
-0.00544485
-0.00352847
0.0409805
-0.125997
7.32049
-0.0123199
-0.0223796
0.0227754
-0.0129308
-0.00321852
7.87405
-0.00449709
6.42874
0.00304293
7.61084
-0.0201032
6.65322
0.0230049
0.0144913
8.29106
7.67526
-0.0313879
7.8709
-0.0130953
-0.0194618
7.62071
7.62811
7.92098
7.61296
-0.981008
-0.0135703
7.60699
7.61797
0.00815026
7.61089
-0.0155653
7.60972
-0.0190663
7.87158
0.00680004
0.00623313
0.0511628
0.0219222
7.58994
-0.128808
7.60488
7.61055
0.00291732
7.61194
-0.00273639
7.9271
-0.0404702
7.87323
0.0223182
7.87328
6.95291
-0.105121
-0.0485928
-0.0178597
0.00699536
-0.0292887
-0.00566793
7.61784
-0.0249235
-0.0287338
7.61064
-0.0540955
-0.0651605
-0.00921735
7.68053
8.03686
0.0313727
-0.0401057
3.67509
7.71849
-0.000631597
0.0198482
0.00370529
0.000490456
0.157033
2.52256
6.85935
-0.702041
3.13806
7.87268
0.00765782
7.62966
6.98381
0.0299706
2.48073
-0.722355
1.4257
6.85737
-0.0140812
0.0150583
7.62605
7.44307
0.0221627
7.87847
7.61092
7.61157
7.61632
-0.00193858
7.61218
7.82974
0.00449693
0.0262677
6.0092
-0.0302296
7.3075
0.027088
7.92023
7.61571
-0.00714718
7.60985
7.61629
6.95058
0.045446
4.63344
-0.0260149
0.0376738
7.88666
-0.225458
-0.0694144
0.00388157
-0.0160357
0.249548
-0.000553765
7.61328
-0.00881554
0.00672819
7.8767
0.0201572
-0.0232029
0.012464
0.0353901
0.0124983
0.0114707
7.88643
-0.00121653
-0.0567164
6.93074
0.0132969
0.0129051
4.83305
0.0386935
0.0137107
0.00347347
0.00625166
0.0149079
0.032663
7.75647
0.0087613
-0.0024133
8.22984
-0.00578602
-0.0199348
0.0364069
7.61287
0.0491567
7.89126
7.61056
7.6228
7.6144
0.0160587
7.04379
-1.04956
7.86856
7.55162
0.00363658
-0.00208919
7.86978
-0.0114434
7.86978
7.87366
7.92259
-0.00770798
0.00580282
6.97971
7.82072
7.61232
7.6124
-0.0665348
0.0204601
6.79826
0.00119906
-0.416891
7.61629
0.00886134
-0.0175027
0.0839647
7.61024
7.61065
0.0218007
0.0311233
6.91425
7.61396
7.60207
0.0164909
7.87637
7.86937
7.61247
0.00512436
0.0200058
7.61023
8.48072
8.21283
0.150275
7.61537
7.61008
-0.0230309
-0.0764908
6.89884
5.94452
1.13332
-0.0135664
0.00206148
7.58994
-0.0209227
-0.00485059
7.60855
7.91998
7.60969
7.61144
7.61462
7.60949
0.0215836
7.87096
7.61042
7.67114
0.0129566
0.0162117
7.87688
7.93324
-0.0250663
0.0250755
0.0344301
7.86869
7.611
0.0251648
7.87404
-0.00857501
0.0174887
0.0419572
7.84933
7.87194
7.87178
7.61148
0.0348342
7.61086
7.61031
-0.0337585
7.87186
0.0340526
0.00562314
7.63507
0.0347008
7.84049
0.023677
-0.00628777
-0.0249277
-0.016999
-1.2787
7.22782
0.0217388
-0.0125211
0.000918814
7.7857
-2.11674
7.14653
0.0235843
7.61413
-0.0290755
-0.0139499
-0.0324212
8.07811
7.87201
7.8748
0.0291476
7.30424
-0.0263036
7.44146
0.0239863
0.0336825
0.0097432
0.0240996
7.60914
7.6375
7.74606
0.0269426
7.61353
7.22518
-0.158667
7.61261
7.61956
7.87342
7.61012
0.010318
7.6005
7.61172
-1.58504
7.28662
7.63213
7.06216
7.61212
-0.0373285
0.0134101
7.87082
0.0159658
1.00157
-0.0374737
-0.389828
0.024041
7.61622
-0.00927279
-0.0335213
-0.0365447
7.87371
-2.65218
0.0103761
6.46562
-0.00359708
-0.11853
-0.104336
0.00300435
0.0273307
-0.141139
0.0385323
0.0283519
7.58988
7.62758
0.0114988
-0.000139847
7.61487
0.0140494
0.00547979
0.0226238
7.60935
-0.12234
7.60997
0.0199506
0.0139703
7.61041
-0.0663456
0.0279405
-0.160709
-0.0220043
7.56784
0.0153451
-0.154934
-0.0738862
-0.158475
-0.0402222
7.60054
7.62063
-0.0233141
7.61014
0.028196
-0.0787386
6.71899
-0.47133
-0.825824
-0.302286
7.61002
6.37777
0.0258529
7.87418
9.46324
-0.0478542
7.60607
7.60948
-0.7248
-0.862567
7.61024
-0.123118
7.61145
7.60999
7.87593
7.87057
7.95422
7.87309
-0.0261527
7.61537
7.61385
7.61909
-1.44082
0.0138104
0.000567729
0.0268678
7.62467
7.60964
-0.0499967
7.61114
7.61333
5.80847
-0.0545669
0.0241344
7.60994
7.60551
7.62243
7.60982
7.55601
7.60886
-0.0732578
7.61533
-0.203576
0.0127999
7.61208
7.88237
7.92991
-0.125184
7.92208
7.8732
7.62768
-0.21233
7.60871
-0.066199
-0.0708671
-0.181865
7.60778
5.28939
-0.0416566
0.00755667
7.66252
-0.199704
-0.0147802
7.88095
7.58717
6.8974
7.60627
0.0243415
0.0135105
-0.0647722
-0.348755
7.61127
0.02719
7.56521
6.82465
6.85396
7.61365
0.0199188
7.61103
7.94048
-0.066494
0.0293037
7.93758
-0.00117721
7.31093
-0.0851112
7.97719
7.61067
7.582
7.87216
0.0258505
0.0217797
0.356074
7.61219
7.66201
0.0157356
7.61038
7.06932
7.8716
-0.00341245
-0.336603
0.0451917
7.86223
-0.0738559
-0.0617085
8.24109
-0.0614432
7.61928
-0.0411891
-0.0258121
0.00628071
-0.0884989
-0.17971
7.61073
7.61143
7.61105
-0.0734964
7.68119
-0.110248
7.87614
0.736904
7.87136
0.0190152
0.0199249
7.94215
7.60993
7.95946
7.62
-0.11198
7.96754
6.9054
0.00529352
-0.105134
7.9104
7.03496
7.70332
7.05591
7.61228
7.61045
-0.103756
0.00646413
7.87251
7.86511
-0.627464
7.87805
-0.103409
0.0236599
7.69586
-0.0347977
7.87212
0.0180146
7.62051
0.0158187
7.61027
-0.589701
-0.307827
-0.148388
-0.0403562
-0.044703
4.68222
7.54135
-0.0315876
7.91648
0.0139623
7.87022
7.64003
7.62275
7.62133
7.64532
7.61488
-0.0550466
-0.0664502
7.87239
6.65167
7.8781
-0.0541094
-0.125437
7.86885
0.0256659
-0.151419
7.93033
0.0265383
0.0268297
0.0167663
-0.148134
7.6104
7.60961
7.63893
7.61083
0.0199492
7.53992
-0.0351194
7.61077
-0.0448312
0.0201125
7.61319
-0.0529971
7.60118
7.61015
-0.0460149
-0.0839717
2.13454
7.61145
7.95368
7.60365
0.0214723
7.5034
7.92331
7.52107
0.860763
6.72357
-0.53206
7.02613
7.48453
7.76771
0.0196276
0.00423708
0.0119618
0.0197576
7.85841
-0.0299974
7.61181
7.6132
0.0172776
7.58815
-0.648814
-0.0407475
0.0326586
-0.0470014
-0.964737
-0.00243701
7.61244
-1.42074
-2.97797
-0.00841107
-0.0361402
0.0231661
5.50021
7.86739
0.00138683
7.87573
7.60934
-0.247706
-0.00224392
-1.1228
7.59501
7.43825
-0.0756165
7.92996
7.61233
-0.0524873
7.94879
7.93775
0.112248
-0.052848
-0.0932235
0.0477146
0.0272929
7.6151
7.61023
-0.273282
0.0259847
7.61153
7.94301
0.0326005
7.62299
6.60867
6.75801
6.79459
4.35662
6.62755
7.6131
0.02081
7.59841
-0.0785039
7.61174
3.42429
7.67068
7.63588
7.61278
7.6111
0.0294593
7.61083
7.61057
6.91468
7.60719
7.61346
7.60723
0.0245007
7.62822
0.021399
-0.0833217
7.63822
0.0419515
7.61124
-0.0269627
-0.20988
0.0179212
0.026156
7.84537
0.0236029
0.0251622
-0.151594
7.87528
-0.108737
0.0251428
0.0262162
7.32673
0.0176961
7.6835
7.61115
7.61391
7.61026
0.0233193
7.61134
7.60098
0.020222
-0.136433
0.00826137
7.62214
5.4252
0.0306339
7.61574
-0.37321
7.92715
0.0111266
7.6083
7.61072
-0.0049386
7.60774
-0.0210589
7.87522
7.6113
0.0279579
-0.0386669
0.0248568
0.0198402
-0.135877
0.0184187
7.61163
8.0174
0.0144294
0.0293383
0.0302941
-0.0953349
7.61032
0.0223631
7.61022
7.79832
0.00472179
-0.0697068
7.62355
0.0238807
7.5986
0.0191119
0.0322646
7.71079
7.61005
7.6116
0.0135737
7.61288
7.6112
0.0168329
0.019811
-0.042742
0.0228044
7.63269
7.62221
0.011714
0.0292287
7.61638
0.0116543
7.6999
0.00779267
7.61129
7.611
-0.00686457
7.60981
-0.0233453
0.0316981
7.61753
7.60942
0.00510291
6.4704
0.0317302
7.87163
-0.0607377
7.88211
6.67767
6.45331
0.0282527
6.96179
6.88722
0.0121236
6.8453
4.26088
6.33058
7.67327
7.87679
-0.180495
0.0253963
7.6512
7.60918
0.00190919
0.0133855
7.62198
0.0136519
7.60906
7.88184
0.00459015
-0.00545355
0.126073
7.61016
7.61251
7.61112
7.61031
7.6058
7.60899
7.6041
7.60624
7.61002
7.60841
7.61008
7.8781
7.61366
7.60954
7.61238
7.78507
7.60999
7.61013
7.61035
7.63835
7.8179
0.0197828
7.61186
7.61031
7.622
0.0274933
7.61394
7.88178
2.94782
7.60068
7.50832
0.0188063
8.24373
7.5644
3.48209
0.0145487
7.61137
6.75962
7.25925
7.60955
-0.0295641
0.0158773
0.0151147
0.00485181
0.0328865
7.90177
7.60444
0.017597
0.0242169
0.00319904
7.60797
0.0225148
-0.0155473
0.0272749
0.021708
0.0228464
0.00465516
0.026521
0.0163779
7.88655
0.0229195
0.0265491
0.0137659
0.0195336
7.60969
7.60945
7.60965
7.87222
7.6073
0.0258499
0.0254548
7.613
7.60993
7.61057
7.81846
7.61209
7.87374
7.6174
7.87832
0.03015
-0.227549
0.0261567
0.031747
7.58701
7.62814
-0.0334795
-0.265104
7.61019
7.61091
0.00896887
7.88535
7.61035
0.0649013
-0.00119036
0.0158951
0.032828
-0.0295328
7.89812
0.0144561
0.0229342
6.90693
7.87554
0.0114203
7.89491
7.62413
2.38087
1.27329
-0.00891343
7.76538
7.84996
-0.0445427
0.0225278
0.0327903
0.0249715
3.39315
7.87183
-0.0182866
8.23628
7.87415
7.55859
0.00175515
7.61163
0.027446
0.00908335
0.0125412
0.0141566
7.8796
0.0364271
7.87563
7.45262
7.87365
7.86496
0.022278
4.48933
7.61047
7.87251
8.35869
0.0277485
6.85602
0.0114862
0.0204664
0.0218739
0.0230921
7.82377
7.86713
6.62698
0.0138549
0.0273785
-0.922009
7.91947
7.87165
6.82215
-0.022841
-0.0247895
7.60908
-0.0327915
2.49042
0.0153922
0.0208315
7.87202
6.64142
0.0130307
0.025505
7.6115
0.00617341
0.00424638
-0.00252767
-0.00518999
0.0210341
0.0381128
6.91032
0.0316992
0.023894
0.0295861
7.96323
0.0180401
6.99692
0.0335167
0.0208063
7.87457
0.021147
0.0169229
0.0114815
0.0253226
8.73899
2.0746
-0.0529256
4.27895
0.0186889
7.64598
0.0225362
0.0184437
7.87917
7.61051
-0.355512
-0.117551
0.0207155
8.73109
0.00707352
-0.208161
-1.17163
-0.083539
7.87983
7.89261
0.023407
8.3444
0.0248566
-0.219411
0.0180297
0.0332966
7.87194
-0.00153515
0.0248482
7.87084
6.93045
0.0368054
7.8871
0.0289124
0.032881
7.87303
8.78886
0.0230375
7.87194
7.6099
7.61039
0.0295315
0.032717
0.0137213
7.92671
0.0106737
0.0286435
7.67242
0.0313607
0.0192604
0.0250724
-0.129161
7.61064
0.0187237
0.0538646
0.0312024
0.0196355
0.0275994
-0.160016
0.030264
7.87138
-0.0498397
0.0228843
7.87168
0.0266022
7.6166
7.61146
7.87527
7.62059
7.87373
0.00262582
7.61151
0.0266393
-0.017838
7.87606
0.0146453
7.80377
0.0177564
7.87835
-0.168093
7.65154
0.00821472
0.00301326
-0.188295
0.0422286
0.0244024
0.0179472
0.028959
0.04032
2.74839
0.0342371
0.00584452
0.0429602
7.87345
0.0411451
-0.125039
0.0377203
0.014447
-0.169131
7.87562
6.76781
7.87649
0.014186
7.87131
6.16715
0.0252768
8.38923
0.00898316
7.86327
7.84069
7.61054
0.0184105
0.0441695
0.023534
-0.0455313
0.0249776
0.0206441
0.032639
0.00964189
0.016005
0.0307436
0.0218779
7.87923
7.56425
7.86627
0.0183065
0.0291354
7.6483
7.61046
6.30385
0.0454082
0.0188712
7.87173
0.023639
7.8697
-0.438194
0.0180227
-0.0668946
7.8729
7.87125
0.0112495
7.87176
-0.0085639
0.0304624
7.45337
0.0210612
0.0170031
0.0275202
7.87083
-0.112296
6.97969
-0.0257388
0.010622
7.87447
7.88439
0.0276965
5.5234
7.90351
0.035788
0.0319869
7.87213
7.85435
6.93579
0.0135714
6.28474
0.0169374
-0.034575
-0.000917878
7.87159
7.03284
-0.0364922
7.87039
7.61679
7.87395
7.87522
7.14191
7.72409
7.56988
7.87231
7.88949
7.2961
8.39793
7.63897
-0.000136105
7.64851
6.75413
6.38941
8.90722
6.89535
7.87172
-0.0340012
7.39013
7.70826
-0.0351884
8.20826
8.57337
7.77095
-0.0431297
8.3675
-0.031965
-0.0863724
0.0119607
7.16427
7.8747
-0.0236467
-0.460309
7.8346
7.86571
0.0217137
7.08528
0.021579
7.00955
7.5928
7.72891
0.0199768
0.023453
7.87056
0.00511373
7.89711
7.38829
-0.188533
0.0439158
-0.031652
7.60711
0.0232505
7.22934
-0.0218702
7.61117
7.87138
7.6102
6.98706
0.0417463
0.031207
7.87428
-0.768984
7.88089
7.89398
7.8806
7.87292
-0.0251941
-0.0396524
0.0332625
-0.0189622
7.83329
0.0119442
0.0130795
0.0371103
-0.0313163
7.66007
0.028021
-0.000221312
-0.00401342
-0.433759
0.0229539
7.92306
-0.0133824
-0.0245732
0.0231543
-0.0241677
-0.0478207
7.90186
-0.0407638
7.77741
7.87595
0.0212274
7.87958
0.0263372
7.86959
7.93809
7.55065
7.87881
7.87345
-0.0477681
7.87745
-0.0171378
7.19499
7.61462
0.0209085
-0.00371673
0.0300487
-0.0167575
7.89025
0.69943
7.87439
-0.0190912
7.93933
0.0154623
-0.0277222
-0.0167663
-0.00456544
7.96979
7.97673
7.87895
0.0290496
7.62554
7.86506
0.024641
7.60336
7.60983
0.00101085
7.96951
0.00905901
-0.440059
7.1454
7.49696
7.435
0.0115658
0.0133439
7.872
0.00737689
-0.0119085
6.98735
-0.022649
7.87054
0.0210559
0.0230325
0.0401369
7.8741
0.0123545
0.0202479
-0.0287795
-0.0031448
0.00779972
7.8736
7.87197
-0.104873
7.86736
7.60842
7.87002
0.0146028
-0.018981
0.0188198
-0.0356405
6.86734
-0.00315513
0.0156354
0.0126556
-0.0596054
0.019105
-0.0180101
0.0130578
7.61021
7.61064
7.61038
0.0311314
7.61136
-0.0328734
5.24147
0.00308689
-0.557367
0.00837089
0.0135633
7.60945
7.87283
0.00410624
0.0032474
7.88678
7.60432
7.87411
0.0112371
0.00567853
0.00197795
0.00823802
0.0296618
0.0151332
7.87258
7.87342
7.87149
0.0400494
0.00643659
0.00237481
0.0162593
0.0332929
0.00385033
7.84778
7.87169
6.33821
7.65483
0.0244441
0.0279257
7.86725
7.90531
7.86677
7.87569
7.83679
7.7149
-0.00591654
7.87399
-0.0502874
-0.118556
7.61811
0.000876536
0.0268978
0.0220193
7.91767
7.76157
-0.00532658
7.87233
-0.00707517
-1.23586
0.0191262
7.6647
5.94496
7.61011
7.87618
7.86773
7.60265
2.10596
7.88546
0.00887538
-0.0035054
7.87483
7.87226
-0.00927071
7.87809
7.61143
0.0128814
-0.20354
7.86108
7.86158
7.67304
0.0419319
7.87189
7.87166
1.1666
-0.0242162
-0.0102805
7.87169
7.61749
7.20589
-0.0148276
-0.00970985
-0.0123927
0.00704701
7.61076
0.0539844
0.0123701
0.000508149
7.55452
7.86935
7.87156
7.82535
7.87208
0.0242775
0.0205047
0.00145269
7.89001
7.87244
7.87165
7.86944
7.68577
-0.0400694
0.107881
0.0195972
7.61486
7.87243
7.92694
-1.01462
-0.0418848
-0.0707836
7.6092
-1.9461
8.25636
7.83805
7.87099
0.0232178
0.0350947
7.87418
7.90638
0.0122905
7.87302
0.0136701
0.0291727
2.73693
7.86994
7.66118
0.0229248
-0.0616749
7.90987
2.54399
0.0540066
0.0322229
7.87334
7.87602
7.88237
7.88077
0.0266577
0.0268296
7.87637
-0.051103
-0.0142307
0.20443
7.87221
7.87125
7.87265
7.87665
0.00946331
8.38404
7.87346
7.76681
0.0243753
-0.00976828
0.0298789
7.84445
7.87214
-0.0214902
7.62286
7.87248
7.87429
7.87356
0.0205615
7.69415
7.59586
7.61349
0.0205096
0.026922
7.8686
7.87416
7.85473
0.0159424
8.15168
7.87742
7.85679
7.87423
7.87365
-0.200437
0.023461
7.91484
0.0212208
0.0158276
0.0208773
7.87868
7.87512
7.87364
7.83396
7.6108
0.0305126
7.87313
7.38055
7.33204
-0.0165536
7.64941
-0.024557
7.87184
7.61284
-0.0211694
0.291252
7.03188
-0.00536902
7.87445
-0.00952694
8.12528
7.89094
7.92189
9.10718
7.87936
-0.0377421
7.86991
0.0104017
7.61238
6.93406
7.87937
7.8673
0.0138837
0.0330849
7.61023
2.64601
7.60728
-0.0132776
-0.0411448
0.010496
7.61189
-0.351071
-0.0234401
-0.0502782
0.0235061
-0.629035
-0.0294172
7.59212
7.61079
-0.753605
0.0222587
-0.00204286
7.90896
7.51424
6.36977
3.25505
7.87463
7.61632
7.87466
7.87522
7.87611
8.30343
0.0349042
-0.0742587
0.0299628
6.96775
-0.0939329
7.87424
0.0103907
7.87143
7.88083
7.61126
7.71071
-0.106373
7.69147
7.60389
7.87189
0.0175168
7.87048
7.8722
-0.0560524
7.82754
5.75153
4.92663
4.5872
7.87677
4.80734
4.64863
4.75758
5.45935
7.6103
7.61084
0.0117545
-0.0135985
6.95608
7.13901
7.60646
0.00656958
8.19029
7.71168
-0.102503
7.87433
7.87233
-0.0372475
-0.0897215
7.83844
7.61222
-0.0325189
7.03084
7.60443
-0.408224
0.00743593
0.0515846
7.81069
0.022323
7.87475
0.015474
-0.394339
0.0169774
7.87245
-0.387862
0.0216106
7.96696
-1.04321
7.86383
0.0206399
7.52895
0.0275509
7.80337
-0.0481484
7.87314
7.57138
7.61159
-1.46673
-1.47349
7.88579
0.010188
0.0116527
7.91941
7.87206
-0.00496693
0.0212015
-0.123825
7.88043
0.0156324
0.00996774
-0.0481473
-0.847562
7.87624
-0.171647
7.61971
-0.152102
7.87149
-1.73039
-2.00771
7.85218
0.022199
7.67425
-0.0452493
7.60944
7.85639
7.885
7.89012
7.85047
7.85869
-0.00235253
0.029016
-0.156108
7.88155
6.34011
-0.144034
7.87984
7.82952
7.90494
7.86681
7.90352
0.0227212
7.87254
7.87443
7.61066
0.0157947
7.85739
7.61065
7.53936
0.0369255
7.611
0.00897025
-0.785735
-0.0515897
0.0346376
-0.0149315
8.22055
7.87719
7.87094
0.0698907
0.0312331
7.54162
6.30559
0.0106939
7.8724
7.87562
-0.133941
7.8629
0.0164262
7.87434
-0.0119533
-0.0561236
7.88053
7.61013
7.87389
7.87494
7.87011
-0.025213
7.87058
0.011963
7.9428
7.87476
0.0251252
7.60397
0.0081472
7.77349
7.87212
-0.0127903
0.031165
-0.119327
7.87396
7.87436
7.87248
0.0297165
-0.087935
7.95051
7.6095
7.64083
0.0139486
7.86553
0.0148247
-0.135143
7.87144
7.86786
0.0225154
7.86615
7.64039
7.61112
7.95878
7.61107
-0.153145
6.21674
7.63646
7.87322
6.37899
7.86754
6.60095
7.84622
7.86631
7.72847
0.01796
7.78821
0.0120694
7.85911
7.86676
-0.058058
0.00641391
7.86204
7.82523
7.87392
0.0270338
6.6994
7.87372
7.73209
7.87009
0.019279
7.86323
-0.180145
7.87448
-0.00948505
6.91506
-0.0266829
7.88881
7.87011
0.0054731
6.54241
7.87934
0.0294127
-0.00676461
7.89267
7.87498
-0.0191688
-0.05685
0.0212965
0.0177821
0.00767144
-0.00789274
0.0231022
-0.0388718
7.9483
-0.190102
6.25541
6.14091
7.87319
7.87081
7.87044
0.0360157
7.87497
7.86815
7.87512
-0.122571
-0.0425611
5.94672
-0.0423747
7.8758
-0.0189919
7.60982
-0.0601548
0.0235519
6.32911
0.00291178
7.86551
7.84529
7.61098
0.0427593
-0.0116864
7.87263
7.61076
0.032459
7.87374
-0.133165
7.91427
-0.0825403
7.87166
7.6115
7.85276
7.61033
0.0254454
7.6106
0.272237
7.61248
-0.00491802
7.87233
7.86855
4.30851
3.98334
7.89035
7.86901
7.8721
7.87308
-0.00694187
-0.142799
5.20914
7.87675
0.00113179
7.60907
7.62022
-0.427647
0.0129517
-0.0683188
7.61158
0.0258761
-0.0211017
0.0258471
0.0154556
7.87234
7.87563
7.87986
7.87597
7.61131
7.61028
7.61104
7.83981
7.6119
7.61123
7.87187
7.61098
-0.108521
7.6102
7.87215
8.61596
7.87435
7.87267
2.70554
7.61054
7.87136
-0.00472494
-0.0975273
7.84804
7.85177
7.87248
0.019066
7.64473
7.85996
-0.110611
7.61164
7.87275
7.86841
7.87658
-0.045006
7.61009
-0.175239
7.8765
7.85713
7.87108
7.87192
7.86954
-0.108596
-0.142295
0.0216736
7.8746
7.63535
7.90934
-0.126052
7.8718
-0.132497
-0.0848621
7.60852
7.84369
5.93687
-0.403419
7.85489
7.01435
-0.390685
6.01527
-0.0102929
7.643
-0.039514
5.98224
5.61406
7.87167
-0.000197198
7.61153
-0.0131131
-0.0553875
7.88084
-0.00126788
-0.283506
7.86988
-0.0691832
7.61351
7.85602
7.86501
7.85189
7.86662
7.60892
7.87158
7.87215
-0.152404
7.1045
7.87225
7.86979
7.87054
7.87452
0.0197356
4.04085
-0.131747
-0.307585
7.871
0.0145377
0.00370544
7.87228
6.99207
7.7866
7.86157
7.89883
7.96207
6.42996
7.16344
-0.034247
7.87383
7.87804
6.09801
6.6365
7.61001
-0.00572847
7.8796
7.62539
7.87435
-0.0795103
7.87653
7.61047
-0.0156577
7.61068
7.57061
7.76348
7.92039
-0.0155212
7.87318
7.87162
7.87142
7.8431
-0.0147008
-0.0657401
-0.0565883
-0.00208982
-0.0297892
-0.038382
7.61124
6.54094
-0.16368
-0.0320405
6.53095
-0.150793
7.86829
-1.08551
7.63336
-0.08907
7.8743
7.61592
-0.0306819
-1.39984
7.87647
-0.0323254
7.8755
7.87581
-0.0954449
-0.0555429
7.87248
7.61087
7.91675
7.61019
7.86892
6.85833
7.87378
7.87149
-0.0326389
7.87333
7.86803
7.87069
-0.0236265
7.88375
6.90061
7.61089
7.61043
7.29747
6.9193
-0.025166
7.61537
6.92794
0.00608163
7.86625
-0.0419773
-0.0249128
7.87386
0.000723174
7.87091
7.45344
7.93458
6.78229
7.61261
7.85166
7.86567
7.87611
0.0205404
7.87493
7.87301
7.87157
7.73364
7.87157
7.78449
-0.117443
7.87183
7.87711
-0.0695391
7.8728
7.61119
7.60949
0.0325601
7.87401
-0.163217
6.70097
-0.381273
0.0156187
7.60746
6.53571
0.00822996
6.26502
7.61156
-0.197645
-0.378258
-0.00278098
-0.0571506
-0.256559
-1.1654
7.63476
7.61679
0.00876864
-0.102201
-0.0839025
0.0176499
-0.400762
7.6086
0.0199187
-0.001075
0.00534457
7.61286
0.00798524
0.0227503
0.0233742
0.00476393
-0.123174
0.0153343
0.0422014
-0.00393955
0.0137366
0.0266806
0.0108654
6.91398
0.0918393
0.00627675
-0.00161536
-0.0290743
0.0233171
0.0127932
0.0153399
7.07565
-0.114729
7.02434
0.0348506
0.0110954
-0.0357375
0.0027149
7.01258
7.60866
0.0125898
0.0156782
-0.128588
-0.0641375
0.0248701
-0.000459218
4.82879
0.00927791
7.87183
0.00260041
-0.11311
-0.0479679
0.0305849
-0.141271
-0.176211
-0.00282072
0.00667628
-0.00265495
0.0316709
0.00172387
0.123442
6.13816
5.39302
0.00189999
7.87582
7.87249
0.00158379
0.0222042
0.0233112
7.87315
-0.0727109
-0.0567054
0.0181335
5.58535
7.87131
-0.208622
0.00807277
-0.11975
7.87581
0.0282666
7.87182
0.00839704
-0.00459021
-0.0463059
-0.0458627
7.87166
7.87385
-0.037761
0.0127445
0.0277513
7.86531
0.00868146
0.0276192
-0.00576322
7.61808
0.0344606
0.048512
7.00396
0.0229273
-1.5071
-0.106183
7.57949
-0.0627152
-0.0999039
7.87177
0.00307329
0.0180091
1.38692
-0.0128596
0.0093692
0.0229546
0.0219232
-0.0344449
-0.0231112
-0.229136
-0.110706
0.0325872
0.0223014
-0.0141926
-0.175277
0.02121
-0.0190622
0.0597948
0.0146803
-0.161083
0.0399431
7.87192
-0.00211181
-0.012078
-0.106197
0.0388725
-0.0407112
7.63865
-0.00430415
0.0246653
7.86735
-0.0746891
-0.00770705
-0.0037734
0.00270632
0.0229182
-0.0447833
0.0128884
-0.0166478
-0.0533458
7.87155
7.87202
-0.0492465
7.61434
-0.0463885
-0.00445334
7.70427
0.0230093
-0.0193652
0.0405944
7.87162
0.02635
0.0116961
-0.0630021
-0.144151
0.021023
0.0454536
0.00907273
-0.00969087
7.87199
7.85458
-0.0964482
-0.0321976
-0.0587908
0.0209973
7.85425
-0.032894
0.0159682
7.7048
0.00129748
0.0109598
-0.0835848
-0.226588
-0.0305119
-0.0379455
0.0385475
-0.00429381
7.61932
0.00374595
0.00348762
0.000238582
-0.203881
7.85546
-0.0216023
8.01255
7.87276
0.0135054
-0.0120534
0.00604239
0.123972
-0.118299
1.49023
7.61299
-0.0311644
0.0261407
0.0671586
0.00989044
7.8789
7.6117
7.60121
-0.00084284
0.00404943
-0.230944
0.0253621
7.62515
7.85881
-0.00872381
0.00635244
-0.0429703
0.0141004
0.00913127
0.030205
-0.048069
4.37296
7.61041
-0.004221
0.0233403
7.8583
-0.00422965
0.0255164
-0.0770847
0.0103711
0.0103529
-0.0421316
7.85847
0.0262433
0.00656616
7.61277
7.64171
0.0291491
0.0794975
0.0160415
0.0213239
0.0188956
0.0140235
0.0328512
0.0302032
0.025483
0.0144771
7.85419
7.8466
0.00993946
0.0315398
0.0179177
-0.10008
0.0214726
-0.00242484
-0.0010085
0.024477
0.0177684
7.61314
7.6205
-0.114564
7.85291
6.85967
0.0137236
0.0200038
0.00154521
-0.0962981
7.16111
-0.0346456
-0.0812861
7.29212
-0.102926
-0.209106
0.020978
0.0231058
0.0199464
0.029942
-0.145199
0.0211851
7.87228
7.23503
-0.0803343
0.0292685
0.00559981
0.026768
-0.108507
-0.0324579
-0.110529
7.26117
0.0259389
0.0536735
0.0148811
-0.123958
-0.0368129
-0.0956802
-0.202668
0.00361157
0.0229026
7.15304
-0.00323217
0.0274848
2.78733
6.78825
6.23648
0.0386459
6.63269
0.0133967
0.0240132
0.00522275
0.0236042
-0.108041
5.04344
3.0433
8.06061
6.72935
-0.0472674
7.61017
7.60989
-1.28359
7.86994
0.0286873
0.0124094
0.0298867
0.0226955
0.0235084
0.00604035
6.26758
0.0233684
0.0255412
-0.0307791
0.0152485
0.0352205
0.0143024
7.61023
-0.206408
0.0299518
-0.0955012
7.61031
-0.00866968
-0.00469935
7.61026
7.86376
-0.080662
0.0193225
7.90807
0.0132069
0.0174616
-0.0839936
7.8734
7.61023
0.0205731
-0.208744
0.0234366
7.6103
7.59482
7.61036
0.002591
2.5509
2.32299
-0.00248342
-0.368837
7.88151
0.0275079
-0.346071
0.0193428
0.0237326
0.00721038
0.0209879
-0.506238
0.0285378
7.65959
0.0113457
0.0398228
0.01775
0.0207919
0.0144563
0.0356367
0.0173768
0.010195
0.0299765
-0.0622927
-0.389615
0.0125913
-0.0850097
-0.133451
-0.460688
0.0111202
-0.374044
0.0203352
0.0300517
0.0222526
0.0404135
-0.0538977
0.0361975
-0.379877
0.0233663
7.46897
0.0110639
3.81296
0.0145832
-0.00599655
7.61346
-0.0158526
7.46846
-0.00382421
7.49647
7.90374
0.0437762
-0.0264776
6.84469
0.0257579
0.0206404
-0.0230839
7.85959
7.87405
0.0147065
0.0012773
-0.18203
0.0187359
0.0321112
-0.0240051
-0.0649394
-0.0077657
-0.0166643
6.50804
0.0104271
7.60983
7.80604
0.0312402
0.0306432
-0.0973869
0.030578
0.032724
-0.0101114
-0.0224563
7.78023
-0.112054
0.0229927
-0.0117279
7.79187
7.8802
0.0102982
-0.00129908
6.15874
-0.0428753
0.0291218
0.00105894
-0.135339
0.0331526
0.023301
7.86311
4.5749
0.022112
-0.0745628
7.67719
0.0402669
-0.0490532
-0.013114
-0.12156
0.0170006
-0.151897
0.0100453
-0.0390338
4.82996
-0.0492104
7.8732
0.000143658
-0.0197717
0.0306459
0.00956499
6.57096
0.0144512
-0.0803496
-0.0138545
-0.109794
7.42242
7.61045
0.0298892
-0.0736709
-0.00377402
0.00479039
-0.0428481
0.0219472
-0.00238311
0.00877942
0.0417072
0.0264159
-0.0505315
7.03064
-0.13034
-0.0229493
-0.000878529
-0.0393289
7.22636
7.61032
-2.39006
-0.115621
8.15385
-0.142932
-0.0244046
7.36683
4.99447
5.45661
-0.0436598
0.0241364
0.175947
5.84106
-0.0775551
0.0315964
7.61577
0.227564
6.88524
-0.0129372
0.0223029
7.64343
-0.0279857
-0.0264136
-0.0302294
0.0277176
7.60997
-0.270167
-0.0401924
-0.0770234
-0.0206208
-0.0202067
-0.040532
-0.00892815
-0.177772
-0.0227527
0.0218695
0.0235779
7.87152
6.44373
6.55529
7.72535
-0.0301962
0.025846
0.0314469
-0.0644419
0.0211251
0.0296764
-0.00568051
-0.019839
-0.0160393
0.0239085
-0.0145007
-0.0864518
0.00334211
0.0269101
7.87244
-0.0427313
-0.0614398
-0.0179392
-0.0101131
7.60787
0.00188569
0.00428118
0.0357749
0.00302283
0.0133649
7.63038
0.0240312
0.0124292
6.8769
0.0245175
-0.00850728
7.71935
-0.000712634
7.71068
7.60749
0.0033566
-0.0614074
-0.00651808
0.0145915
7.61346
0.0352658
-0.0385064
7.61188
0.0317415
0.0128768
0.0188934
-0.0127919
7.75041
-0.0322391
-0.0268472
0.0100192
7.69441
0.0463107
0.0208379
-0.00215141
0.0273225
0.0132142
7.9014
7.452
7.05801
0.0266436
7.18659
0.0292241
0.0157883
0.0255963
7.8338
0.0217103
7.65475
7.87303
7.80812
0.00996007
-0.0127769
-0.210416
0.00333256
0.0345862
7.51597
6.88303
-0.0414498
-0.0458396
0.037647
-0.167048
0.0247147
-0.403074
7.87524
5.73637
5.84974
7.60889
5.92562