/*--------------------------------*- C++ -*----------------------------------*\
  =========                 |
  \\      /  F ield         | OpenFOAM: The Open Source CFD Toolbox
   \\    /   O peration     | Website:  https://openfoam.org
    \\  /    A nd           | Version:  10
     \\/     M anipulation  |
\*---------------------------------------------------------------------------*/
FoamFile
{
    format      ascii;
    class       surfaceScalarField;
    location    "27.5";
    object      phi;
}
// * * * * * * * * * * * * * * * * * * * * * * * * * * * * * * * * * * * * * //

dimensions      [0 3 -1 0 0 0 0];

internalField   nonuniform List<scalar> 
214403
(
-0.00340533
0.00261137
0.00014442
0.000649539
-0.0016943
-0.00570913
0.000484373
0.00691906
-0.00520378
3.49135e-05
-7.20501e-05
0.00524092
0.00447912
-0.00301195
-0.00750797
0.0060408
0.00624
-0.00788805
0.00188051
-0.000232459
-0.00275126
0.00286528
-2.72052e-05
-8.6814e-05
-0.000432138
-0.000822206
-0.00468307
0.00593742
-0.00866848
0.00492802
-0.00129624
0.00503671
-0.0118129
0.00833811
0.00841843
-0.00494369
0.00722652
0.000856969
-0.00807445
-9.04088e-06
0.00255881
-0.00506679
0.00104137
0.00146662
-0.00525362
0.00165368
0.00272091
0.000879025
0.000242703
-0.00580815
0.00699331
-0.00142786
-0.0050733
0.00510748
-3.4182e-05
0.000974031
0.00606394
-0.0077699
0.00073193
-0.00615029
0.00514353
0.00155799
-0.000551222
-0.00618438
0.0060363
0.000148076
0.00199784
5.69029e-06
-0.000540433
-0.0014631
0.00796057
-0.00476494
-0.0105848
0.0073892
-3.8443e-05
-0.00157663
4.56441e-05
0.00156943
0.00324954
-0.00317265
-7.68917e-05
-0.00630541
-0.00218154
0.00216926
0.0063177
-0.00115982
0.0069238
-0.00558158
-0.000182398
0.0034255
0.000361318
0.00119666
-0.00498348
-0.00523301
-0.0024986
0.00676656
0.00096505
0.004648
-0.00588672
3.65541e-05
0.00120217
0.00164338
-0.00143417
0.00537212
-0.00558133
0.00388161
0.00507617
-0.0061167
-0.00284108
0.00567592
-0.00356077
-0.000161007
-0.00195414
-0.00296908
0.00302621
-5.71271e-05
0.00124884
-0.0025909
0.00688769
-0.00554564
0.00720144
0.000340494
-0.00125725
-0.00628469
-0.00285112
-0.00292694
0.00299777
0.00278029
-0.000613392
-0.00345814
0.00306284
0.00100869
0.00227086
-0.00160317
-0.00480858
0.00414089
-0.000875306
0.00436647
-0.00157753
-0.00191363
0.00815213
-0.000188941
-0.00796319
-0.00351556
0.00685733
-0.00334177
0.000633264
-0.00751468
0.00434952
0.0025319
0.00125147
-0.000502936
0.00305994
-0.00380847
0.00292112
-3.09765e-05
-0.00289014
0.00521008
-0.000110855
0.00092099
-0.00602022
-0.00662267
0.000830253
0.00704389
0.000436833
0.000451283
0.00438011
-0.00526823
-0.00207728
-0.0136598
0.0132326
0.00250449
0.00287955
0.000522969
0.000649078
-0.0040516
0.00215012
0.00163585
-0.00526142
0.00147545
0.00680876
0.00408139
-0.00746465
0.000614995
0.00576266
-0.00116757
0.00091931
-0.00344005
-0.00202871
0.00454945
0.00157097
0.00241663
0.000718176
-0.00470578
0.000945192
-0.000709265
-0.00219047
0.00195455
0.00347893
-0.00629458
0.00438662
0.00604685
-0.00569284
-0.00195444
0.00160043
0.00538237
-0.000984134
-0.00436864
0.0059228
-0.000251402
-0.00130275
0.00450258
-0.00575715
6.44795e-05
0.00119009
-0.004239
0.000280253
0.00677403
-0.00281528
-0.00780364
-0.00732807
0.00615573
0.00897598
-0.00416855
0.00419354
0.00082536
-0.00085035
0.000655214
-0.0053267
-0.00433327
-8.9562e-05
0.00225201
0.00217081
-0.00684692
0.00293676
0.0044339
-0.000523739
0.00799948
-0.00644088
0.000410248
-0.00196885
0.000367649
0.00013448
-0.00531067
0.00480854
0.000263161
-0.00145118
0.00716578
-0.00597775
-0.0176738
0.00182881
0.00193908
0.0139059
-0.00163132
0.00481096
-0.00152824
-0.0016514
0.00236928
-0.00124449
-0.00505999
0.0039352
0.000566247
0.00353091
-0.00448928
0.00039212
-9.09728e-05
0.00432292
0.00150064
-0.00573258
-0.000863699
-0.000138607
-0.00178172
0.00278402
-0.00456627
0.0049905
-0.000189476
-0.000234751
0.000160351
-0.00463799
-0.00321862
0.00285097
0.000864951
-0.0004973
-0.0086154
-0.000538206
0.00420217
0.00495143
-0.00261649
-0.00111481
0.00222648
0.00150482
0.00382041
-0.0128155
0.00177638
0.00721874
-0.00200967
0.00404515
-0.00220924
0.000173755
0.00290642
-0.00225508
0.000289256
-0.000940589
6.79208e-05
-0.00540115
0.00533322
1.57954e-05
0.0043928
-0.00440859
0.00389176
-0.000760986
0.000515531
-0.0036463
-0.00229957
0.00327995
0.00108798
-0.00206836
-0.00163327
0.0069457
-0.00166908
-0.00364334
0.00327795
-0.00558684
-0.00021441
0.0025233
0.00375537
0.00398686
-0.00774223
0.00553703
-0.00622366
0.00159507
-0.000908447
0.000532871
-0.000998478
0.00723317
-0.00676756
0.000209796
-0.0011742
0.00521828
-0.00425387
0.00123758
0.0108967
0.00313421
-0.0152685
-0.0095124
0.00837098
0.00542318
-0.00428176
0.000438249
0.00335572
-0.00451213
0.000718164
0.00445449
0.0049507
-0.00162364
-0.00778155
0.0082519
-0.00501433
-0.000164485
-0.00307308
0.000359129
-0.0010519
-0.00330237
0.00399513
-0.00334709
1.93521e-05
0.00332774
0.00501733
0.000173801
0.000345895
0.00623599
0.00053233
-0.00946591
0.00269759
-0.00499787
0.00110253
0.000888339
0.003007
-0.00315358
0.000781877
0.000387508
0.00198419
0.000776662
0.000557104
-0.00659136
0.00525759
-0.00136099
-0.00791857
0.0050482
0.00423136
0.00315532
-0.00373124
-0.00243314
0.00300907
0.00511553
-5.64306e-05
-0.00511522
5.61179e-05
0.00393089
-0.005545
-0.00193819
0.0035523
0.0101595
-0.00307332
-0.00158307
-0.00550314
0.00574882
-6.88522e-06
-0.00529214
-0.0004498
-0.00288814
0.00340077
0.00708584
-0.00759847
0.00619354
-0.00216842
-0.00595872
0.0019336
0.0011394
-0.00166244
0.00723748
-0.00671444
-0.00820164
0.00747865
0.00708275
-0.00635976
0.000369639
-0.00637137
0.00245903
0.0035427
0.00797497
-0.000422503
-0.000162316
-0.00739015
0.00558726
-0.00109063
0.00108034
-0.00557697
-0.00653665
-0.0059414
0.00703369
0.00544436
-0.00122796
0.00352629
0.000955313
-0.00325365
-0.00280235
0.00015267
0.0054326
-0.00278292
-0.00062183
0.00701677
-0.00653217
0.000137229
-0.00599641
0.00556835
0.00108442
-0.000656361
-0.000199263
-0.00349877
0.00834602
0.00111931
-0.00373386
-0.00272225
0.0053368
-0.00297301
3.9698e-05
0.00293332
0.000909321
0.00413611
-0.00382587
-0.00121956
0.00657328
-0.00379024
-0.00100796
-0.00177508
4.4975e-05
-0.00192557
0.0018806
-0.00371572
-0.000999502
0.00139196
0.00332326
0.000381013
0.00210238
-0.0047169
0.00223351
0.00797984
-0.000720437
0.00311931
-0.0103787
0.000578452
-0.000709165
-0.00973478
0.0098655
0.000632579
-0.00277594
-0.00369202
0.00583538
0.000233224
0.00506595
-0.000281837
2.05022e-05
-0.00296656
0.00294605
0.00619669
-0.00229297
-0.00278441
-0.00375911
0.00314349
-0.0031001
0.00680683
-0.00566613
-0.000685105
-0.000455595
0.00068527
-0.00324098
0.00141662
0.00113909
-0.00556801
-0.00168532
0.00113114
0.0061222
0.00462691
-0.00752511
0.00499129
-0.00209309
-0.000203734
0.00680259
-0.00681263
0.000213776
-2.21961e-05
0.00620369
-0.00614938
-3.21084e-05
-0.00866659
0.00691404
-0.00554819
0.00730074
0.00722691
-0.00699042
-0.000236491
-0.0065977
0.00883647
-0.00161783
-0.000620948
-0.00589452
0.00141705
-0.000443536
0.004921
-0.00973141
0.000744325
0.00626656
0.00272053
0.00173513
-0.0023698
0.00131994
-0.00236702
0.00269152
0.00433084
-0.00465534
-0.00259973
-0.00116652
0.00148713
0.00227912
-0.00350215
0.00229225
-0.00442817
0.00563807
0.00105257
8.63034e-05
-0.00773657
-0.0034409
0.00343347
7.42824e-06
0.0037976
-0.00365106
-0.00014654
-0.00570123
-0.000373315
-0.00151602
0.00140958
-0.00750657
0.00874089
-0.0026439
0.0033766
0.00581143
-0.00738902
-0.00179901
0.00644784
-0.00700377
0.000188253
0.000367676
0.00344202
0.000897014
-0.00355941
-0.000779631
-0.00543691
-0.000299518
0.00714601
0.00311096
-0.000225413
-0.00379193
0.000906384
0.0035019
-0.00299818
0.00345355
-0.00395727
-0.00613861
0.00115497
0.00836024
-0.00207536
-0.00291186
0.00960932
-0.00462209
-0.00296731
-0.0032627
0.000793101
0.000884231
0.00234223
-0.00619377
-0.00421135
-0.000370821
0.00676455
-0.00218237
0.000652451
0.00103357
0.00374248
-0.0054285
-0.00200703
0.00491294
-0.0029059
0.00158548
-0.00759395
0.00274578
0.00451884
0.00315933
-0.00679393
-0.00642315
7.75693e-05
0.00800431
-0.00165873
0.00107613
0.000920304
0.00288022
-0.00487665
0.00431401
-0.00434504
3.10287e-05
0.0016255
-0.000613546
0.00545525
-0.0064672
0.00568954
-0.00180243
0.00273498
-0.0066221
0.0104368
-0.00335124
0.00778595
-0.0148715
0.00172238
0.00320042
-0.00133299
-0.00358981
-0.00470011
0.00193131
0.00246766
0.000301146
0.0033866
-0.00255258
-6.95112e-05
-0.000764506
-0.00220692
-0.00280206
0.00815551
-0.00314652
-0.00377859
0.00490196
0.00195835
-0.00308172
0.00568468
-0.000310462
-0.00187232
-0.00889418
0.00588076
-0.000488736
-0.00846435
0.00780792
0.00362617
-0.00296974
0.0053987
-0.00608574
-0.000878046
0.00156508
0.00306501
-0.00553107
-0.00290325
-0.00314459
-0.00288749
0.00163105
0.00440103
-0.00449614
0.00139672
0.00443505
-0.00133563
0.00518861
-0.00493849
-0.00339653
0.0031464
3.13873e-05
-4.47865e-05
-0.00484693
0.00486033
0.000119431
-0.00429312
-0.000162251
0.00433593
-0.00122513
-0.00725357
0.00114065
-0.00419984
0.00377846
-0.000719273
-0.00287668
-0.00121339
-0.000406064
-9.84718e-05
0.00722199
0.000103
-0.0172046
0.0121003
0.00874525
-0.00364098
-0.00508565
0.000346384
0.000186971
0.0045523
-0.00101069
0.0160853
-0.0189268
0.00385222
0.000799557
0.00123303
-0.00276798
0.000735384
-0.0108821
0.00585949
0.000758119
0.0042645
-0.00012728
-0.00723551
-0.00102863
0.00839142
-0.00302805
0.0108965
-0.00754184
-0.000326565
0.00489037
0.00710914
-0.0065691
-0.0054304
-0.00583312
0.00556003
0.0069011
-0.00662801
0.00225135
0.00314658
-0.00391899
-0.00147894
0.00225716
-0.00152322
-0.00361062
-0.0115805
-0.000455642
0.00946291
0.00257323
0.00338358
0.000517734
-0.00197001
0.00349811
0.0046824
-0.00432347
-0.00385704
-0.00578265
0.00129008
0.00564292
-0.00115035
0.000687643
0.00181532
0.00633351
-0.00673454
0.00665184
0.000642913
-0.00056021
0.0041284
0.00324122
-0.00292442
-0.000115551
-0.000822741
0.00386271
-0.00445049
-0.000887332
0.00247331
-0.00858822
0.003649
0.00246591
0.000260039
0.00461652
-0.00512344
0.00024688
-0.00178759
0.000345325
-0.00166181
0.00310408
0.00716426
-0.00512229
0.000215187
-0.00404774
-0.0031609
0.00425989
0.00294875
0.0152874
-0.0163577
0.005347
-0.00427661
-0.00292273
0.00363182
0.00146277
-0.00217185
-0.00671814
0.00291964
0.00585815
-0.00205964
-0.00291414
0.00423568
0.00543919
-0.00676073
0.00818248
-0.00317074
-0.00541963
0.000407893
0.000142455
-0.00199333
0.00485006
-0.00299919
-0.000843506
0.00083692
-0.00641656
0.00586847
0.00190776
-0.00628346
-0.00149277
0.00737121
-0.0060455
-0.00162522
0.00155792
0.00230429
-0.00544443
0.00158222
-0.00301434
-0.00553073
0.00491616
0.00362891
-0.000922948
-0.00239743
-0.000727364
0.00300265
-0.00321135
0.0069102
-0.0067015
0.000730651
-0.00842145
0.0076908
0.00288099
-0.00376273
0.00243967
0.0015451
0.000897458
0.00126772
-0.00371027
-0.000147735
-0.00699808
0.00714582
-0.00379229
0.000502965
-0.00123069
0.00452001
-0.000456408
0.00528492
-0.00481736
-1.11543e-05
-0.00359064
-0.00190191
0.00207822
0.00341433
-0.0013378
-0.00317579
-0.0029554
-0.00433611
0.00361726
0.00367425
0.000155688
-0.00444889
0.00771158
-0.00317032
-0.000410314
-0.00413095
0.00406953
-0.000389458
-0.00296897
-0.000711105
-0.000656933
0.00574418
-0.00717174
0.00208449
0.00371812
0.000142246
0.00181016
-0.00567052
-0.000135901
-0.00305392
0.00147318
0.00171664
-0.00210807
0.00274228
0.00530432
-0.00593854
-0.00747099
-0.00194422
-0.0020968
0.00692201
-0.00637266
0.000149354
0.00199848
0.00422482
0.000613938
-0.00226079
-0.00403115
0.00567801
-0.00290668
-0.00567489
0.00143138
0.00715019
-0.00267916
-0.00297187
0.00309352
0.00255751
-0.00691668
0.00665677
0.00701541
-0.00675551
-0.000928
-0.00162031
-0.004894
0.0074423
-0.00668154
0.000690867
0.00679937
-0.0008087
-0.00116855
0.00314035
-0.0019718
-0.00271128
0.00500992
-0.00377354
0.00147491
-0.000116855
0.00905243
-0.00336093
-0.00557464
-0.00323726
-0.00156579
0.0065035
-0.00170045
0.00104932
-0.00274724
0.00623127
-0.00453335
0.000283569
0.00402125
-0.000704478
-2.41547e-05
-0.0066452
0.00664415
2.52039e-05
0.00751347
-0.00133044
-0.0109823
0.00479923
-0.00694145
-0.000679883
0.0086666
-0.00104527
-0.00377152
0.00569763
0.000468236
-0.00239434
0.00337594
-0.00333582
-4.01242e-05
-0.0040327
0.000389558
-0.00348087
0.00712402
-0.00584165
0.00805008
-0.00167872
-0.000529703
0.00363329
-0.00152354
-0.00437967
0.00226991
-0.00703822
0.00710344
-6.52253e-05
0.00577391
-0.0083994
0.000681886
0.0019436
-0.00656227
-0.00179543
0.011223
-0.00286532
0.00483255
-0.000203291
-0.001015
-0.00361426
-0.00273656
-0.00467681
0.010416
-0.000496426
-0.00688277
0.00416784
0.010885
-0.0121429
-0.00115385
0.00241179
0.00289574
0.00137904
-0.00319865
-0.00304108
0.00316686
-0.000125782
-0.00123961
0.00692436
-0.000438867
-0.00524588
-0.0015106
0.00179184
0.0060345
-0.00631573
0.0039256
0.00921793
-0.0053939
-0.00774963
0.00670728
-0.00804698
0.00255812
-0.00121842
0.00615182
8.46887e-05
-0.00623651
0.000112063
0.00599388
-0.00610595
0.00672726
-0.00814226
0.00718892
7.77698e-05
-6.3035e-05
0.00524234
-0.00525708
0.000128488
0.00954727
-0.00951067
-0.000165091
-0.000812694
-0.00241358
-0.00487634
0.00810262
-0.00298352
-0.00178259
0.00059857
0.00564953
-0.00984164
0.00359354
-0.00479396
-0.00125708
0.00513982
0.000911217
-0.00562345
0.0062091
-0.00166001
0.00107436
0.000891062
0.00464514
-0.00157993
-0.00395627
-0.00228442
0.000579091
0.00385035
-0.00214502
-4.80808e-06
0.00171303
-0.00214324
0.000435022
-0.00240159
0.0058684
-0.00338208
-8.47267e-05
0.00176274
-0.00555583
-0.00324512
3.91712e-05
-0.00518221
0.00514303
-0.0019076
-0.00182978
0.000849546
0.00288783
0.0029018
-0.00167437
-0.00122743
0.00723688
-0.00718651
-0.00146645
0.00141609
-0.000658616
-0.00427497
0.00394084
0.000992744
-1.75474e-05
2.39496e-05
0.00385899
-0.00386539
0.00192122
-0.00157779
-0.00610859
0.00576516
0.00444281
-0.000114084
-0.00432873
-0.00653984
-0.00423217
0.00630938
0.00446263
0.00381226
0.00598267
-0.0102914
0.00362505
-0.0013038
0.00204042
-0.00436167
-0.00145131
0.00143327
-0.00797552
0.00799357
0.00226353
-0.00445791
-0.00433668
0.00653106
-0.000456159
-0.00102873
0.0048538
-0.00336891
0.00338163
-0.00415707
0.00150662
-0.000731182
0.00183255
-0.00303811
-0.00293644
0.00414199
-0.00595192
0.00670817
-0.0017922
0.00103595
0.00676172
0.00868318
-0.00956294
-0.00588196
-0.00524791
0.0052234
2.45169e-05
-0.000581941
0.00617448
-0.00772249
0.00212995
0.000238356
-0.000389474
-0.00593721
0.00608833
0.00586566
0.000246961
-0.00674916
0.000636543
-0.0024788
-0.00418961
0.00526857
0.00139983
-0.00598625
0.00848229
-0.00300449
0.000508455
-0.00249622
-0.00304433
0.00180669
-0.000369263
-6.18628e-05
-0.00428114
0.00471227
-0.0139972
6.02479e-05
0.00125899
0.012678
0.000555619
-0.0035708
-0.00184787
0.00486306
0.00871711
-0.000716767
-0.002821
-0.00517934
-0.00156641
-0.0033725
0.000662316
0.00427659
0.00244626
-9.6606e-06
-0.0024366
0.00409469
0.00218196
-0.00135902
-0.00491763
0.00317396
-0.00251749
0.00626766
-0.00692413
0.000206871
0.00652705
-0.00215472
-0.0045792
0.00158145
0.00225491
0.00488075
-0.00314957
0.000219251
0.00293032
-0.00406955
0.00057383
0.00108158
0.000683071
-0.00563659
0.00387194
-0.00530343
0.00776062
0.00235095
0.00802227
-0.00170075
-0.00867247
-0.00509606
0.00501009
-0.00792497
0.00801094
-0.000771476
-0.00386544
0.0013522
0.00328471
-0.00424895
0.00800432
0.00237091
-0.00276017
0.00061898
-0.000229717
-0.00261213
-0.00835071
0.00261298
0.00834986
0.00549422
-0.00548363
-4.92503e-05
3.86644e-05
0.00443096
-0.00517524
0.00110387
-0.000359584
0.00113775
0.00444593
-0.00792563
0.00234196
1.95956e-05
0.00384782
-0.00386741
0.0024756
-0.00635292
0.00501507
-0.0023919
0.00642821
0.00541445
-0.00945075
0.00182871
-0.00186301
-0.00866617
0.00870047
-0.00260462
0.00431831
-0.00866717
0.00695348
-0.00623516
0.00496441
0.00650709
-0.00523634
-0.00391915
0.00537106
-0.0034702
0.00201829
-0.00081698
0.00355918
0.000578512
-0.00332071
0.00182371
-0.00265904
0.00274288
-0.00190755
0.0034043
0.00126761
0.00111941
-0.00579131
0.0097594
-0.00663104
-0.000397943
-0.00273042
-7.26794e-06
-0.00474593
0.0047532
0.00295059
-0.00432167
-0.013248
0.0146191
-0.000594701
-0.00642433
-0.00194747
0.0089665
-0.000393757
-0.00298039
0.00337415
0.000903241
0.0042749
-0.000679507
-0.00449863
-0.00119986
-0.00433157
0.0034952
0.00203624
0.00331138
-0.00277279
-0.00487186
0.00849463
-0.00661374
0.00186503
0.00197551
-0.00384054
0.00640727
-0.000200795
-0.000780344
-0.00542613
-0.0012263
-0.00208555
0.00331185
0.00230705
0.0015331
0.0128073
-0.0154012
-0.00544272
0.00803657
0.00198124
0.00422082
-0.00322826
-0.0029738
-0.00449793
0.00859979
0.00572074
-0.00982261
0.00505713
0.00175481
-0.00067711
-0.00613483
0.00841018
-0.00560799
0.00361946
-0.00642164
-0.00470059
0.0021473
-0.00589021
0.0084435
-0.00763178
0.0136797
-0.00535983
-0.000688112
-0.000200419
-0.00328939
-0.00452611
0.00801592
0.00621543
0.00256582
-0.00729035
-0.00149089
0.003315
-0.00883565
0.00557489
-5.42394e-05
-0.00782862
-0.000296974
0.00512253
0.00300306
-0.00156985
0.00405868
0.00176341
-0.00425224
-0.00099724
0.0039988
0.00321549
-0.00621704
-0.00814434
0.00418817
-0.000398878
0.00435504
0.000754496
-0.00223444
0.00442947
-0.00294953
0.00344425
-0.00172842
0.00122894
-0.00294477
0.00335594
0.000646015
0.000326044
-0.004328
-0.00497823
0.00534199
0.00197756
-0.00234131
-0.001171
0.00627673
0.000127236
-0.00523297
0.00505477
-0.00296675
-0.00195984
-0.000128183
0.00441318
3.52245e-05
-0.0044484
0.00321702
0.00249102
-0.000564764
-0.00514327
0.00149677
0.00395385
0.00338461
-0.00883522
-7.87403e-06
-0.00710387
0.00711175
-0.00370304
0.0143431
-0.0020921
-0.00854801
-7.15216e-05
0.00535767
-0.00528615
-0.000358082
-0.00386541
0.000695254
0.00352823
-0.00696164
0.00354898
0.00269191
0.00072075
0.00141892
0.00118025
-0.00813781
0.00553864
0.00417476
0.0065946
-0.00246476
-0.0083046
0.00627418
-0.00214528
-0.00600562
0.00187672
-0.00783215
0.00446393
0.0119467
-0.00857846
-1.96396e-05
0.00298312
-0.0029829
1.94141e-05
-0.00308894
0.00305683
3.21063e-05
-0.00797471
0.000122882
0.0033539
0.000887927
0.00192128
0.00525972
-0.00806892
0.00418016
-0.00497124
0.00320572
-0.00241464
-0.00396118
0.00346967
-0.000130919
0.000622437
-0.00083339
-0.00653212
0.00836458
-0.000999077
-0.00290802
0.00140001
0.00460528
-0.00309727
0.00507093
-0.00195575
0.000750419
-0.0038656
-0.00339563
-0.000593003
0.00397677
1.18716e-05
-0.000575343
-3.08212e-05
0.00546469
-0.00485853
0.000704264
-0.000590447
0.00552024
-0.00563406
-0.00496311
0.00693055
-0.00725954
0.0052921
2.55969e-05
-0.00626109
0.00623549
-0.00222258
0.000196739
0.00560448
-0.00357864
-0.00428908
0.00501432
-0.0068384
0.00611316
-0.0043993
0.000335138
0.00134192
-0.00202407
0.00549255
0.000306313
-0.00377479
-0.0014691
0.000206035
-0.00249605
-0.00215965
-0.00702132
0.00705255
0.00212842
-0.00312872
-0.000365435
-0.000788126
0.00428228
-0.0107055
0.00361567
0.00105276
0.00603712
-0.00341976
0.00778303
-0.00384883
-0.000514442
0.00238616
0.000930815
-0.00478607
0.00468593
0.00477906
-0.00946498
0.00062832
0.0102472
-0.00238023
-0.00849529
-0.000128696
-0.000181699
-0.00448892
0.00479931
-0.00491308
0.00809371
-0.00326356
8.29283e-05
0.0046675
-0.00294787
-0.00423068
0.00251105
0.00115802
-0.000155368
0.00141738
0.00717349
0.00200213
-0.0103891
0.00121351
-0.00497214
-0.000649227
0.00162981
0.00399156
0.00189399
-0.00209292
-0.00284539
0.00863123
-0.00580695
0.00451426
-0.00733854
-0.000958037
0.00557735
-0.0096457
0.00502639
0.00336076
-0.00424484
-0.000431159
0.00131525
-0.00372717
-0.00129845
-0.000125778
0.00515139
-0.00277689
-0.00262508
0.00540197
0.000693143
-0.00741769
0.00658221
0.000142344
0.00285577
-0.00275515
-0.0028775
-0.0046697
0.0059251
-0.00112581
-0.00012959
0.0066709
0.00183751
-0.00719112
-0.00131729
-0.00257427
-0.00377813
-0.000436434
0.00678884
0.00418979
-0.00127587
0.00485686
-0.00777077
-0.00470333
-0.000259778
-0.00564758
0.0030225
0.000727395
-0.00633446
0.00202704
0.00358002
0.00183066
-0.00655595
0.00360993
0.00111536
0.000984279
0.00025492
-0.00492894
0.00368974
0.000756389
0.00323535
-0.00021628
0.00549529
-0.00108574
-0.00419327
-0.00216008
-0.000217087
-0.00201354
0.00439071
-0.00127463
-0.0017164
0.00328202
-0.000290997
-0.00515665
-7.63608e-05
-0.00871078
0.00312803
0.0045855
0.0123275
-0.000101467
0.00167679
-0.0139029
-0.00539665
0.00838302
0.00170154
-0.00468791
-0.00154078
0.000844612
0.00531553
-0.00461937
0.000646865
0.00183847
-0.00142149
-0.00106384
-0.00927646
-0.00192038
0.00800113
0.00319572
0.00020113
0.00389081
-0.000780565
0.000118457
0.00197139
-0.00618842
0.00409858
-0.0038507
-1.39298e-05
0.00141944
0.00244519
-0.00521687
0.00644751
-0.00102951
0.00295085
-0.00266081
-0.000290041
-0.00437491
0.000628654
-0.00339361
0.00713986
-0.00196579
0.00295964
-0.00228106
0.00128721
-0.00422617
0.00475916
-0.00196631
0.00143332
0.00191296
-0.00031463
-0.00456399
0.00296566
-0.00188872
0.0118433
-0.0159408
-0.00174471
-0.00121738
0.00119169
0.00177039
0.0056677
-0.00884446
-0.000402724
0.00357949
-0.00240791
0.00179705
0.0030963
-0.00248544
-0.000710441
0.00379919
-0.00104975
-0.002039
-0.0042793
0.000949783
0.000999479
0.00233003
-0.00236115
0.000203306
0.00215785
0.00551267
-0.0026242
-0.00279916
-8.93161e-05
0.000397883
0.00271563
-0.00412178
0.00100827
-0.00295286
-0.00358165
0.0036518
0.00288271
-0.0015154
0.0039125
-0.0033552
0.000958101
0.0014236
-0.0026954
0.00185754
-0.000585733
0.00513837
0.000135644
-0.00527401
0.00441734
-0.00543594
0.00268979
-0.00167119
-0.00694132
-0.000197709
0.00713903
0.00286937
-0.00237889
0.000555243
-0.00104571
-0.000221559
0.00492135
-0.00537397
0.00067418
-0.00248052
0.00310483
0.000799287
-0.00271617
0.0058209
0.00537756
-0.0046829
0.00464359
3.93162e-05
9.71328e-05
-0.0074297
0.00733256
0.00995046
0.00120095
-0.00211743
-0.00903398
0.00208164
-0.00811389
-0.00100744
0.00703969
0.00158512
0.00188184
0.00105347
-0.00452043
-0.00279089
-0.00279087
3.93327e-05
0.00554243
-0.00133183
0.00182653
-0.00328559
-0.00615183
0.00110891
0.00807522
-0.00303231
-0.0120856
0.00885363
0.0038924
-0.000660441
0.00535622
4.48231e-05
-0.00540105
-0.00301232
-0.00405414
0.00262251
0.00444394
-0.00304632
-0.00442786
0.00132235
-0.00439533
0.00238965
0.00276207
0.00177191
-0.002326
-0.00421537
0.00476946
-0.00301823
2.97593e-06
0.00301525
-0.00701114
0.00283329
0.00288184
0.00129601
0.00177329
-0.00474057
-0.00142805
0.00600763
-0.00190387
-0.000151644
-0.00395211
-0.00402418
0.006669
0.00395662
-0.00660144
-0.00117307
-0.00246665
0.000898701
0.00274102
-0.00171216
-0.00137806
0.00309022
-0.00297534
-0.00624769
-0.00286257
0.0013828
1.88988e-05
0.00279048
-0.00419218
0.00570436
-0.00415161
-0.00601088
0.00445813
-0.00211461
0.000753917
0.00427415
-0.00291346
0.00404094
-0.00284505
-0.000400805
-0.000795082
-0.004637
0.0007523
0.00362258
0.000262119
-0.00288777
0.00661825
-0.00714202
0.0027841
0.000206857
0.00415106
0.00667831
-0.00532965
-0.00419863
0.00284996
-0.00529598
0.00110296
0.00989739
-0.00516976
-0.00340816
0.00556444
0.00301349
-0.000607278
0.00539628
-0.00204571
-0.00274329
0.000303488
-0.00315825
-0.0020805
0.00493526
0.00613505
-0.00404752
-0.000248302
-0.00183924
0.00188487
0.00140763
-0.00462434
-0.00129059
0.00146202
0.0036025
-0.00377393
-0.00106326
0.00556183
-0.00685639
0.00235782
-0.00331243
0.000798378
0.000802477
0.00171157
-0.0073246
0.00744633
-0.000121736
0.00505174
-0.00497767
-7.40649e-05
0.00202469
-0.00781634
-0.0030016
0.00879325
0.00179656
0.00341622
0.000794852
-8.71766e-05
0.00300903
-0.00292185
0.00479004
0.00429504
-0.00908507
-0.00534064
0.00326081
0.00230405
-0.000224217
-0.00299952
0.000988324
0.00243884
-0.000427641
-0.00890245
0.00415686
0.00487383
-0.00012823
-0.00291247
-0.00324382
0.00313807
0.00458284
-0.000722031
-0.00295387
-0.000906947
-0.00497811
0.00537197
-0.00328163
0.000858157
-0.00548018
-0.000279935
0.00490196
-6.20985e-06
-0.00269683
0.00270304
0.0133147
0.000108274
0.00141609
-0.0148391
-0.00049689
-0.000972516
-0.00716973
0.00863914
0.0023212
-0.00314371
-0.0014673
0.00228981
0.000892044
0.00690454
-0.00278307
-0.00501351
0.00753624
-0.00754062
-1.786e-05
2.2242e-05
-0.00421599
-0.00380219
0.00594327
0.00207491
0.00246798
0.00189507
-0.0049225
0.000559455
3.32099e-05
0.00456149
-0.00466165
6.69576e-05
-0.00630369
0.00201711
0.00510798
-0.000821397
0.00485922
0.00293907
-0.00491972
-0.00287856
0.000111642
-0.00429443
0.00218012
-0.00112786
0.00648397
-0.00349615
-0.000455267
-0.000545538
0.00449695
-0.00581313
0.000319244
0.00549389
0.0084893
0.00367385
-0.00275589
-0.00940726
-0.00554626
0.000116393
0.00554151
-0.000511699
-0.00133373
-0.00340143
0.00524686
-0.000690864
-0.000658866
-0.00178456
0.00313429
0.00139979
-0.00709262
0.00534767
0.000345165
0.00441766
-0.000688012
-0.00429846
0.000568811
-0.00547126
0.00115048
0.000452308
0.00386848
-0.00207362
0.00135322
-0.00278508
0.00350547
0.00119422
0.000769231
-0.00705897
0.00509551
0.000245466
-0.0047702
-0.000331651
0.00485639
0.00474042
0.000619444
-8.07643e-05
-0.0052791
-0.00563837
0.00131194
0.00510309
-0.00406321
-0.00539769
0.0094609
0.00783002
-0.0039932
0.00167743
-0.00551425
0.000613277
0.00440921
-0.00270128
-0.00631769
0.00117374
0.00222711
0.00291685
0.00780039
-0.00803166
0.000231275
-0.00468492
-0.00159289
0.00328032
0.00299749
-0.00611569
-0.00474965
0.00318523
0.00768011
0.0064184
-0.00670262
-0.000820311
0.00110453
-0.000934543
0.00311292
-0.00245199
0.000273621
-0.00796721
0.00260047
0.00182953
0.0035372
-0.0117578
0.0146393
0.00241565
-0.00529714
0.00524491
-0.0113763
-0.000569584
0.00670093
-0.00467195
0.00592606
-0.0109752
0.00972108
-0.0049195
0.0108572
0.00107443
-0.00701212
0.000431578
0.0051199
-0.0011969
-0.00435458
0.00780381
-0.00585596
-0.00019494
-0.00175291
-0.00137499
-0.00132109
0.00201847
0.000677612
-0.00370659
-0.00769092
0.00655229
0.00484521
-0.00523678
0.00698049
0.0060601
0.00421339
-0.00309806
-0.00385878
0.00274345
0.0015789
-0.00204223
-0.000902238
0.00136557
0.00350092
-0.00346365
-0.00460867
0.00457139
-0.00141616
0.00406194
-0.000293677
-0.00235211
-0.00560253
-0.000893816
0.00692792
-0.00424597
-0.00104365
0.00524895
4.0663e-05
0.00171598
-0.00383367
0.00211769
0.0013764
-0.0018268
0.00681363
-0.00636323
0.00532856
-0.00749007
0.00108393
0.00107759
0.00338292
-0.00364945
0.000266535
-0.00537918
0.000142397
0.00481653
-0.00183332
-0.00464596
0.00166275
0.00151262
0.00122718
0.00537267
-0.00811247
0.00329693
-0.00357923
0.000282296
-4.04873e-05
0.00419724
-0.00474501
0.000588262
-0.00589329
-0.00056687
0.00783656
-0.00256105
-0.000437882
0.000592352
0.00240658
0.000353691
-0.00292031
0.00215317
0.000413448
0.00478599
-0.00458309
-0.00113744
0.000546007
0.00787017
-0.00495714
-0.00345903
-0.00271042
0.00574178
-0.00303136
-0.00731674
0.00280054
-0.0017179
0.0062341
0.00574992
-0.00520603
-0.00851109
-0.00278882
-0.00334064
0.0114745
-0.00534507
-0.00823409
0.00524571
0.00747888
-0.00449051
-0.000181062
-0.00704153
0.00722259
0.0111394
2.19397e-05
-0.00641714
-0.00474423
0.00647976
-0.00417728
-0.000578134
-0.00172434
-0.00471738
0.00335132
-0.000850706
0.00221676
6.41358e-05
-0.0048516
0.00478747
-0.00356874
0.00367363
-0.000104891
-0.00257142
-0.0027146
-0.00695742
0.0122434
-0.00656
0.00143209
-0.000729958
0.00585787
0.00151273
0.0024546
0.00675022
-0.00609404
-0.00503667
0.00438048
-0.00187202
-0.00386135
0.00425955
0.00147383
-0.00388381
-0.00197454
0.0058642
-5.85496e-06
0.00127229
-0.000732412
-0.00360418
0.00306429
0.00428495
0.000190601
-0.00547796
0.00100242
0.00132253
-0.000921393
0.00141124
-0.00170363
0.00169777
-0.00140538
0.00350051
0.00342951
-0.00350139
-0.00342863
0.00172835
0.00404095
-0.00417731
-0.001592
0.00367933
0.00159452
-0.00288769
0.00452561
-0.00548838
0.00115337
-0.00601474
0.00420506
0.00226438
-0.000454694
0.00718535
-0.00237484
-0.00752093
-0.0019151
0.00510159
0.00256343
0.00497533
-0.00242426
-0.00419176
-0.0011418
-0.000681179
-0.00669642
0.00626119
0.000591522
-0.00015629
-0.000415799
0.00837467
-0.000867603
-0.00709127
-0.00546867
0.00111564
0.00243793
-0.00087773
-0.00556884
0.00156419
0.00488238
0.00500116
0.000696451
-1.74833e-05
-0.00568012
-0.00747166
-6.00945e-05
5.07131e-05
0.00748105
-0.00190937
0.00209659
-0.00339015
0.00320293
-0.00515151
0.00651077
-0.000669172
-0.000690085
0.00677629
-0.00632338
-0.00560442
-0.0049962
0.00450942
-0.00142984
0.00191661
0.00406391
-0.000183422
-0.00127774
-0.00260276
-0.00758438
0.00731618
0.00358218
-0.00331399
0.00356433
0.00135771
-0.000453054
-0.00446899
0.00130173
0.00329913
-0.00412594
-0.000474924
-0.00244603
0.00246046
-1.44222e-05
-0.00142861
-0.00364668
0.00365913
0.00548492
-0.0054353
-4.96255e-05
-0.00310759
-0.00246483
0.00242871
-0.000320586
-0.00372916
-0.00040427
0.00445402
-0.000418834
-0.00321997
0.00288046
0.000758347
0.00511865
-0.00582128
0.000702633
-0.00650928
0.00667336
0.00612011
-0.00628419
-0.00437035
0.00337478
-0.00229682
0.00329239
-0.00173774
0.000742481
0.00157343
-0.000578175
-0.000182315
0.007895
-6.92432e-05
-0.00764344
-0.00396655
0.00192304
0.00195395
0.00226925
0.00288853
-0.0050397
-0.000118076
0.000218868
-0.00626798
-0.000245471
-0.00572073
0.00571854
2.18901e-06
-0.00382731
0.00192595
-0.00421433
0.00130398
-0.00288562
0.000114339
0.00249016
0.00108109
0.00379764
7.39628e-05
-0.00324822
-0.000623374
0.00318003
-0.00793572
0.00636243
-0.00160673
0.00130888
-0.00178351
0.0066309
-0.00615627
0.00810816
0.00239853
-0.00124671
-0.00925997
-0.00207813
-0.00341308
-0.00110736
0.00659858
0.00246074
0.0102443
-0.00925129
-0.0034537
0.00117923
0.00743025
-0.00717442
-0.00143507
-0.00257144
0.000339108
0.00527114
-0.0030388
-0.000896256
0.00728757
-0.00393058
0.00527604
-0.00416467
-0.0016273
0.000515935
0.00173467
0.00454137
-0.00627605
0.00424893
0.000943438
-0.000566235
-0.00462613
-0.0039147
0.00312929
0.000314597
0.000470809
-0.000374998
-0.00551452
0.000322782
0.00556673
-0.0040417
-0.000513849
-0.000167073
0.00472262
0.00233877
-0.0051907
5.12353e-05
0.00204009
0.00309937
4.64351e-05
0.00337873
-0.00342517