/*--------------------------------*- C++ -*----------------------------------*\
  =========                 |
  \\      /  F ield         | OpenFOAM: The Open Source CFD Toolbox
   \\    /   O peration     | Website:  https://openfoam.org
    \\  /    A nd           | Version:  10
     \\/     M anipulation  |
\*---------------------------------------------------------------------------*/
FoamFile
{
    format      ascii;
    class       volScalarField;
    location    "27.5";
    object      SgP;
}
// * * * * * * * * * * * * * * * * * * * * * * * * * * * * * * * * * * * * * //

dimensions      [1 -1 -3 -1 0 0 0];

internalField   nonuniform List<scalar> 
111485
(
1.64318e-09
0.000121734
2.82255e-05
5.63093e-11
8.58171e-06
3.18828e-08
1.52249e-05
2.5528e-07
1.04945e-05
2.97871e-06
2.57238e-05
9.18587e-07
6.87365e-06
0.295537
6.78561e-06
1.61388e-05
0.209126
0.00105486
8.93896e-07
4.79976e-08
0.0372102
3.23084e-09
3.16445e-06
1.13838e-05
4.0099e-05
3.46139e-08
5.9253e-07
1.47584e-05
1.06042e-06
0.0481412
4.13472e-06
5.03271e-07
2.17956e-07
1.46009e-06
0.000753016
9.18605e-05
0.136664
0.205844
0.0024647
9.04298e-07
0.0435935
1.18591e-06
3.03691e-06
0.000107938
1.87659e-05
1.58682e-06
6.55094e-06
4.41545e-07
6.07841e-06
4.285e-07
1.09554e-06
1.72327e-05
4.63369e-07
9.9957e-06
1.5088e-06
1.61618e-07
2.80695e-06
4.44878e-08
5.07279e-05
3.85337e-07
5.82669e-07
2.65011e-07
8.57882e-05
7.07196e-06
6.4637e-06
2.13664e-05
0.00042549
2.39894e-06
7.17239e-05
0.000142755
4.84137e-05
8.75887e-05
1.12519e-05
9.19965e-05
4.65167e-08
1.7927e-06
1.49647e-08
7.18476e-07
2.74699e-08
3.12603e-05
0.281093
0.526622
4.71831e-08
5.23371e-09
1.62015e-05
3.81439e-05
0.143781
9.08694e-06
0.00024753
4.47679e-06
1.36557e-06
6.62372e-06
4.62313e-05
4.86892e-07
2.24109e-06
6.6838e-09
0.0270616
1.19546e-05
0.00154896
0.00057832
1.47417e-09
2.63819e-06
1.96806e-06
1.43745e-05
6.14999e-06
1.64566e-05
5.74173e-09
2.84697e-07
1.5244e-05
0.000730389
4.21465e-05
1.37858e-06
1.32649e-05
7.42285e-05
1.03792e-07
1.81316e-07
3.07233e-08
6.56121e-06
2.31924e-05
4.18467e-09
9.15929e-08
0.000189968
0.0753706
2.27195e-06
5.80083e-05
0.0279356
0.000107356
1.33998e-05
2.95353e-10
0.00032245
0.000137278
1.75734e-05
0.0471995
0.000175152
7.85583e-05
8.40829e-07
8.4404e-10
3.24738e-07
1.00555e-05
2.463e-05
7.13784e-05
4.02387e-07
0.180385
9.96508e-05
4.11294e-05
2.4186e-06
8.2113e-10
8.97358e-10
4.77132e-08
5.12029e-07
3.37393e-05
0.0285453
0.115779
1.41778e-05
3.53305e-05
5.51738e-07
5.67131e-06
0.000154023
0.000824186
5.43615e-06
9.64167e-10
7.18067e-07
4.04117e-05
7.40843e-05
6.3912e-05
3.85899e-05
7.35863e-06
0.0271127
0.00156754
0.000127727
1.59557e-09
1.52077e-08
0.197964
1.13382e-10
2.66098e-07
2.86619e-06
5.25054e-07
9.57384e-06
3.6659e-08
5.80608e-06
9.91801e-06
3.71542e-08
2.65349e-06
5.07412e-07
2.40892e-06
2.0612e-05
9.85029e-06
5.54106e-05
0.00038756
1.78753e-07
5.42657e-05
5.78988e-06
7.13517e-06
3.71541e-05
5.15826e-06
1.20599e-05
2.07299e-06
1.39342e-06
8.46045e-07
8.89401e-06
3.01215e-06
0.00165702
8.07382e-05
9.27202e-07
1.82896e-06
4.11831e-06
1.26092e-05
1.18778e-05
1.82764e-05
2.43656e-06
5.71032e-06
9.84995e-06
8.64557e-06
7.87339e-09
7.04679e-05
0.000312213
4.59083e-07
7.27595e-09
1.20383e-05
1.77221e-05
8.69399e-07
8.33332e-08
1.62623e-05
1.6618e-05
0.000277931
6.89267e-09
4.37786e-10
3.19597e-05
0.00418434
2.35548e-05
9.37784e-05
1.39328e-05
2.37709e-06
0.146196
3.87213e-05
2.02799e-05
0.160981
4.66689e-08
6.20764e-05
2.21871e-05
2.70138e-05
3.29547e-05
4.83304e-06
3.90092e-06
0.00195014
1.1263e-06
7.85225e-06
1.26521e-08
4.70999e-06
0.136642
1.83547e-05
1.10042e-05
2.17226e-05
7.85336e-10
0.00019325
4.75775e-07
2.78866e-07
6.61516e-05
0.0996822
1.85227e-08
4.6539e-06
5.50228e-05
2.52501e-06
3.37096e-09
1.15644e-05
6.43553e-11
6.08882e-08
5.10013e-07
0.165027
4.34561e-06
3.24626e-05
1.36605e-06
0.177511
1.98605e-05
1.41955e-06
0.000255828
4.74853e-06
1.18789e-06
4.50491e-07
5.35947e-09
0.111606
4.26851e-07
4.00705e-05
2.10252e-05
1.78417e-09
0.217843
0.266054
1.57708e-06
0.0003195
3.12335e-05
3.20333e-06
8.7851e-06
1.19176e-05
2.00867e-08
7.60935e-06
3.02703e-09
0.000358191
0.000276532
1.59574e-05
1.69423e-06
0.34691
1.76819e-08
0.0861082
1.10588e-06
7.77953e-06
3.07398e-09
1.15029e-07
0.0246241
4.90943e-06
1.51704e-06
5.94714e-06
0.000171886
7.76849e-07
3.05057e-05
3.05828e-08
3.54078e-08
5.72613e-06
0.00443247
0.250471
3.43531e-06
0.000792839
1.78788e-09
8.69435e-09
1.40465e-08
8.47919e-05
5.70745e-07
5.86727e-07
2.17594e-06
8.73269e-07
7.15016e-05
0.0608006
5.57152e-06
1.23118e-07
1.89695e-06
2.30465e-06
0.0483507
4.99803e-05
7.38001e-07
7.22652e-07
7.87855e-07
1.3476e-05
7.04932e-08
0.151392
0.000173539
8.58557e-07
3.21593e-06
0.000304418
4.80662e-07
0.0391524
5.41365e-07
1.07668e-05
6.16131e-06
3.89393e-07
2.01974e-05
9.11347e-06
1.96065e-07
5.47165e-07
7.13189e-07
1.76595e-06
0.362383
2.99189e-05
1.70439e-07
0.0530241
1.65382e-05
1.73454e-08
4.079e-07
3.7621e-07
0.0469113
0.00062235
0.045896
0.0497062
2.83527e-07
2.50634e-08
2.8069e-06
4.07524e-06
4.07535e-10
7.76328e-06
3.04874e-06
1.58074e-05
2.65554e-05
0.00014179
5.60322e-06
0.000709508
4.7765e-07
8.22058e-06
4.31623e-05
1.16168e-06
0.000673112
3.89835e-07
1.47443e-05
2.85236e-06
0.0303912
1.17679e-07
2.08317e-07
0.154847
4.77891e-06
0.306578
6.64203e-08
4.70922e-06
3.52004e-06
7.78254e-09
5.17757e-06
4.62701e-05
3.73794e-09
0.0320393
3.17154e-06
2.83896e-06
4.59406e-07
2.57032e-08
0.000758245
3.7772e-09
1.03494e-05
3.63658e-06
4.2732e-10
1.10076e-06
3.87884e-05
0.246941
0.000134927
2.02186e-09
7.95768e-05
0.000102781
9.89644e-05
3.90752e-05
0.000631273
2.52703e-06
0.00112613
5.52059e-05
0.204944
0.000203609
4.58686e-08
7.4421e-06
1.06683e-06
2.03762e-07
0.00141978
0.000222982
8.32848e-05
1.47795e-06
1.3379e-06
9.58502e-06
3.67315e-08
0.351708
8.24444e-07
3.36461e-05
0.00438641
9.16604e-05
0.00127318
3.56651e-08
0.253605
0.332552
2.5951e-08
3.56285e-05
0.000261839
0.000103554
4.05578e-09
3.01664e-05
3.47623e-09
0.285096
7.24155e-05
2.13561e-05
0.000108717
2.11553e-05
1.95858e-07
1.77179e-06
4.99888e-07
6.95809e-05
1.54532e-07
5.98389e-07
0.0523984
9.61274e-05
4.03683e-08
1.47222e-09
0.000385089
8.46562e-08
1.60618e-06
3.61297e-06
2.75238e-08
6.13947e-05
6.74097e-08
0.0741498
6.92108e-08
1.65933e-06
3.68558e-08
0.000239584
4.30953e-07
0.22415
1.97325e-05
0.236994
8.92321e-09
6.66702e-05
2.58958e-06
2.67849e-09
0.369922
0.143254
2.63181e-05
3.03498e-06
3.06501e-05
5.8617e-07
1.16439e-05
7.91054e-07
4.60493e-05
0.289989
2.53668e-08
2.42191e-06
0.000108454
1.79095e-05
0.0591304
5.93023e-06
0.000114991
2.46456e-06
1.37868e-06
0.000782128
0.0820639
1.78014e-05
2.1432e-08
1.37928e-06
3.55531e-06
3.55616e-06
1.14531e-06
1.96064e-05
1.75413e-09
0.00169712
1.41842e-07
3.56671e-07
1.78691e-07
9.63981e-05
4.21313e-09
9.51986e-06
2.94813e-08
9.3389e-06
1.91716e-09
0.116305
0.114791
2.00622e-05
1.16656e-06
0.0653314
0.0813982
4.74517e-08
2.47393e-07
1.51106e-05
4.69916e-08
0.000173187
1.78434e-05
1.13052e-05
0.0426478
1.67758e-06
2.3624e-09
4.68393e-05
3.93958e-05
6.24094e-05
1.55889e-06
1.59014e-05
1.04815e-05
1.19591e-06
9.78465e-07
2.14463e-05
3.32657e-05
2.63672e-09
0.126584
6.74339e-05
4.37837e-05
1.34707e-06
0.00120567
3.20369e-05
0.000463835
0.0030237
0.000386047
4.11056e-06
8.63978e-05
1.15578e-05
2.12368e-05
0.11511
0.000212475
7.44481e-05
0.00358836
0.0770708
3.16359e-08
6.5483e-05
4.59632e-06
4.07052e-05
3.6456e-07
0.00052262
0.00274584
0.000433809
0.000167311
2.67789e-05
2.36536e-06
5.74171e-08
0.000198848
3.46028e-06
2.91164e-08
5.52499e-10
5.62046e-08
3.19491e-08
1.00076e-05
1.79621e-09
0.0347496
1.28126e-05
2.56435e-05
0.0989074
0.319518
6.03908e-05
3.04667e-06
0.0371459
5.53585e-08
1.8765e-05
1.80612e-07
1.93681e-08
4.77978e-05
2.37156e-05
0.121566
2.65821e-05
1.66655e-07
2.6923e-06
2.83293e-05
0.143894
7.08725e-06
2.76063e-05
7.06682e-05
0.196927
0.041612
2.83329e-06
1.77856e-05
5.96077e-06
2.41516e-06
6.04029e-06
1.06869e-06
3.18221e-05
4.20639e-06
2.17107e-06
1.14021e-06
4.37391e-06
0.000658902
3.26953e-05
4.24888e-06
5.13943e-06
0.000660321
4.11279e-07
5.13252e-07
1.79865e-05
3.10785e-06
1.66455e-05
3.10845e-06
3.27734e-06
3.42707e-06
3.29619e-05
0.000198181
1.26683e-05
1.85113e-05
3.11694e-06
5.12218e-07
4.48223e-05
4.45361e-06
4.01715e-09
0.0778851
1.60873e-08
0.136812
5.89076e-05
0.0118062
8.02957e-08
0.0295395
1.44059e-06
1.1408e-05
1.32884e-09
7.20574e-06
3.01004e-07
1.65299e-08
8.16607e-07
0.283001
0.000130131
2.96278e-05
0.0411824
1.0182e-07
2.81105e-09
3.68388e-06
1.90932e-06
8.36807e-05
5.32043e-07
0.000128629
6.48823e-08
7.38898e-06
0.000125636
0.168397
6.31669e-10
4.60283e-09
3.37428e-06
8.46987e-07
0.000132736
4.32161e-07
0.0632147
1.19291e-06
2.65688e-08
1.22917e-07
0.0456642
6.52014e-06
0.000139591
6.2154e-10
0.00503867
0.00105043
0.1824
1.61187e-08
1.90445e-08
3.56334e-06
2.27837e-05
3.9581e-05
0.000587513
0.000331009
0.000260013
5.03968e-06
0.0636664
2.69848e-05
8.05823e-07
6.91003e-08
1.20497e-06
1.35971e-08
9.38738e-09
7.72297e-08
9.48459e-10
3.41864e-06
7.11091e-08
1.93739e-08
3.26952e-07
1.99643e-07
1.67238e-06
1.08858e-07
5.79761e-07
2.84103e-07
1.50972e-05
1.67185e-05
2.69853e-08
7.47065e-09
2.22742e-05
7.90541e-10
9.241e-05
2.16043e-06
5.07755e-06
1.239e-07
1.27815e-10
9.54594e-10
1.60481e-09
1.5674e-05
1.86518e-08
6.5976e-08
2.10468e-05
4.7983e-09
1.41191e-05
8.24866e-05
2.35301e-06
1.73077e-06
0.000528434
4.55206e-06
0.25246
0.0001101
8.31307e-06
0.209992
8.24878e-05
6.20079e-06
2.84895e-05
9.69341e-07
2.04872e-05
0.0890527
0.000707647
6.22588e-07
3.75101e-08
1.27933e-05
8.05504e-05
9.97868e-05
9.227e-05
1.85089e-09
1.56082e-10
1.31136e-06
3.86554e-05
9.32278e-06
3.91137e-06
0.000207511
3.57821e-06
2.99953e-05
1.45907e-07
1.53111e-08
0.0336129
8.10239e-06
3.70797e-07
2.75931e-08
4.98583e-05
0.000131333
1.78781e-06
3.47893e-07
0.0407051
1.62235e-09
2.74946e-05
0.0640653
9.78065e-09
0.0727098
4.30456e-05
0.0372524
0.00061012
1.06948e-07
2.49293e-05
2.20606e-05
0.0458676
5.70803e-05
0.00131585
0.161907
0.000144854
1.15155e-05
1.00107e-06
1.27009e-06
0.487168
0.162263
4.31045e-08
0.242229
1.39001e-05
0.000162655
2.5321e-05
2.2183e-05
0.00121504
3.98769e-05
1.40008e-05
6.83384e-06
1.33656e-07
1.79e-06
0.0458613
8.19527e-08
5.57311e-05
2.82642e-05
9.80243e-08
3.97335e-06
0.217731
4.52146e-06
2.96303e-07
0.000646906
1.56534e-08
4.05864e-06
0.212733
2.34262e-08
0.178173
0.34304
0.00135458
1.78093e-05
1.07391e-06
3.77292e-06
6.32232e-05
0.000224967
0.0012043
0.000318478
4.30214e-06
0.0455782
0.000112106
9.3134e-10
0.000304308
0.000299861
0.000611789
0.000467151
0.000863723
0.000171349
1.08307e-09
6.88749e-05
1.02798e-06
4.1247e-07
0.00171333
0.350181
1.75525e-07
3.30464e-08
0.0032432
0.00330345
3.25504e-09
0.000605528
8.67179e-08
1.58676e-08
1.25019e-08
4.4936e-07
5.07048e-06
1.65577e-07
7.84902e-05
0.0521148
1.4529e-09
5.06602e-07
0.00451242
0.116212
7.54332e-05
7.83558e-07
0.0327429
1.03129e-08
0.000134484
4.02693e-09
2.26697e-09
0.000575364
0.130207
2.57344e-06
8.53706e-09
6.70886e-08
0.035893
1.84665e-08
0.0232617
4.70232e-08
0.000104191
7.63332e-09
0.0019608
3.18924e-06
2.84547e-09
7.56953e-07
5.60221e-07
0.00140779
6.27137e-07
2.36476e-08
2.09365e-06
0.00444345
0.0543856
7.26497e-05
0.000614825
0.00107063
4.31411e-08
0.00133017
1.03456e-05
3.45754e-07
3.4008e-06
0.00021605
2.24747e-05
1.18093e-07
9.56285e-06
0.000151139
1.00918e-07
1.36872e-06
7.53775e-07
1.62953e-05
0.0734696
1.33981e-09
8.95837e-07
0.0611986
0.000121972
7.77329e-05
5.77937e-09
8.71318e-07
1.72889e-08
1.13786e-06
2.7574e-05
5.3353e-05
5.52997e-07
3.01476e-05
2.76586e-05
8.32279e-05
1.69502e-05
7.09949e-09
3.83635e-06
1.67504e-09
5.05109e-07
6.73788e-05
0.000186615
3.10782e-08
5.09586e-07
4.55837e-06
1.5436e-10
4.7994e-05
4.46613e-07
7.33228e-05
0.000842126
7.54763e-05
1.47899e-08
0.00139277
0.000119446
6.32751e-05
0.00015956
4.64067e-08
0.000164545
2.56489e-06
0.117529
3.50885e-05
9.80816e-05
6.26601e-08
6.60078e-10
2.37827e-08
0.187025
0.075193
4.47035e-05
6.79139e-10
0.00014025
2.99451e-08
0.17377
0.000160971
7.62964e-07
9.26569e-08
3.4212e-06
6.18135e-07
9.01523e-05
2.13319e-06
0.000123472
0.313618
4.201e-06
7.22417e-05
3.39502e-05
7.01797e-05
5.22169e-05
3.26822e-08
3.39772e-10
2.8499e-06
3.68091e-05
8.23147e-09
2.03043e-07
0.000610151
4.5929e-07
1.44213e-06
0.423838
1.76523e-06
6.87393e-05
4.02637e-10
3.33543e-06
2.66231e-07
0.332025
3.12201e-09
0.119435
0.00554168
0.000138114
1.72583e-05
1.58148e-05
0.000946785
2.57659e-06
3.71056e-06
2.32382e-06
1.01583e-06
6.22016e-08
1.87189e-06
8.61238e-05
2.40027e-06
0.0710614
2.76904e-07
4.35245e-06
0.000308872
2.06871e-09
0.000385437
8.61154e-08
3.9777e-05
0.000832769
6.86104e-08
2.143e-06
7.06953e-05
5.51375e-07
9.42249e-06
0.182688
8.22866e-07
9.99935e-06
1.60852e-10
0.0468784
9.00934e-06
1.93201e-07
1.95123e-07
4.95737e-06
7.32019e-06
9.56406e-09
0.152492
1.49947e-06
2.09973e-09
0.00012568
4.08816e-07
2.63507e-09
4.58753e-05
0.00102334
0.000886077
8.63993e-09
1.12296e-06
4.65949e-08
4.93804e-05
5.07707e-05
0.0343454
6.28365e-06
0.000910566
6.79101e-05
0.00117829
3.09476e-05
3.54005e-06
1.08737e-06
4.7616e-07
5.15632e-05
2.10174e-06
7.41414e-06
0.0440726
0.000252342
0.0482422
1.28191e-09
7.95834e-06
1.18715e-07
6.05225e-05
0.000102795
1.18922e-05
4.91437e-05
0.000539924
0.000151412
7.45571e-10
0.00723103
0.00842737
8.65356e-05
4.76451e-05
8.50334e-07
0.00100403
1.68725e-06
2.89714e-06
1.37431e-07
5.56523e-09
0.000253562
9.85877e-06
0.00100288
6.59086e-07
0.047732
0.000673677
7.23064e-07
1.37884e-07
0.000582503
2.92133e-06
0.0557451
0.282187
0.000132621
0.000237796
1.65808e-06
5.27659e-07
2.09486e-08
1.40454e-08
6.25787e-05
5.04095e-06
0.0351468
0.0551654
3.18788e-05
3.21131e-08
0.000324047
0.0419462
2.76829e-05
0.00116026
0.00261794
0.0443934
0.1224
0.0516397
0.000122592
1.15522e-09
0.00204347
6.66391e-07
1.64337e-07
1.95406e-07
7.35251e-09
2.88436e-05
4.14899e-09
2.09267e-09
9.22259e-05
4.9393e-08
6.71238e-09
9.57805e-07
5.56352e-07
0.0603357
6.5025e-06
3.09322e-05
0.0778976
0.2636
5.99382e-09
0.188783
0.000158354
0.392545
4.06036e-07
1.10036e-07
6.86839e-08
4.49434e-05
0.26342
1.74945e-09
0.00118767
7.431e-08
4.0026e-06
1.63807e-05
7.80048e-06
1.11523e-06
2.42497e-07
0.0792923
1.02411e-08
7.20844e-06
1.19665e-07
9.28155e-07
1.76779e-06
0.000460463
0.000121714
1.16664e-06
0.000391219
2.17945e-05
4.24788e-07
0.000143623
7.52586e-07
2.55394e-05
1.44045e-07
1.29035e-07
0.255773
0.0447718
0.000399715
3.32936e-07
6.34379e-09
4.49031e-06
0.195486
2.50845e-07
1.1669e-05
4.79158e-07
2.95757e-06
2.50811e-09
0.0365512
0.000112142
7.63748e-07
6.2256e-07
1.77811e-05
8.01939e-09
0.181184
1.08431e-09
0.0405889
7.98597e-05
4.94306e-06
1.37374e-08
3.35466e-06
1.33603e-06
1.03234e-06
3.63959e-06
5.18246e-06
3.09935e-10
4.76293e-09
9.64209e-05
0.0822359
2.33937e-09
3.44474e-05
5.23148e-06
9.87427e-05
3.9249e-07
0.04938
2.34355e-06
5.16343e-05
5.55e-05
6.12628e-08
5.89605e-05
1.98658e-06
1.73021e-05
2.90264e-08
2.72242e-08
1.0806e-05
6.28497e-09
0.000184509
4.05145e-05
2.95148e-08
8.13051e-08
0.000136453
0.000549619
0.307108
1.18135e-07
4.94516e-06
1.84628e-06
0.000371393
0.000171703
2.74024e-05
8.40491e-05
0.080818
3.54142e-06
5.52064e-05
0.000835323
0.068253
7.08085e-07
5.0292e-08
0.000427873
2.93587e-06
0.0425093
1.91055e-07
6.98912e-06
3.52153e-06
1.53013e-08
0.232326
9.46892e-09
1.70336e-07
6.34172e-07
2.75485e-05
0.310951
0.0586918
4.66796e-07
2.51295e-08
1.8454e-09
1.11714e-07
1.09944e-07
6.62057e-07
1.2161e-07
6.80374e-09
6.41496e-08
1.18467e-08
1.85073e-07
0.0643656
0.0381698
2.89029e-09
1.38491e-05
7.56111e-09
7.82858e-08
1.32503e-08
0.0374142
0.0824296
5.68923e-06
4.14286e-08
1.39863e-08
8.38939e-07
1.30798e-06
4.09389e-06
1.37217e-07
0.000334283
2.69535e-07
3.13714e-06
3.50481e-06
0.00019
5.36593e-06
0.000806852
1.81708e-06
3.00208e-08
0.000494561
0.000451812
1.84217e-08
2.31105e-05
4.09015e-06
1.37049e-05
4.38365e-05
1.05431e-05
3.75562e-06
1.13312e-07
0.332696
5.04593e-07
4.01959e-05
0.0643953
0.000120244
1.22545e-05
1.52576e-05
1.68115e-06
2.381e-06
2.38862e-05
6.71621e-05
5.73459e-05
3.37627e-06
4.57257e-05
7.68718e-06
3.9589e-06
2.2161e-06
5.47826e-09
6.43636e-08
4.72394e-08
6.69804e-10
1.78728e-07
3.63317e-08
7.48788e-06
1.90189e-08
2.96697e-09
1.84026e-07
1.74162e-05
4.252e-09
9.79619e-09
8.23363e-07
1.12741e-06
1.0135e-06
8.70691e-05
6.58382e-06
0.248188
1.25107e-07
1.16089e-05
1.55237e-05
4.26564e-06
4.45186e-09
1.84014e-08
0.22537
5.62245e-07
6.21188e-09
2.37028e-06
0.226507
1.73927e-06
5.92888e-05
5.90552e-05
1.10027e-06
7.69947e-06
9.28653e-06
0.000388664
1.97489e-08
4.43671e-05
4.96943e-06
1.92142e-07
0.000324499
0.0004009
0.19738
6.79329e-06
1.37743e-06
7.35018e-06
3.86437e-05
1.62169e-05
1.94152e-07
0.00262063
1.19691e-08
0.000640584
0.000416592
0.0610985
1.00501e-05
0.259478
3.14898e-08
1.3628e-07
5.19732e-06
2.49782e-05
7.45703e-05
3.26718e-06
0.000117699
3.60346e-08
9.8395e-06
1.11854e-09
2.0253e-08
1.63267e-06
0.000493179
1.01273e-07
5.26204e-09
0.000421752
2.26962e-07
0.000551658
3.48561e-06
2.02992e-06
1.50231e-06
4.53396e-07
2.01331e-05
4.55281e-06
0.000205914
6.44488e-07
8.28257e-06
0.00331477
1.22068e-06
7.25166e-09
0.00015788
2.36624e-06
4.08205e-05
5.0733e-09
0.144486
0.000117116
7.17084e-05
1.78884e-06
7.34876e-09
0.000196796
4.71261e-06
2.47637e-07
7.92751e-10
6.62257e-05
7.20146e-05
8.05904e-05
0.196856
2.94697e-06
6.11761e-06
0.000247257
1.01526e-05
6.5862e-06
2.73097e-06
8.33623e-05
3.64967e-06
0.000120546
0.184275
1.50733e-05
5.38433e-10
1.70638e-06
5.31509e-05
1.50399e-05
2.71383e-07
0.000460155
0.000886641
0.000487247
0.000879807
1.74258e-05
5.29212e-05
7.20061e-06
2.04418e-05
1.11681e-07
1.07855e-08
0.10233
0.000507801
2.84396e-06
0.00166591
5.14992e-06
2.47524e-05
0.000435016
4.33713e-06
2.26157e-06
3.23184e-06
4.08094e-07
4.23431e-05
3.01278e-05
0.000153255
2.86068e-05
5.63923e-07
6.465e-09
2.82305e-05
9.91738e-07
2.01925e-08
0.000313127
3.0402e-06
8.04853e-06
3.82509e-05
7.56382e-06
4.06017e-08
0.000601213
0.139022
4.78504e-08
5.67259e-09
2.11894e-08
0.144962
0.247487
4.28608e-07
0.0533341
5.39463e-06
2.04307e-05
8.01439e-06
8.44916e-06
1.18578e-05
1.39272e-05
3.05212e-05
0.118422
0.340888
0.393233
1.20652e-05
3.19772e-05
6.74266e-06
7.41321e-06
0.36185
1.407e-08
0.175564
4.0909e-06
1.10155e-08
7.28434e-07
5.92541e-07
2.91837e-08
3.75323e-08
2.29761e-07
1.7532e-08
0.137379
5.11035e-08
2.91232e-05
0.000196952
2.29639e-08
4.52827e-06
7.34482e-06
6.3912e-06
6.53169e-08
0.00058811
6.45495e-06
8.57152e-07
6.90653e-05
4.25071e-06
3.10867e-05
4.683e-06
1.20019e-06
5.28599e-07
2.01921e-05
0.00341813
4.78355e-05
9.0371e-07
1.37153e-05
8.35077e-07
2.54301e-05
0.00010012
1.18926e-05
2.22903e-06
5.47087e-06
1.15375e-06
5.79109e-05
1.26267e-07
8.18238e-06
0.041215
0.000426322
0.329256
0.000772996
0.000114519
1.67615e-08
0.0615476
1.19329e-09
4.96397e-05
1.59586e-05
8.25476e-07
8.75261e-05
1.66437e-06
9.19676e-07
4.4798e-05
8.02622e-07
2.08528e-07
1.97917e-05
6.56108e-07
2.25838e-05
0.0790712
3.56109e-07
3.80767e-05
1.38852e-06
8.07177e-07
5.91496e-10
0.000261475
9.14286e-05
3.71363e-06
1.40153e-08
7.05735e-07
0.0443919
0.000212463
9.86375e-06
1.47245e-05
1.70136e-09
8.18382e-11
9.35752e-07
4.14668e-09
4.93313e-05
3.5289e-07
2.17692e-05
1.65548e-06
1.98075e-07
6.02557e-07
3.08385e-08
4.80373e-05
9.05031e-05
4.41355e-05
5.13076e-07
2.89903e-08
9.81976e-07
2.29406e-06
0.000536637
1.01138e-06
0.162158
2.18881e-05
2.88404e-08
4.12707e-08
0.000230936
1.28879e-05
0.00114315
5.44723e-07
9.89578e-05
0.234542
4.0318e-10
0.000334251
2.70536e-05
0.0425283
1.76317e-06
0.0474958
0.0830721
0.000120113
7.61727e-06
2.02091e-05
1.12888e-08
1.58421e-05
2.71193e-05
0.000379312
1.92511e-05
6.98819e-06
2.61481e-05
0.000431897
0.00034619
0.000516207
0.000130713
1.67886e-08
8.97794e-05
0.000891907
6.28429e-06
3.933e-06
0.000250579
0.000214682
1.38673e-05
1.87675e-05
0.000266608
1.57128e-05
0.000380262
0.000250012
1.94717e-05
2.47741e-08
3.49116e-05
0.000419878
0.0668762
2.1334e-06
5.19735e-07
4.92651e-05
1.8698e-07
8.53917e-05
8.39932e-07
0.000397469
5.83084e-07
7.05116e-05
2.51573e-08
9.93412e-08
1.10412e-05
0.000921881
0.00120724
0.339169
4.17585e-05
2.04674e-06
2.12229e-07
0.000412537
2.31977e-05
0.033864
0.0704177
4.07858e-10
0.000791796
6.47707e-05
6.74388e-06
5.67947e-09
0.00114804
5.70244e-07
0.0427467
4.98582e-08
4.87917e-09
3.02634e-05
1.15029e-06
1.3239e-06
3.74074e-05
0.039546
2.04509e-05
2.40229e-07
8.43426e-05
0.219284
0.0432679
6.79464e-06
0.000285297
3.04315e-05
0.000581233
3.03014e-06
0.0374029
3.85442e-05
0.000187151
2.42592e-07
8.85472e-07
4.73719e-06
5.21714e-07
2.42967e-05
2.35041e-06
7.69594e-07
2.54613e-06
4.1521e-06
0.000101542
2.46356e-08
3.62841e-07
0.0806534
9.70645e-09
7.73454e-08
4.34346e-05
6.35707e-08
0.000185984
3.56179e-05
0.0659287
2.34481e-05
0.261465
1.28661e-05
2.17508e-05
0.0399154
0.000159915
2.53657e-10
1.90301e-06
0.0279798
1.55919e-05
7.88813e-05
1.68717e-05
1.66623e-07
7.06042e-06
7.48068e-06
8.53212e-07
0.127616
1.0961e-06
1.02854e-07
1.77673e-06
6.62822e-07
1.51566e-08
8.72101e-05
2.46052e-06
0.274431
8.16826e-05
3.51632e-05
4.63564e-05
5.86386e-05
1.67531e-05
2.97855e-06
1.28351e-10
8.99066e-07
7.40617e-05
2.15491e-05
6.53016e-06
6.92232e-08
1.13398e-05
1.25748e-06
4.00875e-05
3.21843e-08
1.36162e-07
1.23458e-06
2.86604e-05
2.19822e-05
3.30957e-05
2.91359e-08
2.25432e-08
0.00164919
2.21973e-08
1.47981e-09
2.76769e-09
1.46567e-06
0.308964
9.39065e-07
0.000116027
6.91541e-05
2.11077e-05
1.77788e-07
1.25082e-06
0.000226125
7.37459e-06
3.77298e-07
3.7573e-05
4.03604e-09
2.91756e-09
4.05964e-09
9.94487e-05
1.12338e-07
0.329112
0.000527045
3.54032e-05
0.00184045
6.84329e-07
1.71034e-05
2.46479e-09
0.0592723
8.28172e-06
6.19768e-06
1.55172e-06
4.12302e-07
1.61678e-07
0.481514
1.68654e-05
0.000437435
6.60284e-05
1.37869e-06
0.122509
3.16706e-07
3.20324e-07
4.99611e-07
7.2481e-07
3.51519e-05
5.02836e-07
2.44621e-05
1.81789e-05
0.000502856
3.61509e-06
4.26965e-10
0.000190211
3.81731e-07
0.156862
3.46466e-06
2.40808e-07
1.25182e-06
1.89395e-05
0.0606353
0.0297465
1.84742e-05
4.85204e-05
0.0905435
3.55557e-06
2.53608e-05
0.0473758
1.26471e-05
5.92003e-06
0.173263
0.0186405
1.04032e-05
3.33182e-05
1.53392e-08
3.86896e-05
0.00172705
1.03674e-05
1.14363e-05
0.000380965
1.33304e-09
0.0231207
1.03281e-08
2.88133e-05
0.194283
1.22063e-07
1.22097e-05
4.61111e-06
3.74617e-07
4.12599e-08
4.83197e-05
4.1769e-07
1.18956e-07
3.16827e-05
9.76565e-06
1.39295e-08
0.0232753
0.0440574
4.97714e-06
3.09924e-10
1.91393e-09
0.000144049
1.41015e-05
5.42054e-06
3.36244e-09
9.87705e-08
0.000132996
6.98232e-05
4.75775e-05
8.35195e-05
0.363472
1.491e-09
0.140842
1.76607e-05
6.54599e-06
0.0562611
1.08541e-06
2.10991e-08
0.0228032
7.34902e-10
6.83637e-06
6.45952e-06
7.25028e-06
1.10169e-06
9.2461e-09
3.94573e-09
1.62939e-08
2.03863e-05
0.13408
0.212377
3.14754e-05
2.55099e-06
1.69751e-10
0.0557368
0.225564
0.00027892
1.05493e-06
1.50347e-07
0.00096987
0.000247142
2.40784e-07
1.32364e-08
2.17855e-06
8.02392e-06
3.70736e-08
1.10735e-05
6.98594e-05
0.0599402
0.204414
5.63093e-05
0.000861671
1.00141e-08
3.74291e-07
3.28955e-05
0.000180516
3.37789e-05
0.000453496
8.25184e-06
1.51253e-05
7.05279e-09
8.63607e-08
1.26553e-05
0.0582346
1.13099e-06
0.177825
2.00859e-08
1.21488e-05
2.44422e-06
1.66656e-05
1.05768e-08
1.26464e-09
1.10399e-07
3.56032e-08
1.22409e-06
0.000328016
1.0218e-08
0.0373041
1.78986e-05
0.159273
1.95456e-06
3.023e-06
1.6521e-06
2.05642e-06
1.33312e-05
3.02864e-08
2.35649e-08
1.34097e-08
3.34852e-06
9.60114e-06
0.0582642
0.0564007
5.27585e-06
1.01169e-06
6.03144e-09
2.40522e-09
2.49995e-08
1.72283e-06
0.000250294
2.03874e-07
3.65341e-08
3.57878e-09
0.0219288
2.66633e-05
4.4617e-05
0.0403594
8.76322e-07
0.310878
9.82553e-06
4.39745e-07
4.25171e-10
2.59232e-07
0.0534376
9.21765e-10
2.35778e-05
2.24271e-08
0.000704504
4.50358e-05
8.469e-05
0.000145857
2.94701e-05
3.89121e-09
1.54718e-08
0.359141
3.29418e-05
3.51153e-05
0.000235265
4.21887e-07
8.61774e-05
9.6321e-05
3.01498e-06
3.29828e-06
0.000305216
8.22138e-08
0.000719274
0.0391383
1.42557e-06
2.07187e-07
8.33398e-05
9.06248e-07
0.034064
0.182132
2.17974e-05
9.20746e-10
0.00411107
3.43206e-07
1.56275e-05
1.54084e-06
0.000125169
1.12315e-08
0.000877263
8.74616e-05
0.000131972
2.13897e-05
0.000123337
3.06603e-05
5.35133e-06
7.46802e-10
0.000156019
4.75783e-05
5.81893e-05
6.64376e-07
9.65944e-06
0.000121707
0.000454832
9.43731e-09
1.81146e-08
3.48991e-08
3.52105e-10
1.27328e-07
0.0216138
0.000405078
0.000144536
4.06843e-05
0.000206308
8.31501e-05
2.80026e-10
1.16481e-05
6.58277e-09
5.38781e-07
7.55737e-09
2.64841e-05
0.0020397
1.54641e-05
1.11545e-07
1.32972e-08
1.50411e-06
1.22515e-07
6.9476e-09
0.146496
9.25561e-06
0.000675469
0.00103171
0.000731485
8.9982e-09
0.00067676
0.000756314
0.0013589
0.000731329
3.85709e-09
4.00607e-10
3.4564e-06
8.61759e-06
6.83207e-05
0.00032275
0.0425006
8.31371e-06
3.29498e-05
4.47703e-06
0.000558876
3.40283e-08
1.23804e-09
0.000114546
0.000371499
0.0260852
6.43834e-09
0.117933
0.000127043
3.39919e-07
9.38349e-05
4.96488e-06
8.98512e-05
2.2858e-06
9.86639e-05
6.72812e-09
9.62235e-06
0.00216918
3.67438e-05
5.79243e-08
0.00175862
4.48785e-05
1.06898e-05
0.00322217
8.7464e-08
7.68307e-06
5.72092e-05
0.000103579
8.70194e-07
0.193169
5.67761e-08
8.53487e-07
2.73695e-08
0.118109
0.120996
2.06774e-06
1.81434e-06
0.000155231
0.0550499
3.32727e-08
1.10249e-05
2.15464e-05
1.34508e-05
1.27999e-06
0.195409
7.20969e-06
1.6609e-05
0.00364193
1.60613e-07
7.20784e-06
1.73252e-06
2.54652e-06
1.77119e-09
0.00240565
0.00398327
1.09292e-07
7.70101e-07
1.27158e-06
0.000102211
7.50317e-09
0.0397894
2.89352e-07
1.00007e-05
1.09896e-06
5.30362e-07
5.01604e-06
3.37884e-05
1.30415e-06
5.08012e-06
0.000247456
1.60584e-06
1.35038e-06
0.0429894
7.71395e-07
3.37956e-06
2.52331e-06
1.99426e-05
1.92181e-10
5.02925e-09
7.0381e-10
6.026e-06
5.62755e-08
0.0677185
2.23268e-05
1.21089e-05
3.91157e-09
3.27602e-05
0.117504
7.90721e-05
1.38582e-05
6.19257e-05
1.26169e-05
2.00276e-07
7.88506e-08
2.43719e-05
4.40326e-06
2.72323e-06
0.000546977
9.72214e-06
4.66074e-08
2.99281e-08
2.34105e-06
7.66749e-08
7.00661e-06
4.11756e-08
1.20733e-05
1.6317e-05
1.91134e-07
7.9014e-10
0.045692
7.10815e-09
2.50915e-09
2.52253e-05
0.0564397
2.06782e-05
2.24815e-06
1.38329e-08
1.01029e-05
5.36467e-06
2.23435e-05
6.03381e-06
7.43585e-09
1.76705e-06
1.58685e-06
5.54137e-06
4.03933e-09
4.98539e-09
4.39558e-09
5.27933e-06
1.70876e-05
9.69202e-07
1.5594e-08
7.59824e-06
5.21784e-05
1.91374e-08
2.49557e-05
4.62352e-07
5.24391e-08
4.41469e-09
3.93897e-05
2.39819e-07
2.09377e-05
1.51753e-09
2.55506e-05
1.01353e-08
1.54592e-06
0.000351021
1.34368e-07
5.51279e-09
0.0688023
2.97784e-08
0.0565747
2.46776e-07
4.62101e-08
9.63138e-06
2.58612e-05
0.047028
5.9052e-05
0.0499178
0.0606444
9.04913e-05
1.1427e-05
0.040363
1.08425e-05
1.66806e-08
4.2725e-05
0.141216
0.0370032
0.0422007
1.19264e-08
1.02367e-05
1.43441e-08
5.55987e-06
9.89727e-07
7.92027e-06
0.000172015
7.07013e-06
5.30781e-07
1.64949e-08
3.76485e-06
0.000295194
2.3869e-08
1.21213e-05
3.84364e-05
1.97673e-06
9.64286e-10
6.34507e-05
2.6185e-05
2.61198e-05
1.78517e-05
1.67063e-05
2.19714e-06
7.62167e-06
0.000153952
8.68931e-06
6.73546e-06
0.00012605
0.000457942
4.13099e-09
6.34733e-07
2.77854e-08
1.98753e-05
9.0562e-08
2.31256e-06
1.02109e-10
0.000397672
0.391919
0.0890684
0.000150374
4.92124e-09
1.23288e-05
0.0553325
0.102929
2.47688e-06
0.000271652
2.09911e-06
5.59837e-07
1.20561e-07
3.02107e-09
9.43677e-06
4.49539e-05
3.88428e-08
4.23132e-09
1.78193e-05
1.65729e-07
0.176377
0.0539067
1.16787e-05
5.26469e-09
1.15529e-08
0.0420724
5.12274e-09
2.57904e-05
9.66171e-09
0.000614261
2.14206e-08
5.29741e-06
5.13637e-08
6.12646e-09
0.0010827
0.15499
0.0646277
1.4515e-08
0.0689719
4.24371e-08
1.37303e-05
1.65725e-06
0.118086
2.40019e-07
0.000162412
4.00654e-09
1.97512e-06
0.000278135
1.72716e-06
0.000165301
1.02712e-08
1.16694e-05
3.30485e-05
2.07041e-05
5.4425e-06
3.66623e-07
3.32513e-07
3.38467e-06
6.10353e-07
1.01298e-08
3.64713e-09
0.0753952
0.0371576
1.44568e-08
0.0845345
3.13498e-10
2.15105e-08
5.28612e-05
4.89452e-09
4.82988e-09
0.0402521
1.82492e-08
7.75563e-10
0.000650859
2.0032e-09
1.26683e-09
5.06531e-05
0.0929065
1.40805e-07
0.0371285
8.44843e-09
4.67223e-06
0.050393
6.27822e-06
0.000877563
5.85488e-10
7.27778e-08
1.04524e-06
1.83271e-07
0.209735
0.0456604
0.000109477
3.25565e-08
0.04629
9.89386e-10
2.06788e-08
1.79362e-09
0.103151
0.00175479
9.27462e-06
1.29389e-09
1.28904e-06
0.0481412
0.000911909
3.64662e-07
0.00026213
0.109054
0.0862918
3.56016e-05
0.0853843
0.00092521
0.0426735
4.20938e-05
0.0658276
0.000345206
4.62308e-06
1.47732e-06
2.32674e-06
0.000458497
0.00093181
6.90229e-10
3.89429e-06
7.45843e-08
4.65194e-05
7.36179e-06
1.00422e-06
8.11341e-06
0.000297968
1.74507e-07
8.04646e-06
9.20413e-08
2.67027e-08
2.72817e-08
4.50128e-08
5.06037e-06
4.4459e-08
4.87852e-08
7.45161e-08
1.07945e-05
4.32625e-05
1.62295e-10
1.80904e-09
5.5351e-08
1.00382e-07
1.07042e-06
0.00129705
0.00209776
0.000131298
9.51947e-09
3.22666e-05
5.77817e-06
0.0463533
3.20573e-05
1.28952e-05
5.66012e-07
1.11433e-06
2.47424e-06
0.000223033
0.000117048
0.179514
0.0671762
8.23496e-08
0.000828901
0.00029663
1.50525e-08
2.68306e-06
4.61758e-06
3.83251e-08
1.73093e-06
3.94383e-06
0.062157
1.07186e-09
8.3579e-05
1.35167e-08
0.0488191
5.13357e-05
0.0355051
3.32981e-05
4.84943e-09
6.72148e-09
2.3149e-08
2.50857e-05
2.44554e-05
4.22778e-06
7.26885e-06
9.62159e-07
0.000762964
0.000289963
9.65775e-10
0.000117089
4.87567e-05
5.30113e-05
9.54357e-05
0.00296273
4.05176e-06
0.0991927
4.82978e-08
5.89265e-06
0.0383593
1.37942e-08
0.000260792
0.00719978
4.032e-08
0.000103074
1.39592e-08
1.8597e-07
2.57968e-06
3.99163e-06
5.32393e-08
8.54964e-09
6.96661e-07
2.56353e-09
6.07925e-09
0.000126855
2.45523e-08
5.83365e-10
2.94057e-05
7.7064e-09
9.74656e-08
2.70148e-07
0.000215042
2.197e-07
0.000169379
1.05358e-07
4.68265e-08
2.2626e-05
6.61541e-05
0.000231683
0.0432432
8.07567e-05
4.29793e-05
2.29993e-06
0.320048
0.311218
1.26134e-07
2.91508e-05
1.77794e-08
0.0459072
0.0380274
0.000405899
0.0904918
0.0684973
7.16295e-06
1.10561e-09
0.000116369
1.13159e-08
1.2309e-09
3.97582e-07
1.58517e-05
7.28011e-09