/*--------------------------------*- C++ -*----------------------------------*\
  =========                 |
  \\      /  F ield         | OpenFOAM: The Open Source CFD Toolbox
   \\    /   O peration     | Website:  https://openfoam.org
    \\  /    A nd           | Version:  10
     \\/     M anipulation  |
\*---------------------------------------------------------------------------*/
FoamFile
{
    format      ascii;
    class       volScalarField;
    location    "27.5";
    object      SgRate;
}
// * * * * * * * * * * * * * * * * * * * * * * * * * * * * * * * * * * * * * //

dimensions      [1 -1 -3 -1 0 0 0];

internalField   nonuniform List<scalar> 
111485
(
1.64319e-09
0.00782621
0.0243757
5.63095e-11
0.0489898
3.18828e-08
0.0465342
0.00617006
0.0190839
0.00124921
0.0469012
0.00949204
0.00483332
0.296328
0.00651777
0.0302011
0.210563
2.625
0.0103603
4.79976e-08
0.0372102
3.23084e-09
0.0269722
0.0345068
0.00878209
3.46139e-08
0.0393197
0.0017993
0.0152503
0.0481412
0.0446852
0.0196184
2.17956e-07
1.46009e-06
0.00704118
9.18605e-05
0.147308
0.210058
0.00246474
0.0242516
0.0435935
0.0707588
0.0158775
0.00167855
8.2671e-05
1.58682e-06
0.0293995
0.000711513
0.0474165
4.285e-07
1.09554e-06
1.72327e-05
4.63369e-07
0.0515646
1.5088e-06
0.0438013
0.00303178
4.44878e-08
7.07129e-05
0.00480498
0.0160795
2.65011e-07
0.00490744
0.0985196
6.4637e-06
0.0031229
0.316481
0.0943828
0.00118921
0.00633153
6.79356e-05
0.00677105
1.12519e-05
0.00301291
4.65168e-08
0.000720816
1.49647e-08
0.0411196
2.74699e-08
3.12603e-05
0.281094
0.560567
4.71831e-08
5.23373e-09
0.00942409
0.00383851
0.143781
0.0254413
0.000308443
0.00744534
0.000256392
0.0402443
0.0120334
5.85415e-05
0.052098
6.68381e-09
0.0270616
0.00184067
0.00154899
0.00169779
1.47421e-09
0.0176439
1.96806e-06
0.0179895
0.00457906
1.64566e-05
5.74173e-09
0.00759353
0.00422393
0.000730443
0.00559515
0.00476416
0.00382621
0.00335291
1.03792e-07
3.44338e-05
3.07233e-08
6.56121e-06
0.0129259
4.18467e-09
9.15929e-08
0.000189968
0.0753706
2.27195e-06
0.00158603
0.0279386
0.000107356
0.00173938
2.95354e-10
0.000344993
0.00166892
0.0329167
0.0471995
0.000175152
7.85583e-05
0.0482998
8.44042e-10
0.0425449
0.0254344
0.00273071
0.000324046
0.00199786
0.202895
0.00270945
0.00412155
0.0130656
8.21146e-10
8.97368e-10
4.77132e-08
0.0281284
0.00155864
0.0285453
0.11578
0.00468782
3.57547e-05
0.0109681
0.0160899
0.0110271
0.000824245
5.43615e-06
9.64168e-10
0.052416
0.0224932
7.57349e-05
6.42111e-05
0.00590096
0.00339682
0.0271127
0.00157154
0.000170561
1.59557e-09
1.52077e-08
0.198086
1.13382e-10
0.00548397
0.0020642
5.25054e-07
9.57384e-06
3.6659e-08
5.80608e-06
9.91801e-06
3.71542e-08
0.00152201
0.00677879
0.029947
0.00414159
0.00772546
0.00409492
0.000464777
1.78753e-07
0.00492201
5.78988e-06
7.13517e-06
0.00659032
0.0103524
0.0288164
0.0115129
0.00502934
8.46045e-07
0.00681492
0.000500541
0.00169786
0.0145668
0.00234033
1.82896e-06
0.00386693
0.0249406
1.18778e-05
0.000175818
0.0079513
0.00199851
0.00038133
8.64557e-06
7.87339e-09
0.00841816
0.000312213
0.119339
7.27595e-09
0.0067081
0.0206408
0.119095
8.33333e-08
0.00331768
0.0136995
0.000277931
6.89267e-09
4.37789e-10
0.15003
0.00418457
2.35548e-05
9.37784e-05
0.00946502
0.00783686
0.161184
3.87213e-05
2.02799e-05
0.160995
4.66689e-08
0.00242195
0.00961055
0.0167012
0.0116692
0.00967221
3.90092e-06
0.00195038
0.000632119
7.85225e-06
1.26521e-08
0.0309914
0.157223
1.83547e-05
0.00658732
0.010819
7.85337e-10
0.00019325
0.000113178
2.78866e-07
6.61516e-05
0.0997278
1.85227e-08
0.014758
0.0106534
0.00369225
3.37099e-09
0.0118159
6.43562e-11
6.08882e-08
5.10013e-07
0.165027
0.0230668
0.00620751
0.00552918
0.213711
0.0124261
0.00155641
0.000819042
0.032194
0.00870313
4.50491e-07
5.35949e-09
0.111607
0.0226966
0.0246259
0.0117925
1.78417e-09
0.224853
0.268079
0.00304047
0.000321528
3.47806e-05
0.0138727
0.00219319
0.00199636
2.00867e-08
0.000649715
3.02703e-09
0.000358419
0.000276532
0.233685
0.0678197
0.358669
1.76819e-08
0.0861082
0.00897982
0.00172516
3.07398e-09
1.15029e-07
0.0246241
0.000300137
0.0569019
0.0040314
0.0134122
0.0192118
3.05057e-05
3.05828e-08
3.54078e-08
0.00378334
0.00443247
0.251329
0.184121
0.000793123
1.78788e-09
8.69436e-09
1.40465e-08
8.47919e-05
0.0601856
0.0118071
2.17594e-06
0.00529618
7.15016e-05
0.0608006
0.0671658
0.00599674
0.0114499
0.00933957
0.0483507
4.99803e-05
7.38001e-07
0.00951987
0.0187477
0.00490702
7.04932e-08
0.151392
0.00032755
0.00231168
0.00806652
0.000336681
0.0284625
0.0391524
0.0375054
0.00359435
0.00772277
0.0257856
0.0131522
9.11347e-06
1.96065e-07
5.47165e-07
7.13189e-07
0.0310946
0.372187
0.0325856
0.0673162
0.0530241
0.0182727
1.73454e-08
4.079e-07
0.0167312
0.0469113
0.0823889
0.045896
0.0497062
0.0228112
2.50634e-08
0.0135095
0.000287958
4.07537e-10
0.000978897
0.0166627
1.58074e-05
0.00897541
0.00911877
0.00820332
0.00141495
0.00265849
0.00546766
4.31623e-05
1.16168e-06
0.00269112
3.89835e-07
0.00634434
0.117983
0.0303912
1.17679e-07
0.0276958
0.154956
0.00830279
0.327019
6.64203e-08
0.0478955
0.0189065
7.78254e-09
0.000849093
0.00239935
3.73794e-09
0.0320393
0.0109246
0.00518703
4.59406e-07
2.57032e-08
0.000758286
3.77721e-09
0.0125258
3.63658e-06
4.27324e-10
0.0167052
4.03338e-05
0.259234
0.0301196
2.02186e-09
7.95768e-05
0.00164665
9.89644e-05
0.000204415
0.0152566
0.121791
0.829861
5.52059e-05
0.207711
0.000762142
4.58686e-08
0.0390189
0.0308595
2.03762e-07
0.00141979
0.000309004
8.32848e-05
0.0236941
0.0239327
0.0138638
3.67315e-08
0.352369
0.0166941
0.0227926
0.00438723
9.16604e-05
0.00127318
3.56651e-08
0.253616
0.363746
2.5951e-08
0.00818804
0.000363982
0.000103554
4.05578e-09
3.01664e-05
3.47623e-09
0.288815
0.00965931
0.00630332
0.00213886
0.00258909
1.95858e-07
0.00194499
4.99888e-07
0.0413294
1.54532e-07
5.98389e-07
0.0523984
0.0376441
4.03683e-08
1.47222e-09
0.00038523
8.46562e-08
1.60618e-06
0.00107233
2.75238e-08
6.13947e-05
6.74097e-08
0.0741498
6.92109e-08
1.65933e-06
3.68558e-08
0.00702874
4.30953e-07
0.224693
0.00200312
0.237816
8.92321e-09
0.000973851
2.58958e-06
2.6785e-09
0.372648
0.145006
0.0267297
0.0251586
3.06501e-05
0.00203021
0.0824225
0.0085225
0.00105561
0.293182
2.53669e-08
0.0232195
0.000108454
0.00504411
0.0591304
0.0763978
0.000114991
0.0212081
0.000248309
0.000782643
0.0820639
0.00204643
2.1432e-08
0.0800388
0.0489097
3.55616e-06
1.14531e-06
1.96064e-05
1.75413e-09
0.00169712
0.054699
3.56671e-07
1.78691e-07
0.00250354
4.21313e-09
0.0340562
2.94813e-08
0.000320059
1.91716e-09
0.116771
0.114792
0.000998961
0.0127782
0.0653314
0.0818166
4.74517e-08
2.47393e-07
0.0147268
4.69916e-08
0.000201647
1.78434e-05
0.00165329
0.0426478
0.0644562
2.3624e-09
4.68393e-05
0.017776
0.00325652
0.00174717
0.0038606
0.00689334
0.0206663
9.78465e-07
0.0254599
0.00596583
2.63672e-09
0.126584
0.0414358
0.0154904
1.34707e-06
0.00484477
0.00696078
0.00226977
0.00399573
0.000386048
0.013692
0.00132325
0.000130646
0.0228459
0.128849
0.000777653
7.44481e-05
0.00358836
0.728252
3.16359e-08
0.000408377
4.59632e-06
4.07052e-05
0.00731005
0.0031589
0.00274607
0.000451773
0.000167311
0.0159327
0.0110402
5.74171e-08
0.000198848
0.00129872
2.91164e-08
5.52509e-10
5.62046e-08
3.19491e-08
0.0126245
1.79622e-09
0.0347496
0.00846146
0.00193273
0.0989074
0.330072
6.03908e-05
0.008458
0.0371459
5.53585e-08
0.0516765
1.80612e-07
1.93681e-08
4.77978e-05
0.00421584
0.121566
0.0280235
0.00625141
2.6923e-06
0.0904736
0.146214
0.0287399
0.0283292
0.000483714
0.197001
0.041612
0.053844
0.0467557
5.96077e-06
0.000323086
0.0406937
0.00804303
0.00141359
0.027638
0.026127
1.14021e-06
0.0109682
0.000665672
3.26953e-05
0.0348781
0.000254482
0.000660321
0.0108489
0.0407026
0.00132604
0.0215478
0.0196842
0.00720787
3.27734e-06
0.0104457
0.000332757
0.000198181
0.0171935
0.0180262
0.0357565
5.12218e-07
0.001886
4.45361e-06
4.01715e-09
0.0778851
1.60873e-08
0.136825
5.89076e-05
0.0118062
8.02957e-08
0.0295395
8.3064e-05
0.0427736
1.32886e-09
0.0303724
3.01004e-07
1.653e-08
8.16607e-07
0.321528
0.00052243
2.96278e-05
0.0411824
1.0182e-07
2.81105e-09
0.205401
0.0698103
8.36807e-05
0.00200825
0.000130423
6.48823e-08
0.0374007
0.00872262
0.17985
6.31669e-10
4.60286e-09
0.000415009
0.00107454
0.000132736
4.32161e-07
0.0632147
0.00722793
2.65688e-08
1.22917e-07
0.0456642
0.0421505
0.00228093
6.2154e-10
3.84758
0.369114
0.192076
1.61187e-08
1.90445e-08
0.0550172
0.00045364
3.9581e-05
0.000592609
0.108768
0.00262833
0.0112019
0.0636664
0.0520227
0.00191918
6.91003e-08
1.20497e-06
1.35971e-08
9.38738e-09
7.72297e-08
9.48459e-10
0.0224271
7.11091e-08
1.93739e-08
3.26952e-07
0.0113009
0.0235436
1.08858e-07
5.79761e-07
0.105536
0.0143576
0.00989756
2.69853e-08
7.47066e-09
0.0372413
7.90542e-10
0.00177615
0.00263477
0.00397372
1.239e-07
1.27816e-10
9.54595e-10
1.60482e-09
0.0145888
1.86518e-08
6.5976e-08
0.00108627
4.79831e-09
0.0233148
0.00201056
2.35301e-06
0.0368596
0.338035
0.00253999
0.281431
0.000250634
0.043427
0.209992
8.24878e-05
0.0237084
0.0675838
0.00599053
2.04872e-05
0.0890527
0.788257
0.0100374
3.75101e-08
0.00241768
0.00248267
0.00122315
9.227e-05
1.85089e-09
1.56111e-10
0.0134695
3.86554e-05
0.00274487
3.91137e-06
0.00139389
0.00143376
0.036799
0.000564772
1.53111e-08
0.0336129
8.10239e-06
0.0204934
2.75931e-08
4.98583e-05
0.000206822
1.78781e-06
3.47893e-07
0.0407051
1.62235e-09
0.0101757
0.0640653
9.78065e-09
0.0727098
4.30456e-05
0.0372524
0.00061012
1.06948e-07
2.78386e-05
0.0016418
0.0458676
0.00411901
0.00132203
0.161907
0.000202524
0.00395662
1.00107e-06
1.0619e-05
0.497261
0.162661
4.31045e-08
0.242229
0.000870572
0.000162655
0.00999002
0.000208946
0.00121663
0.0229475
0.00948112
0.00224945
0.00483848
0.00198171
0.0458613
8.19527e-08
0.0330657
0.0265614
9.80243e-08
0.00841899
0.27171
0.0284465
2.96303e-07
0.0018915
1.56534e-08
0.0101969
0.226709
2.34262e-08
0.179757
0.343487
0.00135575
0.00497603
1.07391e-06
0.0486846
7.78929e-05
0.00162232
0.00123348
0.000330457
4.30214e-06
0.0455782
0.00693031
9.3134e-10
0.000429205
0.000541094
0.000913207
0.00046721
0.000863793
0.000171524
1.08307e-09
6.88749e-05
0.0226596
4.1247e-07
0.00190942
0.35214
1.75525e-07
3.30464e-08
0.00324387
0.00330345
3.25504e-09
0.000610746
8.67179e-08
1.58676e-08
1.25019e-08
4.4936e-07
5.07048e-06
1.65577e-07
0.000347421
0.0521148
1.4529e-09
5.06602e-07
0.00451893
0.11626
0.00175699
0.00921042
0.0327429
1.03129e-08
0.000289571
4.02694e-09
2.26697e-09
0.000575364
0.148617
0.042079
8.53707e-09
6.70886e-08
0.035893
1.84665e-08
0.0232617
4.70232e-08
0.00672641
7.63333e-09
0.00196085
0.0263088
2.84548e-09
7.56953e-07
5.60221e-07
0.00143718
6.27137e-07
2.36476e-08
2.09365e-06
0.00445326
0.0543856
0.00420442
0.000615708
0.00107064
4.31411e-08
0.00140749
0.00187442
0.0439752
3.4008e-06
0.000224572
0.00540485
1.18093e-07
9.56285e-06
0.000151139
1.00918e-07
0.0082184
0.00163476
0.00316394
0.0734698
1.33981e-09
0.0228644
0.0611986
0.000121972
7.77329e-05
5.77938e-09
0.0264687
1.72889e-08
1.13786e-06
2.91087e-05
0.0522071
5.52997e-07
0.0023275
2.76586e-05
0.000846731
1.69502e-05
7.09949e-09
3.83635e-06
1.67504e-09
0.00246573
0.000646303
0.302257
3.10782e-08
5.09586e-07
0.00207433
1.54362e-10
4.7994e-05
4.46613e-07
0.0359294
0.000852101
0.0320325
1.47899e-08
0.0014041
0.000171272
6.32751e-05
0.000294222
4.64067e-08
0.00134118
0.0244751
0.137807
0.00115966
0.000318378
6.26601e-08
6.60079e-10
2.37827e-08
0.187048
0.075193
0.00770449
6.79142e-10
0.174288
2.99451e-08
0.214725
0.00308849
7.62964e-07
9.26569e-08
3.4212e-06
6.18135e-07
0.042138
2.13319e-06
0.000123472
0.325274
0.00689366
7.22417e-05
3.39502e-05
7.01797e-05
5.22169e-05
3.26822e-08
3.39773e-10
0.0260647
0.000427795
8.23147e-09
2.03043e-07
0.000610715
4.5929e-07
0.00155214
0.42394
1.76523e-06
0.00362835
4.0264e-10
0.00039194
2.66231e-07
0.33314
3.12201e-09
0.119435
0.00554385
0.000742134
0.0184941
0.0346462
0.000947935
2.57659e-06
0.000575824
2.32382e-06
0.00466971
6.22016e-08
1.87189e-06
8.61238e-05
2.40027e-06
0.0710614
2.76904e-07
0.0073305
0.00858254
2.06871e-09
0.000385437
8.61154e-08
0.00084774
0.000844997
6.86104e-08
0.017995
0.000237825
5.51375e-07
0.0235296
0.190817
0.0037276
0.0109619
1.60854e-10
0.0468784
9.00934e-06
1.93201e-07
0.0370015
4.95737e-06
0.114919
9.56406e-09
0.152818
0.000728934
2.09974e-09
0.00111945
4.08816e-07
2.63507e-09
0.00316397
0.00102336
0.010684
8.63993e-09
1.12296e-06
4.65949e-08
0.000895848
5.07707e-05
0.0343454
6.28365e-06
0.000910834
6.79101e-05
0.00118449
3.09476e-05
3.54005e-06
1.08737e-06
0.0183477
0.00987305
0.0182798
0.0359238
0.0440726
0.000268844
0.0482422
1.28191e-09
0.00955184
1.18715e-07
6.26132e-05
0.000467156
0.00675787
0.00043069
0.000539925
0.00199878
7.45571e-10
0.00723103
0.00842737
0.000216745
0.000799551
0.0153149
0.00100409
1.68725e-06
0.0299662
1.37431e-07
5.56523e-09
0.000265415
0.0749936
0.00100293
6.59086e-07
0.047732
0.000673976
7.23064e-07
1.37884e-07
0.000601334
2.92133e-06
0.0557451
0.322128
0.000372732
0.000427453
0.0224091
0.00722238
2.09486e-08
1.40454e-08
8.90298e-05
0.00404235
0.0351468
0.0551654
0.00958894
3.21131e-08
0.000324047
0.0419462
2.76829e-05
0.00116026
2.56875
0.0443934
0.12262
0.0516397
0.0219336
1.15522e-09
0.00204347
6.66391e-07
1.64337e-07
1.95406e-07
7.35251e-09
0.0028119
4.14899e-09
2.09268e-09
9.22259e-05
4.9393e-08
6.71239e-09
9.57805e-07
0.00972278
0.0603357
0.0109357
0.00320365
0.0778976
0.265123
5.99383e-09
0.1893
0.000160455
0.396367
0.0128649
1.10036e-07
9.29658e-05
0.00756135
0.26343
1.74947e-09
0.00119091
0.0192493
0.0046472
1.63807e-05
0.0256881
1.11523e-06
2.42497e-07
0.0792923
1.02411e-08
0.00805626
1.19665e-07
9.28155e-07
0.00829334
0.000460877
0.00274602
1.16664e-06
0.000391219
0.000671736
4.24788e-07
0.000202704
7.52586e-07
0.0235328
1.44045e-07
1.29035e-07
0.255827
0.0447718
0.000540095
3.32936e-07
6.34379e-09
0.00466561
0.195935
0.00467803
0.015112
0.217843
0.0202931
2.50811e-09
0.0365512
0.0031524
0.00670864
0.0369277
0.0102342
8.01939e-09
0.193714
1.08432e-09
0.0405889
0.00937639
0.0112061
1.37374e-08
0.0133382
1.33603e-06
0.00272794
0.00898316
5.18246e-06
3.09935e-10
4.76293e-09
0.00297378
0.0822359
2.33937e-09
0.00428164
0.0216469
0.000102325
0.00733629
0.04938
2.34355e-06
0.000141417
0.000849127
6.12628e-08
0.0103233
1.98658e-06
0.00257411
2.90264e-08
2.72242e-08
0.0123066
6.28497e-09
0.00022007
0.0037284
2.95149e-08
8.13051e-08
0.00460219
0.000549619
0.358876
1.18135e-07
0.248553
1.84628e-06
0.000371393
0.000171703
0.00758524
8.40491e-05
0.080818
0.00560165
5.52064e-05
0.0010922
0.068253
7.08085e-07
5.0292e-08
0.00042797
0.000787579
0.0425093
1.91055e-07
0.034636
0.00094866
1.53013e-08
0.232729
9.46893e-09
1.70336e-07
2.37527e-06
0.00288771
0.312265
0.0586918
4.66796e-07
2.51295e-08
1.8454e-09
1.11714e-07
1.09944e-07
6.62057e-07
1.2161e-07
6.80374e-09
6.41496e-08
1.18467e-08
1.85073e-07
0.0643656
0.0381698
2.89029e-09
1.38491e-05
7.56111e-09
7.82858e-08
1.32503e-08
0.0374142
0.0824296
0.0169271
4.14286e-08
1.39863e-08
8.38939e-07
0.00664956
4.09389e-06
1.37217e-07
0.300135
2.69535e-07
3.13714e-06
0.0228787
0.00019
5.36593e-06
0.00889961
0.0244418
3.00208e-08
0.00344526
0.00481963
1.84217e-08
0.0135495
0.0391595
0.0177808
0.00342702
0.0106318
3.75562e-06
1.13312e-07
0.335706
0.010469
0.00327049
0.0643953
0.00693797
0.00181135
0.0214846
0.00993793
0.000699741
0.0156434
0.00107761
0.0103807
3.37627e-06
0.0240558
0.00843125
0.00162459
0.00143876
5.47827e-09
6.43636e-08
4.72394e-08
6.69805e-10
1.78728e-07
0.0090977
0.013493
1.9019e-08
2.96697e-09
1.84026e-07
1.74162e-05
4.25201e-09
9.79619e-09
8.23363e-07
1.12741e-06
0.00468058
0.000299169
0.0216963
0.248261
1.25107e-07
1.16089e-05
0.0298199
1.20213e-05
4.45186e-09
1.84014e-08
0.232482
5.62245e-07
6.21188e-09
4.63865e-06
0.234222
0.0134898
0.0334856
0.0345778
1.10027e-06
0.01389
0.000355878
0.000388664
1.97489e-08
0.0119495
4.96943e-06
1.92142e-07
0.0156275
1.04401
0.197553
6.79329e-06
1.37743e-06
0.0168637
0.019625
0.0178829
0.00558223
0.00708973
1.19691e-08
0.000641658
0.000416595
0.0610985
1.00501e-05
0.2763
3.14898e-08
0.00197954
0.0246095
0.0175322
0.0110662
3.26718e-06
0.00607042
3.60346e-08
9.8395e-06
1.11855e-09
2.0253e-08
0.00244597
0.886292
1.01273e-07
5.26204e-09
0.000425919
0.0229226
0.00177999
0.00682952
0.0321625
0.004669
0.0204241
2.01331e-05
4.55281e-06
0.000205914
0.0289064
0.00553107
0.0033148
1.22068e-06
7.25167e-09
0.00015788
0.0218081
0.00266115
5.0733e-09
0.149303
0.0578131
0.00630317
0.00610861
7.34876e-09
0.000196796
0.00676302
0.0222594
7.92754e-10
0.000415777
0.0148221
0.00104885
0.205879
0.00462952
0.00775477
0.000247257
0.00319688
0.0205807
0.035038
8.33628e-05
0.02203
0.000120546
0.200199
0.000164832
5.38438e-10
0.00246766
0.00749699
0.000423662
0.0113241
0.000460594
0.00100809
0.000500847
0.0429558
0.00363181
5.29212e-05
0.0369882
0.00128654
1.11681e-07
1.07855e-08
0.10233
0.000522399
0.00104549
1.05854
0.0345678
0.0121421
0.000435202
0.0445666
2.26157e-06
3.23184e-06
0.00378175
4.23431e-05
0.00199685
0.00390809
0.0021751
0.00450181
6.465e-09
0.00021355
0.104177
2.01925e-08
0.0135174
0.00738849
8.04853e-06
0.00391391
0.000135496
4.06017e-08
0.00060122
0.139104
4.78504e-08
5.67259e-09
2.11894e-08
0.149095
0.252327
0.0135735
0.0533341
0.00457876
0.0318002
8.01439e-06
0.00777954
0.012017
0.0229381
0.00150653
0.118422
0.341392
0.402096
0.0100779
0.00882297
0.0353943
0.157216
0.364998
1.407e-08
0.175572
0.0475161
1.10155e-08
0.000405666
5.92541e-07
2.91837e-08
3.75323e-08
2.29761e-07
1.7532e-08
0.140515
5.11035e-08
0.00692942
0.00128033
2.29639e-08
0.00360818
7.34482e-06
0.0132779
6.53169e-08
0.000614836
6.45495e-06
0.0207194
0.000223675
6.70554e-06
0.0041245
0.0271
0.0157873
0.00375095
0.0261068
0.00341813
0.0223271
0.0519574
0.00944836
8.35077e-07
0.00104152
0.000331457
0.0054312
0.00967681
0.000590805
1.15375e-06
5.79109e-05
1.26267e-07
0.00334551
0.041215
0.000782839
0.329458
0.00248131
0.000361552
1.67615e-08
0.0615476
1.19329e-09
0.00843153
0.0203311
0.00112378
9.67542e-05
0.00176642
0.00662562
0.00178915
0.000782822
0.00622214
0.00599963
0.00259813
2.25838e-05
0.0790712
3.56109e-07
0.0122349
0.0103054
8.07177e-07
5.91501e-10
0.000261475
0.00824434
0.017311
1.40153e-08
0.00215383
0.0443919
0.000213046
0.00438509
0.086102
1.70136e-09
8.18387e-11
0.00344018
4.14668e-09
0.000104894
0.0114275
2.17692e-05
0.0103422
0.0310353
0.018237
3.08385e-08
0.0015329
9.05031e-05
0.000133361
0.0460864
2.89903e-08
9.81976e-07
0.0101004
0.000536637
1.01138e-06
0.1622
0.000922637
2.88404e-08
4.12707e-08
0.000230936
8.5291e-05
0.00234788
0.00297005
0.0246025
0.242649
4.03191e-10
0.000334942
0.00071719
0.0425283
1.76317e-06
0.0474958
0.0830721
0.000120113
7.61727e-06
2.02091e-05
1.12888e-08
1.58421e-05
2.71193e-05
0.000379315
1.92511e-05
0.000316847
2.61481e-05
0.000684002
0.00034619
0.000618453
0.000130713
1.67886e-08
0.0273413
0.0093728
6.28429e-06
0.0813987
0.000250589
0.000214683
1.38673e-05
0.00116903
0.000266608
0.00264477
0.000386365
0.00103664
1.94717e-05
2.47741e-08
0.00119484
0.000419898
0.0668762
2.1334e-06
0.0365613
4.92651e-05
0.0350298
8.53917e-05
8.39932e-07
0.000399169
0.0264193
0.0073928
2.51573e-08
0.000301296
1.10412e-05
0.00443001
0.00122585
0.340809
4.6568e-05
2.04674e-06
0.0191908
0.0015682
0.00498224
0.033864
0.0704177
4.07858e-10
0.0207204
0.00363294
0.0498722
5.67947e-09
0.0011485
5.70244e-07
0.0427467
4.98582e-08
4.87917e-09
0.00322988
0.00211978
0.00291018
0.298847
0.039546
0.0251158
0.0338802
0.0159531
0.220942
0.0432679
0.00485757
0.00470134
0.0056973
0.000581505
0.0094539
0.0374029
0.00143058
0.0014236
0.0307877
1.93332e-06
0.00331241
5.21714e-07
0.0174672
2.35041e-06
7.69594e-07
0.00156789
4.1521e-06
0.00569694
2.46356e-08
3.62841e-07
0.0806534
9.70645e-09
7.73454e-08
0.000841383
6.35708e-08
0.000684507
3.56179e-05
0.0659287
0.0164658
0.266469
0.0075443
0.00685351
0.0399154
0.548559
2.53658e-10
0.0641552
0.0279798
0.0162931
0.0230643
0.00227071
0.0526372
7.06042e-06
7.48068e-06
8.53212e-07
0.129646
1.0961e-06
1.02854e-07
0.0165559
6.62822e-07
1.51566e-08
0.00530954
2.46052e-06
0.286008
8.17443e-05
3.51632e-05
4.63564e-05
5.86386e-05
0.0014508
0.00637507
1.28351e-10
0.0216889
0.000412525
2.15491e-05
0.0950254
6.92232e-08
0.0145387
0.0169364
0.00360503
3.21843e-08
0.0169715
0.00963722
0.000891103
0.00518183
0.0117376
2.9136e-08
2.25432e-08
0.00165095
2.21973e-08
1.47981e-09
2.76769e-09
0.0185042
0.355138
0.00430601
0.00220863
6.91541e-05
0.0476069
0.0432734
0.00398099
0.00238128
0.00888512
0.0196859
0.00266927
4.03604e-09
2.91757e-09
4.05965e-09
0.00701216
1.12338e-07
0.352501
0.000527045
0.000768558
0.00184102
0.00247366
0.0208044
2.46479e-09
0.0592723
0.00245771
0.000375249
1.55172e-06
4.12302e-07
1.61678e-07
0.481552
0.000311236
0.000582114
0.000871305
0.00970955
0.204145
3.16706e-07
3.20324e-07
4.99611e-07
0.00359212
0.0164762
0.0189366
0.03314
0.00164693
0.00343484
3.61509e-06
4.26972e-10
0.000190211
3.81731e-07
0.1656
0.0211947
2.40808e-07
1.25182e-06
1.89395e-05
0.0606353
0.0297465
1.84742e-05
0.0133403
0.0905435
0.000891264
0.407196
0.0473758
2.5377e-05
0.0217181
0.173987
0.0186405
1.04032e-05
0.00495003
1.53392e-08
0.0139758
0.00172796
0.023453
1.14363e-05
0.000380965
1.33304e-09
0.0231207
1.03281e-08
2.88133e-05
0.381669
1.22063e-07
0.00588814
0.00120702
3.74617e-07
4.12599e-08
0.00203285
4.1769e-07
1.18956e-07
0.0106607
0.000152505
1.39295e-08
0.0232753
0.0440574
0.0162586
3.09925e-10
1.91394e-09
0.000599263
0.00263217
0.00310066
3.36244e-09
9.87705e-08
0.000132996
0.00382642
0.00189725
0.01265
0.367111
1.491e-09
0.141595
0.0110804
0.00625215
0.0562611
1.08541e-06
2.10991e-08
0.0228032
7.34904e-10
0.0296911
0.00487768
0.00578464
1.10169e-06
9.24611e-09
3.94573e-09
1.6294e-08
2.03863e-05
0.134081
0.212591
0.00211618
2.55099e-06
1.69752e-10
0.0557368
0.225564
0.0342284
0.11215
1.50347e-07
0.000969871
0.000247142
2.40784e-07
1.32364e-08
0.00367444
0.00615814
3.70736e-08
1.10735e-05
0.00285514
0.0599402
0.205086
0.00104873
2.00339
1.00141e-08
3.74291e-07
0.0114153
0.000712265
3.37789e-05
0.635414
0.000591446
0.00598302
7.0528e-09
8.63607e-08
1.26553e-05
0.0582346
0.00820322
0.177912
2.00859e-08
0.0244995
0.0184724
0.824749
1.05768e-08
1.26464e-09
1.10399e-07
3.56032e-08
0.00655474
0.000328096
1.0218e-08
0.0373041
0.0179703
0.16006
0.0045693
3.023e-06
1.6521e-06
0.0276851
1.33312e-05
3.02864e-08
2.35649e-08
1.34097e-08
0.0203582
9.60114e-06
0.0582642
0.0564007
0.0246526
0.0114575
6.03144e-09
2.40522e-09
2.49995e-08
0.014701
0.000250488
2.03874e-07
3.65341e-08
3.57878e-09
0.0219288
0.00234732
0.0109323
0.0403594
0.00190592
0.311959
0.00477913
4.39745e-07
4.25192e-10
2.59232e-07
0.0534376
9.21765e-10
0.0182265
2.24271e-08
0.014391
4.50358e-05
0.00160392
0.000145857
0.00242805
3.89122e-09
1.54718e-08
0.368982
0.152444
3.51153e-05
0.00379603
4.21887e-07
0.000464997
9.6321e-05
3.01498e-06
3.29828e-06
0.00030527
8.22138e-08
0.00100726
0.0391383
0.0337534
2.07187e-07
8.33398e-05
9.06248e-07
0.034064
0.182139
0.000153571
9.20746e-10
0.00968643
3.43206e-07
0.00268547
0.0173204
0.00140267
1.12315e-08
0.00088204
0.000532698
0.000134166
0.00406353
0.000123635
0.00169891
5.35133e-06
7.46802e-10
0.000156432
0.00558631
0.000298551
6.64376e-07
9.65944e-06
0.000121707
0.564441
9.43733e-09
1.81146e-08
3.48991e-08
3.52133e-10
1.27328e-07
0.0216461
0.000586723
0.00112343
0.000107489
0.000206308
0.00149938
2.80028e-10
0.00519912
6.58279e-09
5.38781e-07
7.55738e-09
2.64841e-05
0.0020535
1.54641e-05
1.11545e-07
1.32972e-08
0.0136417
1.22515e-07
6.9476e-09
0.156516
9.25561e-06
0.0771963
0.123124
0.548735
8.99821e-09
0.193926
1.0764
1.04591
0.606962
3.85709e-09
4.00607e-10
0.00455969
0.00427017
6.83207e-05
0.0106187
0.0425006
0.0299836
3.29498e-05
4.47703e-06
0.00125982
3.40283e-08
1.23804e-09
0.000124921
0.000410412
0.0260852
6.43834e-09
0.117936
0.000127043
3.39919e-07
0.000111269
0.00781361
0.00156357
2.2858e-06
0.00765893
6.72812e-09
0.00327729
0.0021696
0.00708551
5.79243e-08
0.00175863
0.00551097
1.06898e-05
0.00322217
8.7464e-08
0.0297914
5.72092e-05
0.00890422
8.70194e-07
0.193169
5.67761e-08
8.53487e-07
2.73695e-08
0.118109
0.120996
2.06774e-06
0.0111028
0.00885896
0.0550499
3.32727e-08
0.0301252
0.0158475
0.17208
1.27999e-06
0.195476
0.0231661
0.0425451
0.00364199
1.60613e-07
0.0529998
1.73252e-06
0.212319
1.77119e-09
0.00240569
0.0039833
1.09292e-07
5.7296e-05
1.27158e-06
0.0193955
7.50317e-09
0.0397894
2.89352e-07
1.00007e-05
1.09896e-06
5.30362e-07
0.000259882
0.00189523
0.124643
5.08012e-06
0.000247456
0.0379941
1.35038e-06
0.0429894
7.71395e-07
3.37956e-06
2.52331e-06
0.00551877
1.92182e-10
5.02926e-09
7.0381e-10
0.00305253
5.62755e-08
0.0677185
2.23268e-05
0.00307416
3.91157e-09
0.00568245
0.334882
0.00519068
0.00527478
0.0246936
1.26169e-05
2.00276e-07
7.88506e-08
0.00299815
0.00159823
2.72323e-06
0.000546977
0.00057794
4.66074e-08
2.99281e-08
0.310091
7.66749e-08
0.0198321
4.11756e-08
0.0021824
0.0029446
1.91134e-07
7.90141e-10
0.045692
7.10815e-09
2.50915e-09
0.0163967
0.0564397
0.00436799
2.24815e-06
1.38329e-08
0.00643349
5.36467e-06
0.0115396
6.03381e-06
7.43585e-09
0.00214013
6.748e-05
0.12949
4.03933e-09
4.98539e-09
4.39558e-09
0.00313834
0.164326
9.69202e-07
1.5594e-08
7.59824e-06
0.00142569
1.91374e-08
0.0177005
0.028514
5.24391e-08
4.41469e-09
0.00672074
2.39819e-07
2.09377e-05
1.51753e-09
2.55506e-05
1.01353e-08
0.0631749
0.000351021
1.34368e-07
5.51279e-09
0.0688023
2.97784e-08
0.0565747
2.46776e-07
4.62101e-08
9.63138e-06
0.00693309
0.047028
0.00803272
0.0499178
0.0606444
0.531326
0.00255315
0.040363
1.08425e-05
1.66806e-08
0.00228421
0.141216
0.0370032
0.0422007
1.19264e-08
0.00685799
1.43441e-08
0.0043069
9.89727e-07
0.00869585
0.000172015
0.0517784
5.30781e-07
1.64949e-08
0.0199501
0.000295194
2.3869e-08
0.0243051
0.000282191
1.97673e-06
9.64288e-10
0.0325206
0.00905512
0.0060119
0.000792269
0.00169469
0.0158947
0.000958021
0.00442387
8.68931e-06
0.026644
0.00012605
0.000457942
4.131e-09
6.34733e-07
2.77854e-08
0.00967037
9.05621e-08
2.31256e-06
1.02112e-10
0.000402156
0.391926
0.0890684
0.00224702
4.92126e-09
0.00398672
0.0553325
0.10293
0.00294777
0.000271652
0.0415332
5.59837e-07
1.20561e-07
3.02108e-09
0.00274613
0.00117618
3.88428e-08
4.23132e-09
0.00230488
1.6573e-07
0.784944
0.0539067
0.0938437
5.2647e-09
1.15529e-08
0.0420724
5.12275e-09
0.00921094
9.66172e-09
0.000647811
2.14206e-08
0.00891056
5.13638e-08
6.12646e-09
0.0010827
0.15499
0.0646277
1.4515e-08
0.0689719
4.24372e-08
0.0038151
0.169848
0.118086
2.40019e-07
0.000485327
4.00654e-09
1.97512e-06
0.000279153
0.0156319
0.000301297
1.02712e-08
0.000634684
0.00299762
0.00494241
0.00754868
3.66623e-07
3.32513e-07
3.38467e-06
6.10353e-07
1.01298e-08
3.64713e-09
0.0753952
0.0371576
1.44568e-08
0.0845345
3.13505e-10
2.15105e-08
0.0685586
4.89452e-09
4.82989e-09
0.0402521
1.82492e-08
7.75568e-10
1.00853
2.0032e-09
1.26683e-09
0.00194315
0.0929065
1.40805e-07
0.0371285
8.44843e-09
0.0209591
0.050393
6.27822e-06
0.000877612
5.85489e-10
7.27778e-08
1.04524e-06
1.83271e-07
0.319718
0.0456604
0.000256732
3.25565e-08
0.04629
9.89387e-10
2.06789e-08
1.79362e-09
0.103151
0.00175482
0.000110475
1.29389e-09
1.28904e-06
0.0481412
0.000911993
3.64662e-07
0.000262408
0.109054
0.0862918
3.56016e-05
0.0853843
0.000925214
0.0426735
4.20938e-05
0.0658276
0.000345206
0.0288207
1.47732e-06
0.00673541
0.000458497
0.000933976
6.9023e-10
0.00130079
7.45843e-08
0.00377642
0.0243477
1.00422e-06
0.00233649
0.000311617
1.74507e-07
0.0101939
9.20413e-08
2.67027e-08
2.72817e-08
4.50128e-08
5.06037e-06
4.4459e-08
4.87852e-08
7.45161e-08
0.268706
4.32625e-05
1.62296e-10
1.80904e-09
5.5351e-08
1.00382e-07
0.0299699
0.766981
0.0021008
0.000141062
9.51947e-09
0.00202312
0.00139772
0.0463533
3.20573e-05
1.28952e-05
5.66012e-07
1.11433e-06
2.47424e-06
0.000223033
0.000117048
0.179879
0.0671762
8.23496e-08
0.00106717
0.000300373
1.50525e-08
0.0241601
4.61758e-06
3.83251e-08
1.73093e-06
0.16252
0.062157
1.07186e-09
0.0251696
1.35167e-08
0.0488191
5.13357e-05
0.0355051
0.0533017
4.84943e-09
6.72148e-09
2.3149e-08
2.50857e-05
0.0056373
0.225283
0.0274734
0.0416282
0.00449154
0.000542232
9.65778e-10
0.000117089
0.138931
0.00127668
9.54357e-05
0.00296282
4.05176e-06
0.0991927
4.82978e-08
0.205383
0.0383593
1.37942e-08
0.000488517
0.00719978
4.032e-08
0.00962894
1.39592e-08
1.8597e-07
0.198212
0.029545
5.32393e-08
8.54964e-09
6.96661e-07
2.56353e-09
6.07925e-09
0.000126855
2.45523e-08
5.83367e-10
0.00309326
7.7064e-09
9.74656e-08
2.70148e-07
0.000228944
2.197e-07
0.000169379
1.05358e-07
4.68265e-08
2.2626e-05
6.61541e-05
0.00359138
0.0432432
8.07567e-05
0.00503993
2.29993e-06
0.320406
0.315684
1.26134e-07
0.00345135
1.77795e-08
0.0459072
0.0380274
0.000405899
0.0904918
0.0684973
7.16295e-06
1.10563e-09
0.00246582
1.13159e-08
1.2309e-09
3.97582e-07
1.58517e-05
7.28011e-09
1.73836e-05
0.0355407
5.16182e-09
2.40556e-08
0.338021
1.5174e-09
0.0172914
8.29897e-06
0.00133239
9.69267e-09
0.000443068
0.000145781
0.239808
0.00793726
0.0239958
0.000182981
0.0403812
0.000271254
0.0754725
0.000153846
0.000226588
0.0098431
0.058135
0.000324481
0.00127687
4.3238e-06
1.7867e-07
0.0011176
0.000224646
0.0157313
0.0121299
0.000147644
1.90868e-06
0.00548927
0.0052298
0.0185664
2.18242e-09
0.0123228
0.0166508
0.00277849
0.00149998
0.00132319
0.00325644
0.0189681
0.0409239
0.00714385
0.0110791
0.00800817
9.07633e-05
0.00291696
0.00364006
0.00108663
0.00262048
0.0141716
0.0137891
0.0193362
0.000122073
0.0115275
0.000423146
0.00511459
0.00286518
0.000350456
0.00234706
0.000204209
0.0758573
0.00399207
0.00123799
0.000142498
0.00072879
0.0158335
0.00246972
0.217068
0.00355508
6.9415e-10
0.231818
0.0461774
0.021635
0.00716055
0.0203157
0.000407322
0.00865231
0.463495
0.00213895
0.00137525
0.00251854
0.175136
0.00118981
0.0744466
7.61251e-05
7.78933e-08
1.31264e-08
0.0022418
0.00620875
0.0118384
0.0709385
0.00676512
0.0608067
0.0549884
0.0721824
2.90439e-08
0.00700504
0.00263009
0.0248527
1.05852e-06
0.00635702
9.19719e-08
0.225628
0.0116549
0.00756243
0.221521
5.17866e-09
8.98597e-08
0.00223596
0.000111612
0.00076903
1.55916e-07
0.00657073
0.000977255
0.0780959
9.04576e-07
0.022376
0.00309667
0.000351483
0.000126782
0.00238776
0.00130563
2.44496e-07
0.00188787
5.31536e-05
9.76108e-09