/*--------------------------------*- C++ -*----------------------------------*\
  =========                 |
  \\      /  F ield         | OpenFOAM: The Open Source CFD Toolbox
   \\    /   O peration     | Website:  https://openfoam.org
    \\  /    A nd           | Version:  10
     \\/     M anipulation  |
\*---------------------------------------------------------------------------*/
FoamFile
{
    format      ascii;
    class       volScalarField;
    location    "27.5";
    object      SgT;
}
// * * * * * * * * * * * * * * * * * * * * * * * * * * * * * * * * * * * * * //

dimensions      [1 -1 -3 -1 0 0 0];

internalField   nonuniform List<scalar> 
111485
(
8.99818e-15
0.00770448
0.0243475
2.19598e-16
0.0489812
3.86659e-16
0.0465189
0.00616981
0.0190734
0.00124623
0.0468755
0.00949112
0.00482645
0.000791277
0.00651099
0.030185
0.00143693
2.62395
0.0103594
1.58512e-14
5.02157e-15
7.76889e-16
0.0269691
0.0344954
0.00874199
3.07189e-16
0.0393191
0.00178454
0.0152493
1.86938e-15
0.0446811
0.0196179
1.20085e-15
7.07759e-16
0.00628816
4.43963e-15
0.0106441
0.0042139
3.85209e-08
0.0242507
6.11202e-15
0.0707576
0.0158745
0.00157061
6.39051e-05
4.59206e-14
0.029393
0.000711072
0.0474104
3.04773e-15
2.33742e-15
1.49835e-14
1.38134e-14
0.0515546
5.1315e-15
0.0438011
0.00302897
1.0953e-15
1.9985e-05
0.0048046
0.0160789
5.35134e-15
0.00482165
0.0985125
1.95902e-15
0.00310154
0.316056
0.0943804
0.00111749
0.00618877
1.9522e-05
0.00668346
1.84166e-14
0.00292091
1.87199e-14
0.000719024
2.04402e-15
0.0411189
5.50404e-15
1.20809e-14
1.00484e-06
0.0339456
3.0932e-15
2.45753e-14
0.00940789
0.00380036
3.31894e-10
0.0254322
6.09127e-05
0.00744086
0.000255026
0.0402377
0.0119872
5.80546e-05
0.0520958
2.21507e-15
6.3452e-16
0.00182872
3.16384e-08
0.00111947
3.4911e-14
0.0176412
1.35207e-16
0.0179751
0.00457291
3.14896e-15
1.20445e-15
0.00759325
0.00420868
5.44821e-08
0.00555301
0.00476278
0.00381295
0.00327868
1.50152e-15
3.42525e-05
7.58277e-16
8.08148e-15
0.0129027
1.51301e-15
8.95898e-16
5.28699e-15
8.15677e-15
1.7788e-15
0.00152803
3.04438e-06
6.02209e-15
0.00172598
1.12744e-15
2.2543e-05
0.00153164
0.0328991
9.2904e-15
2.76647e-14
1.31255e-14
0.048299
1.89165e-15
0.0425446
0.0254244
0.00270608
0.000252668
0.00199745
0.02251
0.0026098
0.00408042
0.0130632
1.64563e-14
1.0437e-14
5.22326e-15
0.0281279
0.0015249
2.85589e-15
2.3919e-07
0.00467364
4.24217e-07
0.0109675
0.0160842
0.0108731
5.96883e-08
9.14233e-15
4.6836e-16
0.0524153
0.0224528
1.65065e-06
2.99113e-07
0.00586237
0.00338946
8.40123e-16
4.00017e-06
4.28345e-05
4.79491e-17
6.44382e-15
0.000121602
2.79843e-16
0.0054837
0.00206133
5.31348e-16
2.76086e-15
1.10923e-15
3.41141e-15
3.81463e-15
1.40753e-15
0.00151936
0.00677828
0.0299446
0.00412098
0.00771561
0.00403951
7.72177e-05
1.84164e-15
0.00486775
2.2993e-15
3.61941e-15
0.00655317
0.0103472
0.0288043
0.0115108
0.00502795
1.80936e-14
0.00680602
0.000497529
4.08359e-05
0.014486
0.0023394
1.93392e-14
0.00386282
0.024928
1.31996e-15
0.000157542
0.00794886
0.0019928
0.00037148
1.40777e-15
3.60166e-15
0.00834769
1.05512e-11
0.119338
7.28738e-15
0.00669606
0.0206231
0.119094
1.75078e-14
0.00330142
0.0136829
2.23627e-13
1.15869e-16
2.63875e-15
0.149998
2.33292e-07
1.97366e-15
7.27762e-16
0.00945109
0.00783448
0.0149877
4.55145e-15
1.35152e-14
1.32841e-05
8.56147e-15
0.00235988
0.00958836
0.0166742
0.0116362
0.00966738
3.66379e-15
2.40741e-07
0.000630993
1.92414e-14
6.67346e-15
0.0309867
0.0205812
2.1158e-15
0.00657632
0.0107973
1.10839e-15
1.20057e-14
0.000112702
3.75101e-15
5.23979e-15
4.556e-05
1.98331e-15
0.0147533
0.0105984
0.00368973
2.82308e-14
0.0118043
8.73836e-16
1.59129e-15
1.72013e-14
1.7415e-08
0.0230624
0.00617505
0.00552781
0.0362002
0.0124063
0.00155499
0.000563214
0.0321893
0.00870194
2.98813e-16
1.7973e-14
2.31995e-07
0.0226962
0.0245858
0.0117714
4.16264e-17
0.00701027
0.00202503
0.0030389
2.02835e-06
3.54715e-06
0.0138695
0.0021844
0.00198444
2.51425e-15
0.000642106
9.35037e-16
2.28345e-07
4.65328e-13
0.233669
0.067818
0.0117597
4.91358e-15
2.46044e-15
0.00897871
0.00171739
3.10283e-15
1.00072e-15
9.87887e-16
0.000295228
0.0569003
0.00402545
0.0132403
0.0192111
1.79062e-15
3.35309e-15
1.09252e-14
0.00377762
1.7643e-12
0.000858809
0.184118
2.84207e-07
3.17932e-16
8.17901e-15
3.83173e-15
6.61821e-15
0.060185
0.0118065
8.58746e-16
0.0052953
1.46809e-15
1.72137e-15
0.0671603
0.00599662
0.011448
0.00933726
2.02143e-14
1.22832e-14
1.20756e-14
0.00951915
0.0187469
0.00489354
9.9973e-17
3.03632e-10
0.00015401
0.00231082
0.0080633
3.22628e-05
0.0284621
3.16232e-15
0.0375049
0.00358358
0.0077166
0.0257852
0.013132
7.66362e-15
2.76648e-14
1.76833e-14
2.81214e-15
0.0310928
0.00980328
0.0325557
0.0673161
2.33582e-15
0.0182562
1.6188e-15
5.17856e-15
0.0167308
7.09803e-15
0.0817665
2.49581e-14
1.25078e-16
0.0228109
4.51661e-16
0.0135067
0.000283883
2.71001e-15
0.000971134
0.0166596
1.14943e-15
0.00894886
0.00897698
0.00819772
0.000705443
0.00265801
0.00545944
9.55846e-15
2.39668e-14
0.00201801
7.26365e-15
0.0063296
0.11798
2.57839e-15
1.04956e-14
0.0276956
0.000109228
0.00829801
0.0204403
8.17635e-16
0.0478908
0.018903
1.0398e-15
0.000843916
0.00235308
1.854e-15
8.39072e-15
0.0109214
0.00518419
2.01436e-14
3.66887e-16
4.07777e-08
1.12999e-14
0.0125155
3.86425e-16
4.22871e-15
0.0167041
1.54539e-06
0.012293
0.0299847
3.34183e-16
2.74523e-15
0.00154387
2.34687e-15
0.00016534
0.0146254
0.121788
0.828735
3.4407e-15
0.00276705
0.000558534
1.7837e-14
0.0390115
0.0308584
1.62029e-14
7.01745e-09
8.6022e-05
5.03784e-15
0.0236926
0.0239314
0.0138543
5.35908e-15
0.000661603
0.0166933
0.0227589
8.2584e-07
2.54421e-15
6.93408e-10
7.00013e-15
1.1326e-05
0.031194
3.37529e-15
0.00815241
0.000102143
1.71938e-15
7.58339e-16
9.45183e-16
3.39556e-15
0.00371952
0.0095869
0.00628196
0.00203014
0.00256794
7.77298e-15
0.00194321
6.85145e-15
0.0412599
1.95915e-15
2.61236e-15
5.3926e-16
0.0375479
7.99403e-16
2.81549e-15
1.40814e-07
1.37159e-14
1.13425e-14
0.00106871
3.07778e-15
6.78194e-15
6.3085e-16
9.78602e-17
1.91068e-14
2.68629e-15
7.49046e-15
0.00678915
1.87838e-14
0.000542778
0.00198339
0.000821398
1.68162e-15
0.000907181
1.46718e-14
1.98635e-15
0.00272611
0.00175201
0.0267034
0.0251555
1.52393e-14
0.00202963
0.0824109
0.00852171
0.00100956
0.00319286
3.1208e-14
0.0232171
2.48593e-15
0.0050262
7.31702e-15
0.0763919
9.60234e-16
0.0212056
0.00024693
5.14984e-07
8.26943e-15
0.00202863
2.76166e-15
0.0800374
0.0489062
5.70698e-15
3.84044e-15
2.74563e-15
9.87043e-17
1.36927e-09
0.0546988
6.14278e-16
2.69621e-15
0.00240714
6.58118e-16
0.0340467
3.78807e-15
0.00031072
2.56879e-15
0.000465588
1.1843e-06
0.000978899
0.012777
1.78049e-14
0.000418459
5.77693e-16
7.66246e-16
0.0147117
6.17483e-15
2.84602e-05
3.10013e-16
0.00164199
2.76652e-15
0.0644545
2.2093e-15
2.28404e-15
0.0177366
0.00319411
0.00174561
0.0038447
0.00688286
0.0206651
2.40419e-15
0.0254385
0.00593257
2.11789e-15
7.46132e-08
0.0413684
0.0154466
6.93692e-15
0.0036391
0.00692874
0.00180594
0.000972033
1.97539e-10
0.0136879
0.00123685
0.000119088
0.0228246
0.0137391
0.000565179
4.94498e-15
2.97317e-09
0.651182
1.22591e-15
0.000342894
1.95478e-15
5.33174e-15
0.00730968
0.00263628
2.3531e-07
1.79635e-05
2.07234e-15
0.0159059
0.0110378
3.23563e-15
2.00695e-10
0.00129526
2.76968e-16
1.08737e-14
4.92189e-16
1.89574e-15
0.0126144
7.85303e-15
2.89881e-14
0.00844865
0.00190708
5.01917e-14
0.0105543
1.00076e-14
0.00845495
4.22643e-16
2.83526e-14
0.0516577
9.2662e-16
1.56111e-15
4.43975e-15
0.00419213
1.26309e-15
0.0279969
0.00625124
1.65816e-15
0.0904452
0.00231984
0.0287328
0.0283016
0.000413045
7.33692e-05
6.83311e-15
0.0538412
0.0467379
2.72371e-14
0.000320671
0.0406877
0.00804196
0.00138177
0.0276338
0.0261249
2.74809e-14
0.0109638
6.77e-06
7.05778e-15
0.0348739
0.000249343
4.22221e-14
0.0108485
0.0407021
0.00130805
0.0215447
0.0196676
0.00720476
5.60831e-15
0.0104422
0.000299795
4.73273e-12
0.0171808
0.0180077
0.0357534
1.02679e-14
0.00184118
1.39535e-15
2.04287e-16
2.14157e-15
1.44433e-14
1.31005e-05
4.58392e-15
3.19047e-10
4.12428e-15
1.30555e-15
8.16234e-05
0.0427622
1.67463e-14
0.0303652
2.12515e-14
2.35216e-14
8.6317e-16
0.0385268
0.000392299
1.53524e-14
3.67039e-14
4.58709e-15
4.6803e-16
0.205398
0.0698084
6.98363e-16
0.00200772
1.79429e-06
2.00625e-15
0.0373933
0.00859698
0.0114528
1.36203e-16
2.78249e-14
0.000411634
0.0010737
3.22784e-15
4.74592e-15
5.45335e-15
0.00722673
1.16422e-15
3.86765e-15
5.29013e-15
0.042144
0.00214134
3.46614e-16
3.84254
0.368063
0.00967639
1.773e-15
6.55247e-15
0.0550136
0.000430857
5.55743e-15
5.0964e-06
0.108437
0.00236831
0.0111968
4.26303e-15
0.0519957
0.00191838
1.00621e-15
4.66806e-15
1.85037e-15
3.86001e-15
3.52284e-15
6.54874e-16
0.0224237
2.00656e-15
5.05611e-15
4.95026e-16
0.0113007
0.0235419
1.34301e-15
1.83764e-15
0.105536
0.0143426
0.00988084
1.52123e-15
2.16127e-15
0.037219
1.13252e-15
0.00168374
0.00263261
0.00396864
6.79944e-15
9.1341e-16
1.18964e-15
1.35353e-15
0.0145732
5.29159e-16
1.03605e-16
0.00106522
2.54823e-15
0.0233007
0.00192807
3.36423e-15
0.0368579
0.337506
0.00253544
0.0289704
0.000140533
0.0434186
7.24899e-11
4.76491e-14
0.0237022
0.0675553
0.00598956
3.86263e-15
4.75188e-10
0.78755
0.0100368
6.96096e-15
0.00240488
0.00240212
0.00112337
3.61531e-15
1.37974e-15
2.88053e-14
0.0134681
6.79748e-15
0.00273555
6.10082e-16
0.00118638
0.00143018
0.036769
0.000564626
8.77565e-15
5.61086e-16
1.7071e-14
0.020493
3.5566e-16
1.02063e-14
7.54889e-05
7.59983e-15
8.3785e-16
1.90295e-15
4.15053e-16
0.0101482
7.59076e-15
1.05941e-15
4.37163e-10
6.16627e-15
1.30315e-15
4.69564e-14
3.14018e-15
2.90928e-06
0.00161974
2.11172e-15
0.00406193
6.17535e-06
2.87605e-07
5.76693e-05
0.00394511
1.08897e-15
9.34889e-06
0.0100927
0.000397789
9.29765e-15
5.96957e-09
0.000856672
2.94004e-16
0.0099647
0.000186763
1.58691e-06
0.0229076
0.00946712
0.00224261
0.00483835
0.00197991
2.23389e-15
4.44541e-15
0.03301
0.0265331
1.61403e-14
0.00841501
0.0539789
0.0284419
8.87128e-15
0.00124459
5.59523e-15
0.0101928
0.0139752
1.6786e-15
0.00158482
0.000446916
1.17734e-06
0.00495822
2.62807e-16
0.0486808
1.46697e-05
0.00139735
2.91709e-05
1.19785e-05
8.77632e-16
2.3822e-15
0.00681821
9.4212e-17
0.000124897
0.000241233
0.000301418
5.97118e-08
6.94811e-08
1.75141e-07
1.28083e-15
2.28037e-15
0.0226586
5.05426e-14
0.000196085
0.00195986
1.08633e-14
2.42414e-15
6.65768e-07
9.42533e-10
2.39475e-16
5.21802e-06
7.10313e-16
1.87338e-15
1.16578e-15
1.38626e-14
3.22055e-15
3.84563e-14
0.000268931
6.84216e-16
8.36384e-16
1.92151e-14
6.51148e-06
4.80909e-05
0.00168156
0.00920964
2.00847e-15
3.50284e-16
0.000155087
3.24648e-15
2.59691e-15
2.27413e-14
0.0184107
0.0420764
4.16425e-15
2.4886e-15
1.01386e-14
2.89302e-15
5.64747e-16
5.98864e-15
0.00662222
1.86647e-15
5.43217e-08
0.0263056
2.81915e-15
2.63212e-14
2.2006e-15
2.93916e-05
1.77094e-15
1.0341e-15
5.52733e-15
9.8061e-06
4.31942e-15
0.00413177
8.83127e-07
6.36512e-09
4.59213e-16
7.73162e-05
0.00186408
0.0439748
2.22664e-16
8.52191e-06
0.00538238
1.46903e-15
2.36341e-15
9.66965e-15
2.23144e-15
0.00821703
0.001634
0.00314764
1.82108e-07
9.4761e-17
0.0228635
4.73382e-15
3.95285e-15
2.24355e-15
5.37492e-15
0.0264679
3.46175e-15
1.17072e-14
1.53475e-06
0.0521537
3.78822e-15
0.00229736
3.42087e-15
0.000763503
5.91531e-15
3.39997e-16
4.40848e-15
3.15797e-15
0.00246522
0.000578924
0.30207
5.14173e-16
6.02079e-15
0.00206977
1.8447e-15
2.10872e-14
1.07018e-14
0.035856
9.97513e-06
0.031957
7.30713e-15
1.13297e-05
5.18266e-05
1.29074e-14
0.000134663
2.09602e-15
0.00117664
0.0244726
0.0202783
0.00112458
0.000220297
4.80308e-15
1.14722e-15
6.36534e-15
2.30166e-05
5.55771e-16
0.00765978
3.01552e-15
0.174148
6.15995e-16
0.0409547
0.00292751
1.25923e-15
1.05945e-15
3.38574e-14
5.25447e-15
0.0420479
8.56614e-15
1.79972e-15
0.0116559
0.00688946
1.57334e-14
1.86165e-14
2.57445e-14
2.21602e-14
3.869e-15
5.03217e-16
0.0260618
0.000390986
2.95512e-15
1.07686e-15
5.63914e-07
1.57158e-14
0.00155069
0.000101927
1.46151e-15
0.00355961
3.57362e-15
0.000388604
2.56685e-15
0.0011151
7.53598e-16
6.59714e-08
2.17214e-06
0.000604021
0.0184769
0.0346304
1.14949e-06
5.39117e-16
0.000572113
4.44951e-16
0.00466869
3.35342e-15
1.17426e-15
3.23958e-15
2.25507e-15
2.77278e-16
1.81918e-14
0.00732615
0.00827367
8.77101e-16
2.28613e-15
8.12959e-16
0.000807963
1.22279e-05
4.51315e-16
0.0179929
0.000167129
5.22201e-16
0.0235202
0.00812926
0.00372677
0.0109519
2.89016e-15
4.2306e-15
1.16182e-15
1.5288e-15
0.0370013
2.11878e-15
0.114912
1.21534e-15
0.000326751
0.000727435
1.67593e-15
0.000993772
4.20027e-16
8.96015e-16
0.0031181
2.19947e-08
0.00979794
1.79153e-16
5.1897e-15
2.88551e-15
0.000846468
2.58918e-15
9.29347e-16
2.8207e-15
2.67482e-07
5.86961e-16
6.19538e-06
2.7391e-14
1.32433e-15
2.35977e-15
0.0183472
0.00982148
0.0182777
0.0359164
1.03792e-14
1.65023e-05
1.3962e-15
8.14662e-16
0.00954389
1.92677e-16
2.09073e-06
0.000364361
0.00674597
0.000381546
1.08184e-09
0.00184737
9.09137e-16
1.40203e-09
3.17116e-10
0.00013021
0.000751905
0.0153141
6.75461e-08
2.23048e-14
0.0299633
1.78364e-15
1.49955e-15
1.18535e-05
0.0749838
5.15279e-08
3.47102e-15
1.48266e-15
2.9913e-07
7.68997e-15
3.99252e-14
1.88307e-05
7.25499e-15
3.18211e-15
0.039941
0.000240111
0.000189657
0.0224075
0.00722185
1.01263e-15
5.22113e-16
2.64511e-05
0.0040373
3.8403e-15
1.10939e-15
0.00955706
1.18304e-15
7.00716e-15
3.26914e-15
2.71578e-15
2.30312e-13
2.56613
1.00818e-15
0.000220039
3.19033e-16
0.021811
5.94211e-16
7.64893e-13
1.62187e-15
1.09704e-15
4.36416e-15
4.48129e-15
0.00278305
9.42834e-16
6.46604e-15
7.72419e-16
9.28605e-16
9.18549e-15
5.35108e-15
0.00972222
8.39434e-16
0.0109292
0.00317272
5.55263e-16
0.00152225
8.46996e-15
0.000517582
2.10073e-06
0.00382197
0.0128645
5.01181e-16
9.28971e-05
0.00751641
1.05703e-05
1.82227e-14
3.23946e-06
0.0192492
0.0046432
1.08854e-15
0.0256803
1.08426e-15
1.55421e-15
5.25142e-15
2.00518e-15
0.00804905
7.90271e-15
1.19211e-15
0.00829157
4.13998e-07
0.0026243
1.20991e-15
1.07609e-13
0.000649941
4.15703e-15
5.90813e-05
1.2636e-14
0.0235072
1.37158e-16
7.97157e-16
5.33397e-05
7.57511e-15
0.00014038
3.85104e-14
2.31963e-15
0.00466112
0.000448656
0.00467778
0.0151003
0.217843
0.0202901
5.73979e-16
1.02586e-14
0.00304026
0.00670788
0.036927
0.0102164
1.83507e-15
0.0125296
6.81784e-16
4.20876e-15
0.00929653
0.0112012
1.05549e-15
0.0133349
5.24316e-15
0.00272691
0.00897952
8.0283e-15
6.26597e-16
5.93823e-16
0.00287736
4.1512e-15
4.68232e-15
0.0042472
0.0216416
3.58189e-06
0.00733589
1.41878e-15
3.71377e-16
8.97831e-05
0.000793627
7.33467e-16
0.0102643
6.68833e-15
0.00255681
1.39009e-15
2.54289e-16
0.0122958
4.72994e-16
3.55604e-05
0.00368788
1.12266e-14
9.50807e-16
0.00446574
5.52591e-11
0.0517679
5.16028e-15
0.248548
4.56684e-16
3.03297e-14
1.14964e-15
0.00755784
8.52386e-15
5.56485e-16
0.00559811
7.93571e-15
0.00025688
7.82914e-15
4.0957e-15
1.15682e-15
9.71288e-08
0.000784643
1.1926e-15
6.83768e-16
0.034629
0.000945138
7.89028e-16
0.000402997
1.01278e-14
1.27744e-15
1.7411e-06
0.00286016
0.00131382
1.41326e-14
9.75287e-16
1.98128e-15
2.63103e-16
2.08369e-14
4.73379e-15
1.29888e-15
6.6321e-16
6.12602e-17
1.59928e-14
2.31775e-15
2.55117e-15
2.24409e-14
3.81588e-15
5.28198e-16
1.23398e-15
5.04662e-15
4.42249e-15
4.06999e-15
8.25156e-16
1.47475e-15
0.0169214
5.62295e-15
2.48416e-15
7.13634e-16
0.00664825
1.15195e-15
1.13685e-15
0.299801
1.11524e-15
4.51939e-15
0.0228752
5.51688e-12
1.00245e-15
0.00809276
0.02444
1.5216e-15
0.00295069
0.00436782
5.49066e-16
0.0135263
0.0391554
0.0177671
0.00338319
0.0106213
2.90388e-15
2.00585e-15
0.00300958
0.0104685
0.00323029
2.61949e-15
0.00681773
0.00179909
0.0214694
0.00993625
0.00069736
0.0156196
0.00101045
0.0103234
2.16353e-14
0.0240101
0.00842356
0.00162063
0.00143655
4.17695e-15
2.79836e-15
8.40983e-15
8.17832e-16
4.77098e-15
0.00909766
0.0134855
3.59903e-15
8.22603e-16
4.82825e-14
8.96362e-16
4.50792e-15
9.41531e-16
1.76661e-15
1.64344e-15
0.00467956
0.0002121
0.0216897
7.30073e-05
2.28717e-16
8.00281e-15
0.0298044
7.75564e-06
1.03777e-15
6.9247e-15
0.00711231
3.73435e-16
5.24904e-16
2.26837e-06
0.00771586
0.0134881
0.0334263
0.0345188
4.42064e-15
0.0138823
0.000346591
4.14185e-15
9.77991e-16
0.0119052
2.33855e-15
6.14892e-16
0.015303
1.04361
0.000173173
1.25043e-14
4.20889e-15
0.0168563
0.0195863
0.0178666
0.00558204
0.0044691
1.28246e-14
1.07338e-06
2.66596e-09
5.55435e-15
3.77439e-15
0.0168224
3.65546e-16
0.00197941
0.0246043
0.0175073
0.0109916
3.2117e-15
0.00595272
6.33855e-16
1.09767e-15
2.86224e-15
1.00574e-15
0.00244434
0.885799
5.44581e-15
1.40191e-15
4.16659e-06
0.0229224
0.00122833
0.00682604
0.0321604
0.0046675
0.0204236
1.53437e-15
2.27306e-15
1.1373e-15
0.0289057
0.00552279
3.04403e-08
1.2216e-14
2.71385e-15
5.24463e-15
0.0218057
0.00262033
3.82343e-16
0.0048164
0.057696
0.00623146
0.00610682
4.15791e-15
2.94965e-15
0.0067583
0.0222591
3.17084e-15
0.000349551
0.0147501
0.000968259
0.00902302
0.00462658
0.00774865
1.86204e-14
0.00318673
0.0205741
0.0350352
4.37681e-10
0.0220264
2.75775e-13
0.0159244
0.000149758
4.28066e-15
0.00246595
0.00744384
0.000408622
0.0113238
4.39356e-07
0.000121454
1.36e-05
0.042076
0.00361439
1.34044e-14
0.036981
0.0012661
2.32915e-16
6.9404e-16
4.26312e-08
1.45979e-05
0.00104265
1.05687
0.0345626
0.0121174
1.85976e-07
0.0445623
5.95817e-15
1.39399e-14
0.00378135
1.87533e-14
0.00196672
0.00375483
0.0021465
0.00450124
9.26762e-17
0.00018532
0.104176
1.1677e-15
0.0132043
0.00738545
1.24879e-14
0.00387565
0.000127932
4.90333e-15
6.89882e-09
8.16916e-05
8.67814e-16
6.94565e-16
1.11397e-15
0.0041323
0.00483978
0.0135731
1.31699e-14
0.00457336
0.0317798
1.23572e-15
0.00777109
0.0120051
0.0229241
0.00147601
2.35269e-15
0.000503321
0.00886291
0.0100659
0.00879099
0.0353876
0.157209
0.00314821
5.6214e-15
7.34022e-06
0.047512
7.1407e-16
0.000404937
6.46544e-15
1.8567e-16
9.97159e-15
1.2886e-15
2.24532e-16
0.00313592
2.00521e-15
0.0069003
0.00108338
1.07238e-14
0.00360365
1.08825e-15
0.0132715
1.11019e-15
2.67267e-05
2.50328e-15
0.0207186
0.00015461
2.45484e-06
0.00409342
0.0270953
0.0157861
0.00375042
0.0260866
6.07436e-12
0.0222792
0.0519565
0.00943464
1.24348e-14
0.00101609
0.000231337
0.00541931
0.00967458
0.000585334
1.30562e-14
8.48619e-15
2.17259e-15
0.00333733
1.04659e-14
0.000356517
0.000202685
0.00170832
0.000247033
3.23706e-15
4.6541e-14
3.85285e-15
0.00838189
0.0203151
0.00112295
9.2281e-06
0.00176476
0.0066247
0.00174435
0.000782019
0.00622194
0.00597984
0.00259748
2.81522e-15
1.72702e-15
2.50829e-14
0.0121968
0.010304
3.05596e-15
5.58408e-15
4.37036e-14
0.00815291
0.0173073
3.33476e-15
0.00215312
3.39237e-15
5.83539e-07
0.00437523
0.0860873
2.16279e-15
5.07782e-16
0.00343925
3.82572e-16
5.55625e-05
0.0114272
3.65176e-15
0.0103405
0.0310351
0.0182364
1.73933e-15
0.00148486
2.56757e-15
8.92256e-05
0.0460859
1.97795e-15
4.68629e-15
0.0100981
1.49154e-13
2.62138e-14
4.16578e-05
0.000900748
3.98959e-15
2.562e-16
1.098e-13
7.24031e-05
0.00120473
0.00296951
0.0245036
0.0081066
1.12275e-14
6.91234e-07
0.000690136
3.20581e-15
1.67481e-15
1.10873e-15
5.74786e-15
3.88052e-15
1.01978e-15
7.24677e-15
2.15583e-15
2.65921e-15
1.13137e-15
2.46381e-09
2.28099e-15
0.000309858
9.03139e-15
0.000252106
1.17691e-14
0.000102246
3.03535e-14
2.47539e-15
0.0272515
0.00848089
1.60506e-14
0.0813948
9.95997e-09
6.49141e-10
3.17447e-16
0.00115026
1.51668e-11
0.00262906
6.10335e-06
0.000786625
4.38447e-15
6.26843e-16
0.00115993
2.00376e-08
9.82654e-16
1.02655e-15
0.0365608
1.29519e-15
0.0350296
1.47064e-15
5.85453e-17
1.7e-06
0.0264187
0.00732229
1.52582e-15
0.000301197
5.52663e-15
0.00350813
1.86144e-05
0.00164033
4.80952e-06
3.75196e-15
0.0191906
0.00115567
0.00495904
5.89373e-15
1.21333e-16
1.20638e-16
0.0199286
0.00356817
0.0498654
3.57381e-15
4.68294e-07
2.57049e-15
1.66809e-15
4.12072e-15
8.29788e-16
0.00319961
0.00211863
0.00290886
0.29881
4.48448e-14
0.0250954
0.03388
0.0158688
0.00165785
1.33905e-15
0.00485078
0.00441605
0.00566687
2.72043e-07
0.00945087
1.74982e-15
0.00139204
0.00123645
0.0307875
1.04784e-06
0.00330767
6.34164e-16
0.0174429
6.53062e-15
1.33747e-15
0.00156534
1.53586e-15
0.00559539
3.78768e-16
8.9938e-16
2.16662e-14
1.41329e-15
3.55544e-15
0.000797948
5.42353e-15
0.000498523
2.38673e-15
3.33003e-15
0.0164424
0.00500337
0.00753144
0.00683176
6.3536e-15
0.548399
1.35604e-15
0.0641533
8.0695e-16
0.0162775
0.0229854
0.00225384
0.052637
1.39146e-14
1.37308e-16
7.32266e-16
0.0020299
1.21591e-14
1.56529e-14
0.0165541
1.49638e-15
1.25525e-15
0.00522233
4.97403e-15
0.0115771
6.16902e-08
4.78254e-15
1.81033e-15
3.85874e-15
0.00143405
0.00637209
9.62631e-16
0.021688
0.000338463
4.53599e-15
0.0950189
1.59602e-14
0.0145274
0.0169351
0.00356494
4.08913e-15
0.0169713
0.00963599
0.000862443
0.00515985
0.0117045
3.04475e-14
4.09957e-15
1.75951e-06
1.27878e-15
4.92609e-16
2.12536e-15
0.0185028
0.0461731
0.00430507
0.0020926
2.8727e-15
0.0475858
0.0432732
0.00397974
0.00215516
0.00887775
0.0196855
0.0026317
9.11728e-16
4.69771e-15
4.99426e-15
0.00691271
6.54462e-15
0.0233891
2.17563e-15
0.000733154
5.67948e-07
0.00247297
0.0207873
8.24366e-16
2.16725e-15
0.00244943
0.000369051
1.72896e-14
2.32944e-14
1.19017e-14
3.71919e-05
0.00029437
0.00014468
0.000805277
0.00970818
0.0816363
1.6054e-16
3.51992e-14
1.27809e-14
0.00359139
0.0164411
0.018936
0.0331155
0.00162875
0.00293198
3.86583e-15
7.0447e-15
1.43614e-13
1.69069e-15
0.00873869
0.0211913
7.11114e-15
5.20099e-15
9.07751e-16
3.20237e-15
2.2867e-14
9.85514e-15
0.0132917
4.46041e-15
0.000887708
0.407171
5.41431e-15
1.27299e-05
0.0217122
0.000723735
2.36229e-15
5.29977e-15
0.00491671
2.75469e-15
0.0139371
9.14687e-07
0.0234426
1.91344e-14
1.41052e-12
1.77808e-16
1.07973e-16
8.43767e-16
2.78974e-14
0.187386
2.78128e-16
0.00587593
0.00120241
1.83873e-14
5.82885e-15
0.00198453
1.26863e-15
1.52458e-15
0.0106291
0.00014274
1.43353e-15
1.88492e-15
1.2047e-15
0.0162537
1.10119e-15
1.49993e-14
0.000455214
0.00261807
0.00309524
6.34651e-16
2.78651e-15
1.77333e-15
0.0037566
0.00184967
0.0125665
0.00363935
5.00816e-15
0.000752842
0.0110627
0.0062456
3.84329e-15
1.72885e-14
1.46136e-15
2.46149e-15
1.4394e-15
0.0296843
0.00487122
0.00577739
1.21438e-14
7.10101e-15
2.99844e-16
8.81572e-16
1.58723e-15
1.03556e-06
0.00021412
0.00208471
1.63335e-15
3.73429e-16
1.32933e-14
2.04199e-09
0.0339495
0.112149
3.83253e-15
9.58719e-10
2.68518e-11
2.92122e-15
1.26677e-15
0.00367226
0.00615011
3.7164e-16
5.13877e-16
0.00278528
8.09786e-15
0.000671473
0.000992421
2.00253
8.88485e-16
1.6987e-15
0.0113824
0.000531749
1.42586e-15
0.63496
0.000583194
0.0059679
6.05919e-15
6.62942e-16
4.52662e-14
2.00654e-15
0.00820209
8.71908e-05
1.99915e-15
0.0244874
0.01847
0.824732
9.66268e-16
1.42857e-16
2.46462e-16
1.39392e-15
0.00655351
8.0382e-08
8.96542e-16
8.42568e-15
0.0179524
0.000787705
0.00456734
4.59095e-15
1.5446e-15
0.0276831
1.54276e-15
1.68516e-16
5.5705e-16
1.91563e-15
0.0203549
1.98016e-15
2.53286e-15
8.32696e-15
0.0246473
0.0114565
3.02614e-15
1.66586e-15
1.36733e-16
0.0146992
1.94188e-07
1.28641e-15
1.95054e-18
2.1e-15
9.64176e-15
0.00232065
0.0108877
3.20432e-15
0.00190504
0.0010808
0.0047693
1.71317e-13
2.07575e-14
2.69084e-15
8.80422e-16
1.26669e-16
0.0182029
1.66e-14
0.0136865
1.06526e-15
0.00151923
8.9517e-14
0.00239858
1.29271e-14
4.34573e-15
0.00984152
0.152411
1.11285e-14
0.00356077
3.84864e-15
0.00037882
3.244e-14
1.86202e-15
6.79096e-15
5.42425e-08
4.75426e-16
0.000287985
3.48099e-15
0.033752
1.16203e-14
1.09783e-14
2.26968e-15
1.71737e-15
7.40593e-06
0.000131774
5.2896e-16
0.00557536
1.47357e-15
0.00266984
0.0173188
0.0012775
9.78187e-16
4.77681e-06
0.000445236
2.19383e-06
0.00404214
2.97352e-07
0.00166825
3.13795e-15
2.07213e-16
4.12806e-07
0.00553873
0.000240362
1.37661e-14
2.23915e-15
2.62499e-16
0.563986
1.60095e-14
2.19028e-15
6.85837e-15
2.75316e-14
6.3774e-15
3.22573e-05
0.000181645
0.00097889
6.68048e-05
1.22997e-12
0.00141623
2.54351e-15
0.00518747
2.34758e-14
5.9506e-16
5.04985e-15
1.00386e-14
1.37948e-05
6.69246e-15
5.12399e-15
1.29802e-16
0.0136402
2.35464e-14
1.76109e-15
0.0100208
5.42127e-15
0.0765209
0.122092
0.548004
6.06908e-15
0.193249
1.07564
1.04455
0.60623
2.15103e-15
3.05324e-16
0.00455623
0.00426155
9.61761e-16
0.0102959
1.01025e-15
0.0299753
8.36809e-15
2.95616e-15
0.000700947
2.20557e-15
5.89384e-16
1.03746e-05
3.89126e-05
3.4553e-16
3.15708e-16
2.86901e-06
8.6131e-15
7.56555e-16
1.74345e-05
0.00780865
0.00147372
5.48146e-15
0.00756026
2.21531e-15
0.00326767
4.18888e-07
0.00704877
1.22653e-15
1.59947e-08
0.00546609
7.63767e-15
1.60482e-09
8.61638e-16
0.0297837
1.6905e-15
0.00880064
8.71527e-16
2.46414e-07
9.05628e-16
9.92574e-16
8.22538e-15
8.3737e-10
4.89973e-10
3.42749e-15
0.0111009
0.00870373
1.70289e-14
2.43203e-14
0.0301142
0.0158259
0.172066
1.07761e-14
6.72098e-05
0.0231589
0.0425285
5.643e-08
1.54755e-14
0.0529926
1.38923e-15
0.212317
6.52795e-16
4.31723e-08
3.77774e-08
1.64938e-15
5.65259e-05
2.33642e-15
0.0192933
1.02725e-15
1.471e-15
6.5374e-16
1.67486e-14
5.3444e-15
1.23249e-14
0.000254866
0.00186145
0.124642
7.71292e-16
6.70082e-15
0.0379925
4.68411e-15
2.01997e-16
3.30965e-15
5.13002e-15
3.64083e-15
0.00549883
1.00139e-15
1.07775e-14
5.96892e-16
0.00304651
1.37214e-15
2.21349e-15
1.02542e-15
0.00306205
4.8382e-16
0.00564969
0.217377
0.00511161
0.00526092
0.0246316
2.61662e-15
1.44211e-15
1.51704e-15
0.00297378
0.00159383
8.75302e-16
5.94433e-14
0.000568218
6.25737e-16
2.45377e-14
0.310088
2.14691e-15
0.0198251
1.47207e-15
0.00217032
0.00292828
3.87538e-16
1.25487e-15
1.63378e-16
8.85237e-16
1.93687e-16
0.0163715
1.31094e-15
0.00434732
9.98095e-15
8.80562e-16
0.00642339
3.23118e-15
0.0115172
1.12878e-14
3.36594e-16
0.00213836
6.58932e-05
0.129485
1.19548e-15
7.33819e-17
1.65741e-15
0.00313306
0.164309
9.08533e-15
6.90875e-16
8.46583e-16
0.00137351
2.82876e-15
0.0176755
0.0285135
3.89658e-15
6.41607e-16
0.00668135
4.70646e-15
4.67304e-15
1.40789e-15
1.2658e-15
7.69006e-15
0.0631734
3.40538e-14
3.35843e-15
3.41933e-15
6.91296e-15
5.36586e-15
2.44856e-15
1.66842e-15
2.02274e-15
1.19004e-14
0.00690723
2.8482e-15
0.00797367
1.5043e-14
1.67149e-15
0.531235
0.00254172
4.09734e-15
1.56622e-15
1.67222e-16
0.00224149
2.30936e-15
7.64751e-16
9.86601e-15
1.03678e-15
0.00684775
1.263e-15
0.00430134
1.98891e-14
0.00868793
1.86887e-14
0.0517713
6.32013e-16
6.15884e-16
0.0199463
1.11266e-14
8.46942e-17
0.024293
0.000243755
5.0758e-15
1.46084e-15
0.0324572
0.00902893
0.00598578
0.000774418
0.00167798
0.0158925
0.0009504
0.00426992
4.05285e-15
0.0266372
8.29121e-15
8.63661e-15
3.01394e-15
2.74678e-15
2.27773e-14
0.00965049
3.67634e-14
2.95405e-15
2.66369e-15
4.48433e-06
7.40611e-06
1.03323e-14
0.00209665
1.52778e-14
0.00397439
9.59227e-16
1.22136e-06
0.00294529
1.92057e-13
0.0415311
2.00521e-15
2.82746e-15
2.58586e-15
0.00273669
0.00113123
2.51914e-15
2.89965e-15
0.00228706
5.23914e-15
0.608567
1.50363e-15
0.093832
2.95757e-15
3.39719e-15
1.65043e-14
1.22198e-15
0.00918515
7.56992e-15
3.35497e-05
2.31258e-15
0.00890527
2.10389e-14
3.30213e-16
4.75491e-12
3.74635e-14
3.52758e-17
4.50797e-15
2.97781e-15
2.10397e-14
0.00380137
0.169846
2.39483e-15
8.56187e-15
0.000322915
1.15225e-15
1.48295e-15
1.01786e-06
0.0156302
0.000135996
2.52702e-15
0.000623015
0.00296458
0.0049217
0.00754324
4.29471e-15
1.58441e-14
6.4675e-14
1.49509e-15
1.06562e-15
1.12127e-15
1.16252e-14
2.20971e-15
1.72283e-14
2.39101e-14
6.83044e-15
3.21971e-16
0.0685058
8.80434e-16
1.24443e-15
3.78422e-10
1.50989e-15
5.32251e-15
1.00788
4.73835e-16
9.00866e-16
0.00189249
2.47315e-09
2.70064e-16
1.10771e-14
5.02897e-17
0.0209544
3.40851e-15
4.17552e-15
4.96175e-08
4.40497e-16
2.05365e-15
7.79638e-16
2.13404e-15
0.109983
2.3101e-15
0.000147254
4.4011e-17
4.16619e-15
8.73812e-16
5.25568e-15
5.44513e-16
1.52431e-08
2.91257e-08
0.0001012
2.07099e-15
5.08784e-16
4.53756e-14
8.44682e-08
5.46875e-16
2.77977e-07
8.48078e-09
4.56657e-15
2.67974e-15
1.18078e-14
4.3519e-09
1.77826e-16
6.84059e-16
2.20535e-09
1.07685e-15
0.0288161
1.09818e-15
0.00673309
7.49275e-16
2.16592e-06
1.08878e-15
0.00129689
1.5771e-15
0.0037299
0.0243403
2.99384e-15
0.00232838
1.36486e-05
5.64509e-15
0.0101859
2.58611e-15
2.51745e-16
4.19306e-15
5.20608e-16
1.07483e-14
2.07777e-15
2.78039e-15
1.02652e-14
0.268695
5.73977e-15
8.33672e-16
3.95921e-16
1.12969e-15
3.81889e-16
0.0299688
0.765684
3.03392e-06
9.76401e-06
5.51895e-16
0.00199085
0.00139194
3.68865e-15
1.89913e-15
1.45982e-15
4.72762e-16
2.0759e-15
8.25544e-16
1.65866e-15
1.1144e-15
0.000364797
1.28933e-14
3.06428e-15
0.000238265
3.74307e-06
2.55423e-14
0.0241574
1.86797e-15
6.00037e-15
1.74948e-14
0.162516
4.26692e-14
1.07832e-16
0.025086
2.44333e-15
2.24753e-14
1.46476e-15
2.97152e-14
0.0532684
5.10302e-15
3.82009e-15
2.25862e-15
1.58337e-16
0.00561284
0.225278
0.0274662
0.0416272
0.00372858
0.000252269
2.61279e-15
3.43565e-15
0.138882
0.00122367
2.96585e-15
9.05877e-08
5.63112e-15
6.80053e-11
4.73635e-15
0.205377
4.69626e-15
3.08771e-15
0.000227726
2.30644e-10
1.32583e-15
0.00952587
1.26827e-15
2.02551e-15
0.19821
0.029541
5.00103e-15
1.29831e-15
5.00211e-15
2.27088e-15
2.85233e-15
1.53162e-15
2.43477e-15
2.00373e-15
0.00306385
4.44748e-15
1.38884e-15
2.33952e-17
1.39016e-05
1.43082e-15
1.77913e-15
3.40265e-15
9.7205e-16
6.22082e-15
2.23708e-15
0.00335969
2.45534e-16
2.235e-15
0.00499695
7.72833e-15
0.000357887
0.00446548
1.53813e-15
0.0034222
1.37049e-14
4.54706e-15
7.47205e-15
3.03526e-15
4.09393e-15
3.2433e-14
1.05496e-13
1.63401e-14
0.00234945
1.3871e-15
2.60009e-15
1.29294e-14
2.65095e-15
2.81912e-15
5.08979e-15
0.0355072
3.7718e-15
5.13654e-16
0.338012
9.49012e-16
2.10415e-15
4.84459e-15
0.0012568
7.73079e-16
6.02436e-06
1.64129e-16
4.86049e-05
0.00792628
2.11143e-15
4.84565e-15
0.0403607
7.66082e-15
3.36219e-15
0.000127462
7.21525e-07
0.00984167
2.30169e-06
9.14834e-07
1.39484e-07
5.21613e-16
1.93984e-15
0.00102146
0.000119091
0.0157243
0.0121164
2.85483e-05
7.35884e-15
0.00548784
0.00521184
0.0185662
1.85419e-14
0.01231
0.0166487
0.00276857
0.00139435
0.00126203
0.00322117
0.0189642
0.0409081
0.00708678
0.011077
0.00799693
2.04998e-15
0.00290971
0.00363514
0.000857265
0.00256071
0.0141699
0.0137853
0.0193314
4.31594e-15
0.0115189
4.27892e-15
0.00508634
0.00284915
0.000269177