/*--------------------------------*- C++ -*----------------------------------*\
  =========                 |
  \\      /  F ield         | OpenFOAM: The Open Source CFD Toolbox
   \\    /   O peration     | Website:  https://openfoam.org
    \\  /    A nd           | Version:  10
     \\/     M anipulation  |
\*---------------------------------------------------------------------------*/
FoamFile
{
    format      ascii;
    class       volVectorField;
    location    "27.5";
    object      U;
}
// * * * * * * * * * * * * * * * * * * * * * * * * * * * * * * * * * * * * * //

dimensions      [0 1 -1 0 0 0 0];

internalField   nonuniform List<vector> 
111485
(
(1.45883 -1.45869 0.000367096)
(4.28518 -0.00986576 -0.0257621)
(4.2179 0.011085 0.0126428)
(1.45826 -1.45852 0.000129991)
(4.38169 0.0206421 0.000126986)
(1.54359 1.54244 -0.000165376)
(4.30425 0.0129536 0.00107489)
(4.4349 -0.0133466 0.00532655)
(4.30166 -0.00200921 0.00355353)
(4.41692 -0.0484184 -0.0196424)
(4.2416 0.0101776 0.0126611)
(4.43791 -0.0120332 0.0205789)
(4.17829 0.00396383 0.00937989)
(4.24033 -0.0090496 -0.0296151)
(4.28027 0.0172549 0.00840926)
(4.38477 -0.0300241 -0.0230603)
(4.32132 -0.0051854 0.00708139)
(1.51232 -0.0949066 0.216221)
(4.38852 0.0134451 -0.0096532)
(1.4551 -1.45346 5.77243e-05)
(1.45677 -1.45638 -0.00137762)
(1.54501 1.54475 -0.000225144)
(4.34192 0.0163996 -0.0041013)
(4.424 -0.0291743 -0.0100306)
(4.34082 0.0129374 -0.00331306)
(1.46874 -1.46322 -0.00219721)
(4.45576 -0.021738 0.021552)
(4.2238 -0.00813404 0.00174522)
(4.40478 0.0064004 -0.0112009)
(1.45662 -1.45657 -7.20567e-05)
(4.44872 0.0685068 -0.0175688)
(4.39891 -0.00995744 0.00129718)
(1.45171 -1.45431 0.00202205)
(1.5444 1.54784 -0.00355718)
(1.54676 0.656319 0.244311)
(1.5542 1.56486 -0.0226358)
(4.42594 0.0684928 -0.0270252)
(4.28949 0.00983858 0.0393839)
(4.40613 1.33455 0.0738235)
(4.39609 0.0208668 0.00104413)
(1.52692 1.54093 -0.0108375)
(4.43577 0.00671279 -0.027201)
(4.39589 0.0215587 0.00732282)
(4.22488 -0.02571 0.00181541)
(4.42123 -0.0751116 -0.0387367)
(1.45941 -1.44753 0.00534401)
(4.43158 -0.0186769 0.0179734)
(4.41721 -0.0277972 -0.00911592)
(4.43801 0.000481252 -0.0224025)
(1.44847 -1.4296 0.00792403)
(1.44522 -1.4318 0.00834543)
(1.75361 1.47676 0.0265538)
(1.44022 -1.43535 0.00480886)
(4.4278 0.0203375 -0.0358588)
(1.43693 -1.43168 0.000799153)
(4.37694 0.0115865 -0.00479159)
(4.38319 -0.0192887 -0.0105309)
(1.54635 1.54329 0.000970265)
(3.99943 -0.00788868 -0.0700578)
(4.40203 0.0181076 -0.00263922)
(4.40024 0.0200667 -0.000960475)
(1.45387 -1.457 0.00215029)
(4.09844 0.00412962 0.0265208)
(4.45094 -0.0115829 0.0340809)
(1.59848 1.45017 0.00371419)
(4.01399 0.00917865 -0.00869703)
(3.0887 -0.237444 0.104193)
(4.41379 -0.0158662 0.00598365)
(3.98682 0.0018291 0.0152373)
(3.77334 -0.00592499 0.00294923)
(4.25393 0.0344909 -0.0133486)
(3.94587 -0.0106547 0.021485)
(1.57901 -1.42254 -0.0316876)
(4.05234 0.0065411 0.0311799)
(1.45819 -1.45739 -0.000139817)
(4.39776 -0.010223 0.00811126)
(1.54473 1.54514 6.14745e-05)
(4.4274 -0.00891135 0.0229595)
(1.5446 1.54348 5.37029e-05)
(1.40023 1.36893 -0.0447541)
(4.277 -0.0645229 0.0433909)
(4.42659 0.0152535 0.00162263)
(1.5423 1.5397 -0.0001456)
(1.4582 -1.4579 0.000757852)
(4.1528 -0.000346719 0.00928037)
(3.98108 0.0110924 -0.0177388)
(3.42672 2.22734 -0.59483)
(4.37309 0.053101 0.00436011)
(4.2136 0.106345 0.0907684)
(4.27609 0.00625818 0.0145027)
(4.51153 0.0885581 -0.0560254)
(4.37976 -0.0075028 0.00690644)
(4.10265 -0.00685987 0.0142867)
(4.18454 -0.00467329 0.00511074)
(4.43826 0.0141679 -0.0247205)
(1.45837 -1.45789 -0.000262071)
(1.45785 -1.45756 0.000702676)
(4.37052 0.0492769 0.0154292)
(4.49662 -0.881673 0.0604978)
(4.09301 0.0140785 0.0267178)
(1.45842 -1.45814 0.000476385)
(4.39083 -0.0231623 0.00192027)
(1.55281 1.55558 0.0085965)
(4.35838 0.000525431 -0.00237398)
(4.33371 -0.0237129 -0.0286644)
(1.51585 1.35847 -0.0312833)
(1.54504 1.54471 -0.000218369)
(4.40601 -0.0134444 -0.00137439)
(4.05722 -0.0221891 0.00492773)
(3.89049 -0.115048 -0.120534)
(4.14872 -0.00392339 0.00910822)
(4.37109 0.00611829 -0.00268489)
(4.07076 -0.00210539 0.0155109)
(4.00633 -0.0198598 0.00915397)
(1.47178 -1.46422 0.000486349)
(3.86499 -0.00512463 0.0119255)
(1.46367 -1.45872 -0.0022148)
(1.55308 1.54662 0.00628266)
(4.29723 0.0174772 0.0138962)
(1.45785 -1.45694 0.000520484)
(1.46982 -1.46363 -0.00163018)
(2.02915 1.59961 0.0959184)
(1.53583 1.54073 -0.00303499)
(1.54954 1.54577 -0.00356228)
(4.20013 -0.00982574 0.019367)
(1.16548 -0.821624 -0.217379)
(1.93634 1.6673 0.0582675)
(3.90338 -0.00108874 0.0187419)
(1.45799 -1.45733 -0.000453831)
(4.41506 0.332111 -0.118687)
(4.40891 0.0805992 -0.0423338)
(4.36261 0.0501917 0.016252)
(1.45426 -1.45072 -0.00698326)
(1.98773 1.73188 0.173558)
(1.858 1.6591 0.0777161)
(4.40408 0.0138471 -0.00660611)
(1.5455 1.54574 -0.000417904)
(4.37964 0.0106514 0.000784446)
(4.34719 0.0154372 0.00668025)
(4.28139 0.0183668 0.0154968)
(3.36218 0.000411105 0.0146372)
(4.39175 0.0227039 0.00451133)
(4.35362 0.0281293 0.0162842)
(4.13652 0.00369617 -0.0176311)
(4.32296 -0.00866059 0.00409125)
(4.27869 -0.000703298 0.008177)
(1.54578 1.546 -0.000364737)
(1.45796 -1.45806 0.000109607)
(1.54266 1.54338 0.00286718)
(4.37961 0.0174315 0.0021178)
(4.13831 0.00684922 -0.0162498)
(1.45674 -1.45573 0.000544238)
(2.87714 -0.0165946 0.0284503)
(4.27322 0.0204127 0.0100125)
(4.68235 0.188202 0.0837122)
(4.40326 0.0124182 -0.00895964)
(4.37996 0.0134959 -0.00336325)
(4.06711 0.000344009 -0.0054139)
(4.72513 0.230494 0.0582668)
(1.45052 -1.46407 0.00580417)
(1.45622 -1.45758 0.00123336)
(4.39239 0.0122202 -0.00902496)
(4.30502 -0.0148469 -0.015441)
(4.75564 0.259767 0.0633302)
(4.68974 0.227842 0.0870529)
(4.09492 0.00759304 0.0214667)
(4.38637 0.0534076 -0.0196103)
(1.5272 1.53987 0.00034817)
(4.81261 0.32221 0.0779935)
(4.58807 0.230545 0.0720407)
(1.54451 1.54528 0.000368638)
(1.45654 -1.45626 -0.000204845)
(3.51781 0.0039781 -0.0257476)
(1.54533 1.54611 9.59204e-05)
(4.36064 -0.00964069 -0.0016765)
(4.19108 0.00285609 -0.0099441)
(1.5455 1.50996 -0.0071043)
(1.57476 -1.44442 0.013192)
(1.46157 -1.45379 -0.00244127)
(1.52175 1.43808 -0.0141494)
(1.58537 -1.45901 0.024865)
(1.45629 -1.45729 0.000937979)
(4.37281 0.0171924 0.00439743)
(4.37056 0.010922 -0.00831021)
(4.3554 0.0143185 -0.00390494)
(4.32111 -0.0103465 0.0156904)
(4.15033 -0.00923203 0.00317243)
(4.16741 0.00875711 0.0138894)
(3.69513 0.0465958 0.00516236)
(1.45736 -1.45214 -0.000150299)
(4.04784 0.000850185 0.0040449)
(1.5711 -1.45838 0.0145696)
(1.47017 -1.47264 -0.000839968)
(4.20707 0.00962821 0.0144464)
(4.41866 -0.0540451 -0.0195574)
(4.3681 0.00930745 -0.0201691)
(4.19768 -0.00424319 0.00661393)
(4.26345 -0.00218978 0.00515553)
(1.4555 -1.45283 0.00321731)
(4.18675 -0.0197093 0.00380394)
(4.18145 -0.00540891 -0.0260133)
(2.92942 0.940489 0.121096)
(4.28385 -0.0329607 0.00261959)
(4.3441 -0.00749388 0.00405797)
(1.4633 -1.45522 -0.00217747)
(4.18977 0.0121415 0.0148409)
(4.3854 0.00951729 -0.00330831)
(1.59751 -1.44251 0.00583919)
(4.2133 0.00995156 0.0155214)
(4.41828 -0.00594829 0.0237058)
(4.13662 0.00390539 -0.0191136)
(4.17913 0.0106455 0.0189581)
(1.58289 -1.46333 0.0196511)
(1.45699 -1.45748 -0.000211345)
(4.17995 0.0106104 0.0188573)
(2.7404 1.72307 -0.16894)
(4.46989 0.0193756 -0.0427003)
(1.54485 1.54567 -0.00087378)
(4.2043 0.00784863 0.0159898)
(4.19581 0.00664415 0.0047532)
(4.44375 -0.014155 0.0274639)
(1.45957 -1.45885 0.000595907)
(3.92112 -0.000185869 0.0110299)
(4.39978 0.0613241 0.0303079)
(2.42275 1.63155 -0.176847)
(1.54553 1.54561 -0.00119461)
(1.54444 1.54522 0.000338499)
(4.49906 -0.0287649 0.041534)
(4.19987 0.0996167 -0.0100606)
(1.62619 1.37528 -0.0306376)
(1.81302 -1.40267 0.0554793)
(4.21084 0.0033024 0.00561164)
(4.33959 0.00834014 0.000627459)
(4.40847 0.0108516 0.00249757)
(1.60399 1.39994 -0.0404378)
(1.54177 -1.42451 -0.00535636)
(4.23367 0.048263 -0.0560349)
(1.458 -1.4576 0.000872791)
(4.00613 0.00466221 -0.0238616)
(4.16089 0.00460964 0.0135418)
(4.20808 0.00172716 0.00745018)
(4.21571 0.0106156 0.00886868)
(4.23171 0.00852079 0.0119583)
(1.54085 1.54089 0.00487489)
(3.18663 -0.00961123 -0.120979)
(4.2937 0.0104837 0.0164453)
(1.53798 1.54103 -0.00200767)
(1.54452 1.54529 -0.000261322)
(4.46884 -0.0544613 -0.00409553)
(4.3702 0.0181834 -0.00730484)
(1.58332 1.35309 -0.0412359)
(3.97451 -0.00255303 0.0120309)
(4.27714 0.0119645 0.0125335)
(1.45858 -1.45774 -0.000498861)
(1.95318 1.84022 -0.012072)
(4.39976 0.0378928 -0.0168964)
(1.46203 -1.44319 0.000694761)
(1.61819 -1.14469 -0.0279604)
(2.23959 -0.780714 -0.0797102)
(1.45899 -1.45504 -0.00020755)
(4.29598 -0.00768367 -0.00771075)
(4.17801 -0.00750246 -0.0103358)
(4.35915 0.00690751 -0.0126318)
(1.45745 -1.45767 -7.79374e-05)
(4.31706 0.0130615 0.0108948)
(1.45829 -1.45858 0.000142673)
(1.45827 -1.45894 0.000256757)
(1.45587 -1.45043 0.00250639)
(2.94513 0.0110827 -0.0447048)
(4.42113 -0.0204859 0.0245111)
(4.22331 0.0150353 0.0196512)
(4.29168 0.0138106 0.0105609)
(4.45471 -0.028931 -0.00082051)
(4.26805 0.00957504 0.00943574)
(4.38629 0.0158093 0.00548704)
(4.40952 0.0736559 -0.00781893)
(4.30742 0.00953261 0.000593888)
(4.35061 0.0100803 0.000575471)
(1.56995 1.54443 -0.000831435)
(1.45628 -1.45612 -0.00162921)
(2.68724 0.016093 -0.0647308)
(4.37357 -0.0101374 0.00138634)
(4.42371 0.0333896 0.0372968)
(4.16048 -0.00521337 -0.00738518)
(1.45805 -1.45718 0.000355403)
(4.36581 0.0132093 0.00826738)
(4.38867 0.0214043 0.0103023)
(4.28138 0.00829648 0.007025)
(3.77301 -0.00398361 -0.0182436)
(3.95164 -0.0458791 -0.0980824)
(4.34722 0.0148978 0.00234133)
(4.27258 0.0111935 0.00951795)
(4.36165 0.0322087 -0.0194028)
(1.54604 1.54605 0.000144251)
(3.99526 0.0209699 -0.000583028)
(1.5446 1.54501 -0.000548902)
(1.26219 0.968752 -0.196379)
(1.64507 -1.0479 -0.106847)
(4.52903 -0.0413211 0.0555188)
(4.45699 -0.0290046 -0.000866992)
(4.35155 -0.00233523 0.000506103)
(1.46038 -1.45679 -0.000541271)
(1.54017 1.54889 0.0125365)
(4.35772 0.0141425 0.00795444)
(4.17091 0.00746108 -0.00648849)
(1.45741 -1.45645 0.000127359)
(1.4587 -1.45789 0.00131739)
(1.42793 -1.43528 0.0111266)
(4.14638 0.00582809 -0.003145)
(4.33174 0.00590511 -0.00517129)
(4.13511 0.000830589 0.0146265)
(3.9941 0.00701966 -0.0229849)
(4.41671 0.010079 -0.0103359)
(1.76843 1.52253 0.040096)
(1.54216 1.54581 0.00303934)
(1.45827 -1.45611 -0.000866785)
(4.34207 0.0144242 0.0122457)
(2.80391 -2.37822 -0.17089)
(4.14028 -0.00487952 0.00457049)
(4.49739 -0.0313161 0.0954251)
(3.61889 0.00253953 -0.0739457)
(1.54516 1.54515 -0.000218851)
(1.4567 -1.45809 0.000790757)
(1.45831 -1.45917 -0.000801815)
(1.94492 1.63439 0.0986119)
(4.39211 0.0140382 -0.000430127)
(4.43348 -0.0254709 0.00149013)
(1.54899 1.55281 0.00055593)
(4.35419 0.0118239 -0.00116339)
(1.63211 1.32612 0.0921391)
(1.46552 -1.44913 -0.00221251)
(4.46358 -0.0156238 0.0363252)
(4.34759 0.015371 0.00663649)
(4.45098 -0.00690642 0.010947)
(4.35741 0.0122426 -0.000727164)
(1.49145 1.32553 0.0788441)
(1.92577 1.65872 0.10504)
(1.54242 1.54452 -0.00237515)
(4.35093 0.0149482 0.00566719)
(4.34759 0.0129258 -0.000269078)
(4.43174 0.0745091 -0.0241961)
(1.53212 1.52907 0.00333573)
(3.04407 2.69964 -0.642208)
(4.1521 0.0404451 0.036929)
(4.43043 -0.0209868 0.0107688)
(4.369 0.016093 0.0103444)
(4.14887 0.429061 -0.0349831)
(4.41496 0.0104454 -0.0102925)
(1.5421 1.54211 0.000359991)
(4.41818 0.0120191 -0.00874266)
(4.23975 0.00560186 0.00851228)
(4.47327 -0.103778 0.000365877)
(4.47655 -0.0262731 0.0532549)
(4.34026 -0.0332053 -0.0299291)
(1.54042 1.5469 -0.00604298)
(1.45681 -1.45862 -0.00271891)
(1.54858 1.54023 0.00564552)
(1.44888 -1.45298 -0.000539705)
(4.42716 -0.0214498 -0.000156165)
(4.40105 -0.00809687 0.00283401)
(4.3761 0.0206767 -0.0149631)
(4.41123 0.0122356 -0.0131008)
(1.53579 1.53733 -0.00638963)
(4.37259 -0.0286822 -0.00955893)
(1.54359 1.54431 0.00058758)
(1.45184 -1.45618 0.000243923)
(4.41311 0.0123037 -0.00959691)
(1.34505 -1.34675 0.0196134)
(2.42481 -0.421439 -0.0364712)
(1.44217 -1.43675 0.00128626)
(1.55929 1.53853 0.0122815)
(4.36531 0.00849302 -0.00583308)
(1.54544 1.54461 0.00060476)
(4.32346 0.0108776 -0.00313973)
(4.10563 0.00254181 -0.0190458)
(1.54637 1.54625 -0.000338845)
(3.9645 -0.00163064 -0.0194082)
(4.29353 0.0070725 0.00803905)
(1.5556 1.3669 -0.0502146)
(4.28768 0.0187695 0.0192753)
(4.04299 0.0206979 -0.00309233)
(4.31133 0.0244992 0.00615805)
(4.01224 0.0148225 0.0490936)
(4.35487 0.0127326 0.00204748)
(4.14942 0.00065377 -0.00942121)
(1.52447 1.30721 -0.00561294)
(1.45724 -1.45183 0.00547448)
(3.72719 0.0082722 0.0880649)
(1.53536 1.54064 -0.00890623)
(4.30291 0.0223708 0.0197114)
(4.46549 -0.0225867 0.0435966)
(1.55672 1.48924 0.0124372)
(1.54224 1.54863 -0.000271543)
(4.41603 -0.0092343 0.00312623)
(4.25091 -0.0193147 -0.0390911)
(4.26811 0.0222896 0.00236318)
(4.4312 0.00883129 -0.00211347)
(1.54497 1.54339 -0.000449402)
(4.48543 -0.0130385 0.0705504)
(4.41405 -0.0150245 0.0219049)
(1.54829 1.54548 4.30458e-05)
(4.33608 0.0655863 0.053441)
(4.13306 -0.017019 -0.0427332)
(1.45721 -1.45612 -0.000254583)
(1.45717 -1.45696 0.000279225)
(4.32004 0.0137114 -0.00373726)
(4.33629 0.00415665 -0.00618177)
(1.55233 1.55265 -0.00198551)
(1.46043 -1.45575 -0.00153544)
(2.5838 -1.38844 0.316233)
(1.45792 -1.45887 0.000523826)
(4.33723 -0.00226749 0.00933927)
(1.53739 1.54233 0.00365309)
(1.45837 -1.45874 9.73949e-05)
(4.45247 -0.0052245 0.0144198)
(4.02841 -0.0474061 -0.11485)
(4.40576 -0.0248299 0.00640648)
(4.24393 0.000263764 0.00791952)
(1.54687 1.54583 4.2281e-05)
(2.00136 1.54646 0.0747175)
(4.24906 0.0538819 0.0793525)
(1.87702 1.65862 0.0872553)
(4.23276 0.0183466 0.0329341)
(4.21698 -0.0348145 0.00333045)
(4.39594 -0.0119632 -0.0102654)
(3.06702 0.106158 0.107068)
(1.84385 1.59041 0.078079)
(4.40993 0.0076059 -0.0414954)
(4.45632 0.134056 -0.048436)
(1.45632 -1.4591 0.00245476)
(4.43647 0.0113156 -0.0433244)
(4.44562 -0.0213166 0.0159204)
(1.46011 -1.45977 0.00153118)
(4.28555 0.245679 -0.135901)
(3.74841 -0.000677184 -0.0526789)
(1.94704 1.53369 0.0626848)
(4.42041 -0.00844168 0.0186844)
(4.37013 0.00612565 -0.00609892)
(4.35839 0.0118723 -0.00225804)
(1.54465 1.54352 -0.000433391)
(4.34698 -0.00709496 0.0298745)
(4.44347 -0.00389317 0.0145947)
(4.33019 0.0416753 -0.00455894)
(2.73753 -0.0365808 0.046235)
(1.87662 1.7727 -0.0370661)
(2.5789 -0.0651873 0.0851347)
(1.45659 -1.45837 0.00102153)
(4.0018 -0.130279 -0.129329)
(4.34807 -0.00771623 -0.0285647)
(1.54598 1.54487 0.00215429)
(4.11979 0.00998359 -0.030771)
(3.40467 -0.00835533 0.0603908)
(1.99997 1.77004 -0.0185699)
(1.45835 -1.45737 0.000159709)
(1.70991 -1.44902 0.0458629)
(1.45794 -1.45739 0.000104772)
(4.32293 0.0208629 -0.000746241)
(4.35673 0.0225658 -0.00762287)
(4.30002 -0.0131731 -0.0122964)
(4.04325 0.0104327 -0.0226168)
(4.4095 -0.0902781 -0.018197)
(1.54458 1.53858 -0.0033821)
(4.27566 0.000334506 -0.00941617)
(1.46172 -1.45097 0.000492295)
(4.23049 0.016364 0.00961549)
(1.54998 1.54962 -0.00090048)
(1.4573 -1.45619 -2.88106e-05)
(1.44635 -1.45039 -0.00204733)
(4.15772 -0.0282134 0.00615243)
(1.45485 -1.45537 -0.000962687)
(1.45874 -1.45832 0.000494754)
(1.52119 1.01775 -0.06286)
(1.45816 -1.4593 0.000459997)
(1.53028 1.55143 0.0144221)
(4.26182 -0.0150864 -0.0066535)
(1.54654 1.54432 0.000649237)
(1.82899 1.35302 0.00240271)
(1.54671 1.54676 0.00164633)
(1.45599 -1.4519 -0.00100305)
(1.54616 1.54236 -0.00106122)
(1.45402 -1.44661 -0.00762128)
(1.54098 1.54081 -0.000217845)
(3.88171 0.000776287 -0.0331378)
(1.5487 1.5403 0.00631214)
(3.98559 0.0553625 0.0782659)
(4.3548 0.00401587 0.000682188)
(4.50049 -0.174393 -0.0273946)
(1.54688 1.53988 -0.000234028)
(3.79528 0.0116386 0.0612834)
(1.54851 1.54292 0.00178892)
(1.45835 -1.45921 -0.000707642)
(4.3103 -0.0415546 -0.0460677)
(4.30693 -0.0345756 -0.0353435)
(4.30352 -0.00916026 -0.0121872)
(4.49908 0.0120104 -0.0753894)
(1.77305 1.49369 -0.0481458)
(4.40354 0.0042527 -0.0239454)
(4.40236 0.00198424 -0.0221026)
(4.36187 0.00947664 -9.07199e-06)
(4.29422 0.00475787 0.000923758)
(4.37915 -0.044716 -0.0292185)
(1.45511 -1.45536 -0.000544977)
(4.3682 0.00770154 -0.00141008)
(2.01689 1.75697 -0.0116998)
(4.34143 0.00710759 -0.00935892)
(1.54554 1.54439 0.000255006)
(4.42586 0.0161217 -0.0238737)
(1.9953 1.65799 0.015547)
(4.36572 0.00417554 -0.00614532)
(4.3715 -0.0198801 0.0158851)
(1.68497 -0.841075 -0.0101939)
(1.54792 1.54967 0.0170099)
(4.30119 0.00764337 0.00696757)
(1.45808 -1.45698 0.000155405)
(4.44002 0.0179451 -0.0262239)
(4.4034 0.0224035 -0.0182177)
(1.54515 1.54092 -0.0126101)
(1.54318 1.54243 0.00373912)
(1.51308 1.35674 -0.0384167)
(1.54457 1.54556 0.000922698)
(3.08921 -0.163546 0.0828741)
(4.44241 0.0157955 -0.0259324)
(1.56478 1.52838 -0.00112223)
(1.54273 1.54549 0.00179968)
(3.80104 0.00213091 -0.010683)
(1.54554 1.54538 -7.20284e-05)
(4.37401 0.0141188 -0.0180923)
(1.54539 1.54467 0.000125625)
(4.33426 -0.0263575 -0.0184458)
(1.45912 -1.45832 0.000404285)
(4.07219 -0.0218026 -0.0603387)
(3.37129 -0.0127215 0.00470625)
(4.07111 0.0123633 -0.00951779)
(4.36794 0.00571946 -0.00751638)
(1.5547 1.54314 -0.00467841)
(3.97096 0.00385497 -0.000464797)
(1.54818 1.54283 0.00131007)
(1.54553 1.54645 -0.00394759)
(4.30818 -0.0166025 -0.0102201)
(1.54577 1.54436 -0.000158668)
(3.67774 0.000354242 -0.0376951)
(1.49571 1.37714 -0.0434719)
(4.38453 0.0255383 -0.0150335)
(1.45718 -1.45766 -0.000291853)
(4.41284 0.0105509 -0.00934977)
(1.45846 -1.45727 0.000184959)
(1.82996 1.62188 0.04594)
(4.47162 0.156673 -0.00993237)
(4.3053 -0.0357438 -0.0466582)
(4.35215 0.0164798 0.000586827)
(4.40341 -0.0528952 -0.0328947)
(4.33205 0.00900393 -0.00479489)
(4.44901 -0.0303379 -0.00416409)
(1.53559 1.54744 -0.00684645)
(4.3494 0.0217621 0.0141863)
(4.31677 -0.0398298 -0.0466506)
(1.54482 1.54549 -0.000717227)
(3.65356 -0.0462075 -0.1575)
(4.45104 -0.0311862 -0.0222937)
(4.27528 0.0191297 0.0157733)
(1.532 1.51063 -0.00889553)
(1.90102 0.388203 -0.296249)
(4.18471 0.0113186 0.0127954)
(3.43532 -0.0136064 0.0341992)
(3.55449 0.920317 -0.00697715)
(1.89406 -0.958014 -0.0800043)
(4.43553 -0.0477943 -0.00693113)
(4.16313 0.0161127 0.0293416)
(4.30131 -0.0415212 -0.044712)
(4.37071 -0.0243262 -0.0094752)
(4.31544 0.0257009 0.0105294)
(3.82259 0.499559 -0.0251319)
(1.90664 1.62013 0.0132981)
(3.88388 -0.142004 0.0313817)
(3.75249 -0.326558 0.0777437)
(1.45635 -1.45694 0.000845336)
(3.82514 0.0265576 -0.0117536)
(1.55414 1.52531 -0.00776715)
(1.81251 1.6484 0.0151453)
(4.32691 0.00506782 -0.00220799)
(3.84503 0.654108 -0.0204113)
(4.62714 -0.389246 -0.0727984)
(4.16796 -0.716301 0.0131019)
(1.80745 1.71869 -0.124086)
(4.40894 -0.0258164 -0.00740252)
(4.36146 0.0248206 0.0186629)
(1.54187 1.5375 -0.000401473)
(1.98287 1.1072 -0.0440296)
(4.36372 0.0315354 0.0185224)
(1.45674 -1.4515 0.000969658)
(1.54521 1.54494 -0.00013559)
(1.5435 1.54308 0.000237141)
(1.54648 1.5385 0.0016286)
(4.41285 -0.0455495 -0.0207316)
(1.54562 1.54536 0.000897839)
(1.4641 -1.46404 0.00786138)
(4.33021 -0.0266491 -0.0222283)
(3.991 -0.000572042 -0.0124573)
(2.15278 -1.88369 -0.0991751)
(4.36451 0.030861 0.0180166)
(1.79314 1.45162 0.0323853)
(4.38664 -0.0173734 -0.0089356)
(1.43376 -1.43267 -0.00643293)
(1.5423 1.54535 -0.000686531)
(4.39542 -0.0271007 -0.00800094)
(1.54638 1.53735 -0.0060522)
(1.54496 1.54155 0.00106427)
(1.76976 1.69566 0.0496258)
(4.14362 -0.00314146 -0.00286031)
(2.53916 2.12866 -0.279844)
(4.33141 -0.018586 -0.00938201)
(4.32359 0.00458689 -0.00292066)
(1.44743 -1.43809 -0.0117157)
(4.49727 -0.0132251 0.140569)
(4.12677 -0.024158 -0.0601112)
(4.31239 0.00147899 -0.00231979)
(4.38015 0.0774835 0.00984207)
(4.39621 0.0446416 -0.0942586)
(3.78919 0.00194518 -0.0358902)
(1.54367 1.54289 0.000561009)
(4.39798 0.004695 0.0112261)
(4.36742 0.0176186 -5.88567e-05)
(1.44491 -1.46389 0.00296772)
(4.07744 -0.0027382 0.000331428)
(4.41698 0.0255551 -0.00853918)
(4.40744 0.0201869 -0.00703564)
(4.0193 -0.0173952 -0.0406076)
(4.40405 0.0213305 -0.00566442)
(4.40938 0.0217357 -0.00436507)
(1.46247 -1.44317 0.00866317)
(4.40479 -0.0094335 0.0218955)
(3.6603 -0.0219522 -0.00562294)
(1.86187 1.61851 0.100448)
(4.40227 0.0177369 -0.00940014)
(4.20319 0.00498908 -0.00956604)
(2.4698 2.01447 -0.301126)
(4.32739 0.00591986 -0.00151988)
(4.40501 0.0151173 -0.0132888)
(4.20508 0.00133426 -0.0170817)
(4.37348 0.0217446 -5.16973e-05)
(4.32422 0.0464574 0.0176828)
(4.33374 0.00555382 0.000485159)
(1.51194 1.47907 0.00193217)
(4.37289 0.0223949 -0.00079245)
(4.10777 -0.0247478 -0.054353)
(1.6321 -0.973768 0.0386747)
(4.35268 0.0339447 0.0222615)
(4.30503 0.0349184 0.0347453)
(4.35884 0.0140118 -0.00240718)
(1.54436 1.54114 0.00156962)
(4.24169 0.0252926 -0.040547)
(1.45827 -1.45191 0.00377221)
(1.54532 1.54577 -0.000797144)
(1.54067 1.52858 -9.78676e-05)
(1.54706 1.53887 0.000834227)
(3.67169 0.0020089 -0.0174123)
(1.83644 1.58504 0.062969)
(3.33321 -0.229701 0.273012)
(1.45445 -1.45441 0.000253979)
(1.54462 1.56335 -8.28833e-07)
(4.3679 0.041942 0.0233582)
(4.37841 0.0105987 -0.0174093)
(1.45892 -1.45876 5.34653e-05)
(4.38809 -0.0272539 -0.00383495)
(1.45796 -1.45665 0.00483415)
(1.45916 -1.45802 -0.000741113)
(1.43631 -1.43664 0.00443381)
(4.46009 -0.0374771 -0.00784802)
(3.70943 0.0200938 -0.0109215)
(1.81821 1.63993 0.0203684)
(1.47342 -1.45705 0.00390279)
(1.54338 1.54791 -0.00199077)
(1.54424 1.54545 -0.000294003)
(4.47995 0.00854082 -0.0487692)
(4.34393 0.00750316 -0.00323043)
(1.83661 1.72775 0.07947)
(4.42806 0.0141734 -0.0230237)
(4.12552 -0.057445 -0.167802)
(1.54288 1.54342 -0.000862383)
(4.41627 0.0122051 -0.0199928)
(4.05248 0.00353321 0.0213582)
(4.31941 0.0236885 -0.0284989)
(1.54651 1.54555 -0.000215941)
(1.54399 1.5434 -3.52091e-05)
(4.28087 0.0189984 0.0226241)
(4.36456 0.00849042 -0.0013611)
(1.82382 1.66026 0.0259592)
(1.54011 1.54002 0.000145828)
(1.56814 1.52239 -0.0030818)
(4.32621 -0.00840939 0.00505355)
(1.45649 -1.45665 -0.00195923)
(1.45849 -1.45374 0.00126733)
(1.54069 1.54136 0.000717198)
(4.4139 0.0134626 -0.0171003)
(3.86859 -0.0184958 0.00671843)
(1.54593 1.54603 0.000224988)
(1.71262 0.354606 0.295955)
(1.8589 -0.186793 -0.0681525)
(4.29414 0.0225774 -0.00210684)
(1.543 1.54561 -0.000741367)
(1.54537 1.54244 -0.000783349)
(4.44518 -0.0450636 -0.0101691)
(4.24878 0.0719748 0.0652831)
(1.85037 1.65521 0.0770255)
(2.68703 0.883571 0.0633241)
(4.18833 0.101191 0.118668)
(4.00633 0.0112332 -0.0286805)
(4.24976 0.00353527 -0.00341107)
(1.60267 1.50465 -0.00252433)
(4.23213 0.0113352 0.000622771)
(4.38685 -0.0292127 0.0302517)
(1.54911 1.54509 -0.00177942)
(1.4484 -1.42521 0.00191715)
(1.54091 1.54178 -0.000196087)
(1.5436 1.54401 -0.000532395)
(1.54572 1.54791 -0.00168616)
(1.54634 1.54665 -0.000125359)
(4.42419 0.0145196 -0.0184001)
(1.45708 -1.45699 0.00106315)
(1.54383 1.54418 -4.96729e-05)
(1.53638 1.51628 -0.00017262)
(4.42777 0.0146633 -0.0239295)
(4.36018 0.00960017 -0.00328647)
(1.46427 -1.44505 -0.000532987)
(1.44134 -1.42658 0.00222002)
(4.46305 -0.0210887 0.0380739)
(4.24281 0.00361299 0.00551946)
(4.23593 0.00513153 0.00697014)
(1.45901 -1.45496 -0.000781174)
(1.54298 1.54356 0.000838986)
(4.23958 0.0030549 0.0065917)
(1.45854 -1.45748 -1.24911e-05)
(4.18891 0.0110726 0.00112176)
(4.29888 0.00686334 0.0147059)
(4.30718 0.0152314 0.00731295)
(1.46794 -1.45729 0.00458684)
(1.45786 -1.45842 0.000434219)
(1.45767 -1.45856 0.000445583)
(1.54544 1.54568 0.000405155)
(4.34889 -0.0188047 -0.012258)
(1.54379 1.54487 0.000219089)
(1.54281 1.5432 0.000377851)
(4.32491 0.011493 -0.0154918)
(1.45769 -1.4584 0.000624087)
(4.25542 -0.00151334 0.00530049)
(3.89477 -0.0318721 0.0129913)
(1.55828 1.50824 0.00744432)
(4.35872 0.0140049 -0.00273413)
(2.06129 0.313902 -0.0530889)
(4.2948 0.0033645 0.00393346)
(4.45781 -0.0164922 0.00908872)
(3.92427 0.0157328 0.00485699)
(4.44273 -0.000348555 0.0283629)
(3.21293 0.0710496 -0.120332)
(1.83635 1.47294 0.0299521)
(4.28515 0.00022679 0.00239446)
(4.46151 0.0317141 0.00194827)
(4.35709 -0.0125294 -0.00518699)
(1.58225 1.37873 -0.0466845)
(1.95126 0.194098 -0.0982632)
(2.32826 -0.148216 0.0746221)
(4.28536 0.00680868 0.00379602)
(1.54305 1.54531 0.00194736)
(4.21298 -0.00960512 -0.031245)
(4.30148 -0.00359586 -0.0106916)
(4.17993 -0.037641 -0.066945)
(1.59536 -1.12513 -0.0848145)
(1.45827 -1.4584 0.000779533)
(1.45781 -1.45782 -1.81338e-05)
(4.38369 -0.0143465 -0.00255555)
(1.7977 1.49258 -0.0184135)
(4.15527 0.0140392 0.00667662)
(1.67443 1.5268 0.0206001)
(4.13939 -0.00813849 -0.0277345)
(4.24517 -0.00620318 0.00507291)
(4.20486 -0.00345206 0.0155877)
(4.3611 0.0109746 -0.00410085)
(1.54435 1.54324 -0.000478593)
(1.53591 1.53169 -0.0022639)
(1.55949 -1.42083 0.00656179)
(4.3559 0.0160909 0.000835173)
(1.54595 1.54178 -0.000219554)
(1.77916 1.53406 -0.0662724)
(4.45499 0.0782482 -0.067706)
(1.55136 1.54954 -0.000779571)
(1.53907 1.54646 0.0045285)
(1.4551 -1.44925 -0.00377806)
(1.5456 1.54618 0.000419556)
(4.15939 -0.00240868 0.0148729)
(1.58295 1.50086 0.00505452)
(1.54551 1.54379 0.000174358)
(3.541 0.5001 -0.367094)
(1.80338 1.46129 -0.019826)
(1.53962 1.54047 -0.0128623)
(2.105 -1.24406 0.0763269)
(1.54517 1.54294 -0.00134373)
(3.40509 0.0129696 -0.0298848)
(4.24199 -0.0053199 0.01184)
(1.45706 -1.45686 -0.000554937)
(4.17081 0.00478741 -0.00974654)
(4.2185 0.685077 -0.0967516)
(4.15242 -0.0407164 -0.0652728)
(4.56322 0.170636 0.00475906)
(4.09604 0.00482731 -0.00728038)
(1.54549 1.5347 0.00487796)
(4.31458 -0.0418187 -0.0465348)
(4.47077 -0.0167036 0.00972043)
(4.15163 -0.0408839 -0.0658757)
(1.45757 -1.45807 -2.09762e-05)
(4.52871 1.19811 0.314997)
(4.1498 0.0057837 0.00802686)
(2.05246 1.64273 -0.0959748)
(4.12263 0.00193735 0.00596843)
(4.50168 0.0554624 -0.0420826)
(4.29757 0.0850267 0.00487368)
(4.25992 -0.0137988 -0.0177333)
(4.26119 0.0137395 0.000934114)
(4.53655 0.0650686 -0.0241605)
(4.38174 -0.00706205 -0.00747122)
(4.34507 -0.00761983 0.0049387)
(1.53519 1.54019 0.00609272)
(1.54103 1.53364 0.00482036)
(4.17865 0.011067 0.00553348)
(4.11001 0.00437838 0.00572007)
(1.54234 1.54605 -0.000278642)
(4.23502 0.00566888 0.000333468)
(4.45308 -0.0181173 0.00536674)
(4.36881 -0.0121177 0.00461838)
(1.54973 1.53449 8.85316e-05)
(4.28251 0.0847792 0.0195558)
(1.54316 1.54177 0.000296505)
(4.34884 -0.00672791 0.00351011)
(4.37359 -0.00835453 0.00329469)
(1.54417 1.54344 -0.000223002)
(4.16581 0.0188572 -0.0148207)
(4.36367 -0.00613474 0.00138148)
(4.2654 0.079323 0.00672379)
(4.20769 0.00143028 0.013906)
(1.5737 1.54434 -0.00217778)
(4.37858 -0.0131639 0.0146384)
(4.27846 0.0966848 0.00119829)
(4.5097 -0.104722 0.0263585)
(3.79728 0.0490375 0.0149923)
(3.3891 0.010274 -0.0473197)
(1.54713 1.53122 -0.00279643)
(1.54185 1.54059 0.00146868)
(4.20571 0.0566062 0.00750449)
(1.54543 1.54581 -0.000436427)
(3.68203 -0.0104395 -0.00987665)
(4.22477 -0.0214024 -0.0322633)
(2.5818 0.366145 -0.0898563)
(4.67862 -0.296978 0.111778)
(4.13094 -0.183578 0.0524927)
(4.59909 -0.163358 0.0434713)
(1.54545 1.54577 -0.000426105)
(2.09297 1.77761 0.0150755)
(4.37261 0.0125255 -0.00367761)
(1.45212 -1.45733 -0.00442402)
(0.797209 -0.552906 0.243826)
(4.34041 -0.0816269 -0.0657702)
(1.54542 1.54136 -0.00287229)
(1.54584 1.54419 -1.90719e-05)
(3.86677 -0.076059 -0.00425705)
(3.16588 -0.20289 0.0405653)
(1.546 1.5459 -0.000261041)
(3.91938 -0.0713527 0.0116059)
(1.54425 1.54276 0.000219847)
(1.54447 1.54664 -0.00257675)
(1.45736 -1.45754 -0.000265297)
(1.45924 -1.45565 0.0035243)
(1.4307 -1.41983 0.00519986)
(1.4573 -1.45466 1.57304e-06)
(3.90507 0.0310856 -0.0143192)
(1.54298 1.53416 -0.00127424)
(1.54439 1.54498 0.000459547)
(1.5367 1.54541 0.00268933)
(3.63716 -0.803551 -0.210777)
(4.12678 -0.0346264 -0.076122)
(3.9958 -0.000846347 -0.0399595)
(4.37281 0.0127328 -0.00399254)
(1.53983 1.52974 0.000282644)
(1.54867 1.54324 -2.41888e-06)
(4.19275 -0.07119 -0.0863832)
(1.5452 1.54608 -0.00137031)
(1.5447 1.54343 0.000674774)
(2.44959 1.41289 0.0520364)
(4.46701 -0.0603795 -0.00531645)
(4.35889 0.0108795 -0.00334371)
(1.54352 1.5437 -0.000436901)
(1.54538 1.54231 0.00178257)
(1.54119 1.53725 -0.00202986)
(1.54351 1.54097 -0.000326084)
(1.54744 1.54725 -0.00168501)
(1.54802 1.54393 0.00018588)
(4.37716 -0.101037 -0.0634021)
(1.54618 1.54194 -0.000345527)
(3.03622 0.0440209 0.100144)
(4.39817 -0.00988279 0.0112304)
(1.54416 1.54631 -0.000319722)
(1.44876 -1.45468 -0.00394927)
(1.43872 -1.42524 0.00164222)
(3.69633 0.0426144 0.19771)
(1.43143 -1.42967 -0.00573285)
(1.45615 -1.45714 0.00143956)
(1.53749 1.53979 -0.00966847)
(3.96394 -0.0603299 0.00254806)
(1.54214 1.54215 -0.000389183)
(4.34116 -0.05633 -0.0356949)
(3.46076 0.0552731 -0.017601)
(2.86253 0.00423374 0.112828)
(1.54262 1.54295 0.000474698)
(2.96815 -0.755596 0.0601272)
(4.37492 -0.00844079 0.000798266)
(4.40516 0.00992643 -0.0117644)
(1.56459 -1.49047 -0.0181897)
(4.24351 -0.067668 -0.011811)
(4.32916 -0.00848701 -0.00666178)
(1.45813 -1.44812 0.00145694)
(1.59345 1.51214 0.00752803)
(2.06443 -1.58811 -0.130319)
(1.54068 1.53965 0.00021878)
(4.38369 0.00959436 -0.00201231)
(4.36547 -0.00582358 0.00668067)
(4.44718 -0.0531492 0.0219025)
(2.93502 -0.00176257 0.159211)
(1.54572 1.54511 -0.000166083)
(4.38605 0.00980311 -0.00302298)
(1.59055 1.51368 -0.00203472)
(1.92701 1.63233 -0.00751678)
(1.96313 -1.52502 -0.0619398)
(1.54461 1.54505 0.0005564)
(4.38711 0.0125086 -0.00379432)
(1.54218 1.53865 0.00144476)
(1.44296 -1.41885 0.000385528)
(4.00174 -0.0549071 -0.0988755)
(4.28765 -0.00973828 0.00551251)
(1.44303 -1.41973 -0.00445949)
(4.31378 0.00738316 -0.0023782)
(1.64701 1.60988 -0.0102684)
(4.38072 -0.0371966 -0.0191043)
(1.45746 1.39517 0.0158497)
(1.54588 1.54668 -0.000731524)
(1.55387 1.5486 0.00519725)
(1.45841 -1.45864 0.000438216)
(4.26025 0.00880628 -0.0074278)
(3.80922 0.00635343 -0.0164656)
(4.41659 -0.00175632 0.0800534)
(1.5405 1.54087 0.000940668)
(1.54116 1.51241 0.00987177)
(4.24099 0.009451 -0.00705521)
(1.54554 1.54587 -0.000530467)
(1.78826 1.62301 0.0223216)
(1.45758 -1.45645 0.000658727)
(4.19359 0.0265245 -0.00268011)
(4.46324 -0.113031 -0.0318184)
(4.37209 0.0115118 -0.00445781)
(1.46063 -1.45705 0.00240181)