/*--------------------------------*- C++ -*----------------------------------*\
  =========                 |
  \\      /  F ield         | OpenFOAM: The Open Source CFD Toolbox
   \\    /   O peration     | Website:  https://openfoam.org
    \\  /    A nd           | Version:  10
     \\/     M anipulation  |
\*---------------------------------------------------------------------------*/
FoamFile
{
    format      ascii;
    class       volScalarField;
    location    "115";
    object      SgP;
}
// * * * * * * * * * * * * * * * * * * * * * * * * * * * * * * * * * * * * * //

dimensions      [1 -1 -3 -1 0 0 0];

internalField   nonuniform List<scalar> 
59698
(
0.00309494
0.00183543
0.00231269
0.00271395
1.13935e-06
0.00145199
0.00249703
1.07352e-07
1.98067e-09
3.94409e-09
0.000586478
1.79996e-09
1.58053e-09
0.00228615
2.75463e-08
4.28643e-07
9.41042e-09
3.81308e-09
1.62156e-09
5.94814e-10
0.00036557
1.55819e-06
0.000499408
8.81908e-08
2.02948e-07
1.1957e-09
1.18317e-09
0.00248186
0.00239435
2.13803e-09
1.35202e-07
0.000600634
6.68638e-08
0.00403522
1.10739e-06
3.78746e-09
0.000464845
5.04285e-07
1.73257e-08
0.00245241
2.97157e-08
2.30476e-07
2.31849e-08
2.45572e-08
0.000402107
1.04915e-07
2.66831e-09
4.88672e-08
0.0029085
3.14624e-08
2.95958e-10
2.34527e-09
0.00172824
0.00272948
0.00216803
2.05865e-09
8.45338e-08
1.55365e-08
1.77322e-08
2.72486e-05
0.0017829
6.28422e-08
1.99088e-07
1.5732e-09
5.01452e-07
4.16513e-08
1.75503e-09
3.25476e-09
4.1972e-09
6.76404e-09
6.21444e-07
2.79512e-08
0.00035952
1.56786e-06
0.000411943
1.08532e-06
2.15752e-08
2.23556e-08
6.39494e-09
1.00964e-08
4.7939e-07
9.86371e-10
4.05649e-09
8.02528e-09
1.69208e-05
3.14327e-08
9.15515e-09
2.2197e-07
2.33619e-06
2.31259e-08
4.50127e-09
6.3588e-08
1.69571e-07
6.55806e-09
6.06026e-08
0.00359104
1.33809e-07
6.18886e-08
4.95812e-08
8.59643e-10
0.00353597
2.08099e-05
2.95249e-07
0.00329242
5.30582e-08
0.000564778
2.32376e-09
2.30001e-09
2.74674e-09
4.3964e-10
3.73334e-08
2.62069e-06
1.36373e-06
1.5628e-07
9.76399e-08
3.45553e-08
3.49025e-07
0.00353378
2.92712e-07
1.14364e-08
2.26937e-09
2.97758e-07
2.25701e-07
3.33444e-09
1.62127e-09
7.99183e-09
8.38595e-09
7.20807e-09
1.25556e-08
3.86442e-07
0.0033562
3.86381e-09
1.10594e-09
1.8915e-07
6.39107e-08
3.22595e-09
4.91684e-07
2.45591e-10
1.7183e-09
5.70064e-09
2.08239e-08
0.00231723
0.00252091
1.58615e-09
1.90707e-07
7.94092e-10
5.35032e-07
3.78881e-07
0.00448815
7.05932e-07
0.000257173
0.000434379
2.8352e-08
2.54869e-07
9.33544e-09
1.04589e-07
7.40848e-09
0.00162892
6.72378e-08
6.04023e-10
3.07099e-09
7.71273e-09
2.20021e-08
9.69495e-08
1.86202e-08
0.00222907
1.06835e-09
0.000567022
0.00152529
6.91637e-09
2.55545e-07
1.48762e-06
2.18256e-07
9.26729e-07
5.75025e-07
0.00121905
4.40841e-09
0.00139554
0.000326017
0.00293325
2.25528e-06
7.41649e-07
3.99511e-07
1.12265e-08
2.53192e-07
6.77168e-08
3.70904e-07
0.00238035
1.37238e-10
1.78666e-08
6.44103e-09
7.0286e-09
2.30189e-08
6.05867e-07
1.22194e-07
0.00416736
1.74757e-06
0.00294402
1.26636e-05
9.05473e-08
0.000227077
6.72563e-07
1.5085e-09
2.52421e-09
0.00356797
0.00244687
3.54188e-08
0.00205809
0.00270795
0.00350349
0.00242675
6.10633e-09
0.00262719
1.56711e-08
2.33908e-09
0.00336705
9.84681e-09
4.54694e-08
1.5488e-07
4.65146e-09
1.37376e-05
0.00217458
1.72888e-09
5.09241e-07
8.93814e-09
0.00274736
2.12264e-08
5.48603e-09
4.83533e-08
6.82112e-07
7.5546e-09
1.87148e-08
7.41696e-09
1.13594e-08
9.50812e-09
9.12347e-09
3.06157e-07
1.95187e-08
1.76529e-07
8.18838e-09
0.00261371
1.18812e-07
3.47599e-08
0.000664542
8.72861e-09
2.15144e-07
2.29707e-05
3.4858e-06
5.29426e-09
4.94694e-09
6.14021e-08
6.39052e-09
3.10377e-08
0.000233553
1.92083e-08
0.00169898
1.09883e-07
5.3768e-08
0.0031472
2.89209e-09
7.45413e-06
1.83392e-09
7.84191e-09
0.00270858
0.00357791
8.5404e-07
1.0893e-09
1.06514e-07
1.97608e-08
5.99973e-10
3.11838e-09
1.53251e-06
6.89866e-05
6.66294e-10
1.23539e-07
5.01684e-08
0.00146581
3.97752e-08
2.94794e-09
1.22694e-09
0.000574133
1.78165e-09
1.65767e-09
4.67342e-07
0.00335017
1.02334e-07
5.2786e-09
0.000647508
3.82835e-07
1.00176e-07
2.68354e-06
0.00232505
9.23013e-09
1.34989e-09
7.03242e-07
0.00273233
4.74027e-10
1.52187e-07
1.45187e-08
6.42294e-07
3.0718e-09
2.26456e-09
6.8669e-08
5.73652e-10
1.06733e-09
1.14177e-09
3.63652e-07
2.19279e-08
5.37598e-09
5.28736e-10
0.00190121
4.19616e-08
3.09486e-09
2.37958e-08
0.00191501
5.45698e-09
0.000403389
8.3145e-09
0.000829309
8.51924e-08
9.5313e-08
3.13145e-07
1.67445e-08
2.97799e-09
1.51986e-06
2.55707e-07
1.60881e-08
8.70687e-09
4.42657e-10
0.000361923
0.0028996
4.01815e-08
3.59235e-07
2.4454e-06
0.000430951
1.03753e-08
7.76389e-09
4.28232e-09
1.39889e-07
0.00122097
2.13416e-08
0.00206218
0.00250595
4.9518e-09
9.97763e-08
1.36079e-09
2.65517e-10
1.25234e-06
1.35782e-09
0.00203383
9.22979e-10
1.35329e-08
1.23278e-06
7.94312e-10
9.59779e-07
0.00191592
2.74529e-06
1.44046e-08
3.2951e-08
1.82385e-09
2.09978e-08
1.08641e-08
1.1044e-07
3.5986e-09
1.40982e-10
1.04124e-07
0.00279684
0.00201718
2.829e-08
9.82126e-07
1.13173e-07
0.000533996
0.00366894
0.000651119
2.08244e-08
2.97547e-09
3.63087e-08
2.04553e-09
0.000460524
2.49409e-09
0.000347123
4.46025e-08
4.34597e-08
5.15487e-08
8.49516e-10
6.76856e-06
1.08919e-08
0.000544825
8.78979e-10
3.39217e-08
2.07976e-08
0.000457499
0.00330061
3.33598e-09
5.35998e-05
0.00179758
3.64289e-06
0.0018271
0.00269783
8.14961e-08
0.00243873
0.00236489
0.00257381
5.43287e-09
0.00148346
0.00417848
0.00384017
0.002763
5.86808e-09
8.21853e-07
1.87939e-07
0.000404302
0.00163746
0.000434527
4.72013e-10
2.0463e-07
2.00909e-09
2.27739e-06
0.00189755
0.00175678
0.0029221
0.00218231
0.00249155
0.00166524
7.82069e-09
2.05493e-09
7.82377e-09
1.39734e-08
0.00138446
5.57476e-10
7.8068e-09
0.00195915
0.0011652
2.34713e-08
3.69603e-08
1.42279e-08
1.39098e-08
0.00126046
3.33972e-09
0.00211827
1.92324e-07
0.00321067
5.14466e-09
4.39878e-08
1.86379e-07
2.02374e-06
8.61645e-08
4.5217e-10
2.12412e-09
1.29415e-07
0.0025433
6.62155e-09
7.27893e-08
1.96742e-06
6.11691e-07
1.15017e-07
3.40749e-07
1.39032e-09
1.15184e-06
1.64946e-07
6.07871e-08
4.61622e-09
0.00320821
6.28784e-09
2.19032e-09
2.02053e-07
3.51117e-07
9.30505e-09
4.40435e-08
6.17628e-09
0.00247464
4.42383e-09
2.00808e-10
6.92498e-09
6.29851e-08
2.04154e-06
8.08105e-07
2.15471e-09
0.00300893
0.00194623
2.34271e-08
2.10199e-07
1.59434e-08
1.91765e-08
2.52117e-07
4.11486e-08
4.44767e-08
1.96957e-08
1.64367e-09
1.64471e-09
2.48245e-07
4.11239e-07
3.69425e-10
4.23636e-08
0.00402048
2.12847e-07
1.53619e-08
0.00236662
3.71856e-08
0.000365618
9.72191e-10
1.1825e-07
2.03735e-07
1.21339e-08
1.71093e-08
1.11829e-09
8.17118e-08
2.13732e-09
5.27229e-09
8.29303e-09
5.76781e-09
7.8999e-09
1.35578e-06
5.41921e-08
1.6049e-08
2.68383e-09
6.88552e-09
9.87126e-09
7.03704e-08
2.48133e-08
1.71473e-08
3.47141e-09
5.06794e-09
3.86011e-09
2.18612e-09
6.31443e-06
3.29921e-08
2.80719e-09
0.00339736
0.00370799
2.90867e-09
0.00384905
1.82765e-08
5.49517e-09
0.00145124
3.56313e-10
1.35536e-08
0.00178836
1.87877e-09
0.000384875
4.30884e-08
2.58063e-09
4.5042e-08
2.98809e-06
1.48166e-08
5.13768e-09
8.93139e-06
0.000167009
1.87112e-08
7.43363e-06
1.83515e-08
2.28869e-09
3.11099e-08
1.91861e-09
5.03338e-09
1.42808e-08
1.92531e-08
1.62013e-08
2.57967e-09
2.23769e-09
0.000768499
1.75403e-09
1.65329e-08
1.03312e-05
1.51174e-08
1.80821e-09
1.21468e-06
2.2551e-08
8.59333e-09
0.000539255
7.78052e-10
7.58961e-09
1.87335e-07
1.57816e-09
4.39842e-08
1.30225e-09
3.20182e-10
4.39529e-10
0.00200339
2.31402e-09
0.000732636
3.92135e-08
0.003208
1.49871e-08
3.27678e-09
0.000313356
1.18543e-09
1.36374e-08
1.79351e-08
1.64084e-08
1.98551e-09
0.00316744
8.1074e-09
1.67283e-08
8.51549e-10
4.1694e-08
9.25676e-07
0.00264841
0.000349775
7.35889e-09
7.95567e-09
1.63883e-09
2.82911e-09
0.00337479
1.35349e-08
4.42664e-09
2.51327e-09
0.00108737
0.00385606
1.54822e-08
1.26454e-08
1.57205e-09
1.15805e-08
4.29627e-09
4.13562e-09
5.13572e-09
4.87344e-09
3.59039e-08
7.82703e-05
7.31948e-09
5.03243e-09
7.89047e-09
1.82144e-08
2.53995e-05
0.00241925
1.09379e-08
0.00266356
1.63333e-09
8.76379e-09
4.32395e-09
0.00269464
0.000211207
9.52574e-10
8.39607e-09
6.93577e-10
2.86097e-08
6.32602e-09
2.84754e-09
0.00151549
0.00323668
1.27005e-07
1.62604e-07
0.000607888
1.45219e-09
5.25124e-09
1.60455e-09
4.12183e-07
0.00210666
3.38144e-08
1.77323e-09
0.000439476
7.66422e-09
3.18451e-08
3.32711e-09
2.38033e-09
4.36517e-09
9.36074e-10
7.57797e-06
1.01404e-09
0.00182038
5.06959e-08
1.12015e-07
6.89324e-09
1.55157e-06
3.46987e-06
5.39322e-09
2.07777e-08
0.00230811
0.00311018
7.28037e-08
3.87059e-09
7.57695e-07
1.56811e-09
0.0034375
3.14093e-10
1.96134e-08
0.000428463
0.00255415
4.18353e-09
1.59863e-09
1.96438e-07
5.87675e-07
3.53425e-07
0.0003781
0.00139636
1.12887e-10
6.63088e-09
7.71425e-10
4.62734e-09
0.00277499
2.71596e-08
0.003029
1.00663e-08
0.00131534
0.00209609
0.00236435
6.18518e-08
4.11032e-09
0.000650656
1.27517e-09
2.31207e-10
1.00711e-09
4.35939e-09
1.81493e-08
4.50558e-09
1.49245e-09
9.1984e-08
6.73277e-08
7.52761e-09
2.72165e-09
0.00186398
4.18292e-08
3.58732e-08
0.000362154
1.01982e-08
3.45784e-08
3.82487e-08
1.94255e-09
1.37226e-09
0.000646941
0.0019636
0.00241496
3.87109e-09
1.11424e-08
7.01725e-09
1.63698e-07
0.00194611
1.34327e-09
5.69162e-07
2.58719e-08
1.31859e-05
0.000344565
0.0016985
2.25192e-07
1.4816e-07
2.22465e-08
0.00430839
0.00053216
1.8954e-08
8.93462e-07
3.51917e-09
6.81966e-08
3.4355e-06
0.00231962
2.4536e-08
1.20668e-07
1.01058e-07
1.5927e-05
2.4302e-08
0.0018564
2.48749e-09
5.18205e-08
1.16245e-08
0.00213
6.88714e-10
6.24178e-09
2.08095e-07
4.50434e-06
0.000599771
1.093e-07
7.03132e-08
0.000383645
4.16131e-08
2.54073e-09
0.00190611
0.00219678
5.47642e-09
7.56378e-09
0.000401553
1.00983e-08
1.75024e-08
0.000373922
3.51506e-10
0.002654
2.56518e-09
1.93096e-08
1.81592e-07
3.99758e-09
3.94216e-08
3.60314e-08
5.00885e-05
3.7541e-09
6.12053e-09
7.08034e-09
1.17868e-08
9.70749e-08
1.52168e-08
0.000326088
6.86455e-09
2.02497e-08
0.00140035
5.6892e-08
9.84784e-08
9.14509e-06
0.00187043
2.4009e-06
0.000541726
6.97262e-09
0.000382977
1.5939e-08
4.21868e-09
1.61676e-09
0.00314074
3.78613e-07
3.25562e-08
7.12936e-05
6.44005e-08
0.00157969
1.66024e-07
9.83839e-06
3.55583e-09
0.00100438
3.15812e-09
0.00130463
5.38621e-05
2.45466e-07
0.000651796
0.00179453
1.22962e-06
1.10607e-05
4.10552e-09
1.13344e-06
2.51793e-08
4.09356e-05
0.000444769
0.000428784
0.00211177
3.52872e-08
3.20019e-08
0.000561236
4.59156e-08
0.00227711
6.84612e-10
0.000401155
2.2759e-09
2.66448e-09
2.94146e-05
0.000503636
0.000206025
0.000108508
7.69841e-09
5.06276e-09
2.13169e-09
0.000487257
2.06107e-09
0.00350808
0.00473697
2.48394e-09
0.000499703
2.07717e-09
8.02446e-10
2.94224e-09
3.24317e-06
0.000469634
2.88536e-09
1.29529e-09
1.05222e-06
4.43671e-09
1.12194e-07
3.80125e-09
2.98289e-09
8.8794e-08
2.63824e-07
3.12609e-08
1.041e-08
0.000532565
8.14603e-10
0.000127631
2.68756e-10
2.49616e-09
0.00124249
1.49066e-09
7.7445e-06
8.98219e-08
7.43659e-09
0.00010882
1.2487e-08
0.00157163
2.72444e-08
4.62436e-10
0.00174584
5.66314e-09
1.13294e-08
0.000307136
1.24204e-09
0.00205968
1.68728e-08
1.4201e-09
0.00422995
3.05471e-09
5.33116e-09
1.49775e-08
1.63324e-08
0.000319935
7.96601e-09
5.62922e-09
1.64863e-07
0.00180906
0.000633464
0.00058404
2.24278e-08
1.77054e-09
0.000379941
0.00237001
6.72932e-09
8.57701e-09
5.57807e-08
1.16424e-08
2.86266e-09
2.5711e-08
0.00041226
0.00144847
0.00262298
1.49209e-07
2.0397e-09
0.00267085
0.0040097
0.00520963
5.08687e-08
1.8145e-08
1.5949e-07
4.44086e-07
1.80893e-08
2.69662e-08
7.86399e-07
2.81074e-08
7.50321e-09
8.14327e-09
1.35293e-06
7.29637e-08
7.36773e-09
0.00254231
1.63077e-09
5.9886e-08
1.87663e-08
2.82359e-08
6.50955e-09
3.85681e-10
0.000761137
1.88854e-08
3.11314e-09
0.00193675
1.90464e-08
2.39323e-08
0.00316677
2.9179e-08
3.33072e-07
5.71993e-09
1.99979e-08
2.43761e-08
0.000825753
3.03636e-08
0.00220049
1.82779e-07
1.98634e-07
3.67113e-08
0.00533113
0.00029515
4.58908e-09
5.42941e-09
9.92234e-07
1.44595e-09
1.1189e-08
8.55838e-09
0.00167349
1.17188e-09
2.2802e-09
8.12765e-09
2.4774e-09
3.57652e-08
2.37322e-08
7.51629e-09
0.000429221
0.00219274
0.000466221
6.29704e-08
0.00314142
0.00256331
5.60324e-08
1.76114e-09
0.00183293
6.42674e-06
0.00154622
0.00208213
0.00203126
3.32973e-09
5.88972e-08
0.00237834
1.96606e-07
3.34505e-08
1.89609e-07
2.64589e-08
0.000443776
2.08722e-08
0.000538421
1.69815e-05
2.57336e-08
0.00196195
2.00218e-08
0.000608739
6.89112e-09
1.8323e-08
1.21586e-09
3.99761e-08
0.00153623
0.00364924
1.24879e-09
0.000395621
0.00188713
0.00135368
0.00278268
5.67335e-10
1.01143e-08
1.1752e-09
0.00355538
7.76125e-10
1.297e-07
0.003561
5.33377e-09
0.00346993
0.00351711
0.00366744
1.5497e-08
5.72136e-08
4.63446e-08
8.81482e-09
1.11086e-08
6.16079e-08
1.26581e-08
4.90515e-09
0.000475229
4.13012e-09
3.7151e-08
2.76014e-07
5.19822e-10
0.0016232
2.92489e-08
4.61818e-09
6.6609e-08
2.69107e-10
7.00732e-08
3.91276e-09
2.03216e-07
0.00306619
3.09829e-05
8.93015e-10
1.56355e-08
0.00210096
0.00314927
1.78182e-07
0.000760654
1.0061e-08
7.81931e-09
0.00257401
2.22415e-08
0.00322069
0.000542245
1.04728e-09
7.27996e-08
0.000765799
1.72331e-08
2.49658e-08
0.00250179
6.32524e-09
1.35739e-08
3.11666e-09
0.000534596
3.14755e-06
0.00193142
1.82598e-07
9.40913e-09
0.0017502
1.46248e-07
2.5841e-10
5.973e-06
2.18537e-09
7.19591e-07
0.00129385
2.77106e-09
9.48072e-10
1.13436e-08
5.90112e-09
1.54756e-08
5.85898e-09
1.26378e-08
1.00029e-06
9.46832e-10
1.24748e-09
0.00169859
4.66018e-09
5.4246e-06
2.93243e-08
5.94724e-06
1.3132e-06
1.17169e-06
5.359e-06
1.26294e-06
5.35234e-09
1.6583e-08
0.00100309
2.83492e-06
2.48322e-08
2.25082e-08
2.48421e-08
0.00044909
1.36829e-06
7.83185e-08
2.28921e-07
3.46187e-09
0.00226315
4.68568e-09
1.2265e-08
2.08745e-08
1.18566e-08
2.9914e-08
0.00212594
5.57471e-08
2.40615e-08
1.86764e-08
4.8004e-09
0.000477735
2.27366e-09
5.1708e-09
3.35787e-08
2.48966e-10
1.40696e-09
6.12292e-09
9.36063e-09
1.37233e-08
0.000332955
1.14318e-08
1.31732e-08
2.5105e-09
2.00024e-08
1.24492e-08
1.01463e-08
5.84746e-08
0.000380629
0.00242472
1.5441e-08
7.86997e-09
0.00284486
1.64844e-09
4.30454e-05
0.00203056
4.9602e-09
7.23951e-07
1.53253e-06
0.0018653
2.20393e-08
3.19147e-08
2.17488e-07
1.73987e-05
8.66631e-07
2.17687e-07
1.39954e-09
3.76568e-09
4.16337e-07
1.0849e-07
5.42008e-09
1.53592e-09
1.23259e-08
7.56091e-09
3.03558e-06
0.00129416
6.41249e-08
3.55589e-08
5.10536e-08
0.00264624
0.00244629
9.35339e-07
1.51395e-08
3.27025e-08
4.01442e-08
4.46488e-09
2.89625e-09
1.81469e-07
4.21966e-09
3.45844e-08
2.01723e-09
1.26942e-08
2.26792e-08
3.30831e-09
4.15437e-07
2.80621e-09
0.00043443
9.50425e-08
0.00394819
0.00165207
1.12431e-07
2.16667e-08
0.0005797
0.000345168
2.78127e-08
2.34372e-08
9.3773e-06
2.30605e-09
1.87934e-09
2.3624e-08
1.74024e-08
0.000781453
0.000646993
9.56571e-09
1.17973e-08
7.75261e-09
3.3334e-07
5.11195e-08
0.00267068
0.0004964
1.33536e-08
0.000238788
7.00908e-09
0.000315393
0.000227757
0.000223592
2.80335e-08
1.05432e-07
1.7633e-09
1.01272e-07
2.54433e-08
0.00240341
4.89e-09
4.13998e-08
6.84725e-09
7.69927e-08
2.30863e-05
0.001945
0.00227798
2.2582e-08
2.97585e-08
0.000377615
3.99147e-08
1.0365e-06
1.0483e-08
0.00304789
4.05957e-08
2.26631e-08
8.53692e-06
0.0026232
6.84112e-08
2.28866e-08
0.0013129
2.02267e-08
4.6568e-10
1.39194e-09
4.46969e-09
3.15264e-08
1.3292e-08
6.34064e-10
2.23158e-08
3.72765e-08
1.13182e-08
6.06594e-08
1.78604e-08
5.51944e-07
0.00191139
2.85436e-09
1.59352e-08
5.64491e-08
0.00200103
8.73721e-07
2.02724e-08
0.000374729
2.88796e-09
2.2516e-07
1.46164e-07
0.000983774
3.59737e-07
3.18585e-10
1.21842e-07
1.39932e-08
1.22675e-07
5.0297e-08
2.86741e-09
1.55125e-07
6.88388e-09
8.69765e-08
8.17004e-10
0.000584268
4.99519e-08
0.002074
1.30189e-09
6.35314e-08
2.17005e-06
1.07436e-08
4.51458e-06
4.79083e-09
6.55069e-10
2.44935e-07
4.18546e-08
4.85245e-09
1.73392e-05
6.10891e-08
7.42122e-08
0.000547252
2.98676e-09
0.000563698
3.16153e-08
2.2658e-09
7.68308e-09
5.80102e-09
1.98247e-08
3.90434e-07
3.13489e-07
1.50532e-07
0.00237869
2.08303e-07
0.00393213
0.00209523
0.00329194
8.49605e-08
2.25933e-07
0.0014351
3.81066e-09
2.47787e-08
2.9742e-08
0.00236957
9.82255e-09
0.000635585
0.000492196
2.76614e-09
0.00262596
5.07829e-06
0.00264009
1.89122e-08
0.00249649
5.5944e-08
0.000340304
1.6372e-09
3.84548e-09
4.2611e-08
0.000746793
7.66199e-07
4.15647e-10
2.69332e-08
6.3406e-10
0.000532954
0.000313628
5.70303e-08
0.00190925
4.5527e-07
0.000544686
3.2e-08
5.59807e-10
6.14195e-09
2.59348e-09
8.95502e-08
2.04445e-05
5.68852e-09
1.33803e-06
4.44567e-08
4.23035e-08
4.65622e-09
9.87254e-05
2.23999e-07
1.88173e-09
6.45145e-09
0.000432446
1.08324e-06
7.81007e-08
0.00152077
1.76023e-06
1.49417e-06
7.41911e-09
8.62512e-09
3.91368e-09
0.000681373
2.65901e-08
5.50586e-09
1.49729e-08
3.62186e-07
9.96166e-07
2.02166e-07
1.82133e-09
3.18213e-06
6.72643e-07
7.42277e-09
5.98443e-09
5.5308e-06
2.51683e-09
5.29802e-09
0.00238708
0.00220928
6.17863e-08
4.50286e-09
1.15036e-09
3.33868e-08
0.00192986
2.58828e-07
1.35003e-06
5.47655e-10
5.51143e-07
3.25836e-08
0.0011199
0.000444876
6.5762e-07
2.49349e-08
3.44215e-06
5.14322e-07
0.00010068
2.23927e-09
1.83196e-08
0.00118796
2.54547e-08
7.8416e-07
5.89796e-07
2.02227e-06
1.22846e-06
1.17034e-08
0.00162302
1.31135e-05
2.45818e-09
1.21323e-08
4.71752e-09
0.000427674
0.000113518
1.90913e-08
0.000637652
1.23844e-07
7.2779e-05
0.00282736
0.000398955
0.00282002
0.001837
0.00221777
4.57083e-10
2.80621e-06
8.49266e-08
3.45909e-06
1.49754e-05
2.21472e-06
2.0159e-09
3.9878e-07
1.46592e-08
3.202e-07
0.000761567
2.86027e-07
9.13101e-10
0.00178432
1.3928e-07
0.000207824
1.83771e-07
4.11088e-07
4.79062e-09
3.87627e-07
2.12151e-07
0.00151229
2.09305e-07
3.57521e-08
1.49533e-07
2.59238e-05
0.00129741
0.00131391
0.00293873
4.92678e-09
0.000502803
0.00149671
0.00175327
0.00149471
2.38081e-07
0.00217389
2.68021e-07
4.7277e-09
5.41609e-09
6.35972e-09
0.00147152
0.0017686
5.64388e-09
1.45973e-08
8.42967e-09
4.08055e-07
0.000298097
0.00368299
0.00135434
8.19584e-08
0.00247913
8.57772e-10
3.62053e-08
0.00108919
0.000804583
5.36856e-09
2.78343e-06
1.22251e-08
6.3165e-09
0.00352007
6.35373e-09
0.000423337
1.1706e-09
0.00037871
0.000405406
0.000581335
0.00190926
3.2489e-07
0.00161663
1.26723e-08
1.1806e-05
0.000460534
0.00124697
0.00220787
0.00109664
7.53399e-09
0.00124438
8.98207e-09
1.59735e-08
0.00292768
1.64011e-07
6.64071e-06
5.65442e-08
5.20281e-08
0.000573393
1.43422e-06
3.26696e-09
1.49234e-07
4.38539e-07
0.000403272
0.00219809
2.72849e-07
7.63652e-09
0.000614686
1.86651e-08
1.57096e-08
5.10846e-08
6.04921e-07
0.00214113
3.70805e-09
0.00241625
8.36034e-10
0.000256106
0.00433595
8.6956e-09
3.03705e-06
0.00242898
4.99369e-05
5.14256e-06
2.47282e-09
0.0017784
0.00277877
5.14094e-10
0.000489104
8.2764e-07
0.000618778
1.4916e-08
8.50854e-07
5.12466e-07
3.52733e-08
7.73152e-11
0.00034579
0.00131374
6.60135e-09
1.18023e-09
0.00218124
1.11136e-08
2.20422e-09
3.73911e-08
1.87773e-09
7.8747e-08
0.00354113
0.00209352
2.64649e-08
5.44532e-10
0.00221115
1.99144e-07
0.00270363
2.77504e-09
1.90123e-06
4.58943e-08
7.4401e-09
2.74932e-09
1.07862e-08
0.0033355
5.03925e-09
2.79206e-07
0.000274716
0.00237604
0.000453091
1.37859e-08
1.17672e-06
2.56685e-09
0.000229075
0.00228076
9.21022e-10
3.77248e-09
3.97798e-08
3.31165e-08
0.000502529
2.62021e-07
0.000529725
1.92218e-07
6.68849e-09
5.86967e-11
4.96943e-08
0.000221125
0.000394062
5.43017e-09
0.00384295
0.00245682
9.19966e-09
3.10222e-10
3.84205e-09
7.3305e-09
3.79863e-09
1.53541e-08
0.00275161
0.000620111
0.00051408
7.76326e-05
0.000348236
0.00038168
2.75493e-09
4.27212e-08
1.52938e-09
3.01827e-08
1.88429e-08
0.0023462
1.07561e-08
4.91974e-09
0.00111864
1.90182e-08
7.65476e-08
8.73744e-08
1.64451e-09
8.38594e-08
3.52146e-08
0.00219883
5.30152e-09
1.44513e-08
4.30389e-09
1.58503e-08
2.12921e-08
0.00375553
4.52759e-07
1.12111e-07
7.30794e-08
1.0613e-09
4.51319e-05
1.25309e-06
3.08703e-09
5.74454e-07
1.2293e-05
1.01791e-08
1.13382e-08
1.03573e-05
2.51764e-06
2.48562e-07
0.00304118
3.86442e-09
3.98078e-07
1.46527e-06
0.00282693
2.24192e-07
4.26686e-10
1.92894e-06
1.52215e-05
3.45858e-07
1.00514e-08
1.70792e-07
4.62494e-08
6.62135e-08
1.99014e-08
3.31332e-08
0.00185182
2.16427e-09
1.182e-08
1.10266e-08
6.97043e-10
4.60588e-09
9.45625e-10
0.00421418
1.24252e-07
1.95086e-09
3.3032e-09
3.14177e-09
1.08421e-09
5.07232e-08
5.17264e-09
2.82728e-09
5.40714e-08
1.33645e-08
0.0022095
3.05891e-09
0.000384391
3.52996e-08
1.18013e-07
1.80272e-08
1.20981e-06
1.01731e-09
0.00315759
9.44274e-09
0.00178966
2.95248e-07
4.04635e-08
1.36094e-08
1.84082e-06
2.7514e-09
3.62383e-09
2.93818e-09
0.000259082
0.000626649
0.00213671
1.00614e-07
1.57831e-07
0.00227892
1.72735e-06
3.36685e-09
1.37732e-08
2.87326e-07
1.03412e-08
0.00411991
2.76784e-06
0.00307947
2.76306e-08
7.68239e-09
0.00158811
0.00144431
0.00174765
1.66378e-08
1.46663e-06
0.00186862
1.67339e-09
1.2319e-05
1.51489e-07
0.00177479
0.00045932
1.80769e-07
0.0023082
2.04472e-05
6.21508e-07
0.00205395
0.00216975
1.91699e-08
0.00237785
0.00300989
0.00180851
2.4935e-08
4.32811e-09
6.09744e-09
7.89019e-10
2.86851e-09
0.00163017
0.00275207
0.00182462
2.60866e-09
0.00303294
2.7526e-09
0.00228109
0.00249146
5.76506e-09
3.66263e-08
0.00165392
2.45857e-08
1.31669e-08
3.21539e-07
4.32335e-10
0.0025603
0.00199029
8.30224e-07
0.00163491
4.33749e-09
3.04672e-09
7.10914e-09
3.30209e-08
6.71921e-08
3.1323e-07
1.20769e-09
5.62e-09
1.41954e-08
8.11372e-09
6.24469e-09
1.04412e-07
3.72303e-10
2.31517e-08
2.1168e-06
1.15538e-08
3.43964e-08
2.78654e-09
1.21609e-07
1.56525e-09
5.14391e-09
2.22666e-07
1.56002e-09
3.09036e-09
0.00188088
3.49118e-08
5.17616e-09
6.52819e-07
3.14033e-09
1.47482e-08
4.79048e-08
0.00185737
9.35474e-08
0.00220809
0.00148589
1.73345e-08
2.07318e-08
5.74325e-08
6.57512e-09
0.00157707
4.94175e-08
2.26947e-07
3.65702e-07
2.9079e-08
0.00235743
0.00149676
1.88313e-09
3.12966e-09
7.0227e-09
6.39038e-08
5.90745e-08
7.40771e-09
4.16169e-07
5.32298e-09
1.48502e-06
2.49124e-09
1.53141e-09
6.30318e-09
1.55499e-08
2.33436e-07
7.85965e-09
1.9074e-08
0.00429575
0.00144842
0.00257014
0.00155371
1.48304e-06
1.20735e-08
0.00201319
6.9674e-07
6.73504e-09
0.000410057
1.31946e-09
1.44622e-07
0.00235101
4.3949e-08
1.24401e-07
2.30306e-08
4.29684e-08
0.00139997
8.20719e-09
9.39257e-10
2.03728e-07
2.65795e-09
4.68594e-07
5.98017e-06
6.66591e-08
0.00211104
4.18466e-08
0.000460544
2.6694e-07
0.00209874
3.85707e-10
5.05288e-09
2.68258e-07
3.85212e-09
0.00183883
3.83355e-07
0.000518178
1.49303e-07
1.84847e-07
1.33934e-07
2.66459e-08
8.71916e-09
5.01708e-08
3.02077e-06
4.07088e-08
2.60689e-06
0.00324759
5.3431e-08
0.00421553
5.61794e-09
2.46926e-09
4.56539e-06
0.00186419
1.40571e-08
1.35806e-09
9.01213e-07
5.69615e-08
3.39474e-08
0.00233951
1.34788e-08
6.11674e-07
0.00262088
1.35938e-09
8.106e-09
4.19224e-07
1.00993e-09
8.17971e-09
0.00253087
5.3106e-09
0.00276767
2.31958e-08
2.15836e-07
3.94689e-08
0.000894213
6.07085e-08
2.77263e-08
1.48702e-07
0.00253483
1.58869e-06
1.25702e-08
9.33202e-09
1.24139e-07
0.00207304
3.48466e-09
5.17578e-08
6.30178e-08
1.5905e-06
0.00252796
0.000269811
0.00119083
1.74525e-08
0.000358024
1.32066e-08
8.99867e-07
0.000789813
1.1579e-08
0.000881221
3.30021e-06
4.85817e-09
2.64283e-09
1.19699e-08
0.00253348
1.51903e-08
2.43205e-09
2.60756e-07
1.12448e-08
5.42761e-09
0.000301434
2.73662e-09
4.46951e-08
0.00242955
1.26339e-06
4.52199e-09
0.00203795
3.25351e-06
6.51709e-09
1.3684e-08
1.20182e-05
4.30441e-08
2.23637e-07
1.67217e-08
4.13474e-08
6.0377e-08
4.73661e-06
0.00109775
4.8433e-08
0.00248244
1.50357e-08
3.7962e-08
0.00271651
3.077e-08
7.83983e-08
9.53383e-09
1.29858e-07
0.0023701
3.00686e-08
2.13085e-08
0.00163521
5.79508e-09
0.00266887
1.40493e-09
8.47932e-09
1.04365e-09
9.88705e-09
0.0015168
5.36924e-08
1.4181e-09
2.57671e-09
1.42843e-08
5.28965e-08
0.00255054
4.766e-09
4.59721e-09
1.87911e-09
1.54879e-07
5.28471e-06
5.04501e-09
0.00156965
3.50988e-08
1.03476e-08
6.3065e-09
5.1231e-08
0.000429645
6.49601e-07
1.62464e-10
1.00557e-09
0.00182624
0.00217022
6.14676e-08
3.90999e-09
0.00183588
1.68655e-08
9.08384e-10
0.00356005
9.08629e-09
0.00275306
2.92262e-07
1.76644e-08
2.01721e-08
9.76741e-09
9.541e-09
4.46709e-09
3.05165e-05
7.43235e-07
2.27068e-09
4.14772e-08
5.54764e-08
5.32219e-09
0.00257877
8.70068e-09
1.33126e-08
0.001974
2.61266e-08
3.58974e-08
3.04841e-10
0.00228713
2.83685e-08
1.32583e-07
3.27994e-09
3.70039e-08
4.04314e-09
0.00233767
5.91632e-09
7.08006e-09
0.000614667
1.0792e-08
7.12256e-09
0.00233157
6.5592e-08
3.86239e-10
3.12738e-08
5.93786e-09
0.00188365
4.41871e-07
6.03972e-08
3.46403e-09
4.02583e-07
1.41104e-07
8.68791e-09
1.3846e-09
1.03003e-09
3.40004e-08
1.04958e-08
8.14407e-10
7.78724e-09
6.5187e-09
1.02121e-08
0.00231617
6.96467e-07
1.47923e-08
2.04631e-09
9.43112e-10
0.00219987
1.9511e-08
0.00327804
9.37318e-07
0.00158579
7.5343e-10
0.00215252
0.00292639
8.42588e-09
9.38642e-09
8.96683e-08
0.00210518
0.00251639
3.06965e-07
6.70006e-09
2.5005e-07
1.05089e-09
2.21196e-07
8.56626e-09
9.42085e-08
1.66174e-08
1.47677e-09
3.87944e-09
8.50174e-10
6.20488e-09
9.39297e-09
3.81503e-09
5.07442e-09
1.50348e-08
9.00978e-08
3.41418e-11
3.35596e-09
7.31531e-10
5.63687e-09
1.51619e-09
1.74482e-07
0.00189961
0.00279692
4.51258e-09
0.00222568
1.39957e-08
3.07035e-09
4.51477e-09
1.6385e-06
1.79972e-07
7.18393e-08
9.97347e-10
1.10335e-08
2.1455e-09
7.96249e-09
1.59363e-09
1.29348e-08
1.41462e-07
0.00158842
2.43824e-09
2.11674e-08
0.00140329
0.00178425
0.002198
0.00206345
0.00176518
4.66823e-08
3.77823e-08
2.88977e-09
7.87044e-09
7.59433e-09
1.34119e-06
3.94224e-09
2.92933e-08
3.41173e-08
7.19635e-09
2.22801e-09
2.67236e-09
7.43432e-07
3.15506e-06
3.96867e-07
6.03141e-09
1.68148e-09
3.19481e-09
0.00284248
2.53356e-09
0.00185272
1.05437e-07
8.77764e-09
7.52675e-07
0.00105424
6.7567e-08
4.06844e-10
3.80327e-09
3.21244e-08
1.50678e-09
2.38715e-08
8.35533e-10
0.0011041
3.4584e-10
4.18232e-08
0.00284471
2.90867e-09
0.00133035
5.86583e-08
0.00216661
1.01605e-07
0.00121972
3.55216e-10
0.00289516
0.00232086
2.7906e-08
4.05464e-09
0.00158366
2.00922e-08
0.00186998
1.70424e-08
7.88503e-09
5.11421e-10
1.68351e-08
2.04748e-08
1.50934e-08
6.36833e-07
0.00292306
0.00166191
1.21818e-06
3.80846e-09
3.46922e-07
0.00305628
0.00136143
0.00236578
0.00234394
5.32281e-09
6.10263e-08
2.75733e-08
1.25156e-08
0.0030358
6.52501e-09
0.00148775
0.00321499
5.4026e-09
3.14643e-09
0.00160518
0.00302783
2.82848e-08
9.18206e-10
0.00169035
8.64489e-08
2.55773e-09
4.6749e-07
9.86026e-08
0.000405961
7.13703e-08
5.66814e-08
2.47277e-07
2.70293e-07
9.07727e-08
3.84206e-09
4.5427e-09
1.06403e-08
2.0288e-09
2.05425e-08
8.66855e-09
1.83837e-10
2.28365e-09
0.0020065
0.00284307
3.4231e-10
2.54336e-08
6.61499e-09
2.78236e-09
4.79813e-07
1.94957e-08
2.35378e-09
0.00270663
0.00150583
0.00144849
0.00162327
4.87969e-08
0.00136203
2.5505e-07
0.00376684
7.33692e-10
0.00227617
2.70216e-08
3.6793e-08
1.55531e-07
6.17607e-10
0.00294104
1.85482e-07
0.00423707
5.91968e-09
9.41018e-10
9.03253e-09
8.96902e-09
0.00133977
0.00286833
1.38961e-10
3.40355e-09
2.43867e-08
0.00167443
4.0724e-09
0.00280341
3.40375e-07
1.92656e-09
5.72319e-09
0.00241518
3.50817e-08
0.00213602
8.19953e-08
0.00383035
0.00319963
7.75985e-08
3.69131e-09
0.00352897
8.62831e-09
8.50971e-07
0.000344637
1.56538e-08
1.41094e-07
2.27799e-08
8.86362e-09
0.00300982
3.93713e-09
7.39312e-08
3.91063e-10
7.03289e-08
4.09263e-09
5.33322e-09
1.51237e-08
1.01042e-08
1.7101e-08
0.00294979
2.13579e-08
2.7548e-08
4.68799e-09
1.43785e-08
9.11025e-09
9.57571e-09
1.15764e-08
0.00217428
8.627e-09
0.00293682
0.00189534
4.9121e-09
0.000360672
2.94899e-09
3.31292e-09
2.61985e-08
3.48514e-08
3.04071e-08
0.00152605
0.00202696
1.10549e-07
1.06595e-07
8.25437e-08
0.00305494
0.00110992
4.82084e-08
0.00216268
0.00439075
1.26646e-06
0.00259025
0.000410465
6.33102e-09
7.82851e-07
2.53099e-08
0.000563893
6.7728e-10
0.00252483
3.30472e-10
2.31058e-09
0.00063641
0.000341713
1.9402e-08
0.000460451
4.24006e-08
1.04487e-07
2.57998e-08
2.6962e-09
3.93112e-07
2.8743e-09
4.86754e-09
0.00243079
1.32339e-08
1.38537e-08
4.34363e-09
1.22006e-07
1.66359e-09
4.57788e-05
2.96581e-08
2.04102e-08
7.97757e-08
1.64136e-07
0.00029709
0.00227301
4.17994e-08
6.91935e-09
0.00236629
0.00234104
3.70426e-08
2.28694e-08
1.23519e-08
3.15256e-09
3.05169e-08
1.10506e-08
0.00200137
0.00433467
6.10423e-09
2.04192e-09
3.86294e-09
6.01472e-09
0.00246894
0.000394485
1.75961e-09
1.81019e-08
1.53148e-08
0.002119
1.04932e-05
1.09491e-06
0.00194317
2.49344e-08
2.50231e-08
4.9512e-09
4.11853e-08
2.52817e-08
0.0022048
5.2075e-08
0.00031067
5.5179e-09
6.26362e-09
0.00320551
0.00260269
7.55429e-09
0.00306975
1.08175e-09
1.473e-09
4.53287e-07
4.97579e-09
3.54782e-09
0.00179319
2.67169e-08
1.23858e-07
0.00384974
1.20864e-08
0.00155062
0.00300655
1.40007e-08
0.00319282
1.4454e-08
1.2769e-08
1.78757e-08
1.87127e-07
9.85661e-09
4.63673e-08
5.99879e-09
2.46138e-08
4.81745e-07
1.94904e-08
0.00232334
6.60811e-09
0.00301318
8.315e-10
1.15325e-08
5.30873e-09
0.0023101
8.46886e-09
0.00223802
0.00192374
0.0030969
1.5715e-08
0.00209371
1.44517e-07
2.13083e-08
3.19331e-09
7.90338e-09
1.26917e-08
7.64565e-08
1.4213e-07
2.8475e-07
3.42005e-09
0.00282183
3.2415e-08
1.171e-09
9.60865e-10
4.46512e-09
7.03461e-10
0.00200406
3.56194e-08
0.00294264
2.69636e-08
0.000624959
3.59589e-09
3.6489e-09
0.00176862
0.00346334
6.65899e-08
3.7049e-09
0.00375529
1.56857e-08
1.00238e-09
3.32701e-09
1.31893e-08
6.26531e-10
1.37241e-08
1.53962e-09
1.40925e-08
2.85573e-09
5.9226e-08
2.70274e-08
0.00246218
5.49174e-07
1.0298e-07
1.12192e-08
4.64862e-09
0.0020884
1.39741e-08
0.00298244
4.13746e-08
2.80161e-08
6.66898e-09
6.18092e-09
7.9724e-08
7.42542e-07
0.00129734
0.00121783
7.99262e-09
0.00369089
2.41154e-08
0.00276907
9.03646e-09
2.15487e-08
2.95798e-09
0.0025994
0.00127753
0.000427424
4.48264e-08
2.03144e-09
0.0012897
5.29312e-09
3.33213e-09
8.99765e-09
5.3385e-09
0.00237149
0.00202097
1.78888e-08
3.15363e-08
5.16163e-08
3.89733e-09
3.24305e-06
1.81558e-06
6.17337e-09
2.44195e-08
0.00157766
8.82445e-09
3.1161e-08
1.0875e-09
3.00355e-08
4.51702e-09
0.0022681
4.55786e-09
1.69159e-06
0.000526658
1.03553e-08
6.68968e-09