/*--------------------------------*- C++ -*----------------------------------*\
  =========                 |
  \\      /  F ield         | OpenFOAM: The Open Source CFD Toolbox
   \\    /   O peration     | Website:  https://openfoam.org
    \\  /    A nd           | Version:  10
     \\/     M anipulation  |
\*---------------------------------------------------------------------------*/
FoamFile
{
    format      ascii;
    class       volScalarField;
    location    "115";
    object      T;
}
// * * * * * * * * * * * * * * * * * * * * * * * * * * * * * * * * * * * * * //

dimensions      [0 0 0 1 0 0 0];

internalField   nonuniform List<scalar> 
59698
(
286.621
292.869
293.307
293.544
299.928
283.15
292.522
293.496
303.15
303.15
303.15
293.18
283.15
293.769
300.11
303.15
294.068
293.45
293.176
293.809
303.281
302.121
303.149
303.15
295.685
293.449
293.105
298.34
295.702
295.336
300.291
303.15
303.15
298.822
302.369
293.266
283.381
283.468
293.444
297.58
296.229
283.15
296.57
293.849
283.15
296.594
293.305
295.26
294.642
293.579
293.057
293.341
292.348
294.536
294.386
293.197
294.283
302.178
294.246
282.976
291.248
294.302
299.617
293.204
286.787
294.464
303.15
293.179
293.177
303.15
283.15
293.781
283.136
298.53
283.15
297.756
294.536
287.693
291.645
294.149
299.956
292.582
303.15
293.443
303.698
294.504
294.181
293.555
298.894
293.881
303.15
294.735
298.993
293.539
293.769
293.513
299.071
293.519
298.92
283.15
299.124
283.13
285.894
284.49
293.369
283.15
293.471
293.133
303.15
283.15
293.401
293.654
298.878
283.15
293.42
293.237
293.407
293.419
293.44
303.15
293.253
292.837
293.438
293.292
293.375
293.245
295.476
303.15
293.38
292.889
287.532
292.984
303.15
292.793
290.251
291.652
292.897
303.15
293.125
293.464
293.465
293.765
290.853
292.125
292.908
293.582
293.381
293.387
293.451
301.182
283.138
303.15
288.079
293.27
294.056
293.369
293.309
293.476
296.948
283.15
289.668
293.438
290.775
299.551
297.79
296.667
292.907
280.917
299.358
292.199
300.367
283.151
300.933
300.996
285.549
292.809
303.15
283.239
303.15
298.911
302.764
300.404
298.62
293.241
298.737
300.855
300.761
293.86
292.995
294.718
294.358
293.67
296.603
297.469
299.383
293.59
293.949
296.576
303.155
299.376
283.15
284.151
292.422
292.799
299.289
290.951
297.318
295.415
293.574
298.022
293.137
293.709
299.139
303.15
294.871
293.457
293.279
294.063
297.84
296.002
282.056
296.31
292.638
299.27
295.291
299.324
295.842
291.351
295.613
284.992
283.15
296.172
295.179
295.845
293.43
294.822
295.97
293.736
293.565
295.001
293.236
293.994
289.915
303.15
294.644
293.581
282.929
285.604
293.632
293.303
293.828
294.938
295.143
303.15
293.593
294.744
294.12
295.304
292.851
293.302
303.12
283.15
294.462
294.342
294.821
295.296
292.666
303.15
293.475
293.292
293.327
286.646
303.101
293.309
287.339
293.709
292.905
293.633
294.003
303.15
303.15
292.904
293.338
289.117
295.092
290.701
292.95
303.15
286.05
294.61
301.417
291.283
293.398
293.416
294.888
293.605
292.714
293.622
295.098
292.673
291.44
283.15
283.15
292.611
293.238
293.202
287.82
293.657
294.629
293.06
293.119
293.315
293.373
283.15
293.715
292.673
283.15
293.728
283.15
293.59
293.875
293.383
294.003
303.15
298.303
286.255
294.108
293.715
292.431
283.15
300.173
290.666
298.873
281.57
303.15
293.804
293.698
292.554
298.462
293.826
295.127
295.539
292.633
294.981
298.949
293.307
295.603
301.434
293.732
289.168
292.837
293.043
301.343
303.15
284.214
300.753
302.08
293.328
293.637
303.15
293.3
293.85
303.15
295.004
283.15
283.15
293.553
290.471
293.543
282.756
292.679
283.15
292.738
283.15
296.428
303.15
293.54
292.914
283.15
303.15
283.15
292.713
293.305
293.516
293.506
283.148
293.503
283.15
283.15
293.41
293.819
303.15
294.602
290.764
303.133
301.994
301.789
293.517
292.671
292.793
288.508
295.723
292.732
293.36
293.548
293.482
295.923
293.24
295.684
302.248
297.873
303.15
295.279
303.15
293.442
289.82
292.98
283.575
302.292
302.826
294.384
293.421
290.793
282.001
293.369
293.327
303.15
294.394
293.274
283.15
295.497
302.785
285.302
291.843
287.587
303.15
303.15
298.654
292.864
291.95
283.15
292.189
303.15
293.653
293.149
302.912
294.878
283.15
293.465
299.212
292.736
293.297
294.105
286.313
294.008
293.626
290.646
303.15
284.307
293.325
290.067
293.39
283.965
293.91
303.15
293.569
293.407
291.881
294.113
294.991
295.111
283.15
283.15
283.15
294.051
293.14
302.758
292.126
293.713
294.016
293.381
293.598
293.379
283.15
300.933
293.367
293.505
293.383
291.956
292.875
299.046
290.512
291.386
293.474
292.105
293.488
293.437
293.506
289.573
283.15
283.15
295.179
299.054
294.681
283.15
303.15
293.341
303.15
293.359
290.265
294.708
290.691
283.157
283.15
291.62
293.353
283.15
293.389
283.15
283.15
289.541
293.96
293.396
283.15
283.15
302.996
294.933
292.608
289.846
288.752
293.264
301.477
303.15
293.427
293.56
283.15
283.15
286.368
293.392
303.15
290.011
292.983
293.115
281.275
289.381
291.842
282.235
283.132
290.846
283.147
293.353
303.15
293.476
303.15
292.887
293.312
283.15
295.583
291.515
291.827
283.15
303.15
293.5
283.124
293.32
303.15
286.388
293.343
291.206
303.15
292.068
293.456
283.15
291.898
290.956
293.523
293.093
292.286
295.528
303.15
283.15
293.566
285.285
293.207
292.359
283.15
292.429
293.185
289.741
291.641
291.952
296.415
293.079
293.123
283.15
293.37
303.15
282.782
283.15
283.15
290.923
290.973
283.15
293.461
291.045
291.623
292.896
283.15
291.076
293.319
293.298
292.536
293.303
292.11
291.111
291.143
293.268
297.835
285.64
293.264
283.15
291.152
291.924
302.954
295.263
293.734
290.902
292.231
292.024
292.083
295.599
283.15
293.224
291.364
293.065
292.143
292.076
293.253
293.2
286.911
293.496
292.774
283.15
303.15
292.041
294.041
292.802
293.721
293.66
283.15
283.15
293.171
288.56
291.779
292.001
293.252
293.018
303.147
293.584
292.387
293.669
293.392
291.005
283.797
301.83
291.631
293.689
293.774
291.802
288.933
283.15
293.522
292.813
293.534
292.863
291.682
283.15
295.31
293.225
292.882
292.428
293.517
283.15
283.15
291.896
293.009
291.901
292.955
291.991
295.754
290.797
297.185
293.963
291.73
290.813
293.619
293.624
292.588
283.15
292.871
283.15
283.15
292.549
291.772
293.242
303.15
296.536
293.124
292.09
283.15
293.663
283.15
293.754
283.15
293.441
297.642
289.342
293.162
303.15
283.15
297.842
297.947
293.191
292.062
295.614
297.219
295.515
283.15
296.215
293.303
282.865
283.15
290.55
300.333
283.15
291.068
292.813
303.15
297.638
287.92
293.091
293.822
283.265
297.043
294.59
294.531
283.596
283.449
292.465
286.012
293.061
296.891
293.733
298.121
283.15
292.918
290.234
295.001
303.15
293.417
296.899
283.15
298.215
295.936
292.318
293.833
296.738
293.149
283.15
294.928
294.561
283.15
283.15
292.345
283.15
289.443
293.558
292.41
294.529
294.545
297.346
283.15
293.684
290.472
294.874
295.291
295.318
283.15
284.366
298.821
293.573
288.638
297.671
301.095
293.492
302.771
283.15
283.15
283.15
292.665
292.762
283.15
292.555
293.574
298.046
283.164
292.523
291.713
283.15
282.351
283.15
283.15
292.577
283.15
303.102
298.497
303.15
292.551
284.561
288.6
292.546
282.18
293.471
283.228
283.15
283.15
291.273
294.72
296.695
283.15
295.801
292.656
292.669
283.15
292.654
292.683
283.162
283.15
283.132
283.173
303.15
283.15
283.15
283.15
283.15
291.18
292.952
291.044
283.15
294.639
293.277
283.15
285.387
283.15
292.755
283.15
299.447
295.181
291.976
292.587
292.758
295.898
303.15
295.893
292.891
283.15
292.598
283.149
293.313
283.15
292.046
283.15
284.107
283.15
290.382
283.15
293.505
291.774
294.914
292.688
291.903
292.715
292.101
283.15
283.15
292.708
293.548
293.045
293.216
283.15
294.321
296.329
296.015
283.15
294.113
295.075
293.418
296.743
303.15
283.15
295.887
292.365
283.15
292.946
293.416
283.15
295.882
292.793
293.136
293.578
283.15
293.26
293.338
283.15
303.15
293.038
292.953
292.887
295.902
297.653
293.999
296.705
290.216
294.983
295.619
293.566
291.432
290.744
286.582
292.08
283.15
289.763
283.15
296.542
295.758
291.92
290.3
283.15
283.15
297.549
291.279
290.058
296.138
296.764
293.398
295.39
285.339
293.995
293.187
293.362
283.15
293.38
292.938
293.241
293.065
293.293
293.396
303.15
293.341
293.497
294.478
303.15
293.562
296.67
294.177
293.515
293.857
294.464
295.689
292.888
303.15
303.15
283.15
295.559
283.15
293.57
291.453
302.707
298.56
293.044
295.02
302.154
297.861
294.94
295.856
293.725
293.131
295.694
293.881
290.67
287.756
294.115
283.15
293.136
303.15
283.169
294.723
300.39
294.706
303.15
303.15
292.729
293.39
294.906
292.727
293.007
292.606
283.15
293.74
293.22
298.334
283.15
294.56
295.253
302.796
293.051
293.697
302.791
293.209
293.538
302.799
292.738
294.553
295.192
296.447
295.37
295.987
295.204
293.48
292.911
303.15
295.487
296.535
293.257
283.15
293.209
297.705
293.096
293.628
293.127
295.323
292.795
287.745
294.507
290.784
292.828
303.15
293.57
288.101
283.15
303.15
294.037
294.206
295.975
294.321
289.323
303.15
303.15
293.111
283.15
295.018
294.44
294.311
294.424
293.949
303.15
303.15
284.099
294.311
295.148
303.15
294.082
296.133
303.15
282.451
292.913
283.57
291.987
294.355
292.924
293.208
294.106
303.15
293.782
291.73
293.101
292.934
293.001
293.565
294.389
301.058
303.15
297.244
302.91
293.025
301.658
287.092
291.084
295.271
297.733
297.148
289.456
289.171
293.33
283.15
288.107
292.878
303.15
293.339
300.974
293.13
294.507
294.323
294.94
283.15
302.396
289.61
294.815
294.648
292.521
283.15
303.15
293.515
286.773
283.15
292.944
292.985
294.666
293.476
304.943
293.338
295.047
292.737
295.3
293.404
287.085
294.945
303.15
292.729
292.911
292.918
290.196
293.28
300.817
301.115
293.369
295.896
299.102
302.606
293.686
293.372
293.055
302.58
287.727
300.251
291.913
292.138
295.942
295.797
295.404
293.309
295.261
303.15
286.057
298.844
295.797
293.752
292.99
297.242
293.719
299.008
293.77
293.132
293.663
293.571
303.15
293.363
303.15
292.584
292.865
294.035
292.086
293.175
285.396
292.806
303.15
294.482
291.949
288.949
292.441
293.379
303.15
303.15
293.553
293.425
283.15
303.15
293.133
293.51
294.142
283.15
303.15
292.819
293.319
293.284
292.956
285.264
292.618
283.15
284.965
303.15
293.431
283.15
303.143
303.15
297.274
290.559
293.223
297.377
296.694
292.341
303.15
293.341
293.347
296.92
282.322
296.65
293.037
303.15
293.388
303.15
296.772
284.579
283.15
291.176
297.598
293.492
302.759
297.487
295.753
297.451
291.409
297.622
283.15
283.15
297.486
297.42
294.32
303.15
292.809
291.92
293.736
293.665
294.083
294.364
294.16
293.334
291.255
293.252
300.609
285.598
297.027
303.022
293.205
303.15
294.742
283.15
299.949
303.15
303.15
293.479
283.15
300.651
293.199
283.15
303.15
292.053
292.9
303.15
293.493
291.788
293.096
293.673
302.958
303.15
297.506
293.756
283.15
289.056
292.016
293.171
283.097
303.15
293.121
303.15
293.204
303.15
293.152
297.884
297.781
296.974
297.556
294.289
293.143
286.797
293.748
283.15
292.033
298.051
294.82
296.655
283.15
301.146
293.202
303.15
293.316
297.03
296.293
303.15
303.15
293.282
288.937
287.358
294.299
289.219
289.626
303.15
303.15
283.15
292.113
287.795
303.15
299.752
303.15
287.574
303.15
303.15
303.15
291.7
290.762
299.277
303.15
292.587
292.933
303.15
291.925
287.303
282.684
293.724
283.737
295.846
291.688
292.133
283.311
293.659
292.228
303.15
303.15
285.177
288.647
292.713
283.571
283.278
292.916
289.881
293.123
283.15
295.281
291.707
294.637
287.714
285.227
293.956
303.15
292.174
284.067
290.957
293.999
300.916
291.983
292.389
292.557
293.509
298.102
292.205
292.921
293.496
283.903
286.787
283.757
292.981
284.854
292.867
284.216
303.15
294.038
290.562
288.465
292.585
303.112
303.15
293.393
284.405
294.766
300.639
284.977
285.113
298.427
294.551
284.948
282.316
294.007
303.15
287.368
283.15
283.129
285.156
303.15
297.651
283.152
292.994
303.15
284.929
300.026
303.15
283.15
289.212
295.135
296.489
297.813
283.516
303.15
285.255
291.854
293.361
283.15
293.96
283.15
303.125
293.453
303.15
294.346
293.463
292.607
293.424
293.424
293.573
300.15
298.994
285.917
283.138
299.313
293.6
299.449
303.15
283.15
293.376
296.282
285.773
292.942
292.789
288.105
293.756
293.565
293.152
293.547
293.54
296.749
303.15
293.672
293.546
303.15
288.564
293.574
283.15
288.198
303.15
296.122
293.572
303.15
296.849
302.683
290.216
292.503
286.917
288.126
303.15
283.15
303.15
283.15
283.15
294.164
293.576
283.14
291.9
283.208
303.15
288.302
288.775
287.964
294.283
288.261
294.899
289.062
286.226
303.15
287.416
291.77
292.991
303.15
300.572
292.905
289.595
303.228
303.15
299.158
293.498
290.461
303.15
293.43
290.511
293.501
297.731
297.182
290.166
295.079
303.15
303.15
290.269
290.294
283.929
295.159
283.153
283.575
303.15
283.798
290.224
303.15
283.15
283.005
283.15
290.35
299.823
303.15
290.323
303.15
303.15
283.675
293.805
283.15
283.149
303.15
293.252
292.423
303.15
303.15
291.367
283.127
290.959
303.15
283.139
293.464
290.99
290.991
300.704
283.15
290.994
303.15
294.757
294.263
303.15
303.15
303.15
292.523
283.15
291.124
291.863
303.15
283.14
291.298
303.15
303.15
303.15
292.416
283.15
293.58
283.15
293.787
291.628
283.15
296.132
303.15
283.15
291.547
291.429
291.41
294.109
283.15
293.469
291.777
291.822
293.857
283.14
283.15
303.15
283.15
283.15
283.15
292.967
303.15
293.618
294.238
303.15
285.311
293.664
293.198
293.483
292.945
293.562
297.182
292.992
296.723
295.933
292.533
293.474
292.955
292.189
292.276
293.48
292.184
298.963
293.64
287.273
293.245
304.96
284.024
292.367
300.346
283.134
293.553
291.725
303.15
294.389
296.497
295.236
292.627
301.438
296.227
292.197
298.94
293.103
302.822
297.665
300.376
292.316
285.249
294.217
289.329
294.342
295.909
297.481
292.776
296.666
283.15
293.222
294.749
292.785
283.143
299.539
293.015
288.101
293.089
283.15
297.878
293.709
283.15
293.605
292.485
292.976
295.058
283.15
293.106
298.438
293.737
300.33
292.886
294.444
292.871
293.626
298.447
291.681
292.485
284.624
293.492
292.674
293.361
283.15
303.15
292.479
297.125
298.064
301.57
283.46
292.499
292.851
293.564
292.405
292.398
303.151
291.676
293.652
292.542
283.139
292.591
292.57
292.801
301.991
293.903
292.683
303.187
293.705
293.172
283.15
299
292.838
302.103
302.825
294.643
292.768
293.239
292.054
293.427
292.683
293.537
283.15
293.224
292.676
295.154
302.942
293.046
288.179
293.001
298.908
293.006
283.158
293.132
292.334
293.464
292.698
295.254
293.324
302.926
293.266
292.683
291.266
298.23
302.943
293.279
292.715
292.742
298.505
294.065
294.315
288.184
289.74
293.349
294.455
289.084
294.122
292.918
289.336
302.814
292.835
293.353
289.438
293.385
293.3
294.015
299.701
292.778
294.597
292.218
293.466
292.811
293.135
292.791
295.053
287.189
298.569
299.513
289.327
293.072
293.175
294.787
295.974
293.358
292.771
293.336
298.714
285.524
293.078
292.927
292.821
292.812
292.82
296.201
288.002
296.576
293.336
292.863
293.168
299.563
303.15
293.415
292.858
292.994
296.954
293.403
299.683
292.872
293.412
292.855
292.859
299.644
293.627
292.894
301.301
292.079
283.15
293.16
294.344
292.004
289.349
293.416
303.15
294.298
301.439
293.457
293.191
292.89
283.15
293.296
301.37
287.255
290.348
292.986
283.15
283.227
295.977
293.134
283.15
298.921
291.968
290.404
290.571
283.15
303.15
298.535
293.43
294.385
295.705
295.031
301.378
293.37
301.18
295.292
293.019
292.081
303.15
293.612
300.05
295.459
295.698
291.921
302.833
286.648
295.645
293.886
292.405
296.217
295.415
283.15
291.135
292.622
295.755
294.104
293.07
293.358
292.658
296.434
296.077
295.216
296.197
294.307
295.751
294.788
292.94
291.997
295.614
295.817
296.779
300.254
297.334
297.453
297.952
301.229
293.071
303.146
283.144
290.483
283.15
292.64
301.78
303.554
295.261
303.01
303.129
291.143
283.15
292.11
292.665
290.854
293.136
300.592
283.15
291.104
303.15
293.065
293.482
293.616
301.073
295.241
293.165
302.011
294.058
289.247
302.276
286.675
295.417
291.737
292.616
294.62
300.56
302.96
293.229
289.823
289.038
294.073
295.287
294.65
295.881
292.847
293.226
292.55
294.211
294.251
295.785
291.133
292.942
292.972
293.771
292.976
293.431
290.952
294.068
292.898
292.179
293.345
293.403
294.701
293.337
293.348
293.549
286.562
302.167
291.948
299.933
296.657
294.702
292.823
295.964
303.15
293.176
293.14
292.954
295.295
296.771
295.479
294.343
298.687
288.438
293.319
283.142
292.921
291.362
291.603
293.349
293.349
292.671
293.355
296.162
297.863
300.893
295.604
294.84
293.512
292.831
293.846
295.387
293.746
295.511
294.697
289.674
293.413
295.69
300.951
296.705
293.435
303.15
292.584
295.695
293.366
294.716
283.15
293.638
292.379
293.479
290.614
292.994
293.64
293.602
292.92
293.277
295.197
293.16
295.385
290.864
292.434
293.632
283.15
293.637
292.26
293.736
293.57
295.105
295.188
293.166
293.157
295.48
293.016
292.992
296.65
296.179
293.433
297.929
292.879
293.912
293.365
293.694
293.67
292.316
296.018
293.076
296.426
295.431
294.961
299.988
292.901
296.158
295.107
296.788
295.657
293.662
292.866
293.028
292.97
292.815
293.413
303.15
294.007
289.359
283.15
283.15
292.507
292.94
293.223
299.282
292.978
292.901
293.55
293.786
292.916
292.615
292.832
300.844
286.35
287.373
293.279
293.894
293.731
292.938
294.222
292.822
283.15
292.97
291.736
295.919
293.281
293.196
292.71
284.189
288.499
292.317
294.621
293.443
293.312
303.15
293.169
293.611
293.773
293.252
292.015
292.973
293.164
293.495
303.15
287.169
291.352
293.438
293.292
293.652
292.018
293.513
291.374
290.5
283.15
283.15
294.588
293.408
291.669
294.16
293.509
291.61
293.116
293.614
293.098
303.15
283.41
292.812
293.591
290.628
292.72
295.861
293.203
292.066
285.201
292.973
289.285
295.579
291.023
293.908
302.021
294.389
293.607
283.15
294.28
293.174
296.901
293.817
300.492
291.954
301.247
292.647
297.604
292.808
294.612
293.399
293.751
293.438
293.946
295.03
292.918
293.412
293.366
292.992
293.458
292.197
292.988
293.459
293.456
293.46
292.77
292.069
299.344
293.968
293.885
283.15
283.15
291.125
292.774
294.357
294.574
294.048
291.618
292.198
293.624
292.324
294.093
289.77
292.8
292.177
292.132
292.797
292.992
293.604
290.944
293.092
302.662
290.514
292.682
296.796
293.349
285.561
293.404
298.653
303.389
296.195
293.645
293.175
293.117
298.421
293.783
290.078
292.88
293.941
286.387
285.993
292.732
292.756
293.283
292.94
294.03
293.387
292.771
293.741
293.554
293.045
294.728
294.949
293.374
292.26
292.251
293.064
293.691
293.711
293.383
292.732
292.941
293.271
293.265
293.394
292.939
303.15
303.15
292.775
291.99
295.689
293.268
292.881
293.103
297.011
293.317
291.97
293.538
293.509
291.247
290.807
292.799
290.87
292.733
293.68
292.616
295.404
295.467
293.308
294.525
294.509
293.761
292.727
303.242
293.155
303.15
292.834
291.764
292.738
296.102
292.963
293.377
293.15
292.605
291.127
294.382
294.512
283.15
303.15
282.891
292.772
301.987
284.046
303.15
293.364
300.879
294.274
283.15
291.754
293.048
292.883
293.045
303.15
303.15
293.354
283.15
296.67
293.32
295.56
294.345
294.944
293.901
292.697
296.771
293.282
283.15
300.781
303.15
303.15
297.708
293.862
294.849
294.732
293.015
283.15
300.951
292.103
293.209
291.236
291.783
303.15
293.165
292.949
293.211
291.014
292.793
300.841
292.805
292.666
292.655
294.445
292.199
292.682
283.15
292.165
293.717
292.685
296.702
301.953
302.712
293.578
295.797
293.647
293.21
291.447
292.104
300.577
293.038
283.15
291.818
290.467
290.342
290.516
291.802
290.477
283.15
303.15
297.13
293.292
292.498
295.1
291.547
297.941
283.146
293.496
283.66
293.456
293.464
292.988
293.294
293.357
293.349
292.174
294.947
303.15
295.674
284.941
292.899
297.802
298.036
293.77
292.088
293.352
298.075
293.374
296.177
293.419
292.441
298.674
292.779
294.565
298.117
294.132
296.546
293.866
293.35
293.352
296.992
293.301
293.053
291.939
292.562
293.08
293.302
292.75
291.935
291.516
291.253
293.717
295.863
292.069
283.15
292.532
293.42
291.861
299.688
291.872
294.095
286.321
291.134
290.761
292.062
293.865
292.802
293.495
292.375
293.396
292.744
293.2
283.15
290.827
293.396
296.851
292.612
296.33
294.095
295.964
297.505
295.578
287.434
297.248
294.005
295.383
293.2
294.175
297.505
292.76
292.607
293.416
292.773
290.56
294.811
293.355
293.841
293.571
283.15
290.079
292.471
293.606
293.401
293.169
293.276
292.306
293.099
293.712
293.275
295.597
298.739
292.844
302.763
301.078
303.15
293.804
294.233
293.402
295.416
293.445
295.138
293.736
293.675
292.105
302.513
283.15
298.129
290.014
294.427
292.759
300.333
292.96
288.34
300.867
287.183
290.683
290.296
292.99
283.119
291.998
289.967
282.401
293.564
293.486
293.611
296.769
292.321
284.907
291.401
302.417
292.654
292.3
297.374
303.185
293.035
291.65
294.874
290.942
292.732
293.497
293.224
284.319
293.246
294.576
293.099
293.175
291.424
293.448
293.841
293.039
292.965
293.588
300.293
293.151
293.538
293.597
294.658
300.416
290.235
293.59
292.965
298.932
293.376
292.402
293.477
283.222
283.15
297.224
293.226
285.06
297.045
283.143
291.985
292.086
298.609
293.577
292.452
290.676
293.317
283.15
283.149
292.381
293.225
282.637
291.913
292.099
292.433
303.151
293.612
293.216
293.67
285.988
293.089
292.385
292.094
297.342
285.994
283.741
293.365
284.415
283.287
293.775
293.675
293.806
292.322
284.348
293.842
293.376
289.46
297.41
287.161
291.302
291.968
293.571
295.701
292.824
296.349
293.144
293.339
293.357
296.775
292.734
303.15
287.471
295.003
285.597
293.84
285.806
292.045
296.628
288
293.076
303.15
286.252
292.077
288.236
285.274
285.175
290.772
285.466
288.56
291.907
294.532
295.588
292.6
289.256
294.609
294
293.046
294.637
293.005
293.062
293.931
288.535
299.561
288.967
288.388
287.419
292.953
286.463
302.408
291.906
295.179
292.972
293.45
294.838
291.015
291.254
293.361
293.456
295.852
283.15
292.508
291.779
293.251
283.15
283.15
302.587
296.428
286.892
293.376
293.616
294.454
293.926
303.104
283.15
292.347
293.456
294.411
292.46
292.744
293.443
292.133
284.087
299.055
291.815
293.567
291.556
293.93
290.924
293.926
300.076
292.614
299.594
291.836
299.152
299.228
302.344
302.079
299.497
299.686
299.54
289.056
293.377
292.458
291.827
292.88
288.852
293.544
294.177
290.624
292.553
285.593
292.304
292.824
291.586
290.023
293.517
291.232
301.029
293.608
299.96
301.462
289.118
293.458
293.755
291.982
290.315
299.046
290.776
292.416
293.639
292.126
283.15
292.03
292.1
293.183
293.889
292.968
292.122
290.844
292.779
290.851
292.178
293.902
293.115
292.83
292.12
297.39
293.439
291.736
293.319
292.636
292.185
295.936
283.15
292.866
293.087
292.13
293.626
290.961
293.085
292.853
293.007
301.888
302.253
294.632
293.48
301.1
304.626
292.447
302.211
302.155
293.47
292.457
292.987
293.157
302.347
294.183
292.906
293.12
302.346
293.525
293.69
292.608
292.479
292.781
294.118
293.207
303.081
293.485
296.169
292.787
292.505
292.551
292.544
293.104
292.496
290.52
292.511
293.152
293.049
293.034
294.124
293.049
299.281
292.821
292.67
293.22
287.057
301.446
293.437
301.102
291.145
300.532
293.208
301.546
283.15
298.685
293.283
290.917
290.403
296.689
298.656
297.845
294.227
292.807
293.571
300.222
292.813
291.797
298.938
292.834
283.151
292.944
284.221
299.033
287.918
299.05
291.658
293.103
293.783
295.785
293.199
293.253
292.674
296.741
289.174
295.222
292.976
297.347
292.86
292.882
298.133
297.084
291.273
291.792
297.144
290.266
287.457
297.547
298.82
303.15
292.208
285.575
293.558
304.302
291.274
287.618
296.078
283.15
296.477
283.15
291.654
294.766
297.498
293.028
292.291
293.739
292.175
292.23
293.894
294.096
301.82
283.15
296.487
286.157
297.299
292.653
294.452
292.66
301.913
294.085
295.008
294.901
288.698
295.598
300.136
292.675
292.647
293.462
293.612
299.375
296.643
292.565
292.557
290.75
292.794
294.539
294.229
303.144
295.585
295.694
290.644
299.182
290.291
293.489
303.15
293.352
283.15
293.307
293.317
286.947
294.94
292.374
293.182
292.324
291.102
283.15
293.514
287.951
292.804
294.377
291.287
292.806
289.726
293.408
298.273
295.803
300.582
291.78
293.4
293.017
294.071
284.601
296.429
297.111
292.207
296.632
293.73
296.613
297.103
300.251
295.157
294.382
290.563
292.72
292.736
303.106
303.15
292.878
295.388
290.323
293.447
292.979
303.15
303.15
293.945
294.79
293.442
295.099
295.233
287.265
295.089
294.703
295.179
295.235
295.835
289.762
291.714
292.532
298.64
293.481
293.975
293.037
292.967
302.508
290.592
293.619
292.561
294.033
292.964
283.15
292.827
292.348
292.963
293.99
291.645
293.243
302.719
293.252
293.246
298.256
295.639
303.15
288.095
297.62
300.9
293.645
292.391
295.834
295.99
293.489
294.073
293.255
294.734
292.653
292.947
291.694
296.368
292.356
293.71
297.258
293.395
297.041
293.497
292.401
293.086
293.106
293.451
294.056
295.57
295.033
293.493
300.806
295.224
292.184
292.245
293.244
293.378
293.272
293.1
292.348
289.488
293.281
291.997
303.15
293.493
293.549
294.246
294.707
292.805
293.259
302.509
295.144
297.43
289.87
289.8
293.275
293.465
293.789
293.697
294.154
290.415
293.449
293.29
293.341
292.914
293.004
293.459
293.353
292.958
294.273
295.604
285.175
291.737
291.993
294.498
294.384
293.146
295.974
295.667
295.903
295.668
295.003
295.665
293.419
295.397
295.333
290.223
292.136
291.502
295.212
293.123
294.781
293.028
302.963
294.676
295.688
296.866
285.485
295.172
290.263
285.422
293.311
290.274
293.734
292.034
282.85
293.296
295.034
292.765
292.884
300.069
297.321
283.146
297.868
292.748
300.961
290.299
293.523
293.243
293.579
301.328
296.123
293.604
291.78
295.25
293.154
283.15
294.646
292.584
293.591
293.081
295.625
292.576
293.196
292.314
293.255
293.674
291.948
295.03
292.804
290.91
293.24
293.396
291.121
293.484
290.422
289.477
292.984
296.969
293.222
297.629
286.653
293.322
299.371
290.196
293.372
303.199
293.393
292.771
293.293
294.596
293.039
283.15
289.772
293.35
293.144
294.367
292.629
290.819
291.366
287.301
290.091
297.477
295.797
293.54
297.283
283.592
292.694
288.661
303.15
297.6
293.006
292.282
292.77
294.258
293.11
294.305
292.827
298.151
290.134
303.15
290.13
289.598
287.552
289.975
289.549
291.99
286.344
303.15
292.122
289.719
286.582
292.772
292.837
292.436
293.043
289.995
296.716
293.362
293.244
292.812
293.843
293.767
301.588
292.632
288.66
292.76
293.504
296.617
292.544
294.98
293.391
300.898
292.987
292.828
294.083
293.363
293.877
286.233
295.419
293.769
295.912
293.477
293.826
293.605
302.45
293.041
293.371
295.441
303.115
293.147
294.447
283.15
293.825
296.743
289.412
293.3
291.566
293.658
295.697
293.554
293.88
295.7
294.577
296.621
293.322
293.732
292.996
293.654
303.15
293.604
293.345
293.567
292.847
293.724
293.283
292.981
292.645
287.504
283.186
292.539
293.898
293.072
293.68
290.309
294.443
293.666
293.455
292.83
293.314
293.212
293.271
292.976
292.976
292.975
294.286
293.333
293.403
293.127
294.408
292.365
298.838
290.601
293.749
296.544
293.658
293.778
296.895
297.081
296.912
293.346
292.75
291.795
292.287
293.659
292.91
297.208
287.573
301.635
293.571
292.285
293.775
293.101
292.925
291.73
291.548
293.334
291.698
292.807
293.589
287.028
294.357
288.476
295.19
292.988
292.011
293.542
293.205
293.024
283.15
283.15
292.893
290.048
296.736
293.08
293.184
293.037
292.991
293.206
290.963
296.125
293.561
291.735
283.15
293.705
293.593
291.634
290.996
286.706
287.818
288.538
291.266
291.323
297.694
294.16
294.193
294.443
300.988
285.03
295.93
294.456
285.056
284.937
293.019
293.201
290.689
291.433
296.451
293.161
283.15
291.204
293.437
297.51
285.023
293.646
291.135
295.809
296.951
289.223
292.231
293.934
300.239
293.377
301.684
294.033
292.72
292.561
293.825
293.449
294.118
291.094
293.667
284.093
291.122
293.643
292.663
294.004
293.472
293.004
293.337
293.484
293.717
292.341
293.037
283.714
292.132
293.159
293.943
293.629
284.782
292.07
293.449
283.15
293.384
294.18
294.107
293.485
293.376
293.753
293.202
293.67
301.231
283.573
292.911
288.403
283.15
293.535
288.452
293.535
293.434
293.874
283.15
293.071
293.246
293.303
283.15
293.906
293.236
293.439
292.896
293.818
286.96
293.967
293.467
293.376
293.319
292.784
293.966
292.788
294.095
283.15
293.356
292.961
293.418
293.228
294.244
293.186
293.874
293.721
287
293.672
293.443
294.578
294.164
294.019
294.107
294.467
293.462
290.615
294.085
293.623
292.171
294.141
293.775
294.203
293.399
302.496
294.506
295.229
297.197
293.363
295.384
293.392
292.84
283.15
293.666
293.341
295.684
293.322
291.747
296.671
293.529
290.917
298.88
292.078
291.805
290.552
290.809
294.233
292.68
292.627
293.451
283.15
293.318
292.678
292.591
292.607
292.606
292.519
293.395
293.638
293.764
293.342
293.662
293.748
293.478
293.341
293.156
292.219
292.816
293.474
292.424
292.488
293.467
293.088
293.384
295.007
292.968
292.64
294.63
294.113
293.609
294.377
292.64
293.645
293.576
293.72
293.45
284.885
293.72
292.79
292.965
292.902
283.724
293.207
293.32
283.216
284.918
283.15
293.401
293.449
283.746
293.165
293.121
283.15
284.998
290.1
293.367
293.457
292.738
293.8
294.095
294.194
294.096
294.114
294.163
293.272
293.418
293.35
285.297
293.469
289.572
285.501
285.342
290.978
293.997
293.651
293.29
294.118
294.046
294.463
292.975
290.277
293.521
293.588
293.664
291.618
294.141
293.391
293.61
294.291
293.889
293.501
293.625
294.037
293.478
291.418
293.592
293.367
293.836
294.355
293.048
293.593
283.15
292.661
293.152
293.341
293.492
290.626
293.972
292.307
289.99
293.414
293.606
293.165
292.67
288.735
291.641
289.234
301.695
295.523
289.027
293.264
292.797
296.053
293.459
292.966
290.261
293.127
289.023
293.44
291.68
293.279
296.349
288.941
303.15
293.521
293.384
294.049
288.74
295.602
291.085
293.787
290.806
290.978
300.446
283.21
290.837
295.201
293.573
293.784
293.524
290.597
294.366
293.774
293.093
293.62
291.43
293.563
289.682
291.998
293.976
283.15
284.896
289.158
291.542
293.796
291.372
292.735
292.616
292.635
293.569
285.767
287.988
292.509
293.686
293.701
294.262
303.15
292.61
293.655
296.847
303.15
288.265
293.287
294.028
293.275
290.42
291.73
292.653
288.984
294.027
292.687
285.251
295.335
283.15
293.666
293.24
293.585
293.443
293.553
294.198
293.55
293.764
293.142
293.869
299.043
292.604
292.03
292.15
294.9
292.313
292.775
286.517
293.017
294.089
292.391
303.15
293.625
293.611
283.195
292.35
293.228
293.522
291.238
293.422
293.102
293.055
293.843
293.441
294.737
293.442
292.664
291.901
293.305
291.785
293.437
293.56
293.591
293.422
294.368
293.427
293.968
293.315
294.054
293.955
294.062
293.122
293.08
293.211
292.326
293.73
293.46
288.341
298.848
293.882