/*--------------------------------*- C++ -*----------------------------------*\
  =========                 |
  \\      /  F ield         | OpenFOAM: The Open Source CFD Toolbox
   \\    /   O peration     | Website:  https://openfoam.org
    \\  /    A nd           | Version:  10
     \\/     M anipulation  |
\*---------------------------------------------------------------------------*/
FoamFile
{
    format      ascii;
    class       volVectorField;
    location    "115";
    object      U;
}
// * * * * * * * * * * * * * * * * * * * * * * * * * * * * * * * * * * * * * //

dimensions      [0 1 -1 0 0 0 0];

internalField   nonuniform List<vector> 
59698
(
(0.584685 0.00595825 -0.00173156)
(0.564785 -0.00115191 -0.000861484)
(0.566516 -0.000687456 0.00170069)
(0.578784 -0.00342896 -0.00126593)
(0.562999 0.00079036 -0.00295758)
(0.197723 0.198055 -0.00634465)
(0.566923 0.000236372 0.000405945)
(0.564028 0.00085288 -0.000294516)
(0.199877 -0.199527 -0.00042451)
(0.201226 -0.20079 -1.80856e-05)
(0.20037 -0.198721 -0.000624348)
(0.567009 -0.000304154 -0.000407631)
(0.199805 0.200487 -0.000570955)
(0.56161 -0.000763129 -0.000191321)
(0.562069 0.00112687 -0.00259078)
(0.203961 -0.197111 0.00181791)
(0.564676 0.000134285 0.000202328)
(0.566069 -0.00125807 0.000386301)
(0.567633 -0.000510756 0.000300135)
(0.567344 -0.000371065 -8.01576e-05)
(0.142927 -0.100078 -0.0248535)
(0.536209 -0.0014471 -0.00280455)
(0.265099 -0.173086 -0.00734315)
(0.198823 -0.199921 -0.00136796)
(0.570377 0.000653554 0.00103197)
(0.566222 -0.00115536 0.000433)
(0.566468 -0.000345642 -0.00042355)
(0.557297 -0.000196683 -0.00122368)
(0.570322 0.00127753 0.000897603)
(0.572448 -0.000462539 0.000439838)
(0.548144 -0.000337218 -0.000388356)
(0.198527 -0.198576 -0.000187311)
(0.201165 -0.197943 0.00230673)
(0.559779 0.00124214 -0.000859814)
(0.549106 0.0114589 -0.00748082)
(0.566731 -0.000913454 -0.0003836)
(0.274979 0.0657992 -0.0384829)
(0.539487 0.000707498 0.000121034)
(0.561695 0.000131936 0.000560206)
(0.568103 0.00146687 -0.00273575)
(0.563912 0.000428401 -7.81544e-05)
(0.1949 0.197809 -0.00173681)
(0.562393 0.000584411 -0.000594432)
(0.563702 0.000443703 0.000106787)
(0.196728 0.199571 -0.000252602)
(0.56091 0.00366984 0.0051422)
(0.56706 -0.000861983 0.000370596)
(0.561581 -0.000324011 0.00148503)
(0.562936 0.000329424 0.00087657)
(0.565361 -0.000698054 0.000231005)
(0.567926 0.000157434 -0.000168594)
(0.566894 -0.00087031 0.000348253)
(0.566564 -8.54175e-05 -0.000781526)
(0.560449 -0.000163146 0.000451259)
(0.572408 0.00292584 0.00103345)
(0.567403 -0.000516753 -0.000142327)
(0.562754 -0.000992053 0.000604645)
(0.5247 -0.00189572 -0.000258496)
(0.564637 -0.000786345 -0.000385476)
(0.267992 0.121043 -0.0188988)
(0.559161 0.00459606 -0.00252958)
(0.564616 0.00135097 0.000529336)
(0.577862 0.0147474 0.00650626)
(0.567578 -0.000559446 0.000378722)
(0.561826 0.000239562 0.000723344)
(0.561393 0.000191825 0.00206275)
(0.199519 -0.199947 -1.24044e-05)
(0.567123 -0.000560366 -0.000630497)
(0.566976 -0.000464854 -0.000636051)
(0.199516 -0.199211 -7.82814e-05)
(0.20909 0.182322 -0.00792224)
(0.565288 -0.000733508 1.79769e-05)
(0.166558 0.118512 -0.0341155)
(0.593005 -0.0120793 0.0200089)
(0.202915 0.203536 -0.000368722)
(0.590064 -0.0248476 0.0215411)
(0.561149 0.000257875 0.000989634)
(0.561035 0.00024927 -0.00163128)
(0.566859 0.000818017 -0.00063649)
(0.571457 0.00154559 0.000129339)
(0.552672 -0.00186291 -4.11565e-05)
(0.567923 0.000240013 -0.00012184)
(0.201246 -0.200762 -5.44596e-05)
(0.565107 -0.000732068 0.000601204)
(0.400096 -0.103736 0.0150909)
(0.562812 0.000190967 -9.55806e-05)
(0.563148 -0.00123028 0.0016261)
(0.557674 0.000486004 0.00714723)
(0.56191 0.00136016 0.000979995)
(0.560503 -0.000173255 0.00159192)
(0.199535 -0.199172 -0.00016302)
(0.560432 0.000899773 0.000574052)
(0.560787 -0.000531502 0.00165434)
(0.565875 -0.000342096 0.000399225)
(0.56154 0.00116883 0.000998221)
(0.563532 -0.00368316 0.00128577)
(0.558556 0.000669997 0.00121923)
(0.562345 0.00054266 0.000561136)
(0.559165 0.000635492 0.00122489)
(0.199678 0.200038 -3.329e-06)
(0.556308 0.00151915 0.000829957)
(0.567502 0.00521602 0.00629769)
(0.562993 1.90306e-05 0.000218852)
(0.563027 -0.00167685 -0.0045343)
(0.567146 -0.000570408 0.000861021)
(0.198838 0.198575 0.000131148)
(0.56544 -0.000999235 0.00060897)
(0.567254 -0.000352931 -0.000409307)
(0.200743 -0.200886 -6.22342e-05)
(0.199793 0.199688 -0.00037101)
(0.56633 -0.00076651 -0.000341111)
(0.570367 -0.0104675 -3.5268e-05)
(0.56171 0.00138025 0.00156061)
(0.200896 0.198779 -0.000337482)
(0.561057 -0.000136849 0.000250459)
(0.567445 -4.28928e-05 0.000153963)
(0.567172 0.00135251 -0.00137119)
(0.565189 0.00306379 0.00077623)
(0.563746 -0.000836744 0.0020518)
(0.200899 -0.200447 0.000443037)
(0.56565 -7.1161e-05 -2.17534e-05)
(0.558255 -0.00636741 -0.00376793)
(0.56315 -0.00497684 0.00572322)
(0.564552 -6.72262e-05 0.000122936)
(0.564029 0.000122965 0.000200197)
(0.566041 -0.000321132 -0.000140809)
(0.565942 -6.76661e-05 -0.000516657)
(0.199564 -0.199513 0.000486132)
(0.562041 -0.000618721 -0.000192364)
(0.567541 0.000318216 -0.00199283)
(0.567356 0.000340079 0.000569187)
(0.567219 -0.000177696 -0.00107661)
(0.201402 -0.200546 -1.26111e-05)
(0.579347 0.00687251 0.000409018)
(0.572795 -0.000134761 0.000146576)
(0.568491 -0.000185855 -0.000183729)
(0.569801 0.00383406 -0.00108802)
(0.201046 -0.20069 0.00030782)
(0.567412 -0.00035325 -0.00027008)
(0.568537 -1.68114e-05 -0.000354087)
(0.565297 -0.000271459 0.000883164)
(0.562621 0.00317314 -0.00101315)
(0.566088 -0.000851139 -0.000465389)
(0.5674 -0.000332094 -0.000308425)
(0.566014 0.00220267 -0.00044963)
(0.567418 -0.000273445 2.12266e-05)
(0.563624 -0.0039508 0.00030262)
(0.566472 -0.00372056 -0.000532846)
(0.562338 0.000381363 0.000899737)
(0.552254 -0.000215995 4.34426e-05)
(0.408632 0.144158 0.0731592)
(0.2002 -0.199654 0.000118162)
(0.562144 -0.00010752 7.48393e-05)
(0.556577 -0.0021798 -0.00379734)
(0.56311 -0.000284592 -0.00018776)
(0.560673 0.000199764 -0.00046401)
(0.566471 -0.00105456 -0.000263365)
(0.558784 -0.000967411 0.00305523)
(0.563544 -0.000287211 -0.00035664)
(0.199706 0.19954 -0.000113932)
(0.564889 0.000102753 0.00017428)
(0.562821 -0.00037539 0.000241134)
(0.567893 -0.000617022 -0.000239192)
(0.554696 0.00186333 -0.00111384)
(0.562865 -0.000520009 -0.000207822)
(0.566833 -3.09016e-05 -0.000238679)
(0.56703 -0.000203442 -0.00069079)
(0.412256 0.086999 0.00614962)
(0.554762 -0.000550503 -0.000403098)
(0.567032 -0.000133131 -0.000505039)
(0.559333 0.00178832 -0.00253801)
(0.210932 0.173761 0.000749204)
(0.553155 0.00141105 -0.00217585)
(0.552687 0.00131044 -0.00209972)
(0.578376 0.00132741 -0.0054812)
(0.5625 0.000269986 0.000357366)
(0.199574 -0.198906 0.000796525)
(0.538386 0.00502694 0.00298242)
(0.198956 -0.197825 -0.00579262)
(0.562011 0.000601692 -0.000504316)
(0.510521 -0.00192179 0.00521995)
(0.548404 -0.000516725 -0.000532275)
(0.562677 0.000413812 -0.000991455)
(0.565398 1.07863e-05 -0.000263196)
(0.564577 0.00057556 -0.00083371)
(0.543586 -0.00032172 -0.000329096)
(0.543526 6.31973e-05 -0.000914098)
(0.559559 0.00373511 0.00123242)
(0.566673 -5.18111e-05 0.000162267)
(0.563911 0.00151382 0.000724382)
(0.561589 0.000224392 0.000717323)
(0.562579 -0.000322334 0.000623143)
(0.562834 0.000555621 0.000505258)
(0.561867 -0.000381609 -0.000498789)
(0.554582 0.000274897 -0.000440408)
(0.557242 0.00328807 0.000813581)
(0.576607 0.00576984 -0.0138915)
(0.575755 0.00376321 -0.00218322)
(0.15223 -0.143986 -0.0194972)
(0.554221 -0.000540775 9.49847e-05)
(0.203036 0.205888 0.00272044)
(0.546002 0.000553416 0.000865202)
(0.573209 0.000361885 0.000270248)
(0.566601 -0.000372792 -0.000488825)
(0.552865 0.000956537 0.00113631)
(0.566786 0.000155898 0.000157388)
(0.563925 0.000387786 -0.000758818)
(0.55713 -0.00209259 0.00125894)
(0.554558 0.0115106 0.00047375)
(0.56233 0.000305124 -0.000196504)
(0.566008 0.000190847 0.000208278)
(0.564891 0.000213174 0.000470714)
(0.554729 0.000440205 0.00221292)
(0.199004 -0.197044 -0.00110269)
(0.565303 -0.000275334 -0.000190159)
(0.56006 0.000616206 -0.000139916)
(0.566177 -0.000786797 5.04211e-05)
(0.560981 -0.00061936 -0.00185599)
(0.561533 -0.000677044 -0.00017069)
(0.56493 0.00050489 -0.00059488)
(0.581983 0.024635 0.0226649)
(0.563831 -0.000264936 0.000351108)
(0.565027 4.29245e-05 0.000105859)
(0.556999 0.000935606 0.00287608)
(0.565098 -0.000402224 -0.000234131)
(0.553681 0.00260642 0.00294473)
(0.56436 5.09747e-05 -7.04468e-05)
(0.56605 0.000585444 -0.000493545)
(0.577992 0.00284086 -0.000877103)
(0.593225 0.0124145 0.00975872)
(0.199024 0.198601 -0.000392417)
(0.563334 1.05133e-05 0.000455993)
(0.565714 0.000394629 9.71041e-05)
(0.56446 0.000122371 -0.000356929)
(0.563561 -0.000541264 0.000474406)
(0.567921 -0.000482906 -1.84955e-05)
(0.565014 0.00161604 0.00153327)
(0.564064 0.000334355 0.000182142)
(0.558514 0.00136986 0.00348636)
(0.562143 -0.000907282 0.000488767)
(0.564872 -0.000211088 -8.15877e-05)
(0.563766 -0.00122484 -0.000499824)
(0.570463 6.75338e-05 -5.85945e-05)
(0.197427 -0.19788 0.0033443)
(0.566666 -0.000293424 -5.46715e-05)
(0.564052 0.000205861 0.00389817)
(0.582439 0.00508389 0.0162732)
(0.591275 -0.00756195 0.0127756)
(0.566261 2.96189e-05 0.000154073)
(0.567015 -0.000820275 0.000426011)
(0.561338 0.00108154 0.00401616)
(0.562576 -0.000464947 0.000424166)
(0.563404 0.00101839 0.000867319)
(0.198216 -0.193517 0.00312051)
(0.566484 -0.00138649 -9.66011e-05)
(0.563348 0.000341681 0.000421725)
(0.560511 0.0021075 0.000596795)
(0.561255 -0.000672501 0.000597522)
(0.566137 -0.000483175 -0.00012472)
(0.565002 -0.000164606 -3.4081e-05)
(0.201556 -0.109005 -0.00124025)
(0.200402 0.200055 0.000133877)
(0.563526 -0.000939996 0.000583169)
(0.559877 0.000582042 -0.00116767)
(0.5581 -0.00144474 0.00230453)
(0.586962 0.00752221 0.00245004)
(0.565415 4.1356e-05 -4.95425e-05)
(0.196931 -0.198413 -0.0016046)
(0.565464 -0.00117402 0.000418853)
(0.564885 -0.000183251 -0.000147318)
(0.566643 -0.00097996 -9.34121e-05)
(0.563118 -0.00126436 -0.000737428)
(0.545892 -0.11815 0.0771961)
(0.56476 -0.000127807 -0.000237848)
(0.565043 -0.000278776 5.40131e-05)
(0.557601 0.000377828 0.00141022)
(0.56491 -0.00164671 -0.00373723)
(0.564273 -0.000619226 0.00150029)
(0.570062 0.000246834 0.000195807)
(0.200811 -0.200142 0.000134087)
(0.19599 -0.195353 0.00168454)
(0.567554 7.32403e-06 -2.85456e-05)
(0.567035 -0.000893737 0.000491666)
(0.58157 0.00204964 0.00127903)
(0.587067 0.00645507 0.000885551)
(0.577917 -0.00118377 0.00145611)
(0.566056 -0.000292903 -0.000690845)
(0.299296 -0.213259 -0.018785)
(0.574353 0.00134992 0.000504574)
(0.563412 0.00229893 0.00301284)
(0.586113 0.0174525 0.000931754)
(0.567497 0.000353432 0.000316626)
(0.565282 -0.000874018 0.000551644)
(0.567005 -0.00100332 0.00016222)
(0.569799 -0.00107479 0.000839237)
(0.560539 -0.00149904 0.00072757)
(0.568324 -0.000254762 -0.000627652)
(0.568043 0.00157572 -0.000594276)
(0.565026 -5.1795e-06 -0.000141204)
(0.562992 0.00118734 0.00367211)
(0.566214 0.00163687 -6.20756e-05)
(0.19872 0.198928 -9.72472e-05)
(0.195968 0.197806 0.00149932)
(0.567154 -0.00016583 -0.000404173)
(0.567241 -0.000475512 -0.00016148)
(0.567044 -0.000209551 -0.000280665)
(0.569038 0.00030105 -0.0014658)
(0.560492 -0.00111771 -0.000320585)
(0.562305 -0.000376764 0.000258356)
(0.567292 -0.000129161 -0.000250861)
(0.565303 6.84766e-05 0.000152716)
(0.563437 -0.00201002 0.000542189)
(0.56616 0.000359923 0.000109727)
(0.200736 0.200933 0.00131596)
(0.561466 -0.00328559 0.00169749)
(0.566935 0.000687708 -0.000104163)
(0.202035 0.202597 -0.0004576)
(0.566735 -0.000208245 0.000183641)
(0.195214 0.19703 -0.00207386)
(0.565267 0.00249346 -0.0020408)
(0.562536 0.00303625 -0.00304786)
(0.594242 -0.0101183 0.018105)
(0.564556 -0.000556129 8.39236e-05)
(0.199744 -0.199403 0.000632313)
(0.600575 -0.0119087 0.0170223)
(0.555746 -0.000170637 0.000667348)
(0.564241 -6.85108e-06 -0.000329645)
(0.566686 -0.000328216 0.000456015)
(0.567173 0.000546497 -0.000201042)
(0.199172 0.199228 -0.000186456)
(0.548366 -0.000125258 -0.00207087)
(0.564059 -0.000934965 0.000321606)
(0.55895 0.000238244 -0.000686294)
(0.582483 -0.0107439 0.016635)
(0.199614 -0.199995 -0.000181303)
(0.567465 0.000540289 0.000619971)
(0.562774 -0.000629338 0.000172936)
(0.566408 -6.58422e-05 0.00022785)
(0.557072 -0.00123304 -0.000426101)
(0.567957 0.000258823 -0.000134054)
(0.563852 0.00125183 0.000964457)
(0.566789 0.00258945 -0.00169576)
(0.564948 -0.000399179 0.000208393)
(0.565442 7.19807e-05 3.09004e-05)
(0.557795 0.000820276 -0.00118491)
(0.564927 -0.000176884 -0.000124025)
(0.564365 0.00020948 -7.13324e-05)
(0.540935 0.00125988 -0.00105398)
(0.562785 5.13729e-05 -0.000220294)
(0.562771 0.000129838 0.000277326)
(0.567644 0.000154904 0.0001168)
(0.561949 -0.00104303 0.00064737)
(0.569754 -0.00315991 -0.000962575)
(0.199482 -0.199202 -0.000145797)
(0.590089 0.00254832 0.00619985)
(0.546906 0.000628619 -0.000825303)
(0.554162 0.00306515 -0.00727903)
(0.564792 -0.000164211 0.000111219)
(0.562254 0.000385309 0.000735424)
(0.199411 -0.199034 3.04401e-05)
(0.566507 0.00106147 -0.000579272)
(0.559155 -0.000282781 0.000653836)
(0.203241 -0.194652 0.000344045)
(0.565666 -5.43185e-05 0.000275858)
(0.19999 0.200039 -4.95237e-05)
(0.196476 0.201286 0.000518963)
(0.56324 -5.78597e-05 9.08356e-05)
(0.564632 -0.000682578 0.00118418)
(0.564543 -0.000413025 0.000185047)
(0.490924 -0.00576569 0.00267711)
(0.567829 0.000231673 0.00029618)
(0.19799 0.198557 0.000298325)
(0.566115 0.000194093 -0.000317202)
(0.197307 0.199022 0.0012987)
(0.562916 0.000100344 -0.00054935)
(0.200085 -0.200253 -1.43489e-05)
(0.564369 -0.000398436 0.000386167)
(0.565345 0.00022569 2.31688e-05)
(0.198897 0.198357 -1.205e-05)
(0.19902 -0.199214 0.000130166)
(0.201361 0.198084 -0.00338429)
(0.56306 -7.70684e-05 -0.000268115)
(0.565886 0.00135313 0.000399545)
(0.560206 0.000767566 -0.000374318)
(0.56671 -0.000266118 6.53858e-06)
(0.277662 0.142069 -0.00535504)
(0.563271 -0.000400738 0.000953663)
(0.199301 0.199501 2.96972e-05)
(0.19957 0.200003 -5.97124e-05)
(0.564978 0.00258207 0.000936087)
(0.560061 -0.00046203 4.83452e-05)
(0.199363 -0.196652 0.000739375)
(0.563765 0.000312848 0.00116872)
(0.574342 0.000240665 -6.45413e-06)
(0.379698 -0.14744 0.0155631)
(0.526813 -0.00159194 -0.000341627)
(0.551497 0.0161061 -0.0117282)
(0.562557 0.00272811 0.00160728)
(0.561088 -0.00026693 -0.00249264)
(0.563482 -0.00168501 0.00130298)
(0.562498 0.000479356 -0.000498806)
(0.563747 0.000123353 -0.000174634)
(0.565002 -2.21086e-05 -0.000430871)
(0.5647 -0.000549195 -0.000501782)
(0.553117 -0.00291246 -0.000645427)
(0.560735 0.00443072 0.000763688)
(0.575964 0.00425121 -0.00286385)
(0.58159 0.00305186 -0.000775396)
(0.56436 0.000358787 -0.0013587)
(0.530805 0.000414156 -0.00304137)
(0.571614 0.00242071 -0.00165162)
(0.19892 -0.199131 1.10765e-06)
(0.56019 0.000616779 -0.00129645)
(0.199603 -0.199555 0.000196342)
(0.561368 -4.48687e-05 0.000207892)
(0.584021 0.00152278 0.00227372)
(0.567169 1.73029e-05 -0.000120428)
(0.567378 -0.0276997 0.0126432)
(0.53288 -0.00251026 0.000904729)
(0.53522 -1.60704e-05 -0.00646953)
(0.561634 -0.000522958 0.000207877)
(0.563032 -0.00024555 0.000699114)
(0.563943 0.00123067 0.00238381)
(0.587893 0.013528 0.0121044)
(0.563707 -3.54184e-05 7.94509e-05)
(0.563967 -0.000238489 0.000165626)
(0.199998 -0.19986 0.000343419)
(0.561592 -9.60792e-05 -0.000225998)
(0.558013 -0.00164461 9.57478e-06)
(0.199438 0.199208 -3.99208e-05)
(0.564301 -0.00147042 0.000763992)
(0.575437 0.0181608 0.00847241)
(0.572364 -0.00466017 0.0067377)
(0.565 7.75952e-05 -0.00135334)
(0.561295 -0.000274753 0.00152002)
(0.200472 -0.200409 -0.00093924)
(0.205315 -0.202251 0.00030677)
(0.574301 0.00509183 -0.00194725)
(0.565976 -0.000365292 -0.000492985)
(0.563241 -0.00104441 -0.00402354)
(0.202961 0.200382 -0.00178368)
(0.565221 -0.000608916 -0.000408297)
(0.200613 -0.199901 0.000298372)
(0.562044 -0.000430339 -0.000186348)
(0.563663 -0.000814312 -0.00100975)
(0.516706 -0.00742177 -0.00343175)
(0.580691 -0.00168658 0.00291545)
(0.200022 0.19974 -4.25338e-05)
(0.565386 -0.00104637 0.000624479)
(0.55404 -0.000118698 0.000337822)
(0.562407 -9.76349e-05 -0.00190878)
(0.566114 -0.000701335 -0.000172279)
(0.563941 0.00101665 -0.000949994)
(0.56514 -0.00125056 -0.000165175)
(0.562691 0.00165041 0.000104808)
(0.562265 0.000232153 3.91342e-07)
(0.580674 0.00140866 0.00230426)
(0.199644 -0.199555 0.000247503)
(0.546995 0.000438869 -0.000284097)
(0.561536 -0.000220269 0.00109141)
(0.577641 -0.00115702 0.00147162)
(0.564683 -0.000136082 -5.74574e-05)
(0.555133 -0.00148474 0.00163045)
(0.577001 8.22752e-05 0.000596537)
(0.200505 -0.199438 -0.000182518)
(0.560185 0.00513351 0.00196278)
(0.559695 0.0073394 0.00686297)
(0.567504 -0.000215548 -0.000145698)
(0.563803 0.000657982 -0.000623359)
(0.565745 0.000159571 7.22164e-06)
(0.560564 -0.0050841 -5.34814e-05)
(0.198389 0.198594 -0.000305175)
(0.19987 0.199795 2.69922e-06)
(0.198962 0.199804 2.46254e-05)
(0.563792 0.00214865 0.00286083)
(0.55408 -0.00310549 -0.00801198)
(0.504348 -0.00180952 0.000811858)
(0.577106 0.00103734 0.000574523)
(0.566687 -0.00296295 0.000960211)
(0.56293 -0.000510378 0.000676504)
(0.563138 0.000698515 -6.75119e-05)
(0.560051 0.000127987 0.000575576)
(0.563476 -0.000145611 0.000179397)
(0.20295 0.198915 -0.000338806)
(0.555922 -0.00676025 -2.2646e-05)
(0.562456 -0.000569748 -0.000101609)
(0.560008 0.000885233 0.00130262)
(0.562515 -0.000574918 0.00059258)
(0.571974 0.000484701 0.000478091)
(0.567416 0.000776221 0.000101293)
(0.560646 0.000776049 -0.000920348)
(0.590337 -0.00134889 0.00688276)
(0.574149 0.000900667 0.000249821)
(0.559866 -0.000553287 -0.00130299)
(0.571357 0.000335557 -0.000112086)
(0.559648 0.000801954 0.00146323)
(0.562077 -1.68601e-05 -0.000155091)
(0.556089 0.00348797 0.00266824)
(0.566547 -0.000211556 -0.000459639)
(0.197298 0.196543 0.000418478)
(0.198806 0.198751 -9.16241e-05)
(0.573658 -0.00182833 0.000789336)
(0.557062 0.000336925 0.000307609)
(0.566082 7.30861e-05 0.000488746)
(0.199187 0.200506 0.000238309)
(0.20001 -0.199959 -0.000255156)
(0.562745 -0.000772799 -0.000139239)
(0.200481 -0.200705 -1.17146e-05)
(0.564085 0.000274059 -2.67882e-06)
(0.567269 -1.41149e-05 -1.79102e-05)
(0.565726 -0.000249066 0.000112988)
(0.570643 0.000211401 0.000268921)
(0.561106 -0.00426035 -0.00128825)
(0.197936 0.200093 0.00148551)
(0.568058 -0.000716907 5.30723e-05)
(0.564782 -0.000203081 -5.50189e-06)
(0.198154 0.19836 0.000185769)
(0.563496 0.000303154 0.000467776)
(0.198281 0.2002 0.000328027)
(0.197312 0.196192 9.34008e-05)
(0.566803 0.000233538 -0.000498374)
(0.56747 0.000658936 -0.000131606)
(0.564249 -6.70136e-05 4.84715e-05)
(0.199171 0.198912 -0.000637053)
(0.199053 0.199096 0.00012082)
(0.486551 -0.000423671 -0.000866648)
(0.565743 -0.000500405 0.000991881)
(0.566211 0.000112164 -0.000246958)
(0.567077 -0.000403952 -0.000365241)
(0.5641 0.000504616 -0.000728812)
(0.565967 0.00024439 -0.000457978)
(0.563946 0.0215955 -0.0145368)
(0.199761 -0.200313 -0.000235348)
(0.564145 -0.000508685 1.72696e-05)
(0.560828 1.91364e-05 0.000177569)
(0.19943 0.199453 -4.00261e-05)
(0.200328 0.19868 -0.000271637)
(0.557022 -0.000212797 0.000165551)
(0.563701 -0.000377441 5.60125e-05)
(0.198436 -0.198835 0.000601462)
(0.566675 -0.000301045 -9.37211e-05)
(0.56493 0.000195248 -0.000182899)
(0.564933 -3.76073e-05 -0.00108228)
(0.590592 0.0430706 -0.0160067)
(0.563176 0.000476614 8.15697e-05)
(0.568917 -0.000429938 -3.39973e-05)
(0.55914 0.0242819 -0.0029762)
(0.637489 0.129744 -0.0577705)
(0.566482 1.34062e-05 0.000114283)
(0.255641 0.159945 -0.00760013)
(0.561679 0.000572177 -0.000149289)
(0.200367 -0.199997 -6.52734e-06)
(0.558102 9.14751e-05 0.000967955)
(0.199712 -0.199531 0.000628617)
(0.565536 0.000149698 -0.000475548)
(0.563663 0.000445119 -0.000425286)
(0.199498 0.200296 -0.00023522)
(0.560794 0.00059802 0.000716519)
(0.565818 -0.000613329 -0.00027764)
(0.568217 -0.000302022 -0.000268213)
(0.199419 0.199113 4.84241e-05)
(0.198756 -0.199015 -0.000230011)
(0.561693 -0.000551911 0.000768078)
(0.163266 0.116145 0.0441649)
(0.567008 -0.00122467 -0.000653336)
(0.20042 -0.199736 0.000194143)
(0.582421 -0.00101143 0.007248)
(0.561721 0.00046542 -0.000123139)
(0.56717 9.05345e-05 -0.000291979)
(0.200404 -0.198004 -0.00141012)
(0.568142 -0.000300961 -0.000173185)
(0.565511 -0.000985695 0.000599531)
(0.207174 0.195904 -0.00107029)
(0.568367 0.000181166 -0.000723773)
(0.566339 0.000266967 -0.0012129)
(0.567655 0.000311923 6.87871e-05)
(0.566567 -0.000303665 -9.66316e-05)
(0.568048 -6.49665e-05 -0.000197588)
(0.56613 -0.000431948 -0.000479983)
(0.200168 -0.20066 -0.000272842)
(0.192469 0.193549 0.00061002)
(0.560472 0.000412304 0.000979587)
(0.565527 0.000831868 0.00220361)
(0.564719 -6.20344e-05 -0.000359589)
(0.568097 9.98166e-05 -0.000357378)
(0.199527 0.199448 2.41567e-05)
(0.56606 -0.000206014 -3.97824e-05)
(0.56536 0.000123142 -0.00101174)
(0.570995 -0.000300521 0.000404565)
(0.566701 0.00020929 -0.00026967)
(0.568432 -4.86188e-05 -0.000362905)
(0.560423 0.000816148 0.000751796)
(0.565347 0.000521554 -0.00111527)
(0.565022 0.000515934 -0.000811204)
(0.198826 0.198663 -0.000341993)
(0.558623 0.000463398 -0.000144832)
(0.227804 -0.191976 -0.00760734)
(0.553851 -0.00352187 0.000484361)
(0.196659 0.191302 -0.00190575)
(0.198298 0.198716 -4.72917e-05)
(0.565705 -3.00574e-05 0.000148424)
(0.564831 1.19669e-05 0.00023281)
(0.199184 0.198849 -6.96452e-05)
(0.555856 -0.000491092 0.000461334)
(0.565507 -0.000626513 4.33348e-05)
(0.566357 -0.000484749 -0.000127051)
(0.5663 1.99694e-05 -0.000541228)
(0.199207 0.198381 0.000731102)
(0.564956 0.000279145 7.01452e-05)
(0.55993 -5.38681e-05 0.000667708)
(0.560552 4.23206e-05 0.000584513)
(0.567151 0.000209053 -0.00030882)
(0.562429 2.06412e-05 0.000405669)
(0.567026 -0.000104426 -0.000372658)
(0.565624 7.12785e-06 -0.000117874)
(0.565846 0.000166818 -0.00011469)
(0.562375 -8.97169e-05 0.00028139)
(0.57375 -0.000826084 0.000491976)
(0.157446 0.0630082 -0.0718506)
(0.562824 -3.21015e-05 0.000372717)
(0.198256 0.19872 0.000268304)
(0.565513 0.000174826 0.000909077)
(0.566687 -0.000176714 -0.000690152)
(0.562816 0.00225679 -0.000363236)
(0.558045 -0.00216388 0.0038944)
(0.564429 -0.00100748 0.00209052)
(0.568199 0.000398589 6.50871e-05)
(0.567416 -9.73202e-05 -0.000810091)
(0.566901 -0.000263402 -0.00027141)
(0.567043 -0.000811231 -0.000895959)
(0.561137 -0.00110317 0.000857394)
(0.197991 0.199502 -0.00289789)
(0.566706 -0.000237603 0.00023472)
(0.565993 0.000337382 0.000329598)
(0.567886 -0.000305956 9.46847e-05)
(0.56602 -0.0001005 -0.000394929)
(0.566385 -0.000737034 -0.000626942)
(0.562662 -8.0204e-05 0.000388301)
(0.556433 0.0064731 -0.00109368)
(0.57227 0.000809028 0.000657279)
(0.558232 0.00181601 -0.00092737)
(0.562509 0.000323088 -0.000889639)
(0.199322 0.199328 8.32288e-05)
(0.20051 -0.199734 -2.73251e-06)
(0.566813 0.000179155 0.000162604)
(0.567761 0.000428568 0.000321161)
(0.5626 -0.000529633 0.000431225)
(0.558782 0.000715575 -0.00210459)
(0.56147 -0.000865731 5.87045e-05)
(0.19884 0.199072 -0.000325232)
(0.199095 0.199301 -0.00015696)
(0.566904 -0.000824493 -0.000893958)
(0.564118 -0.000433356 0.000154291)
(0.5656 -0.000280875 -0.000327394)
(0.565728 -1.78711e-05 -0.00019687)
(0.565004 -0.000126522 -0.000730444)
(0.566435 -0.000371242 -0.000196382)
(0.220676 -0.153396 -0.014608)
(0.568011 0.000177646 -2.85919e-05)
(0.561832 -0.00114485 0.000861743)
(0.559909 0.000517905 -0.000839634)
(0.556672 3.41865e-05 -0.00177797)
(0.568205 -0.000139687 -0.000103413)
(0.541631 0.00347021 -0.0127506)
(0.556803 0.0159672 -0.010843)
(0.568001 0.000108374 3.50858e-05)
(0.562176 -0.000833157 0.000831561)
(0.560598 -0.000280692 0.000387709)
(0.563115 -0.000623187 0.000635887)
(0.573268 0.000263504 -0.00102121)
(0.19932 0.199351 3.09609e-06)
(0.556518 0.00231915 -0.00216134)
(0.56725 -5.56747e-05 -5.24731e-06)
(0.550609 -0.00211362 -0.00584909)
(0.566147 0.000117144 -0.00058755)
(0.56692 8.24585e-05 -0.000594103)
(0.19973 0.197602 -0.000812193)
(0.563211 -0.000960095 0.00411127)
(0.573328 -0.000457658 0.000104036)
(0.567119 -1.12243e-05 -0.000598647)
(0.56114 0.000315103 0.000993484)
(0.553642 -0.000169401 -0.00167019)
(0.199309 0.20511 -0.00187071)
(0.197818 0.195525 -0.00103349)
(0.566087 0.000347785 0.000184549)
(0.566564 -0.000220614 -0.000160779)
(0.566539 -0.000107379 4.09258e-05)
(0.567784 -5.82662e-05 3.6212e-05)
(0.56636 0.000150937 2.91799e-06)
(0.565476 0.000550839 0.00045133)
(0.562494 -0.000642305 0.000807927)
(0.566471 0.00157716 -0.00273023)
(0.565633 -0.000214464 -0.000857367)
(0.56617 0.000867094 -0.000279905)
(0.564125 -0.00127549 0.0022732)
(0.561235 0.00117524 -0.000712302)
(0.562849 -0.000651821 0.000144008)
(0.566442 0.000200202 -0.000405156)
(0.198624 0.198607 0.000109724)
(0.56693 4.74686e-05 -0.000302405)
(0.200426 0.200576 -0.000125109)
(0.199606 0.19915 1.97908e-05)
(0.565823 0.000950308 -0.000461234)
(0.562749 8.5763e-05 0.000180684)
(0.566943 -0.00082992 0.000529239)
(0.200415 -0.200246 -3.5127e-05)
(0.564499 -2.16275e-05 0.000423441)
(0.560785 0.00106749 -0.00171954)
(0.56762 0.000525776 -0.00109003)
(0.199547 0.199645 9.24493e-05)
(0.565094 -0.000312895 -0.000174007)
(0.197084 0.198846 -0.000607528)
(0.563425 -0.000306352 0.00336375)
(0.198073 0.196987 -0.000124754)
(0.561766 -0.000294095 0.00104149)
(0.55843 -0.000241477 0.00106362)
(0.563696 -0.00014863 2.16094e-05)
(0.565585 0.000776876 -2.95553e-05)
(0.200337 -0.200252 0.000102325)
(0.198374 0.198349 -0.000170857)
(0.566862 0.00268367 -0.00302936)
(0.555299 -0.000245573 0.00186767)
(0.567471 8.49602e-05 -0.000855776)
(0.566228 7.40691e-05 -0.000354706)
(0.565189 1.45611e-05 -0.000760051)
(0.56397 0.00116559 -0.000340297)
(0.574604 0.00321327 -0.00127644)
(0.199749 0.199931 -0.000297527)
(0.582006 0.00707153 -0.000888273)
(0.565135 -0.00052 -0.000741792)
(0.54171 0.0635668 -0.0393813)
(0.198089 0.196662 0.000529477)
(0.567621 0.00126398 -0.00161126)
(0.546553 0.000438819 0.00147282)
(0.199411 0.197818 0.00170322)
(0.581605 0.00231968 0.00104204)
(0.567737 -0.000243327 -0.0005257)
(0.199674 -0.199563 -7.17595e-05)
(0.558478 3.66562e-07 0.00128411)
(0.596138 0.00841162 0.00136203)
(0.56672 -0.000489174 -0.000170574)
(0.561977 -0.00146191 0.00245503)
(0.576401 0.00502432 0.0273493)
(0.560359 0.000816668 -0.000466772)
(0.563962 -0.000140234 -0.00039916)
(0.560374 0.000104273 -0.00196668)
(0.539746 -0.000116338 -8.31817e-05)
(0.566931 -0.0231035 0.0258859)
(0.564237 0.000339634 0.000770202)
(0.555481 -0.00110126 -0.000185678)
(0.566448 1.19809e-05 -0.000164258)
(0.575437 -0.00145654 0.000983977)
(0.567318 -3.64579e-05 7.70415e-05)
(0.567634 0.00220765 -0.00159323)
(0.199414 0.199488 1.75791e-05)
(0.566527 0.000718942 -0.000294195)
(0.580693 0.000467642 0.00147665)
(0.59101 0.00581218 0.00821586)
(0.199737 -0.19976 -7.48739e-05)
(0.562164 -0.00108048 0.0010865)
(0.569018 0.000421624 -0.000190575)
(0.197201 0.195144 0.000400645)
(0.557993 0.000405747 -7.4256e-05)
(0.562283 0.000157853 -0.000480061)
(0.566143 0.000403911 -0.000617093)
(0.568925 0.000376971 8.81119e-05)
(0.562048 -0.000550027 -0.000358112)
(0.56547 -0.000236189 0.000199644)
(0.198908 0.199224 -0.000231971)
(0.562266 -0.000262673 -0.00174738)
(0.570685 6.10985e-05 -0.000294394)
(0.198981 0.198968 0.000237177)
(0.200023 0.199453 -0.000105601)
(0.565784 0.000424981 0.000315852)
(0.199431 0.19978 -0.000111186)
(0.564458 -0.000190198 0.000390037)
(0.560181 -0.00405337 -0.000334931)
(0.566237 0.000268943 -0.000308878)
(0.562367 -0.000598696 -0.00227926)
(0.562337 -1.13586e-06 -0.00182803)
(0.283993 -0.019639 0.0422509)
(0.199424 0.19967 0.000193005)
(0.571493 0.00032432 -1.31698e-05)
(0.566144 4.93502e-05 0.00015279)
(0.562947 0.000574548 -0.000471961)
(0.560645 0.00272964 -0.00192468)
(0.563161 -0.000120137 -0.000771517)
(0.199139 0.199302 -0.000233788)
(0.544487 -2.78457e-05 -0.000723373)
(0.560741 -0.000163665 -0.00091055)
(0.555988 0.00165585 0.00417664)
(0.567068 -0.000230708 0.00111287)
(0.563777 -0.00106315 -0.000316186)
(0.556259 0.0182769 -0.0215645)
(0.56655 -0.00164845 5.33438e-05)
(0.551075 0.00578358 -0.0110191)
(0.19861 0.195283 -0.00116982)
(0.199676 0.199606 0.000176817)
(0.199003 0.199117 -0.000119582)
(0.566949 0.000299859 -0.00011078)
(0.565945 -0.000502087 -0.000512135)
(0.199129 0.198553 -9.82135e-05)
(0.564229 -0.000116163 0.000817667)
(0.557587 0.00377307 0.00295596)
(0.557159 -0.000747984 -0.000592382)
(0.501128 0.0706736 -0.0406521)
(0.55934 -0.000791687 -0.00048807)
(0.565779 0.000201008 0.000124595)
(0.199897 0.204292 0.000279852)
(0.556862 0.0130424 -0.0209158)
(0.199877 0.199842 0.000163588)
(0.198919 0.198379 0.000352039)
(0.566184 -0.000224896 -2.62239e-05)
(0.318005 0.243327 0.0367549)
(0.289998 -0.117861 -0.00400438)
(0.562655 -0.00132727 -0.000127135)
(0.194326 -0.197747 0.000260649)
(0.566255 0.000126716 -7.07796e-05)
(0.560744 -0.00255265 -0.00519325)
(0.570084 0.01949 -0.0138775)
(0.565768 -0.00019413 0.000360945)
(0.575578 0.0109655 -0.00383632)
(0.563836 0.000351501 0.000188248)
(0.570607 -0.0365651 -0.01068)
(0.199013 0.198992 3.32814e-05)
(0.198897 0.198031 0.000214429)
(0.564641 -0.000985885 -5.03248e-05)
(0.563578 -0.000703473 0.00107303)
(0.56699 -0.000418177 0.000191831)
(0.19587 0.198987 -0.0015461)
(0.560184 0.00115104 1.00678e-05)
(0.565587 -0.000415983 0.000100539)
(0.56589 -6.78825e-05 -0.000265393)
(0.199253 0.19948 0.000836589)
(0.565648 0.000221869 -0.000592381)
(0.565823 -0.000242709 -0.00026334)
(0.510894 0.0571322 0.0377754)
(0.199117 0.199149 -0.000149499)
(0.645168 0.172846 -0.00640871)
(0.522251 0.0736147 -0.0535495)
(0.2002 -0.199485 4.35963e-05)
(0.199813 0.199085 0.000346158)
(0.1989 0.19851 3.44155e-05)
(0.200496 0.199835 0.000420333)
(0.200034 0.199725 -0.000772634)
(0.565851 0.000581962 -0.000110428)
(0.566377 -0.000148487 0.000210927)
(0.564947 0.000510313 0.000161948)
(0.19945 0.198442 0.000169231)
(0.56503 -0.000329241 -0.00014052)
(0.567485 3.56502e-05 0.000419611)
(0.199649 0.198941 0.000263019)