/*--------------------------------*- C++ -*----------------------------------*\
  =========                 |
  \\      /  F ield         | OpenFOAM: The Open Source CFD Toolbox
   \\    /   O peration     | Website:  https://openfoam.org
    \\  /    A nd           | Version:  10
     \\/     M anipulation  |
\*---------------------------------------------------------------------------*/
FoamFile
{
    format      ascii;
    class       volScalarField;
    location    "18";
    object      SgP;
}
// * * * * * * * * * * * * * * * * * * * * * * * * * * * * * * * * * * * * * //

dimensions      [1 -1 -3 -1 0 0 0];

internalField   nonuniform List<scalar> 
59698
(
0.00309504
0.00189522
0.00239332
0.00281047
1.14511e-06
0.00145199
0.00256397
1.11838e-07
1.99319e-09
3.93469e-09
0.00058647
1.61804e-09
1.58079e-09
0.00237156
2.7722e-08
4.27554e-07
1.00024e-08
3.8295e-09
1.73751e-09
2.49035e-09
0.000365021
1.56037e-06
0.000499063
8.81908e-08
2e-07
1.0157e-09
9.92272e-10
0.00261587
0.00239317
2.17384e-09
1.4246e-07
0.000600627
6.68448e-08
0.00422281
1.10857e-06
3.70699e-09
0.000465289
5.07839e-07
1.80256e-08
0.0024558
2.77925e-08
2.30452e-07
1.96839e-08
2.25739e-08
0.000402108
1.09948e-07
2.09877e-09
5.14447e-08
0.0030254
3.41348e-08
8.38952e-10
1.66555e-09
0.0017822
0.00284201
0.00216794
1.98625e-09
8.7846e-08
1.54387e-08
1.65915e-08
2.75064e-05
0.00183212
6.39283e-08
1.98318e-07
1.49157e-09
4.9692e-07
4.28667e-08
1.74791e-09
3.00867e-09
4.13024e-09
6.77156e-09
6.18468e-07
3.26139e-08
0.00035995
1.82061e-06
0.00041196
1.11263e-06
2.58871e-08
2.49259e-08
5.70522e-09
9.45868e-09
4.79203e-07
8.13621e-10
4.05669e-09
9.7492e-09
1.69796e-05
3.40212e-08
8.92674e-09
2.31614e-07
2.34675e-06
2.3251e-08
4.52407e-09
6.55155e-08
1.72194e-07
6.46698e-09
6.28559e-08
0.00372053
1.36879e-07
5.95368e-08
5.00565e-08
8.58988e-10
0.00353745
2.07696e-05
3.00162e-07
0.00329359
5.25714e-08
0.000564776
2.72684e-09
2.0102e-09
2.74519e-09
4.40527e-10
3.67489e-08
2.71239e-06
1.35551e-06
1.56286e-07
1.01224e-07
3.1331e-08
3.57512e-07
0.00365992
3.10996e-07
1.15554e-08
2.07825e-09
3.06988e-07
2.20287e-07
2.97406e-09
1.97697e-09
7.55077e-09
7.89653e-09
7.21429e-09
1.30226e-08
3.93943e-07
0.00340534
3.43546e-09
1.11484e-09
1.8179e-07
6.82289e-08
2.38556e-09
5.03903e-07
2.61843e-10
1.82166e-09
5.0415e-09
2.0763e-08
0.00240523
0.0025833
1.19147e-09
1.96707e-07
6.14995e-10
5.54783e-07
3.95467e-07
0.00465093
7.14447e-07
0.000257199
0.000434385
3.0519e-08
2.67099e-07
5.6455e-09
1.06232e-07
6.37576e-09
0.00169005
7.08501e-08
5.60173e-10
3.01669e-09
8.36562e-09
2.30973e-08
1.00065e-07
2.01156e-08
0.00233544
9.94389e-10
0.000567376
0.00161211
7.0431e-09
2.56019e-07
1.4955e-06
2.17742e-07
9.26034e-07
5.78642e-07
0.00126242
4.40466e-09
0.00139596
0.000326015
0.00302449
2.25475e-06
7.5724e-07
4.08081e-07
1.20586e-08
2.48988e-07
6.96938e-08
3.78971e-07
0.00247272
1.32969e-10
1.51828e-08
6.49407e-09
7.22513e-09
2.3264e-08
6.08786e-07
1.29174e-07
0.00432679
1.81544e-06
0.00294396
1.27394e-05
9.49619e-08
0.000227101
6.75815e-07
1.64852e-09
2.14894e-09
0.00377281
0.00250517
3.6205e-08
0.00215713
0.00280675
0.00368887
0.00250883
5.97282e-09
0.00277479
1.5679e-08
2.20464e-09
0.0034898
8.84079e-09
4.73666e-08
1.6227e-07
5.06432e-09
1.3691e-05
0.00227614
1.67064e-09
5.38811e-07
8.66579e-09
0.00290109
1.5595e-08
5.07755e-09
4.81191e-08
6.81145e-07
7.56893e-09
1.54503e-08
6.10465e-09
7.18942e-09
9.90626e-09
1.23139e-09
3.26597e-07
1.99702e-08
1.82837e-07
7.54985e-09
0.00270385
1.22545e-07
3.51703e-08
0.000664542
4.13449e-09
2.18254e-07
2.30596e-05
3.5174e-06
3.27197e-09
5.14726e-09
5.97592e-08
4.96083e-09
2.96495e-08
0.000233548
1.81646e-08
0.0017689
1.09685e-07
5.81364e-08
0.00325006
2.31515e-09
7.65097e-06
1.82087e-09
7.10693e-09
0.00282256
0.00373588
8.58564e-07
1.18755e-09
1.07165e-07
2.03282e-08
6.35813e-10
2.8635e-09
1.54301e-06
6.90182e-05
6.48956e-10
1.27334e-07
4.97879e-08
0.00151443
3.82703e-08
3.00219e-09
1.196e-09
0.000574131
2.40577e-09
1.53284e-09
4.73023e-07
0.00334944
1.02128e-07
3.99228e-09
0.000647617
3.84374e-07
1.06708e-07
2.76645e-06
0.00238126
8.65739e-09
1.39552e-09
7.32968e-07
0.00283169
7.8171e-10
1.63417e-07
1.66604e-08
6.58944e-07
3.01897e-09
2.32184e-09
6.86643e-08
9.61158e-10
1.00222e-09
1.11773e-09
3.61267e-07
2.27417e-08
5.30018e-09
4.08836e-10
0.00196459
4.54927e-08
4.42565e-09
2.38006e-08
0.0019849
4.16232e-09
0.00040339
8.31498e-09
0.000829308
9.09797e-08
9.68666e-08
2.75857e-07
1.67527e-08
2.9677e-09
1.64859e-06
2.57626e-07
1.6097e-08
9.85525e-09
9.76607e-10
0.000361922
0.00304402
4.15553e-08
3.75511e-07
2.38615e-06
0.000430952
8.58072e-09
7.80299e-09
3.92879e-09
1.48881e-07
0.00126708
2.78025e-08
0.00215849
0.00258984
3.72329e-09
1.05294e-07
1.15781e-09
6.63113e-10
1.24112e-06
1.56728e-09
0.00207863
1.05529e-09
1.16703e-08
1.2372e-06
7.94431e-10
9.50562e-07
0.00193662
2.74365e-06
1.51897e-08
3.1981e-08
1.82005e-09
2.20137e-08
1.03005e-08
1.10326e-07
3.02263e-09
1.22497e-10
1.04128e-07
0.00289837
0.0020678
2.89126e-08
9.7616e-07
1.17663e-07
0.000533989
0.00378752
0.000651141
1.87933e-08
2.97601e-09
3.74185e-08
2.62008e-09
0.000460527
2.48791e-09
0.000347124
4.71805e-08
4.41844e-08
5.13532e-08
7.175e-10
6.76054e-06
1.13794e-08
0.000544825
8.89704e-10
3.70947e-08
2.33953e-08
0.000457492
0.00343272
3.32277e-09
5.36835e-05
0.00179793
3.68531e-06
0.00189166
0.00278908
8.2006e-08
0.00248467
0.00247719
0.00266237
4.4068e-09
0.00153884
0.00432944
0.00383927
0.0027624
5.20935e-09
8.23691e-07
1.88022e-07
0.0004043
0.00171369
0.000434538
5.01556e-10
2.05861e-07
2.0403e-09
2.29254e-06
0.00189692
0.00175631
0.00304414
0.00225953
0.00255736
0.00166495
9.35493e-09
2.95687e-09
7.77847e-09
1.57289e-08
0.00143618
5.67322e-10
7.47393e-09
0.00196016
0.00116526
2.32397e-08
3.74218e-08
1.40818e-08
1.39061e-08
0.00126523
3.80024e-09
0.00218336
1.92334e-07
0.00331013
5.13789e-09
4.53439e-08
1.89534e-07
2.03491e-06
8.68057e-08
4.52192e-10
2.12855e-09
1.37419e-07
0.0026307
6.08352e-09
7.32586e-08
1.97054e-06
6.41327e-07
1.1539e-07
3.40022e-07
1.41706e-09
1.15149e-06
1.68635e-07
6.14596e-08
4.41843e-09
0.003208
6.42274e-09
2.19236e-09
2.14583e-07
3.55607e-07
1.16499e-08
4.57409e-08
2.33168e-09
0.00258027
4.40082e-09
2.08918e-10
6.88371e-09
6.34548e-08
2.10208e-06
8.2297e-07
2.14359e-09
0.0031069
0.00201982
2.36209e-08
2.25501e-07
1.48656e-08
1.93904e-08
2.52968e-07
3.93483e-08
4.47652e-08
1.92066e-08
1.83744e-09
2.4834e-09
2.51829e-07
4.06187e-07
4.2388e-10
4.27492e-08
0.00414798
2.21939e-07
1.58208e-08
0.00245669
4.12864e-08
0.000365619
9.69553e-10
1.18279e-07
2.15846e-07
5.9159e-09
1.71113e-08
1.11865e-09
8.39685e-08
2.16591e-09
4.76843e-09
8.3877e-09
4.11313e-09
8.49515e-09
1.34817e-06
5.41921e-08
1.29194e-08
2.29449e-09
6.86951e-09
9.19599e-09
7.04558e-08
2.48739e-08
1.75901e-08
1.93282e-09
4.66473e-09
3.85891e-09
2.18827e-09
6.32239e-06
4.71239e-08
1.67433e-09
0.00347329
0.00378055
2.65386e-09
0.00384863
1.82759e-08
4.76577e-09
0.00150584
3.56182e-10
1.35521e-08
0.00180803
1.90642e-09
0.000384877
4.22868e-08
2.04689e-09
4.17294e-08
3.01441e-06
1.20033e-08
6.17672e-09
8.91867e-06
0.000167081
1.76762e-08
7.46856e-06
1.78533e-08
2.28358e-09
3.0543e-08
1.91709e-09
6.583e-09
1.39655e-08
1.91702e-08
1.53192e-08
1.67069e-09
5.02711e-09
0.0007685
1.7446e-09
1.53008e-08
1.01942e-05
1.44589e-08
1.80979e-09
1.22436e-06
2.16469e-08
6.33893e-09
0.000539242
6.39083e-10
7.85369e-09
2.0469e-07
3.1622e-09
4.02386e-08
9.34033e-10
2.51898e-10
4.99627e-10
0.00210141
2.30987e-09
0.000732639
4.27667e-08
0.00320712
1.41972e-08
5.83339e-09
0.000313359
1.27049e-09
1.15377e-08
1.86779e-08
1.9847e-08
2.37417e-09
0.00333354
7.35358e-09
1.58913e-08
8.51562e-10
3.97915e-08
9.26923e-07
0.00264884
0.000349776
7.29099e-09
6.65823e-09
1.50817e-09
2.84299e-09
0.00350294
1.62825e-08
5.45838e-09
2.00825e-09
0.00108765
0.00395641
1.45252e-08
1.1896e-08
1.0019e-09
1.04359e-08
4.41843e-09
2.65464e-09
4.65163e-09
4.66352e-09
3.61462e-08
7.84705e-05
6.70431e-09
5.0387e-09
6.51936e-09
1.63983e-08
2.51866e-05
0.00253449
1.16002e-08
0.00273534
2.52798e-09
9.11554e-09
4.98583e-09
0.00282726
0.00021121
1.39149e-09
9.35449e-09
9.18889e-10
2.92039e-08
1.38129e-08
2.64685e-09
0.00157058
0.00323647
1.32087e-07
1.65176e-07
0.000607883
1.44409e-09
5.39891e-09
2.45928e-09
4.24638e-07
0.00218804
3.6429e-08
1.77326e-09
0.000439477
7.23822e-09
3.29045e-08
4.34051e-09
2.00564e-09
4.38882e-09
7.99467e-10
7.61913e-06
1.01199e-09
0.00188256
5.14121e-08
1.13308e-07
6.82983e-09
1.56188e-06
3.29605e-06
7.01992e-09
2.23393e-08
0.00239414
0.00321079
7.32294e-08
3.86691e-09
7.81115e-07
1.95654e-09
0.00356834
2.7138e-10
1.57928e-08
0.000428465
0.00266298
4.43445e-09
1.34118e-09
2.01144e-07
6.11583e-07
3.53435e-07
0.000378104
0.00143848
1.05865e-10
5.66064e-09
1.2911e-09
4.63931e-09
0.00288301
2.87778e-08
0.00304867
1.093e-08
0.00135484
0.00215092
0.00245489
6.5331e-08
3.36858e-09
0.000650605
1.14856e-09
2.36582e-10
9.72166e-10
3.7605e-09
1.83239e-08
5.06861e-09
1.51345e-09
9.29567e-08
6.83228e-08
9.02999e-09
2.72163e-09
0.00192749
4.17924e-08
3.8333e-08
0.000362146
9.68197e-09
3.84108e-08
3.63675e-08
1.76418e-09
1.41454e-09
0.000646942
0.00196313
0.00254131
3.38217e-09
9.39857e-09
4.01154e-09
1.74257e-07
0.00194563
1.35295e-09
5.67681e-07
2.52702e-08
1.32496e-05
0.000344566
0.00172507
2.37627e-07
1.48066e-07
2.22472e-08
0.00444855
0.000532171
1.94669e-08
8.79817e-07
3.71828e-09
7.16192e-08
3.43789e-06
0.00243029
2.43802e-08
1.2784e-07
1.01086e-07
1.5948e-05
2.51721e-08
0.00187428
1.85e-09
5.15722e-08
9.20882e-09
0.00213036
7.39472e-10
5.84162e-09
2.0734e-07
4.44663e-06
0.000599742
1.16103e-07
7.01937e-08
0.000383644
4.4022e-08
2.85568e-09
0.00196678
0.00227971
6.07269e-09
8.98194e-09
0.00040156
1.06528e-08
1.99437e-08
0.000373921
3.51082e-10
0.00273939
2.60363e-09
1.87219e-08
1.90534e-07
3.89873e-09
4.14501e-08
3.75788e-08
4.99479e-05
3.75414e-09
6.4825e-09
7.00866e-09
1.21446e-08
9.99063e-08
1.61147e-08
0.000326092
6.98237e-09
2.08342e-08
0.00145247
6.08832e-08
1.02025e-07
8.52938e-06
0.00193581
2.36513e-06
0.000541631
6.84314e-09
0.000383131
1.40541e-08
3.07537e-09
1.58766e-09
0.00324153
3.96713e-07
3.48468e-08
7.11957e-05
6.26335e-08
0.00162572
1.66488e-07
9.84894e-06
3.53178e-09
0.00100438
3.37361e-09
0.00130434
5.35188e-05
2.53198e-07
0.000651795
0.00185256
1.20765e-06
1.10706e-05
3.76212e-09
1.13136e-06
2.73257e-08
4.08542e-05
0.000444767
0.000428764
0.00216277
3.14722e-08
3.35338e-08
0.000561237
4.59113e-08
0.0023508
4.68175e-10
0.000401154
2.29395e-09
2.93759e-09
2.94056e-05
0.000503637
0.000206325
0.000108597
7.69234e-09
5.12846e-09
2.05828e-09
0.000487299
2.03238e-09
0.00359459
0.00488978
2.97115e-09
0.00049971
2.07143e-09
1.18846e-09
2.92084e-09
3.20515e-06
0.000469633
2.45161e-09
1.31764e-09
1.05411e-06
4.74388e-09
1.10011e-07
3.56937e-09
3.10136e-09
9.73282e-08
2.63822e-07
3.40944e-08
1.05965e-08
0.000532566
7.26042e-10
0.000127662
2.85191e-10
2.49944e-09
0.00128077
1.48984e-09
7.74261e-06
8.98265e-08
1.06341e-08
0.000108823
1.24909e-08
0.00162085
3.00502e-08
4.64946e-10
0.00180194
6.19362e-09
9.76959e-09
0.000307131
1.24235e-09
0.00212727
1.74905e-08
2.04951e-09
0.00438684
3.05893e-09
3.92232e-09
1.73848e-08
1.74283e-08
0.000319936
4.243e-09
4.78959e-09
1.68414e-07
0.0018945
0.000633449
0.000584048
2.34214e-08
4.09397e-09
0.000379941
0.00244872
5.12653e-09
8.57811e-09
5.937e-08
1.18684e-08
3.21329e-09
2.25766e-08
0.000412248
0.00149908
0.00271692
1.49205e-07
2.04041e-09
0.00275975
0.00414274
0.00538167
5.07676e-08
1.58785e-08
1.61877e-07
4.42658e-07
1.74892e-08
2.31476e-08
7.86559e-07
2.81529e-08
6.52703e-09
4.61603e-09
1.35467e-06
7.29671e-08
7.38373e-09
0.00260383
1.47271e-09
6.26313e-08
2.08202e-08
2.93712e-08
5.12236e-09
3.8934e-10
0.000761135
2.01338e-08
3.33183e-09
0.00198207
2.12244e-08
2.67257e-08
0.00328496
2.81765e-08
3.37289e-07
6.15e-09
2.00278e-08
2.4377e-08
0.000825915
2.7875e-08
0.00227336
1.90522e-07
2.0979e-07
3.52554e-08
0.00552898
0.000295064
4.37832e-09
4.8696e-09
1.03295e-06
1.43989e-09
1.21814e-08
9.34917e-09
0.0017436
6.36888e-10
1.41609e-09
7.31419e-09
4.73815e-09
3.61275e-08
2.3638e-08
7.52469e-09
0.00042922
0.00229906
0.000466222
6.3252e-08
0.00323152
0.00256279
5.60673e-08
2.13678e-09
0.00191555
6.4438e-06
0.00162738
0.00216505
0.00212686
3.92613e-09
5.70404e-08
0.00248563
2.20391e-07
3.57601e-08
1.88916e-07
2.36212e-08
0.000443737
2.29276e-08
0.000538421
1.69066e-05
2.50431e-08
0.00200304
1.36428e-08
0.000608739
6.9056e-09
1.32357e-08
6.36069e-10
3.13902e-08
0.0015902
0.00377153
1.27045e-09
0.000395621
0.00196228
0.0014045
0.00278147
5.6753e-10
4.03326e-09
8.87946e-10
0.00355409
1.23438e-09
1.33339e-07
0.00355951
6.2377e-09
0.00359945
0.00351532
0.00378642
1.29024e-08
5.7787e-08
4.62706e-08
7.55475e-09
1.04557e-08
6.30615e-08
1.23593e-08
5.76958e-09
0.000475234
4.97111e-09
2.74431e-08
2.87463e-07
5.46605e-10
0.00168365
3.20902e-08
4.07418e-09
6.15016e-08
3.40736e-10
7.016e-08
3.38651e-09
2.09114e-07
0.00319583
3.10489e-05
8.44414e-10
1.56498e-08
0.00217377
0.00320322
1.77936e-07
0.00076043
9.18962e-09
8.22736e-09
0.00269718
2.6841e-08
0.00328902
0.000542245
1.0476e-09
7.22661e-08
0.0007658
2.15457e-08
2.29207e-08
0.00260101
7.78693e-09
1.12044e-08
3.10442e-09
0.000534595
3.15057e-06
0.00200512
1.819e-07
9.45164e-09
0.00182199
1.43711e-07
2.59536e-10
5.96159e-06
3.27084e-09
7.24781e-07
0.00133327
1.42052e-09
8.58391e-10
1.14409e-08
6.27952e-09
1.54749e-08
6.89213e-09
1.17018e-08
1.03849e-06
9.32889e-10
1.5598e-09
0.00176234
3.07696e-09
5.33331e-06
2.92963e-08
4.45023e-06
1.34021e-06
1.21843e-06
5.3434e-06
1.25479e-06
3.07028e-09
1.42129e-08
0.00105454
3.04524e-06
2.47313e-08
2.30594e-08
2.42576e-08
0.000449091
1.36949e-06
7.68471e-08
2.28676e-07
3.78739e-09
0.0023082
5.75452e-09
1.23417e-08
2.03501e-08
9.98259e-09
2.99263e-08
0.00212651
5.62702e-08
2.86993e-08
1.92138e-08
4.85674e-09
0.000477737
2.27392e-09
4.7201e-09
3.39284e-08
2.50943e-10
1.53249e-09
7.08787e-09
7.59736e-09
1.32481e-08
0.000334157
1.18457e-08
1.19357e-08
2.56515e-09
2.08047e-08
1.15524e-08
1.03336e-08
6.00012e-08
0.000380629
0.00250334
1.55674e-08
9.32094e-09
0.00291696
1.74018e-09
4.31933e-05
0.00202941
4.73119e-09
7.62256e-07
1.53174e-06
0.00186576
2.49051e-08
3.09973e-08
2.29234e-07
1.741e-05
8.68576e-07
2.10375e-07
6.47466e-10
3.62344e-09
4.4123e-07
1.35488e-07
5.48498e-09
1.39321e-09
5.76428e-09
7.56333e-09
3.04808e-06
0.00129385
6.06729e-08
3.55027e-08
5.38375e-08
0.00277996
0.00254064
9.11177e-07
1.48849e-08
3.52671e-08
4.00588e-08
4.54838e-09
2.89556e-09
1.8818e-07
4.22129e-09
3.37727e-08
1.90049e-09
1.11231e-08
2.12738e-08
2.95865e-09
4.14561e-07
3.24122e-09
0.00043443
1.02371e-07
0.0040456
0.00168558
1.14237e-07
2.24072e-08
0.0005797
0.000345168
2.67786e-08
2.3435e-08
9.38424e-06
2.27991e-09
1.66864e-09
2.27832e-08
1.62438e-08
0.000781453
0.000646984
1.0039e-08
1.27153e-08
7.55753e-09
3.43861e-07
5.05548e-08
0.00275845
0.000496407
1.4283e-08
0.0002388
7.30035e-09
0.000315432
0.000227851
0.000223571
2.94539e-08
1.06716e-07
1.84896e-09
1.04538e-07
2.26363e-08
0.00247995
4.88353e-09
4.24366e-08
6.96842e-09
8.49466e-08
2.30142e-05
0.00204095
0.00235431
2.24048e-08
3.06203e-08
0.000377619
4.28223e-08
1.04079e-06
1.04108e-08
0.00312097
4.66457e-08
2.05996e-08
8.53346e-06
0.0027562
7.04288e-08
2.75681e-08
0.00134445
2.55725e-08
4.65334e-10
1.39174e-09
5.03246e-09
3.31367e-08
1.36718e-08
6.31822e-10
2.03467e-08
3.82405e-08
1.02108e-08
6.73237e-08
1.63452e-08
5.77421e-07
0.00198888
2.99743e-09
1.49062e-08
5.13603e-08
0.00209335
8.70797e-07
1.89071e-08
0.00037431
2.95666e-09
2.25161e-07
1.48166e-07
0.000983777
3.72905e-07
3.19074e-10
1.21945e-07
1.47004e-08
1.22679e-07
5.12513e-08
3.26395e-09
1.49749e-07
6.88394e-09
8.41199e-08
7.36603e-10
0.000584269
5.20157e-08
0.00213548
1.30747e-09
5.65022e-08
2.15234e-06
1.07355e-08
6.3563e-06
5.52774e-09
6.9211e-10
2.53092e-07
3.92018e-08
4.35612e-09
1.74046e-05
6.10882e-08
7.53359e-08
0.000547246
3.0276e-09
0.000563699
2.92231e-08
2.20866e-09
9.17766e-09
5.94169e-09
2.19866e-08
4.20417e-07
3.19841e-07
1.5089e-07
0.00246969
2.18944e-07
0.00403557
0.00220543
0.00341937
9.68066e-08
2.19197e-07
0.00143514
3.79845e-09
2.47823e-08
2.64316e-08
0.00248498
9.15691e-09
0.00063557
0.000492208
2.58135e-09
0.0026822
5.06867e-06
0.00273207
1.84917e-08
0.00255376
5.59522e-08
0.000340236
1.61267e-09
4.25149e-09
4.29698e-08
0.000746777
7.70052e-07
4.17147e-10
2.72041e-08
6.44991e-10
0.000532961
0.000313616
5.89955e-08
0.00190926
4.79371e-07
0.00054471
3.31058e-08
3.68685e-10
6.39897e-09
3.4619e-09
9.09805e-08
2.04116e-05
4.05002e-09
1.32802e-06
4.99376e-08
3.87725e-08
5.23292e-09
9.88083e-05
2.29002e-07
1.22158e-09
6.44949e-09
0.000432447
1.08523e-06
8.0797e-08
0.00157122
1.76832e-06
1.48648e-06
8.41723e-09
5.53963e-09
3.98948e-09
0.000681624
2.57134e-08
6.62371e-09
1.76971e-08
3.64806e-07
9.97353e-07
2.06368e-07
1.82143e-09
3.19975e-06
6.7193e-07
6.83303e-09
6.21861e-09
5.49632e-06
2.07957e-09
4.86611e-09
0.0024647
0.00229281
6.35569e-08
2.88687e-09
1.11819e-09
3.32755e-08
0.00192957
2.61681e-07
1.37755e-06
7.32794e-10
5.50716e-07
3.16211e-08
0.00112016
0.000444876
6.5293e-07
2.3238e-08
3.50201e-06
5.75095e-07
0.000100684
2.25584e-09
1.85223e-08
0.00118814
1.56002e-08
7.74301e-07
5.89485e-07
2.02921e-06
1.2209e-06
9.00432e-09
0.00162357
1.30898e-05
2.99716e-09
1.20954e-08
4.5295e-09
0.000427672
0.000113495
1.80113e-08
0.000637652
1.23404e-07
7.26653e-05
0.00292305
0.000398974
0.00282128
0.00194584
0.00221777
4.52727e-10
2.73775e-06
8.81026e-08
3.4251e-06
1.49077e-05
2.20904e-06
2.01164e-09
4.00738e-07
1.45758e-08
3.27029e-07
0.000761567
2.89164e-07
9.09589e-10
0.00178395
1.46128e-07
0.000207824
1.98801e-07
4.20917e-07
5.89992e-09
4.0016e-07
2.2282e-07
0.00157021
2.09825e-07
3.90003e-08
1.53131e-07
2.60292e-05
0.00137147
0.00136393
0.00294323
4.94139e-09
0.000502802
0.00155207
0.00183408
0.00150766
2.4879e-07
0.0022443
2.74925e-07
4.24313e-09
4.64636e-09
7.46719e-09
0.00152699
0.00183532
5.82933e-09
1.47041e-08
8.76723e-09
4.22213e-07
0.000298096
0.00375128
0.00140452
8.21178e-08
0.00252346
8.66981e-10
3.76413e-08
0.00112936
0.000804571
5.77255e-09
2.73971e-06
1.28413e-08
6.06591e-09
0.00356414
6.45017e-09
0.000423303
1.17821e-09
0.000378709
0.000405406
0.000581334
0.0019865
3.38674e-07
0.00161724
1.34814e-08
1.17774e-05
0.000460523
0.00126909
0.00225371
0.00111494
7.75311e-09
0.00126636
9.57407e-09
1.56673e-08
0.00294467
1.6401e-07
6.57437e-06
5.67467e-08
5.4859e-08
0.000573396
1.43435e-06
2.67759e-09
1.54302e-07
4.36152e-07
0.000403273
0.00232144
2.8266e-07
6.10598e-09
0.000614701
1.81862e-08
1.3571e-08
5.37889e-08
6.22271e-07
0.00214235
1.37382e-08
0.00241695
8.41813e-10
0.00025611
0.00443462
9.33617e-09
3.03317e-06
0.00254016
4.98896e-05
5.20303e-06
2.47401e-09
0.00178049
0.00284983
5.24994e-10
0.000489106
8.52257e-07
0.00061878
1.87016e-08
8.50913e-07
5.13075e-07
2.04478e-08
7.69393e-11
0.000345773
0.00131403
6.06537e-09
1.22592e-09
0.00218227
1.11226e-08
2.05609e-09
3.44364e-08
1.88242e-09
7.8743e-08
0.00363243
0.00209443
2.24777e-08
5.41635e-10
0.00221218
2.04691e-07
0.00277484
3.31907e-09
1.9086e-06
4.5361e-08
8.19101e-09
2.74915e-09
1.07257e-08
0.00334258
5.04396e-09
2.79305e-07
0.000274718
0.00245729
0.000453084
1.44159e-08
1.17377e-06
2.56742e-09
0.000229075
0.00234547
8.8176e-10
3.78217e-09
3.9798e-08
3.36331e-08
0.000502528
2.73258e-07
0.000529725
1.96654e-07
4.72196e-09
5.86731e-11
5.19664e-08
0.000221071
0.000394062
6.39024e-09
0.00394774
0.00252266
8.38513e-09
2.93018e-10
3.50523e-09
8.46828e-09
4.99503e-09
1.81537e-08
0.00275322
0.000620205
0.000514076
7.76063e-05
0.00034825
0.000381683
2.95508e-09
4.27159e-08
1.12448e-09
3.01623e-08
1.88536e-08
0.00234573
1.07013e-08
5.73005e-09
0.00116078
1.65296e-08
7.93418e-08
9.13389e-08
1.87834e-09
8.64834e-08
3.84367e-08
0.00226737
4.89004e-09
1.53296e-08
4.06672e-09
1.39197e-08
2.18771e-08
0.00387077
4.77134e-07
1.16906e-07
7.306e-08
8.38534e-10
4.51687e-05
1.02438e-06
3.81389e-09
5.99881e-07
1.2584e-05
9.92347e-09
9.77219e-09
1.03714e-05
1.65008e-06
2.50573e-07
0.00316993
3.9867e-09
3.95957e-07
1.35866e-06
0.00291479
2.24261e-07
3.67083e-10
1.9186e-06
1.51914e-05
3.42964e-07
1.03291e-08
1.71378e-07
4.60201e-08
6.67082e-08
1.64492e-08
3.17178e-08
0.00185036
1.77578e-09
1.22182e-08
1.08636e-08
5.6004e-10
5.27906e-09
8.10849e-10
0.00421513
1.2525e-07
2.6674e-09
3.31852e-09
3.33769e-09
1.08274e-09
4.95507e-08
5.34811e-09
2.82884e-09
5.58035e-08
1.37079e-08
0.00228323
2.98482e-09
0.000384379
3.73039e-08
1.18327e-07
1.83057e-08
1.21012e-06
2.09834e-09
0.00329526
9.47189e-09
0.00185108
2.96906e-07
4.56984e-08
9.98106e-09
1.82302e-06
2.35871e-09
4.0043e-09
3.17646e-09
0.000259187
0.000626645
0.0022078
1.01044e-07
1.56821e-07
0.00227908
1.72375e-06
6.39303e-09
1.07932e-08
2.98342e-07
1.10332e-08
0.00424963
2.76687e-06
0.00316785
2.82007e-08
7.74865e-09
0.0015891
0.00149214
0.0018045
1.64079e-08
1.4759e-06
0.00194096
1.6799e-09
1.23232e-05
1.56337e-07
0.00184002
0.000459338
1.91448e-07
0.00238249
2.04641e-05
6.21392e-07
0.00213769
0.00223933
1.6035e-08
0.00245124
0.0031165
0.00186836
1.81197e-08
4.42744e-09
6.58932e-09
9.41207e-10
2.70935e-09
0.00163
0.0028402
0.00185738
3.61054e-09
0.00320205
2.85889e-09
0.00228113
0.00258312
1.08487e-08
3.72969e-08
0.00170839
2.43086e-08
1.21448e-08
3.21873e-07
7.32595e-10
0.0026435
0.00204859
8.28224e-07
0.00163467
5.29852e-09
3.0279e-09
6.00078e-09
3.33742e-08
7.27702e-08
3.09992e-07
1.16182e-09
5.85118e-09
1.50533e-08
7.77965e-09
6.68157e-09
9.64935e-08
2.73534e-10
2.45861e-08
2.11229e-06
1.21675e-08
3.58422e-08
2.729e-09
1.2473e-07
1.48038e-09
6.68099e-09
2.22428e-07
1.6253e-09
3.0588e-09
0.00194152
3.4814e-08
5.08558e-09
6.75377e-07
2.81924e-09
1.41201e-08
4.95041e-08
0.00186678
9.32073e-08
0.00225594
0.00153935
1.57403e-08
1.3719e-08
5.80996e-08
6.01504e-09
0.00163018
4.57969e-08
2.20862e-07
3.71473e-07
2.66682e-08
0.00243673
0.00154645
1.98671e-09
3.07602e-09
7.06274e-09
6.39165e-08
5.96958e-08
7.04523e-09
4.23079e-07
4.23184e-09
1.49208e-06
2.49191e-09
3.22932e-09
7.07391e-09
1.6793e-08
2.31664e-07
7.13516e-09
1.88758e-08
0.00443566
0.00150007
0.00265514
0.00160496
1.48872e-06
1.13608e-08
0.00208101
6.95172e-07
6.38183e-09
0.000410059
2.55017e-09
1.4426e-07
0.00242296
4.33167e-08
1.3342e-07
2.303e-08
4.4714e-08
0.00140033
8.59536e-09
1.1691e-09
2.1306e-07
2.55225e-09
4.86785e-07
6.06318e-06
6.87374e-08
0.0021667
3.78488e-08
0.000460408
2.60914e-07
0.00209882
4.55531e-10
5.01924e-09
2.58455e-07
3.60253e-09
0.00188248
3.88695e-07
0.000518425
1.49304e-07
1.9073e-07
1.35716e-07
2.80069e-08
5.95782e-09
4.82739e-08
3.04637e-06
4.12236e-08
2.62545e-06
0.00339656
5.28475e-08
0.0043174
5.6766e-09
2.78419e-09
4.56452e-06
0.0019474
1.16141e-08
1.24808e-09
9.00707e-07
5.83632e-08
2.99695e-08
0.00242909
1.34941e-08
6.12717e-07
0.00273533
1.35664e-09
8.72972e-09
4.17815e-07
8.87692e-10
6.47175e-09
0.00261444
4.7241e-09
0.00285683
2.0756e-08
2.13444e-07
3.94449e-08
0.000941248
5.90243e-08
2.77961e-08
1.91401e-07
0.00261737
1.64417e-06
5.4255e-09
9.27367e-09
1.29819e-07
0.00216829
4.18137e-09
5.87862e-08
6.46619e-08
1.59574e-06
0.00261191
0.000270088
0.00119057
1.34385e-08
0.000358115
1.07858e-08
9.03514e-07
0.000789903
6.39744e-09
0.000881164
3.2844e-06
3.22076e-09
2.64879e-09
1.24129e-08
0.00261562
1.5724e-08
2.97483e-09
2.6766e-07
1.12351e-08
5.79665e-09
0.000301472
3.15457e-09
4.47527e-08
0.00251861
1.2666e-06
3.14338e-09
0.002107
3.25757e-06
6.63367e-09
1.33337e-08
1.20102e-05
4.39341e-08
2.23803e-07
1.62566e-08
4.32822e-08
6.16119e-08
4.75057e-06
0.00109765
4.69873e-08
0.00254005
1.56707e-08
3.92103e-08
0.00284601
3.3049e-08
7.17649e-08
9.55439e-09
1.30385e-07
0.00244715
2.60606e-08
1.96799e-08
0.00163502
7.02091e-09
0.00275837
1.14482e-09
8.34458e-09
8.81394e-10
9.20918e-09
0.00155858
5.70456e-08
7.69413e-10
1.56413e-09
1.38013e-08
7.15543e-08
0.00265774
4.5337e-09
4.34229e-09
2.55194e-09
1.57674e-07
5.28424e-06
4.23564e-09
0.00166323
2.23624e-08
1.24358e-08
6.5756e-09
5.42908e-08
0.000429644
6.75152e-07
1.49292e-10
9.29621e-10
0.00190957
0.00229107
5.45478e-08
3.86098e-09
0.00183534
1.83158e-08
4.93711e-10
0.00356035
9.91095e-09
0.00282674
3.02366e-07
1.7566e-08
1.84001e-08
1.36527e-08
9.52205e-09
5.79416e-09
3.04494e-05
7.60393e-07
1.31912e-09
4.41037e-08
5.56206e-08
5.77103e-09
0.00267576
4.56882e-09
1.13109e-08
0.00207136
2.64276e-08
3.60567e-08
1.51603e-10
0.00240027
2.95143e-08
1.33787e-07
3.76231e-09
3.70051e-08
4.33323e-09
0.0024517
5.47596e-09
6.9788e-09
0.000613068
1.15008e-08
7.37412e-09
0.00241531
6.71276e-08
3.91977e-10
3.04488e-08
5.86944e-09
0.00194666
4.56211e-07
6.05064e-08
3.26281e-09
4.24135e-07
1.46423e-07
9.62638e-09
1.41581e-09
1.02929e-09
3.47063e-08
7.48662e-09
8.33117e-10
6.85647e-09
8.05864e-10
7.26134e-09
0.00239463
7.15843e-07
1.53182e-08
2.03636e-09
7.48349e-10
0.00231711
7.82715e-09
0.00340196
9.40721e-07
0.00163855
6.80722e-10
0.00222764
0.00304332
7.18699e-09
1.05234e-08
8.19986e-08
0.00218267
0.00263253
3.19326e-07
8.20796e-09
2.65574e-07
5.65867e-10
2.21232e-07
8.32272e-09
9.88783e-08
1.69847e-08
1.30135e-09
3.46408e-09
1.26419e-09
6.63252e-09
9.26265e-09
4.18382e-09
5.07921e-09
1.30153e-08
9.08402e-08
3.17745e-11
3.36691e-09
7.59127e-10
6.01035e-09
1.22665e-09
1.73924e-07
0.00196271
0.00288831
3.84172e-09
0.00230993
1.49527e-08
2.74128e-09
5.54487e-09
1.64867e-06
1.86367e-07
7.22237e-08
5.0891e-10
1.04545e-08
1.63354e-09
8.77654e-09
1.6535e-09
1.53282e-08
1.41301e-07
0.0016399
2.6444e-09
3.67712e-09
0.00145627
0.00185095
0.00227057
0.0020638
0.00179874
4.41984e-08
2.83842e-08
3.22414e-09
9.1649e-09
7.58271e-09
1.40006e-06
7.81442e-10
2.92835e-08
3.48603e-08
7.20973e-09
2.58564e-09
2.4372e-09
7.61247e-07
3.15505e-06
4.06912e-07
7.594e-09
1.54676e-09
4.56946e-09
0.00294983
2.16522e-09
0.00192242
1.04361e-07
9.27374e-09
7.52194e-07
0.00105424
7.36383e-08
4.34021e-10
4.12333e-09
2.37366e-09
1.19241e-09
2.36775e-08
1.83563e-09
0.00114525
3.60316e-10
4.18239e-08
0.00284514
3.55049e-09
0.00138067
6.0928e-08
0.0022361
9.77441e-08
0.00126095
1.83561e-10
0.00289479
0.00240591
2.95643e-08
4.25092e-09
0.00162709
1.82304e-08
0.0018694
1.60101e-08
7.78679e-09
5.00125e-10
1.65439e-08
2.06896e-08
1.48463e-08
6.46621e-07
0.00292333
0.0017025
1.22136e-06
3.57621e-09
3.56944e-07
0.0031557
0.00141965
0.00245382
0.00243161
5.44118e-09
5.97128e-08
2.86748e-08
1.31149e-08
0.00314865
5.98971e-09
0.00153714
0.00333276
5.24917e-09
2.72923e-09
0.001664
0.00313711
3.07653e-08
7.72209e-10
0.00174247
8.83255e-08
1.40507e-09
4.90862e-07
9.56431e-08
0.00040671
6.67362e-08
5.60443e-08
2.51229e-07
2.73408e-07
9.92675e-08
4.00579e-09
4.71701e-09
1.28306e-08
3.00914e-09
1.68813e-08
7.46981e-09
2.42526e-10
2.00026e-09
0.00207032
0.00293804
3.31708e-10
2.42265e-08
6.78001e-09
3.10979e-09
4.7956e-07
2.02388e-08
2.52996e-09
0.00283455
0.00156209
0.00145878
0.00168562
5.17201e-08
0.00136247
2.8509e-07
0.0039103
6.09779e-10
0.00235367
2.86482e-08
3.55392e-08
1.59309e-07
5.94809e-10
0.00305801
1.88257e-07
0.00423627
6.70117e-09
1.47338e-09
9.98396e-09
8.61062e-09
0.00139227
0.00297618
1.69049e-10
3.04987e-09
1.99876e-08
0.00173238
4.38833e-09
0.00292787
3.48682e-07
1.70993e-09
6.30362e-09
0.00250426
3.47247e-08
0.0022171
8.17935e-08
0.00395422
0.00330575
7.38284e-08
1.91677e-09
0.00366099
9.20139e-09
8.50796e-07
0.000344637
1.56828e-08
1.41818e-07
2.23327e-08
8.02494e-09
0.00310816
5.60806e-09
7.39344e-08
3.19791e-10
6.6739e-08
7.75737e-09
4.82615e-09
2.10781e-08
9.66565e-09
1.79503e-08
0.00302189
2.18528e-08
2.38246e-08
4.74775e-09
1.48568e-08
1.04826e-08
7.42258e-09
9.42212e-09
0.00226538
7.99017e-09
0.003032
0.00189472
5.68622e-09
0.000360671
2.66386e-09
3.16456e-09
2.72405e-08
2.07116e-08
3.06346e-08
0.0015834
0.00209611
1.11857e-07
1.03186e-07
8.55463e-08
0.00318291
0.00110971
4.8182e-08
0.00216296
0.00453027
1.24887e-06
0.00258966
0.000410466
6.29226e-09
7.83046e-07
2.51672e-08
0.000563896
7.07346e-10
0.0026059
2.54922e-10
2.54996e-09
0.000636488
0.000341711
1.90671e-08
0.00046044
4.88711e-08
9.67924e-08
2.12327e-08
3.06753e-09
4.27881e-07
2.73665e-09
5.64379e-09
0.00256334
1.21295e-08
1.39033e-08
4.2904e-09
1.22007e-07
1.65608e-09
4.56995e-05
3.30876e-08
2.1123e-08
9.02851e-08
1.61694e-07
0.000297092
0.00227249
4.25046e-08
7.17213e-09
0.00242982
0.00241027
3.70327e-08
2.3499e-08
1.25249e-08
2.94731e-09
2.71407e-08
1.14487e-08
0.00202489
0.0044733
6.94159e-09
2.4119e-09
3.79183e-09
5.03146e-09
0.0025486
0.000394487
1.95405e-09
1.87356e-08
1.72787e-08
0.00222425
1.05175e-05
1.09105e-06
0.00200814
2.20981e-08
2.36205e-08
3.64154e-09
3.63275e-08
2.1327e-08
0.00232785
5.30782e-08
0.000310598
3.55304e-09
5.18108e-09
0.00328727
0.00267026
7.79973e-09
0.00314986
1.08443e-09
1.47775e-09
4.75209e-07
4.6e-09
2.56163e-09
0.00187407
2.73062e-08
1.29263e-07
0.00385141
1.29029e-08
0.00155034
0.00311284
1.31921e-08
0.00329648
1.39283e-08
1.30329e-08
1.78425e-08
1.93944e-07
9.27723e-09
4.63662e-08
6.25915e-09
2.41043e-08
4.7695e-07
1.98309e-08
0.00244589
6.58602e-09
0.00309461
8.2687e-10
1.29137e-08
6.49691e-09
0.00230995
7.62825e-09
0.00230731
0.00203175
0.00319572
1.79155e-08
0.00220544
1.50135e-07
2.04694e-08
2.00586e-09
8.32033e-09
1.28156e-08
8.04935e-08
1.4795e-07
2.96051e-07
2.80957e-09
0.00291896
3.6539e-08
1.23832e-09
9.2496e-10
4.1421e-09
1.1828e-09
0.00206181
3.48714e-08
0.00307716
2.38695e-08
0.000624967
2.61648e-09
3.14645e-09
0.00182071
0.00347252
6.785e-08
1.98578e-09
0.00378379
1.32927e-08
1.15345e-09
1.27174e-09
5.66509e-09
5.81509e-10
1.28784e-08
1.55393e-09
1.31253e-08
4.0673e-09
5.87103e-08
2.70135e-08
0.00252674
5.75718e-07
1.04388e-07
1.28423e-08
5.82427e-09
0.0021633
1.35631e-08
0.00313613
4.45246e-08
2.84238e-08
6.26404e-09
6.23554e-09
8.24163e-08
7.6452e-07
0.00134998
0.00127945
8.33251e-09
0.0038059
2.2634e-08
0.00286729
9.01631e-09
7.26536e-09
2.6169e-09
0.00270126
0.00132606
0.000427454
4.50596e-08
2.04754e-09
0.00133873
4.86648e-09
4.16109e-09
8.31501e-09
7.19011e-09
0.00245115
0.00209704
1.69542e-08
2.16034e-08
5.4849e-08
3.84658e-09
3.22963e-06
1.80826e-06
6.20666e-09
2.37517e-08
0.00164003
8.43283e-09
3.02182e-08
1.14586e-09
3.64691e-08
3.46232e-09
0.00234802
5.56533e-09
1.68651e-06
0.000526657