/*--------------------------------*- C++ -*----------------------------------*\
  =========                 |
  \\      /  F ield         | OpenFOAM: The Open Source CFD Toolbox
   \\    /   O peration     | Website:  https://openfoam.org
    \\  /    A nd           | Version:  10
     \\/     M anipulation  |
\*---------------------------------------------------------------------------*/
FoamFile
{
    format      ascii;
    class       volScalarField;
    location    "18";
    object      SgRate;
}
// * * * * * * * * * * * * * * * * * * * * * * * * * * * * * * * * * * * * * //

dimensions      [1 -1 -3 -1 0 0 0];

internalField   nonuniform List<scalar> 
59698
(
0.0163413
0.00189522
0.00239332
0.00281047
0.0305129
0.00145199
0.00256397
1.11838e-07
1.99319e-09
3.93469e-09
0.00058647
1.61807e-09
1.58079e-09
0.00237156
0.000368259
4.27554e-07
1.00025e-08
3.82953e-09
1.73754e-09
2.49036e-09
0.00175072
0.0150195
0.000499183
8.81908e-08
0.0418382
1.01574e-09
9.92334e-10
0.00261587
0.00964241
0.000851203
0.000321418
0.000600627
6.68448e-08
0.00501639
0.00244007
3.70705e-09
0.0193465
0.0205348
1.80256e-08
0.0243499
2.77925e-08
2.30452e-07
1.96839e-08
2.25739e-08
0.000402108
2.163e-07
2.09884e-09
5.14447e-08
0.0030254
3.41348e-08
8.38954e-10
1.66561e-09
0.0017822
0.00284201
0.0118319
1.98631e-09
8.7846e-08
0.000212337
1.65915e-08
0.00278741
0.00183212
6.39283e-08
0.121897
1.49161e-09
0.0136777
4.28668e-08
1.74791e-09
3.00881e-09
4.13029e-09
6.77157e-09
6.1926e-07
3.26139e-08
0.0003637
0.0406431
0.00041196
0.0390979
2.58871e-08
2.49259e-08
5.70522e-09
0.00612685
0.00757737
8.13621e-10
4.05669e-09
9.74923e-09
0.00845018
3.40212e-08
8.92676e-09
2.31614e-07
0.0591866
2.32514e-08
4.52407e-09
6.55155e-08
0.013826
6.467e-09
6.28559e-08
0.00372053
0.00430431
5.95368e-08
0.000317524
8.58988e-10
0.0793492
0.00180116
0.00313518
0.0153792
5.25714e-08
0.000564776
2.7269e-09
2.01025e-09
2.74519e-09
4.40527e-10
3.6749e-08
2.71239e-06
0.0395023
1.56286e-07
1.01224e-07
3.1331e-08
3.57512e-07
0.00365992
3.10996e-07
1.15554e-08
2.07826e-09
3.06988e-07
2.20287e-07
2.97406e-09
1.97699e-09
7.5508e-09
7.89653e-09
7.21429e-09
1.30226e-08
3.93943e-07
0.00351486
3.43547e-09
1.11484e-09
0.100131
2.51004e-05
2.38556e-09
5.03903e-07
2.61843e-10
1.82172e-09
5.04151e-09
2.0763e-08
0.00240523
0.0025833
1.19147e-09
1.96707e-07
6.15032e-10
5.54783e-07
3.95467e-07
0.00465093
0.0163927
0.000299464
0.000434385
3.0519e-08
2.67099e-07
5.64553e-09
1.06232e-07
6.37581e-09
0.00169005
7.34045e-08
5.60173e-10
3.01669e-09
8.36565e-09
0.00892699
1.2891e-07
2.04257e-08
0.00233544
9.94425e-10
0.0721849
0.00161211
7.04311e-09
0.0121387
1.5189e-06
0.0108048
0.0158117
0.0793458
0.00126242
4.40466e-09
0.00144628
0.000326015
0.00504652
0.00944202
0.00329886
0.00178858
1.20586e-08
0.0403152
0.00277201
0.00507393
0.00247272
1.32988e-10
1.51828e-08
6.49408e-09
7.22516e-09
0.00161897
0.00465681
1.32911e-07
0.00432679
0.00985327
0.0582752
2.70276e-05
9.52181e-08
0.000227101
0.00614491
7.27195e-09
2.14894e-09
0.00377281
0.00250517
3.80689e-08
0.00215713
0.00280675
0.00368887
0.00250883
5.97285e-09
0.00277479
1.5679e-08
2.20465e-09
0.0034898
8.84084e-09
4.73667e-08
1.62618e-07
5.06432e-09
0.00560123
0.00227614
1.67076e-09
3.90443e-05
8.66579e-09
0.00292928
1.5595e-08
5.07756e-09
0.00670584
0.158537
7.56893e-09
1.54503e-08
6.10465e-09
7.18942e-09
9.90628e-09
1.2314e-09
0.000160102
1.99703e-08
1.82837e-07
7.54985e-09
0.00270385
1.22563e-07
3.51829e-08
0.000664542
4.13449e-09
2.18254e-07
0.00376365
0.229042
3.27197e-09
5.14739e-09
5.97592e-08
4.96084e-09
2.96495e-08
0.000233548
1.81648e-08
0.0017689
1.09685e-07
5.81364e-08
0.00325006
2.31516e-09
1.45343e-05
1.82087e-09
7.10694e-09
0.00282256
0.00373588
0.047397
1.18762e-09
1.07165e-07
2.03283e-08
6.35817e-10
2.86355e-09
0.0439499
0.00022442
6.48958e-10
0.000100816
4.97879e-08
0.00151443
3.82703e-08
3.00219e-09
1.196e-09
0.000574131
2.40597e-09
1.53288e-09
0.104785
0.0488138
0.0201669
3.99228e-09
0.000647617
0.0727954
1.06708e-07
0.0915546
0.00238126
8.65744e-09
1.39557e-09
7.32968e-07
0.00283169
7.81909e-10
1.63417e-07
1.66604e-08
6.58944e-07
3.01897e-09
2.32184e-09
6.86643e-08
9.61196e-10
1.00223e-09
1.11777e-09
0.0510242
2.27417e-08
5.30019e-09
4.08849e-10
0.00196459
4.54928e-08
4.42568e-09
2.38006e-08
0.0019849
4.16232e-09
0.00040339
8.315e-09
0.000829308
9.09798e-08
9.68666e-08
0.323055
1.67527e-08
2.9677e-09
0.0491592
3.29699e-07
1.6097e-08
9.8553e-09
9.7661e-10
0.000361922
0.00381908
4.15553e-08
0.000798705
0.20628
0.000430952
8.58072e-09
7.803e-09
3.92879e-09
1.48881e-07
0.00126708
2.78025e-08
0.00215849
0.00258984
3.72329e-09
1.05294e-07
1.15781e-09
6.63115e-10
0.0374683
1.56731e-09
0.00207863
1.0553e-09
1.16703e-08
0.0400224
7.94431e-10
0.243443
0.00311957
0.0140678
1.51897e-08
3.1981e-08
1.82005e-09
2.20137e-08
1.03006e-08
1.10326e-07
3.02263e-09
1.22497e-10
1.04128e-07
0.00289837
0.0020678
2.89126e-08
0.00165599
1.29479e-07
0.000533989
0.00378752
0.000651141
1.87934e-08
2.97601e-09
3.74186e-08
2.62012e-09
0.000460527
2.48791e-09
0.000347124
4.71807e-08
4.41844e-08
5.13532e-08
7.17569e-10
1.98075e-05
1.13796e-08
0.000544825
8.89704e-10
3.70948e-08
2.33953e-08
0.000457492
0.00343272
3.92145e-05
0.00134485
0.00228115
0.0485641
0.00189166
0.00278908
8.20061e-08
0.00248467
0.00247719
0.00266237
4.40683e-09
0.00153884
0.00432944
0.0853159
0.0281299
5.20935e-09
0.0134634
0.031486
0.0004043
0.00171369
0.000434538
5.01556e-10
0.0597754
2.0403e-09
0.0102882
0.002415
0.00183781
0.00304414
0.00225953
0.00255736
0.310918
9.35494e-09
2.95688e-09
7.77847e-09
1.5729e-08
0.00143618
5.67323e-10
7.47393e-09
0.00214896
0.0163268
2.32397e-08
0.000247282
1.40818e-08
1.39061e-08
0.213245
3.80026e-09
0.00218336
1.92334e-07
0.00331013
5.13789e-09
4.53439e-08
1.89534e-07
0.00239626
0.0698612
4.52192e-10
2.12856e-09
1.37419e-07
0.0026307
6.08357e-09
7.32586e-08
0.0330458
6.41327e-07
1.1539e-07
0.108343
1.41706e-09
0.00969139
1.68635e-07
0.0541373
4.41857e-09
0.0158494
0.0131472
2.19236e-09
2.14583e-07
3.55607e-07
1.16499e-08
4.5741e-08
2.33168e-09
0.00258027
4.40082e-09
2.08919e-10
6.88372e-09
6.34548e-08
2.10208e-06
0.00112857
0.0333271
0.0031069
0.00201982
2.36211e-08
2.25501e-07
1.48656e-08
1.93904e-08
0.00543984
3.93483e-08
4.47652e-08
1.92066e-08
1.50524e-07
2.4834e-09
0.0259823
0.065701
3.47686e-07
4.27492e-08
0.00414798
2.21939e-07
1.58209e-08
0.00245669
4.12864e-08
0.000365619
9.69553e-10
0.0662226
2.15847e-07
5.9159e-09
1.71113e-08
1.11865e-09
8.39686e-08
2.16591e-09
4.76846e-09
8.38771e-09
4.11313e-09
4.18009e-08
0.00721861
5.41921e-08
1.29194e-08
2.29458e-09
6.86951e-09
9.19608e-09
7.04558e-08
2.48739e-08
1.75901e-08
1.93282e-09
4.66489e-09
3.85891e-09
2.18827e-09
0.00125208
4.71239e-08
1.67434e-09
0.00347329
0.00378055
2.65391e-09
0.0433604
1.82759e-08
4.76579e-09
0.00150584
3.56182e-10
1.35521e-08
0.00180806
1.90645e-09
0.000384877
4.22868e-08
2.04694e-09
4.17294e-08
0.0677864
1.20033e-08
6.17673e-09
0.0100061
0.000173362
1.76762e-08
7.8561e-06
1.78534e-08
2.28358e-09
3.05431e-08
1.91709e-09
6.58324e-09
1.39656e-08
1.91702e-08
1.53192e-08
1.67069e-09
5.02711e-09
0.0007685
1.7446e-09
1.53008e-08
9.40807e-05
1.44589e-08
1.80979e-09
0.0737197
2.1647e-08
6.33894e-09
0.000539242
6.39088e-10
7.85376e-09
2.0469e-07
3.1622e-09
4.02386e-08
9.34034e-10
2.51967e-10
4.99628e-10
0.00210141
2.30987e-09
0.000732639
4.27668e-08
0.00515954
1.41972e-08
5.8334e-09
0.000313359
1.27049e-09
1.15377e-08
2.52479e-05
1.9847e-08
2.37417e-09
0.00333354
7.35367e-09
1.58913e-08
8.51562e-10
3.97915e-08
9.26924e-07
0.00432024
0.000349776
7.29099e-09
6.65824e-09
1.50817e-09
2.84299e-09
0.00350294
1.62826e-08
5.45839e-09
2.00831e-09
0.00108765
0.00395641
1.45252e-08
1.1896e-08
1.0019e-09
1.04359e-08
4.41843e-09
2.65465e-09
4.65163e-09
4.66352e-09
0.231747
1.87874
6.70433e-09
5.0387e-09
6.51936e-09
1.63983e-08
0.000944452
0.00253449
1.16003e-08
0.00273534
2.52799e-09
9.11556e-09
4.98585e-09
0.00282726
0.00021121
1.39153e-09
9.3545e-09
9.18919e-10
2.92039e-08
1.38129e-08
2.64687e-09
0.00157058
0.109671
1.32087e-07
1.65176e-07
0.000607883
1.44409e-09
5.39892e-09
2.45928e-09
4.24638e-07
0.00218804
3.6429e-08
1.77326e-09
0.000439477
7.2383e-09
3.29045e-08
4.34051e-09
2.00567e-09
4.38884e-09
7.99489e-10
7.89931e-06
1.01199e-09
0.00188256
5.14122e-08
1.13308e-07
6.82983e-09
0.0197661
0.0910532
7.01993e-09
2.23393e-08
0.00239414
0.00321079
0.0410063
3.86691e-09
7.81115e-07
1.95657e-09
0.00356834
2.71431e-10
1.57928e-08
0.000428465
0.00266298
0.000436727
1.34123e-09
2.01144e-07
6.11583e-07
3.53435e-07
0.000378104
0.00143848
1.05879e-10
5.66065e-09
1.29111e-09
4.63946e-09
0.003312
2.87778e-08
0.030565
1.093e-08
0.00135484
0.00215092
0.00245489
6.5331e-08
3.36859e-09
0.000650605
1.14859e-09
2.36582e-10
9.72166e-10
3.76051e-09
1.83239e-08
5.06862e-09
1.51345e-09
0.00155477
6.83228e-08
9.03e-09
2.72163e-09
0.00192749
4.17924e-08
3.8333e-08
0.000362146
9.68202e-09
3.84108e-08
3.63675e-08
1.76421e-09
1.41454e-09
0.000646942
0.0619811
0.00254131
3.3822e-09
9.39863e-09
4.01154e-09
1.74258e-07
0.00881799
1.35295e-09
0.0552206
2.52703e-08
0.00254939
0.000344566
0.00302085
0.00042693
1.48066e-07
0.0112155
0.00444855
0.000532171
1.94669e-08
0.0600675
3.71853e-09
7.16192e-08
0.245964
0.00243029
2.43802e-08
1.2784e-07
0.00191925
0.00172418
2.51721e-08
0.00187442
1.85001e-09
0.0600724
9.20882e-09
0.0247563
7.39472e-10
5.84166e-09
0.105124
0.237933
0.000599742
1.16103e-07
7.0194e-08
0.000383644
4.4022e-08
2.85568e-09
0.00196678
0.00227971
6.07269e-09
8.98199e-09
0.00040156
1.06528e-08
1.99439e-08
0.000373921
3.51082e-10
0.00273939
2.60363e-09
1.87219e-08
1.90534e-07
3.89877e-09
4.14501e-08
3.75788e-08
1.22996
3.75414e-09
6.48349e-09
7.00867e-09
1.21446e-08
9.99063e-08
1.61147e-08
0.000326092
0.000975519
0.00199089
0.00145247
0.00132021
0.00044922
0.106271
0.00193581
0.00547048
0.000541631
6.84314e-09
0.000383131
1.40542e-08
3.07539e-09
1.58767e-09
0.00324153
3.96713e-07
3.48468e-08
0.000212238
6.26335e-08
0.00162572
1.66488e-07
0.00683477
3.53178e-09
0.00100438
3.37362e-09
0.00130434
0.000114348
0.000506703
0.000651795
0.00185256
0.0199878
0.210233
3.76213e-09
0.00872629
2.73258e-08
0.000701646
0.000444767
0.000428764
0.00216277
3.14722e-08
0.000178257
0.000561237
4.59113e-08
0.0023508
4.68375e-10
0.000401154
2.29403e-09
2.9377e-09
3.32716e-05
0.000503637
0.000276087
0.000315746
7.69234e-09
5.12846e-09
2.05828e-09
0.000487299
2.03238e-09
0.00359459
0.00488978
2.97115e-09
0.00049971
2.07144e-09
1.18856e-09
2.92084e-09
0.0155137
0.000469633
2.45173e-09
1.31764e-09
0.0352085
4.74388e-09
1.10011e-07
3.56937e-09
3.10137e-09
9.73284e-08
2.63822e-07
3.40944e-08
1.05966e-08
0.000532566
7.26056e-10
0.000128458
2.85227e-10
2.49945e-09
0.00128077
1.48984e-09
0.00887345
8.98265e-08
1.06341e-08
0.000108823
1.24909e-08
0.00162085
3.00502e-08
4.64957e-10
0.00180194
6.19364e-09
9.76961e-09
0.000307131
1.24235e-09
0.00212727
1.74906e-08
2.04953e-09
0.00438684
3.05893e-09
3.92232e-09
1.73848e-08
1.74283e-08
0.000319936
4.24301e-09
4.7896e-09
1.68414e-07
0.0018945
0.000633449
0.000584048
2.34214e-08
4.094e-09
0.000379941
0.00244872
5.12654e-09
8.57811e-09
5.937e-08
1.18684e-08
3.21332e-09
2.2578e-08
0.000412248
0.00149908
0.00271692
1.49205e-07
2.04041e-09
0.00275975
0.00414274
0.00538167
5.07679e-08
1.58785e-08
1.61878e-07
0.0408767
1.74892e-08
2.31477e-08
0.114808
2.81531e-08
6.52703e-09
4.61604e-09
0.0326075
0.0220218
7.38373e-09
0.00260383
1.47271e-09
6.28615e-08
2.08202e-08
2.93712e-08
5.12236e-09
3.8934e-10
0.000761135
2.01338e-08
3.33183e-09
0.00198207
2.12246e-08
2.67257e-08
0.00328496
2.81765e-08
0.0225359
6.15e-09
2.00279e-08
2.43771e-08
0.000825915
2.78752e-08
0.00227336
1.90522e-07
2.0979e-07
3.52554e-08
0.00552898
0.000295064
4.37838e-09
4.86964e-09
1.03295e-06
1.43989e-09
1.21814e-08
9.34917e-09
0.0017436
6.36889e-10
1.41609e-09
7.3142e-09
4.73815e-09
3.61275e-08
2.3638e-08
7.52469e-09
0.00042922
0.00229906
0.000466222
6.3252e-08
0.00323152
0.0190288
0.0203303
2.13679e-09
0.00191555
0.00291126
0.00162738
0.00216505
0.00212686
3.92613e-09
5.70404e-08
0.00248563
2.20391e-07
1.35559e-06
0.0564112
2.36212e-08
0.000443737
2.29276e-08
0.000538421
0.000105243
2.50431e-08
0.00396723
1.36428e-08
0.000608739
6.9056e-09
1.32357e-08
6.36072e-10
3.13902e-08
0.0015902
0.00377153
0.0225195
0.000395621
0.00196228
0.0014045
0.0227931
5.6753e-10
4.03327e-09
8.87947e-10
0.00461267
1.23439e-09
1.33339e-07
0.00469067
6.2377e-09
0.00359945
0.00356504
0.00378642
1.29024e-08
5.7787e-08
4.62706e-08
7.55475e-09
1.04557e-08
0.000510399
1.23594e-08
5.76961e-09
0.000475234
4.97111e-09
2.74431e-08
2.87463e-07
5.46605e-10
0.00168365
3.20902e-08
4.07422e-09
6.15016e-08
3.40746e-10
0.00370134
3.38655e-09
7.47787e-05
0.00319583
0.736651
8.44438e-10
1.56498e-08
0.00217377
0.00320322
1.77936e-07
0.00076043
9.18962e-09
8.22737e-09
0.00269718
2.6841e-08
0.00328902
0.000542245
1.0476e-09
0.0197752
0.0007658
2.15457e-08
2.29207e-08
0.00260101
7.78693e-09
1.12044e-08
3.10442e-09
0.000534595
0.00817267
0.00200512
0.0925453
9.45164e-09
0.00182199
0.0820686
2.59536e-10
0.00876167
3.27085e-09
0.0252253
0.00133327
1.42052e-09
8.58403e-10
1.14409e-08
6.27952e-09
1.54749e-08
6.89213e-09
1.17018e-08
1.03849e-06
9.32908e-10
1.5598e-09
0.00176234
3.07696e-09
0.00968382
2.92963e-08
0.00256367
0.000520713
1.21843e-06
0.0363692
0.0547398
3.07029e-09
1.42129e-08
0.00105454
0.455591
2.47313e-08
2.30594e-08
2.42579e-08
0.000449091
0.102625
7.68472e-08
2.28676e-07
3.78743e-09
0.00811068
5.75454e-09
1.23417e-08
2.03501e-08
9.98259e-09
2.99263e-08
0.00462304
5.62702e-08
2.86993e-08
1.92138e-08
4.85676e-09
0.000477737
2.27392e-09
4.72016e-09
3.42826e-08
2.50943e-10
1.53251e-09
7.08789e-09
7.59736e-09
1.32482e-08
0.112395
1.18457e-08
1.19357e-08
2.56535e-09
2.08049e-08
1.15525e-08
1.03362e-08
6.00012e-08
0.000380629
0.00250334
1.55676e-08
9.32097e-09
0.00291696
1.74019e-09
0.0187373
0.0121067
4.73121e-09
7.62256e-07
0.0835878
0.00296702
2.49051e-08
3.09973e-08
2.29234e-07
0.00371015
0.0361284
0.00203822
6.47471e-10
3.62344e-09
4.4123e-07
1.35488e-07
5.48498e-09
1.39321e-09
5.76428e-09
7.56333e-09
0.116076
0.051226
6.06729e-08
3.55027e-08
5.38375e-08
0.00277996
0.00254064
0.0264181
1.48849e-08
3.52671e-08
4.00588e-08
4.54838e-09
2.89556e-09
1.8818e-07
4.22129e-09
3.37727e-08
1.9005e-09
1.11231e-08
2.12738e-08
2.95869e-09
0.0196728
3.24126e-09
0.00043443
1.02371e-07
0.0040456
0.00168558
1.14237e-07
2.24264e-08
0.0005797
0.000345168
2.67786e-08
2.3435e-08
9.38458e-06
2.27991e-09
1.66871e-09
2.27832e-08
1.62438e-08
0.000781453
0.000646984
1.00391e-08
1.27154e-08
7.55755e-09
3.43861e-07
0.000312192
0.00275845
0.000496407
4.38949e-05
0.0002388
7.30041e-09
0.000315432
0.000232265
0.000223571
2.94539e-08
0.103943
1.84899e-09
1.04538e-07
2.26363e-08
0.00247995
4.88353e-09
4.24366e-08
6.96848e-09
8.49466e-08
0.0195944
0.00204095
0.00235431
2.24048e-08
3.06203e-08
0.000377619
4.28223e-08
0.00959479
1.04108e-08
0.00312097
4.66457e-08
2.05997e-08
0.0034882
0.0027562
0.000105864
2.75681e-08
0.00134445
2.55725e-08
4.65334e-10
1.39174e-09
5.03249e-09
3.31367e-08
1.36719e-08
6.31823e-10
2.03468e-08
3.82405e-08
1.02108e-08
6.73237e-08
1.63452e-08
5.77421e-07
0.00198888
2.99745e-09
1.49062e-08
5.13606e-08
0.00464502
0.0284144
1.89071e-08
0.00122107
2.95669e-09
2.25161e-07
1.48166e-07
0.000983777
0.00161356
3.19074e-10
1.21945e-07
1.57563e-08
1.22679e-07
0.00238696
3.26399e-09
1.49753e-07
6.88394e-09
8.41199e-08
7.36626e-10
0.000584269
5.20157e-08
0.00213548
1.30749e-09
5.65023e-08
2.52837e-05
1.07355e-08
0.00553009
5.52775e-09
6.9211e-10
0.000142739
3.92018e-08
4.35614e-09
0.000281412
6.10882e-08
7.53359e-08
0.000547246
3.02763e-09
0.000563699
2.92231e-08
2.20866e-09
9.17766e-09
5.94169e-09
2.19866e-08
4.20417e-07
3.19841e-07
0.0632765
0.00246969
2.18944e-07
0.00403557
0.00220543
0.00341937
9.68066e-08
2.19197e-07
0.351623
3.79845e-09
2.47824e-08
2.64316e-08
0.00248498
9.15692e-09
0.00063557
0.000492208
2.58137e-09
0.0026822
0.0360363
0.00273207
1.84917e-08
0.00255376
5.59522e-08
0.000340236
1.61267e-09
4.25154e-09
4.29698e-08
0.000746777
0.0747543
4.17147e-10
2.72041e-08
6.44991e-10
0.000532961
0.000313616
5.89955e-08
0.0103455
4.89485e-07
0.00054471
3.31058e-08
3.68687e-10
6.39897e-09
3.4619e-09
9.09805e-08
0.00201506
4.05004e-09
0.000807995
4.99376e-08
3.87725e-08
5.23292e-09
0.00169342
2.29002e-07
1.22159e-09
6.44949e-09
0.000432447
0.0138384
0.000285221
0.00157122
0.0474411
0.00272014
8.41725e-09
5.53963e-09
3.98953e-09
0.000681624
2.57134e-08
6.62371e-09
1.76971e-08
0.0203993
0.0114803
0.0342416
1.82143e-09
0.101375
0.00875378
6.83303e-09
6.21861e-09
0.0648332
2.07959e-09
4.86612e-09
0.0024647
0.00229281
0.000392772
2.88688e-09
1.11821e-09
3.32756e-08
0.00202952
0.00049289
0.294025
7.32803e-10
0.00912381
3.16212e-08
0.00125909
0.000444876
0.189842
2.3238e-08
0.286324
0.781225
0.000104004
2.25584e-09
1.85223e-08
0.0013646
1.56002e-08
0.00575374
0.0100266
0.0631922
0.0340175
9.00433e-09
0.00167487
0.0103757
2.99716e-09
1.20954e-08
4.52976e-09
0.000427672
0.000354225
0.000370075
0.000637652
0.138587
0.000274054
0.00292305
0.000398974
0.00304746
0.00194899
0.00221777
4.52727e-10
0.478119
0.000285372
0.185081
0.148701
0.00217047
2.01164e-09
0.00543181
1.45758e-08
3.27029e-07
0.000761567
0.0853593
9.09589e-10
0.00178727
1.46128e-07
0.000207824
1.98801e-07
4.20917e-07
5.89992e-09
4.0016e-07
2.2282e-07
0.00157021
0.000623092
4.60118e-08
2.68788e-06
2.93797e-05
0.00137149
0.00136393
0.0183933
4.94139e-09
0.000502802
0.00155207
0.00183408
0.001508
2.4879e-07
0.0022443
6.63518e-06
4.2432e-09
4.64644e-09
7.46723e-09
0.00152699
0.00183532
3.4527e-08
1.47041e-08
8.95711e-09
4.22213e-07
0.000298096
0.00375128
0.00140452
8.21178e-08
0.00252346
8.66981e-10
4.47419e-08
0.00112936
0.000804571
1.76164e-08
0.00173676
1.28413e-08
6.06593e-09
0.00364246
6.45017e-09
0.000423303
1.17821e-09
0.000378709
0.000405406
0.000581334
0.0019865
3.38674e-07
0.00163288
1.34814e-08
0.0017211
0.000460523
0.00126909
0.00225371
0.00111494
6.71229e-07
0.00126636
9.57414e-09
1.56673e-08
0.00339393
1.6401e-07
0.321465
0.0628207
5.4859e-08
0.000573396
0.0148089
2.67759e-09
0.000107521
0.000103673
0.000403273
0.00232144
2.8266e-07
6.10598e-09
0.000614701
1.81862e-08
1.3571e-08
5.37889e-08
0.00181171
0.357263
1.37382e-08
0.0575994
8.41813e-10
0.00025611
0.00443462
9.33617e-09
0.10364
0.00254016
0.00166436
0.0004777
2.47401e-09
0.00339763
0.00284983
5.24994e-10
0.000489106
0.0260135
0.00061878
1.87016e-08
0.0619181
5.13075e-07
2.04478e-08
7.69394e-11
0.000345773
0.00241077
6.06537e-09
1.22592e-09
0.00218566
1.11226e-08
2.05609e-09
3.44364e-08
1.88242e-09
7.8743e-08
0.00363243
0.00209986
2.24777e-08
5.41635e-10
0.00221575
2.04692e-07
0.00277484
3.31908e-09
0.0317713
4.5361e-08
8.19102e-09
2.74915e-09
0.00164729
0.0349706
5.04396e-09
2.79305e-07
0.000274718
0.00245729
0.000453084
1.44159e-08
0.295755
2.56742e-09
0.000231714
0.00234547
8.8176e-10
3.78217e-09
3.9798e-08
3.36331e-08
0.000502528
2.73258e-07
0.000529725
1.96654e-07
4.72197e-09
5.86733e-11
5.19664e-08
0.000221071
0.000394062
6.39025e-09
0.00394774
0.00252266
0.0435162
2.93021e-10
3.50523e-09
8.46828e-09
4.99503e-09
1.81537e-08
0.00277964
0.000620205
0.000514076
0.000120138
0.00034825
0.000381683
2.9551e-09
4.27159e-08
1.12448e-09
0.0232902
1.88536e-08
0.00853048
1.07013e-08
5.73007e-09
0.00116078
1.65296e-08
7.93418e-08
9.16507e-08
1.8784e-09
8.64834e-08
3.84367e-08
0.00226737
4.89019e-09
1.53297e-08
4.06673e-09
1.39197e-08
2.18772e-08
0.00387077
4.87658e-07
1.16906e-07
0.0104208
8.38536e-10
0.877413
0.441562
3.81393e-09
0.00206463
9.65258e-05
9.9235e-09
9.7722e-09
1.03723e-05
0.599631
0.0442362
0.00316993
3.98671e-09
0.0269426
0.39364
0.00291479
0.0250709
3.67085e-10
0.00222673
0.126984
0.0440675
1.03291e-08
0.00103242
0.0260998
0.0282006
1.64492e-08
3.17178e-08
0.0337245
1.77578e-09
1.22182e-08
1.08636e-08
5.60054e-10
5.27906e-09
8.10925e-10
0.00421606
0.00446634
2.6674e-09
3.31852e-09
3.33772e-09
1.08274e-09
0.00792405
5.54222e-09
2.82884e-09
5.58036e-08
1.37079e-08
0.00228323
2.98482e-09
0.000384379
3.73039e-08
0.0571466
1.83057e-08
0.0331618
2.09835e-09
0.00329526
9.47192e-09
0.00185108
0.028044
4.56984e-08
9.98108e-09
0.027135
2.35873e-09
4.0043e-09
3.17646e-09
0.000259187
0.000626645
0.0022078
0.0164778
0.0117509
0.00800832
0.00551223
6.39303e-09
1.07932e-08
2.98342e-07
1.10333e-08
0.00424963
2.77987e-06
0.00316785
2.82007e-08
7.74865e-09
0.00159392
0.00149214
0.0018045
1.64081e-08
0.0102745
0.00194096
1.67996e-09
0.00336582
1.56337e-07
0.00184002
0.000459338
1.91454e-07
0.00238249
0.00502258
0.000439873
0.00213769
0.00223933
1.6035e-08
0.00245124
0.0031165
0.00186836
1.81197e-08
4.42744e-09
6.58934e-09
9.4122e-10
2.70935e-09
0.00179542
0.0028402
0.00185738
3.61081e-09
0.00320205
2.85889e-09
0.00228132
0.00258312
1.08488e-08
3.7297e-08
0.00170839
2.43086e-08
1.21449e-08
4.19853e-05
7.32597e-10
0.0026435
0.00204859
0.0188686
0.00167142
5.29854e-09
3.0279e-09
6.00083e-09
0.00387156
7.27702e-08
3.09992e-07
1.16182e-09
5.85147e-09
1.50534e-08
7.77965e-09
6.68157e-09
9.64935e-08
2.7355e-10
2.45861e-08
0.00615289
1.21675e-08
3.58422e-08
2.72901e-09
1.2473e-07
1.48052e-09
6.68099e-09
0.0171868
1.6253e-09
0.0385446
0.00194152
3.48141e-08
5.08575e-09
6.75377e-07
2.81925e-09
1.41202e-08
1.23114e-07
0.0133394
0.00313255
0.00225594
0.00153935
1.57403e-08
1.3719e-08
0.0135177
6.01508e-09
0.00163018
4.5797e-08
0.0763529
0.00190667
2.66682e-08
0.00243673
0.00154645
1.98672e-09
3.0761e-09
0.0400863
6.39165e-08
0.00219365
7.04525e-09
4.23079e-07
4.23187e-09
0.0217349
2.49191e-09
3.22932e-09
7.07393e-09
1.67931e-08
0.00993373
7.13529e-09
0.000362605
0.00443566
0.00150007
0.00265514
0.00160496
0.0258358
1.13609e-08
0.00208101
0.018936
6.38185e-09
0.000410059
2.55018e-09
1.4426e-07
0.00242296
4.33167e-08
1.3342e-07
2.303e-08
4.47141e-08
0.00142304
8.59536e-09
1.1691e-09
2.1306e-07
2.55225e-09
4.86785e-07
5.7956e-05
3.17073e-06
0.0021667
3.78488e-08
0.000460409
0.000297221
0.0623467
4.55571e-10
5.01925e-09
0.0164716
3.60257e-09
0.00188248
3.88695e-07
0.000518425
1.49304e-07
0.0191613
1.35716e-07
2.80069e-08
5.95783e-09
0.0396431
0.0125599
4.12236e-08
0.0254467
0.00339656
0.089486
0.0043174
5.6766e-09
2.78419e-09
0.256846
0.0019474
1.16141e-08
1.24808e-09
0.000161751
7.95021e-08
2.99695e-08
0.00242909
1.34941e-08
0.14436
0.00273533
1.35664e-09
0.000572286
0.0638951
0.0285223
6.47175e-09
0.00261444
4.72423e-09
0.00285683
2.0756e-08
0.0102539
8.89545e-07
0.000941248
0.0470419
0.0227738
1.91401e-07
0.00261737
1.64544e-06
5.4255e-09
0.000295004
0.00524015
0.00373165
4.18138e-09
5.87862e-08
6.46619e-08
0.0218342
0.00261191
0.000270578
0.0028036
1.34385e-08
0.000358115
1.07858e-08
0.172997
0.00334329
6.39744e-09
0.00159677
4.65363e-05
3.22076e-09
2.64879e-09
1.24129e-08
0.00261562
1.5724e-08
2.97484e-09
0.00189402
1.12351e-08
5.79665e-09
0.000301472
3.15468e-09
0.00868889
0.00251861
0.00670814
3.14338e-09
0.002107
0.0159036
6.63368e-09
1.33337e-08
0.00663031
1.00152e-06
0.056497
1.62566e-08
4.42607e-08
9.93632e-08
0.0169868
0.00114042
4.69873e-08
0.00254005
1.59866e-08
3.92103e-08
0.00284601
3.3049e-08
7.17649e-08
9.5544e-09
1.30385e-07
0.00244715
2.60606e-08
1.96799e-08
0.0535625
7.02091e-09
0.00275837
1.14485e-09
8.34459e-09
8.81409e-10
9.20918e-09
0.00155858
5.74045e-08
7.69413e-10
1.56413e-09
1.38013e-08
7.15543e-08
0.00265774
4.53386e-09
4.34235e-09
2.55196e-09
1.73505e-07
0.006806
4.23564e-09
0.00166681
2.23624e-08
1.24358e-08
6.57574e-09
5.42908e-08
0.000429644
6.75152e-07
1.49298e-10
9.29627e-10
0.00190957
0.00229107
5.45478e-08
3.86098e-09
0.102774
1.83158e-08
4.93759e-10
0.00356704
9.91104e-09
0.00282674
3.02366e-07
1.75661e-08
1.84002e-08
1.36527e-08
9.52212e-09
5.79416e-09
0.0734172
0.00511719
1.31912e-09
4.41037e-08
5.56206e-08
5.77112e-09
0.00267576
4.56882e-09
1.13109e-08
0.00207136
0.000950599
3.60567e-08
1.51637e-10
0.00240027
0.00302767
0.0264507
3.76232e-09
3.70051e-08
4.44478e-07
0.0024517
5.47597e-09
9.48425e-07
0.00061307
1.15008e-08
7.37431e-09
0.00241531
9.33553e-07
3.91992e-10
3.04489e-08
5.86945e-09
0.00194666
4.56212e-07
6.05064e-08
3.26293e-09
4.24135e-07
0.000619444
9.62642e-09
4.36345e-06
1.02929e-09
3.47063e-08
7.4867e-09
8.33138e-10
6.8565e-09
8.05864e-10
7.26134e-09
0.00239463
7.15843e-07
1.53182e-08
2.03637e-09
7.48372e-10
0.00231711
7.82716e-09
0.00340196
0.300434
0.00163855
6.80726e-10
0.00222764
0.00304332
7.18701e-09
1.05234e-08
8.19986e-08
0.00218267
0.00263253
3.19326e-07
8.20797e-09
1.16022e-05
5.6587e-10
0.111961
8.32272e-09
3.32374e-06
0.00229212
1.30135e-09
3.46411e-09
1.26422e-09
6.63266e-09
9.26279e-09
4.18387e-09
5.07921e-09
1.30153e-08
9.08402e-08
3.17748e-11
3.36691e-09
7.59128e-10
6.01042e-09
1.22667e-09
0.0149386
0.00196271
0.00288831
3.84173e-09
0.00230993
1.49528e-08
2.7413e-09
5.54497e-09
0.0267614
0.00679055
7.22237e-08
5.08917e-10
1.04545e-08
1.63355e-09
8.77675e-09
1.65357e-09
1.53283e-08
1.41301e-07
0.0016399
2.6444e-09
3.67712e-09
0.00145627
0.00185095
0.00227057
0.00232197
0.00179874
4.41984e-08
2.83842e-08
3.22416e-09
9.1649e-09
7.58271e-09
1.40006e-06
7.81442e-10
2.92835e-08
3.48603e-08
7.20973e-09
2.58564e-09
2.43722e-09
7.61247e-07
3.15505e-06
0.000134075
7.594e-09
1.54677e-09
4.5695e-09
0.00294983
2.16522e-09
0.00192242
1.04361e-07
9.27374e-09
7.52194e-07
0.00105424
7.36383e-08
4.34022e-10
4.12333e-09
2.37366e-09
1.19241e-09
0.050229
1.83565e-09
0.00114525
3.60355e-10
4.18239e-08
0.00373367
3.55051e-09
0.00138067
6.0928e-08
0.0022361
0.0183576
0.00126095
1.83566e-10
0.00874875
0.00240591
0.000157959
4.25093e-09
0.00162709
1.82304e-08
0.00503255
0.0104123
7.78679e-09
5.00125e-10
0.0605512
0.00332476
0.00719703
6.46621e-07
0.0653699
0.0017025
0.0151819
3.57625e-09
0.0015463
0.0031557
0.00141965
0.00245382
0.00243161
5.44118e-09
0.0395845
0.00117739
0.000167199
0.00314865
5.98972e-09
0.00153714
0.00333276
0.00144624
2.72926e-09
0.001664
0.00313711
3.07653e-08
7.72343e-10
0.00174247
0.0361117
1.40507e-09
4.90862e-07
9.56431e-08
0.00040671
6.67362e-08
5.60443e-08
2.51229e-07
2.73408e-07
9.92676e-08
4.0058e-09
4.71702e-09
1.28307e-08
3.00917e-09
1.68813e-08
7.46981e-09
2.42579e-10
2.00028e-09
0.00207032
0.00293804
3.31723e-10
2.42266e-08
6.78001e-09
3.10986e-09
1.34552e-06
2.02388e-08
2.52998e-09
0.00283455
0.00156209
0.00146855
0.00168562
5.17201e-08
0.0042359
2.8509e-07
0.0039103
6.09837e-10
0.00235367
2.86482e-08
3.55393e-08
1.59309e-07
5.94817e-10
0.00305801
0.00112332
0.100004
6.70123e-09
1.47345e-09
9.98418e-09
8.61063e-09
0.00139227
0.00297618
1.69085e-10
3.04992e-09
1.99876e-08
0.00173238
4.38833e-09
0.00292787
3.48682e-07
1.71007e-09
6.30362e-09
0.00250426
3.47248e-08
0.0022171
8.17935e-08
0.00395422
0.00330575
7.38284e-08
1.91683e-09
0.00366099
9.20149e-09
8.50797e-07
0.000344637
1.56828e-08
0.120426
2.23327e-08
8.02494e-09
0.00310816
5.60807e-09
7.39344e-08
3.1981e-10
6.6739e-08
7.75739e-09
4.82617e-09
2.10781e-08
9.66565e-09
1.79503e-08
0.00302189
2.18528e-08
2.38246e-08
4.74777e-09
1.48568e-08
1.04826e-08
7.42262e-09
9.42213e-09
0.00226538
7.99018e-09
0.003032
0.00455077
5.68622e-09
0.000360671
2.66386e-09
3.16456e-09
2.72405e-08
2.07116e-08
3.06347e-08
0.0015834
0.00209611
1.11857e-07
0.0846665
8.55465e-08
0.00318291
0.00110971
4.8182e-08
0.00237038
0.00453027
0.0270092
0.0111698
0.000410466
6.29226e-09
0.0380545
2.51672e-08
0.000563896
7.07347e-10
0.0026059
2.54939e-10
2.55012e-09
0.000636488
0.000341711
1.90671e-08
0.00046044
4.88711e-08
9.67924e-08
2.12327e-08
3.06754e-09
4.27881e-07
2.73665e-09
5.6438e-09
0.00256334
1.21296e-08
1.39033e-08
0.00571715
1.22007e-07
1.65609e-09
1.00057
3.30876e-08
2.1123e-08
9.02851e-08
1.61694e-07
0.000297092
0.0177411
4.25046e-08
7.17213e-09
0.00242982
0.00242429
3.70327e-08
2.3499e-08
1.2525e-08
2.94733e-09
2.71407e-08
1.14487e-08
0.00404675
0.0044733
6.94177e-09
2.412e-09
6.70484e-07
5.03147e-09
0.0025486
0.000394487
1.95406e-09
1.87356e-08
1.72789e-08
0.00222425
0.00930737
0.0126157
0.00200814
2.20981e-08
2.36206e-08
3.64155e-09
3.63275e-08
2.13271e-08
0.00300773
5.30783e-08
0.000310598
3.55304e-09
5.18109e-09
0.00328727
0.00267026
7.79973e-09
0.00314986
1.08443e-09
1.47775e-09
4.93548e-07
4.60002e-09
2.56177e-09
0.00187407
2.73062e-08
1.72403e-07
0.00385177
1.29029e-08
0.00711409
0.00311284
1.31921e-08
0.00329648
1.39284e-08
1.30329e-08
1.78425e-08
1.93944e-07
9.27724e-09
4.63662e-08
6.25915e-09
0.00130382
0.150416
1.98309e-08
0.00244589
6.58606e-09
0.00309461
8.26875e-10
1.29137e-08
6.49693e-09
0.0227984
7.62827e-09
0.00230731
0.00203175
0.00319572
1.79155e-08
0.00220544
1.50135e-07
2.04694e-08
2.00586e-09
8.32033e-09
1.28157e-08
8.04935e-08
1.4795e-07
2.96051e-07
2.80958e-09
0.00291896
3.6539e-08
1.23832e-09
9.25203e-10
4.1421e-09
1.1828e-09
0.00206181
3.48714e-08
0.00307716
2.38695e-08
0.000624967
2.61649e-09
3.1465e-09
0.00182071
0.0170806
6.785e-08
1.98578e-09
0.00428764
1.32927e-08
1.72417e-06
1.27174e-09
5.6651e-09
5.81631e-10
1.28785e-08
1.55393e-09
1.31253e-08
4.06731e-09
5.87103e-08
2.70135e-08
0.00253922
5.75718e-07
5.80402e-06
1.28424e-08
5.82427e-09
0.0021633
1.35631e-08
0.00313613
4.45246e-08
2.84238e-08
6.26404e-09
6.23554e-09
8.24163e-08
7.6452e-07
0.00134998
0.00127945
8.33252e-09
0.0038059
2.26341e-08
0.00286729
9.01631e-09
7.26536e-09
2.61692e-09
0.00270126
0.00132606
0.000427454
4.51068e-08
2.04755e-09
0.00133873
4.86649e-09
4.16112e-09
8.31501e-09
7.19017e-09
0.00245115
0.00209704
1.69542e-08
2.16034e-08
5.4849e-08
3.8466e-09
0.0157111
0.0132572
6.20666e-09
2.37519e-08
0.00164003
8.43291e-09
3.02182e-08
1.14586e-09
3.64691e-08
3.46239e-09
0.00234802
5.56539e-09
0.00531408
0.000526657
9.24981e-09
6.84287e-09
0.00837004
3.05981e-09
0.00880124
2.31971e-08
0.0541737
0.0012228
0.0969677
0.0018894
8.60806e-09
1.82603e-09
0.0002935
5.10017e-09
0.000139925
0.0298943
3.64704e-08
2.18535e-08
1.22879e-08
7.86814e-08
7.04814e-09
0.0174944
0.301576
0.0178936
1.29091e-08
8.85316e-09
0.0161481
0.00160499
2.82018e-07
7.7068e-09
0.162161
1.37019
5.71083e-09
5.50534e-08
1.95726e-08
0.00482836
5.20971e-07
5.81001e-07
7.65632e-09
1.344e-08
0.00232045
1.02196e-09
0.00230291
4.70927e-09
0.00243581
0.00273943
0.00294592
1.3117e-09
9.08119e-09
6.81032e-09
0.00153193