/*--------------------------------*- C++ -*----------------------------------*\
  =========                 |
  \\      /  F ield         | OpenFOAM: The Open Source CFD Toolbox
   \\    /   O peration     | Website:  https://openfoam.org
    \\  /    A nd           | Version:  10
     \\/     M anipulation  |
\*---------------------------------------------------------------------------*/
FoamFile
{
    format      ascii;
    class       volVectorField;
    location    "18";
    object      U;
}
// * * * * * * * * * * * * * * * * * * * * * * * * * * * * * * * * * * * * * //

dimensions      [0 1 -1 0 0 0 0];

internalField   nonuniform List<vector> 
59698
(
(0.584695 0.00598309 -0.00173762)
(0.564287 -0.00106825 -0.000788879)
(0.56625 -0.000606952 0.00169644)
(0.578504 -0.00337165 -0.00130192)
(0.562951 0.000733399 -0.00290957)
(0.197727 0.198049 -0.00634981)
(0.565177 0.000197706 0.000323307)
(0.563691 0.000880014 -0.000311664)
(0.199881 -0.199528 -0.000424553)
(0.201229 -0.200787 -1.50646e-05)
(0.200368 -0.19872 -0.000622628)
(0.566922 -0.000283211 -0.000378928)
(0.199806 0.200486 -0.00057084)
(0.56157 -0.000767328 -0.000175351)
(0.562025 0.00107219 -0.00254387)
(0.203977 -0.197102 0.00182186)
(0.564854 0.000132697 0.00018169)
(0.56616 -0.00126871 0.000395698)
(0.567447 -0.000515063 0.000341546)
(0.566128 -0.000348436 -3.63112e-05)
(0.14286 -0.0998973 -0.0248005)
(0.536113 -0.00147396 -0.00274314)
(0.265025 -0.172895 -0.00713606)
(0.198823 -0.199921 -0.00136796)
(0.570299 0.000560251 0.0011118)
(0.566322 -0.00115299 0.000440469)
(0.56631 -0.000344838 -0.000384385)
(0.557382 -9.87767e-05 -0.00121247)
(0.57025 0.00138331 0.000913429)
(0.572473 -0.000497628 0.000471163)
(0.548259 -0.000326899 -0.000323402)
(0.198523 -0.198563 -0.000178019)
(0.201152 -0.197942 0.00228284)
(0.559752 0.00120465 -0.000799709)
(0.549169 0.0114827 -0.00753263)
(0.566724 -0.000898107 -0.000392359)
(0.275027 0.0658367 -0.0385273)
(0.539362 0.000752913 0.000208817)
(0.561735 0.000164549 0.000491429)
(0.568212 0.00157435 -0.00279945)
(0.563901 0.000481428 -5.80878e-05)
(0.194901 0.197809 -0.00173773)
(0.56252 0.000656639 -0.000632732)
(0.564071 0.000453068 0.000156811)
(0.196728 0.199572 -0.000252583)
(0.560802 0.00358181 0.00508334)
(0.56692 -0.000845222 0.000365406)
(0.562468 -0.00032361 0.00164121)
(0.562849 0.000224666 0.000983377)
(0.565469 -0.000692236 0.000166882)
(0.567578 0.000123421 -0.000193726)
(0.566794 -0.000851951 0.000334785)
(0.566242 -5.75367e-05 -0.000678542)
(0.56071 -0.000172644 0.00045334)
(0.572364 0.00286416 0.00102118)
(0.567272 -0.000507129 -0.000115642)
(0.562705 -0.000963075 0.000621863)
(0.524745 -0.00189464 -0.000262825)
(0.564688 -0.000810778 -0.000318277)
(0.268393 0.121511 -0.0187447)
(0.558865 0.00471019 -0.00258771)
(0.56453 0.00130348 0.000489216)
(0.577859 0.0147094 0.00647133)
(0.567397 -0.000549822 0.000414602)
(0.561882 0.00022777 0.000731255)
(0.561723 0.000253675 0.00218876)
(0.199519 -0.199946 -1.22588e-05)
(0.567047 -0.000528806 -0.000613275)
(0.566905 -0.00043828 -0.00060973)
(0.199516 -0.199209 -7.89063e-05)
(0.209489 0.182842 -0.00791441)
(0.564876 -0.000577683 -0.000133454)
(0.166422 0.118649 -0.0344136)
(0.593917 -0.0104486 0.0192564)
(0.202915 0.203541 -0.000370597)
(0.589622 -0.0252297 0.0204071)
(0.561354 0.000203932 0.000942317)
(0.56095 0.000305941 -0.0016832)
(0.56664 0.000831761 -0.000594195)
(0.571457 0.00154689 0.000123314)
(0.5527 -0.00188159 -1.18468e-05)
(0.567494 0.000231062 -0.00011732)
(0.201246 -0.200762 -5.44303e-05)
(0.565208 -0.000693545 0.000578465)
(0.399977 -0.103854 0.01504)
(0.56327 0.000152108 -0.000166302)
(0.563254 -0.00121653 0.00168803)
(0.557716 0.000481651 0.00712888)
(0.562053 0.00126957 0.000982598)
(0.560729 -0.000119385 0.00165287)
(0.199533 -0.199172 -0.000159989)
(0.561442 0.000879984 0.000558457)
(0.560642 -0.000362257 0.00165393)
(0.565848 -0.000254145 0.000355416)
(0.561641 0.00120218 0.00089768)
(0.563407 -0.00355986 0.00126469)
(0.558692 0.000590907 0.00125991)
(0.56211 0.000519466 0.00051079)
(0.559331 0.000558785 0.00126168)
(0.199678 0.200038 -3.30717e-06)
(0.556514 0.00143415 0.000849793)
(0.567577 0.00519319 0.00627603)
(0.562848 -4.23331e-05 0.00019381)
(0.56312 -0.00161216 -0.00435988)
(0.566975 -0.000608393 0.00084735)
(0.198837 0.198574 0.000131221)
(0.565537 -0.000997595 0.000594818)
(0.567161 -0.000394737 -0.000449449)
(0.200742 -0.200883 -6.82381e-05)
(0.199793 0.199688 -0.00036958)
(0.566206 -0.000799988 -0.000345883)
(0.570475 -0.010473 -6.12372e-05)
(0.561775 0.0013609 0.00156299)
(0.200897 0.198779 -0.000338044)
(0.560997 -0.000172211 0.000215613)
(0.567308 5.98601e-05 0.000155786)
(0.567021 0.00139894 -0.00139799)
(0.56502 0.00311947 0.000708584)
(0.563527 -0.000832866 0.00203289)
(0.200899 -0.200443 0.000443013)
(0.565423 -1.62134e-05 -5.60296e-05)
(0.558614 -0.00631855 -0.00377982)
(0.562985 -0.00502384 0.00577777)
(0.564361 -1.19526e-05 0.000133559)
(0.564095 0.000145457 0.000170732)
(0.565877 -0.00025301 -0.000131317)
(0.566069 -8.83617e-05 -0.00080459)
(0.199562 -0.199512 0.000486789)
(0.561948 -0.000459944 -0.000262766)
(0.567039 0.000333333 -0.00191951)
(0.567324 0.000356446 0.000561113)
(0.566835 -0.00017967 -0.00105525)
(0.201421 -0.200551 -1.18612e-05)
(0.579326 0.00689145 0.000571973)
(0.572731 -9.64636e-05 0.000173933)
(0.567826 -0.000120987 -0.000206267)
(0.569344 0.00383164 -0.00102768)
(0.201039 -0.200694 0.000302565)
(0.567252 -0.000298757 -0.000242089)
(0.568489 -1.43838e-05 -0.000336658)
(0.565429 -0.00031728 0.000959351)
(0.562748 0.00320258 -0.00110798)
(0.565314 -0.000817136 -0.000445889)
(0.566006 -0.000352691 -0.000323603)
(0.565701 0.00222818 -0.000413489)
(0.567396 -0.000262072 3.78077e-06)
(0.563777 -0.00389398 0.000249165)
(0.566638 -0.00366945 -0.000611703)
(0.562314 0.000381079 0.000853972)
(0.552444 -0.000255683 -2.59178e-05)
(0.408638 0.144142 0.0731716)
(0.200203 -0.199655 0.000118218)
(0.562012 -0.000114267 0.000144218)
(0.557153 -0.00221913 -0.00372723)
(0.563542 -0.00022231 -0.000135859)
(0.561359 0.000237042 -0.00046059)
(0.566517 -0.00104582 -0.000274044)
(0.559045 -0.000954381 0.00300525)
(0.563557 -0.000300211 -0.000373176)
(0.199697 0.199541 -0.000112292)
(0.564797 0.000115695 0.000180237)
(0.562567 -0.00030685 0.000197572)
(0.567823 -0.000594915 -0.000246277)
(0.554812 0.00186477 -0.00119543)
(0.562872 -0.000535309 -0.000195004)
(0.566824 -7.20191e-05 -0.000219005)
(0.566934 -0.000185921 -0.000662153)
(0.412389 0.0871445 0.00628136)
(0.55468 -0.000550094 -0.000419741)
(0.566176 -0.000189451 -0.00047469)
(0.559292 0.00179376 -0.0025506)
(0.211042 0.173803 0.000628133)
(0.553107 0.00140641 -0.0021795)
(0.552621 0.00129669 -0.00208496)
(0.578277 0.00139169 -0.00547319)
(0.562916 0.000279449 0.000340255)
(0.199574 -0.198906 0.000797122)
(0.538435 0.00496505 0.00304356)
(0.198954 -0.197825 -0.00579315)
(0.561958 0.000506318 -0.000411435)
(0.51046 -0.00190985 0.00523723)
(0.548446 -0.000568215 -0.000451506)
(0.562673 0.000312716 -0.000941094)
(0.565622 1.34932e-05 -0.000278794)
(0.564744 0.000652376 -0.00085532)
(0.5438 -0.000317559 -0.00036524)
(0.543663 5.0414e-05 -0.000867337)
(0.559831 0.00377579 0.00136907)
(0.56643 -4.38152e-05 0.000194706)
(0.56462 0.00158025 0.000837641)
(0.562196 0.000215524 0.000733212)
(0.562407 -0.000317932 0.000616569)
(0.562936 0.000560665 0.00050421)
(0.561989 -0.000342674 -0.000491239)
(0.554654 0.000272461 -0.000473092)
(0.557612 0.00324437 0.000766721)
(0.576547 0.00613126 -0.0138151)
(0.575755 0.00370237 -0.00216895)
(0.152194 -0.143937 -0.0196222)
(0.554224 -0.000547233 7.85652e-05)
(0.203036 0.205887 0.00271682)
(0.545906 0.000595143 0.000932246)
(0.573263 0.000329083 0.000271085)
(0.566628 -0.000326955 -0.000526537)
(0.552983 0.000972016 0.00109182)
(0.565736 0.000188634 0.000148018)
(0.563942 0.000376023 -0.000772446)
(0.558443 -0.00208543 0.00126223)
(0.554469 0.0115042 0.000466464)
(0.562451 0.000289292 -0.000256706)
(0.56569 0.000201173 0.000179793)
(0.565122 0.00019855 0.000439218)
(0.554654 0.000420183 0.0021798)
(0.199003 -0.197043 -0.00110225)
(0.565198 -0.000290295 -0.000272111)
(0.560069 0.000606434 -0.000155011)
(0.566237 -0.000743225 2.61331e-05)
(0.561156 -0.00061924 -0.00186618)
(0.561507 -0.000694552 -0.000176546)
(0.564969 0.000622768 -0.000718397)
(0.582178 0.0242673 0.0227572)
(0.5639 -0.000133406 0.000199023)
(0.564892 5.70607e-05 7.98692e-05)
(0.556902 0.000933972 0.00287047)
(0.564932 -0.000357911 -0.000218711)
(0.553569 0.00260075 0.00292826)
(0.564488 6.17408e-05 -6.1865e-05)
(0.565856 0.000553892 -0.000424949)
(0.577969 0.00278947 -0.000861379)
(0.593538 0.0123425 0.0095712)
(0.199024 0.198601 -0.000393006)
(0.56355 6.13973e-05 0.000406494)
(0.565923 0.000279101 0.000176895)
(0.564572 0.000140686 -0.000367204)
(0.563363 -0.000471413 0.000430399)
(0.566688 -0.000436413 -2.97315e-05)
(0.564971 0.00157541 0.00149092)
(0.563974 0.000315553 0.000191612)
(0.558657 0.0013969 0.00343893)
(0.56315 -0.000737778 0.000592214)
(0.564565 -0.000135363 -7.84201e-05)
(0.563746 -0.00124654 -0.000503338)
(0.570628 9.32467e-07 -9.88827e-05)
(0.197427 -0.19788 0.0033443)
(0.566624 -6.19705e-05 -0.000136805)
(0.564092 0.000330591 0.00384602)
(0.582499 0.00526537 0.0161633)
(0.591551 -0.00703319 0.0130393)
(0.566303 4.91585e-05 0.000220434)
(0.566841 -0.00076536 0.000407423)
(0.561915 0.00109562 0.00390744)
(0.562907 -0.000519471 0.000606203)
(0.564269 0.00108756 0.000867846)
(0.198213 -0.193516 0.00311823)
(0.566445 -0.00135801 -0.000144724)
(0.563381 0.000302168 0.000538231)
(0.561228 0.00209132 0.000607308)
(0.562176 -0.000711032 0.000655235)
(0.5657 -0.000419782 -0.000144259)
(0.564841 -0.000127329 -8.22176e-05)
(0.200746 -0.108485 -0.000767462)
(0.200402 0.20005 0.000132637)
(0.563252 -0.00106465 0.000626441)
(0.560628 0.000578103 -0.00115485)
(0.558918 -0.0014613 0.00230517)
(0.586941 0.00748177 0.00248653)
(0.565265 4.53875e-05 -7.17549e-05)
(0.196926 -0.198433 -0.00163665)
(0.56559 -0.00121256 0.000446751)
(0.564876 -0.000144898 -0.000196246)
(0.566665 -0.000946719 -9.8152e-05)
(0.563138 -0.00122841 -0.000697811)
(0.545862 -0.118233 0.0771822)
(0.564705 -8.33715e-05 -0.000277324)
(0.564993 -0.000264558 4.52008e-05)
(0.558173 0.000387419 0.00142206)
(0.564556 -0.00163867 -0.00368512)
(0.564656 -0.000653298 0.00148126)
(0.570108 0.000276227 0.000178122)
(0.200811 -0.200144 0.000132792)
(0.195989 -0.195354 0.00168584)
(0.567216 3.97547e-05 2.36156e-06)
(0.56687 -0.000847577 0.00047074)
(0.581545 0.00215909 0.00129272)
(0.587031 0.0064419 0.000908224)
(0.577911 -0.00118642 0.00144046)
(0.566173 -0.00022038 -0.000744526)
(0.299314 -0.213263 -0.0187481)
(0.574273 0.00145372 0.000545059)
(0.564121 0.00227631 0.00295057)
(0.586245 0.0177597 0.000704855)
(0.566219 0.000295014 0.000226851)
(0.565366 -0.000845748 0.000541873)
(0.56691 -0.000970269 0.000149767)
(0.570564 -0.00105765 0.000829166)
(0.56037 -0.00151079 0.000682747)
(0.567994 -0.000257841 -0.000641487)
(0.567539 0.00144275 -0.000697941)
(0.564911 -6.67872e-05 -0.000338971)
(0.563041 0.00121534 0.00363722)
(0.566249 0.00157308 -7.52939e-05)
(0.198734 0.198914 -9.49412e-05)
(0.195968 0.197806 0.00149916)
(0.566892 -0.00017682 -0.000424559)
(0.567118 -0.000456719 -0.00015472)
(0.566953 -0.000194284 -0.000260563)
(0.569088 0.000278449 -0.00145198)
(0.561129 -0.00104567 -0.000280354)
(0.562789 -0.000382551 0.000307578)
(0.56716 -0.000100568 -0.000214582)
(0.564803 0.000158438 0.000152171)
(0.563196 -0.0019964 0.000516582)
(0.565593 0.000337339 7.42952e-05)
(0.200736 0.200934 0.00131602)
(0.561244 -0.00327195 0.00171408)
(0.566078 0.000698292 -0.000112974)
(0.202035 0.202598 -0.000457776)
(0.566651 -0.000210822 0.000175792)
(0.195216 0.197028 -0.0020754)
(0.565083 0.00243564 -0.00198502)
(0.562382 0.00300301 -0.00304974)
(0.59469 -0.00976466 0.0183047)
(0.564546 -0.000548664 5.68095e-05)
(0.199744 -0.199403 0.000630264)
(0.600252 -0.013129 0.0186177)
(0.555628 -0.000145251 0.000736398)
(0.564381 -4.02959e-07 -0.00035121)
(0.566617 -0.000315106 0.000442849)
(0.56631 0.000584945 -0.000216179)
(0.199172 0.199228 -0.000186355)
(0.548395 -0.00026099 -0.00208362)
(0.56405 -0.000895684 0.000296788)
(0.558942 0.000188359 -0.000595722)
(0.582599 -0.0108185 0.0167899)
(0.199615 -0.199997 -0.000177553)
(0.56568 0.000357875 0.000600385)
(0.56262 -0.000629472 0.000178847)
(0.565632 -0.000112546 0.000162295)
(0.556954 -0.00122621 -0.000402559)
(0.567978 0.000358021 -0.000170239)
(0.563543 0.00119542 0.00118565)
(0.567622 0.0025591 -0.00160489)
(0.564927 -0.000392905 0.000181273)
(0.566002 0.000145355 7.89444e-05)
(0.557682 0.000818026 -0.00115018)
(0.564792 -0.00014638 -0.000199432)
(0.565583 0.0002749 2.00347e-05)
(0.541078 0.00130555 -0.00109304)
(0.562721 8.6414e-05 -0.000243666)
(0.562985 0.000121524 0.000376414)
(0.566774 0.000141386 -1.11107e-05)
(0.562276 -0.0010594 0.000617415)
(0.569762 -0.00322019 -0.000878786)
(0.199482 -0.199203 -0.00014583)
(0.59024 0.00282925 0.00637771)
(0.547113 0.000646355 -0.000883508)
(0.5541 0.00303989 -0.00724607)
(0.564735 -9.85468e-05 0.000101946)
(0.562187 0.000433815 0.000680084)
(0.199412 -0.199035 3.00072e-05)
(0.566541 0.00110973 -0.000552638)
(0.559295 -0.000139809 0.000637898)
(0.20324 -0.194649 0.000346335)
(0.566231 -1.77338e-05 0.000297514)
(0.199991 0.200041 -5.41867e-05)
(0.196477 0.201287 0.000519489)
(0.563111 2.43085e-05 5.10356e-05)
(0.564402 -0.000670714 0.00112958)
(0.56445 -0.000364137 0.000133753)
(0.490986 -0.00575899 0.0028618)
(0.567787 0.000185383 0.000302901)
(0.197989 0.198554 0.00029809)
(0.565703 0.000238082 -0.000224509)
(0.19731 0.199025 0.0013009)
(0.563159 0.000245156 -0.000472359)
(0.200085 -0.200252 -1.41359e-05)
(0.564273 -0.000342295 0.000350089)
(0.564853 0.000277215 9.44437e-05)
(0.198898 0.198357 -1.1568e-05)
(0.19902 -0.199214 0.000129408)
(0.201362 0.198084 -0.00338396)
(0.563134 -6.96248e-05 -0.000262581)
(0.565621 0.00141223 0.00039227)
(0.560791 0.000801176 -0.000494605)
(0.566721 -0.000246655 -3.86393e-05)
(0.277702 0.142085 -0.00511777)
(0.563444 -0.000394396 0.000972106)
(0.199301 0.199501 2.95975e-05)
(0.199581 0.200016 -6.63352e-05)
(0.564735 0.0026717 0.000939434)
(0.56014 -0.000605976 0.000204312)
(0.199363 -0.196652 0.000738615)
(0.563602 0.000235894 0.00125826)
(0.574351 0.000293236 1.95684e-06)
(0.37974 -0.147339 0.0155594)
(0.526858 -0.00158944 -0.000348468)
(0.551475 0.0165295 -0.0118029)
(0.562269 0.00267037 0.00156905)
(0.561117 -0.000216251 -0.00255422)
(0.563705 -0.00169465 0.00132836)
(0.562476 0.000464773 -0.00045877)
(0.564533 -8.97357e-06 -6.56756e-05)
(0.56513 5.95059e-06 -0.000442577)
(0.564693 -0.00048812 -0.000543655)
(0.553313 -0.00286877 -0.000668811)
(0.560754 0.00457664 0.000534987)
(0.575931 0.00418498 -0.00283184)
(0.581574 0.00299391 -0.000773289)
(0.564893 0.000355406 -0.00137914)
(0.530742 0.0003969 -0.00298478)
(0.571594 0.00236159 -0.00162111)
(0.198921 -0.19913 1.57425e-06)
(0.561202 0.000620179 -0.00125635)
(0.199604 -0.199557 0.00019621)
(0.561451 -3.47318e-05 0.00016427)
(0.584033 0.00161489 0.00229136)
(0.567023 5.46183e-06 -9.26273e-05)
(0.567537 -0.0275012 0.0128262)
(0.532791 -0.00254723 0.000830673)
(0.535129 3.9657e-05 -0.00640475)
(0.562174 -0.000528307 0.00023629)
(0.562791 -0.000186375 0.000626776)
(0.563807 0.0012639 0.0023146)
(0.58794 0.013255 0.0120341)
(0.563581 1.90605e-05 1.82891e-05)
(0.564119 -0.000190019 0.000115177)
(0.199993 -0.199859 0.000345908)
(0.562187 -6.18945e-05 -0.000219026)
(0.55845 -0.00168247 -1.08007e-06)
(0.199438 0.199208 -3.69326e-05)
(0.565244 -0.00140909 0.000752882)
(0.575427 0.0180739 0.00852035)
(0.572372 -0.00462402 0.00663984)
(0.565014 7.99055e-05 -0.00139357)
(0.561033 -0.00021639 0.00146355)
(0.200477 -0.20042 -0.000925988)
(0.205318 -0.202258 0.000304121)
(0.574318 0.00534607 -0.00208983)
(0.565498 -0.000295938 -0.000423971)
(0.563197 -0.00126494 -0.00385859)
(0.202961 0.200382 -0.00178361)
(0.56498 -0.000611934 -0.000408527)
(0.200611 -0.199897 0.000298995)
(0.562045 -0.000423797 -0.000244179)
(0.564163 -0.000822194 -0.00101695)
(0.516591 -0.00741544 -0.00331325)
(0.58071 -0.0016511 0.00289697)
(0.200021 0.19974 -4.20399e-05)
(0.565493 -0.00103694 0.000614661)
(0.553927 -0.0001193 0.000347452)
(0.56254 -6.87492e-05 -0.00192283)
(0.566123 -0.000720591 -0.000178073)
(0.564473 0.00105078 -0.000831126)
(0.565172 -0.00124402 -0.000145916)
(0.563183 0.00169998 0.000173315)
(0.56243 0.000209952 -6.09111e-05)
(0.580668 0.00134772 0.00229479)
(0.199644 -0.199553 0.000248914)
(0.546969 0.000408704 -0.000322577)
(0.562009 -0.0002195 0.00106646)
(0.577626 -0.00118841 0.00145787)
(0.564763 -0.000144285 -0.000115713)
(0.555119 -0.00143294 0.00153047)
(0.576988 9.60727e-05 0.000603358)
(0.200501 -0.199437 -0.000182754)
(0.560661 0.00513257 0.00198289)
(0.560192 0.00730178 0.00692561)
(0.565628 -0.000310887 -0.000483223)
(0.564336 0.000694382 -0.000517036)
(0.565939 0.000381121 3.40865e-05)
(0.560366 -0.00540964 -6.49069e-05)
(0.198388 0.198592 -0.000305405)
(0.199873 0.199799 2.02532e-06)
(0.198964 0.199802 2.52536e-05)
(0.5643 0.00225703 0.00295287)
(0.554644 -0.00305237 -0.0079639)
(0.504336 -0.00180065 0.000877078)
(0.577091 0.00102389 0.000572301)
(0.565427 -0.00290342 0.00098055)
(0.562805 -0.000531203 0.000716205)
(0.563306 0.000699487 -7.41171e-05)
(0.560545 0.000184779 0.000605407)
(0.563724 -0.000206922 0.000122053)
(0.202952 0.198895 -0.000341327)
(0.555908 -0.00675259 4.85747e-05)
(0.562779 -0.000622689 -0.000173059)
(0.560425 0.000849039 0.00122449)
(0.562857 -0.000618731 0.000467569)
(0.571976 0.000509503 0.000498767)
(0.565496 0.000652694 0.000102779)
(0.560824 0.000725868 -0.000898333)
(0.590329 -0.0014658 0.00683658)
(0.57416 0.000953361 0.000262734)
(0.560258 -0.000623935 -0.00137544)
(0.571315 0.000266189 -8.04872e-05)
(0.560055 0.00073501 0.00137176)
(0.56249 -9.31227e-05 -0.000193579)
(0.556478 0.00339798 0.00257961)
(0.566386 -0.000180214 -0.000391649)
(0.197299 0.196543 0.000418688)
(0.198806 0.198751 -9.46945e-05)
(0.573644 -0.00181675 0.000789671)
(0.556946 0.000333761 0.000349668)
(0.566038 -6.79418e-05 0.000418276)
(0.199187 0.200507 0.00023877)
(0.200011 -0.199959 -0.000255274)
(0.56295 -0.000818953 -0.000189441)
(0.200483 -0.200706 -1.32823e-05)
(0.564168 0.000295726 -4.13602e-05)
(0.567145 3.22903e-05 1.73475e-05)
(0.565921 -0.000201995 0.000185474)
(0.570635 0.000213435 0.000297606)
(0.560865 -0.00409977 -0.00121681)
(0.197936 0.200093 0.00148543)
(0.566279 -0.000744601 -0.000106578)
(0.564803 -0.000175744 -4.56509e-05)
(0.198152 0.19836 0.000185725)
(0.563618 0.000339311 0.000446205)
(0.198281 0.200199 0.000328813)
(0.197313 0.196194 9.61806e-05)
(0.56667 0.00026194 -0.000418703)
(0.567312 0.000533838 -0.000220001)
(0.56436 -5.61233e-05 7.74598e-06)
(0.19917 0.198913 -0.000637101)
(0.199053 0.199096 0.000121067)
(0.48658 -0.000421965 -0.000901852)
(0.565186 -0.000318844 0.00134357)
(0.566112 0.000143314 -0.00038443)
(0.566737 -0.000128549 -8.31569e-05)
(0.564009 0.000647991 -0.000367143)
(0.565808 0.000295382 -0.000469144)
(0.563515 0.0204929 -0.0140987)
(0.199761 -0.200313 -0.000235371)
(0.564399 -0.000535809 -6.05716e-05)
(0.5611 2.12852e-06 0.00013016)
(0.199429 0.199453 -4.01722e-05)
(0.200329 0.19868 -0.00027169)
(0.556923 -0.000208877 0.000232668)
(0.563898 -0.000423619 8.97618e-06)
(0.198436 -0.198837 0.000602447)
(0.5663 -1.69359e-05 0.000239207)
(0.564995 0.00016246 -0.0001261)
(0.565139 -2.59309e-05 -0.00100801)
(0.590665 0.0428957 -0.0159566)
(0.563018 0.000537264 -0.000226379)
(0.568773 -0.000143793 0.000227215)
(0.559208 0.0240477 -0.0029971)
(0.637583 0.129715 -0.0577579)
(0.566146 4.08413e-05 -6.17093e-05)
(0.255854 0.16004 -0.007475)
(0.561937 0.000537401 -0.000184485)
(0.200365 -0.199997 -6.12916e-06)
(0.558481 8.77483e-05 0.000900099)
(0.199712 -0.19953 0.00062877)
(0.564876 9.6386e-05 -0.000519587)
(0.563842 0.000407298 -0.00044794)
(0.199492 0.200297 -0.000235891)
(0.562404 0.000686827 0.000694868)
(0.565629 -0.00067318 -0.000345222)
(0.567253 -0.000329652 -0.000314879)
(0.199419 0.199113 4.88575e-05)
(0.198756 -0.199013 -0.000230658)
(0.561871 -0.000543629 0.000716407)
(0.162972 0.115953 0.0438061)
(0.566947 -0.00118728 -0.000623827)
(0.200421 -0.199736 0.000193999)
(0.582462 -0.000969115 0.00737941)
(0.561974 0.000429258 -0.000148849)
(0.566762 0.000104768 -0.00027605)
(0.200399 -0.198002 -0.00141085)
(0.567235 -0.000321998 -0.000163622)
(0.565621 -0.0010015 0.000606626)
(0.207106 0.196113 -0.00114723)
(0.567392 0.000232525 -0.000860875)
(0.565776 0.000255525 -0.00122629)
(0.567458 0.000259043 6.55766e-05)
(0.566401 -0.000268116 -8.20515e-05)
(0.566916 -3.73529e-05 -0.000250425)
(0.567673 -0.000278411 -0.000480085)
(0.200167 -0.200659 -0.000272154)
(0.19247 0.193548 0.000609656)
(0.560777 0.000433034 0.000956553)
(0.565421 0.00090711 0.00229286)
(0.564864 -6.04206e-05 -0.000388048)
(0.567162 0.000130046 -0.000443409)
(0.199525 0.199451 2.24858e-05)
(0.566047 -0.000191058 -7.72564e-05)
(0.565481 0.000129515 -0.00100485)
(0.570967 -0.000276949 0.000403196)
(0.565477 0.000170137 -0.000374826)
(0.567676 -2.88464e-05 -0.000407106)
(0.56186 0.000937597 0.000887067)
(0.565477 0.000500521 -0.00108721)
(0.565215 0.000528078 -0.000786051)
(0.198826 0.198663 -0.000341896)
(0.559026 0.00042599 -0.00015749)
(0.227809 -0.191977 -0.00759605)
(0.553886 -0.00345067 0.000646055)
(0.196659 0.191303 -0.00190579)
(0.198297 0.198714 -4.96413e-05)
(0.564769 -1.19758e-05 9.88153e-05)
(0.564532 2.94527e-05 0.000142214)
(0.199206 0.198842 -3.42748e-05)
(0.556291 -0.000497765 0.000419603)
(0.565007 -0.00069417 2.45499e-05)
(0.565437 -0.000557731 -0.000209404)
(0.566317 3.56607e-05 -0.0005302)
(0.199189 0.198417 0.000754258)
(0.564455 0.000239242 0.000108862)
(0.560356 -7.93607e-05 0.000620479)
(0.560898 2.21124e-05 0.000547491)
(0.566842 0.00022163 -0.000336089)
(0.562692 2.72905e-05 0.000367959)
(0.566527 -3.58544e-05 -0.000373503)
(0.565155 -4.98097e-07 -0.000214713)
(0.565416 0.000178052 -0.000254315)
(0.562648 -8.91344e-05 0.000266427)
(0.573731 -0.000849064 0.000502675)
(0.157283 0.0630449 -0.0719539)
(0.563057 -3.16642e-05 0.000337457)
(0.198256 0.198719 0.000268094)
(0.565269 0.000134676 0.000853935)
(0.565969 -0.000198479 -0.00064514)
(0.562863 0.00237728 -0.00064552)
(0.559366 -0.00211487 0.0039169)
(0.56442 -0.00101123 0.00209807)
(0.568042 0.000567909 7.56342e-05)
(0.56677 -0.000151346 -0.000749582)
(0.566198 -0.000283484 -0.000286259)
(0.566352 -0.000818841 -0.000855414)
(0.562687 -0.00108025 0.000822086)
(0.197989 0.199508 -0.00287364)
(0.566463 -0.000199015 0.000270186)
(0.565556 0.000340461 0.00030646)
(0.567708 -0.000283779 9.91015e-05)
(0.565598 -0.000176897 -0.000364459)
(0.565644 -0.000804237 -0.000856249)
(0.562921 -8.23572e-05 0.000355591)
(0.556686 0.00641045 -0.00106363)
(0.572291 0.000752925 0.000630045)
(0.558576 0.00187917 -0.000851515)
(0.562723 0.000346435 -0.000875789)
(0.199322 0.199328 8.77241e-05)
(0.200499 -0.199728 -5.5408e-06)
(0.566691 0.000162963 0.000146742)
(0.566523 0.00023662 0.000272628)
(0.562788 -0.000526556 0.000423911)
(0.559122 0.000755834 -0.00208515)
(0.561671 -0.000842636 -3.22553e-05)
(0.198844 0.19907 -0.000325103)
(0.199095 0.199301 -0.000156548)
(0.566861 -0.000778632 -0.000860123)
(0.56406 -0.000412909 0.000168974)
(0.565263 -0.000283471 -0.000386969)
(0.565424 -7.52722e-05 -0.000219651)
(0.5651 -0.000184003 -0.000730522)
(0.566243 -0.000314243 -0.00015011)
(0.220714 -0.153286 -0.0146499)
(0.56804 0.000286176 -6.87069e-05)
(0.562273 -0.00107135 0.000818259)
(0.560219 0.000573506 -0.000771121)
(0.557215 3.12598e-05 -0.0017679)
(0.568041 5.88058e-05 0.000106673)
(0.541679 0.00355221 -0.0126728)
(0.556402 0.0158752 -0.0103688)
(0.566815 0.000254893 0.000168235)
(0.562072 -0.000843803 0.000805419)
(0.560561 -0.000261264 0.000307854)
(0.563616 -0.000685256 -3.78762e-05)
(0.573244 0.000288792 -0.00101012)
(0.19932 0.199351 2.92525e-06)
(0.556866 0.00231453 -0.00214738)
(0.56703 -1.86564e-05 7.28544e-05)
(0.550947 -0.00212711 -0.00588218)
(0.566163 0.00012844 -0.000580438)
(0.566463 3.20962e-05 -0.000650304)
(0.19973 0.197603 -0.000812301)
(0.563713 -0.00100905 0.00400391)
(0.573361 -0.000459242 0.000108226)
(0.567018 -1.67206e-05 -0.000559319)
(0.561487 0.000380231 0.00100393)
(0.55401 -0.000176719 -0.00169355)
(0.199309 0.20511 -0.00187085)
(0.197821 0.195524 -0.00103348)
(0.565863 0.000351827 0.00019928)
(0.566397 -0.000183704 -0.000139379)
(0.566303 -0.000177059 1.60125e-05)
(0.567556 1.96407e-05 6.99069e-05)
(0.566223 0.000158886 -5.99015e-06)
(0.56559 0.000597603 0.000459973)
(0.56222 -0.000548814 0.000720297)
(0.566657 0.00164713 -0.00276507)
(0.565756 -0.000274604 -0.000891596)
(0.565988 0.00085662 -0.000408293)
(0.563917 -0.00127641 0.00221264)
(0.561595 0.00117255 -0.000710611)
(0.563212 -0.00065514 0.000150152)
(0.566301 0.000193513 -0.000363731)
(0.198622 0.198608 9.86969e-05)
(0.566844 4.21969e-05 -0.00025995)
(0.200426 0.200577 -0.000127905)
(0.199601 0.199152 1.42953e-05)
(0.56591 0.000933398 -0.000454758)
(0.562968 0.000114637 0.000149376)
(0.566752 -0.000787484 0.000532316)
(0.200417 -0.200247 -3.59995e-05)
(0.564656 2.77117e-05 0.000450085)
(0.561315 0.00104384 -0.00170018)
(0.567407 0.000527168 -0.00112276)
(0.199547 0.199645 9.24154e-05)
(0.56424 -0.000335365 -8.62498e-05)
(0.197085 0.198847 -0.000605576)
(0.563626 -0.000315312 0.00338186)
(0.198074 0.196985 -0.000144367)
(0.561643 -0.000214413 0.000962763)
(0.558429 -0.000350504 0.00109322)
(0.563756 -0.000127998 2.74078e-06)
(0.565805 0.000760323 -6.47245e-05)
(0.20034 -0.200257 0.000102632)
(0.198375 0.19835 -0.000170852)
(0.566805 0.00264941 -0.00300454)
(0.555365 -0.000201414 0.0021114)
(0.567379 8.84285e-05 -0.000841055)
(0.565825 -4.99474e-05 -0.000439132)
(0.565706 -7.16335e-05 -0.000614505)
(0.563875 0.00113227 -0.000296805)
(0.574572 0.00319534 -0.00126908)
(0.199767 0.199934 -0.000293842)
(0.581958 0.00711261 -0.000911211)
(0.565345 -0.000530593 -0.000731498)
(0.541785 0.0633381 -0.0393463)
(0.198089 0.196663 0.000530189)
(0.567556 0.00135063 -0.00164761)
(0.54667 0.000444868 0.00154941)
(0.19941 0.197822 0.00170549)
(0.581607 0.00226246 0.00103895)
(0.567361 -0.000318981 -0.000533715)
(0.199676 -0.199565 -7.00265e-05)
(0.55852 -8.23704e-05 0.0013032)
(0.59633 0.00839539 0.00134132)
(0.566247 -0.000460072 -0.000155882)
(0.561954 -0.00146655 0.00246888)
(0.576432 0.00507696 0.0273814)
(0.559862 0.000875254 -0.000507967)
(0.564721 -0.000110291 -0.000394487)
(0.561305 0.000136535 -0.00194772)
(0.539757 -0.000114888 7.20012e-05)
(0.567029 -0.0230317 0.0259262)
(0.56447 0.000345661 0.000767181)
(0.555351 -0.00107525 -0.000109237)
(0.566336 3.71244e-05 -0.000165184)
(0.57545 -0.0014345 0.000958992)
(0.566549 -8.27405e-05 0.000167367)
(0.567652 0.00221844 -0.00160133)
(0.199413 0.199488 2.61409e-05)
(0.566532 0.000704663 -0.000337528)
(0.58069 0.000397608 0.00146751)
(0.59106 0.00564921 0.00767713)
(0.199736 -0.199751 -7.87573e-05)
(0.562529 -0.0010994 0.00106742)
(0.569074 2.08092e-05 -0.000194472)
(0.197201 0.195144 0.000400981)
(0.558191 0.000406342 -0.000128663)
(0.562325 0.000184691 -0.000536811)
(0.565931 0.000381174 -0.000658344)
(0.568942 0.000437979 5.76398e-05)
(0.562134 -0.000594073 -0.000355047)
(0.565024 -0.000149646 0.0001781)
(0.198911 0.199225 -0.000232089)
(0.562285 -0.000238372 -0.00176321)
(0.570588 0.000100943 -0.000275996)
(0.19898 0.198968 0.000237197)
(0.200023 0.199453 -0.000105822)
(0.565766 0.000506155 0.000416073)
(0.199428 0.19979 -0.000111781)
(0.564503 -0.000173803 0.000372127)
(0.56045 -0.00406299 -0.000369672)
(0.566022 0.000319759 -0.000248662)
(0.562384 -0.000578922 -0.00230394)
(0.562336 2.15128e-05 -0.00185584)
(0.284002 -0.01993 0.0421973)
(0.199424 0.19967 0.000192894)
(0.57151 0.000272042 -1.40681e-05)
(0.565754 -3.60218e-05 3.90537e-05)
(0.562954 0.000609862 -0.000484107)
(0.561981 0.00271732 -0.00192099)
(0.563175 -9.93073e-05 -0.000788925)
(0.19914 0.199303 -0.000233282)
(0.544405 -2.85746e-05 -0.000722155)
(0.560759 -0.00024888 -0.00087022)
(0.556095 0.00166794 0.00416876)
(0.566919 -0.000189901 0.00107765)
(0.563784 -0.00104804 -0.000279752)
(0.556078 0.018403 -0.020502)
(0.566126 -0.00163356 7.07097e-05)
(0.551255 0.00613557 -0.0113208)
(0.198615 0.195312 -0.0011076)
(0.199646 0.199576 0.000199766)
(0.199152 0.199068 -4.15373e-05)
(0.566374 0.000322695 -0.000170508)
(0.565817 -0.000175642 -0.000482353)
(0.199137 0.198554 -0.000103569)
(0.56395 -0.000107573 0.000873679)
(0.557571 0.00383953 0.00291116)
(0.557048 -0.000747057 -0.000576091)
(0.501309 0.070695 -0.0405232)
(0.559681 -0.000773552 -0.000473254)
(0.565468 0.000159773 7.22644e-05)
(0.199866 0.204274 0.000340521)
(0.557138 0.0130783 -0.0207087)
(0.199878 0.19984 0.000172015)
(0.198918 0.198379 0.000351532)
(0.56598 -0.000219137 1.68398e-05)
(0.317978 0.243332 0.0367147)
(0.289994 -0.118076 -0.00405067)
(0.562679 -0.0013347 -8.90503e-05)
(0.194325 -0.197747 0.00026019)
(0.566016 0.000139855 -1.81185e-05)
(0.560815 -0.0025478 -0.00505184)
(0.570059 0.019343 -0.0139211)
(0.565521 -0.000150538 0.000384392)
(0.575789 0.0110828 -0.00352156)
(0.563672 0.000509235 0.00013584)
(0.570716 -0.036496 -0.0106862)
(0.19902 0.198984 4.09669e-05)
(0.198879 0.198034 0.000203301)
(0.563438 -0.0011462 -0.000188911)
(0.563543 -0.0007517 0.0011814)
(0.567019 -0.000408251 0.000229854)
(0.195871 0.198988 -0.00154634)
(0.560199 0.00116869 9.55856e-06)
(0.56527 -0.000370784 -1.18842e-05)
(0.565559 -9.98081e-05 -0.000280428)
(0.199254 0.19948 0.000836386)
(0.565313 0.000239537 -0.000637781)
(0.565485 -0.000239059 -0.000320813)
(0.51102 0.057099 0.0378791)
(0.199119 0.199149 -0.000144379)
(0.645291 0.172784 -0.00639517)
(0.522358 0.0735228 -0.0535021)
(0.200196 -0.199483 4.27634e-05)
(0.199818 0.19909 0.000338427)
(0.19889 0.198517 1.94447e-05)
(0.200486 0.19986 0.000424519)
(0.200005 0.199714 -0.000784717)
(0.564815 0.000533181 -0.000118576)
(0.565718 -3.99696e-05 0.000209192)
(0.564544 0.00056626 0.000169759)
(0.199454 0.198444 0.000169156)
(0.564975 -0.000285352 -0.000217304)
(0.567198 4.14063e-05 0.000419123)
(0.199651 0.198943 0.000263987)