/*--------------------------------*- C++ -*----------------------------------*\
  =========                 |
  \\      /  F ield         | OpenFOAM: The Open Source CFD Toolbox
   \\    /   O peration     | Website:  https://openfoam.org
    \\  /    A nd           | Version:  10
     \\/     M anipulation  |
\*---------------------------------------------------------------------------*/
FoamFile
{
    format      ascii;
    class       volScalarField;
    location    "51";
    object      SgT;
}
// * * * * * * * * * * * * * * * * * * * * * * * * * * * * * * * * * * * * * //

dimensions      [1 -1 -3 -1 0 0 0];

internalField   nonuniform List<scalar> 
111485
(
7.28745e-17
0.0090167
0.0210425
2.78726e-18
0.0449954
8.28469e-17
0.0417136
0.00587139
0.0183885
0.0011295
0.0418824
0.0091555
0.00425322
0.000836868
0.00592445
0.0316415
0.00129457
1.99774
0.0100151
1.54276e-15
3.69706e-16
6.55309e-17
0.023501
0.0355011
0.00847253
1.24082e-16
0.040106
0.00174307
0.015937
7.87827e-19
0.0435907
0.0173567
2.49187e-16
1.07512e-16
0.00967008
7.05147e-18
0.0105459
0.00388774
6.45676e-08
0.0215896
5.57249e-18
0.0719908
0.0144312
0.000998511
3.66921e-05
1.27255e-17
0.0328422
0.000720255
0.047558
6.91228e-16
1.77114e-15
2.54379e-15
5.10006e-15
0.0444929
3.1889e-15
0.0430381
0.0035548
5.7027e-18
2.70591e-05
0.00449275
0.0149331
9.83068e-17
0.00401986
0.0883327
8.37567e-16
0.00359132
0.300994
0.0972566
0.000922109
0.00512006
6.61388e-06
0.00547559
1.00769e-16
0.00244686
6.61946e-18
0.000637946
5.41515e-16
0.0425239
9.20195e-16
4.1021e-16
5.23809e-05
0.031605
2.7425e-16
2.6597e-17
0.00812987
0.00442575
5.78195e-10
0.0225526
4.63356e-05
0.0067838
0.00086525
0.0410914
0.0103443
6.13888e-05
0.0559718
2.85165e-17
1.25556e-17
0.00145427
8.71216e-09
0.00147961
1.89802e-16
0.0195119
4.97548e-17
0.0214693
0.00483029
1.97611e-17
1.13676e-17
0.00748194
0.0031876
1.49999e-07
0.00562656
0.00507216
0.00313921
0.00264493
2.68036e-16
3.05094e-05
3.33041e-16
8.79604e-20
0.0113663
1.7011e-17
3.47724e-16
4.39026e-15
1.82554e-16
1.72683e-18
0.00233767
2.33129e-06
4.63814e-17
0.00149841
4.00238e-18
0.000173377
0.000987696
0.0280798
1.44115e-17
1.90636e-15
2.22029e-15
0.0491589
2.99554e-16
0.0409688
0.022543
0.0025539
0.000171852
0.00186891
0.0204553
0.00310542
0.00380443
0.0122031
3.49109e-16
4.00255e-17
7.39886e-18
0.0262491
0.00183
6.33736e-17
1.33279e-07
0.00502315
4.80597e-07
0.0106257
0.0154952
0.00943514
1.69342e-07
6.57838e-18
5.57725e-18
0.0526906
0.0252361
5.15754e-06
2.32221e-07
0.00518631
0.00369357
1.07093e-18
9.96172e-06
6.58487e-05
5.06542e-19
1.15319e-17
0.000148427
1.62382e-18
0.00613847
0.00226986
6.14502e-17
2.34765e-15
3.23465e-15
3.21446e-16
6.29628e-15
6.31016e-17
0.00134069
0.00671813
0.0277017
0.00416074
0.00641891
0.00356795
9.47996e-05
2.1576e-17
0.00425054
2.14306e-16
5.09189e-18
0.00582421
0.0110749
0.0228028
0.0103216
0.00462929
6.07283e-18
0.00604872
0.000573128
4.51715e-05
0.0111843
0.00230502
6.86763e-18
0.00325847
0.0275249
9.42349e-15
0.000230459
0.006516
0.00227951
0.000309347
5.60467e-15
2.86879e-17
0.00728626
7.0529e-12
0.123852
6.91685e-17
0.00601256
0.0190203
0.121837
1.67285e-18
0.0026744
0.0119975
1.65373e-13
3.87096e-17
7.36731e-19
0.166638
4.1899e-07
5.39406e-16
1.86112e-15
0.00914151
0.00846694
0.0160022
1.78871e-15
2.89555e-17
9.3425e-06
3.34799e-18
0.0027249
0.00832915
0.0149793
0.0107852
0.00917656
1.13007e-17
3.22432e-07
0.000565316
7.84922e-18
4.43116e-16
0.0307254
0.0214579
3.73084e-16
0.0055947
0.0097862
1.73828e-17
1.60464e-14
0.000153203
3.65959e-16
2.51245e-15
3.92076e-05
1.39717e-16
0.0156134
0.0117282
0.00336234
2.42391e-17
0.0109591
2.80305e-18
2.26362e-17
9.75857e-19
3.72487e-08
0.0225663
0.00553221
0.00466645
0.036959
0.0109711
0.00149651
0.000590814
0.0340484
0.00941867
3.15982e-17
1.7327e-17
3.37185e-07
0.0220551
0.0215144
0.0128355
1.91903e-17
0.00633258
0.00194839
0.00276211
6.2212e-06
4.40075e-06
0.0122038
0.00211791
0.00186266
1.5709e-17
0.000778793
4.10701e-17
5.29001e-07
2.01345e-13
0.266564
0.068272
0.0138397
5.99557e-16
8.13218e-18
0.00830906
0.00190194
3.71775e-16
9.70335e-18
1.98093e-15
0.000415746
0.0622529
0.00333912
0.0154393
0.0182909
1.88251e-16
6.89344e-18
9.40921e-18
0.00350791
4.88409e-13
0.00132713
0.187122
5.82181e-07
2.71232e-17
6.72208e-18
2.31394e-17
2.06889e-15
0.0574334
0.0123216
3.40513e-18
0.00486378
7.08573e-16
3.15509e-15
0.0671924
0.00538512
0.010722
0.00854832
1.03714e-14
2.67704e-15
9.80739e-18
0.00872469
0.0189119
0.00469466
3.99169e-16
2.04093e-10
0.000225146
0.00177857
0.00733877
6.34644e-05
0.0284774
3.41244e-16
0.0370401
0.00315631
0.00787047
0.0230937
0.0147306
2.36058e-16
1.70517e-16
3.62116e-17
3.23358e-16
0.0321032
0.00855861
0.037082
0.0669828
5.12057e-17
0.0201583
1.95667e-18
3.00611e-16
0.0161348
1.79589e-15
0.0399493
4.28979e-18
1.60225e-18
0.0237399
8.9415e-20
0.0140965
0.000335102
2.62911e-16
0.00112425
0.0150746
3.60811e-16
0.00797649
0.0106735
0.00738797
0.000434859
0.00291398
0.00613917
2.46067e-15
2.17416e-17
0.00136288
4.97102e-18
0.00500676
0.112068
8.58879e-16
2.68655e-17
0.0256173
0.000127799
0.00759377
0.0224687
2.80855e-16
0.0389859
0.0197491
4.24961e-17
0.000696262
0.00281894
1.5367e-17
1.40418e-16
0.0118231
0.00487699
2.80718e-18
4.79672e-16
1.0854e-08
2.92312e-17
0.0105548
1.74189e-17
8.73705e-18
0.0177267
2.47895e-06
0.0146318
0.0266908
2.0839e-16
4.11333e-15
0.00108141
6.93966e-16
0.000107604
0.0108128
0.121701
0.905581
1.71621e-16
0.0026036
0.000234452
2.39207e-17
0.03505
0.0330971
4.49899e-18
1.1444e-08
0.000108597
1.29884e-15
0.0256977
0.0268946
0.0127257
1.80574e-15
0.000590203
0.0206191
0.0212182
6.04183e-07
4.63308e-15
9.53924e-11
4.09768e-18
2.07922e-05
0.0318513
8.5383e-19
0.00957714
6.81107e-05
2.70368e-15
3.38758e-18
1.79899e-14
3.28286e-16
0.00429045
0.00952128
0.00711424
0.00244063
0.00339067
4.58612e-16
0.00228119
6.61682e-17
0.0356557
6.60238e-16
2.90907e-17
2.69673e-18
0.0317979
1.74702e-17
6.25909e-18
3.36854e-07
4.8309e-18
8.33473e-17
0.000876056
2.65921e-18
1.27462e-15
2.11624e-17
1.16806e-16
4.55465e-16
1.10985e-17
3.28617e-16
0.00815481
1.12644e-17
0.000392596
0.00166193
0.00266491
4.64136e-16
0.000624517
1.53882e-17
3.43846e-18
0.00310832
0.00204785
0.0294006
0.0222437
1.63436e-16
0.00187029
0.0726716
0.00841708
0.00110927
0.003656
3.01066e-17
0.022397
4.01748e-15
0.00428207
2.71402e-16
0.0691242
1.92352e-15
0.0210551
0.000323359
7.73402e-08
1.41628e-16
0.00233246
5.14849e-17
0.0759195
0.0443193
4.24633e-18
3.43436e-17
9.37408e-16
3.23946e-17
1.74381e-10
0.0545912
5.90816e-16
6.28313e-18
0.00288034
6.26415e-17
0.0304204
1.62691e-16
0.000351051
9.48833e-17
0.000586186
7.47675e-07
0.001121
0.0124504
9.05166e-16
0.000365968
4.14294e-16
2.37686e-17
0.0162768
4.69296e-16
3.57163e-05
2.37405e-16
0.00147679
3.00631e-16
0.0661521
4.44377e-18
9.3335e-15
0.0121337
0.00387724
0.00150489
0.00430725
0.00590978
0.020889
4.14916e-17
0.0207416
0.00708213
1.98958e-17
5.69177e-08
0.0314756
0.0125547
1.85493e-16
0.00550314
0.00543776
0.00127769
0.00139212
1.48041e-10
0.013803
0.000983254
0.000166761
0.0267678
0.014176
0.00109225
4.27969e-15
3.10194e-09
0.619636
1.31309e-17
0.00041816
1.52072e-18
1.33356e-14
0.00729644
0.00363734
1.26011e-07
8.47131e-06
2.858e-16
0.018509
0.00994225
8.01827e-16
1.19455e-11
0.00204366
6.53868e-16
6.02466e-16
4.01062e-17
3.01117e-16
0.0152524
5.41355e-17
7.95432e-18
0.0098735
0.00233938
1.41387e-14
0.00937683
8.82413e-17
0.00860009
5.53843e-16
2.05388e-17
0.057137
9.97925e-17
5.20234e-17
3.99365e-15
0.00490328
1.71872e-14
0.0328282
0.00638828
9.25387e-17
0.0728677
0.00283179
0.0261272
0.0235758
0.000929395
9.17645e-05
3.51203e-17
0.0569129
0.0416023
2.61844e-17
0.000309108
0.0361856
0.00708671
0.00155627
0.0244298
0.0237695
1.50112e-17
0.0104728
3.67427e-06
5.55871e-16
0.0320023
0.000299325
5.89309e-14
0.0109155
0.0388302
0.0015879
0.0185247
0.0168368
0.00706232
9.42716e-16
0.00915387
0.000400206
7.80449e-12
0.0144609
0.0148981
0.0347931
1.3765e-16
0.00211242
1.18298e-18
3.06759e-17
1.24247e-16
2.6062e-15
1.68526e-05
3.01079e-15
1.30686e-10
3.61434e-17
6.40262e-16
5.13012e-05
0.0396403
1.82912e-15
0.0366054
1.37062e-16
1.70488e-17
1.94624e-15
0.0396391
0.000496252
3.266e-15
4.95667e-18
7.03321e-18
1.76049e-17
0.238172
0.068448
3.73758e-15
0.00176979
4.67344e-06
9.53109e-18
0.0349047
0.00649504
0.0129283
3.41943e-17
2.80703e-16
0.000392386
0.00106981
8.48928e-15
4.87753e-18
2.46383e-15
0.00706759
2.07079e-18
2.04073e-16
3.30162e-16
0.0385084
0.00161471
4.35016e-17
4.12146
0.142682
0.010897
2.01309e-18
9.87093e-16
0.056749
0.000304622
2.23254e-15
7.589e-06
0.170115
0.00291225
0.0119117
2.75403e-17
0.0578098
0.00152109
6.01002e-18
1.71467e-15
6.62746e-18
5.20272e-18
7.90154e-18
2.25743e-16
0.019338
4.90963e-17
8.48478e-17
1.13668e-15
0.0119175
0.0234289
3.54932e-16
7.42041e-16
0.105664
0.0133256
0.00877246
1.02238e-15
7.03193e-17
0.0345832
1.40116e-18
0.00227553
0.00240085
0.00353571
1.45863e-15
3.59235e-18
4.33253e-17
6.73072e-18
0.0158539
3.61446e-17
1.87495e-16
0.000816729
7.14654e-17
0.0211507
0.00140644
1.19634e-15
0.0358224
0.601332
0.00232358
0.0294115
0.000200136
0.0480114
2.42157e-10
5.98922e-16
0.0218668
0.0766181
0.00620307
1.78125e-15
1.31202e-09
0.517755
0.00989037
1.17449e-17
0.00291425
0.00313656
0.00143438
1.12664e-14
6.43369e-19
3.95315e-18
0.0126407
6.27491e-15
0.00232844
2.49406e-16
0.00145579
0.00127555
0.0343218
0.00053486
3.46826e-16
1.36015e-16
4.40698e-16
0.0197203
5.72587e-16
1.78405e-15
4.27205e-05
5.53745e-18
8.6926e-20
1.21354e-17
4.83062e-17
0.00897296
3.52373e-15
1.72102e-16
7.29469e-10
3.05891e-16
1.25766e-18
2.47201e-14
2.11443e-16
3.26122e-06
0.00151578
3.33126e-16
0.00333295
1.2306e-05
2.77203e-07
8.52407e-05
0.00439136
5.64696e-17
1.00571e-05
0.00929979
0.000372055
6.32637e-18
1.09175e-08
0.000752744
1.13096e-15
0.00888169
0.000299869
2.01144e-06
0.0253146
0.00866878
0.00215879
0.00553457
0.00197569
6.28185e-17
1.38369e-15
0.0301287
0.0243808
1.18588e-18
0.00776045
0.0536675
0.0277389
5.43885e-15
0.00166082
2.47043e-17
0.0102802
0.0134832
8.02766e-17
0.00144188
0.000475988
1.50092e-06
0.00451121
1.25703e-16
0.0471626
1.93448e-05
0.00186023
4.02139e-05
1.37731e-05
7.71444e-17
6.8819e-17
0.00832966
5.62567e-17
8.96175e-05
0.00032871
1.0726e-05
6.45622e-08
6.16095e-08
1.23126e-06
1.40981e-19
1.13426e-14
0.0216284
3.3604e-18
0.00115858
0.00234977
1.90571e-16
8.30784e-16
6.42059e-07
1.51906e-10
3.36044e-17
3.33497e-06
1.38827e-16
4.86549e-17
5.76813e-19
1.81352e-17
1.17237e-14
5.57903e-18
0.000330608
2.10594e-15
7.60939e-18
3.22803e-17
4.72807e-06
7.05136e-05
0.00204218
0.0091622
1.55988e-16
5.10449e-16
0.00023261
2.32545e-16
8.51555e-16
8.11672e-14
0.0194631
0.0407436
8.05756e-16
1.5875e-16
3.93924e-15
2.55246e-15
1.06772e-18
9.13749e-17
0.00845556
5.24232e-16
7.95753e-08
0.0269291
3.36547e-18
3.74343e-17
2.10177e-15
1.51957e-05
9.00104e-16
2.75073e-17
2.60841e-17
5.88585e-06
6.84907e-17
0.00530367
1.06976e-06
4.35544e-09
1.48981e-16
4.68466e-05
0.00260521
0.043469
5.56908e-16
5.51672e-06
0.00722051
7.46673e-16
3.45855e-17
2.82734e-14
5.02018e-16
0.00787135
0.00175038
0.00396516
1.59936e-07
2.14783e-17
0.0222934
7.89921e-16
4.76853e-15
3.03953e-14
9.51694e-18
0.0252979
4.03891e-16
3.84667e-15
2.63363e-06
0.0487861
4.92458e-16
0.00300202
1.72929e-16
0.00112416
1.67832e-15
1.22273e-17
4.13023e-18
6.5155e-17
0.0026448
0.000683185
0.33873
1.29863e-16
1.38832e-15
0.00204991
1.54227e-16
2.01004e-15
6.89923e-18
0.0422407
5.60647e-06
0.0286801
3.76398e-16
6.4635e-06
2.96357e-05
4.6361e-14
6.92109e-05
5.17925e-16
0.00182554
0.0276356
0.0200133
0.00164764
0.000326136
8.70114e-17
4.20138e-17
1.31674e-17
1.40046e-05
4.59119e-18
0.00542789
7.13203e-18
0.175948
8.56749e-17
0.0417171
0.00354227
2.90075e-15
1.66789e-16
1.62376e-14
1.58024e-18
0.031298
8.32506e-15
5.06171e-14
0.0129899
0.00536242
2.07409e-15
1.93514e-14
6.40613e-15
1.3652e-16
1.95571e-15
3.53138e-18
0.0203903
0.000519724
8.05359e-17
2.96212e-16
2.78365e-07
1.3167e-17
0.00133183
0.000116003
3.8832e-17
0.00271185
1.20091e-16
0.000331656
8.94772e-17
0.000889952
1.51362e-16
1.27543e-07
1.79506e-06
0.000876561
0.0144014
0.0274258
1.01324e-06
7.78374e-19
0.000447097
1.58895e-16
0.00436729
1.3883e-16
5.29274e-17
2.15544e-14
1.75181e-17
5.27963e-17
3.32031e-17
0.00569843
0.00627835
5.59345e-17
4.10614e-14
1.53476e-16
0.000535674
1.76281e-05
1.29564e-18
0.0184322
0.000213017
7.10745e-16
0.0224845
0.00812085
0.00332496
0.0134604
1.33179e-16
1.15061e-16
7.72573e-17
4.03946e-17
0.0362677
3.46691e-17
0.103814
2.74886e-17
0.000216986
0.000728663
8.90933e-17
0.000670445
8.43548e-18
2.45226e-16
0.00227007
2.58817e-08
0.00590314
2.64062e-16
1.36764e-15
6.46485e-16
0.000694223
1.2413e-15
1.27991e-17
3.91966e-17
5.10512e-07
1.27512e-15
1.19121e-05
1.08358e-14
2.03703e-15
1.23417e-17
0.0178329
0.00958631
0.0176892
0.0343107
1.43357e-17
9.67685e-06
1.16432e-17
2.72579e-19
0.0107382
6.19835e-17
3.11176e-06
0.000255355
0.00628743
0.000240323
9.34867e-11
0.00242421
1.24868e-18
1.69095e-10
9.74417e-10
9.32991e-05
0.00123732
0.0134802
6.58913e-08
1.50141e-16
0.0311733
6.95828e-16
7.9974e-18
2.96311e-05
0.0745016
1.01471e-07
5.3502e-17
2.91914e-16
6.0455e-07
1.42282e-15
7.63302e-17
1.01745e-05
5.90592e-15
3.10384e-15
0.0419776
0.000141581
0.00010589
0.0234454
0.00717226
4.52033e-16
1.19528e-16
3.7172e-06
0.0041991
6.02157e-17
2.61233e-15
0.0112393
1.58504e-16
1.14294e-14
2.74649e-15
6.13673e-16
3.08311e-13
2.52258
1.22983e-16
0.000184171
3.70546e-16
0.0153194
1.07759e-16
3.50883e-12
2.20551e-15
9.26472e-16
4.53094e-17
4.00609e-16
0.00336489
6.46736e-17
7.18522e-16
6.55935e-15
1.00342e-16
1.71244e-17
4.0136e-16
0.00996507
1.45361e-16
0.0110376
0.00233838
6.10905e-16
0.00172659
1.72933e-15
0.000399063
1.49995e-06
0.00406789
0.014175
5.77758e-16
8.95122e-05
0.00934106
4.50012e-06
2.37213e-18
1.07482e-06
0.016949
0.00476079
2.52192e-16
0.0267159
1.73822e-16
4.20662e-17
2.60551e-15
1.15712e-16
0.00827305
3.58961e-16
5.63449e-16
0.00805298
1.10347e-07
0.00278511
9.05759e-18
7.44327e-14
0.000675507
2.57297e-17
0.000147373
2.02078e-15
0.0217462
4.8365e-16
1.09927e-16
5.53836e-05
4.48705e-16
0.000101617
3.01614e-17
1.426e-16
0.00534158
0.000392038
0.00488949
0.0174777
0.217389
0.0197317
4.58975e-16
2.59289e-15
0.00236997
0.00669185
0.0351878
0.0133356
4.86689e-16
0.0112913
2.39382e-16
2.01783e-16
0.00763335
0.00957959
1.82094e-15
0.0124351
1.96331e-17
0.00283983
0.00827579
4.88816e-15
8.97283e-17
1.58136e-17
0.00232425
8.86005e-16
5.15039e-17
0.00354787
0.0199332
3.99822e-06
0.00767564
9.97617e-16
8.70665e-17
5.48624e-05
0.000656828
9.38685e-17
0.00924064
1.79043e-15
0.00243404
1.18248e-16
1.83782e-16
0.0111184
3.82272e-17
4.50476e-05
0.00296598
6.96606e-16
2.89216e-16
0.00365059
2.60654e-11
0.0539384
5.37184e-17
0.285296
1.81054e-17
3.06995e-14
1.14758e-15
0.00643463
1.30859e-14
8.27464e-16
0.00500983
1.14145e-15
0.000161596
1.34232e-14
9.23002e-16
2.9578e-15
1.57491e-07
0.000775455
1.02491e-16
2.09982e-17
0.0359734
0.00094245
1.03679e-15
0.000596298
1.75194e-15
5.74496e-16
1.205e-06
0.00369072
0.00117263
7.51746e-16
3.72525e-17
2.76178e-17
1.12316e-17
8.86866e-16
3.43865e-15
4.05869e-17
8.41692e-17
3.30936e-16
2.42802e-15
1.76525e-16
2.32482e-17
5.35266e-16
6.08316e-16
1.89398e-16
1.67709e-15
2.20015e-16
3.9771e-16
1.03294e-16
2.08492e-17
4.09023e-18
0.0183649
5.14683e-16
5.50439e-16
1.86992e-18
0.00619143
2.03475e-19
2.4598e-16
0.194709
1.43514e-16
3.40512e-16
0.0218994
3.61099e-12
2.05675e-16
0.00437094
0.0232783
5.01638e-17
0.00127596
0.00216792
5.6293e-16
0.0111037
0.0373797
0.0165102
0.00287627
0.00975823
2.37894e-16
2.99554e-16
0.00275566
0.010172
0.00268536
3.98018e-16
0.00559596
0.00135171
0.0186456
0.0107012
0.000640692
0.0135953
0.00106819
0.00844293
3.85578e-18
0.0265775
0.00756338
0.0018192
0.00117463
5.13677e-17
7.45004e-17
5.42064e-18
7.83297e-18
2.04879e-17
0.00873848
0.0122026
3.89367e-17
5.96172e-17
8.51342e-15
3.61439e-16
3.51505e-16
7.01533e-16
5.53053e-16
1.39317e-16
0.0040967
8.67086e-05
0.0194807
4.9007e-05
1.8629e-16
2.76786e-15
0.0331309
2.86147e-06
4.6865e-16
2.23607e-16
0.00700809
4.52871e-18
2.40346e-17
3.62307e-06
0.00701687
0.0122298
0.0293541
0.0270228
6.04647e-16
0.0139819
0.000261124
5.94445e-15
2.4411e-16
0.0102077
4.85613e-17
1.21517e-16
0.0277099
0.994055
0.000149386
4.97254e-15
3.94984e-20
0.0153919
0.0222144
0.0162165
0.00577023
0.00198654
2.17423e-17
6.8176e-07
2.27891e-09
6.03165e-17
3.47746e-15
0.016977
1.67752e-16
0.00193962
0.0258551
0.0155095
0.0119821
7.90715e-19
0.00523317
5.61962e-18
2.45101e-16
5.70742e-17
1.49214e-16
0.00250922
0.709859
9.98996e-17
2.72931e-17
4.2724e-06
0.0224759
0.000465453
0.00616814
0.0312113
0.00456315
0.0197161
1.04167e-15
6.54712e-17
2.92737e-15
0.0306414
0.00511061
2.70734e-08
2.61132e-15
3.05238e-17
1.88798e-14
0.018695
0.00268894
6.96779e-17
0.00432096
0.0450236
0.00817541
0.00544182
3.09184e-16
2.078e-14
0.00613253
0.0214961
6.33193e-18
0.000238124
0.0120328
0.000856552
0.00885273
0.00411491
0.00747837
2.86279e-14
0.00346533
0.0186792
0.0364824
1.27482e-09
0.0230096
4.29726e-15
0.0159128
0.000146729
1.6425e-18
0.00249522
0.00634978
0.000312693
0.0106765
2.1745e-07
0.000192181
1.72598e-05
0.0245504
0.00311788
4.33866e-15
0.0377534
0.00105681
8.23765e-16
3.61752e-18
2.55396e-08
4.99601e-06
0.000899301
1.01321
0.0325083
0.00776827
2.56763e-07
0.0371261
1.23665e-15
1.39251e-17
0.00383362
1.90639e-15
0.00230606
0.00614882
0.00180744
0.00445522
2.97021e-17
0.000238428
0.102152
2.76156e-17
0.0596278
0.00653154
9.37949e-18
0.00341902
0.000180653
1.13381e-17
2.11066e-09
9.48049e-05
4.15169e-16
9.6588e-17
1.71408e-17
0.00427405
0.0045013
0.0132474
1.00745e-17
0.00560856
0.0296814
1.36585e-16
0.00701849
0.0108686
0.0240747
0.0013
6.83801e-16
0.0006166
0.0089464
0.00916612
0.00780415
0.0368978
0.146475
0.00324946
5.51188e-17
5.93683e-06
0.0502802
4.00764e-17
0.000374842
4.64637e-18
2.9933e-17
6.61134e-18
1.16521e-18
2.77209e-16
0.00265824
4.00249e-17
0.00612725
0.00144098
2.94048e-18
0.00408288
4.90752e-17
0.0139166
8.34211e-16
6.99523e-06
6.91514e-15
0.0206452
0.000111273
1.26036e-06
0.00357364
0.0277592
0.0165535
0.00363885
0.0239617
2.65997e-12
0.0196851
0.0497147
0.00819682
7.85616e-19
0.00118898
0.000357908
0.00479057
0.0113065
0.000755681
5.15654e-18
1.64159e-15
6.78562e-16
0.00404663
6.48855e-17
4.75314e-05
0.000227874
0.000530916
0.000271576
6.2223e-17
5.03046e-18
4.53084e-16
0.00737811
0.0199883
0.00127553
7.32751e-06
0.00185341
0.0061333
0.00196613
0.000719538
0.00628244
0.00530214
0.00231941
6.29149e-16
7.30867e-18
5.56268e-18
0.0137995
0.0102448
7.30619e-16
4.99554e-16
2.02924e-14
0.00707753
0.0185983
1.93098e-16
0.00189216
5.75689e-17
3.79452e-07
0.0052502
0.074141
4.93931e-17
2.174e-18
0.00341985
2.66023e-17
8.4773e-05
0.010979
4.22252e-16
0.00938682
0.031341
0.0160223
1.97989e-16
0.000659388
1.53554e-16
5.6921e-05
0.0454372
1.14831e-16
3.44838e-18
0.0107298
5.30922e-13
2.00844e-17
3.51304e-05
0.00107346
1.45475e-16
3.41996e-17
8.12372e-15
4.66361e-05
0.00125197
0.00305167
0.0201693
0.0094831
9.27765e-17
3.26364e-07
0.000421375
3.88927e-17
8.24323e-18
2.9832e-17
1.37121e-16
1.00683e-14
1.05969e-15
5.73744e-15
1.0633e-16
1.18912e-15
3.1104e-16
1.37957e-09
9.65589e-16
0.000410228
5.24008e-15
8.66723e-05
4.3385e-14
6.32753e-05
1.38438e-14
7.4742e-17
0.0219897
0.00804318
4.9032e-15
0.0867117
1.44244e-09
3.44292e-11
1.5301e-16
0.00104475
9.45777e-14
0.00218685
4.75625e-06
0.000973044
4.82652e-16
3.64055e-16
0.000633357
5.83435e-08
2.07533e-16
3.72975e-18
0.0368906
2.54664e-15
0.0339046
2.27533e-15
4.2678e-17
1.10057e-06
0.0266699
0.00844125
4.28617e-17
0.000399157
9.3556e-16
0.00102986
1.22191e-05
0.00186704
0.000644852
1.71653e-18
0.0190175
0.000759856
0.00480396
2.2007e-16
2.61997e-16
1.15576e-16
0.00524933
0.00398619
0.044043
5.53473e-17
2.36019e-07
2.19833e-16
6.26738e-17
1.16836e-15
9.50239e-17
0.00237757
0.00156394
0.00236678
0.279195
6.29034e-19
0.0287006
0.0329522
0.0174912
0.00122394
7.87348e-18
0.00544519
0.00326326
0.00477095
8.42597e-07
0.00961204
1.11073e-15
0.00172268
0.00089023
0.0303806
8.01933e-07
0.00241369
1.68417e-15
0.0166105
6.34282e-16
1.49649e-17
0.00142625
4.4009e-18
0.00695386
4.28024e-18
9.2843e-16
3.16153e-15
1.1708e-16
1.81432e-18
0.000590747
1.50646e-15
0.000599131
6.77149e-17
2.14649e-17
0.0187879
0.00593098
0.00716371
0.00808279
1.98191e-18
0.556105
1.3746e-18
0.0666305
1.63965e-15
0.0185507
0.018054
0.00183402
0.0533998
3.00319e-15
3.80065e-14
5.52222e-16
0.00205916
2.1975e-17
4.93666e-16
0.0167693
7.11735e-16
6.40754e-17
0.00404054
1.49588e-16
0.0125732
1.11043e-07
3.6405e-15
3.57758e-15
1.21747e-14
0.00143111
0.00575198
1.09791e-16
0.0206995
0.000242487
2.32281e-15
0.0941237
5.45015e-17
0.0153878
0.0170096
0.00295907
1.74007e-16
0.0154886
0.0082491
0.000598704
0.00410388
0.0111025
3.81877e-16
1.61797e-17
1.49201e-06
5.58026e-16
7.95464e-17
1.96435e-18
0.0182918
0.0358511
0.00400689
0.00175188
9.58329e-16
0.0416446
0.0429981
0.00365549
0.0030011
0.00796382
0.0200874
0.00204061
2.16161e-16
3.18704e-16
3.03121e-16
0.00504842
1.62507e-17
0.0241665
5.45472e-15
0.000631361
2.94173e-07
0.00238684
0.0208715
1.81624e-16
3.89979e-17
0.0019802
0.000278811
1.45011e-17
1.41052e-15
1.84283e-18
2.70901e-05
0.000257621
0.00010585
0.000634757
0.00876331
0.0836511
9.98515e-16
4.84479e-17
4.55281e-16
0.00354811
0.0188316
0.018686
0.0310485
0.00191463
0.00211229
1.6532e-15
3.87002e-17
2.76038e-13
2.68191e-16
0.00934764
0.0190706
2.37209e-17
1.51599e-15
4.53636e-16
2.04632e-17
2.52212e-18
1.02204e-14
0.010935
7.39741e-16
0.00108665
0.291741
1.45531e-15
1.55205e-05
0.0208949
0.000618258
4.64001e-18
7.95374e-16
0.00368078
1.13878e-16
0.0116033
1.46339e-06
0.0218141
6.53536e-16
1.24044e-12
2.81487e-16
2.21597e-17
5.6302e-16
4.03616e-15
0.173179
1.4767e-16
0.00440813
0.00105871
5.42889e-17
1.83254e-16
0.00146167
3.07806e-16
2.46892e-16
0.0141886
5.07216e-05
3.05483e-16
5.58973e-16
6.61376e-16
0.0147999
1.24274e-17
5.37318e-17
0.00024623
0.0019682
0.00224672
7.38247e-17
1.29605e-16
1.87306e-16
0.00295242
0.00140609
0.0103631
0.00295195
6.13676e-16
0.000684608
0.0123608
0.00582168
7.05029e-18
6.73682e-18
1.4395e-17
3.43005e-18
5.6748e-17
0.0282145
0.00716751
0.00426727
2.08785e-18
8.24281e-18
9.90022e-19
5.08373e-18
3.90793e-16
6.35714e-07
0.000291496
0.00230011
1.92537e-16
1.13368e-17
6.60937e-19
3.89214e-09
0.0275315
0.0947013
4.04108e-17
5.38158e-11
3.52188e-13
7.75768e-16
8.23889e-18
0.00326792
0.00676282
6.63564e-16
9.86335e-17
0.0024355
2.77642e-16
0.00067785
0.00115129
2.00886
6.19937e-17
6.07122e-16
0.0119804
0.000361313
9.06159e-16
0.634417
0.000509791
0.00672677
1.09328e-15
1.12899e-16
6.24696e-19
1.27149e-16
0.00695877
9.02825e-05
1.4295e-16
0.0217053
0.0159732
0.838371
2.16465e-17
1.39882e-17
4.52568e-16
6.49009e-17
0.00536244
2.82429e-08
1.59665e-16
5.64502e-15
0.0167527
0.00105603
0.0048128
4.98985e-16
1.32926e-17
0.0256076
4.50168e-15
9.0761e-17
2.13971e-16
1.61615e-16
0.0227381
1.16443e-15
6.45381e-16
1.63474e-15
0.0228782
0.0126236
7.32021e-17
3.62605e-18
2.7251e-16
0.0133838
7.42055e-08
2.88741e-15
2.56608e-16
3.87093e-18
2.38583e-17
0.00217457
0.00864435
2.46583e-18
0.00205519
0.000864304
0.00392922
1.96556e-17
3.18516e-19
1.49592e-16
1.76009e-18
2.77346e-17
0.0213988
1.07007e-15
0.0155223
6.83153e-16
0.00115244
4.14343e-14
0.00169986
1.46823e-16
5.02224e-17
0.0101825
0.2613
7.66336e-15
0.00259303
3.15226e-17
0.000285745
1.09531e-14
6.26979e-17
3.32052e-16
1.66352e-07
2.16847e-16
0.000358674
7.14506e-17
0.0334926
6.814e-17
1.99167e-16
1.17912e-17
5.30634e-16
7.12527e-06
0.000111039
2.07336e-16
0.00376359
3.40904e-18
0.00351846
0.0195548
0.000889807
1.22274e-18
2.96555e-06
0.000305697
1.37651e-06
0.00490664
4.96203e-07
0.00119386
9.32508e-15
9.68096e-17
3.25964e-07
0.00471629
0.000168929
2.12081e-15
5.35239e-16
4.09662e-15
0.431295
3.40613e-19
2.44584e-15
3.07744e-17
9.98294e-19
3.48716e-17
8.54087e-05
0.000121651
0.000753291
5.21506e-05
7.34785e-13
0.000912129
2.72976e-18
0.00632675
2.8477e-17
8.31439e-18
2.05944e-16
2.54263e-15
2.39878e-05
6.39242e-16
5.54686e-18
6.51567e-16
0.0145102
8.73638e-17
1.97729e-17
0.0106431
1.27361e-15
0.0364173
0.0654504
0.384741
9.11622e-18
0.204747
1.27526
1.80606
0.668866
9.30308e-16
6.11424e-17
0.00473363
0.00523764
1.91589e-16
0.00294571
1.22506e-16
0.0310447
7.90357e-16
7.3399e-17
0.000470313
3.15055e-16
2.75314e-17
6.79127e-06
2.79322e-05
4.40746e-18
6.41399e-17
1.33061e-06
5.63357e-15
1.19036e-15
2.01379e-05
0.00738289
0.0011309
3.2383e-16
0.00605561
9.76491e-18
0.00337621
3.89599e-07
0.0051163
6.76521e-16
1.16007e-09
0.00465741
2.12605e-15
2.12801e-10
5.07102e-17
0.0317592
8.83685e-16
0.0101903
9.80381e-17
9.53242e-08
4.16544e-16
7.6481e-16
1.30605e-17
9.71253e-11
7.93051e-10
1.10998e-17
0.0119488
0.00671541
1.89166e-17
5.34785e-16
0.0327225
0.017705
0.173817
1.45308e-17
4.72229e-05
0.0240752
0.0455625
3.04631e-09
5.50661e-19
0.0647369
6.13945e-16
0.213457
1.95566e-18
1.06859e-08
6.68298e-09
1.3996e-16
3.71995e-05
8.05751e-16
0.0198577
6.2269e-16
8.43881e-16
1.93318e-16
1.03104e-16
1.62414e-16
2.23076e-16
0.00036552
0.00147729
0.137668
8.66516e-16
1.84007e-14
0.0407825
2.23455e-16
5.41295e-18
1.58892e-16
6.99809e-19
1.14776e-15
0.00497345
4.31328e-17
1.52807e-17
3.62125e-18
0.0027819
1.87853e-16
4.32472e-16
7.19588e-16
0.0027044
2.59776e-17
0.00513022
0.195992
0.00380796
0.00448993
0.0226616
3.52428e-16
1.12205e-15
2.32794e-17
0.00255547
0.00167127
4.71697e-17
1.5454e-14
0.000484555
8.91214e-17
3.18135e-18
0.311819
2.93973e-16
0.0215524
5.40002e-16
0.00205855
0.00365759
9.11591e-16
6.56608e-16
1.35222e-15
7.90974e-18
3.66325e-17
0.0200221
2.02717e-15
0.00382226
1.5849e-16
1.39058e-16
0.00568778
2.46263e-16
0.0137781
1.0184e-15
8.53249e-19
0.00220259
7.77915e-05
0.123587
7.08539e-17
6.44551e-18
6.11539e-16
0.00357877
0.170867
9.4599e-16
8.58192e-18
1.81647e-15
0.00124796
2.66394e-16
0.0212824
0.0233609
2.03782e-16
4.33611e-17
0.00583247
4.15966e-17
3.7038e-16
1.83926e-17
1.84345e-15
4.31343e-17
0.0601861
7.69363e-14
1.41717e-15
1.05535e-17
4.47487e-15
1.7333e-17
4.54766e-15
5.80755e-16
5.80447e-17
3.85039e-15
0.00753806
2.30497e-16
0.0067475
8.02186e-14
9.07445e-16
0.542513
0.00216215
1.60996e-15
1.14772e-15
1.34702e-16
0.00193522
1.35692e-15
4.38097e-17
1.5245e-15
5.41387e-17
0.0057382
2.19861e-16
0.00292473
4.36015e-19
0.0100149
6.02809e-16
0.0550836
1.83286e-15
7.19814e-17
0.017083
1.70721e-15
4.29235e-17
0.0259854
0.000268783
1.01504e-19
1.3298e-18
0.0385794
0.0118476
0.00527026
0.000650719
0.00145263
0.0156353
0.000769339
0.00543538
2.67423e-15
0.0199355
1.64403e-15
3.14892e-15
6.07791e-17
2.42089e-15
2.76804e-16
0.0082755
1.51081e-17
2.2987e-18
7.03761e-18
5.11535e-07
1.41963e-05
2.46617e-14
0.00280788
1.18286e-16
0.00407985
7.06655e-17
7.00306e-07
0.0031091
1.38833e-13
0.0398836
1.45241e-16
4.46319e-16
8.80533e-16
0.0023604
0.00142138
1.15046e-16
5.4319e-17
0.00201631
8.74069e-18
0.622467
8.71904e-19
0.0800254
3.55473e-17
6.78302e-17
4.74777e-18
1.20501e-16
0.00836144
9.05732e-16
6.05091e-05
6.2007e-17
0.00933681
2.48917e-17
6.37517e-17
8.11949e-12
1.73415e-13
2.74068e-16
1.37336e-17
2.43153e-16
3.91749e-18
0.004353
0.227609
5.55009e-14
1.99901e-18
0.000395508
2.23017e-16
2.0335e-17
1.8403e-06
0.0165673
0.000170296
1.16087e-15
0.00054648
0.00367835
0.00442811
0.00842354
2.87701e-17
6.78098e-18
2.6485e-18
1.00252e-16
1.13403e-16
1.52772e-16
6.07018e-16
3.23114e-15
2.28977e-17
7.4387e-17
9.17354e-18
6.97497e-17
0.0705045
4.42232e-16
5.38254e-17
3.89423e-09
1.17895e-17
3.31485e-17
1.05485
1.38752e-16
7.65317e-17
0.00139605
2.34267e-10
4.51461e-17
6.28948e-17
3.74311e-18
0.0206951
3.37144e-18
3.78956e-17
3.47982e-08
3.49405e-17
5.80716e-16
2.69028e-17
8.40064e-17
0.101379
1.10767e-16
0.000249325
5.37926e-18
1.07177e-16
5.60877e-17
3.83004e-16
3.45921e-17
4.37864e-08
6.36127e-08
0.000126723
1.09038e-18
1.62699e-16
1.44419e-17
1.11378e-07
2.83988e-17
2.44419e-07
3.12554e-08
6.06771e-16
3.25625e-15
3.57361e-15
1.29138e-08
6.15969e-16
1.36859e-15
1.16807e-09
5.44991e-15
0.030259
1.13714e-16
0.00546229
1.18788e-14
1.74763e-06
1.60488e-16
0.00156125
1.56365e-16
0.00448323
0.0193364
1.70514e-16
0.0026422
8.98346e-06
1.16082e-16
0.00817807
4.1077e-16
3.68566e-16
1.92185e-16
2.06075e-16
5.79753e-15
7.80017e-17
1.88304e-16
1.28646e-17
0.239469
7.01964e-16
1.46876e-17
4.07849e-17
1.21195e-16
1.04079e-16
0.0293192
0.779527
1.93367e-06
1.664e-05
1.01035e-16
0.00156594
0.00104575
1.94588e-16
2.07889e-16
1.03827e-15
6.1008e-16
1.56384e-16
5.38982e-16
5.34762e-15
1.18618e-15
0.000411876
2.6254e-16
5.75016e-18
9.50583e-05
1.53516e-06
2.84617e-15
0.0263776
7.60546e-16
7.38457e-16
1.58576e-17
0.16545
6.29606e-17
1.70248e-17
0.0215768
1.34132e-16
7.22341e-18
1.8423e-16
3.97622e-18
0.0481607
1.89543e-16
2.29767e-16
2.74276e-16
4.86787e-17
0.00645527
0.23066
0.0268273
0.0452013
0.00265885
0.000153722
7.14438e-17
8.85328e-16
0.105747
0.0015692
1.91303e-15
4.7278e-08
3.84031e-18
1.52651e-09
1.80477e-15
0.210782
3.83848e-16
6.1678e-16
0.000165574
6.24629e-11
5.50033e-16
0.0116448
9.26897e-18
1.06095e-17
0.202112
0.0276616
6.062e-18
2.22443e-16
1.16433e-15
7.34229e-17
2.25e-16
1.14851e-14
3.22354e-18
4.14031e-18
0.00344029
4.16721e-18
4.23688e-17
1.71681e-16
1.00587e-05
5.79562e-16
1.05964e-14
3.79819e-16
8.7855e-17
9.8192e-16
1.10581e-15
0.00241921
8.35785e-16
1.16843e-15
0.00419415
2.29214e-17
0.000416247
0.00509986
4.14282e-16
0.00277014
8.28233e-17
1.32634e-15
1.81831e-17
8.51951e-17
1.15008e-16
3.31382e-18
1.3475e-18
2.62002e-18
0.00183622
5.26834e-16
1.05839e-17
3.77726e-18
3.77186e-16
7.70553e-17
4.02671e-16
0.040252
3.55887e-17
6.99596e-18
0.32601
5.77417e-18
4.60743e-17
2.38166e-18
0.000956307
6.98383e-17
3.15668e-06
1.0793e-15
5.0723e-05
0.00854486
1.19283e-16
2.07251e-15
0.0375496
1.56138e-14
2.95101e-16
8.75563e-05
3.71337e-07
0.00970839
1.30342e-06
3.79201e-07
7.82236e-08
4.92876e-18
9.42241e-16
0.000741456
0.000217558
0.0206245
0.0106452
3.54653e-05
1.24739e-18
0.00536754
0.00412306
0.015948
7.83351e-18
0.0108041
0.0157483
0.00239668
0.00111698
0.00041102
0.00452155
0.0180397
0.0356765
0.00748232
0.0109581
0.00716754
7.97864e-16
0.00254832
0.00341431
0.000572305
0.0030978
0.0135761
0.0121442
0.0204254
7.19488e-15
0.00732796