/*--------------------------------*- C++ -*----------------------------------*\
  =========                 |
  \\      /  F ield         | OpenFOAM: The Open Source CFD Toolbox
   \\    /   O peration     | Website:  https://openfoam.org
    \\  /    A nd           | Version:  10
     \\/     M anipulation  |
\*---------------------------------------------------------------------------*/
FoamFile
{
    format      ascii;
    class       volVectorField;
    location    "51";
    object      U;
}
// * * * * * * * * * * * * * * * * * * * * * * * * * * * * * * * * * * * * * //

dimensions      [0 1 -1 0 0 0 0];

internalField   nonuniform List<vector> 
111485
(
(0.200101 -0.200253 0.000395491)
(0.567963 -0.00141499 -0.00374318)
(0.561678 0.00129257 0.00175579)
(0.200481 -0.200534 9.75369e-06)
(0.584002 0.00262287 -0.000173128)
(0.199421 0.19938 3.97904e-05)
(0.573821 0.00144364 0.000316035)
(0.588467 -0.00140379 0.000861318)
(0.574394 -0.00038016 0.000379228)
(0.58614 -0.00599332 -0.00249605)
(0.565139 0.00135765 0.00162147)
(0.591925 -0.00115215 0.00283497)
(0.556674 0.000203257 0.00119973)
(0.561137 -0.00146847 -0.00378755)
(0.570242 0.00217851 0.00118395)
(0.580567 -0.00344746 -0.00217569)
(0.572359 -0.000557859 0.000668615)
(0.205452 -0.0240446 0.0333334)
(0.585414 0.00154318 -0.00134029)
(0.197959 -0.197627 -4.39885e-05)
(0.198483 -0.198474 -0.000280264)
(0.2001 0.200029 9.5289e-06)
(0.578816 0.00143677 -0.000301295)
(0.586892 -0.00383983 -0.00111506)
(0.576124 0.00280349 -0.000988185)
(0.201852 -0.201066 -0.000300523)
(0.594145 -0.00252541 0.00316212)
(0.562559 -0.000954831 1.70478e-05)
(0.586638 0.000785531 -0.00151323)
(0.199436 -0.199495 2.20431e-06)
(0.591246 0.0108882 -0.0030262)
(0.583868 -0.00106666 0.000180782)
(0.198126 -0.198602 0.000328319)
(0.199753 0.200124 -0.000504677)
(0.200776 0.0820436 0.0345291)
(0.200691 0.201823 -0.00281332)
(0.588782 0.0106815 -0.00441573)
(0.569592 0.000828823 0.00506079)
(0.581496 0.174247 0.011306)
(0.584007 0.0030228 0.000410315)
(0.196574 0.198197 -0.00139549)
(0.590895 0.00054541 -0.00360643)
(0.583172 0.00318541 0.00114818)
(0.562588 -0.00436049 -0.000852014)
(0.589498 -0.0107167 -0.00525816)
(0.199677 -0.198553 0.00122411)
(0.590741 -0.0025837 0.00286034)
(0.586069 -0.0035277 -0.00101909)
(0.590822 0.000108127 -0.00275616)
(0.199138 -0.19693 0.00120052)
(0.197756 -0.195891 0.00126406)
(0.228033 0.191103 0.00312359)
(0.197019 -0.196415 0.00067397)
(0.590699 0.00263087 -0.00537174)
(0.196666 -0.195745 0.000169477)
(0.583411 0.00149871 -0.000609843)
(0.583096 -0.00256471 -0.00104439)
(0.200069 0.199793 4.24342e-05)
(0.531239 -0.00120653 -0.00940954)
(0.586218 0.00240621 -0.000326951)
(0.585958 0.00271253 -0.000221624)
(0.199653 -0.199984 0.00024723)
(0.542324 0.000577172 0.00362798)
(0.593637 -0.00112414 0.00452136)
(0.206088 0.186289 0.000180487)
(0.535867 0.00100606 -0.00135209)
(0.410951 -0.0373751 0.014172)
(0.588007 -0.00186882 0.000848486)
(0.528886 0.000332938 0.00180248)
(0.499523 -0.00112065 0.000254837)
(0.56551 0.00452011 -0.0035482)
(0.523839 -0.00103771 0.00190323)
(0.21491 -0.194238 -0.00423294)
(0.536246 0.00105433 0.00423923)
(0.199885 -0.199761 7.584e-05)
(0.58518 -0.00117068 0.000583111)
(0.200003 0.200067 -5.49273e-05)
(0.59103 -0.00122949 0.00315252)
(0.199865 0.19978 -4.89887e-05)
(0.178189 0.17359 -0.00655715)
(0.568491 -0.00881703 0.00592011)
(0.585733 0.00212824 0.000486434)
(0.198946 0.198546 -2.89778e-06)
(0.199828 -0.199791 9.3102e-05)
(0.552888 -0.000140501 0.00103971)
(0.530867 0.00144393 -0.00226872)
(0.4532 0.288805 -0.0804661)
(0.582545 0.00726744 0.000631227)
(0.560417 0.0149597 0.0136494)
(0.567348 0.00087034 0.00165845)
(0.598999 0.0110113 -0.00730125)
(0.584782 -0.000963715 0.00104078)
(0.5459 -0.000987633 0.00196288)
(0.554953 -0.000558654 0.000551856)
(0.591869 0.00171028 -0.0037632)
(0.199881 -0.199861 1.9706e-05)
(0.199193 -0.199057 0.000140611)
(0.582346 0.00677476 0.00202468)
(0.608742 -0.126711 0.00341868)
(0.549747 0.00534124 -0.00164362)
(0.19982 -0.199821 8.49269e-05)
(0.58517 -0.00319671 0.000497696)
(0.200924 0.201225 0.00109942)
(0.580098 2.1001e-05 -0.000309724)
(0.573652 -0.00258452 -0.00326349)
(0.196487 0.174375 -0.00439657)
(0.200198 0.200099 -6.92897e-05)
(0.584129 -0.00131875 -5.82472e-05)
(0.540229 -0.00302481 0.000418974)
(0.518135 -0.0152978 -0.0165547)
(0.553262 -0.000407942 0.00122435)
(0.579961 0.000847073 -0.000241727)
(0.541496 -0.000436514 0.00197803)
(0.532315 -0.00326447 0.000930828)
(0.201788 -0.200749 3.08686e-05)
(0.510893 -0.000471137 0.00148142)
(0.200955 -0.200359 -0.000264074)
(0.20082 0.199604 0.00116241)
(0.570685 0.00216377 0.00164989)
(0.200388 -0.20026 6.05788e-05)
(0.202001 -0.201009 -0.000107178)
(0.264552 0.2072 0.0129315)
(0.197212 0.198144 -0.000383092)
(0.199959 0.199459 -0.000716833)
(0.557947 -0.00134764 0.00239062)
(0.160357 -0.114497 -0.0293207)
(0.252363 0.215878 0.00846132)
(0.516088 -0.000177801 0.00247956)
(0.200136 -0.20004 -8.2119e-05)
(0.585465 0.0419711 -0.0153942)
(0.587211 0.0126828 -0.00678116)
(0.581336 0.00696271 0.00200213)
(0.198972 -0.198497 -0.00113807)
(0.258842 0.224543 0.0235773)
(0.241186 0.214622 0.0107577)
(0.586545 0.00167466 -0.0014429)
(0.200324 0.200264 -8.76093e-05)
(0.58176 0.00135913 3.3262e-05)
(0.578003 0.00266657 0.0017087)
(0.568105 0.00259738 0.00257709)
(0.442462 -1.86267e-06 0.00187724)
(0.582326 0.00324338 0.000718772)
(0.577405 0.0029854 0.00194359)
(0.551139 0.00054602 -0.0022712)
(0.577539 -0.000959794 -0.000467162)
(0.56931 -0.000540208 0.00142778)
(0.200424 0.200444 -3.17737e-05)
(0.200034 -0.200068 1.20032e-05)
(0.199729 0.199949 0.000471404)
(0.583604 0.00268477 0.00049343)
(0.551672 0.000921505 -0.00200073)
(0.198549 -0.198506 0.000116298)
(0.375662 -0.00219966 0.00373479)
(0.569239 0.00289293 0.00180611)
(0.624217 0.0245331 0.0105874)
(0.586558 0.00167365 -0.00125336)
(0.584127 0.00183022 -0.000572704)
(0.540829 0.000129722 -0.00130695)
(0.62602 0.0339867 0.00583513)
(0.198831 -0.200839 0.00104355)
(0.199935 -0.200084 0.000252359)
(0.585821 0.00158167 -0.00128502)
(0.573369 -0.00188808 -0.00189754)
(0.630253 0.0343657 0.00644768)
(0.620983 0.0311792 0.00838477)
(0.541489 0.000391975 0.00279715)
(0.584103 0.0068793 -0.00266209)
(0.196875 0.198965 -0.000242825)
(0.638781 0.0419673 0.00902557)
(0.608846 0.0311823 0.00880832)
(0.200026 0.200158 5.20401e-05)
(0.199609 -0.199665 9.53876e-06)
(0.465948 0.000487871 -0.00383321)
(0.200296 0.200388 2.77138e-05)
(0.581555 -0.00105123 -0.000205053)
(0.559978 0.000335992 -0.000985326)
(0.199896 0.194952 -0.0011865)
(0.215553 -0.198754 0.00200699)
(0.198868 -0.197871 -0.000444233)
(0.197188 0.185833 -0.00194791)
(0.216582 -0.200215 0.00321267)
(0.19982 -0.199942 0.000205114)
(0.58204 0.00213403 0.000678293)
(0.583547 0.00144035 -0.00120219)
(0.581289 0.0016028 -0.000756135)
(0.572318 -0.00222175 0.00230988)
(0.552083 -0.0017271 0.000304394)
(0.554231 0.000873561 0.00180849)
(0.494714 0.00635641 0.000779852)
(0.199299 -0.198529 5.15505e-05)
(0.535628 7.81614e-05 0.00078199)
(0.215037 -0.200315 0.00193771)
(0.201309 -0.201491 -3.88671e-05)
(0.558835 0.000915972 0.00189329)
(0.586384 -0.00674963 -0.00237479)
(0.582365 0.00099145 -0.00292405)
(0.559271 -0.000668279 0.00049457)
(0.569327 0.000219937 0.000290838)
(0.199355 -0.199036 0.000483641)
(0.558792 -0.00264586 0.000698068)
(0.556176 -0.00046949 -0.0031011)
(0.385031 0.119413 0.0153025)
(0.570107 -0.00485566 5.35335e-05)
(0.579149 -0.000858349 0.00047717)
(0.200418 -0.199165 -0.000505377)
(0.556293 0.00126566 0.00201795)
(0.58471 0.00128344 -5.12269e-05)
(0.218534 -0.198469 0.000678114)
(0.561457 0.00114411 0.00259719)
(0.589591 -0.000502515 0.00325683)
(0.55109 0.000629311 -0.0023092)
(0.554494 0.0014177 0.00256179)
(0.216357 -0.20078 0.00253467)
(0.198886 -0.198961 -2.46218e-05)
(0.554261 0.00149967 0.00285387)
(0.360274 0.224018 -0.0210401)
(0.595753 0.00246989 -0.00615861)
(0.199877 0.199934 -0.000138254)
(0.557977 0.00110879 0.00233763)
(0.559296 0.0002825 0.000313612)
(0.592653 -0.00196327 0.00386822)
(0.200119 -0.200078 3.0486e-05)
(0.520604 -0.000415374 0.00134332)
(0.585164 0.00898116 0.00440337)
(0.319119 0.213792 -0.0244843)
(0.200293 0.200356 -0.000146956)
(0.200005 0.200154 5.78076e-05)
(0.597531 -0.00291254 0.00595435)
(0.555403 0.0121908 -0.00333639)
(0.210461 0.17689 -0.00428317)
(0.246111 -0.191886 0.00806839)
(0.560839 0.000507462 0.0010167)
(0.579811 0.000788093 -6.87974e-05)
(0.583177 0.00122626 0.000519733)
(0.206978 0.179398 -0.00551185)
(0.20957 -0.194795 -0.00120094)
(0.562538 0.00718498 -0.00852051)
(0.19987 -0.199806 8.67372e-05)
(0.534239 0.000639734 -0.00288048)
(0.554303 0.000384837 0.00233567)
(0.560661 0.000198487 0.00134585)
(0.561253 0.00108748 0.00143776)
(0.563567 0.000540019 0.00188455)
(0.199301 0.199404 0.000611695)
(0.426371 -0.000854583 -0.0158223)
(0.569476 0.00181534 0.00172736)
(0.198214 0.198815 -3.41004e-05)
(0.200134 0.200215 4.99814e-05)
(0.592941 -0.00694236 -0.000372699)
(0.579615 0.00271227 -0.0006577)
(0.204727 0.173258 -0.00562963)
(0.528339 -0.000483343 0.00116091)
(0.568643 0.00160971 0.00147293)
(0.200285 -0.200183 -5.18387e-05)
(0.253942 0.24034 -0.00126881)
(0.584801 0.00622802 -0.00277167)
(0.201122 -0.198606 0.000172802)
(0.221751 -0.15945 -0.00380838)
(0.300867 -0.107234 -0.0107234)
(0.2005 -0.199849 -0.000125207)
(0.57281 -0.000880532 -0.000966117)
(0.556224 -0.00101704 -0.000842242)
(0.579301 0.000830981 -0.00151079)
(0.199978 -0.200056 -3.99993e-05)
(0.572458 0.00162766 0.00138381)
(0.20046 -0.200512 4.70675e-06)
(0.200322 -0.200468 0.00013804)
(0.199169 -0.198303 0.000395211)
(0.395923 0.00179411 -0.00534799)
(0.589873 -0.00260983 0.00320336)
(0.560034 0.00210257 0.00249796)
(0.570794 0.00191912 0.00135043)
(0.590092 -0.00299695 7.53544e-05)
(0.568538 0.00092841 0.00172869)
(0.582359 0.00221426 0.000788644)
(0.58655 0.0106439 -0.000991212)
(0.575683 0.000487231 -0.000204368)
(0.580115 0.00091896 -0.000307136)
(0.203841 0.20048 -0.000117831)
(0.19901 -0.199082 -0.000271078)
(0.362814 0.0025855 -0.00774824)
(0.582835 -0.0011621 0.00049231)
(0.587071 0.00479885 0.00499207)
(0.555413 -0.000854303 -0.000825981)
(0.200427 -0.200295 4.70079e-05)
(0.578944 0.00190599 0.0011855)
(0.581436 0.00308999 0.00148037)
(0.570582 0.00124833 0.00077213)
(0.501012 -0.000597277 -0.00234416)
(0.527032 -0.00587852 -0.0133709)
(0.579337 0.00175244 0.000510807)
(0.56932 0.00146004 0.00142781)
(0.580702 0.00539945 -0.00333747)
(0.200001 0.200097 1.01489e-05)
(0.533697 0.00296837 -6.26879e-06)
(0.199882 0.200003 -8.25459e-05)
(0.161185 0.119872 -0.026913)
(0.226238 -0.145949 -0.0120455)
(0.602004 -0.00582612 0.0111317)
(0.590238 -0.00298524 0.000103383)
(0.575698 -0.000297864 0.000228537)
(0.200289 -0.199768 -8.0718e-05)
(0.199229 0.20034 0.0017271)
(0.578352 0.00205014 0.00122859)
(0.554253 0.000828258 -0.000703708)
(0.198672 -0.198642 5.38711e-05)
(0.200233 -0.200112 0.000232204)
(0.195409 -0.19655 0.00126714)
(0.549398 0.00065602 -6.45363e-05)
(0.577416 0.000560018 -0.000633823)
(0.550146 -0.000110816 0.00204502)
(0.530512 0.00111361 -0.00211674)
(0.588013 0.00193127 -0.00137251)
(0.229512 0.196888 0.00584182)
(0.199712 0.200194 0.00038286)
(0.19959 -0.199413 -8.37501e-05)
(0.576181 0.00214334 0.0015993)
(0.378771 -0.318615 -0.0165837)
(0.549614 -0.000553267 0.000800361)
(0.598633 -0.00375844 0.0137482)
(0.482919 0.0010156 -0.00974047)
(0.200157 0.200138 -5.99135e-07)
(0.199803 -0.200001 0.00016468)
(0.200386 -0.200496 -8.72333e-05)
(0.253548 0.211929 0.0133894)
(0.583895 0.00189489 -0.000130474)
(0.588407 -0.00295033 0.000547795)
(0.199754 0.200765 5.35267e-05)
(0.580638 0.00150068 -0.000174421)
(0.211857 0.170179 0.0125288)
(0.199683 -0.197291 -0.00030294)
(0.595451 -0.00185114 0.00498203)
(0.578777 0.00198772 0.00106392)
(0.591096 -0.000308821 0.00140092)
(0.580847 0.00155892 -0.000105217)
(0.191862 0.168988 0.0107028)
(0.251029 0.215294 0.0145577)
(0.199381 0.199641 -0.000382736)
(0.579875 0.00194619 0.000764801)
(0.579026 0.00174563 -9.07838e-05)
(0.589876 0.0115262 -0.00434722)
(0.197106 0.196604 0.000383258)
(0.40387 0.353716 -0.0872384)
(0.551159 0.00206096 0.00480405)
(0.589485 -0.00263639 0.0014378)
(0.579606 0.0020393 0.00134715)
(0.549412 0.0558076 -0.0039531)
(0.588046 0.00126513 -0.00174523)
(0.19897 0.198964 0.000117528)
(0.58775 0.00152114 -0.00138947)
(0.565404 0.000713102 0.00120201)
(0.593862 -0.0135252 5.18915e-05)
(0.597344 -0.00356602 0.00753168)
(0.574645 -0.00487352 -0.0041915)
(0.198775 0.199821 -0.0006517)
(0.19923 -0.199677 -0.000439077)
(0.200197 0.198871 0.00077052)
(0.198179 -0.198746 -3.08532e-05)
(0.587777 -0.00247885 0.000282012)
(0.582198 -0.000468677 7.52627e-05)
(0.584008 0.00266834 -0.00245749)
(0.587993 0.00155716 -0.00180604)
(0.198062 0.198239 -0.000851891)
(0.581046 -0.00375515 -0.00170216)
(0.200003 0.200023 6.11114e-05)
(0.199399 -0.199847 6.57278e-06)
(0.587775 0.00188306 -0.00133227)
(0.184391 -0.184466 0.00272934)
(0.32577 -0.0634966 -0.00354715)
(0.197001 -0.196225 -0.000205978)
(0.200341 0.19666 0.00116487)
(0.582547 0.000640451 -0.000556732)
(0.200041 0.199901 2.18402e-05)
(0.575186 0.00161713 -0.000159097)
(0.547124 0.000419161 -0.00225739)
(0.200588 0.200596 -5.46017e-05)
(0.525681 -0.000202852 -0.00250478)
(0.572851 0.000918264 0.00103244)
(0.201653 0.176182 -0.00654161)
(0.569207 0.00251599 0.00301261)
(0.540922 0.00228314 -0.000567821)
(0.573375 0.0027166 0.000974342)
(0.533699 0.00109861 0.00736959)
(0.578474 0.00155554 0.000482895)
(0.55303 0.000263047 -0.000937486)
(0.19793 0.167934 -0.000859114)
(0.198827 -0.198487 0.00123256)
(0.494655 0.000903633 0.0121886)
(0.198285 0.198926 -0.0011758)
(0.572416 0.0029392 0.00295218)
(0.59613 -0.00328918 0.00587812)
(0.200687 0.191463 0.00174373)
(0.199498 0.200387 -3.28809e-05)
(0.586209 -0.000849241 0.000437043)
(0.563557 -0.00255735 -0.00517574)
(0.566371 0.00292112 0.000296451)
(0.586973 0.00197818 -0.000770969)
(0.199968 0.199611 -7.80725e-05)
(0.597633 -0.000962854 0.0100359)
(0.589328 -0.00202624 0.00302555)
(0.200885 0.200571 1.97126e-06)
(0.576261 0.00953006 0.00784395)
(0.549788 -0.00228781 -0.00628463)
(0.199619 -0.199688 -1.41571e-05)
(0.198889 -0.198905 7.57542e-05)
(0.573981 0.00165723 -0.00049885)
(0.578219 0.000388277 -0.000918542)
(0.200122 0.200048 -0.000310846)
(0.199614 -0.199198 -0.000300733)
(0.345014 -0.189158 0.0417872)
(0.200339 -0.200472 8.06397e-05)
(0.578523 -0.00115863 -0.000205481)
(0.198569 0.199285 0.000422187)
(0.200432 -0.20051 1.17964e-05)
(0.591179 -0.000196369 0.0018526)
(0.536845 -0.00647652 -0.0153659)
(0.584112 -0.00373409 0.00085113)
(0.565441 -0.000206451 0.00100622)
(0.200765 0.200632 2.81594e-05)
(0.26099 0.200058 0.0100517)
(0.565276 0.00786332 0.0118904)
(0.244168 0.214375 0.0122396)
(0.563755 0.00252601 0.00478572)
(0.560237 -0.00491616 0.000158688)
(0.58622 -0.00219322 -0.00174996)
(0.404192 0.00706814 0.0155084)
(0.239703 0.205365 0.0107381)
(0.584101 0.000857016 -0.00561376)
(0.592504 0.0189933 -0.00579896)
(0.199875 -0.200205 0.000262536)
(0.59171 0.00144408 -0.00625807)
(0.59217 -0.00245527 0.00228242)
(0.200044 -0.199982 0.000182668)
(0.574771 0.0326769 -0.0193046)
(0.4984 0.000171107 -0.00644237)
(0.253591 0.198712 0.00802541)
(0.589819 -0.00114994 0.00238332)
(0.582341 0.00078652 -0.000777987)
(0.57846 0.00155797 -0.000407867)
(0.200001 0.199891 -5.59418e-05)
(0.575237 -0.000959979 0.00410786)
(0.592088 5.89859e-05 0.00194231)
(0.573087 0.00567309 -0.000583773)
(0.359061 -0.00580454 0.00665557)
(0.244403 0.229862 -0.00505164)
(0.338715 -0.0108854 0.0126623)
(0.199753 -0.200051 0.000188615)
(0.531205 -0.0187187 -0.017867)
(0.575365 -0.001069 -0.0037043)
(0.200075 0.19998 0.00028121)
(0.548729 0.00129016 -0.003896)
(0.450128 -0.00104405 0.0088577)
(0.261077 0.229598 -0.00242088)
(0.200057 -0.199932 -3.53094e-05)
(0.233035 -0.199342 0.00631781)
(0.200323 -0.200259 -2.96158e-05)
(0.572698 0.00344837 -0.000422655)
(0.577287 0.00329145 -0.00101511)
(0.573256 -0.00167722 -0.00163463)
(0.538217 0.00114908 -0.00299184)
(0.585869 -0.011487 -0.00232921)
(0.19981 0.198906 -0.000386979)
(0.568175 -0.000589432 -0.0012079)
(0.200774 -0.199049 -5.4623e-05)
(0.563567 0.00204478 0.00140334)
(0.200792 0.200854 -1.88857e-05)
(0.200165 -0.199999 -2.88028e-05)
(0.1974 -0.197984 -0.000313835)
(0.553621 -0.00392401 0.000449882)
(0.199102 -0.199303 -0.000209848)
(0.199935 -0.200004 4.5342e-05)
(0.197024 0.128795 -0.00859899)
(0.200334 -0.200479 9.36055e-05)
(0.197567 0.200157 0.00186556)
(0.567126 -0.00227315 -0.00124257)
(0.200049 0.199861 -3.13197e-06)
(0.23784 0.17488 0.00040638)
(0.200145 0.200264 0.00028516)
(0.199051 -0.19838 1.21611e-05)
(0.199913 0.199072 -0.000340023)
(0.198845 -0.197787 -0.00105018)
(0.198432 0.198609 1.27882e-05)
(0.515829 -4.74196e-05 -0.00401711)
(0.200191 0.19904 0.000861804)
(0.530301 0.00806333 0.0113203)
(0.580421 0.00138987 -0.000818775)
(0.596579 -0.0230214 -0.00335057)
(0.200802 0.199882 -3.31247e-05)
(0.504219 0.00155704 0.00925313)
(0.200261 0.199503 0.000110324)
(0.200404 -0.200501 -8.58389e-05)
(0.569559 -0.00481442 -0.00573065)
(0.570795 -0.00407811 -0.00529655)
(0.574378 -0.00169145 -0.000816478)
(0.600023 0.00112536 -0.0111597)
(0.230747 0.19358 -0.00637622)
(0.587454 0.000685905 -0.00352314)
(0.58698 0.000728384 -0.00319221)
(0.57965 0.00115939 4.2318e-05)
(0.570026 0.000685141 0.000246414)
(0.578786 -0.00588716 -0.00457742)
(0.198628 -0.198703 -0.000127733)
(0.580101 0.00102505 2.05972e-05)
(0.263389 0.227933 -0.0011411)
(0.578574 0.00141082 -0.000739773)
(0.199683 0.199433 -7.10115e-05)
(0.58936 0.00179073 -0.00329872)
(0.260516 0.215784 0.00269607)
(0.581087 0.000361484 -0.000751252)
(0.583253 -0.00300495 0.00198648)
(0.230074 -0.119336 -0.000838708)
(0.199676 0.199854 0.00230176)
(0.570649 0.00107694 0.001125)
(0.199721 -0.199708 4.57143e-05)
(0.591691 0.00221941 -0.00408482)
(0.587492 0.0023891 -0.00264135)
(0.199863 0.199229 -0.00165247)
(0.199296 0.199312 0.000463755)
(0.19583 0.174128 -0.00407105)
(0.200066 0.200204 7.60778e-05)
(0.409307 -0.022687 0.00939852)
(0.591968 0.00201695 -0.00390806)
(0.203275 0.198352 -0.000152347)
(0.199551 0.199992 0.000363336)
(0.506087 0.000718661 -0.00110097)
(0.200344 0.200363 2.73268e-05)
(0.582975 0.0016775 -0.00239458)
(0.200204 0.200126 1.49494e-05)
(0.576902 -0.00348565 -0.00162688)
(0.200245 -0.200288 -5.51852e-05)
(0.540602 -0.00248166 -0.0078728)
(0.443983 -0.00196013 0.000515619)
(0.543462 0.00177966 -0.00103788)
(0.581376 0.00066415 -0.000794399)
(0.200417 0.199019 -0.000640777)
(0.524793 0.000694446 -7.91425e-06)
(0.200373 0.199647 0.000199802)
(0.200174 0.200178 -0.000540508)
(0.574341 -0.00128972 -0.000690625)
(0.19981 0.19952 -7.89218e-05)
(0.488886 -2.22332e-05 -0.00484903)
(0.192365 0.176351 -0.00619329)
(0.583954 0.001738 -0.00201858)
(0.198884 -0.199026 6.45017e-06)
(0.588671 0.000733143 -0.00129516)
(0.200562 -0.20036 2.05739e-05)
(0.239367 0.210877 0.00666443)
(0.59526 0.0220587 -0.00211421)
(0.570217 -0.00486327 -0.00588979)
(0.580504 0.00237467 -1.40845e-05)
(0.583694 -0.00620024 -0.00403961)
(0.577722 0.00128595 -0.000578581)
(0.589873 -0.00347202 -0.000305187)
(0.197822 0.199279 -0.000902105)
(0.580342 0.00333857 0.00173961)
(0.573034 -0.00549839 -0.00556652)
(0.199987 0.200075 -9.79063e-05)
(0.488621 -0.00628592 -0.0198757)
(0.593461 -0.0052784 -0.0033718)
(0.569893 0.00259608 0.00223508)
(0.197324 0.194595 -0.00115503)
(0.246628 0.0443214 -0.0398513)
(0.557182 0.0014118 0.00183266)
(0.453127 -0.00202639 0.00489336)
(0.467651 0.108919 -0.0044486)
(0.255958 -0.133843 -0.00991124)
(0.588023 -0.0057532 -0.00103484)
(0.553277 0.00225914 0.00435614)
(0.569627 -0.00528992 -0.00574925)
(0.581798 -0.00311152 -0.00107667)
(0.571635 0.00321658 0.00140813)
(0.504178 0.0629564 -0.00175727)
(0.248756 0.21032 0.00182508)
(0.513461 -0.022406 0.00577087)
(0.499509 -0.0463748 0.0103533)
(0.199753 -0.199808 0.000127943)
(0.510924 0.00359535 -0.00148751)
(0.201318 0.19744 -0.00105071)
(0.235322 0.213357 0.00203009)
(0.578448 0.000978185 -0.000203742)
(0.508904 0.0832034 -0.00156459)
(0.613738 -0.0571934 -0.00807088)
(0.556416 -0.103833 8.42511e-05)
(0.235176 0.222433 -0.0151866)
(0.586944 -0.00357775 -0.000982346)
(0.579328 0.00321942 0.00262093)
(0.199576 0.199029 -2.87577e-05)
(0.259508 0.142233 -0.00544216)
(0.578847 0.00454545 0.0028875)
(0.200014 -0.19925 0.000169723)
(0.2 0.199891 -4.76579e-05)
(0.199239 0.199151 1.7029e-05)
(0.200462 0.199369 0.000221678)
(0.586333 -0.00571229 -0.00244818)
(0.200172 0.200144 0.000117521)
(0.200312 -0.200516 0.00101267)
(0.576115 -0.00358521 -0.00262117)
(0.531053 0.000259371 -0.00137202)
(0.290503 -0.255484 -0.0139532)
(0.578963 0.00441493 0.00273196)
(0.234256 0.18825 0.00447682)
(0.581383 -0.00200913 -0.00110292)
(0.195643 -0.195349 -0.000637153)
(0.1996 0.20002 -7.12004e-05)
(0.585374 -0.00366192 -0.000843254)
(0.199872 0.198703 -0.00079751)
(0.200293 0.199766 8.43017e-05)
(0.22983 0.219371 0.00665019)
(0.55025 -0.000346111 -0.000444661)
(0.332769 0.277702 -0.0370401)
(0.576812 -0.00230211 -0.000987551)
(0.578146 0.000918774 -0.00021842)
(0.197851 -0.19661 -0.00155188)
(0.599023 -0.00104649 0.0191349)
(0.547273 -0.00316106 -0.00809742)
(0.574988 -4.84002e-05 -0.000482193)
(0.58228 0.0111603 0.00126044)
(0.583473 0.00426571 -0.0120729)
(0.501779 0.000247021 -0.00455067)
(0.199818 0.199504 8.66742e-05)
(0.586576 0.000595734 0.00175942)
(0.582251 0.00240041 -0.000393936)
(0.197849 -0.200443 0.000289646)
(0.540556 -0.000402551 -0.000306929)
(0.586203 0.0036485 -0.000898637)
(0.587536 0.00276174 -0.000997263)
(0.532038 -0.00237552 -0.00520149)
(0.587232 0.00264462 -0.00110499)
(0.587604 0.00324747 -0.000289901)
(0.199878 -0.197237 0.0013076)
(0.588886 -0.00104449 0.00260571)
(0.483831 -0.00363431 -0.00115842)
(0.24169 0.209182 0.0132396)
(0.587322 0.00213368 -0.00154506)
(0.559957 0.000902855 -0.00129407)
(0.323288 0.262331 -0.0402971)
(0.57861 0.000923872 -0.000228306)
(0.587521 0.00188342 -0.00183311)
(0.560245 0.00054145 -0.00215427)
(0.583329 0.00241254 -0.000227612)
(0.575277 0.00638449 0.00259291)
(0.579351 0.000893404 -0.000128634)
(0.195473 0.190832 0.000281036)
(0.58296 0.00274493 -0.000357841)
(0.546078 -0.00345685 -0.00746326)
(0.223434 -0.137303 0.00509835)
(0.580154 0.00536893 0.0035591)
(0.572315 0.00512982 0.00527373)
(0.581037 0.00149359 -4.948e-05)
(0.19936 0.198897 0.000182956)
(0.562038 0.00345784 -0.00543462)
(0.199859 -0.198719 0.000622565)
(0.200035 0.200031 -0.000197217)
(0.198786 0.197431 -0.000117069)
(0.200597 0.199344 4.24906e-05)
(0.487709 0.000261902 -0.00196587)
(0.238921 0.205861 0.00875402)
(0.448857 -0.0287961 0.0301357)
(0.198506 -0.198729 -5.56749e-05)
(0.199423 0.202054 -0.000407968)
(0.579803 0.00605314 0.00318268)
(0.58467 0.00124726 -0.00253847)
(0.199988 -0.199975 1.70019e-05)
(0.584206 -0.00377276 -0.000167389)
(0.200015 -0.199816 0.000662706)
(0.200254 -0.200102 -4.25373e-05)
(0.196507 -0.196624 0.000584255)
(0.592 -0.00426996 -0.000459031)
(0.495659 0.00318052 -0.00120709)
(0.237918 0.212548 0.00355962)
(0.199643 -0.197802 0.0008173)
(0.199759 0.20045 -0.000298314)
(0.19956 0.199777 2.7155e-05)
(0.596405 0.00104552 -0.00684478)
(0.579891 0.00102865 -0.000243899)
(0.238016 0.223656 0.0104653)
(0.590553 0.00178638 -0.00335101)
(0.549702 -0.00948899 -0.02273)
(0.199669 0.199819 -7.20398e-05)
(0.589092 0.00124761 -0.00299485)
(0.538643 0.000249553 0.00290114)
(0.57182 0.0029991 -0.00355965)
(0.200627 0.200555 2.04155e-06)
(0.199339 0.199269 9.69943e-05)
(0.569162 0.00252549 0.00327035)
(0.581781 0.00120648 -0.00029513)
(0.237607 0.215131 0.00347191)
(0.199141 0.199062 6.26519e-05)
(0.20199 0.195452 -0.000577178)
(0.578662 -0.00130425 0.000535786)
(0.199896 -0.199858 -0.000281542)
(0.199022 -0.198294 0.000171018)
(0.198669 0.19863 -4.1817e-05)
(0.588666 0.00171281 -0.00270974)
(0.513922 -0.00266879 0.000590113)
(0.200528 0.200545 2.3063e-05)
(0.224178 0.0368505 0.0424002)
(0.249139 -0.0328969 -0.00948421)
(0.56781 0.00311954 7.42539e-05)
(0.19971 0.199998 -7.95771e-05)
(0.200071 0.199726 -0.000169624)
(0.589714 -0.00685436 -0.000946269)
(0.56526 0.0103134 0.00948679)
(0.240869 0.214869 0.0110107)
(0.352735 0.111062 0.0070357)
(0.555941 0.010395 0.0170094)
(0.533417 0.00170823 -0.0035795)
(0.568671 0.000352343 -0.000375998)
(0.206266 0.193454 -0.000424932)
(0.563901 0.00131396 -0.000409673)
(0.585698 -0.00387783 0.00416181)
(0.200372 0.199754 -0.000232754)
(0.198267 -0.194917 0.000301872)
(0.198557 0.198664 3.54946e-05)
(0.199261 0.199204 -4.83819e-05)
(0.200134 0.200525 -0.000279148)
(0.200578 0.200645 -2.56647e-05)
(0.590073 0.00195946 -0.0029951)
(0.200107 -0.200013 0.000106309)
(0.199003 0.199022 2.76398e-05)
(0.198928 0.196211 -0.000217586)
(0.590632 0.00189042 -0.00335226)
(0.581611 0.0012235 -0.000272455)
(0.200828 -0.198157 -7.30883e-05)
(0.197315 -0.195228 0.000440669)
(0.595095 -0.0028283 0.00530164)
(0.565353 5.9519e-05 0.000805115)
(0.564413 0.000250628 0.000879528)
(0.199895 -0.199439 -9.36278e-05)
(0.198987 0.198957 0.000115972)
(0.564898 0.000162859 0.00080262)
(0.200306 -0.200129 2.03469e-05)
(0.559253 0.00145571 0.000213594)
(0.570051 0.00123474 0.00188694)
(0.571794 0.00164869 0.00107626)
(0.199971 -0.198505 0.000479301)
(0.200284 -0.200383 3.65237e-05)
(0.200204 -0.200378 -3.82146e-05)
(0.20024 0.200278 6.3047e-05)
(0.577844 -0.00288878 -0.00150148)
(0.199929 0.200136 6.88577e-05)
(0.198423 0.198646 6.38136e-05)
(0.576695 0.00198467 -0.0029538)
(0.200291 -0.200345 0.000106995)
(0.567688 0.000362959 0.000732986)
(0.513511 -0.0056219 0.0012031)
(0.200975 0.193865 0.00109787)
(0.580634 0.00138338 -0.000222765)
(0.269937 0.0382795 -0.00538233)
(0.57338 0.000427501 0.000454071)
(0.591256 -0.0013982 0.00132971)
(0.52296 0.00204392 0.00104749)
(0.592336 -4.03692e-05 0.00426504)
(0.429921 0.0113646 -0.0160587)
(0.239142 0.189996 0.0040244)
(0.572053 5.80923e-06 0.000442892)
(0.594966 0.00422402 -2.61576e-05)
(0.580544 -0.00132158 -0.00048455)
(0.204914 0.177539 -0.00621329)
(0.26817 0.0179207 -0.00803963)
(0.309083 -0.0303824 0.0116867)
(0.572861 0.000552863 0.000233946)
(0.198831 0.199207 0.000245611)
(0.560543 -0.00104709 -0.0038409)
(0.572508 -0.000178702 -0.00103012)
(0.555601 -0.00473465 -0.00884591)
(0.214674 -0.156874 -0.0117577)
(0.20034 -0.200469 8.85284e-05)
(0.2 -0.200002 -4.92112e-06)
(0.582986 -0.00168852 7.44881e-05)
(0.234434 0.193624 -0.00251074)
(0.553538 0.00201074 0.000894412)
(0.217569 0.198069 0.00274245)
(0.549955 -0.00104999 -0.00391268)
(0.567345 -0.00133169 0.000529225)
(0.560494 -0.000828984 0.00150523)
(0.581664 0.00133008 -0.000397597)
(0.199021 0.199009 -5.07951e-05)
(0.198031 0.197418 -0.000450041)
(0.213149 -0.194704 0.00091769)
(0.580296 0.00151511 0.000121418)
(0.200389 0.199793 -1.8104e-05)
(0.231938 0.198631 -0.00904875)
(0.593795 0.0122246 -0.0102347)
(0.200118 0.199809 -0.000160044)
(0.198785 0.199721 0.000701732)
(0.198462 -0.197816 -0.000325346)
(0.200418 0.200475 4.97636e-05)
(0.554235 -0.000160996 0.00156891)
(0.203462 0.193113 0.00032573)
(0.200133 0.199973 8.48368e-05)
(0.464082 0.0618067 -0.0456478)
(0.235517 0.18959 -0.0022992)
(0.197836 0.19823 -0.00186981)
(0.284083 -0.171671 0.0114117)
(0.199861 0.199632 -0.000258789)
(0.455046 0.00225488 -0.00301217)
(0.565762 -0.00103237 0.001038)
(0.19852 -0.198563 1.834e-06)
(0.555875 0.000719296 -0.00174556)
(0.553527 0.0889291 -0.00798912)
(0.551543 -0.00529059 -0.00886305)
(0.606019 0.0231499 0.000254254)
(0.546972 0.000417354 -0.000778917)
(0.19991 0.198204 0.000832609)
(0.571853 -0.00533043 -0.00599872)
(0.592485 -0.00141148 0.00112872)
(0.551283 -0.00536206 -0.00885062)
(0.199999 -0.200214 1.11607e-05)
(0.598283 0.152869 0.0385714)
(0.552615 0.00104915 0.00108091)
(0.26757 0.213179 -0.0130957)
(0.548923 -2.73172e-06 0.000641959)
(0.598654 0.00710181 -0.00549734)
(0.572151 0.0115991 0.000435595)
(0.567285 -0.00157769 -0.00197452)
(0.567969 0.00179048 0.000163463)
(0.603294 0.0088086 -0.00298484)
(0.582231 -0.000835905 -0.00076324)
(0.576422 -0.000570081 0.00048223)
(0.198235 0.198999 0.00071016)
(0.198969 0.197886 0.000564776)
(0.556818 0.00150032 0.000938043)
(0.547221 0.000861409 0.000743767)
(0.199533 0.20008 -1.66879e-06)
(0.565097 0.000501614 0.000106907)
(0.590942 -0.00184265 0.000573301)
(0.577313 -0.00114025 0.000418137)
(0.199417 0.197292 -8.70891e-05)
(0.569918 0.0114997 0.00236435)
(0.199226 0.199082 -1.07837e-05)
(0.576803 -0.00059815 0.000434254)
(0.577989 -0.000607807 0.00029831)
(0.199898 0.199798 -2.98549e-05)
(0.552267 0.00307069 -0.00175103)
(0.576398 -0.000347192 -4.74003e-05)
(0.567859 0.0104855 0.00055595)
(0.557708 0.000207789 0.00204096)
(0.204428 0.200447 -0.000328852)
(0.584656 -0.00174634 0.00174132)
(0.569695 0.0130394 -6.09572e-05)
(0.602348 -0.0159889 0.0034487)
(0.508082 0.00692088 0.0011099)
(0.452997 0.00143007 -0.00584177)
(0.199833 0.197661 -0.000274592)
(0.199465 0.1993 6.5604e-05)
(0.559862 0.0079065 0.0010484)
(0.200429 0.200427 -9.03478e-05)
(0.487498 -0.00135465 -0.00144391)
(0.562596 -0.0028479 -0.00408623)
(0.339812 0.0440888 -0.0134266)
(0.625525 -0.0423395 0.0167473)
(0.552589 -0.0250718 0.00778197)
(0.614317 -0.023535 0.00581806)
(0.200348 0.200366 -5.86481e-05)
(0.273506 0.232355 0.00152486)
(0.582685 0.00153286 -0.000346858)
(0.199286 -0.200195 -0.000805051)
(0.114275 -0.0814779 0.031325)
(0.574701 -0.0107355 -0.00809423)
(0.198568 0.198157 -0.000468085)
(0.200459 0.200211 2.36348e-05)
(0.517205 -0.00989275 -0.000153142)
(0.418428 -0.0298626 0.00104984)
(0.200472 0.200502 -3.12752e-05)
(0.517964 -0.0105585 0.00201139)
(0.198521 0.198276 8.78319e-06)
(0.200031 0.200393 -0.000333511)
(0.200059 -0.200037 -5.10469e-05)
(0.200137 -0.199662 0.000477639)
(0.195959 -0.194322 0.000600863)
(0.199488 -0.199077 -4.29605e-06)
(0.520492 0.00478047 -0.00171696)
(0.197575 0.196053 -0.000148026)
(0.199999 0.200131 8.11957e-05)
(0.198319 0.1995 0.000473172)
(0.484833 -0.108432 -0.0279045)
(0.54857 -0.00492624 -0.0107414)
(0.530496 -2.31139e-05 -0.00490501)
(0.5827 0.00147196 -0.000396482)
(0.198599 0.197391 5.5584e-05)
(0.201083 0.200335 2.06592e-05)
(0.558204 -0.00955499 -0.0116345)