/*--------------------------------*- C++ -*----------------------------------*\
  =========                 |
  \\      /  F ield         | OpenFOAM: The Open Source CFD Toolbox
   \\    /   O peration     | Website:  https://openfoam.org
    \\  /    A nd           | Version:  10
     \\/     M anipulation  |
\*---------------------------------------------------------------------------*/
FoamFile
{
    format      ascii;
    class       surfaceScalarField;
    location    "10";
    object      phi;
}
// * * * * * * * * * * * * * * * * * * * * * * * * * * * * * * * * * * * * * //

dimensions      [0 3 -1 0 0 0 0];

internalField   nonuniform List<scalar> 
214403
(
-0.000467268
0.000358323
1.97502e-05
8.91956e-05
-0.00022121
-0.000745786
6.08806e-05
0.000906115
-0.000689872
5.9683e-06
-9.31449e-06
0.000693218
0.000615826
-0.000414065
-0.00103222
0.000830458
0.000823013
-0.00103966
0.000247753
-3.11052e-05
-0.000355411
0.000370287
-3.6865e-06
-1.1189e-05
-5.71005e-05
-0.00010879
-0.000615242
0.000781133
-0.00110061
0.00062779
-0.000164265
0.000637084
-0.00157122
0.00110369
0.00112517
-0.000657641
0.000954692
0.000113647
-0.00106953
1.18853e-06
0.000338736
-0.000670833
0.000138047
0.00019405
-0.000695493
0.000215836
0.000364051
0.000115606
3.44367e-05
-0.000780965
0.000941866
-0.000195337
-0.000668354
0.000670895
-2.54085e-06
0.000126888
0.000795804
-0.00101967
9.69829e-05
-0.000787657
0.00065689
0.000199444
-6.86774e-05
-0.000805044
0.000783526
2.15187e-05
0.000269503
-5.32752e-06
-5.65931e-05
-0.000207582
0.00103419
-0.00061923
-0.0013789
0.000963945
-5.23739e-06
-0.000214527
6.31402e-06
0.000213451
0.000442753
-0.000432383
-1.03699e-05
-0.000816599
-0.000282562
0.00028096
0.000818202
-0.000152313
0.000905613
-0.000730278
-2.30217e-05
0.000441567
4.54525e-05
0.000154116
-0.000641136
-0.000688086
-0.000338554
0.000889406
0.000137234
0.00063867
-0.00080863
4.99753e-06
0.000164962
0.000216098
-0.000188295
0.000713901
-0.000741704
0.000521245
0.000680212
-0.000820552
-0.000380905
0.000747806
-0.000467696
-2.13902e-05
-0.000258721
-0.000406656
0.000414494
-7.83803e-06
0.000164301
-0.000342957
0.000916289
-0.000737633
0.000923206
4.45274e-05
-0.00015947
-0.000808264
-0.00038927
-0.000399377
0.000408981
0.000379665
-7.92968e-05
-0.000447081
0.0003961
0.000130278
0.000289959
-0.000193145
-0.000623902
0.000527088
-0.000113933
0.000564226
-0.000203899
-0.000246393
0.00108552
-2.75565e-05
-0.00105796
-0.00045724
0.000899097
-0.000441857
7.80971e-05
-0.000987857
0.000576789
0.000332971
0.000161135
-6.45025e-05
0.000396777
-0.00049341
0.00037578
-3.92247e-06
-0.000371858
0.000693131
-1.49623e-05
0.0001223
-0.000800468
-0.000855551
0.000107866
0.00090882
5.98291e-05
5.81842e-05
0.000583964
-0.000701977
-0.000281278
-0.0018222
0.00176731
0.000336169
0.00039366
7.1395e-05
8.89807e-05
-0.000554035
0.000285455
0.000216764
-0.000699834
0.000197616
0.00087781
0.000524012
-0.000960254
8.18316e-05
0.000766618
-0.000155319
0.000126274
-0.000473324
-0.000278364
0.000625415
0.000214876
0.000330518
9.85704e-05
-0.000643964
0.00012321
-9.25384e-05
-0.000283357
0.000252685
0.000475965
-0.000861432
0.000600343
0.000804907
-0.000757773
-0.000258793
0.000211659
0.000736979
-0.00013474
-0.00056406
0.000764926
-3.05951e-05
-0.000170271
0.000582948
-0.000746386
8.47277e-06
0.000154965
-0.000548698
3.6205e-05
0.000876721
-0.000364227
-0.00102547
-0.000967429
0.000809493
0.00118341
-0.000541704
0.000545426
0.000106232
-0.000109955
8.56673e-05
-0.000691874
-0.000594881
-1.23665e-05
0.000309306
0.000297941
-0.000947327
0.000405363
0.000607696
-6.57318e-05
0.00106626
-0.000859785
5.52075e-05
-0.000261684
4.83236e-05
1.79021e-05
-0.00068453
0.000618304
4.05129e-05
-0.000205671
0.0010094
-0.000844242
-0.00238882
0.000257934
0.000269697
0.00186119
-0.00020735
0.000620072
-0.000197365
-0.000215357
0.000336281
-0.00017421
-0.000715966
0.000553895
8.09125e-05
0.000529234
-0.000668606
5.84593e-05
-1.04372e-05
0.000573614
0.000200415
-0.000763591
-0.000119817
-1.99394e-05
-0.000256928
0.000396685
-0.000624249
0.000680626
-2.50411e-05
-3.13354e-05
2.65634e-05
-0.000637609
-0.000441288
0.000390665
0.000118765
-6.81416e-05
-0.00110701
-6.99654e-05
0.00053841
0.000638564
-0.000338833
-0.000144351
0.000288232
0.000194951
0.00050719
-0.0017067
0.000236622
0.000962892
-0.000260142
0.000523647
-0.000285964
2.24586e-05
0.000370154
-0.000287649
3.59868e-05
-0.000118492
8.74047e-06
-0.000717727
0.000708987
3.44708e-06
0.000581188
-0.000584635
0.000501788
-9.81876e-05
6.64768e-05
-0.000470077
-0.000315045
0.000449598
0.000148897
-0.00028345
-0.000218562
0.000943429
-0.000227954
-0.000496913
0.000446655
-0.00076966
-2.46473e-05
0.000347653
0.000501504
0.000514335
-0.00101584
0.00073671
-0.000827902
0.00021206
-0.000120868
7.23182e-05
-0.000132213
0.000960356
-0.000900462
3.01995e-05
-0.000153933
0.000686369
-0.000562636
0.000165852
0.00144567
0.000414241
-0.00202576
-0.00125075
0.00109981
0.000713578
-0.000562636
5.91832e-05
0.000463793
-0.000620296
9.732e-05
0.000599058
0.000663807
-0.000216105
-0.00104676
0.0010994
-0.00066814
-2.03821e-05
-0.000410875
4.91489e-05
-0.000144137
-0.000452542
0.00054753
-0.000457132
2.56349e-06
0.000454568
0.000667429
2.32271e-05
4.60537e-05
0.000833432
6.81715e-05
-0.00127354
0.000371933
-0.000669696
0.000146875
0.000118702
0.000404119
-0.000432066
0.000107168
5.31464e-05
0.000271752
0.000101025
7.40654e-05
-0.000874026
0.000698935
-0.000175977
-0.00102454
0.000653275
0.000547237
0.000419146
-0.000497426
-0.000323132
0.000401413
0.000663782
-4.29781e-06
-0.000663344
3.85965e-06
0.000507755
-0.000718063
-0.000247484
0.000457791
0.00131635
-0.000398264
-0.000205073
-0.000713012
0.000736801
-1.90383e-06
-0.000674971
-5.99267e-05
-0.000398911
0.000467693
0.000966858
-0.00103564
0.000825561
-0.00028906
-0.000794065
0.000257564
0.000156268
-0.000228695
0.000993551
-0.000921125
-0.00105602
0.000960375
0.000913664
-0.000818022
5.04402e-05
-0.000864626
0.00033401
0.000480177
0.00107198
-5.6684e-05
-2.51437e-05
-0.000990155
0.000766847
-0.00014958
0.000147724
-0.000764992
-0.000948999
-0.000867577
0.00102602
0.000790554
-0.000168798
0.000484072
0.000131252
-0.000446526
-0.000362783
1.95507e-05
0.000701529
-0.000358297
-7.95901e-05
0.000921438
-0.000852662
1.08147e-05
-0.000824241
0.000765469
0.000148976
-9.02043e-05
-2.76329e-05
-0.000480784
0.00114709
0.000146223
-0.000484524
-0.000356286
0.000694586
-0.00038277
5.02709e-06
0.000377743
0.000117421
0.000533512
-0.000492976
-0.000157956
0.000873025
-0.000503473
-0.000135047
-0.000234505
8.2681e-06
-0.000265814
0.000257546
-0.000482687
-0.000130256
0.000182992
0.000429951
5.51228e-05
0.000305503
-0.000681024
0.000320398
0.00109542
-9.89632e-05
0.000428085
-0.00142454
7.39791e-05
-9.94678e-05
-0.0012867
0.00131219
8.30541e-05
-0.000371283
-0.000488153
0.000776381
3.13408e-05
0.000673932
-3.78436e-05
2.71882e-06
-0.000406061
0.000403342
0.000805591
-0.000299592
-0.000359776
-0.000488102
0.00040617
-0.000400755
0.000879161
-0.000733612
-8.96175e-05
-5.59316e-05
8.88443e-05
-0.000420049
0.000183675
0.00014753
-0.000715026
-0.000218837
0.000147076
0.000786788
0.000601324
-0.00096779
0.000642027
-0.000275562
-2.206e-05
0.000896032
-0.000896449
2.24771e-05
-2.49658e-06
0.000827407
-0.000819433
-5.47686e-06
-0.00110654
0.00088644
-0.000712215
0.000932319
0.000927762
-0.000902104
-2.56581e-05
-0.000883655
0.00117862
-0.00021263
-8.23311e-05
-0.000787084
0.000192158
-6.31292e-05
0.000658056
-0.00127977
9.65035e-05
0.000823694
0.000359572
0.000225037
-0.000307302
0.000171109
-0.000324626
0.000369461
0.000593901
-0.000638735
-0.000336578
-0.000151243
0.000192834
0.000294987
-0.000454104
0.000297934
-0.000571722
0.000727892
0.000137225
1.29056e-05
-0.00103379
-0.000469081
0.00046801
1.07096e-06
0.000495632
-0.000476333
-1.92989e-05
-0.000755233
-4.97464e-05
-0.00019949
0.000186658
-0.00100082
0.00116396
-0.000349798
0.000439033
0.000747905
-0.000954651
-0.000232286
0.000833319
-0.000907625
2.64926e-05
4.78137e-05
0.000475667
0.000117222
-0.00048472
-0.000108168
-0.000719206
-4.23919e-05
0.000948257
0.000426545
-3.088e-05
-0.000520084
0.000124419
0.000480612
-0.000411665
0.000474266
-0.000543213
-0.000792463
0.000151352
0.00108014
-0.000273604
-0.000380938
0.00126314
-0.000608598
-0.000389193
-0.000434898
0.000104885
0.000117657
0.000312466
-0.000819315
-0.000579069
-4.64486e-05
0.000931271
-0.000305753
8.60043e-05
0.000140981
0.000496939
-0.000723924
-0.000259106
0.000634647
-0.000375541
0.000207805
-0.00100611
0.000363408
0.000600646
0.00041857
-0.000901559
-0.000831867
9.96485e-06
0.00103663
-0.000214727
0.000147183
0.000126452
0.000394603
-0.000668237
0.000592341
-0.000593766
1.42518e-06
0.000210632
-7.95507e-05
0.000707097
-0.000838178
0.000737367
-0.000232383
0.000353697
-0.00085868
0.00141489
-0.000456237
0.00105425
-0.0020129
0.000222017
0.000413894
-0.000171663
-0.000464248
-0.000645318
0.000265775
0.000337378
4.21646e-05
0.000460784
-0.000347282
-9.50113e-06
-0.000104001
-0.000286885
-0.000362336
0.00105644
-0.000407218
-0.000516869
0.000672159
0.000266822
-0.000422112
0.000780026
-4.26564e-05
-0.000256757
-0.00114929
0.000759062
-6.3878e-05
-0.0011016
0.00101918
0.000472258
-0.000389838
0.000702969
-0.000792923
-0.000113417
0.000203371
0.000393534
-0.000716281
-0.00037177
-0.000416464
-0.000381779
0.00021631
0.000581933
-0.000605281
0.00019017
0.000600824
-0.000185713
0.000697902
-0.000663624
-0.00045776
0.000423481
4.26519e-06
-6.11588e-06
-0.000663091
0.000664942
1.91381e-05
-0.000602369
-2.13422e-05
0.000604573
-0.000167983
-0.000994204
0.000156647
-0.000574812
0.000516545
-9.838e-05
-0.000385692
-0.000162314
-5.72751e-05
-1.02565e-05
0.000954191
1.07574e-05
-0.00228745
0.0016106
0.00116648
-0.000489636
-0.000683565
4.59237e-05
2.37782e-05
0.000613864
-0.000135757
0.0021367
-0.00251778
0.000516839
0.000109588
0.000168949
-0.000379127
0.00010059
-0.00146736
0.000790242
0.000108872
0.000568244
-1.58912e-05
-0.00095594
-0.000137396
0.00110923
-0.000386512
0.00144489
-0.000999853
-5.85215e-05
0.000648913
0.000941745
-0.000872198
-0.00071846
-0.000760707
0.000726042
0.000898696
-0.000864031
0.000308116
0.000430501
-0.000536103
-0.000202514
0.000303971
-0.000202681
-0.000486982
-0.00154198
-6.12033e-05
0.00125857
0.000344611
0.000463324
7.27386e-05
-0.000270288
0.000465798
0.00062541
-0.000577095
-0.000514113
-0.00077439
0.000172116
0.000753519
-0.000151245
8.91125e-05
0.000243844
0.000845659
-0.000908716
0.000892695
8.62612e-05
-7.024e-05
0.00056555
0.000443987
-0.000399153
-1.58039e-05
-0.000112248
0.000527205
-0.000594837
-0.000123709
0.000334287
-0.00112474
0.000474162
0.000316285
3.40579e-05
0.000615001
-0.00068047
3.14111e-05
-0.000231241
4.47177e-05
-0.000214976
0.000401499
0.000958202
-0.000685454
3.12232e-05
-0.000544544
-0.000427832
0.000575716
0.000396659
0.00203424
-0.00217905
0.000716601
-0.00057179
-0.000400784
0.000497826
0.000200728
-0.00029777
-0.000969959
0.000418466
0.000842878
-0.000291386
-0.000386481
0.000562201
0.000721987
-0.000897706
0.00107622
-0.000415823
-0.000710024
4.96293e-05
1.8557e-05
-0.000258426
0.000628584
-0.000388715
-0.000109151
0.000108258
-0.000830974
0.000779887
0.000252589
-0.000835041
-0.000197435
0.000975038
-0.000802554
-0.000214876
0.000200879
0.000295498
-0.000703356
0.000206979
-0.000411422
-0.000751933
0.000669711
0.000493644
-0.000124266
-0.000323823
-9.64546e-05
0.000393961
-0.000418343
0.000902128
-0.000877746
9.51626e-05
-0.00107603
0.000980871
0.000368603
-0.000483893
0.000316169
0.000210435
0.000122606
0.000172835
-0.000505877
-2.19711e-05
-0.000928216
0.000950187
-0.00052001
6.90139e-05
-0.000168618
0.000619615
-6.72809e-05
0.000742017
-0.000671412
-3.32513e-06
-0.000485133
-0.000261556
0.000283254
0.000463435
-0.000177787
-0.000431613
-0.000395029
-0.000580764
0.000485138
0.000490655
2.23988e-05
-0.000595215
0.000997806
-0.000410415
-5.31961e-05
-0.000534195
0.000547841
-5.37843e-05
-0.000399846
-9.42108e-05
-8.15682e-05
0.000748825
-0.000938706
0.000271449
0.000479236
1.85223e-05
0.000233405
-0.000731164
-1.77144e-05
-0.000395627
0.000190974
0.000222368
-0.000281476
0.000365788
0.000702391
-0.000786703
-0.000960854
-0.000250441
-0.00027087
0.000889914
-0.000904069
2.3741e-05
0.000281708
0.00059862
8.30119e-05
-0.00030366
-0.000529186
0.000749835
-0.000399193
-0.000779235
0.000196607
0.000981821
-0.000349652
-0.000385995
0.000401453
0.000334194
-0.000917263
0.000883109
0.000935803
-0.000901649
-0.000127735
-0.000223142
-0.000672214
0.00102309
-0.000922955
8.72792e-05
0.000937778
-0.000102102
-0.000161986
0.000423812
-0.000261825
-0.000372358
0.000688616
-0.000518387
0.000202129
-1.36645e-05
0.00119083
-0.000446949
-0.00073022
-0.000437408
-0.000215252
0.000876825
-0.000224166
0.000136284
-0.000357384
0.000807688
-0.000586588
3.89265e-05
0.000551825
-9.67259e-05
-5.12531e-07
-0.0008656
0.000865728
3.8431e-07
0.00103295
-0.00018293
-0.00150958
0.000659557
-0.000953732
-9.30321e-05
0.00119023
-0.000143465
-0.000515542
0.000779189
6.4022e-05
-0.000327669
0.000454311
-0.000450346
-3.96561e-06
-0.000539223
5.27215e-05
-0.000460863
0.000947364
-0.000775545
0.00106821
-0.000214337
-7.83235e-05
0.000478284
-0.000198135
-0.000578659
0.00029851
-0.000930662
0.000935169
-4.50626e-06
0.000767462
-0.0011112
8.65564e-05
0.000257185
-0.000838326
-0.000232215
0.00144097
-0.000370431
0.000642911
-2.59986e-05
-0.000135501
-0.000481411
-0.000361791
-0.000613501
0.00136925
-6.2852e-05
-0.00089726
0.000541769
0.00141336
-0.00157653
-0.000149648
0.000312823
0.000395593
0.000188661
-0.000437072
-0.00041053
0.000428064
-1.75337e-05
-0.000159604
0.000896352
-5.89103e-05
-0.000677838
-0.000201641
0.000239043
0.00079999
-0.000837393
0.00053211
0.00125476
-0.000725823
-0.00106105
0.000921931
-0.00110613
0.000351586
-0.000167385
0.000793723
5.94638e-06
-0.000799669
1.28575e-05
0.000768384
-0.000781242
0.00088892
-0.00107306
0.000951605
4.58489e-06
-5.16212e-06
0.000723068
-0.00072249
1.73814e-05
0.00127282
-0.0012677
-2.24965e-05
-0.000103481
-0.000311669
-0.00064036
0.00105551
-0.000399658
-0.000233261
7.89768e-05
0.000755488
-0.00130915
0.000474689
-0.000620172
-0.000162464
0.000664766
0.000117871
-0.000761015
0.000837633
-0.000221841
0.000145223
0.000115239
0.000601347
-0.000204441
-0.000512144
-0.000285771
6.86964e-05
0.000490974
-0.000273899
1.68479e-06
0.000233822
-0.000296954
6.14478e-05
-0.000317923
0.000780686
-0.000451136
-1.16278e-05
0.000229565
-0.000734243
-0.000425984
9.4315e-06
-0.000673546
0.000664114
-0.000261467
-0.000250995
0.000116281
0.000396181
0.000375277
-0.000216363
-0.000158914
0.000933224
-0.00093126
-0.000185953
0.000183989
-8.90724e-05
-0.000578678
0.000535686
0.000132064
-2.44207e-06
3.28299e-06
0.000526239
-0.00052708
0.000263797
-0.000216754
-0.00083864
0.000791597
0.0006072
-1.52204e-05
-0.00059198
-0.000884015
-0.000574636
0.000852961
0.00060569
0.000500902
0.00077909
-0.00134284
0.000493663
-0.000174685
0.00027695
-0.000595928
-0.000200326
0.000199989
-0.00112386
0.0011242
0.000293445
-0.000580353
-0.000563148
0.000850056
-6.03605e-05
-0.000133363
0.0006291
-0.000435376
0.000438021
-0.000538362
0.000195043
-9.47019e-05
0.000251345
-0.000416196
-0.000402017
0.000566868
-0.000773688
0.000869954
-0.000227966
0.000131701
0.000911566
0.00117366
-0.00129302
-0.000792202
-0.000699994
0.000701965
-1.97068e-06
-7.84128e-05
0.000822891
-0.00102688
0.000282402
3.02231e-05
-5.06579e-05
-0.000792507
0.000812942
0.000759889
3.18095e-05
-0.000874232
8.25338e-05
-0.000340043
-0.000574469
0.000722584
0.000191927
-0.000822451
0.00116557
-0.000412623
6.95028e-05
-0.000323215
-0.000396927
0.000235619
-4.54046e-05
-1.00216e-05
-0.000550566
0.000605992
-0.00183205
8.95415e-06
0.000159821
0.00166328
7.16669e-05
-0.000460298
-0.000239065
0.000627696
0.00113283
-9.49436e-05
-0.000367559
-0.000670327
-0.000199878
-0.000437735
8.14104e-05
0.000556202
0.000333483
-1.16812e-06
-0.000332315
0.00054754
0.000289583
-0.000182181
-0.000654943
0.000415654
-0.000328609
0.00081235
-0.000899395
2.4105e-05
0.000864397
-0.000285016
-0.000603487
0.000203172
0.000294702
0.000634955
-0.000403887
3.03406e-05
0.000373547
-0.000529449
7.59775e-05
0.000139807
8.82385e-05
-0.000728431
0.000500385
-0.0006876
0.00100831
0.000304293
0.00104258
-0.000219003
-0.00112787
-0.0006787
0.000665636
-0.00105394
0.00106701
-9.92872e-05
-0.000497149
0.000174091
0.000422345
-0.000559866
0.00106137
0.000317319
-0.000374455
8.62084e-05
-2.90719e-05
-0.000345895
-0.00109662
0.000342246
0.00110027
0.000706834
-0.000704085
-1.08848e-05
8.1365e-06
0.000586014
-0.000684963
0.000145142
-4.61928e-05
0.000145679
0.000580878
-0.00103275
0.000306194
2.55659e-06
0.000496469
-0.000499026
0.00032383
-0.000828446
0.000650296
-0.000318694
0.000855077
0.000724797
-0.00126118
0.000242024
-0.000247765
-0.00114966
0.0011554
-0.000347438
0.000573436
-0.00115493
0.000928927
-0.000813524
0.000648228
0.000847805
-0.000682509
-0.00050623
0.000693269
-0.000447939
0.0002609
-0.000111716
0.000486454
7.94469e-05
-0.000454185
0.000235866
-0.000343611
0.000354146
-0.000246401
0.000465629
0.000173321
0.00015331
-0.000792259
0.0012465
-0.000843734
-5.46339e-05
-0.000348129
2.63331e-07
-0.000605316
0.000605053
0.000394814
-0.000573791
-0.00177005
0.00194902
-8.07697e-05
-0.000841796
-0.000252134
0.0011747
-5.07103e-05
-0.000384369
0.000435079
0.000118606
0.000562554
-9.12698e-05
-0.00058989
-0.000155473
-0.000561111
0.000452951
0.000263633
0.000454424
-0.000380811
-0.000668493
0.00110684
-0.000863784
0.000255101
0.00026988
-0.000524981
0.000858108
-3.66727e-06
-9.9273e-05
-0.000755167
-0.00016748
-0.000285189
0.000452669
0.000297622
0.000197135
0.00167496
-0.00201499
-0.000706848
0.00104688
0.00025641
0.000546336
-0.000417887
-0.000384858
-0.000584792
0.00112744
0.00074266
-0.00128531
0.000671871
0.000233724
-8.86628e-05
-0.000816932
0.001091
-0.000727391
0.000469408
-0.000833016
-0.000656944
0.000300051
-0.000838854
0.00119575
-0.0010124
0.00180161
-0.000701207
-8.80021e-05
-2.84087e-05
-0.00042417
-0.000585594
0.00103817
0.000818081
0.000339865
-0.000953975
-0.000203971
0.000446524
-0.00119217
0.000750436
-4.79081e-06
-0.00102583
-3.93643e-05
0.000668949
0.000396246
-0.000206289
0.000537787
0.000231973
-0.00056347
-0.000128635
0.000516032
0.000417412
-0.000804809
-0.00111168
0.000569677
-4.91885e-05
0.000591195
9.63328e-05
-0.000288326
0.000574724
-0.00038273
0.000470382
-0.00023666
0.000167904
-0.000401627
0.000443981
8.48307e-05
4.35705e-05
-0.000572382
-0.000642909
0.00069001
0.000255392
-0.000302492
-0.00015425
0.000829606
1.59246e-05
-0.00069128
0.00067434
-0.000396092
-0.000260529
-1.77186e-05
0.000568527
3.82906e-06
-0.000572356
0.000416158
0.000322308
-7.30664e-05
-0.000665401
0.000193572
0.000504624
0.000428713
-0.00112691
2.79007e-06
-0.0009311
0.00092831
-0.00049541
0.00189264
-0.000278396
-0.00111884
-4.64624e-06
0.000703329
-0.000698682
-4.64352e-05
-0.00050004
8.97557e-05
0.000456719
-0.000927925
0.000472656
0.000359695
9.5574e-05
0.000190698
0.000153485
-0.0010833
0.000739115
0.000541732
0.000855804
-0.000319838
-0.0010777
0.000833696
-0.000286364
-0.00079806
0.000250728
-0.00102283
0.000584099
0.00156262
-0.00112388
-2.73092e-06
0.000408564
-0.000408556
2.72327e-06
-0.000421785
0.000417345
4.44029e-06
-0.00104046
1.48426e-05
0.000440821
0.00011847
0.000252218
0.000695224
-0.00106591
0.000538063
-0.000639187
0.000412977
-0.000311853
-0.00054129
0.000474038
-1.78947e-05
8.51467e-05
-0.000106504
-0.000885317
0.00112876
-0.000136935
-0.000399569
0.000192414
0.000632495
-0.000425341
0.000678423
-0.000260255
9.65291e-05
-0.000514697
-0.000438582
-7.63558e-05
0.000513374
1.56435e-06
-7.90812e-05
-4.20029e-06
0.000751102
-0.00066782
8.89404e-05
-7.78382e-05
0.00073092
-0.000742022
-0.000659774
0.000923342
-0.000968092
0.000704524
3.07433e-06
-0.000829265
0.000826191
-0.000294158
2.61898e-05
0.000743637
-0.000475669
-0.000556704
0.000650833
-0.000887484
0.000793355
-0.000571814
4.40884e-05
0.00017144
-0.000270037
0.000729856
4.05855e-05
-0.000500404
-0.000192912
2.74257e-05
-0.000322615
-0.000287424
-0.000931809
0.000936839
0.000282394
-0.000413335
-4.93662e-05
-0.000103393
0.000566095
-0.00142542
0.000480263
0.000144565
0.000800594
-0.000439057
0.00103625
-0.00052052
-7.66697e-05
0.000306283
0.000120218
-0.000619413
0.000605573
0.00061097
-0.00121654
8.47183e-05
0.00136248
-0.000315381
-0.00113182
-1.77319e-05
-2.48562e-05
-0.000615926
0.000658514
-0.000656843
0.00107753
-0.000432661
1.19737e-05
0.000617711
-0.000387657
-0.000560227
0.000330173
0.000158488
-2.11915e-05
0.000194229
0.000952934
0.000261544
-0.00137391
0.000159427
-0.000655691
-8.23876e-05
0.000214562
0.000523516
0.000244572
-0.00027377
-0.000367729
0.00114557
-0.000769051
0.000600321
-0.000976836
-0.000130539
0.000741209
-0.00128096
0.000670289
0.000432775
-0.00054942
-5.54181e-05
0.000172063
-0.000482525
-0.000167817
-1.6352e-05
0.000666694
-0.000359763
-0.000336567
0.00069633
9.20317e-05
-0.000987841
0.000872771
2.30382e-05
0.000366309
-0.000357227
-0.000368846
-0.000614304
0.000777898
-0.000148305
-1.52902e-05
0.000868095
0.000237971
-0.000934083
-0.000171983
-0.000337133
-0.000494033
-5.70631e-05
0.000888229
0.000574637
-0.000174604
0.000666218
-0.00106625
-0.000624895
-3.4879e-05
-0.000727008
0.000390442
9.42539e-05
-0.000819804
0.000262142
0.000463408
0.000242906
-0.000867512
0.000473993
0.000150612
0.000128962
3.44828e-05
-0.000648662
0.000485217
9.71773e-05
0.000421265
-2.95931e-05
0.000753992
-0.000149082
-0.000575317
-0.000294697
-3.24473e-05
-0.000275603
0.000602747
-0.00017514
-0.000235873
0.000451054
-4.00412e-05
-0.000684089
-3.99682e-06
-0.0011254
0.000405762
0.000591006
0.0016285
-1.6042e-05
0.000225933
-0.00183839
-0.000718209
0.00111179
0.000227102
-0.000620683
-0.000205475
0.000111315
0.000705626
-0.000611466
8.37733e-05
0.000237666
-0.0001839
-0.00013754
-0.00122521
-0.000252289
0.00105761
0.000419893
2.78365e-05
0.000534047
-0.00010746
1.63396e-05
0.00026264
-0.000820139
0.000541159
-0.00049902
-1.75323e-06
0.000183976
0.000316797
-0.000716531
0.000885267
-0.000140899
0.000403153
-0.00036337
-3.97824e-05
-0.000585232
8.03228e-05
-0.000457148
0.000962058
-0.000269327
0.000405076
-0.000312235
0.000176486
-0.000579641
0.000652213
-0.000269438
0.000196866
0.000251617
-4.22752e-05
-0.000588875
0.000379533
-0.0002594
0.00162705
-0.0021901
-0.000225179
-0.000157302
0.000153983
0.000228498
0.000749799
-0.00117351
-5.25634e-05
0.000476274
-0.000311577
0.000232377
0.00040079
-0.000321591
-9.33571e-05
0.000492349
-0.000135149
-0.000263843
-0.000554038
0.000122989
0.000129535
0.000301514
-0.000322641
2.76812e-05
0.000294959
0.000711162
-0.000338648
-0.000360743
-1.17712e-05
5.45821e-05
0.000371348
-0.000563704
0.000137774
-0.000380686
-0.000461129
0.000470288
0.000371526
-0.000204167
0.000519628
-0.000443259
0.000127797
0.000183979
-0.00034842
0.000240024
-7.55831e-05
0.000681868
1.92614e-05
-0.00070113
0.000587
-0.000727678
0.000362366
-0.000221689
-0.00092194
-2.55594e-05
0.0009475
0.000372358
-0.00030897
7.20532e-05
-0.000135441
-3.08748e-05
0.00065167
-0.00071024
8.94448e-05
-0.000320785
0.000401605
0.000103159
-0.000373227
0.000799786
0.000739011
-0.000613433
0.000605646
7.78776e-06
1.09449e-05
-0.000968832
0.000957887
0.0013157
0.000156221
-0.000278344
-0.00119358
0.000276387
-0.00108178
-0.000133172
0.000938561
0.000205689
0.000242759
0.000139119
-0.000587567
-0.000372033
-0.000370484
5.31941e-06
0.000737198
-0.000177518
0.000242264
-0.000436779
-0.000796335
0.000145732
0.00104477
-0.000394169
-0.0015852
0.00116044
0.000511894
-8.71329e-05
0.000703793
2.62433e-06
-0.000706417
-0.000411289
-0.000553446
0.000357845
0.00060689
-0.000395722
-0.000570385
0.000169772
-0.000573789
0.000312272
0.000358694
0.000235917
-0.000307569
-0.000563625
0.000635277
-0.000389904
2.83932e-07
0.00038962
-0.000929971
0.000377984
0.000384728
0.000167259
0.000229413
-0.000616744
-0.000186458
0.000777778
-0.000248866
-1.79027e-05
-0.000511009
-0.000535829
0.000891199
0.000524233
-0.000879602
-0.000163272
-0.000338685
0.000129102
0.000372855
-0.00022082
-0.000177618
0.000398438
-0.000389738
-0.00082035
-0.000375111
0.000189564
2.44059e-06
0.00038255
-0.000574555
0.000760252
-0.000553587
-0.000799218
0.000592553
-0.000281833
0.000100926
0.000568411
-0.000387505
0.000522655
-0.000367889
-5.19232e-05
-0.000102843
-0.000598827
9.71897e-05
0.000467868
3.37686e-05
-0.000369991
0.000849338
-0.000925153
0.000360783
2.67605e-05
0.000537609
0.000880239
-0.000709371
-0.000550935
0.000380067
-0.000704584
0.000147875
0.00131696
-0.000670766
-0.000443361
0.000722317
0.00039181
-7.88477e-05
0.000698257
-0.000264745
-0.000354664
4.04725e-05
-0.000431772
-0.000289765
0.000681065
0.000795196
-0.000524488
-3.2298e-05
-0.000238411
0.000250825
0.00018643
-0.000614773
-0.000167164
0.000189118
0.000466677
-0.000488631
-0.000142464
0.000735916
-0.000908071
0.000314619
-0.000454651
0.000109642
0.000110055
0.000234954
-0.000961168
0.000973825
-1.26573e-05
0.000675435
-0.000666163
-9.27247e-06
0.000286748
-0.00109246
-0.000421497
0.00122721
0.000232557
0.000440467
0.000104754
-1.11391e-05
0.000387553
-0.000376414
0.00068378
0.000606315
-0.0012901
-0.000691345
0.000422018
0.00029835
-2.90226e-05
-0.000388295
0.000127984
0.000315627
-5.53166e-05
-0.0011784
0.000552013
0.000646385
-1.99952e-05
-0.000375916
-0.000419571
0.000405583
0.000604726
-9.78883e-05
-0.000387325
-0.000119513
-0.000638985
0.000689111
-0.000420117
0.000115515
-0.000734864
-3.67303e-05
0.000656079
-8.47194e-07
-0.000368351
0.000369198
0.00177512
9.46446e-06
0.000192138
-0.00197672
-6.83311e-05
-0.000133916
-0.000985867
0.00118811
0.000302556
-0.00040966
-0.000189411
0.000296516
0.000120179
0.00091793
-0.000371669
-0.00066644
0.000990615
-0.000988923
1.04087e-06
-2.73234e-06
-0.000560891
-0.000505217
0.000790249
0.000275859
0.000326982
0.000245967
-0.000647891
7.4941e-05
3.77042e-06
0.000607002
-0.000619656
8.88443e-06
-0.000832966
0.000269953
0.000674562
-0.00011155
0.000626253
0.000378261
-0.000633786
-0.000370728
1.46448e-05
-0.000571765
0.000281915
-0.000145324
0.000854024
-0.000452544
-5.88792e-05
-7.05743e-05
0.000581997
-0.000776801
4.14626e-05
0.000735338
0.00113217
0.000486678
-0.000365977
-0.00125287
-0.00073751
1.60194e-05
0.000736135
-6.59612e-05
-0.000171294
-0.000438342
0.000675597
-7.93633e-05
-8.89573e-05
-0.000239315
0.000407635
0.00018623
-0.000941994
0.00070958
4.61838e-05
0.000580759
-9.11956e-05
-0.000564719
7.51565e-05
-0.00070197
0.000140949
4.2105e-05
0.000518915
-0.000275046
0.000182407
-0.000382719
0.000475358
0.000157248
0.000107344
-0.000936023
0.000671431
3.4784e-05
-0.000630647
-4.64947e-05
0.000642358
0.000621087
8.44463e-05
-1.35131e-05
-0.00069202
-0.000746617
0.000171523
0.00067612
-0.000527707
-0.000697328
0.00122503
0.00102909
-0.000520399
0.000225338
-0.000734025
8.14127e-05
0.000573283
-0.00035214
-0.000839127
0.000151237
0.00030007
0.00038782
0.00103485
-0.00107458
3.97309e-05
-0.000642993
-0.000218018
0.000449937
0.000411074
-0.000824204
-0.000639407
0.00042973
0.00103388
0.000831226
-0.000868203
-0.000106476
0.000143453
-0.000120034
0.000403887
-0.000318558
3.47057e-05
-0.00104413
0.000342834
0.000238696
0.000462599
-0.00155436
0.00192316
0.00033332
-0.000702118
0.000692871
-0.00150956
-8.46921e-05
0.000901384
-0.000621165
0.000799062
-0.00147066
0.00129276
-0.000644437
0.00140987
0.000143411
-0.000908838
5.74558e-05
0.000678402
-0.000161396
-0.000574462
0.00102395
-0.000767295
-2.71168e-05
-0.000229537
-0.000178092
-0.000170881
0.000261296
8.76774e-05
-0.000477377
-0.0010031
0.000858538
0.000621944
-0.000685355
0.000912346
0.000796957
0.000578389
-0.000425088
-0.000529886
0.000376585
0.000204257
-0.000264337
-0.000116766
0.000176846
0.000451574
-0.000446403
-0.000595991
0.00059082
-0.000183471
0.000526358
-3.81298e-05
-0.000304757
-0.0007379
-0.000121283
0.000916639
-0.000549943
-0.000135171
0.000679846
5.26863e-06
0.000234863
-0.000524739
0.000289876
0.00018445
-0.000242137
0.000898525
-0.000840838
0.000752585
-0.00106051
0.000157189
0.000150737
0.000460219
-0.000495724
3.55051e-05
-0.000705729
2.03739e-05
0.000626305
-0.000238917
-0.000604847
0.000217459
0.000197364
0.000156752
0.00068633
-0.00104045
0.000450109
-0.00048848
3.83705e-05
-5.30255e-06
0.000543006
-0.000613849
7.61451e-05
-0.000780779
-7.29959e-05
0.00103823
-0.000330874
-5.66362e-05
7.64619e-05
0.000311048
4.57163e-05
-0.000378322
0.000279177
5.34284e-05
0.000619789
-0.000593278
-0.000146544
7.41824e-05
0.00106226
-0.000670885
-0.000465561
-0.000358549
0.000752762
-0.000394213
-0.000970614
0.000371246
-0.000225619
0.000824986
0.000752343
-0.000680786
-0.00111569
-0.000382171
-0.000456608
0.00157014
-0.000731359
-0.00109772
0.000698452
0.000996195
-0.000596923
-2.08938e-05
-0.000927005
0.000947899
0.00147419
3.37334e-06
-0.000850075
-0.000627488
0.000860343
-0.000554301
-7.66097e-05
-0.000229432
-0.00062643
0.000441771
-0.000109101
0.000293759
8.01829e-06
-0.000654143
0.000646125
-0.000461589
0.000475088
-1.34991e-05
-0.000342216
-0.000361248
-0.000927188
0.00163065
-0.000866662
0.000189667
-9.63278e-05
0.000773323
0.000207071
0.000335909
0.000930891
-0.000840939
-0.000692628
0.000602675
-0.000248912
-0.000512656
0.000564051
0.000197518
-0.000513149
-0.000260817
0.000775391
-1.42471e-06
0.000179862
-0.000101989
-0.00050229
0.000424418
0.000566334
2.55221e-05
-0.000724998
0.000133142
0.000175283
-0.000122099
0.000193085
-0.000232892
0.000231922
-0.000192115
0.000470084
0.000457083
-0.000468249
-0.000458917
0.000229021
0.000536696
-0.00055486
-0.000210856
0.000476513
0.000206609
-0.000376839
0.000599372
-0.000726121
0.000152272
-0.000799114
0.000559893
0.000300346
-6.11252e-05
0.000936054
-0.000311863
-0.00098274
-0.000251799
0.000667911
0.000336231
0.000658661
-0.000320106
-0.000557242
-0.000152821
-8.90508e-05
-0.000886546
0.000827856
7.85394e-05
-1.98497e-05
-5.5322e-05
0.00110747
-0.000114381
-0.000937767
-0.000714964
0.000145392
0.000317772
-0.00011393
-0.000719528
0.000202294
0.000631164
0.000662564
9.15822e-05
-1.51875e-06
-0.000752627
-0.000984548
-5.49933e-06
4.29717e-06
0.00098575
-0.000261639
0.000282994
-0.000466665