/*--------------------------------*- C++ -*----------------------------------*\
  =========                 |
  \\      /  F ield         | OpenFOAM: The Open Source CFD Toolbox
   \\    /   O peration     | Website:  https://openfoam.org
    \\  /    A nd           | Version:  10
     \\/     M anipulation  |
\*---------------------------------------------------------------------------*/
FoamFile
{
    format      ascii;
    class       volScalarField;
    location    "26.5";
    object      p;
}
// * * * * * * * * * * * * * * * * * * * * * * * * * * * * * * * * * * * * * //

dimensions      [0 2 -2 0 0 0 0];

internalField   nonuniform List<scalar> 
111485
(
7.87171
0.0249279
0.0149881
7.87268
0.00811155
7.60855
0.00826586
0.0168346
0.00875834
-0.00480923
0.0076896
0.00515794
0.0119754
-0.00274113
0.0100995
0.0359727
0.0254739
8.79352
0.013284
7.87333
7.8735
7.61116
0.00625559
0.0251297
0.00210645
7.84696
0.0108503
0.0435646
0.0134168
7.8727
-0.0870265
0.0157136
7.87525
7.60579
8.5727
7.5656
-0.0614907
0.051768
-0.123655
0.0192559
7.65282
-0.00488138
0.0199417
-0.0349591
-0.263197
7.88627
-0.0185551
0.0208684
-0.00963242
7.91517
7.91329
7.36117
7.9218
-0.0501723
7.9268
0.0227016
0.0142089
7.61382
-0.0982738
0.0165989
0.0177997
7.87208
0.0166397
-0.075573
7.65689
0.0222607
5.09997
0.0150017
0.00310892
0.0140971
-0.144134
0.0286406
7.72518
0.00332976
7.87801
0.0294278
7.61068
-0.00782854
7.60964
8.0551
-0.115602
-0.0371673
7.61012
7.87432
0.020948
0.00694921
1.74166
-0.0560161
-0.108009
0.0371877
-0.216746
0.00884995
0.0200579
0.0454894
-0.00468976
7.87402
7.87216
-0.0395765
-0.741358
0.0645473
7.87201
0.00246965
7.59488
-0.0119438
0.00897456
7.91198
7.61285
0.0146818
0.0063121
-0.352279
0.0207369
0.0307462
0.014371
0.003546
7.84351
0.0305889
7.86003
7.60604
0.0100368
7.8743
7.84594
6.66269
7.61089
7.614
-0.00650164
8.95428
6.62506
0.0179946
7.87489
0.382648
-0.106489
-0.0410013
7.8785
6.50973
6.79817
0.00802653
7.61046
0.0313347
0.00635912
0.0250445
-0.0414434
0.00790688
0.0138669
0.0145194
-0.0253963
0.032718
7.61047
7.87349
7.61902
0.0145329
0.0111317
7.87118
-0.074877
0.00920697
-0.669879
0.016196
0.0120483
0.00733499
-0.527362
7.87958
7.87297
0.0132928
0.00505402
-0.487384
-0.607385
0.024615
-0.0677024
7.6411
-0.449856
-0.415044
7.61373
7.87297
0.00383228
7.61162
0.0290715
0.0169924
7.66677
7.70294
7.8628
7.81065
7.67397
7.87202
0.0213101
0.0165833
0.0234514
0.070085
-0.00155191
0.0264083
-0.0525345
7.87284
0.0143972
7.6981
7.86041
0.034347
-0.0112073
-0.0507191
0.0294544
0.0158359
7.87885
0.0206441
0.0152805
5.29433
-0.0253019
0.0245691
7.8691
0.0301805
-0.0125269
7.69694
-0.0574073
-0.0294665
0.0124271
0.0129353
7.66667
7.87172
0.0267238
4.95435
-0.0406761
7.61138
0.0292274
0.0327105
-0.00655748
7.87129
0.0180665
-0.0671541
5.98702
7.61138
7.61383
-0.122398
-0.596148
7.72487
7.29335
0.0308281
0.0227301
-0.0844312
7.72299
7.80473
-0.0737272
7.87574
0.00480554
0.0281343
0.028504
0.0161151
0.0276595
7.61499
-0.108783
0.0147821
7.61778
7.61024
-0.0554055
0.0297633
7.78275
0.0297998
0.0288791
7.87365
6.35244
-0.0296268
7.88721
8.02282
7.18552
7.87316
0.024507
0.0170675
-0.010757
7.87561
0.0279311
7.87254
7.87081
7.87853
-0.0816866
-0.0144028
0.0233958
0.0142546
-0.00153398
0.0171113
0.0145436
-0.0839828
0.0100068
0.020481
7.57081
7.87336
-0.0906317
0.018746
-0.096921
0.0252748
7.87385
0.023789
0.0102711
0.0174112
0.0143947
-0.113697
0.0125017
0.015797
-0.0272807
7.61034
-0.0160171
7.6117
8.73689
8.08926
-0.127077
-0.0139077
0.00736033
7.86631
7.6746
0.0253083
0.0257584
7.87087
7.8695
7.93039
0.0171566
0.0295694
0.0181026
0.0139997
0.0105649
7.22559
7.61707
7.87484
0.028953
3.26283
-0.00772371
-0.116878
-0.091131
7.61097
7.87138
7.87209
6.79214
0.0219372
0.0157197
7.60276
0.0249709
7.77904
7.86294
-0.0377687
0.0225179
0.000139173
0.0250169
7.98458
6.75617
7.60608
0.022367
0.0195823
-0.0876316
7.64942
0.442575
-0.15487
0.015527
0.0270777
1.26338
0.00910465
7.60898
0.00422637
0.0281871
-0.106113
-0.043944
0.00497777
7.60851
7.87621
7.61137
7.87592
0.023771
0.0226844
-0.0176346
0.0136594
7.62676
0.00918868
7.61388
7.87915
0.010197
8.13904
6.94892
7.91548
7.56087
0.014809
7.61245
0.0171071
0.0140262
7.60942
0.00270499
0.0239833
7.853
0.0236191
0.00888668
0.0296753
-0.051248
0.0405787
0.0297135
7.99261
7.8741
-0.0235603
7.63065
0.00215387
-0.0505962
7.66537
7.61315
0.0245358
0.00536758
-0.00109779
0.0214012
7.61035
-0.0839099
0.000865392
7.6067
-0.0374143
-0.0144357
7.87075
7.87221
0.0245853
0.00318392
7.59107
7.86398
5.85475
7.87135
0.00751024
7.61148
7.87225
-0.00270631
-0.100333
-0.0123737
0.0161763
7.60965
6.80987
-0.010053
6.90769
-0.0329669
-0.00631384
0.00143113
5.27408
6.98224
-0.490306
-0.282123
7.8702
-0.0544582
0.007856
7.86938
-0.518338
-0.00538842
6.94648
0.002146
0.00410971
0.0384608
7.61077
0.268448
0.000804579
0.0488345
-0.140754
6.60075
-0.606691
7.8715
-0.0465622
-0.16934
7.61439
-0.00910097
-0.0134017
6.41864
7.87455
7.46883
7.87248
0.0090015
0.0780709
0.00798926
0.00744004
-0.0600424
7.61178
-0.0482645
7.88391
0.0209618
7.59783
7.88126
7.88864
-0.00180475
7.87497
7.87172
8.34397
7.87056
7.62225
-0.0223383
7.61183
7.41676
7.60828
7.85924
7.60353
7.8811
7.61147
-0.00389678
7.60679
-0.0257135
-0.0013163
-0.0939323
7.6182
-0.0230748
7.61594
7.87138
-0.0075172
-0.00718225
0.0389107
-0.128005
7.32095
-0.0140317
-0.0241389
0.0227298
-0.0148345
-0.00516057
7.8741
-0.00459854
6.42982
-0.00204837
7.61111
-0.027043
6.65414
0.0220608
0.0124317
8.29108
7.67547
-0.0330195
7.87119
-0.0160324
-0.0259101
7.62097
7.6284
7.92075
7.61322
-0.980354
-0.0166468
7.60727
7.61822
0.00597748
7.61114
-0.0176168
7.60997
-0.0215583
7.87162
0.00458232
0.00359872
0.0494008
0.0210198
7.58992
-0.128633
7.60512
7.61133
0.000792824
7.6122
-0.0050951
7.92702
-0.0448995
7.8733
0.0198077
7.87354
6.95396
-0.114216
-0.0509243
-0.0212631
0.00422507
-0.0328511
-0.00749515
7.61807
-0.0283523
-0.0310064
7.61088
-0.055837
-0.0671587
-0.0128419
7.68073
8.03351
0.0289257
-0.0428809
3.67324
7.71754
-0.00362229
0.0174197
0.00103825
-0.00209249
0.155613
2.52081
6.86046
-0.704164
3.13615
7.87288
0.00523929
7.6299
6.98468
0.0293425
2.46688
-0.723704
1.41835
6.85804
-0.0166523
0.0126995
7.62625
7.44349
0.0197907
7.8788
7.61118
7.61183
7.6165
-0.00393514
7.61243
7.82969
0.00197292
0.0248371
6.01402
-0.0325917
7.30805
0.0261173
7.92066
7.61598
-0.00967622
7.61035
7.61645
6.95146
0.0449468
4.63405
-0.0281846
0.036781
7.88694
-0.229551
-0.0715927
0.00156281
-0.0182519
0.247089
-0.00289824
7.61355
-0.010948
0.00446897
7.87666
0.0182861
-0.0261908
0.0102323
0.0353776
0.0103145
0.00924008
7.88644
-0.00427239
-0.0592091
6.93201
0.0111324
0.0105787
4.83373
0.0379883
0.0115434
0.0011222
0.00426033
0.0127749
0.0322487
7.75646
0.00655357
-0.00461836
8.22973
-0.00827163
-0.0224675
0.035533
7.61349
0.0490016
7.89121
7.6108
7.62306
7.61457
0.013822
7.04465
-1.04918
7.86866
7.55201
0.00110324
-0.00463974
7.87005
-0.013635
7.86985
7.87364
7.92299
-0.0108517
0.00340338
6.98073
7.82062
7.61277
7.61269
-0.0682836
0.0195298
6.7994
-0.00114446
-0.418718
7.61655
0.00643246
-0.0201786
0.0825876
7.6105
7.61094
0.019918
0.0301374
6.91527
7.6144
7.6031
0.0152587
7.87641
7.86968
7.6127
0.00290686
0.0175895
7.61047
8.4799
8.21259
0.148785
7.61562
7.61038
-0.0255645
-0.0772474
6.90004
5.94352
1.13137
-0.016318
0.00202199
7.58979
-0.0232174
-0.00665385
7.6088
7.92039
7.60992
7.61168
7.6149
7.60975
0.0195244
7.87097
7.61066
7.67119
0.010744
0.0152419
7.87721
7.93375
-0.0277814
0.0243282
0.03438
7.86899
7.61124
0.0249373
7.87407
-0.0111092
0.0181701
0.0406496
7.84974
7.87208
7.87192
7.61174
0.032606
7.61113
7.61057
-0.0365478
7.87202
0.0325719
0.00274165
7.63531
0.034251
7.8402
0.0221364
-0.0103172
-0.0273905
-0.0196566
-1.28017
7.22863
0.0202221
-0.0150945
0.000896488
7.78578
-2.11824
7.14512
0.0234515
7.61448
-0.0315517
-0.0166779
-0.0349262
8.07915
7.87215
7.87471
0.0281507
7.30469
-0.0269961
7.44178
0.0233029
0.0338218
0.00910055
0.0231574
7.60938
7.6377
7.74642
0.0259676
7.61374
7.22569
-0.162204
7.61286
7.61981
7.8737
7.61035
0.00968656
7.60098
7.61198
-1.58365
7.28709
7.63239
7.06225
7.61218
-0.0398174
0.0125769
7.87106
0.0131952
0.999343
-0.0399818
-0.391362
0.0232539
7.61649
-0.0131321
-0.0337961
-0.0390439
7.87372
-2.65743
0.00987182
6.46632
-0.00424508
-0.120333
-0.106588
0.000930496
0.0266852
-0.143151
0.0386179
0.027606
7.59021
7.62774
0.0108588
-0.00075255
7.61513
0.0134119
0.0035771
0.0218877
7.60962
-0.124423
7.61017
0.0192412
0.013293
7.61067
-0.0666482
0.0272054
-0.162847
-0.0220635
7.56817
0.013167
-0.157127
-0.0765004
-0.160485
-0.0428297
7.60094
7.62088
-0.0258036
7.61038
0.025871
-0.0811166
6.7193
-0.474005
-0.82791
-0.305602
7.61026
6.37881
0.0236689
7.87415
9.46303
-0.0505538
7.60616
7.60974
-0.727249
-0.864145
7.61048
-0.126618
7.61169
7.61025
7.87589
7.87063
7.95472
7.8731
-0.028875
7.6156
7.61411
7.62042
-1.44248
0.011362
-0.00185487
0.0243537
7.62497
7.60988
-0.0522768
7.61138
7.61357
5.80959
-0.0570363
0.0224702
7.61023
7.60578
7.62264
7.61007
7.55629
7.60916
-0.0756491
7.61555
-0.206992
0.0106984
7.61234
7.88247
7.93035
-0.128476
7.92253
7.8734
7.62796
-0.216022
7.60897
-0.0686355
-0.0727917
-0.184178
7.60805
5.28926
-0.043997
0.00562582
7.66319
-0.203358
-0.0174113
7.88121
7.58741
6.8988
7.60657
0.0222246
0.0112791
-0.0677787
-0.352423
7.61151
0.0248922
7.56567
6.82574
6.85561
7.61395
0.0176335
7.61127
7.94091
-0.0687133
0.027818
7.93799
-0.00616434
7.31138
-0.0871314
7.97666
7.61093
7.58227
7.87232
0.0249678
0.0195778
0.352093
7.61245
7.66227
0.0147033
7.61062
7.07008
7.87168
-0.00596442
-0.340292
0.042817
7.86259
-0.0756321
-0.0633733
8.24075
-0.0631743
7.61945
-0.0437287
-0.028355
0.00505107
-0.0907403
-0.182105
7.61088
7.6117
7.61135
-0.0752592
7.68143
-0.112397
7.87608
0.7324
7.87172
0.0168352
0.0191204
7.94266
7.61018
7.95993
7.62025
-0.114018
7.9681
6.90683
0.0043038
-0.107167
7.91031
7.03581
7.70555
7.05673
7.61244
7.61068
-0.105782
0.00403588
7.87271
7.86551
-0.629748
7.87811
-0.105426
0.0229511
7.69602
-0.037473
7.87227
0.0175886
7.62064
0.01341
7.61053
-0.591538
-0.311824
-0.150225
-0.042949
-0.0473741
4.68296
7.54159
-0.0358915
7.91697
0.0117975
7.87052
7.6403
7.62315
7.62162
7.64559
7.61514
-0.0577124
-0.0690596
7.87254
6.65303
7.87842
-0.0566045
-0.127547
7.86891
0.023376
-0.153451
7.93081
0.0258535
0.0264288
0.0146598
-0.150033
7.6107
7.60987
7.63955
7.61109
0.0177096
7.54018
-0.0376221
7.61103
-0.047781
0.0172816
7.61346
-0.0556741
7.6014
7.61039
-0.0487693
-0.0860098
2.13224
7.61166
7.9541
7.60408
0.0193748
7.50389
7.92327
7.52139
0.856761
6.72488
-0.534274
7.02693
7.4848
7.76804
0.0189834
0.00287643
0.0100745
0.0174836
7.85835
-0.0330259
7.61261
7.61345
0.0164842
7.58829
-0.65077
-0.043855
0.0319854
-0.0501293
-0.961993
-0.00449415
7.61269
-1.41973
-2.97936
-0.0111109
-0.0385637
0.0217091
5.54846
7.86746
-0.000889357
7.87612
7.60959
-0.249701
-0.00470483
-1.12463
7.59542
7.43959
-0.0774913
7.93038
7.61246
-0.0566867
7.94923
7.93823
0.110302
-0.0566682
-0.0945315
0.0457727
0.0259516
7.61531
7.61051
-0.276678
0.0240421
7.61178
7.94348
0.0306108
7.62312
6.61037
6.75909
6.79564
4.35734
6.62625
7.61335
0.0188915
7.59868
-0.0807884
7.61199
3.4249
7.67078
7.63603
7.61303
7.61133
0.0270167
7.61106
7.6108
6.91538
7.60747
7.61373
7.60748
0.0226514
7.62845
0.0200029
-0.0848851
7.63834
0.0399319
7.6115
-0.0297007
-0.209687
0.017446
0.0256477
7.84572
0.0230182
0.0227887
-0.154359
7.87525
-0.110276
0.0237154
0.026337
7.32716
0.0176735
7.6832
7.61141
7.61413
7.6105
0.0233584
7.61161
7.60133
0.0200676
-0.137889
0.00844728
7.62239
5.42599
0.0286634
7.61604
-0.375291
7.92756
0.0103126
7.60845
7.6109
-0.00685658
7.60812
-0.022559
7.87529
7.61152
0.0264841
-0.0400351
0.0236565
0.0177987
-0.138506
0.0164086
7.61187
8.01694
0.012034
0.0280767
0.0285209
-0.096737
7.61057
0.0204036
7.61047
7.79862
0.00254697
-0.0711827
7.62379
0.0227904
7.59887
0.0178863
0.030712
7.71136
7.6103
7.61185
0.0112203
7.61296
7.61142
0.0145027
0.0189114
-0.0452031
0.0227761
7.63302
7.62245
0.00908273
0.0269732
7.61667
0.00939111
7.69982
0.00549582
7.61155
7.61132
-0.00911203
7.61004
-0.0257462
0.0290385
7.61774
7.6097
0.00280431
6.47118
0.0296332
7.87171
-0.06294
7.88218
6.6789
6.45607
0.0258327
6.96285
6.88894
0.00974347
6.84649
4.25454
6.33244
7.67342
7.8771
-0.182239
0.023296
7.65139
7.60945
-0.000223953
0.011255
7.62208
0.0113365
7.60931
7.88218
0.00199692
-0.00764678
0.126093
7.61044
7.6126
7.61141
7.61054
7.60585
7.60911
7.60446
7.60662
7.61028
7.60867
7.61032
7.87843
7.6139
7.60981
7.61263
7.78523
7.61023
7.61036
7.61059
7.63866
7.81787
0.017341
7.61213
7.61055
7.62226
0.0253736
7.61419
7.88207
2.94504
7.60088
7.50853
0.0166449
8.24283
7.56461
3.47947
0.0117623
7.61158
6.75838
7.25832
7.6098
-0.032211
0.0139725
0.0103122
0.00275713
0.0310954
7.90212
7.60475
0.0159978
0.0219359
0.00162691
7.60821
0.0205047
-0.0176307
0.0252827
0.0214999
0.0225274
0.00344448
0.025302
0.0146734
7.88652
0.0206534
0.0247037
0.0114546
0.0176135
7.61003
7.60976
7.60989
7.87238
7.60766
0.0238688
0.0234592
7.61315
7.61021
7.6109
7.81846
7.61232
7.87404
7.61767
7.87863
0.0278671
-0.230743
0.0242593
0.029862
7.58713
7.62857
-0.0358745
-0.267884
7.61044
7.61115
0.00588865
7.88529
7.61054
0.0630045
-0.0030605
0.0140275
0.0304351
-0.0316741
7.89842
0.0144396
0.0204589
6.90858
7.87585
0.00928374
7.89515
7.62433
2.38083
1.27037
-0.0108886
7.76561
7.8499
-0.0460227
0.0202744
0.0328031
0.0229696
3.39073
7.87198
-0.0210603
8.23645
7.87409
7.55866
0.00652007
7.6119
0.0254907
0.00979034
0.0104129
0.0119772
7.87965
0.0348755
7.87564
7.45298
7.87369
7.86532
0.0215822
4.48737
7.61066
7.87263
8.35819
0.0248466
6.85504
0.00996278
0.0186138
0.0211637
0.021229
7.82366
7.86733
6.62825
0.0114932
0.0256308
-0.923435
7.91985
7.87176
6.82402
-0.0257518
-0.0266592
7.60931
-0.0345543
2.48808
0.0131796
0.0190634
7.8722
6.64312
0.0112102
0.0236054
7.61175
0.00351848
0.00169394
-0.00448074
-0.00626995
0.0193659
0.036549
6.91123
0.031074
0.0234767
0.0295021
7.97201
0.0157838
6.99763
0.0303468
0.0194519
7.87447
0.020882
0.0153673
0.0100434
0.0236019
8.73848
2.07389
-0.0551413
4.27683
0.0172242
7.6464
0.0221033
0.0172298
7.87953
7.61078
-0.368786
-0.120106
0.0186793
8.73077
0.00510151
-0.211445
-1.1744
-0.0852147
7.88016
7.89257
0.0215894
8.34605
0.0233537
-0.220984
0.0166403
0.0328786
7.87217
-0.0039866
0.0230599
7.87113
6.93037
0.0353448
7.88715
0.0274366
0.0316989
7.87311
8.78889
0.0208414
7.87223
7.61018
7.61063
0.0291431
0.0308164
0.0113736
7.92667
0.00840483
0.0282467
7.67257
0.0311179
0.019056
0.0245585
-0.134878
7.6109
0.017244
0.0537645
0.03102
0.0192647
0.0263472
-0.161749
0.0277191
7.87146
-0.0496621
0.0220349
7.87187
0.0266286
7.61677
7.61172
7.87527
7.62084
7.87394
-0.000372261
7.61172
0.0267114
-0.0204053
7.87602
0.0123666
7.80378
0.0170251
7.87864
-0.170243
7.65221
0.00579157
0.000334939
-0.19203
0.0426553
0.0234418
0.0153187
0.0283915
0.0399212
2.79269
0.0348663
0.00390508
0.0415087
7.87341
0.0395157
-0.127204
0.0348562
0.0123813
-0.171269
7.87559
6.76908
7.8768
0.0118441
7.87154
6.16581
0.0246041
8.38916
0.0064189
7.86347
7.84067
7.61077
0.0164208
0.0423868
0.0225146
-0.0482694
0.0246445
0.018911
0.0311565
0.0077167
0.0151853
0.0292735
0.0202524
7.87893
7.56448
7.86618
0.0161073
0.0275469
7.64846
7.61069
6.3054
0.0439169
0.0180972
7.87197
0.022002
7.86978
-0.439848
0.0156675
-0.0697215
7.87308
7.87136
0.00934602
7.87194
-0.0111046
0.0295107
7.45377
0.0189526
0.0147986
0.0271384
7.87118
-0.113892
6.98042
-0.0285572
0.00825988
7.87465
7.88438
0.0268392
5.52426
7.9041
0.0344084
0.0313749
7.87225
7.85465
6.93656
0.0120518
6.28263
0.014695
-0.0373345
-0.00341288
7.87176
7.03211
-0.038641
7.87049
7.617
7.874
7.87542
7.1429
7.72441
7.57059
7.87262
7.88923
7.29654
8.3974
7.63952
-0.00266042
7.64902
6.75325
6.39117
8.90698
6.89622
7.87186
-0.0367587
7.38935
7.70872
-0.0377153
8.20787
8.57369
7.77113
-0.0458757
8.36746
-0.0344176
-0.0881935
0.00962478
7.16493
7.87495
-0.0263245
-0.463116
7.83478
7.86566
0.0194494
7.08611
0.0192591
7.01045
7.59316
7.72887
0.0177308
0.0212554
7.87063
0.00302007
7.89694
7.38772
-0.190647
0.0425618
-0.0344076
7.60738
0.020966
7.2283
-0.0243922
7.61143
7.87171
7.61046
6.98797
0.0404016
0.0297654
7.87428
-0.77054
7.88118
7.89332
7.88082
7.87313
-0.0280478
-0.0424824
0.0317739
-0.0224445
7.83319
0.0095838
0.0107821
0.0360779
-0.0341556
7.66031
0.0267912
-0.0029526
-0.00617327
-0.436346
0.0207559
7.92346
-0.0156882
-0.027118
0.0208449
-0.0266803
-0.0505499
7.90223
-0.0433957
7.77807
7.87602
0.0193244
7.87961
0.0240244
7.86964
7.93869
7.55096
7.87911
7.87344
-0.0502368
7.87777
-0.0197739
7.19552
7.61489
0.0185781
-0.00648626
0.0285582
-0.0181224
7.89027
0.694415
7.87441
-0.0225871
7.93993
0.0129938
-0.0331904
-0.0193616
-0.00726409
7.97025
7.97719
7.87927
0.0277255
7.62583
7.86535
0.023301
7.60365
7.61014
-0.00152806
7.97012
0.00689569
-0.442566
7.14609
7.49776
7.43579
0.0100697
0.0109295
7.87224
0.00735499
-0.0142921
6.98818
-0.0242196
7.87058
0.0196337
0.0203453
0.0388359
7.87434
0.0100095
0.0187249
-0.0313163
-0.00603224
0.00555696
7.87377
7.87212
-0.112004
7.86763
7.60866
7.8701
0.0132446
-0.0206804
0.016812
-0.0379535
6.86894
-0.0053958
0.0133489
0.0102019
-0.0619384
0.0168317
-0.0208656
0.0107288
7.61046
7.61088
7.61063
0.028713
7.6116
-0.0353586
5.24226
0.000744921
-0.560535
0.00699474
0.0129787
7.60973
7.87291
0.00173047
0.000958669
7.88683
7.60451
7.87404
0.00975672
0.00342813
-0.000254785
0.00570586
0.0292453
0.0129626
7.87288
7.87342
7.87155
0.0396674
0.00425513
0.00239042
0.0140311
0.0317261
0.00159313
7.84819
7.87185
6.34091
7.65487
0.0241804
0.0255097
7.8674
7.90568
7.86664
7.87565
7.83671
7.71537
-0.00876
7.87424
-0.0529461
-0.120067
7.61828
-0.0026697
0.0267839
0.0205333
7.91772
7.76199
-0.00796844
7.87249
-0.00971828
-1.23771
0.0176308
7.66545
5.94552
7.61036
7.87644
7.86801
7.6032
2.1104
7.88581
0.00618752
-0.00446251
7.87487
7.87243
-0.0119978
7.8784
7.61167
0.0107348
-0.20727
7.86137
7.86193
7.67481
0.0415934
7.87207
7.87181
1.16334
-0.0270104
-0.0129899
7.87192
7.61766
7.20741
-0.0175468
-0.0124622
-0.0151244
0.00419635
7.61101
0.0524574
0.0123788
-0.000603458
7.55478
7.86934
7.87165
7.82531
7.87222
0.0220359
0.0183439
0.00220534
7.88996
7.87249
7.8718
7.86949
7.68588
-0.0427949
0.109071
0.0193768
7.61507
7.87261
7.9269
-1.01708
-0.043869
-0.0726623
7.60921
-1.94737
8.25652
7.83846
7.87111
0.0210109
0.0329142
7.8745
7.90661
0.00974448
7.87316
0.0121694
0.0271755
2.73556
7.87023
7.66129
0.0214341
-0.0643821
7.91035
2.54248
0.0539387
0.0299004
7.8736
7.87639
7.88234
7.88083
0.0261502
0.025717
7.8767
-0.0537668
-0.0169751
0.201135
7.87244
7.87156
7.87297
7.87693
0.00716304
8.3837
7.87367
7.76739
0.0238943
-0.0120054
0.0288979
7.84484
7.87212
-0.0244432
7.62353
7.87262
7.87455
7.87381
0.0183845
7.69478
7.59617
7.61374
0.0193463
0.0247413
7.86891
7.87418
7.85507
0.0137891
8.15152
7.87775
7.85713
7.87425
7.8737
-0.203366
0.0210751
7.91475
0.0188981
0.0134403
0.0184347
7.87862
7.8751
7.87382
7.83392
7.61107
0.0281089
7.87335
7.37982
7.33253
-0.0194802
7.65072
-0.0274829
7.87203
7.61309
-0.0244613
0.287941
7.03265
-0.00831207
7.87471
-0.0124001
8.12363
7.89111
7.92219
9.10723
7.87972
-0.0403062
7.87022
0.00820417
7.61261
6.93537
7.87941
7.86758
0.0142715
0.0304805
7.61047
2.64375
7.60753
-0.0158784
-0.0437341
0.00736369
7.61214
-0.354232
-0.0259663
-0.0529209
0.0212047
-0.630829
-0.0320219
7.59259
7.61106
-0.755575
0.0208834
-0.00469576
7.90935
7.51453
6.37143
3.25243
7.87456
7.61651
7.87468
7.87519
7.87602
8.30312
0.0323413
-0.0754904
0.0283882
6.96807
-0.0959099
7.87426
0.00809475
7.87156
7.88076
7.6115
7.71111
-0.107799
7.69205
7.60414
7.87212
0.0153969
7.87069
7.87228
-0.0583798
7.82758
5.75066
4.92636
4.58793
7.87673
4.80729
4.64471
4.7546
5.45837
7.61055
7.61109
0.00962715
-0.0164048
6.9567
7.13863
7.60674
0.00440883
8.19095
7.71181
-0.10174
7.87462
7.87249
-0.0398221
-0.0907017
7.83836
7.61248
-0.0348073
7.03239
7.6045
-0.410006
0.00519669
0.0493585
7.81102
0.0200333
7.87475
0.0138573
-0.397582
0.0147215
7.87267
-0.391189
0.0193223
7.96709
-1.03836
7.86419
0.0185022
7.52971
0.025362
7.80388
-0.0509038
7.87348
7.57175
7.61183
-1.46718
-1.4749
7.88579
0.00817808
0.00905798
7.91932
7.87227
-0.00710159
0.020219
-0.128122
7.88038
0.0131537
0.00759655
-0.0514441
-0.845434
7.87616
-0.175548
7.62002
-0.154474
7.87161
-1.73237
-2.00844
7.85255
0.0203503
7.6743
-0.0475273
7.60965
7.8568
7.88526
7.89018
7.85077
7.85877
-0.00513162
0.0266789
-0.157945
7.88161
6.34064
-0.145752
7.88016
7.82942
7.9053
7.86676
7.90373
0.0227583
7.87274
7.87444
7.61092
0.0158205
7.85776
7.6109
7.54032
0.0363756
7.61124
0.00828338
-0.787278
-0.0542372
0.0340337
-0.0156222
8.22111
7.87761
7.87113
0.0692775
0.0302015
7.54189
6.30885
0.0100789
7.87248
7.87561
-0.135564
7.86327
0.0141074
7.87467
-0.0126276
-0.0584374
7.88116
7.61039
7.87515
7.87497
7.87019
-0.0276033
7.87098
0.0113428
7.94324
7.87501
0.0237222
7.60427
0.00584741
7.77406
7.8722
-0.0149464
0.0291562
-0.121779
7.87398
7.87438
7.87267
0.0277814
-0.089935
7.95084
7.60972
7.64148
0.0124385
7.86582
0.0124905
-0.137303
7.87169
7.86813
0.0210144
7.86624
7.64355
7.61137
7.95914
7.61134
-0.155523
6.21884
7.63664
7.87326
6.38193
7.86781
6.60315
7.84658
7.86668
7.72881
0.0157983
7.7884
0.010842
7.85976
7.86704
-0.058261
0.00499614
7.86235
7.82535
7.87422
0.025822
6.70049
7.87393
7.73262
7.87039
0.0181798
7.86362
-0.183681
7.87442
-0.0119935
6.91625
-0.0290519
7.8891
7.87019
0.00320186
6.54406
7.87966
0.028384
-0.00944446
7.89265
7.87501
-0.0214493
-0.0594433
0.0201672
0.0163776
0.00629976
-0.00958374
0.0220422
-0.0414038
7.94817
-0.193657
6.25619
6.14171
7.87341
7.87109
7.87054
0.0346274
7.87492
7.86807
7.87509
-0.124345
-0.0449874
5.94746
-0.0449686
7.87579
-0.0214215
7.60995
-0.0612876
0.0218492
6.32989
0.00054294
7.86596
7.84572
7.61122
0.039882
-0.0135683
7.87284
7.61101
0.0302631
7.87377
-0.136468
7.91434
-0.0846253
7.87184
7.61173
7.85274
7.61058
0.0241937
7.61084
0.269449
7.61274
-0.00858496
7.87256
7.86883
4.30912
3.98393
7.89067
7.86927
7.8721
7.87309
-0.00874931
-0.146186
5.2098
7.87679
-0.00150259
7.60931
7.62054
-0.431291
0.0108613
-0.0701965
7.6118
0.0254279
-0.0234987
0.0245042
0.012886
7.87244
7.87555
7.87977
7.87597
7.61155
7.61052
7.61128
7.84026
7.61213
7.61147
7.87205
7.61122
-0.11061
7.61043
7.87245
8.61514
7.87435
7.8729
2.70315
7.61081
7.87168
-0.00717707
-0.0964881
7.8485
7.85173
7.87266
0.0169461
7.64499
7.86003
-0.113056
7.61187
7.87308
7.86849
7.87659
-0.0492531
7.61029
-0.177155
7.87654
7.85604
7.87131
7.87217
7.86983
-0.108909
-0.148412
0.0200901
7.87461
7.63563
7.90934
-0.125904
7.87213
-0.147571
-0.0818878
7.60877
7.8432
5.93763
-0.40689
7.85515
7.01494
-0.394162
6.01687
-0.0134552
7.64321
-0.0422458
5.98378
5.61291
7.87181
-0.00200567
7.61168
-0.0153965
-0.0565673
7.88111
-0.0030462
-0.287036
7.86994
-0.0702903
7.61371
7.85633
7.86529
7.85222
7.86699
7.60915
7.87191
7.87211
-0.156846
7.10506
7.87246
7.86989
7.87093
7.87489
0.0176134
4.03839
-0.135199
-0.310308
7.87128
0.0123955
0.00156947
7.87248
6.99282
7.78643
7.86199
7.89918
7.96178
6.43066
7.1641
-0.0370825
7.87408
7.87799
6.09725
6.6358
7.61027
-0.00865746
7.88001
7.6256
7.87437
-0.0814675
7.8765
7.61072
-0.0181839
7.61092
7.57087
7.76351
7.92031
-0.0180166
7.87342
7.87185
7.87173
7.8429
-0.0172457
-0.0677928
-0.058725
-0.00482949
-0.0329502
-0.0412653
7.61148
6.54244
-0.166727
-0.0345521
6.53221
-0.153509
7.86833
-1.0854
7.63347
-0.0910759
7.87452
7.61606
-0.0335856
-1.38631
7.8768
-0.034804
7.87574
7.87589
-0.0974126
-0.0580441
7.87249
7.61111
7.91712
7.61044
7.8692
6.8601
7.87378
7.87162
-0.0351262
7.87333
7.86815
7.87096
-0.0264638
7.88409
6.902
7.61116
7.61065
7.29793
6.92004
-0.0280178
7.61559
6.92861
0.00319712
7.86627
-0.0445546
-0.0273682
7.87413
-0.00155948
7.87108
7.45382
7.93464
6.78313
7.6128
7.8516
7.86557
7.87604
0.0184738
7.87492
7.87308
7.87157
7.73385
7.87182
7.7847
-0.122966
7.87202
7.87715
-0.0711257
7.87299
7.61144
7.60974
0.030108
7.87426
-0.164982
6.70163
-0.382582
0.015408
7.60769
6.53691
0.00596249
6.26637
7.6118
-0.20107
-0.381443
-0.00273568
-0.0600984
-0.258487
-1.16779
7.63501
7.61692
0.00674919
-0.103816
-0.0859974
0.0154124
-0.402067
7.60891
0.0192213
-0.00321378
0.00317054
7.6131
0.00582004
0.0219695
0.0219005
0.00240508
-0.125239
0.013513
0.0417872
-0.00632346
0.0126696
0.0250231
0.00871489
6.9155
0.0915726
0.00626057
-0.00399657
-0.0316486
0.023322
0.0100779
0.0158444
7.07641
-0.116959
7.0253
0.0333977
0.00898432
-0.0383366
0.000309614
7.01359
7.6089
0.00980653
0.0134847
-0.130322
-0.0659912
0.0239138
-0.00261358
4.82699
0.00715975
7.87197
3.82487e-05
-0.11535
-0.0502889
0.0293072
-0.143385
-0.179565
-0.00561224
0.00495737
-0.00433759
0.0300514
-0.000492262
0.123554
6.13658
5.40188
-0.000199584
7.87613
7.87264
-0.000805319
0.0199143
0.0230955
7.87343
-0.0751519
-0.0583889
0.0161319
5.58333
7.87146
-0.211875
0.00815713
-0.121807
7.87572
0.0291695
7.87189
0.00618528
-0.00742539
-0.0489547
-0.0485353
7.87196
7.87393
-0.0394574
0.0105082
0.0256066
7.86537
0.00659198
0.0254324
-0.0084318
7.61681
0.0323452
0.0486076
7.00364
0.0213374
-1.51007
-0.10827
7.57964
-0.0647399
-0.102825
7.8719
0.00052397
0.0175442
1.38825
-0.0160836
0.00607662
0.0223264
0.0194003
-0.0369704
-0.0232361
-0.232879
-0.112469
0.0300399
0.0217073
-0.0163893
-0.179302
0.0190023
-0.0219942
0.0581349
0.0118523
-0.163188
0.0397388
7.872
-0.00525908
-0.0153685
-0.108121
0.0373682
-0.0435663
7.63881
-0.00791174
0.0223714
7.86741
-0.0771369
-0.0122667
-0.00691176
0.000140525
0.0222852
-0.0449022
0.0108136
-0.0193206
-0.0561083
7.87164
7.87217
-0.0515858
7.6146
-0.0481121
-0.00696812
7.70497
0.0221637
-0.0224388
0.0384155
7.8716
0.0242516
0.0095153
-0.0653869
-0.14632
0.0189072
0.0444409
0.00693575
-0.0111573
7.87214
7.85489
-0.0983962
-0.0341816
-0.0612042
0.0188499
7.85456
-0.0352325
0.0133927
7.70535
-0.000846438
0.00906959
-0.0838363
-0.21859
-0.0330666
-0.0406641
0.03803
-0.00655145
7.61958
0.00116491
0.00162807
-0.00232058
-0.205341
7.85578
-0.0243434
8.01307
7.87296
0.0106483
-0.0147219
0.003797
0.120572
-0.120419
1.48459
7.6132
-0.0338236
0.0235281
0.0646393
0.00742041
7.87919
7.61195
7.60146
-0.00330044
0.00149496
-0.231248
0.0232759
7.62585
7.85912
-0.0112224
0.0042378
-0.0456339
0.0116659
0.0066338
0.027619
-0.0560091
4.37517
7.61066
-0.00670809
0.022962
7.85859
-0.00664379
0.0229674
-0.0765142
0.00787735
0.00781505
-0.0447281
7.85876
0.0238769
0.0041002
7.61303
7.64243
0.0286739
0.0793239
0.0148136
0.0207888
0.0163832
0.0116354
0.0331131
0.0282523
0.0237344
0.0138138
7.85452
7.84694
0.00995521
0.0305995
0.01532
-0.102559
0.019175
-0.00476264
-0.00341637
0.0223015
0.0154164
7.61342
7.62095
-0.116428
7.85326
6.86188
0.0113419
0.0193115
-0.00087643
-0.0980531
7.16181
-0.0372299
-0.0840567
7.29273
-0.105548
-0.212403
0.0186853
0.020813
0.0198882
0.0275136
-0.147435
0.0205248
7.87246
7.23554
-0.082004
0.0280551
0.00310679
0.0254826
-0.110901
-0.0347537
-0.112539
7.26165
0.0235146
0.052835
0.0126441
-0.126239
-0.0392434
-0.097722
-0.206509
0.00130269
0.0218974
7.15382
-0.00594496
0.0252694
2.78444
6.79018
6.23971
0.0363304
6.63517
0.0134837
0.0219168
0.00381495
0.0222206
-0.110496
5.04292
3.0406
8.05896
6.7277
-0.0498665
7.61041
7.61013
-1.28507
7.87009
0.0270686
0.0102066
0.0276189
0.0210559
0.0213656
0.00389354
6.26784
0.0222602
0.0251268
-0.0331227
0.0129681
0.0333611
0.0116299
7.61046
-0.208635
0.0283108
-0.098591
7.61053
-0.0110886
-0.00708713
7.61046
7.86404
-0.083067
0.0176632
7.90813
0.011016
0.0142953
-0.0871658
7.87344
7.61047
0.0204231
-0.212257
0.0212787
7.61052
7.5951
7.61059
-7.98305e-05
2.54821
2.32069
-0.00346438
-0.37249
7.88146
0.0259729
-0.350006
0.0172418
0.0234173
0.0069272
0.0169782
-0.508254
0.0281747
7.65983
0.0100121
0.0395359
0.0177506
0.0187303
0.0138013
0.0349527
0.016535
0.00950375
0.0301233
-0.064524
-0.391302
0.010191
-0.0875078
-0.135259
-0.462295
0.0103301
-0.375297
0.019597
0.0300809
0.0207545
0.0390467
-0.0563689
0.0342414
-0.382333
0.0224088
7.4693
0.00870283
3.81521
0.0124717
-0.00797075
7.61371
-0.0182849
7.46875
-0.00607693
7.49676
7.904
0.041621
-0.0285192
6.84547
0.0228712
0.0179698
-0.0257076
7.85994
7.87407
0.0114291
-9.05765e-05
-0.185267
0.014478
0.0319199
-0.026502
-0.0668513
-0.010398
-0.0191946
6.50869
0.00799817
7.61003
7.80565
0.0296356
0.0288518
-0.0993313
0.0290218
0.0314458
-0.0126254
-0.0246918
7.78086
-0.114051
0.0215684
-0.0151882
7.79302
7.88018
0.00784606
-0.0036154
6.16103
-0.0449637
0.02916
-0.00143715
-0.135742
0.0322175
0.0211157
7.86339
4.57281
0.0202084
-0.0765053
7.67743
0.0386718
-0.0511923
-0.0157004
-0.125013
0.0152066
-0.154981
0.00756829
-0.0399973
4.83069
-0.0506416
7.87344
-0.00197639
-0.0219309
0.0303976
0.00968186
6.57167
0.0145065
-0.082225
-0.015951
-0.111816
7.42252
7.61069
0.027908
-0.0759381
-0.00591133
0.00250025
-0.0454358
0.0206102
-0.00253727
0.00643403
0.041641
0.0262884
-0.0530138
7.03121
-0.133239
-0.024912
-0.000873838
-0.0430213
7.22715
7.6106
-2.39148
-0.119009
8.15304
-0.144804
-0.0268229
7.36774
4.99689
5.45613
-0.046257
0.0224443
0.170719
5.83926
-0.0800317
0.0295844
7.61628
0.226929
6.88427
-0.0155899
0.0206624
7.64383
-0.0289371
-0.0290671
-0.0328845
0.0259043
7.61022
-0.272308
-0.042914
-0.0797345
-0.023317
-0.0245204
-0.0438303
-0.0116925
-0.177395
-0.0251352
0.0211609
0.0216805
7.87173
6.44447
6.55434
7.72581
-0.0336675
0.0236632
0.0295858
-0.0670651
0.0198655
0.0278169
-0.00828146
-0.0224502
-0.0183041
0.0232776
-0.0163484
-0.0891277
0.000796383
0.0257245
7.87267
-0.0453253
-0.0639212
-0.020444
-0.0124882
7.60856
-0.000307607
0.00215957
0.0335661
0.00103243
0.0110927
7.63052
0.0218429
0.011137
6.8779
0.0222761
-0.0114623
7.71996
-0.00290722
7.71134
7.60773
0.000864112
-0.0640243
-0.00878021
0.0126789
7.61368
0.034407
-0.0415535
7.61212
0.0272018
0.0107646
0.0167214
-0.0149544
7.75101
-0.0348504
-0.0295633
0.00760717
7.69469
0.0442829
0.0200564
-0.00469789
0.0254617
0.0112706
7.90141
7.45233
7.05895
0.0266263
7.18728
0.0273364
0.0142206
0.0246381
7.83368
0.0210278
7.65495
7.87325
7.80772
0.00779982
-0.0127757
-0.212698
0.000767549
0.033028
7.51522
6.88183
-0.0436182
-0.0482505
0.0359906