/*--------------------------------*- C++ -*----------------------------------*\
  =========                 |
  \\      /  F ield         | OpenFOAM: The Open Source CFD Toolbox
   \\    /   O peration     | Website:  https://openfoam.org
    \\  /    A nd           | Version:  10
     \\/     M anipulation  |
\*---------------------------------------------------------------------------*/
FoamFile
{
    format      ascii;
    class       volScalarField;
    location    "26.5";
    object      SgP;
}
// * * * * * * * * * * * * * * * * * * * * * * * * * * * * * * * * * * * * * //

dimensions      [1 -1 -3 -1 0 0 0];

internalField   nonuniform List<scalar> 
111485
(
8.65228e-10
0.00012167
2.82225e-05
5.5784e-11
8.58854e-06
3.23072e-08
1.52041e-05
2.53074e-07
1.04894e-05
2.97801e-06
2.57107e-05
9.35866e-07
6.87185e-06
0.295529
6.76136e-06
1.61314e-05
0.209122
0.00105544
9.09114e-07
4.80136e-08
0.037212
3.23787e-09
3.16383e-06
1.13821e-05
4.13777e-05
3.53129e-08
5.91369e-07
1.4738e-05
1.05972e-06
0.0481434
4.33581e-06
5.04121e-07
2.17934e-07
1.43624e-06
0.000739226
9.18476e-05
0.136662
0.205835
0.00245335
9.02263e-07
0.0435891
1.20099e-06
3.0287e-06
0.000107897
1.87422e-05
1.58685e-06
6.55997e-06
4.40123e-07
6.06625e-06
4.29509e-07
1.09651e-06
1.73154e-05
4.63256e-07
1.00115e-05
1.5063e-06
1.61013e-07
2.80408e-06
4.44601e-08
5.07322e-05
3.85311e-07
5.82581e-07
2.65265e-07
8.65555e-05
7.10743e-06
6.47718e-06
2.13609e-05
0.000427752
2.41357e-06
7.19064e-05
0.000142523
4.93374e-05
8.73325e-05
1.12812e-05
9.25038e-05
4.65641e-08
1.79098e-06
1.52866e-08
7.20657e-07
2.81392e-08
3.12581e-05
0.281058
0.526598
4.51823e-08
5.23038e-09
1.60184e-05
3.81418e-05
0.143764
9.18481e-06
0.000247355
4.46505e-06
1.37375e-06
6.62391e-06
4.6696e-05
4.95135e-07
2.25098e-06
6.6597e-09
0.0270631
1.18814e-05
0.00152616
0.000578131
1.32183e-09
2.63376e-06
1.96851e-06
1.43788e-05
6.14938e-06
1.64695e-05
5.8453e-09
2.8162e-07
1.52041e-05
0.0007303
4.2168e-05
1.38001e-06
1.32634e-05
7.41569e-05
1.0316e-07
1.78252e-07
3.03584e-08
6.5606e-06
2.31994e-05
4.97645e-09
9.2333e-08
0.000189997
0.0753647
2.27162e-06
5.79921e-05
0.0278422
0.000107352
1.34065e-05
2.95967e-10
0.000323016
0.000137369
1.74975e-05
0.0472018
0.000175176
7.85107e-05
8.58048e-07
8.9793e-10
3.23409e-07
9.51649e-06
2.45623e-05
7.15143e-05
4.00894e-07
0.180384
9.9605e-05
4.12373e-05
2.41855e-06
9.8928e-10
8.97077e-10
4.76501e-08
5.11516e-07
3.37925e-05
0.0285465
0.115757
1.41762e-05
3.533e-05
5.53605e-07
5.6681e-06
0.000154101
0.000823777
5.43632e-06
9.59988e-10
7.19358e-07
4.04102e-05
7.42726e-05
6.35615e-05
3.85768e-05
7.38779e-06
0.02711
0.00156745
0.000127768
1.58772e-09
1.52219e-08
0.197964
1.1549e-10
2.67555e-07
2.85852e-06
5.25461e-07
9.62027e-06
3.58684e-08
5.80304e-06
9.88003e-06
3.71424e-08
2.65095e-06
5.07544e-07
2.3986e-06
2.0609e-05
9.84385e-06
5.54265e-05
0.000387472
1.78637e-07
5.42259e-05
5.73793e-06
7.13591e-06
3.71795e-05
5.17771e-06
1.20275e-05
2.07372e-06
1.39049e-06
8.4603e-07
8.88825e-06
3.02372e-06
0.00165521
8.07283e-05
9.30403e-07
1.82895e-06
4.12808e-06
1.26037e-05
1.18378e-05
1.82674e-05
2.42014e-06
5.70777e-06
9.86591e-06
8.68803e-06
7.79128e-09
7.05035e-05
0.000312235
4.54281e-07
7.34426e-09
1.20628e-05
1.76598e-05
8.69148e-07
8.33206e-08
1.62605e-05
1.67759e-05
0.000278007
6.85997e-09
4.32496e-10
3.16491e-05
0.004187
2.36066e-05
9.36656e-05
1.38904e-05
2.37522e-06
0.146193
3.86919e-05
2.09675e-05
0.160978
4.6628e-08
6.21043e-05
2.22218e-05
2.70639e-05
3.3008e-05
4.84468e-06
3.90076e-06
0.00194966
9.75681e-07
7.85184e-06
1.22001e-08
5.03006e-06
0.136639
1.82995e-05
1.0977e-05
2.22289e-05
7.84919e-10
0.000193217
4.71885e-07
2.78886e-07
6.71435e-05
0.0997324
1.853e-08
4.65533e-06
5.50856e-05
2.52337e-06
3.36969e-09
1.20558e-05
7.00426e-11
6.07188e-08
5.10089e-07
0.165033
4.33223e-06
3.23802e-05
1.40217e-06
0.177503
1.98802e-05
1.42235e-06
0.000254976
4.74817e-06
1.18856e-06
4.51712e-07
5.35621e-09
0.111619
4.27507e-07
4.00311e-05
2.10276e-05
1.89673e-09
0.21779
0.266057
1.57817e-06
0.000319563
3.2201e-05
3.16486e-06
8.86358e-06
1.19212e-05
2.0115e-08
7.60812e-06
2.97533e-09
0.0003608
0.000276731
1.46364e-05
1.68717e-06
0.346896
1.77962e-08
0.0860995
1.1121e-06
7.7788e-06
2.98659e-09
1.15022e-07
0.024623
4.90339e-06
1.52059e-06
5.94297e-06
0.000171884
7.74675e-07
3.04616e-05
3.06318e-08
3.5399e-08
5.72582e-06
0.00434056
0.250447
3.40117e-06
0.000792663
1.78655e-09
8.6993e-09
1.4083e-08
8.48599e-05
5.72295e-07
5.90382e-07
2.17568e-06
8.7361e-07
7.13722e-05
0.0608048
5.57597e-06
1.24132e-07
1.89962e-06
2.29419e-06
0.048388
5.00067e-05
7.3803e-07
7.25688e-07
7.86936e-07
1.348e-05
7.09184e-08
0.15137
0.000173555
8.55015e-07
3.22357e-06
0.000303746
4.80911e-07
0.0391472
5.36929e-07
1.07739e-05
6.47039e-06
3.90863e-07
2.02147e-05
9.11235e-06
1.97763e-07
5.46351e-07
7.13691e-07
1.76589e-06
0.362366
2.98958e-05
1.70847e-07
0.0530298
1.65994e-05
1.74265e-08
4.07549e-07
3.7545e-07
0.0469162
0.000624377
0.0458982
0.0497011
2.84138e-07
2.50402e-08
2.80688e-06
4.07324e-06
4.0067e-10
7.7803e-06
3.03366e-06
1.5794e-05
2.64935e-05
0.000141639
5.60707e-06
0.000707902
4.77531e-07
8.22138e-06
4.31863e-05
1.16243e-06
0.00067312
3.89819e-07
1.4733e-05
2.8448e-06
0.0303898
1.17581e-07
2.09001e-07
0.154836
4.78058e-06
0.306583
6.55183e-08
4.64897e-06
3.52091e-06
7.76264e-09
5.18126e-06
4.63e-05
3.73945e-09
0.0320403
3.17067e-06
2.84041e-06
4.51039e-07
2.63665e-08
0.000758207
3.77387e-09
1.03701e-05
3.62998e-06
4.34909e-10
1.15448e-06
3.87272e-05
0.246934
0.000134999
1.99656e-09
7.95209e-05
0.000102866
9.89552e-05
3.91239e-05
0.000631901
2.46156e-06
0.00112748
5.52457e-05
0.204936
0.000198438
4.58896e-08
7.42188e-06
1.06025e-06
2.03798e-07
0.00142113
0.000223005
8.3287e-05
1.48965e-06
1.36243e-06
9.5839e-06
3.69633e-08
0.351697
8.27562e-07
3.36443e-05
0.00438928
9.16673e-05
0.00127355
3.56572e-08
0.253603
0.332542
2.64367e-08
3.5649e-05
0.000261788
0.000103553
4.05646e-09
3.01607e-05
3.54258e-09
0.285134
7.24148e-05
2.12877e-05
0.000108514
2.118e-05
1.8831e-07
1.76522e-06
4.9965e-07
6.9689e-05
1.54597e-07
5.98081e-07
0.0524009
9.61006e-05
4.03472e-08
1.5142e-09
0.000383477
8.46605e-08
1.60593e-06
3.63503e-06
2.7518e-08
6.16798e-05
6.72855e-08
0.0741538
6.91822e-08
1.65941e-06
3.67841e-08
0.000239281
4.30908e-07
0.224156
1.97013e-05
0.23706
1.52955e-08
6.70395e-05
2.59003e-06
2.67395e-09
0.369887
0.143252
2.63366e-05
3.0431e-06
3.0634e-05
6.00464e-07
1.20178e-05
7.91926e-07
4.60262e-05
0.289966
2.54053e-08
2.42291e-06
0.000108488
1.77159e-05
0.0591251
5.60241e-06
0.000115001
2.45605e-06
1.3754e-06
0.000785642
0.0820559
1.78253e-05
2.14554e-08
1.41698e-06
3.37058e-06
3.55593e-06
1.14522e-06
1.96421e-05
1.75852e-09
0.0016997
1.5296e-07
3.49916e-07
1.78721e-07
9.64348e-05
4.26119e-09
9.00243e-06
3.00728e-08
9.33512e-06
1.44856e-09
0.116299
0.114778
2.00584e-05
1.16557e-06
0.0653252
0.0813973
4.76862e-08
2.72461e-07
1.51976e-05
4.52107e-08
0.000173166
1.78459e-05
1.13973e-05
0.0426499
1.68225e-06
2.35467e-09
4.68083e-05
4.22717e-05
6.31572e-05
1.58515e-06
1.58941e-05
1.06076e-05
1.19002e-06
9.75916e-07
2.14265e-05
3.30546e-05
2.65561e-09
0.126586
6.74505e-05
4.35702e-05
1.34437e-06
0.00117266
3.2114e-05
0.000463842
0.00302141
0.000386292
4.18144e-06
8.66206e-05
1.15107e-05
2.12616e-05
0.115106
0.000212436
7.44386e-05
0.00358787
0.0770641
3.16237e-08
6.54711e-05
4.59663e-06
4.06835e-05
3.70323e-07
0.000517569
0.00274573
0.000430308
0.000167311
2.67755e-05
2.37457e-06
5.40064e-08
0.000197939
3.46509e-06
2.8949e-08
5.6445e-10
5.60305e-08
3.19119e-08
1.00201e-05
1.79961e-09
0.0347513
1.27931e-05
2.56313e-05
0.098895
0.319512
6.03873e-05
3.03745e-06
0.0371477
5.53517e-08
1.87825e-05
1.51137e-07
1.9642e-08
4.77898e-05
2.37099e-05
0.121556
2.65727e-05
1.63132e-07
2.69243e-06
2.81277e-05
0.143884
7.08755e-06
2.75344e-05
7.09006e-05
0.196925
0.041608
2.83517e-06
1.78131e-05
5.96118e-06
2.41271e-06
6.02426e-06
1.06535e-06
3.17966e-05
4.21378e-06
2.17511e-06
1.14037e-06
4.39399e-06
0.000659453
3.26605e-05
4.24756e-06
5.14249e-06
0.00066034
3.96034e-07
5.12626e-07
1.79941e-05
3.11466e-06
1.66362e-05
3.02553e-06
3.27362e-06
3.41563e-06
3.29514e-05
0.000198056
1.2678e-05
1.85354e-05
3.12651e-06
4.72524e-07
4.48276e-05
4.4537e-06
4.0954e-09
0.0778778
1.60618e-08
0.136812
5.88741e-05
0.0117905
8.04318e-08
0.0295365
1.44588e-06
1.13283e-05
1.3475e-09
7.1924e-06
3.01088e-07
1.65056e-08
8.16378e-07
0.283018
0.000130123
2.96099e-05
0.0411844
1.0082e-07
2.66584e-09
3.67748e-06
1.91351e-06
8.36632e-05
5.28402e-07
0.000128665
6.48723e-08
7.37086e-06
0.000125458
0.168392
6.39466e-10
4.73926e-09
3.30609e-06
8.48152e-07
0.000132707
4.60426e-07
0.0632078
1.19212e-06
2.65366e-08
1.22974e-07
0.0456622
6.54294e-06
0.000139496
5.886e-10
0.00504166
0.00105282
0.182396
1.61222e-08
1.87579e-08
3.55816e-06
2.29011e-05
3.95759e-05
0.000586947
0.000330846
0.000260068
5.0322e-06
0.0636676
2.69954e-05
8.09879e-07
6.90739e-08
1.20398e-06
1.40968e-08
9.46597e-09
7.72415e-08
9.50586e-10
3.34038e-06
7.12732e-08
1.94906e-08
3.22268e-07
1.91603e-07
1.67748e-06
1.0723e-07
5.82155e-07
2.80998e-07
1.49652e-05
1.68547e-05
2.69687e-08
7.43805e-09
2.24518e-05
7.86963e-10
9.23986e-05
2.15357e-06
5.43205e-06
1.23362e-07
1.28988e-10
9.56031e-10
1.59267e-09
1.56757e-05
1.88771e-08
6.59056e-08
2.10461e-05
4.78946e-09
1.41249e-05
8.21674e-05
2.36414e-06
1.73026e-06
0.000530775
4.55454e-06
0.252459
0.000110055
8.32829e-06
0.209983
8.2556e-05
6.21032e-06
2.85219e-05
9.70116e-07
2.05334e-05
0.0890511
0.000707287
6.22389e-07
4.08269e-08
1.27763e-05
8.05761e-05
9.9771e-05
9.2939e-05
1.83933e-09
1.56421e-10
1.31677e-06
3.86493e-05
9.32478e-06
3.91567e-06
0.000210342
3.45297e-06
3.00032e-05
1.44734e-07
1.51806e-08
0.0336099
8.22348e-06
3.7252e-07
2.78833e-08
4.98586e-05
0.000131149
1.78766e-06
3.47838e-07
0.0407073
1.61618e-09
2.75173e-05
0.0640633
9.71725e-09
0.0726803
4.30387e-05
0.0372487
0.000609747
1.00504e-07
2.49206e-05
2.20962e-05
0.0458695
5.69614e-05
0.00132314
0.161905
0.000146044
1.15158e-05
1.00096e-06
1.21226e-06
0.48724
0.162261
4.31162e-08
0.24227
1.39144e-05
0.000162688
2.53095e-05
2.21601e-05
0.00121493
3.99375e-05
1.3992e-05
6.82187e-06
1.33382e-07
1.77538e-06
0.045856
8.1843e-08
5.57005e-05
2.8249e-05
9.80073e-08
3.9723e-06
0.217726
4.50442e-06
2.96166e-07
0.000647044
1.55436e-08
4.06208e-06
0.21273
2.36659e-08
0.178165
0.343036
0.00135456
1.78129e-05
1.09295e-06
3.76692e-06
6.33033e-05
0.000224943
0.00120372
0.000318717
4.30257e-06
0.0455738
0.000112059
9.1121e-10
0.000303852
0.000299505
0.000613666
0.000467493
0.00086457
0.00017162
1.04426e-09
6.88451e-05
1.02716e-06
4.12625e-07
0.00171358
0.350182
1.7494e-07
3.30122e-08
0.00324298
0.00330362
3.25607e-09
0.000605464
8.70937e-08
1.58349e-08
1.25106e-08
4.49362e-07
5.0668e-06
1.65586e-07
7.86481e-05
0.0521096
1.45031e-09
5.45785e-07
0.00451268
0.116207
7.54116e-05
7.83354e-07
0.0327397
1.07408e-08
0.000134464
4.01506e-09
2.26611e-09
0.00057376
0.130202
2.57625e-06
8.47516e-09
6.70794e-08
0.0358895
1.85695e-08
0.0232593
4.71791e-08
0.000104355
5.89685e-09
0.00196184
3.18656e-06
2.85356e-09
7.56895e-07
5.59846e-07
0.00140779
6.2625e-07
2.36595e-08
2.09351e-06
0.00444531
0.0543838
7.26585e-05
0.00061484
0.00107218
4.31747e-08
0.00132805
1.03205e-05
3.43717e-07
3.21813e-06
0.000216169
2.24867e-05
1.17485e-07
9.55215e-06
0.00015122
1.0085e-07
1.37418e-06
7.52997e-07
1.65496e-05
0.0734654
1.32523e-09
8.97494e-07
0.061207
0.000121945
7.75448e-05
5.44034e-09
9.09282e-07
2.01581e-08
1.13797e-06
2.76132e-05
5.33702e-05
5.53851e-07
3.01029e-05
2.76593e-05
8.32387e-05
1.69308e-05
7.04428e-09
3.83613e-06
1.66946e-09
5.08799e-07
6.73423e-05
0.000186615
3.15633e-08
5.07983e-07
4.5833e-06
1.00554e-10
4.79545e-05
4.46804e-07
7.33222e-05
0.000841962
7.55852e-05
1.48223e-08
0.00139367
0.000119473
6.32733e-05
0.000159499
4.65831e-08
0.00016456
2.56859e-06
0.117526
3.5095e-05
9.81121e-05
6.20073e-08
6.62984e-10
2.35626e-08
0.187025
0.0751854
4.47206e-05
6.76586e-10
0.000140764
2.973e-08
0.173764
0.000160175
7.62011e-07
9.25638e-08
3.41368e-06
6.18123e-07
9.01673e-05
2.12007e-06
0.000123386
0.313611
4.20226e-06
7.23333e-05
3.39468e-05
6.96413e-05
5.22044e-05
3.26689e-08
3.32716e-10
2.84921e-06
3.68378e-05
8.2182e-09
2.02317e-07
0.000610549
4.59346e-07
1.44209e-06
0.42383
1.7672e-06
6.88078e-05
4.00891e-10
3.32644e-06
2.65115e-07
0.331977
3.12523e-09
0.119424
0.00554483
0.00013814
1.72526e-05
1.57917e-05
0.000948576
2.57663e-06
3.30958e-06
2.31393e-06
1.02998e-06
6.19677e-08
1.87161e-06
8.60513e-05
2.4049e-06
0.0710541
2.76856e-07
4.35768e-06
0.000308999
2.07852e-09
0.000385646
8.57751e-08
3.97275e-05
0.000832557
6.86175e-08
2.12603e-06
7.06696e-05
5.53469e-07
9.44006e-06
0.182676
8.04525e-07
9.96979e-06
1.69622e-10
0.0468732
8.99524e-06
1.93116e-07
1.93234e-07
4.95798e-06
7.3125e-06
9.46168e-09
0.1525
1.49702e-06
2.10455e-09
0.00012567
4.06277e-07
2.62631e-09
4.58211e-05
0.00102325
0.000886072
8.03661e-09
1.11745e-06
4.64803e-08
4.8991e-05
5.07567e-05
0.034347
6.26435e-06
0.000934461
6.79507e-05
0.00117803
3.09357e-05
3.54099e-06
1.09256e-06
4.76693e-07
5.15918e-05
2.10028e-06
7.40554e-06
0.0440747
0.000252663
0.0482388
1.28029e-09
7.94686e-06
1.21089e-07
6.07286e-05
0.000102852
1.18684e-05
4.91504e-05
0.000540496
0.000151374
7.77294e-10
0.00720235
0.00842887
8.69507e-05
4.75681e-05
8.46365e-07
0.000883315
1.68693e-06
2.90002e-06
1.38207e-07
5.65751e-09
0.000253569
9.84827e-06
0.00100522
6.46675e-07
0.0477238
0.000673367
7.23161e-07
1.38587e-07
0.000583144
2.91947e-06
0.055748
0.28218
0.000131674
0.000237948
1.65952e-06
5.28425e-07
2.13053e-08
1.30022e-08
6.29003e-05
5.0436e-06
0.0351432
0.0551689
3.17598e-05
3.20905e-08
0.00032405
0.0419416
2.76808e-05
0.0011596
0.00261547
0.0443887
0.122407
0.0516344
0.000122547
1.16765e-09
0.0020424
6.6608e-07
1.64519e-07
1.95164e-07
7.42389e-09
2.88211e-05
3.9519e-09
2.13598e-09
9.2229e-05
4.94593e-08
6.70234e-09
9.57993e-07
5.56014e-07
0.0603294
6.50311e-06
3.08712e-05
0.0778894
0.263589
6.00355e-09
0.188791
0.000160788
0.392533
4.05706e-07
1.10357e-07
6.83471e-08
4.49395e-05
0.263398
1.73932e-09
0.00118842
7.29739e-08
4.00074e-06
1.63726e-05
7.80519e-06
1.08373e-06
2.42203e-07
0.0792841
1.0309e-08
7.20915e-06
1.06096e-07
9.28107e-07
1.76094e-06
0.000460831
0.000121705
1.16643e-06
0.000391405
2.18116e-05
4.24961e-07
0.000143071
7.52255e-07
2.54536e-05
1.43152e-07
1.32888e-07
0.255765
0.0447674
0.000399887
3.32901e-07
6.34409e-09
4.49236e-06
0.195479
2.47845e-07
1.16783e-05
4.75672e-07
2.95489e-06
2.52142e-09
0.0365556
0.000111743
7.6215e-07
6.19083e-07
1.77739e-05
7.95868e-09
0.181178
1.06708e-09
0.0405909
7.98389e-05
5.1744e-06
1.27927e-08
3.34466e-06
1.33595e-06
1.03185e-06
3.69811e-06
5.12847e-06
3.068e-10
4.6904e-09
9.63051e-05
0.0822294
2.34203e-09
3.44362e-05
5.21211e-06
9.87098e-05
3.92048e-07
0.0493751
2.34308e-06
5.15524e-05
5.55167e-05
6.11907e-08
5.89669e-05
1.98021e-06
1.72822e-05
2.91061e-08
2.76936e-08
1.08027e-05
6.28698e-09
0.000184518
4.05075e-05
3.02022e-08
8.30849e-08
0.000136734
0.000550359
0.307096
1.18181e-07
4.97897e-06
1.84636e-06
0.00037211
0.000171968
2.73554e-05
8.40138e-05
0.0808077
3.52772e-06
5.52118e-05
0.000837542
0.0682469
7.12125e-07
5.00685e-08
0.000427707
2.9449e-06
0.0425047
1.91311e-07
7.00255e-06
3.52641e-06
1.63646e-08
0.232317
9.69535e-09
1.70222e-07
6.39989e-07
2.75156e-05
0.310957
0.0586856
4.86494e-07
2.51476e-08
1.72105e-09
1.11174e-07
1.09192e-07
6.6209e-07
1.21479e-07
6.70799e-09
6.39959e-08
1.18011e-08
1.84632e-07
0.0643604
0.0381658
2.88446e-09
1.38266e-05
7.74839e-09
7.74285e-08
1.32802e-08
0.0374107
0.0824335
5.6742e-06
4.22758e-08
1.41328e-08
8.38875e-07
1.28627e-06
4.09347e-06
1.37079e-07
0.000333573
2.69511e-07
3.12658e-06
3.58473e-06
0.000189848
5.36805e-06
0.000807594
1.80663e-06
3.09915e-08
0.000495474
0.000444813
1.88036e-08
2.30745e-05
4.07469e-06
1.3759e-05
4.37659e-05
1.05593e-05
3.72288e-06
1.13056e-07
0.332689
5.05917e-07
4.05235e-05
0.0643887
0.000120168
1.22301e-05
1.5167e-05
1.68196e-06
2.38253e-06
2.29466e-05
6.72736e-05
5.76165e-05
3.37623e-06
4.57486e-05
7.56151e-06
3.95222e-06
2.16215e-06
5.5051e-09
6.32212e-08
4.65436e-08
6.67781e-10
1.78598e-07
3.38081e-08
7.43303e-06
1.96694e-08
3.07316e-09
1.85385e-07
1.73513e-05
4.20671e-09
9.78373e-09
8.24009e-07
1.12357e-06
1.01369e-06
8.71052e-05
6.59025e-06
0.248184
1.17183e-07
1.16229e-05
1.56064e-05
4.25307e-06
4.38713e-09
1.8263e-08
0.225386
5.62295e-07
6.04604e-09
2.35516e-06
0.226464
1.75113e-06
5.93805e-05
5.90755e-05
1.10053e-06
7.70136e-06
9.37993e-06
0.000388366
1.96108e-08
4.4085e-05
4.97478e-06
1.92521e-07
0.000326288
0.000399844
0.197384
6.78361e-06
1.3775e-06
7.52119e-06
3.8618e-05
1.61963e-05
1.96416e-07
0.00262065
1.19628e-08
0.000641354
0.00041644
0.0611014
1.00306e-05
0.259278
3.12746e-08
1.50277e-07
5.19237e-06
2.50224e-05
7.45641e-05
3.2673e-06
0.000117793
3.60406e-08
9.83271e-06
1.1192e-09
2.03712e-08
1.63355e-06
0.000493872
1.01409e-07
5.05985e-09
0.000422903
2.20265e-07
0.000551022
3.48784e-06
2.02155e-06
1.5036e-06
4.52469e-07
2.00596e-05
4.62086e-06
0.000205849
6.45299e-07
8.29977e-06
0.00331384
1.22159e-06
7.25926e-09
0.000158271
2.29981e-06
4.09783e-05
5.02153e-09
0.144484
0.000117589
7.1779e-05
1.78901e-06
7.44553e-09
0.000196987
4.72097e-06
2.45868e-07
8.27499e-10
6.64278e-05
7.19683e-05
8.05334e-05
0.196835
2.91744e-06
6.12927e-06
0.000247371
1.01472e-05
7.37917e-06
2.7352e-06
8.42293e-05
3.64753e-06
0.000120571
0.184269
1.50765e-05
5.4314e-10
1.70716e-06
5.31366e-05
1.50642e-05
2.67304e-07
0.00046032
0.000878141
0.000487227
0.0008804
1.73904e-05
5.29419e-05
7.19897e-06
2.04192e-05
1.18125e-07
1.05086e-08
0.102394
0.000504684
2.86782e-06
0.00166647
5.16095e-06
2.47816e-05
0.000435281
4.33021e-06
2.27559e-06
3.23104e-06
4.07768e-07
4.22825e-05
3.01276e-05
0.000153208
2.86475e-05
5.64267e-07
6.42665e-09
2.8266e-05
9.8506e-07
2.04066e-08
0.000312681
3.03221e-06
8.04839e-06
3.8238e-05
7.55926e-06
4.05861e-08
0.000601103
0.139016
4.79035e-08
5.5744e-09
2.11891e-08
0.144956
0.247483
4.29902e-07
0.0533366
5.39672e-06
2.04997e-05
8.00788e-06
8.39435e-06
1.17955e-05
1.39366e-05
3.01986e-05
0.118409
0.340885
0.393239
1.20741e-05
3.20619e-05
6.71051e-06
7.4236e-06
0.361832
1.40087e-08
0.175565
4.09375e-06
1.10414e-08
7.26287e-07
5.92523e-07
2.85518e-08
3.7482e-08
2.29757e-07
1.75924e-08
0.137308
4.44546e-08
2.91628e-05
0.00019688
2.29687e-08
4.52172e-06
7.3469e-06
6.39851e-06
6.52722e-08
0.00058829
6.45708e-06
8.59131e-07
6.91137e-05
4.25562e-06
3.01972e-05
4.67672e-06
1.20378e-06
5.30585e-07
2.05656e-05
0.00335932
4.87329e-05
9.03041e-07
1.34891e-05
8.35155e-07
2.54258e-05
0.000100817
1.18466e-05
2.22956e-06
5.44832e-06
1.15398e-06
5.78919e-05
1.24557e-07
8.18731e-06
0.0412169
0.000425156
0.329249
0.000784495
0.00011462
1.59103e-08
0.0615505
1.07351e-09
4.96828e-05
1.54439e-05
8.25535e-07
8.76342e-05
1.66929e-06
9.22446e-07
4.4779e-05
8.03208e-07
2.08844e-07
1.97681e-05
6.5162e-07
2.25284e-05
0.0790633
3.56092e-07
3.80764e-05
1.39026e-06
8.04319e-07
6.32276e-10
0.00026168
9.14775e-05
3.71573e-06
1.40249e-08
6.98112e-07
0.044394
0.000212699
9.86457e-06
1.48702e-05
1.70144e-09
8.22505e-11
9.35928e-07
4.19429e-09
4.92786e-05
3.53971e-07
2.17514e-05
1.69934e-06
1.98635e-07
5.99585e-07
3.09712e-08
4.81152e-05
9.05913e-05
4.40673e-05
5.13877e-07
2.90855e-08
9.81956e-07
2.29537e-06
0.000536821
9.91139e-07
0.162148
2.1887e-05
2.92668e-08
4.15312e-08
0.000231342
1.28747e-05
0.00114465
5.44791e-07
9.90174e-05
0.23454
3.7245e-10
0.000334178
2.70842e-05
0.0425304
1.76535e-06
0.047498
0.0830759
0.000119981
7.67597e-06
2.01802e-05
1.12947e-08
1.58475e-05
2.71162e-05
0.000377373
1.92699e-05
6.99209e-06
2.61336e-05
0.000430854
0.000346939
0.000515649
0.000130743
1.67638e-08
8.98369e-05
0.000891642
6.31326e-06
4.03545e-06
0.000250447
0.000215332
1.38601e-05
1.87581e-05
0.000266355
1.56969e-05
0.000380543
0.000250022
1.94667e-05
2.49127e-08
3.49214e-05
0.000418825
0.0668803
2.13359e-06
5.20116e-07
4.92318e-05
1.87138e-07
8.53245e-05
8.36951e-07
0.000397723
5.83696e-07
7.05176e-05
2.51743e-08
1.00183e-07
1.10931e-05
0.000920375
0.00120753
0.339165
4.17806e-05
2.0504e-06
2.12055e-07
0.000408018
2.31736e-05
0.0338611
0.0704204
4.03525e-10
0.000786675
6.47561e-05
6.74292e-06
5.69391e-09
0.00114683
5.70389e-07
0.0427482
4.96966e-08
4.88043e-09
3.02112e-05
1.1478e-06
1.32498e-06
3.70016e-05
0.0395479
2.04479e-05
2.40289e-07
8.42331e-05
0.2193
0.0432635
6.79918e-06
0.00028497
3.04214e-05
0.000580705
3.02909e-06
0.0374048
3.85476e-05
0.000187008
2.4263e-07
8.83407e-07
4.73772e-06
5.22004e-07
2.43113e-05
2.35229e-06
7.69857e-07
2.56167e-06
4.15235e-06
0.00010147
2.46326e-08
3.65491e-07
0.0806435
9.78216e-09
7.73363e-08
4.34213e-05
6.3227e-08
0.000185968
3.5613e-05
0.0659223
2.34846e-05
0.261453
1.28661e-05
2.16054e-05
0.0399174
0.000160088
2.53889e-10
2.03555e-06
0.027981
1.56768e-05
7.91637e-05
1.68961e-05
1.66555e-07
7.05383e-06
7.48022e-06
8.49943e-07
0.127611
1.09671e-06
1.02673e-07
1.77443e-06
6.63508e-07
1.53245e-08
8.70212e-05
2.51891e-06
0.274418
8.15559e-05
3.51699e-05
4.63698e-05
5.86759e-05
1.67491e-05
2.97211e-06
1.47686e-10
8.98672e-07
7.40013e-05
2.15466e-05
6.52019e-06
6.92127e-08
1.13363e-05
1.26524e-06
4.00965e-05
3.21581e-08
1.36978e-07
1.2316e-06
2.86744e-05
2.19515e-05
3.31206e-05
2.90675e-08
2.25985e-08
0.00166684
2.23262e-08
1.57575e-09
2.76579e-09
1.46508e-06
0.308965
9.3206e-07
0.000115867
6.91464e-05
2.11235e-05
1.78422e-07
1.2532e-06
0.000226033
7.38288e-06
3.69744e-07
3.75531e-05
4.13341e-09
2.9683e-09
4.06537e-09
9.94778e-05
1.12485e-07
0.329101
0.000526979
3.53329e-05
0.00184034
6.84196e-07
1.7167e-05
2.56703e-09
0.0592751
8.28424e-06
6.19153e-06
1.55173e-06
4.13009e-07
1.61711e-07
0.481501
1.68477e-05
0.00043678
6.58875e-05
1.37971e-06
0.122504
3.16789e-07
3.20334e-07
4.99563e-07
7.23868e-07
3.51045e-05
5.02712e-07
2.44678e-05
1.81488e-05
0.000502405
3.61915e-06
5.76809e-10
0.000190316
3.76659e-07
0.156855
3.46586e-06
2.40776e-07
1.25185e-06
1.89704e-05
0.0606381
0.0297479
1.83922e-05
4.84359e-05
0.090548
3.56719e-06
2.55208e-05
0.0473707
1.257e-05
5.92919e-06
0.173259
0.0186414
1.05445e-05
3.32798e-05
1.53448e-08
3.86689e-05
0.00172517
1.03701e-05
1.13947e-05
0.00038078
1.29134e-09
0.0231218
1.05083e-08
2.88851e-05
0.19445
1.22063e-07
1.21963e-05
4.62364e-06
3.74811e-07
3.9633e-08
4.82694e-05
4.17306e-07
1.14344e-07
3.16792e-05
9.73722e-06
1.38377e-08
0.0232766
0.0440635
5.00391e-06
2.56164e-10
1.90967e-09
0.000143793
1.41161e-05
5.40917e-06
3.3458e-09
9.56781e-08
0.000132928
6.97393e-05
4.75098e-05
8.3358e-05
0.363515
1.49324e-09
0.140838
1.76495e-05
6.77867e-06
0.0562554
1.08556e-06
2.10806e-08
0.0228042
7.33815e-10
6.83573e-06
6.45746e-06
7.32677e-06
1.10169e-06
9.26396e-09
3.93176e-09
1.62915e-08
2.03763e-05
0.134049
0.212367
3.1474e-05
2.55103e-06
1.69819e-10
0.0557395
0.225559
0.000279608
1.04422e-06
1.46517e-07
0.000967421
0.000247442
2.35503e-07
1.32429e-08
2.19169e-06
8.01766e-06
3.69332e-08
1.10677e-05
6.98428e-05
0.0599428
0.204411
5.62746e-05
0.000849216
1.00765e-08
3.74189e-07
3.28993e-05
0.000180365
3.37601e-05
0.000433595
8.25195e-06
1.51239e-05
6.77647e-09
8.67119e-08
1.26553e-05
0.0582375
1.1309e-06
0.177823
1.97236e-08
1.21992e-05
2.4579e-06
1.65971e-05
1.05865e-08
1.26603e-09
1.10209e-07
3.53677e-08
1.21907e-06
0.000328387
1.01766e-08
0.0373049
1.79156e-05
0.159261
1.95351e-06
3.01577e-06
1.65223e-06
2.06404e-06
1.33516e-05
3.07147e-08
2.37641e-08
1.3376e-08
3.34207e-06
9.55721e-06
0.0582584
0.0563948
5.23185e-06
1.01095e-06
6.0126e-09
2.40402e-09
2.52473e-08
1.72135e-06
0.000250153
2.01584e-07
3.65902e-08
3.57995e-09
0.0219298
2.66559e-05
4.47372e-05
0.0403614
8.71202e-07
0.31081
9.88343e-06
4.3971e-07
4.26281e-10
2.59205e-07
0.0534401
9.51566e-10
2.35474e-05
2.2412e-08
0.000704553
4.50182e-05
8.46617e-05
0.000145754
2.93978e-05
3.9527e-09
1.58638e-08
0.359162
3.29863e-05
3.51205e-05
0.000234926
4.22179e-07
8.60543e-05
9.61412e-05
3.00384e-06
3.29872e-06
0.000304573
8.22035e-08
0.000719124
0.0391402
1.42554e-06
2.06811e-07
8.33014e-05
9.06254e-07
0.0340657
0.18213
2.1698e-05
9.02454e-10
0.00411094
3.43182e-07
1.56369e-05
1.54878e-06
0.000125847
1.12291e-08
0.000878272
8.74185e-05
0.000132135
2.13982e-05
0.000123503
3.0578e-05
5.46148e-06
7.47207e-10
0.000155326
4.75411e-05
5.80954e-05
6.65317e-07
9.65848e-06
0.000121721
0.000454583
9.43794e-09
1.84259e-08
3.48758e-08
3.51972e-10
1.27336e-07
0.0216145
0.000404618
0.000144618
4.09175e-05
0.000206334
8.31487e-05
2.79373e-10
1.16513e-05
7.03129e-09
5.38872e-07
8.34177e-09
2.62158e-05
0.00204111
1.54989e-05
1.11551e-07
1.3319e-08
1.5039e-06
1.22444e-07
6.94709e-09
0.146498
9.23996e-06
0.000675146
0.00102982
0.000727714
8.99768e-09
0.000678373
0.000761665
0.00135375
0.000728476
3.86304e-09
4.02447e-10
3.45428e-06
8.60077e-06
6.831e-05
0.000320379
0.0424952
8.30943e-06
3.30396e-05
4.47914e-06
0.00055667
3.40321e-08
1.2317e-09
0.00011477
0.000371734
0.0260865
6.2922e-09
0.117898
0.000127006
3.39352e-07
9.42289e-05
4.96649e-06
8.97661e-05
2.29346e-06
9.86254e-05
6.72594e-09
9.62351e-06
0.00217057
3.66478e-05
5.84368e-08
0.00175861
4.48491e-05
1.06326e-05
0.00322502
8.66918e-08
7.68176e-06
5.7142e-05
0.000103611
8.53062e-07
0.193127
5.65657e-08
8.7601e-07
2.73696e-08
0.118055
0.121001
2.06788e-06
1.81223e-06
0.000155408
0.0550525
3.33044e-08
1.10213e-05
2.13919e-05
1.34146e-05
1.27994e-06
0.195421
7.20698e-06
1.71758e-05
0.00364449
1.606e-07
7.22512e-06
1.7328e-06
2.53362e-06
1.8157e-09
0.00240605
0.00397707
1.07968e-07
7.65457e-07
1.27523e-06
0.000102341
7.44291e-09
0.0397904
2.90094e-07
1.00004e-05
1.09909e-06
5.30475e-07
5.02552e-06
3.38389e-05
1.30125e-06
5.03341e-06
0.000247879
1.60066e-06
1.34476e-06
0.0429915
7.71517e-07
3.37946e-06
2.50273e-06
1.99349e-05
1.88091e-10
5.05105e-09
7.20637e-10
6.02354e-06
5.59289e-08
0.0677121
2.22391e-05
1.21075e-05
3.91123e-09
3.27618e-05
0.117515
7.89665e-05
1.38407e-05
6.19025e-05
1.2526e-05
2.00548e-07
7.89999e-08
2.43634e-05
4.40274e-06
2.71499e-06
0.000545843
9.72755e-06
4.6796e-08
2.96999e-08
2.31864e-06
7.61906e-08
7.00735e-06
4.13116e-08
1.20654e-05
1.63106e-05
1.93971e-07
7.6991e-10
0.045694
7.11517e-09
2.51091e-09
2.51915e-05
0.0564423
2.07113e-05
2.24814e-06
1.42865e-08
1.01111e-05
5.3641e-06
2.23507e-05
6.05396e-06
7.422e-09
1.76641e-06
1.58346e-06
5.54607e-06
4.09396e-09
4.95884e-09
4.45617e-09
5.27563e-06
1.71161e-05
9.6022e-07
1.64438e-08
7.57517e-06
5.21956e-05
1.96366e-08
2.49735e-05
4.61014e-07
5.24969e-08
4.43865e-09
3.95063e-05
2.399e-07
2.05957e-05
1.50828e-09
2.56663e-05
1.02479e-08
1.5635e-06
0.000351183
1.35154e-07
5.51498e-09
0.0688135
2.98036e-08
0.0565791
2.48526e-07
4.64966e-08
9.5873e-06
2.58698e-05
0.047025
5.90252e-05
0.049923
0.0606475
9.08935e-05
1.1479e-05
0.0403649
1.08905e-05
1.67094e-08
4.27773e-05
0.141202
0.0370049
0.0422044
1.19111e-08
1.0324e-05
1.60723e-08
5.55158e-06
9.89864e-07
7.92267e-06
0.000171972
7.03106e-06
5.29703e-07
1.64563e-08
3.76825e-06
0.000295128
2.38243e-08
1.21191e-05
3.84337e-05
1.97683e-06
9.90014e-10
6.3467e-05
2.62067e-05
2.61452e-05
1.77964e-05
1.66308e-05
2.16603e-06
7.6111e-06
0.000153946
8.71936e-06
6.74886e-06
0.000126072
0.000458006
3.8531e-09
6.33419e-07
2.78627e-08
1.98961e-05
9.05992e-08
2.31269e-06
1.0286e-10
0.000397814
0.391916
0.0890625
0.000150351
5.0319e-09
1.20017e-05
0.0553259
0.10292
2.49638e-06
0.000271711
2.09846e-06
5.57395e-07
1.19901e-07
3.0399e-09
9.38017e-06
4.48665e-05
3.85563e-08
4.31262e-09
1.77375e-05
1.65711e-07
0.176382
0.0539093
1.17315e-05
5.25146e-09
1.15363e-08
0.0420744
5.00272e-09
2.56396e-05
9.76502e-09
0.000615181
2.26649e-08
5.21655e-06
5.1504e-08
6.13255e-09
0.00108231
0.154974
0.0646304
1.45261e-08
0.0689788
4.24554e-08
1.36792e-05
1.64341e-06
0.118076
2.39957e-07
0.000162505
3.91862e-09
1.97453e-06
0.000278777
1.73134e-06
0.00016534
1.0028e-08
1.1664e-05
3.30457e-05
2.0733e-05
5.4046e-06
3.6656e-07
3.32543e-07
3.38512e-06
6.10475e-07
9.99564e-09
3.51854e-09
0.0753866
0.0371648
1.42355e-08
0.0845243
3.08556e-10
2.12488e-08
5.27459e-05
4.89734e-09
4.82292e-09
0.0402385
1.83315e-08
7.49109e-10
0.000649933
2.06837e-09
1.299e-09
5.06764e-05
0.0930094
1.3255e-07
0.0371303
8.47489e-09
4.67296e-06
0.0503879
6.27843e-06
0.000868085
5.81083e-10
7.26863e-08
1.04554e-06
1.87486e-07
0.209837
0.0456554
0.000109653
3.25614e-08
0.0462772
1.01464e-09
2.05529e-08
1.7828e-09
0.103249
0.0017944
9.26861e-06
1.28405e-09
1.30851e-06
0.0481435
0.000911542
3.6463e-07
0.000258438
0.109045
0.0862826
3.47609e-05
0.0853775
0.000925075
0.0426784
4.20925e-05
0.0658236
0.000345215
4.82652e-06
1.47876e-06
2.32856e-06
0.00045862
0.00093111
6.92887e-10
3.92444e-06
6.98326e-08
4.63977e-05
7.55003e-06
1.00041e-06
8.11653e-06
0.000297817
1.74557e-07
8.0024e-06
9.15108e-08
2.70358e-08
2.75008e-08
4.53995e-08
5.07423e-06
4.48898e-08
4.89628e-08
7.4504e-08
1.07458e-05
4.32715e-05
1.95327e-10
1.81091e-09
5.48697e-08
1.00385e-07
1.07024e-06
0.00129834
0.00209799
0.00013079
9.63185e-09
3.22685e-05
5.78827e-06
0.0463555
3.20545e-05
1.29266e-05
5.6589e-07
1.11067e-06
2.4535e-06
0.000222897
0.000117026
0.17951
0.0671796
8.23624e-08
0.000829184
0.000296525
1.41306e-08
2.68416e-06
4.61616e-06
3.73297e-08
1.73106e-06
3.93539e-06
0.0621601
1.17283e-09
8.35688e-05
1.33889e-08
0.0488141
5.1315e-05
0.0355068
3.33149e-05
4.87507e-09
6.70343e-09
2.32654e-08
2.51169e-05
2.44465e-05
4.21184e-06
7.25396e-06
9.61954e-07
0.000763897
0.000290228
8.48925e-10
0.000117073
4.84987e-05
5.29801e-05
9.54374e-05
0.00296481
4.05177e-06
0.0991899
4.91086e-08
5.90266e-06
0.0383607
1.40076e-08
0.000260958
0.0071403
4.04834e-08
0.000103065
1.40298e-08
1.85972e-07
2.57606e-06
3.93931e-06
5.32988e-08
8.58628e-09
6.94868e-07
2.55737e-09
6.09129e-09
0.000126808
2.45359e-08
5.56259e-10
2.93961e-05
7.68949e-09
9.77166e-08
2.70143e-07
0.000215157
2.19666e-07
0.000169286
1.07103e-07
4.72442e-08
2.26282e-05
6.60587e-05
0.000231781
0.0432388
8.08014e-05
4.29509e-05
2.29989e-06
0.320037
0.311203
1.24568e-07
2.90981e-05
1.78088e-08
0.0459021
0.0380293
0.000405856
0.0904741
0.0685007
7.16336e-06
1.10225e-09
0.000115946
1.12956e-08
1.22183e-09
3.97591e-07
1.58888e-05
7.21292e-09
1.73582e-05
3.39392e-05
5.15358e-09