/*--------------------------------*- C++ -*----------------------------------*\
  =========                 |
  \\      /  F ield         | OpenFOAM: The Open Source CFD Toolbox
   \\    /   O peration     | Website:  https://openfoam.org
    \\  /    A nd           | Version:  10
     \\/     M anipulation  |
\*---------------------------------------------------------------------------*/
FoamFile
{
    format      ascii;
    class       volScalarField;
    location    "26.5";
    object      T;
}
// * * * * * * * * * * * * * * * * * * * * * * * * * * * * * * * * * * * * * //

dimensions      [0 0 0 1 0 0 0];

internalField   nonuniform List<scalar> 
111485
(
303.15
285.066
300.942
303.15
298.37
283.15
298.876
293.338
296.241
286.197
300.475
296.132
300.159
284.539
299.936
286.7
299.301
297.037
293.971
303.15
303.15
283.15
297.187
288.634
301.571
303.15
293.105
300.6
288.797
303.15
300.767
294.275
303.15
283.15
283.439
283.15
302.301
297.54
283.149
296.567
283.15
289.538
296.991
302.868
303.193
303.15
287.293
288.494
289.574
303.15
303.15
283.15
303.15
298.863
303.15
293.436
287.831
283.15
283.316
295.395
295.796
303.15
302.034
300.178
283.15
284.534
300.04
291.444
302.085
302.507
303.157
301.861
303.15
302.085
303.15
295.322
283.15
293.346
283.15
283.15
283.234
293.298
283.15
303.15
300.262
284.198
283.15
301.522
303.112
299.047
283.321
289.503
300.816
300.36
289.734
303.15
303.15
301.522
303.149
283.413
303.15
286.575
283.15
285.138
285.693
283.15
283.15
293.01
301.4
283.147
298.835
287.997
301.246
301.651
303.15
301.944
303.15
283.15
300.099
303.15
303.15
283.15
283.15
283.15
283.389
303.151
283.15
301.775
303.15
283.175
303.099
301.907
303.15
283.15
283.15
292.44
283.15
294.14
298.759
301.073
303.135
296.777
298.941
284.741
302.262
297.731
283.15
303.15
283.15
297.083
284.901
303.15
303.144
287.252
283.156
293.648
295.577
302.51
283.153
303.15
303.15
292.107
286.187
283.153
283.157
301.145
283.679
283.15
283.152
283.153
283.15
303.15
283.206
283.15
291.465
287.112
283.15
303.15
303.15
283.15
303.15
303.15
297.596
293.416
295.709
289.689
301.329
300.373
283.19
303.15
301.409
303.15
303.15
300.108
286.225
301.365
301.307
295.653
303.15
300.831
284.565
283.159
300.711
297.011
303.15
300.367
288.131
303.15
283.223
300.124
284.778
300.647
303.15
303.15
300.661
283.15
292.704
283.15
300.566
298.612
290.263
303.15
301.709
300.514
283.15
283.15
283.15
289.452
283.156
283.15
303.15
298.564
291.286
289.841
283.15
303.15
303.108
303.15
284.307
300.034
299.188
299.447
299.318
283.15
283.144
298.811
283.15
283.15
288.706
288.298
283.15
301.127
298.825
303.15
283.15
301.051
303.15
303.15
303.121
303.15
288.197
285.816
290.701
303.15
298.28
303.15
303.15
303.15
283.148
297.98
300.939
299.37
291.143
299.422
296.188
283.21
290.242
291.487
283.15
303.15
283.149
292.369
298.72
286.405
303.15
297.956
297.22
298.828
302.953
283.167
297.036
299.304
302.013
283.15
283.604
283.15
283.149
303.15
283.845
290.21
286.247
303.15
283.15
297.542
285.218
303.15
303.15
303.15
284.555
290.165
301.015
284.386
292.954
283.15
283.15
303.15
298.307
303.15
283.804
289.381
283.153
283.15
303.15
303.15
283.15
294.289
289.892
283.15
295.632
283.15
303.15
300.975
297.234
293.924
295.74
283.15
283.15
283.15
296.539
290.926
302.372
283.15
283.15
283.15
290.002
296.889
283.21
290.406
283.15
292.724
299.498
284.176
298.555
285.21
283.15
303.15
283.15
303.15
290.598
296.647
287.891
291.873
283.15
286.291
283.15
303.15
293.747
303.15
301.698
303.15
283.15
291.856
283.15
288.702
284.597
283.15
283.964
297.953
283.15
300.109
284.652
298.787
303.017
290.975
285.952
283.15
303.15
303.144
283.15
300.95
300.768
283.15
283.15
294.671
284.331
298.125
296.86
283.15
294.974
295.998
283.15
302.043
283.874
303.15
303.15
288.179
298.526
283.15
303.15
303.15
303.15
300.706
283.15
303.15
293.9
283.17
286.86
299.897
283.15
283.15
302.606
283.15
302.442
301.388
297.759
288.38
283.15
293.831
303.376
303.15
298.57
292.204
303.15
283.15
283.302
283.15
289.929
286.051
291.563
283.15
292.789
296.51
292.981
303.147
283.15
303.15
303.15
283.168
292.648
283.15
284.296
303.131
283.15
303.15
303.15
303.15
301.845
290.44
285.937
284.172
284.283
283.15
285.647
303.15
300.667
283.15
303.15
303.15
300.607
303.15
303.15
283.151
303.15
283.15
300.611
283.15
283.15
283.15
303.15
283.15
303.15
283.15
283.656
283.15
303.128
301.855
283.738
283.15
303.084
283.15
303.15
284.671
284.641
286.057
297.439
283.15
297.411
297.523
292.202
286.755
285.223
303.15
291.675
283.15
299.803
283.15
296.719
283.15
291.993
298.465
303.151
283.15
286.736
303.15
295.441
299.023
283.15
283.15
283.15
283.15
303.15
293.61
283.15
283.15
283.236
283.15
299.755
283.15
284.752
303.15
283.424
303.119
284.616
291.822
283.15
301.407
283.15
283.15
285.635
283.15
283.254
283.15
299.616
303.15
290.571
303.15
283.15
302.379
284.433
300.027
285.601
300.025
289.406
283.15
300.574
284.507
283.15
283.141
300.249
301.552
283.15
282.491
301.01
303.058
283.124
303.15
287.515
302.151
284.371
285.331
288.122
282.6
283.15
303.15
300.539
303.15
283.543
283.15
283.15
291.689
282.694
303.149
303.114
283.15
286.202
299.549
283.15
283.15
299.57
303.15
283.15
283.15
283.15
286.09
283.15
303.15
284.778
284.203
303.15
299.674
283.15
289.178
303.15
283.15
286.081
283.15
283.15
283.15
285.329
283.15
285.391
291.883
303.15
300.307
283.436
298.629
300.924
283.295
283.449
283.15
288.872
298.386
303.15
302.245
295.967
296.822
284.684
297.388
297.15
303.15
300.173
303.133
283.15
297.081
284.796
283.15
292.294
295.646
284.812
298.71
300.589
292.255
283.15
298.858
283.457
303.15
300.55
301.95
294.018
283.15
286.432
303.15
283.15
283.15
283.15
283.299
283.15
303.15
303.15
283.15
300.392
299.181
303.15
285.556
303.15
303.15
303.15
289.963
283.415
283.15
303.15
283.15
283.15
286.765
292.302
283.15
295.053
283.138
283.15
295.222
302.194
287.708
283.15
283.15
300.212
292.014
283.15
283.15
283.15
293.891
303.15
303.15
283.15
296.166
302.346
283.15
282.349
301.658
286.489
283.15
283.15
287.416
302.956
283.15
283.159
287.104
283.745
288.714
283.15
285.651
300.207
283.15
303.15
283.15
283.15
283.15
283.15
295.588
303.15
283.15
283.15
295.199
291.732
303.15
303.15
289.725
298.333
298.233
303.15
283.15
297.9
303.15
283.818
298.775
298.282
303.15
303.15
303.15
283.15
285.997
283.15
283.15
302.699
303.15
297.732
302.243
283.15
293.978
283.272
296.352
291.902
283.416
289.67
283.15
283.15
296.796
287.984
290.756
283.15
283.15
297.496
294.865
283.15
283.885
284.551
283.463
303.15
303.15
303.15
290.659
283.15
299.992
283.15
284.339
297.513
298.426
292.19
283.15
283.15
303.15
295.299
283.15
283.15
303.096
283.15
283.15
303.15
283.15
299.245
283.15
283.15
283.15
283.15
283.15
303.15
283.15
283.171
298.703
303.15
302.52
283.132
283.389
283.097
285.474
283.15
284.417
290.459
283.389
303.15
283.149
299.668
283.15
300.189
283.141
283.144
286.147
297.409
283.205
291.817
297.977
283.15
283.15
298.987
299.731
283.15
297.256
291.188
297.543
283.15
283.243
283.15
297.847
296.973
283.15
300.015
297.623
283.149
299.715
283.15
295.544
283.145
303.128
283.161
283.16
283.15
283.15
284.406
283.15
302.962
283.573
283.064
303.147
303.149
303.148
283.15
283.15
293.738
303.15
303.217
283.847
283.15
283.15
303.154
303.149
283.15
303.165
283.15
283.15
303.15
303.15
303.15
303.15
283.36
283.15
283.15
283.15
303.157
283.299
283.869
293.391
283.15
283.15
283.328
283.15
283.15
283.15
287.183
293.513
283.15
283.15
283.15
283.15
283.15
283.15
283.985
283.15
303.15
291.471
283.15
303.15
303.15
303.154
303.15
303.15
283.15
303.171
283.15
283.678
283.145
303.152
283.15
303.061
284.357
292.007
303.15
303.129
284.419
303.15
283.15
303.15
283.15
293.966
293.371
284.592
303.148
283.15
293.161
283.15
283.15
303.15
283.15
294.781
283.15
303.15
283.163
298.077
303.15
284.354
283.15
283.561
283.15
283.15
283.15
303.15
285.796
283.464
284.076
283.15
283.15
285.593
283.15
283.15
303.15
284.315
303.165
298.482
303.15
303.126
303.127
283.15
303.129
283.15
283.439
289.037
301.029
283.777
283.165
283.15
283.15
283.15
303.184
283.15
302.892
303.15
292.529
303.15
288.665
283.809
303.15
283.15
303.15
283.15
301.755
303.15
303.15
286.361
300.505
283.15
283.15
283.15
283.15
283.15
283.15
300.758
283.566
303.15
303.15
303.157
303.15
300.139
284.391
283.15
302.087
303.15
301.587
283.15
302.559
283.15
283.148
303.152
283.309
302.087
300.172
283.147
283.15
289.296
303.15
293.304
303.15
283.15
303.15
283.15
283.15
283.15
300.754
302.03
303.15
303.15
303.15
302.897
283.15
303.15
292.811
283.087
303.15
297.458
298.302
296.436
283.37
283.15
283.15
283.15
283.15
294.572
283.15
294.709
283.15
303.055
289.778
283.15
302.851
283.15
283.15
302.723
283.148
302.908
283.15
303.15
283.15
302.372
283.15
303.15
283.15
283.148
283.15
283.17
283.15
283.15
303.15
292.936
301.063
296.011
296.942
303.15
303.115
283.15
283.15
285.641
283.15
283.158
302.835
298.75
302.933
303.15
283.356
283.15
303.15
283.15
302.987
283.312
298.297
283.15
303.15
288.006
303.15
283.15
283.127
294.974
283.148
283.15
283.15
283.149
303.15
283.15
303.141
303.15
303.15
289.87
302.98
302.988
288.942
293.181
283.15
283.15
303.079
289.012
283.15
303.15
284.714
283.15
303.15
283.15
283.15
283.15
297.252
283.15
302.932
283.15
300.417
283.15
283.15
283.15
283.15
283.15
283.15
284.987
283.15
283.15
283.15
283.15
283.15
283.15
291.929
283.15
298.368
302.925
283.15
302.333
283.15
302.501
303.145
292.247
288.728
303.15
292.111
284.749
303.106
303.15
303.14
295.031
288.606
283.15
287.829
283.15
283.15
283.15
283.15
287.457
283.15
283.15
291.593
303.135
285.275
283.15
283.15
302.521
283.15
283.181
303.15
299.862
283.15
283.15
302.818
283.15
303.178
303.15
283.15
288.991
297.994
292.653
285.618
292.454
294.031
283.15
283.15
302.264
290.527
292.71
284.378
283.15
294.357
283.15
303.15
300.683
298.726
283.15
297.384
283.15
292.701
297.158
303.15
283.15
283.15
301.743
283.15
283.15
300.452
296.088
283.196
291.161
283.15
283.15
302.784
300.471
283.15
300.601
283.15
300.456
283.15
283.15
300.759
283.15
283.225
301.569
283.15
283.15
302.417
283.15
287.846
303.15
290.261
303.15
303.15
303.15
300.902
283.15
283.15
299.484
283.15
302.981
283.15
283.15
303.15
283.151
288.138
283.15
283.15
288.002
288.182
283.15
283.667
283.15
303.15
302.406
283.704
301.528
283.15
283.15
283.15
283.15
283.15
283.15
283.15
283.15
283.15
283.15
283.15
303.15
283.15
283.15
283.15
283.15
283.15
283.15
283.15
283.15
303.15
286.887
283.15
283.15
283.15
294.635
283.15
303.15
302.873
283.15
283.15
294.637
283.15
283.15
301.752
295.115
283.15
303.682
303.604
283.15
301.438
293.889
297.476
301.442
298.098
303.15
283.15
296.384
291.7
301.385
283.15
302.119
302.403
300.833
287.981
287.264
301.022
301.751
301.755
303.15
285.826
297.494
285.483
297.195
283.15
283.15
283.15
303.15
283.15
291.92
297.879
283.15
283.15
283.15
283.15
283.15
303.15
283.15
303.15
292.075
303.105
298.975
302.836
283.15
283.15
285.362
283.168
283.15
283.15
301.724
303.15
283.15
298.117
299.476
297.484
298.583
300.761
303.15
290.98
302.566
303.15
303.15
300.267
303.15
283.15
282.997
295.494
302.94
283.15
303.15
289.52
286.116
297.13
292.119
302.352
303.15
303.135
303.15
303.15
283.15
298.969
283.15
291.731
290.381
299.642
284.728
303.15
301.896
303.15
283.15
303.15
303.15
291.42
299.405
283.15
303.15
303.132
291.71
303.025
299.308
292.738
288.263
292.848
283.15
303.15
283.15
291.165
298.247
303.151
303.15
303.15
303.15
297.443
302.56
283.15
299.933
301.095
284.833
299.473
303.15
303.15
298.633
292.9
283.15
302.893
299.653
302.602
291.902
297.259
298.184
303.15
286.93
298.162
291.259
283.15
288.995
303.15
288.333
301.016
303.15
288.644
301.237
300.06
293.112
283.151
283.16
283.237
301.564
300.873
303.15
288.762
301.44
303.15
283.15
303.15
303.208
298.694
290.506
296.714
303.26
283.149
297.349
303.15
303.15
292.722
303.15
300.272
283.298
301.279
291.475
303.15
283.646
293.144
303.15
283.073
298.628
303.15
300.655
286.204
303.15
303.15
283.974
303.15
283.15
283.15
285.873
299.188
291.102
303.15
285.176
297.402
283.15
298.8
298.835
288.905
303.1
283.15
301.506
299.63
298.8
300.034
288.604
290.692
302.48
303.15
301.514
288.656
303.15
298.811
283.15
283.15
303.15
283.15
303.15
297.411
283.15
300.485
283.628
303.15
283.785
283.15
289.774
303.15
303.144
303.15
294.055
302.996
303.116
299.806
290.346
289.377
290.525
298.34
303.15
299.328
292.106
298.879
303.15
283.857
283.439
299.189
287.107
283.502
303.15
283.15
303.15
285.282
303.15
303.345
284.657
303.395
302.953
303.15
303.15
283.15
300.503
300.654
285.449
303.083
286.95
295.614
301.86
292.442
288.087
302.064
296.049
283.15
283.15
303.15
285.769
289.631
283.15
283.15
303.15
301.967
288.631
303.15
296.352
303.15
283.155
285.145
301.155
303.15
303.15
292.213
303.15
283.297
290.549
283.15
297.113
294.565
296.082
303.15
302.695
283.15
302.658
293.34
303.15
303.15
288.734
283.15
303.15
301.77
284.416
303.15
303.15
283.15
302.323
303.478
289.426
299.641
298.086
303.15
303.159
302.579
303.15
283.15
303.15
303.15
303.15
303.15
303.15
303.15
303.15
283.15
303.15
303.15
283.336
303.15
303.353
303.15
303.164
303.15
303.15
300.877
303.675
303.15
291.885
303.15
303.15
283.15
302.544
303.15
302.128
303.113
283.288
283.15
303.15
302.56
283.149
303.15
303.15
291.305
283.15
292.53
283.15
283.15
283.153
291.154
284.803
303.15
296.584
283.15
303.787
303.133
284.291
302.58
283.15
292.105
303.083
301.633
283.15
303.15
283.15
304.146
284.789
296.845
303.15
303.15
303.15
303.15
303.15
303.15
302.334
302.803
297.545
291.942
303.15
287.095
292.581
284.943
303.209
283.15
286.858
302.747
284.726
283.148
287.421
303.15
283.379
302.916
292.469
302.841
301.847
303.15
302.239
303.15
303.15
297.907
303.15
284.456
303.15
303.15
283.15
303.15
303.15
302.84
303.15
283.294
283.15
283.15
285.784
284.845
300.905
286.056
303.15
294.514
303.15
290.364
303.15
287.102
300.636
301.448
293.237
303.15
303.15
303.15
289.749
283.15
303.15
289.502
283.15
283.15
301.791
303.15
286.133
283.148
283.15
303.15
303.15
300.62
298.136
303.15
293.357
303.032
283.15
298.569
303.15
286.366
288.17
302.12
303.15
296.259
296.727
302.946
301.858
301.624
303.15
303.15
303.147
303.15
283.15
303.15
289.504
300.175
294.253
302.103
283.15
300.331
291.333
298.195
283.59
298.256
289.542
302.141
283.15
283.15
283.15
302.188
283.15
290.395
283.15
301.219
303.162
289.658
298.013
283.15
303.15
301.207
301.184
303.15
283.15
303.15
286.381
301.41
302.973
302.322
297.956
288.382
303.15
303.15
303.15
294.172
285.931
289.723
295.806
283.94
302.952
303.15
303.15
283.15
283.15
285.386
299.569
303.15
303.15
283.15
303.15
303.15
303.15
300.205
303.15
285.305
292.108
283.15
283.246
293.287
285.651
303.15
303.15
301.861
303.15
299.164
283.147
297.495
303.15
303.15
283.15
303.15
303.15
303.15
305.123
303.15
301.813
301.106
303.15
303.15
301.584
303.15
283.15
287.186
303.098
303.15
303.15
303.15
297.881
303.15
303.15
302.381
302.474
301.75
303.15
283.15
303.15
302.022
302.499
301.494
302.521
283.15
300.624
287.425
297.386
283.15
303.15
303.15
303.15
303.15
294.274
287.515
299.653
303.15
303.15
303.15
303.15
283.15
303.148
284.745
285.112
283.15
303.15
303.15
283.148
299.512
294.756
283.15
303.15
303.15
303.15
303.15
289.547
289.592
303.15
303.15
302.397
303.15
301.447
283.934
291.752
303.15
283.15
301.166
303.121
303.15
302.961
301.279
286.782
303.15
303.15
303.15
303.15
293.218
284.13
303.15
302.673
298.003
289.179
303.15
303.15
303.15
303.15
299.525
303.151
303.15
303.15
298.213
302.594
288.288
303.15
303.15
297.693
303.15
303.15
303.15
303.15
288.739
303.15
283.15
283.15
295.876
291.004
303.15
303.15
303.15
296.977
303.146
303.15
303.15
303.15
303.15
303.383
300.827
303.15
287.275
302.635
299.345
303.15
303.15
303.15
303.15
283.15
285.633
303.15
302.844
283.15
302.159
303.15
303.133
303.15
283.15
301.944
285.523
283.15
302.824
303.15
302.402
283.15
303.15
303.15
303.151
303.15
283.27
303.15
290.766
283.15
283.15
303.15
303.15
298.796
302.352
283.15
302.386
283.15
284.097
287.897
302.687
283.15
303.155
302.98
303.133
284.378
283.156
302.979
283.15
283.15
283.156
302.052
302.273
303.15
283.15
283.15
295.104
303.15
283.15
303.15
303.15
303.15
303.107
303.043
302.92
302.426
303.15
302.895
303.15
284.778
303.15
303.15
283.15
303.15
303.11
303.15
283.15
303.15
288.256
303.15
303.15
303.168
283.15
302.77
301.913
296.608
303.15
289.101
294.122
283.755
289.8
283.15
283.15
287.154
284.296
283.15
303.856
283.15
286.359
303.15
283.15
303.155
303.15
303.15
303.011
303.155
303.15
283.15
303.138
303.15
283.15
283.107
298.661
302.688
303.15
301.808
303.15
285.663
303.152
301.134
303.15
303.15
300.994
303.15
303.15
303.15
287.633
303.15
285.104
303.15
303.147
303.15
283.15
283.15
303.15
303.15
303.15
288.631
302.531
303.15
303.15
288.528
286.455
291.066
303.15
302.685
287.615
287.486
303.15
303.15
287.549
283.15
291.829
303.15
303.153
303.149
303.15
300.483
283.15
302.312
283.15
303.15
303.15
303.15
303.15
303.15
284.303
302.223
290.971
303.15
303.15
290.499
303.15
303.15
303.15
303.15
303.15
300.101
303.15
303.15
283.15
299.404
303.15
283.15
303.15
301.329
283.15
299.904
290.717
302.671
299.969
299.387
303.15
303.15
303.15
300.804
288.417
283.15
303.15
300.265
303.15
303.15
291.909
303.15
287.413
303.15
297.771
284.286
303.15
283.15
303.15
303.15
303.15
285.201
303.15
300.441
303.15
303.15
299.647
283.15
284.709
303.15
303.15
288.024
301.538
296.351
303.15
303.15
303.15
301.555
292.154
303.15
283.15
303.15
300.628
303.15
284.732
296.232
303.15
303.15
301.097
303.15
303.15
283.15
303.15
283.15
294.472
303.15
283.15
303.15
303.15
303.15
303.15
303.15
303.15
283.15
301.505
283.15
302.048
303.15
303.15
296.043
300.425
303.15
283.15
303.15
300.835
283.15
303.15
303.15
303.15
300.686
303.15
297.586
303.15
285.803
283.15
286.678
303.15
303.15
298.472
283.15
303.15
287.793
283.244
303.15
303.15
285.046
283.829
300.8
301.697
301.144
293.103
301.704
283.824
303.15
297.624
283.15
283.15
303.15
303.15
303.15
301.173
303.15
303.15
303.15
303.129
283.168
283.15
283.552
303.15
301.978
283.15
303.142
296.015
283.15
294.453
303.15
303.15
283.15
299.83
283.905
303.15
283.15
299.859
303.15
297.639
303.15
295.171
303.15
283.15
303.15
283.15
299.365
283.15
283.222
283.15
286.143
303.15
303.15
283.15
283.15
303.15
303.15
303.15
303.15
284.835
284.687
283.15
303.15
283.231
283.15
283.15
303.154
289.808
283.535
283.15
301.46
284.844
300.433
288.119
303.15
303.15
303.15
303.15
283.15
283.15
283.15
303.15
283.15
283.15
303.15
283.15
297.161
283.15
303.15
283.15
303.15
303.15
283.279
283.15
303.15
301.914
303.149
303.15
303.15
303.15
288.656
283.15
303.15
303.149
283.15
303.15
303.15
303.15
295.277
283.15
283.177
303.15
303.15
303.15
303.15
303.15
303.149
303.147
284.085
303.15
283.15
303.15
303.149
303.15
303.148
303.149
283.15
283.15
283.15
303.149
303.15
283.15
303.149
283.15
287.656
283.15
301.756
283.15
303.154
303.15
284.571
283.15
284.417
297.323
303.15
284.654
303.174
303.15
297.331
283.15
303.15
303.15
303.15
303.15
283.15
303.15
303.15
299.077
283.15
303.15
303.15
303.15
303.15
292.27
290.078
303.171
283.164
303.15
301.789
302.303
303.15
283.15
283.15
303.15
303.15
303.15
283.15
283.15
283.803
303.15
303.15
303.2
303.151
283.15
288.797
303.15
283.15
303.15
287.971
303.15
283.15
302.077
283.15
283.15
283.15
303.15
299.584
303.15
303.15
303.15
283.15
284.469
293.491
295.128
289.485
303.117
303.012
283.15
283.15
301.015
283.679
283.15
303.149
303.15
303.15
283.15
294.448
303.15
283.15
302.971
303.15
303.15
283.774
303.15
303.15
288.322
289.475
303.15
283.15
303.15
283.15
303.15
303.15
303.15
303.15
283.929
303.15
303.15
303.15
302.918
303.15
303.15
283.15
283.15
283.15
283.15
302.931
283.15
283.15
300.91
303.15
284.73
284.887
303.15
301.076
303.15
283.15
303.15
283.15
283.15
303.15
303.15
303.15
302.65
303.15
303.15
303.15
283.15
303.15
283.15
286.327
303.15
303.15
291.535
303.15
283.15
283.15
302.398
303.15
303.147
283.15
303.183
286.598
283.15
283.15
299.132
283.15
283.15
303.048
303.162
293.261
303.167
303.151
303.153
283.15
283.15
302.628
283.439
285.751
300.829
283.156
283.15
290.973
301.543
301.444
283.15
300.191
290.633
300.109
302.189
302.71
284.648
295.416
299.165
286.208
293.254
300.078
303.15
297.965
297.508
302.772
283.656
292.271
301.126
287.275
303.15
300.961
303.15
300.676
301.457
283.629
284.953
303.15
283.15
302.28
301.646
283.146
303.173
288.489
302.668
301.78
300.774
303.15
303.235
301.072
294.9
300.408
288.797
302.9
301.64
302.188
302.254
284.195
302.485
301.551
283.177
303.15
302.886
303.15
303.15
302.062
301.97
294.215
303.15
284.645
292.223
292.266
300.747
303.15
283.978
285.151
284.377
303.15
298.734
303.15
296.38
295.261
300.668
303.141
303.15
303.15
301.904
301.213
302.771
303.15
292.54
302.736
289.9
283.15
298.338
293.918
303.15
300.497
283.15
283.202
283.15
302.542
303.092
303.15
302.979
298.312
283.148
300.484
302.204
295.278
283.525
295.74
296.977
283.447
303.132
284.719
296.314
283.314
296.741
300.441
300.189
300.309
301.954
289.57
301.534
303.15
302.712
302.642
302.652
296.522
302.888
283.15
301.988
293.389
303.15
283.422
286.793
301.173
302.576
290.451
284.789
287.619
302.601
296.309
303.15
303.15
294.932
283.15
292.59
283.419
303.15
290.497
290.205
283.894
303.15
297.212
298.503
284.211
301.195
294.134
290.109
300.489
303.111
303.15
303.15
283.518
302.596
283.339
285.757
303.15
303.017
303.033
303.15
285.371
300.836
297.791
283.241
299.47
302.341
300.45
286.857
283.15
303.103
301.774
283.725
283.134
303.15
303.07
303.15
303.15
284.163
302.518
296.39
283.034
283.153
303.15
283.15
302.947
303.04
302.486
301.376
303.15
283.15
283.15
301.794
301.85
283.209
295.89
303.15
303.15
301.584
285.466
283.256
301.648
301.754
301.69
284.371
303.15
283.15
298.467
297.693
303.15
302.684
302.049
284.608
284.94
302.083
303.056
303.15
298.107
284.395
283.15
303.15
300.557
301.175
301.983
289.547
302.043
285.627
300.11
300.291
290.28
297.481
303.15
303.15
300.891
284.437
302.06
283.151
300.433
301.667
283.618
288.239
302.397
283.15
283.15
283.029
303.15
303.15
299.908
298.88
302.255
283.148
283.15
283.912
283.151
283.15
283.151
303.075
300.876
299.092
295.804
283.361
303.09
300.077
303.15
283.15
302.533
289.178
300.765
292.652
283.501
303.056
283.148
283.15
302.823
301.17
302.592
283.155
291.136
284.858
303.15
284.234
300.994
283.15
283.303
284.919
284.064
283.15
283.15
301.607
283.15
289.31
302.51
302.686
301.762
283.467
298.068
289.907
283.15
303.35
292.008
283.15
283.15
283.15
303.15
301.192
302.393
299.108
301.426
299.894
288.805
283.154
290.924
290.1
303.057
290.976
299.964
292.014
283.15
286.27
301.035
301.542
283.15
283.971
299.624
283.15
303.15
283.186
301.235
303.15
283.991
302.251
303.015
303.15
283.15
292.724
303.153
301.662
283.15
283.15
283.15
302.16
297.487
303.144
302.169
303.167
303.15
288.322
303.167
290.383
300.172
300.13
296.527
283.156
301.661
283.15
290.518
301.375
289.384
290.426
298.91
300.661
301.558
287.121
291.087
284.966
283.171
302.189
286.085
283.15
283.144
300.148
283.081
300.246
286.943
296.037
299.377
289.124
299.223
283.122
299.151
283.15
289.924
288.802
298.588
283.325
283.15
300.503
283.15
302.783
283.15
303.15
286.424
286.431
283.15
298.932
298.561
286.969
303.15
303.15
301.676
289.731
302.979
283.717
301.539
287.03
303.147
284.168
288.111
303.15
301.384
283.15
283.15
287.505
286.975
283.145
285.219
301.46
286.179
301.222
303.15
285.082
301.712
291.139
303.15
303.15
301.577
302.017
303.15
292.939
294.235
283.654
296.335
286.735
289.939
303.15
302.735
296.976
284.956
283.15
287.665
291.815
299.566
283.161
283.739
282.959
301.92
303.113
283.151
303.132
303.15
300.54
292.953
298.775
293.763
283.15
291.887
295.857
285.534
283.211
291.268
283.15
300.285
303.165
292.446
284.083
303.143
291.789
298.544
288.186
300.337
291.28
287.266
283.15
303.141
285.3
289.827
293.378
283.15
283.15
283.15
303.14
283.15
283.137
286.367
303.15
283.15
303.168
283.172
291.072
288.661
303.565
302.904
289.789
303.15
296.922
303.177
301.984
287.217
283.15
292.852
303.144
303.091
286.142
283.15
283.15
283.462
285.956
303.049
303.143
287.466
289.419
283.471
283.162
289.784
293.159
303.15
283.15
303.094
303.15
302.314
284.974
302.324
303.091
284.041
283.762
284.027
302.855
302.147
297.364
293.983
303.066
291.178
290.97
303.15
303.095
302.568
285.39
283.373
303.15
285.898
283.38
302.926
301.686
302.149
283.15
300.295
301.827
303.15
302.124
285.362
303.15
297.83
303.15
283.15
300.663
302.664
286.264
302.473
283.15
285.137
303
283.15
302.279
285.323
294.796
284.307
303.15
303.015
302.878
286.451
283.15
287.07
284.231
289.703
285.691
302.229
303.15
283.15
283.15
293.082
283.15
301.024
302.135
290.296
283.15
293.987
283.15
303.15
283.15
300.075
298.507
283.151
285.232
301.721
303.063
303.154
291.779
294.126
301.157
283.196
301.794
283.145
303.15
303.144
298.838
283.15
300.602
294.702
303.15
300.914
287.242
301.949
284.865
288.136
283.15
302.195
287.652
298.367
303.078
283.15
303.15
291.598
302.134
283.079
283.147
286.705
298.253
303.149
284.418
300.979
300.95
301.207
303.153
299.836
287.564
284.877
301.548
299.829
283.704
283.107
303.16
303.149
303.15
297.288
283.163
283.15
303.15
303.149
289.832
298.874
300.247
287.703
302.786
303.15
286.379
301.564
303.15
300.922
283.783
301.419
303.15
284.522
301.365
295.489
302.757
303.15
303.15
285.128
295.001
296.303
287.316
303.15
303.15
283.15
287.138
302.373
296.089
303.15
285.515
303.15
303.15
300.437
288.646
283.15
295.464
295.797
299.05
283.15
303.15
292.594
287.148
303.15
297.879
300.461
300.363
303.15
303.15
303.15
300.169
298.264
302.778
299.831
283.15
292.818
287.587
290.52
300.51
303.15
303.15
300.71
303.091
286.48
296.007
303.15
303.147
283.15
286.38
298.841
285.524
303.15
303.15
283.333
303.121
303.15
303.15
283.15
290.444
303.15
303.15
284.551
299.247
283.15
303.15
284.578
301.276
300.099
286.921
294.915
303.15
283.489
303.15
303.15
283.309
300.48
290.332
300.331
303.15
303.129
302.137
292.514
299.696
301.286
284.412
283.447
300.845
298.315
303.15
302.74
284.113
299.672
301.337
287.598
303.15
297.344
301.367
301.453
301.495
292.822
303.15
283.15
299.096
283.15
283.15
287.673
283.15
283.984
283.15
283.15
283.15
283.15
302.735
288.074
302.683
283.15
295.597
290.861
284.698
283.15
303.15
302.658
301.694
303.159
302.613
283.15
294.725
300.195
290.082
283.15
283.15
299.726
285.877
283.15
283.15
303.149
290.482
283.15
287.061
303.149
303.152
284.278
283.15
288.127
291.957
300.761
294.552
302.945
285.558
302.481
295.141
286.196
283.15
283.53
291.491
303.066
288.978
302.634
283.15
292.296
287.672
300.983
301.273
284.865
303.098
284.866
296.93
302.983
303.145
285.082
303.145
302.999
293.176
302.677
283.15
303.15
303.15
294.637
290.907
283.155
301.012
284.637
284.119
284.579
303.145
288.258
300.395
283.15
283.15
302.473
303.15
294.418
302.883
303.183
299.703
303.225
302.869
283.15
301.243
302.865
283.15
303.15
301.273
303.15
284.286
298.639
283.163
291.423
283.15
287.499
303.005
299.684
283.15
303.017
290.817
301.17
303.123
303.076
283.15
283.15
301.925
301.964
283.782
302.802
302.387
302.354
303.141
283.15
293.612
283.15
302.778
287.785
302.978
303.15
283.15
302.803
285.082
291.399
302.013
283.15
302.557
301.954
301.514
302.456
303.04
303.213
303.002
303.15
283.15
301.471
297.751
303.086
303.15
289.83
284.799
303.15
283.15
285.263
303.184
303.166
302.906
301.068
284.235
303.094
290.652
294.145
303.148
288.941
303.165
283.15
289.774
283.15
299.879
298.025
284.744
288.078
299.51
296.626
295.181
299.071
293.622
303.154
293.803
296.246
283.16
299.277
293.774
303.15
298.84
299.034
303.15
291.083
303.171
301.614
303.15
286.84
285.966
302.779
289.58
283.15
283.15
300.257
301.145
283.704
283.15
303.15
300.147
302.286
300.563
299.792
302.768
292.473
289.554
286.562
292.398
284.264
290.292
283.301
295.654
290.335
293.831
287.023
284.249
303.164
283.27
303.148
285.524
300.633
283.15
300.393
298.357
288.642
302.078
285.347
298.966
283.15
302.942
283.154
283.119
287.491
299.54
303.15
300.305
303.014
299.846
302.742
303.15
301.194
284.906
294.817
302.004
303.149
283.686
283.15
290.207
285.193
285.688
303.122
303.148
283.15
283.15
283.175
303.15
293.358
303.15
303.146
293.793
303.44
303.15
300.385
303.15
303.15
293.562
290.49
303.15
289.739
302.019
289.467
303.15
303.15
285.823
283.33
290.22
303.228
303.15
303.145
285.407
283.239
283.15
288.871
287.481
303.15
284.271
303.15
303.15
303.131
287.258
303.15
303.147
283.268
303.152
302.633
287.837
283.153
283.575
297.325
290.633
303.15
285.877
284.396
301.269
287.031
302.154
290.483
293.728
303.15
303.15
283.978
303.146
302.937
295.844
302.937
302.721
287.093
283.15
285.266
283.215
297.034
302.576
285.317
303.15
283.767
286.644
303.123
283.175
303.15
286.328
283.15
300.099
303.15
299.622
299.735
283.295
283.352
302.295
290.727
301.346
303.15
301.335
301.695
303.15
303.15
298.231
293.302
283.15
288.686
303.15
295.186
283.347
303.15
296.786
298.65
288.902
303.15
302.735
294.111
295.278
284.422
303.16
298.596
296.005
283.956
303.121
302.786
287.281
298.334
289.723
290.694
289.647
283.15
302.935
303.151
303.15
303.176
292.98
296.195
302.97
301.223
303.15
284.41
303.15
303.035
302.842
303.15
293.424
296.153
303.15
285.315
303.093
303.15
303.085
303.158
285.99
293.227
290.989
288.313
293.322
303.15
301.154
291.326
295.208
293.337
303.14
303.15
300.475
303.191
284.209
303.192
303.15
303.15
303.143
303.15
284.88
303.15
284.177
303.146
303.15
290.079
303.144
292.367
295.389
303.133
295.228
285.924
283.432
303.123
302.932
284.644
283.15
297.005
303.15
285.441
302.894
302.002
303.016
298.414
286.957
303.15
298.605
289.805
299.212
283.15
283.605
303.15
303.145
303.191
293.981
303.15
292.306
289.222
303.196
303.15
284.726
298.666
293.117
299.497
302.444
301.576
300.306
303.15
284.671
296.941
302.345
285.542
298.319
292.154
284.42
291.539
303.15
286.518
291.715
290.03
299.341
303.15
286.372
284.059
303.15
302.402
288.051
302.078
283.15
303.15
299.749
301.642
288.897
301.94
301.913
301.766
303.15
289.225
285.067
301.916
302.199
297.023
303.15
283.199
303.15
301.941
303.15
302.783
303.15
291.57
303.15
296.407
283.15
289.387
303.15
283.15
292.11
301.395
300.342
289.095
300.426
303.15
302.464
303.15
302.348
285.164
303.15
300.329
290.283
303.15
300.738
303.15
303.15
293.1
283.15
285.474
293.112
300.854
303.15
291.064
293.721
288.079
289.562
288.023
299.155