/*--------------------------------*- C++ -*----------------------------------*\
  =========                 |
  \\      /  F ield         | OpenFOAM: The Open Source CFD Toolbox
   \\    /   O peration     | Website:  https://openfoam.org
    \\  /    A nd           | Version:  10
     \\/     M anipulation  |
\*---------------------------------------------------------------------------*/
FoamFile
{
    format      ascii;
    class       surfaceScalarField;
    location    "11";
    object      phi;
}
// * * * * * * * * * * * * * * * * * * * * * * * * * * * * * * * * * * * * * //

dimensions      [0 3 -1 0 0 0 0];

internalField   nonuniform List<scalar> 
214403
(
-0.000467282
0.000358378
1.96926e-05
8.92111e-05
-0.000220524
-0.00074258
6.25232e-05
0.00090058
-0.000688266
4.60908e-06
-8.95745e-06
0.000692614
0.000615821
-0.000414062
-0.00103222
0.00083046
0.000827077
-0.0010452
0.000248232
-3.01052e-05
-0.000355416
0.00037029
-3.69135e-06
-1.11827e-05
-5.81056e-05
-0.000108358
-0.000616801
0.000783264
-0.00111285
0.000635426
-0.000166482
0.00064391
-0.00157251
0.0011082
0.00112005
-0.000655736
0.000955675
0.00011351
-0.00107062
1.43738e-06
0.000336624
-0.000669753
0.000137908
0.000195221
-0.00069755
0.0002172
0.000364458
0.000115892
3.25648e-05
-0.000775734
0.000934012
-0.000190843
-0.000660922
0.000664997
-4.07443e-06
0.000127379
0.000799212
-0.00102446
9.78645e-05
-0.000797545
0.000666321
0.00020055
-6.9326e-05
-0.000804449
0.000783119
2.13297e-05
0.000268012
-6.21361e-06
-5.48651e-05
-0.000206933
0.00104798
-0.000626601
-0.00139507
0.000973687
-5.23606e-06
-0.000214515
6.31116e-06
0.00021344
0.000442765
-0.000432387
-1.03787e-05
-0.000816605
-0.000282561
0.000280967
0.000818199
-0.000153366
0.000912777
-0.000735886
-2.35248e-05
0.000448693
4.5664e-05
0.000155498
-0.000649855
-0.000692019
-0.000338717
0.000895005
0.000135731
0.000638655
-0.000808619
4.98896e-06
0.000164975
0.000216975
-0.000189262
0.000714672
-0.000742386
0.000521105
0.000679899
-0.000820136
-0.000380868
0.000753021
-0.000471504
-2.13057e-05
-0.000260212
-0.000406657
0.000414495
-7.83768e-06
0.000163827
-0.000342584
0.000916384
-0.000737628
0.000923133
4.46192e-05
-0.000159091
-0.000808662
-0.000389271
-0.000399376
0.000408981
0.000379666
-7.92967e-05
-0.000447081
0.0003961
0.000130278
0.000289092
-0.000193912
-0.000623952
0.000528772
-0.000113933
0.000564226
-0.000203899
-0.000246393
0.00108546
-2.72726e-05
-0.00105818
-0.000456983
0.000898308
-0.000441325
7.85139e-05
-0.000988214
0.000576633
0.000333067
0.000164145
-6.55985e-05
0.000402015
-0.000500561
0.00037578
-3.92295e-06
-0.000371857
0.000693182
-1.44971e-05
0.000122455
-0.00080114
-0.000868442
0.000110146
0.000922441
6.0111e-05
5.85681e-05
0.000584141
-0.00070282
-0.000281221
-0.00182277
0.00176756
0.00033643
0.000393659
7.13938e-05
8.89807e-05
-0.000554034
0.000285478
0.00021672
-0.000699825
0.000197627
0.000890319
0.000531622
-0.000973248
8.23346e-05
0.000766869
-0.000156022
0.000126336
-0.000473368
-0.000278407
0.000625438
0.000214814
0.000330545
9.87186e-05
-0.000644078
0.000123302
-9.26116e-05
-0.000283425
0.000252735
0.000475733
-0.000861078
0.000600159
0.000805643
-0.000758438
-0.000258653
0.000211448
0.000736887
-0.000134817
-0.000564334
0.00076495
-3.05706e-05
-0.000170045
0.000588796
-0.000754933
9.38161e-06
0.000156755
-0.000548698
3.6205e-05
0.000876721
-0.000364227
-0.00102849
-0.000970407
0.000811854
0.00118704
-0.000548433
0.000552382
0.000107925
-0.000111874
8.70672e-05
-0.000701098
-0.000594881
-1.23668e-05
0.000309307
0.000297941
-0.000937409
0.000403051
0.000601989
-6.76314e-05
0.00106624
-0.000859543
5.5904e-05
-0.000262602
4.84838e-05
1.78837e-05
-0.000684473
0.000618105
4.02641e-05
-0.000205243
0.00100876
-0.000843781
-0.00238921
0.000257296
0.000269899
0.00186202
-0.000210753
0.00062884
-0.00020004
-0.000218047
0.000331447
-0.000173714
-0.00070775
0.000550016
7.67825e-05
0.000520824
-0.000654189
5.65825e-05
-1.05756e-05
0.000573473
0.000200128
-0.000763025
-0.000119539
-1.96955e-05
-0.000256586
0.00039582
-0.00062398
0.000680431
-2.50147e-05
-3.1437e-05
2.42353e-05
-0.000630196
-0.000441288
0.000390665
0.000118765
-6.81417e-05
-0.00110636
-6.99868e-05
0.000538158
0.000638185
-0.000338825
-0.000144352
0.00028823
0.000194948
0.000508869
-0.00170869
0.00023674
0.00096308
-0.000260138
0.000523655
-0.000285968
2.24508e-05
0.00036968
-0.000287211
3.54881e-05
-0.000117957
8.99061e-06
-0.000717906
0.000708916
2.44895e-06
0.000581633
-0.000584082
0.000501787
-9.81876e-05
6.64764e-05
-0.000470075
-0.000315044
0.000449597
0.000148898
-0.000283451
-0.00021886
0.000940516
-0.000226089
-0.000495567
0.000440386
-0.00075558
-2.58419e-05
0.000341036
0.000501697
0.00051326
-0.00101496
0.000736677
-0.000828072
0.000212939
-0.000121544
7.26819e-05
-0.000132098
0.00096002
-0.000900604
3.01055e-05
-0.000153798
0.000685901
-0.000562209
0.000166093
0.00144526
0.000414213
-0.00202557
-0.00125921
0.00110678
0.000719953
-0.000567518
6.02016e-05
0.000461181
-0.000617583
9.61999e-05
0.000599126
0.000663611
-0.000215908
-0.00104683
0.0011
-0.000668184
-2.1165e-05
-0.000410651
4.91487e-05
-0.000144137
-0.000452543
0.000547531
-0.000457153
2.58103e-06
0.000454572
0.000668268
2.30153e-05
4.53933e-05
0.000834756
6.70994e-05
-0.00127413
0.000372277
-0.000668111
0.000146854
0.00011886
0.000402397
-0.000432083
0.000107174
5.31523e-05
0.000271756
0.000102099
7.38723e-05
-0.000875742
0.000699771
-0.000175977
-0.00102454
0.000653276
0.000547237
0.000419743
-0.000497146
-0.000323566
0.000400969
0.000663428
-6.08216e-06
-0.000663533
6.18784e-06
0.000507441
-0.000718088
-0.000246811
0.000457458
0.00131635
-0.000398263
-0.000205074
-0.000713012
0.000737126
-1.91804e-06
-0.00067504
-6.01681e-05
-0.000393603
0.000461236
0.000955742
-0.00102338
0.000825427
-0.000289824
-0.000793713
0.00025811
0.000156184
-0.000228677
0.000993521
-0.000921027
-0.00105453
0.000959044
0.000912461
-0.000816972
4.94016e-05
-0.000852072
0.000328688
0.000473982
0.00106684
-5.64839e-05
-2.33419e-05
-0.000987015
0.000766788
-0.000149513
0.000147722
-0.000764997
-0.0009494
-0.000867365
0.00102591
0.000790859
-0.000168794
0.000484066
0.000131248
-0.00044652
-0.000362783
1.95507e-05
0.000701529
-0.000358297
-8.07159e-05
0.000916052
-0.00085003
1.4694e-05
-0.00082424
0.000765471
0.000148976
-9.02074e-05
-2.76274e-05
-0.000480788
0.00114707
0.00014621
-0.000484764
-0.000356379
0.000694934
-0.00038277
5.02694e-06
0.000377743
0.000117421
0.000533512
-0.000492976
-0.000157956
0.000873123
-0.000503926
-0.00013486
-0.000234337
8.48382e-06
-0.000265962
0.000257478
-0.000482789
-0.000130285
0.000182937
0.000430137
5.51364e-05
0.000305146
-0.000680472
0.00032019
0.00109542
-9.89633e-05
0.000428085
-0.00142454
7.38575e-05
-9.91565e-05
-0.00128648
0.00131177
8.39412e-05
-0.000371298
-0.000489755
0.000777112
3.12149e-05
0.000673814
-3.67609e-05
2.71855e-06
-0.000406061
0.000403343
0.000805873
-0.000299629
-0.000360035
-0.000488216
0.000406364
-0.000400938
0.000892815
-0.000744154
-9.14367e-05
-5.72246e-05
8.88457e-05
-0.000420046
0.000183672
0.000147529
-0.000714586
-0.000218716
0.00014703
0.000786271
0.000599927
-0.000975306
0.000642692
-0.000267312
-2.77171e-05
0.000886324
-0.000887162
2.85553e-05
-3.21831e-06
0.000820664
-0.000812481
-4.965e-06
-0.0011178
0.000892274
-0.00071629
0.000941812
0.000930901
-0.000900405
-3.04964e-05
-0.000878509
0.00117311
-0.000211126
-8.34768e-05
-0.000787077
0.000191863
-6.30494e-05
0.000658263
-0.00127906
9.66768e-05
0.000823236
0.000359152
0.000225037
-0.0003073
0.000171109
-0.000324621
0.000369454
0.000593888
-0.000638721
-0.000336578
-0.000151242
0.000192832
0.000294988
-0.00045802
0.000301223
-0.000579189
0.000735985
0.000137588
1.1574e-05
-0.00102767
-0.000469072
0.000468007
1.0649e-06
0.000496777
-0.000477205
-1.95726e-05
-0.000755094
-4.98264e-05
-0.000199468
0.000185904
-0.000999652
0.0011631
-0.000349352
0.000445141
0.000759003
-0.000968215
-0.000235928
0.000842213
-0.000917391
2.58957e-05
4.92822e-05
0.000473226
0.000116587
-0.000482481
-0.000107332
-0.00071888
-4.29875e-05
0.000947771
0.000426545
-3.088e-05
-0.000520084
0.000124419
0.000480616
-0.000411635
0.000474242
-0.000543222
-0.000803729
0.000153893
0.00109498
-0.000275455
-0.000381305
0.00126632
-0.000609562
-0.000388431
-0.00043531
0.000104861
0.00011769
0.000312626
-0.000818747
-0.000578607
-4.66477e-05
0.000930502
-0.000305247
8.67742e-05
0.000138863
0.000497293
-0.00072293
-0.000259106
0.000634647
-0.000375541
0.00020757
-0.00100502
0.000362141
0.000601036
0.000417677
-0.000901024
-0.000831865
9.96561e-06
0.00103663
-0.000214731
0.000147185
0.00012645
0.000394604
-0.000668238
0.000579305
-0.000580894
1.58825e-06
0.000210632
-7.95518e-05
0.000707101
-0.000838181
0.000736965
-0.00023234
0.000353429
-0.000858054
0.00141539
-0.000457114
0.00105499
-0.00201327
0.000221981
0.000413928
-0.000171624
-0.000464285
-0.000645041
0.000265609
0.000337273
4.2159e-05
0.000460784
-0.000347277
-9.50083e-06
-0.000104006
-0.00028699
-0.00036205
0.00105629
-0.000407251
-0.000517132
0.00067212
0.000267029
-0.000422017
0.00078003
-4.2651e-05
-0.000256763
-0.0011621
0.000766806
-6.27281e-05
-0.00111389
0.00102955
0.000478615
-0.000394272
0.000708999
-0.000800216
-0.000114086
0.000205303
0.000393101
-0.000715313
-0.000371382
-0.000417359
-0.000381941
0.000216306
0.000582995
-0.00060536
0.000190207
0.000600924
-0.00018577
0.000694928
-0.000660889
-0.000456134
0.000422095
4.26726e-06
-6.11976e-06
-0.000663096
0.000664948
1.91243e-05
-0.000602231
-2.14283e-05
0.000604535
-0.000167946
-0.000994227
0.000156647
-0.000574812
0.000516545
-9.83799e-05
-0.000385746
-0.000162293
-5.73209e-05
-1.01318e-05
0.000954913
1.08937e-05
-0.00229244
0.00161325
0.00116629
-0.000487108
-0.000683492
4.58936e-05
2.34706e-05
0.000614128
-0.000135373
0.00213893
-0.00252007
0.000516506
0.000109588
0.000168949
-0.000379127
0.00010059
-0.00146768
0.000791632
0.000107316
0.000568735
-1.60529e-05
-0.000952172
-0.000137654
0.00110588
-0.000389062
0.00144517
-0.0010012
-5.49143e-05
0.000650913
0.000941732
-0.00087223
-0.000720415
-0.000760354
0.000725458
0.000898612
-0.000863716
0.000308116
0.000430501
-0.000536103
-0.000202514
0.000304009
-0.000202632
-0.000487123
-0.00154436
-6.04234e-05
0.00126084
0.000343947
0.000463373
7.28542e-05
-0.000270618
0.000465642
0.000624628
-0.000576323
-0.000513947
-0.000774498
0.000172181
0.000753428
-0.00015111
8.92629e-05
0.000243721
0.000840128
-0.000908862
0.000892696
8.62748e-05
-7.01092e-05
0.000565452
0.000443941
-0.000399153
-1.58047e-05
-0.000112245
0.000527203
-0.000594845
-0.00012381
0.000333339
-0.00112444
0.000475087
0.000316018
3.38337e-05
0.000615247
-0.000680463
3.13817e-05
-0.000231241
4.47153e-05
-0.000214974
0.000401499
0.000958297
-0.000685616
3.13273e-05
-0.000544643
-0.00042805
0.000576028
0.000396665
0.00203655
-0.00218027
0.000714653
-0.000570931
-0.000400784
0.000497826
0.000200728
-0.00029777
-0.000969509
0.000418027
0.00084247
-0.000290989
-0.000387211
0.000563119
0.000722637
-0.000898544
0.00107614
-0.000416401
-0.000709209
4.94688e-05
1.85571e-05
-0.000258426
0.000628584
-0.000388715
-0.00010915
0.000108258
-0.000830973
0.000780271
0.000252291
-0.000835447
-0.000197115
0.000973502
-0.000801876
-0.000214614
0.000200626
0.000295007
-0.000703379
0.000207745
-0.000410469
-0.000750919
0.000668283
0.000493104
-0.000124142
-0.000323962
-9.65384e-05
0.000394455
-0.000418537
0.000902536
-0.000878454
9.49745e-05
-0.00107444
0.000979461
0.000367906
-0.000483798
0.000316519
0.000210434
0.000122488
0.000172788
-0.000505709
-2.09801e-05
-0.000928807
0.000949788
-0.000520012
6.90136e-05
-0.000168618
0.000619616
-6.44657e-05
0.000721623
-0.000653876
-3.28086e-06
-0.000485346
-0.000261523
0.000283392
0.000463477
-0.000177783
-0.000431705
-0.000395172
-0.000580724
0.000485217
0.000490679
2.22756e-05
-0.000595231
0.000997806
-0.000410415
-5.31961e-05
-0.000534195
0.000547663
-5.38549e-05
-0.000399693
-9.41148e-05
-8.16802e-05
0.000748484
-0.000938149
0.000271345
0.000479236
1.85223e-05
0.000233405
-0.000731164
-1.77236e-05
-0.000395634
0.000190967
0.00022239
-0.000280929
0.000365281
0.000703371
-0.000787723
-0.000959558
-0.000250142
-0.000271129
0.000889176
-0.000903864
2.37709e-05
0.00028153
0.000598564
8.29737e-05
-0.000303443
-0.000528935
0.000749405
-0.000399194
-0.000779234
0.000196605
0.000981822
-0.000349429
-0.00038609
0.000401404
0.000334116
-0.000916943
0.000882879
0.000935582
-0.000901519
-0.00012778
-0.000223199
-0.000671977
0.00102296
-0.000922871
8.6878e-05
0.000938168
-0.000102175
-0.000160824
0.000423148
-0.000262325
-0.000372348
0.000688615
-0.000518398
0.000202131
-1.39193e-05
0.00119087
-0.000446622
-0.000730328
-0.000437398
-0.000214733
0.000876913
-0.000224783
0.000135944
-0.00035681
0.00080679
-0.000585924
3.89265e-05
0.000551825
-9.67259e-05
-5.62082e-07
-0.000865139
0.000865241
4.59317e-07
0.00103295
-0.000182934
-0.00150957
0.000659556
-0.000953731
-9.3032e-05
0.00119023
-0.000143462
-0.000515542
0.000779189
6.40221e-05
-0.000327669
0.000452772
-0.000448013
-4.75876e-06
-0.000538915
5.27995e-05
-0.000462665
0.000948781
-0.000773276
0.00106543
-0.000215458
-7.66993e-05
0.000477503
-0.000198601
-0.000576788
0.000297886
-0.00093183
0.000937918
-6.08701e-06
0.000764977
-0.00110969
8.80157e-05
0.000256697
-0.000838899
-0.000231767
0.00144003
-0.000369366
0.000643264
-2.63691e-05
-0.000135165
-0.00048173
-0.000361817
-0.000613787
0.00137006
-6.26157e-05
-0.000897755
0.000541833
0.00141348
-0.00157657
-0.000149694
0.000312787
0.000395594
0.000188661
-0.00043707
-0.000410531
0.000427215
-1.66846e-05
-0.000159746
0.000896951
-5.88286e-05
-0.000678376
-0.00020219
0.000239519
0.00080067
-0.000837998
0.00053254
0.00125488
-0.000726363
-0.00106105
0.000921927
-0.00110613
0.000351586
-0.000167383
0.000792013
7.37601e-06
-0.000799389
1.56167e-05
0.000776861
-0.000792478
0.000888173
-0.00107273
0.000949532
6.90091e-06
-6.55599e-06
0.000712205
-0.00071255
1.68907e-05
0.00127298
-0.00126819
-2.16801e-05
-0.000103994
-0.000312224
-0.000638756
0.00105497
-0.000398004
-0.000234183
7.87634e-05
0.000755212
-0.00130854
0.000474568
-0.000620172
-0.000162464
0.000664766
0.000117871
-0.000757472
0.00083512
-0.000222995
0.000145347
0.000115266
0.000601309
-0.000204438
-0.000512137
-0.000283064
6.72545e-05
0.000488568
-0.000272759
1.81787e-06
0.000233597
-0.000296957
6.15418e-05
-0.000317343
0.000781021
-0.000452306
-1.13724e-05
0.000231126
-0.000735044
-0.000427913
7.7694e-06
-0.000680144
0.000672374
-0.000261469
-0.000250992
0.000116275
0.000396186
0.000375277
-0.000216363
-0.000158914
0.000933346
-0.000931373
-0.000186068
0.000184096
-8.89857e-05
-0.000578348
0.000535371
0.000131963
-2.43731e-06
3.27507e-06
0.00052624
-0.000527077
0.000263798
-0.000216755
-0.00083864
0.000791597
0.000607196
-1.52292e-05
-0.000591967
-0.000883531
-0.00057452
0.000852771
0.000605279
0.000501478
0.000779176
-0.00134327
0.00048717
-0.00017399
0.000273239
-0.000586419
-0.000196111
0.00019675
-0.00109567
0.00109503
0.000298237
-0.000588154
-0.000570871
0.000860789
-6.04635e-05
-0.000133423
0.000629232
-0.000435346
0.000438021
-0.000538362
0.000195043
-9.47019e-05
0.000251346
-0.000416197
-0.000402017
0.000566869
-0.000773903
0.000870238
-0.000228016
0.000131682
0.000910416
0.00116912
-0.00128971
-0.000789827
-0.000699604
0.000699625
-2.04839e-08
-7.92398e-05
0.000823493
-0.00102634
0.000282082
3.12557e-05
-5.1738e-05
-0.000792421
0.000812904
0.000759913
3.18035e-05
-0.000874246
8.25292e-05
-0.000340041
-0.000574468
0.000722582
0.000191928
-0.00082245
0.00116557
-0.000412626
6.95045e-05
-0.000323365
-0.000396959
0.000235561
-4.56456e-05
-9.83463e-06
-0.000550128
0.000605608
-0.00184294
8.84862e-06
0.000160274
0.00167382
7.1667e-05
-0.000460298
-0.000239065
0.000627696
0.00113295
-9.47399e-05
-0.000367898
-0.000670314
-0.000199604
-0.000438174
8.10954e-05
0.000556683
0.000333462
-1.1566e-06
-0.000332306
0.000547245
0.000290827
-0.000181603
-0.000656468
0.000415451
-0.000328627
0.000812093
-0.000898917
2.53243e-05
0.000865911
-0.000285887
-0.000605348
0.000203408
0.000294786
0.000634758
-0.000404448
3.07971e-05
0.00037365
-0.00052958
7.59301e-05
0.000139807
8.82387e-05
-0.000728431
0.000500385
-0.000687379
0.00100809
0.000304301
0.00104223
-0.000218943
-0.00112759
-0.000678959
0.000665088
-0.00105343
0.0010673
-9.92706e-05
-0.000497113
0.00017407
0.000422313
-0.000558633
0.00106033
0.000317375
-0.000377585
8.81177e-05
-2.7908e-05
-0.000348298
-0.00110248
0.000344154
0.00110662
0.000707182
-0.000704384
-1.0886e-05
8.08846e-06
0.000586518
-0.000684971
0.000145128
-4.66749e-05
0.000149004
0.000587872
-0.00104595
0.000309075
2.55722e-06
0.000496462
-0.00049902
0.000327165
-0.000837548
0.000659387
-0.000318932
0.00085539
0.000724644
-0.0012611
0.000241394
-0.000248021
-0.00114895
0.00115558
-0.000347803
0.000575358
-0.00115594
0.000928384
-0.000816581
0.000650998
0.000851022
-0.000685439
-0.00050623
0.000693269
-0.000447939
0.0002609
-0.000111716
0.000486454
7.94472e-05
-0.000454186
0.000235865
-0.00034361
0.000354146
-0.000246401
0.000465608
0.000173323
0.000153309
-0.00079224
0.00126468
-0.000857716
-5.37009e-05
-0.00035326
4.20929e-07
-0.000605594
0.000605173
0.000395859
-0.000575643
-0.00177132
0.0019511
-7.97824e-05
-0.000850344
-0.000255878
0.001186
-5.07102e-05
-0.000384369
0.000435079
0.000119014
0.000565139
-9.21393e-05
-0.000592013
-0.000155473
-0.000561111
0.000452951
0.000263633
0.000454424
-0.000380811
-0.000668493
0.00112047
-0.000873088
0.000255095
0.000269821
-0.000524916
0.000857997
-3.36365e-06
-9.82525e-05
-0.000756381
-0.00016748
-0.000285189
0.000452669
0.000297622
0.000197135
0.00168989
-0.00203446
-0.000712989
0.00105756
0.00025641
0.000546336
-0.000417887
-0.000384858
-0.000584746
0.00112743
0.000742446
-0.00128513
0.00067026
0.000232594
-8.88892e-05
-0.000813964
0.00109101
-0.000727393
0.000469409
-0.000833022
-0.000650025
0.000296084
-0.000823403
0.00117734
-0.00101242
0.00180127
-0.000701323
-8.7521e-05
-2.89778e-05
-0.000424014
-0.000585131
0.00103812
0.000817793
0.000339488
-0.000953241
-0.000204039
0.000445025
-0.00118773
0.000748568
-5.86532e-06
-0.00102498
-3.96202e-05
0.000668634
0.000395963
-0.000207501
0.000539367
0.000233843
-0.000565709
-0.000128632
0.000515509
0.000417154
-0.00080403
-0.0011116
0.000569823
-4.94619e-05
0.000591236
9.57112e-05
-0.000288045
0.000574594
-0.00038226
0.000470382
-0.000236659
0.000167904
-0.000401627
0.000440513
8.58215e-05
4.33253e-05
-0.00056966
-0.000642909
0.00069001
0.000255392
-0.000302492
-0.000154636
0.000831597
1.5974e-05
-0.000692936
0.00067471
-0.000395867
-0.0002616
-1.72428e-05
0.000568519
3.82612e-06
-0.000572345
0.000416158
0.000322308
-7.30664e-05
-0.000665401
0.000193881
0.000505242
0.000427794
-0.00112692
2.66174e-06
-0.000934181
0.000931519
-0.000495257
0.00189214
-0.000278103
-0.00111878
-5.76482e-06
0.000706231
-0.000700466
-4.64349e-05
-0.00050004
8.97563e-05
0.000456719
-0.000927653
0.000472335
0.000359821
9.5498e-05
0.000190207
0.000154269
-0.00108491
0.000740437
0.000541734
0.000855802
-0.000319835
-0.0010777
0.000832494
-0.000284812
-0.000796924
0.000249241
-0.00102573
0.000586277
0.00156441
-0.00112496
-2.73407e-06
0.00040856
-0.000408552
2.72654e-06
-0.000421769
0.000417337
4.43147e-06
-0.00104003
1.47803e-05
0.000440501
0.000120134
0.000254027
0.000695721
-0.00106988
0.000538062
-0.000639187
0.000412977
-0.000311852
-0.000541293
0.000474036
-1.78907e-05
8.51475e-05
-0.000106773
-0.000882342
0.00112671
-0.000137597
-0.00039957
0.000192413
0.000632499
-0.000425341
0.000679665
-0.000261197
9.77254e-05
-0.000516194
-0.000438582
-7.63557e-05
0.000513374
1.56436e-06
-7.90763e-05
-4.19822e-06
0.000751099
-0.000667825
9.03422e-05
-7.82651e-05
0.000732679
-0.000744756
-0.000660057
0.000923772
-0.000968411
0.000704696
3.40997e-06
-0.000829647
0.000826237
-0.000293867
2.47734e-05
0.000743944
-0.00047485
-0.000556705
0.000650833
-0.000887486
0.000793358
-0.000572076
4.40175e-05
0.000171679
-0.000268284
0.000728337
4.02472e-05
-0.000500301
-0.000193022
2.74714e-05
-0.000322665
-0.000286165
-0.000931305
0.000936288
0.000281182
-0.000413325
-4.95279e-05
-0.00010343
0.000566283
-0.0014265
0.000481018
0.00014495
0.000800536
-0.000439649
0.00103646
-0.000521204
-7.56033e-05
0.000306763
0.000120381
-0.000620165
0.000605441
0.000611466
-0.00121691
8.51278e-05
0.00136216
-0.000315591
-0.0011317
-1.77298e-05
-2.48578e-05
-0.000615926
0.000658513
-0.00065692
0.00107839
-0.000433446
1.1974e-05
0.000620038
-0.000389181
-0.000562445
0.000331587
0.000158488
-2.11916e-05
0.00019423
0.000952316
0.000261838
-0.00137304
0.000158887
-0.00065803
-8.28514e-05
0.000215117
0.000525764
0.000244772
-0.000273906
-0.000367825
0.00114802
-0.000771056
0.000602496
-0.000979462
-0.000130357
0.000743005
-0.00128387
0.000671217
0.000432389
-0.000548877
-5.53697e-05
0.000171858
-0.000482536
-0.000167824
-1.63474e-05
0.000666707
-0.000359224
-0.00033613
0.000695354
9.22637e-05
-0.000988688
0.000874802
2.16227e-05
0.000365858
-0.000356706
-0.000368376
-0.00061377
0.000777613
-0.00014834
-1.55034e-05
0.000868097
0.000238034
-0.000934193
-0.000171938
-0.000337496
-0.000495387
-5.68131e-05
0.000889696
0.000574637
-0.000174604
0.000666218
-0.00106625
-0.000625169
-3.48883e-05
-0.000726097
0.000389967
9.42524e-05
-0.000819803
0.000262141
0.000463409
0.000243804
-0.000868166
0.000475218
0.000149143
0.000129379
3.37231e-05
-0.000648204
0.000485102
9.73176e-05
0.000421351
-2.95931e-05
0.000753992
-0.000149082
-0.000575317
-0.000294118
-3.25055e-05
-0.000275708
0.000602332
-0.000175136
-0.000235873
0.00045105
-4.00413e-05
-0.000686562
-5.45761e-06
-0.00112422
0.000405302
0.000590286
0.00163111
-1.42281e-05
0.000226018
-0.0018429
-0.000715363
0.00110959
0.000225351
-0.000619579
-0.000204685
0.000111384
0.000706079
-0.000612778
8.37734e-05
0.000237666
-0.0001839
-0.000137539
-0.00122738
-0.000251705
0.00105969
0.000419399
2.78364e-05
0.000534047
-0.00010746
1.71323e-05
0.000260859
-0.000818973
0.000540982
-0.00049902
-1.75121e-06
0.000183972
0.000316799
-0.000716531
0.000885266
-0.000140899
0.000403153
-0.00036337
-3.97828e-05
-0.000585407
8.13325e-05
-0.000454985
0.000959059
-0.000269328
0.000405076
-0.000312234
0.000176485
-0.000579701
0.000652101
-0.000269484
0.000197084
0.00025145
-4.17547e-05
-0.000587
0.000377304
-0.000259399
0.00162705
-0.0021901
-0.000225179
-0.000157302
0.000153983
0.000228497
0.000750876
-0.00117405
-5.38113e-05
0.000476981
-0.000311577
0.000232377
0.00040079
-0.000321591
-9.37445e-05
0.000492912
-0.000135099
-0.000264069
-0.000554038
0.000122991
0.000129534
0.000301514
-0.000322636
2.76744e-05
0.000294962
0.000711171
-0.000338646
-0.000360759
-1.17654e-05
5.45821e-05
0.000371348
-0.000563704
0.000137774
-0.000380686
-0.000461129
0.000470289
0.000371526
-0.000202844
0.000517559
-0.000442565
0.00012785
0.000183979
-0.00034842
0.000240024
-7.55831e-05
0.000680226
1.84969e-05
-0.000698723
0.00058798
-0.000726969
0.000361088
-0.0002221
-0.000920942
-2.69409e-05
0.000947883
0.000372356
-0.000308986
7.2077e-05
-0.000135446
-2.97952e-05
0.0006494
-0.000708554
8.89488e-05
-0.000320785
0.000401605
0.000103159
-0.000373226
0.000799787
0.000739011
-0.000615994
0.000608559
7.43584e-06
1.11768e-05
-0.000972925
0.000961748
0.00131868
0.000157603
-0.000279171
-0.00119712
0.000276185
-0.00108207
-0.000132384
0.000938268
0.000205835
0.000242801
0.000139175
-0.000587811
-0.000372162
-0.000371077
5.64103e-06
0.000737598
-0.000177362
0.000242427
-0.000437228
-0.00079602
0.000145752
0.0010443
-0.00039403
-0.00158513
0.00116062
0.00051174
-8.72371e-05
0.000705806
3.72862e-06
-0.000709535
-0.000411288
-0.000553447
0.000357844
0.00060689
-0.000395569
-0.000570031
0.00016958
-0.000573804
0.000312004
0.000359117
0.000236466
-0.000307809
-0.000563991
0.000635334
-0.000389905
2.83301e-07
0.000389621
-0.000930284
0.000377651
0.000384799
0.000167835
0.000229905
-0.00061698
-0.000186728
0.000778021
-0.000248965
-1.78387e-05
-0.000511218
-0.000537412
0.000891623
0.000526121
-0.000880332
-0.000163258
-0.00033858
0.000129318
0.00037252
-0.00022082
-0.000177617
0.000398437
-0.000389735
-0.000820093
-0.000375298
0.00018956
2.43423e-06
0.000382554
-0.000574549
0.000759964
-0.000553806
-0.000799511
0.000593354
-0.000281686
0.000100754
0.000568851
-0.000387919
0.000522655
-0.000367889
-5.19232e-05
-0.000102843
-0.000598827
9.71896e-05
0.000467869
3.37686e-05
-0.000369981
0.000848444
-0.000925153
0.000360783
2.67605e-05
0.000537609
0.000881009
-0.000710856
-0.000549916
0.000379762
-0.000705124
0.000147155
0.00131793
-0.000670857
-0.00044317
0.000722102
0.000391925
-7.88477e-05
0.000698257
-0.000264745
-0.000354664
4.03883e-05
-0.000425234
-0.000285436
0.000670282
0.000795191
-0.000524482
-3.2305e-05
-0.000238404
0.000250967
0.000186784
-0.000615113
-0.000167163
0.000189118
0.000466675
-0.000488629
-0.000142743
0.000736395
-0.000908471
0.000314818
-0.000454648
0.000109656
0.000110069
0.000234923
-0.000964413
0.000977793
-1.33805e-05
0.000668903
-0.000659519
-9.384e-06
0.000286502
-0.00109216
-0.000420739
0.0012264
0.00023258
0.000440546
0.000104895
-1.11252e-05
0.000387575
-0.000376449
0.000683626
0.000606379
-0.00129001
-0.00069134
0.000422019
0.000298342
-2.9021e-05
-0.000388296
0.000127984
0.000315628
-5.53164e-05
-0.00118207
0.000552934
0.000648378
-1.92415e-05
-0.000375917
-0.00041957
0.000405582
0.000606776
-9.77557e-05
-0.000388906
-0.000120114
-0.00063948
0.000688714
-0.000419215
0.000115817
-0.000735253
-3.67562e-05
0.000656192
-8.48897e-07
-0.000368349
0.000369198
0.00177697
1.00433e-05
0.000191832
-0.00197884
-6.83268e-05
-0.000133928
-0.00098587
0.00118812
0.000302768
-0.000409985
-0.00018943
0.000296647
0.000119042
0.000918544
-0.000370753
-0.000666834
0.000994018
-0.000992798
-1.02572e-07
-1.11763e-06
-0.000561119
-0.000505754
0.000790866
0.000276007
0.000327211
0.000247509
-0.000649506
7.47864e-05
4.21183e-06
0.000607139
-0.00062003
8.67897e-06
-0.000834993
0.0002697
0.000676399
-0.000111107
0.000626253
0.00037826
-0.000633786
-0.000370728
1.50488e-05
-0.000571956
0.00028493
-0.000146692
0.00085578
-0.00045255
-5.88864e-05
-7.05853e-05
0.000582022
-0.000776247
4.07694e-05
0.000735478
0.00113266
0.00048828
-0.000367039
-0.0012539
-0.000738092
1.60161e-05
0.000737125
-6.5927e-05
-0.00017129
-0.000438372
0.00067559
-8.02031e-05
-8.86011e-05
-0.00023963
0.000408434
0.000184813
-0.000938967
0.000708234
4.59198e-05
0.000580566
-9.09621e-05
-0.000565078
7.54741e-05
-0.000701884
0.000141608
4.16204e-05
0.000518655
-0.000274527
0.000181921
-0.000382233
0.000474839
0.00015785
0.000106335
-0.000937231
0.000673047
3.31059e-05
-0.000629857
-4.4636e-05
0.000641387
0.000623357
8.37184e-05
-1.26909e-05
-0.000694384
-0.000748087
0.000172774
0.000677411
-0.000527707
-0.000697028
0.00122474
0.00102948
-0.000520714
0.000225251
-0.000734022
8.13596e-05
0.000573669
-0.00035226
-0.000839616
0.000151692
0.000299085
0.000388839
0.00103406
-0.0010752
4.11431e-05
-0.000643015
-0.000217994
0.000449928
0.000411081
-0.000823348
-0.000639495
0.000429184
0.00103366
0.000831226
-0.000868203
-0.000106476
0.000143453
-0.000120188
0.000404004
-0.000318608
3.47927e-05
-0.00104455
0.000342854
0.000238905
0.000462795
-0.0015546
0.00192541
0.000332405
-0.000703213
0.000692346
-0.00150804
-8.56606e-05
0.000901354
-0.000618022
0.000800227
-0.00147404
0.00129183
-0.000643588
0.00141
0.000142469
-0.000908878
5.76447e-05
0.000679391
-0.000160813
-0.000576223
0.00102977
-0.00077252
-2.62259e-05
-0.00023102
-0.000178085
-0.000170878
0.000261293
8.76699e-05
-0.000478806
-0.00100526
0.000859999
0.000624069
-0.000690155
0.000918988
0.000800932
0.000578377
-0.00042509
-0.000529841
0.000376554
0.000204257
-0.000264338
-0.000116765
0.000176846
0.000451574
-0.000446419
-0.00059599
0.000590835
-0.000183464
0.000526353
-3.81379e-05
-0.000304751
-0.000739818
-0.000120597
0.00091806
-0.000549941
-0.000135172
0.000679847
5.2662e-06
0.000234863
-0.000524739
0.000289876
0.000184213
-0.000243147
0.000901375
-0.000842441
0.000752527
-0.00106009
0.000156803
0.000150755
0.000460047
-0.000495018
3.49714e-05
-0.000709693
1.95381e-05
0.000626981
-0.000239304
-0.000605512
0.000217835
0.000196942
0.000156877
0.000686276
-0.00104009
0.000450338
-0.000488699
3.83613e-05
-5.30261e-06
0.000543006
-0.000613849
7.61451e-05
-0.000781816
-7.41111e-05
0.00104014
-0.000330871
-5.66351e-05
7.64583e-05
0.000311048
4.57107e-05
-0.000378319
0.000279181
5.34267e-05
0.000619879
-0.00059338
-0.000146687
7.4278e-05
0.00106292
-0.000671546
-0.000465654
-0.000358501
0.000752299
-0.000393797
-0.000972259
0.000372497
-0.000226491
0.000826253
0.000752818
-0.000681149
-0.00111622
-0.000382127
-0.000456599
0.00157007
-0.000731341
-0.00109623
0.000699307
0.000995051
-0.000598128
-2.12409e-05
-0.000928848
0.000950089
0.00147576
4.91301e-06
-0.000852233
-0.000628444
0.000860883
-0.000554577
-7.65991e-05
-0.000229707
-0.000626477
0.000441534
-0.000108798
0.000293741
6.81245e-06
-0.000641404
0.000634592
-0.000461591
0.00047509
-1.34989e-05
-0.000342257
-0.000362717
-0.000927642
0.00163262
-0.000869594
0.000188636
-9.60904e-05
0.000777048
0.000207071
0.000335909
0.000931168
-0.000840814
-0.000692815
0.000602461
-0.00024869
-0.000512305
0.000564982
0.000196013
-0.000515972
-0.000261917
0.000778622
-7.32863e-07
0.000180092
-0.000102044
-0.000502426
0.000424379
0.000569162
2.58234e-05
-0.000727429
0.000132444
0.000175308
-0.000122117
0.000193085
-0.000232892
0.000231922
-0.000192115
0.000469352
0.000457304
-0.000468242
-0.000458414
0.000229335
0.000535333
-0.000553293
-0.000211376
0.000476836
0.000206724
-0.000376796
0.000602201
-0.000728574
0.000152197
-0.000800641
0.000561182
0.000301277
-6.18186e-05
0.000935648
-0.000312138
-0.000982011
-0.000251859
0.000668225
0.000336452
0.000660889
-0.000320606
-0.000557987
-0.000153632
-8.90226e-05
-0.000888876
0.00083082
7.84769e-05
-2.04212e-05
-5.53846e-05
0.00110965
-0.000114461
-0.000939809
-0.00071538
0.000145539
0.000317981
-0.000113922
-0.000719304
0.000202267
0.000630959
0.000664258
9.17577e-05
-1.39133e-06
-0.000754625
-0.000986994
-5.70277e-06
4.62445e-06
0.000988073
-0.00026162
0.000283062
-0.000466948