/*--------------------------------*- C++ -*----------------------------------*\
  =========                 |
  \\      /  F ield         | OpenFOAM: The Open Source CFD Toolbox
   \\    /   O peration     | Website:  https://openfoam.org
    \\  /    A nd           | Version:  10
     \\/     M anipulation  |
\*---------------------------------------------------------------------------*/
FoamFile
{
    format      ascii;
    class       volScalarField;
    location    "11";
    object      SgRate;
}
// * * * * * * * * * * * * * * * * * * * * * * * * * * * * * * * * * * * * * //

dimensions      [1 -1 -3 -1 0 0 0];

internalField   nonuniform List<scalar> 
111485
(
1.86236e-09
4.71454e-07
5.15147e-07
5.0495e-12
1.63822e-07
2.51419e-09
1.76542e-07
3.85365e-08
1.08251e-07
2.81752e-08
3.41125e-07
2.48779e-08
1.08273e-07
0.005031
8.07755e-08
3.24672e-07
0.00375874
1.85512
3.13224e-08
2.37018e-08
0.000692754
1.90897e-10
5.86604e-08
2.47727e-07
5.87765e-07
2.22293e-09
2.01572e-08
9.0177e-10
4.67229e-08
0.000902686
1.44952e-06
2.05341e-08
6.39149e-09
2.55487e-08
0.00373257
1.80201e-06
0.00258108
0.00373023
4.25234e-05
8.08177e-08
0.00072233
1.92085e-08
6.78053e-08
1.96488e-06
0.0350062
3.91002e-08
1.38042e-07
1.62809e-08
1.03411e-07
1.43055e-08
2.98165e-08
3.54535e-07
1.02886e-08
1.98205e-07
3.46687e-08
8.84547e-09
3.7289e-08
4.18557e-10
7.63406e-07
1.14034e-08
2.21354e-08
5.82101e-09
1.0349e-07
3.26979e-07
1.50184e-07
1.69393e-08
0.181672
1.64143e-08
9.78279e-08
2.36431e-07
0.0114207
2.86636e-08
2.13272e-07
1.69073e-07
5.78022e-09
8.28774e-09
1.09626e-09
1.39422e-08
2.00063e-09
5.20456e-07
0.00496897
0.00956737
9.33408e-10
2.17619e-09
1.08678e-08
4.05927e-07
0.00249064
1.57501e-07
0.000847528
2.16805e-08
2.86782e-06
9.44799e-08
1.71672e-08
7.02883e-09
2.77501e-08
4.24633e-10
0.000505059
2.85984e-07
0.00146156
7.73879e-06
5.01549e-10
5.24049e-08
3.54584e-08
2.2981e-07
6.66202e-08
2.61602e-07
1.92336e-10
1.28442e-08
3.6086e-08
1.17559e-05
1.46556e-09
2.92955e-08
1.65437e-07
1.30186e-06
5.62952e-09
1.65327e-09
1.54175e-09
1.64877e-07
6.43193e-08
1.56396e-10
1.125e-09
3.3503e-06
0.00124899
4.51686e-08
7.59012e-07
0.000725634
1.97225e-06
7.58627e-09
1.75298e-11
5.89108e-06
5.76517e-06
3.98103e-07
0.000884785
3.15766e-06
1.47696e-06
7.19376e-09
2.05978e-10
2.37839e-09
1.14273e-07
8.69142e-08
1.40735e-06
2.20938e-09
0.00317841
1.20486e-06
5.35909e-07
3.80535e-08
2.35631e-10
8.28433e-10
2.22244e-09
2.36465e-08
4.98644e-07
0.000530723
0.00212468
1.09848e-07
1.18202e-06
6.36535e-09
3.24028e-08
9.76808e-07
1.60093e-05
1.09078e-07
6.64219e-11
5.86502e-09
7.90689e-07
1.12146e-06
1.35306e-06
2.3414e-08
1.07546e-07
0.000451772
2.72508e-05
2.77905e-06
4.09885e-11
2.08504e-09
0.00355013
2.75393e-11
3.44276e-09
1.45279e-09
8.02871e-09
1.63116e-07
4.028e-09
9.73519e-08
1.49044e-07
4.97426e-09
1.24004e-08
1.16377e-09
3.88358e-08
4.16227e-07
2.06418e-07
1.25522e-08
6.28343e-06
5.79898e-09
3.42689e-08
9.0499e-08
1.31589e-07
1.62819e-09
1.26702e-07
2.52865e-07
1.7994e-08
3.87591e-10
2.00858e-08
3.66554e-08
2.61362e-08
3.18086e-05
1.682e-06
2.82979e-09
3.05505e-08
1.43196e-08
1.98634e-07
2.00989e-07
2.75582e-07
6.17303e-08
6.09731e-08
1.38212e-08
1.42559e-07
1.06313e-10
4.11295e-08
5.03576e-06
8.63119e-09
2.95432e-10
1.24493e-08
1.08029e-09
1.79819e-08
1.35314e-09
3.38716e-09
2.71469e-07
5.03505e-06
1.16138e-10
2.23684e-11
1.49957e-05
7.34272e-05
4.11369e-07
2.3168e-06
1.07147e-09
4.17027e-09
0.00243737
6.48406e-07
2.51007e-07
0.00304069
1.38166e-09
1.97244e-07
9.06415e-09
5.71145e-09
3.37418e-09
6.03634e-09
7.49337e-08
3.44698e-05
5.93763e-09
1.44422e-07
1.44012e-09
1.00781e-07
0.00230012
3.56762e-07
3.46053e-09
1.21301e-08
2.55597e-11
3.62064e-06
1.53292e-08
5.70908e-09
1.5531e-06
0.00586213
1.57027e-09
7.08698e-10
9.1249e-09
1.71623e-08
6.55572e-11
1.04056e-08
1.54402e-11
9.69441e-10
1.24518e-08
0.00297087
5.83808e-08
8.60502e-09
3.14109e-08
0.00318854
1.44926e-08
3.06434e-08
4.15177e-06
4.27325e-09
8.74147e-09
9.51756e-09
1.82816e-09
0.00202403
3.15558e-09
8.16556e-07
3.46181e-09
2.72052e-11
0.00379771
0.00470822
1.86831e-09
4.7609e-06
5.97281e-07
6.76876e-09
2.02107e-09
2.51286e-07
1.64568e-10
1.61218e-07
2.92945e-10
6.34833e-06
7.79492e-06
6.34937e-05
3.88726e-08
0.00601957
6.05737e-09
0.00144089
1.19246e-08
3.33148e-08
2.56231e-10
2.20417e-09
0.000461967
1.76239e-09
1.55391e-08
1.05879e-07
8.12557e-07
1.66624e-08
4.43552e-07
7.72977e-10
3.91557e-09
1.08068e-08
9.25218e-05
0.00447864
6.97531e-06
1.3197e-05
1.70855e-10
1.02262e-09
4.48821e-10
1.48839e-06
1.12737e-08
1.41955e-08
5.71652e-08
2.48268e-09
1.31894e-06
0.00112866
9.20194e-08
2.60496e-09
5.08275e-08
3.77461e-09
0.00079557
9.21924e-07
1.07582e-08
4.67725e-09
4.86902e-09
3.33739e-06
2.63594e-09
0.00264313
3.59515e-06
5.799e-09
2.10961e-09
6.41301e-06
1.54898e-08
0.000652033
7.71109e-09
4.82085e-09
1.14237e-07
8.16469e-09
4.83034e-07
1.75628e-07
6.85937e-09
9.12778e-09
2.13792e-08
6.80032e-08
0.00617615
4.41989e-07
6.50924e-09
0.00088229
4.48633e-07
4.19545e-10
8.77514e-09
6.63943e-09
0.000880113
0.168316
0.000856222
0.000824261
1.72951e-09
2.1656e-10
2.37153e-08
1.82466e-08
3.47529e-11
6.12921e-08
6.60481e-09
2.87835e-07
7.8164e-09
1.92968e-06
9.1062e-09
1.42805e-05
3.14011e-08
3.46315e-08
8.71209e-07
1.23061e-08
1.42948e-05
5.51642e-09
2.93464e-07
5.57843e-08
0.000503796
1.99468e-09
1.55997e-08
0.00267899
1.21414e-07
0.00561997
7.80156e-09
2.47561e-07
4.41689e-08
1.32849e-10
1.10184e-07
1.20014e-06
1.81822e-09
0.000596925
4.74008e-08
4.22367e-08
1.66336e-08
3.2766e-10
0.000181659
3.61973e-10
8.1841e-08
6.68738e-08
1.29547e-12
9.77176e-09
9.13102e-07
0.00439244
2.04932e-06
3.83415e-11
1.4418e-06
2.05442e-06
1.75752e-06
8.16978e-07
1.34543e-05
6.62459e-08
0.306244
9.26249e-07
0.00351297
0.0999906
3.83062e-09
1.50318e-07
2.8254e-08
1.94482e-09
2.42953e-05
3.30224e-06
1.39345e-06
3.9088e-08
3.25906e-08
2.61103e-07
3.65912e-09
0.00603174
2.9267e-08
6.72822e-07
0.0699567
1.68273e-06
0.0279735
1.23018e-09
0.00449311
0.00567758
4.11712e-10
7.1147e-07
5.53414e-06
1.99027e-06
6.19646e-11
5.345e-07
4.00944e-10
0.00535848
1.18685e-06
3.6847e-07
2.30976e-06
5.2815e-07
4.64666e-09
6.00084e-08
1.35126e-08
1.25403e-06
2.9358e-09
1.79406e-08
0.000977554
1.41851e-06
1.80174e-09
2.01305e-09
7.32341e-06
1.53754e-09
3.14539e-08
8.0242e-08
6.74837e-11
1.05521e-06
1.66635e-09
0.00138477
8.4731e-09
4.4709e-08
3.12203e-09
3.95705e-06
8.87462e-09
0.00420843
3.47281e-07
0.00421625
5.39539e-10
1.23798e-06
4.68565e-08
6.04807e-11
0.00640234
0.00248738
5.85283e-07
0.000301275
5.60239e-07
2.18047e-08
3.07277e-07
6.64222e-09
5.63044e-07
0.00506422
1.05623e-09
2.23542e-08
1.92959e-06
3.66942e-07
0.000986803
1.32963e-07
2.00354e-06
2.25891e-08
2.71848e-08
0.000276805
0.00136538
1.37505e-07
9.3988e-09
3.00291e-08
1.03827e-07
6.03228e-08
2.31082e-08
4.00532e-07
2.12246e-11
0.00132189
4.72039e-09
6.46455e-09
4.78979e-09
1.64486e-06
4.8125e-10
1.73137e-07
4.13014e-09
1.37866e-07
1.29484e-09
0.00201694
0.00215237
7.44051e-09
3.25497e-09
0.00108554
0.00174272
5.59874e-09
4.16002e-09
2.71816e-07
3.72747e-09
1.74069e-06
2.93374e-07
2.5747e-07
0.00079545
3.04281e-08
8.81091e-11
8.17169e-07
0.161613
1.27378e-06
2.37929e-08
4.13531e-07
3.07432e-07
2.26084e-08
1.87721e-08
4.30708e-07
7.36434e-07
1.29058e-10
0.00225826
1.61926e-06
9.59937e-07
3.44435e-08
0.00154502
6.22295e-07
9.20324e-06
0.000184522
3.43804e-05
6.04519e-08
1.761e-06
2.7414e-07
5.13473e-07
0.00195672
7.42281e-05
1.30913e-06
0.00397441
0.414659
5.99616e-09
9.98439e-07
8.1362e-08
6.0998e-07
1.06985e-10
0.000130445
0.000717796
0.00329302
2.97874e-06
5.77135e-07
2.09254e-08
6.38635e-09
3.47165e-06
3.75553e-08
1.51157e-09
5.28098e-11
9.05737e-09
7.6495e-10
4.33743e-07
3.01763e-11
0.000651098
3.12763e-07
9.78632e-09
0.00181279
0.00587882
1.01734e-06
5.57011e-09
0.000691306
6.91687e-10
4.69114e-07
3.29567e-09
9.93917e-09
7.98061e-07
2.44977e-07
0.00208068
5.88914e-07
3.18535e-11
6.43158e-08
0.048834
0.00250072
1.54445e-07
5.72452e-07
1.03586e-05
0.00344127
0.000696104
5.41662e-08
3.76614e-07
1.31935e-07
7.06378e-09
1.42909e-07
2.01665e-08
4.73879e-07
1.03313e-07
4.44052e-08
2.15249e-08
7.60464e-08
1.32802e-05
5.43708e-07
8.78688e-08
1.056e-07
1.22609e-05
2.43787e-10
1.33715e-08
2.03403e-07
9.5615e-08
3.25149e-07
1.57689e-09
7.00426e-08
5.48742e-08
6.45717e-07
1.29002e-05
3.14017e-07
5.87154e-07
3.2127e-09
9.53191e-09
3.49223e-07
9.93217e-08
2.16128e-09
0.00129591
5.91411e-10
0.00249149
1.00759e-06
0.0127787
1.33806e-08
0.000492515
8.18391e-08
2.84152e-07
3.07164e-10
2.07776e-07
6.00325e-09
4.14045e-10
1.96216e-08
0.00509435
1.90089e-06
5.61675e-07
0.000762504
2.27859e-09
3.72115e-10
1.188e-07
1.99458e-09
1.48649e-06
1.21397e-08
2.39158e-06
6.48487e-10
1.76731e-07
2.54217e-06
0.00287156
1.11636e-11
3.68962e-09
3.26607e-08
1.75086e-08
2.26567e-06
9.10263e-09
0.00104532
2.1691e-11
1.12902e-09
4.43504e-09
0.000759236
1.41424e-07
1.67168e-06
1.83886e-11
2.72551
0.522455
0.00312031
2.53228e-10
2.58096e-09
8.3268e-08
6.74698e-07
7.45804e-07
1.00351e-05
0.00811773
3.74549e-06
3.47765e-10
0.0010538
5.6446e-07
2.77828e-08
1.45572e-09
2.46349e-08
4.87491e-09
3.73328e-09
1.14168e-09
2.53321e-11
4.50439e-08
1.36294e-09
8.49741e-09
1.91829e-08
2.82026e-09
1.52803e-09
4.93946e-09
1.49201e-08
3.83582e-09
1.52317e-09
9.69607e-09
8.85007e-09
6.98857e-10
1.81812e-09
2.1474e-11
1.14742e-06
3.98236e-09
8.32257e-09
2.84573e-09
8.2011e-11
2.09728e-10
4.35645e-11
3.38662e-07
2.06495e-09
1.17238e-08
4.057e-07
2.28667e-10
1.13743e-09
1.54182e-06
6.91258e-08
4.13437e-09
0.192404
2.77269e-09
0.00457495
1.92564e-06
2.35277e-07
0.00376353
1.47034e-06
1.11606e-09
4.42602e-07
2.45383e-09
3.45344e-07
0.00169433
0.642554
3.87322e-10
3.91181e-09
2.69643e-07
1.6038e-06
2.00376e-06
1.42466e-06
8.66789e-11
4.7343e-13
1.00858e-08
6.6472e-07
6.11903e-08
6.66422e-08
1.76858e-06
1.41716e-09
1.84064e-09
8.2296e-10
2.86915e-09
0.000558364
2.0105e-07
2.74047e-10
2.06788e-09
8.90618e-07
0.0466001
3.38366e-08
8.19127e-09
0.000760039
3.61619e-11
8.61345e-10
0.00106042
6.46599e-10
0.00125109
7.64037e-07
0.000617688
1.82891e-05
5.53667e-09
8.34452e-07
4.89412e-10
0.000852498
5.95869e-07
2.30243e-05
0.00283853
3.15159e-06
3.3731e-09
2.11224e-08
1.26323e-08
0.00878985
0.00284208
3.18745e-09
0.00417969
1.66741e-09
2.95992e-06
3.77242e-09
3.89473e-07
2.04816e-05
4.47383e-08
9.49296e-09
1.27963e-06
3.04697e-08
1.32991e-08
0.000765767
3.45153e-09
8.37324e-09
2.07839e-09
9.86616e-10
3.09383e-09
0.0039288
1.24302e-08
6.12388e-09
1.16436e-05
8.11073e-10
1.27354e-08
0.00367091
7.85409e-09
0.00339615
0.00595602
2.26063e-05
2.07163e-07
1.92448e-08
4.34282e-09
1.04578e-06
0.0985166
2.04517e-05
5.03969e-06
7.88571e-08
0.000762819
1.8981e-06
6.09014e-10
6.84035e-06
5.20875e-06
6.97841e-05
0.00517984
0.00123653
0.00833363
9.84581e-11
1.28396e-06
1.33217e-08
1.38051e-08
0.00401528
0.00614588
4.31087e-09
5.6856e-09
0.0142298
0.00606884
3.91292e-11
0.0136976
9.88226e-09
2.29723e-10
3.45562e-10
7.69316e-09
1.07797e-07
8.24029e-09
1.24777e-06
0.000856359
5.60813e-11
1.36728e-08
0.00195469
0.00204969
1.06195e-06
2.06633e-08
0.0005446
6.72247e-11
2.49259e-06
5.4746e-10
8.53933e-10
1.07221e-05
0.00232773
7.48828e-10
1.99131e-09
3.23017e-09
0.000593816
8.46882e-09
0.000388428
4.61263e-09
2.1988e-06
1.23244e-10
0.0251236
4.18779e-08
4.39673e-11
1.79205e-08
1.01752e-08
0.0224338
1.49984e-08
3.51159e-09
3.52931e-08
0.104067
0.000907077
1.34023e-06
1.07493e-05
0.0156085
4.1099e-09
0.062338
1.78225e-07
7.10038e-09
4.51099e-08
0.00681415
3.81725e-07
4.79039e-09
1.54863e-07
1.07472e-05
4.13396e-09
7.09388e-08
1.20411e-09
3.16552e-07
0.0114236
1.04432e-10
2.15105e-08
0.00101228
2.11657e-06
6.79747e-06
2.91888e-10
1.29645e-08
2.73603e-09
1.97734e-08
4.25182e-07
1.8338e-09
1.80791e-08
4.34592e-07
4.41927e-07
1.43648e-06
3.82345e-07
9.50275e-11
6.24081e-08
8.07824e-11
4.58334e-09
2.06469e-07
0.0160919
3.65334e-09
8.51035e-09
4.84527e-08
8.23307e-11
7.84358e-07
9.29173e-09
1.04321e-06
0.0104437
1.37812e-06
4.84609e-09
0.000174091
1.36769e-05
1.28468e-06
8.98006e-05
8.30879e-10
2.46248e-06
7.06568e-08
0.00212437
6.10254e-07
1.83042e-06
8.95913e-09
1.34362e-11
1.0137e-09
0.00352334
0.00125597
0.000567086
8.16422e-12
0.013551
6.50396e-10
0.00301634
2.0682e-06
1.59205e-08
2.53715e-09
4.91057e-08
1.55983e-08
0.000180096
4.25428e-08
3.7949e-06
0.00552588
0.000104701
1.29271e-06
5.23519e-07
1.32316e-06
9.21292e-07
7.96512e-09
1.01167e-11
0.000436435
6.82492e-07
4.73872e-09
3.6101e-09
0.00605511
6.83693e-09
0.000350869
0.0084552
2.71394e-08
1.35624e-06
1.39206e-11
7.09946e-09
3.72962e-09
0.00617663
3.96035e-10
0.00214988
0.0580332
2.51363e-06
3.67459e-07
3.25365e-07
1.79044e-05
4.5749e-08
9.51442e-08
4.8262e-08
4.5372e-09
1.34763e-08
3.82993e-08
1.84377e-06
5.64427e-08
0.00118882
4.63509e-09
1.05818e-07
6.48591e-06
9.44934e-11
9.83549e-06
4.79029e-09
9.01042e-07
1.41148e-05
2.35253e-09
2.23479e-08
1.15257e-06
8.97549e-09
7.49585e-10
0.00323505
3.66724e-08
3.21103e-06
1.34551e-10
0.000778648
1.59089e-07
1.21658e-08
5.07922e-08
8.10112e-08
1.24831e-07
1.38774e-09
0.00287089
2.24005e-08
5.04909e-11
2.66568e-06
8.18745e-09
1.30998e-10
9.40252e-07
1.72435e-05
0.059897
4.48427e-10
3.48446e-08
8.39656e-10
6.58526e-08
8.65601e-07
0.000643251
1.07062e-07
1.47299e-05
1.2494e-06
2.04338e-05
5.20618e-07
5.38116e-08
2.19635e-08
1.48996e-08
1.25936e-08
3.3873e-08
6.04864e-08
0.000820171
5.9821e-06
0.000801462
4.2623e-11
1.62916e-08
1.79097e-09
1.46152e-06
2.05177e-06
1.74738e-08
9.03464e-07
0.000830434
2.06876e-06
1.54539e-11
0.00032289
0.000143601
1.6296e-06
7.49828e-07
1.26075e-08
1.51288e-05
3.69329e-08
9.79846e-08
7.23802e-09
1.18454e-09
4.39546e-06
1.44574e-07
1.6367e-05
1.51668e-08
0.000792903
1.13049e-05
1.59993e-08
1.96496e-08
1.27348e-05
5.89806e-08
0.00104025
0.0047033
2.6136e-06
4.70261e-06
2.50131e-07
1.55189e-08
4.79612e-10
3.03411e-09
0.0829258
5.86493e-08
0.000582774
0.0010269
5.17809e-07
4.71816e-09
1.5469e-05
0.000703744
4.60525e-07
2.10337e-05
1.24347
0.000739211
0.00244789
0.000859561
2.61983e-06
1.53879e-10
3.58124e-05
3.14589e-08
3.66351e-09
4.58664e-09
5.50451e-09
3.65297e-07
1.29252e-09
3.35033e-09
1.56923e-06
2.32239e-09
2.47169e-10
1.71495e-08
1.39498e-08
0.00100099
4.30589e-09
6.72176e-07
0.0012916
0.00501241
2.00385e-09
0.00355177
0.0159778
0.00661646
7.94589e-08
1.40995e-09
8.47716e-09
5.94139e-07
0.019798
3.7659e-11
2.5467e-05
8.87837e-10
3.7147e-09
2.88094e-07
2.54022e-09
2.76027e-08
5.83635e-09
0.00131172
2.59927e-09
3.02474e-10
4.75592e-09
9.20009e-09
1.33074e-08
1.03975e-05
5.56042e-07
1.98459e-08
6.53633e-06
2.82193e-07
9.89711e-09
2.82482e-06
2.15362e-08
2.98063e-08
3.83791e-09
2.31955e-09
0.0049516
0.000743932
8.41916e-06
6.00422e-09
7.31834e-10
1.86533e-08
0.00362273
6.14608e-09
3.97991e-08
0.00695609
2.1115e-10
4.98795e-10
0.000596689
1.19759e-06
1.5543e-08
5.49184e-08
3.14764e-07
3.14447e-09
0.00303712
3.65559e-10
0.000756221
8.56884e-07
2.01284e-07
2.72729e-10
4.07212e-09
2.49548e-08
8.21764e-09
1.6501e-08
7.61541e-08
2.31633e-11
1.22029e-10
6.31262e-07
0.00136758
2.39017e-10
3.90308e-07
4.34315e-09
1.72782e-06
2.21747e-09
0.000821952
3.21212e-08
6.19599e-07
5.87005e-07
7.65606e-09
7.45317e-07
4.37887e-08
1.26155e-07
3.44481e-09
6.46162e-09
2.3109e-07
1.41038e-09
1.98361e-06
8.2774e-07
1.31358e-09
5.69608e-09
1.20253e-06
9.44233e-06
0.00548121
2.49313e-09
1.14781e-07
3.95245e-08
1.33167e-05
4.82441e-06
2.56925e-07
1.56063e-06
0.00135924
4.05805e-08
9.49726e-07
0.0170449
0.00115347
1.50369e-08
9.1108e-10
7.24462e-06
3.01797e-08
0.000707508
4.90836e-09
3.49053e-07
2.79759e-08
4.47737e-09
0.00416579
1.19943e-09
1.08754e-08
1.69089e-08
4.99661e-07
0.00670354
0.000971266
8.65397e-09
2.43857e-09
7.37385e-11
1.1191e-08
1.05449e-08
1.7461e-08
2.97584e-09
1.32863e-10
3.9345e-09
1.933e-10
5.40598e-09
0.00106595
0.000635203
2.10821e-10
2.59454e-07
4.10212e-09
8.35973e-09
2.09822e-09
0.000622969
0.0015455
2.66227e-07
4.39426e-09
1.39569e-09
1.65516e-08
3.31838e-09
8.82731e-08
5.87111e-09
0.120579
5.01476e-09
5.41386e-08
3.07836e-09
3.19976e-06
9.97634e-08
0.0248271
1.09955e-08
4.903e-09
0.0069694
0.00827135
6.09319e-09
4.8857e-07
1.32947e-08
4.53432e-09
1.67989e-08
1.44806e-08
7.37404e-08
3.46843e-09
0.00563754
3.85832e-08
1.18602e-07
0.00106924
4.57469e-08
2.69791e-07
6.75627e-08
2.54924e-08
5.50494e-08
4.78335e-08
1.81781e-08
1.52223e-07
8.03859e-08
1.75863e-07
2.65457e-08
1.77151e-08
5.31251e-08
1.48954e-10
7.1501e-09
5.62109e-10
1.06725e-11
2.75807e-09
4.66559e-08
1.70598e-08
2.41698e-09
3.32868e-11
8.18786e-09
3.11215e-07
6.49599e-09
2.09649e-10
1.46073e-08
4.16254e-08
2.72884e-08
0.0181393
1.8539e-08
0.00484387
2.19596e-09
2.03528e-07
3.83845e-07
1.87229e-06
4.09603e-10
1.04255e-08
0.00423197
9.40243e-09
2.96321e-10
2.87047e-08
0.00405975
2.27758e-08
1.11174e-06
1.27604e-06
3.00443e-08
1.79095e-07
7.46367e-08
1.32812e-05
3.03897e-10
1.08451e-07
1.05503e-07
3.67183e-09
0.00101495
0.302834
0.00395106
1.36372e-07
3.03669e-08
1.86928e-07
1.99276e-07
1.64694e-07
4.5627e-08
0.131008
3.79776e-09
1.32713e-05
5.40808e-05
0.00113131
1.41209e-07
0.00479903
4.88272e-09
5.13102e-08
2.41206e-09
5.39212e-08
8.57675e-08
7.15846e-08
2.03017e-08
9.62403e-10
1.66055e-07
4.14917e-10
2.18239e-10
2.55902e-10
0.378755
5.47473e-09
3.70601e-10
0.00143492
1.93086e-08
0.00186843
1.88644e-08
6.99315e-09
1.57176e-09
1.98622e-08
3.64374e-07
9.74646e-08
3.73888e-06
5.692e-09
3.16399e-09
0.0018605
3.04223e-08
3.20846e-10
3.78254e-06
6.54746e-08
3.87839e-07
9.06903e-10
0.00263714
0.110616
1.78857e-07
2.06352e-08
6.10006e-09
8.34074e-06
5.9645e-09
3.5322e-09
8.40219e-11
9.34195e-07
1.40649e-06
9.55755e-07
0.00328956
1.47056e-08
4.58571e-10
1.39144e-05
1.16214e-08
2.13561e-08
2.89462e-10
1.19484e-06
3.07659e-09
8.5599e-06
0.00325488
1.61589e-09
3.16257e-13
2.70679e-09
3.49131e-09
3.45853e-09
1.31434e-08
1.12249e-05
2.75395e-05
8.45301e-06
0.125043
2.4988e-09
1.20954e-06
1.69274e-08
4.38363e-09
6.42894e-09
4.28338e-10
0.00396865
0.00354534
1.06631e-08
0.82404
9.54216e-08
0.108428
8.85555e-06
6.89196e-06
4.98401e-08
5.96309e-08
7.30127e-09
7.85843e-07
1.51538e-09
3.08668e-06
5.44453e-09
2.31529e-08
8.50848e-09
3.96036e-07
2.78773e-10
5.44607e-10
0.00274444
1.30404e-08
1.82491e-07
4.23706e-09
1.00656e-09
2.81473e-09
9.28348e-05
0.00257769
1.30855e-08
4.38408e-10
1.02645e-10
0.00264973
0.0172104
1.10364e-08
0.00100116
1.98741e-07
2.66745e-09
1.45295e-07
1.71261e-08
2.13941e-08
4.48455e-09
0.00185208
0.00195954
0.00649854
0.007193
4.35395e-09
8.54462e-09
4.01087e-08
2.83387e-05
0.00688369
6.27899e-10
0.00377406
1.27323e-07
5.71553e-10
1.13818e-08
1.01734e-08
6.9887e-09
1.44831e-09
3.73068e-09
1.1701e-09
0.00254633
1.23009e-09
2.86745e-08
3.54344e-06
4.29712e-10
7.4389e-08
1.25561e-07
3.5337e-09
2.06108e-09
0.000803393
1.02723e-07
1.55059e-08
1.55724e-06
0.0336926
3.36234e-09
1.47503e-08
2.20491e-08
2.27827e-08
9.95625e-10
7.69083e-05
7.54592e-09
1.0206e-08
3.6671e-09
1.96553e-08
1.1448e-08
2.3613e-06
3.54272e-09
1.78369e-07
1.39398e-06
2.22675e-08
1.05491e-06
8.85782e-09
2.21925e-07
0.00076446
0.008081
0.00647601
0.00271451
1.74842e-06
2.70087e-10
0.00114893
7.87424e-10
2.73198e-09
6.62546e-08
7.63036e-08
1.71403e-06
1.97949e-08
9.41225e-09
1.95201e-09
3.66948e-08
6.15484e-10
2.30163e-08
2.55245e-08
4.53829e-07
0.00131566
4.5297e-09
1.97469e-07
3.70573e-09
2.18464e-08
3.01666e-10
2.30692e-05
2.63957e-08
6.27526e-10
7.08791e-09
3.4047e-08
0.00083163
3.91416e-06
2.30124e-07
3.19708e-07
6.32761e-11
3.48171e-12
2.86854e-08
3.17185e-10
8.29629e-07
1.19242e-08
3.92718e-07
3.35459e-08
2.49322e-08
6.97265e-08
6.26263e-10
6.51236e-06
1.52724e-06
9.53116e-07
1.69962e-08
2.0711e-09
1.99045e-08
1.01726e-08
9.9222e-06
2.89028e-08
0.00359151
1.79809e-07
3.95054e-09
6.32046e-09
4.13595e-06
2.09615e-08
0.00431787
4.89885e-08
2.11933e-06
0.00434431
3.45992e-10
0.00112932
3.59564e-07
0.000796191
2.88443e-08
0.000886368
0.00154927
2.65036e-06
1.34718e-07
3.27944e-07
7.98532e-10
2.82105e-07
4.65364e-07
2.38795e-05
3.30706e-07
6.66827e-08
4.44179e-07
0.00016906
8.38371e-06
0.000745809
7.93816e-06
1.8574e-09
1.93396e-06
0.019352
1.10776e-07
5.88016e-08
3.54106e-05
8.06028e-05
2.86106e-07
3.61316e-07
6.33856e-05
3.19947e-07
7.73199e-06
4.10078e-06
3.83682e-07
6.55222e-10
7.97846e-07
8.02787e-06
0.0012399
4.74036e-08
6.84991e-08
8.14416e-07
5.87281e-08
1.41287e-06
1.51307e-08
6.82062e-06
1.62021e-08
3.04707e-07
4.56853e-09
2.86134e-09
2.30392e-07
0.0157681
0.00191971
0.00668801
3.78513e-07
2.95663e-08
1.06145e-08
0.00311016
3.86953e-07
0.0005625
0.00131332
1.95195e-11
0.0529151
3.53872e-08
1.31269e-09
1.0451e-08
0.00212052
2.02571e-08
0.000799675
4.10214e-09
2.65259e-10
5.84836e-07
2.09543e-08
1.53065e-10
0.0798508
0.00073695
2.44838e-07
5.51453e-08
1.29027e-08
0.00413629
0.00071926
1.29727e-08
5.83045e-06
4.86726e-08
9.97354e-06
3.64408e-08
0.000698075
5.90948e-07
3.83154e-06
9.55272e-09
8.1543e-09
8.05152e-08
1.35686e-08
4.40014e-07
3.32244e-08
1.22082e-08
1.8622e-08
8.35958e-08
1.14751e-06
5.44235e-10
1.19714e-08
0.00134034
1.62008e-10
1.63469e-09
9.07067e-07
8.51399e-09
4.51233e-06
6.21703e-07
0.00110276
2.47586e-07
0.00461597
7.42273e-08
4.40019e-07
0.000745019
0.017447
9.35573e-12
2.19718e-08
0.000523446
1.5567e-07
1.78819e-06
3.43396e-07
2.1995e-09
1.36811e-07
1.53092e-07
1.93458e-08
0.00214392
3.55882e-08
2.30175e-08
2.40495e-09
1.21516e-08
1.08149e-09
1.95623e-06
5.92023e-08
0.00464266
1.61642e-06
6.37244e-07
8.67414e-07
1.0785e-06
3.34275e-09
4.13745e-08
7.99737e-11
2.149e-08
1.50334e-06
3.80819e-07
6.98414e-08
5.63546e-09
6.45881e-09
2.33457e-08
3.06871e-08
6.21728e-09
1.50787e-08
1.45099e-08
6.2783e-07
4.77064e-07
5.24995e-07
4.56758e-09
3.66553e-09
0.0193187
6.99749e-09
1.53779e-09
1.49972e-10
4.87941e-10
0.00576304
2.86354e-09
9.86769e-07
1.28035e-06
4.77643e-07
1.16002e-08
1.80121e-08
2.70569e-06
1.76204e-07
8.16375e-09
8.55062e-07
2.2105e-09
1.68035e-09
5.86537e-10
1.99517e-06
4.88812e-09
0.00591662
9.21679e-06
5.92311e-07
0.00850908
5.28208e-09
1.37222e-09
9.90125e-10
0.00110658
2.20238e-07
1.04042e-07
3.354e-08
2.09826e-08
1.25706e-09
0.00824722
3.3241e-07
8.75094e-06
1.51203e-06
1.99428e-09
0.00208004
1.56511e-08
6.43343e-09
1.05872e-08
4.88572e-08
3.04767e-08
4.10153e-10
2.03251e-07
4.07413e-08
9.89741e-06
5.56089e-08
3.40773e-10
3.19986e-06
9.54606e-09
0.00287385
5.19075e-08
6.14213e-09
2.75429e-08
3.61895e-07
0.00114293
0.000558916
3.14734e-07
1.07428e-06
0.00167394
5.87099e-08
0.10187
0.000784207
1.60862e-07
1.51037e-10
0.0030577
0.000348769
1.72885e-07
6.99423e-07
1.76552e-09
7.8893e-07
3.00777e-05
3.23562e-10
1.75656e-07
2.42829e-05
3.28779e-10
0.000430881
2.53997e-09
4.94894e-07
0.0649362
2.72409e-09
2.39333e-07
3.18367e-08
9.01478e-09
1.01395e-08
1.1516e-06
1.22033e-08
2.80025e-09
8.68688e-09
0.0588002
8.80159e-10
0.000432086
0.000820557
1.37698e-08
6.71622e-12
1.38009e-10
0.0454457
3.13115e-07
1.00025e-07
5.21428e-09
1.00492e-08
2.57009e-06
1.51199e-06
1.00959e-06
1.85323e-06
0.00677971
1.22531e-10
0.00274813
8.14472e-09
8.72893e-10
0.000939761
2.85966e-08
9.89058e-10
0.000426421
7.44693e-11
2.86946e-09
1.19223e-08
3.55331e-08
1.72487e-08
6.53594e-09
1.78093e-10
6.56042e-10
3.71214e-07
0.00246632
0.00401329
3.14817e-07
6.75515e-08
5.01331e-12
0.00104275
0.00397601
6.3607e-06
1.13474e-07
6.38439e-09
8.15367e-05
7.04353e-06
3.68298e-09
5.8484e-10
1.10833e-08
1.96905e-08
2.43287e-09
1.75908e-07
6.89533e-07
0.00111282
0.00385717
2.14285e-08
0.493767
2.13287e-10
1.15194e-08
7.16675e-09
3.07853e-06
5.56108e-07
0.301557
3.98159e-07
1.99878e-07
2.12276e-09
9.65092e-09
2.76932e-07
0.00108574
3.0128e-09
0.00345996
7.64382e-10
2.2913e-07
5.25564e-08
0.0561269
5.92306e-10
3.32911e-11
1.1066e-08
1.15037e-09
4.70684e-08
0.000181854
6.67056e-09
0.000690403
1.56309e-09
0.00301472
1.42187e-09
4.66591e-08
3.04328e-08
4.97556e-08
2.02008e-07
2.16211e-10
1.4324e-09
8.6803e-10
1.77561e-08
1.55614e-07
0.000963346
0.00093745
4.2977e-09
1.99864e-08
1.10372e-10
5.44119e-11
4.22032e-10
2.78108e-08
0.000502621
7.58332e-09
3.18261e-10
1.05144e-10
0.000407934
0.0286909
1.04885e-06
0.000756395
8.93635e-09
0.0057695
2.61546e-08
1.44548e-08
1.79474e-11
4.86299e-09
0.00100054
1.52779e-11
2.85042e-07
9.01772e-10
0.0198082
7.68129e-07
1.78998e-06
2.60129e-06
5.17636e-07
6.546e-10
4.49103e-10
0.00675319
0.00883624
6.08388e-07
4.81248e-06
1.62997e-08
1.79207e-06
1.60279e-06
5.12128e-08
9.2446e-08
2.35099e-05
6.32848e-09
1.09553e-05
0.000728447
4.14527e-08
6.96192e-09
1.46098e-06
1.46528e-08
0.000635736
0.0032972
5.03779e-07
7.64362e-10
0.166424
5.82859e-09
2.36686e-07
3.3776e-08
1.73102e-06
4.85201e-11
0.00437351
1.70359e-06
2.59664e-06
3.91459e-07
2.11095e-06
5.92769e-07
1.17228e-07
2.65786e-11
3.22176e-06
3.74838e-08
1.23269e-06
2.10224e-08
1.70785e-07
2.09795e-06
0.23625
1.93313e-10
4.01077e-10
1.61797e-09
1.90937e-11
2.18032e-09
0.00134207
8.40001e-06
2.9307e-06
1.86049e-08
2.91182e-05
6.40652e-05
6.44872e-12
3.26419e-07
3.79062e-10
9.48059e-09
1.45782e-09
4.22149e-07
4.14924e-05
4.23286e-07
2.38975e-09
4.74255e-09
5.75584e-08
7.50377e-09
2.58538e-09
0.00277822
1.96055e-07
0.231343
0.270998
0.376479
1.31213e-09
0.0417925
0.186974
0.0928126
0.212673
6.49171e-10
4.43607e-11
2.87073e-08
2.25331e-07
1.18345e-06
0.0861147
0.000705795
3.64656e-07
5.71623e-07
7.20413e-08
1.13741e-05
3.9426e-09
9.14454e-11
2.11366e-06
7.45198e-06
0.000488565
2.20149e-10
0.00235828
2.33701e-06
1.43362e-08
1.86666e-06
7.75525e-08
6.51853e-07
5.03047e-08
6.48121e-07
5.82706e-09
5.80153e-09
0.00840958
4.37992e-07
1.47426e-08
0.00510303
4.9678e-07
1.84182e-07
0.00297996
1.37484e-09
2.15074e-07
1.08414e-06
4.13155e-07
1.2241e-08
0.00365632
2.72118e-09
2.94285e-08
4.13907e-09
0.00235368
0.00246048
4.50697e-08
5.40195e-08
3.1724e-06
0.00102865
1.09113e-08
5.17052e-09
2.70463e-08
0.00842253
2.62815e-08
0.00391672
2.93496e-07
3.41249e-07
0.00901086
1.50091e-09
0.00100936
3.41059e-08
0.000581757
5.02883e-10
0.00468034
0.00288314
1.62848e-09
1.93157e-10
3.13949e-08
2.0133e-06
3.59481e-10
0.000737482
1.09858e-08
2.26059e-07
1.46133e-08
1.37181e-08
3.06433e-08
2.60641e-08
0.000277665
9.2878e-08
8.78101e-06
7.63172e-05
2.58881e-08
0.000800092
2.17876e-08
5.55334e-08
5.92259e-08
8.75338e-08
3.43364e-11
4.73147e-10
4.67996e-11
3.02122e-08
1.18463e-08
0.00112139
3.80662e-07
3.64396e-08
8.94575e-10
2.0678e-08
0.00515037
1.59619e-06
1.30494e-07
1.07512e-07
2.07354e-07
6.35815e-09
6.88631e-09
4.10333e-07
2.24764e-09
4.74032e-08
9.46159e-06
5.29415e-09
2.08664e-09
5.70324e-09
7.00187e-05
1.36884e-08
1.19321e-07
9.2709e-10
4.91475e-09
2.84105e-07
5.02256e-09
2.75299e-11
0.000852856
1.42979e-10
5.64004e-11
4.61172e-07
0.00105454
1.84071e-08
3.99366e-08
6.13912e-10
9.50143e-09
1.02619e-07
4.15477e-07
9.63029e-08
2.08472e-09
2.5485e-08
4.72419e-08
0.000253864
1.11e-09
6.68605e-10
8.31733e-09
4.65805e-08
5.01294e-07
2.55166e-08
3.60626e-09
1.29933e-07
3.45772e-09
2.55514e-09
4.73983e-07
0.00141528
1.61445e-08
5.51768e-10
1.67678e-09
2.95109e-09
3.64679e-07
5.34789e-11
4.56971e-07
7.02763e-10
0.000116058
1.99052e-05
2.58001e-09
1.08251e-09
0.00126601
1.01842e-09
0.00104405
9.75812e-09
1.1832e-08
2.00455e-07
8.50252e-09
0.000774675
3.83557e-08
0.000922396
0.00112112
0.0223532
1.60794e-08
0.000752065
1.90602e-07
4.98625e-10
1.30312e-08
0.00236581
0.000688232
0.000781422
5.91152e-10
4.77192e-09
1.57766e-10
0.00259345
1.79493e-08
1.19072e-07
3.14054e-06
1.61293e-07
1.96899e-08
3.95405e-09
8.44446e-08
5.38713e-06
1.19974e-09
4.78057e-09
5.80897e-07
3.95839e-08
1.26435e-11
1.11529e-06
6.19818e-07
7.29619e-09
1.18165e-08
3.18518e-09
8.98492e-08
7.47019e-09
2.89331e-06
1.57464e-07
0.0113932
2.23656e-06
8.28993e-06
1.34523e-10
1.61308e-08
3.86172e-09
6.52879e-08
1.86397e-09
4.95833e-08
6.28268e-12
3.99934e-05
0.00696088
0.00150582
2.31306e-06
3.85715e-10
2.23316e-07
0.000918334
0.00190979
2.632e-09
4.87221e-06
4.43111e-08
9.91931e-09
7.65697e-09
2.39981e-09
1.35282e-08
9.92489e-07
8.74648e-09
8.99523e-10
9.29505e-09
1.05489e-08
0.00620823
0.00100849
2.76259e-05
2.37944e-10
3.02315e-09
0.000786964
4.7478e-10
1.39132e-09
1.01861e-08
1.1416e-05
3.25131e-10
1.52565e-07
8.18264e-09
3.90621e-09
1.99654e-05
0.00267953
0.00120535
2.80039e-08
0.00127928
7.01164e-10
2.84947e-07
0.000456226
0.00200644
7.81526e-09
2.71924e-06
4.55825e-10
5.40449e-08
0.0106915
9.65266e-09
2.6674e-06
4.82369e-09
2.31634e-09
6.91112e-07
3.43266e-08
4.99566e-08
1.09089e-08
7.12519e-09
6.05365e-08
2.41297e-08
4.16771e-09
2.52484e-09
0.00125134
0.000691053
2.78065e-09
0.00139198
1.75738e-10
5.62432e-09
4.30264e-06
1.19865e-08
1.14575e-10
0.000648835
2.37712e-09
9.21062e-11
0.409545
1.56104e-10
3.11231e-11
7.10335e-07
0.00335263
3.72287e-09
0.000694136
7.87089e-10
4.4953e-08
0.00083276
1.24147e-07
0.0069723
2.01339e-11
2.99093e-09
2.30366e-08
3.88955e-09
0.00385872
0.000756737
2.33405e-06
8.65426e-10
0.000864214
1.61192e-10
6.6592e-09
8.02107e-10
0.0106583
0.04932
4.25141e-09
2.52007e-11
1.64816e-08
0.00089934
0.0148876
7.68759e-09
0.00398061
0.0204656
0.00143096
6.51898e-07
0.00144723
0.0203139
0.000795324
7.21834e-07
0.0402408
5.98883e-06
7.53308e-08
3.51784e-08
4.47877e-08
7.81063e-06
0.00114501
7.6349e-11
1.14071e-07
1.852e-09
8.10295e-07
1.58129e-07
2.81731e-08
2.01318e-07
0.0020964
4.61561e-09
1.78698e-07
6.65756e-09
4.78098e-10
1.9209e-09
8.93283e-10
8.90211e-08
2.06742e-09
1.31768e-08
2.06035e-09
0.0350366
7.61598e-07
7.52568e-11
4.8578e-11
1.08839e-09
2.13615e-09
2.80353e-08
0.182595
0.0474078
2.02069e-06
1.3223e-10
6.23631e-07
1.64267e-07
0.000861633
5.25435e-07
2.97226e-07
9.39046e-09
1.65145e-08
5.11166e-08
3.90299e-06
1.99727e-06
0.0031357
0.00124969
1.46571e-09
0.0170357
0.000469332
8.11741e-10
3.3318e-08
9.13891e-08
1.91508e-09
3.8844e-08
4.4044e-07
0.00115009
2.60262e-11
1.62749e-06
3.06791e-09
0.000814037
9.72308e-07
0.000664158
6.52335e-07
8.40282e-10
1.16071e-09
8.69331e-09
4.83536e-07
3.96425e-07
2.27618e-06
7.59054e-06
1.43846e-08
1.54876e-05
6.13876e-06
2.54921e-10
2.01015e-06
0.0823322
8.88045e-07
1.69757e-06
0.0785429
8.09742e-08
0.00201943
5.89508e-09
1.12832e-05
0.000713278
6.68654e-10
4.96342e-06
0.00203731
2.10122e-09
2.08043e-06
5.43603e-10
4.4031e-09
1.11201e-06
1.03741e-07
1.60507e-09
2.34022e-09
2.44045e-08
3.09051e-10
1.75899e-09
2.15929e-06
4.40812e-10
1.84345e-11