/*--------------------------------*- C++ -*----------------------------------*\
  =========                 |
  \\      /  F ield         | OpenFOAM: The Open Source CFD Toolbox
   \\    /   O peration     | Website:  https://openfoam.org
    \\  /    A nd           | Version:  10
     \\/     M anipulation  |
\*---------------------------------------------------------------------------*/
FoamFile
{
    format      ascii;
    class       volScalarField;
    location    "0.8";
    object      p;
}
// * * * * * * * * * * * * * * * * * * * * * * * * * * * * * * * * * * * * * //

dimensions      [0 2 -2 0 0 0 0];

internalField   nonuniform List<scalar> 
111485
(
32.3347
12.1623
14.132
31.8667
14.6269
31.2797
12.3891
10.7684
12.4227
18.3373
12.2695
15.8032
12.4973
12.1634
12.5576
12.7643
4.01979
29.9989
12.3917
31.6892
31.5663
31.6618
12.5553
12.6213
14.5722
30.8165
17.5873
6.88852
14.0977
32.6353
24.3588
2.8006
31.9669
32.7905
29.9668
33.593
24.1103
0.661073
28.2311
12.933
33.2624
18.3393
12.9185
21.2981
27.1772
33.6408
20.118
12.5817
18.2947
30.7024
30.7238
30.0479
30.7069
21.7172
30.6947
7.78499
12.5559
33.6209
20.1364
12.9106
12.9459
32.3207
10.0224
23.8079
30.2257
8.79705
29.1114
11.4718
10.1058
10.8326
26.0478
9.07943
30.2092
10.0819
33.1738
5.19996
31.9228
17.6096
31.6571
30.249
24.8293
20.7075
32.2319
32.9991
9.94724
13.3208
28.6769
21.8157
25.269
3.68707
27.1356
13.3493
10.0003
1.43982
18.364
32.9686
32.3573
21.7721
27.9752
22.7033
32.1709
17.6973
33.2832
17.3517
11.783
30.2344
32.9692
3.26547
13.6389
27.0586
2.22299
9.01744
13.3203
16.4598
30.808
4.88441
30.9723
33.642
10.1872
31.7069
30.8015
29.7649
32.223
33.6359
19.1433
30.1311
29.7965
3.77498
33.3081
27.9339
24.2283
21.7321
33.1236
29.7238
29.8561
12.095
32.0117
5.18417
11.0991
11.2023
18.5825
11.2298
11.2001
13.968
19.5384
0.462106
31.9945
32.8912
33.2455
11.8236
14.0082
31.5914
24.3598
0.0346236
27.4665
11.7371
11.6061
12.4317
27.4508
33.5347
31.871
11.7017
14.0488
27.5068
27.5321
4.53449
23.3293
33.5727
27.5771
27.5562
33.2535
32.8208
15.2289
32.5637
0.830628
0.15478
30.5479
30.2363
30.87
30.3371
30.2494
31.8356
11.8404
11.8698
11.7419
0.0489849
17.6277
6.24439
23.9902
32.12
5.46071
30.2696
32.4237
6.29536
18.2863
23.2048
8.32958
0.673514
33.1661
11.8951
13.8298
29.2431
20.6312
3.56965
33.3892
6.33329
16.816
30.2219
23.0914
20.0379
13.8946
6.1954
30.2094
32.4756
6.24605
29.2978
21.7701
32.5055
6.31677
5.38196
18.6381
33.6635
7.02908
22.7448
29.5537
32.5482
33.2842
25.9252
27.4645
30.1963
29.8551
5.4308
1.3872
9.04341
30.181
30.291
23.7792
33.2631
11.7924
5.4029
5.44252
5.40673
5.44375
33.3353
24.9756
4.28634
33.4432
32.1664
21.8311
9.05712
30.1743
2.69559
4.02257
32.858
29.7301
20.3946
30.7255
30.0487
29.5394
31.225
4.72052
5.35294
0.427823
33.6874
4.12503
31.9317
32.2924
33.3268
23.9427
17.6796
9.50596
9.64219
16.4869
9.53025
9.72995
24.9766
1.36648
1.41976
30.6121
32.8185
25.1889
3.27813
18.6493
1.70147
31.771
9.67001
11.8943
9.48295
16.7785
25.1531
9.43757
9.59694
20.5976
33.6578
17.5491
32.571
30.1112
30.0013
25.8991
16.5486
12.8076
31.0673
33.5765
7.46515
2.34016
31.5375
32.5316
30.7333
5.32911
1.43266
11.5712
12.1195
13.1604
30.0223
33.0233
33.0761
7.48489
28.9248
12.8881
25.4054
23.6773
32.1833
32.291
32.3517
29.8226
8.0598
14.4751
33.6326
7.94986
30.1082
30.7643
22.2391
8.00583
16.3006
7.89026
30.1516
29.8372
33.3681
7.97782
0.4026
24.5981
30.7238
28.4694
24.6375
14.6869
7.08499
28.2918
13.2435
31.87
13.2579
8.14121
25.1564
22.1696
14.8331
32.8988
33.0829
33.1265
31.8861
11.446
6.89352
16.411
13.2524
32.7422
15.494
33.0445
32.3503
13.249
30.3291
29.5347
33.5876
33.6771
11.7588
33.6449
0.308662
15.2982
31.6723
10.6193
8.40043
30.2082
8.23429
15.6135
8.27205
23.1691
0.653554
1.50701
30.1861
32.8709
21.195
33.4867
16.1316
22.5426
30.4179
33.4473
7.836
15.9482
1.35144
15.3387
31.9491
24.3316
15.7952
31.142
21.2926
16.0392
32.4871
31.7805
0.315079
14.6095
33.5085
30.9902
29.3387
32.1568
14.9315
32.515
32.0716
15.875
24.3117
19.5435
14.5849
31.3258
29.8103
21.2888
29.9075
21.2913
21.3738
18.1245
29.1322
29.9285
2.5726
27.2634
32.6085
22.2229
15.38
33.6846
27.949
18.5634
29.8876
16.3031
15.8119
0.731849
31.4544
0.668247
16.7029
0.690674
26.3937
29.8248
27.2725
33.1615
24.3678
0.675925
33.2076
16.3069
20.2863
29.7501
33.6561
30.0096
31.5602
14.6461
0.684463
16.1084
16.2135
23.0067
32.568
16.5554
32.3399
14.6176
31.0167
32.3442
32.7844
16.2542
32.936
32.4715
30.0308
32.3729
33.3509
20.3849
33.6555
29.957
33.0751
32.5223
31.2505
33.1066
31.7625
16.3777
33.105
20.5827
16.821
27.2484
30.9895
20.5478
33.0894
32.3092
16.237
16.1197
16.3516
25.4358
30.0601
18.7664
18.802
0.997488
1.83978
16.7533
32.7767
1.05024
29.7359
18.9808
32.6609
18.9763
29.8203
2.06797
16.0559
29.9425
33.092
1.89469
31.4397
18.7607
18.9179
33.4038
33.0555
30.2196
33.1621
27.4645
18.7127
30.6366
33.5573
14.6772
31.6688
18.8249
31.8613
19.794
32.3427
18.3703
18.7538
8.11691
1.9953
30.816
0.518404
30.9259
32.693
17.2553
32.6874
18.4742
30.2365
19.0182
32.6803
17.2478
31.5265
29.9332
27.2995
17.4095
18.7548
17.3518
18.8358
15.9963
33.2253
18.8183
17.3656
32.419
25.6746
23.6809
18.7984
30.5429
29.7907
14.49
19.3104
28.8497
29.8102
17.3522
14.52
17.6135
17.6818
1.92071
28.56
29.891
27.3347
28.7543
31.9423
18.6543
33.504
29.9808
3.66527
28.5584
27.5448
28.3171
29.9221
17.7961
14.5631
30.9208
29.8384
14.5074
31.079
31.6194
31.7627
30.8935
17.8049
33.0357
33.3951
17.9382
5.553
29.5368
14.5348
29.9952
5.46746
30.6954
33.2852
17.9134
32.651
31.0376
29.9713
0.446567
29.2525
18.4017
3.70979
30.99
27.2816
18.4845
15.0869
23.1662
27.7431
14.7659
32.7304
18.3313
15.0361
33.3781
8.54031
20.6706
15.4214
0.468912
15.4975
15.4428
33.1145
18.7778
23.1045
29.9026
15.4824
18.858
29.2961
3.6868
15.4422
18.9268
16.315
16.4138
3.71096
30.448
16.4334
18.5438
30.0046
17.543
17.5835
3.95958
32.7169
0.392974
33.4587
32.0699
32.8708
30.8999
15.0232
29.9744
27.518
32.4281
31.2922
17.5861
17.6602
31.4255
18.8699
32.3214
33.3325
30.7387
19.3013
18.7109
29.9567
33.6834
32.6355
32.784
23.7348
3.97475
29.8898
17.2082
27.2531
33.4076
17.2011
20.0462
1.98587
31.5107
32.5177
8.88901
3.89364
29.9358
33.2115
30.5129
6.54478
32.8433
31.0141
32.4498
17.0424
13.4573
31.695
29.8559
29.8353
1.96417
33.5393
31.1701
19.427
23.822
29.9014
29.3463
28.1187
19.8046
0.103846
30.3045
14.4441
20.3491
33.6606
30.6701
32.0534
32.5706
33.0888
31.7853
17.0757
32.3042
32.0334
30.6138
17.1233
3.86923
30.7324
30.6634
19.877
3.90755
4.01474
31.1417
32.0815
3.94468
32.9239
17.2629
3.90782
4.06253
30.7834
32.1492
32.1476
32.8629
14.6178
32.1759
31.8701
21.694
32.1035
6.88852
20.2411
30.4398
3.75574
29.7827
6.88154
17.9277
18.5723
19.6692
27.6673
29.9705
6.83074
19.9221
0.0928979
30.192
27.5553
29.5784
1.12689
32.9178
20.5142
20.0536
20.4897
30.0669
32.2148
33.6836
3.91632
30.0481
2.68421
30.2231
13.137
1.04903
2.78928
3.93483
31.8013
30.8197
30.2039
3.99901
31.037
30.033
26.7861
33.5443
33.5203
32.1235
32.0751
2.85829
30.3478
32.4986
27.6093
30.0087
33.5763
29.7326
32.3996
20.4816
2.75301
31.6148
14.7453
28.3336
20.5272
27.5083
3.44462
33.1478
18.083
23.4148
20.5826
33.0491
27.9617
2.86946
29.7296
2.67852
25.4694
26.3591
10.7155
1.89601
25.8612
0.478918
2.4691
32.878
30.8183
1.87637
1.86954
33.3676
1.90308
16.1085
2.4285
30.6753
26.1434
32.928
2.58739
2.4801
31.4118
1.28507
2.40099
26.2442
0.74738
30.6058
11.553
26.3024
27.8065
26.1131
22.2595
32.7705
32.9233
21.7415
32.0395
16.5403
22.5203
29.5129
27.7489
27.6894
27.7163
32.0737
29.7219
5.8949
33.3023
30.179
22.1708
30.9486
31.2761
27.6808
27.3889
32.0552
26.3787
32.5532
32.6369
33.3669
32.3615
30.6008
32.8909
22.4249
30.8061
33.2517
33.4016
27.9139
22.1328
13.6822
5.84025
31.4947
31.0569
23.1745
32.3508
31.2685
29.4758
22.6885
7.64635
31.5535
31.2252
30.9334
31.1723
33.182
31.0805
23.0491
31.0389
26.3825
13.1886
32.7729
32.2292
30.6434
26.3283
30.6616
31.885
32.8089
26.6295
33.0004
23.0076
24.0231
26.1082
31.7253
29.1689
23.0775
12.7066
30.3012
26.4877
19.0932
31.0322
30.4067
29.7073
31.2086
5.88814
11.4448
23.6392
26.9666
31.4494
5.85435
30.3483
29.8908
29.7142
33.2867
10.359
32.4426
30.6126
24.4922
7.64536
30.6198
18.5951
30.2347
23.6833
30.2758
32.6708
33.1149
32.0533
2.69619
11.3279
27.7845
31.5222
30.558
2.7617
32.0621
30.0151
32.3858
17.0202
27.1181
14.609
31.0408
24.7652
24.6191
30.1984
24.6581
30.8976
21.4187
19.2206
11.1138
24.6333
24.6208
32.2072
32.5833
32.5964
24.6561
33.6708
25.0528
33.4716
27.9857
30.9509
12.7927
13.1912
30.6373
31.9173
30.5847
33.5016
25.0566
30.5704
29.7059
2.75645
25.0294
30.1651
30.0023
29.9409
30.0151
30.9171
32.2554
25.1225
19.2699
31.8474
30.7412
27.4945
32.3789
25.0969
2.76422
30.4612
21.7682
32.1052
1.65962
30.7504
14.1703
31.3709
27.4108
26.7384
25.7766
21.8648
21.8548
29.1305
30.4289
22.0101
30.6968
10.3345
31.268
33.0407
29.932
33.0395
33.1726
33.3429
21.8767
21.8905
32.1193
29.6196
31.0366
22.2191
26.2285
32.5177
10.3862
26.1589
30.6625
3.60624
2.51526
9.89257
25.9041
32.0445
32.4125
32.7959
31.819
10.4274
33.1037
22.2985
32.2739
22.4354
14.2247
32.983
22.3361
33.356
31.9904
22.5487
23.8052
28.5519
32.2791
30.5588
31.1545
10.7692
30.1374
33.4429
30.464
28.3236
29.8281
27.3416
30.0112
30.4365
30.4146
3.08836
2.72733
15.986
11.8744
33.4656
22.5254
32.6887
33.3774
2.65073
30.8022
27.499
22.449
1.89813
22.6969
27.5207
15.8361
33.2067
27.5685
27.5354
19.3299
23.0919
7.92434
29.3003
32.3101
15.2731
31.111
31.2351
27.4157
18.304
27.6871
32.6943
32.6915
24.4582
30.6509
30.822
22.8797
30.5994
30.6446
9.23428
22.9477
23.5064
9.23759
4.69019
31.0041
32.1716
27.4835
9.17773
31.76
30.6152
16.2913
30.8916
29.609
29.871
29.9049
29.1839
29.4162
31.7579
15.4846
31.1475
23.3849
31.3681
28.9977
30.6244
30.7116
33.2388
32.0232
14.3504
32.0581
32.025
29.9604
31.2525
33.1813
32.6484
8.71859
32.0878
7.91172
23.5387
30.7017
15.6824
31.6005
19.7968
26.3782
2.0467
2.09334
30.7998
2.27704
14.3957
25.7272
33.3119
24.0469
6.87497
1.02318
30.2242
1.30304
30.5575
33.194
31.2772
31.7115
1.30256
32.5533
31.3212
1.02295
24.0608
0.992549
33.3873
29.4268
15.7023
32.9177
27.5713
30.6507
2.21606
30.7256
30.8784
15.5842
31.3622
23.9478
32.3977
31.3658
6.80162
20.2643
4.97966
11.1152
26.5964
8.81699
31.3984
30.2398
13.3588
5.1723
8.62522
23.9693
32.0493
7.97684
31.9349
31.1695
13.5999
24.1737
30.9262
5.28718
33.2147
5.02871
4.61268
30.2787
31.7362
32.8587
13.3271
32.5235
32.5265
13.4491
5.00929
23.0686
1.21262
31.3902
33.0937
16.6541
13.5035
31.4239
13.4334
30.5414
13.3664
31.6104
31.4933
13.36
32.0927
19.2455
12.2625
30.9824
31.7525
12.2828
29.5763
14.8676
32.2993
23.3077
32.3699
29.6306
29.6243
12.3734
29.9477
29.8519
11.4213
29.8966
28.9496
29.6953
30.5518
31.086
25.8342
14.8844
32.4929
32.7043
14.7492
14.8122
30.9613
13.489
31.8157
31.062
17.1911
16.3848
0.0771726
31.5875
32.7103
32.5602
32.0348
30.9391
30.9598
32.7558
31.086
31.155
31.7576
32.5952
31.0996
32.2503
31.5158
31.1731
30.2646
31.4982
31.7426
32.1496
32.3923
33.2917
15.0971
32.413
31.5243
33.3461
10.2649
33.6675
31.0479
28.634
30.541
30.4539
10.334
30.0634
30.3185
28.76
10.3973
32.2597
29.495
29.6162
31.2568
21.2651
10.459
10.5071
10.1082
6.16181
30.9887
31.3211
7.71756
8.11625
10.0966
31.9307
9.18063
20.5205
9.95039
1.58155
1.80015
10.1712
3.16036
9.93978
33.3415
11.3076
9.15483
14.1663
9.20868
32.8939
32.6463
33.1537
32.1225
32.8648
8.04213
9.32319
32.8354
31.1784
31.0527
30.2249
31.3282
31.2562
30.6331
31.1077
9.19048
26.3482
9.28777
15.5011
30.7798
30.1708
21.0041
27.0025
31.7072
32.0395
14.8722
33.4809
32.4558
9.06031
9.26287
9.23742
14.6757
20.8434
31.1196
0.0944332
11.0522
29.7214
31.128
10.9363
31.0283
30.7919
28.4635
28.1488
15.6646
30.2804
33.4634
23.8027
11.2293
0.1195
8.09059
28.7924
32.1588
22.1508
30.0089
33.4721
30.3275
14.6853
31.2961
8.02336
0.340751
10.7873
11.1577
32.7821
7.05738
33.0272
30.3205
32.862
30.9387
2.56861
28.9596
32.0706
31.7969
29.9215
8.06765
29.5362
7.22541
8.05932
2.49083
8.07288
30.2155
30.4405
29.8229
14.5316
6.04674
27.6447
30.6817
32.3144
29.709
21.1748
15.6273
32.057
6.03894
28.5266
11.2306
6.00987
31.9743
29.6415
6.05711
8.03132
32.6624
18.2687
17.7451
15.6648
7.17033
6.32673
6.51351
29.6798
2.34329
6.52982
5.51715
29.9511
10.7603
29.7181
14.2518
6.8345
33.6767
1.64244
6.52932
7.12506
8.49555
30.0893
28.4624
23.4455
28.917
6.56791
29.987
1.98837
6.50035
30.8002
32.1681
27.9752
25.8188
9.41088
30.0037
15.952
26.6984
27.6321
24.3144
30.6265
33.4444
7.99788
30.237
7.20135
26.2133
6.51431
1.91946
31.6469
19.4519
7.94123
31.0744
29.5463
5.0081
32.7962
5.03387
4.71187
32.3629
30.0965
11.2773
31.3491
31.5395
33.6887
1.89658
27.5185
14.6073
33.4254
14.2017
3.44258
30.331
3.42109
3.59316
2.144
26.0562
31.8117
7.15021
1.33127
3.5046
3.55663
2.2395
25.5494
12.9846
32.2895
0.379195
2.44022
31.9839
3.55029
33.3898
32.4701
33.1379
33.575
31.7515
21.1063
33.1071
3.42502
17.1548
33.3975
16.4487
30.3399
2.4242
31.0344
25.3804
30.2574
13.7027
21.9388
26.6413
3.70822
2.42438
14.1627
2.14985
3.77383
28.8336
3.70898
9.06479
3.80098
33.4084
8.02625
25.8934
3.85031
12.657
26.221
33.3018
29.8146
30.831
14.3457
31.7176
29.3542
2.41071
29.901
17.6217
31.0676
33.2893
32.0525
8.88634
14.9803
4.14587
22.4971
1.98164
7.61247
7.18212
9.12533
2.84581
7.15636
7.47705
30.263
33.0642
33.6822
11.3011
7.85785
30.5487
32.0465
29.5224
7.20446
2.91783
31.5554
7.47646
32.4978
27.3976
14.3948
23.3667
31.9513
32.3529
8.95999
32.1034
19.1815
3.80395
30.1176
10.0559
12.6779
1.54616
30.8905
24.224
29.8589
18.3653
14.597
32.0089
33.2099
3.6674
29.4537
32.9031
4.74993
1.76113
32.2642
30.9203
29.7749
7.2618
29.3811
11.4068
21.2331
18.0226
32.3322
29.6371
20.7738
32.388
32.6042
32.7289
31.696
29.8411
30.2274
30.142
31.0455
30.2717
30.2184
30.0055
30.1738
19.1777
30.1475
29.5202
29.581
30.0782
29.6894
32.3433
21.1757
29.6385
30.1809
21.7111
29.9465
30.0623
30.2544
21.2472
30.0523
21.1605
23.4238
18.0247
30.0603
31.5374
21.1063
27.3895
30.6034
33.4144
11.2755
29.9783
11.2115
29.9477
32.7384
29.8382
11.194
11.1059
32.6096
16.3399
30.262
29.6434
25.3714
5.75166
21.1242
33.4698
11.232
29.6266
17.6575
31.7886
30.9443
31.5125
29.5468
5.75535
7.01544
32.9677
27.5032
31.0117
31.0085
30.9989
31.7491
19.8684
19.9204
7.16438
27.3981
33.6812
14.4586
11.4567
5.26504
19.8891
33.4214
5.64545
19.7816
10.1763
27.414
10.6335
30.7452
13.6308
20.1831
11.3491
20.2765
21.2838
30.785
21.4863
30.507
32.3962
9.29979
32.9755
14.3434
32.7086
30.6495
30.2674
30.908
33.1937
20.2326
30.8178
16.7691
30.0233
32.8268
13.9952
19.3756
7.52702
16.2141
33.1095
27.8758
32.9937
17.7278
30.6442
13.9909
19.8081
20.1076
17.8774
30.5561
30.5563
30.5215
6.0914
32.8335
31.093
6.09207
30.6894
31.3289
20.0444
30.5452
10.9349
27.3151
30.0516
30.0078
29.9433
7.16818
12.0731
31.7094
0.230517
17.3493
30.0038
20.4341
32.8037
6.23378
14.1966
5.34058
31.5716
14.9715
7.8002
21.1576
19.6176
16.5987
32.0261
32.2061
25.8856
31.2159
31.7991
32.5518
6.29105
20.5243
8.19604
13.0075
29.86
14.9403
11.3856
12.2193
14.7178
14.9446
18.7931
16.4366
32.0351
31.987
32.0015
16.4885
32.8595
17.4646
29.4095
16.4969
27.5418
6.31652
3.06898
31.3661
32.6056
16.5435
16.436
32.3878
32.2125
33.5487
6.80988
16.4307
17.0075
17.1645
1.63164
11.38
31.2067
33.0724
32.2965
1.30538
10.9466
0.174974
12.4075
7.07828
17.2215
30.3343
32.2865
29.6125
30.6562
1.71254
14.6599
32.1553
30.7694
30.2463
33.3813
33.598
30.1665
17.8604
31.4809
21.8901
27.3724
31.1141
17.5032
0.504995
6.64156
32.7947
30.2686
17.7761
32.0761
17.8453
27.7372
7.21846
30.1312
29.4493
31.8602
31.4622
31.2514
30.1365
28.4632
30.8251
17.9107
8.17765
32.302
32.2496
18.2568
31.166
32.5002
9.92682
26.7595
31.0341
31.013
30.3318
3.67906
32.1226
32.1762
28.1541
18.3307
18.2719
31.6289
31.0898
29.8856
18.3295
18.1513
18.2837
12.9196
31.6121
3.04477
0.612059
0.757807
33.4115
33.187
32.3102
33.3556
32.1277
9.91217
10.1656
8.15794
33.4279
32.7659
32.0883
32.6081
30.2256
22.3049
1.12026
0.28278
30.8977
31.9941
33.4255
27.5329
20.8371
24.0203
32.6121
27.6938
30.0342
30.7717
32.1885
9.88158
10.982
31.0898
30.6004
13.5011
32.1985
7.25537
9.01489
28.5417
31.0583
30.6754
7.27995
22.4553
30.1842
28.5466
0.987692
14.5314
31.5032
31.1532
33.3713
32.2755
1.95534
5.01281
31.1625
22.5219
19.2994
27.6549
31.7189
31.2155
31.1191
31.1639
14.9271
29.9573
31.7565
30.513
3.30045
16.9275
4.0882
30.4412
33.2316
19.3204
30.1706
32.2269
31.2492
31.4951
10.5462
30.2845
31.3418
31.3605
4.06965
10.9959
31.2009
32.9181
30.8831
12.783
29.9112
30.728
30.9086
33.0109
32.8022
27.162
14.8116
33.6656
11.6957
14.7116
10.2517
33.4862
33.3133
31.9671
33.3857
31.2958
13.9708
31.7123
29.6038
30.0406
19.3629
29.9217
19.2531
32.1451
32.8302
23.2033
27.7088
30.0297
19.4342
31.6807
19.3468
30.1507
30.8473
31.1263
30.1623
31.0231
22.1078
31.0766
12.3499
33.0062
29.8787
32.8078
31.2139
3.85183
17.7543
31.9586
28.6379
33.6252
19.8297
22.1156
17.7276
33.6802
27.0498
17.6963
22.3268
15.006
27.4148
17.9281
30.2146
31.4514
27.5787
6.17131
17.7747
30.7032
30.1221
29.7261
28.686
33.5297
30.9572
32.9549
33.3599
33.6364
29.8722
17.5469
23.5237
8.20556
29.6718
24.8891
32.956
14.1758
32.3222
33.5799
32.3866
30.1677
23.5532
30.3395
33.6505
31.6836
12.1279
31.802
32.6017
23.1044
30.2408
29.2477
29.0582
28.9786
33.3823
29.0335
28.9789
29.0232
29.1876
31.5286
31.5285
12.0358
18.508
29.9206
29.578
31.7116
12.2195
30.2342
30.3716
23.3474
31.2856
32.0532
19.7508
23.5378
33.6016
31.1255
25.0958
29.844
30.7047
27.3761
13.1502
12.7788
30.3865
12.9683
33.1669
8.02293
27.0911
12.8994
31.7901
27.0932
12.9537
30.2172
27.5064
30.8344
12.1594
30.0259
12.0273
30.4989
22.096
30.9237
30.5012
32.9921
27.571
27.6269
33.1834
13.2412
22.0946
33.6743
31.7535
9.98305
0.491855
26.8905
33.44
13.631
13.4205
23.2295
27.4846
33.62
26.9383
31.3806
25.9807
32.3233
27.6491
27.6211
30.8569
8.36429
30.557
22.9573
31.9779
30.861
31.047
32.3392
31.1958
32.2782
18.4594
10.074
25.8488
30.9931
29.5641
25.7609
31.0875
33.6773
30.6849
33.4574
30.8656
0.390428
31.7862
33.0952
31.4249
0.353311
30.9566
32.1249
30.1293
1.88968
32.3757
1.93996
27.2384
18.0515
1.89865
2.03579
30.2691
31.0853
31.8877
1.90697
4.16729
30.4663
29.6232
2.07374
32.5506
33.1795
25.7188
30.8322
13.4028
31.023
2.09233
22.938
31.0551
31.4969
31.0431
32.9746
32.5345
22.9961
31.0884
2.13551
30.6192
31.5561
4.73398
33.0566
14.226
30.3093
32.5933
18.6684
8.37054
25.9663
32.9632
33.0157
31.9388
8.3369
24.9812
30.5542
32.1209
30.2313
5.18045
31.0567
14.3437
25.8942
31.5191
31.2521
5.26547
32.2846
30.115
32.3741
30.238
32.6889
25.9136
29.5122
30.7196
32.8125
29.5984
31.2828
29.6441
30.7195
30.9556
30.2766
8.3991
30.2645
5.12463
30.1479
31.1707
27.3528
5.18207
31.0625
30.2309
31.1911
5.02259
29.8982
31.7366
30.4224
31.1602
5.66585
31.0477
26.3019
33.558
17.3531
29.9262
20.9066
30.6782
32.4951
16.4851
29.7815
31.0175
4.14318
16.9896
33.3358
32.9562
18.5961
21.3526
5.09532
5.13669
5.19028
18.6398
5.0599
21.7239
30.4983
26.3466
29.6128
29.5985
31.6341
30.5189
32.4371
5.01001
33.4327
33.6376
33.3375
24.6018
21.6206
29.5139
19.6249
33.0936
20.0585
30.6036
23.4494
5.47769
29.6088
17.0078
30.6321
30.7795
31.9826
5.62317
17.4581
31.9156
32.5517
5.68375
32.9555
26.6632
32.3153
25.1246
32.2121
31.9753
33.2813
31.9404
4.49707
31.9323
27.7364
33.004
17.9204
31.64
31.3102
29.1606
29.107
31.2048
31.3817
32.3055
33.1436
16.976
26.5634
29.3613
32.8613
17.4256
31.675
32.8371
27.473
13.1102
24.3987
32.0167
3.09472
18.54
8.91778
13.9478
32.3659
33.6323
33.6361
33.0354
32.0736
31.948
31.9452
30.7069
32.0171
31.9463
32.1178
31.8897
25.1339
31.9829
31.1818
30.169
33.0385
31.6639
28.6463
31.6154
31.3868
13.9801
25.9943
30.7511
33.5719
32.0682
12.1687
33.5126
32.2884
25.8792
32.472
31.0755
32.5333
32.8153
23.4093
32.2943
26.9086
32.8312
32.5502
31.4337
31.6864
31.2832
25.9544
26.1093
6.70863
33.0823
30.4191
33.1938
26.1162
31.0478
26.0604
26.0807
32.4155
30.1115
29.5409
27.0386
30.8097
29.9341
27.0117
29.6155
19.0907
32.9044
22.0841
29.5947
29.2749
32.1368
16.7663
32.5298
16.9079
23.3692
30.8591
16.9763
26.5475
32.2379
23.5513
31.2896
30.9298
31.1413
30.8693
30.3501
31.8276
31.0383
33.4122
26.1207
29.969
31.8109
32.5098
30.917
30.7507
12.2905
28.8678
26.426
27.6481
31.0883
15.9536
16.0121
31.9479
29.9741
30.2541
30.586
30.6101
30.5056
29.7018
29.8819
20.0926
31.5209
33.4607
29.3299
29.517
32.1245
16.722
30.3766
30.9286
32.9915
24.7359
33.3515
31.647
18.8622
32.3332
33.5764
30.1729
33.5926
19.0011
31.5976
31.4787
31.3147
30.1737
20.2441
24.7291
24.6811
16.7536
21.3515
21.4401
32.5561
29.7886
27.0802
20.8376
29.7913
27.0494
32.8513
27.6518
30.8449
24.8027
31.8279
31.0524
21.4576
27.5197
30.869
20.7941
31.761
32.3661
24.813
23.5011
33.0733
31.8162
30.6648
32.0394
31.2604
29.7444
33.1019
32.3485
20.7105
33.1344
32.1799
31.6855
21.4923
31.0791
29.7477
32.2271
31.8997
30.137
29.7993
21.4915
30.936
29.8703
12.5231
33.0016
20.8166
20.55
31.2435
12.9529
32.2359
30.2907
32.6569
29.9429
33.0527
33.5166
33.6947
33.5369
12.7576
33.2137
32.6299
33.2172
30.2444
31.7692
30.2052
25.1513
32.1482
32.8881
23.4848
31.9306
32.1164
33.6623
12.6019
31.503
24.6835
29.8077
27.5023
1.48125
32.024
29.8011
12.3676
29.7069
31.9877
26.5977
27.0268
0.0910517
22.6286
27.6623
27.6974
33.2167
30.7989
15.5711
25.3462
24.5526
15.1309
27.4275
32.9419
2.76644
15.5847
15.5372
33.6817
15.4991
2.33779
8.86351
14.724
25.3059
16.1512
3.27401
14.4407
0.524961
6.55917
14.784
29.7575
0.368543
0.115124
16.8176
19.6095
0.786133
14.7252
0.538415
29.7545
25.7808
29.7375
7.8688
15.635
19.9647
11.7046
29.7626
32.0802
14.4405
11.8069
25.4837
24.6625
3.99907
15.6579
29.047
15.7052
32.1442
27.7594
25.5493
22.5
8.95003
25.7306
26.246
18.0498
11.0964
11.22
8.05762
15.7697
0.367748
29.3668
29.3679
15.8105
31.1875
32.1117
14.9531
15.1139
1.20968
31.3508
22.86
23.5468
10.7789
29.2308
32.1387
25.7985
0.330194
25.6011
33.639
3.8864
32.5258
11.6285
17.8394
21.8422
22.0242
31.2956
32.2244
23.8409
15.1815
15.1381
32.261
12.2062
15.2419
19.6775
32.4472
10.9673
0.880136
29.6576
8.93663
27.7775
24.384
30.7386
23.2215
27.3509
32.216
18.8425
1.66298
28.3993
19.2047
19.184
3.42501
16.6885
19.4665
1.19499
25.7744
24.6744
18.2401
3.0612
16.2312
26.358
11.7293
19.2981
6.59741
14.7858
26.3699
3.47761
32.365
19.1941
19.1468
25.0257
4.66494
22.3712
30.7536
19.1185
8.90415
32.4372
22.8416
0.38498
19.2462
18.5398
2.23508
0.446941
16.4846
18.5626
23.0212
32.4136
32.081
23.1388
33.3486
23.2001
22.5157
30.3143
2.28394
19.729
12.2502
33.214
8.89699
10.1696
22.8051
25.6201
10.0038
4.29954
12.3857
20.8291
32.121
30.9117
25.0049
20.774
22.767
12.9602
30.9109
20.9517
17.8418
30.279
12.2808
15.779
1.16462
27.1553
21.5038
17.9868
3.66415
13.7131
33.3339
19.2313
9.8133
18.2923
27.0143
30.9298
21.686
30.4438
31.8908
10.3141
17.8372
11.1944
27.6024
23.6655
28.6245
32.1818
17.8658
17.8876
11.4252
11.4148
31.0466
33.6837
33.6295
11.4885
11.4448
26.994
8.79178
30.222
30.9881
11.4684
12.7444
22.1615
11.4009
11.3854
13.7004
21.4014
29.0874
31.5277
17.5291
1.23532
30.9683
16.5161
13.6099
27.3423
17.4317
13.6485
23.0211
30.9772
11.7612
14.1555
33.268
30.2585
0.740139
1.14506
4.79068
1.96341
13.6755
13.7881
3.3317
8.78375
12.6143
1.95715
30.8957
30.8216
0.0769088
2.18171
13.6353
26.4828
13.2295
13.0354
18.1445
11.111
13.156
31.7838
33.2582
26.3542
30.8423
29.8106
14.2948
9.04636
14.0114
25.775
29.8943
21.7479
26.5318
30.0232
26.602
26.7561
13.1324
13.2343
0.86599
15.3045
25.4844
2.22583
31.9816
30.0163
24.2653
4.26208
11.4435
4.40255
22.8277
20.6258
25.086
30.0465
13.9702
2.9457
12.1397
26.5895
21.6855
24.5229
26.7859
14.0461
3.18107
29.9656
19.9175
13.4741
28.5471
29.8047
29.6295
12.1358
29.7518
0.668727
12.0848
11.3262
15.2958
23.8157
29.0872
28.6197
30.061
29.4813
23.0644
31.9817
31.9865
27.6654
32.0418
8.83334
11.7779
10.8393
8.27146
8.76609
15.6803
29.4437
4.21479
1.8327
20.4256
14.8361
8.24003
13.9448
32.1176
26.7774
8.07759
18.5034
31.9999
18.7536
14.5863
31.9664
31.1229
22.6804
7.97368
32.6442
16.472
14.8349
22.7088
32.8493
31.9358
1.28221
26.5409
15.4847
32.0434
33.1212
31.9667
17.8391
28.5138
28.6188
5.56046
26.9174
33.5153
5.53794
26.8611
12.5377
1.42304
1.34578
6.00205
27.6828
1.54025
33.666
6.31868
3.24172
0.480946
10.0692
2.33488
2.26873
2.39362
2.55588
0.56837
23.5332
27.5158
13.7852
23.0494
25.5844
27.3567
2.49612
27.4345
2.51123
0.574189
7.29345
4.43407
22.7026
4.39541
27.6368
5.18149
30.0579
14.1031
28.7856
10.4228
15.7009
33.274
19.305
30.0813
16.4125
30.1235
30.3211
10.8245
19.7929
29.7451
4.268
11.4143
19.7257
30.9972
32.9925
22.9702
6.26783
26.3959
10.3365
3.42607
19.273
24.7381
18.3248
19.4019
29.542
13.9775
32.1892
30.4052
7.78423
5.60528
25.986
7.46016
4.94482
19.3494
20.0792
30.4795
25.0265
4.84375
19.1169
30.416
33.3086
14.0285
16.4407
29.5096
22.4948
0.414339
16.9155
1.32856
4.0138
10.4443
31.1315
28.9869
8.30725
24.293
33.6736
7.80661
22.5352
17.7571
27.6957
8.29842
27.6308
14.0309
23.3534
29.2249
23.8916
31.581
16.2359
19.6275
3.82122
0.203361
29.7242
0.289063
24.4082
18.5846
23.7235
29.6455
31.9472
8.73661
24.0573
18.6326
16.0682
22.3233
6.30881
1.1887
12.0787
1.32978
0.918653
22.6214
29.8482
26.1647
18.3808
0.0907505
22.0357
29.8519
31.4078
27.4636
25.7863
30.1541
25.8774
20.4427
29.9994
29.2705
29.2152
20.0383
8.13581
27.6063
29.2857
22.4114
9.25436
30.0618
1.94985
29.5555
17.7394
6.33913
32.8215
1.84617
22.1317
22.1278
5.62464
31.6866
26.8186
21.2224
23.6737
22.0865
22.9913
23.5723
20.1348
26.993
20.7659
3.27179
8.26215
30.9004
29.6787
29.48
30.2193
19.003
9.60501
8.40519
22.1862
4.82392
8.48748
16.8848
19.759
18.9056
6.12572
20.3197
22.2156
17.8284
4.50501
31.7206
22.0164
21.9933
19.2982
20.471
30.1182
11.3647
11.6293
15.9165
15.9571
12.7725
30.7295
12.6283
12.7106
29.7183
12.8547
18.2347
30.244
12.8513
30.1611
33.6791
11.3817
19.8341
18.3147
12.7115
31.3186
1.96788
20.4962
33.6498
10.2918
13.1269
10.7647
18.7328
30.1544
19.8836
19.8105
17.2998
30.2475
9.01551
3.41249
17.668
7.74047
9.75655
33.1263
30.3696
29.921
0.626498
30.0438
8.78894
7.30751
2.37417
30.3471
2.67233
30.1353
31.7217
30.1607
10.8114
0.27906
26.6984
17.6508
9.44628
29.6852
29.565
22.3971
22.0424
7.21279
25.5145
9.5152
26.9499
31.6555
29.2897
29.2705
31.7502
29.2965
0.381366
32.0814
8.78605
16.7528
9.50107
1.81519
11.3378
29.6793
7.4573
16.7646
19.5937
23.2129
29.7294
31.5171
20.2942
7.42819
27.4182
27.4094
25.2115
26.1816
27.0392
26.8263
5.57687
1.24814
5.6144
27.4602
5.49046
16.846
18.1482
3.69393
5.49579
25.1598
27.544
27.3857
27.4752
27.5061
3.82434
23.4519
33.5634
27.51
27.6162
2.06072
1.22265
0.445572
16.8696
12.6466
27.6045
1.3297
25.8429
31.0023
8.83992
12.1058
13.7608
31.0262
10.243
5.66654
1.41519
12.3945
33.4695
30.7611
18.4083
3.49458
3.33912
0.671246
30.2059
32.4305
32.6129
13.7099
16.4278
3.14132
32.3726
9.06271
30.7104
30.6098
1.35057
0.950593
31.0198
3.17538
3.26267
0.654294
33.6217
32.9164
5.84132
16.8688
30.7007
2.87954
2.57012
2.62851
30.5627
30.5432
30.6033
2.63059
2.88946
22.3012
2.56367
33.4707
2.39377
15.8845
22.4994
20.5403
30.1889
31.4787
2.28726
23.7898
23.1604
11.5853
30.2575
26.7111
32.1437
3.89701
25.3801
16.058
30.3086
29.8088
24.0703
24.8893
29.7347
29.7785
32.2419
10.4078
29.9977
29.7105
16.6449
16.2839
32.2172
29.6444
14.1484
2.449
2.52674
10.8168
9.0785
29.677
16.8495
29.5181
29.5114
29.7972
11.4302
18.7402
2.57127
29.5738
29.9154
16.2451
25.1849
17.2256
18.9294
14.8935
12.9292
14.7309
2.4699
29.5519
15.9625
11.804
2.50043
10.6262
18.8176
29.1019
10.5279
10.5398
10.5022
10.5181
3.56944
29.4871
30.083
12.2432
30.0364
30.08
14.776
30.0886
8.76448
30.0256
30.0776
30.265
29.7904
11.6859
3.80751
11.7535
29.8766
5.57875
11.1447
15.8446
29.9729
32.3611
11.6994
12.4527
26.1261
11.72
29.9401
0.121985
2.48449
1.98572
31.3606
30.2123
6.90877
5.82813
30.2647
30.0491
21.8405
0.169097
29.9274
24.0856
21.7973
21.8473
12.9541
30.045
14.7479
28.0204
1.26663
0.26199
21.8661
21.633
19.982
8.21989
15.0442
29.7998
16.8759
15.0559
26.0417
23.585
21.8342
29.8457
10.3122
15.3728
8.6152
13.1205
15.1888
25.4198
0.995023
23.1144
20.2397
21.8764
6.10065
21.9812
23.0828
14.9751
18.4047
30.1344
27.1068
33.6398
14.8499
15.4885
22.0323
23.1494
21.1528
15.0759
15.0961
24.4813
11.6788
3.87308
31.1389
29.5159
23.1503
23.1734
17.9208
23.1173
25.8507
24.1009
25.8259
25.7021
29.5761
3.7635
25.758
28.0527
29.5444
0.390241
29.4509
11.4757
15.0929
27.1877
10.2152
33.6049
14.5739
25.7247
1.77352
32.0443
25.7864
3.28722
19.7934
25.665
25.6971
29.5471
31.9011
10.5862
15.9157
8.39364
15.9032
14.307
16.1627
26.0968
29.7668
0.400568
29.7303
16.0172
3.77833
17.1205
32.7666
29.4237
24.083
16.0806
11.5827
17.3499
31.9812
17.1641
17.3604
0.453463
17.3218
28.7276
28.4611
17.1671
31.6038
31.4421
10.2471
28.5806
23.8424
32.976
7.67455
29.7813
27.2804
33.1538
4.75969
22.8385
26.9806
17.2343
18.1638
15.5629
21.9173
26.4455
1.38315
27.0143
9.56242
26.8332
30.2714
5.49129
31.2593
18.1897
18.4297
14.4558
12.7788
18.0625
0.376822
11.3095
18.0167
17.5699
27.7101
21.3807
24.0857
29.7939
17.987
3.99295
27.3976
3.69799
18.0941
27.4829
5.55216
25.4787
16.0995
27.5046
16.2045
9.73209
18.2621
14.6842
31.4467
31.3465
15.5043
15.8166
19.9811
32.286
27.5075
1.11762
15.046
11.3733
7.14367
11.9658
10.184
15.7609
0.044798
8.95314
21.219
7.52217
13.6839
12.2343
11.2157
21.1822
18.0473
7.44251
27.659
16.8979
27.7092
6.55379
19.1769
27.6308
8.43087
0.0614057
12.0073
15.7908
6.71027
5.54411
30.8592
18.816
27.6328
27.5222
28.5285
18.8487
29.594
10.337
18.8221
2.61341
20.2236
30.876
18.3477
21.3604
0.507076
19.1567
27.7347
21.1588
31.9631
12.3587
1.59261
20.3454
26.5495
28.0053
30.8608
32.0921
28.1163
29.8399
21.2149
31.2572
27.1723
27.8995
29.586
29.7272
1.41783
29.7669
32.0883
21.1513
11.9184
33.0258
14.2677
10.8005
14.9624
27.6676
32.0956
24.3853
21.4261
20.286
27.871
32.1432
25.8163
20.7054
23.3096
31.922
12.1554
20.5725
30.7988
10.6588
31.7632
30.1764
25.9077
20.3627
32.3757
25.8636
25.5698
25.9454
25.4547
17.512
24.9684
24.8064
18.4265
21.1597
33.4244
9.68962
3.41926
7.35489
1.03306
25.3338
3.23673
10.4973
32.4337
31.1775
16.2356
25.3824
20.9729
9.88891
21.0102
11.2125
1.13112
32.1851
0.0802835
24.9747
2.80701
21.0123
6.59087
32.4245
24.3061
18.4388
24.3294
28.0909
32.329
9.21793
33.511
3.69028
33.3001
21.0567
24.3038
20.0215
15.2263
18.2461
0.910271
19.896
32.3548
21.1272
21.1308
30.524
30.5906
1.31921
18.0816
32.5987
0.0391316
30.6161
7.86749
24.3307
30.6485