/*--------------------------------*- C++ -*----------------------------------*\
  =========                 |
  \\      /  F ield         | OpenFOAM: The Open Source CFD Toolbox
   \\    /   O peration     | Website:  https://openfoam.org
    \\  /    A nd           | Version:  10
     \\/     M anipulation  |
\*---------------------------------------------------------------------------*/
FoamFile
{
    format      ascii;
    class       volScalarField;
    location    "0.8";
    object      SgRate;
}
// * * * * * * * * * * * * * * * * * * * * * * * * * * * * * * * * * * * * * //

dimensions      [1 -1 -3 -1 0 0 0];

internalField   nonuniform List<scalar> 
111485
(
6.88535e-15
3.30635e-14
1.71518e-15
5.72576e-15
2.86724e-15
2.22246e-14
1.43425e-15
5.1822e-14
1.63286e-15
6.98357e-15
3.00469e-15
4.45724e-15
2.78393e-14
9.92827e-15
2.27596e-15
1.2502e-14
1.16954e-13
9.44195e-14
2.31334e-15
2.5887e-13
8.35157e-14
2.34669e-14
2.76459e-15
1.83187e-14
2.16434e-14
4.24002e-14
2.77254e-15
2.91761e-13
1.2726e-15
1.46857e-14
6.21282e-14
4.46929e-13
1.42277e-13
1.47242e-14
8.03408e-14
3.43763e-12
1.32143e-13
8.27993e-13
3.33517e-13
2.07758e-14
5.49468e-13
7.08427e-14
3.98403e-14
5.49635e-15
7.30043e-14
1.2521e-09
3.42173e-14
1.88419e-16
1.21251e-14
5.45556e-14
1.07923e-13
9.58791e-14
7.1083e-14
3.18597e-14
3.27959e-13
1.64399e-14
8.14312e-16
1.71636e-13
1.22093e-15
1.89366e-15
4.09032e-15
8.89973e-14
7.49152e-15
2.87306e-13
8.21629e-14
7.8553e-14
3.07098e-14
4.34236e-14
1.02639e-14
1.38665e-15
2.6786e-15
5.70996e-14
1.25937e-14
9.62781e-15
1.51782e-06
6.39267e-15
6.77998e-15
8.6314e-16
4.716e-14
7.51894e-13
1.58603e-13
1.70695e-14
2.1841e-13
1.85988e-10
2.79719e-15
1.34139e-14
5.13206e-14
1.74704e-14
2.25242e-13
7.02626e-14
2.22938e-14
2.39098e-15
2.05928e-15
7.66069e-15
2.38703e-14
1.45132e-11
3.00258e-14
1.43125e-14
9.50092e-14
7.61268e-14
6.02623e-14
7.39919e-15
1.13721e-14
3.8049e-14
2.50944e-15
1.46037e-13
1.53304e-13
3.50185e-13
1.35083e-14
4.36333e-14
3.83178e-14
5.13947e-15
2.63118e-15
3.07901e-15
4.14033e-14
2.83974e-14
7.80208e-15
4.42189e-12
1.73e-14
3.34368e-14
4.96687e-15
1.22279e-13
1.07862e-14
6.70712e-13
4.22186e-15
1.19181e-13
1.95953e-14
3.31499e-13
0.00018633
5.29981e-13
1.36681e-14
5.85299e-14
4.28866e-08
2.59446e-13
2.3644e-14
4.43742e-15
1.97265e-14
1.09794e-14
1.20333e-14
1.05109e-14
6.23721e-15
5.86533e-15
1.50445e-15
3.84699e-15
6.45291e-14
6.74943e-14
1.00623e-13
2.86872e-13
1.34271e-12
2.40308e-15
2.05351e-15
1.65769e-15
1.97132e-14
3.65872e-13
4.87192e-14
1.13096e-14
1.0308e-14
2.00563e-14
5.16562e-14
3.43069e-06
3.05142e-14
2.88814e-14
5.79455e-15
4.54599e-14
6.08757e-14
1.36872e-12
3.11536e-14
5.04743e-13
2.33681e-14
7.98437e-14
3.48769e-13
2.73941e-14
1.09387e-13
6.44879e-15
8.24473e-14
1.99612e-13
1.14258e-14
5.31522e-14
1.9825e-13
2.54465e-13
1.5592e-14
9.23028e-14
1.96389e-15
5.77433e-15
8.07198e-15
9.94249e-13
1.51419e-14
2.66488e-13
2.57337e-14
5.10273e-14
1.96401e-14
5.51489e-15
4.33583e-14
2.89338e-13
1.42916e-13
9.43224e-14
2.73407e-14
2.54795e-15
1.89425e-07
1.19753e-14
1.10228e-15
6.12853e-14
4.75802e-14
2.27727e-14
0.000375971
6.26158e-14
3.02836e-15
5.72125e-15
4.01848e-14
1.00877e-14
1.14711e-15
1.90759e-13
1.95564e-14
3.9654e-14
2.08137e-13
5.28728e-14
5.3719e-15
9.5722e-14
1.23762e-13
6.68121e-14
2.82325e-14
4.52925e-10
1.31651e-14
1.12905e-14
3.91463e-14
1.42977e-14
8.60087e-13
2.71714e-14
2.09125e-14
9.45948e-15
4.7253e-14
5.67262e-14
5.99883e-14
4.91516e-15
2.31882e-14
6.60281e-14
3.97158e-14
5.80189e-05
9.75292e-15
3.5299e-14
1.20357e-13
2.36493e-14
1.73023e-14
7.94531e-13
1.73076e-13
5.28355e-14
5.91279e-12
2.13446e-14
1.21175e-13
2.42621e-15
7.83144e-14
1.22614e-13
4.2822e-13
3.96135e-14
1.7916e-13
2.96079e-14
4.83526e-15
4.96286e-13
1.25493e-15
6.94106e-14
2.11861e-14
8.2014e-13
6.5114e-14
1.93378e-11
9.06408e-14
1.08196e-14
5.8435e-14
0.000242338
7.98162e-14
7.56104e-15
2.74666e-14
2.18103e-14
2.855e-14
3.41603e-15
7.21588e-16
1.62057e-13
1.03399e-13
4.1461e-14
2.54359e-14
8.52296e-14
2.13935e-13
2.51048e-13
8.80647e-16
2.42852e-13
1.8207e-14
3.02219e-15
5.02517e-15
6.29573e-15
1.0483e-13
3.15081e-14
1.45285e-14
1.28098e-14
1.07198e-14
1.55789e-12
3.02411e-14
5.23521e-15
6.86332e-15
1.0027e-14
7.49503e-14
3.01061e-14
7.03124e-16
6.4356e-14
1.48267e-13
3.25889e-13
2.78653e-12
1.1704e-13
5.24838e-15
1.88801e-13
1.39335e-13
6.56609e-14
2.23832e-15
1.27711e-15
1.21211e-14
8.29123e-14
1.45529e-13
1.02478e-08
5.7425e-15
3.58308e-14
2.50629e-15
6.89998e-16
1.78676e-13
2.16067e-14
7.91159e-15
6.23467e-14
1.03545e-13
1.05987e-13
5.20926e-15
3.44185e-13
6.48473e-14
7.96186e-13
3.88905e-13
6.97192e-15
3.29535e-14
1.72537e-14
1.98567e-13
4.64486e-14
9.42646e-14
2.44237e-12
1.4217e-13
4.96147e-13
9.43335e-14
3.2709e-14
1.61079e-13
2.48168e-13
1.08274e-14
1.3894e-13
6.0609e-13
1.96521e-14
8.8798e-15
1.49292e-14
6.54575e-15
2.39778e-14
8.54584e-15
6.7486e-14
7.74693e-14
1.71044e-08
1.70968e-12
5.5623e-14
6.94827e-15
7.80964e-15
3.39643e-15
2.21737e-14
1.17267e-14
9.03308e-14
1.83525e-13
6.39497e-14
5.52373e-15
2.11169e-14
2.18894e-14
8.28422e-09
2.15093e-13
6.77111e-16
2.27414e-13
2.92562e-13
5.70012e-15
1.55716e-14
4.17782e-15
6.54311e-14
2.8732e-13
6.03435e-14
3.38137e-15
3.06954e-16
5.93429e-14
1.55413e-13
3.09652e-13
2.28275e-13
4.26411e-13
5.49996e-14
4.24304e-13
8.71893e-15
1.77119e-14
6.16867e-14
8.96768e-13
9.53901e-14
1.21634e-14
2.26344e-13
8.84251e-15
3.22286e-14
1.41323e-14
5.13393e-14
1.81542e-14
9.47278e-14
2.4404e-14
3.05726e-14
2.77248e-13
9.99462e-14
3.68038e-15
3.47225e-12
1.00693e-13
1.05872e-13
4.06943e-14
7.67968e-15
7.27899e-14
6.44754e-15
4.8417e-15
2.80859e-13
3.09959e-14
6.69209e-16
1.0138e-14
2.0425e-13
1.79874e-13
7.97454e-14
7.85129e-14
1.08809e-14
1.34541e-14
2.1799e-13
1.09778e-13
3.81931e-14
2.58519e-13
1.08618e-13
2.21454e-14
7.46275e-15
7.01758e-11
5.65467e-13
7.96895e-14
2.9451e-13
2.58719e-15
1.64976e-15
4.36841e-13
6.16488e-14
1.82291e-14
3.74259e-14
1.24727e-13
2.49901e-14
5.10722e-14
2.37338e-13
4.75683e-06
5.12312e-13
5.25183e-14
2.20616e-12
1.05433e-14
1.53943e-14
1.7283e-13
6.14983e-10
1.93646e-13
6.99197e-13
5.315e-15
9.31702e-14
1.56513e-14
5.2417e-15
9.45699e-14
3.46542e-14
4.95081e-16
7.86848e-14
6.35638e-16
1.31353e-13
6.15025e-14
1.11017e-14
1.72961e-14
1.12318e-13
2.07805e-14
5.44833e-14
2.24471e-14
2.50195e-12
1.17947e-14
1.40949e-12
5.47193e-14
1.38796e-13
1.13154e-13
7.2769e-13
7.70485e-08
2.52311e-14
2.067e-14
2.08517e-12
6.1316e-15
4.8307e-15
6.68525e-14
2.78847e-14
3.04754e-14
6.10711e-13
1.88951e-14
2.77938e-15
2.64639e-14
3.30519e-15
9.83001e-15
6.72017e-14
1.79722e-14
3.14725e-14
3.44333e-14
5.13173e-13
1.87261e-14
5.83529e-14
3.91525e-13
1.60332e-13
1.23347e-14
1.69708e-14
1.36107e-14
1.19687e-13
2.75924e-13
3.50284e-14
1.00883e-13
2.84015e-14
5.31621e-13
3.67808e-14
4.68373e-16
4.0329e-15
1.13699e-12
9.02242e-13
3.3057e-13
4.60375e-13
5.57462e-14
9.19023e-15
9.57592e-16
1.8256e-13
3.84799e-14
5.86413e-14
2.32034e-14
2.40603e-14
2.42327e-14
7.00155e-15
5.58304e-14
9.04836e-15
1.16911e-15
2.89677e-13
9.89558e-14
1.15248e-13
1.05266e-13
7.43183e-15
4.72556e-15
3.90497e-15
2.89727e-15
4.33258e-14
8.41199e-15
1.64344e-13
1.76459e-15
1.83583e-13
2.8458e-14
6.71623e-14
1.10921e-14
2.84467e-14
1.9164e-14
5.7913e-14
1.54992e-14
2.88562e-12
1.40417e-14
6.03578e-15
5.69935e-15
1.17175e-13
4.36712e-14
5.87024e-14
3.38735e-13
2.48353e-14
4.19239e-15
3.91851e-15
1.23831e-12
2.11772e-14
1.80172e-14
2.75651e-14
2.02367e-15
5.43595e-15
7.72938e-13
8.39881e-14
2.69386e-14
2.28594e-13
1.75902e-13
5.29737e-14
5.90527e-15
2.3074e-13
2.71974e-13
4.06641e-14
2.49898e-14
2.37081e-13
8.32123e-14
3.98277e-13
1.29643e-14
1.08976e-15
9.11595e-14
1.18681e-14
2.64848e-15
3.91416e-13
5.07571e-15
2.68852e-14
2.33689e-13
1.44309e-14
5.22551e-13
0.000220512
1.56085e-14
4.80397e-13
8.07671e-15
3.18193e-15
5.91363e-14
5.23967e-14
6.78952e-14
3.06371e-12
3.98979e-14
2.66694e-14
1.98385e-13
2.16151e-13
9.52226e-14
3.1461e-14
3.92762e-15
3.49625e-14
3.3699e-14
5.22951e-13
6.11091e-13
1.58739e-14
1.5167e-14
6.02928e-15
1.55501e-14
1.44404e-13
3.57088e-14
1.15563e-14
0.000403479
3.34056e-15
1.62003e-14
1.47323e-14
3.2352e-13
1.92366e-14
1.05107e-14
1.57711e-08
4.02196e-15
5.92711e-14
8.44162e-14
6.05665e-15
6.26455e-15
2.97229e-14
6.59131e-15
1.97215e-14
9.92402e-14
4.23181e-14
5.37067e-14
7.97498e-14
6.20525e-13
1.0229e-14
4.31946e-13
6.43367e-14
2.01092e-13
1.0804e-14
5.9093e-14
3.22537e-14
9.15369e-14
3.75035e-05
4.72966e-14
1.61619e-14
1.40463e-14
7.94806e-14
3.69406e-14
1.30337e-13
1.38513e-14
9.2495e-14
3.9452e-15
3.38296e-14
4.85211e-13
1.1458e-14
9.75039e-14
0.00026926
1.45129e-13
9.47054e-15
5.80934e-15
1.01291e-13
1.4073e-11
3.04821e-14
1.91715e-14
2.35236e-14
3.66654e-14
1.30958e-13
4.99924e-14
1.1898e-14
2.60395e-13
9.14365e-14
2.07624e-14
5.53915e-14
4.05089e-15
2.28737e-14
1.70205e-14
1.66814e-14
1.54839e-13
4.53353e-13
3.23287e-13
2.12744e-15
1.59616e-13
4.1074e-14
5.8482e-15
6.8512e-14
2.22244e-15
3.72517e-14
8.4882e-14
5.14869e-13
4.24864e-14
1.87545e-13
4.96224e-13
4.46623e-14
4.22067e-14
5.18832e-14
3.84525e-13
6.62317e-13
4.91087e-14
6.62893e-14
1.47477e-13
4.41356e-15
8.35242e-15
6.64226e-13
8.16979e-14
1.55262e-14
1.28168e-14
3.03547e-13
3.70072e-14
3.31309e-14
2.06275e-14
9.73836e-14
2.29121e-14
1.65632e-14
2.23548e-14
3.77566e-14
4.67788e-14
1.148e-14
1.43329e-13
1.09893e-13
2.62156e-14
1.54413e-14
8.38998e-14
9.04492e-12
1.06545e-14
9.13499e-14
1.4193e-14
1.06527e-13
1.07497e-14
2.91146e-14
1.70119e-14
2.19624e-14
3.01463e-16
9.93206e-15
1.61858e-14
7.72739e-14
3.21284e-14
7.08484e-15
4.88393e-14
2.24536e-14
1.34742e-13
1.28868e-13
1.23402e-13
2.66374e-14
3.22624e-14
1.04365e-13
1.07262e-13
1.05213e-14
4.6916e-15
3.47703e-13
3.98646e-14
3.84657e-13
8.86903e-14
2.12636e-13
1.55446e-13
7.49618e-15
3.81981e-15
2.91474e-14
2.95145e-13
1.92624e-14
2.82161e-09
2.1573e-13
7.41208e-14
2.51508e-13
3.46567e-14
2.57415e-14
3.64896e-13
1.80792e-13
1.16242e-15
5.95544e-15
1.10978e-13
4.33793e-14
7.78449e-15
6.81209e-14
2.15112e-14
3.35032e-14
4.86346e-13
3.82051e-13
5.01421e-14
6.24995e-15
3.99014e-13
2.42714e-14
1.74549e-14
2.27784e-14
6.59403e-14
1.32382e-13
7.37766e-13
3.92879e-15
3.76977e-14
6.95286e-14
4.79347e-14
2.43912e-15
6.78351e-13
1.29258e-14
1.88969e-13
9.6828e-14
7.63408e-13
5.43798e-14
5.94353e-14
1.34359e-14
1.74538e-09
7.99847e-14
2.72394e-13
3.91552e-14
1.54863e-13
2.36876e-13
1.25844e-13
1.11301e-14
6.99349e-14
5.04693e-14
4.68766e-14
9.65693e-14
4.23461e-13
2.71474e-14
4.73888e-13
3.60113e-13
2.92396e-12
8.04672e-14
9.64543e-15
3.57601e-13
2.67189e-13
1.49715e-13
2.04808e-13
1.05005e-13
2.53094e-13
6.31561e-14
8.49248e-14
5.7828e-14
2.97191e-13
4.48261e-14
9.56301e-14
1.41499e-14
1.89167e-13
1.15118e-14
1.40729e-13
1.00549e-13
1.0757e-13
3.34436e-14
1.40262e-14
3.35538e-14
8.89388e-15
3.32036e-14
4.51925e-14
4.72392e-13
2.64761e-13
2.9547e-13
1.93162e-14
9.97038e-14
5.63477e-14
0.000102267
4.31534e-14
8.72626e-14
2.61865e-13
1.84461e-13
9.12045e-13
2.70844e-14
2.7393e-14
6.75331e-13
2.52555e-14
1.16124e-13
0.000286894
9.80671e-15
8.03554e-14
6.91838e-13
1.38313e-14
2.39884e-14
1.66926e-13
4.77107e-12
6.28824e-14
2.10544e-14
2.56509e-14
6.4621e-14
1.39604e-14
1.09422e-14
4.99132e-15
7.05188e-15
5.04518e-14
1.10082e-14
1.08357e-15
1.2945e-13
1.60543e-14
4.89598e-14
2.06584e-13
9.96211e-15
2.28123e-13
1.77103e-14
8.00645e-14
6.78841e-15
3.87913e-13
1.60652e-15
6.68309e-14
4.7529e-14
6.38509e-14
1.73139e-13
2.59318e-14
6.54624e-14
3.54364e-14
4.6551e-13
1.42474e-12
1.22074e-13
1.74858e-13
2.01163e-14
8.5897e-15
7.25982e-14
9.86386e-14
1.06653e-14
2.6995e-13
1.76527e-13
1.5301e-15
3.6752e-13
1.82745e-14
5.08545e-15
2.8161e-13
1.11324e-13
5.77074e-17
8.30774e-14
4.76937e-13
2.90258e-15
3.47774e-14
1.73187e-14
1.86875e-14
2.66894e-14
1.07968e-12
7.8456e-15
2.68408e-14
1.30457e-13
2.15668e-14
5.67208e-14
3.40959e-14
3.68525e-15
5.04084e-13
1.02679e-13
7.48308e-13
2.26652e-13
4.38923e-13
1.30032e-14
2.6914e-13
2.46973e-14
2.9021e-13
6.64107e-14
1.55818e-13
1.361e-12
4.8594e-14
5.14432e-14
1.74473e-14
4.92346e-14
6.38944e-14
8.8372e-15
6.20152e-13
9.84811e-15
5.54532e-13
1.37696e-13
2.44875e-13
7.1218e-14
7.84529e-14
4.72177e-14
8.56494e-16
3.49498e-13
1.71605e-13
2.51324e-14
1.75003e-14
1.90051e-14
8.37519e-13
3.24233e-13
2.34805e-14
1.25626e-05
2.45539e-13
1.2722e-14
4.20221e-15
1.76659e-14
6.07774e-15
9.49505e-15
8.58789e-14
9.47312e-13
3.31074e-13
2.62664e-13
3.74471e-14
1.04597e-12
8.93872e-14
3.61297e-14
9.08002e-14
1.52637e-13
1.85301e-13
3.35784e-14
1.85354e-14
1.79035e-13
9.28676e-14
2.02882e-14
3.11104e-14
3.37054e-14
6.07531e-14
6.78463e-14
2.22368e-13
1.12203e-13
3.51993e-14
2.29345e-14
1.97165e-13
4.97635e-14
3.66484e-15
9.84913e-14
5.15334e-14
1.37699e-13
1.40753e-14
3.83734e-14
2.04726e-13
2.09717e-13
3.65631e-15
1.46039e-13
1.09609e-14
5.72482e-14
2.53286e-14
3.2146e-13
8.40231e-14
4.91919e-13
3.23252e-13
2.7364e-12
1.10023e-13
2.76163e-13
2.92201e-15
9.03549e-14
1.35578e-12
6.00934e-14
4.71061e-14
9.18045e-15
1.86786e-14
1.96261e-14
7.88065e-14
1.10393e-13
3.13025e-14
9.0717e-15
8.06557e-14
3.04158e-14
9.61546e-15
5.00636e-15
1.12031e-14
1.24981e-15
5.41104e-13
2.76164e-15
1.02728e-14
8.00515e-15
1.54663e-15
1.64034e-13
2.78399e-14
2.13287e-13
1.3081e-14
1.18317e-13
1.92833e-13
1.8579e-13
1.61353e-14
1.45536e-13
1.30596e-15
4.02128e-15
2.87561e-13
0.000112035
1.29139e-13
3.47556e-13
5.27644e-14
4.37992e-13
6.02501e-14
2.66393e-13
2.12798e-13
4.16007e-13
4.50599e-13
9.40642e-15
5.10147e-15
7.47373e-05
7.16333e-13
1.09589e-13
3.13401e-13
1.29567e-12
5.62845e-14
3.19595e-13
1.10887e-13
3.00185e-13
1.24227e-14
7.94604e-14
1.46178e-14
5.2504e-13
2.09243e-13
3.49924e-13
1.28121e-14
1.19362e-13
1.86021e-15
5.66128e-14
9.51915e-14
1.06532e-15
7.29159e-13
2.73712e-14
1.98145e-14
3.24778e-14
6.89379e-14
4.02217e-14
5.81356e-15
1.56217e-13
1.76728e-13
1.07989e-13
4.11826e-15
2.20554e-14
7.30007e-14
2.83348e-14
3.65932e-13
8.16489e-14
9.07729e-14
2.90474e-13
5.22581e-14
1.59213e-15
6.56565e-14
1.92455e-13
2.98673e-14
8.0384e-14
1.07291e-14
1.98826e-13
4.46182e-14
2.49348e-14
9.24666e-14
1.02354e-14
4.16121e-13
1.4567e-14
8.40179e-15
1.55547e-14
7.39471e-14
2.29347e-14
3.97298e-14
3.2611e-13
3.43772e-13
3.2052e-13
1.84553e-13
7.03575e-15
3.84296e-14
6.30338e-14
5.8468e-14
5.53514e-14
1.93735e-12
3.06162e-14
3.71818e-15
2.2407e-14
1.64253e-14
1.08683e-14
1.35874e-14
3.85288e-14
1.18363e-14
3.79807e-16
1.4338e-13
3.85859e-15
1.64763e-13
2.32409e-14
8.21399e-14
7.04141e-15
1.74399e-13
9.02092e-05
1.69121e-14
1.99486e-14
1.26221e-14
1.8905e-13
5.70761e-14
1.59864e-13
7.40498e-13
3.56561e-14
1.3471e-14
2.03544e-14
1.47241e-13
1.76502e-14
1.22567e-12
1.68181e-14
9.88782e-14
7.55239e-13
1.17856e-14
7.94046e-14
1.12984e-13
5.24175e-15
1.11532e-13
1.29293e-13
1.7988e-15
3.46689e-14
2.02142e-14
1.32803e-13
5.07732e-15
7.7605e-14
2.3508e-14
1.92149e-13
1.68876e-14
2.03673e-13
8.4424e-16
5.32891e-14
9.07971e-14
5.36472e-14
4.98039e-13
6.45814e-14
6.58968e-15
6.71655e-14
4.28534e-15
1.01118e-13
7.48577e-14
2.93456e-14
3.1864e-14
2.83939e-15
1.70947e-13
1.74811e-14
4.53394e-14
8.63967e-13
1.87184e-14
8.98302e-14
1.36038e-14
5.05606e-14
2.74164e-14
1.02541e-14
1.65049e-14
6.43027e-14
7.65066e-15
7.30594e-15
2.65385e-14
1.37687e-12
3.66146e-15
2.52225e-13
2.84371e-15
3.05133e-15
1.40288e-14
1.11223e-14
6.14904e-13
1.11728e-15
1.16123e-13
5.09778e-13
6.74697e-15
1.47522e-13
5.43012e-14
1.63768e-14
4.14984e-14
7.70119e-15
1.079e-14
4.13511e-13
8.9008e-15
5.68911e-14
2.85457e-15
4.33948e-14
1.07274e-14
2.132e-13
2.22515e-14
7.32739e-14
4.58435e-14
2.59638e-15
5.0677e-14
3.59251e-14
1.15626e-13
2.51721e-13
2.10115e-14
9.61839e-14
9.79592e-15
7.93257e-15
3.94146e-14
5.00151e-15
6.72061e-15
7.93858e-14
1.37696e-14
6.46719e-14
2.27364e-13
5.31334e-15
1.57926e-13
3.00377e-13
5.46584e-14
4.59886e-14
5.38061e-14
5.46869e-15
1.77412e-13
4.89586e-14
1.50536e-13
3.19338e-15
2.13617e-14
2.01384e-14
2.12171e-14
2.1395e-15
1.71076e-15
1.13781e-14
1.49767e-14
2.0013e-14
1.67269e-14
2.26014e-14
3.54645e-15
1.04266e-14
0.000152023
4.43852e-15
1.65551e-14
1.13312e-14
6.56035e-13
2.37422e-15
1.49984e-12
1.73334e-13
1.26943e-14
8.12904e-14
6.53146e-15
5.43299e-16
5.27057e-14
2.50184e-14
9.32926e-14
6.06468e-15
8.06091e-15
1.11144e-13
3.81756e-14
2.26503e-13
1.68336e-14
8.2378e-14
1.7454e-15
1.09599e-14
1.26588e-13
4.94516e-13
1.19013e-13
3.71689e-14
9.03163e-16
1.50148e-14
1.19607e-14
4.09274e-14
4.499e-15
1.40638e-14
2.71483e-13
1.46985e-13
3.51567e-14
6.5787e-13
9.07297e-16
0.000192782
1.5376e-14
3.15004e-14
1.27943e-14
6.71885e-14
3.01346e-13
3.77451e-14
1.48663e-12
1.4169e-14
3.14201e-13
6.56966e-15
2.16579e-14
9.02731e-15
3.56322e-14
1.08233e-14
5.69868e-14
5.20038e-14
1.8343e-13
1.20428e-13
2.60943e-13
1.51829e-13
1.40019e-14
2.24979e-14
8.60577e-16
3.34123e-14
2.88933e-13
3.36328e-14
3.59274e-13
4.03659e-14
2.10578e-13
3.85069e-15
1.63876e-06
1.47234e-15
9.98269e-15
3.34366e-15
2.84408e-14
6.30802e-15
9.59078e-15
2.78813e-14
1.27263e-12
1.74811e-14
1.67191e-13
2.64022e-14
3.5499e-15
3.12399e-13
1.04855e-14
1.04834e-13
1.04042e-13
9.13626e-15
3.06857e-13
6.77339e-06
1.05628e-13
2.07071e-14
1.22352e-12
9.1204e-15
1.1578e-13
9.27709e-15
5.31402e-15
4.89182e-14
1.83009e-06
8.03191e-14
8.13953e-15
3.10552e-14
6.65743e-15
2.93789e-14
1.81768e-15
7.47071e-15
9.59813e-14
3.26395e-14
3.08739e-10
1.24645e-13
6.13796e-14
1.45777e-14
1.33976e-13
3.18195e-13
1.46287e-15
8.35451e-14
1.2285e-13
6.56395e-15
3.08972e-13
1.07822e-15
1.21737e-13
3.08083e-13
6.04794e-14
1.1261e-13
4.0352e-13
4.53925e-14
1.22783e-15
4.65188e-14
4.04807e-13
1.16384e-13
1.44025e-14
8.4237e-14
2.39276e-14
5.7938e-14
6.32339e-14
1.63079e-14
5.34238e-13
2.91215e-14
5.02574e-15
1.28424e-14
1.86799e-14
1.37283e-13
6.16169e-14
3.26999e-15
2.70868e-15
2.21754e-16
9.26401e-14
3.48717e-15
7.59693e-15
1.60301e-13
1.45361e-13
5.12012e-13
2.00866e-13
4.71369e-14
1.76359e-14
1.93597e-14
1.12433e-13
1.44073e-15
5.00617e-14
2.10555e-10
1.44649e-13
2.59094e-13
1.78201e-15
3.53568e-14
7.14804e-14
2.98298e-14
4.62339e-13
2.16509e-13
2.52197e-14
7.43942e-15
4.2085e-13
1.81047e-13
8.05922e-14
5.65989e-15
9.56239e-14
5.61765e-14
3.68811e-15
1.72343e-13
1.30997e-14
7.76453e-14
2.01279e-13
2.44333e-13
6.35178e-14
4.33645e-05
1.64296e-15
1.08268e-13
7.91021e-13
3.70046e-15
4.73269e-14
1.98344e-13
1.07535e-15
1.85192e-14
1.36189e-13
1.80922e-14
3.50121e-14
5.97589e-14
3.77325e-14
1.36087e-12
2.57557e-13
2.42023e-14
7.61464e-14
8.07221e-15
6.43074e-14
2.43248e-14
4.51805e-13
5.15298e-14
5.27607e-13
4.33427e-16
0.000131365
2.92217e-15
2.40056e-13
3.42749e-14
8.37335e-13
7.88303e-13
9.95035e-13
8.85026e-14
4.84951e-16
3.51339e-15
1.06613e-12
1.20119e-12
5.30208e-13
6.25403e-13
1.36243e-13
1.29249e-15
4.96182e-14
1.74978e-15
5.14629e-14
2.13271e-15
1.79296e-13
8.81917e-13
5.01439e-14
3.75827e-07
1.11269e-13
2.0952e-14
2.24405e-15
2.34974e-13
7.68457e-13
3.50668e-14
0.000154331
2.88097e-15
7.06854e-13
2.98845e-13
1.23019e-14
2.91013e-14
2.14105e-13
4.79585e-15
2.90562e-14
7.42367e-14
1.29895e-13
6.5601e-13
3.28301e-15
1.03127e-13
2.5172e-13
2.03128e-13
2.1736e-14
5.82505e-14
1.37206e-13
0.000160511
3.86297e-13
2.26799e-15
2.09833e-13
8.75173e-16
3.89173e-14
0.000111723
4.95793e-14
4.89261e-14
1.17044e-14
1.24144e-13
1.35519e-13
8.42356e-14
3.233e-14
4.03964e-14
2.15441e-13
0.000133212
6.84159e-14
1.35918e-14
6.3369e-15
1.82037e-13
2.20131e-14
1.26932e-13
2.51216e-13
2.04182e-14
5.12653e-15
4.22362e-13
3.44996e-14
2.37537e-13
2.08436e-14
1.5005e-13
5.56853e-11
9.06099e-15
5.1905e-14
1.1806e-13
3.43804e-14
8.41256e-15
2.04942e-13
5.09182e-13
5.96167e-13
1.54935e-14
6.82728e-15
4.80375e-14
1.51093e-14
4.53723e-13
7.88437e-15
1.51267e-15
2.93442e-15
2.74044e-14
6.51177e-15
6.59105e-14
2.24892e-13
2.15453e-14
2.29214e-16
4.13578e-13
2.79281e-14
8.51002e-14
6.11624e-14
1.99131e-15
1.42645e-16
7.78278e-14
1.78215e-05
2.57448e-13
3.88092e-14
7.02939e-13
3.92761e-15
9.12492e-14
7.91576e-16
4.09218e-14
1.09144e-13
1.14508e-14
5.35625e-13
2.1217e-15
1.48972e-14
1.16955e-13
1.13969e-15
3.55434e-14
2.15939e-14
9.85191e-14
3.40621e-15
1.99453e-13
3.48634e-13
6.56552e-14
1.5606e-14
2.16432e-13
1.97448e-13
4.99044e-14
1.81177e-13
7.19694e-14
4.67682e-14
5.16827e-15
1.62527e-14
1.63338e-14
4.66918e-14
1.12454e-13
1.07547e-13
9.45854e-15
1.46778e-15
2.62068e-14
1.47423e-14
2.73512e-14
3.68771e-14
1.54008e-12
2.65643e-14
1.23531e-14
7.10131e-14
6.36185e-14
4.41074e-14
1.74364e-13
2.92546e-15
9.18454e-14
7.67761e-14
4.09419e-14
2.21903e-14
0.000147317
1.54799e-14
2.6349e-13
8.1406e-15
2.95823e-15
9.7929e-14
4.87555e-14
3.95996e-14
4.88071e-15
8.64476e-15
1.35857e-15
3.16739e-13
1.78909e-13
3.70574e-14
1.83719e-14
5.20355e-14
6.72995e-13
1.93418e-15
1.75126e-13
2.72709e-15
9.89314e-15
4.08953e-13
2.84143e-14
1.16928e-13
1.48085e-14
7.20749e-13
1.07475e-11
2.28779e-13
1.47082e-14
3.36294e-14
7.98853e-13
1.73829e-13
1.80791e-14
1.87467e-14
7.37171e-14
8.03354e-13
3.52075e-11
1.0115e-15
1.50595e-15
7.63028e-13
2.74892e-14
1.42497e-12
1.24849e-12
4.96274e-14
1.35465e-15
3.6585e-13
1.05404e-14
3.5461e-14
2.90065e-14
1.59304e-14
3.16309e-14
3.03848e-14
1.12128e-14
1.49654e-14
4.65867e-14
6.6759e-15
1.30262e-14
4.08762e-15
1.60345e-11
1.18597e-14
6.11274e-14
2.18734e-13
7.44681e-13
8.55892e-14
6.33785e-07
2.82423e-14
2.27518e-14
2.47035e-13
6.54028e-14
4.64181e-14
1.88156e-15
3.08974e-15
2.76944e-13
8.25951e-16
2.88943e-08
7.2586e-13
1.58799e-09
1.1801e-14
3.52065e-14
3.66997e-15
7.87704e-15
6.84531e-15
3.82154e-15
1.86913e-13
8.25971e-14
1.00575e-13
1.36275e-14
4.93052e-13
1.00123e-13
2.38415e-14
2.99919e-14
2.55912e-13
2.56215e-14
3.19184e-13
3.3271e-15
2.8976e-13
2.30851e-14
3.37108e-14
4.18308e-13
2.59564e-13
2.92235e-15
5.43973e-14
1.23516e-13
3.39741e-14
5.45093e-14
2.85874e-13
1.38423e-13
4.5346e-15
6.2681e-15
6.85505e-14
7.16458e-14
1.25826e-14
1.97529e-15
1.81284e-15
5.98897e-14
3.14214e-14
1.34837e-13
9.42331e-15
7.27458e-14
8.41196e-14
1.99677e-14
4.62441e-14
2.69468e-14
2.9851e-14
6.30945e-14
3.0444e-15
5.43545e-14
5.76688e-16
4.88915e-14
4.16194e-15
1.27976e-15
2.20237e-14
9.82596e-16
3.1462e-15
6.21265e-14
1.82697e-14
1.74488e-14
2.28918e-15
4.90694e-14
5.8219e-14
8.571e-14
2.8351e-15
6.59604e-13
3.50857e-14
1.15407e-13
2.32991e-14
7.77865e-14
1.14898e-14
4.18876e-15
5.97045e-14
4.98312e-15
3.01429e-07
3.05206e-13
2.0761e-15
2.17847e-14
1.05915e-13
1.62808e-13
8.57246e-15
2.73984e-13
2.26206e-09
1.89506e-13
2.33092e-13
1.28558e-14
2.52646e-14
5.82449e-15
5.71152e-14
8.95e-15
8.72377e-14
4.283e-15
2.94742e-14
3.08327e-14
1.47441e-13
7.16698e-15
1.10576e-13
1.27561e-13
2.44866e-13
0.00039953
4.40127e-09
2.55333e-13
7.81769e-14
4.70325e-13
1.09876e-14
1.66289e-13
3.46627e-14
2.38386e-14
1.11885e-13
3.66829e-13
1.26142e-14
4.5406e-14
1.64213e-14
4.53728e-14
9.42615e-15
3.8588e-13
5.31163e-14
4.04097e-14
1.21564e-13
1.43244e-14
6.61267e-14
3.22523e-15
2.23318e-13
5.32414e-16
6.26212e-14
6.74916e-15
3.1244e-14
4.03721e-14
1.05168e-13
4.0248e-14
8.69831e-14
2.58978e-14
3.90938e-14
1.34932e-13
1.44829e-13
6.42982e-13
3.33694e-14
1.29968e-13
9.8922e-14
2.8893e-15
1.66626e-13
2.91351e-14
2.06257e-14
2.77533e-14
2.16846e-13
4.58744e-13
1.07245e-13
1.06644e-13
1.24119e-14
2.41588e-15
1.88896e-14
9.65778e-14
4.05266e-14
7.12501e-14
6.71095e-13
8.33113e-06
2.87628e-14
0.000417697
4.1801e-14
1.86732e-14
1.87339e-14
4.16889e-14
0.000202031
1.16486e-13
4.84946e-15
5.04731e-14
2.74348e-13
2.29699e-14
1.06696e-13
2.20581e-13
4.63093e-14
1.2689e-13
0.0004149
2.91612e-14
9.20373e-15
1.29362e-14
7.6906e-14
2.17247e-14
3.26667e-14
2.56147e-13
2.6084e-15
6.02209e-14
4.37728e-15
7.29129e-14
1.29823e-12
4.08654e-15
5.16973e-14
2.98675e-14
9.23275e-15
4.68494e-13
3.13896e-14
1.11196e-13
6.03346e-14
2.53092e-15
4.77034e-14
8.77881e-14
3.06903e-14
6.34741e-15
3.21113e-13
1.42008e-12
0.000192827
1.22198e-13
1.14732e-13
5.19834e-14
4.57329e-13
1.90351e-14
1.48043e-14
4.2652e-14
1.3553e-13
1.6512e-14
4.32069e-14
5.7127e-14
1.53305e-15
2.13145e-14
2.38757e-13
8.77097e-14
1.03751e-12
3.75274e-15
8.21919e-15
4.14571e-14
1.35916e-05
3.8104e-15
4.31649e-15
6.21169e-15
3.63593e-15
2.75104e-13
8.45855e-15
1.97948e-13
2.53883e-14
3.95109e-15
1.39589e-13
2.18503e-14
1.24309e-13
3.96971e-12
6.53275e-14
1.74384e-14
2.7353e-14
2.19002e-14
4.00778e-15
3.26659e-09
1.47453e-14
1.82081e-14
8.87542e-16
2.93452e-10
5.11759e-15
3.62128e-15
4.40133e-14
4.28798e-05
0.00018375
7.49614e-14
0.000392445
1.11793e-14
1.02513e-15
1.5807e-13
4.18189e-13
9.49938e-14
1.26666e-14
3.6726e-13
9.7803e-14
2.63715e-13
5.0533e-13
4.19842e-14
5.3102e-13
1.23628e-13
4.26668e-13
2.84666e-13
1.83724e-14
8.29286e-14
1.74603e-13
9.53849e-14
8.32133e-14
1.07919e-13
4.76681e-14
6.21423e-14
7.7087e-15
1.82418e-13
2.92661e-13
3.76107e-14
6.96672e-14
8.03172e-15
2.36819e-15
3.07838e-14
1.35529e-13
4.14699e-13
2.57839e-14
6.80394e-15
7.1456e-14
4.89326e-13
1.41268e-13
1.10787e-14
2.09716e-13
3.16413e-15
1.04331e-13
1.1826e-14
4.57751e-13
3.91588e-15
2.4086e-13
5.58185e-14
5.47924e-14
8.94935e-14
9.08441e-14
2.58963e-14
8.05796e-14
6.51622e-07
3.69216e-14
4.90045e-12
0.000131461
3.2375e-10
1.74785e-13
5.56972e-14
1.93357e-14
7.25538e-15
7.83508e-14
2.77286e-15
1.10624e-10
2.25224e-14
2.37612e-14
1.45142e-08
1.53807e-13
3.55549e-14
3.6083e-14
1.10856e-14
3.57995e-12
8.97546e-14
2.78627e-16
2.98081e-13
6.75267e-14
2.11497e-13
5.62658e-13
3.4211e-13
5.25255e-14
3.7033e-13
0.000125535
3.10152e-13
4.10896e-13
4.58963e-13
8.25828e-15
1.53561e-14
9.00471e-15
4.47098e-15
1.09704e-14
1.55388e-14
5.4347e-14
2.4712e-14
5.76267e-15
2.52e-13
5.00947e-14
3.95278e-14
2.4926e-13
9.83383e-14
1.17459e-14
2.74648e-14
1.20695e-09
7.27952e-15
3.54975e-15
3.60998e-13
1.35502e-14
1.61442e-13
4.33602e-15
2.29111e-15
1.01409e-13
4.21982e-15
2.06357e-06
1.53537e-13
4.07985e-14
1.09019e-14
1.81589e-13
1.11172e-13
1.26053e-14
2.87682e-14
5.69193e-13
1.70953e-14
8.84373e-16
8.96798e-14
1.56041e-14
1.83173e-14
6.30656e-15
3.56857e-14
1.51369e-14
1.25666e-13
1.37035e-13
1.96461e-13
1.92663e-06
1.40987e-15
1.2803e-13
9.82722e-11
1.84654e-13
6.09452e-14
4.60878e-14
4.48981e-15
2.50186e-05
1.57597e-14
2.17835e-15
1.03294e-13
7.9456e-13
3.35859e-08
2.73697e-14
9.38849e-15
1.02226e-13
2.03551e-14
2.25656e-13
1.68938e-13
1.56139e-13
3.87202e-15
4.09278e-14
4.22582e-14
7.29374e-14
3.16828e-14
2.87604e-13
2.64832e-14
3.18284e-14
1.40296e-14
1.84314e-14
1.8751e-14
2.04153e-13
8.43226e-13
1.14593e-13
6.40983e-14
2.50313e-13
1.10307e-11
1.98463e-13
1.9492e-05
3.3314e-13
2.86371e-14
3.62303e-14
3.46008e-08
8.17788e-15
6.09444e-14
1.15951e-12
1.1244e-15
4.01165e-13
4.2788e-13
3.28283e-15
5.50121e-13
4.11059e-13
2.67218e-14
3.39592e-13
6.00488e-13
1.038e-13
5.15319e-13
1.73674e-13
7.49279e-13
2.08142e-14
2.08916e-14
5.15023e-13
3.4092e-14
1.05157e-13
4.83392e-06
3.68861e-14
1.7643e-13
2.78716e-15
2.16209e-13
1.08924e-13
6.9936e-14
1.834e-13
2.24607e-14
5.38596e-15
2.43011e-10
3.58558e-14
6.98615e-14
3.14975e-13
4.192e-13
1.88558e-13
4.5612e-14
7.10635e-14
6.86119e-13
1.68184e-14
2.30604e-14
2.00046e-13
2.21004e-14
1.48079e-15
1.55726e-14
1.13016e-11
4.0253e-10
3.48802e-14
3.79661e-14
5.99304e-14
1.76132e-13
3.93551e-14
1.87064e-13
5.45755e-13
1.48571e-13
3.95895e-14
4.84897e-14
4.36595e-13
2.90534e-14
9.64583e-14
4.32239e-14
7.42321e-13
1.9548e-14
7.04255e-14
1.97739e-15
3.65802e-13
2.32645e-14
4.5359e-13
1.72575e-14
8.77748e-14
1.80248e-13
3.27538e-14
2.3708e-13
3.45333e-13
2.39574e-13
2.05037e-15
1.51388e-13
4.87792e-13
6.33494e-13
2.91523e-14
4.44115e-13
6.85974e-15
8.1237e-14
1.34182e-13
9.56432e-14
4.29664e-14
3.82654e-14
7.85497e-15
1.94924e-13
1.57773e-14
6.57449e-15
2.31754e-14
1.34902e-14
8.87367e-08
3.86518e-14
3.73494e-14
1.31911e-13
2.54787e-13
2.33974e-13
3.03725e-14
1.08023e-14
1.45833e-14
2.00914e-13
5.85795e-14
0.000253059
1.62474e-11
2.73383e-14
1.19563e-13
4.02701e-14
4.7726e-14
2.68119e-14
6.21872e-14
2.63346e-14
4.10241e-14
1.06605e-12
6.86927e-14
1.19797e-15
1.81419e-14
1.86669e-14
5.73087e-13
8.33332e-14
5.22911e-15
3.00554e-05
4.36157e-10
0.000179025
8.96941e-14
2.88692e-16
1.03662e-13
5.02525e-14
1.64596e-08
2.50988e-14
1.90911e-15
1.28426e-14
7.58817e-14
1.5872e-14
6.39826e-15
2.85924e-15
5.78547e-14
5.20706e-15
6.40537e-15
2.63077e-14
1.9508e-14
6.10456e-14
2.1571e-14
1.72162e-11
7.77361e-13
2.95727e-14
3.08922e-14
1.02004e-14
1.14702e-13
0.000141035
4.91711e-14
9.15301e-14
2.57486e-14
1.60408e-14
1.25167e-13
2.60581e-14
1.08772e-13
4.62922e-14
2.53258e-14
4.27982e-14
2.6038e-14
1.55004e-13
5.555e-14
3.33412e-07
3.86001e-15
7.30977e-14
2.93685e-14
1.59199e-13
1.31858e-13
5.87325e-14
9.61555e-14
1.83096e-13
2.16564e-14
5.73344e-14
5.09225e-14
3.27513e-14
1.85602e-14
3.14752e-15
2.13068e-15
1.30077e-13
3.63364e-09
1.06604e-08
2.27251e-10
1.08654e-13
3.82606e-14
1.82825e-14
1.31155e-13
1.40693e-13
8.37035e-14
1.62383e-15
5.2968e-15
1.18902e-14
3.29876e-14
4.2578e-14
1.81892e-14
4.3062e-10
2.76655e-13
6.37293e-14
1.35911e-14
8.98042e-14
8.44058e-15
3.84161e-14
3.46233e-13
5.49294e-07
6.98087e-14
1.46248e-14
8.74577e-13
2.32062e-14
6.19243e-14
6.4326e-15
8.55334e-14
9.61171e-14
6.5705e-13
6.15756e-14
1.11607e-13
5.05653e-15
4.06052e-14
2.21987e-14
1.70975e-14
5.77356e-13
4.31839e-14
5.18844e-14
5.42413e-14
4.1909e-14
1.01285e-07
8.58393e-14
1.84736e-06
6.9438e-14
1.59309e-13
2.77805e-14
1.36378e-14
6.52493e-15
3.14966e-14
3.59723e-14
1.26135e-13
6.45475e-14
3.40531e-14
1.21366e-14
1.64044e-13
2.43159e-14
8.76603e-14
5.92811e-15
5.96282e-14
5.63869e-14
5.58176e-14
1.25941e-14
2.23147e-14
1.86752e-14
3.215e-14
1.70297e-13
2.97758e-14
3.89958e-13
1.57238e-13
8.13599e-14
7.35948e-14
9.53894e-15
1.3507e-13
2.3496e-14
9.91951e-14
1.04916e-14
3.05328e-13
0.00015689
1.41665e-13
4.22681e-15
1.81825e-14
1.57571e-14
1.7554e-14
1.12843e-14
1.83988e-14
6.05581e-13
1.48129e-13
2.91574e-14
1.06131e-14
6.54259e-15
2.31061e-15
6.58493e-14
9.83984e-15
1.83478e-13
1.03704e-14
9.76492e-15
1.03049e-13
3.45948e-14
2.27842e-13
3.05267e-14
9.44062e-14
3.93188e-05
1.7535e-13
2.59327e-13
3.88481e-14
4.1462e-15
6.51664e-14
6.03344e-14
3.41098e-12
9.10448e-14
0.000569131
4.8622e-15
2.86889e-13
1.02545e-14
5.46425e-12
2.48222e-14
1.34403e-08
9.89761e-14
8.98313e-15
2.06827e-13
7.75995e-14