/*--------------------------------*- C++ -*----------------------------------*\
  =========                 |
  \\      /  F ield         | OpenFOAM: The Open Source CFD Toolbox
   \\    /   O peration     | Website:  https://openfoam.org
    \\  /    A nd           | Version:  10
     \\/     M anipulation  |
\*---------------------------------------------------------------------------*/
FoamFile
{
    format      ascii;
    class       volScalarField;
    location    "8.2";
    object      p;
}
// * * * * * * * * * * * * * * * * * * * * * * * * * * * * * * * * * * * * * //

dimensions      [0 2 -2 0 0 0 0];

internalField   nonuniform List<scalar> 
111485
(
31.5373
0.310668
0.355427
31.5359
0.345562
30.6038
0.296776
0.301001
0.296738
0.365669
0.288198
0.34188
0.31246
0.219381
0.306923
0.373513
0.180235
35.158
0.319073
31.5337
31.5357
30.6242
0.290404
0.376096
0.316751
31.4154
0.380005
0.323616
0.344812
31.5476
0.151482
0.129088
31.5498
30.629
34.3261
30.491
0.258925
0.23968
0.147701
0.341146
30.8237
0.353238
0.347019
0.303556
-0.4847
31.615
0.317879
0.358479
0.369097
31.6863
31.6751
29.6011
31.7091
0.266995
31.7306
0.251158
0.312416
30.6789
0.0329858
0.331517
0.338508
31.5422
0.28814
0.182028
30.7755
0.273283
20.6615
0.284636
0.202425
0.283105
-0.0385972
0.245601
30.9261
0.221641
31.5784
0.205209
30.629
0.342825
30.6173
32.3378
0.0549886
0.271335
30.6329
31.5612
0.283981
0.312291
7.50295
0.247251
0.0883199
0.197834
-0.300763
0.31943
0.298943
0.210278
0.355538
31.5614
31.5396
0.298603
-2.36537
0.722843
31.5375
0.376176
30.5984
0.315115
0.27992
31.7719
30.6604
0.149675
0.319193
-0.820887
0.125924
0.303083
0.348041
0.35282
31.4069
0.212538
31.4709
30.6492
0.235006
31.5399
31.4147
26.8461
30.6364
30.6807
0.370466
35.7702
26.6905
0.151133
31.5688
2.10573
0.0780173
0.29685
31.5823
26.2457
27.3801
0.300251
30.6296
0.220416
0.262533
0.336941
0.222878
0.280683
0.299244
0.359659
0.303638
0.141273
30.6292
31.5567
30.6921
0.290446
0.346021
31.5231
0.213402
0.0362663
-2.05003
0.306884
0.292261
0.269977
-1.48935
31.5922
31.5358
0.297776
0.305075
-1.33589
-1.80365
0.172391
0.212512
30.7843
-1.18969
-1.04716
30.6704
31.5534
0.321953
30.6467
0.118482
0.0680796
30.8135
30.8383
31.4802
31.3831
30.7299
31.5312
0.320746
0.310842
0.337638
0.263122
0.364149
0.24106
0.286544
31.5407
0.170844
30.8239
31.4966
0.278168
0.337625
0.268506
0.315257
0.074853
31.5827
0.337226
0.383699
21.4409
0.331022
0.175098
31.5471
0.264202
0.313516
30.8148
0.248424
0.311231
0.335431
0.2058
30.7004
31.543
0.234153
20.1275
0.297715
30.6444
0.253275
0.230131
0.364004
31.5606
0.22623
0.207403
24.188
30.6457
30.6715
0.0647876
-1.76133
31.0497
29.2248
0.246274
0.123449
-0.152258
31.0366
31.2527
0.199435
31.5712
0.270142
0.217512
0.234385
0.183702
0.225911
30.6768
0.0712502
0.185248
30.6918
30.6325
0.225979
0.295679
31.2638
0.205787
0.183241
31.5571
25.6279
0.319389
31.5747
32.1018
28.8194
31.5279
0.223606
0.16724
-0.0198243
31.5774
0.123654
31.5363
31.5356
31.5829
0.175443
0.32663
0.301525
0.201341
0.338745
0.26697
0.253444
0.176783
0.0967736
0.152317
30.4398
31.5539
0.185076
0.117258
-0.0200364
0.130511
31.5388
0.297319
0.300606
0.28449
0.408822
0.0748024
0.291246
0.194632
0.312127
30.6653
0.294014
30.6473
35.0018
32.3689
0.0259993
0.314218
0.301362
31.496
30.9183
0.238409
0.13968
31.5225
31.5366
31.7554
0.182223
0.171991
0.31508
0.322017
0.294368
29.0622
30.6781
31.5637
0.252198
13.2246
0.239468
0.073128
0.129719
30.6357
31.5376
31.5419
27.3603
0.252566
0.339702
30.6359
0.256093
31.2554
31.475
0.312249
0.257155
0.342001
0.262745
32.0653
27.2199
30.6434
0.247926
0.076085
0.15878
30.7557
2.40009
-0.105034
0.363802
0.261375
5.58188
0.295145
30.6211
0.28449
0.270332
0.0976414
0.286411
0.318286
30.6419
31.5693
30.6584
31.5466
0.312283
0.245134
0.286686
0.329339
30.7116
0.350419
30.6666
31.5701
0.307094
32.5619
27.9224
31.7352
30.4755
0.305911
30.674
0.0745603
0.3676
30.6183
0.235296
0.279724
31.5416
0.247543
0.357635
0.312716
0.265651
0.16626
0.135609
32.0982
31.5602
0.343161
30.7442
0.351278
0.267205
30.8115
30.6723
0.252747
0.287237
0.115202
0.39895
30.628
0.159444
0.325633
30.5957
0.298227
0.268772
31.5371
31.533
0.0982137
0.322048
30.5879
31.4802
23.5613
31.5349
0.341162
30.645
31.538
0.321415
0.100823
0.351894
0.365507
30.6113
27.4298
0.395143
27.8164
0.313241
0.424913
0.382485
21.3412
28.1274
-1.84732
-0.705786
31.5363
0.248003
0.364031
31.5536
-1.43913
0.363189
27.9689
0.33796
0.323428
0.170624
30.6201
1.06353
0.340129
0.204081
-0.00711959
26.6033
-1.85311
31.5517
0.304423
-0.647062
30.6733
0.311354
0.374425
25.8857
31.5728
29.9158
31.5304
0.339606
0.321924
0.357616
0.374482
0.239762
30.6493
0.193949
31.588
0.38936
30.5571
31.5769
31.6127
0.337324
31.5627
31.5405
33.4677
31.5361
30.7056
0.338647
30.6716
29.8156
30.6463
31.4935
30.5817
31.5892
30.6265
0.335474
30.6398
0.322941
0.328474
0.215668
30.6331
0.342171
30.6756
31.5385
0.356959
0.414192
0.503293
0.029725
29.4494
0.349963
0.341267
0.133557
-0.0224843
0.343249
31.557
0.027808
25.9331
0.46343
30.6469
0.38768
26.8153
0.127547
0.380572
33.1702
30.907
-0.0843048
31.5239
0.340779
0.308081
30.6975
30.724
31.8109
30.6663
-3.30698
0.334964
30.5867
30.6935
0.330701
30.6242
0.316667
30.6253
0.341839
31.5402
0.41781
0.408169
0.37501
0.116237
30.5233
-0.472818
30.5837
30.6464
0.30457
30.6515
0.367924
31.8367
0.400035
31.5465
0.435952
31.5336
28.0029
0.105033
0.234765
0.308537
0.38686
0.246613
0.309129
30.6879
0.278425
0.317514
30.6386
0.272804
0.215669
0.352303
30.8687
32.2069
0.426537
0.233463
15.0805
30.9079
0.287391
0.373638
0.369195
0.356066
0.65369
10.539
27.6371
-2.25002
12.9162
31.5388
0.408566
30.7398
28.1197
0.227619
10.3486
-2.30365
6.13864
27.6208
0.308036
0.357423
30.6688
29.9132
0.369428
31.545
30.6233
30.6278
30.629
0.359123
30.6608
31.3909
0.391
0.212686
24.1609
0.194306
29.3926
0.199117
31.7047
30.6815
0.338019
30.6415
30.6324
27.988
0.200774
18.8757
0.268336
0.206115
31.5756
-0.361259
0.101984
0.322657
0.418242
1.55617
0.308433
30.651
0.33679
0.336499
31.5762
0.256915
0.295397
0.360683
0.154394
0.338527
0.345799
31.6105
0.360226
0.252851
27.9118
0.340802
0.430321
19.6605
0.217498
0.36076
0.398692
0.371301
0.383507
0.192605
31.1726
0.36366
0.363347
32.9182
0.339869
0.286436
0.219466
30.6565
0.196146
31.6376
30.632
30.6921
30.6237
0.371331
28.3516
-3.59556
31.5314
30.3589
0.385138
0.346278
31.5187
0.345691
31.5346
31.5639
31.7137
0.278682
0.402136
28.1043
31.3624
30.6512
30.6551
0.216989
0.176579
27.3896
0.353473
-1.07539
30.6848
0.381314
0.339626
0.355424
30.6186
30.6432
0.336172
0.210771
27.8482
30.6721
30.5627
0.203333
31.5675
31.5111
30.6507
0.355197
0.357679
30.6226
33.9262
32.8801
0.602556
30.684
30.6096
0.328078
0.180233
27.7887
24.0059
4.98137
0.354293
0.0111418
30.5064
0.233298
0.39688
30.663
31.7012
30.6275
30.6468
30.6718
30.6219
0.41579
31.5369
30.6313
30.8399
0.39493
0.199516
31.536
31.7574
0.298
0.193902
0.219769
31.5084
30.6354
0.19745
31.5586
0.323979
0.16491
0.222309
31.437
31.5391
31.5385
30.6535
0.423052
30.636
30.6163
0.308645
31.538
0.265793
0.437237
30.6941
0.229688
31.4499
0.234092
0.357676
0.284186
0.327514
-4.42065
29.0808
0.221235
0.325568
0.0120547
31.2759
-7.71745
28.7059
0.114377
30.6647
0.300467
0.33418
0.284005
32.3296
31.5404
31.573
0.192823
29.381
-0.0394375
29.9261
0.346082
0.15834
0.0822805
0.200466
30.6272
30.6952
31.01
0.195042
30.62
29.0667
-0.0809834
30.6742
30.7014
31.5461
30.6309
0.0955432
30.5449
30.6466
-5.52184
29.3116
30.7517
28.3289
30.6456
0.269419
0.103065
31.5259
0.355687
4.54531
0.269841
-0.951212
0.181276
30.6789
0.324748
0.35812
0.268786
31.5593
-9.73355
0.0777016
26.0789
0.0354033
0.0489184
0.1259
0.239384
0.149213
-0.0321558
0.156257
0.146035
30.5765
30.6674
0.0763222
0.0262297
30.6794
0.0917048
0.367905
0.133734
30.5996
0.0513434
30.6502
0.117215
0.0980672
30.6173
-0.281994
0.157567
-0.0969212
-0.0565105
30.4323
0.322194
-0.074533
0.25433
-0.0936841
0.280839
30.6084
30.6914
0.352008
30.6305
0.440773
0.147742
27.0504
-1.33233
-2.71048
-0.643164
30.631
25.734
0.217762
31.5657
37.7562
0.266162
30.5881
30.6103
-2.31275
-2.86262
30.6315
0.0531354
30.6475
30.6431
31.5735
31.5381
31.8358
31.556
0.349936
30.6234
30.6719
30.6973
-5.14438
0.513203
0.310104
0.205854
30.6765
30.6046
0.271082
30.6398
30.6237
23.4859
0.247627
0.243791
30.6183
30.5919
30.6534
30.6096
30.446
30.6032
0.178032
30.6275
-0.267279
0.319921
30.6537
31.5819
31.7424
0.0370966
31.7119
31.5386
30.7166
-0.309922
30.6469
0.203933
0.206447
-0.19273
30.6135
21.3555
0.30392
0.295611
30.6728
-0.244234
0.328018
31.554
30.5025
27.6728
30.5961
0.213372
0.293622
0.221209
-0.826468
30.6206
0.208843
30.378
27.5004
27.5028
30.6721
0.317468
30.6463
31.783
0.239648
0.227638
31.7721
0.376577
29.4145
0.143397
32.0269
30.6462
30.5454
31.5385
0.161097
0.323076
2.0488
30.6251
30.8024
0.122347
30.6308
28.4445
31.5412
0.328922
-0.874944
0.475749
31.4788
0.207578
0.255541
33.0676
0.258226
30.6395
0.274021
0.294716
0.243172
0.152107
-0.189823
30.6344
30.6474
30.6454
0.205505
30.9459
0.064338
31.5763
3.36744
31.5168
0.335489
0.356601
31.7914
30.6301
31.8582
30.704
0.0487728
31.8878
27.7039
0.0974935
0.0695513
31.7707
28.3103
30.9454
28.3913
30.613
30.6357
0.0942917
0.435615
31.5351
31.4884
-1.91774
31.5671
0.0926569
0.161356
30.9318
0.308054
31.5386
0.0708621
30.6393
0.350796
30.6152
-1.73903
-0.679088
-0.0638153
0.285193
0.27393
19.0421
30.3232
0.315788
31.6933
0.305826
31.5169
30.769
30.5259
30.6967
30.7934
30.6783
0.225014
0.175245
31.5397
26.7024
31.5437
0.236623
0.0413836
31.5351
0.321043
-0.0670808
31.7435
0.179489
0.143922
0.297759
-0.0626268
30.6307
30.6364
30.7621
30.6285
0.285657
30.3787
0.314167
30.6403
0.289461
0.37447
30.6635
0.256187
30.626
30.6287
0.271314
0.145473
8.95591
30.6418
31.8353
30.5831
0.296762
30.1709
31.7633
30.2434
3.9926
27.1008
-1.51401
28.2837
30.1022
31.0952
0.133435
0.0609055
0.376328
0.313033
31.5072
0.294612
30.6526
30.6721
0.104478
30.5141
-1.96786
0.286372
0.182644
0.279746
-3.24057
0.309651
30.6655
-5.10058
-11.0935
0.351405
0.326474
0.261069
22.4032
31.5243
0.3292
31.5366
30.6106
-0.408398
0.337902
-3.80574
30.5844
29.9702
0.19321
31.7426
30.6123
0.251975
31.8183
31.7752
0.593306
0.259986
0.112141
0.384765
0.195437
30.6246
30.6326
-0.541011
0.291999
30.6266
31.7955
0.462661
30.6541
26.5314
27.2254
27.3794
17.7836
26.6328
30.6325
0.385784
30.5633
0.165899
30.6213
14.1209
30.8311
30.7023
30.6677
30.6334
0.417486
30.6326
30.6307
27.8515
30.5977
30.6687
30.6321
0.272061
30.7003
0.25241
0.154543
30.7131
0.497657
30.6236
0.29689
-0.180585
0.117228
0.138012
31.4138
0.134954
0.399805
-0.0771762
31.5702
0.0712824
0.244905
0.127584
29.4732
0.0907554
30.8861
30.6608
30.6313
30.6215
0.114356
30.6474
30.5758
0.107327
-0.0244369
0.0348936
30.7074
21.9839
0.43295
30.6712
-0.90215
31.731
0.0838729
30.5933
30.6056
0.320437
30.6032
0.404255
31.5554
30.6211
0.252609
0.233611
0.19941
0.308851
-0.00249471
0.254359
30.6211
32.1857
0.331879
0.205784
0.294879
0.106314
30.6313
0.245222
30.627
31.2303
0.304067
0.215783
30.658
0.187731
30.6122
0.200642
0.185201
30.8725
30.6223
30.6541
0.333798
30.6458
30.6469
0.338321
0.201602
0.302148
0.115224
30.6998
30.6992
0.392457
0.389563
30.6401
0.316143
30.9507
0.309107
30.6252
30.6232
0.237887
30.6287
0.31628
0.367171
30.6342
30.6224
0.271358
26.0863
0.411546
31.5393
0.236566
31.5833
26.8049
25.9212
0.36472
28.029
27.7339
0.281661
27.5706
17.2979
25.5546
30.8471
31.539
-0.193093
0.383622
30.8034
30.6411
0.280534
0.347214
30.6532
0.33089
30.6208
31.559
0.36992
0.362098
0.48286
30.6199
30.6528
30.646
30.6305
30.5892
30.6008
30.6212
30.5903
30.6089
30.6152
30.6421
31.5455
30.6451
30.6181
30.6186
31.2764
30.618
30.6247
30.6335
30.741
31.3515
0.398471
30.6436
30.6188
30.702
0.31296
30.6845
31.5579
12.1695
30.5599
30.1974
0.284438
33.0584
30.4081
14.2625
0.266106
30.6392
27.1536
29.1237
30.6109
0.313314
0.262639
0.267943
0.202441
0.234072
31.641
30.5872
0.227357
0.256674
0.208549
30.616
0.267561
0.353683
0.29543
0.101983
0.148112
0.208832
0.16388
0.275081
31.6089
0.321131
0.313038
0.345388
0.275643
30.648
30.6409
30.6533
31.5389
30.6382
0.256956
0.281931
30.6587
30.6102
30.6088
31.4063
30.6197
31.5322
30.6303
31.5468
0.266919
0.0014286
0.290349
0.458909
30.51
30.6614
0.294435
-0.490206
30.6221
30.6321
0.326974
31.6132
30.6402
0.392536
0.219674
0.256938
0.428633
0.311716
31.6281
0.0745616
0.313957
27.7127
31.5359
0.267138
31.6117
30.6556
9.9682
5.57067
0.35996
31.1967
31.469
0.309664
0.313704
0.130582
0.257625
13.8953
31.5351
0.386149
32.9342
31.5701
30.3808
0.32485
30.6168
0.263588
0.0468575
0.261576
0.290927
31.5765
0.300154
31.5671
29.9722
31.5569
31.4917
0.141234
18.2419
30.6321
31.5344
33.438
0.268315
27.5258
0.196273
0.245926
0.128072
0.254246
31.4293
31.4876
26.714
0.346482
0.238452
-3.08492
31.7022
31.5386
27.3826
0.355783
0.236313
30.6256
0.0544147
10.3716
0.306994
0.203905
31.5319
26.6612
0.197162
0.257575
30.649
0.396048
0.381648
0.30903
0.137603
0.208329
0.283385
27.7215
0.177933
0.220576
0.222514
31.97
0.285054
28.0571
0.39869
0.22489
31.5722
0.112521
0.200929
0.1807
0.300348
35.0091
8.77973
0.26728
17.4104
0.209089
30.616
0.11981
0.239431
31.5433
30.634
-0.929728
0.057565
0.32747
34.9216
0.35818
-0.277113
-4.00156
0.0890622
31.5459
31.6414
0.249049
33.3729
0.249793
-0.339964
0.287944
0.169719
31.5304
0.378438
0.249013
31.5165
27.8895
0.213977
31.6092
0.201606
0.218164
31.5452
35.1217
0.322582
31.5227
30.619
30.6677
0.154311
0.61327
0.345024
31.7761
0.330702
0.187137
30.8353
0.174584
0.131355
0.132749
-0.0437731
30.6288
0.218257
0.240886
0.173261
0.142473
0.145458
-0.111557
0.370858
31.5385
-0.165608
0.130044
31.5355
0.165379
30.6856
30.6432
31.5673
30.7051
31.5435
0.412057
30.6596
0.163708
0.277091
31.575
0.412626
31.3453
0.111551
31.5444
-0.154456
30.6535
0.319624
0.453296
-0.20316
0.258613
0.135007
0.350659
0.153766
0.26931
11.3984
0.221464
0.209284
0.264616
31.5651
0.334261
0.026676
0.225068
0.317681
-0.141266
31.5704
27.2723
31.5298
0.36394
31.5277
24.823
0.135283
33.5663
0.42965
31.4855
31.4339
30.6318
0.282398
0.499265
0.208257
0.283463
0.144295
0.22676
0.275797
0.241732
0.119843
0.265075
0.237294
31.6528
30.474
31.5405
0.298955
0.306513
30.7504
30.6312
25.3344
0.335255
0.129961
31.53
0.235822
31.534
-1.14487
0.373874
0.217145
31.539
31.5392
0.223567
31.538
0.346637
0.198174
29.9687
0.292069
0.318543
0.135675
31.5139
0.0439308
28.1056
0.273228
0.335014
31.5446
31.6061
0.180343
22.3706
31.672
0.243827
0.161595
31.5417
31.4484
27.9243
0.201361
25.2846
0.275049
0.29263
0.372539
31.5354
28.2125
0.279232
31.5366
30.664
31.5549
31.5419
28.6237
30.9202
30.3172
31.5223
31.5677
29.3545
33.583
30.592
0.381281
30.6268
27.1312
25.6651
35.5852
27.6548
31.5382
0.293009
29.6354
30.8614
0.294075
32.8381
34.2744
31.2203
0.26482
33.4629
0.309181
0.153748
0.412987
28.8317
31.5393
0.340103
-1.1311
31.3644
31.5349
0.296914
28.5169
0.288312
28.2228
30.5682
31.0346
0.297171
0.31067
31.5399
0.340952
31.7205
29.6236
-0.241499
0.292074
0.299814
30.6513
0.289969
28.9993
0.288805
30.6236
31.5153
30.618
28.0611
0.259483
0.268767
31.5645
-2.47712
31.5536
31.612
31.5518
31.5353
0.302283
0.248225
0.245114
0.450922
31.4118
0.361193
0.309329
0.24152
0.278942
30.8558
0.221997
0.402631
0.186433
-1.01948
0.298905
31.7155
0.22809
0.307382
0.294326
0.33844
0.240518
31.6365
0.280433
31.1249
31.5588
0.282372
31.5811
0.382764
31.539
31.7778
30.3489
31.5449
31.5611
0.236612
31.5393
0.293057
28.9522
30.6679
0.320504
0.38821
0.266236
0.261104
31.6275
3.33238
31.5613
0.320259
31.7826
0.302411
0.277258
0.345174
0.344855
31.8982
31.926
31.5419
0.236406
30.7087
31.4922
0.224762
30.572
30.6139
0.414222
31.8979
0.178113
-1.01103
28.7574
30.0273
29.7865
0.200036
0.286287
31.5323
0.0379665
0.306311
28.1314
0.332735
31.5474
0.208745
0.372822
0.277469
31.539
0.357581
0.220413
0.31454
0.37012
0.376383
31.5427
31.5366
0.109079
31.5038
30.6192
31.5372
0.193304
0.332889
0.266591
0.154969
27.6566
0.311452
0.291265
0.294279
0.0439914
0.376241
0.318313
0.380142
30.632
30.6316
30.6292
0.454589
30.653
0.230495
21.2688
0.34415
-1.64354
0.171736
0.132869
30.6115
31.5495
0.350045
0.336547
31.6012
30.6108
31.5698
0.198366
0.337937
0.330733
0.379802
0.132299
0.280848
31.5256
31.5592
31.5401
0.201712
0.252437
0.0387844
0.321549
0.268457
0.368643
31.4106
31.5363
25.5744
30.775
0.148032
0.389508
31.5172
31.647
31.5941
31.5745
31.4217
30.8902
0.335761
31.5356
0.248558
0.0852563
30.6393
0.356621
0.117307
0.203705
31.7282
31.0679
0.337857
31.5385
0.332712
-4.26648
0.212412
30.691
23.9166
30.6255
31.5401
31.5059
30.4433
8.84225
31.5792
0.405819
0.271275
31.5527
31.5423
0.333889
31.5476
30.6465
0.257403
-0.270794
31.478
31.4717
30.7364
0.182116
31.5379
31.5363
5.13806
0.277355
0.33972
31.5284
30.6358
28.8765
0.316721
0.327155
0.317493
0.296636
30.6215
0.254308
0.0947961
0.0769371
30.4455
31.5445
31.5382
31.3733
31.539
0.268521
0.283021
0.230507
31.6355
31.5511
31.5368
31.5352
30.8816
0.294335
0.46495
0.0932233
30.6198
31.5378
31.7784
-3.41213
0.253895
0.222599
30.6363
-7.23123
33.0289
31.385
31.5361
0.288433
0.361009
31.5278
31.6475
0.332393
31.5441
0.207884
0.285631
11.2908
31.5122
30.8006
0.243143
0.216012
31.6575
10.5321
0.250979
0.436075
31.5354
31.5395
31.6013
31.5765
0.141963
0.208946
31.5412
0.260576
0.32127
1.3523
31.5332
31.5208
31.5212
31.5419
0.374203
33.5341
31.5349
31.114
0.162977
0.28021
0.202318
31.4071
31.5546
0.350519
30.5296
31.5429
31.5348
31.5348
0.30401
30.8065
30.5695
30.6285
0.165307
0.338319
31.5105
31.5595
31.4517
0.324618
32.6164
31.5359
31.4587
31.5615
31.5564
-0.257948
0.392857
31.7328
0.325617
0.364287
0.282781
31.587
31.5697
31.5485
31.407
30.6162
0.325632
31.5369
29.5994
29.4958
0.33155
30.6372
0.292146
31.5382
30.6586
0.380833
1.70246
28.3075
0.37031
31.5378
0.355969
32.6173
31.5967
31.7208
36.3641
31.5503
0.301292
31.5054
0.29433
30.6611
27.9254
31.5767
31.5028
0.130962
0.500746
30.6272
10.9529
30.6546
0.106861
0.282604
0.403905
30.6729
-0.850346
0.266542
0.253537
0.397166
-1.89613
0.249551
30.5184
30.619
-2.38375
0.211656
0.347263
31.6548
30.2092
25.7042
13.3928
31.5712
30.6289
31.562
31.5708
31.5789
33.2174
0.498424
0.184656
0.290181
27.9463
0.12776
31.5605
0.33341
31.539
31.5972
30.6437
30.8726
0.0617029
30.7784
30.6423
31.5338
0.315378
31.525
31.5465
0.271493
31.4485
23.197
19.9597
18.6392
31.5773
19.5105
18.8812
19.3081
22.0618
30.6177
30.6213
0.294089
0.322958
28.0114
28.6506
30.6203
0.281649
32.7652
30.994
0.0679006
31.5355
31.5389
0.254566
0.174951
31.429
30.6174
0.378844
28.1873
30.5742
-1.03208
0.297344
0.458983
31.2668
0.359608
31.567
0.219732
-1.02843
0.331664
31.5353
-1.0095
0.356332
31.886
-3.53758
31.4863
0.322046
30.1561
0.389273
31.2397
0.250864
31.5233
30.4451
30.6546
-5.28733
-5.25889
31.6103
0.309072
0.486993
31.7518
31.5325
0.18335
0.0308007
0.055244
31.5936
0.3482
0.338618
0.280974
-2.77887
31.5791
-0.129905
30.6584
-0.0734824
31.5393
-6.26648
-7.32884
31.4418
0.261978
30.8562
0.288234
30.6254
31.4469
31.5718
31.6138
31.4386
31.4886
0.367995
0.312372
-0.09138
31.5544
25.4669
-0.0494823
31.552
31.3974
31.6462
31.5404
31.645
0.0991334
31.5348
31.5637
30.6184
0.0797942
31.4663
30.6356
30.1981
0.178872
30.6397
0.0473479
-2.53749
0.157735
0.164617
-0.0362399
32.8809
31.5402
31.529
0.293535
0.213475
30.3223
25.3272
0.0855192
31.547
31.5692
-0.0118629
31.4812
0.338073
31.529
-0.00717886
0.244011
31.555
30.6172
31.527
31.5637
31.5375
0.370891
31.5172
0.0932152
31.7943
31.5329
0.164453
30.6288
0.321286
31.1198
31.545
0.33027
0.28582
0.059435
31.5621
31.5622
31.5382
0.310146
0.148535
31.8206
30.6302
30.6042
0.192575
31.4936
0.35678
-0.00756076
31.528
31.5068
0.18613
31.5165
30.6052
30.6407
31.8493
30.6472
-0.0759007
24.9883
30.7063
31.554
25.6384
31.5066
26.5106
31.4122
31.4994
31.0494
0.253406
31.289
0.147479
31.4619
31.4981
0.263915
0.205917
31.4778
31.4355
31.53
0.14877
27.0078
31.5376
30.9512
31.5147
0.195517
31.4864
-0.172767
31.5717
0.311997
27.839
0.316163
31.5809
31.5382
0.348779
26.364
31.5465
0.20308
0.31512
31.6402
31.5642
0.307616
0.226354
0.192624
0.141524
0.136834
0.353724
0.217247
0.293177
31.8119
-0.216906
25.2483
24.8011
31.5352
31.5078
31.5375
0.20501
31.5711
31.5465
31.5699
0.00494143
0.275647
24.0353
0.249973
31.5681
0.346437
30.5971
0.278051
0.247918
25.5369
0.37834
31.4889
31.4082
30.6319
0.237767
0.316485
31.5379
30.6438
0.213976
31.5583
0.0209941
31.7094
0.180928
31.5388
30.6312
31.4815
30.6272
0.203887
30.6274
1.65645
30.6611
0.341032
31.5287
31.5106
17.5952
16.3192
31.5999
31.5157
31.5386
31.5594
0.355335
-0.0247715
21.1386
31.5682
0.359324
30.6167
30.6857
-1.15067
0.290157
0.222074
30.6339
0.161927
0.295363
0.270602
0.320654
31.5432
31.577
31.5939
31.5684
30.6343
30.6257
30.6323
31.394
30.6357
30.6339
31.5379
30.6298
0.0957979
30.6251
31.5228
34.5311
31.5622
31.5343
11.2278
30.6221
31.5238
0.266154
0.141565
31.4287
31.4821
31.5399
0.322719
30.799
31.4934
0.0832175
30.6454
31.5231
31.5314
31.5605
0.296568
30.6358
-0.142798
31.5685
31.4894
31.5243
31.5304
31.5144
0.0855804
-0.0329819
0.218971
31.5637
30.6982
31.704
0.0393727
31.5169
0.000126776
0.188184
30.6303
31.4964
23.9963
-1.07602
31.4462
28.2376
-1.02298
24.3131
0.364465
30.7771
0.285591
24.1803
22.6252
31.5372
0.357018
30.6472
0.305563
0.249287
31.5494
0.354627
-0.580634
31.5317
0.201786
30.6248
31.4542
31.494
31.4369
31.4867
30.627
31.5168
31.5591
-0.0952368
28.5921
31.5345
31.5357
31.5138
31.5271
0.30831
16.4927
0.0214186
-0.641873
31.518
0.397015
0.344354
31.5361
28.1535
31.2839
31.4716
31.6203
31.8599
25.9345
28.8224
0.245099
31.5404
31.584
24.5468
26.6483
30.6317
0.314977
31.5421
30.6705
31.5608
0.133273
31.5767
30.6223
0.315317
30.6403
30.5102
31.1871
31.7545
0.321534
31.5341
31.528
31.5211
31.4987
0.360822
0.201219
0.236374
0.330299
0.320736
0.281638
30.6456
26.3753
-0.10538
0.304507
26.3317
-0.0649421
31.5379
-3.68918
30.6885
0.121252
31.5413
30.6289
0.312176
-4.96168
31.5347
0.299823
31.5461
31.5548
0.102232
0.264672
31.555
30.6276
31.6911
30.6301
31.5122
27.5103
31.5611
31.5401
0.288985
31.5598
31.5228
31.525
0.340142
31.5675
27.6752
30.6356
30.6153
29.359
27.8635
0.335213
30.6259
27.8987
0.272685
31.5312
0.254064
0.329966
31.5294
0.276732
31.5351
29.9704
31.794
27.3351
30.6618
31.4811
31.5393
31.5762
0.336996
31.5679
31.5518
31.5541
31.0742
31.531
31.2704
0.0371146
31.5381
31.5719
0.206678
31.5383
30.6335
30.6655
0.390513
31.5362
-0.183998
27.0065
-0.953736
0.0913617
30.6217
26.3521
0.283063
25.2888
30.6354
-0.243418
-0.950915
-0.00761255
0.228488
-0.456415
-4.05113
30.7541
30.6278
0.346619
0.114789
0.155194
0.365263
-1.00297
30.6457
0.128564
0.29309
0.318633
30.6763
0.340568
0.131089
0.25866
0.331235
0.0232625
0.22126
0.2343
0.279739
0.0102825
0.228857
0.341383
27.7307
0.365408
0.0347745
0.330645
0.30268
0.111724
0.344569
0.0702827
28.3668
0.072432
28.1658
0.312936
0.364563
0.211351
0.248946
28.1153
30.6228
0.329471
0.289354
-0.0129394
0.227495
0.172793
0.315175
19.5653
0.366617
31.5382
0.565043
0.0697547
0.263315
0.286999
-0.0347788
-0.1691
0.357198
0.258257
0.153472
0.284581
0.323235
0.515647
24.7515
21.7501
0.311831
31.5384
31.5387
0.310789
0.397231
0.122122
31.5304
0.180112
0.255117
0.286074
22.5523
31.5319
-0.330026
0.0403398
0.0438133
31.5782
0.212258
31.5428
0.286676
0.350388
0.259828
0.270911
31.52
31.5469
0.332433
0.366014
0.418187
31.5151
0.303094
0.419763
0.298148
30.6613
0.288788
0.0903744
28.0971
0.257225
-5.35136
0.0728234
30.4775
0.226997
0.130004
31.5387
0.390629
0.100552
6.07734
0.312837
0.420994
0.154767
0.423658
0.258008
-0.0652074
-0.413941
0.0179132
0.498458
0.148562
0.276582
-0.142345
0.314215
0.356789
0.335131
0.355271
-0.100247
0.231734
31.5412
0.378702
0.33761
0.0703272
0.233517
0.295405
30.714
0.369835
0.274503
31.523
0.16535
-0.0111885
0.364217
0.387996
0.132971
-0.166685
0.37582
0.307853
0.249427
31.5404
31.5387
0.2843
30.6738
0.296217
0.434298
30.8527
0.132771
0.322396
0.0913104
31.554
0.283761
0.282402
0.215453
-0.0398184
0.27301
0.255188
0.287062
0.373171
31.5384
31.4496
0.127921
0.284292
0.230809
0.350323
31.447
0.298732
0.429645
30.8487
0.244664
0.344452
-0.291545
-0.31919
0.317741
0.212664
0.224203
0.351137
30.6969
0.411807
0.217196
0.368508
-0.249528
31.4518
0.356178
32.0678
31.5355
0.26338
0.305553
0.272233
1.06011
0.0163063
6.34574
30.6447
0.227831
0.468676
0.531119
0.273603
31.5471
30.6722
30.6319
0.250764
0.271821
-0.349845
0.275299
30.5563
31.4657
0.212771
0.287845
0.277577
0.293355
0.268478
0.407897
0.265212
17.7476
30.6205
0.357444
0.0867348
31.4615
0.31248
0.385055
0.259461
0.373207
0.308397
0.315165
31.4641
0.331883
0.304921
30.668
30.6176
0.145871
0.323238
0.162669
0.122023
0.355022
0.424969
0.195385
0.300101
0.365071
0.0893201
31.4486
31.4197
0.0459488
0.14887
0.358043
0.141032
0.354381
0.274935
0.361829
0.308684
0.342842
30.634
30.6997
0.105881
31.4439
27.5096
0.336708
0.258007
0.261539
0.14042
28.8148
0.31145
0.219907
29.3384
0.133324
-0.279853
0.346197
0.361759
0.0951797
0.400895
-0.0590365
0.13559
31.5371
29.1152
0.173071
0.181313
0.253165
0.174119
0.037034
0.284858
0.0696705
29.2155
0.395389
0.273347
0.300478
0.0452176
0.29635
0.11238
-0.262387
0.311922
0.152955
28.7884
0.389081
0.375276
11.5805
27.3518
25.1941
0.39807
26.7395
0.0715618
0.345304
0.274677
0.40679
0.0538747
20.428
12.5675
32.3484
27.0358
0.283606
30.6267
30.6273
-4.44556
31.5272
0.289759
0.265667
0.186729
0.268881
0.272062
0.340835
25.2812
0.164055
0.117128
0.27795
0.313105
0.281841
0.334694
30.6326
-0.281161
0.286618
-0.0133826
30.6291
0.352333
0.282782
30.6286
31.4849
0.147791
0.247169
31.6889
0.382463
0.363828
0.130616
31.5557
30.6278
0.118143
-0.276554
0.391272
30.6307
30.5956
30.6296
0.37146
10.5978
9.6802
0.117922
-0.925546
31.599
0.216803
-0.837097
0.33493
0.116466
0.044139
0.205923
-1.40147
0.149165
30.8608
0.188169
0.226556
0.0782451
0.298298
0.109281
0.185638
0.104487
0.128615
0.132623
0.229958
-0.962841
0.333066
0.124753
-0.00710462
-1.24197
0.0152938
-0.893876
0.104343
0.156862
0.255986
0.257596
0.246512
0.230982
-0.914718
0.182399
30.0301
0.322625
15.6041
0.271016
0.290298
30.6708
0.331626
30.0299
0.305151
30.1399
31.6309
0.432603
0.283414
27.5661
0.1842
0.328264
0.31841
31.47
31.56
0.527204
0.139221
-0.0879646
0.28091
0.191299
0.30132
0.236279
0.3434
0.332833
26.1382
0.330699
30.6322
31.3707
0.280511
0.226028
0.140899
0.272348
0.206897
0.365103
0.324205
31.1537
0.0687953
0.186769
0.353116
31.1936
31.5921
0.325061
0.329557
24.7564
0.291583
0.135026
0.351189
-0.502094
0.223008
0.305986
31.4892
18.5663
0.281636
0.1963
30.9297
0.309373
0.267475
0.311992
0.0819451
0.230554
-0.0373793
0.32182
0.317927
19.6368
0.298471
31.5335
0.327567
0.326975
0.213482
0.0718876
26.4908
0.0604739
0.166911
0.340825
0.0502318
29.7943
30.632
0.289593
0.220061
0.364271
0.345559
0.295204
0.218548
0.0108324
0.284839
0.188624
0.104821
0.260375
28.298
-0.0188571
0.287977
0.0220959
0.28069
29.0702
30.6166
-8.77877
0.0627534
32.724
-0.0351842
0.318344
29.5148
20.2912
22.0116
0.229852
0.254594
1.23634
23.5384
0.143951
0.306433
30.4912
0.955951
27.6335
0.309748
0.195802
30.7746
-0.0840993
0.348278
0.33094
0.227718
30.621
-0.512386
0.273179
0.18213
0.370187
0.396706
0.338786
0.373784
-0.128516
0.325402
0.156259
0.251458
31.5191
25.9942
26.3382
30.9254
0.273554
0.285479
0.310175
0.199359
0.178963
0.292056
0.3271
0.324141
0.320755
0.218926
0.34789
0.116432
0.369082
0.208868
31.5334
0.279165
0.197488
0.331942
0.382079
30.4638
0.234174
0.252119
0.48664
0.338263
0.31329
30.6806
0.351282
0.300353
27.5766
0.350078
0.334743
30.9064
0.251378
30.8698
30.6568
0.240326
0.156376
0.346852
0.315417
30.6248
0.181613
0.263155
30.6726
0.34594
0.3084
0.296542
0.323499
31.0294
0.284156
0.29264
0.39006
30.9089
0.292568
0.157184
0.350818
0.255433
0.251991
31.6702
29.9697
28.4132
0.127737
28.9328
0.287477
0.196712
0.138385
31.4616
0.136801
30.7588
31.5332
31.3575
0.316115
-0.0488135
-0.282066
0.375925
0.324116
30.1184
27.63
0.301355
0.260976
0.304111
-0.141756
0.288102
-1.01116
31.5388
23.1242
23.5935
30.6198
23.8854
0.0799107
31.5392
0.322293
0.319188
0.320778
0.0819309
0.291666
25.4709
0.169324
0.361357
0.347743
0.286663
25.6353
31.5383
0.300965
0.223181
-0.614151
-1.59429
0.0790953
-0.117283
-0.505019
-0.246606
0.266148
0.0542947
0.232186
-2.60859
0.224531
0.367009
0.322453
0.223443
0.205115
0.0468273
-1.88591
-1.44677
-3.22128
-4.43033
0.200365
0.247654
30.6849
-3.63459
-7.37081
0.165866
0.120639
0.0441334
0.369229
0.40664
-8.11683
0.123213
0.096216
31.6637
0.298508
0.241094
0.29336
31.5481
0.195701
0.159813
0.139131
0.275833
31.5901
31.6828
0.335293
0.14792
0.180664
0.0757189
31.3852
31.5395
30.647
0.340192
0.334285
0.120666
31.5495
0.230316
31.6996
31.7953
0.160332
0.126621
30.607
0.136375
0.162608
-0.0630919
30.6352
31.5553
0.206325
0.368315
31.7333
0.129536
0.272463
-0.144285
31.9595
31.9859
31.8546
-0.153893
0.132458
0.328548
0.280334
30.6121
0.141919
0.31077
0.310615
0.3319
30.7529
31.5249
0.346276
0.240975
0.237383
0.304818
30.743
-0.224423
30.6372
0.158605
0.0817522
0.308067
30.9407
28.6403
0.179325
0.29955
28.0876
28.2496
30.6343
0.364066
30.2761
26.8605
0.316804
0.323147
30.6383
27.6358
0.319645
0.311844
0.179656
0.284849
0.274494
28.1106
0.371414
25.7996
25.1508
31.6436
0.27812
0.388399
0.119093
25.2956
33.8512
0.396964
0.0874907
0.418637
0.363921
0.317166
0.331552
0.304955
0.370387
24.822
0.294159
0.187655
0.348082
0.327999
0.306889
17.9883
0.276116
0.273424
0.28657
0.27669
0.171744
24.0351
28.6642
0.30994
28.8996
29.2822
0.345579
28.9594
0.292203
28.2673
28.6229
30.8061
27.5007
0.301867
0.173173
0.249527
28.2189
0.225158
0.289624
0.23441
28.686
31.5412
0.309743
0.319649
-0.0839868
0.310267
27.3245
0.046145
0.214042
0.13371
30.6153
31.0158
0.283764
0.188046
31.1249
28.7986
0.266142
0.0195163
28.1564
0.240718
0.214359
0.254645
0.337542
28.4564
0.320763
4.511
0.199246
0.391867
0.342642
0.215896
0.32254
0.252998
0.385848
27.831
0.344238
0.373275
-0.134722
0.203983
0.275
28.6178
0.227973
0.368633
0.257358
0.262649
0.349664
-0.0886104
0.529173
0.163515
0.321099
0.306583
0.231895
0.296248
0.35289
0.333665
0.393056
31.6672
-1.09745
31.5581
0.332376
0.348238
0.282106
0.217136
0.413486
0.308806
0.328901
0.0728277
0.30312
0.192877
30.5974
23.3693
0.238696
0.297874
0.348443
0.32393
0.0495359
0.100461
0.0796059