/*--------------------------------*- C++ -*----------------------------------*\
  =========                 |
  \\      /  F ield         | OpenFOAM: The Open Source CFD Toolbox
   \\    /   O peration     | Website:  https://openfoam.org
    \\  /    A nd           | Version:  10
     \\/     M anipulation  |
\*---------------------------------------------------------------------------*/
FoamFile
{
    format      ascii;
    class       surfaceScalarField;
    location    "8.2";
    object      phi;
}
// * * * * * * * * * * * * * * * * * * * * * * * * * * * * * * * * * * * * * //

dimensions      [0 3 -1 0 0 0 0];

internalField   nonuniform List<scalar> 
214403
(
-0.0067853
0.00520266
0.000287214
0.00129543
-0.00336559
-0.0113124
0.000963771
0.0137142
-0.0103245
6.89976e-05
-0.000140883
0.0103964
0.00893014
-0.00600463
-0.0149678
0.0120423
0.0123821
-0.015657
0.00372994
-0.000455038
-0.00543323
0.00565892
-5.49297e-05
-0.000170755
-0.000859079
-0.00163311
-0.00929794
0.0117901
-0.0171449
0.00975414
-0.00257518
0.00996593
-0.0234795
0.0165731
0.0167301
-0.0098237
0.0143153
0.00169906
-0.0159953
-1.90808e-05
0.00507639
-0.010056
0.00206821
0.00291141
-0.0104245
0.00328022
0.00540179
0.00174255
0.000480944
-0.0115341
0.01389
-0.00283691
-0.0100294
0.010095
-6.56291e-05
0.00193419
0.0120264
-0.0154157
0.00145503
-0.0121485
0.0101593
0.00307852
-0.00108924
-0.0122205
0.0119247
0.000295755
0.00395633
-6.66469e-06
-0.00101753
-0.00293214
0.0158123
-0.00946379
-0.0210242
0.0146758
-7.62854e-05
-0.00312716
9.16457e-05
0.0031118
0.00645006
-0.0062987
-0.000151362
-0.0124711
-0.0043143
0.00428983
0.0124956
-0.00230412
0.013751
-0.0110835
-0.000363438
0.00678283
0.000714338
0.00236668
-0.00986385
-0.010327
-0.00495804
0.0133679
0.00191712
0.00926338
-0.0117346
6.94132e-05
0.00240178
0.00325616
-0.00284911
0.0106608
-0.0110679
0.00769691
0.0100687
-0.0121281
-0.00563749
0.01127
-0.00706894
-0.000320839
-0.00388018
-0.00590695
0.00602139
-0.000114445
0.00246301
-0.00512103
0.0136478
-0.0109897
0.0142535
0.000675401
-0.00248835
-0.0124406
-0.00566623
-0.00581494
0.0059551
0.00552607
-0.00121145
-0.00683345
0.00605353
0.00199137
0.00446653
-0.00310393
-0.00951252
0.00814992
-0.00172931
0.0086267
-0.0031166
-0.00378079
0.0161623
-0.000396371
-0.0157659
-0.00695922
0.0135726
-0.00661341
0.00125975
-0.0148981
0.00862197
0.00501633
0.00247723
-0.00099576
0.00606338
-0.00754486
0.00576726
-6.09515e-05
-0.00570631
0.0103312
-0.000222877
0.00183277
-0.0119411
-0.013105
0.00164557
0.0139367
0.000868732
0.000892317
0.00869812
-0.0104592
-0.00414719
-0.0271103
0.0262888
0.00496874
0.00574722
0.00103766
0.00129905
-0.00808393
0.00427639
0.00323619
-0.0104471
0.00293454
0.0134793
0.00807944
-0.014776
0.00121907
0.0114345
-0.0023224
0.00183489
-0.00686552
-0.00404363
0.00907425
0.00312472
0.00480336
0.00142851
-0.00935659
0.00187087
-0.0014047
-0.00432966
0.00386349
0.00691714
-0.0125204
0.00872796
0.0120059
-0.011303
-0.00387833
0.00317543
0.0107118
-0.00195981
-0.00867205
0.0117581
-0.000499879
-0.00258621
0.00893015
-0.0114182
0.000131392
0.00235662
-0.00837742
0.000553441
0.0133872
-0.00556327
-0.0154636
-0.0145288
0.012203
0.0177894
-0.00826969
0.00831983
0.00163686
-0.001687
0.00130438
-0.0105698
-0.00863461
-0.000179738
0.00448844
0.00432592
-0.0135321
0.00581045
0.00875523
-0.00103362
0.0158733
-0.0127889
0.000822186
-0.00390664
0.000730473
0.000265671
-0.0104718
0.00947567
0.000523957
-0.00287522
0.0142181
-0.0118668
-0.0351136
0.00365037
0.00389967
0.0275636
-0.00324391
0.00955046
-0.00302537
-0.00328118
0.00469184
-0.00247062
-0.0100101
0.0077889
0.00112479
0.00699212
-0.00888928
0.000772374
-0.000174972
0.00857882
0.00298549
-0.0113893
-0.0017017
-0.000270024
-0.00354702
0.00551874
-0.00907391
0.0099197
-0.000377689
-0.000468103
0.000317641
-0.00915786
-0.00640997
0.00567748
0.0017234
-0.000990902
-0.017073
-0.00107778
0.00833253
0.00981823
-0.00517426
-0.00220516
0.00440236
0.00297706
0.00759036
-0.025457
0.0035301
0.0143366
-0.00397457
0.00799915
-0.00436854
0.00034397
0.00570828
-0.00443097
0.000565111
-0.00184242
0.000128119
-0.0107013
0.0105732
3.24397e-05
0.00868858
-0.00872102
0.00767693
-0.00150254
0.00101803
-0.00719241
-0.00457934
0.00653377
0.00216557
-0.00412
-0.00323646
0.0137881
-0.00331371
-0.00723798
0.00650762
-0.0110889
-0.000423414
0.00500472
0.00744671
0.00788146
-0.0153282
0.0109838
-0.0123436
0.00316313
-0.00180334
0.00106682
-0.00198183
0.0143404
-0.0134254
0.00041186
-0.00231919
0.0103291
-0.00842173
0.00244912
0.0216154
0.0062293
-0.0302938
-0.0189028
0.0166312
0.010779
-0.00850752
0.000868309
0.00665814
-0.00895245
0.00142601
0.00880549
0.00979274
-0.00320619
-0.015392
0.0163862
-0.00995424
-0.000328115
-0.00610388
0.000714417
-0.00209437
-0.00657609
0.00795604
-0.00665549
3.79157e-05
0.00661758
0.00995376
0.000343974
0.000686065
0.0123688
0.00104498
-0.0187972
0.00538338
-0.00991714
0.00219025
0.00176218
0.00596472
-0.00628046
0.00155739
0.000772225
0.00395084
0.00154339
0.00110385
-0.0130889
0.0104417
-0.00268839
-0.0156458
0.00997513
0.00835908
0.00625959
-0.00740483
-0.00482545
0.00597069
0.0101191
-0.00011006
-0.0101191
0.000110075
0.00776329
-0.0109709
-0.00381014
0.00701772
0.0200875
-0.00607797
-0.00313054
-0.010879
0.0113725
-1.89041e-05
-0.0104612
-0.000892415
-0.00572741
0.00674571
0.0140582
-0.0150765
0.0122837
-0.00431404
-0.0118129
0.00384328
0.00225914
-0.00330389
0.014374
-0.0133292
-0.0162379
0.0147998
0.0140294
-0.0125913
0.000731246
-0.0126411
0.00487946
0.00703038
0.0158202
-0.000838897
-0.000321343
-0.0146599
0.0111331
-0.00216999
0.00215285
-0.011116
-0.0129229
-0.0117516
0.0139089
0.0107657
-0.00244875
0.00702359
0.00190385
-0.00647869
-0.00553752
0.000301833
0.0107329
-0.00549719
-0.00123296
0.0138907
-0.0129287
0.000270999
-0.0119536
0.0111018
0.00216152
-0.00130971
-0.000400922
-0.00697662
0.0166409
0.00221429
-0.00738162
-0.00539275
0.0105601
-0.00586121
7.71509e-05
0.00578405
0.0017969
0.0081711
-0.00755859
-0.00240941
0.0130105
-0.00750138
-0.00199314
-0.00351598
8.88429e-05
-0.00382111
0.00373227
-0.00734409
-0.00197853
0.00275794
0.00656468
0.000754818
0.00415697
-0.00932816
0.00441637
0.0158933
-0.00143497
0.00621178
-0.0206701
0.00114389
-0.00140179
-0.0193057
0.0195636
0.00124556
-0.00551896
-0.00730144
0.0115748
0.000467276
0.0100468
-0.00056033
4.03028e-05
-0.00589944
0.00585914
0.0122502
-0.00454291
-0.00549303
-0.00742789
0.00620463
-0.00612082
0.0135094
-0.0112433
-0.00136186
-0.000904326
0.0013556
-0.00641069
0.00280281
0.00225228
-0.0110287
-0.00333758
0.00224112
0.0121251
0.0091759
-0.01491
0.00982392
-0.00408985
-0.000408809
0.0134641
-0.013483
0.000427715
-4.34302e-05
0.012261
-0.0121484
-6.91951e-05
-0.017137
0.0136764
-0.0109778
0.0144385
0.0142958
-0.0138352
-0.000460556
-0.0130964
0.0175421
-0.00320759
-0.00123806
-0.0117037
0.0028142
-0.000881205
0.00977067
-0.0192999
0.00148729
0.0124092
0.00540337
0.00343296
-0.0046881
0.00261074
-0.00471657
0.0053627
0.00862729
-0.00927342
-0.00513938
-0.00230647
0.00294111
0.00450474
-0.00694814
0.00454644
-0.00878307
0.0111848
0.00209162
0.00016784
-0.0153559
-0.00683512
0.00682102
1.40971e-05
0.00748965
-0.0072
-0.00028965
-0.0113054
-0.000739474
-0.00300942
0.00279178
-0.0148806
0.0173314
-0.00524255
0.00670306
0.0115353
-0.0146694
-0.00356895
0.012806
-0.0139092
0.000373374
0.000729855
0.00681975
0.00177291
-0.00704963
-0.00154303
-0.0107803
-0.000599029
0.0141711
0.006193
-0.000447759
-0.00754952
0.00180428
0.00697858
-0.00597513
0.00688309
-0.00788654
-0.0121937
0.00229006
0.0166067
-0.00411778
-0.00577839
0.0190782
-0.00918201
-0.00588151
-0.00647527
0.00157645
0.00175597
0.00464671
-0.0122842
-0.00831472
-0.000733208
0.0133605
-0.00431253
0.00129607
0.00204451
0.0074308
-0.0107714
-0.00396527
0.00970654
-0.00574127
0.00314627
-0.0150547
0.00543315
0.00896937
0.00626467
-0.0134781
-0.0126964
0.000152746
0.0158215
-0.00327785
0.00214011
0.0018335
0.0057308
-0.00970441
0.00851903
-0.00858358
6.45453e-05
0.00321399
-0.00121336
0.0107891
-0.0127897
0.0112935
-0.00358081
0.00543073
-0.0131434
0.02075
-0.00667069
0.0154842
-0.0295635
0.00340016
0.00632596
-0.00262792
-0.0070982
-0.00937194
0.00385604
0.00491554
0.000600361
0.00671627
-0.00505984
-0.000138028
-0.0015184
-0.00436915
-0.00554137
0.0161353
-0.00622481
-0.00752531
0.00976359
0.00389869
-0.00613697
0.0113277
-0.000619408
-0.00372967
-0.0176364
0.0116566
-0.000968361
-0.0168194
0.0155175
0.00720606
-0.00590417
0.0107284
-0.012091
-0.00174465
0.0031073
0.00605689
-0.0109425
-0.00573215
-0.00624087
-0.00572725
0.00323658
0.00873154
-0.00891028
0.00276671
0.00879412
-0.00265055
0.0102916
-0.00979089
-0.00674057
0.00623985
6.43901e-05
-8.93449e-05
-0.00964187
0.00966683
0.000232562
-0.008481
-0.000322278
0.00857072
-0.0024387
-0.0144586
0.00227071
-0.00835785
0.0075181
-0.00143096
-0.00569885
-0.00240157
-0.000809863
-0.000193457
0.0143057
0.000203115
-0.0341436
0.0240183
0.0173575
-0.00723212
-0.0100875
0.000685974
0.000366504
0.00903506
-0.00200877
0.0319733
-0.0376203
0.00765583
0.00159262
0.00245655
-0.00551258
0.0014634
-0.0215994
0.0116402
0.00150475
0.00845444
-0.000255718
-0.0143443
-0.00204056
0.0166406
-0.00598638
0.0216335
-0.0149773
-0.000669749
0.00970158
0.0141024
-0.0130351
-0.0107688
-0.0115778
0.0110253
0.0136955
-0.013143
0.00448074
0.0062612
-0.00779877
-0.00294317
0.0044681
-0.00301444
-0.00715251
-0.023004
-0.000904263
0.0187944
0.00511388
0.00674356
0.00103012
-0.00391764
0.00693946
0.00928955
-0.00857736
-0.00765165
-0.0114844
0.00255817
0.0112028
-0.00227659
0.0013668
0.00360598
0.0125693
-0.013331
0.0131641
0.00127608
-0.00110919
0.00822726
0.00645187
-0.00581477
-0.000230337
-0.0016359
0.00768101
-0.00881207
-0.00175219
0.00490239
-0.0170027
0.00723014
0.00487018
0.000517563
0.00916599
-0.0101711
0.000487543
-0.00353423
0.00068354
-0.00328619
0.00613689
0.0141828
-0.0101369
0.000422174
-0.0080331
-0.00628434
0.00845375
0.0058637
0.0303638
-0.0324814
0.0106093
-0.00849158
-0.00581952
0.00723112
0.00291288
-0.00432449
-0.0133155
0.00578866
0.0116099
-0.00408312
-0.00577577
0.00838421
0.0107834
-0.0133918
0.0162074
-0.00627007
-0.0107299
0.000792583
0.000282279
-0.00394257
0.00959101
-0.00593072
-0.00166724
0.00165377
-0.0126829
0.0116307
0.00378115
-0.0124511
-0.0029607
0.01461
-0.0119832
-0.00322581
0.00307394
0.00454883
-0.010753
0.00313025
-0.00599188
-0.0109953
0.00976488
0.0072223
-0.00183243
-0.00475768
-0.00144299
0.00596864
-0.00637747
0.0137423
-0.0133334
0.0014461
-0.0166442
0.0151981
0.00567219
-0.00741757
0.00481932
0.00307065
0.00176891
0.00251776
-0.00735732
-0.00031061
-0.0138613
0.0141719
-0.00755341
0.00100335
-0.00245099
0.00900104
-0.000906656
0.0104942
-0.00956529
-2.22499e-05
-0.00712827
-0.0037728
0.00411608
0.006785
-0.00265778
-0.00630292
-0.005854
-0.00860502
0.00717727
0.00728176
0.000315881
-0.00882766
0.0152391
-0.00626595
-0.00081124
-0.0081619
0.00806922
-0.000770423
-0.00588723
-0.00141156
-0.00129053
0.0113764
-0.0142071
0.00412125
0.00734645
0.000282641
0.00357632
-0.0112054
-0.000269888
-0.00603935
0.00291456
0.00339468
-0.00417681
0.00543523
0.0105065
-0.0117649
-0.0147918
-0.00383604
-0.00413919
0.0136474
-0.0126377
0.000297922
0.003966
0.00837379
0.00121669
-0.0044834
-0.00798656
0.0112533
-0.00579179
-0.0113057
0.00285269
0.0142448
-0.00529569
-0.00587389
0.00610897
0.00506061
-0.0136883
0.0131763
0.0139022
-0.0133902
-0.00185325
-0.00323454
-0.00974003
0.0148278
-0.0133382
0.00136091
0.0135755
-0.00159824
-0.00231778
0.00622747
-0.00390969
-0.00540464
0.00999061
-0.00752117
0.00293519
-0.000235105
0.0179707
-0.00667018
-0.0110654
-0.00642916
-0.00310639
0.0129042
-0.00336863
0.002074
-0.00544116
0.0123469
-0.0089797
0.000564668
0.00800705
-0.00140278
-3.70305e-05
-0.0131549
0.0131451
4.67936e-05
0.0149785
-0.0026525
-0.0218928
0.00956674
-0.0138327
-0.00135557
0.0172712
-0.00208298
-0.00750749
0.0113423
0.000931157
-0.00476599
0.00669019
-0.00660723
-8.29608e-05
-0.00800789
0.000772033
-0.00691068
0.0141465
-0.0115581
0.0159281
-0.0033214
-0.00104863
0.00720304
-0.0030211
-0.00868542
0.00450348
-0.0139202
0.0140455
-0.000125279
0.0114698
-0.0166789
0.00134898
0.00386014
-0.0129954
-0.00355768
0.0222238
-0.00567077
0.00958723
-0.000399472
-0.00201389
-0.00717387
-0.00546634
-0.00926795
0.0207029
-0.000974803
-0.0136805
0.00827786
0.0215495
-0.0240419
-0.00228189
0.00477427
0.00575441
0.0027435
-0.0063578
-0.00602596
0.00628388
-0.000257915
-0.00246059
0.0137466
-0.000872626
-0.0104134
-0.00299332
0.00355043
0.0119406
-0.0124977
0.00780067
0.0183059
-0.0107116
-0.015395
0.0133708
-0.0160421
0.0050999
-0.00242855
0.0121734
0.000170283
-0.0123437
0.000225662
0.0118479
-0.0120735
0.0133563
-0.0161676
0.014281
0.000144981
-0.000122771
0.0103899
-0.0104121
0.000274374
0.0189315
-0.0188647
-0.000341124
-0.00161827
-0.0047854
-0.00968486
0.0160885
-0.00592477
-0.00355108
0.00118967
0.0112079
-0.019505
0.00710739
-0.0094736
-0.00248411
0.0101571
0.00180059
-0.0111642
0.0123284
-0.0032932
0.00212899
0.00176264
0.0091839
-0.00312416
-0.00782238
-0.0044594
0.00111054
0.00755769
-0.00420882
-1.22925e-05
0.00340846
-0.00427177
0.000875602
-0.00476161
0.0116438
-0.0067123
-0.000169844
0.00348174
-0.0109847
-0.00641723
7.7647e-05
-0.0102442
0.0101666
-0.00379803
-0.00364441
0.00169024
0.0057522
0.00573187
-0.00330673
-0.00242514
0.0143305
-0.0142317
-0.00290322
0.00280446
-0.0013009
-0.00846441
0.0078052
0.00196011
-3.55548e-05
4.77665e-05
0.00766817
-0.00768038
0.00382503
-0.00314361
-0.0121702
0.0114888
0.00882746
-0.000226432
-0.00860103
-0.012925
-0.00836938
0.0124728
0.00882155
0.00757676
0.0118731
-0.0204246
0.00719476
-0.00258991
0.00405009
-0.00865494
-0.00288043
0.00285742
-0.0158492
0.0158722
0.00449137
-0.0088448
-0.00860755
0.012961
-0.000908126
-0.00203507
0.00958618
-0.00664299
0.00668621
-0.00821775
0.00297792
-0.00144638
0.00364987
-0.00604985
-0.00584752
0.0082475
-0.0117834
0.0132686
-0.00353403
0.00204884
0.0134115
0.0172366
-0.0189843
-0.0116637
-0.0103768
0.0103323
4.44431e-05
-0.00116262
0.0122618
-0.0153156
0.00421647
0.000476215
-0.000778852
-0.0117766
0.0120792
0.0116013
0.000486897
-0.0133484
0.00126026
-0.00493736
-0.00834575
0.0104955
0.00278765
-0.0119313
0.0169045
-0.0059855
0.00101228
-0.00493258
-0.0060264
0.00357736
-0.000732651
-0.000124601
-0.00848451
0.00934177
-0.0277195
0.000106356
0.00248218
0.025131
0.00109784
-0.00705481
-0.00365138
0.00960835
0.0173092
-0.00142253
-0.00560285
-0.0102838
-0.00308825
-0.00666835
0.00129701
0.00845959
0.00485512
-1.85404e-05
-0.00483658
0.00812971
0.00433209
-0.00269639
-0.00976541
0.00629803
-0.00498781
0.0124242
-0.0137344
0.000408813
0.0129232
-0.00427061
-0.00906143
0.00313734
0.004478
0.00969382
-0.00619975
0.000438202
0.00576155
-0.00805012
0.00113901
0.00213612
0.00135075
-0.011138
0.00765117
-0.0105252
0.0154007
0.00466491
0.0159135
-0.00337227
-0.0172061
-0.0101036
0.00992253
-0.0157023
0.0158834
-0.00151925
-0.00761867
0.00266489
0.00647303
-0.00839643
0.0158431
0.00470366
-0.00547535
0.00122511
-0.000453423
-0.00518906
-0.0165504
0.0051813
0.0165582
0.0108744
-0.0108527
-9.80401e-05
7.63762e-05
0.00879466
-0.010264
0.00218879
-0.000719404
0.00225657
0.00882773
-0.0157259
0.00464163
3.7651e-05
0.00759297
-0.00763063
0.00491724
-0.0126028
0.00994208
-0.00475348
0.0127627
0.0107501
-0.0187593
0.00363032
-0.0036934
-0.0171808
0.0172439
-0.00517751
0.00857797
-0.017206
0.0138056
-0.0123354
0.00982164
0.0128787
-0.0103649
-0.0077409
0.0106053
-0.00685202
0.00398761
-0.00162588
0.0070837
0.00115245
-0.00661027
0.00360409
-0.00525496
0.00541925
-0.00376838
0.00677349
0.00252029
0.00222791
-0.0115217
0.0193256
-0.0131221
-0.000789433
-0.00541404
-1.03547e-05
-0.00937111
0.00938147
0.00586926
-0.00858329
-0.0263178
0.0290318
-0.00117856
-0.0127587
-0.00386838
0.0178057
-0.000776439
-0.00588034
0.00665677
0.00178818
0.00848185
-0.00133953
-0.00893049
-0.0023723
-0.00856261
0.00691029
0.00402462
0.00659851
-0.0055262
-0.00970693
0.0168641
-0.0131254
0.00370465
0.00392494
-0.00762959
0.012723
-0.000332905
-0.00152944
-0.0108606
-0.00244048
-0.00415091
0.0065914
0.00455831
0.00302878
0.0254527
-0.0306127
-0.0108128
0.0159728
0.00391536
0.00834125
-0.00637979
-0.00587681
-0.00891257
0.0170582
0.0113397
-0.0194853
0.0100394
0.00348457
-0.00134396
-0.01218
0.0166412
-0.0110962
0.00716052
-0.0127056
-0.00930478
0.00425444
-0.0116636
0.016714
-0.0151557
0.0271628
-0.010647
-0.0013601
-0.000400752
-0.00649965
-0.00895807
0.0158585
0.0123062
0.00508382
-0.0144407
-0.00294929
0.00658221
-0.0175487
0.0110774
-0.000110949
-0.0155238
-0.000591487
0.0101578
0.00595752
-0.00311334
0.00805208
0.00350128
-0.00844002
-0.00197427
0.00791781
0.0063688
-0.0123123
-0.0161696
0.00831814
-0.000788576
0.00864008
0.00148633
-0.00441731
0.00877613
-0.00584515
0.00684655
-0.0034441
0.0024438
-0.00584625
0.0066425
0.00127711
0.000653561
-0.00857318
-0.00983477
0.0105521
0.00390833
-0.00462565
-0.00232417
0.0124422
0.000252503
-0.0103705
0.0100371
-0.00589277
-0.00389201
-0.000252368
0.00869678
6.72195e-05
-0.008764
0.00635767
0.00492271
-0.00111633
-0.0101641
0.00296533
0.00782664
0.00669864
-0.0174906
-1.68906e-05
-0.0140689
0.0140858
-0.00734542
0.0284146
-0.0041407
-0.0169285
-0.000134941
0.0105879
-0.010453
-0.000708924
-0.00763992
0.00137214
0.00697671
-0.0138154
0.0070384
0.00534564
0.00143136
0.00281893
0.00234602
-0.0161556
0.0109907
0.00826217
0.0130513
-0.00487786
-0.0164356
0.0124248
-0.00425686
-0.0118927
0.00372476
-0.0155351
0.0088583
0.0236788
-0.017002
-3.94983e-05
0.00593386
-0.00593399
3.96306e-05
-0.00613944
0.00607542
6.40243e-05
-0.0158018
0.000243919
0.00664529
0.00176454
0.00381569
0.0104438
-0.016024
0.00825683
-0.00982059
0.00633391
-0.00477015
-0.00787027
0.00689284
-0.000261436
0.00123886
-0.00165075
-0.0129688
0.0166044
-0.00198487
-0.00579594
0.00279098
0.00917691
-0.00617195
0.0100696
-0.00388138
0.00148589
-0.00767411
-0.006703
-0.00116856
0.00784674
2.48154e-05
-0.0011468
-6.14303e-05
0.0108931
-0.00968482
0.00139214
-0.00116939
0.0109359
-0.0111586
-0.0098368
0.0137484
-0.0144054
0.0104938
6.7236e-05
-0.0124005
0.0123333
-0.00441475
0.000387473
0.0111301
-0.00710281
-0.00848869
0.00992417
-0.013534
0.0120986
-0.00869747
0.00065862
0.00264609
-0.00402067
0.010894
0.000605213
-0.00747858
-0.00290746
0.000405906
-0.00492634
-0.00428781
-0.0139296
0.0139928
0.00422461
-0.00620488
-0.000727019
-0.00155932
0.00849122
-0.0212654
0.00718841
0.002095
0.011982
-0.00674125
0.0154194
-0.00765889
-0.00101931
0.00470628
0.0018458
-0.00945954
0.0092667
0.00944976
-0.0187165
0.00123984
0.0203246
-0.00470481
-0.0168596
-0.000257635
-0.000359862
-0.00894285
0.00956035
-0.00975338
0.016068
-0.00647688
0.00016228
0.00925995
-0.00584794
-0.00839247
0.00498046
0.00230549
-0.000309159
0.00282215
0.014226
0.0039799
-0.0205848
0.00237891
-0.00985121
-0.00128558
0.00323064
0.00790614
0.0037381
-0.00414449
-0.00562001
0.0171464
-0.011534
0.00896166
-0.0145741
-0.00189673
0.0110701
-0.019146
0.00997264
0.0066531
-0.00840765
-0.000852012
0.00260656
-0.00736938
-0.00256426
-0.000248996
0.0101826
-0.00548637
-0.00518844
0.0106748
0.00137758
-0.0147193
0.0130544
0.000287355
0.00564656
-0.00544455
-0.00568839
-0.00920981
0.0116881
-0.00222742
-0.000250845
0.0131866
0.00362685
-0.014207
-0.00260641
-0.00509666
-0.00745107
-0.000854269
0.013402
0.00834261
-0.00253833
0.00967402
-0.0154783
-0.0093129
-0.0005239
-0.0111608
0.00597235
0.00143935
-0.0125218
0.00400649
0.00707598
0.00363286
-0.0130085
0.00716505
0.00221058
0.00194378
0.00051157
-0.00975515
0.00729979
0.00149692
0.00639399
-0.000430528
0.0109426
-0.00216226
-0.00834976
-0.0042951
-0.000437321
-0.00401556
0.00874799
-0.0025403
-0.00342184
0.00654266
-0.000580526
-0.0101818
-0.000145223
-0.0172241
0.00618339
0.00906645
0.0244749
-0.000199101
0.00333628
-0.0276121
-0.0107025
0.0166312
0.00337123
-0.00929997
-0.00305124
0.00167294
0.0105373
-0.00915902
0.0012796
0.00363211
-0.00281003
-0.00210169
-0.0184076
-0.00379818
0.0158865
0.00631934
0.000401851
0.00775205
-0.00155539
0.000237275
0.00391461
-0.0122836
0.00813172
-0.00761644
-2.69298e-05
0.00280853
0.00483484
-0.010395
0.0128463
-0.00204947
0.00586592
-0.00528952
-0.000576405
-0.00867727
0.00125103
-0.00674026
0.0141665
-0.00391116
0.00588566
-0.00453643
0.00256194
-0.00841923
0.00948086
-0.00391796
0.00285633
0.00379671
-0.000622903
-0.00902575
0.00585194
-0.00376525
0.0236015
-0.0317676
-0.00344551
-0.00240469
0.00235455
0.00349566
0.0112427
-0.0175498
-0.000796677
0.00710374
-0.00475844
0.00355101
0.00611931
-0.00491188
-0.0014104
0.00751638
-0.00207293
-0.00403305
-0.00845902
0.00187665
0.00197712
0.00460525
-0.00469299
0.000403294
0.0042897
0.0108795
-0.00518062
-0.00552004
-0.000178838
0.000793329
0.00540511
-0.00820413
0.0020057
-0.00582461
-0.00706104
0.00720001
0.00568563
-0.00300481
0.00775587
-0.00665244
0.00190138
0.00281357
-0.00532639
0.00367118
-0.00115836
0.0101762
0.000276116
-0.0104524
0.00876383
-0.0107902
0.00533956
-0.00331317
-0.0137565
-0.000404099
0.0141606
0.00567928
-0.0047111
0.00109808
-0.00206626
-0.000446928
0.00975412
-0.0106464
0.00133921
-0.00490245
0.00613744
0.00157858
-0.00541431
0.0116003
0.0107185
-0.00925472
0.00917418
8.05347e-05
0.000254542
-0.0146295
0.0143749
0.01976
0.00238896
-0.00421486
-0.0179341
0.00412546
-0.0160999
-0.00199467
0.0139691
0.00314313
0.00371656
0.00208729
-0.00894698
-0.00553836
-0.00554593
7.4772e-05
0.0110095
-0.00264198
0.0036327
-0.00652908
-0.0121873
0.00220077
0.0159984
-0.0060119
-0.0239188
0.0175168
0.00770996
-0.00130798
0.0105783
9.15856e-05
-0.0106699
-0.00599249
-0.00806265
0.00521491
0.00884022
-0.00603668
-0.00876697
0.00261638
-0.00870002
0.00472432
0.00547262
0.00352853
-0.00458845
-0.00842026
0.00948019
-0.00595847
4.00451e-06
0.00595447
-0.0138626
0.00563515
0.00572308
0.0025044
0.00351009
-0.00938004
-0.00283007
0.0119121
-0.00377794
-0.000300827
-0.00783337
-0.00799142
0.0132419
0.00786031
-0.0131108
-0.00234125
-0.00491761
0.0018051
0.00545376
-0.00338089
-0.00271926
0.00610015
-0.00588169
-0.012363
-0.00567401
0.00275501
3.55201e-05
0.00555884
-0.00834937
0.0113213
-0.00824533
-0.0119229
0.00884692
-0.00420019
0.00149712
0.00848751
-0.00578444
0.00798423
-0.00562083
-0.000791585
-0.00157182
-0.00915549
0.00148621
0.00715145
0.00051783
-0.0056734
0.0130359
-0.0141186
0.00550462
0.000408479
0.00820551
0.0132288
-0.0105645
-0.00832473
0.00566047
-0.0105099
0.00218865
0.0196426
-0.0102359
-0.00674845
0.0110165
0.00596783
-0.0011958
0.0106617
-0.0040444
-0.00542146
0.000604229
-0.00625348
-0.00412431
0.00977356
0.0121378
-0.00800734
-0.000492513
-0.00363794
0.00374232
0.00279545
-0.00917974
-0.00255142
0.00288879
0.00712419
-0.00746155
-0.00211065
0.0110341
-0.0136006
0.00467717
-0.00660012
0.00159186
0.00159779
0.00341047
-0.0145068
0.0147571
-0.000250276
0.00997927
-0.00983567
-0.000143605
0.00401493
-0.0155099
-0.00595508
0.0174501
0.00356033
0.00677265
0.00157915
-0.000171203
0.00593266
-0.00576145
0.00947271
0.00849076
-0.0179635
-0.0105597
0.0064464
0.00455658
-0.000443314
-0.00593045
0.00195431
0.00482145
-0.000845305
-0.017692
0.00825651
0.00970351
-0.000268032
-0.00574771
-0.00640849
0.00619772
0.00907346
-0.00142817
-0.0058486
-0.00179669
-0.00979784
0.010584
-0.00645958
0.00172656
-0.0109564
-0.000560259
0.00979007
-1.24443e-05
-0.00536322
0.00537567
0.0264536
0.000212333
0.00281149
-0.0294774
-0.000991896
-0.00194063
-0.0142952
0.0172277
0.00459681
-0.00622372
-0.00290224
0.00452915
0.00178014
0.0136791
-0.00553147
-0.00992776
0.014924
-0.0149327
-3.54733e-05
4.4105e-05
-0.00837092
-0.00755318
0.0118056
0.00411852
0.00488746
0.00374171
-0.00974189
0.00111271
6.90492e-05
0.00905806
-0.00925696
0.000129855
-0.0124706
0.00399325
0.0101069
-0.00162957
0.00960156
0.00580471
-0.00972037
-0.0056859
0.000226685
-0.00852855
0.00433564
-0.00222192
0.0128103
-0.00691392
-0.000900378
-0.00107916
0.00889346
-0.0115003
0.000604596
0.0108957
0.0168534
0.00728253
-0.00546274
-0.0186732
-0.0110048
0.000236715
0.0109947
-0.00100993
-0.00262935
-0.00671334
0.0103526
-0.00133543
-0.00132056
-0.00354452
0.00620051
0.00277396
-0.0140714
0.0106092
0.000688254
0.00873566
-0.00136305
-0.00850005
0.00112745
-0.0108317
0.00227231
0.000883833
0.00767551
-0.00411558
0.00269041
-0.00554805
0.00697322
0.00236967
0.00150114
-0.0139503
0.0100795
0.000487726
-0.00945056
-0.000658515
0.00962135
0.00937864
0.00122725
-0.000158491
-0.0104474
-0.0111899
0.00260724
0.010126
-0.00803461
-0.0106691
0.0187037
0.0155167
-0.00791452
0.00333733
-0.0109395
0.00121838
0.00872443
-0.00534599
-0.0125332
0.00230939
0.00443948
0.00578435
0.0154664
-0.0159242
0.000457825
-0.00933524
-0.00316939
0.00653434
0.00597028
-0.0121319
-0.00942499
0.00631782
0.015239
0.0126821
-0.0132454
-0.00162075
0.00218398
-0.00184429
0.00615429
-0.00485065
0.00054064
-0.0158514
0.0051679
0.00364178
0.00704174
-0.0233526
0.0290609
0.00481408
-0.0105224
0.0104015
-0.0225543
-0.00115378
0.0133066
-0.00925926
0.0117655
-0.0218034
0.0192972
-0.00973548
0.0214553
0.00213027
-0.0138501
0.0008547
0.0101615
-0.00237063
-0.00864553
0.0154473
-0.0115861
-0.000389395
-0.00347184
-0.00271913
-0.00261169
0.00399098
0.00133984
-0.00733292
-0.0152422
0.0129868
0.00958833
-0.0103608
0.0138017
0.0120064
0.0083974
-0.0061732
-0.00769342
0.00546922
0.00312043
-0.00403775
-0.00178343
0.00270075
0.00690412
-0.00682704
-0.00909973
0.00902266
-0.00280035
0.00803317
-0.000581203
-0.00465163
-0.0111052
-0.00176979
0.0137297
-0.00839363
-0.0020639
0.0103771
8.04446e-05
0.00341553
-0.00763077
0.00421525
0.0027313
-0.00362793
0.0135184
-0.0126218
0.0105404
-0.0148212
0.00214503
0.00213575
0.00671692
-0.00724769
0.000530773
-0.0106441
0.000283288
0.00954278
-0.00363381
-0.00920634
0.00329737
0.00298981
0.00242738
0.010644
-0.0160612
0.0065473
-0.00710914
0.000561844
-8.15644e-05
0.00829538
-0.00937801
0.0011642
-0.011695
-0.0011278
0.0155541
-0.00505854
-0.000864613
0.0011687
0.00475445
0.000698836
-0.00577513
0.0042599
0.000816392
0.00945602
-0.00905107
-0.00224923
0.00108224
0.0155853
-0.00981534
-0.00685224
-0.00537156
0.0113593
-0.00598773
-0.0145243
0.00556221
-0.00340917
0.0123712
0.0114325
-0.0103647
-0.0169192
-0.00555055
-0.00664146
0.0228263
-0.0106343
-0.0163381
0.0104078
0.0148319
-0.00890157
-0.000365807
-0.0139442
0.01431
0.022127
4.49285e-05
-0.0127486
-0.00942332
0.0128231
-0.0082591
-0.00114045
-0.00342351
-0.0093567
0.00664404
-0.00167927
0.00439193
0.000127547
-0.00959576
0.00946822
-0.00704953
0.00725607
-0.000206543
-0.00510522
-0.00539365
-0.0138235
0.0243224
-0.013019
0.00283988
-0.00145619
0.0116353
0.00301066
0.00488561
0.0133518
-0.0120489
-0.00996445
0.0086615
-0.00371027
-0.00764748
0.00843777
0.00291998
-0.00770715
-0.00391993
0.0116378
-1.07266e-05
0.00251665
-0.00144908
-0.00712607
0.00605849
0.0085076
0.000376647
-0.0108736
0.00198935
0.00262401
-0.00182356
0.0028088
-0.00338869
0.00337611
-0.00279623
0.00695211
0.00681142
-0.00695363
-0.00680991
0.00341976
0.00798563
-0.00826282
-0.00314256
0.0072656
0.00315066
-0.00570998
0.00898784
-0.0108984
0.00228722
-0.0119426
0.00834884
0.00449463
-0.000900829
0.0142145
-0.00470541
-0.0148806
-0.00379971
0.010138
0.00509423
0.00988209
-0.00481419
-0.00832245
-0.00226684
-0.00135334
-0.013283
0.0124313
0.0011673
-0.00031566
-0.000826196
0.0166019
-0.00172088
-0.0140548
-0.0108389
0.00220892
0.00483025
-0.00174238
-0.0110037
0.003092
0.0096541
0.00992153
0.00137587
-2.52058e-05
-0.0112722
-0.0148136
-0.000125223
0.000103022
0.0148358
-0.0038053
0.00416908
-0.00676588
0.00640209
-0.0102031
0.0129041
-0.00133195
-0.00136904
0.0134051
-0.0125183
-0.0110899
-0.00992285
0.00894684
-0.00284095
0.00381696
0.00802678
-0.000361698
-0.00252478
-0.0051403
-0.0149998
0.0144666
0.00708788
-0.00655468
0.00709644
0.00270286
-0.000901137
-0.00889816
0.00257323
0.0065202
-0.00815558
-0.000937848
-0.00482625
0.00485468
-2.84283e-05
-0.0028244
-0.00721218
0.00723623
0.0108461
-0.0107522
-9.3958e-05
-0.00614335
-0.00488772
0.00480735
-0.000639907
-0.00735649
-0.000804024
0.00880042
-0.000830835
-0.00639616
0.00571766
0.00150934
0.0101112
-0.0114928
0.00138154
-0.0128748
0.0132208
0.0120904
-0.0124365
-0.00867751
0.0067024
-0.00456672
0.00654183
-0.00346193
0.0014795
0.00313427
-0.00115184
-0.000365814
0.0156694
-0.000137232
-0.0151664
-0.00790113
0.00383057
0.00389082
0.00452015
0.00575261
-0.010037
-0.000235773
0.000435816
-0.0124668
-0.000489384
-0.0113282
0.0113234
4.71491e-06
-0.00759457
0.00382385
-0.00836115
0.00258121
-0.00571235
0.000228901
0.00495706
0.00215245
0.0075097
0.000146437
-0.00642175
-0.00123439
0.0062869
-0.0156861
0.0125764
-0.00317715
0.00259777
-0.00353975
0.0131626
-0.0122207
0.0161279
0.00476086
-0.00247983
-0.0184089
-0.00411109
-0.00674014
-0.00218521
0.0130364
0.00488278
0.020347
-0.018374
-0.00685577
0.00234457
0.0147359
-0.0142254
-0.00285503
-0.00508321
0.000670612
0.0104185
-0.00600594
-0.00178079
0.0144752
-0.00781162
0.0104673
-0.00826319
-0.00322633
0.00102219
0.00342892
0.00897525
-0.0124042
0.00840932
0.00186603
-0.00112079
-0.00915456
-0.00773224
0.0061791
0.000621725
0.000931418
-0.000753089
-0.0109186
0.000635701
0.0110359
-0.00801916
-0.00101849
-0.000336352
0.009374
0.00462441
-0.0102548
0.000101762
0.00403126
0.00612175
8.81153e-05
0.00666077
-0.00674889
0.000823618
0.0116668
-0.0298163
0.0173259
0.00328429
-0.00827554
0.00786251
-0.00287126
0.00471388
0.00538108
-0.00372715
-0.00636781
4.8872e-05
-0.00597521
0.00592634
-0.00323277
-0.00229318
0.0130913
-0.00756532
-0.00399295
0.0133386
-0.0115146
0.00216888
0.014634
-0.0101679
-0.00982065
0.00535454
-0.00601571
0.00406847
0.00186331
8.39285e-05
-0.000802356
0.00459729
-0.00247057
-0.00132436
0.015704
-0.012275
0.00731288
-0.000845101
-0.0119706
0.00550285
-0.00333903
0.00312214
0.00374071
-0.00352382
0.000190307
0.015016
-9.5258e-05
-0.015111
-0.0109551
-0.00360955
0.0148518
-0.000287179
-0.00311506
-0.00132456
0.00341562
0.00442923
-0.00652028
0.00886368
0.00625768
-0.0132623
-0.00185905
-0.00272888
-0.00177711
-0.0118595
0.0163655
0.0156189
-0.0123529
-0.0217691
0.0185031
-0.00608699
-4.51404e-05
0.00613213
-0.00736659