/*--------------------------------*- C++ -*----------------------------------*\
  =========                 |
  \\      /  F ield         | OpenFOAM: The Open Source CFD Toolbox
   \\    /   O peration     | Website:  https://openfoam.org
    \\  /    A nd           | Version:  10
     \\/     M anipulation  |
\*---------------------------------------------------------------------------*/
FoamFile
{
    format      ascii;
    class       volScalarField;
    location    "8.2";
    object      SgRate;
}
// * * * * * * * * * * * * * * * * * * * * * * * * * * * * * * * * * * * * * //

dimensions      [1 -1 -3 -1 0 0 0];

internalField   nonuniform List<scalar> 
111485
(
1.53418e-17
9.54676e-06
2.86151e-05
3.04612e-18
5.89426e-05
3.40253e-19
5.52265e-05
7.22212e-06
2.29501e-05
1.43208e-06
5.57454e-05
1.12289e-05
5.7357e-06
1.04901e-06
7.83685e-06
3.64615e-05
1.68567e-06
0.00311838
1.24696e-05
1.91431e-17
8.8207e-18
3.82201e-18
3.15244e-05
4.14866e-05
1.06189e-05
1.06715e-18
4.78026e-05
2.17815e-06
1.81231e-05
1.21284e-18
5.50424e-05
2.27021e-05
6.57726e-18
8.55441e-18
8.07573e-06
3.69822e-18
1.32398e-05
4.999e-06
4.88645e-11
2.82863e-05
6.98675e-18
8.51521e-05
1.89183e-05
1.72635e-06
7.22749e-08
9.34963e-18
3.6214e-05
8.53703e-07
5.67483e-05
1.12347e-17
9.59115e-18
4.83646e-17
2.3494e-17
6.12839e-05
3.71336e-17
5.24535e-05
3.78149e-06
1.67887e-18
2.5841e-08
5.70978e-06
1.91773e-05
2.02069e-17
5.67709e-06
0.000117058
1.11203e-17
3.82087e-06
0.000379088
0.000113205
1.31585e-06
7.17386e-06
1.73808e-08
7.70088e-06
2.8336e-17
3.44316e-06
3.48217e-18
8.41121e-07
3.87655e-17
5.01283e-05
1.32723e-17
5.30723e-17
3.41612e-09
4.01848e-05
5.94646e-18
1.12089e-17
1.10285e-05
4.69862e-06
4.66048e-13
3.04253e-05
7.12918e-08
8.76897e-06
3.38912e-07
4.92912e-05
1.40861e-05
7.14996e-08
6.29961e-05
4.47688e-18
1.04568e-17
2.12324e-06
3.11405e-11
1.37687e-06
7.44044e-18
2.1722e-05
2.64751e-18
2.192e-05
5.57005e-06
7.86528e-18
8.54389e-19
9.02983e-06
4.81568e-06
7.68652e-11
6.64772e-06
5.78187e-06
4.44537e-06
3.77153e-06
2.68464e-17
4.00777e-08
1.42505e-18
8.20366e-18
1.53542e-05
1.28505e-17
6.81423e-18
4.11499e-17
3.45555e-18
3.53138e-18
1.98344e-06
3.65389e-09
2.2842e-18
1.98162e-06
7.12479e-19
3.94726e-08
1.71397e-06
3.90143e-05
1.33119e-17
4.6131e-17
2.58374e-18
5.82123e-05
1.0543e-18
5.05692e-05
3.02402e-05
3.35151e-06
2.84518e-07
2.39992e-06
2.68129e-05
3.23749e-06
4.80761e-06
1.5498e-05
8.71584e-18
1.37414e-17
1.15981e-18
3.35246e-05
1.87187e-06
4.46925e-18
2.65543e-10
5.72109e-06
5.32879e-10
1.30078e-05
1.95481e-05
1.28409e-05
8.07948e-11
5.53252e-19
5.294e-18
6.27939e-05
2.78626e-05
2.23952e-09
3.92798e-10
6.9924e-06
4.10618e-06
2.47041e-18
5.47261e-09
5.52342e-08
6.46258e-18
4.47177e-18
1.59503e-07
8.6518e-19
6.69183e-06
2.51625e-06
3.89333e-18
7.98173e-18
9.09832e-18
3.10142e-17
4.04232e-18
6.4426e-18
1.76642e-06
8.1474e-06
3.5562e-05
4.96836e-06
9.01202e-06
4.82501e-06
9.31573e-08
5.61196e-19
5.77793e-06
1.34271e-17
9.81684e-18
7.80849e-06
1.25133e-05
3.37677e-05
1.34152e-05
5.99631e-06
5.96505e-18
7.94458e-06
5.88624e-07
5.18292e-08
1.6692e-05
2.78649e-06
5.4246e-18
4.47177e-06
3.1042e-05
5.94607e-18
1.96357e-07
9.29761e-06
2.40522e-06
4.26996e-07
3.47615e-17
9.2769e-19
9.93174e-06
1.24813e-14
0.000144892
3.55561e-18
7.98523e-06
2.44608e-05
0.000144237
2.21994e-18
3.81488e-06
1.64941e-05
2.78741e-16
1.83652e-18
1.96455e-18
0.00018164
3.1969e-10
2.39718e-17
9.06377e-18
1.1643e-05
9.29654e-06
1.82434e-05
2.08106e-17
1.99344e-17
1.65761e-08
1.01193e-17
2.96871e-06
1.10539e-05
1.9196e-05
1.40441e-05
1.18772e-05
1.75197e-18
3.04875e-10
7.43325e-07
9.27909e-18
6.33508e-18
3.64873e-05
2.4797e-05
6.02658e-18
7.59466e-06
1.27687e-05
6.85701e-19
4.80669e-17
1.6323e-07
2.3775e-18
3.68807e-17
5.30945e-08
3.59849e-18
1.78898e-05
1.30443e-05
4.45163e-06
6.5947e-18
1.39608e-05
6.99975e-19
9.67232e-18
4.83913e-18
2.42781e-11
2.7584e-05
7.45731e-06
6.39708e-06
4.38319e-05
1.47466e-05
1.90167e-06
6.66056e-07
3.9022e-05
1.06318e-05
8.36166e-18
2.39512e-18
3.05531e-10
2.68881e-05
2.91593e-05
1.43626e-05
3.63327e-18
8.35191e-06
2.49073e-06
3.62369e-06
4.15975e-09
4.26451e-09
1.62157e-05
2.69241e-06
2.37164e-06
2.91482e-18
7.81627e-07
1.17441e-18
1.9386e-10
4.92142e-16
0.000288702
8.12762e-05
1.44197e-05
1.05512e-17
4.13572e-18
1.07067e-05
1.96041e-06
5.686e-18
1.59046e-17
1.09204e-16
3.69462e-07
6.9953e-05
4.69137e-06
1.642e-05
2.27622e-05
2.78817e-17
1.44657e-17
2.3388e-17
4.5586e-06
2.89468e-15
1.21568e-06
0.000221161
3.73999e-10
6.1741e-18
6.21399e-18
2.87699e-18
6.14364e-17
7.15548e-05
1.43516e-05
1.5813e-18
6.24667e-06
3.66731e-17
7.66413e-18
8.28301e-05
6.99353e-06
1.33921e-05
1.11687e-05
1.5238e-16
3.2197e-17
4.24567e-18
1.12313e-05
2.22127e-05
6.15456e-06
3.46983e-17
3.51883e-13
1.90432e-07
2.57478e-06
9.54165e-06
4.18679e-08
3.39706e-05
8.08912e-18
4.46945e-05
4.22346e-06
9.30749e-06
2.98949e-05
1.62587e-05
2.77663e-17
1.6652e-17
2.58245e-17
2.26383e-18
3.75523e-05
1.15701e-05
3.97244e-05
8.05093e-05
3.52585e-18
2.24306e-05
1.49572e-18
1.49091e-17
1.99887e-05
1.70938e-18
9.06191e-05
6.83917e-18
1.74748e-19
2.7737e-05
4.71418e-19
1.62946e-05
3.31762e-07
3.71792e-18
1.21074e-06
1.96245e-05
9.85366e-18
1.06913e-05
1.10783e-05
9.73908e-06
7.84707e-07
3.23808e-06
6.68703e-06
6.96184e-17
1.62573e-18
2.22236e-06
4.2687e-17
7.37175e-06
0.000141684
2.79946e-18
2.03276e-17
3.235e-05
1.36997e-07
9.86455e-06
2.57042e-05
6.91795e-18
5.42588e-05
2.29572e-05
1.5881e-17
9.88059e-07
2.93072e-06
6.62729e-18
2.99289e-18
1.32589e-05
6.30038e-06
9.73064e-18
1.3904e-18
4.0194e-11
9.78226e-18
1.44054e-05
1.40117e-19
1.14073e-17
2.04527e-05
2.03759e-09
1.44698e-05
3.58953e-05
1.69487e-17
1.12531e-17
1.76814e-06
2.33524e-18
1.7776e-07
1.6845e-05
0.000147081
0.00101543
1.67927e-18
3.29488e-06
6.0032e-07
2.54676e-17
4.67846e-05
3.79935e-05
6.19707e-18
8.54334e-12
1.09656e-07
1.24205e-17
2.92445e-05
2.90408e-05
1.68967e-05
1.03725e-16
7.98447e-07
2.17522e-05
2.74199e-05
9.84208e-10
2.46433e-17
7.56345e-13
1.80964e-18
1.56453e-08
3.73391e-05
4.0789e-18
1.01515e-05
1.13076e-07
1.72046e-17
3.29249e-19
2.65961e-17
1.61817e-17
4.78007e-06
1.14991e-05
7.88016e-06
2.50438e-06
3.26281e-06
2.19535e-17
2.34616e-06
5.01623e-17
4.88272e-05
1.13191e-17
5.33303e-18
8.97281e-19
4.35812e-05
7.04619e-19
7.37535e-18
2.06808e-10
2.13762e-18
9.42973e-18
1.25494e-06
5.59415e-18
1.696e-17
6.45161e-19
4.35879e-18
1.00786e-17
1.94926e-17
1.67171e-17
8.47603e-06
3.53296e-17
6.38157e-07
2.27607e-06
1.10978e-06
1.86802e-17
1.01558e-06
1.69561e-17
4.42768e-18
3.36925e-06
2.17279e-06
3.28852e-05
3.00162e-05
4.47307e-18
2.44586e-06
9.83068e-05
1.02259e-05
1.22227e-06
3.95104e-06
2.70161e-18
2.77826e-05
5.29089e-17
5.98926e-06
4.47562e-17
9.13951e-05
3.70783e-17
2.57416e-05
2.93187e-07
6.12016e-10
2.19106e-17
2.44086e-06
3.10592e-18
9.55399e-05
5.86468e-05
2.76477e-17
1.03355e-17
3.78709e-17
4.69051e-18
1.67275e-12
6.51034e-05
9.99333e-18
6.42731e-18
2.9388e-06
1.77332e-18
4.04843e-05
9.83695e-18
3.76859e-07
9.264e-19
5.87442e-07
1.29134e-09
1.20073e-06
1.56324e-05
2.22918e-17
4.96549e-07
4.30812e-17
2.4957e-18
1.81379e-05
9.97829e-17
3.6628e-08
8.61238e-18
1.92e-06
2.35376e-17
7.77507e-05
2.18956e-18
3.49898e-17
2.12619e-05
4.02547e-06
2.10601e-06
4.73726e-06
8.23606e-06
2.48538e-05
1.37115e-17
2.99666e-05
7.41857e-06
2.43648e-18
9.58671e-11
4.79747e-05
1.80942e-05
1.15139e-16
4.80798e-06
7.95825e-06
2.05631e-06
1.25964e-06
2.06624e-13
1.62678e-05
1.45992e-06
1.59165e-07
2.86795e-05
1.63659e-05
7.50778e-07
1.10989e-18
3.98888e-12
0.00077929
1.22326e-17
4.19188e-07
1.05846e-18
8.09095e-17
8.808e-06
3.41472e-06
2.63415e-10
1.83233e-08
6.66233e-17
1.97975e-05
1.32895e-05
8.30862e-18
1.70898e-13
2.33391e-06
3.43974e-18
3.55844e-18
9.37734e-18
1.66996e-18
1.5806e-05
1.22579e-17
4.28142e-18
1.05474e-05
2.33439e-06
5.97153e-17
1.27011e-05
2.32175e-17
1.01362e-05
2.69471e-18
3.55512e-17
6.36511e-05
1.51698e-17
2.95916e-17
1.95478e-16
5.25917e-06
3.74057e-17
3.48692e-05
7.48977e-06
3.82448e-18
0.000104717
2.93037e-06
3.41622e-05
3.36519e-05
5.61976e-07
9.41992e-08
1.43314e-18
6.50544e-05
5.56654e-05
2.65893e-18
3.85655e-07
4.77913e-05
9.3408e-06
1.7075e-06
3.28251e-05
3.11102e-05
2.6088e-17
1.28842e-05
6.51926e-09
1.25113e-17
4.13664e-05
3.12262e-07
4.18789e-17
1.30077e-05
4.84871e-05
1.62611e-06
2.54713e-05
2.34844e-05
8.48341e-06
8.80215e-17
1.22638e-05
3.86212e-07
4.74106e-15
2.04801e-05
2.13137e-05
4.30366e-05
5.34963e-18
2.25264e-06
1.47432e-18
1.49521e-18
5.67504e-18
3.44645e-17
1.68755e-08
7.29206e-17
3.3754e-13
2.05217e-17
5.96222e-18
9.19113e-08
5.19199e-05
1.25812e-17
3.81579e-05
1.52845e-17
6.72269e-18
3.79106e-17
4.6577e-05
4.84937e-07
7.70119e-17
7.90216e-18
2.57985e-18
1.96081e-18
0.000251225
8.27703e-05
9.02454e-17
2.35812e-06
2.54341e-09
4.41055e-17
4.4595e-05
9.97e-06
1.44741e-05
7.92281e-18
2.30644e-17
5.1167e-07
1.30072e-06
5.16258e-17
1.04668e-17
9.31041e-17
8.74405e-06
4.34147e-18
4.50017e-17
1.03532e-17
4.99331e-05
2.41168e-06
1.07341e-18
0.00464553
0.000394883
1.21179e-05
2.00471e-18
1.33221e-18
6.58663e-05
4.93609e-07
3.25872e-17
6.85983e-09
0.000139218
2.95042e-06
1.34608e-05
3.69044e-18
6.36173e-05
2.22217e-06
7.04133e-19
1.81745e-18
2.64339e-18
3.14505e-18
1.42769e-17
1.44455e-17
2.62969e-05
2.62545e-17
1.16799e-17
6.33968e-17
1.3774e-05
2.77088e-05
2.29317e-18
2.39807e-18
0.000127032
1.71569e-05
1.13676e-05
3.12155e-17
9.88329e-19
4.44754e-05
4.47833e-18
2.10499e-06
3.09934e-06
4.57549e-06
5.41884e-19
4.25636e-18
6.3049e-18
2.12407e-18
1.79516e-05
3.41456e-18
1.04286e-17
1.20503e-06
2.13604e-17
2.74646e-05
2.22307e-06
1.47676e-17
4.42851e-05
0.000439899
3.03475e-06
3.48147e-05
1.71074e-07
5.32167e-05
1.0953e-13
1.47981e-16
2.81407e-05
8.30311e-05
7.25038e-06
1.52062e-17
7.73239e-13
0.000888975
1.20623e-05
3.26742e-18
2.98208e-06
3.09097e-06
1.41961e-06
1.69686e-17
8.28086e-18
8.66324e-18
1.58226e-05
1.71446e-17
3.076e-06
1.56364e-17
1.52365e-06
1.68007e-06
4.38583e-05
6.55194e-07
4.65764e-18
7.64585e-18
9.24737e-18
2.46435e-05
6.18614e-19
4.01706e-18
8.17528e-08
5.63589e-18
6.2652e-19
7.71755e-19
6.78111e-19
1.20069e-05
4.29299e-18
1.29045e-17
5.55612e-13
3.53041e-17
3.99125e-18
9.84426e-17
6.90903e-18
3.39187e-09
1.91582e-06
3.26202e-19
4.73031e-06
7.88091e-09
3.47224e-10
7.35126e-08
4.86483e-06
7.69401e-18
1.12435e-08
1.17559e-05
4.71041e-07
6.38646e-18
4.44304e-12
1.0147e-06
5.52274e-18
1.16184e-05
2.19543e-07
1.96691e-09
2.8154e-05
1.11443e-05
2.69544e-06
5.96967e-06
2.39762e-06
9.15494e-18
2.2353e-18
3.93836e-05
3.1263e-05
5.60336e-17
9.98947e-06
6.43883e-05
3.39473e-05
3.32798e-17
1.52844e-06
1.81225e-17
1.23389e-05
1.65852e-05
4.39901e-17
1.88508e-06
5.51129e-07
1.43014e-09
5.88459e-06
2.62323e-17
5.83563e-05
1.78088e-08
1.79035e-06
3.84111e-08
1.40674e-08
4.28207e-18
1.11857e-17
8.38186e-06
1.37948e-18
1.40938e-07
3.01451e-07
3.29372e-07
6.38582e-11
8.47966e-11
3.65263e-10
9.36436e-20
1.6555e-17
2.76958e-05
4.39175e-18
1.50949e-07
2.43397e-06
6.64905e-17
1.96842e-17
7.48268e-10
1.09462e-12
1.72719e-18
5.91347e-09
5.72383e-18
3.90139e-18
2.56726e-18
1.32135e-17
7.67837e-17
1.21738e-17
3.31329e-07
5.48297e-17
2.27576e-18
4.89423e-17
7.61032e-09
6.27918e-08
2.15998e-06
1.11949e-05
6.0004e-19
2.5896e-17
2.02761e-07
1.49587e-18
3.09202e-17
1.64938e-16
2.21617e-05
5.05687e-05
2.01078e-17
3.587e-18
1.48058e-17
2.5195e-17
4.19877e-18
5.66024e-17
8.35617e-06
2.87058e-18
6.19846e-11
3.19904e-05
4.43526e-18
1.01718e-16
2.54214e-18
3.26654e-08
1.51444e-17
8.12711e-18
3.12052e-17
1.10009e-08
5.58816e-18
5.23034e-06
1.12183e-09
7.33473e-12
8.62218e-18
8.86655e-08
2.39245e-06
5.26818e-05
2.64717e-17
9.9797e-09
6.7489e-06
1.39583e-18
1.28069e-17
9.02613e-18
5.13823e-17
1.00322e-05
1.95829e-06
3.92091e-06
2.0765e-10
1.97913e-19
2.61823e-05
3.18703e-18
2.5607e-17
1.39798e-16
6.80672e-18
3.15311e-05
3.34206e-17
2.32332e-17
2.07293e-09
6.12326e-05
4.5824e-18
2.87493e-06
6.96191e-17
9.99306e-07
5.93971e-17
2.06425e-18
8.48071e-18
3.35794e-18
2.92051e-06
7.17706e-07
0.000360793
3.90623e-18
2.00269e-17
2.39326e-06
4.19688e-18
8.01576e-17
4.34704e-17
4.39078e-05
1.1177e-08
3.85055e-05
1.88912e-17
1.24282e-08
5.80357e-08
8.73561e-17
1.47526e-07
1.98468e-17
1.44375e-06
3.03232e-05
2.43841e-05
1.4524e-06
2.84006e-07
7.94048e-18
9.43315e-19
1.29648e-18
2.58471e-08
6.86517e-19
8.86435e-06
4.05862e-18
0.000210611
7.95342e-18
4.9205e-05
3.74187e-06
7.22552e-18
1.04823e-17
1.99156e-16
4.04254e-18
4.91082e-05
4.18295e-17
7.41469e-17
1.41619e-05
8.14837e-06
7.95823e-17
5.48379e-17
3.07226e-17
8.31191e-17
6.04687e-17
3.79967e-18
3.0701e-05
4.97434e-07
2.86194e-18
1.13017e-17
6.195e-10
4.70653e-18
1.89007e-06
1.29453e-07
2.44135e-17
4.16524e-06
2.75396e-18
4.5184e-07
4.39314e-18
1.31334e-06
2.00751e-17
8.9706e-11
2.54082e-09
7.56702e-07
2.15256e-05
4.0459e-05
1.40557e-09
7.92973e-18
5.93598e-07
9.44529e-18
5.46107e-06
1.25613e-17
3.69346e-18
4.40694e-17
8.6466e-18
3.04963e-18
3.8084e-17
8.54746e-06
9.65346e-06
3.12496e-18
1.11806e-17
6.22829e-18
9.03521e-07
1.60427e-08
1.76007e-17
2.17099e-05
2.16627e-07
5.71401e-18
2.78721e-05
9.79893e-06
4.29579e-06
1.38064e-05
4.40342e-18
7.08694e-18
2.09888e-18
4.03226e-18
4.40697e-05
8.1051e-18
0.000136112
1.24378e-18
3.76195e-07
8.70768e-07
8.9083e-18
1.13473e-06
2.53017e-18
7.28833e-18
3.6469e-06
2.63796e-11
1.12358e-05
1.55789e-18
1.32579e-17
1.6679e-17
9.89772e-07
1.87893e-17
8.36207e-19
1.73633e-17
3.37619e-10
1.73087e-17
8.17564e-09
1.80367e-17
1.74038e-17
1.26618e-18
2.16665e-05
1.18123e-05
2.18761e-05
4.31099e-05
7.7202e-18
1.92196e-08
2.56846e-18
2.88259e-18
1.17627e-05
4.00424e-18
2.66143e-09
4.27263e-07
7.89138e-06
4.26825e-07
1.26491e-12
2.27691e-06
5.52809e-18
1.43996e-12
5.05872e-13
1.48632e-07
9.4578e-07
1.76557e-05
7.34857e-11
2.24574e-17
3.63744e-05
4.68633e-18
2.88398e-18
1.68717e-08
8.96726e-05
6.80816e-11
1.11441e-18
5.09773e-18
3.71147e-10
3.66239e-18
4.36845e-17
2.1209e-08
3.37135e-17
6.97493e-18
4.84287e-05
2.65871e-07
2.09597e-07
2.71221e-05
8.68175e-06
5.30785e-18
2.2929e-17
2.07629e-08
4.83708e-06
2.06003e-18
1.60978e-17
1.15638e-05
2.19251e-17
2.42111e-18
5.0438e-17
2.53368e-17
2.3008e-16
0.00308486
1.49275e-17
2.57122e-07
1.6742e-18
2.51182e-05
1.14145e-17
1.38305e-15
3.14053e-17
1.047e-17
5.45528e-18
7.74964e-18
3.37408e-06
2.72765e-19
1.833e-18
1.38793e-17
5.44638e-17
8.51849e-18
1.22601e-17
1.16921e-05
7.9802e-18
1.32543e-05
3.65806e-06
1.34033e-18
1.93688e-06
2.00503e-17
5.89016e-07
2.3627e-09
4.5699e-06
1.57142e-05
3.98277e-19
1.09043e-07
9.32401e-06
1.0826e-08
2.23102e-18
3.06422e-09
2.22027e-05
5.66033e-06
4.41081e-17
3.11022e-05
5.1878e-17
6.39289e-19
4.69255e-18
1.59314e-18
9.7617e-06
2.65174e-17
4.69896e-18
9.84865e-06
3.62747e-10
3.2324e-06
1.638e-18
9.60493e-17
7.98237e-07
4.46932e-18
8.29446e-08
1.4466e-17
2.77452e-05
4.36058e-18
7.04666e-18
6.69528e-08
1.04985e-18
1.63669e-07
1.53067e-17
4.75926e-18
5.71086e-06
5.08689e-07
5.68028e-06
1.85117e-05
0.000263831
2.43076e-05
3.7969e-19
1.4062e-16
3.53726e-06
8.00965e-06
4.35427e-05
1.29284e-05
6.12176e-18
1.44618e-05
1.66278e-17
1.95092e-18
1.0826e-05
1.30424e-05
3.79446e-18
1.56607e-05
2.37166e-18
3.25981e-06
1.04188e-05
2.54816e-17
3.38505e-18
1.13437e-18
3.33267e-06
3.11782e-17
2.89522e-18
4.96858e-06
2.52448e-05
4.27636e-09
8.87175e-06
1.33766e-17
2.98058e-18
9.86597e-08
9.01539e-07
2.84772e-17
1.23733e-05
1.08616e-16
3.15583e-06
1.05616e-17
2.07853e-18
1.46749e-05
1.27215e-17
4.59991e-08
4.30769e-06
3.66491e-17
7.62442e-18
5.24963e-06
6.59216e-14
6.24331e-05
1.70102e-17
0.000308278
1.77394e-17
6.66682e-17
4.61808e-18
8.91502e-06
8.82895e-17
4.18373e-19
6.62313e-06
2.24619e-18
2.87604e-07
2.68789e-17
2.59003e-17
1.8787e-17
1.26129e-10
9.13971e-07
1.78293e-18
5.35583e-18
4.17952e-05
1.10883e-06
1.03675e-17
5.1891e-07
1.36646e-17
2.05448e-17
1.95703e-09
3.12835e-06
1.55972e-06
5.8211e-17
2.02325e-18
1.88632e-18
6.68032e-18
3.57881e-18
3.2658e-18
1.01923e-18
2.11218e-17
2.2676e-17
3.48101e-17
2.37017e-19
5.836e-18
1.49317e-17
1.3914e-18
9.62892e-19
4.74446e-19
7.01827e-18
1.38906e-17
1.564e-18
7.16553e-18
1.27275e-17
2.07968e-05
2.99531e-17
5.434e-18
5.50126e-18
7.84391e-06
4.21566e-19
2.42752e-18
0.000341242
8.95765e-18
2.01119e-18
2.74828e-05
4.00175e-15
4.87756e-18
8.98499e-06
2.90789e-05
5.243e-18
3.21256e-06
4.81113e-06
8.06431e-18
1.5721e-05
4.68321e-05
2.11609e-05
4.00147e-06
1.27211e-05
3.00308e-17
8.89666e-18
3.48128e-06
1.22974e-05
3.79707e-06
1.83002e-18
7.76631e-06
2.08024e-06
2.53208e-05
1.21339e-05
8.2361e-07
1.85136e-05
1.2472e-06
1.20128e-05
1.75387e-18
2.94482e-05
9.99465e-06
1.95413e-06
1.61821e-06
1.0225e-17
2.85494e-18
6.77407e-19
4.92596e-18
7.91802e-18
1.07431e-05
1.60959e-05
3.211e-18
3.24913e-18
1.16936e-16
1.81023e-18
3.46299e-18
3.68345e-18
9.96881e-18
8.02752e-18
5.38941e-06
2.12479e-07
2.57309e-05
7.91562e-08
2.25473e-17
7.37902e-17
3.65197e-05
8.12107e-09
2.67589e-19
2.31223e-18
8.58676e-06
3.62489e-18
1.35507e-17
3.95278e-09
9.2843e-06
1.59648e-05
3.97962e-05
4.03329e-05
1.54659e-18
1.66303e-05
3.91997e-07
1.90787e-17
6.86485e-18
1.39569e-05
7.27591e-18
6.40406e-18
1.97997e-05
0.00124032
2.05272e-07
4.2936e-17
1.06255e-17
2.10031e-05
2.38686e-05
2.0683e-05
6.78469e-06
4.87246e-06
1.60252e-18
1.24887e-09
3.1384e-12
1.59323e-17
2.20534e-17
2.03681e-05
1.07574e-17
2.35432e-06
2.96576e-05
2.06751e-05
1.36557e-05
9.69286e-18
7.13767e-06
4.87286e-19
7.15356e-18
4.04733e-18
1.81952e-18
2.88746e-06
0.00103501
6.39591e-19
1.65045e-18
3.68964e-09
2.7147e-05
1.33048e-06
8.11508e-06
3.85413e-05
5.64612e-06
2.41192e-05
1.25482e-17
1.91825e-18
2.0796e-17
3.52746e-05
6.66002e-06
3.15548e-11
3.31098e-18
3.58091e-18
6.56769e-18
2.60253e-05
3.2812e-06
6.63396e-18
5.7329e-06
6.80625e-05
7.84244e-06
7.18308e-06
1.61156e-17
4.45546e-17
8.10115e-06
2.63921e-05
3.83283e-18
3.94267e-07
1.71169e-05
1.17086e-06
1.06726e-05
5.43372e-06
9.41349e-06
7.1458e-17
3.88475e-06
2.40829e-05
4.24781e-05
5.34343e-13
2.65362e-05
1.90273e-16
1.90926e-05
1.8578e-07
1.13932e-18
3.00023e-06
8.78613e-06
4.42435e-07
1.33014e-05
2.44532e-10
1.51665e-07
1.71795e-08
4.74255e-05
4.23766e-06
4.66985e-18
4.47843e-05
1.50526e-06
5.94343e-18
2.56103e-18
4.77742e-11
1.1824e-08
1.1986e-06
0.00127918
4.05423e-05
1.39405e-05
2.42778e-10
5.16302e-05
3.80129e-18
3.25565e-18
4.55052e-06
4.92169e-17
2.46167e-06
4.91686e-06
2.52303e-06
5.33783e-06
4.39688e-19
2.36576e-07
0.000124955
2.81777e-18
2.29207e-05
8.64466e-06
2.37643e-18
4.64851e-06
1.54627e-07
7.7204e-18
8.34749e-12
1.06467e-07
4.38648e-18
1.59567e-17
5.06644e-18
5.05942e-06
5.57021e-06
1.63364e-05
1.23746e-18
5.73162e-06
3.8046e-05
1.23982e-18
9.21663e-06
1.42451e-05
2.79136e-05
1.77066e-06
2.53992e-18
6.7309e-07
1.08182e-05
1.19922e-05
1.03732e-05
4.29484e-05
0.000188889
3.8725e-06
6.92206e-18
8.65567e-09
5.7824e-05
4.34996e-18
4.8931e-07
2.2607e-17
7.17607e-19
5.10737e-18
5.33479e-18
1.12419e-18
3.68826e-06
1.57139e-17
8.23386e-06
1.32671e-06
9.24581e-18
4.35691e-06
6.23725e-17
1.60966e-05
3.99314e-18
2.49938e-08
6.25808e-17
2.51324e-05
1.79828e-07
2.81937e-09
4.81988e-06
3.28203e-05
1.91931e-05
4.42327e-06
3.09283e-05
7.75364e-15
2.58449e-05
6.17232e-05
1.07682e-05
9.6798e-18
1.2695e-06
2.99645e-07
6.39008e-06
1.17764e-05
6.9228e-07
5.46631e-18
2.2074e-17
3.53166e-18
4.09811e-06
1.30451e-17
3.21357e-07
2.50859e-07
1.7932e-06
3.21568e-07
5.56312e-18
2.30396e-17
4.54756e-18
9.94051e-06
2.45759e-05
1.38622e-06
1.08366e-08
2.14657e-06
7.82001e-06
2.23556e-06
9.05802e-07
7.64499e-06
6.82082e-06
2.99842e-06
5.95905e-17
8.11687e-18
6.47403e-18
1.50025e-05
1.22048e-05
4.04468e-17
9.86401e-18
1.07206e-16
9.45884e-06
2.12785e-05
7.79785e-18
2.46698e-06
1.25558e-17
7.0325e-10
5.33922e-06
0.00010092
4.25558e-18
6.48015e-19
4.10775e-06
1.66099e-18
6.75943e-08
1.33777e-05
7.53834e-18
1.22207e-05
3.70946e-05
2.09599e-05
9.87638e-18
1.51951e-06
4.05339e-17
9.67395e-08
5.54115e-05
2.40564e-17
1.08267e-18
1.22744e-05
3.20394e-16
1.63229e-17
5.01035e-08
1.09388e-06
4.89427e-18
3.99366e-19
2.97191e-17
6.91473e-08
1.37173e-06
3.4998e-06
2.90931e-05
1.0379e-05
3.77321e-18
8.00237e-10
7.42423e-07
2.65275e-18
6.88085e-19
3.16964e-18
6.1453e-18
3.07536e-18
5.07857e-17
4.31417e-17
5.81402e-18
2.39031e-18
4.19317e-17
2.68858e-12
1.92561e-17
3.85928e-07
2.36044e-17
2.63468e-07
4.84183e-17
6.85142e-08
7.00893e-18
1.11033e-17
3.20761e-05
1.02244e-05
4.01542e-17
0.000100781
1.22052e-11
3.79128e-13
5.75032e-18
1.4838e-06
8.05652e-15
3.07092e-06
7.30699e-09
9.65139e-07
8.29635e-18
6.52903e-18
1.02463e-06
2.76543e-11
7.62907e-19
7.83307e-19
4.38222e-05
3.40853e-18
4.159e-05
1.51466e-17
7.84718e-19
1.97348e-09
3.16698e-05
9.04072e-06
1.31382e-17
3.608e-07
4.70299e-17
3.57525e-06
2.04718e-08
2.03564e-06
1.06444e-06
5.39628e-18
2.2923e-05
1.33288e-06
5.82688e-06
4.91367e-19
2.29276e-18
8.55011e-18
2.13341e-05
4.45128e-06
5.84101e-05
6.47693e-18
5.17998e-10
2.76944e-19
3.42357e-18
9.78336e-18
1.61492e-17
3.67625e-06
2.48536e-06
3.35812e-06
0.000359166
1.46141e-17
3.07575e-05
4.01499e-05
1.95969e-05
1.9468e-06
3.75159e-18
5.91066e-06
5.10324e-06
6.94736e-06
3.82655e-10
1.14041e-05
2.47893e-17
1.71663e-06
1.41732e-06
3.67157e-05
1.30953e-09
3.74836e-06
1.80166e-17
2.11416e-05
7.18524e-18
2.53908e-17
1.85315e-06
7.9502e-19
6.92456e-06
1.03911e-17
1.43879e-17
3.43374e-17
7.75279e-19
8.36058e-18
9.05001e-07
1.69705e-17
6.1732e-07
1.21048e-17
1.03133e-17
2.01282e-05
6.12225e-06
8.898e-06
8.39223e-06
7.02155e-19
0.000664308
8.07871e-19
7.84463e-05
1.43674e-17
1.998e-05
2.67582e-05
2.67538e-06
6.3857e-05
2.00359e-17
1.88354e-16
2.15095e-18
2.43934e-06
5.71211e-18
1.62802e-18
1.98665e-05
4.19758e-17
7.92515e-18
6.04632e-06
1.93482e-18
1.43346e-05
7.44512e-11
1.46209e-18
3.49073e-19
5.53625e-18
1.81896e-06
7.62824e-06
5.59527e-18
2.56339e-05
3.85338e-07
3.9237e-17
0.000116717
1.51264e-17
1.7722e-05
2.02863e-05
3.99586e-06
2.09448e-17
2.00637e-05
1.09405e-05
9.61162e-07
6.0274e-06
1.42206e-05
9.36072e-18
1.07968e-17
2.0237e-09
1.18476e-17
6.60298e-18
2.59523e-18
2.20425e-05
5.07774e-05
5.00216e-06
2.45624e-06
3.64933e-18
5.65733e-05
5.17939e-05
4.78254e-06
2.74721e-06
1.05425e-05
2.36659e-05
3.04439e-06
6.38204e-19
3.64918e-17
3.43257e-17
7.86916e-06
2.77491e-17
2.79406e-05
6.26209e-17
8.43823e-07
6.32895e-10
2.9125e-06
2.50596e-05
5.20749e-17
2.43417e-18
2.81224e-06
4.13978e-07
1.82664e-18
5.87262e-18
1.71462e-18
3.84598e-08
3.62301e-07
1.66372e-07
9.38782e-07
1.14355e-05
9.82252e-05
2.12134e-17
4.10558e-17
4.85243e-17
4.24159e-06
2.02123e-05
2.26827e-05
3.98274e-05
2.00078e-06
3.34889e-06
3.43968e-18
2.06802e-17
1.26054e-16
1.02476e-17
1.07268e-05
2.55193e-05
2.21595e-17
1.6127e-17
3.09971e-17
1.21121e-18
3.53506e-18
2.47366e-17
1.56597e-05
5.08304e-17
1.11079e-06
0.000462093
1.13594e-17
1.59734e-08
2.60346e-05
8.69378e-07
2.18491e-18
7.85305e-18
5.60459e-06
1.06561e-17
1.61801e-05
1.18944e-09
2.77174e-05
4.01623e-18
2.78097e-15
6.87311e-18
2.53359e-18
4.03554e-18
1.02145e-17
0.000224038
1.31239e-18
6.76963e-06
1.37029e-06
1.42928e-17
4.75117e-17
2.21072e-06
4.39134e-18
4.84653e-18
1.30434e-05
1.46411e-07
5.18411e-18
2.65967e-17
2.5565e-18
1.91749e-05
1.51167e-17
5.32461e-18
4.70352e-07
2.99691e-06
3.51253e-06
1.44555e-18
8.12011e-18
1.67215e-17
4.36237e-06
2.11641e-06
1.49031e-05
4.2604e-06
1.38125e-17
9.17936e-07
1.36019e-05
7.38687e-06
2.23241e-18
3.61393e-19
7.26208e-18
6.70747e-19
6.77767e-18
3.56734e-05
6.01038e-06
6.31041e-06
5.65647e-18
1.17896e-17
1.57093e-17
4.59733e-18
2.05157e-18
1.11507e-09
2.7885e-07
2.58264e-06
4.17944e-19
5.61596e-18
4.37317e-18
2.76033e-12
3.97029e-05
0.00013052
3.24431e-18
8.68824e-13
2.20674e-14
3.64825e-18
4.24445e-18
4.40293e-06
7.56665e-06
7.69504e-18
7.13576e-17
3.31619e-06
2.93951e-17
8.08203e-07
1.26352e-06
0.00240886
3.00094e-18
8.68463e-18
1.39533e-05
6.07924e-07
1.09719e-17
0.000763306
6.8482e-07
7.29892e-06
1.37191e-17
4.01946e-18
6.48586e-18
3.48303e-18
9.25076e-06
1.0605e-07
9.27755e-18
2.90354e-05
2.19668e-05
0.000995096
1.13811e-17
7.02572e-19
3.48489e-18
1.59888e-18
7.51199e-06
7.78201e-11
9.46919e-18
2.8841e-17
2.15414e-05
1.07825e-06
5.58466e-06
1.01925e-17
8.01401e-19
3.30214e-05
6.41136e-18
9.75866e-18
3.45947e-18
3.35031e-18
2.49826e-05
1.50276e-18
2.51429e-18
2.40491e-17
2.89312e-05
1.39169e-05
1.20784e-17
8.37686e-19
2.80017e-18
1.75149e-05
2.07072e-10
6.55109e-18
1.66563e-18
1.04574e-17
2.28818e-17
2.74693e-06
1.25669e-05
1.2989e-18
2.33612e-06
1.27272e-06
5.47094e-06
4.66542e-17
3.39577e-17
1.60078e-17
5.45927e-18
8.55923e-19
2.25313e-05
3.61951e-17
1.66327e-05
1.20238e-19
1.7503e-06
8.21961e-17
2.72131e-06
1.96749e-17
1.05755e-18
1.2368e-05
0.000190928
6.65366e-17
4.09294e-06
1.24312e-17
4.44061e-07
7.09684e-17
5.14422e-18
2.02847e-17
1.67053e-10
2.36344e-17
3.55193e-07
2.31608e-17
4.02802e-05
3.42684e-17
3.31613e-17
1.44103e-18
6.65194e-18
8.93123e-09
1.52668e-07
6.84098e-18
6.39208e-06
1.62208e-18
3.18813e-06
2.1361e-05
1.43772e-06
1.61536e-18
5.28523e-09
4.98742e-07
2.44984e-09
4.86111e-06
3.75988e-10
1.90107e-06
2.90031e-17
1.22756e-17
4.98394e-10
6.50372e-06
2.69825e-07
2.97226e-17
3.74748e-18
1.51427e-18
0.000656154
3.03177e-18
2.13539e-18
2.58255e-18
9.29285e-19
8.18097e-19
3.38132e-08
2.01656e-07
1.16613e-06
7.75006e-08
8.71212e-16
1.6668e-06
2.16955e-18
6.35652e-06
3.96235e-17
3.61888e-18
9.67338e-18
9.95571e-19
2.16158e-08
7.10449e-18
4.74757e-18
4.44169e-18
1.6501e-05
1.58515e-18
1.01218e-17
1.25327e-05
1.83286e-17
8.15314e-05
0.000141563
0.000640153
9.85686e-18
0.000228994
0.00132157
0.00134733
0.000742165
3.18168e-17
1.66305e-18
5.48127e-06
5.26123e-06
6.71645e-18
1.05242e-05
3.72392e-18
3.62365e-05
2.33311e-17
6.49325e-18
7.9471e-07
1.81336e-17
1.46987e-17
1.15357e-08
4.51948e-08
1.26005e-18
3.42909e-18
3.1044e-09
4.0377e-17
4.6836e-17
2.26048e-08
9.36001e-06
1.69649e-06
7.58078e-18
8.74216e-06
3.82048e-18
3.99079e-06
4.46655e-10
8.19327e-06
5.5502e-18
1.81936e-11
6.32898e-06
2.21148e-17
1.76304e-12
3.69332e-19
3.61738e-05
4.1626e-18
1.09035e-05
8.99343e-20
2.49215e-10
5.16709e-18
1.34469e-17
5.52535e-18
9.15701e-13
5.50405e-13
2.36353e-18
1.36586e-05
1.02208e-05
7.83584e-18
6.22519e-18
3.67161e-05
1.93802e-05
0.000205968
2.62289e-18
7.55679e-08
2.79069e-05
5.14005e-05
6.78469e-11
1.98976e-18
6.40959e-05
2.36861e-17
0.000254434
2.12605e-18
4.10791e-11
4.00773e-11
1.59268e-18
5.69888e-08
8.5094e-17
2.40343e-05
8.50428e-18
1.44317e-17
1.94275e-18
4.46315e-17
2.54921e-17
3.12877e-17
3.41616e-07
2.12149e-06
0.000150646
1.85688e-17
9.81708e-18
4.57203e-05
1.46438e-17
7.4762e-20
2.33826e-18
3.79048e-18
2.8808e-17
6.51353e-06
1.10178e-17
5.6262e-19
5.27262e-18
3.64381e-06
2.81958e-17
5.24641e-18
1.32125e-17
3.57082e-06
4.10668e-18
6.79213e-06
0.000257413
5.76146e-06
5.90793e-06
2.95166e-05
1.10033e-17
5.764e-18
1.11538e-17
3.35476e-06
1.94345e-06
7.0552e-19
1.09678e-16
6.53732e-07
7.87858e-18
4.29071e-18
0.000371458
3.73821e-18
2.44191e-05
5.5243e-18
2.59695e-06
3.69774e-06
9.56159e-18
1.78504e-17
1.02596e-17
9.98505e-19
6.60117e-18
2.07714e-05
9.92772e-18
5.10734e-06
4.4905e-18
3.43986e-18
7.47196e-06
1.21671e-17
1.41379e-05
1.40805e-17
1.84595e-18
2.67692e-06
8.57744e-08
0.000155332
1.26645e-17
3.18406e-18
6.35494e-18
4.0482e-06
0.000198605
1.27382e-17
1.03544e-17
3.15234e-17
1.68543e-06
1.33131e-17
2.17723e-05
3.42686e-05
3.08359e-17
5.22655e-19
7.94686e-06
4.38388e-17
3.09089e-17
1.06975e-18
1.94954e-17
4.92585e-18
7.54617e-05
1.28016e-16
2.01977e-17
2.07019e-20
1.16538e-17
4.66568e-18
7.82051e-18
8.83302e-18
3.7982e-18
7.89783e-17
8.58794e-06
2.95544e-17
9.15753e-06
7.4652e-17
1.48517e-17
0.000639795
2.93417e-06
1.47345e-17
8.41537e-18
5.58656e-19
2.62053e-06
2.64373e-19
1.11938e-17
2.29346e-17
1.33031e-17
7.8423e-06
2.74231e-18
5.26937e-06
4.12239e-19
1.0591e-05
2.8286e-18
6.26443e-05
4.86283e-18
8.77586e-18
2.32861e-05
7.26619e-18
6.40483e-18
2.947e-05
3.00957e-07
1.42759e-18
1.88547e-17
4.04142e-05
1.10929e-05
6.96997e-06
9.13481e-07
1.97142e-06
1.88619e-05
1.06209e-06
5.39395e-06
3.85895e-17
3.136e-05
9.12237e-18
7.7199e-18
2.07483e-18
4.58972e-17
9.81856e-19
1.12393e-05
2.39137e-17
2.46939e-18
1.62474e-18
3.1248e-09
1.01036e-08
7.27137e-17
2.53106e-06
1.82102e-17
4.70131e-06
4.37227e-19
1.34622e-09
3.95207e-06
3.24097e-16
4.97524e-05
9.92692e-18
1.10268e-18
2.38952e-17
3.20435e-06
1.43633e-06
1.65891e-18
8.01839e-19
2.72624e-06
1.61671e-18
0.000725966
5.52071e-18
0.000112746
5.201e-18
2.77546e-17
7.46689e-18
5.98681e-18
1.08343e-05
8.42061e-18
4.34691e-08
1.34881e-17
1.06786e-05
3.25195e-18
3.81388e-19
6.61505e-15
2.03662e-16
4.86569e-19
4.54535e-17
4.47354e-17
1.56967e-17
4.71724e-06
0.0002109
4.11338e-17
1.7587e-18
4.00442e-07
5.13932e-17
3.0612e-18
1.2353e-09
1.88597e-05
1.62214e-07
7.71948e-18
7.54558e-07
3.64238e-06
5.67385e-06
9.1942e-06
5.3382e-17
2.29868e-18
5.94547e-18
6.822e-18
2.18673e-18
1.24042e-17
1.3484e-17
1.27509e-17
1.04873e-17
3.11481e-17
7.9583e-18
2.98002e-18
8.27523e-05
1.80084e-18
3.10403e-18
1.69122e-13
1.03146e-17
3.09951e-18
0.00121547
2.44158e-18
1.27839e-18
2.15114e-06
1.85731e-12
2.04767e-18
1.74121e-18
1.93371e-18
2.4948e-05
8.07873e-18
7.02193e-17
5.60653e-11
1.69292e-18
1.23361e-17
7.63241e-18
1.26057e-17
0.0001264
2.17685e-18
1.88748e-07
1.94704e-18
3.98551e-18
4.4936e-19
5.72372e-18
1.54452e-18
2.13841e-11
4.26974e-11
1.24645e-07
4.57436e-18
2.96753e-18
1.13443e-17
1.08326e-10
2.76869e-18
3.36295e-10
1.23987e-11
2.24105e-17
6.00489e-18
6.48816e-18
5.2099e-12
1.43416e-17
1.55064e-17
2.55116e-12
3.53603e-17
3.49697e-05
4.67188e-18
7.74499e-06
4.2175e-17
2.54325e-09
6.3553e-18
1.64071e-06
1.85442e-17
4.70875e-06
2.84897e-05
2.23712e-18
2.86837e-06
1.57304e-08
6.16957e-18
1.19325e-05
3.70243e-18
2.15445e-18
2.79698e-17
3.21231e-18
2.88124e-17
5.72563e-18
7.07894e-18
4.78305e-18
0.000318991
4.35554e-18
9.78205e-18
1.5484e-17
1.06145e-17
4.84311e-18
3.56065e-05
0.000920971
3.47193e-09
1.29794e-08
5.95724e-19
2.31968e-06
1.58605e-06
2.65831e-17
5.05476e-17
3.85293e-17
2.8601e-18
1.13587e-18
2.04686e-17
1.32015e-17
1.14535e-17
4.5244e-07
5.35884e-17
6.69531e-18
2.40489e-07
3.94733e-09
1.98985e-17
2.94789e-05
6.00799e-18
9.09608e-18
1.35804e-17
0.000198278
2.5046e-17
1.77113e-18
2.90798e-05
1.27216e-18
2.42491e-17
8.65037e-18
1.29591e-17
6.24731e-05
1.54963e-18
8.6949e-18
1.116e-18
1.5701e-18