/*--------------------------------*- C++ -*----------------------------------*\
  =========                 |
  \\      /  F ield         | OpenFOAM: The Open Source CFD Toolbox
   \\    /   O peration     | Website:  https://openfoam.org
    \\  /    A nd           | Version:  10
     \\/     M anipulation  |
\*---------------------------------------------------------------------------*/
FoamFile
{
    format      ascii;
    class       volVectorField;
    location    "8.2";
    object      U;
}
// * * * * * * * * * * * * * * * * * * * * * * * * * * * * * * * * * * * * * //

dimensions      [0 1 -1 0 0 0 0];

internalField   nonuniform List<vector> 
111485
(
(2.90643 -2.9072 0.00359849)
(8.49368 -0.0223131 -0.0490088)
(8.36884 0.0200739 0.0260458)
(2.9071 -2.90786 0.000240847)
(8.69473 0.0382775 -0.00331583)
(3.04837 3.04672 0.000212392)
(8.54608 0.0250958 0.00203565)
(8.77836 -0.0248161 0.0120394)
(8.54994 -0.00497021 0.00620514)
(8.74993 -0.0949701 -0.0408357)
(8.41893 0.0206509 0.0250085)
(8.80829 -0.0213376 0.0410149)
(8.2964 0.00705756 0.0186687)
(8.37923 -0.0174819 -0.0609067)
(8.49397 0.033589 0.0179324)
(8.67366 -0.0584361 -0.0472752)
(8.5378 -0.0093547 0.012722)
(2.99777 -0.221272 0.445802)
(8.71776 0.0250712 -0.0193046)
(2.88633 -2.88243 -0.00146002)
(2.89154 -2.89108 -0.00337325)
(3.05595 3.05497 -0.00024917)
(8.62231 0.0296739 -0.00910343)
(8.7571 -0.0593182 -0.0169577)
(8.57872 0.0331416 -0.00996231)
(2.93004 -2.91668 -0.00283674)
(8.8491 -0.0435071 0.0457778)
(8.37418 -0.0128011 0.00321343)
(8.74351 0.0152702 -0.0198612)
(2.89671 -2.89774 -7.18142e-06)
(8.81188 0.143148 -0.0379078)
(8.70527 -0.0192697 0.002493)
(2.88441 -2.89066 0.00427142)
(3.05231 3.05858 -0.00750111)
(3.06091 1.27928 0.488189)
(3.07137 3.0919 -0.0449006)
(8.76888 0.144116 -0.0586149)
(8.48392 0.0311018 0.0743352)
(8.73418 2.64659 0.147734)
(8.70824 0.042315 0.0033694)
(3.01485 3.04224 -0.0212646)
(8.80428 0.0101714 -0.0507574)
(8.69897 0.0440537 0.0151296)
(8.39162 -0.0508888 0.00138899)
(8.7749 -0.153999 -0.0794161)
(2.91455 -2.89303 0.0152438)
(8.80366 -0.0406437 0.0416757)
(8.74451 -0.0548779 -0.0161965)
(8.80483 0.00407541 -0.0381952)
(2.89021 -2.85573 0.0159097)
(2.87528 -2.84745 0.0187161)
(3.4702 2.9198 0.0504389)
(2.86549 -2.85455 0.00948258)
(8.79011 0.0397369 -0.0739499)
(2.85826 -2.84714 0.00101136)
(8.68948 0.0231969 -0.00788511)
(8.69181 -0.0370436 -0.0176605)
(3.0559 3.05 0.00174066)
(7.92739 -0.0178601 -0.139666)
(8.73257 0.0356318 -0.00518703)
(8.73107 0.039593 -0.00369902)
(2.89751 -2.9032 0.00371552)
(8.0954 0.00876727 0.0534568)
(8.83412 -0.0223898 0.0687037)
(3.15086 2.85618 0.00469156)
(7.96608 0.0182571 -0.0153909)
(6.12568 -0.487844 0.215238)
(8.76109 -0.0337591 0.0126338)
(7.90008 0.00351644 0.023401)
(7.47262 -0.0147749 0.00385377)
(8.4509 0.0510548 -0.0426003)
(7.83816 -0.00869887 0.0236102)
(3.13819 -2.82522 -0.0653208)
(8.00765 0.0150776 0.062672)
(2.90371 -2.90269 -5.02448e-05)
(8.71739 -0.020346 0.00961299)
(3.05508 3.05512 -0.000569715)
(8.79463 -0.0188809 0.0467264)
(3.05418 3.05235 -0.000415754)
(2.75074 2.68401 -0.0912177)
(8.47593 -0.130936 0.0889911)
(8.75269 0.0346655 0.00704371)
(3.04379 3.03655 -0.000191887)
(2.90416 -2.90429 0.00163127)
(8.24345 -0.00166025 0.0157765)
(7.90094 0.0217236 -0.0325131)
(6.78727 4.4066 -1.18258)
(8.67306 0.10238 0.00932329)
(8.35612 0.215293 0.184268)
(8.46117 0.0108418 0.025445)
(8.94972 0.179178 -0.114064)
(8.70346 -0.0150655 0.0139577)
(8.14092 -0.0131998 0.032073)
(8.2765 -0.0098021 0.00881399)
(8.81479 0.0267102 -0.0552681)
(2.90406 -2.90368 -0.00068531)
(2.89916 -2.89805 0.00154733)
(8.66974 0.0955849 0.0297978)
(8.9323 -1.76089 0.125815)
(8.12151 0.0299373 0.0532679)
(2.90394 -2.90445 0.00146618)
(8.71906 -0.0473709 0.00475665)
(3.06824 3.07337 0.016832)
(8.64738 0.000645245 -0.00484545)
(8.57124 -0.0443541 -0.0550097)
(2.99733 2.68153 -0.0631613)
(3.05491 3.05384 -0.00056549)
(8.71243 -0.0236948 -0.00232305)
(8.0498 -0.0443075 0.0101291)
(7.7154 -0.229575 -0.244521)
(8.23929 -0.00661696 0.01506)
(8.65589 0.0123423 -0.004782)
(8.07312 -0.00499216 0.0328258)
(7.94787 -0.0416974 0.0178285)
(2.93207 -2.91622 0.00223619)
(7.64382 -0.00714134 0.0231614)
(2.91545 -2.90628 -0.00341932)
(3.06864 3.0556 0.0126797)
(8.50731 0.0332234 0.0248275)
(2.90628 -2.90425 0.00103997)
(2.93126 -2.91538 -0.00157023)
(4.01652 3.16103 0.18765)
(3.02306 3.03573 -0.00575436)
(3.06142 3.05411 -0.00725949)
(8.31522 -0.0208704 0.0405746)
(2.31387 -1.62911 -0.434543)
(3.82949 3.29439 0.116143)
(7.71948 -0.00210012 0.03769)
(2.90373 -2.90256 -0.0010237)
(8.75572 0.659125 -0.237727)
(8.7409 0.169397 -0.0869543)
(8.65391 0.0981393 0.0292665)
(2.89094 -2.88367 -0.0142546)
(3.9336 3.42116 0.352763)
(3.67079 3.27593 0.154605)
(8.74038 0.0262527 -0.0161631)
(3.05722 3.05695 -0.000920819)
(8.67511 0.0207579 0.00125622)
(8.61873 0.0399601 0.0235315)
(8.47243 0.0383692 0.0363964)
(6.64001 0.000730836 0.0275859)
(8.68776 0.0450024 0.010599)
(8.61414 0.0444587 0.0281696)
(8.21102 0.00863868 -0.0341716)
(8.58325 -0.0164112 0.00846191)
(8.488 -0.00442314 0.0212911)
(3.05789 3.05816 -0.000630728)
(2.90402 -2.9053 0.000278791)
(3.04939 3.05107 0.00636412)
(8.69209 0.0385384 0.00685478)
(8.2152 0.0146995 -0.030897)
(2.89353 -2.89206 0.00182019)
(5.67473 -0.0332908 0.0573029)
(8.47496 0.0409711 0.0196497)
(9.28334 0.374515 0.163413)
(8.73914 0.0259315 -0.0169328)
(8.69951 0.0268843 -0.00665443)
(8.06173 0.00266966 -0.0157845)
(9.36933 0.458448 0.113139)
(2.88791 -2.91515 0.0112489)
(2.90211 -2.90477 0.00282489)
(8.72435 0.0249506 -0.0167457)
(8.54679 -0.0305247 -0.0314745)
(9.43143 0.516654 0.123014)
(9.30242 0.452407 0.16919)
(8.08978 0.012136 0.0414432)
(8.70503 0.10847 -0.0394216)
(3.01696 3.04218 0.000508969)
(9.543 0.639367 0.15168)
(9.10324 0.46048 0.140322)
(3.05286 3.05472 0.000884203)
(2.89867 -2.89805 0.000237226)
(6.94277 0.00781843 -0.0556613)
(3.05615 3.05751 0.00035798)
(8.65971 -0.0187969 -0.00362351)
(8.33286 0.00447744 -0.0192304)
(3.05535 2.98221 -0.0167596)
(3.14131 -2.88209 0.0310705)
(2.89787 -2.88314 -0.00476735)
(3.01137 2.84419 -0.0294582)
(3.15672 -2.90633 0.0506865)
(2.90172 -2.90359 0.00266319)
(8.6708 0.0336116 0.00907363)
(8.68614 0.0206898 -0.0163742)
(8.65499 0.0266813 -0.00896533)
(8.54459 -0.0252949 0.0305363)
(8.23524 -0.0203947 0.00666494)
(8.2642 0.0143478 0.0262937)
(7.33029 0.0952654 0.0100121)
(2.89858 -2.88876 -0.000289735)
(8.00331 0.00119938 0.0101884)
(3.13316 -2.90598 0.031787)
(2.92519 -2.93027 -0.0014835)
(8.33321 0.0163276 0.029988)
(8.75405 -0.105805 -0.0390644)
(8.67044 0.016721 -0.0400253)
(8.32471 -0.00963897 0.0109339)
(8.47709 -0.00602473 0.00969433)
(2.89856 -2.89381 0.00718254)
(8.31428 -0.0375159 0.00644508)
(8.29094 -0.00869118 -0.0521306)
(5.8078 1.85695 0.239111)
(8.49869 -0.0688634 0.00542384)
(8.61941 -0.0143015 0.0078928)
(2.91248 -2.89612 -0.00468739)
(8.29743 0.0213573 0.0300705)
(8.71039 0.020571 -0.00726011)
(3.18713 -2.87197 0.0145551)
(8.35842 0.0209403 0.0316981)
(8.77401 -0.00687439 0.0451098)
(8.21076 0.00922902 -0.035538)
(8.27328 0.0228615 0.0391887)
(3.15365 -2.91546 0.0413074)
(2.89703 -2.89724 -0.000806363)
(8.271 0.0241345 0.0418214)
(5.42855 3.41037 -0.336175)
(8.87423 0.0389292 -0.086797)
(3.05464 3.05563 -0.00183706)
(8.32266 0.0171387 0.0337147)
(8.32903 0.00608424 0.00490349)
(8.82483 -0.0282579 0.0550888)
(2.90613 -2.9048 0.00114289)
(7.77052 -0.00259616 0.0208086)
(8.71926 0.125657 0.0656032)
(4.79849 3.22561 -0.351651)
(3.05622 3.05674 -0.00224134)
(3.05295 3.05459 0.000839947)
(8.91581 -0.0571012 0.0848783)
(8.32486 0.198018 -0.0234489)
(3.21027 2.71242 -0.0623636)
(3.60347 -2.79009 0.114168)
(8.35413 0.00819671 0.0150352)
(8.62672 0.01502 -0.00095199)
(8.71186 0.0192747 0.00814079)
(3.16454 2.75553 -0.0809332)
(3.06549 -2.82005 -0.0101472)
(8.38903 0.100171 -0.119382)
(2.90336 -2.90319 0.00174035)
(7.95458 0.0103729 -0.0507442)
(8.26089 0.00551145 0.0345003)
(8.35072 0.00413269 0.0185162)
(8.36156 0.0171118 0.0215857)
(8.39528 0.00950651 0.0288666)
(3.04461 3.04523 0.00944625)
(6.32162 -0.0182432 -0.243722)
(8.49558 0.0185661 0.0330956)
(3.0399 3.04512 -0.00370613)
(3.05486 3.05673 0.000382023)
(8.85393 -0.107361 -0.0103295)
(8.65207 0.0391221 -0.0130192)
(3.12776 2.66576 -0.0832166)
(7.87745 -0.00317398 0.0240059)
(8.47887 0.0242478 0.0223371)
(2.90567 -2.90425 -0.000887453)
(3.85705 3.63979 -0.0227272)
(8.71153 0.0800444 -0.0350624)
(2.91689 -2.87886 0.00160232)
(3.22787 -2.28836 -0.0545228)
(4.43986 -1.54802 -0.156918)
(2.90886 -2.90048 -0.00148565)
(8.52831 -0.0153533 -0.0165351)
(8.29078 -0.013382 -0.0163315)
(8.63444 0.0135991 -0.0215652)
(2.90206 -2.90251 -0.000221198)
(8.54647 0.0240192 0.0201352)
(2.90707 -2.90783 0.000197527)
(2.9063 -2.90731 0.000703841)
(2.89845 -2.88716 0.00478208)
(5.83214 0.0224262 -0.0906292)
(8.77751 -0.0425906 0.0496045)
(8.35448 0.0310356 0.0432742)
(8.51365 0.0284743 0.0136827)
(8.80946 -0.0509977 -0.00196963)
(8.47379 0.0128156 0.014641)
(8.68592 0.0315564 0.0109842)
(8.74908 0.149086 -0.0142785)
(8.56246 0.00962476 -0.00432389)
(8.63642 0.0150959 -0.00431112)
(3.10759 3.05809 -0.00188295)
(2.89468 -2.89484 -0.00378625)
(5.32929 0.035082 -0.130972)
(8.68504 -0.0196179 0.00232524)
(8.75476 0.0666288 0.0711694)
(8.26597 -0.0107522 -0.0135548)
(2.90671 -2.90501 0.00078025)
(8.63982 0.0274864 0.0159964)
(8.67588 0.0443358 0.0213567)
(8.50059 0.0196046 0.0108623)
(7.47327 -0.00779115 -0.0402793)
(7.83505 -0.0901821 -0.196035)
(8.62615 0.0269728 0.0100257)
(8.48967 0.0240405 0.0152268)
(8.64479 0.0668472 -0.0423146)
(3.05524 3.05551 0.000418258)
(7.93107 0.0443286 -0.00277563)
(3.05417 3.05452 -0.000943784)
(2.47963 1.88902 -0.394726)
(3.27523 -2.09335 -0.2139)
(8.9859 -0.083432 0.115166)
(8.812 -0.0510484 -0.0016811)
(8.60299 -0.00349567 0.00175461)
(2.90867 -2.90112 -0.000905471)
(3.04195 3.05978 0.0251817)
(8.62958 0.029729 0.0145324)
(8.26106 0.0182296 -0.0115793)
(2.8952 -2.89447 0.000804338)
(2.90679 -2.90464 0.00239585)
(2.83627 -2.85064 0.0231248)
(8.19621 0.0113154 -0.00449567)
(8.59748 0.00942129 -0.00897507)
(8.20458 0.00219618 0.0308459)
(7.93827 0.0136983 -0.0423946)
(8.7646 0.0199756 -0.0207517)
(3.49835 3.00339 0.0835833)
(3.0487 3.05602 0.00554585)
(2.90346 -2.89985 -0.0013458)
(8.5956 0.0320827 0.0224542)
(5.56926 -4.72028 -0.335226)
(8.18764 -0.00977596 0.0121692)
(8.92104 -0.0625168 0.196709)
(7.18361 0.00541809 -0.149401)
(3.0564 3.05588 -0.000333745)
(2.90171 -2.90498 0.00207288)
(2.9066 -2.90775 -0.00144556)
(3.84823 3.22931 0.198079)
(8.70505 0.0264221 -0.00331859)
(8.78079 -0.0494351 0.00812472)
(3.06049 3.06834 0.000991586)
(8.6474 0.0240442 -0.0016405)
(3.22614 2.61566 0.184284)
(2.90963 -2.8758 -0.00691599)
(8.85946 -0.0305871 0.0728325)
(8.62463 0.0321346 0.0159303)
(8.81319 -0.0121236 0.0207858)
(8.65084 0.02464 0.000370254)
(2.93657 2.60553 0.158476)
(3.80941 3.27969 0.208982)
(3.04818 3.05204 -0.00438195)
(8.63724 0.0303351 0.011538)
(8.62524 0.0245803 -0.00176019)
(8.78443 0.156444 -0.0533554)
(3.02061 3.01367 0.00554054)
(6.02916 5.33799 -1.27749)
(8.23616 0.0822866 0.0751843)
(8.78613 -0.0416684 0.0210131)
(8.64668 0.0316863 0.0197066)
(8.22945 0.859094 -0.0687194)
(8.76407 0.0196278 -0.0248853)
(3.04323 3.04315 0.0013545)
(8.76573 0.0213086 -0.01359)
(8.42133 0.0119632 0.0175804)
(8.86604 -0.209245 -0.00182325)
(8.88757 -0.0535007 0.108671)
(8.589 -0.0693312 -0.0632459)
(3.04163 3.05502 -0.0114017)
(2.90023 -2.90346 -0.00545414)
(3.06069 3.04281 0.0116285)
(2.88183 -2.89013 -0.000563249)
(8.76697 -0.0414102 -0.000289001)
(8.6882 -0.0126425 0.00324543)
(8.69122 0.0418466 -0.0331229)
(8.75822 0.0245624 -0.0274061)
(3.0301 3.03323 -0.0130559)
(8.66982 -0.06394 -0.023482)
(3.05173 3.0526 0.00112536)
(2.89333 -2.9016 0.000122276)
(8.75939 0.0248797 -0.0180355)
(2.67186 -2.67484 0.0385189)
(4.81245 -0.854324 -0.0670128)
(2.87013 -2.85941 0.00240141)
(3.0807 3.03974 0.0243598)
(8.67629 0.0156112 -0.0120557)
(3.05416 3.05245 0.00112041)
(8.56978 0.0242928 -0.00495832)
(8.15111 0.00460916 -0.0376757)
(3.05954 3.0597 -0.000782023)
(7.84868 -0.00355091 -0.0373136)
(8.52897 0.0152348 0.0122838)
(3.07809 2.70155 -0.098922)
(8.49181 0.0382779 0.0426604)
(8.03003 0.0427717 -0.0036853)
(8.54626 0.0405215 0.012124)
(7.965 0.0298935 0.10053)
(8.62375 0.0249411 0.00427924)
(8.23757 0.00212006 -0.0160142)
(3.02095 2.58424 -0.0130607)
(2.89405 -2.88867 0.0173493)
(7.38171 0.0118491 0.173632)
(3.03344 3.04398 -0.0172867)
(8.53146 0.0465748 0.0409597)
(8.86608 -0.0449728 0.0887553)
(3.06818 2.93389 0.0245001)
(3.04759 3.06049 -0.000877481)
(8.74244 -0.0174472 0.00673977)
(8.42584 -0.039666 -0.0866153)
(8.44832 0.0451488 0.00140739)
(8.7572 0.0205189 -0.00787173)
(3.05479 3.05043 -0.00146692)
(8.90368 -0.02488 0.14372)
(8.77101 -0.0299842 0.0442517)
(3.06392 3.05873 -2.95883e-05)
(8.58426 0.133579 0.108954)
(8.19687 -0.0333027 -0.0884955)
(2.89945 -2.89916 -0.000612821)
(2.8961 -2.89606 0.000915724)
(8.5587 0.025644 -0.00901874)
(8.61112 0.00756179 -0.0129411)
(3.06705 3.06715 -0.00387407)
(2.90216 -2.89608 -0.00460017)
(5.1272 -2.75601 0.630022)
(2.90586 -2.90782 0.000605187)
(8.60895 -0.00314037 0.0159763)
(3.03433 3.04584 0.00699748)
(2.9068 -2.9077 0.000229752)
(8.81804 -0.0122227 0.0281652)
(7.9901 -0.0932149 -0.230919)
(8.72127 -0.0519736 0.0117194)
(8.42651 -0.000956635 0.0161749)
(3.06161 3.05943 0.000210659)
(3.95944 3.05471 0.153026)
(8.42455 0.112938 0.161091)
(3.71122 3.27399 0.173362)
(8.3983 0.0360269 0.0659538)
(8.36377 -0.0711553 0.00700036)
(8.73193 -0.025566 -0.0234027)
(6.07679 0.19635 0.226061)
(3.64259 3.14083 0.157215)
(8.72007 0.0140926 -0.0825682)
(8.83775 0.2744 -0.0923223)
(2.90172 -2.90697 0.00537979)
(8.80704 0.0227743 -0.0871543)
(8.81857 -0.039062 0.0326019)
(2.90717 -2.90655 0.00299034)
(8.49636 0.487419 -0.260039)
(7.43011 4.81457e-05 -0.101991)
(3.85172 3.03245 0.127536)
(8.78355 -0.0219592 0.0361785)
(8.67682 0.0137991 -0.00985399)
(8.62856 0.0235069 -0.00625795)
(3.05424 3.05162 -0.000918331)
(8.59037 -0.0128426 0.0595468)
(8.81577 -0.00345218 0.0283927)
(8.55856 0.0839024 -0.00850473)
(5.39705 -0.0731802 0.0900675)
(3.70988 3.50019 -0.0709192)
(5.09437 -0.130208 0.172191)
(2.90102 -2.90494 0.00213542)
(7.91937 -0.268705 -0.261887)
(8.5922 -0.0144655 -0.0566025)
(3.05565 3.05342 0.00483131)
(8.1749 0.0204978 -0.0625574)
(6.73529 -0.0178308 0.123562)
(3.9544 3.5005 -0.035287)
(2.90391 -2.90196 0.000186283)
(3.40421 -2.8883 0.0939526)
(2.90613 -2.90503 -0.000322655)
(8.53002 0.0476656 -0.00612783)
(8.61629 0.0463011 -0.0148454)
(8.54016 -0.0243835 -0.0247808)
(8.02218 0.0220089 -0.0447731)
(8.74415 -0.178399 -0.0367049)
(3.05301 3.0398 -0.00581995)
(8.48353 0.000219792 -0.0211831)
(2.91252 -2.89113 0.000366867)
(8.39631 0.0314374 0.0203134)
(3.06501 3.06531 -0.0013294)
(2.90401 -2.90138 1.48965e-05)
(2.87432 -2.88244 -0.00389041)
(8.2507 -0.0555251 0.0119785)
(2.8934 -2.89456 -0.00244902)
(2.90552 -2.90578 0.00122197)
(3.0119 2.01199 -0.123461)
(2.9061 -2.90788 0.00102015)
(3.02236 3.06421 0.028806)
(8.45648 -0.0311002 -0.013097)
(3.05622 3.05198 0.00110105)
(3.62037 2.67529 0.00497589)
(3.05661 3.05843 0.00366921)
(2.89496 -2.88526 -0.001043)
(3.05561 3.04459 -0.00424101)
(2.89393 -2.87925 -0.0147393)
(3.03758 3.03993 7.06934e-05)
(7.69617 0.002034 -0.0658274)
(3.06028 3.04409 0.0121812)
(7.89333 0.117228 0.160035)
(8.63852 0.0116343 -0.00362221)
(8.90708 -0.360949 -0.0628846)
(3.06274 3.04747 -0.000665421)
(7.51919 0.0217866 0.125079)
(3.06032 3.04963 0.00294754)
(2.90667 -2.90787 -0.00130648)
(8.51241 -0.0808361 -0.0872118)
(8.5247 -0.0656455 -0.0789063)
(8.54419 -0.0185718 -0.0234011)
(8.92733 0.0229119 -0.152108)
(3.50928 2.95504 -0.0972728)
(8.74737 0.0104241 -0.04622)
(8.74363 0.0158222 -0.0440009)
(8.64023 0.0156676 -0.000131579)
(8.49995 0.00962691 0.00285078)
(8.65396 -0.0881388 -0.0604746)
(2.8934 -2.89494 -0.000837536)
(8.64814 0.0119858 0.000195029)
(3.99409 3.48017 -0.0262404)
(8.6167 0.023109 -0.0114181)
(3.0514 3.04811 -0.00105557)
(8.77598 0.0281917 -0.0396647)
(3.95053 3.28405 0.0302984)
(8.65657 0.00761688 -0.0126125)
(8.68271 -0.041538 0.0315865)
(3.35522 -1.68584 -0.0203439)
(3.05657 3.05875 0.0340206)
(8.51204 0.0152613 0.0150295)
(2.9031 -2.90196 0.000548734)
(8.81307 0.0361628 -0.057565)
(8.74838 0.0342672 -0.0373516)
(3.05339 3.04431 -0.0243492)
(3.0468 3.04565 0.00750018)
(2.989 2.68193 -0.0597764)
(3.05316 3.05544 0.00147427)
(6.11511 -0.326998 0.169537)
(8.81785 0.0304522 -0.0550742)
(3.09881 3.02595 -0.00227759)
(3.04936 3.05361 0.00299431)
(7.52119 0.00969094 -0.0180373)
(3.05803 3.0577 0.000136579)
(8.68207 0.0246618 -0.0319355)
(3.05583 3.05511 0.000306449)
(8.59764 -0.0499398 -0.0375529)
(2.90726 -2.90692 0.000758504)
(8.06476 -0.0408158 -0.122445)
(6.66063 -0.0268077 0.00701748)
(8.08023 0.0254292 -0.0174115)
(8.65958 0.009825 -0.0136453)
(3.06726 3.0447 -0.00998486)
(7.85144 0.00808015 -0.00120861)
(3.06108 3.05028 0.00273653)
(3.05649 3.05736 -0.00828658)
(8.56022 -0.0230309 -0.0136019)
(3.05262 3.04909 -0.0013406)
(7.2839 0.00122563 -0.0741591)
(2.94759 2.71351 -0.0900245)
(8.69236 0.023307 -0.027701)
(2.89662 -2.89967 0.000270168)
(8.76657 0.0214358 -0.0193169)
(2.90821 -2.90551 0.000374391)
(3.62479 3.20908 0.0930026)
(8.86254 0.323035 -0.0202393)
(8.51639 -0.0729083 -0.0915274)
(8.64513 0.0366868 -1.11112e-05)
(8.71652 -0.0987319 -0.0645275)
(8.60609 0.0173592 -0.00839598)
(8.80286 -0.0622554 -0.0060893)
(3.03396 3.05723 -0.0136013)
(8.64053 0.0490834 0.0260512)
(8.55137 -0.0857692 -0.08827)
(3.05504 3.05685 -0.00172221)
(7.25755 -0.106427 -0.280871)
(8.83585 -0.0637116 -0.0446536)
(8.4846 0.0363969 0.0325819)
(3.02255 2.98129 -0.0170878)
(3.75759 0.749671 -0.594088)
(8.3037 0.0210783 0.0273796)
(6.79268 -0.0268316 0.0688582)
(7.04557 1.81779 -0.0144521)
(3.76778 -1.90933 -0.156457)
(8.78594 -0.100912 -0.0228576)
(8.24541 0.031711 0.0612651)
(8.5107 -0.0802423 -0.0882676)
(8.6743 -0.0486815 -0.0184167)
(8.53157 0.0500415 0.0210894)
(7.578 0.98799 -0.0432184)
(3.77438 3.20374 0.0264875)
(7.70239 -0.292953 0.0670438)
(7.43879 -0.646917 0.156212)
(2.90069 -2.90228 0.00139211)
(7.58964 0.053138 -0.0223874)
(3.07101 3.01334 -0.0157996)
(3.58221 3.2579 0.0306595)
(8.60453 0.0195386 -0.00424505)
(7.63112 1.29293 -0.0435351)
(9.17555 -0.784121 -0.145074)
(8.27415 -1.42925 0.0295696)
(3.57262 3.39556 -0.2501)
(8.74924 -0.0541478 -0.0171614)
(8.63364 0.0504863 0.0391521)
(3.0485 3.04003 -0.00148501)
(3.93028 2.189 -0.0910792)
(8.63338 0.0650174 0.0405591)
(2.90423 -2.89331 0.00308641)
(3.05489 3.05358 -0.000635567)
(3.04545 3.04433 -0.000256658)
(3.05866 3.04276 0.0035784)
(8.74635 -0.0904086 -0.0415966)
(3.05578 3.055 0.00190524)
(2.9141 -2.91394 0.0153903)
(8.59048 -0.0530244 -0.0428827)
(7.90199 -0.00270665 -0.0242496)
(4.27518 -3.74263 -0.197946)
(8.6339 0.0635117 0.0391275)
(3.55435 2.87463 0.0645459)
(8.67974 -0.035531 -0.0194686)
(2.84761 -2.84531 -0.0134081)
(3.04825 3.05432 -0.00226225)
(8.7246 -0.0555254 -0.015834)
(3.05471 3.03732 -0.0117356)
(3.05632 3.04924 0.00170301)
(3.49913 3.34883 0.0967379)
(8.20429 -0.00654669 -0.00558051)
(5.02498 4.20847 -0.558176)
(8.59776 -0.0360422 -0.0173522)
(8.60068 0.0187505 -0.00607408)
(2.87857 -2.85986 -0.0229156)
(8.92241 -0.0259537 0.283213)
(8.17395 -0.0501493 -0.122557)
(8.56608 0.00139766 -0.00429249)
(8.67105 0.156964 0.0157239)
(8.7167 0.0851701 -0.187532)
(7.49394 0.00371772 -0.0704647)
(3.05002 3.04704 0.00174339)
(8.73608 0.00934647 0.0241278)
(8.66962 0.0371903 -0.00768188)
(2.87594 -2.91399 0.00573594)
(8.06454 -0.00572129 -0.00243247)
(8.75071 0.0486495 -0.0174454)
(8.74908 0.040172 -0.0145682)
(7.94654 -0.0345073 -0.0788964)
(8.74612 0.0383668 -0.0159846)
(8.7507 0.0458646 -0.00518167)
(2.90959 -2.87102 0.0177293)
(8.74961 -0.0185282 0.0446484)
(7.2369 -0.0453267 -0.0137983)
(3.67772 3.19604 0.20197)
(8.7451 0.0329603 -0.0214133)
(8.34548 0.00950145 -0.0197968)
(4.89064 3.98378 -0.600646)
(8.60147 0.0165217 -0.0025176)
(8.74911 0.0273247 -0.0267287)
(8.34864 0.00269284 -0.0348848)
(8.67844 0.0386175 0.0041052)
(8.57922 0.0855187 0.0378948)
(8.61785 0.00955067 0.00616036)
(2.98882 2.92119 0.00443537)
(8.6772 0.045569 0.00560661)
(8.14441 -0.0537692 -0.110325)
(3.25336 -1.95096 0.0762136)
(8.63609 0.0746081 0.045942)
(8.52484 0.0708765 0.0694363)
(8.65289 0.0255304 0.00136118)
(3.05035 3.04317 0.00267799)
(8.38733 0.0485469 -0.0798365)
(2.90376 -2.89115 0.00723247)
(3.05579 3.05597 -0.0021278)
(3.03936 3.01862 -0.00133199)
(3.06051 3.04285 0.000704759)
(7.26354 0.00407407 -0.0322764)
(3.63744 3.13346 0.126449)
(6.55487 -0.462412 0.540531)
(2.88905 -2.89024 -0.000240071)
(3.04878 3.08967 -0.00460884)
(8.64472 0.0857102 0.0445081)
(8.69788 0.0224968 -0.0401633)
(2.9059 -2.90608 5.62758e-05)
(8.70649 -0.0528884 -0.00589062)
(2.90403 -2.90206 0.00845731)
(2.90602 -2.90401 -0.00111434)
(2.85675 -2.85781 0.00849313)
(8.83642 -0.0714986 -0.0098176)
(7.35851 0.0421616 -0.0200416)
(3.60065 3.24487 0.0403659)
(2.93319 -2.90065 0.00780471)
(3.05112 3.06111 -0.00395054)
(3.05275 3.05463 -0.000732201)
(8.89249 0.0177751 -0.0978125)
(8.63211 0.0182975 -0.00119985)
(3.62772 3.41168 0.156884)
(8.79456 0.0278147 -0.0480485)
(8.18043 -0.114546 -0.340087)
(3.04925 3.05068 -0.00151795)
(8.77163 0.0240847 -0.0418101)
(8.04178 0.00654861 0.0429242)
(8.53634 0.0452447 -0.0515079)
(3.06021 3.05861 -0.000191101)
(3.0512 3.04864 0.000326724)
(8.47577 0.0514852 0.0518977)
(8.66301 0.0204543 -0.00327823)
(3.60822 3.28294 0.0512871)
(3.0413 3.04233 0.000262882)
(3.09222 2.99929 -0.0107398)
(8.60908 -0.0163975 0.00744609)
(2.90154 -2.90147 -0.00321622)
(2.89721 -2.88616 0.00222106)
(3.03745 3.03797 0.000113869)
(8.76889 0.0269344 -0.0366889)
(7.66528 -0.0383031 0.0136766)
(3.05862 3.05887 5.32621e-05)
(3.39294 0.689072 0.595496)
(3.68768 -0.390727 -0.146234)
(8.48025 0.0458099 -0.00261176)
(3.04957 3.05461 -0.0013709)
(3.05559 3.05008 -0.00235159)
(8.79673 -0.110644 -0.0170815)
(8.42763 0.143389 0.135507)
(3.65904 3.2707 0.154574)
(5.31852 1.73371 0.126217)
(8.31236 0.188844 0.241473)
(7.95006 0.0243731 -0.0554974)
(8.45418 0.00533298 -0.00689596)
(3.15731 2.96519 -0.0075552)
(8.40487 0.0249795 -0.00368102)
(8.71118 -0.0588772 0.0623855)
(3.0606 3.05308 -0.00328106)
(2.88305 -2.83254 0.00509889)
(3.03923 3.04095 0.000459357)
(3.04961 3.04932 -0.000615709)
(3.05528 3.06017 -0.00361116)
(3.05939 3.06045 -0.000670679)
(8.7863 0.0257076 -0.0388694)
(2.90385 -2.90316 0.00188149)
(3.04753 3.04816 0.000457634)
(3.03787 2.99803 -0.00404581)
(8.79428 0.0277222 -0.0492148)
(8.65717 0.0198636 -0.000518569)
(2.91672 -2.87702 -0.000945135)
(2.86817 -2.83976 0.00390564)
(8.86329 -0.0428208 0.0766237)
(8.42158 0.00251058 0.00862702)
(8.40932 0.00649508 0.0126512)
(2.90495 -2.89724 -0.00160087)
(3.04557 3.04578 0.00208043)
(8.41586 0.00455225 0.0119271)
(2.90585 -2.90344 0.000414796)
(8.31381 0.0231616 0.00221292)
(8.50449 0.0148526 0.0300863)
(8.52708 0.0288452 0.0100081)
(2.91326 -2.8916 0.00825283)
(2.9052 -2.9067 0.000575397)
(2.9047 -2.90666 0.000193247)
(3.05582 3.05621 0.000881691)
(8.62064 -0.0412649 -0.0238728)
(3.05232 3.05548 0.00134386)
(3.04672 3.04404 -0.000109133)
(8.58022 0.0234861 -0.0344273)
(2.90541 -2.90639 0.00123446)
(8.45363 0.00122833 0.00972267)
(7.71254 -0.0672336 0.0264872)
(3.07332 2.96962 0.0158924)
(8.64784 0.0227147 -0.00282523)
(4.07629 0.623559 -0.107718)
(8.53519 0.00911131 0.00453605)
(8.82324 -0.0301832 0.0205831)
(7.7843 0.0319653 0.0109674)
(8.82466 -0.00166177 0.0576987)
(6.37109 0.138658 -0.242384)
(3.63413 2.90908 0.0587423)
(8.51593 0.00525204 0.00314999)
(8.85913 0.0698495 0.0109756)
(8.64934 -0.020753 -0.00886075)
(3.12864 2.72316 -0.0913054)
(3.87353 0.383562 -0.197559)
(4.61232 -0.316836 0.155303)
(8.52572 0.0121895 0.00645577)
(3.04694 3.05144 0.00404836)
(8.36027 -0.0194938 -0.0614244)
(8.54101 -0.008435 -0.0186397)
(8.28936 -0.0735133 -0.133604)
(3.17366 -2.24258 -0.170073)
(2.90595 -2.90711 0.00142123)
(2.90289 -2.90292 -5.68798e-05)
(8.68993 -0.0283036 -0.00317152)
(3.56063 2.95249 -0.0383289)
(8.24903 0.0287241 0.0134905)
(3.31335 3.01815 0.0421718)
(8.20633 -0.0174335 -0.0592267)
(8.43787 -0.0177671 0.00874151)
(8.34992 -0.0103413 0.0296998)
(8.65976 0.0214921 -0.00500666)
(3.04665 3.04662 -0.00100741)
(3.03345 3.02401 -0.00568208)
(3.10244 -2.82697 0.0145149)
(8.64541 0.0266483 0.00393923)
(3.0593 3.05058 -0.000616635)
(3.52523 3.03333 -0.134026)
(8.83411 0.165196 -0.139303)
(3.06474 3.06098 -0.00181448)
(3.04078 3.05578 0.00922623)
(2.88892 -2.87995 -0.00473657)
(3.0573 3.05817 0.000922874)
(8.2593 -0.00322258 0.0281624)
(3.11735 2.96109 0.00599144)
(3.05611 3.053 0.00105154)
(7.01519 0.992752 -0.725743)
(3.57337 2.89337 -0.0397291)
(3.04134 3.04293 -0.0252998)
(4.18679 -2.4635 0.153819)
(3.05366 3.05009 -0.00330603)
(6.74121 0.0267838 -0.0595198)
(8.42114 -0.0145794 0.0231682)
(2.89428 -2.89465 -0.000191036)
(8.27644 0.008681 -0.0218721)
(8.36494 1.35986 -0.186458)
(8.229 -0.0800006 -0.132491)
(9.05261 0.340398 0.00828733)
(8.13865 0.00710007 -0.0131753)
(3.05274 3.0318 0.00963547)
(8.54194 -0.0817713 -0.0920028)
(8.84658 -0.0311574 0.0197201)
(8.22663 -0.0805329 -0.132848)
(2.90318 -2.90405 -0.000276974)
(8.97011 2.35558 0.629058)
(8.23963 0.0121106 0.0126751)
(4.06314 3.24656 -0.192218)
(8.18297 0.00331538 0.00920914)
(8.93204 0.112846 -0.084824)
(8.52428 0.172851 0.00921048)
(8.45614 -0.0252461 -0.0331496)
(8.45969 0.0283334 0.00108214)
(9.00282 0.132608 -0.0499649)
(8.68076 -0.0151679 -0.014029)
(8.59558 -0.0120604 0.00897711)
(3.02934 3.04093 0.0114386)
(3.04039 3.02542 0.00939259)
(8.29817 0.0225176 0.0116744)
(8.15867 0.0104587 0.0104932)
(3.0484 3.05566 -0.00129182)
(8.41474 0.0080217 0.00037955)
(8.81551 -0.0414664 0.00551041)
(8.61811 -0.0209503 0.00755275)
(3.05382 3.02253 -0.00114114)
(8.49484 0.172625 0.038156)
(3.04618 3.04369 0.00018633)
(8.60008 -0.0117313 0.00757462)
(8.62811 -0.0133566 0.00573265)
(3.05365 3.05233 -0.000295912)
(8.24568 0.0447466 -0.0212411)
(8.60504 -0.00965774 0.00128967)
(8.46029 0.161148 0.0139241)
(8.32466 0.00203314 0.0340316)
(3.11575 3.05721 -0.00465856)
(8.69876 -0.0232594 0.0256022)
(8.48621 0.196745 0.00225853)
(8.94638 -0.206613 0.0575112)
(7.53072 0.0986483 0.0260935)
(6.72161 0.0212247 -0.0950811)
(3.05555 3.02416 -0.0054683)
(3.04547 3.04269 0.0022338)
(8.34612 0.11522 0.0150741)
(3.05753 3.05773 -0.000978973)
(7.28398 -0.0207416 -0.0183973)
(8.3847 -0.0448783 -0.0655972)
(5.11675 0.721197 -0.186777)
(9.28574 -0.593701 0.224959)
(8.1943 -0.36617 0.1092)
(9.12116 -0.324405 0.0902524)
(3.05688 3.05709 -0.000903152)
(4.14191 3.51793 0.0293035)
(8.67961 0.0214539 -0.00677313)
(2.89121 -2.90284 -0.00986209)
(1.59348 -1.11298 0.475013)
(8.5879 -0.16467 -0.128336)
(3.04347 3.03602 -0.00602714)
(3.05897 3.05541 0.000318675)
(7.66779 -0.148525 -0.00294142)
(6.27211 -0.40662 0.0867189)
(3.05799 3.05829 -0.000426338)
(7.76154 -0.144773 0.0253501)
(3.04484 3.04227 0.00132401)
(3.05361 3.05846 -0.00502384)
(2.90254 -2.9028 -0.000555117)
(2.90625 -2.8998 0.00591638)
(2.84802 -2.8237 0.00961044)
(2.9003 -2.89459 -0.000347419)
(7.74793 0.0643601 -0.0291771)
(3.03239 3.01211 -0.00361684)
(3.05261 3.05397 0.00106158)
(3.03637 3.05242 0.00542806)
(7.21655 -1.59103 -0.414161)
(8.17399 -0.0677981 -0.149648)
(7.91336 0.000130492 -0.0825685)
(8.6803 0.0201275 -0.00750791)
(3.03819 3.01859 -1.08324e-05)
(3.06624 3.05503 0.000164897)
(8.31489 -0.142759 -0.174015)
(3.0559 3.05685 -0.00356573)
(3.05329 3.05021 0.00085821)
(4.85593 2.79849 0.101285)
(8.8525 -0.120453 -0.0073143)
(8.66319 0.0205469 -0.00710185)
(3.05195 3.05119 -0.000304028)
(3.04992 3.04462 0.00451097)
(3.03842 3.03 -0.00385372)
(3.04318 3.03682 -0.000406102)
(3.05663 3.05539 -0.00332597)
(3.06362 3.05484 0.00185613)
(8.6685 -0.202732 -0.127952)
(3.0604 3.0516 -9.97368e-05)
(6.01682 0.0865695 0.202998)
(8.74201 -0.0199861 0.0229332)
(3.05337 3.05775 -0.000851814)
(2.8829 -2.89454 -0.00788416)
(2.86315 -2.83371 0.00339904)
(7.33065 0.0868979 0.397372)
(2.84289 -2.83942 -0.0118362)
(2.90131 -2.90367 0.00297863)
(3.03626 3.04137 -0.0191001)
(7.85222 -0.122999 0.00733852)
(3.04376 3.04273 0.000248902)
(8.61673 -0.113139 -0.0712284)
(6.86421 0.112644 -0.0353445)
(5.6621 0.00707987 0.227054)
(3.04494 3.04723 0.00092786)
(5.89796 -1.50651 0.120009)
(8.68425 -0.016116 0.00281492)
(8.74833 0.0221692 -0.0225041)
(3.11945 -2.97753 -0.0338948)
(8.40856 -0.136295 -0.0227789)
(8.58493 -0.0164713 -0.00916162)
(2.90637 -2.88603 0.00278381)
(3.15553 2.99421 0.0146644)
(4.10438 -3.16111 -0.264529)
(3.03731 3.03636 0.00102726)
(8.68398 0.0170354 -0.00229676)
(8.67646 -0.0111072 0.0103448)
(8.82313 -0.106793 0.0440589)
(5.80582 -0.00652892 0.319012)
(3.05918 3.05744 -0.000340247)
(8.68691 0.0171784 -0.0038331)
(3.13467 2.9838 -0.00748937)
(3.8156 3.22915 -0.0133077)
(3.90745 -3.04001 -0.12552)
(3.05326 3.05372 0.00120731)
(8.70707 0.0260538 -0.00516491)
(3.0439 3.03692 0.00198139)
(2.8726 -2.82055 0.00145034)
(7.93766 -0.109337 -0.199385)
(8.52238 -0.0189918 0.0100948)
(2.87436 -2.82669 -0.00784882)
(8.56106 0.0153186 -0.00369903)
(3.25241 3.18074 -0.0188679)
(8.69493 -0.0745751 -0.0385402)
(2.87258 2.74853 0.0272877)
(3.05653 3.0584 -0.00134753)
(3.06917 3.05882 0.0100088)
(2.90676 -2.90734 0.000797121)
(8.41593 0.0133229 -0.013452)
(7.5315 0.0161633 -0.0345595)
(8.72649 -0.0291911 0.180223)
(3.04068 3.04349 0.00198656)
(3.03608 2.9816 0.0205511)
(8.36857 0.0162177 -0.0147203)
(3.05697 3.0571 -0.0011299)
(3.54786 3.21208 0.044314)
(2.90378 -2.90185 0.000215657)
(8.32694 0.0534895 -0.00551031)
(8.86424 -0.218666 -0.065449)
(8.68413 0.0217018 -0.00919778)
(2.89959 -2.89373 0.00674793)
(6.87722 -0.0103355 0.191931)
(7.17926 0.00703674 0.184362)
(2.74636 2.42652 0.0169579)
(7.76176 0.0995811 0.156067)
(3.05785 3.04197 0.00298014)
(8.19736 0.077095 -0.00780382)
(8.80458 -0.0150261 0.0511139)
(8.52791 0.00579657 -0.0148083)
(8.81528 -0.111509 0.0132569)
(8.09798 -0.178202 -0.251043)
(3.05627 3.05302 0.000734307)
(3.05676 3.05653 -0.000196836)
(3.04943 3.05364 -9.44717e-05)
(7.10099 0.0701835 0.255966)
(3.02736 3.00041 0.00332903)
(8.61547 0.0363364 -0.015791)