/*--------------------------------*- C++ -*----------------------------------*\
  =========                 |
  \\      /  F ield         | OpenFOAM: The Open Source CFD Toolbox
   \\    /   O peration     | Website:  https://openfoam.org
    \\  /    A nd           | Version:  10
     \\/     M anipulation  |
\*---------------------------------------------------------------------------*/
FoamFile
{
    format      ascii;
    class       volScalarField;
    location    "20.5";
    object      p;
}
// * * * * * * * * * * * * * * * * * * * * * * * * * * * * * * * * * * * * * //

dimensions      [0 2 -2 0 0 0 0];

internalField   nonuniform List<scalar> 
111485
(
7.87167
0.0273878
0.017682
7.87301
0.0109416
7.61098
0.0110029
0.0192172
0.0114902
-0.00159906
0.0103563
0.00769987
0.0147551
-0.000397126
0.0127127
0.0384852
0.0260775
8.79289
0.0162492
7.87378
7.87405
7.61403
0.00877864
0.0273911
0.00569574
7.8481
0.0139944
0.0454842
0.0161476
7.87248
-0.0831628
0.0162389
7.87551
7.60988
8.57283
7.57071
-0.0595599
0.0518972
-0.116491
0.021739
7.65714
-0.00127811
0.0224308
-0.031561
-0.2604
7.88532
-0.015346
0.0230924
-0.00625188
7.91619
7.91432
7.36242
7.9228
-0.0465539
7.92776
0.0245957
0.0165473
7.61881
-0.0950711
0.0191161
0.0203164
7.87216
0.0189172
-0.0724353
7.65818
0.024329
5.10212
0.0172898
0.00525982
0.0166702
-0.141849
0.030658
7.7263
0.0056753
7.87739
0.0313827
7.61381
-0.00461074
7.61247
8.05762
-0.112693
-0.0342174
7.6135
7.87382
0.0236391
0.00955991
1.74685
-0.0524419
-0.104904
0.0379683
-0.212482
0.0114747
0.022597
0.0460183
-0.00101005
7.87354
7.87215
-0.0360614
-0.745782
0.0678503
7.87212
0.00577673
7.59953
-0.00880248
0.0109737
7.91336
7.61709
0.0153581
0.00904213
-0.347368
0.0210548
0.0327905
0.0170007
0.00653045
7.84466
0.0312394
7.86108
7.61107
0.0124202
7.87469
7.84708
6.6624
7.61435
7.61901
-0.0021873
8.955
6.62515
0.0188261
7.87417
0.389806
-0.103467
-0.0374743
7.87791
6.50894
6.79848
0.0112909
7.61369
0.0323951
0.00763157
0.0274619
-0.0382533
0.0102261
0.0150408
0.0173299
-0.0223287
0.0328681
7.61364
7.87307
7.62357
0.0172571
0.0139674
7.87169
-0.0719678
0.00927778
-0.66361
0.0191808
0.0148062
0.00978498
-0.520794
7.8787
7.87329
0.0164888
0.0078517
-0.480694
-0.600978
0.0249783
-0.0641925
7.64598
-0.442677
-0.409255
7.6183
7.87261
0.00658046
7.61547
0.0292646
0.0175163
7.6685
7.70515
7.86382
7.81238
7.67628
7.87236
0.0240292
0.0193761
0.0271432
0.0700531
0.00159997
0.0278407
-0.0493139
7.87283
0.0159561
7.70032
7.86039
0.0357844
-0.00807654
-0.0480814
0.0315413
0.0160485
7.87823
0.0230815
0.0181379
5.29021
-0.0222277
0.0251271
7.86831
0.0316203
-0.00968963
7.69909
-0.0539303
-0.021136
0.015127
0.0143959
7.66908
7.8716
0.0281453
4.95694
-0.0371284
7.61517
0.030679
0.0343346
-0.00346992
7.87032
0.0197889
-0.0629758
5.98885
7.61517
7.61843
-0.117478
-0.588716
7.72609
7.29735
0.032476
0.0227643
-0.0822148
7.72416
7.80624
-0.0705898
7.87506
0.0075585
0.0297881
0.0300691
0.0175369
0.0290286
7.61965
-0.102635
0.0146996
7.62256
7.6136
-0.0508778
0.03185
7.78404
0.0304514
0.0294407
7.87326
6.35368
-0.0268749
7.88829
8.02432
7.18794
7.87392
0.0254844
0.0191419
-0.0104486
7.87463
0.029418
7.87281
7.87088
7.8778
-0.0784725
-0.0110747
0.025778
0.0164379
0.00128307
0.0193726
0.0167331
-0.0805896
0.00989016
0.0204902
7.57265
7.873
-0.0857912
0.0194824
-0.0936824
0.0255689
7.87423
0.0260287
0.0126312
0.0196112
0.0173884
-0.112287
0.0147177
0.0180455
-0.0243499
7.61537
-0.0128299
7.61553
8.73856
8.09054
-0.123975
-0.0107413
0.00986954
7.86724
7.6794
0.0268656
0.0262105
7.87143
7.86938
7.93137
0.0181938
0.0294621
0.0204204
0.0177048
0.0131014
7.22588
7.62136
7.87429
0.0290475
3.25331
-0.00428013
-0.114019
-0.0877986
7.6144
7.87136
7.87209
6.79198
0.0237996
0.0176521
7.60779
0.0266858
7.78022
7.86396
-0.0341543
0.0242639
0.00295881
0.0267547
7.98562
6.75618
7.61079
0.0240283
0.0199232
-0.0845468
7.65138
0.44862
-0.151694
0.0181268
0.0289009
1.27184
0.0115667
7.61209
0.00643707
0.0300527
-0.104464
-0.0404194
0.00767162
7.61268
7.87565
7.6158
7.87623
0.0259797
0.0238809
-0.0133182
0.016218
7.63086
0.0120416
7.6182
7.8792
0.0127012
8.13994
6.95
7.91457
7.56603
0.0183926
7.61746
0.0173941
0.0168045
7.61227
0.0052129
0.0259234
7.85441
0.0255591
0.0117127
0.0315674
-0.049027
0.0407993
0.0299465
7.99403
7.8737
-0.0201217
7.63543
0.00502176
-0.0471239
7.66696
7.61793
0.0262061
0.0112194
-0.000778221
0.0236734
7.6135
-0.0811825
0.00364262
7.60892
-0.0339608
-0.0113143
7.87063
7.87259
0.024932
0.00589648
7.59587
7.86502
5.85837
7.87146
0.0110768
7.61531
7.87242
-0.000458514
-0.0970375
-0.00856478
0.0189459
7.61212
6.80982
-0.00679916
6.90751
-0.0296211
-0.0028917
0.0046831
5.27506
6.97998
-0.489371
-0.315873
7.86999
-0.0508155
0.0104227
7.86839
-0.511568
-0.00194899
6.94637
0.00508556
0.00660698
0.0386642
7.61338
0.268469
0.00366353
0.0490618
-0.136746
6.60187
-0.605443
7.87088
-0.0433039
-0.168899
7.61888
-0.00589329
-0.010207
6.41982
7.87359
7.47206
7.87302
0.0120284
0.0783141
0.0108296
0.0105185
-0.0567349
7.61583
-0.0454015
7.88399
0.0237485
7.6
7.88135
7.88831
0.00105587
7.87452
7.87157
8.34576
7.87055
7.62691
-0.0191357
7.61685
7.41716
7.61265
7.85906
7.60569
7.88053
7.61441
-0.00122531
7.61119
-0.0223072
0.00117305
-0.0909042
7.62014
-0.0196575
7.62031
7.87139
-0.0058412
-0.00774049
0.0416397
-0.124792
7.32229
-0.0125455
-0.0223408
0.0230162
-0.0146199
-0.00235228
7.87374
-0.0043092
6.43102
0.00423466
7.61504
-0.01959
6.65539
0.0224167
0.0154464
8.29167
7.67969
-0.0327167
7.87179
-0.0120904
-0.0198927
7.62568
7.6327
7.92201
7.61767
-0.981844
-0.0123041
7.60902
7.62311
0.00877125
7.61398
-0.015071
7.61302
-0.018786
7.87165
0.00810323
0.00676296
0.0511183
0.0213416
7.5922
-0.1285
7.6072
7.61487
0.00367236
7.61615
-0.00174943
7.92808
-0.0333361
7.87303
0.0230001
7.8741
6.95482
-0.110896
-0.0476801
-0.0163802
0.00726946
-0.0279949
-0.00487674
7.6226
-0.0235981
-0.0278999
7.61457
-0.052439
-0.0637375
-0.00876379
7.68247
8.03659
0.0316468
-0.0397259
3.67604
7.72006
-0.000864677
0.0200602
0.00420761
0.00119455
0.155781
2.52446
6.86109
-0.703656
3.13774
7.87314
0.00902265
7.63471
6.98572
0.0298212
2.47691
-0.724969
1.41776
6.85951
-0.0133671
0.015402
7.62848
7.44431
0.0224924
7.87962
7.61398
7.61476
7.61861
-0.000349285
7.61674
7.82889
0.00528968
0.0260312
6.01799
-0.0299585
7.30913
0.027245
7.92168
7.62057
-0.00631923
7.61408
7.61869
6.95255
0.046198
4.63693
-0.0250906
0.0374362
7.88789
-0.226421
-0.0683665
0.00452981
-0.0150224
0.252425
7.7981e-05
7.61752
-0.00778391
0.00737282
7.87589
0.0202887
-0.0231684
0.0129673
0.0357223
0.012973
0.0119879
7.88586
-0.000996741
-0.0553638
6.93148
0.0137528
0.0131633
4.83653
0.0385033
0.0141684
0.00404456
0.00715991
0.0155308
0.0327042
7.75823
0.00942937
-0.00141929
8.23026
-0.00518362
-0.0192702
0.0362123
7.61693
0.0495675
7.89039
7.6141
7.62715
7.61669
0.0166048
7.04547
-1.04697
7.86858
7.55447
0.00422194
-0.0015412
7.87069
-0.0106266
7.86991
7.87289
7.924
-0.00748776
0.00673563
6.98225
7.81961
7.61654
7.61673
-0.0652375
0.020181
6.80024
0.00203166
-0.412775
7.62127
0.00961971
-0.0169121
0.0827622
7.61318
7.61471
0.0219852
0.0308905
6.91621
7.61887
7.6046
0.0159524
7.87604
7.87055
7.61644
0.00589937
0.0202755
7.61337
8.47923
8.21312
0.148849
7.62053
7.61264
-0.0223074
-0.0742495
6.90032
5.94641
1.13703
-0.0119159
0.00235155
7.59125
-0.0200853
-0.00412133
7.61385
7.92143
7.61321
7.61554
7.61927
7.61271
0.0226519
7.87106
7.61392
7.6731
0.0140452
0.0159919
7.87829
7.93471
-0.0244699
0.0250224
0.0344329
7.86982
7.61455
0.0252957
7.87364
-0.00800568
0.0187135
0.0428264
7.85099
7.8722
7.87205
7.61588
0.0353316
7.61452
7.61365
-0.0330603
7.87218
0.0341348
0.00609191
7.63696
0.0347706
7.84087
0.023792
-0.00565563
-0.0239021
-0.0170654
-1.28295
7.22936
0.0218408
-0.0187719
0.000923463
7.78712
-2.1158
7.1458
0.02371
7.61858
-0.028357
-0.0132267
-0.03174
8.08071
7.87222
7.87373
0.028885
7.30599
-0.0263605
7.44325
0.0261357
0.0341313
0.00953647
0.0239299
7.61235
7.63969
7.74876
0.0267327
7.61596
7.22704
-0.157369
7.61776
7.62466
7.87369
7.61367
0.0101526
7.60245
7.61574
-1.57832
7.28839
7.63731
7.06725
7.61598
-0.036817
0.0134414
7.87156
0.016124
1.00458
-0.0366887
-0.386138
0.0239362
7.62093
-0.0102065
-0.0290641
-0.0357985
7.87318
-2.64281
0.0102354
6.46795
-0.00389495
-0.117227
-0.10288
0.00332698
0.0269564
-0.139711
0.0386794
0.0277357
7.59436
7.62975
0.0111946
-0.000393042
7.61982
0.0137685
0.00647778
0.0220448
7.61141
-0.120786
7.61447
0.0196601
0.0135706
7.61323
-0.0662658
0.0273668
-0.159151
-0.0218145
7.56988
0.0156506
-0.153426
-0.0777672
-0.156983
-0.0392055
7.60499
7.62505
-0.0229382
7.61365
0.0288579
-0.0776426
6.71915
-0.475814
-0.829755
-0.306584
7.61358
6.38009
0.0257491
7.87344
9.4623
-0.0469959
7.60841
7.61222
-0.72852
-0.863737
7.61374
-0.122341
7.61553
7.61414
7.87513
7.87066
7.95573
7.87269
-0.0255394
7.61756
7.61867
7.62476
-1.44546
0.0145453
0.000997897
0.0267516
7.62754
7.61213
-0.0489422
7.615
7.61601
5.81165
-0.0534191
0.0243458
7.61334
7.60814
7.62473
7.61239
7.5609
7.61134
-0.0723097
7.61768
-0.202653
0.0131759
7.61637
7.88258
7.93139
-0.12413
7.92354
7.87371
7.63199
-0.211612
7.6132
-0.0652836
-0.069609
-0.180626
7.61094
5.28994
-0.0406521
0.0084077
7.66433
-0.198911
-0.0134445
7.88213
7.58901
6.89883
7.6089
0.0242483
0.013958
-0.0650503
-0.348703
7.61414
0.0270772
7.56779
6.8266
6.85595
7.61856
0.0200213
7.61496
7.94197
-0.0652931
0.0294759
7.93907
0.000355319
7.31283
-0.0838742
7.97839
7.61484
7.58674
7.87251
0.0255422
0.0221694
0.356123
7.61508
7.66396
0.0155025
7.61391
7.07077
7.87168
-0.00316788
-0.337034
0.0455822
7.8635
-0.0727377
-0.0605407
8.24189
-0.0602314
7.62154
-0.0400794
-0.0249952
0.00764725
-0.0873257
-0.178358
7.61439
7.61554
7.61518
-0.0723035
7.68632
-0.1092
7.87524
0.736426
7.87266
0.0196393
0.0217733
7.94365
7.6133
7.96098
7.62508
-0.111045
7.96908
6.90669
0.00500349
-0.104199
7.91156
7.03658
7.70494
7.05732
7.61459
7.61416
-0.102767
0.00707314
7.87305
7.86661
-0.630531
7.87814
-0.102465
0.0234009
7.69766
-0.0339422
7.87242
0.017952
7.62261
0.0161935
7.61307
-0.584538
-0.307491
-0.146914
-0.0393679
-0.043794
4.68524
7.54323
-0.0318531
7.91799
0.0140315
7.87127
7.64456
7.62369
7.62593
7.64999
7.61981
-0.0541256
-0.0655569
7.87268
6.65275
7.87927
-0.0529616
-0.12405
7.86881
0.0256633
-0.149938
7.93181
0.0264446
0.0263641
0.0171027
-0.146448
7.6139
7.61353
7.64338
7.61409
0.0202341
7.54473
-0.0341267
7.61452
-0.0438137
0.0211999
7.61772
-0.051903
7.60603
7.61361
-0.0450932
-0.0827507
2.1337
7.61521
7.95524
7.60621
0.0215892
7.50519
7.92248
7.52298
0.863183
6.72526
-0.5293
7.02791
7.48656
7.76933
0.0194436
0.00510247
0.0130391
0.0201988
7.85751
-0.0290835
7.61533
7.61817
0.0169287
7.59037
-0.64443
-0.0398485
0.0325164
-0.0456828
-0.964965
-0.00189972
7.61719
-1.42349
-2.97785
-0.00792804
-0.0350409
0.0230453
5.51564
7.86753
0.00185988
7.87694
7.61203
-0.243261
-0.00145035
-1.09794
7.59945
7.44297
-0.0743844
7.93143
7.61453
-0.0515955
7.95031
7.93925
0.112257
-0.0512532
-0.0918246
0.0478509
0.0269672
7.61746
7.6139
-0.274464
0.0261049
7.61473
7.94452
0.0337577
7.6252
6.60966
6.75996
6.79663
4.3604
6.62565
7.61624
0.0214583
7.60098
-0.0768748
7.61453
3.42869
7.67268
7.63795
7.61758
7.61456
0.0298973
7.61434
7.61405
6.91675
7.60985
7.61821
7.61139
0.0246115
7.63174
0.0214387
-0.0819871
7.64025
0.0425787
7.61428
-0.0265165
-0.206537
0.0177696
0.0262043
7.84685
0.0234107
0.0255954
-0.150742
7.87453
-0.107414
0.0251841
0.0265127
7.32864
0.0179148
7.6855
7.61591
7.6166
7.61335
0.0236247
7.61545
7.60374
0.0203122
-0.134671
0.00875448
7.62709
5.42828
0.0313413
7.6202
-0.368697
7.92862
0.0132434
7.61041
7.6129
-0.00441067
7.61052
-0.0196745
7.87528
7.6141
0.0279387
-0.0379825
0.0246103
0.0201587
-0.135839
0.0185135
7.61444
8.0203
0.0146361
0.0293983
0.0304303
-0.0938957
7.61384
0.0223886
7.61365
7.79939
0.00531196
-0.0682375
7.62595
0.0239215
7.60341
0.019314
0.0318758
7.71345
7.61321
7.61599
0.0137822
7.61667
7.61521
0.0171881
0.0195602
-0.0418095
0.0229554
7.63544
7.62681
0.0120337
0.0296912
7.61922
0.012113
7.70177
0.00814596
7.61434
7.61403
-0.00640479
7.61338
-0.0226717
0.0313984
7.6199
7.61259
0.00526737
6.47248
0.0323084
7.87178
-0.0595445
7.88221
6.67903
6.45569
0.0286232
6.96459
6.8891
0.0123339
6.84741
4.2548
6.33271
7.67518
7.87793
-0.178854
0.0259454
7.65507
7.61341
0.00238884
0.0138997
7.62422
0.0144
7.61234
7.88308
0.00518307
-0.0046734
0.125983
7.61317
7.61668
7.6152
7.61376
7.60813
7.61134
7.60847
7.60871
7.61254
7.6116
7.61416
7.87926
7.6174
7.61248
7.6149
7.7865
7.61296
7.61328
7.61397
7.64213
7.81714
0.0204003
7.61579
7.61326
7.62691
0.0276636
7.61923
7.88298
2.94728
7.60265
7.51024
0.0189838
8.24426
7.56617
3.48094
0.0142916
7.6151
6.76033
7.25936
7.61229
-0.0287378
0.0161698
0.0132643
0.00490063
0.0327554
7.90299
7.60718
0.0177327
0.0238722
0.00391546
7.61135
0.0225979
-0.0146717
0.0275765
0.0217633
0.0227918
0.00544769
0.0263077
0.0167539
7.88577
0.0232593
0.0266661
0.014246
0.0195386
7.61417
7.61364
7.61429
7.87251
7.61178
0.025776
0.0253894
7.61737
7.61249
7.61299
7.8198
7.61483
7.87476
7.61942
7.87945
0.030148
-0.227116
0.0260622
0.032524
7.5892
7.62972
-0.0328071
-0.26336
7.61329
7.61439
0.00913423
7.88445
7.61425
0.0649944
-0.00121917
0.0159652
0.0332318
-0.0284822
7.89929
0.0144733
0.0225904
6.90859
7.87667
0.0116863
7.89611
7.6263
2.38008
1.27047
-0.00821722
7.76683
7.84905
-0.0432607
0.0230035
0.0328097
0.0249119
3.39189
7.8721
-0.0172542
8.23619
7.87326
7.55887
-0.000425078
7.61433
0.0274272
0.00903984
0.0127052
0.014309
7.87933
0.0365114
7.87513
7.45455
7.87329
7.86628
0.0220124
4.48847
7.614
7.87311
8.3588
0.02676
6.85728
0.0112308
0.0204365
0.0215979
0.023065
7.82507
7.86905
6.62913
0.0142945
0.0271811
-0.925473
7.9209
7.87176
6.82425
-0.0224767
-0.0238943
7.61259
-0.0329768
2.48889
0.0158407
0.0206306
7.87244
6.64352
0.0127764
0.0254647
7.61565
0.00654632
0.00523701
-0.00199242
-0.0051011
0.0210115
0.0381753
6.91115
0.0314869
0.0233821
0.0295378
7.9666
0.0182197
6.99784
0.0340398
0.020892
7.87349
0.021196
0.0170257
0.0117533
0.0254233
8.73902
2.07075
-0.0517767
4.27788
0.0186859
7.64837
0.0225264
0.0185136
7.88063
7.61416
-0.363177
-0.116291
0.0208059
8.73042
0.00781318
-0.206634
-1.16831
-0.0828337
7.88137
7.89176
0.0234293
8.34652
0.0248362
-0.217971
0.0178802
0.0331654
7.87265
-0.000754266
0.024893
7.87202
6.93104
0.0363991
7.88681
0.0284849
0.0326335
7.87312
8.78866
0.0233457
7.87292
7.61286
7.61571
0.0294512
0.0360971
0.0141626
7.92589
0.0111436
0.0287604
7.67408
0.0318065
0.0198561
0.0250178
-0.128915
7.61404
0.0190349
0.0539357
0.031914
0.0200992
0.0270445
-0.158734
0.0300588
7.87153
-0.0497095
0.0225577
7.8721
0.0273745
7.62168
7.61546
7.87467
7.62576
7.87436
0.00351099
7.6161
0.0272043
-0.0173106
7.87524
0.015365
7.80546
0.0175024
7.87953
-0.167128
7.65422
0.00847922
0.00406952
-0.187121
0.0433771
0.0239553
0.0183373
0.0288136
0.0399298
2.77925
0.0354811
0.00596556
0.0426406
7.87262
0.0411406
-0.125864
0.036816
0.0148539
-0.167731
7.87487
6.76962
7.87797
0.0146498
7.87196
6.16724
0.0249904
8.38954
0.00997613
7.86444
7.83997
7.61402
0.0185123
0.044981
0.0232912
-0.0445057
0.0249239
0.0232558
0.0329132
0.00979474
0.0157182
0.0310066
0.0213602
7.88084
7.56894
7.86519
0.018624
0.0291953
7.65021
7.6139
6.30461
0.045586
0.0186277
7.87252
0.0232795
7.86965
-0.434238
0.0184826
-0.0657265
7.87334
7.87134
0.0114236
7.87208
-0.00693842
0.0302621
7.45511
0.0211533
0.017298
0.0273263
7.87218
-0.110937
6.98173
-0.0252019
0.011136
7.87486
7.88374
0.0273378
5.5264
7.90371
0.034914
0.0315309
7.8723
7.85571
6.93773
0.0137245
6.28384
0.0164859
-0.0340227
-0.000429287
7.87173
7.0348
-0.0355183
7.87044
7.62087
7.87371
7.8759
7.14802
7.72662
7.57325
7.87349
7.88981
7.29806
8.39815
7.6421
0.00262933
7.65162
6.75476
6.39185
8.90639
6.89667
7.87182
-0.033431
7.38872
7.71107
-0.0339432
8.20884
8.57374
7.7724
-0.042502
8.36782
-0.0312338
-0.0848444
0.0127764
7.16598
7.87551
-0.0230344
-0.457812
7.83613
7.86486
0.0213773
7.08657
0.0212587
7.01126
7.5971
7.72942
0.0199792
0.0236889
7.87042
0.00585413
7.89858
7.38841
-0.187574
0.0437272
-0.0310334
7.6123
0.0226156
7.23
-0.0225533
7.6144
7.8726
7.61313
6.98896
0.0415365
0.0316368
7.87381
-0.772108
7.88212
7.89518
7.8818
7.87354
-0.0248943
-0.0393131
0.0333531
-0.01902
7.83218
0.0122904
0.0137519
0.0370447
-0.0309568
7.66496
0.0278747
0.000190238
-0.00388885
-0.431318
0.0231631
7.92449
-0.0129171
-0.0238037
0.0234693
-0.0232884
-0.0470576
7.90325
-0.0399925
7.77963
7.87602
0.0212807
7.87914
0.0267227
7.86938
7.93958
7.55224
7.88011
7.87282
-0.0467616
7.87877
-0.0135319
7.19679
7.61895
0.0224434
-0.00219778
0.0303313
-0.0156239
7.8897
0.696994
7.87392
-0.019328
7.94086
0.0159122
-0.0277179
-0.0163178
-0.00403793
7.97132
7.97826
7.88064
0.0289407
7.62987
7.86624
0.0245381
7.60543
7.61257
0.00163466
7.97114
0.00940904
-0.438068
7.14674
7.50073
7.43919
0.0116644
0.0137413
7.87266
0.00748052
-0.0110721
6.98934
-0.0208888
7.87022
0.0209465
0.0233533
0.0399366
7.87489
0.0128261
0.0205085
-0.0279775
-0.00252171
0.00845691
7.87399
7.87221
-0.104484
7.86845
7.61169
7.86993
0.014521
-0.0177628
0.0188221
-0.0354072
6.86923
-0.0025484
0.0168719
0.0128395
-0.0590578
0.0196221
-0.0173296
0.0135849
7.61371
7.61409
7.61385
0.0328389
7.61573
-0.0322632
5.24462
0.00365987
-0.560877
0.00829139
0.0134731
7.61224
7.8727
0.0046639
0.00396093
7.88686
7.608
7.87314
0.0112691
0.00624408
0.00333312
0.00888685
0.029617
0.015285
7.87366
7.87288
7.87164
0.039869
0.00665667
0.00254384
0.0167659
0.0332225
0.00484939
7.84984
7.87185
6.34016
7.65681
0.0244531
0.0283396
7.86752
7.90671
7.86801
7.87488
7.83576
7.71783
-0.00560895
7.87485
-0.0493653
-0.117035
7.62063
0.000193405
0.026844
0.0219465
7.91741
7.76394
-0.00455869
7.87267
-0.00647861
-1.20749
0.0192005
7.66782
5.95594
7.61343
7.87706
7.86879
7.60594
2.09863
7.88685
0.00929042
-0.0032413
7.87498
7.87245
-0.0084654
7.8792
7.61543
0.0130269
-0.202585
7.86235
7.8629
7.67554
0.0423532
7.8722
7.87191
1.1633
-0.0236537
-0.00949722
7.87241
7.62
7.20822
-0.0140061
-0.009219
-0.0114401
0.0065868
7.6138
0.0530777
0.0130039
-0.000561588
7.55966
7.8687
7.87169
7.82452
7.87237
0.0243395
0.0205983
0.00215737
7.88917
7.87216
7.87196
7.86929
7.68726
-0.0390221
0.110257
0.0196682
7.61712
7.87284
7.92613
-1.00668
-0.0407687
-0.0696444
7.61325
-1.95074
8.25733
7.83964
7.87122
0.0232922
0.0352313
7.87531
7.90782
0.0125121
7.87325
0.0138515
0.0293216
2.7246
7.87112
7.66322
0.023106
-0.0603667
7.91172
2.53022
0.0545638
0.0325592
7.8742
7.87716
7.88158
7.88095
0.0262931
0.0267341
7.87746
-0.0502978
-0.0129361
0.203171
7.87287
7.87232
7.87378
7.87775
0.0100474
8.38348
7.87408
7.76891
0.0245561
-0.00792316
0.0296186
7.84642
7.87146
-0.0191184
7.62606
7.87269
7.87532
7.87441
0.0207256
7.69672
7.59865
7.61627
0.0203796
0.0270392
7.86971
7.87374
7.85615
0.0161302
8.15125
7.87884
7.85819
7.87375
7.87334
-0.199764
0.0239036
7.9138
0.0214846
0.016187
0.020935
7.87777
7.87438
7.87408
7.83313
7.61355
0.0322871
7.87379
7.37874
7.33385
-0.0162495
7.65344
-0.0241138
7.87211
7.6172
-0.0153162
0.29011
7.03375
-0.00498291
7.87514
-0.00924082
8.1245
7.89219
7.92306
9.10671
7.88063
-0.0367693
7.87107
0.0104268
7.61689
6.93538
7.87907
7.86838
0.0146565
0.0340088
7.61366
2.64532
7.61253
-0.073005
-0.040338
0.011674
7.61719
-0.350341
-0.0227906
-0.0492249
0.0239251
-0.624771
-0.0289755
7.59404
7.61368
-0.748956
0.0221472
-0.00107861
7.91041
7.51585
6.372
3.25485
7.87368
7.61864
7.87422
7.87443
7.87507
8.30236
0.0355458
-0.0727311
0.0303073
6.96826
-0.0928767
7.8738
0.0108483
7.87155
7.87985
7.61515
7.71373
-0.104781
7.69392
7.60918
7.87257
0.0173337
7.87105
7.87207
-0.0553235
7.82883
5.7513
4.927
4.58839
7.87596
4.80854
4.64924
4.75976
5.45972
7.61343
7.61377
0.0114641
-0.0126742
6.9581
7.13982
7.60965
0.00664313
8.19167
7.71339
-0.100829
7.87536
7.87269
-0.0366544
-0.0872503
7.83741
7.61469
-0.0315613
7.03432
7.60651
-0.404469
0.00778875
0.0521572
7.81298
0.0225189
7.87413
0.01555
-0.394414
0.0172109
7.87305
-0.389002
0.0218166
7.96768
-1.04101
7.86524
0.0208612
7.53194
0.0278276
7.80511
-0.0471598
7.8744
7.57361
7.61613
-1.47076
-1.4788
7.88516
0.0105145
0.0125861
7.91837
7.87268
-0.00475235
0.0215533
-0.12266
7.87957
0.0158138
0.0102962
-0.0514446
-0.852248
7.87522
-0.170518
7.62249
-0.150815
7.87161
-1.73508
-2.01175
7.85364
0.022321
7.67613
-0.0440027
7.61287
7.85782
7.88618
7.89025
7.85155
7.85885
-0.00130342
0.0291184
-0.154798
7.88273
6.34937
-0.142662
7.88098
7.82841
7.90637
7.86592
7.90575
0.0229215
7.87313
7.87387
7.6135
0.0159839
7.85878
7.61427
7.54232
0.0368283
7.61487
0.00870467
-0.784705
-0.0514588
0.0343869
-0.0151996
8.22208
7.87832
7.87144
0.0695878
0.0309509
7.54353
6.31368
0.0105225
7.87232
7.87498
-0.132527
7.86436
0.0168386
7.8755
-0.0122823
-0.0550295
7.88168
7.61306
7.87505
7.87449
7.87009
-0.0240611
7.87171
0.0117798
7.9443
7.87555
0.0245266
7.60862
0.00860112
7.77586
7.87199
-0.0117005
0.0314621
-0.118082
7.8735
7.87387
7.87294
0.0300095
-0.0868537
7.95209
7.6131
7.6438
0.0136978
7.86674
0.0152769
-0.133895
7.87226
7.86892
0.0225287
7.8663
7.6437
7.61499
7.95988
7.61528
-0.15198
6.21755
7.63858
7.8729
6.38104
7.86856
6.60268
7.84777
7.86764
7.72984
0.0183002
7.78962
0.0119948
7.8615
7.86787
-0.0547106
0.00617483
7.86322
7.8265
7.87502
0.0268096
6.70177
7.87435
7.73414
7.87121
0.0195339
7.86462
-0.17889
7.87352
-0.00894258
6.91811
-0.0259444
7.89025
7.87009
0.00621946
6.54454
7.88061
0.0291113
-0.00723007
7.89192
7.87455
-0.0171164
-0.0558285
0.0211109
0.0177764
0.00760332
-0.00679725
0.0228803
-0.0380652
7.94951
-0.189017
6.25785
6.1434
7.87391
7.87235
7.87046
0.0357228
7.87411
7.86711
7.87435
-0.121375
-0.0421264
5.94931
-0.0376044
7.87522
-0.0186359
7.6117
-0.0589799
0.0235403
6.33153
0.00344212
7.86704
7.84684
7.61441
0.0426114
-0.0102407
7.87312
7.61482
0.0321419
7.87332
-0.130881
7.91444
-0.0815081
7.87187
7.61489
7.85202
7.61375
0.0249349
7.61397
0.275489
7.61702
-0.00516251
7.87305
7.86957
4.31236
3.98722
7.89144
7.86995
7.87224
7.8725
-0.00581452
-0.141487
5.21226
7.8764
0.0017091
7.61215
7.6246
-0.429177
0.0133357
-0.0669092
7.61504
0.0260102
-0.0200372
0.0259577
0.0155646
7.87241
7.8746
7.87882
7.87546
7.61484
7.6137
7.61443
7.84132
7.61536
7.61463
7.87217
7.61432
-0.107516
7.61366
7.87324
8.61599
7.87382
7.87337
2.70555
7.61359
7.87235
-0.00444288
-0.0971538
7.84965
7.85079
7.87283
0.0189141
7.6498
7.8601
-0.108551
7.6156
7.8739
7.86836
7.87589
-0.0450477
7.61387
-0.172564
7.87618
7.85584
7.87192
7.8726
7.87058
-0.108374
-0.140819
0.0215912
7.87405
7.6373
7.90872
-0.124647
7.87294
-0.130706
-0.0840458
7.6124
7.84495
5.9396
-0.403941
7.85634
7.01635
-0.39098
6.01792
-0.00938538
7.6473
-0.038567
5.98486
5.6121
7.87195
0.000870483
7.61553
-0.0125206
-0.054592
7.88219
-0.000107477
-0.282471
7.87008
-0.0675643
7.61619
7.85738
7.86616
7.85334
7.86863
7.61219
7.87285
7.8713
-0.151391
7.10644
7.87285
7.86975
7.87188
7.87596
0.0197433
4.04031
-0.130924
-0.303908
7.87215
0.015181
0.00434261
7.87272
6.994
7.78862
7.86323
7.90038
7.96358
6.43223
7.16527
-0.0336025
7.87466
7.87716
6.0987
6.63893
7.61362
-0.00582163
7.88154
7.62771
7.87388
-0.0784775
7.87575
7.61353
-0.0149522
7.6145
7.57592
7.76483
7.91941
-0.014913
7.87393
7.87246
7.87243
7.84441
-0.0141022
-0.0646527
-0.0556176
-0.00211227
-0.0294723
-0.0378889
7.61531
6.54305
-0.161411
-0.0313629
6.53316
-0.149859
7.86795
-1.08902
7.63557
-0.088061
7.87486
7.61829
-0.0302176
-1.38506
7.87775
-0.0316258
7.87615
7.8759
-0.0944669
-0.0543402
7.87194
7.6141
7.9182
7.6137
7.86997
6.8607
7.87321
7.87159
-0.0319323
7.87274
7.86827
7.87137
-0.023055
7.88497
6.90285
7.6146
7.61377
7.29935
6.92132
-0.0246247
7.61769
6.92998
0.00629999
7.86577
-0.041168
-0.024153
7.87489
0.00101304
7.8711
7.4552
7.93446
6.78453
7.61733
7.85071
7.86458
7.87515
0.0208845
7.87427
7.87285
7.87092
7.73513
7.87218
7.78584
-0.117008
7.87211
7.87674
-0.0680627
7.87327
7.61479
7.6148
0.0326627
7.87484
-0.161937
6.70315
-0.384196
0.0156781
7.61093
6.53791
0.00875722
6.26744
7.61499
-0.196153
-0.377751
-0.00269869
-0.0559131
-0.259953
-1.17041
7.63948
7.61895
0.00946407
-0.100217
-0.0827906
0.018269
-0.396558
7.61312
0.0196982
-0.000472762
0.00597227
7.61816
0.00857081
0.0223254
0.0235197
0.00519697
-0.122095
0.0159256
0.0423612
-0.00360303
0.0137177
0.0266063
0.0118682
6.91661
0.0919037
0.00622587
-0.000945369
-0.0238385
0.0236134
0.0135089
0.015566
7.07677
-0.113587
7.02538
0.0351034
0.011633
-0.0491137
0.00346668
7.01445
7.61223
0.0130021
0.0160124
-0.126467
-0.0629747
0.0249081
0.000205364
4.82727
0.00986269
7.8721
-0.000942877
-0.112048
-0.0470343
0.0306768
-0.13962
-0.175131
-0.0024327
0.00623011
-0.0019223
0.0318763
0.00248971
0.123457
6.13955
5.39998
0.00265873
7.87691
7.8728
0.00217083
0.0227639
0.023344
7.87411
-0.0715062
-0.0553831
0.0182447
5.5848
7.87159
-0.213422
0.00839291
-0.1187
7.87477
0.0293531
7.87175
0.00855832
-0.00405942
-0.0454131
-0.044891
7.87269
7.87405
-0.0362663
0.0133502
0.0282209
7.86548
0.00857105
0.0282573
-0.0252997
7.62197
0.03079
0.0488837
7.0072
0.0226027
-1.50319
-0.104952
7.58156
-0.0614448
-0.100205
7.87198
0.00398382
0.017899
1.39034
-0.0127104
0.00969185
0.022915
0.0222997
-0.0334343
-0.0230295
-0.235665
-0.109551
0.0332118
0.0222765
-0.0138866
-0.169993
0.0215255
-0.0190866
0.0600549
0.0151784
-0.159333
0.0402643
7.872
-0.0016577
-0.0116311
-0.104984
0.0381324
-0.0397651
7.64076
-0.00377107
0.0245157
7.86737
-0.0736488
-0.00715948
-0.00390604
0.00319875
0.0227096
-0.0442737
0.0135102
-0.0162988
-0.052705
7.87159
7.87235
-0.0483473
7.61926
-0.0452067
-0.00362713
7.70694
0.0224735
-0.0189554
0.0407628
7.87095
0.0260884
0.0117449
-0.0618349
-0.142897
0.0211628
0.044641
0.00921254
-0.00807656
7.87228
7.85597
-0.0953921
-0.0310013
-0.0577719
0.0214957
7.85565
-0.0320458
0.0166106
7.70756
0.00138385
0.0118599
-0.083519
-0.223663
-0.0297196
-0.0377922
0.0387955
-0.00484074
7.62422
0.00427198
0.00379621
0.000999663
-0.200851
7.85683
-0.0208616
8.01343
7.87326
0.0128031
-0.0114202
0.0060509
0.126128
-0.117046
1.48144
7.61664
-0.0304365
0.0267034
0.0667049
0.010003
7.88009
7.61701
7.6065
-0.00104985
0.00390227
-0.2281
0.0252836
7.62805
7.8601
-0.0087396
0.00661442
-0.0419537
0.0142723
0.00924055
0.0303199
-0.0490985
4.37193
7.61331
-0.00326208
0.0232313
7.8596
-0.00333279
0.0258328
-0.0728076
0.0117187
0.0105853
-0.0409333
7.85978
0.0268231
0.00707446
7.61761
7.64442
0.0292842
0.0796305
0.0151304
0.0211119
0.019122
0.0140194
0.0338145
0.0300458
0.0246134
0.0141384
7.8556
7.84807
0.00993067
0.0310097
0.0182701
-0.098695
0.0218527
-0.00220745
-0.000862814
0.0245691
0.0180023
7.61658
7.62485
-0.112276
7.85436
6.86342
0.0140891
0.0210266
0.0017341
-0.094881
7.16301
-0.0337847
-0.0801259
7.29403
-0.101532
-0.207608
0.0212578
0.0234524
0.0201152
0.0281739
-0.144133
0.0209386
7.8727
7.23689
-0.0790114
0.0286743
0.00570935
0.0264146
-0.107275
-0.0316082
-0.109249
7.263
0.0263338
0.0531438
0.0151805
-0.122222
-0.0358907
-0.0944786
-0.202089
0.00410675
0.0228095
7.15461
-0.00309819
0.0279135
2.78824
6.79003
6.23815
0.0387252
6.6344
0.0137645
0.024411
0.00623641
0.0244458
-0.107289
5.04448
3.04368
8.06002
6.72966
-0.0464601
7.61364
7.61336
-1.28616
7.8703
0.0286294
0.0123923
0.0168942
0.0229621
0.0235469
0.00661893
6.26892
0.0232126
0.0255962
-0.0301132
0.0157341
0.0352079
0.0145954
7.61382
-0.203636
0.0302362
-0.0950341
7.61377
-0.00761632
-0.00436546
7.61365
7.86494
-0.07953
0.0195436
7.90793
0.0134322
0.017343
-0.0828854
7.87306
7.61367
0.0206634
-0.207609
0.0239592
7.6138
7.59955
7.61377
0.00023095
2.54955
2.32162
-0.00124645
-0.368077
7.88058
0.0271067
-0.345044
0.0193898
0.0237646
0.00735475
0.0187211
-0.500782
0.0284868
7.66478
0.0112638
0.0400723
0.0181172
0.0208013
0.0143104
0.0353746
0.0175112
0.0100017
0.0301415
-0.0614663
-0.385362
0.0128988
-0.0840833
-0.13211
-0.456589
0.010046
-0.370022
0.019761
0.0306058
0.0223985
0.0396069
-0.0526506
0.0346852
-0.376111
0.0233297
7.47055
0.0114178
3.81199
0.0144441
-0.00515903
7.61831
-0.0153507
7.47004
-0.00310443
7.49807
7.90491
0.0440741
-0.0260334
6.84653
0.0230903
0.0205866
-0.0226853
7.86091
7.87357
0.0159232
0.00118228
-0.179088
0.0164276
0.0324408
-0.023392
-0.0638446
-0.00698685
-0.0161705
6.50788
0.0107518
7.61349
7.80754
0.0312408
0.0303014
-0.0959861
0.0304967
0.0323052
-0.00848553
-0.0218703
7.78238
-0.110998
0.0221411
-0.0113705
7.79525
7.87946
0.0108057
-0.000496328
6.16087
-0.0418279
0.0292306
0.0016292
-0.135383
0.0329358
0.0234978
7.86427
4.5733
0.0220974
-0.0735104
7.68234
0.0402513
-0.0481064
-0.0121063
-0.11823
0.0170712
-0.148539
0.0105223
-0.0379553
4.83347
-0.0477369
7.87398
0.000905608
-0.0190872
0.0314478
0.00974647
6.57312
0.0145809
-0.0794411
-0.012765
-0.108479
7.42308
7.61385
0.0298165
-0.0728142
-0.00314506
0.00522075
-0.0417257
0.0218829
-0.00231108
0.0095302
0.0416258
0.0265194
-0.0494666
7.03247
-0.127296
-0.0216926
-0.000768641
-0.0390654
7.22809
7.61314
-2.38671
-0.114993
8.15407
-0.141379
-0.0236055
7.37143
4.998
5.45736
-0.0436519
0.0241815
0.17612
5.84038
-0.0762749
0.0316464
7.61712
0.227076
6.88685
-0.0123843
0.0222124
7.64772
-0.028588
-0.0253572
-0.0292071
0.0273924
7.61306
-0.267997
-0.0396857
-0.0764584
-0.0196439
-0.0191559
-0.0394864
-0.00829469
-0.175084
-0.02206
0.0217871
0.0236406
7.87273
6.44604
6.55669
7.72801
-0.029939
0.0259452
0.0316504
-0.0633714
0.0210647
0.0297493
-0.0055258
-0.0192477
-0.0154862
0.0236747
-0.0135211
-0.0852246
0.00391508
0.0255888
7.8731
-0.0417609
-0.060326
-0.0161147
-0.0094855
7.61101
0.00227132
0.00466955
0.0364291
0.00372776
0.0136618
7.63244
0.0245496
0.0137773
6.87888
0.0248215
-0.0086854
7.72192
-0.000344873
7.71332
7.61279
0.0035508
-0.0608247
-0.00539688
0.0150087
7.61618
0.0347054
-0.0378945
7.61715
0.0295981
0.0133474
0.0189349
-0.01179
7.75302
-0.0317241
-0.02631
0.0106322
7.69595
0.0463782
0.0205703
-0.00169166
0.0272119
0.0135321
7.90084
7.45389
7.05956
0.0267925
7.19056
0.0291412
0.015948
0.0250699
7.83567
0.0214919
7.65617
7.87368
7.80942
0.0137553
-0.012615
-0.208491
0.00398562
0.0351886
7.51663
6.88389
-0.0404307
-0.0447741
0.0368854
-0.16569
0.0256052
-0.401175
7.87594
5.73674
5.84991
7.61247
5.92499
0.0181295
7.8725