/*--------------------------------*- C++ -*----------------------------------*\
  =========                 |
  \\      /  F ield         | OpenFOAM: The Open Source CFD Toolbox
   \\    /   O peration     | Website:  https://openfoam.org
    \\  /    A nd           | Version:  10
     \\/     M anipulation  |
\*---------------------------------------------------------------------------*/
FoamFile
{
    format      ascii;
    class       surfaceScalarField;
    location    "20.5";
    object      phi;
}
// * * * * * * * * * * * * * * * * * * * * * * * * * * * * * * * * * * * * * //

dimensions      [0 3 -1 0 0 0 0];

internalField   nonuniform List<scalar> 
214403
(
-0.0034062
0.00261202
0.000144462
0.000649716
-0.0016938
-0.00570638
0.000484293
0.00691588
-0.00520169
3.5003e-05
-7.2031e-05
0.00523872
0.0044803
-0.00301272
-0.00750995
0.00604237
0.00623733
-0.00788456
0.0018798
-0.000232571
-0.00274817
0.00286207
-2.71759e-05
-8.67217e-05
-0.000432176
-0.000821777
-0.00468087
0.00593482
-0.00866407
0.00492589
-0.00129609
0.00503427
-0.0118073
0.00833459
0.00841427
-0.0049416
0.00722289
0.000856511
-0.00807055
-8.84568e-06
0.00255768
-0.00506471
0.00104081
0.00146622
-0.00525134
0.00165295
0.00271957
0.000878821
0.000242537
-0.00580589
0.00699062
-0.00142726
-0.00507093
0.00510517
-3.42368e-05
0.000973565
0.00606158
-0.00776686
0.000731717
-0.0061474
0.00514111
0.00155722
-0.000550934
-0.00618182
0.00603375
0.000148071
0.00199786
4.22631e-06
-0.000537168
-0.00146492
0.00795691
-0.0047628
-0.0105798
0.00738574
-3.84563e-05
-0.00157703
4.56554e-05
0.00156984
0.00325039
-0.00317348
-7.69126e-05
-0.00629837
-0.00217903
0.00216685
0.00631056
-0.00115961
0.00692052
-0.00557874
-0.000182174
0.00342388
0.000361116
0.00119609
-0.00498109
-0.00523045
-0.00249793
0.00676365
0.000964725
0.00464925
-0.00588819
3.65599e-05
0.00120238
0.00164273
-0.00143359
0.00536957
-0.00557871
0.00387983
0.00507379
-0.00611385
-0.00283976
0.00567321
-0.00355918
-0.000160839
-0.00195319
-0.00296985
0.00302699
-5.71384e-05
0.00124797
-0.00258958
0.00688528
-0.00554367
0.00719813
0.000340369
-0.00125666
-0.00628184
-0.00285186
-0.0029277
0.00299855
0.00278101
-0.000612708
-0.00345427
0.00305941
0.00100757
0.00226712
-0.00159262
-0.00480652
0.00413202
-0.000874328
0.00436156
-0.00157575
-0.00191148
0.00814942
-0.00018957
-0.00795985
-0.00351419
0.00685446
-0.00334026
0.000632151
-0.00751071
0.00434818
0.00253038
0.00125101
-0.000502643
0.00305849
-0.00380687
0.00291802
-3.09941e-05
-0.00288702
0.00520747
-0.000110451
0.000920497
-0.00601752
-0.00661988
0.000830099
0.00704079
0.000436625
0.000451067
0.00437819
-0.00526588
-0.00207646
-0.013655
0.013228
0.00250353
0.0028803
0.000523104
0.000649246
-0.00405265
0.00214917
0.00163504
-0.00525896
0.00147475
0.00680552
0.0040794
-0.00746104
0.000614978
0.00575956
-0.00116707
0.00091959
-0.00344098
-0.00202918
0.00455058
0.00157141
0.00241726
0.00071836
-0.00470703
0.000944438
-0.000708653
-0.00218804
0.00195226
0.00347989
-0.00629628
0.0043878
0.0060442
-0.00569046
-0.00195361
0.00159987
0.0053838
-0.000984319
-0.0043668
0.00591992
-0.00025127
-0.00130185
0.0045005
-0.00575448
6.4459e-05
0.00118952
-0.00423427
0.000279948
0.00676646
-0.00281214
-0.00780057
-0.00732552
0.00615366
0.00897243
-0.00416651
0.00419173
0.000824889
-0.000850108
0.000655141
-0.0053243
-0.0043344
-8.95876e-05
0.00225261
0.00217137
-0.00684427
0.00293582
0.00443222
-0.000523767
0.00799607
-0.00643789
0.000409945
-0.00196812
0.000367252
0.000134322
-0.00530506
0.00480348
0.000263062
-0.00145064
0.00716337
-0.00597579
-0.0176707
0.00182886
0.0019412
0.0139006
-0.0016307
0.00480862
-0.00152732
-0.00165059
0.00236813
-0.0012439
-0.00505809
0.00393386
0.000565964
0.00352938
-0.00448733
0.000391984
-9.13076e-05
0.00432205
0.00149919
-0.00572993
-0.000863298
-0.000138538
-0.00178094
0.00278278
-0.00456725
0.0049914
-0.000189476
-0.000234675
0.000160017
-0.00463615
-0.00321945
0.00285171
0.000865175
-0.00049743
-0.00861133
-0.00053803
0.00420014
0.00494921
-0.00261368
-0.00111354
0.00222401
0.00150321
0.00381883
-0.0128095
0.00177558
0.00721504
-0.00200747
0.0040407
-0.00220676
0.000173526
0.00290279
-0.00225232
0.000288812
-0.000939283
6.81297e-05
-0.00539875
0.00533062
1.57834e-05
0.00439075
-0.00440654
0.00388739
-0.000760122
0.000514956
-0.00364223
-0.00230017
0.0032808
0.00108826
-0.00206889
-0.00163206
0.00694235
-0.00166848
-0.00364181
0.00327685
-0.00558505
-0.000214241
0.00252245
0.00375318
0.00398344
-0.00773662
0.00553479
-0.00622108
0.00159428
-0.000907986
0.000532658
-0.000998022
0.00723005
-0.00676469
0.00020962
-0.00117369
0.00521613
-0.00425206
0.00123747
0.0108909
0.00313221
-0.0152606
-0.00950792
0.00836717
0.00542048
-0.00427973
0.000437979
0.00335394
-0.00450975
0.000717829
0.00445211
0.00494884
-0.00162297
-0.00777799
0.00824782
-0.00501115
-0.000164992
-0.00307168
0.000359223
-0.00105217
-0.00330322
0.00399617
-0.00334798
1.93612e-05
0.00332861
0.00501521
0.000173725
0.000345854
0.00623351
0.000529753
-0.00946337
0.00270011
-0.00499582
0.00110207
0.00088802
0.00300572
-0.00315441
0.000782075
0.000387608
0.00198472
0.000776382
0.000556791
-0.00658824
0.00525506
-0.00135947
-0.00790972
0.00504256
0.00422663
0.00315381
-0.0037294
-0.00243189
0.00300749
0.00511316
-5.63059e-05
-0.00511283
5.59769e-05
0.00392636
-0.00553863
-0.00193561
0.00354788
0.010148
-0.00306979
-0.00158128
-0.00549697
0.00574621
-6.87732e-06
-0.00528967
-0.000449667
-0.00288672
0.00339905
0.00708205
-0.00759438
0.00619106
-0.00216755
-0.00595641
0.0019329
0.00113877
-0.0016617
0.00723401
-0.00671107
-0.00819753
0.00747512
0.00707922
-0.00635681
0.000369479
-0.00636857
0.00245798
0.00354111
0.00797074
-0.000422451
-0.000162003
-0.00738629
0.00558885
-0.00109083
0.00108047
-0.00557848
-0.00653342
-0.00593852
0.00703029
0.00544165
-0.0012283
0.00352719
0.000955614
-0.0032545
-0.00279922
0.0001525
0.00542653
-0.00277981
-0.000621519
0.00701366
-0.00652954
0.000137394
-0.00599796
0.00556989
0.0010847
-0.00065663
-0.000199265
-0.00349963
0.00834815
0.00111845
-0.00373007
-0.00271985
0.00533147
-0.00296969
3.96968e-05
0.00292999
0.000908304
0.00413149
-0.00382159
-0.0012182
0.00657003
-0.00378823
-0.0010076
-0.00177419
4.18765e-05
-0.0019234
0.00188152
-0.00371206
-0.00099861
0.00139074
0.00331993
0.000380878
0.00210135
-0.00471467
0.00223245
0.00798191
-0.000720621
0.00312012
-0.0103814
0.000578108
-0.000709929
-0.00972923
0.00986105
0.000632387
-0.00277519
-0.00369028
0.00583308
0.000233084
0.00506395
-0.000281821
2.05079e-05
-0.00296732
0.00294682
0.00619082
-0.00229095
-0.00278143
-0.00375594
0.00314031
-0.00309643
0.00680392
-0.00566301
-0.00068509
-0.000455819
0.000684503
-0.00323734
0.00141502
0.00113782
-0.00556546
-0.00168449
0.00113048
0.00611947
0.00462516
-0.00752291
0.0049884
-0.00209064
-0.000203921
0.00679966
-0.00680988
0.000214148
-2.22182e-05
0.0062001
-0.00614579
-3.20911e-05
-0.00866336
0.00691075
-0.00554587
0.00729849
0.00722371
-0.00698617
-0.000237539
-0.00659498
0.00883308
-0.00161728
-0.000620816
-0.00589202
0.00141641
-0.000443376
0.00491899
-0.00972727
0.000744078
0.00626398
0.00271921
0.00173329
-0.00236722
0.00131843
-0.00236763
0.00269221
0.00433196
-0.00465654
-0.00259681
-0.00116522
0.00148545
0.00227658
-0.00350042
0.00229125
-0.00442644
0.0056356
0.00105249
8.62349e-05
-0.00773371
-0.00344179
0.00343436
7.42865e-06
0.00379318
-0.00364701
-0.000146172
-0.00569829
-0.00037312
-0.0015154
0.00140829
-0.00750302
0.00873656
-0.00264182
0.00337481
0.0058089
-0.00738548
-0.00179823
0.00644501
-0.00700049
0.000187693
0.00036778
0.00344031
0.000896563
-0.00355766
-0.000779212
-0.00543453
-0.0002996
0.00714242
0.00311177
-0.000225473
-0.00379292
0.000906619
0.00350281
-0.00299896
0.00345444
-0.00395829
-0.00613586
0.00115276
0.00835791
-0.00207438
-0.00291055
0.0096051
-0.00462017
-0.00296512
-0.00326147
0.000792056
0.000883238
0.00234171
-0.00619007
-0.00420977
-0.000370806
0.00676208
-0.00218151
0.000652244
0.00103305
0.00374059
-0.00542589
-0.00200479
0.00490744
-0.00290265
0.00158324
-0.00758919
0.00274449
0.0045166
0.00315749
-0.00679085
-0.00641598
7.74856e-05
0.00799536
-0.00165687
0.00107641
0.000920543
0.00288096
-0.00487792
0.00431348
-0.00434479
3.13086e-05
0.00162367
-0.000612856
0.00544915
-0.00645996
0.00568679
-0.00180156
0.00273369
-0.00661892
0.0104329
-0.00334993
0.00778271
-0.0148656
0.00172043
0.00319683
-0.00133149
-0.00358577
-0.00470089
0.00193167
0.00246797
0.000301258
0.00338749
-0.00255322
-6.94039e-05
-0.000764866
-0.00220451
-0.00279869
0.00814607
-0.00314287
-0.00377925
0.00490278
0.00195868
-0.00308222
0.00568615
-0.000310543
-0.0018728
-0.0088903
0.00587823
-0.000488348
-0.00846041
0.00780425
0.00362453
-0.00296837
0.00539602
-0.00608297
-0.000877602
0.00156454
0.00306364
-0.00552833
-0.00290195
-0.00314339
-0.00288624
0.00163039
0.00439924
-0.00449427
0.00139606
0.00443316
-0.00133496
0.00518694
-0.00493678
-0.00339556
0.0031454
3.13988e-05
-4.47979e-05
-0.00484819
0.00486159
0.000119341
-0.00429113
-0.000162263
0.00433405
-0.0012254
-0.00725474
0.00114095
-0.00420093
0.00377944
-0.000719459
-0.00287557
-0.00121289
-0.000405804
-9.81898e-05
0.00721817
0.000102911
-0.0171978
0.0120949
0.00874126
-0.00363839
-0.00508333
0.000346145
0.00018681
0.00455037
-0.00101033
0.016078
-0.018918
0.00385032
0.000799764
0.00123335
-0.00276869
0.000735576
-0.0108766
0.00585664
0.000757535
0.00426242
-0.000127176
-0.00723251
-0.00102827
0.00838795
-0.00301966
0.0108897
-0.00754467
-0.000325362
0.00488851
0.00710574
-0.00656653
-0.00542772
-0.00583046
0.00555758
0.00689793
-0.00662505
0.00225193
0.0031474
-0.00392001
-0.00147932
0.0022562
-0.00152263
-0.00360914
-0.0115748
-0.000455234
0.00945796
0.0025721
0.00338406
0.00051795
-0.00197035
0.00349664
0.00468039
-0.00432165
-0.00385539
-0.00577974
0.00128954
0.00564049
-0.00115029
0.0006872
0.00181465
0.00633123
-0.00673174
0.00664917
0.000642717
-0.000560146
0.00412921
0.00324155
-0.00292517
-0.000115575
-0.000822961
0.00386371
-0.00444876
-0.000886914
0.00247219
-0.00858043
0.00364592
0.00246231
0.00025996
0.00461437
-0.00512111
0.000246779
-0.00178562
0.000344946
-0.00165992
0.0031006
0.00716139
-0.00512021
0.000215011
-0.0040458
-0.00315929
0.00425776
0.00294733
0.0152804
-0.0163504
0.0053441
-0.00427416
-0.00292349
0.00363276
0.00146315
-0.00217242
-0.00671461
0.00291821
0.00585503
-0.00205863
-0.00291316
0.00423375
0.00543698
-0.00675758
0.00817597
-0.00316753
-0.00541481
0.00040637
0.000142286
-0.0019911
0.00484464
-0.00299583
-0.000842558
0.000835978
-0.0064094
0.0058658
0.00190681
-0.0062813
-0.00149131
0.00736776
-0.00604309
-0.00162427
0.00155614
0.00230128
-0.0054382
0.00158078
-0.00301558
-0.00553095
0.0049172
0.00362934
-0.000922586
-0.00239618
-0.000727035
0.00300125
-0.00320985
0.00690694
-0.00669835
0.000730069
-0.0084173
0.00768723
0.00287732
-0.00375848
0.00243729
0.00154482
0.000899197
0.00126784
-0.00371185
-0.00014797
-0.00699487
0.00714284
-0.00379327
0.000503099
-0.001231
0.00452117
-0.000456238
0.0052833
-0.00481577
-1.12954e-05
-0.00358891
-0.00190103
0.00207724
0.0034127
-0.00133727
-0.00317422
-0.00295404
-0.00433429
0.00361573
0.00367259
0.000155599
-0.00444691
0.00770297
-0.00316678
-0.000409861
-0.00412633
0.00406902
-0.000389642
-0.0029687
-0.000710676
-0.000656561
0.0057424
-0.00716962
0.00208378
0.00371396
0.000142086
0.00180814
-0.00566418
-0.00013576
-0.00305046
0.00147158
0.00171464
-0.00210735
0.00274173
0.00530154
-0.00593591
-0.00746746
-0.00194201
-0.0020946
0.00691393
-0.00636933
0.000149175
0.00199776
0.0042224
0.000613913
-0.0022599
-0.00403047
0.00567646
-0.00290743
-0.00567636
0.00143175
0.00715204
-0.00267674
-0.00296903
0.00309074
0.00255504
-0.00691372
0.00665404
0.00701255
-0.00675286
-0.000928244
-0.00162091
-0.00489504
0.00744419
-0.00668152
0.000690419
0.00680032
-0.000809221
-0.00116939
0.00314046
-0.00197106
-0.002712
0.00501122
-0.0037745
0.00147528
-0.000116765
0.00904845
-0.00335938
-0.0055723
-0.00323632
-0.00156463
0.0065009
-0.00169995
0.00104876
-0.0027458
0.00622828
-0.00453124
0.000283643
0.00402229
-0.000704661
-2.42785e-05
-0.00664228
0.00664139
2.51634e-05
0.00751542
-0.00133078
-0.0109851
0.00480048
-0.00694325
-0.000680059
0.00866885
-0.00104554
-0.0037725
0.0056991
0.000468357
-0.00239496
0.00337577
-0.00333564
-4.01243e-05
-0.00403074
0.000389449
-0.00347962
0.00712091
-0.00583962
0.00804715
-0.00167804
-0.000529496
0.00363206
-0.00152289
-0.00437801
0.00226885
-0.0070349
0.00709993
-6.50291e-05
0.00577168
-0.00839589
0.000681834
0.00194238
-0.00655966
-0.00179457
0.0112181
-0.00286385
0.00483052
-0.000203356
-0.00101458
-0.00361259
-0.00273493
-0.00467484
0.010411
-0.000496268
-0.00687946
0.00416588
0.010873
-0.0121294
-0.00115269
0.00240912
0.0028965
0.0013794
-0.00319948
-0.00304132
0.0031676
-0.000126279
-0.00123908
0.00692111
-0.000438611
-0.00524342
-0.00151007
0.00179125
0.00603201
-0.00631318
0.00392405
0.00921446
-0.00539183
-0.00774668
0.00670907
-0.00804908
0.00255877
-0.00121877
0.00614844
8.50184e-05
-0.00623346
0.00011223
0.00599121
-0.00610344
0.00672472
-0.00813874
0.0071857
7.82643e-05
-6.3152e-05
0.00523917
-0.00525428
0.000129742
0.00954281
-0.00950719
-0.000165361
-0.000812569
-0.00241233
-0.00487439
0.00809929
-0.00298204
-0.0017818
0.000598389
0.00564713
-0.00983753
0.00359201
-0.0047886
-0.00125567
0.00513407
0.000910197
-0.00562186
0.00620707
-0.00165914
0.00107394
0.000890068
0.00464001
-0.00157825
-0.00395182
-0.00228014
0.000577344
0.00384441
-0.00214161
-3.64264e-06
0.00171312
-0.00214474
0.000435255
-0.00240093
0.00586592
-0.00338014
-8.48539e-05
0.00176185
-0.00555317
-0.00324357
3.90216e-05
-0.00517951
0.00514048
-0.00190809
-0.00183026
0.000849765
0.00288858
0.00289856
-0.0016725
-0.00122606
0.00723331
-0.00718264
-0.00146624
0.00141557
-0.000658216
-0.00427295
0.00393882
0.00099234
-1.75509e-05
2.39513e-05
0.00385998
-0.00386638
0.00192172
-0.0015782
-0.00611018
0.00576666
0.00444398
-0.000114186
-0.00432979
-0.00653637
-0.00423008
0.00630617
0.00446028
0.00381043
0.00597987
-0.0102866
0.00362366
-0.00130336
0.00203958
-0.00435988
-0.00145073
0.00143287
-0.0079726
0.00799046
0.00226265
-0.00445599
-0.00433456
0.0065279
-0.00045577
-0.00102821
0.00484991
-0.00336593
0.00337784
-0.00415241
0.00150494
-0.000730371
0.00183303
-0.0030389
-0.0029372
0.00414307
-0.00595148
0.00670519
-0.00178855
0.00103484
0.00674895
0.0086883
-0.00956381
-0.00587344
-0.00524501
0.00522056
2.4452e-05
-0.000581426
0.00617181
-0.00771884
0.00212846
0.000238358
-0.000389364
-0.00593557
0.00608658
0.00585908
0.00024671
-0.00674163
0.000635844
-0.00247944
-0.00419069
0.00526994
0.0014002
-0.00598779
0.00848449
-0.00300528
0.000508585
-0.00249362
-0.00304143
0.00180498
-0.000369255
-6.16588e-05
-0.00427908
0.00471
-0.0139905
6.00681e-05
0.00125807
0.0126724
0.000554999
-0.00356681
-0.00184581
0.00485762
0.00871338
-0.000716446
-0.0028198
-0.00517714
-0.00156448
-0.00336905
0.000661474
0.00427205
0.00244688
-9.57274e-06
-0.00243731
0.00409292
0.00218103
-0.00135819
-0.00491575
0.00317254
-0.00251629
0.00626511
-0.00692136
0.00020667
0.00652412
-0.00215374
-0.00457705
0.00158089
0.00225379
0.00487871
-0.00314565
0.000218343
0.00292731
-0.00406563
0.000573405
0.00108038
0.000682305
-0.00563029
0.00386761
-0.0053013
0.00775739
0.00234993
0.00801854
-0.0017001
-0.00866837
-0.00509436
0.00500795
-0.0079218
0.0080082
-0.000770685
-0.0038612
0.00135082
0.00328107
-0.00424554
0.00799872
0.00236987
-0.0027591
0.000618918
-0.000229693
-0.00261092
-0.00834668
0.00261177
0.00834583
0.00549184
-0.00548136
-4.89263e-05
3.84446e-05
0.00442929
-0.00517304
0.00110261
-0.00035886
0.00113732
0.00444377
-0.00792194
0.00234085
1.96401e-05
0.00384339
-0.00386303
0.00247464
-0.0063499
0.00501258
-0.00239076
0.00642551
0.0054122
-0.00944695
0.00182725
-0.00186224
-0.00866148
0.00869647
-0.00260339
0.00431631
-0.00866339
0.00695047
-0.0062322
0.00496203
0.00650398
-0.00523381
-0.00391476
0.00536504
-0.00346631
0.00201603
-0.000817201
0.0035601
0.000578662
-0.00332156
0.00182165
-0.00265605
0.00273983
-0.00190544
0.00340518
0.00126793
0.00111971
-0.00579282
0.00975481
-0.00662782
-0.000397829
-0.00272916
-7.23116e-06
-0.00474384
0.00475107
0.00294913
-0.00431977
-0.0132407
0.0146114
-0.000594388
-0.00642129
-0.00194661
0.00896229
-0.000393409
-0.00297714
0.00337055
0.000902834
0.00427293
-0.000679209
-0.00449655
-0.00119849
-0.00432673
0.00349131
0.00203392
0.00331224
-0.00277351
-0.00487313
0.00849083
-0.00661058
0.00186571
0.00197612
-0.00384183
0.00640614
-0.000197055
-0.000779903
-0.00542918
-0.00122661
-0.0020861
0.00331271
0.00230447
0.00153138
0.012801
-0.0153934
-0.00544024
0.00803265
0.00197901
0.00421613
-0.00322466
-0.00297048
-0.00449581
0.00859556
0.00571807
-0.00981782
0.00505534
0.0017543
-0.000676894
-0.00613275
0.0084008
-0.00560177
0.00361543
-0.00641447
-0.00469951
0.00214677
-0.00588848
0.00844122
-0.00762873
0.013674
-0.00535724
-0.000688055
-0.000200562
-0.0032855
-0.00452086
0.00800691
0.00621268
0.00256465
-0.00728741
-0.00148991
0.00331408
-0.00883306
0.00557302
-5.40431e-05
-0.00782557
-0.000296589
0.00512051
0.00300166
-0.00157016
0.00405713
0.00176357
-0.00425053
-0.00099681
0.00399697
0.00321388
-0.00621405
-0.00814122
0.00418652
-0.00039872
0.00435342
0.000753302
-0.00223169
0.00442448
-0.00294609
0.00344514
-0.00172886
0.00122926
-0.00294553
0.00335494
0.000645549
0.000325902
-0.0043264
-0.00497266
0.00533602
0.00197535
-0.0023387
-0.00117041
0.00627413
0.00012712
-0.00523084
0.00505263
-0.00296535
-0.00195907
-0.000128209
0.00440833
3.5111e-05
-0.00444344
0.00321343
0.00248823
-0.000564143
-0.00513751
0.00149611
0.00395212
0.00338297
-0.0088312
-7.99208e-06
-0.00710046
0.00710846
-0.00370141
0.0143371
-0.0020911
-0.00854457
-7.13755e-05
0.00535543
-0.00528405
-0.00035771
-0.00386111
0.000694481
0.00352434
-0.00695851
0.00354733
0.00269064
0.000720545
0.00141778
0.00117959
-0.00813393
0.00553657
0.00417016
0.00658724
-0.00246203
-0.00829537
0.0062718
-0.00214465
-0.00600332
0.00187618
-0.00782815
0.00446178
0.0119414
-0.00857501
-1.96442e-05
0.0029839
-0.00298367
1.94189e-05
-0.00308974
0.00305762
3.21161e-05
-0.00797076
0.000122901
0.00335205
0.000887594
0.00192025
0.00525743
-0.00806527
0.00417527
-0.00496565
0.00320231
-0.00241193
-0.00396222
0.00347056
-0.000130939
0.000622596
-0.000832732
-0.00653207
0.00836346
-0.000998659
-0.00290877
0.00140037
0.00460648
-0.00309807
0.00506876
-0.00195506
0.000750093
-0.00386379
-0.00339183
-0.000592264
0.00397228
1.18168e-05
-0.000575505
-3.08228e-05
0.00546611
-0.00485978
0.000704092
-0.000590542
0.00551799
-0.00563154
-0.00496101
0.00692777
-0.00725677
0.00529001
2.58135e-05
-0.00625791
0.0062321
-0.00222164
0.000196604
0.00560185
-0.00357681
-0.00428427
0.00500869
-0.00683077
0.00610635
-0.00439496
0.000334962
0.00134015
-0.00202349
0.00549047
0.000306237
-0.00377322
-0.0014689
0.000205598
-0.00249263
-0.00215899
-0.00701837
0.00704965
0.00212771
-0.0031274
-0.000365196
-0.000787751
0.00428035
-0.0107005
0.00361331
0.00105308
0.00603414
-0.00341572
0.00777875
-0.00384763
-0.000515399
0.002383
0.00092985
-0.00478175
0.00468347
0.00477703
-0.00946049
0.000627467
0.0102453
-0.00238006
-0.00849269
-0.000128719
-0.000181745
-0.00449009
0.00480056
-0.00491079
0.0080902
-0.00326233
8.29089e-05
0.00466531
-0.0029466
-0.0042287
0.00250999
0.00115832
-0.000155408
0.00141775
0.00717024
0.00200054
-0.0103838
0.00121304
-0.0049708
-0.000648954
0.00162917
0.00399059
0.00189197
-0.0020911
-0.0028423
0.00862721
-0.00580447
0.00451205
-0.0073348
-0.000957728
0.00557482
-0.00964106
0.00502397
0.00335925
-0.00424279
-0.000430964
0.00131451
-0.00372301
-0.001297
-0.000125639
0.00514565
-0.00277548
-0.00262393
0.00539942
0.000692822
-0.00741434
0.00657919
0.000142331
0.00285451
-0.00275377
-0.00287622
-0.0046651
0.00591972
-0.00112495
-0.000129673
0.00666444
0.00183572
-0.00718396
-0.0013162
-0.00257154
-0.00377224
-0.0004351
0.00677888
0.00419088
-0.0012762
0.00485812
-0.00777279
-0.00470143
-0.000259574
-0.00564488
0.00302095
0.000726461
-0.00632725
0.0020246
0.00357618
0.00182963
-0.00655326
0.00360844
0.00111519
0.000983736
0.000255175
-0.00492717
0.00368826
0.000755338
0.00323236
-0.000216336
0.00549672
-0.00108602
-0.00419436
-0.00216023
-0.000217522
-0.00201394
0.00439169
-0.00127496
-0.00171684
0.00328286
-0.000291066
-0.00515443
-7.60242e-05
-0.00870647
0.00312632
0.00458334
0.0123221
-0.000101257
0.0016756
-0.0138965
-0.0053949
0.00837976
0.00170131
-0.00468617
-0.00154019
0.000844206
0.00531314
-0.00461715
0.000646229
0.00183651
-0.00141997
-0.00106277
-0.00927235
-0.00191941
0.00799764
0.00319412
0.000201179
0.00389183
-0.000780768
0.000118419
0.00197055
-0.00618572
0.00409675
-0.0038464
-1.39125e-05
0.00141786
0.00244246
-0.00521822
0.00644918
-0.00102979
0.00295162
-0.0026615
-0.000290117
-0.00437275
0.000628772
-0.00339219
0.00713617
-0.0019663
0.00296041
-0.00228165
0.00128755
-0.00422723
0.00476027
-0.0019668
0.00143376
0.00191166
-0.000315155
-0.00455808
0.00296157
-0.00188921
0.0118463
-0.0159449
-0.00174275
-0.00121602
0.00119036
0.00176842
0.0056654
-0.00884056
-0.000402627
0.00357779
-0.00240521
0.00179503
0.00309284
-0.00248266
-0.000710006
0.0037952
-0.00104846
-0.00203673
-0.00427451
0.000948716
0.000998366
0.00232743
-0.00236177
0.000203359
0.00215841
0.00550647
-0.00262127
-0.00279595
-8.92561e-05
0.000397988
0.00271633
-0.00412285
0.00100853
-0.00294956
-0.00357764
0.00364772
0.00287948
-0.00151518
0.00391142
-0.00335367
0.000957426
0.001422
-0.00269238
0.00185546
-0.000585078
0.00513645
0.00013583
-0.00527228
0.00441523
-0.00543361
0.00268849
-0.00167012
-0.00693804
-0.000197489
0.00713553
0.00286591
-0.00237659
0.000554664
-0.00104398
-0.00022159
0.0049198
-0.00537202
0.000673809
-0.00247775
0.00310135
0.000798396
-0.00271687
0.00582241
0.00537895
-0.00468072
0.0046413
3.94143e-05
9.58994e-05
-0.00742701
0.00733112
0.00994603
0.00120063
-0.00211668
-0.00902998
0.00208082
-0.00811051
-0.00100692
0.0070366
0.00158342
0.00187951
0.00105278
-0.00451572
-0.00278953
-0.00278895
3.8624e-05
0.00553985
-0.00133189
0.00182612
-0.00328376
-0.00614889
0.00110827
0.00807137
-0.00303075
-0.0120798
0.00884927
0.0038905
-0.000659985
0.00535354
4.47447e-05
-0.00539828
-0.0030131
-0.00405517
0.00262318
0.00444509
-0.00304477
-0.00442584
0.00132172
-0.0043913
0.00238738
0.00275926
0.00177231
-0.00232444
-0.00421499
0.00476712
-0.00301486
2.97944e-06
0.00301188
-0.00700784
0.00283225
0.00288072
0.00129487
0.00177114
-0.0047356
-0.00142684
0.00600476
-0.0019028
-0.000151661
-0.0039503
-0.00402209
0.00666547
0.00395498
-0.00659835
-0.00117402
-0.00246701
0.000899476
0.00274156
-0.00171024
-0.00137652
0.00308676
-0.00297373
-0.00624484
-0.00286121
0.00138316
1.89013e-05
0.0027912
-0.00419326
0.00570164
-0.00414891
-0.00600912
0.00445639
-0.00211425
0.000753598
0.00427314
-0.0029125
0.00403642
-0.00284187
-0.000400353
-0.000794196
-0.00463182
0.000751469
0.00361853
0.000261816
-0.00288438
0.00661017
-0.00713405
0.00278101
0.000206608
0.00414643
0.00667253
-0.00532544
-0.00419536
0.00284828
-0.005294
0.00110201
0.00989363
-0.00516405
-0.00340443
0.0055582
0.00301028
-0.000606595
0.00539024
-0.00204343
-0.00274021
0.000303353
-0.0031574
-0.00207922
0.00493326
0.00612815
-0.00404301
-0.000247972
-0.00183716
0.00188348
0.00140716
-0.00462252
-0.00128917
0.00146039
0.00359849
-0.00376971
-0.00106311
0.00555917
-0.00685288
0.00235682
-0.00331327
0.000798616
0.00080264
0.00171201
-0.00732178
0.00744345
-0.000121665
0.0050484
-0.00497439
-7.40069e-05
0.00202374
-0.00781335
-0.00300022
0.00878983
0.00179564
0.00341473
0.000794396
-8.70497e-05
0.00300567
-0.00291862
0.00478803
0.00429323
-0.00908127
-0.00533469
0.00325717
0.0023015
-0.000223987
-0.00299601
0.000987163
0.00243613
-0.000427279
-0.00889841
0.00415486
0.00487189
-0.000128333
-0.00290921
-0.00324019
0.00313455
0.00458178
-0.000721658
-0.00295305
-0.000907066
-0.00497246
0.00536557
-0.00327748
0.000859367
-0.00548038
-0.000280121
0.00490113
-6.22289e-06
-0.00269753
0.00270375
0.0133084
0.000107726
0.00141553
-0.0148317
-0.000497005
-0.000972792
-0.00717165
0.00864144
0.00231894
-0.00314075
-0.00146559
0.0022874
0.000891158
0.00690188
-0.00278197
-0.00501107
0.00753235
-0.00753672
-1.75646e-05
2.19403e-05
-0.00421404
-0.00380037
0.00594055
0.00207387
0.00246702
0.00189408
-0.00492026
0.000559164
3.36454e-05
0.00455932
-0.00465978
6.68148e-05
-0.00630074
0.0020163
0.00510569
-0.000821257
0.00485377
0.00293583
-0.00491424
-0.00287536
0.000112247
-0.00429265
0.00217892
-0.00112727
0.00648069
-0.00349226
-0.00045473
-0.000544924
0.00449192
-0.0058114
0.000319083
0.00549232
0.0084857
0.00367238
-0.00275492
-0.00940316
-0.00554446
0.000116757
0.00553995
-0.000511103
-0.0013322
-0.00339757
0.00524087
-0.000689466
-0.000659102
-0.00178347
0.00313203
0.0013992
-0.00708944
0.00534521
0.000345029
0.00441561
-0.000687879
-0.00429626
0.000568535
-0.00546716
0.00114926
0.000451532
0.00386637
-0.00207292
0.00135285
-0.00278557
0.00350563
0.00119362
0.000769112
-0.00705533
0.0050926
0.000245478
-0.00476832
-0.000331676
0.00485452
0.00473812
0.000619259
-8.06911e-05
-0.00527669
-0.00563555
0.00131134
0.00510059
-0.00406107
-0.00539517
0.00945624
0.00782434
-0.00398937
0.00167643
-0.00551141
0.000612981
0.00440476
-0.0026988
-0.00631484
0.00117286
0.00222637
0.00291561
0.00779692
-0.00803021
0.000233285
-0.00468614
-0.00159331
0.00328118
0.00299827
-0.00611331
-0.00474991
0.00318484
0.00767838
0.00641124
-0.00669514
-0.000819396
0.0011033
-0.000933425
0.00310978
-0.00244949
0.000273134
-0.00796351
0.0025992
0.0018287
0.00353561
-0.011746
0.014631
0.0024138
-0.00529881
0.00524244
-0.011372
-0.00057035
0.0066999
-0.00466952
0.00592094
-0.0109672
0.00971581
-0.00491502
0.0108464
0.00107353
-0.00700493
0.000431308
0.00511733
-0.00119625
-0.00435239
0.00780067
-0.0058535
-0.00019506
-0.00175211
-0.0013734
-0.00131962
0.00201615
0.000676876
-0.00370131
-0.00768543
0.00654755
0.00483919
-0.00523452
0.00697746
0.00605773
0.00421449
-0.00309886
-0.00385978
0.00274415
0.00157711
-0.00203997
-0.000901213
0.00136407
0.00349699
-0.00345975
-0.00460348
0.00456625
-0.00141456
0.00405743
-0.000293397
-0.00234947
-0.00559974
-0.000893455
0.00692451
-0.00424121
-0.00104251
0.00524306
4.06573e-05
0.00171643
-0.00383467
0.00211824
0.00137566
-0.00182605
0.00681056
-0.00636017
0.00532658
-0.00748723
0.00108347
0.00107718
0.00338291
-0.00364926
0.000266355
-0.00537705
0.000142529
0.00481123
-0.00183148
-0.00464117
0.00166142
0.00151193
0.00122656
0.00537004
-0.00810853
0.00329783
-0.00358019
0.000282362
-4.04423e-05
0.00419255
-0.00473971
0.000587605
-0.00589037
-0.000566719
0.00783276
-0.00255821
-0.00043735
0.000591687
0.00240388
0.000353304
-0.00291702
0.00215076
0.000412957
0.00478119
-0.00457837
-0.00113625
0.000545748
0.00786632
-0.0049546
-0.00345747
-0.00270852
0.00573704
-0.00302852
-0.00731337
0.00279926
-0.00171733
0.00623144
0.00574731
-0.00520371
-0.00850711
-0.00278954
-0.00334154
0.0114776
-0.00534647
-0.00823089
0.0052439
0.00747587
-0.00448888
-0.000180959
-0.00703825
0.00721921
0.0111342
2.18139e-05
-0.00641422
-0.00474176
0.00647685
-0.00417538
-0.00057743
-0.00172404
-0.00471458
0.00334944
-0.000850631
0.00221577
6.42131e-05
-0.00485066
0.00478644
-0.00356476
0.00366952
-0.000104756
-0.00257042
-0.00271337
-0.00695364
0.0122374
-0.00655715
0.00143157
-0.000729581
0.00585516
0.00151312
0.00245524
0.00674737
-0.00609148
-0.00503456
0.00437867
-0.00187096
-0.00385981
0.00425772
0.00147305
-0.00388199
-0.00197366
0.00586165
-5.99306e-06
0.00127182
-0.000732195
-0.00360291
0.00306328
0.00428297
0.000190479
-0.00547567
0.00100223
0.00132207
-0.000921099
0.00141161
-0.00170408
0.00169821
-0.00140574
0.0034991
0.00342804
-0.00349994
-0.0034272
0.00172722
0.00403804
-0.00417419
-0.00159107
0.00367567
0.00159279
-0.00288546
0.00452359
-0.00548601
0.0011529
-0.00601234
0.00420304
0.00226288
-0.000453577
0.00717897
-0.00237303
-0.00751446
-0.0019142
0.00509926
0.00256224
0.00497315
-0.00242322
-0.00419038
-0.00114087
-0.000681089
-0.00669331
0.00625861
0.000591196
-0.000156494
-0.000415772
0.00837132
-0.000867394
-0.00708816
-0.00546607
0.00111506
0.00243682
-0.000876777
-0.00556228
0.00156242
0.00487664
0.00499903
0.000696161
-1.76509e-05
-0.00567754
-0.0074687
-6.00455e-05
5.06716e-05
0.00747807
-0.00190968
0.00209649
-0.00339127
0.00320445
-0.00514926
0.00650824
-0.000669153
-0.00068983
0.00677382
-0.00632106
-0.00560203
-0.00499383
0.00450733
-0.00142928
0.00191578
0.00405946
-0.000183199
-0.00127615
-0.00260012
-0.00758052
0.00731244
0.00358029
-0.00331221
0.00356526
0.00135806
-0.000453173
-0.00447015
0.00130028
0.00329548
-0.00412135
-0.000474416
-0.00244329
0.0024577
-1.4411e-05
-0.00142702
-0.00364261
0.00365508
0.00548387
-0.00543409
-4.97861e-05
-0.00310423
-0.0024628
0.00242629
-0.000319559
-0.0037236
-0.000405267
0.00444843
-0.00041894
-0.0032208
0.0028812
0.000758542
0.00511291
-0.00581477
0.000701862
-0.00650645
0.00667081
0.00611739
-0.00628174
-0.00436861
0.00337336
-0.00229566
0.0032909
-0.00173819
0.000742664
0.00157385
-0.000578331
-0.00018228
0.00789114
-6.91204e-05
-0.00763974
-0.00396758
0.00192354
0.00195446
0.00226984
0.00288928
-0.00504101
-0.000118108
0.000218908
-0.00626968
-0.000245512
-0.00571802
0.00571603
1.99786e-06
-0.00382499
0.00192628
-0.0042146
0.00130265
-0.00288253
0.000114297
0.00249081
0.00108137
0.0037934
7.38267e-05
-0.00324455
-0.000622678
0.00317641
-0.00792685
0.0063554
-0.00160496
0.00130833
-0.00178228
0.00662775
-0.00615381
0.00810444
0.00239731
-0.00124613
-0.00925563
-0.00207623
-0.00340954
-0.00110614
0.00659191
0.00245968
0.0102395
-0.00924704
-0.00345214
0.0011786
0.00742711
-0.00717118
-0.00143453
-0.00256858
0.00033875
0.00526524
-0.00303542
-0.000895877
0.00728419
-0.00392864
0.00527417
-0.00416313
-0.00162655
0.000515507
0.00173366
0.00453925
-0.00627291
0.00424413
0.000942429
-0.000565613
-0.00462095
-0.00391032
0.00312578
0.000314248
0.000470291
-0.000375109
-0.00551224
0.000322886
0.00556446
-0.00403973
-0.000513635
-0.000167034
0.0047204
0.0023362
-0.00518452
5.06364e-05
0.00203811