/*--------------------------------*- C++ -*----------------------------------*\
  =========                 |
  \\      /  F ield         | OpenFOAM: The Open Source CFD Toolbox
   \\    /   O peration     | Website:  https://openfoam.org
    \\  /    A nd           | Version:  10
     \\/     M anipulation  |
\*---------------------------------------------------------------------------*/
FoamFile
{
    format      ascii;
    class       volScalarField;
    location    "20.5";
    object      SgRate;
}
// * * * * * * * * * * * * * * * * * * * * * * * * * * * * * * * * * * * * * //

dimensions      [1 -1 -3 -1 0 0 0];

internalField   nonuniform List<scalar> 
111485
(
1.20019e-09
0.00787616
0.0242798
5.46224e-11
0.0490017
3.18907e-08
0.0464362
0.00616556
0.0190703
0.00124172
0.0468227
0.00945259
0.00481972
0.296047
0.0065254
0.0303208
0.210366
2.62359
0.0103641
4.80782e-08
0.0372295
3.54286e-09
0.0268355
0.0345977
0.00873815
3.55307e-08
0.0394356
0.0017897
0.0153263
0.0481661
0.044602
0.0195587
2.18038e-07
1.45221e-06
0.00712442
9.16533e-05
0.147194
0.209889
0.00245641
0.0241866
0.0434981
0.0707837
0.0158809
0.00166372
8.18469e-05
1.58754e-06
0.0295461
0.000712287
0.0474402
4.28738e-07
1.09485e-06
1.72905e-05
4.62472e-07
0.0514394
1.50545e-06
0.0437111
0.0030547
4.42324e-08
7.0747e-05
0.00480303
0.0160899
2.65022e-07
0.00488973
0.0980477
6.50299e-06
0.00313877
0.316369
0.0943983
0.00118569
0.00628324
6.80195e-05
0.00672613
1.12409e-05
0.00300259
4.65344e-08
0.000717211
1.54125e-08
0.0411761
2.83974e-08
3.12974e-05
0.280834
0.560058
4.67394e-08
5.23375e-09
0.00937742
0.00386275
0.143589
0.0253872
0.000307718
0.00744422
0.000264198
0.0403691
0.0119791
5.83031e-05
0.0521201
6.67324e-09
0.0270759
0.00183366
0.00153743
0.00170392
1.36928e-09
0.017761
1.96377e-06
0.0180485
0.00459536
1.64194e-05
5.74546e-09
0.00758693
0.00418769
0.000728529
0.00554
0.00474486
0.00380821
0.00332548
1.03073e-07
3.41834e-05
3.03323e-08
6.54748e-06
0.0128988
4.69659e-09
9.27386e-08
0.000189863
0.0752014
2.26636e-06
0.00158869
0.0278997
0.000107042
0.0017271
2.91645e-10
0.00034653
0.00164479
0.0328369
0.047224
0.000175324
7.81623e-05
0.0483154
9.93254e-10
0.0425456
0.0254127
0.00273821
0.000322348
0.00200115
0.202774
0.00273117
0.00409089
0.0130678
1.63502e-09
8.98039e-10
4.75793e-08
0.0281039
0.00156968
0.02856
0.115529
0.00471791
3.56959e-05
0.0109013
0.0161736
0.0109487
0.000822886
5.43901e-06
9.6326e-10
0.0523135
0.0226351
7.54401e-05
6.38186e-05
0.00588997
0.00341105
0.0270522
0.00156586
0.000170814
1.57839e-09
1.52599e-08
0.198058
1.01034e-10
0.00549776
0.00207108
5.24733e-07
9.47704e-06
3.6199e-08
5.80169e-06
9.93456e-06
3.71607e-08
0.00151645
0.00677979
0.0298785
0.00413898
0.00768679
0.00408767
0.000464271
1.7903e-07
0.00490772
5.77559e-06
7.13859e-06
0.0065811
0.0103835
0.0286657
0.0114341
0.00503863
8.466e-07
0.00677994
0.000505481
0.00168278
0.0144694
0.00233424
1.82975e-06
0.00383834
0.0250888
1.18168e-05
0.000177901
0.00790196
0.00200906
0.000379037
8.6672e-06
7.80635e-09
0.00840161
0.000312132
0.119414
7.03736e-09
0.00669862
0.0205912
0.119197
8.33388e-08
0.00330303
0.0137196
0.000277772
6.95294e-09
4.28813e-10
0.150524
0.00417766
2.3532e-05
9.36337e-05
0.00947271
0.00780851
0.160967
3.87086e-05
2.0743e-05
0.160854
4.66496e-08
0.00244116
0.00958158
0.0166766
0.0116861
0.00966329
3.89464e-06
0.00194605
0.000628984
7.83307e-06
1.20868e-08
0.0309746
0.157062
1.83322e-05
0.00655125
0.010797
7.89519e-10
0.000193157
0.000113797
2.78436e-07
6.68841e-05
0.0997362
1.84857e-08
0.014807
0.0107004
0.00367911
3.3634e-09
0.0118416
6.64054e-11
6.08596e-08
5.1034e-07
0.165008
0.0229992
0.00620857
0.0054868
0.213632
0.0123834
0.00157182
0.000820442
0.0322953
0.00874533
4.505e-07
5.36931e-09
0.111617
0.022698
0.0246082
0.0118342
1.87348e-09
0.224631
0.267847
0.00302923
0.000321472
3.46389e-05
0.0138396
0.00219442
0.00198062
2.02704e-08
0.000653591
2.87616e-09
0.00035818
0.00027653
0.235145
0.067905
0.358336
1.7771e-08
0.0859158
0.00899452
0.00172327
3.02419e-09
1.15035e-07
0.0246354
0.000300013
0.0569357
0.00401214
0.0135107
0.0192086
3.04975e-05
3.05899e-08
3.54631e-08
0.0037887
0.00434849
0.251061
0.184385
0.000791178
1.7517e-09
8.72299e-09
1.40352e-08
8.45573e-05
0.0600507
0.0118466
2.17087e-06
0.00527476
7.13678e-05
0.0608319
0.0670941
0.00596181
0.0114468
0.00932329
0.0482776
4.99708e-05
7.37164e-07
0.00948804
0.0187408
0.00487182
7.09398e-08
0.151183
0.000329614
0.00227845
0.0080625
0.00033581
0.0284402
0.0390648
0.0374988
0.00357991
0.00775003
0.0256566
0.0132257
9.09785e-06
1.97421e-07
5.45478e-07
7.13982e-07
0.0311859
0.371831
0.032743
0.0672621
0.0529102
0.0183719
1.73511e-08
4.08277e-07
0.0166617
0.0469455
0.0810928
0.0459198
0.0495952
0.0228484
2.48834e-08
0.0135256
0.000289246
4.24659e-10
0.00098677
0.0166078
1.57914e-05
0.00895839
0.00918195
0.00817933
0.00140778
0.00267913
0.00549323
4.31912e-05
1.16319e-06
0.00267434
3.89071e-07
0.00632007
0.117706
0.0303236
1.17239e-07
0.0276422
0.154802
0.00829974
0.326793
6.69812e-08
0.0475642
0.0188524
7.52115e-09
0.000844506
0.00241873
3.75904e-09
0.0320559
0.0109275
0.00519513
4.60505e-07
2.5718e-08
0.000757897
3.76115e-09
0.0124448
3.62728e-06
4.34866e-10
0.01675
4.04213e-05
0.259005
0.0300383
1.96067e-09
7.95998e-05
0.00163243
9.91394e-05
0.000203044
0.0151589
0.121818
0.833066
5.57923e-05
0.207512
0.000750405
4.57611e-08
0.0389655
0.0309851
2.03874e-07
0.00141788
0.000309089
8.31145e-05
0.0237894
0.0239791
0.0138867
3.69043e-08
0.352038
0.0168255
0.0228638
0.00439565
9.15773e-05
0.0012747
3.56746e-08
0.253413
0.363447
2.52472e-08
0.00825034
0.000363612
0.000103495
4.06059e-09
3.01045e-05
3.51793e-09
0.28857
0.00964675
0.0063442
0.00215487
0.00262121
1.95754e-07
0.0019556
5.0001e-07
0.0411711
1.54604e-07
5.98793e-07
0.0524256
0.0374221
4.03649e-08
1.5534e-09
0.000385041
8.46218e-08
1.60128e-06
0.00107052
2.7425e-08
6.13969e-05
6.72003e-08
0.0741885
6.95081e-08
1.66034e-06
3.69667e-08
0.00708049
4.29474e-07
0.224533
0.00198623
0.237604
1.06156e-08
0.000967273
2.5851e-06
2.67319e-09
0.372319
0.144872
0.0268731
0.0250892
3.06249e-05
0.00203519
0.0822629
0.00850108
0.00105668
0.292898
2.60393e-08
0.0232725
0.000108386
0.00504254
0.0589986
0.0762754
0.000114944
0.021115
0.000247519
0.000784395
0.0818805
0.00203087
2.16264e-08
0.0800626
0.0488626
3.55029e-06
1.14294e-06
1.96253e-05
1.7657e-09
0.00169958
0.0547172
3.54687e-07
1.78799e-07
0.00252221
4.5442e-09
0.0339593
2.96698e-08
0.000323229
1.96936e-09
0.116681
0.114643
0.00100697
0.0127154
0.0651871
0.0817467
4.70634e-08
2.45379e-07
0.0148018
4.71043e-08
0.000202227
1.78126e-05
0.00164944
0.04267
0.0644364
2.41615e-09
4.69041e-05
0.0176123
0.0032776
0.00174029
0.0038763
0.0068781
0.0207037
9.71318e-07
0.0253906
0.00600905
2.55083e-09
0.126513
0.0411727
0.0154635
1.34309e-06
0.00490805
0.00691447
0.0022582
0.00399753
0.000385873
0.0136949
0.00131473
0.000132868
0.0230374
0.128718
0.000791959
7.43407e-05
0.00359334
0.726405
3.16889e-08
0.000412852
4.58657e-06
4.072e-05
0.00731533
0.00319074
0.0027497
0.000446446
0.000167169
0.0160294
0.0110431
5.42076e-08
0.00019785
0.00131908
2.89885e-08
5.49397e-10
5.438e-08
3.22767e-08
0.0127351
2.00679e-09
0.0347677
0.00852581
0.0019328
0.0989079
0.329794
6.03616e-05
0.00848841
0.0371663
5.51863e-08
0.0519704
1.65317e-07
1.96447e-08
4.77706e-05
0.00422347
0.121368
0.0282313
0.00624504
2.69387e-06
0.0897786
0.14609
0.0286723
0.0282104
0.000493089
0.196919
0.041519
0.0538694
0.0466213
5.96418e-06
0.000321146
0.0406899
0.00799569
0.00142296
0.0276492
0.0261195
1.14104e-06
0.010906
0.000666982
3.24355e-05
0.0348202
0.000255293
0.00066012
0.0108899
0.0406084
0.00133283
0.0215347
0.0196603
0.00720432
3.27704e-06
0.0104301
0.000335095
0.000197687
0.0171522
0.0179732
0.0357548
5.01095e-07
0.0018847
4.45577e-06
4.10357e-09
0.0777111
1.61476e-08
0.13677
5.87932e-05
0.0117829
8.04164e-08
0.0294732
8.24627e-05
0.0427783
1.35323e-09
0.0306456
3.00932e-07
1.65127e-08
8.16528e-07
0.321315
0.000525164
2.95546e-05
0.0412038
9.83763e-08
3.00326e-09
0.206172
0.0696428
8.36228e-05
0.00199844
0.00013026
6.47272e-08
0.0373418
0.00867472
0.179699
6.60096e-10
4.62968e-09
0.000416664
0.00106995
0.000132759
4.28954e-07
0.0630723
0.00723236
2.66211e-08
1.23033e-07
0.0455629
0.0420695
0.00225832
6.05692e-10
3.84986
0.364578
0.191901
1.6113e-08
1.88086e-08
0.0551318
0.000451483
3.9595e-05
0.000592615
0.110396
0.00264881
0.011231
0.0635385
0.0522218
0.00190875
6.87503e-08
1.20242e-06
1.40027e-08
9.26722e-09
7.69822e-08
9.19704e-10
0.0223604
7.09487e-08
1.94481e-08
3.2389e-07
0.0113236
0.0235933
1.09178e-07
5.79494e-07
0.105552
0.0143334
0.0098986
2.6967e-08
7.37337e-09
0.0371579
7.97494e-10
0.00178604
0.00264348
0.00396765
1.25334e-07
1.28714e-10
9.53312e-10
1.60221e-09
0.0146697
1.87559e-08
6.59038e-08
0.00107498
4.80158e-09
0.0232205
0.00199781
2.36241e-06
0.0368692
0.34433
0.00253198
0.281224
0.000251597
0.043548
0.209769
8.24588e-05
0.0236495
0.0678216
0.00599665
2.04631e-05
0.0890276
0.780108
0.00999828
3.63747e-08
0.00244188
0.00250853
0.00123547
9.26904e-05
1.84162e-09
1.56265e-10
0.0134705
3.86464e-05
0.00271815
3.91152e-06
0.00140812
0.00142847
0.0367048
0.000569874
1.54049e-08
0.0335377
8.07708e-06
0.0205
2.80484e-08
4.98077e-05
0.000205367
1.784e-06
3.46783e-07
0.0407262
1.56355e-09
0.0101547
0.0639283
9.91879e-09
0.0726351
4.30199e-05
0.0371691
0.000609108
1.07435e-07
2.77623e-05
0.00163404
0.0458913
0.00408612
0.00131951
0.161763
0.000202462
0.0039819
9.98543e-07
1.05526e-05
0.496907
0.162513
4.31602e-08
0.241941
0.000868702
0.000162591
0.00994537
0.000210021
0.00121331
0.0230657
0.00943945
0.00225025
0.00485806
0.00197725
0.0457585
8.16191e-08
0.0330207
0.0264616
9.77303e-08
0.00843423
0.27156
0.0283791
2.95427e-07
0.00189753
1.59637e-08
0.0101758
0.22648
2.32131e-08
0.179621
0.343188
0.00135206
0.00497171
1.07536e-06
0.0485945
7.77807e-05
0.00163279
0.00123075
0.00032978
4.2932e-06
0.0454765
0.00697176
8.98647e-10
0.000427917
0.000542149
0.000912316
0.000467242
0.000864223
0.000171764
1.05909e-09
6.88449e-05
0.0226414
4.12547e-07
0.00187895
0.351789
1.75037e-07
3.28822e-08
0.00324266
0.00331034
2.97696e-09
0.000610523
8.66218e-08
1.58092e-08
1.25182e-08
4.49496e-07
5.06748e-06
1.65647e-07
0.00034978
0.0519978
1.47363e-09
4.81819e-07
0.00451686
0.116157
0.00177274
0.00917903
0.0326698
1.07376e-08
0.000290989
4.13428e-09
2.26296e-09
0.000576401
0.148509
0.0421149
5.8225e-09
6.72109e-08
0.0358122
1.81414e-08
0.0232097
4.74145e-08
0.00678107
6.77156e-09
0.0019634
0.0263618
2.79082e-09
7.57274e-07
5.5965e-07
0.00143744
6.26785e-07
2.36597e-08
2.08922e-06
0.00445989
0.0542718
0.00424259
0.00061422
0.00107353
4.31552e-08
0.00140676
0.00190448
0.0440065
3.10356e-06
0.000224748
0.00541415
1.17874e-07
9.54903e-06
0.000150959
1.00642e-07
0.00818142
0.0016232
0.00318577
0.0733718
1.23761e-09
0.0229931
0.061086
0.000121871
7.74773e-05
5.63647e-09
0.0263925
1.71838e-08
1.13761e-06
2.90151e-05
0.0519743
5.53336e-07
0.00234818
2.76303e-05
0.000859546
1.69244e-05
7.22386e-09
3.82828e-06
1.67917e-09
0.00246919
0.000650563
0.303321
3.15976e-08
5.07898e-07
0.00209506
1.75976e-10
4.79835e-05
4.47169e-07
0.0360503
0.000851204
0.031976
1.48247e-08
0.00140817
0.000170575
6.32841e-05
0.000291987
4.75802e-08
0.00135177
0.024591
0.137638
0.00117415
0.000320284
6.23377e-08
6.4816e-10
2.35399e-08
0.186859
0.075025
0.00764128
6.77452e-10
0.174069
2.99259e-08
0.214646
0.00311332
7.64361e-07
9.20816e-08
3.41743e-06
6.17418e-07
0.0418467
2.12636e-06
0.000123268
0.324953
0.00684749
7.23388e-05
3.35027e-05
7.03335e-05
5.171e-05
3.2438e-08
3.39699e-10
0.0258954
0.000430863
8.20838e-09
2.018e-07
0.000612509
4.59493e-07
0.00154252
0.423683
1.76309e-06
0.00360765
4.04392e-10
0.000389814
2.64188e-07
0.332901
2.71782e-09
0.119367
0.00555477
0.000747384
0.0184093
0.034505
0.000948597
2.57368e-06
0.000567335
2.31265e-06
0.00463832
6.21913e-08
1.86885e-06
8.5987e-05
2.40023e-06
0.0709027
2.76274e-07
0.00729866
0.00853617
2.07811e-09
0.000385477
8.58998e-08
0.000842471
0.000842903
6.86491e-08
0.0180091
0.00023946
5.50517e-07
0.0234496
0.190636
0.00370067
0.0110598
3.23608e-10
0.0467739
8.98082e-06
1.93046e-07
0.0369402
4.95006e-06
0.114532
9.55511e-09
0.152701
0.000729113
2.07405e-09
0.00111226
4.09279e-07
2.71613e-09
0.00314752
0.00102041
0.0104909
8.83768e-09
1.12065e-06
4.64297e-08
0.000891539
5.06264e-05
0.0343632
6.28335e-06
0.000917632
6.77943e-05
0.00118118
3.09548e-05
3.53484e-06
1.09265e-06
0.0183321
0.0098158
0.0182432
0.0359026
0.0440955
0.000268481
0.0481315
1.25175e-09
0.00955913
1.18197e-07
6.26734e-05
0.000464246
0.00672962
0.000427492
0.000542729
0.00200964
8.41392e-10
0.0072164
0.00841397
0.000216712
0.000808665
0.015244
0.000964145
1.68787e-06
0.0300818
1.37547e-07
6.03848e-09
0.000265413
0.0747982
0.00100805
6.51754e-07
0.0476219
0.000672198
7.21894e-07
1.38649e-07
0.000600282
2.91826e-06
0.0557759
0.3217
0.000369233
0.000424483
0.0223523
0.00721271
2.19287e-08
1.35042e-08
8.81408e-05
0.00405031
0.0350682
0.0551969
0.00962286
3.18708e-08
0.000323657
0.0418629
2.76744e-05
0.00115982
2.57038
0.0442944
0.122503
0.0515243
0.0217691
1.16795e-09
0.00204222
6.65811e-07
1.63761e-07
1.94675e-07
7.48531e-09
0.00283146
4.06553e-09
2.17165e-09
9.21365e-05
4.93803e-08
6.69514e-09
9.56428e-07
0.00970501
0.0602006
0.0109111
0.00318664
0.0777222
0.264918
5.92268e-09
0.189152
0.000161444
0.39598
0.0129352
1.10508e-07
9.30205e-05
0.00759648
0.263202
1.73992e-09
0.00118905
0.0191866
0.0046668
1.63768e-05
0.025761
1.11641e-06
2.41568e-07
0.0791153
1.00202e-08
0.00807994
1.13026e-07
9.20421e-07
0.00830108
0.000461658
0.0027587
1.1642e-06
0.000391046
0.000667959
4.24037e-07
0.000204067
7.51455e-07
0.0234325
1.43393e-07
1.34812e-07
0.255623
0.0446721
0.000540899
3.32986e-07
6.74083e-09
0.00469719
0.195761
0.00468065
0.0151266
0.217847
0.0202651
2.49757e-09
0.0364404
0.00313755
0.00672184
0.0368623
0.0103448
7.86679e-09
0.193506
1.10661e-09
0.0406101
0.00932675
0.0111452
1.38774e-08
0.0132912
1.33281e-06
0.00273149
0.00900664
5.11053e-06
2.8894e-10
4.73407e-09
0.00295766
0.0820514
2.30639e-09
0.00426331
0.0215713
0.000101886
0.00735147
0.0492695
2.33914e-06
0.000140975
0.000842758
6.11452e-08
0.010314
1.9804e-06
0.00257941
2.89545e-08
2.687e-08
0.0122776
6.27141e-09
0.000220655
0.0037135
3.13157e-08
8.29038e-08
0.00458716
0.00055006
0.358752
1.18134e-07
0.249768
1.84716e-06
0.000371598
0.000171653
0.00756016
8.34335e-05
0.0806643
0.00558724
5.51929e-05
0.00109028
0.0681265
7.1502e-07
5.03046e-08
0.000426579
0.00078646
0.0424144
1.91187e-07
0.0347585
0.000948206
1.73058e-08
0.232487
9.84801e-09
1.70485e-07
2.36519e-06
0.00290189
0.312015
0.0585607
4.76071e-07
2.4992e-08
1.84282e-09
1.10961e-07
1.09002e-07
6.60089e-07
1.21046e-07
6.26698e-09
6.41821e-08
1.17394e-08
1.84659e-07
0.0642209
0.0380845
2.82809e-09
1.38346e-05
8.19374e-09
7.84691e-08
1.31288e-08
0.0373306
0.0824723
0.0170287
4.13779e-08
1.22945e-08
8.36789e-07
0.00661707
4.08455e-06
1.37256e-07
0.296807
2.68598e-07
3.13508e-06
0.0228933
0.000190006
5.35328e-06
0.00877217
0.0243862
2.99523e-08
0.00339291
0.00476124
1.8062e-08
0.0134529
0.0391413
0.0177471
0.00341307
0.0106419
3.75475e-06
1.12654e-07
0.335387
0.0105157
0.0032592
0.0642512
0.00689962
0.00179969
0.021407
0.00998259
0.000699039
0.0155957
0.00107026
0.010323
3.37768e-06
0.0241801
0.00841691
0.0016303
0.00141872
5.4794e-09
6.50367e-08
4.74122e-08
6.76991e-10
1.78498e-07
0.00915301
0.0134857
1.89799e-08
3.21946e-09
1.83787e-07
1.7401e-05
4.44337e-09
9.95129e-09
8.22152e-07
1.12793e-06
0.00465431
0.000294125
0.0216553
0.248047
1.25119e-07
1.15805e-05
0.0299588
1.17343e-05
4.11344e-09
1.82563e-08
0.232271
5.62513e-07
6.23588e-09
4.7885e-06
0.234017
0.013502
0.033385
0.0344101
1.10058e-06
0.0139149
0.000353104
0.000387867
1.96491e-08
0.0118973
4.97025e-06
1.9158e-07
0.015869
1.04306
0.197371
6.78488e-06
1.37816e-06
0.016807
0.019697
0.0178108
0.00554697
0.00697986
1.19533e-08
0.000642382
0.000416397
0.0611302
1.00388e-05
0.276025
3.09935e-08
0.00197595
0.0246692
0.0174751
0.0111109
3.2687e-06
0.00606387
3.60741e-08
9.8129e-06
1.11506e-09
2.0151e-08
0.00245241
0.882264
1.00847e-07
5.27555e-09
0.000427152
0.02294
0.0017559
0.00682113
0.0321886
0.00467796
0.0202005
2.01311e-05
4.51156e-06
0.000205797
0.0290084
0.00554262
0.00331345
1.22234e-06
7.21638e-09
0.00015791
0.0217562
0.00264645
5.02016e-09
0.149187
0.0573598
0.00630594
0.00608851
7.36878e-09
0.0001969
0.00676109
0.0222757
8.47743e-10
0.000413921
0.0147389
0.00104132
0.205709
0.00461477
0.00775509
0.000247255
0.00321289
0.0204888
0.0350838
8.46065e-05
0.022001
0.00012052
0.200046
0.000165372
5.42472e-10
0.00247387
0.00747098
0.000421646
0.0112773
0.000461761
0.00100141
0.00049949
0.0422975
0.00361506
5.28573e-05
0.0371002
0.00128372
1.11487e-07
1.06204e-08
0.102337
0.000522249
0.00103616
1.06044
0.0344273
0.0119813
0.000434284
0.044227
2.26047e-06
3.23305e-06
0.00380238
4.22274e-05
0.00199118
0.00396105
0.00216495
0.00450755
6.4516e-09
0.000214559
0.104196
2.03599e-08
0.0141474
0.00735406
8.05166e-06
0.00391106
0.000137405
4.06312e-08
0.000599873
0.139015
4.78661e-08
5.51588e-09
2.11514e-08
0.148979
0.251978
0.0135742
0.0533617
0.00458869
0.031745
8.00906e-06
0.00777211
0.0120124
0.0230122
0.00149876
0.11815
0.34111
0.401718
0.0100871
0.00880005
0.0355212
0.157407
0.364675
1.40539e-08
0.175421
0.0477347
1.102e-08
0.000405993
5.81377e-07
2.82554e-08
3.75313e-08
2.29366e-07
1.75143e-08
0.140331
4.94586e-08
0.0069234
0.00128748
2.29786e-08
0.0036319
7.34531e-06
0.013321
6.53632e-08
0.00061346
6.43813e-06
0.0207304
0.000221666
6.6491e-06
0.00411721
0.0271863
0.0158347
0.00375405
0.0260777
0.00341386
0.0222616
0.0519615
0.00940307
8.35512e-07
0.00105611
0.000334524
0.00540881
0.00973916
0.000591055
1.15429e-06
5.79878e-05
1.24107e-07
0.00335777
0.0412363
0.000760236
0.329257
0.00246919
0.000361071
1.7285e-08
0.0615795
1.14779e-09
0.00840388
0.0202684
0.00113238
9.68516e-05
0.00177355
0.00660053
0.00178158
0.000792352
0.00629899
0.00595303
0.00257564
2.248e-05
0.0788945
3.56222e-07
0.0123088
0.0103532
8.05609e-07
7.82937e-10
0.000261229
0.00818632
0.0173714
1.40477e-08
0.00213708
0.0444149
0.000212428
0.00440588
0.0857503
1.70118e-09
8.17932e-11
0.00346647
4.18918e-09
0.000104708
0.0114527
2.17406e-05
0.010339
0.0310432
0.0181523
3.13551e-08
0.00150516
9.05814e-05
0.000132548
0.0460757
2.88528e-08
9.82428e-07
0.0101414
0.000536533
9.91659e-07
0.162046
0.000924121
2.90744e-08
4.14262e-08
0.000231275
8.38205e-05
0.00232644
0.0029773
0.0244935
0.242478
3.81495e-10
0.000334505
0.00071044
0.0425504
1.7582e-06
0.0475204
0.083115
0.000119901
7.49523e-06
2.0194e-05
1.12926e-08
1.57156e-05
2.70913e-05
0.000376556
1.92159e-05
0.000319773
2.62105e-05
0.000676399
0.000346264
0.000605996
0.000130754
1.67722e-08
0.0272245
0.00942803
6.31096e-06
0.0816388
0.00024966
0.000215032
1.38423e-05
0.00116218
0.00026572
0.002632
0.00038739
0.00104375
1.9498e-05
2.47582e-08
0.001186
0.00041913
0.0669092
2.13478e-06
0.0365696
4.9363e-05
0.0350535
8.53536e-05
8.39242e-07
0.000398536
0.0263703
0.00744211
2.51666e-08
0.000299762
1.10302e-05
0.00438958
0.0012261
0.340617
4.6326e-05
2.04272e-06
0.019173
0.00155589
0.00494881
0.0337871
0.0704524
4.44982e-10
0.0202299
0.00365964
0.0497244
5.65935e-09
0.00114826
5.70464e-07
0.0427689
4.99447e-08
4.89354e-09
0.00321231
0.00210351
0.00290333
0.298155
0.0395665
0.0251954
0.0338512
0.016021
0.220772
0.0431712
0.00488591
0.0046762
0.00572793
0.000579811
0.0094865
0.0374231
0.00144044
0.00141518
0.0307587
1.9255e-06
0.00328276
5.21058e-07
0.0173885
2.33512e-06
7.70337e-07
0.00156976
4.1544e-06
0.00572877
2.46672e-08
3.62306e-07
0.0804747
9.77773e-09
7.73639e-08
0.00083616
6.33723e-08
0.000688328
3.56e-05
0.0657814
0.0165279
0.266183
0.0075029
0.00689398
0.0399362
0.549397
2.52154e-10
0.0643049
0.0279951
0.0163456
0.0229461
0.00226652
0.0526566
7.06163e-06
7.48376e-06
8.50078e-07
0.12952
1.09418e-06
1.02694e-07
0.016623
6.65353e-07
1.49813e-08
0.00528055
2.48471e-06
0.285785
8.15586e-05
3.54125e-05
4.63846e-05
5.86361e-05
0.00144641
0.006372
1.27886e-10
0.0217449
0.000410308
2.14964e-05
0.0949347
6.92631e-08
0.0146053
0.0169609
0.00357946
3.21904e-08
0.0169712
0.00958437
0.000881225
0.00515348
0.0116635
2.92544e-08
2.26222e-08
0.00165411
2.2276e-08
1.41721e-09
2.89673e-09
0.0185527
0.355083
0.00428687
0.00220263
6.91166e-05
0.0474857
0.0432101
0.0039881
0.00238825
0.00885603
0.0196397
0.00265463
3.93392e-09
2.63357e-09
4.12524e-09
0.00696521
1.1241e-07
0.352206
0.000526879
0.000763914
0.00184073
0.00248901
0.0207327
2.45004e-09
0.059303
0.00244441
0.000372515
1.55264e-06
4.12238e-07
1.6179e-07
0.481082
0.000310087
0.000581308
0.00086781
0.00968159
0.204217
3.16787e-07
3.20547e-07
4.9992e-07
0.00362284
0.016564
0.0189671
0.0331363
0.00166899
0.00341603
3.59188e-06
4.43748e-10
0.000189978
3.79318e-07
0.165498
0.0211766
2.40874e-07
1.25234e-06
1.89503e-05
0.0606667
0.0297619
1.84857e-05
0.0132868
0.0905905
0.000903317
0.40356
0.0472688
2.54183e-05
0.0216969
0.173822
0.0186502
1.04662e-05
0.00491858
1.5341e-08
0.0138946
0.00172764
0.0233912
1.14987e-05
0.000379961
1.28703e-09
0.0231326
1.03116e-08
2.86378e-05
0.381553
1.22475e-07
0.0058589
0.00119946
3.74482e-07
4.1249e-08
0.00201413
4.18346e-07
1.17504e-07
0.0107575
0.000147994
1.40373e-08
0.0232877
0.0440937
0.0162488
2.83188e-10
1.90961e-09
0.000591155
0.00261697
0.00307992
3.35052e-09
9.52932e-08
0.000132913
0.00380778
0.00188663
0.0126267
0.366892
1.35635e-09
0.141495
0.0111117
0.00623241
0.0561354
1.08618e-06
2.10966e-08
0.022815
7.43553e-10
0.029659
0.00491174
0.00572053
1.10217e-06
9.27158e-09
3.95633e-09
1.61588e-08
2.03893e-05
0.133889
0.212365
0.00212979
2.54481e-06
1.7483e-10
0.0557657
0.22537
0.0340518
0.111596
1.52271e-07
0.000967433
0.0002471
2.35182e-07
1.32139e-08
0.00367744
0.00618898
3.71074e-08
1.10729e-05
0.00283455
0.0599714
0.204914
0.00106005
2.00362
1.00489e-08
3.74008e-07
0.0113841
0.000708574
3.36969e-05
0.636281
0.000589481
0.00601261
6.81715e-09
8.70709e-08
1.26603e-05
0.0582649
0.00817435
0.177751
2.02449e-08
0.024368
0.0184302
0.826
1.06699e-08
1.26219e-09
1.10543e-07
3.5498e-08
0.00653132
0.000327638
1.02285e-08
0.0373205
0.01797
0.159923
0.00459322
3.00737e-06
1.65309e-06
0.02765
1.3288e-05
3.06402e-08
2.31598e-08
1.35125e-08
0.0204551
9.65365e-06
0.0581341
0.0562746
0.0247305
0.0114902
5.92915e-09
2.41439e-09
2.48808e-08
0.0147075
0.000250088
2.02461e-07
3.63612e-08
3.56881e-09
0.0219402
0.0023455
0.0108598
0.0403804
0.00191609
0.311705
0.00473856
4.39927e-07
4.26229e-10
2.59357e-07
0.0534653
9.71488e-10
0.0183084
2.25021e-08
0.0144179
4.49981e-05
0.00159456
0.00014539
0.00241154
3.83161e-09
1.55733e-08
0.3688
0.153784
3.51203e-05
0.00377451
4.22372e-07
0.00046238
9.58806e-05
3.0037e-06
3.29988e-06
0.000303902
8.22532e-08
0.00100812
0.0391588
0.0337819
2.06236e-07
8.32936e-05
9.06695e-07
0.0340816
0.181977
0.000152577
9.4263e-10
0.00960782
3.42693e-07
0.0026531
0.0173935
0.00139498
1.12197e-08
0.000885738
0.000529464
0.000134427
0.00409487
0.000123324
0.00168825
5.44778e-06
7.75798e-10
0.000155934
0.00555983
0.000297216
6.64756e-07
9.65497e-06
0.000121675
0.560769
9.44909e-09
1.88062e-08
3.48729e-08
3.5053e-10
1.27364e-07
0.0216484
0.000585521
0.00111949
0.000107115
0.000206119
0.00147767
2.79103e-10
0.00522415
6.71819e-09
5.39144e-07
7.785e-09
2.63647e-05
0.00205579
1.54976e-05
1.115e-07
1.33124e-08
0.0137006
1.2247e-07
6.94889e-09
0.156301
9.24588e-06
0.0748856
0.121695
0.5453
8.9936e-09
0.193998
1.08277
1.06275
0.60972
2.69375e-09
3.91761e-10
0.00457436
0.00430156
6.82715e-05
0.0104069
0.0424048
0.030104
3.30127e-05
4.47172e-06
0.0012555
3.40352e-08
1.23169e-09
0.000124853
0.000411111
0.0260988
6.49928e-09
0.117826
0.000126907
3.37379e-07
0.000111406
0.00779884
0.00155477
2.28021e-06
0.00760886
6.736e-09
0.00327049
0.00217411
0.0070491
5.81775e-08
0.00176025
0.00547536
1.06661e-05
0.00324469
8.64328e-08
0.0299319
5.71001e-05
0.00896326
8.58001e-07
0.192905
5.66749e-08
8.80559e-07
2.69243e-08
0.117956
0.120952
2.06903e-06
0.0111644
0.00882175
0.0550784
3.3303e-08
0.0301824
0.0159127
0.172841
1.28049e-06
0.195308
0.0232493
0.0426813
0.00363725
1.6067e-07
0.0533043
1.72801e-06
0.212273
1.81488e-09
0.00240436
0.00397936
1.07877e-07
5.61201e-05
1.26923e-06
0.0193432
7.54248e-09
0.0398111
2.89251e-07
1.00057e-05
1.09937e-06
5.30802e-07
0.000256907
0.00188251
0.124863
5.0779e-06
0.000247258
0.0380478
1.35049e-06
0.0430117
7.7417e-07
3.38099e-06
2.48015e-06
0.00550488
1.90182e-10
5.05454e-09
7.25197e-10
0.00304894
5.59167e-08
0.0675664
2.22275e-05
0.0030598
3.9489e-09
0.00567908
0.334155
0.00515071
0.00522303
0.0247025
1.25093e-05
2.00465e-07
7.8796e-08
0.0029707
0.00160586
2.72137e-06
0.000545851
0.0005726
4.67137e-08
2.97877e-08
0.309888
7.68204e-08
0.0199375
4.13064e-08
0.00218515
0.00297163
1.91586e-07
8.2383e-10
0.0457157
7.12886e-09
2.72338e-09
0.0165443
0.0564691
0.0043562
2.24872e-06
1.42604e-08
0.00641453
5.35417e-06
0.0115804
5.99293e-06
7.42281e-09
0.00215123
6.75003e-05
0.129455
4.01869e-09
4.98964e-09
4.39078e-09
0.00312955
0.164436
9.61271e-07
1.55342e-08
7.59113e-06
0.00143123
1.95448e-08
0.0177577
0.0285052
5.25307e-08
4.42176e-09
0.0066945
2.40035e-07
2.09617e-05
1.51792e-09
2.55616e-05
1.02703e-08
0.0630476
0.000350502
1.34922e-07
5.51146e-09
0.0688199
2.98319e-08
0.0565873
2.48753e-07
4.61885e-08
9.63029e-06
0.00692333
0.04692
0.00798165
0.0499409
0.0606759
0.531823
0.00253565
0.040384
1.08432e-05
1.67013e-08
0.00227351
0.140928
0.0370223
0.0422215
1.18968e-08
0.00682616
1.55378e-08
0.00434822
9.90453e-07
0.00873308
0.000171135
0.0519067
5.29585e-07
1.67567e-08
0.0198993
0.000294679
2.39183e-08
0.0243832
0.000286518
1.97771e-06
9.75464e-10
0.0327358
0.00910158
0.00597987
0.00078984
0.00168802
0.0159289
0.000950687
0.00446877
8.71461e-06
0.0264848
0.000125964
0.000457757
3.88453e-09
6.31715e-07
2.80091e-08
0.00962122
9.06182e-08
2.31383e-06
1.02941e-10
0.000401927
0.391542
0.088908
0.00223347
4.98706e-09
0.00395809
0.055209
0.102834
0.00290505
0.000271462
0.041437
5.58351e-07
1.21067e-07
2.82724e-09
0.00273236
0.00118569
3.87554e-08
4.31338e-09
0.00229815
1.65794e-07
0.785334
0.0539347
0.0937204
5.25259e-09
1.14135e-08
0.0420942
4.82489e-09
0.00916406
9.47097e-09
0.000647497
2.14987e-08
0.0089308
5.15367e-08
6.08866e-09
0.00108221
0.154762
0.0646614
1.45196e-08
0.0690068
4.24979e-08
0.00383616
0.170579
0.117886
2.4001e-07
0.000489224
3.78869e-09
1.97015e-06
0.000278896
0.0156315
0.000301461
9.98586e-09
0.00063453
0.00301537
0.00491682
0.00756552
3.6667e-07
3.32723e-07
3.38653e-06
6.10733e-07
9.99786e-09
3.42127e-09
0.0752278
0.0371764
1.42429e-08
0.0843463
3.37318e-10
2.10145e-08
0.068721
4.6907e-09
4.80904e-09
0.0401315
1.82213e-08
7.42735e-10
1.01122
1.99743e-09
1.29717e-09
0.00192958
0.0927353
1.41501e-07
0.0371478
8.45535e-09
0.0209733
0.0502803
6.28228e-06
0.000877017
5.7988e-10
7.27941e-08
1.04601e-06
1.77519e-07
0.31925
0.0455581
0.000258419
3.26957e-08
0.0462996
1.02357e-09
2.06402e-08
1.81947e-09
0.10301
0.0017599
0.00011128
1.30062e-09
1.30556e-06
0.0481662
0.000911845
3.64716e-07
0.000264208
0.108839
0.0861016
3.5503e-05
0.0852271
0.000927711
0.0426987
4.20795e-05
0.065675
0.000345094
0.028895
1.47938e-06
0.00668894
0.000458159
0.000932193
6.91702e-10
0.00131156
7.23795e-08
0.00380079
0.0242622
1.00022e-06
0.00234637
0.000311463
1.74648e-07
0.0101728
9.12471e-08
2.69505e-08
2.76789e-08
4.5026e-08
5.06008e-06
4.46658e-08
4.87992e-08
7.45534e-08
0.26735
4.32505e-05
1.88657e-10
1.75867e-09
5.58188e-08
1.00749e-07
0.0299568
0.768101
0.00210335
0.000140736
9.99283e-09
0.00201589
0.00138835
0.0463772
3.20261e-05
1.29362e-05
5.65415e-07
1.1099e-06
2.45719e-06
0.00022289
0.000116979
0.179715
0.0672112
8.23908e-08
0.00105758
0.000300061
1.46683e-08
0.0242561
4.60572e-06
3.73263e-08
1.73176e-06
0.162164
0.0621893
1.3162e-09
0.0250018
1.32401e-08
0.0487099
5.12823e-05
0.0355235
0.0530326
4.82923e-09
6.7029e-09
2.31694e-08
2.50689e-05
0.00565967
0.22531
0.0276246
0.0417523
0.00446474
0.000539311
8.38968e-10
0.000117063
0.138071
0.00128495
9.5357e-05
0.00296827
4.05348e-06
0.0991294
4.81096e-08
0.205648
0.0383789
1.39875e-08
0.000487719
0.00717058
4.0553e-08
0.00970187
1.37428e-08
1.86079e-07
0.198174
0.029533
5.33202e-08
8.03834e-09
6.97798e-07
2.54737e-09
6.08681e-09
0.000126628
2.45554e-08
5.66689e-10
0.00310091
7.70599e-09
9.77795e-08
2.70108e-07
0.000228885
2.19552e-07
0.0001692
1.05407e-07
4.65833e-08
2.26087e-05
6.59808e-05
0.00356706
0.043147
8.0737e-05
0.00502296
2.30116e-06
0.320085
0.31538
1.26634e-07
0.00343333
1.77663e-08
0.0458081
0.0380472
0.000405399
0.0902758
0.0685329
7.16663e-06
1.10225e-09
0.00245468
1.13149e-08
1.21634e-09
3.97784e-07
1.58582e-05
7.39394e-09
1.73727e-05
0.0356171
5.14815e-09
2.40654e-08
0.338012
1.51893e-09
0.0172528
8.28082e-06
0.00132448
9.7824e-09
0.000443407
0.000145733
0.239596
0.00795325
0.023942
0.000182849
0.0403237
0.000271035
0.0753048
0.000152791
0.000227439
0.00983471
0.0580319
0.000325115
0.00127921
4.31457e-06
1.79046e-07
0.0011089
0.000225853
0.0158896
0.0121025
0.000147984
1.90356e-06
0.00549244
0.00520741
0.0185144
2.18401e-09
0.012298
0.016659
0.00274909
0.00149062
0.00130051
0.00326815
0.0189872
0.0407636
0.00715043
0.0110484
0.00800155
9.06142e-05
0.00290339
0.00363622
0.0010782
0.00262201
0.0141838
0.0137637
0.0194156
0.000121904
0.0113938
0.000422719
0.00508098
0.00284851
0.000357899
0.00235759
0.000203886
0.0756896
0.00398184
0.00122832
0.000141927
0.000729173
0.0159061
0.00245278
0.215009
0.00353365
6.87422e-10
0.231656
0.0458489
0.0217859
0.00713215
0.0202636
0.000405782
0.00866622
0.463134
0.00213307
0.00138156
0.00250182
0.174988
0.00119441
0.0747201
7.56659e-05
7.80282e-08
1.31127e-08
0.00222649
0.00616881
0.0118346
0.0709751
0.00681679
0.0609361
0.0549962
0.070824
2.902e-08
0.00708598
0.00264631
0.0252048
1.05898e-06
0.00634531
9.18787e-08
0.225356
0.0116059
0.00751395
0.221304
5.1332e-09
8.99957e-08
0.00221675
0.000110984
0.000763763
1.55992e-07
0.00656692
0.000970234
0.078327
9.05008e-07
0.0222742
0.00309253
0.000351616
0.000126567
0.00238267
0.00132134
2.40416e-07
0.00186918
5.37142e-05
9.76619e-09
0.269157
0.00379227
0.00256022
0.0101867