/*--------------------------------*- C++ -*----------------------------------*\
  =========                 |
  \\      /  F ield         | OpenFOAM: The Open Source CFD Toolbox
   \\    /   O peration     | Website:  https://openfoam.org
    \\  /    A nd           | Version:  10
     \\/     M anipulation  |
\*---------------------------------------------------------------------------*/
FoamFile
{
    format      ascii;
    class       volScalarField;
    location    "20.5";
    object      SgT;
}
// * * * * * * * * * * * * * * * * * * * * * * * * * * * * * * * * * * * * * //

dimensions      [1 -1 -3 -1 0 0 0];

internalField   nonuniform List<scalar> 
111485
(
1.6185e-15
0.00775514
0.0242517
9.69991e-17
0.0489931
8.17668e-16
0.046421
0.00616531
0.0190596
0.00123874
0.0467971
0.00945166
0.00481287
0.000794381
0.00651866
0.0303047
0.00143154
2.62254
0.0103632
1.46284e-14
2.47909e-15
8.60256e-16
0.0268323
0.0345863
0.00869735
3.01218e-15
0.039435
0.00177508
0.0153252
8.97634e-16
0.0445979
0.0195582
1.05817e-14
1.2177e-16
0.00638639
4.2305e-15
0.0106338
0.0042209
3.87643e-08
0.0241858
1.50351e-15
0.0707825
0.0158779
0.00155571
6.31145e-05
1.04445e-14
0.0295395
0.000711845
0.047434
1.99947e-15
4.59042e-15
1.12104e-14
5.73382e-15
0.0514295
1.23755e-14
0.0437109
0.00305191
3.93216e-15
2.0196e-05
0.00480264
0.0160893
1.3239e-15
0.00480347
0.0980408
8.18362e-15
0.0031174
0.315945
0.0943959
0.001114
0.00614122
1.87744e-05
0.00663869
6.22347e-15
0.00291041
7.94352e-15
0.000715413
1.28652e-14
0.0411753
1.08862e-15
1.296e-15
1.18835e-06
0.0339151
8.32044e-15
3.1991e-15
0.00936121
0.00382466
3.40384e-10
0.025378
6.02111e-05
0.00743977
0.000262833
0.0403625
0.0119327
5.78243e-05
0.0521177
2.29314e-15
2.58838e-15
0.0018218
3.05819e-08
0.00112738
1.10333e-15
0.0177584
7.24969e-16
0.0180341
0.00458924
7.66323e-16
1.40595e-17
0.00758665
0.00417248
5.57366e-08
0.00549783
0.00474348
0.00379493
0.00325129
3.90069e-15
3.40044e-05
1.08119e-15
2.33902e-15
0.0128756
8.11943e-16
7.77282e-16
2.5567e-15
4.66453e-15
8.94591e-16
0.00153045
2.97442e-06
1.62085e-15
0.00171372
7.32982e-16
2.35486e-05
0.00150743
0.0328194
2.69756e-16
2.15441e-14
4.2682e-16
0.0483146
3.78284e-15
0.0425453
0.0254034
0.00271373
0.000250901
0.00200078
0.0225289
0.0026321
0.00404975
0.0130654
2.49588e-14
1.24043e-15
1.46636e-15
0.0281034
0.00153601
2.09857e-15
2.3628e-07
0.00470377
4.31385e-07
0.0109008
0.0161679
0.0107946
5.96367e-08
1.15338e-15
4.50968e-16
0.0523127
0.0225948
1.67264e-06
3.10533e-07
0.00585144
0.00340373
1.82602e-15
4.06877e-06
4.34314e-05
1.76407e-16
2.03756e-15
0.000123663
8.6334e-17
0.0054975
0.00206824
1.02579e-16
1.26947e-14
8.63502e-15
6.72088e-15
2.70595e-14
2.83776e-15
0.0015138
0.00677928
0.0298762
0.00411838
0.00767694
0.00403216
7.78018e-05
2.17041e-15
0.00485334
5.17675e-15
1.21241e-16
0.00654376
0.0103783
0.0286536
0.011432
0.00503723
1.27353e-15
0.00677105
0.000502467
4.11964e-05
0.0143888
0.00233331
7.32006e-15
0.00383424
0.0250763
8.84397e-15
0.000159662
0.00789959
0.0020034
0.000369157
2.60118e-15
1.18676e-15
0.00833121
1.07657e-11
0.119414
1.24436e-15
0.00668658
0.0205735
0.119196
2.36132e-15
0.00328676
0.0137028
1.98067e-13
7.50184e-16
3.50527e-16
0.150493
2.41912e-07
4.16249e-15
9.81575e-16
0.00945872
0.00780614
0.0149114
1.50065e-15
3.4746e-15
1.31352e-05
7.19604e-15
0.00237932
0.00955947
0.0166496
0.0116531
0.00965846
6.74572e-16
2.43566e-07
0.000627967
3.55182e-15
4.29574e-15
0.0309699
0.0205562
9.12181e-15
0.00654033
0.010775
9.12956e-17
2.85415e-14
0.000113333
7.56667e-15
1.93559e-16
4.57561e-05
9.91229e-15
0.0148023
0.0106456
0.00367659
2.49753e-15
0.0118296
7.68239e-17
1.27455e-15
2.34208e-14
1.78029e-08
0.0229949
0.00617624
0.00548541
0.0362993
0.0123635
0.0015704
0.000565044
0.0322905
0.00874415
1.2861e-15
1.09848e-14
2.35691e-07
0.0226976
0.0245681
0.0118133
3.43762e-16
0.00700939
0.00203241
0.00302764
1.94929e-06
3.56512e-06
0.0138364
0.00218553
0.00196866
1.03306e-14
0.000646114
7.35888e-16
2.09202e-07
5.64212e-13
0.23513
0.0679033
0.0117826
1.71745e-15
1.51349e-16
0.00899352
0.00171551
1.65834e-14
2.00997e-15
1.48351e-14
0.000295158
0.0569342
0.00400621
0.0133388
0.0192079
2.19459e-15
6.89234e-16
9.14317e-16
0.00378326
1.46258e-12
0.00085532
0.184382
2.90007e-07
1.92521e-15
2.8771e-18
6.50514e-16
9.97049e-15
0.0600501
0.011846
3.48323e-15
0.00527388
2.89605e-15
2.37983e-14
0.0670885
0.00596168
0.0114449
0.00932102
1.70973e-14
1.18949e-14
6.36845e-16
0.00948731
0.01874
0.00485834
3.45869e-15
3.17692e-10
0.000156412
0.0022776
0.00805933
3.286e-05
0.0284397
4.15235e-16
0.0374982
0.00356914
0.00774379
0.0256562
0.0132055
2.13337e-15
2.35936e-15
1.33795e-15
2.02883e-15
0.0311842
0.00978255
0.0327134
0.0672619
2.2986e-15
0.0183554
9.91649e-17
1.95697e-15
0.0166614
6.91318e-16
0.08047
3.5343e-15
7.38266e-17
0.0228481
4.90931e-16
0.0135228
0.000285222
6.56851e-16
0.000979044
0.0166048
1.13419e-15
0.00893189
0.00904064
0.00817372
0.000699571
0.00267865
0.00548505
4.13218e-15
4.47635e-15
0.00200198
1.15932e-16
0.00630534
0.117703
9.98356e-17
3.96148e-16
0.027642
0.000109601
0.00829497
0.0204766
5.16418e-15
0.0475595
0.0188489
2.15934e-16
0.000839331
0.0023726
1.1514e-15
2.31958e-15
0.0109243
0.00519228
9.25483e-15
1.78957e-15
3.86757e-08
2.32006e-15
0.0124346
1.063e-15
1.35396e-15
0.0167488
1.56828e-06
0.0123273
0.0299032
1.17487e-15
5.64589e-15
0.0015299
1.04056e-15
0.000164017
0.0145279
0.121816
0.83194
1.75401e-15
0.00276136
0.000545807
2.91684e-15
0.0389581
0.030984
1.35321e-15
7.11141e-09
8.70827e-05
1.92974e-15
0.0237879
0.0239777
0.0138771
1.89607e-15
0.000662318
0.0168246
0.0228302
8.24804e-07
1.44574e-14
6.60722e-10
2.0315e-16
1.149e-05
0.0312132
3.0368e-16
0.00821488
0.000101469
3.66746e-14
3.70551e-16
1.66246e-14
1.28961e-14
0.0037124
0.00957441
0.00632298
0.00204675
0.00260004
5.07642e-15
0.00195384
2.87493e-15
0.0411016
1.51985e-15
8.99687e-16
5.0979e-16
0.0373261
9.77644e-16
5.44633e-16
1.46773e-07
2.60949e-16
4.33303e-15
0.0010669
4.87602e-15
5.22155e-15
6.67237e-17
5.1607e-16
1.88893e-14
4.50512e-15
3.48812e-15
0.0068416
6.94441e-16
0.000538436
0.00196652
0.000843537
1.189e-15
0.000900474
7.49195e-16
3.4253e-16
0.00273588
0.00176207
0.0268468
0.0250862
8.03605e-15
0.00203456
0.0822509
0.00850029
0.00101071
0.00320534
2.65725e-15
0.0232701
3.14109e-14
0.00502476
7.76567e-16
0.0762698
3.11052e-15
0.0211126
0.00024614
5.03535e-07
2.02765e-15
0.00201309
1.78299e-15
0.0800613
0.0488591
4.97389e-15
9.41588e-16
7.04971e-15
2.87227e-16
1.35279e-09
0.054717
1.23939e-15
1.8425e-15
0.0024267
1.27763e-15
0.0339492
5.90078e-17
0.000313943
1.03242e-15
0.000469708
1.17389e-06
0.000987002
0.0127142
1.56754e-15
0.000417635
6.37844e-16
8.45879e-16
0.0147867
5.90603e-16
2.88163e-05
2.18877e-15
0.00163848
5.0828e-15
0.0644347
3.80426e-15
2.12301e-15
0.0175685
0.00321444
0.00173865
0.00386043
0.00686773
0.0207025
1.99372e-15
0.0253694
0.00597591
3.17352e-16
7.49632e-08
0.0411054
0.0154201
8.02622e-15
0.00370012
0.00688254
0.00179437
0.00098079
2.13085e-10
0.0136907
0.00122849
0.000121381
0.0230162
0.0137214
0.000579297
1.67965e-14
3.06249e-09
0.649395
1.9084e-15
0.000346851
2.00575e-15
3.36928e-14
0.00731496
0.00266496
2.32339e-07
1.7654e-05
6.62648e-15
0.0160027
0.0110407
3.75491e-15
2.04399e-10
0.00131562
1.76245e-14
1.36388e-15
6.30036e-16
5.45463e-16
0.012725
6.47822e-16
2.00872e-16
0.00851306
0.00190726
9.31057e-15
0.0105451
2.22285e-15
0.00848537
4.17316e-15
3.54807e-15
0.0519516
9.46817e-15
1.73505e-15
1.33203e-14
0.00419979
1.55392e-15
0.0282048
0.00624487
1.33824e-15
0.0897497
0.00233497
0.0286653
0.0281829
0.000422912
7.39465e-05
2.58641e-15
0.0538665
0.0466036
8.4138e-15
0.00031874
0.0406839
0.00799461
0.00139111
0.027645
0.0261173
2.36112e-15
0.0109017
6.70697e-06
1.58033e-15
0.0348159
0.000250257
3.02205e-14
0.0108895
0.0406078
0.00131473
0.0215316
0.0196437
0.00720125
7.65757e-15
0.0104267
0.000302347
3.99341e-12
0.0171396
0.0179547
0.0357517
3.17773e-15
0.00183994
1.12565e-15
1.56938e-15
1.87836e-15
3.62803e-15
1.333e-05
3.5409e-15
3.20259e-10
5.88058e-15
6.04426e-16
8.10209e-05
0.042767
3.89044e-14
0.0306384
1.7276e-15
2.42399e-14
6.62093e-15
0.0385826
0.000394526
1.38389e-14
3.53451e-15
5.54142e-15
7.6354e-16
0.206168
0.0696409
1.82182e-14
0.00199791
1.83946e-06
1.83495e-15
0.0373344
0.00854937
0.0114689
2.58976e-15
1.98236e-15
0.000413359
0.0010691
3.61382e-14
1.89345e-15
2.48319e-15
0.00723116
1.39218e-15
5.5544e-15
1.54605e-15
0.042063
0.00211891
1.50693e-15
3.84482
0.36354
0.00968216
5.76119e-16
8.54123e-15
0.0551282
0.000428684
2.74043e-15
5.06334e-06
0.110063
0.00238893
0.011226
1.01273e-14
0.0521949
0.00190794
1.68321e-15
8.21079e-15
3.32584e-15
3.76358e-15
3.91297e-16
7.07415e-16
0.022357
2.01735e-15
9.76407e-16
1.21547e-15
0.0113234
0.0235916
6.41145e-15
4.50848e-15
0.105552
0.0143183
0.00988182
5.58853e-15
3.92611e-16
0.0371356
2.38969e-15
0.0016943
0.00264137
0.00396248
6.89317e-16
3.02093e-16
2.03244e-16
1.32464e-16
0.0146541
1.33909e-15
1.75087e-15
0.00105393
1.03279e-15
0.0232065
0.00191556
5.33672e-15
0.0368675
0.343801
0.00252738
0.0290185
0.00014043
0.0435397
7.76478e-11
2.30551e-14
0.0236433
0.0677929
0.00599568
5.55679e-15
4.74884e-10
0.779402
0.00999766
4.85628e-16
0.0024291
0.00242853
0.00113596
2.68025e-15
1.23706e-15
2.31093e-15
0.0134692
2.74023e-15
0.0027088
3.19331e-16
0.00119791
0.00142506
0.0366748
0.00056973
1.2963e-15
1.02998e-15
6.11223e-16
0.0204996
7.46103e-16
4.40807e-15
7.41399e-05
7.99118e-15
7.11715e-16
1.63962e-15
9.99786e-16
0.0101272
2.10126e-15
2.03677e-16
4.35089e-10
7.68179e-15
1.24354e-15
2.81617e-14
2.23345e-15
2.93573e-06
0.00161197
5.73546e-15
0.00402891
6.30347e-06
2.93305e-07
5.81425e-05
0.00397042
9.70747e-16
9.32052e-06
0.010128
0.000395387
4.39604e-16
6.09214e-09
0.000854749
1.07782e-14
0.00992007
0.000187913
1.6041e-06
0.0230259
0.00942547
0.00224342
0.00485793
0.00197546
8.22943e-16
5.9586e-16
0.0329651
0.0264334
6.91722e-15
0.00843026
0.054047
0.0283746
1.06041e-14
0.0012527
2.96391e-16
0.0101717
0.0139396
1.8789e-16
0.00158705
0.000446679
1.18333e-06
0.00495394
2.60392e-15
0.0485907
1.4754e-05
0.00140781
2.95552e-05
1.20825e-05
8.4682e-16
1.03464e-15
0.00685994
1.34352e-15
0.000123428
0.000243487
0.000301127
5.92309e-08
7.0285e-08
1.88263e-07
2.54356e-15
2.08441e-14
0.0226403
1.19802e-14
0.000170167
0.0019702
3.6006e-15
3.333e-15
6.66434e-07
9.25841e-10
3.29352e-15
5.17694e-06
2.0324e-15
2.47965e-15
1.39029e-14
1.91517e-15
3.16161e-14
9.03525e-16
0.000271378
1.90573e-15
2.86315e-16
3.98594e-15
6.5389e-06
4.85115e-05
0.00169773
0.00917825
7.89889e-16
5.09029e-16
0.000156917
1.45899e-15
3.9708e-16
1.61093e-14
0.0184344
0.0421123
9.92064e-16
5.92712e-15
2.27866e-15
2.96664e-15
9.4058e-17
1.81904e-15
0.00667688
1.00036e-15
5.39472e-08
0.0263586
2.66168e-15
2.15438e-15
1.09419e-14
2.89938e-05
4.85814e-15
2.48088e-15
1.82665e-15
9.69825e-06
1.74127e-16
0.00417004
8.93646e-07
6.1938e-09
1.51942e-15
7.73713e-05
0.00189418
0.0440061
4.0059e-15
8.51743e-06
0.0053915
1.03139e-14
2.17963e-15
4.19327e-14
4.31908e-15
0.00818004
0.00162245
0.00316931
1.81255e-07
1.02057e-15
0.0229922
5.7605e-15
7.62117e-15
5.4747e-15
7.16447e-16
0.0263916
7.25247e-16
2.84572e-14
1.5648e-06
0.0519209
3.66916e-15
0.00231797
8.74418e-15
0.000776421
4.13342e-15
1.41637e-16
4.10696e-16
4.23054e-16
0.00246868
0.000583456
0.303136
7.64677e-16
1.66968e-15
0.00209052
1.10587e-15
7.70268e-15
2.48076e-15
0.0359773
9.88501e-06
0.0319005
2.04106e-14
1.11756e-05
5.11876e-05
9.36393e-16
0.000132556
1.5779e-15
0.00118766
0.0245884
0.0202194
0.00113916
0.000222473
6.90145e-15
2.32679e-15
1.70495e-16
2.27316e-05
1.51582e-15
0.00759657
5.20799e-17
0.173926
6.43003e-16
0.0410542
0.00295421
3.37862e-15
5.75442e-16
1.20588e-14
1.76916e-15
0.0417566
7.20125e-15
3.4967e-15
0.0116557
0.00684331
3.94883e-15
2.95666e-14
1.20024e-14
6.99057e-15
2.06658e-15
8.6267e-17
0.0258926
0.000394178
2.34049e-16
9.00974e-16
5.53706e-07
2.6891e-15
0.00154108
0.000103502
6.16202e-16
0.0035391
4.28547e-16
0.000386475
3.94094e-16
0.00110837
2.44542e-15
6.73029e-08
2.16377e-06
0.000609648
0.018392
0.0344892
1.15528e-06
5.99889e-16
0.000563215
1.65723e-14
0.0046373
2.73373e-15
1.10383e-15
4.66044e-14
1.55057e-15
4.52112e-16
2.77063e-15
0.0072943
0.00822756
9.39236e-16
4.14774e-15
1.1367e-14
0.000802727
1.23809e-05
2.3125e-15
0.018007
0.000168999
8.40284e-15
0.0234402
0.00810396
0.00369987
0.0110499
1.40504e-15
4.81092e-16
2.59238e-16
5.80562e-15
0.03694
1.29784e-17
0.114525
5.06473e-16
0.000323543
0.000727621
8.21431e-16
0.000986813
5.32388e-16
1.14435e-15
0.00310163
2.22011e-08
0.00960456
9.39868e-16
8.24359e-15
1.06407e-16
0.000842425
3.30701e-15
2.25387e-15
7.70398e-15
2.72722e-07
2.38746e-15
6.34877e-06
8.06902e-15
4.07423e-15
2.85593e-16
0.0183317
0.00976418
0.0182411
0.0358952
1.09669e-15
1.62957e-05
5.80573e-16
1.47003e-15
0.00955116
1.63791e-15
2.11517e-06
0.000361654
0.00671771
0.000378346
1.0849e-09
0.00185805
7.55529e-17
1.3468e-09
3.14024e-10
0.000129539
0.00076121
0.0152432
6.50137e-08
9.07718e-16
0.0300789
1.46427e-14
7.60483e-16
1.21902e-05
0.0747884
5.23656e-08
4.22137e-15
8.9224e-16
3.08326e-07
1.0107e-14
1.05475e-15
1.85807e-05
8.09388e-15
7.00923e-15
0.0397842
0.000237577
0.000187286
0.0223507
0.00721218
1.28519e-15
1.98173e-15
2.50337e-05
0.00404526
3.38042e-15
8.72551e-15
0.00959122
8.38797e-17
5.11698e-15
5.11918e-15
9.45216e-15
1.41684e-13
2.56777
1.08595e-15
0.000217531
1.15015e-14
0.0216466
4.90797e-16
7.21726e-13
1.36183e-14
4.58325e-15
3.34902e-15
3.97938e-15
0.00280265
8.87845e-16
7.69238e-15
9.23385e-15
4.4377e-15
2.64562e-15
1.12612e-15
0.00970445
8.15453e-15
0.0109046
0.00315575
6.40367e-16
0.00151572
1.36256e-15
0.000514132
2.08402e-06
0.00383262
0.0129348
2.22934e-15
9.29522e-05
0.00755157
1.02633e-05
2.98757e-15
3.16194e-06
0.0191865
0.00466282
3.4223e-15
0.0257533
2.89194e-15
1.96181e-15
3.06048e-15
6.95405e-16
0.00807277
4.8673e-15
2.3109e-15
0.00829932
4.00616e-07
0.00263728
9.113e-16
1.03924e-13
0.000646192
4.06338e-16
6.09858e-05
2.32713e-15
0.0234073
1.37449e-15
8.82316e-17
5.3021e-05
1.74214e-15
0.000139587
5.59141e-16
2.27581e-15
0.00469272
0.000446433
0.0046804
0.0151149
0.217846
0.0202622
9.54128e-16
1.13216e-14
0.00302605
0.00672108
0.0368617
0.010327
7.9091e-15
0.0124942
1.90926e-15
9.21464e-16
0.00924699
0.0111403
5.94301e-16
0.0132878
2.94577e-16
0.00273047
0.00900302
4.65508e-15
5.04518e-16
5.54847e-16
0.0028611
3.4021e-15
1.18316e-14
0.0042289
0.0215661
3.59998e-06
0.00735108
1.28656e-15
1.77437e-15
8.91545e-05
0.000787142
2.92133e-16
0.0102551
1.26998e-14
0.0025621
3.68242e-15
3.52787e-15
0.0122668
1.99275e-15
3.60434e-05
0.00367333
1.73076e-16
2.1988e-16
0.00445144
5.65925e-11
0.0519529
4.60041e-16
0.249763
8.85425e-16
9.39624e-15
4.42312e-15
0.00753284
4.13537e-15
1.28881e-15
0.00558372
6.36559e-15
0.000254712
2.6129e-14
1.59318e-15
3.4054e-15
9.72021e-08
0.000783528
1.58475e-16
4.19996e-15
0.0347515
0.000944686
6.04013e-15
0.000404023
1.01822e-15
1.63233e-14
1.73198e-06
0.00287441
0.00131005
4.00118e-15
7.18491e-15
2.57123e-16
1.78404e-15
6.4157e-15
6.67869e-15
4.97855e-16
1.42043e-15
1.75786e-15
5.01613e-15
3.06319e-15
1.9297e-15
1.78764e-15
2.17522e-15
3.77675e-17
7.97084e-16
5.12251e-16
1.32609e-15
1.52481e-14
3.01226e-16
1.52269e-15
0.017023
1.32296e-15
2.89263e-16
8.4173e-16
0.00661578
2.26773e-15
9.7142e-15
0.296473
5.84666e-16
9.85979e-16
0.0228898
4.63111e-12
1.55697e-15
0.00796575
0.0243844
3.60547e-16
0.00289856
0.00431289
3.01077e-15
0.0134298
0.0391372
0.0177333
0.00336942
0.0106314
2.66613e-14
3.46181e-15
0.00300102
0.0105151
0.00321896
1.09814e-15
0.00677937
0.00178745
0.0213919
0.00998092
0.000696662
0.0155727
0.00100285
0.0102656
5.02419e-15
0.0241344
0.00840936
0.00162636
0.00141656
3.77981e-16
1.62439e-15
8.04218e-16
9.45165e-16
2.73833e-15
0.00915297
0.0134783
5.84422e-16
1.13951e-16
6.25794e-15
1.15979e-15
3.92566e-16
4.39103e-15
6.23711e-16
7.03142e-15
0.00465329
0.000207039
0.0216487
7.23879e-05
5.84303e-16
1.72761e-14
0.0299433
7.49042e-06
1.84009e-15
1.23414e-14
0.00708429
2.36333e-16
1.79475e-15
2.43178e-06
0.00771395
0.0135003
0.0333258
0.0343511
1.04297e-14
0.0139072
0.000343845
1.05895e-14
1.40764e-15
0.0118532
1.65798e-14
4.8857e-16
0.0155426
1.04266
0.000171238
1.01517e-14
6.6619e-16
0.0167997
0.0196586
0.0177946
0.00554677
0.00436123
1.58589e-15
1.04729e-06
2.65372e-09
1.62222e-15
1.00791e-14
0.016778
2.39011e-15
0.0019758
0.0246641
0.0174499
0.0110366
1.83582e-15
0.0059464
2.83209e-15
2.04726e-15
1.82934e-15
8.78674e-16
0.00245078
0.881771
2.23479e-16
3.49037e-15
4.01853e-06
0.0229398
0.00120606
0.00681765
0.0321866
0.00467646
0.0202
3.88759e-15
9.52658e-15
2.24067e-14
0.0290077
0.00553432
3.01953e-08
2.35911e-14
5.72997e-16
6.29947e-15
0.021754
0.00260588
3.98522e-15
0.00480967
0.0572425
0.00623402
0.00608673
3.94951e-16
2.87566e-14
0.00675637
0.0222754
5.3462e-16
0.00034744
0.0146666
0.000960582
0.00903984
0.00461186
0.007749
6.31206e-14
0.00320279
0.0204822
0.0350811
4.23576e-10
0.0219974
3.9485e-13
0.0159494
0.000150293
5.31972e-16
0.00247217
0.00741788
0.000406596
0.011277
3.75191e-07
0.000123287
1.38183e-05
0.0414177
0.00359767
8.37282e-15
0.0370931
0.00126331
7.7099e-16
1.73691e-16
4.25087e-08
1.38052e-05
0.00103329
1.05878
0.0344221
0.0119566
1.8834e-07
0.0442226
6.8635e-15
2.64137e-15
0.00380197
1.48886e-14
0.00196097
0.00380833
0.00213648
0.00450699
5.74272e-15
0.000186458
0.104195
9.73253e-16
0.0138344
0.00735104
3.67161e-17
0.00387286
0.000129883
4.03e-15
6.24617e-09
8.24259e-05
4.81815e-15
2.25138e-15
7.17257e-16
0.00413645
0.00478686
0.0135738
1.98108e-16
0.00458329
0.0317246
3.21806e-17
0.00776374
0.0120006
0.0229983
0.00146824
2.48738e-16
0.000502206
0.00883933
0.010075
0.00876807
0.0355145
0.157399
0.00313594
3.34678e-15
7.36169e-06
0.0477306
2.54294e-16
0.000405263
2.01989e-15
2.31694e-15
9.1728e-16
1.49268e-15
1.75723e-16
0.00313095
2.32807e-15
0.00689424
0.00109006
3.45882e-15
0.00362733
7.29808e-15
0.0133146
1.97558e-16
2.5828e-05
2.30138e-14
0.0207295
0.000152554
2.38721e-06
0.00408589
0.0271816
0.0158335
0.00375352
0.0260574
6.37383e-12
0.0222134
0.0519606
0.00938926
1.78549e-15
0.00103074
0.000234202
0.00539683
0.00973693
0.000585605
7.05199e-16
9.4278e-15
1.13973e-15
0.00334959
1.57222e-15
0.000334868
0.000204364
0.00168909
0.000245911
1.18466e-15
2.11418e-15
5.34303e-15
0.00835413
0.0202527
0.00113155
9.08822e-06
0.0017719
0.00659954
0.00173669
0.000791558
0.00629878
0.00593332
0.00257499
1.04392e-14
4.56231e-16
2.09493e-15
0.012271
0.0103519
3.60442e-15
1.56475e-15
4.34607e-14
0.00809467
0.0173677
4.71626e-15
0.00213635
1.43753e-15
5.88979e-07
0.00439601
0.0857353
5.97759e-16
2.85224e-16
0.00346554
5.75611e-15
5.56883e-05
0.0114524
2.64992e-15
0.0103374
0.031043
0.0181517
1.4543e-15
0.00145707
7.24712e-15
8.84254e-05
0.0460752
2.03598e-15
2.75454e-15
0.0101392
2.90734e-13
3.7775e-15
4.16762e-05
0.000902299
2.79439e-15
7.69462e-15
1.25447e-14
7.09729e-05
0.00118376
0.00297678
0.0243947
0.00814285
1.63911e-16
6.8483e-07
0.000683345
2.891e-15
5.88474e-17
1.52479e-15
9.98402e-16
9.66606e-15
2.79623e-15
1.96841e-14
7.91033e-15
8.69654e-15
3.90086e-15
2.62125e-09
5.86795e-15
0.000312946
6.12677e-15
0.000246133
1.65346e-14
9.2382e-05
2.72435e-14
7.4152e-16
0.0271348
0.00853749
5.67954e-15
0.0816349
9.77407e-09
6.15208e-10
5.61167e-16
0.00114343
1.50159e-11
0.00261633
5.98567e-06
0.000793875
1.64824e-15
6.73042e-15
0.00115116
2.06833e-08
3.54526e-15
9.74459e-15
0.0365691
1.93349e-15
0.0350533
5.95755e-15
1.43635e-15
1.71216e-06
0.0263697
0.00737192
3.46502e-16
0.000299661
5.03058e-15
0.00347016
1.83998e-05
0.00165406
4.69576e-06
3.07577e-15
0.0191728
0.00114802
0.00492532
2.74581e-16
7.29179e-16
1.28279e-15
0.0194441
0.00359519
0.0497176
2.35463e-15
4.60206e-07
3.51586e-15
3.78331e-15
1.25505e-14
6.65768e-16
0.00318214
0.00210236
0.00290202
0.298118
2.19347e-15
0.0251751
0.033851
0.0159372
0.00164493
7.41447e-16
0.00487915
0.00439145
0.00569768
2.80724e-07
0.00948349
3.35833e-15
0.0014019
0.0012284
0.0307585
1.04384e-06
0.00327802
1.17637e-15
0.0173643
5.09702e-15
5.75026e-16
0.00156721
4.66049e-15
0.00562759
7.62584e-16
3.31752e-15
9.59128e-16
9.5097e-16
1.66874e-14
0.000792801
7.85739e-15
0.000504806
3.35666e-15
1.08653e-15
0.0165042
0.00501349
0.00749004
0.00687239
6.81933e-15
0.549237
1.18032e-15
0.0643029
7.60492e-15
0.0163296
0.0228673
0.00224959
0.0526565
1.05617e-14
4.49196e-14
1.35687e-15
0.00203409
6.21612e-16
8.10169e-16
0.0166212
1.49804e-15
2.26445e-16
0.00519344
6.6096e-15
0.0116276
6.36861e-08
1.42427e-15
1.00247e-15
5.99907e-16
0.00142963
0.00636904
4.72231e-15
0.021744
0.000336172
1.42893e-15
0.0949281
1.09059e-15
0.014594
0.0169597
0.00353919
3.54757e-15
0.0169711
0.00958313
0.000852539
0.00513151
0.0116303
9.27729e-16
3.11521e-16
1.74938e-06
1.55838e-15
8.98038e-16
5.49615e-16
0.0185513
0.0463884
0.00428594
0.00208657
9.32021e-16
0.0474648
0.04321
0.00398686
0.00216201
0.00884866
0.0196394
0.00261705
4.07928e-15
1.37919e-15
3.55559e-16
0.0068661
5.82678e-16
0.0234178
1.06935e-14
0.000728469
5.58705e-07
0.00248832
0.0207156
4.52379e-15
2.97189e-15
0.00243615
0.000366278
2.01264e-15
3.44458e-15
2.68174e-15
3.68195e-05
0.000293194
0.000143666
0.000801854
0.00968021
0.0818329
6.19213e-15
5.42094e-15
3.26869e-16
0.00362212
0.0165285
0.0189666
0.0331119
0.00165089
0.00291302
5.19964e-15
1.57724e-16
1.13536e-13
5.90311e-16
0.00876392
0.0211732
3.21717e-15
6.57714e-15
6.44162e-16
3.04163e-14
5.46431e-15
1.27855e-14
0.0132383
2.24031e-14
0.000899776
0.403534
6.26665e-15
1.28925e-05
0.021691
0.000717418
6.46387e-15
3.35071e-15
0.00488519
2.36006e-15
0.0138561
9.18442e-07
0.0233808
9.71574e-15
1.94711e-12
5.45135e-16
8.47954e-16
1.29569e-15
4.99238e-14
0.187296
9.05081e-16
0.0058467
0.00119491
2.25606e-15
1.54457e-15
0.00196592
1.31034e-15
3.64572e-15
0.0107259
0.000138269
6.33442e-17
4.13879e-14
2.11136e-15
0.0162438
1.11271e-15
3.91292e-15
0.000446977
0.00260283
0.00307454
6.47317e-15
2.13319e-15
2.78905e-15
0.00373824
0.00183911
0.0125433
0.00362591
1.34537e-15
0.000754574
0.011094
0.00622558
7.10653e-16
2.28775e-15
7.79585e-16
1.39284e-14
5.45316e-16
0.0296522
0.00490531
0.00571334
2.30316e-16
6.23169e-15
2.20314e-15
9.29524e-16
1.36354e-15
1.0229e-06
0.000211761
0.00209838
4.05906e-16
1.67722e-15
3.9434e-15
2.0733e-09
0.0337723
0.111594
2.55802e-15
8.82081e-10
2.65006e-11
1.11085e-15
1.12617e-16
0.00367527
0.00618097
2.16205e-15
6.49985e-14
0.00276459
3.48798e-15
0.000668757
0.001004
2.00277
1.57119e-15
3.49338e-15
0.0113513
0.000529024
2.45484e-15
0.635856
0.000581259
0.00599757
4.56879e-15
3.11785e-14
3.62595e-15
7.022e-16
0.0081732
8.78536e-05
2.39664e-14
0.0243558
0.0184279
0.825983
8.61441e-16
7.88014e-16
3.75242e-15
1.43594e-15
0.0065301
7.96636e-08
4.39732e-15
7.63552e-15
0.0179522
0.000787421
0.00459127
6.44727e-16
8.10293e-15
0.027648
8.43076e-15
3.97608e-15
4.8441e-15
1.0472e-14
0.0204518
1.96575e-14
9.01235e-16
4.56722e-15
0.0247253
0.0114892
2.41038e-15
6.83316e-16
1.44104e-15
0.0147057
1.93387e-07
1.80662e-14
1.40267e-15
6.04335e-15
1.44945e-15
0.00231864
0.0108153
3.19599e-16
0.00191521
0.00107395
0.00472871
5.59821e-15
4.06855e-15
3.00082e-16
2.05192e-15
2.62219e-16
0.0182855
1.23824e-14
0.0137145
4.59599e-16
0.00150993
2.11515e-14
0.00238227
2.69063e-15
9.80367e-17
0.00982248
0.153751
2.50286e-14
0.00353988
4.50401e-15
0.000376376
6.21218e-15
8.18982e-15
6.30299e-15
5.38811e-08
7.2635e-15
0.000291061
8.81774e-16
0.0337805
1.14589e-15
4.1489e-16
3.47027e-15
3.13405e-15
7.45733e-06
0.000130971
6.00945e-16
0.00549896
3.19649e-15
0.00263084
0.017392
0.00126859
1.44992e-16
4.72819e-06
0.000442067
2.17612e-06
0.00407351
3.00824e-07
0.00165775
9.31044e-15
1.76088e-15
4.15324e-07
0.00551232
0.00023895
8.44965e-15
9.9685e-16
7.9441e-15
0.560315
7.04477e-15
1.72487e-15
3.70749e-15
8.5708e-15
3.89993e-15
2.77067e-05
0.000180298
0.000975267
6.64484e-05
1.31594e-12
0.00139456
1.25812e-15
0.00521253
1.29719e-15
5.78898e-16
1.56267e-15
4.8071e-15
1.39541e-05
6.12488e-16
1.12239e-15
3.12704e-15
0.0136991
2.3485e-15
4.26288e-15
0.0099941
2.79717e-15
0.0742133
0.120666
0.54457
3.68127e-15
0.193322
1.08202
1.06139
0.608992
1.57972e-15
1.43684e-15
0.00457094
0.00429288
1.80605e-15
0.0100877
1.76912e-16
0.0300957
3.75585e-16
6.51478e-16
0.000696169
3.43302e-15
1.47505e-15
1.02877e-05
3.86684e-05
2.08129e-15
4.05735e-16
2.76864e-06
3.36081e-15
2.4088e-15
1.76746e-05
0.00779388
0.00146488
2.51901e-14
0.00751026
6.70359e-16
0.00326091
4.1926e-07
0.00701247
4.20936e-15
1.50285e-08
0.00543056
4.8322e-15
1.58606e-09
1.6558e-15
0.0299242
1.14649e-15
0.0088605
3.29734e-15
2.29351e-07
8.02963e-16
1.81842e-15
3.48598e-16
8.38703e-10
4.97232e-10
4.54661e-15
0.0111626
0.00866646
1.01642e-15
2.39241e-16
0.0301715
0.0158912
0.172828
3.10851e-15
6.66145e-05
0.0232421
0.0426646
5.59983e-08
3.3814e-15
0.0532971
7.69695e-16
0.21227
9.70391e-16
4.17343e-08
3.70798e-08
9.76515e-16
5.536e-05
1.50572e-14
0.0192412
5.80363e-16
3.23419e-15
1.64525e-14
3.66823e-16
3.96432e-15
1.76815e-15
0.000251928
0.00184859
0.124862
7.55645e-15
1.86344e-14
0.0380462
1.93255e-15
5.20607e-17
3.83659e-15
8.34953e-16
4.23364e-15
0.005485
1.24289e-15
4.7069e-15
3.17062e-16
0.00304297
2.34851e-14
1.77822e-15
1.29336e-14
0.00304769
2.49777e-16
0.00564624
0.216763
0.00507139
0.00520914
0.0246406
4.9855e-16
1.18261e-14
8.52598e-16
0.00294629
0.00160147
2.51042e-16
6.38783e-14
0.00056287
6.83314e-15
4.6661e-16
0.309886
2.19424e-15
0.0199305
8.07822e-15
0.00217306
0.00295533
3.64413e-15
6.07415e-15
5.91204e-15
3.88724e-16
5.04928e-16
0.0165192
8.85146e-15
0.00433553
1.74605e-15
1.46178e-15
0.00640445
2.45419e-15
0.011558
4.31377e-15
1.47548e-15
0.00214944
6.59201e-05
0.129449
3.8704e-15
2.44669e-15
4.50615e-16
0.00312423
0.164419
2.52696e-15
4.37214e-15
4.26312e-14
0.00137899
1.38144e-15
0.0177327
0.0285048
1.49515e-15
4.36007e-16
0.00665521
4.35387e-15
4.2161e-14
6.59529e-16
3.40595e-15
8.16206e-16
0.0630461
2.62409e-14
1.05817e-14
5.42971e-15
4.62137e-15
4.2138e-15
3.16091e-15
7.68025e-15
3.40283e-15
1.88696e-14
0.00689751
4.55752e-15
0.00792243
1.08301e-14
5.03743e-15
0.531731
0.00252422
6.61313e-15
1.98191e-15
2.34494e-15
0.00223034
7.87902e-15
1.18516e-15
6.5023e-15
1.4304e-15
0.00681589
8.53608e-17
0.00434264
5.47285e-15
0.00872517
6.38066e-16
0.0518996
2.11964e-14
1.44716e-15
0.0198955
1.21214e-14
8.53292e-16
0.0243711
0.000248008
1.47038e-14
6.30577e-16
0.0326722
0.00907534
0.00595384
0.000771935
0.00167137
0.0159267
0.000943054
0.00431517
2.22213e-14
0.026478
5.9286e-16
8.42724e-16
1.10108e-15
3.58171e-14
8.90079e-16
0.00960118
2.18663e-15
1.53683e-16
8.05587e-15
4.1771e-06
7.51479e-06
2.54284e-14
0.00208391
3.61761e-15
0.00394575
1.8472e-15
1.21006e-06
0.00290257
2.18531e-13
0.0414349
8.18473e-16
3.84153e-15
7.7361e-16
0.00272293
0.00114109
1.9264e-15
1.90334e-15
0.00228029
5.59715e-16
0.60913
6.05426e-17
0.0937088
1.61056e-15
3.11923e-16
5.40516e-15
5.28344e-15
0.00913831
1.44117e-15
3.3796e-05
1.18859e-15
0.00892569
7.58708e-16
5.76457e-16
4.994e-12
2.61947e-14
1.43877e-15
7.83869e-15
2.19476e-15
1.14777e-14
0.00382251
0.170577
3.3472e-14
8.13716e-15
0.000326721
3.82054e-15
2.4139e-15
1.01714e-06
0.0156298
0.000136661
4.58756e-16
0.000622815
0.0029825
0.004896
0.00756005
1.37281e-15
4.79319e-15
8.49522e-15
2.47441e-15
1.43702e-15
4.83245e-15
2.38449e-16
8.50177e-15
1.10913e-14
3.84672e-15
4.05682e-16
2.20673e-16
0.0686682
8.0087e-16
2.54132e-15
3.31755e-10
1.03523e-15
1.72009e-15
1.01058
8.50889e-16
2.94268e-15
0.00187895
2.35639e-09
5.22079e-15
9.52505e-15
8.63721e-16
0.0209687
4.01838e-16
2.22446e-16
4.88321e-08
5.97821e-16
1.12663e-14
5.81143e-16
3.10342e-15
0.109651
7.23613e-16
0.000149102
1.42118e-15
4.07306e-15
2.08363e-16
1.1946e-14
1.25929e-15
1.54868e-08
2.91674e-08
0.000102111
1.62812e-15
6.39698e-17
7.86534e-15
8.50114e-08
1.58948e-15
2.77747e-07
8.58983e-09
1.05865e-15
8.92043e-15
6.96339e-15
4.68316e-09
2.12775e-15
6.61048e-15
2.16466e-09
2.35104e-14
0.0288903
2.29288e-15
0.00668663
6.29671e-15
2.13616e-06
2.59069e-17
0.00130766
6.99879e-16
0.00375456
0.0242548
6.87349e-15
0.00233828
1.3595e-05
1.20315e-15
0.0101649
1.05857e-14
8.4105e-16
1.46916e-14
2.24386e-15
2.28903e-15
1.3849e-16
2.57444e-15
5.85913e-15
0.26734
1.72739e-15
1.59458e-15
7.47859e-16
7.10647e-16
1.39495e-15
0.0299557
0.766806
3.00868e-06
9.86385e-06
6.519e-16
0.0019836
0.00138258
2.2727e-15
1.3459e-14
2.18975e-15
5.09836e-15
2.50558e-15
9.76094e-15
4.01299e-15
2.00602e-15
0.000365878
1.70718e-14
4.08135e-15
0.000228367
3.6722e-06
6.38015e-15
0.0242534
3.62798e-17
3.52935e-15
2.62022e-15
0.162161
6.53759e-15
1.07805e-15
0.0249181
7.47949e-16
1.42093e-14
8.56261e-16
5.15457e-15
0.0529993
6.78307e-16
4.08355e-15
1.15902e-15
7.33856e-16
0.00563528
0.225305
0.0276173
0.0417513
0.00370094
0.000249671
7.95061e-16
1.18907e-14
0.138023
0.00123216
1.97897e-14
8.94389e-08
4.98907e-15
7.17469e-11
3.92224e-15
0.205642
3.99552e-15
1.2835e-15
0.000226292
2.27715e-10
1.46605e-15
0.009599
6.78527e-16
4.42593e-15
0.198171
0.0295291
5.26296e-16
2.59896e-16
1.09084e-15
2.03849e-15
7.22418e-16
1.00611e-14
4.79651e-15
1.58849e-16
0.00307157
3.80995e-15
2.84147e-15
6.69732e-15
1.38119e-05
1.36947e-14
8.66626e-15
4.88951e-15
1.58387e-16
5.39687e-15
9.29831e-15
0.00333554
1.67039e-15
1.39898e-15
0.00498002
2.25144e-15
0.000358928
0.00448151
5.76104e-15
0.00340422
9.87672e-16
2.73184e-15
5.05699e-16
6.94026e-15
4.56108e-16
1.52218e-15
7.11414e-15
3.41617e-15
0.00233877
8.13305e-15
6.16635e-16
7.82927e-16
4.46965e-15
1.0771e-15
1.06178e-14
0.035584
6.05168e-16
1.06969e-15
0.338003
1.8789e-16
9.98102e-16
2.9564e-15
0.00124907
1.28684e-15
5.9394e-06
3.28912e-15
4.91716e-05
0.00794233
3.10298e-16
2.85336e-14
0.0403032
8.12615e-15
4.59883e-15
0.000126219
7.10174e-07
0.00983327
2.28171e-06
8.9577e-07
1.34984e-07
6.93547e-16
2.16552e-15
0.00101259
0.000120672
0.0158825
0.0120891
2.88492e-05
5.34165e-15
0.00549101
0.00518943
0.0185143
5.64952e-15
0.0122852
0.016657
0.00273912
0.00138509
0.00123931
0.00323291
0.0189834
0.0407479
0.00709362
0.0110463
0.00799032
5.84843e-15
0.00289617
0.00363131
0.000848905
0.00256984
0.0141821
0.01376
0.0194109
7.47383e-15
0.0113852
1.03638e-14
0.0050527
0.00283247
0.000272489