/*--------------------------------*- C++ -*----------------------------------*\
  =========                 |
  \\      /  F ield         | OpenFOAM: The Open Source CFD Toolbox
   \\    /   O peration     | Website:  https://openfoam.org
    \\  /    A nd           | Version:  10
     \\/     M anipulation  |
\*---------------------------------------------------------------------------*/
FoamFile
{
    format      ascii;
    class       volScalarField;
    location    "26";
    object      p;
}
// * * * * * * * * * * * * * * * * * * * * * * * * * * * * * * * * * * * * * //

dimensions      [0 2 -2 0 0 0 0];

internalField   nonuniform List<scalar> 
111485
(
7.87121
0.0279771
0.0184672
7.87208
0.0116618
7.6085
0.011955
0.0205186
0.0122509
-0.00103685
0.011477
0.00871005
0.0156014
0.000274069
0.0137313
0.0391883
0.0266255
8.79359
0.016934
7.87267
7.87281
7.61119
0.00982782
0.0281237
0.00622566
7.84607
0.014941
0.0468822
0.0168619
7.87234
-0.0829637
0.0164972
7.87469
7.60591
8.5732
7.56574
-0.059284
0.0519767
-0.122881
0.0227519
7.65282
-0.000432791
0.0234521
-0.0308454
-0.258497
7.88618
-0.0144619
0.0238033
-0.00528126
7.91418
7.91231
7.36077
7.92079
-0.0461384
7.92578
0.0258739
0.0172203
7.61398
-0.0941749
0.0201241
0.0213096
7.8717
0.0199338
-0.0724139
7.6568
0.0255733
5.10156
0.018683
0.00612804
0.0174066
-0.13869
0.0317733
7.72396
0.00648309
7.87778
0.0308082
7.61072
-0.00371798
7.60964
8.05537
-0.11209
-0.0330215
7.61021
7.87406
0.0243307
0.0104713
1.7422
-0.052118
-0.103724
0.0381071
-0.21227
0.012227
0.0235835
0.0459194
-0.000214838
7.87374
7.8717
-0.0351267
-0.735542
0.0685776
7.8715
0.00674162
7.59505
-0.00798701
0.0122157
7.91196
7.61295
0.0156117
0.00979982
-0.347783
0.0214388
0.0339976
0.0178197
0.00723132
7.8426
0.0305039
7.85922
7.60619
0.0130285
7.87359
7.84503
6.66174
7.61098
7.61416
-0.00247581
8.95387
6.62436
0.0192338
7.87471
0.390192
-0.103022
-0.0362734
7.87826
6.50868
6.79748
0.0124214
7.61052
0.0327918
0.0102004
0.0289386
-0.0372265
0.0098038
0.0193496
0.0193922
-0.0214841
0.0328552
7.61053
7.87319
7.61914
0.0184123
0.015195
7.87049
-0.0714488
0.00926191
-0.665514
0.0200325
0.0158678
0.0106689
-0.522461
7.87946
7.87236
0.0171672
0.00855806
-0.482425
-0.603025
0.0256147
-0.0639159
7.64125
-0.444601
-0.410747
7.61386
7.87266
0.00740703
7.6117
0.0292987
0.0172265
7.66653
7.70183
7.86193
7.81059
7.6728
7.8714
0.0252103
0.0204049
0.0273893
0.0701076
0.0025854
0.028522
-0.0488835
7.87222
0.0161689
7.69702
7.86004
0.0365373
-0.00804933
-0.0480682
0.0324218
0.0160378
7.87862
0.0240642
0.0191608
5.28707
-0.0216275
0.0255469
7.86894
0.0324137
-0.00880134
7.69588
-0.0535552
-0.0184926
0.0144919
0.0150044
7.66552
7.87131
0.0288325
4.95383
-0.0366732
7.61144
0.0314518
0.0346882
-0.00262714
7.87121
0.0207146
-0.0623334
5.98655
7.61149
7.61396
-0.116532
-0.590341
7.72438
7.29262
0.0329312
0.0230719
-0.0812092
7.72232
7.80434
-0.0704377
7.87554
0.00877316
0.0302954
0.0305763
0.017997
0.0295018
7.61515
-0.106774
0.0156033
7.6179
7.61029
-0.0501293
0.0330283
7.78188
0.0306823
0.0294355
7.87335
6.35195
-0.0266073
7.8862
8.02269
7.18579
7.87236
0.0259396
0.0189162
-0.0105381
7.87554
0.0291415
7.87196
7.87038
7.87835
-0.0780212
-0.0103346
0.0268249
0.0173968
0.00192907
0.0204107
0.0177006
-0.0800458
0.0101306
0.0208858
7.57061
7.87304
-0.0861373
0.0197109
-0.0928698
0.0255798
7.87319
0.027071
0.0138647
0.0205308
0.0181834
-0.108458
0.0155986
0.0190869
-0.0237751
7.61049
-0.0120082
7.61179
8.73848
8.09016
-0.121618
-0.0104555
0.010886
7.86548
7.67475
0.0283007
0.0265841
7.87016
7.86913
7.92948
0.0186076
0.0299549
0.0218044
0.0179691
0.0142355
7.22484
7.61718
7.87459
0.0318432
3.22883
-0.00416127
-0.113137
-0.0874143
7.61103
7.87087
7.87166
6.79142
0.0251328
0.0193841
7.60291
0.0281331
7.77904
7.86193
-0.0338752
0.0256635
0.00363924
0.0282593
7.98439
6.75552
7.6062
0.025561
0.0198154
-0.0837307
7.64937
0.442814
-0.151094
0.0191662
0.0297921
1.26758
0.0126043
7.60904
0.00771169
0.0312407
-0.101633
-0.0398618
0.00861033
7.60862
7.87605
7.61149
7.87534
0.0273374
0.0251056
-0.0133771
0.017207
7.62703
0.0128099
7.614
7.87876
0.0137359
8.13778
6.94955
7.91538
7.56103
0.0189348
7.6126
0.0173118
0.0176742
7.60942
0.00662689
0.0271607
7.85281
0.026789
0.0124854
0.032817
-0.0501462
0.0407942
0.0298759
7.99282
7.87393
-0.0196183
7.63079
0.00561362
-0.0465818
7.66524
7.61329
0.0274057
0.0114236
-0.000669779
0.024659
7.61038
-0.0799594
0.00432882
7.60662
-0.0334433
-0.0106928
7.87034
7.87157
0.0247903
0.00673805
7.59104
7.86315
5.85448
7.87085
0.0121633
7.61167
7.87171
0.0010743
-0.0965995
-0.00840904
0.0197872
7.60961
6.80902
-0.00615767
6.90706
-0.0289664
-0.00216802
0.00579669
5.27597
6.9816
-0.489494
-0.315593
7.86984
-0.050437
0.0112625
7.86931
-0.514445
-0.00140625
6.94584
0.00583022
0.00768113
0.0386816
7.61075
0.268648
0.00461754
0.0490456
-0.135676
6.60028
-0.603349
7.87128
-0.0428159
-0.169123
7.61451
-0.00563755
-0.00955983
6.41814
7.87447
7.46769
7.87178
0.0126829
0.0782913
0.0115021
0.0109235
-0.056154
7.61176
-0.0447914
7.88354
0.0245413
7.59773
7.8809
7.88835
0.00181389
7.87469
7.87131
8.3449
7.87014
7.62237
-0.0185514
7.61198
7.41582
7.6084
7.85884
7.60347
7.88086
7.61149
-0.000365963
7.60691
-0.0215486
0.00258937
-0.0952337
7.61794
-0.0190578
7.61606
7.87092
-0.00493876
-0.00693775
0.0424444
-0.124018
7.32065
-0.0138148
-0.0232677
0.0229711
-0.0136152
-0.0017186
7.87375
-0.00433211
6.42932
0.00296596
7.6112
-0.0167889
6.6537
0.0228305
0.0160524
8.29108
7.67558
-0.0318916
7.87046
-0.0123587
-0.0185243
7.62111
7.62851
7.92074
7.61334
-0.980409
-0.0122189
7.60704
7.61836
0.0094104
7.61113
-0.0161181
7.61
-0.0176557
7.87114
0.00851382
0.00775882
0.052461
0.0217627
7.58983
-0.128421
7.605
7.61098
0.00421685
7.61229
-0.00106892
7.92695
-0.0291378
7.87295
0.0237778
7.87282
6.95344
-0.10854
-0.0468275
-0.0152702
0.00835554
-0.0269725
-0.00382458
7.6182
-0.0220224
-0.0270783
7.61094
-0.0516725
-0.063455
-0.00754987
7.68051
8.03691
0.0324973
-0.0387949
3.67566
7.71767
0.000874537
0.020942
0.00518665
0.00198223
0.156555
2.52346
6.85993
-0.70133
3.13813
7.87228
0.00928327
7.63005
6.98425
0.0301331
2.48124
-0.721221
1.42697
6.85768
-0.0125572
0.0161578
7.62615
7.44321
0.0232769
7.87793
7.61118
7.61184
7.61642
-0.000408861
7.61254
7.82953
0.00622809
0.0264518
6.00808
-0.0291959
7.3076
0.0272473
7.91963
7.61611
-0.00543929
7.6104
7.6164
6.95102
0.0456778
4.63386
-0.0243479
0.0378698
7.88609
-0.226101
-0.067749
0.00510015
-0.0144679
0.253897
0.000917372
7.61363
-0.00686186
0.00802119
7.87649
0.0212906
-0.0213625
0.0138543
0.0352913
0.0138566
0.0128063
7.8862
0.000187074
-0.0552093
6.93129
0.0146672
0.0145201
4.83344
0.0389111
0.0151106
0.00505422
0.00782494
0.0161808
0.0329823
7.75639
0.0101207
-0.000717452
8.2293
-0.0043712
-0.0184716
0.0365281
7.61311
0.0493657
7.89107
7.61085
7.62314
7.61448
0.0174801
7.04418
-1.04836
7.86823
7.55196
0.00508706
-0.000617728
7.86931
-0.00977456
7.86945
7.87345
7.922
-0.00691589
0.00742401
6.98024
7.82055
7.61272
7.61278
-0.065422
0.0203864
6.7989
0.00292295
-0.41408
7.61668
0.0104539
-0.0160424
0.0835327
7.61048
7.61097
0.0231574
0.03125
6.9148
7.61446
7.60177
0.0165473
7.8761
7.86881
7.6128
0.0068564
0.0210912
7.61048
8.48048
8.21199
0.149794
7.61576
7.61031
-0.021711
-0.0745573
6.89943
5.94398
1.13656
-0.012273
0.00209043
7.58999
-0.019702
-0.00353862
7.60895
7.91936
7.60996
7.61174
7.61501
7.60976
0.0236786
7.87063
7.6107
7.6711
0.0148943
0.0161102
7.87626
7.93268
-0.0234877
0.0252742
0.0348323
7.86816
7.61129
0.025583
7.87378
-0.00719134
0.0190817
0.0411638
7.84882
7.87158
7.87142
7.61184
0.0361692
7.61119
7.61058
-0.0323253
7.8715
0.0350488
0.00694381
7.63518
0.0350967
7.84032
0.0246276
-0.00432963
-0.023297
-0.0156286
-1.2867
7.228
0.0227017
-0.0110487
0.000888338
7.7852
-2.11984
7.14567
0.0237466
7.61449
-0.0275008
-0.0125599
-0.030872
8.07799
7.87166
7.87463
0.0293692
7.30441
-0.0262084
7.44157
0.0264079
0.0337545
0.00988645
0.0241918
7.60939
7.63758
7.74545
0.0269151
7.61365
7.22536
-0.15739
7.61301
7.61996
7.87305
7.6104
0.0104815
7.60055
7.61204
-1.58338
7.2868
7.63253
7.06152
7.61245
-0.0356974
0.0134173
7.87038
0.0173065
1.00016
-0.0359138
-0.387598
0.0242268
7.61661
-0.00728832
-0.0284362
-0.0349901
7.87346
-2.65593
0.0106291
6.46596
-0.00354021
-0.116315
-0.10208
0.00468642
0.027298
-0.138971
0.0386578
0.0282805
7.59027
7.62765
0.0114616
-0.000187222
7.61527
0.0140115
0.00643324
0.0225301
7.6095
-0.120283
7.61038
0.0200261
0.0139914
7.61065
-0.0662286
0.0278269
-0.158476
-0.021798
7.56799
0.0169748
-0.152683
-0.0731912
-0.156167
-0.0387699
7.60098
7.62097
-0.0217597
7.61042
0.0295571
-0.0775469
6.71926
-0.470384
-0.824571
-0.301447
7.6103
6.37832
0.0261437
7.87396
9.46289
-0.0464467
7.60605
7.60969
-0.723603
-0.862578
7.61054
-0.121335
7.61175
7.61037
7.87572
7.87023
7.95363
7.87283
-0.0247299
7.61548
7.61424
7.61988
-1.43947
0.0151333
0.00174724
0.0271508
7.62494
7.60982
-0.0484494
7.61145
7.61353
5.80819
-0.053157
0.0255696
7.61025
7.60573
7.62254
7.61
7.55641
7.60906
-0.0717562
7.61543
-0.201794
0.0138829
7.61247
7.88202
7.92929
-0.123329
7.92148
7.87279
7.62807
-0.210709
7.60909
-0.0646913
-0.069146
-0.179515
7.60806
5.2888
-0.040088
0.00898426
7.66064
-0.197757
-0.0133508
7.88038
7.58722
6.89709
7.60652
0.0245657
0.0153197
-0.0631404
-0.347226
7.6115
0.0273904
7.5652
6.82525
6.85365
7.6141
0.0211042
7.61138
7.93985
-0.0649718
0.0306242
7.93693
0.00049939
7.31111
-0.0835245
7.9769
7.61103
7.58239
7.87178
0.0258599
0.0233571
0.358931
7.61247
7.66213
0.0159368
7.61068
7.06964
7.87127
-0.00216358
-0.335172
0.0464082
7.86169
-0.0720347
-0.0598714
8.24102
-0.0596738
7.61938
-0.0395722
-0.0244653
0.0088574
-0.0869625
-0.178312
7.61098
7.61178
7.61141
-0.0717076
7.68158
-0.108427
7.87595
0.742218
7.8708
0.0205726
0.0224641
7.94155
7.61021
7.95886
7.6204
-0.110099
7.96699
6.90511
0.00533586
-0.103198
7.91039
7.03537
7.70351
7.05625
7.61235
7.61077
-0.101785
0.00806676
7.87211
7.86452
-0.626931
7.87772
-0.101443
0.0236971
7.69589
-0.0332496
7.87175
0.018126
7.62057
0.0169159
7.6105
-0.585892
-0.306614
-0.145974
-0.0388574
-0.0431931
4.68294
7.54141
-0.030383
7.91603
0.0150994
7.86972
7.64041
7.62223
7.62173
7.64571
7.61528
-0.0534576
-0.0648649
7.87203
6.65141
7.87755
-0.052673
-0.123084
7.86854
0.0268343
-0.14912
7.92974
0.0268489
0.0271699
0.0180199
-0.145638
7.61071
7.60996
7.63965
7.61111
0.0213128
7.5403
-0.033458
7.61108
-0.0444052
0.02119
7.61357
-0.0516498
7.60156
7.61042
-0.0444871
-0.0823097
2.13461
7.61176
7.95302
7.60399
0.0222021
7.50352
7.92312
7.52121
0.858886
6.7243
-0.529934
7.0265
7.48463
7.76685
0.0198584
0.00346366
0.0136594
0.0212411
7.85821
-0.0271045
7.61262
7.61359
0.0172843
7.58815
-0.646427
-0.0406454
0.0325311
-0.0448987
-0.963602
-0.000992148
7.61282
-1.41906
-2.98332
-0.00703374
-0.0346344
0.0244234
5.50897
7.86705
0.00285551
7.87525
7.60954
-0.2441
-0.000525493
-1.10103
7.59517
7.43873
-0.0736721
7.92934
7.61238
-0.0506198
7.94817
7.93716
0.1135
-0.051199
-0.0916466
0.048971
0.0273088
7.6152
7.61057
-0.27215
0.0272389
7.61179
7.94241
0.0342957
7.62306
6.60851
6.75862
6.79517
4.35707
6.62742
7.61336
0.0220369
7.59861
-0.0773928
7.61197
3.42488
7.67065
7.63593
7.61317
7.61137
0.0305642
7.61111
7.61085
6.91502
7.60741
7.61385
7.60763
0.0258801
7.62851
0.0228289
-0.0817972
7.6383
0.0432262
7.6115
-0.0256767
-0.201392
0.0179048
0.026036
7.8448
0.0235074
0.0262944
-0.149685
7.87507
-0.107085
0.0262391
0.0264826
7.32692
0.0178352
7.68322
7.61154
7.61411
7.61051
0.0235012
7.61168
7.60129
0.020256
-0.134473
0.00851082
7.62255
5.42553
0.0319952
7.61613
-0.370287
7.92652
0.0112989
7.60836
7.61074
-0.00379831
7.60808
-0.0193637
7.87489
7.61153
0.0287065
-0.0369486
0.0251078
0.0215639
-0.135878
0.0197503
7.61185
8.01732
0.0155205
0.0294788
0.0317321
-0.0933696
7.6106
0.0235842
7.6105
7.7978
0.00580638
-0.0670678
7.62376
0.0242535
7.59899
0.0193416
0.031963
7.71027
7.61032
7.61194
0.0146644
7.61328
7.6115
0.0179714
0.0203973
-0.0412766
0.0227659
7.63298
7.62257
0.0130317
0.0303597
7.61664
0.0127824
7.69975
0.008963
7.61155
7.6113
-0.00566799
7.61008
-0.0217445
0.032777
7.61765
7.60971
0.00644587
6.47067
0.0332187
7.87129
-0.0591864
7.88178
6.6773
6.45313
0.0295163
6.96233
6.88813
0.0136144
6.84597
4.25997
6.33191
7.67325
7.87624
-0.178098
0.0268617
7.65154
7.60956
0.00338396
0.0148286
7.62212
0.0155109
7.60934
7.88133
0.0061501
-0.00398169
0.126107
7.61044
7.61283
7.61147
7.6106
7.60574
7.60901
7.60453
7.60652
7.61019
7.60869
7.61046
7.87756
7.61397
7.6098
7.61255
7.78485
7.61023
7.61037
7.61065
7.63875
7.81768
0.0214944
7.61224
7.61055
7.6224
0.0287046
7.61434
7.88123
2.94835
7.60074
7.5083
0.0199923
8.24324
7.56451
3.48232
0.0152028
7.61165
6.75816
7.25889
7.60975
-0.0281583
0.017168
0.0142577
0.00586806
0.0333005
7.90121
7.6047
0.0188758
0.025609
0.00481641
7.60825
0.0238003
-0.0141462
0.0286403
0.0217708
0.0229267
0.00642232
0.0265225
0.0179256
7.88634
0.0246315
0.0277745
0.014806
0.0206526
7.61013
7.60981
7.61
7.87186
7.60775
0.0271849
0.0262365
7.61334
7.61013
7.61079
7.81811
7.61229
7.87321
7.6175
7.87777
0.031407
-0.223247
0.0268953
0.0330183
7.58694
7.62842
-0.0321081
-0.263235
7.61045
7.61119
0.00996032
7.88516
7.61066
0.0661925
-0.000426336
0.0170163
0.0339999
-0.0279137
7.89759
0.0144692
0.0242215
6.90667
7.87502
0.0125814
7.89432
7.62414
2.38242
1.27236
-0.00760546
7.76518
7.84977
-0.0430605
0.024186
0.0328957
0.0262998
3.39319
7.87147
-0.0167236
8.23588
7.87396
7.55742
0.00230097
7.61186
0.02883
0.00991998
0.0133499
0.0156881
7.87933
0.0375672
7.87538
7.45273
7.87338
7.86442
0.0223377
4.48952
7.61074
7.87201
8.35803
0.0291277
6.85485
0.0127396
0.0218531
0.0219063
0.024448
7.82348
7.86641
6.62772
0.015024
0.027717
-0.92095
7.91882
7.8713
6.82189
-0.0213871
-0.02326
7.60935
-0.0325308
2.49001
0.0169145
0.0210965
7.87164
6.64103
0.01335
0.0268275
7.61185
0.00772533
0.0058043
-0.00136035
-0.00343498
0.0216769
0.0388567
6.91
0.0317506
0.0248985
0.0299895
7.96571
0.0193447
6.99653
0.0341639
0.0219581
7.8744
0.0211937
0.0175149
0.012843
0.0268087
8.73877
2.07837
-0.05133
4.27909
0.0193954
7.64555
0.0225637
0.0194006
7.87827
7.61081
-0.356168
-0.115046
0.0217714
8.73074
0.00849301
-0.206596
-1.17033
-0.082326
7.87917
7.8924
0.0248351
8.34502
0.0261487
-0.21656
0.01888
0.0332762
7.8715
7.67524e-05
0.0262715
7.8703
6.93048
0.0368134
7.88683
0.0288409
0.033102
7.8727
8.78852
0.0245824
7.87146
7.61017
7.61079
0.0296092
0.0383829
0.0149052
7.92652
0.0117445
0.0291039
7.67238
0.0319711
0.019731
0.0251728
-0.128486
7.61094
0.0201331
0.0540229
0.031691
0.0202904
0.0264658
-0.157879
0.0311692
7.87104
-0.0494958
0.0227809
7.8713
0.0272835
7.61684
7.61179
7.87504
7.62098
7.87331
0.00486145
7.61185
0.0273827
-0.0165233
7.87586
0.0160678
7.80362
0.0177516
7.87779
-0.166259
7.65096
0.00925188
0.00463085
-0.186716
0.0442276
0.0242147
0.0190386
0.0290758
0.0403337
2.75488
0.0362847
0.00710607
0.0430651
7.87325
0.0423201
-0.123731
0.0369641
0.0155711
-0.16699
7.8754
6.76848
7.8753
0.0152793
7.87089
6.16601
0.0252995
8.38917
0.0101682
7.86268
7.84047
7.61081
0.0197448
0.0460136
0.0236605
-0.0439433
0.0251661
0.0219797
0.0340057
0.0109069
0.0160692
0.032112
0.0232538
7.87925
7.56459
7.86611
0.0199084
0.030338
7.64832
7.61076
6.30369
0.0467153
0.0189634
7.87127
0.0250361
7.86938
-0.435543
0.0191379
-0.0647655
7.87251
7.87091
0.0125751
7.87136
-0.00710268
0.0306803
7.4535
0.0222422
0.018074
0.0275477
7.87024
-0.110444
6.97995
-0.0243002
0.01181
7.87408
7.88416
0.0279234
5.52373
7.90324
0.0346086
0.0316434
7.87178
7.85377
6.93607
0.0148493
6.28323
0.0184687
-0.0332357
0.00045993
7.87128
7.03206
-0.0349053
7.87006
7.61713
7.87366
7.87479
7.14157
7.72344
7.5694
7.87176
7.88815
7.29629
8.39711
7.63851
0.00131619
7.64811
6.75381
6.38885
8.9068
6.89494
7.8714
-0.0326614
7.38985
7.70779
-0.0333144
8.20808
8.57312
7.77079
-0.0421769
8.36703
-0.031259
-0.0847106
0.0135555
7.16451
7.87425
-0.0228526
-0.466781
7.83342
7.86551
0.0232122
7.08562
0.0230784
7.00999
7.59317
7.72905
0.021493
0.0248892
7.87028
0.00662884
7.89691
7.3879
-0.186736
0.0442178
-0.0306839
7.60751
0.0247445
7.22858
-0.0203889
7.61145
7.87082
7.61045
6.98734
0.0420474
0.0326093
7.87401
-0.768378
7.88033
7.89304
7.88001
7.8725
-0.0238699
-0.0382959
0.0344868
-0.0174926
7.83312
0.0130866
0.0144941
0.0373365
-0.0299683
7.66046
0.0283048
0.00110172
-0.00263268
-0.434849
0.0244314
7.92247
-0.0119595
-0.0230937
0.0245925
-0.0227163
-0.0464301
7.90127
-0.0394868
7.77738
7.87562
0.0222213
7.87933
0.0274872
7.8693
7.93756
7.55074
7.87822
7.87322
-0.046267
7.87684
-0.0161825
7.19521
7.61497
0.02137
-0.00256487
0.0313839
-0.0147044
7.89002
0.700259
7.87414
-0.017994
7.93871
0.0157967
-0.0256439
-0.0152963
-0.00304929
7.96916
7.97612
7.87828
0.0294167
7.62592
7.86451
0.0250082
7.60345
7.61009
0.00257203
7.96889
0.0105532
-0.444379
7.14565
7.49662
7.43476
0.0129043
0.0147109
7.87159
0.0074672
-0.0103311
6.98776
-0.0209649
7.87026
0.0214822
0.0240747
0.0406465
7.87365
0.0135179
0.0216187
-0.0272984
-0.00195189
0.00925678
7.87323
7.87162
-0.104979
7.86684
7.60868
7.8697
0.0150117
-0.017304
0.0200053
-0.0345399
6.86811
-0.00182943
0.0170823
0.0140538
-0.058448
0.020383
-0.0171405
0.0143895
7.61049
7.61092
7.61066
0.0335011
7.61166
-0.0313313
5.24188
0.00445657
-0.556562
0.00881248
0.0137346
7.60969
7.87253
0.00549602
0.00469003
7.88645
7.60462
7.87392
0.0119594
0.00715054
0.00407205
0.00979399
0.0297029
0.0165828
7.87207
7.87317
7.87115
0.0400532
0.00785183
0.002502
0.017594
0.0341278
0.00570289
7.84708
7.87135
6.33975
7.65486
0.0244931
0.0290998
7.86689
7.9047
7.8667
7.87548
7.83661
7.71449
-0.00452069
7.87352
-0.0487988
-0.117087
7.61827
0.00107768
0.0269544
0.0226526
7.9174
7.76091
-0.00384182
7.87196
-0.00561938
-1.21059
0.0203386
7.66433
5.94442
7.61038
7.87572
7.86723
7.60208
2.10551
7.88488
0.0103793
-0.0019613
7.87449
7.87192
-0.00743491
7.87758
7.6118
0.0141758
-0.201562
7.86049
7.86103
7.67078
0.0423793
7.87155
7.87131
1.16766
-0.0227303
-0.00840697
7.87124
7.61765
7.20552
-0.0129244
-0.00821111
-0.0103659
0.0078611
7.61104
0.0532772
0.0127166
-0.000694013
7.55492
7.86912
7.87122
7.82513
7.87172
0.0254609
0.0218594
0.00423863
7.88981
7.87216
7.87129
7.86914
7.68577
-0.0382996
0.109483
0.0190513
7.61496
7.87205
7.92675
-1.00885
-0.040222
-0.0690833
7.60933
-1.94509
8.25587
7.83751
7.87063
0.0245094
0.0365554
7.87365
7.9057
0.0132182
7.87267
0.0150132
0.0305441
2.73492
7.86939
7.6612
0.0242577
-0.0597013
7.90928
2.5434
0.0546406
0.0334648
7.87291
7.87553
7.88217
7.88043
0.0266616
0.0270945
7.87585
-0.049539
-0.0133236
0.205514
7.87179
7.87076
7.87213
7.87613
0.0107292
8.38358
7.87304
7.76628
0.0248157
-0.0080885
0.029971
7.84377
7.87191
-0.0203273
7.62235
7.87214
7.87378
7.8731
0.0220149
7.69357
7.59613
7.61372
0.0203163
0.028428
7.86809
7.8739
7.85418
0.0173296
8.15128
7.8768
7.85626
7.87398
7.87337
-0.19894
0.024654
7.91468
0.0231988
0.0170344
0.0219596
7.87849
7.87491
7.87325
7.83376
7.61104
0.030839
7.8727
7.38026
7.3322
-0.0153393
7.65014
-0.0232743
7.87145
7.61319
-0.0148267
0.293022
7.03224
-0.00414676
7.87402
-0.00824974
8.12521
7.89026
7.92136
9.10696
7.87885
-0.0361928
7.86937
0.0111981
7.61271
6.93465
7.87909
7.86679
0.0153137
0.0346518
7.61051
2.64618
7.60768
-0.0118189
-0.0396883
0.0127722
7.61229
-0.349437
-0.0219148
-0.0483535
0.0247657
-0.626371
-0.0278553
7.5922
7.61104
-0.750952
0.0229342
-0.000532146
7.90835
7.51435
6.37084
3.25548
7.87444
7.61642
7.8744
7.87502
7.87593
8.30308
0.0363241
-0.0725161
0.0312692
6.96735
-0.0923791
7.87398
0.0114679
7.87108
7.88066
7.61156
7.71028
-0.104697
7.69092
7.60429
7.87146
0.0182136
7.87008
7.8719
-0.054825
7.82723
5.75047
4.92544
4.58593
7.87656
4.80605
4.646
4.75474
5.45753
7.61054
7.61109
0.0123578
-0.011918
6.95635
7.13846
7.60674
0.00727889
8.18986
7.71164
-0.100525
7.87383
7.87195
-0.0357561
-0.0879931
7.83826
7.61237
-0.0307773
7.03033
7.60451
-0.406018
0.00858386
0.0526984
7.80999
0.0234154
7.87452
0.0166544
-0.392952
0.0180995
7.87203
-0.387496
0.022717
7.96602
-1.04139
7.86325
0.0212688
7.5285
0.028446
7.80282
-0.046541
7.87256
7.57138
7.61194
-1.46589
-1.47268
7.88556
0.0112326
0.013256
7.91925
7.87164
-0.00369885
0.0193397
-0.121809
7.88023
0.0167493
0.0110883
-0.0468749
-0.849674
7.87607
-0.169668
7.61998
-0.150242
7.87115
-1.72908
-2.00617
7.85162
0.0234818
7.67421
-0.043695
7.6097
7.85579
7.88443
7.88978
7.84996
7.85835
-0.000691084
0.0301109
-0.154035
7.88088
6.3396
-0.141934
7.8793
7.82934
7.90427
7.86661
7.90284
0.0229073
7.87211
7.87419
7.6109
0.0159527
7.85686
7.61095
7.53881
0.0369963
7.61131
0.00893066
-0.785271
-0.0501444
0.0346456
-0.0149495
8.21942
7.87669
7.87055
0.0698839
0.0313297
7.54172
6.30485
0.0107479
7.87208
7.87539
-0.131842
7.86232
0.0175664
7.87378
-0.0119758
-0.0544958
7.8801
7.61037
7.8737
7.87469
7.86987
-0.0237399
7.87007
0.0120182
7.94218
7.8743
0.0249247
7.60438
0.00923283
7.7729
7.87182
-0.0110175
0.0323039
-0.117541
7.8737
7.87411
7.87209
0.0308341
-0.0861672
7.94966
7.60978
7.64029
0.0140836
7.86496
0.0159257
-0.133187
7.87098
7.86735
0.0229916
7.8658
7.64254
7.61144
7.95806
7.61144
-0.151305
6.21667
7.63652
7.87295
6.37896
7.86704
6.60082
7.84554
7.8658
7.72835
0.0191056
7.78791
0.0122528
7.85876
7.86623
-0.0528728
0.00662288
7.86149
7.82484
7.87341
0.0270916
6.70001
7.8733
7.73127
7.86957
0.0193719
7.86271
-0.178602
7.8743
-0.00803538
6.91568
-0.02513
7.88818
7.8698
0.00685795
6.54345
7.87881
0.0295212
-0.00564298
7.89246
7.87473
-0.0174476
-0.0536671
0.0215876
0.0179724
0.0081006
-0.00663729
0.0232155
-0.0373086
7.94734
-0.188336
6.25576
6.14126
7.87275
7.87014
7.87011
0.035923
7.87476
7.86798
7.87491
-0.120589
-0.0413687
5.94713
-0.0409166
7.87555
-0.016109
7.60974
-0.0586391
0.0239626
6.32945
0.00430132
7.86491
7.84473
7.61126
0.0428722
-0.00991069
7.87223
7.61105
0.0327842
7.87349
-0.130963
7.91393
-0.0806956
7.8713
7.61176
7.85255
7.61061
0.0254196
7.61087
0.275976
7.61284
-0.0030819
7.87189
7.86806
4.30899
3.98383
7.88985
7.86852
7.87169
7.87285
-0.00552621
-0.141027
5.20952
7.87648
0.00253057
7.60933
7.62061
-0.425631
0.014374
-0.0665469
7.61185
0.0262729
-0.0194379
0.0268115
0.0159493
7.872
7.87546
7.87969
7.87572
7.61159
7.61056
7.61132
7.83923
7.61217
7.61151
7.8715
7.61125
-0.106655
7.61048
7.87163
8.6158
7.8741
7.87224
2.70589
7.61081
7.87095
-0.00366663
-0.0887996
7.84758
7.85165
7.87211
0.0197997
7.64512
7.85961
-0.107096
7.61197
7.87222
7.8681
7.8762
-0.0461607
7.61039
-0.173381
7.87622
7.85561
7.87057
7.87151
7.86904
-0.100263
-0.143576
0.0223504
7.87436
7.63544
7.90911
-0.121199
7.87126
-0.144064
-0.0748078
7.60887
7.84186
5.93726
-0.402742
7.85436
7.0146
-0.389902
6.01625
-0.00960194
7.6433
-0.0380002
5.9831
5.6139
7.8713
0.00151178
7.61183
-0.0116292
-0.0525511
7.88022
0.000222554
-0.281864
7.86953
-0.0667239
7.61369
7.85547
7.86448
7.85134
7.86597
7.60918
7.87104
7.87194
-0.15039
7.10473
7.87183
7.86948
7.86999
7.87392
0.0206865
4.0412
-0.12991
-0.30565
7.87046
0.0158752
0.00502631
7.8719
6.99242
7.78661
7.86095
7.89817
7.96062
6.4303
7.16364
-0.0328717
7.87337
7.87784
6.09701
6.6356
7.61032
-0.00496832
7.87892
7.62547
7.8741
-0.0777666
7.87633
7.61072
-0.0138403
7.61101
7.57102
7.76317
7.92021
-0.0140427
7.87275
7.87113
7.87095
7.84255
-0.0131444
-0.0642416
-0.0554855
-0.0011283
-0.0287383
-0.0370456
7.61155
6.54185
-0.161915
-0.0304808
6.53169
-0.148913
7.86802
-1.08454
7.63351
-0.0874367
7.8739
7.616
-0.0293081
-1.39632
7.87587
-0.0307527
7.87513
7.87548
-0.0937157
-0.0557533
7.87224
7.61111
7.91608
7.61049
7.86841
6.85792
7.87354
7.87117
-0.0310993
7.8731
7.86768
7.87025
-0.0222149
7.88325
6.90015
7.61121
7.61069
7.29764
6.91957
-0.0237718
7.61549
6.92821
0.00697429
7.866
-0.0404494
-0.0233415
7.87335
0.00187739
7.87056
7.45355
7.93429
6.78273
7.61315
7.85148
7.8655
7.87592
0.0215921
7.8747
7.87271
7.87134
7.73333
7.87119
7.78391
-0.121368
7.87147
7.87685
-0.0692589
7.87241
7.61149
7.6099
0.0339428
7.87355
-0.161167
6.70127
-0.380952
0.0156519
7.60772
6.53642
0.00952624
6.26585
7.61184
-0.196388
-0.376707
-0.00261332
-0.0551601
-0.255702
-1.16461
7.63514
7.61684
0.0100795
-0.0997099
-0.0822276
0.0189558
-0.398327
7.60901
0.0199822
0.000262988
0.00666976
7.61326
0.00931946
0.0225457
0.0244769
0.00598581
-0.121214
0.0168478
0.0426949
-0.00282828
0.0127691
0.0273668
0.0123415
6.9135
0.0916906
0.00631052
-0.000154184
-0.0275991
0.0235601
0.0142129
0.0150673
7.07521
-0.112692
7.02396
0.0363056
0.0124085
-0.0342244
0.00462458
7.0121
7.60895
0.0137
0.0172158
-0.126106
-0.062248
0.0250402
0.000825413
4.82882
0.0106193
7.87147
0.00282865
-0.111111
-0.0467463
0.0313703
-0.138933
-0.174404
-0.00077962
0.00878122
-0.00179261
0.0330503
0.00297102
0.123676
6.13738
5.39261
0.00322929
7.87532
7.87213
0.00276283
0.0234056
0.0234159
7.87267
-0.0712547
-0.0553564
0.0195492
5.58429
7.87095
-0.208251
0.0078302
-0.117739
7.87563
0.0296038
7.8715
0.00974818
-0.00311071
-0.0447642
-0.044231
7.87117
7.87349
-0.0363946
0.0139648
0.0290584
7.86496
0.00959684
0.0288861
-0.00438871
7.61867
0.0360773
0.0497833
7.00329
0.0236451
-1.50692
-0.104508
7.57937
-0.0608811
-0.0990619
7.87142
0.00472336
0.0180484
1.38711
-0.0120742
0.0103604
0.0232781
0.0231466
-0.0331024
-0.0229338
-0.231645
-0.108682
0.0342237
0.0226523
-0.01281
-0.169349
0.0227249
-0.0180247
0.0606176
0.0160272
-0.15896
0.0405855
7.87158
-0.000975037
-0.0110135
-0.104121
0.0388912
-0.0392538
7.63873
-0.0032153
0.0257803
7.86703
-0.0731599
-0.0124985
-0.00281424
0.00429236
0.0228976
-0.045162
0.0142667
-0.0151454
-0.0520793
7.87123
7.87165
-0.0481331
7.61473
-0.044741
-0.00312901
7.70372
0.0226382
-0.0181144
0.0416584
7.87139
0.0273699
0.0129605
-0.0613743
-0.142284
0.0221853
0.0457289
0.0103158
-0.00777982
7.87162
7.85402
-0.0945716
-0.030572
-0.0572589
0.022316
7.85368
-0.0313781
0.0175038
7.70417
0.00212154
0.0125676
-0.0834638
-0.22383
-0.0291063
-0.0364426
0.039279
-0.00467268
7.61971
0.00520816
0.0048195
0.00191802
-0.201684
7.8549
-0.0201257
8.0123
7.87234
0.0140256
-0.0105688
0.00761527
0.127031
-0.116679
1.48954
7.61327
-0.0296954
0.0276503
0.0687243
0.0112798
7.87834
7.6121
7.60162
0.000545251
0.00541406
-0.228683
0.0263816
7.62462
7.85827
-0.00726907
0.00763371
-0.0412917
0.0154926
0.0104559
0.0312595
-0.0494718
4.37366
7.61067
-0.00247571
0.0236547
7.85775
-0.00273573
0.0265737
-0.0749242
0.0119199
0.0113928
-0.0404433
7.85791
0.0280193
0.00763716
7.61316
7.64113
0.0287837
0.0797163
0.0143158
0.021316
0.0199574
0.0152979
0.033931
0.0312386
0.0259637
0.0144488
7.85363
7.84604
0.0100035
0.0313485
0.0189218
-0.097668
0.0226076
-0.00133348
0.000578969
0.0259528
0.0188623
7.61344
7.62035
-0.11195
7.85234
6.85897
0.0148559
0.0215566
0.00265565
-0.0938978
7.16132
-0.0331102
-0.0789476
7.2923
-0.100628
-0.207627
0.0221175
0.0242323
0.0201383
0.0311602
-0.143228
0.0212062
7.87189
7.23522
-0.0785039
0.0295845
0.00707472
0.0268942
-0.106916
-0.030946
-0.108681
7.26135
0.0270276
0.0536242
0.0161249
-0.121661
-0.0353022
-0.0931994
-0.200829
0.00469883
0.0230448
7.15329
-0.00192539
0.0292673
2.78816
6.78921
6.23831
0.0399114
6.63398
0.0137205
0.0253305
0.00940285
0.0246182
-0.106459
5.04217
3.04424
8.0605
6.72789
-0.045966
7.61046
7.61017
-1.28973
7.86956
0.0296963
0.0138197
0.0311772
0.0240039
0.0246852
0.00745528
6.26783
0.0235359
0.02558
-0.0294144
0.0166268
0.03664
0.0153221
7.61052
-0.203812
0.0312817
-0.0943081
7.61059
-0.0071051
-0.00362295
7.61054
7.86323
-0.0791284
0.0206795
7.90777
0.0144733
0.0187844
-0.0818073
7.87313
7.6105
0.0204168
-0.2068
0.0247335
7.61058
7.59521
7.61064
0.00423494
2.55058
2.32319
-0.0024482
-0.367311
7.88132
0.0274589
-0.344593
0.0203491
0.0238441
0.00732805
0.0213094
-0.503168
0.0286343
7.65999
0.0116026
0.0403324
0.0179804
0.0220648
0.014483
0.0356489
0.0172464
0.0102595
0.0301904
-0.0606624
-0.386904
0.0136557
-0.0838569
-0.131194
-0.458088
0.0109664
-0.371951
0.0203541
0.0303839
0.0234676
0.0402495
-0.0523657
0.0353648
-0.378085
0.0239474
7.46909
0.0119897
3.81383
0.0159045
-0.00454644
7.61384
-0.0144567
7.46857
-0.00247043
7.49658
7.90284
0.045242
-0.0250622
6.84504
0.0237163
0.0217828
-0.0214129
7.85906
7.8738
0.0159469
0.00170979
-0.177202
0.0175809
0.0327222
-0.0225688
-0.0631522
-0.00605981
-0.0153944
6.50781
0.0114937
7.61013
7.80569
0.032385
0.0306304
-0.0950041
0.031463
0.0323346
-0.00865908
-0.0208068
7.77977
-0.110175
0.0215813
-0.0104818
7.79217
7.87999
0.0113953
0.000268612
6.15836
-0.0409265
0.0290978
0.00239099
-0.135295
0.0332829
0.0247483
7.86258
4.57502
0.0233784
-0.0730601
7.67758
0.0414216
-0.0472811
-0.0116058
-0.11948
0.0182171
-0.149046
0.0111334
-0.0372395
4.83007
-0.0474878
7.87276
0.00163099
-0.0183714
0.031736
0.00975609
6.57129
0.0145962
-0.07816
-0.0120078
-0.108159
7.42307
7.61073
0.0309338
-0.0726102
-0.00202234
0.00605892
-0.0408962
0.022307
-0.00218384
0.0100734
0.0419512
0.0265174
-0.0488196
7.03088
-0.130421
-0.0212716
-0.000829509
-0.0379881
7.22658
7.61057
-2.3918
-0.114094
8.15378
-0.140514
-0.022809
7.36645
4.99513
5.45619
-0.0421774
0.0253975
0.177622
5.84015
-0.0753749
0.0328599
7.61513
0.227527
6.88429
-0.0115087
0.0227856
7.64381
-0.0282753
-0.0247684
-0.0285461
0.027817
7.61024
-0.26803
-0.0390033
-0.0751626
-0.0189691
-0.0192522
-0.0413082
-0.00734844
-0.175594
-0.0211118
0.0221091
0.0244542
7.87119
6.44407
6.55456
7.72482
-0.0291456
0.0271299
0.0326157
-0.062648
0.0213811
0.0310111
-0.00464067
-0.0184276
-0.0144092
0.0240187
-0.0127685
-0.0848575
0.00481881
0.027105
7.87202
-0.0410569
-0.059842
-0.0164726
-0.00859773
7.60744
0.00350672
0.00594323
0.0369808
0.00448329
0.0144995
7.63044
0.0254222
0.0142475
6.87641
0.0256381
-0.00746657
7.71879
0.000541804
7.71018
7.60789
0.00489449
-0.0600255
-0.00490295
0.0158202
7.61366
0.0350424
-0.0370455
7.61228
0.0313673
0.0140703
0.0203429
-0.011063
7.75
-0.0309583
-0.0256733
0.0113057
7.69422
0.0475728
0.0209882
-0.00036661
0.0287377
0.0145756
7.90117
7.45213
7.05837
0.0268108
7.18675
0.0303028
0.0170889
0.0253724
7.83362
0.0217897
7.65465
7.87261
7.80756
0.0114331
-0.0126729
-0.208211
0.0049949
0.035693
7.51513
6.88246
-0.0396791
-0.044348
0.0388866
-0.164815
0.0257556
-0.401144
7.87481
5.73552
5.84875
7.60922
5.92364
0.0181095
7.8718
0.0390441
-0.00677727