/*--------------------------------*- C++ -*----------------------------------*\
  =========                 |
  \\      /  F ield         | OpenFOAM: The Open Source CFD Toolbox
   \\    /   O peration     | Website:  https://openfoam.org
    \\  /    A nd           | Version:  10
     \\/     M anipulation  |
\*---------------------------------------------------------------------------*/
FoamFile
{
    format      ascii;
    class       surfaceScalarField;
    location    "26";
    object      phi;
}
// * * * * * * * * * * * * * * * * * * * * * * * * * * * * * * * * * * * * * //

dimensions      [0 3 -1 0 0 0 0];

internalField   nonuniform List<scalar> 
214403
(
-0.00340543
0.00261139
0.000144421
0.00064962
-0.00169424
-0.00570903
0.000484377
0.00691889
-0.00520347
3.48905e-05
-7.20657e-05
0.00524065
0.00447932
-0.00301207
-0.00750829
0.00604104
0.00623989
-0.00788784
0.00188039
-0.000232439
-0.00275103
0.00286504
-2.72054e-05
-8.6801e-05
-0.000432137
-0.000822159
-0.00468299
0.00593729
-0.00866824
0.00492789
-0.0012963
0.00503664
-0.0118125
0.00833788
0.00841821
-0.00494357
0.00722611
0.000857009
-0.00807422
-8.89596e-06
0.00255876
-0.00506672
0.00104132
0.00146664
-0.00525352
0.00165366
0.00272086
0.000878996
0.000242706
-0.00580808
0.00699324
-0.00142787
-0.00507313
0.00510734
-3.4205e-05
0.000973961
0.00606386
-0.00776975
0.000731928
-0.00615016
0.00514343
0.00155799
-0.00055126
-0.00618428
0.00603621
0.000148068
0.00199791
5.56828e-06
-0.000540158
-0.00146332
0.00796042
-0.00476488
-0.0105845
0.007389
-3.84459e-05
-0.00157669
4.56461e-05
0.00156949
0.00324967
-0.00317278
-7.68909e-05
-0.00630489
-0.00218132
0.00216911
0.0063171
-0.00115977
0.0069236
-0.00558146
-0.000182375
0.00342542
0.000361334
0.00119664
-0.00498339
-0.00523281
-0.00249887
0.0067665
0.000965171
0.00464825
-0.00588694
3.65496e-05
0.00120214
0.00164345
-0.0014342
0.00537195
-0.0055812
0.00388151
0.00507609
-0.00611655
-0.00284104
0.0056758
-0.00356068
-0.000161071
-0.00195406
-0.0029692
0.00302633
-5.71267e-05
0.00124897
-0.00259088
0.00688759
-0.00554568
0.00720129
0.000340498
-0.00125722
-0.00628457
-0.00285123
-0.00292706
0.00299789
0.0027804
-0.000613344
-0.00345784
0.00306258
0.00100861
0.00227052
-0.00160241
-0.00480832
0.00414021
-0.000875232
0.00436609
-0.00157739
-0.00191347
0.00815243
-0.000189652
-0.00796278
-0.00351542
0.00685704
-0.00334163
0.000634498
-0.00751406
0.00434843
0.00253113
0.00125146
-0.000502925
0.00305984
-0.00380838
0.002921
-3.10101e-05
-0.00288999
0.00520997
-0.000110486
0.000921014
-0.0060205
-0.00662252
0.000830271
0.00704371
0.00043685
0.000451374
0.00438015
-0.00526838
-0.00207719
-0.0136597
0.0132325
0.00250438
0.00287967
0.000522989
0.000649103
-0.00405176
0.00215006
0.00163576
-0.00526125
0.00147543
0.00680861
0.00408133
-0.00746452
0.00061528
0.00576235
-0.00116766
0.000919334
-0.00344018
-0.00202873
0.00454958
0.00157104
0.00241671
0.000718197
-0.00470595
0.000945258
-0.000709211
-0.00219035
0.0019543
0.00347909
-0.00629485
0.0043868
0.00604666
-0.00569267
-0.0019543
0.0016003
0.00538258
-0.000984159
-0.00436861
0.00592266
-0.000251396
-0.00130265
0.00450247
-0.00575701
6.4491e-05
0.00119005
-0.00423865
0.000280231
0.00677347
-0.00281505
-0.00780341
-0.00732787
0.00615554
0.00897573
-0.00416841
0.00419343
0.000825338
-0.000850363
0.000655227
-0.00532656
-0.00433343
-8.95638e-05
0.00225209
0.0021709
-0.00684643
0.00293678
0.00443353
-0.000523881
0.00799952
-0.00644076
0.000410063
-0.00196883
0.000367645
0.000134488
-0.00531028
0.00480815
0.000263203
-0.00145116
0.00716567
-0.00597771
-0.0176736
0.00183004
0.00193907
0.0139045
-0.00163128
0.00481081
-0.0015282
-0.00165133
0.00236892
-0.00124446
-0.00505944
0.00393498
0.000566037
0.00353105
-0.00448919
0.000392108
-9.13433e-05
0.00432361
0.00149895
-0.00573121
-0.000863598
-0.000138646
-0.00178163
0.00278387
-0.00456613
0.00499053
-0.00018962
-0.000234776
0.000160114
-0.00463763
-0.00321874
0.00285108
0.000864986
-0.000497321
-0.00861531
-0.000537825
0.00420207
0.00495107
-0.00261632
-0.00111468
0.00222629
0.00150472
0.00382035
-0.0128151
0.00177637
0.00721842
-0.00200957
0.00404489
-0.00220901
0.00017369
0.00290603
-0.00225479
0.000289163
-0.000940397
6.78209e-05
-0.00540103
0.00533321
1.58077e-05
0.00439271
-0.00440852
0.00389139
-0.000760888
0.000515514
-0.00364602
-0.00229966
0.00328007
0.00108802
-0.00206844
-0.00163256
0.00694529
-0.0016693
-0.00364344
0.00327787
-0.00558672
-0.000214374
0.00252323
0.00375515
0.00398651
-0.00774166
0.00553681
-0.0062234
0.00159511
-0.000908522
0.000532827
-0.000998416
0.00723314
-0.00676755
0.000209865
-0.00117416
0.00521801
-0.00425371
0.00123729
0.0108966
0.00313428
-0.0152682
-0.00951217
0.0083707
0.0054231
-0.00428163
0.000438041
0.00335565
-0.00451173
0.000718045
0.00445475
0.00495074
-0.00162385
-0.00778164
0.00825162
-0.00501411
-0.000164641
-0.00307288
0.000359146
-0.00105194
-0.0033025
0.00399529
-0.00334726
1.93615e-05
0.0033279
0.00501722
0.000173785
0.000345805
0.00623727
0.000530599
-0.00946401
0.00269614
-0.00499772
0.00110249
0.000888351
0.00300687
-0.0031537
0.000781901
0.000387517
0.00198428
0.0007766
0.000557098
-0.00659117
0.00525748
-0.00136088
-0.00791792
0.00504779
0.00423101
0.00315519
-0.00373111
-0.00243303
0.00300895
0.00511539
-5.64031e-05
-0.00511508
5.60953e-05
0.00393062
-0.00554453
-0.00193789
0.0035518
0.0101585
-0.00307299
-0.00158285
-0.00550269
0.00574865
-6.8748e-06
-0.00529201
-0.00044977
-0.00288809
0.00340073
0.00708551
-0.00759816
0.00619351
-0.00216837
-0.00595868
0.00193355
0.0011393
-0.0016625
0.00723728
-0.00671408
-0.00820143
0.00747843
0.00708258
-0.00635957
0.000369684
-0.00637119
0.00245895
0.00354255
0.00797487
-0.000422536
-0.000162159
-0.00739018
0.00558761
-0.00109059
0.00108024
-0.00557726
-0.00653649
-0.00594141
0.00703366
0.00544425
-0.00122804
0.00352642
0.000955389
-0.00325377
-0.00280212
0.000152658
0.00543215
-0.00278269
-0.000621975
0.00701662
-0.00653182
0.00013718
-0.00599665
0.00556862
0.00108447
-0.000656446
-0.000199235
-0.00349887
0.00834636
0.00111924
-0.00373357
-0.00272217
0.0053365
-0.00297289
3.97965e-05
0.0029331
0.000909245
0.00413576
-0.00382555
-0.00121946
0.00657305
-0.00379014
-0.00100792
-0.00177499
4.2428e-05
-0.00192026
0.00187783
-0.00371549
-0.000999436
0.00139192
0.00332301
0.000381077
0.00210232
-0.00471681
0.00223341
0.00798015
-0.000720468
0.00311944
-0.0103791
0.000578084
-0.000708283
-0.0097337
0.0098639
0.000632629
-0.00277593
-0.00369198
0.00583528
0.000233162
0.0050658
-0.000281745
2.05027e-05
-0.00296667
0.00294617
0.0061963
-0.00229289
-0.00278416
-0.0037589
0.00314325
-0.00309984
0.00680679
-0.00566615
-0.000685043
-0.000455601
0.000685201
-0.00324071
0.00141652
0.001139
-0.00556787
-0.0016853
0.00113111
0.00612206
0.00462719
-0.00752504
0.00498825
-0.00209039
-0.000203822
0.00680234
-0.00681248
0.000213956
-2.22441e-05
0.00620389
-0.00614959
-3.20522e-05
-0.00866686
0.00691364
-0.00554848
0.0073017
0.0072273
-0.00698931
-0.000237984
-0.00659745
0.00883615
-0.00161787
-0.00062083
-0.00589473
0.00141691
-0.000443355
0.00492117
-0.00973101
0.000744276
0.00626631
0.00272042
0.001735
-0.00236962
0.00131982
-0.00236711
0.00269162
0.00433101
-0.00465552
-0.00259951
-0.00116643
0.001487
0.00227894
-0.00350204
0.00229221
-0.00442811
0.00563795
0.00105283
8.60686e-05
-0.00773636
-0.00344104
0.00343361
7.42773e-06
0.00379616
-0.00364997
-0.000146189
-0.00570116
-0.000373316
-0.00151599
0.0014097
-0.00750635
0.0087405
-0.00264385
0.00337651
0.0058113
-0.00738883
-0.00179897
0.0064477
-0.00700361
0.000188224
0.000367686
0.00344191
0.000896974
-0.0035593
-0.000779583
-0.0054366
-0.000299349
0.00714565
0.00311109
-0.000225421
-0.00379208
0.000906419
0.00350204
-0.0029983
0.00345368
-0.00395742
-0.00613846
0.00115494
0.00836003
-0.00207526
-0.00291179
0.00960906
-0.004622
-0.00296731
-0.0032624
0.000793115
0.00088437
0.00234196
-0.00619364
-0.00421122
-0.000370788
0.00676438
-0.00218237
0.000652335
0.00103352
0.00374248
-0.00542834
-0.00200687
0.00491253
-0.00290566
0.00158542
-0.00759399
0.00274617
0.00451881
0.00315921
-0.00679364
-0.00642262
7.75581e-05
0.00800363
-0.00165858
0.00107618
0.000920341
0.00288033
-0.00487684
0.00431406
-0.00434507
3.10142e-05
0.00162537
-0.000613526
0.00545478
-0.00646662
0.00568928
-0.00180221
0.00273474
-0.00662181
0.0104366
-0.00335118
0.00778579
-0.0148712
0.00172223
0.0032002
-0.00133289
-0.00358954
-0.00470006
0.00193131
0.0024677
0.000301046
0.00338673
-0.00255267
-6.94026e-05
-0.000764663
-0.00220672
-0.00280176
0.00815475
-0.00314627
-0.00377862
0.00490201
0.00195842
-0.00308181
0.0056849
-0.000310475
-0.00187239
-0.008894
0.00588065
-0.00048869
-0.00846413
0.00780771
0.00362607
-0.00296964
0.00539857
-0.00608561
-0.000878031
0.00156508
0.00306497
-0.00553097
-0.00290321
-0.00314464
-0.00288745
0.00163104
0.00440105
-0.00449588
0.00139664
0.0044348
-0.00133556
0.00518852
-0.00493834
-0.00339644
0.00314626
3.13837e-05
-4.47824e-05
-0.00484712
0.00486052
0.000119412
-0.0042926
-0.000162435
0.00433562
-0.00122516
-0.00725352
0.00114069
-0.0042
0.00377861
-0.000719302
-0.00287653
-0.00121331
-0.000406039
-9.84794e-05
0.00722162
0.000102967
-0.0172041
0.0121005
0.00874622
-0.00364269
-0.00508562
0.000346375
0.000186943
0.0045523
-0.00101055
0.016085
-0.0189265
0.00385207
0.000799587
0.00123308
-0.00276808
0.000735413
-0.0108817
0.00585936
0.000758049
0.00426429
-0.000127248
-0.00723538
-0.00102873
0.00839136
-0.00302834
0.0108997
-0.00754244
-0.000328949
0.00489041
0.00710898
-0.00656919
-0.0054302
-0.00583295
0.00555994
0.00690092
-0.00662791
0.00225144
0.0031467
-0.00391914
-0.001479
0.00225703
-0.00152314
-0.00361042
-0.0115801
-0.00045562
0.00946236
0.00257338
0.00338364
0.000517713
-0.00197004
0.00349817
0.00468246
-0.00432341
-0.00385722
-0.00578649
0.00129051
0.00564501
-0.00114904
0.000687342
0.00181557
0.00633324
-0.00673421
0.0066515
0.000642895
-0.000560185
0.00412854
0.00324117
-0.00292453
-0.000115546
-0.000822784
0.00386285
-0.00445027
-0.000887302
0.002473
-0.0085878
0.00364894
0.00246585
0.000259998
0.00461634
-0.00512318
0.000246837
-0.00178745
0.000345311
-0.00166165
0.00310379
0.00716388
-0.00512204
0.000215184
-0.00404748
-0.00316067
0.0042596
0.00294855
0.015287
-0.0163574
0.00534701
-0.00427658
-0.00292285
0.00363196
0.00146282
-0.00217194
-0.00671799
0.00291958
0.00585805
-0.00205964
-0.00291396
0.00423558
0.00543899
-0.00676061
0.00818211
-0.00317053
-0.0054193
0.000407724
0.000142436
-0.00199316
0.00484966
-0.00299893
-0.000843432
0.000836845
-0.00641603
0.00586823
0.00190797
-0.0062839
-0.00149231
0.00737142
-0.0060456
-0.00162517
0.0015577
0.00230399
-0.00544399
0.0015823
-0.00301445
-0.00553094
0.00491657
0.00362882
-0.000922891
-0.00239722
-0.000727367
0.00300264
-0.00321131
0.00691007
-0.0067014
0.000730658
-0.00842124
0.00769058
0.00288056
-0.00376251
0.00243965
0.00154467
0.00089848
0.00126765
-0.0037108
-0.000147753
-0.0069978
0.00714555
-0.00379243
0.000502993
-0.00123073
0.00452017
-0.00045638
0.00528476
-0.00481722
-1.11639e-05
-0.00359039
-0.00190178
0.00207816
0.00341402
-0.00133774
-0.00317554
-0.0029552
-0.00433593
0.00361708
0.00367405
0.000155695
-0.00444864
0.00771094
-0.00317006
-0.000410281
-0.00413061
0.00406924
-0.000389275
-0.00296893
-0.000711035
-0.00065652
0.00574475
-0.00717274
0.00208451
0.0037178
0.000142239
0.00181001
-0.00567005
-0.000135927
-0.00305356
0.00147312
0.00171637
-0.00210817
0.00274269
0.00530427
-0.00593878
-0.00747078
-0.00194412
-0.00209674
0.00692142
-0.00637225
0.000149274
0.00199853
0.00422445
0.00061425
-0.00226103
-0.00403193
0.0056787
-0.00290679
-0.00567511
0.00143143
0.00715047
-0.00267897
-0.00297169
0.00309336
0.0025573
-0.00691664
0.00665673
0.00701528
-0.00675537
-0.000928017
-0.00162043
-0.00489419
0.00744263
-0.00668192
0.000690972
0.0068002
-0.000809252
-0.00116887
0.00314035
-0.00197148
-0.0027114
0.00501013
-0.00377369
0.00147497
-0.000116827
0.00905217
-0.00336085
-0.00557449
-0.0032372
-0.00156575
0.00650336
-0.00170041
0.00104928
-0.00274717
0.00623115
-0.00453326
0.000283581
0.00402141
-0.000704506
-2.42021e-05
-0.00664482
0.00664389
2.51268e-05
0.00751377
-0.0013305
-0.0109827
0.0047994
-0.00694172
-0.000679909
0.00866694
-0.00104531
-0.00377167
0.00569785
0.000468254
-0.00239444
0.00337598
-0.00333575
-4.02344e-05
-0.00403257
0.000389511
-0.00348081
0.00712387
-0.00584148
0.00804975
-0.00167843
-0.000529838
0.00363329
-0.00152335
-0.00437967
0.00226973
-0.007038
0.00710338
-6.5386e-05
0.00577398
-0.00839909
0.00068185
0.00194327
-0.00656209
-0.00179534
0.0112227
-0.00286528
0.00483242
-0.000203343
-0.00101492
-0.00361416
-0.00273657
-0.00467668
0.0104159
-0.000496413
-0.00688267
0.00416777
0.0108841
-0.012142
-0.00115365
0.00241152
0.00289586
0.00137909
-0.00319878
-0.00304111
0.00316642
-0.000125306
-0.00123956
0.00692417
-0.000438858
-0.00524575
-0.00151021
0.00179141
0.00603414
-0.00631535
0.00392552
0.00921779
-0.00539376
-0.00774954
0.00670754
-0.00804724
0.0025582
-0.00121849
0.00615138
8.47447e-05
-0.00623612
0.000112077
0.00599378
-0.00610586
0.00672728
-0.00814199
0.00718868
7.79929e-05
-6.31732e-05
0.00524201
-0.00525683
0.000127795
0.00954723
-0.00951021
-0.000164816
-0.000812693
-0.00241334
-0.00487642
0.00810246
-0.0029834
-0.0017824
0.000598552
0.00564938
-0.00984156
0.00359363
-0.00479356
-0.00125697
0.00513939
0.000911141
-0.00562323
0.00620888
-0.00166
0.00107435
0.000891017
0.00464477
-0.00157989
-0.0039559
-0.00228392
0.000579356
0.00384965
-0.00214509
-5.98767e-06
0.00171232
-0.00214296
0.00043663
-0.0024016
0.00586839
-0.0033822
-8.45829e-05
0.00176284
-0.00555581
-0.00324502
3.91132e-05
-0.00518205
0.00514294
-0.00190767
-0.00182986
0.00084958
0.00288795
0.00290156
-0.00167423
-0.00122733
0.00723668
-0.00718624
-0.00146647
0.00141604
-0.000658624
-0.00427491
0.00394081
0.000992725
-1.75549e-05
2.39466e-05
0.00385914
-0.00386553
0.0019213
-0.00157785
-0.00610883
0.00576538
0.00444296
-0.000114118
-0.00432885
-0.00653966
-0.00423208
0.00630923
0.0044625
0.00381228
0.00598259
-0.0102913
0.00362505
-0.00130382
0.00204045
-0.00436168
-0.00145125
0.00143319
-0.00797515
0.0079932
0.00226354
-0.00445785
-0.00433658
0.0065309
-0.000456157
-0.00102869
0.0048535
-0.00336866
0.00338135
-0.00415672
0.00150649
-0.000731122
0.00183263
-0.00303822
-0.00293655
0.00414215
-0.00595159
0.00670784
-0.00179218
0.00103594
0.00675663
0.00868584
-0.00956207
-0.00588039
-0.00524774
0.00522316
2.4581e-05
-0.000581893
0.00617468
-0.0077223
0.00212951
0.000238264
-0.00038941
-0.00593707
0.00608822
0.00586519
0.000246939
-0.00674862
0.000636494
-0.0024789
-0.00418977
0.00526878
0.00139989
-0.00598648
0.00848262
-0.00300461
0.000508464
-0.00249601
-0.00304419
0.00180663
-0.000369285
-6.18515e-05
-0.00428101
0.00471215
-0.0139969
6.01767e-05
0.00125869
0.0126781
0.000555573
-0.00357051
-0.00184772
0.00486265
0.00871702
-0.000716768
-0.00282103
-0.00517922
-0.00156621
-0.0033723
0.000662235
0.00427628
0.00244634
-9.59435e-06
-0.00243675
0.0040945
0.00218193
-0.00135871
-0.00491772
0.00317392
-0.00251741
0.00626749
-0.00692399
0.000206884
0.00652683
-0.00215468
-0.00457904
0.00158144
0.00225494
0.00488064
-0.0031493
0.000219389
0.00292991
-0.00406928
0.000573833
0.00108149
0.000683014
-0.00563612
0.00387162
-0.00530336
0.00776051
0.0023509
0.00802214
-0.00170072
-0.00867232
-0.0050961
0.00501
-0.00792492
0.00801103
-0.000771442
-0.00386516
0.00135216
0.00328444
-0.00424863
0.00800378
0.00237089
-0.00276013
0.000618933
-0.00022969
-0.00261206
-0.00835054
0.00261289
0.00834972
0.00549414
-0.00548357
-4.91587e-05
3.85963e-05
0.00443073
-0.00517481
0.00110414
-0.000360062
0.00113775
0.00444579
-0.00792547
0.00234193
1.96672e-05
0.00384737
-0.00386704
0.00247558
-0.00635272
0.00501489
-0.00239189
0.0064281
0.0054144
-0.00945061
0.00182886
-0.00186257
-0.00866604
0.00869974
-0.00260458
0.00431812
-0.00866689
0.00695336
-0.00623497
0.00496429
0.00650686
-0.00523618
-0.00391882
0.00537061
-0.0034699
0.00201812
-0.000817019
0.00355936
0.000578562
-0.0033209
0.00182355
-0.00265881
0.00274265
-0.0019074
0.00340443
0.00126765
0.00111946
-0.00579154
0.00975913
-0.00663082
-0.000397973
-0.00273034
-7.244e-06
-0.00474581
0.00475305
0.00295013
-0.00432163
-0.0132461
0.0146176
-0.000594655
-0.00642414
-0.00194749
0.00896628
-0.000393786
-0.0029802
0.00337398
0.000903273
0.0042747
-0.000679456
-0.00449852
-0.00119974
-0.00433121
0.00349493
0.00203602
0.00331151
-0.00277289
-0.00487204
0.00849446
-0.00661354
0.00186513
0.00197567
-0.00384081
0.00640796
-0.000201143
-0.000780549
-0.00542627
-0.00122634
-0.00208564
0.00331198
0.00230686
0.00153297
0.0128069
-0.0154007
-0.00544264
0.00803639
0.00198106
0.00422048
-0.00322799
-0.00297355
-0.00449784
0.00859966
0.00572065
-0.00982247
0.00505708
0.00175475
-0.000677111
-0.00613471
0.00840948
-0.00560753
0.00361916
-0.0064211
-0.00470074
0.00214735
-0.00589005
0.00844345
-0.00763184
0.0136797
-0.0053597
-0.000688147
-0.000200726
-0.00328908
-0.00452588
0.00801568
0.00621492
0.00256568
-0.00728981
-0.00149078
0.00331493
-0.00883547
0.00557479
-5.42523e-05
-0.00782849
-0.000296918
0.00512237
0.00300304
-0.00157096
0.00405844
0.00176445
-0.00425193
-0.000997217
0.00399871
0.00321542
-0.00621692
-0.00814422
0.00418811
-0.000398828
0.00435493
0.000754377
-0.00223425
0.00442918
-0.0029493
0.00344438
-0.00172849
0.00122899
-0.00294488
0.00335566
0.000646093
0.000326059
-0.00432781
-0.00497782
0.00534154
0.00197739
-0.00234112
-0.00117098
0.00627651
0.000127203
-0.00523273
0.00505465
-0.00296661
-0.0019598
-0.000128242
0.0044128
3.52498e-05
-0.00444805
0.00321675
0.00249081
-0.000564718
-0.00514284
0.00149676
0.00395378
0.0033845
-0.00883504
-8.4111e-06
-0.00710326
0.00711167
-0.0037029
0.0143425
-0.002092
-0.00854764
-7.15025e-05
0.00535762
-0.00528611
-0.000358065
-0.0038651
0.000695179
0.00352798
-0.0069615
0.00354902
0.002692
0.000720472
0.00141855
0.00118027
-0.00813759
0.00553877
0.00417443
0.0065941
-0.00246458
-0.00830394
0.00627394
-0.00214513
-0.00600536
0.00187655
-0.00783154
0.0044639
0.0119461
-0.00857848
-1.96455e-05
0.00298324
-0.00298301
1.94222e-05
-0.00308905
0.00305694
3.21068e-05
-0.0079746
0.000122885
0.00335387
0.000887993
0.00192116
0.00525948
-0.00806864
0.00417944
-0.00497077
0.00320565
-0.00241432
-0.00396135
0.00346982
-0.000130925
0.00062246
-0.000833471
-0.00653156
0.00836432
-0.000999291
-0.00290813
0.00140006
0.00460546
-0.00309739
0.00507101
-0.0019558
0.000750387
-0.0038656
-0.00339534
-0.000592893
0.00397639
1.18408e-05
-0.000575393
-3.08182e-05
0.00546489
-0.00485868
0.000704365
-0.000590684
0.00552007
-0.00563375
-0.00496303
0.00693051
-0.00725956
0.00529208
2.5636e-05
-0.00626097
0.00623534
-0.00222251
0.00019674
0.00560419
-0.00357842
-0.00428872
0.00501389
-0.00683783
0.00611266
-0.004399
0.000335096
0.00134173
-0.00202387
0.00549232
0.00030631
-0.00377475
-0.00146907
0.000206032
-0.00249586
-0.00215951
-0.00702118
0.00705243
0.00212826
-0.00312871
-0.000365464
-0.000788065
0.00428224
-0.0107051
0.00361518
0.00105263
0.00603727
-0.00341951
0.00778298
-0.00384899
-0.000514486
0.00238584
0.000930779
-0.00478569
0.00468575
0.00477897
-0.00946472
0.000629589
0.0102439
-0.00237946
-0.00849401
-0.000128695
-0.000181709
-0.00448911
0.00479951
-0.00491299
0.00809359
-0.00326353
8.29277e-05
0.0046674
-0.0029478
-0.00423049
0.00251089
0.00115807
-0.000155374
0.00141743
0.00717301
0.00200202
-0.0103881
0.00121303
-0.00497198
-0.000649232
0.00162977
0.00399145
0.00189377
-0.00209279
-0.00284517
0.00863093
-0.00580673
0.00451406
-0.00733826
-0.000957977
0.00557718
-0.00964547
0.00502627
0.00336068
-0.00424476
-0.000431145
0.00131522
-0.00372687
-0.00129834
-0.000125765
0.00515097
-0.00277682
-0.00262503
0.00540185
0.000693087
-0.00741738
0.00658199
0.000142301
0.0028557
-0.00275508
-0.00287744
-0.00466949
0.00592472
-0.00112565
-0.000129589
0.00667045
0.00183741
-0.00719063
-0.00131723
-0.0025738
-0.00377793
-0.000436121
0.00678786
0.00418996
-0.00127592
0.00485705
-0.00777108
-0.00470338
-0.000259651
-0.00564746
0.00302243
0.000727259
-0.00633383
0.00202684
0.00357973
0.00183041
-0.00655562
0.00361001
0.0011152
0.000984342
0.000254942
-0.00492894
0.00368966
0.000756299
0.00323518
-0.000216289
0.00549551
-0.00108578
-0.00419344
-0.00216012
-0.000217105
-0.00201363
0.00439085
-0.00127467
-0.00171647
0.00328214
-0.000291002
-0.00515666
-7.61496e-05
-0.00871061
0.00312798
0.00458542
0.0123272
-0.000101429
0.00167664
-0.0139024
-0.00539653
0.00838289
0.00170152
-0.00468788
-0.00154082
0.0008446
0.00531544
-0.00461922
0.000647041
0.00183837
-0.00142152
-0.00106389
-0.00927614
-0.00192026
0.00800091
0.00319549
0.000201142
0.00389096
-0.000780594
0.000118501
0.0019712
-0.00618803
0.00409833
-0.00385038
-1.3929e-05
0.00141933
0.00244498
-0.00521707
0.00644777
-0.00102955
0.00295097
-0.00266092
-0.000290053
-0.00437495
0.000628837
-0.00339363
0.00713975
-0.00196587
0.00295975
-0.00228115
0.00128726
-0.00422625
0.00475911
-0.00196634
0.00143348
0.00191371
-0.000314321
-0.00456373
0.00296434
-0.00188879
0.0118437
-0.0159414
-0.00174456
-0.00121728
0.00119159
0.00177025
0.00566768
-0.00884424
-0.00040283
0.00357939
-0.00240771
0.0017969
0.00309604
-0.00248523
-0.000710311
0.00379879
-0.00104962
-0.00203885
-0.00427893
0.000949698
0.000999398
0.00232984
-0.00236125
0.000203316
0.00215794
0.00551217
-0.00262398
-0.00279885
-8.93468e-05
0.000397899
0.00271574
-0.00412194
0.00100831
-0.00295262
-0.00358134
0.00365149
0.00288247
-0.00151538
0.00391243
-0.00335511
0.000958062
0.00142347
-0.00269517
0.00185738
-0.000585682
0.00513826
0.000135527
-0.00527379
0.00441731
-0.00543574
0.00268964
-0.00167121
-0.00694199
-0.000199934
0.00714192
0.00286909
-0.0023787
0.00055518
-0.00104558
-0.000221323
0.0049209
-0.00537367
0.000674089
-0.00248031
0.00310456
0.000799223
-0.00271628
0.00582113
0.00537777
-0.00468268
0.00464343
3.92517e-05
9.74616e-05
-0.00742922
0.00733175
0.00995012
0.00120095
-0.00211744
-0.00903363
0.00208162
-0.00811386
-0.00100732
0.00703957
0.001585
0.00188162
0.00105347
-0.00452009
-0.00279065
-0.00279041
3.89952e-05
0.00554206
-0.00133264
0.00182673
-0.00328474
-0.0061517
0.0011089
0.00807506
-0.00303226
-0.0120854
0.00885347
0.00389238
-0.000660438
0.00535599
4.48406e-05
-0.00540084
-0.00301244
-0.00405431
0.00262262
0.00444413
-0.00304627
-0.00442776
0.00132233
-0.00439507
0.00238948
0.00276189
0.00177213
-0.00232589
-0.00421392
0.00476769
-0.00301798
2.96641e-06
0.00301502
-0.00700913
0.00283394
0.00288251
0.00129268
0.00177312
-0.00474021
-0.00142799
0.00600748
-0.00190382
-0.000151626
-0.00395203
-0.004024
0.00666874
0.00395655
-0.00660129
-0.00117298
-0.00246639
0.000898086
0.00274128
-0.00171201
-0.00137795
0.00308996
-0.0029753
-0.00624759
-0.00286252
0.00138286
1.88799e-05
0.00279065
-0.00419239
0.00570405
-0.0041507
-0.00601145
0.00445811
-0.00211478
0.000754065
0.00427495
-0.00291423
0.0040406
-0.00284481
-0.000400771
-0.000795016
-0.00463661
0.000752237
0.00362228
0.000262097
-0.00288762
0.00661752
-0.00714143
0.00278388
0.00020683
0.00415071
0.00667721
-0.00533058
-0.00419706
0.00285043
-0.00529647
0.00110313
0.00989739
-0.00516949
-0.003408
0.00556418
0.00301331
-0.000607227
0.00539583
-0.00204554
-0.00274306
0.000303484
-0.00315827
-0.00208046
0.00493525
0.00613451
-0.0040472
-0.000248214
-0.0018391
0.00188349
0.00140788
-0.00462401
-0.00129048
0.00146189
0.0036022
-0.00377361
-0.00106328
0.00556163
-0.00685613
0.00235777
-0.00331254
0.00079853
0.000802371
0.00171164
-0.00732431
0.00744611
-0.000121808
0.00505171
-0.00497755
-7.41552e-05
0.00202466
-0.00781621
-0.00300157
0.00879312
0.00179651
0.00341611
0.000794863
-8.71164e-05
0.00300875
-0.00292164
0.00478985
0.00429472
-0.00908458
-0.00534015
0.00326052
0.00230384
-0.00022421
-0.00299918
0.000988219
0.00243866
-0.000427697
-0.0089022
0.00415669
0.00487374
-0.000128227
-0.00291226
-0.00324354
0.00313782
0.00458268
-0.000721973
-0.00295379
-0.000906919
-0.00497753
0.00537131
-0.0032814
0.000859824
-0.00548777
-0.000279563
0.00490751
-6.20195e-06
-0.00269695
0.00270315
0.0133145
0.000107875
0.00141612
-0.0148385
-0.000496902
-0.000972572
-0.00717007
0.00863954
0.00232103
-0.00314347
-0.00146718
0.00228962
0.000891274
0.00690487
-0.00278355
-0.00501259
0.00753574
-0.00754028
-1.77268e-05
2.227e-05
-0.00421567
-0.00380174
0.00594286
0.00207455
0.00246798
0.00189491
-0.00492231
0.000559418
3.4179e-05
0.00456047
-0.00466115
6.65087e-05
-0.00630362
0.00201724
0.00510795
-0.000821575
0.0048588
0.00293884
-0.0049193
-0.00287833
0.000112892
-0.00429438
0.00217954
-0.00112743
0.00648363
-0.00349586
-0.000455229
-0.000545504
0.00449659
-0.00581311
0.000319161
0.00549395
0.00848943
0.00367411
-0.00275661
-0.00940693
-0.00554641
0.000116827
0.00554248
-0.000511656
-0.00133363
-0.00340113
0.00524641
-0.000690272
-0.000658027
-0.00178409
0.00313239
0.00139968
-0.00709214
0.00534734
0.000345122
0.00441798
-0.000688236
-0.00429851
0.000568761
-0.00547066
0.00115036
0.000451967
0.00386834
-0.00207421
0.0013535
-0.0027852
0.00350591
0.00119421
0.000769338
-0.00705874
0.0050952
0.00024539
-0.00476984
-0.000331565
0.00485601
0.0047403
0.000619266
-8.07856e-05
-0.00527878
-0.00563822
0.00131192
0.00510291
-0.00406313
-0.0053976
0.00946072
0.00782964
-0.00399322
0.00167754
-0.00551396
0.000613253
0.00440888
-0.0027011
-0.00631803
0.00117366
0.00222735
0.00291702
0.00780019
-0.00803154
0.00023134
-0.0046851
-0.00159296
0.00328045
0.00299761
-0.00611551
-0.00474948
0.00318514
0.00767985
0.00641787
-0.00670208
-0.000820239
0.00110444
-0.000934472
0.00311269
-0.0024518
0.000273588
-0.00796704
0.0026004
0.00182946
0.00353718
-0.0117663
0.0146431
0.00242017
-0.00529696
0.00524436
-0.0113752
-0.000570597
0.0067014
-0.00467022
0.00592355
-0.0109739
0.00972052
-0.00491922
0.0108565
0.00107437
-0.00701161
0.000431641
0.00511979
-0.00119687
-0.00435456
0.00780365
-0.00585587
-0.000194947
-0.00175283
-0.00137479
-0.00132109
0.00201831
0.000677578
-0.00370622
-0.00769049
0.00655197
0.00484474
-0.00523668
0.00698037
0.00605996
0.00421356
-0.00309818
-0.00385893
0.00274356
0.00157876
-0.00204206
-0.000902163
0.00136546
0.00350063
-0.00346336
-0.00460828
0.00457101
-0.00141603
0.00406162
-0.000293666
-0.00235192
-0.00560214
-0.000893716
0.0069275
-0.00424562
-0.00104357
0.00524852
4.06705e-05
0.00171605
-0.00383382
0.00211777
0.00137625
-0.00182649
0.00681353
-0.00636329
0.00532845
-0.00748994
0.00108391
0.00107758
0.0033831
-0.00364951
0.000266415
-0.00537907
0.000142391
0.00481616
-0.00183319
-0.00464562
0.00166265
0.0015126
0.00122713
0.00537251
-0.00811225
0.00329707
-0.00357938
0.000282309
-4.04833e-05
0.00419689
-0.00474462
0.000588213
-0.00589328
-0.000566941
0.00783647
-0.00256019
-0.000437499
0.000591831
0.00240585
0.00035363
-0.00292001
0.00215297
0.000413413
0.00478566
-0.00458277
-0.00113736
0.000545993
0.00787006
-0.00495709
-0.00345897
-0.00271026
0.00574141
-0.00303115
-0.00731658
0.0028006
-0.00171793
0.0062339
0.00574979
-0.00520592
-0.00851091
-0.00278892
-0.00334079
0.011475
-0.00534529
-0.00823437
0.0052457
0.00747858
-0.00448991
-0.000181011
-0.00704126
0.00722227
0.011139
2.19011e-05
-0.0064169
-0.00474399
0.00647971
-0.0041772
-0.000577901
-0.00172461
-0.00471736
0.00335108
-0.000850691
0.00221698
6.41572e-05
-0.00485162
0.00478747
-0.00356845
0.00367331
-0.000104857
-0.00257151
-0.00271445
-0.00695707
0.012243
-0.00655975
0.001432
-0.000729902
0.00585765
0.00151279
0.00245469
0.00675032
-0.00609409
-0.00503675
0.00438051
-0.00187192
-0.00386121
0.00425941
0.00147371
-0.00388377
-0.00197449
0.00586407
-5.80892e-06
0.00127227
-0.000732426
-0.00360416
0.00306432
0.00428489
0.000190633
-0.00547786
0.00100233
0.00132246
-0.000921336
0.0014113
-0.0017037
0.00169784
-0.00140543
0.00350045
0.00342954
-0.00350129
-0.00342869
0.00172817
0.00404083
-0.00417685
-0.00159215
0.00367904
0.00159442
-0.00288763
0.0045256
-0.00548827
0.0011533
-0.00601457
0.00420495
0.00226432
-0.000454697
0.00718495
-0.00237475
-0.00752047
-0.0019151
0.00510152
0.00256337
0.00497527
-0.00242416
-0.00419164
-0.00114179
-0.000681142
-0.006696
0.00626081
0.000591315
-0.000156126
-0.000415601
0.00837426
-0.000867574
-0.00709108
-0.00546857
0.00111558
0.00243789
-0.000877719
-0.00556831
0.00156403
0.00488199
0.0050009
0.000696348
-1.75315e-05
-0.00567972
-0.00747142
-6.008e-05
5.072e-05
0.00748078
-0.00190936
0.00209667
-0.00339038
0.00320306
-0.00515127
0.00651055
-0.000669161
-0.000690117
0.00677611
-0.00632323
-0.00560416
-0.004996
0.00450929
-0.00142983
0.00191654
0.0040636
-0.000183344
-0.00127753
-0.00260273
-0.00758429
0.0073161
0.00358214
-0.00331395
0.00356447
0.00135776
-0.000453072
-0.00446916
0.00130165
0.00329884
-0.0041256
-0.000474891
-0.00244582
0.00246024
-1.44199e-05
-0.00142849
-0.00364638
0.00365883
0.00548496
-0.00543534
-4.96231e-05
-0.00310735
-0.00246465
0.00242853
-0.000320288
-0.00372609
-0.000403472
0.00444985
-0.000418843
-0.00322008
0.00288057
0.000758356
0.00511823
-0.00582079
0.000702566
-0.00650916
0.00667329
0.00611993
-0.00628406
-0.00437035
0.00337476
-0.00229691
0.00329251
-0.00173781
0.000742495
0.00157351
-0.000578197
-0.000182262
0.00789476
-6.92749e-05
-0.00764322
-0.00396671
0.00192312
0.00195402
0.00226934
0.00288864
-0.0050399
-0.00011808
0.000218865
-0.00626825
-0.000245461
-0.00572049
0.00571838
2.10713e-06
-0.00382719
0.00192586
-0.00421418
0.00130388
-0.0028854
0.000114337
0.00249026
0.00108113
0.00379739
7.3829e-05
-0.00324778
-0.000623442
0.0031797
-0.00793502
0.00636197
-0.00160664
0.00130881
-0.00178339
0.00663075
-0.00615616
0.00810806
0.00239835
-0.00124669
-0.00925973
-0.00207799
-0.00341285
-0.0011073
0.00659814
0.00246081
0.0102441
-0.00925105
-0.00345384
0.00117923
0.0074302
-0.00717437
-0.00143505
-0.00257123
0.000339081
0.0052707
-0.00303855
-0.00089619
0.00728749
-0.00393048
0.00527608
-0.00416456
-0.00162742
0.000515896
0.00173466
0.00454129
-0.00627595
0.00424858
0.000943361
-0.000566188
-0.00462575
-0.00391438
0.00312902
0.000314584
0.000470776
-0.000375047
-0.00551434
0.000322954
0.00556643
-0.00404161
-0.00051385
-0.00016703
0.00472249
0.00233858
-0.00518966
5.12156e-05
0.00203946
0.00309898
4.64172e-05