/*--------------------------------*- C++ -*----------------------------------*\
  =========                 |
  \\      /  F ield         | OpenFOAM: The Open Source CFD Toolbox
   \\    /   O peration     | Website:  https://openfoam.org
    \\  /    A nd           | Version:  10
     \\/     M anipulation  |
\*---------------------------------------------------------------------------*/
FoamFile
{
    format      ascii;
    class       volScalarField;
    location    "26";
    object      SgP;
}
// * * * * * * * * * * * * * * * * * * * * * * * * * * * * * * * * * * * * * //

dimensions      [1 -1 -3 -1 0 0 0];

internalField   nonuniform List<scalar> 
111485
(
8.73642e-10
0.000121702
2.8231e-05
5.76583e-11
8.59057e-06
3.19743e-08
1.52154e-05
2.55906e-07
1.05052e-05
2.91203e-06
2.56891e-05
9.30299e-07
6.86399e-06
0.295519
6.77102e-06
1.61371e-05
0.209119
0.00105439
9.01691e-07
4.80368e-08
0.0372131
3.56536e-09
3.16439e-06
1.13939e-05
4.04357e-05
3.51823e-08
5.94731e-07
1.47352e-05
1.06384e-06
0.0481449
4.13411e-06
5.04399e-07
2.17977e-07
1.45561e-06
0.000752775
9.18434e-05
0.136663
0.205824
0.00246509
9.04707e-07
0.0435876
1.16579e-06
3.03477e-06
0.000107805
1.87254e-05
1.58693e-06
6.54877e-06
4.37693e-07
6.16226e-06
4.29093e-07
1.09557e-06
1.73411e-05
4.63078e-07
9.99688e-06
1.50898e-06
1.62233e-07
2.80824e-06
4.44574e-08
5.07383e-05
3.8493e-07
5.82723e-07
2.65211e-07
8.65725e-05
6.96817e-06
6.46077e-06
2.13584e-05
0.00042689
2.41518e-06
7.20755e-05
0.000142762
4.91167e-05
8.74063e-05
1.12596e-05
9.24442e-05
4.65292e-08
1.82479e-06
1.51845e-08
7.19867e-07
2.79845e-08
3.12793e-05
0.281086
0.526601
4.65005e-08
5.2315e-09
1.61506e-05
3.81381e-05
0.143759
9.08194e-06
0.000247561
4.47612e-06
1.37089e-06
6.62447e-06
4.65431e-05
4.92661e-07
2.27688e-06
6.6881e-09
0.0270642
1.1976e-05
0.00153716
0.000578396
1.39031e-09
2.64338e-06
1.96801e-06
1.43771e-05
6.15015e-06
1.64928e-05
5.9284e-09
2.84508e-07
1.52131e-05
0.000730664
4.22232e-05
1.37828e-06
1.32688e-05
7.41745e-05
1.03906e-07
1.76499e-07
3.05911e-08
6.56021e-06
2.32052e-05
4.65772e-09
9.24828e-08
0.000190065
0.0753633
2.27148e-06
5.80205e-05
0.0278082
0.000107381
1.33702e-05
2.9748e-10
0.000323486
0.000137292
1.75949e-05
0.0472032
0.000175217
7.85539e-05
8.38233e-07
8.04185e-10
3.23641e-07
9.58769e-06
2.45309e-05
7.14353e-05
3.39529e-07
0.18039
9.97425e-05
4.12926e-05
2.41996e-06
6.88728e-10
8.9692e-10
4.76957e-08
5.1189e-07
3.36038e-05
0.0285476
0.115705
1.41796e-05
3.5375e-05
5.52307e-07
5.66781e-06
0.000154005
0.000823291
5.43656e-06
9.59057e-10
7.20257e-07
4.0436e-05
7.41181e-05
6.39749e-05
3.85176e-05
7.37688e-06
0.0271082
0.00156384
0.000127664
1.59034e-09
1.5209e-08
0.197968
1.09199e-10
2.6855e-07
2.86253e-06
5.24769e-07
9.54407e-06
3.62831e-08
5.81465e-06
9.93676e-06
3.71486e-08
2.64973e-06
5.08068e-07
2.40266e-06
2.06107e-05
9.8385e-06
5.54142e-05
0.000387508
1.7869e-07
5.43677e-05
5.8022e-06
7.13626e-06
3.71835e-05
5.07493e-06
1.20723e-05
2.08023e-06
1.39025e-06
8.4617e-07
8.88402e-06
3.06612e-06
0.00166434
8.07546e-05
9.32608e-07
1.82906e-06
4.12326e-06
1.25912e-05
1.18783e-05
1.82154e-05
2.70895e-06
5.689e-06
9.86847e-06
8.66259e-06
7.81858e-09
7.04812e-05
0.000312077
4.60422e-07
7.47712e-09
1.20683e-05
1.77899e-05
8.70842e-07
8.33412e-08
1.62859e-05
1.65126e-05
0.000277983
6.89282e-09
4.37628e-10
3.1404e-05
0.00418738
2.35677e-05
9.3686e-05
1.40137e-05
2.37692e-06
0.146188
3.87589e-05
2.0419e-05
0.160968
4.65204e-08
6.20603e-05
2.21595e-05
2.7093e-05
3.30565e-05
4.85375e-06
3.90081e-06
0.00195122
1.05728e-06
7.84942e-06
1.18896e-08
4.78462e-06
0.136634
1.83598e-05
1.09627e-05
2.21602e-05
7.86507e-10
0.000193259
4.69523e-07
2.78741e-07
6.68839e-05
0.0996937
1.8591e-08
4.64906e-06
5.49839e-05
2.52191e-06
3.3731e-09
1.20013e-05
6.45695e-11
6.09634e-08
5.10056e-07
0.165026
4.33773e-06
3.24209e-05
1.39511e-06
0.177502
1.98889e-05
1.42255e-06
0.00025451
4.75191e-06
1.18419e-06
4.52668e-07
5.35786e-09
0.111619
4.28073e-07
4.02287e-05
2.10122e-05
1.85454e-09
0.217813
0.266041
1.58249e-06
0.000319361
3.32805e-05
3.178e-06
8.84159e-06
1.191e-05
2.01159e-08
7.60885e-06
2.99274e-09
0.000359583
0.000275183
1.58503e-05
1.65433e-06
0.346892
1.77785e-08
0.0860939
1.10603e-06
7.77651e-06
3.00224e-09
1.15034e-07
0.0246236
4.90829e-06
1.5139e-06
5.95006e-06
0.000171981
7.75471e-07
3.05501e-05
3.06132e-08
3.5346e-08
5.72902e-06
0.00443798
0.25045
3.43661e-06
0.000792873
1.82662e-09
8.66977e-09
1.40936e-08
8.48227e-05
5.75004e-07
5.88071e-07
2.17555e-06
8.76813e-07
7.14708e-05
0.0608049
5.5136e-06
1.24792e-07
1.89497e-06
2.28775e-06
0.0483431
5.00038e-05
7.38015e-07
7.24344e-07
7.84658e-07
1.34613e-05
7.08502e-08
0.151373
0.00017353
8.55528e-07
3.22631e-06
0.000304736
4.81181e-07
0.0391458
5.38105e-07
1.07797e-05
6.18854e-06
3.85597e-07
2.01985e-05
9.11268e-06
1.96208e-07
5.4684e-07
7.13592e-07
1.76464e-06
0.362366
2.97819e-05
1.71196e-07
0.0530183
1.65915e-05
1.75099e-08
4.07684e-07
3.76181e-07
0.0469187
0.000623774
0.0458996
0.0496979
2.83215e-07
2.50281e-08
2.8042e-06
4.07966e-06
4.15727e-10
7.77188e-06
3.02961e-06
1.58599e-05
2.65164e-05
0.000141646
5.61015e-06
0.000705828
4.77725e-07
8.21565e-06
4.32067e-05
1.16178e-06
0.000673243
3.89789e-07
1.47388e-05
2.80748e-06
0.0303861
1.17648e-07
2.08713e-07
0.154826
4.78068e-06
0.30657
6.7091e-08
4.64348e-06
3.53076e-06
7.71192e-09
5.17736e-06
4.6252e-05
3.7706e-09
0.0320414
3.16666e-06
2.84275e-06
4.56261e-07
2.59269e-08
0.000758248
3.77428e-09
1.02189e-05
3.6372e-06
4.42881e-10
1.15932e-06
3.87625e-05
0.246927
0.000135001
1.97039e-09
7.96009e-05
0.000102745
9.90174e-05
3.90825e-05
0.000631657
2.49145e-06
0.00112622
5.53079e-05
0.204931
0.000202675
4.59963e-08
7.43974e-06
1.06238e-06
2.0379e-07
0.00141994
0.000222971
8.33008e-05
1.49504e-06
1.36825e-06
9.58076e-06
3.67988e-08
0.351689
8.30069e-07
3.36369e-05
0.00439137
9.16737e-05
0.00127031
3.56696e-08
0.253605
0.332536
2.56329e-08
3.55718e-05
0.000261535
0.000103556
4.05603e-09
3.01683e-05
3.56783e-09
0.285093
7.24096e-05
2.12866e-05
0.000108617
2.11724e-05
1.78686e-07
1.75746e-06
4.99824e-07
6.9687e-05
1.54567e-07
5.9833e-07
0.0524025
9.60732e-05
4.03659e-08
1.5654e-09
0.000385088
8.46631e-08
1.6056e-06
3.61776e-06
2.75171e-08
6.13841e-05
6.72736e-08
0.0741561
6.93819e-08
1.65948e-06
3.67921e-08
0.000239257
4.30791e-07
0.224137
1.9656e-05
0.237044
1.01979e-08
6.69765e-05
2.59025e-06
2.67178e-09
0.369889
0.14325
2.63342e-05
3.04608e-06
3.06525e-05
6.85656e-07
1.27336e-05
7.91465e-07
4.60488e-05
0.289965
2.54649e-08
2.42452e-06
0.00010846
1.73801e-05
0.0591209
5.54384e-06
0.000115001
2.45722e-06
1.37292e-06
0.000780263
0.0820506
1.77891e-05
2.18195e-08
1.32395e-06
3.58478e-06
3.55572e-06
1.14514e-06
1.96335e-05
1.75348e-09
0.00169865
1.57548e-07
3.51542e-07
1.78735e-07
9.63355e-05
4.48898e-09
1.07199e-05
2.96313e-08
9.35096e-06
1.97968e-09
0.116296
0.114789
2.00579e-05
1.16583e-06
0.0653217
0.0813888
4.81368e-08
2.46867e-07
1.5117e-05
4.57264e-08
0.000173162
1.78994e-05
1.03081e-05
0.0426512
1.681e-06
2.43984e-09
4.68492e-05
4.5748e-05
6.26646e-05
1.70194e-06
1.58241e-05
1.05353e-05
1.18395e-06
9.76058e-07
2.12069e-05
3.34546e-05
2.55495e-09
0.126585
6.72538e-05
4.36242e-05
1.34899e-06
0.00119531
3.20918e-05
0.000463721
0.00302447
0.000387076
4.10155e-06
8.65707e-05
1.15451e-05
2.12147e-05
0.115105
0.000212315
7.44682e-05
0.00358935
0.0770674
3.16642e-08
6.54894e-05
4.59652e-06
4.07048e-05
3.65361e-07
0.000518101
0.00274487
0.000434821
0.000167319
2.68049e-05
2.37199e-06
5.25787e-08
0.000198784
3.46758e-06
2.90427e-08
5.64057e-10
5.58719e-08
3.19408e-08
9.97392e-06
1.79106e-09
0.0347524
1.2804e-05
2.56411e-05
0.098912
0.319505
6.03838e-05
3.04572e-06
0.0371492
5.53446e-08
1.87386e-05
1.5843e-07
1.90136e-08
4.78006e-05
2.37122e-05
0.121549
2.65549e-05
1.69005e-07
2.69269e-06
2.92127e-05
0.143879
7.09245e-06
2.75281e-05
7.05501e-05
0.196928
0.041605
2.83573e-06
1.78121e-05
5.96107e-06
2.41029e-06
6.03232e-06
1.06568e-06
3.17784e-05
4.22036e-06
2.17634e-06
1.14035e-06
4.41582e-06
0.000659406
3.26796e-05
4.25368e-06
5.13873e-06
0.000660186
4.13655e-07
5.13164e-07
1.79811e-05
3.11601e-06
1.66425e-05
3.11773e-06
3.2702e-06
3.40774e-06
3.29569e-05
0.000198022
1.26376e-05
1.85002e-05
3.13686e-06
5.0545e-07
4.48234e-05
4.45395e-06
3.98325e-09
0.0778718
1.60734e-08
0.136814
5.88852e-05
0.0117727
8.01143e-08
0.0295344
1.44609e-06
1.1386e-05
1.3578e-09
7.19055e-06
3.01195e-07
1.65081e-08
8.16905e-07
0.28299
0.000130131
2.96115e-05
0.0411857
1.0318e-07
2.88663e-09
3.72345e-06
1.91493e-06
8.36818e-05
5.25008e-07
0.000128621
6.48625e-08
7.35427e-06
0.000125595
0.16839
6.11619e-10
4.59852e-09
3.30066e-06
8.46433e-07
0.000132763
4.08442e-07
0.0632046
1.2084e-06
2.65135e-08
1.23028e-07
0.0456571
6.54648e-06
0.00013954
5.86772e-10
0.00503859
0.0010466
0.182393
1.6112e-08
1.88238e-08
3.56483e-06
2.28051e-05
3.95914e-05
0.000586732
0.000332694
0.000259993
5.03481e-06
0.063656
2.69759e-05
8.14132e-07
6.90626e-08
1.20334e-06
1.41124e-08
9.33894e-09
7.72021e-08
9.60191e-10
3.32818e-06
7.14373e-08
1.9317e-08
3.26701e-07
1.92819e-07
1.67752e-06
1.09e-07
5.83074e-07
2.72269e-07
1.51585e-05
1.68222e-05
2.69219e-08
7.42667e-09
2.23521e-05
8.01191e-10
9.23789e-05
2.20535e-06
5.18797e-06
1.23861e-07
1.27093e-10
9.56979e-10
1.60843e-09
1.56731e-05
1.92259e-08
6.5878e-08
2.10831e-05
4.8057e-09
1.41254e-05
8.24989e-05
2.35392e-06
1.72832e-06
0.000529774
4.55812e-06
0.252429
0.00011007
8.32307e-06
0.209903
8.25284e-05
6.20765e-06
2.85187e-05
9.68885e-07
2.04529e-05
0.0890418
0.00070715
6.23555e-07
3.80944e-08
1.27767e-05
8.05223e-05
9.97781e-05
9.27407e-05
1.85468e-09
1.56344e-10
1.31212e-06
3.86564e-05
9.31622e-06
3.91908e-06
0.000208907
3.5108e-06
3.00251e-05
1.45925e-07
1.50825e-08
0.033607
8.08779e-06
3.76757e-07
2.78515e-08
4.98659e-05
0.000131152
1.78762e-06
3.47811e-07
0.0407083
1.55906e-09
2.75578e-05
0.0640546
9.69746e-09
0.0727003
4.30518e-05
0.0372461
0.000610068
1.07173e-07
2.49364e-05
2.20998e-05
0.0458712
5.69165e-05
0.00131655
0.161897
0.000145305
1.15146e-05
1.00089e-06
1.43497e-06
0.487337
0.162252
4.30407e-08
0.242202
1.39337e-05
0.000162672
2.53565e-05
2.21698e-05
0.00121477
3.98878e-05
1.40058e-05
6.84343e-06
1.34012e-07
1.77408e-06
0.0458534
8.21261e-08
5.57569e-05
2.82959e-05
9.80057e-08
3.97252e-06
0.217717
4.50248e-06
2.96004e-07
0.000646712
1.56275e-08
4.07644e-06
0.212727
2.35244e-08
0.178152
0.343033
0.00135444
1.78168e-05
1.09988e-06
3.76586e-06
6.32342e-05
0.000224927
0.00120411
0.000318271
4.3007e-06
0.0455705
0.000112103
9.11734e-10
0.000304181
0.000299697
0.0006123
0.000467227
0.000863696
0.000171433
9.79221e-10
6.88624e-05
1.02583e-06
4.12645e-07
0.00171305
0.350137
1.75161e-07
3.28546e-08
0.00324316
0.0033047
3.2574e-09
0.000605561
8.68965e-08
1.58346e-08
1.25033e-08
4.49521e-07
5.06801e-06
1.65591e-07
7.84977e-05
0.0521059
1.45476e-09
5.168e-07
0.0045127
0.116202
7.53954e-05
7.89156e-07
0.0327377
1.0719e-08
0.000134306
4.10246e-09
2.28802e-09
0.000574706
0.13019
2.5652e-06
8.08789e-09
6.70982e-08
0.0358871
1.84172e-08
0.0232578
4.71945e-08
0.000104305
6.48607e-09
0.00196156
3.18489e-06
2.76623e-09
7.57048e-07
5.60105e-07
0.00140805
6.26248e-07
2.36814e-08
2.09333e-06
0.00444639
0.0543807
7.26525e-05
0.000614886
0.00107101
4.31707e-08
0.00132757
1.03471e-05
3.43662e-07
2.98933e-06
0.000215711
2.24935e-05
1.17902e-07
9.55862e-06
0.000151115
1.00928e-07
1.37312e-06
7.51809e-07
1.64715e-05
0.0734614
1.30696e-09
8.99712e-07
0.0611884
0.000121985
7.76935e-05
5.4762e-09
8.91447e-07
1.73126e-08
1.13905e-06
2.76217e-05
5.33707e-05
5.54354e-07
3.01358e-05
2.76679e-05
8.3312e-05
1.69319e-05
7.14154e-09
3.83584e-06
1.68572e-09
5.04634e-07
6.73529e-05
0.000187481
3.15998e-08
5.07706e-07
4.55541e-06
1.32615e-10
4.7987e-05
4.4664e-07
7.33047e-05
0.000842033
7.55957e-05
1.49958e-08
0.00139553
0.000119498
6.33553e-05
0.000159565
4.68766e-08
0.000164504
2.56208e-06
0.117525
3.51309e-05
9.80611e-05
6.25889e-08
6.74126e-10
2.38698e-08
0.187004
0.0751805
4.47094e-05
6.78442e-10
0.000141453
2.99416e-08
0.17376
0.000160956
7.6345e-07
9.25076e-08
3.41403e-06
6.18075e-07
9.01338e-05
2.12854e-06
0.000123368
0.313606
4.20098e-06
7.22704e-05
3.39387e-05
7.08508e-05
5.22269e-05
3.26307e-08
3.40126e-10
2.84975e-06
3.67837e-05
8.18555e-09
2.02609e-07
0.000610599
4.59457e-07
1.44372e-06
0.423833
1.7691e-06
6.87382e-05
4.07828e-10
3.31989e-06
2.6528e-07
0.33198
3.07105e-09
0.119419
0.00554608
0.000138038
1.72168e-05
1.57991e-05
0.000947304
2.5767e-06
4.22624e-06
2.3187e-06
1.02537e-06
6.19198e-08
1.87164e-06
8.60531e-05
2.40521e-06
0.0710495
2.76882e-07
4.35005e-06
0.000308593
2.07268e-09
0.000385367
8.57951e-08
3.98593e-05
0.000832657
6.86386e-08
2.13719e-06
7.06624e-05
5.53284e-07
9.43124e-06
0.182673
8.20319e-07
9.95353e-06
1.27571e-10
0.0468707
9.00111e-06
1.93404e-07
1.94873e-07
4.95826e-06
7.30196e-06
9.41458e-09
0.152497
1.49491e-06
2.11577e-09
0.00012559
4.12173e-07
2.49487e-09
4.58091e-05
0.00102315
0.000886003
7.89129e-09
1.12007e-06
4.65652e-08
4.92322e-05
5.07791e-05
0.0343481
6.26919e-06
0.000914027
6.79303e-05
0.0011781
3.09368e-05
3.53647e-06
1.09475e-06
4.7712e-07
5.13508e-05
2.09689e-06
7.40774e-06
0.044076
0.000252232
0.0482365
1.27932e-09
7.95379e-06
1.18529e-07
6.06593e-05
0.000102583
1.18489e-05
4.91636e-05
0.000539984
0.000151341
7.57085e-10
0.0072248
0.00842713
8.68463e-05
4.75907e-05
8.48259e-07
0.00100114
1.68742e-06
2.88791e-06
1.37368e-07
5.57199e-09
0.000253442
9.83811e-06
0.0010065
6.4243e-07
0.0477211
0.000673668
7.22481e-07
1.38671e-07
0.000582014
2.91991e-06
0.05575
0.282172
0.000133422
0.000237606
1.65596e-06
5.28425e-07
2.14312e-08
1.30981e-08
6.26815e-05
5.0425e-06
0.0351402
0.0551711
3.17113e-05
3.18731e-08
0.000323981
0.0419407
2.76864e-05
0.00115966
0.00261739
0.0443861
0.122415
0.0516311
0.000122562
1.14547e-09
0.0020428
6.65413e-07
1.64498e-07
1.95271e-07
7.46864e-09
2.88375e-05
4.05538e-09
2.08558e-09
9.22214e-05
4.94716e-08
6.70358e-09
9.57762e-07
5.56302e-07
0.0603256
6.49128e-06
3.08866e-05
0.0778843
0.263602
6.00416e-09
0.188781
0.000163179
0.392524
3.78014e-07
1.10173e-07
6.87777e-08
4.49268e-05
0.263413
1.73866e-09
0.00118683
7.39237e-08
4.00008e-06
1.63782e-05
7.79845e-06
1.10053e-06
2.4234e-07
0.0792787
1.01132e-08
7.20815e-06
1.10447e-07
9.26895e-07
1.76869e-06
0.00046111
0.000121646
1.16689e-06
0.000391234
2.17578e-05
4.24797e-07
0.000143473
7.51727e-07
2.53715e-05
1.43089e-07
1.30334e-07
0.255791
0.0447646
0.000400581
3.32986e-07
6.57357e-09
4.49489e-06
0.195471
2.52797e-07
1.16822e-05
5.96231e-07
2.95422e-06
2.50092e-09
0.0365525
0.000111935
7.61293e-07
6.2051e-07
1.77572e-05
7.97032e-09
0.181176
1.08164e-09
0.0405922
7.98036e-05
4.9342e-06
1.44483e-08
3.3571e-06
1.33584e-06
1.03177e-06
3.68008e-06
5.15438e-06
3.01887e-10
4.63579e-09
9.63843e-05
0.082222
2.32671e-09
3.44497e-05
5.24242e-06
9.87181e-05
3.92237e-07
0.0493716
2.34315e-06
5.14551e-05
5.55272e-05
6.123e-08
5.89701e-05
1.98033e-06
1.73078e-05
2.90527e-08
2.7688e-08
1.08087e-05
6.2605e-09
0.000184506
4.03669e-05
3.06719e-08
8.41457e-08
0.000136171
0.000549751
0.307092
1.18317e-07
4.97776e-06
1.84642e-06
0.000371524
0.000171801
2.73772e-05
8.39906e-05
0.0808074
3.53077e-06
5.52053e-05
0.000835373
0.0682452
7.06714e-07
5.02966e-08
0.000427602
2.93784e-06
0.0425021
1.9121e-07
6.99891e-06
3.52587e-06
1.4747e-08
0.232313
9.62752e-09
1.70475e-07
6.34436e-07
2.75222e-05
0.310925
0.0586819
4.72832e-07
2.5106e-08
1.76535e-09
1.10952e-07
1.09393e-07
6.6178e-07
1.2145e-07
6.42215e-09
6.4107e-08
1.1784e-08
1.84726e-07
0.0643555
0.0381633
2.85647e-09
1.38496e-05
7.71942e-09
7.80039e-08
1.31562e-08
0.0374083
0.082436
5.67119e-06
4.20397e-08
1.38917e-08
8.388e-07
1.28882e-06
4.09326e-06
1.37202e-07
0.000334232
2.70483e-07
3.12901e-06
3.56577e-06
0.000190123
5.36284e-06
0.000806857
1.80299e-06
3.18051e-08
0.000495022
0.00044667
1.85032e-08
2.30252e-05
4.03538e-06
1.37797e-05
4.36747e-05
1.0554e-05
3.7475e-06
1.12857e-07
0.332683
5.11154e-07
4.04831e-05
0.0643844
0.000120465
1.22333e-05
1.5091e-05
1.68095e-06
2.38515e-06
2.30361e-05
6.73906e-05
5.77472e-05
3.37647e-06
4.57232e-05
7.58235e-06
3.94934e-06
2.17969e-06
5.55546e-09
6.52771e-08
4.7676e-08
6.7212e-10
1.7859e-07
3.55845e-08
7.43341e-06
1.93936e-08
3.19289e-09
1.85609e-07
1.74116e-05
4.44686e-09
9.88041e-09
8.25365e-07
1.12631e-06
1.01138e-06
8.7819e-05
6.57658e-06
0.24821
1.16918e-07
1.16381e-05
1.55642e-05
4.26423e-06
4.40912e-09
1.82635e-08
0.225367
5.6229e-07
6.32937e-09
2.35424e-06
0.226477
1.74647e-06
5.93809e-05
5.91227e-05
1.09993e-06
7.70008e-06
9.31546e-06
0.000388478
1.97016e-08
4.40882e-05
4.9703e-06
1.86078e-07
0.000322977
0.000399703
0.197404
6.7912e-06
1.37752e-06
7.6846e-06
3.86236e-05
1.61975e-05
1.93244e-07
0.00262055
1.19685e-08
0.00064129
0.000416537
0.0611033
1.0063e-05
0.259456
3.10852e-08
1.34589e-07
5.18975e-06
2.52e-05
7.457e-05
3.26743e-06
0.000117708
3.60317e-08
9.83705e-06
1.11699e-09
2.03043e-08
1.63254e-06
0.00049299
1.01462e-07
5.11433e-09
0.000418682
2.30188e-07
0.000551663
3.48291e-06
2.01779e-06
1.50584e-06
4.53028e-07
2.01204e-05
4.54708e-06
0.000205921
6.45309e-07
8.29628e-06
0.00331507
1.22168e-06
7.35016e-09
0.000157917
2.25989e-06
4.06128e-05
5.02399e-09
0.144482
0.000117125
7.16774e-05
1.78951e-06
7.44863e-09
0.000196952
4.71634e-06
2.45514e-07
8.17673e-10
6.63612e-05
7.1948e-05
8.05439e-05
0.196841
2.93332e-06
6.13003e-06
0.00024732
1.0139e-05
6.90942e-06
2.7109e-06
8.44197e-05
3.64854e-06
0.000120597
0.184265
1.50616e-05
5.39862e-10
1.70516e-06
5.31043e-05
1.50493e-05
2.68073e-07
0.000459783
0.000889074
0.00048718
0.000879966
1.74056e-05
5.29184e-05
7.20803e-06
2.041e-05
1.24207e-07
1.07738e-08
0.10233
0.000505857
2.85231e-06
0.00166582
5.17064e-06
2.46611e-05
0.000435571
4.34614e-06
2.26851e-06
3.23183e-06
4.06685e-07
4.2317e-05
3.01609e-05
0.000153214
2.86627e-05
5.62567e-07
6.43985e-09
2.8215e-05
9.8631e-07
2.01578e-08
0.000313227
3.04084e-06
8.04888e-06
3.82096e-05
7.55908e-06
4.05984e-08
0.000601432
0.139014
4.78626e-08
5.53828e-09
2.1188e-08
0.144954
0.247351
4.30373e-07
0.0533382
5.39871e-06
2.04811e-05
8.00968e-06
8.44724e-06
1.18192e-05
1.39068e-05
3.04183e-05
0.1184
0.340879
0.393247
1.20961e-05
3.19429e-05
6.53631e-06
7.41349e-06
0.361831
1.40891e-08
0.175548
4.07973e-06
1.10302e-08
7.35308e-07
5.9634e-07
2.85057e-08
3.74748e-08
2.29735e-07
1.75762e-08
0.137327
4.49136e-08
2.91788e-05
0.000196868
2.29643e-08
4.51559e-06
7.35127e-06
6.39766e-06
6.53368e-08
0.000588007
6.4405e-06
8.58164e-07
6.92161e-05
4.27094e-06
3.14607e-05
4.68202e-06
1.20285e-06
5.32961e-07
2.02096e-05
0.00340317
4.8521e-05
9.04941e-07
1.38933e-05
8.3516e-07
2.54074e-05
0.000100278
1.20879e-05
2.23031e-06
5.47461e-06
1.15399e-06
5.79323e-05
1.3882e-07
8.18867e-06
0.0412182
0.000425139
0.329251
0.000777763
0.000114709
1.61131e-08
0.0615524
1.16531e-09
4.96084e-05
1.57252e-05
8.25882e-07
8.77891e-05
1.66078e-06
9.27323e-07
4.47857e-05
8.0352e-07
2.08275e-07
1.97604e-05
6.51488e-07
2.2534e-05
0.0790582
3.56138e-07
3.80862e-05
1.39248e-06
8.05897e-07
5.1621e-10
0.000261572
9.14306e-05
3.71259e-06
1.405e-08
7.12175e-07
0.0443954
0.000212481
9.86557e-06
1.50531e-05
1.69756e-09
8.42753e-11
9.3749e-07
4.18947e-09
4.93352e-05
3.53006e-07
2.17702e-05
1.67253e-06
1.97063e-07
6.01233e-07
3.04873e-08
4.80488e-05
9.04936e-05
4.40806e-05
5.14911e-07
2.8981e-08
9.82139e-07
2.2963e-06
0.000536647
1.01146e-06
0.162151
2.18903e-05
2.92482e-08
4.16721e-08
0.000230959
1.28844e-05
0.00114335
5.43666e-07
9.8872e-05
0.234521
3.83647e-10
0.000333923
2.70626e-05
0.0425317
1.76333e-06
0.0474994
0.0830786
0.000120168
7.57271e-06
2.02108e-05
1.12726e-08
1.56675e-05
2.71179e-05
0.00037924
1.92661e-05
6.97026e-06
2.61895e-05
0.000431844
0.000346053
0.000515722
0.000130821
1.68717e-08
8.97161e-05
0.000891861
6.29282e-06
3.97511e-06
0.000249475
0.000215341
1.38392e-05
1.8774e-05
0.000266547
1.57032e-05
0.000381303
0.000249932
1.94743e-05
2.45613e-08
3.49229e-05
0.000424493
0.066871
2.13355e-06
5.19026e-07
4.9258e-05
1.87144e-07
8.53747e-05
8.40299e-07
0.000397392
5.83763e-07
7.04771e-05
2.51606e-08
9.97394e-08
1.10577e-05
0.000919141
0.00120689
0.339166
4.17626e-05
2.05108e-06
2.11885e-07
0.000411364
2.32178e-05
0.0338589
0.0704226
4.0341e-10
0.000790677
6.4741e-05
6.76493e-06
5.68979e-09
0.00114841
5.70242e-07
0.0427499
4.99519e-08
4.88079e-09
3.02493e-05
1.14897e-06
1.32251e-06
3.74553e-05
0.0395491
2.04541e-05
2.39772e-07
8.43045e-05
0.219284
0.0432607
6.79203e-06
0.000285059
3.04139e-05
0.000579997
3.0279e-06
0.037406
3.85579e-05
0.000187087
2.41599e-07
8.85385e-07
4.7293e-06
5.21309e-07
2.42639e-05
2.31812e-06
7.69656e-07
2.55263e-06
4.15237e-06
0.000101495
2.4638e-08
3.67601e-07
0.08064
9.79967e-09
7.7357e-08
4.3421e-05
6.34152e-08
0.000185962
3.5619e-05
0.0659174
2.34476e-05
0.261451
1.28721e-05
2.15919e-05
0.0399186
0.000158697
2.47353e-10
1.9266e-06
0.0279822
1.55955e-05
7.88592e-05
1.68773e-05
1.65892e-07
7.043e-06
7.47037e-06
8.52706e-07
0.127609
1.09587e-06
1.02836e-07
1.77567e-06
6.67286e-07
1.52219e-08
8.71844e-05
2.47457e-06
0.274411
8.36279e-05
3.51798e-05
4.64094e-05
5.86517e-05
1.6756e-05
2.97616e-06
1.41711e-10
9.00146e-07
7.40241e-05
2.15505e-05
6.51749e-06
6.92287e-08
1.13359e-05
1.26616e-06
4.03324e-05
3.21458e-08
1.38838e-07
1.23595e-06
2.86914e-05
2.19615e-05
3.30937e-05
2.91835e-08
2.26432e-08
0.00166714
2.24089e-08
1.52616e-09
2.87127e-09
1.46501e-06
0.308948
9.30693e-07
0.000115937
6.9155e-05
2.10981e-05
1.78236e-07
1.25287e-06
0.000226078
7.38251e-06
3.57722e-07
3.7557e-05
4.06814e-09
2.99624e-09
4.08895e-09
9.94262e-05
1.1165e-07
0.329091
0.000526949
3.53706e-05
0.00184027
6.83711e-07
1.7147e-05
2.5153e-09
0.0592768
8.30576e-06
6.19486e-06
1.5518e-06
4.12197e-07
1.61706e-07
0.481489
1.6857e-05
0.000436992
6.59811e-05
1.37852e-06
0.122501
3.17009e-07
3.20309e-07
4.99655e-07
7.2504e-07
3.51166e-05
5.01618e-07
2.44642e-05
1.81713e-05
0.000502648
3.60132e-06
5.3601e-10
0.000190408
3.81859e-07
0.156854
3.46213e-06
2.40795e-07
1.25211e-06
1.89556e-05
0.06064
0.0297488
1.84769e-05
4.85196e-05
0.0905507
3.55688e-06
2.53236e-05
0.0473672
1.25497e-05
5.95033e-06
0.173255
0.018642
1.0434e-05
3.3284e-05
1.53507e-08
3.86414e-05
0.00173128
1.03677e-05
1.14677e-05
0.000380897
1.32653e-09
0.0231225
1.04749e-08
2.87556e-05
0.194369
1.22452e-07
1.22376e-05
4.57668e-06
3.75046e-07
3.99567e-08
4.80334e-05
4.17998e-07
1.13311e-07
3.16785e-05
9.76649e-06
1.39398e-08
0.023277
0.0440955
5.03258e-06
2.55981e-10
1.91855e-09
0.000143812
1.41402e-05
5.39879e-06
3.34955e-09
9.94211e-08
0.00013312
6.9516e-05
4.75295e-05
8.34404e-05
0.36347
1.47423e-09
0.140835
1.76578e-05
6.64664e-06
0.0562517
1.08553e-06
2.1116e-08
0.0228049
7.45486e-10
6.83333e-06
6.46122e-06
7.18969e-06
1.10177e-06
9.24992e-09
3.94891e-09
1.61909e-08
2.03846e-05
0.1341
0.21237
3.14731e-05
2.55072e-06
1.70579e-10
0.0557411
0.225569
0.000279251
1.04854e-06
1.37749e-07
0.000968391
0.00024657
2.36166e-07
1.32454e-08
2.1851e-06
8.01963e-06
3.70762e-08
1.10689e-05
6.98428e-05
0.0599446
0.204408
5.62541e-05
0.000862437
9.99132e-09
3.74303e-07
3.28902e-05
0.000180732
3.37587e-05
0.000456137
8.25435e-06
1.51146e-05
7.7209e-09
8.68048e-08
1.26563e-05
0.0582392
1.13029e-06
0.177815
2.01976e-08
1.21338e-05
2.42832e-06
1.66372e-05
1.05583e-08
1.29259e-09
1.10506e-07
3.55691e-08
1.21988e-06
0.000328179
1.01759e-08
0.0373071
1.7877e-05
0.159265
1.95529e-06
3.02111e-06
1.65211e-06
2.0488e-06
1.33209e-05
3.07411e-08
2.31035e-08
1.34739e-08
3.34453e-06
9.63884e-06
0.0582545
0.056391
5.24536e-06
1.01174e-06
6.01718e-09
2.40324e-09
2.53306e-08
1.72216e-06
0.00025014
2.02386e-07
3.67705e-08
3.58371e-09
0.0219305
2.65534e-05
4.47215e-05
0.0403626
8.79216e-07
0.310803
9.82817e-06
4.39686e-07
4.25441e-10
2.59213e-07
0.0534418
9.78217e-10
2.38062e-05
2.24649e-08
0.000704325
4.5036e-05
8.46149e-05
0.000145632
2.93969e-05
4.10432e-09
1.59454e-08
0.359251
3.30519e-05
3.51134e-05
0.000234936
4.22014e-07
8.60488e-05
9.6326e-05
3.00897e-06
3.29844e-06
0.000305472
8.22925e-08
0.000719116
0.0391415
1.42572e-06
2.06629e-07
8.33356e-05
9.0631e-07
0.0340667
0.182107
2.17432e-05
9.11929e-10
0.00411046
3.43172e-07
1.5621e-05
1.53404e-06
0.00012532
1.12299e-08
0.000878353
8.73852e-05
0.000132051
2.14483e-05
0.00012332
3.05779e-05
5.35789e-06
7.50468e-10
0.000156018
4.75879e-05
5.8134e-05
6.65266e-07
9.65866e-06
0.000121739
0.000454742
9.43861e-09
1.8749e-08
3.48747e-08
3.49465e-10
1.27348e-07
0.0216148
0.000404636
0.000144387
4.08054e-05
0.000206327
8.31588e-05
2.79232e-10
1.16539e-05
6.8589e-09
5.38825e-07
7.1253e-09
2.64612e-05
0.00204148
1.54964e-05
1.11536e-07
1.32914e-08
1.5039e-06
1.22546e-07
6.93953e-09
0.146427
9.26559e-06
0.000674854
0.00102981
0.000729402
9.00463e-09
0.000675649
0.000756547
0.00135837
0.000731379
3.8613e-09
3.90815e-10
3.4545e-06
8.61929e-06
6.83189e-05
0.000322103
0.0424926
8.30526e-06
3.31034e-05
4.47549e-06
0.000557226
3.40404e-08
1.23467e-09
0.000114591
0.000372047
0.0260873
6.69127e-09
0.117907
0.000127163
3.3932e-07
9.37354e-05
4.96747e-06
8.97984e-05
2.28981e-06
9.86143e-05
6.72745e-09
9.61306e-06
0.00217038
3.66993e-05
5.81715e-08
0.00175725
4.48472e-05
1.07093e-05
0.00321963
8.70056e-08
7.69264e-06
5.71905e-05
0.000103567
8.58323e-07
0.193104
5.66298e-08
8.54061e-07
2.71333e-08
0.118091
0.120978
2.06791e-06
1.8105e-06
0.000155049
0.0550542
3.32858e-08
1.10165e-05
2.15853e-05
1.34374e-05
1.28007e-06
0.195401
7.21407e-06
1.69517e-05
0.00363971
1.60615e-07
7.22889e-06
1.73214e-06
2.53045e-06
1.84286e-09
0.00240551
0.00397942
1.08444e-07
7.67685e-07
1.27297e-06
0.00010203
7.30427e-09
0.0397934
2.88875e-07
1.00009e-05
1.09906e-06
5.30431e-07
5.0228e-06
3.37182e-05
1.30045e-06
5.07137e-06
0.000247814
1.60224e-06
1.34864e-06
0.0429928
7.7328e-07
3.37975e-06
2.50253e-06
1.99534e-05
1.81132e-10
5.04211e-09
7.23305e-10
6.02478e-06
5.63642e-08
0.0677089
2.22632e-05
1.21331e-05
3.91644e-09
3.27806e-05
0.117497
7.90153e-05
1.38668e-05
6.19422e-05
1.25424e-05
2.00294e-07
7.87355e-08
2.43859e-05
4.40349e-06
2.71151e-06
0.000547
9.73456e-06
4.65707e-08
2.97254e-08
2.33489e-06
7.86958e-08
7.00855e-06
4.12522e-08
1.20781e-05
1.6311e-05
1.91883e-07
7.54067e-10
0.0456954
7.11937e-09
2.68608e-09
2.52275e-05
0.0564441
2.07118e-05
2.24734e-06
1.40699e-08
1.00705e-05
5.36325e-06
2.23491e-05
6.03297e-06
7.42539e-09
1.76511e-06
1.58657e-06
5.53313e-06
4.0973e-09
4.98481e-09
4.44922e-09
5.27542e-06
1.71048e-05
9.6378e-07
1.557e-08
7.59651e-06
5.21525e-05
1.94025e-08
2.49687e-05
4.61929e-07
5.24808e-08
4.41393e-09
3.93446e-05
2.39866e-07
2.06273e-05
1.50238e-09
2.56048e-05
1.05815e-08
1.546e-06
0.000350961
1.35043e-07
5.51245e-09
0.068806
2.98457e-08
0.0565766
2.4438e-07
4.66601e-08
9.53877e-06
2.58342e-05
0.0470203
5.91233e-05
0.0499271
0.0606492
9.13647e-05
1.14247e-05
0.0403662
1.08705e-05
1.66867e-08
4.27792e-05
0.141198
0.0370061
0.0422044
1.18958e-08
1.0176e-05
1.53358e-08
5.56672e-06
9.898e-07
7.92324e-06
0.000171931
7.09815e-06
5.29503e-07
1.67374e-08
3.7784e-06
0.000295209
2.38677e-08
1.21155e-05
3.8423e-05
1.97688e-06
9.83924e-10
6.34478e-05
2.62821e-05
2.61354e-05
1.79707e-05
1.6677e-05
2.2016e-06
7.60644e-06
0.000153944
8.68936e-06
6.75528e-06
0.000126048
0.000457948
3.96967e-09
6.35335e-07
2.77773e-08
1.98803e-05
9.05866e-08
2.31274e-06
1.02702e-10
0.000397686
0.391901
0.0890573
0.000150336
5.10469e-09
1.15486e-05
0.0553246
0.102948
2.46236e-06
0.000271672
2.09952e-06
5.58014e-07
1.2075e-07
3.02708e-09
9.47035e-06
4.49337e-05
3.87622e-08
4.39094e-09
1.77712e-05
1.6572e-07
0.176349
0.0539109
1.16904e-05
5.23541e-09
1.15436e-08
0.0420757
5.0902e-09
2.56286e-05
9.84404e-09
0.000614514
2.18779e-08
5.03571e-06
5.15083e-08
6.09751e-09
0.00108238
0.154968
0.064633
1.45028e-08
0.0689773
4.24298e-08
1.36948e-05
1.64859e-06
0.11807
2.40012e-07
0.00016262
3.92415e-09
1.97726e-06
0.000277654
1.72884e-06
0.000165324
9.95639e-09
1.16635e-05
3.304e-05
2.07843e-05
5.44795e-06
3.66716e-07
3.32541e-07
3.38505e-06
6.10392e-07
1.00202e-08
3.58795e-09
0.0753813
0.0371647
1.42226e-08
0.0845189
2.99862e-10
2.102e-08
5.28783e-05
4.87219e-09
4.80982e-09
0.040242
1.82419e-08
7.42338e-10
0.000650619
2.08719e-09
1.29791e-09
5.06681e-05
0.0930043
1.42507e-07
0.0371314
8.4356e-09
4.67285e-06
0.0503846
6.27863e-06
0.000862984
5.91414e-10
7.28205e-08
1.04528e-06
1.76929e-07
0.209787
0.0456526
0.000109524
3.2651e-08
0.0462793
1.03785e-09
2.0554e-08
1.79531e-09
0.102955
0.00178473
9.26951e-06
1.2596e-09
1.29144e-06
0.0481449
0.000914504
3.64733e-07
0.000251708
0.109063
0.0862798
3.522e-05
0.0853738
0.000925338
0.0426797
4.20968e-05
0.0657903
0.000345175
4.78317e-06
1.48062e-06
2.3313e-06
0.000458617
0.00093143
6.96751e-10
3.90644e-06
7.0462e-08
4.64993e-05
7.41765e-06
1.0019e-06
8.10307e-06
0.000297671
1.7452e-07
8.02043e-06
9.14299e-08
2.70055e-08
2.74175e-08
4.53166e-08
5.0582e-06
4.48907e-08
4.86809e-08
7.45517e-08
1.05124e-05
4.32607e-05
2.00386e-10
1.8053e-09
5.47327e-08
1.0044e-07
1.07142e-06
0.00129676
0.00209904
0.000131248
9.42631e-09
3.22893e-05
5.78758e-06
0.0463569
3.20637e-05
1.29128e-05
5.66423e-07
1.1062e-06
2.45593e-06
0.000222994
0.000117056
0.179505
0.0671815
8.23648e-08
0.000827798
0.000296531
1.39836e-08
2.69223e-06
4.60528e-06
3.81034e-08
1.73101e-06
3.95149e-06
0.062162
1.22956e-09
8.36463e-05
1.38071e-08
0.0488109
5.12751e-05
0.0355078
3.33907e-05
4.66144e-09
6.71097e-09
2.31614e-08
2.50514e-05
2.44483e-05
4.23788e-06
7.28986e-06
9.5762e-07
0.000763457
0.000290239
9.60476e-10
0.000117108
4.83886e-05
5.30052e-05
9.54662e-05
0.00296633
4.05202e-06
0.0991943
4.87291e-08
5.89933e-06
0.0383617
1.26415e-08
0.000260621
0.0071777
4.05394e-08
0.000103054
1.36277e-08
1.85973e-07
2.57913e-06
3.96034e-06
5.32769e-08
8.13786e-09
6.96031e-07
2.55459e-09
6.10492e-09
0.000126838
2.4545e-08
5.50941e-10
2.93877e-05
7.69262e-09
9.74779e-08
2.70015e-07
0.000215266
2.19644e-07
0.000169336
1.07164e-07
4.71834e-08
2.2626e-05
6.61549e-05
0.000231758
0.0432361
8.07674e-05
4.29488e-05
2.30003e-06
0.320019
0.311186
1.2658e-07
2.91264e-05
1.79268e-08
0.0458999
0.0380304
0.00040587
0.0904708
0.0685027
7.16328e-06
1.10487e-09
0.000116383
1.12927e-08
1.23245e-09
3.97612e-07
1.59424e-05
7.18375e-09
1.7389e-05
3.39501e-05
5.12302e-09
2.40752e-08