/*--------------------------------*- C++ -*----------------------------------*\
  =========                 |
  \\      /  F ield         | OpenFOAM: The Open Source CFD Toolbox
   \\    /   O peration     | Website:  https://openfoam.org
    \\  /    A nd           | Version:  10
     \\/     M anipulation  |
\*---------------------------------------------------------------------------*/
FoamFile
{
    format      ascii;
    class       volScalarField;
    location    "26";
    object      SgRate;
}
// * * * * * * * * * * * * * * * * * * * * * * * * * * * * * * * * * * * * * //

dimensions      [1 -1 -3 -1 0 0 0];

internalField   nonuniform List<scalar> 
111485
(
8.73693e-10
0.00783174
0.0243635
5.76584e-11
0.048998
3.19743e-08
0.0465394
0.0061713
0.0190874
0.00125167
0.0469184
0.00949121
0.00483376
0.296312
0.00652299
0.0302111
0.210554
2.62461
0.0103601
4.80368e-08
0.0372131
3.56537e-09
0.026957
0.0345205
0.00878325
3.51823e-08
0.0393131
0.00179774
0.0152454
0.0481449
0.0446641
0.0196155
2.17977e-07
1.45561e-06
0.00705003
9.18434e-05
0.147307
0.210038
0.00246513
0.0242782
0.0435876
0.0707716
0.0158636
0.00167829
8.25104e-05
1.58693e-06
0.0294202
0.000711939
0.0474144
4.29093e-07
1.09557e-06
1.73411e-05
4.63078e-07
0.0515389
1.50898e-06
0.0438061
0.00303233
4.44574e-08
7.07458e-05
0.00480215
0.0160774
2.65211e-07
0.00490727
0.0984289
6.46077e-06
0.00312467
0.316446
0.0943854
0.00118974
0.00632943
6.86399e-05
0.00676874
1.12596e-05
0.00301321
4.65292e-08
0.0007207
1.51845e-08
0.0411197
2.79845e-08
3.12793e-05
0.281088
0.56061
4.65005e-08
5.23152e-09
0.00941819
0.00384037
0.143759
0.025412
0.000308308
0.00744701
0.000257684
0.0402599
0.0120226
5.85246e-05
0.0521045
6.68811e-09
0.0270642
0.00183995
0.00153719
0.0016985
1.39037e-09
0.0176483
1.96801e-06
0.0179767
0.00457776
1.64928e-05
5.9284e-09
0.0075921
0.00422071
0.000730718
0.00560322
0.00476709
0.00382598
0.00334979
1.03906e-07
3.43823e-05
3.05911e-08
6.56021e-06
0.0129269
4.65773e-09
9.24828e-08
0.000190065
0.0753633
2.27148e-06
0.00158886
0.0278112
0.000107381
0.00173801
2.97482e-10
0.000345809
0.0016656
0.0328772
0.0472032
0.000175217
7.85539e-05
0.0482933
8.04192e-10
0.0425429
0.0254011
0.00273019
0.000324248
0.00199726
0.202885
0.00271132
0.00412014
0.0130642
6.88735e-10
8.96926e-10
4.76957e-08
0.0281094
0.00155964
0.0285476
0.115705
0.0046917
3.57999e-05
0.0109544
0.0161085
0.011022
0.000823351
5.43656e-06
9.5906e-10
0.0523846
0.0225023
7.57728e-05
6.42766e-05
0.0058976
0.00339675
0.0271082
0.00156784
0.000170565
1.59034e-09
1.5209e-08
0.19809
1.09199e-10
0.00548418
0.00206512
5.24769e-07
9.54407e-06
3.62831e-08
5.81465e-06
9.93676e-06
3.71486e-08
0.00152087
0.00677939
0.0299368
0.00413985
0.00772085
0.00409212
0.000464757
1.7869e-07
0.00491885
5.8022e-06
7.13626e-06
0.00658672
0.0103593
0.0287976
0.0115074
0.00502353
8.4617e-07
0.00681254
0.000501179
0.00170522
0.0145628
0.00234004
1.82906e-06
0.00386623
0.0249435
1.18783e-05
0.000176031
0.00794146
0.00199944
0.000381333
8.66259e-06
7.81861e-09
0.00841276
0.000312077
0.119257
7.47713e-09
0.00670778
0.0206349
0.119085
8.33412e-08
0.00331839
0.0137266
0.000277983
6.89282e-09
4.37629e-10
0.150025
0.00418761
2.35677e-05
9.3686e-05
0.00946268
0.0078372
0.161165
3.87589e-05
2.0419e-05
0.160982
4.65204e-08
0.00242337
0.00960722
0.016702
0.0116628
0.00966817
3.90081e-06
0.00195146
0.000629407
7.84942e-06
1.18896e-08
0.0309778
0.157227
1.83598e-05
0.0065843
0.0108155
7.86508e-10
0.000193259
0.000112887
2.78741e-07
6.68839e-05
0.0997404
1.8591e-08
0.0147589
0.0106569
0.00369203
3.37313e-09
0.0118136
6.45705e-11
6.09634e-08
5.10056e-07
0.165026
0.0230575
0.00621105
0.00551955
0.213702
0.0124227
0.00155968
0.00081797
0.0321998
0.00870627
4.52668e-07
5.35787e-09
0.11162
0.0226941
0.0246075
0.011798
1.85454e-09
0.224822
0.268069
0.00304143
0.000321381
3.68298e-05
0.0138737
0.0021969
0.0019941
2.01159e-08
0.000650348
2.99274e-09
0.000359802
0.000275183
0.233839
0.0678168
0.358656
1.77785e-08
0.0860939
0.00897651
0.00172677
3.00225e-09
1.15034e-07
0.0246236
0.00030038
0.0569009
0.00403045
0.0134189
0.0191828
3.05501e-05
3.06132e-08
3.5346e-08
0.00377925
0.00443798
0.251307
0.184225
0.000793158
1.82662e-09
8.66977e-09
1.40936e-08
8.48227e-05
0.0601921
0.0118103
2.17555e-06
0.00529707
7.14708e-05
0.0608049
0.0671165
0.00599385
0.0114471
0.00933481
0.0483431
5.00038e-05
7.38015e-07
0.00952474
0.0187503
0.00490035
7.08502e-08
0.151373
0.000327692
0.00230992
0.00806283
0.000336887
0.0284616
0.0391458
0.0375098
0.00359177
0.00772592
0.0257785
0.0131598
9.11268e-06
1.96208e-07
5.4684e-07
7.13592e-07
0.0311007
0.372169
0.0326069
0.0673196
0.0530183
0.018283
1.75099e-08
4.07684e-07
0.0167412
0.0469187
0.0821953
0.0458996
0.0496979
0.0228116
2.50281e-08
0.0135081
0.000288127
4.15731e-10
0.000979267
0.0166542
1.58599e-05
0.00896264
0.00912414
0.00819569
0.00141224
0.00266253
0.00547144
4.32067e-05
1.16178e-06
0.00268776
3.89789e-07
0.00633751
0.117965
0.0303861
1.17648e-07
0.027698
0.154936
0.00830456
0.327
6.7091e-08
0.047875
0.0188967
7.71192e-09
0.000845276
0.00240088
3.7706e-09
0.0320414
0.0109331
0.00518694
4.56261e-07
2.59269e-08
0.000758289
3.77428e-09
0.0125214
3.6372e-06
4.42881e-10
0.016701
4.03109e-05
0.259225
0.0300828
1.97039e-09
7.96009e-05
0.00164301
9.90174e-05
0.000204244
0.0152402
0.121797
0.830097
5.53079e-05
0.207696
0.000759217
4.59963e-08
0.0390215
0.0308583
2.0379e-07
0.00141995
0.00030907
8.33008e-05
0.0237003
0.0239489
0.0138792
3.67988e-08
0.352351
0.0167005
0.0228091
0.00439219
9.16737e-05
0.00127031
3.56696e-08
0.253616
0.363723
2.56329e-08
0.00819199
0.00036364
0.000103556
4.05603e-09
3.01683e-05
3.56784e-09
0.288814
0.00965946
0.00630616
0.00213963
0.00259061
1.78686e-07
0.00194506
4.99824e-07
0.0412912
1.54567e-07
5.9833e-07
0.0524025
0.0376249
4.0366e-08
1.5654e-09
0.000385229
8.46631e-08
1.6056e-06
0.00107136
2.75171e-08
6.13841e-05
6.72736e-08
0.0741561
6.93819e-08
1.65948e-06
3.67921e-08
0.00703126
4.30791e-07
0.224679
0.00200314
0.237871
1.01979e-08
0.000972384
2.59025e-06
2.67178e-09
0.372616
0.145002
0.0267377
0.0251447
3.06525e-05
0.00203556
0.0824474
0.00851957
0.00105566
0.29316
2.54649e-08
0.0232302
0.00010846
0.0050473
0.0591209
0.076432
0.000115001
0.0211979
0.000248276
0.00078078
0.0820506
0.00204593
2.18195e-08
0.0799815
0.0489241
3.55572e-06
1.14514e-06
1.96335e-05
1.75348e-09
0.00169866
0.0547038
3.51542e-07
1.78735e-07
0.00250497
4.48898e-09
0.0340327
2.96313e-08
0.000320304
1.97972e-09
0.116762
0.11479
0.000999568
0.0127737
0.0653217
0.0818065
4.81368e-08
2.46867e-07
0.014728
4.57264e-08
0.000201652
1.78994e-05
0.00164772
0.0426512
0.0644614
2.43984e-09
4.68492e-05
0.0177944
0.00325793
0.0017396
0.00386174
0.00687366
0.0206686
9.76058e-07
0.0254668
0.00596771
2.55495e-09
0.126585
0.041398
0.0155149
1.34899e-06
0.00481717
0.00695424
0.00226948
0.00399725
0.000387076
0.0136876
0.00131992
0.000130514
0.0228545
0.128842
0.000778767
7.44682e-05
0.00358935
0.72817
3.16642e-08
0.000408465
4.59652e-06
4.07048e-05
0.00731225
0.00315825
0.00274511
0.000452763
0.000167319
0.0159425
0.0110444
5.25787e-08
0.000198784
0.00129514
2.90427e-08
5.64061e-10
5.58719e-08
3.19409e-08
0.0126293
1.79106e-09
0.0347524
0.00846534
0.00193339
0.098912
0.330065
6.03838e-05
0.00846046
0.0371492
5.53446e-08
0.0516945
1.5843e-07
1.90136e-08
4.78006e-05
0.00422026
0.121549
0.0280336
0.00625056
2.69269e-06
0.0903296
0.1462
0.0287379
0.0283701
0.000485023
0.197001
0.041605
0.05384
0.0467374
5.96107e-06
0.00032315
0.040686
0.00803502
0.0014138
0.0276403
0.0261276
1.14035e-06
0.0109587
0.000666205
3.26796e-05
0.03486
0.000254607
0.000660186
0.0108502
0.0407185
0.00132617
0.0215221
0.0196611
0.00720948
3.2702e-06
0.0104333
0.000332898
0.000198022
0.0172088
0.0180429
0.0357545
5.0545e-07
0.0018881
4.45395e-06
3.98325e-09
0.0778718
1.60734e-08
0.136827
5.88852e-05
0.0117727
8.01143e-08
0.0295344
8.30959e-05
0.0428008
1.35781e-09
0.0303837
3.01195e-07
1.65082e-08
8.16905e-07
0.321524
0.000522607
2.96115e-05
0.0411857
1.0318e-07
2.88663e-09
0.205463
0.0697917
8.36818e-05
0.00200889
0.000130418
6.48625e-08
0.0374108
0.00871215
0.179845
6.11621e-10
4.59853e-09
0.000414564
0.00107416
0.000132763
4.08442e-07
0.0632046
0.00722787
2.65135e-08
1.23028e-07
0.0456571
0.0421597
0.00227886
5.86772e-10
3.84784
0.369844
0.19207
1.6112e-08
1.88238e-08
0.0550348
0.00045377
3.95914e-05
0.000591905
0.108909
0.00262993
0.0112061
0.063656
0.0520388
0.00191831
6.90626e-08
1.20334e-06
1.41124e-08
9.33894e-09
7.72021e-08
9.60194e-10
0.0224316
7.14373e-08
1.9317e-08
3.26701e-07
0.0113027
0.023546
1.09e-07
5.83074e-07
0.10554
0.01435
0.00989706
2.69219e-08
7.42667e-09
0.0372309
8.01192e-10
0.00177622
0.0026379
0.00397524
1.23861e-07
1.27097e-10
9.56981e-10
1.60843e-09
0.0145955
1.92259e-08
6.5878e-08
0.00108588
4.8057e-09
0.0233051
0.00200832
2.35392e-06
0.0368574
0.338864
0.00253923
0.281386
0.000250602
0.0434503
0.209903
8.25284e-05
0.0237012
0.0676171
0.00599144
2.04529e-05
0.0890418
0.787231
0.0100391
3.80944e-08
0.00241982
0.00248533
0.00122429
9.27407e-05
1.85469e-09
1.56363e-10
0.0134718
3.86564e-05
0.0027411
3.91908e-06
0.00139667
0.00143266
0.0367884
0.000565354
1.50825e-08
0.033607
8.08779e-06
0.0204919
2.78515e-08
4.98659e-05
0.000206311
1.78762e-06
3.47811e-07
0.0407083
1.55906e-09
0.0101679
0.0640546
9.69747e-09
0.0727003
4.30518e-05
0.0372461
0.000610068
1.07173e-07
2.78475e-05
0.0016419
0.0458712
0.00411782
0.00132266
0.161897
0.000203119
0.00395873
1.00089e-06
1.08179e-05
0.497435
0.16265
4.30407e-08
0.242202
0.000870055
0.000162672
0.00998608
0.00020904
0.00121635
0.0229536
0.00947777
0.00225064
0.00483828
0.00198155
0.0458534
8.21261e-08
0.0330564
0.0265516
9.80057e-08
0.00841988
0.271688
0.028446
2.96004e-07
0.0018929
1.56275e-08
0.0101974
0.226701
2.35244e-08
0.179737
0.34348
0.00135562
0.00497323
1.09988e-06
0.0486816
7.79057e-05
0.00162018
0.00123331
0.000330252
4.3007e-06
0.0455705
0.00693353
9.11735e-10
0.000428966
0.000541031
0.000913152
0.000467287
0.000863766
0.000171609
9.79222e-10
6.88624e-05
0.0226514
4.12645e-07
0.00190762
0.352096
1.75161e-07
3.28546e-08
0.00324383
0.0033047
3.2574e-09
0.000610775
8.68965e-08
1.58347e-08
1.25033e-08
4.49521e-07
5.06801e-06
1.65591e-07
0.000347571
0.0521059
1.45476e-09
5.168e-07
0.00451922
0.11625
0.00175917
0.00920986
0.0327377
1.0719e-08
0.000289572
4.10246e-09
2.28802e-09
0.000574706
0.148601
0.0420764
8.0879e-09
6.70982e-08
0.0358871
1.84172e-08
0.0232578
4.71945e-08
0.00673022
6.48608e-09
0.00196161
0.0263174
2.76624e-09
7.57048e-07
5.60105e-07
0.00143738
6.26248e-07
2.36814e-08
2.09333e-06
0.00445619
0.0543807
0.00420764
0.000615769
0.00107102
4.31707e-08
0.00140517
0.00187654
0.0439709
2.98933e-06
0.000224215
0.0054167
1.17902e-07
9.55862e-06
0.000151115
1.00928e-07
0.00822022
0.00163409
0.00316767
0.0734616
1.30696e-09
0.0228629
0.0611884
0.000121985
7.76935e-05
5.4762e-09
0.026466
1.73126e-08
1.13905e-06
2.91579e-05
0.0521968
5.54354e-07
0.00232905
2.76679e-05
0.000847524
1.69319e-05
7.14154e-09
3.83584e-06
1.68573e-09
0.00246727
0.00064645
0.30217
3.15998e-08
5.07706e-07
0.00207431
1.32617e-10
4.7987e-05
4.4664e-07
0.0359453
0.000851984
0.0320087
1.49958e-08
0.00140683
0.000171209
6.33553e-05
0.000293954
4.68766e-08
0.00134166
0.0244875
0.137804
0.00116133
0.000318523
6.25889e-08
6.74126e-10
2.38698e-08
0.187027
0.0751805
0.00768966
6.78444e-10
0.174155
2.99416e-08
0.21471
0.00309123
7.6345e-07
9.25076e-08
3.41403e-06
6.18075e-07
0.0420948
2.12854e-06
0.000123368
0.325271
0.00689
7.22704e-05
3.39387e-05
7.08508e-05
5.22269e-05
3.26308e-08
3.40127e-10
0.0260398
0.000427848
8.18555e-09
2.02609e-07
0.000611163
4.59457e-07
0.00155324
0.423935
1.7691e-06
0.00362471
4.07829e-10
0.000391649
2.6528e-07
0.333091
3.07105e-09
0.119419
0.00554826
0.000742893
0.0184936
0.0346442
0.000948453
2.5767e-06
0.000575841
2.3187e-06
0.00467069
6.19198e-08
1.87164e-06
8.60531e-05
2.40521e-06
0.0710495
2.76882e-07
0.0073288
0.00857916
2.07268e-09
0.000385367
8.57951e-08
0.000846361
0.000844896
6.86386e-08
0.0179955
0.000237822
5.53284e-07
0.0235203
0.190801
0.00372051
0.0109733
1.27574e-10
0.0468707
9.00111e-06
1.93404e-07
0.0370114
4.95826e-06
0.114911
9.41459e-09
0.152824
0.000729002
2.11578e-09
0.00111949
4.12173e-07
2.49487e-09
0.00316895
0.00102317
0.0106744
7.89129e-09
1.12007e-06
4.65652e-08
0.000895853
5.07791e-05
0.0343481
6.26919e-06
0.000914293
6.79303e-05
0.0011843
3.09368e-05
3.53647e-06
1.09475e-06
0.0183431
0.00987111
0.0182764
0.0359222
0.044076
0.000268791
0.0482365
1.27932e-09
0.00955843
1.18529e-07
6.27564e-05
0.000467644
0.00675658
0.000430821
0.000539985
0.00200065
7.57085e-10
0.0072248
0.00842713
0.00021714
0.000800721
0.015309
0.0010012
1.68742e-06
0.0299716
1.37368e-07
5.57199e-09
0.000265324
0.0749827
0.00100656
6.4243e-07
0.0477211
0.000673968
7.22481e-07
1.38671e-07
0.000600859
2.91991e-06
0.05575
0.322101
0.000374102
0.000426945
0.0223912
0.00722234
2.14312e-08
1.30981e-08
8.89825e-05
0.0040412
0.0351402
0.0551711
0.00958861
3.18731e-08
0.000323981
0.0419407
2.76864e-05
0.00115966
2.56886
0.0443861
0.122635
0.0516311
0.0219393
1.14547e-09
0.0020428
6.65413e-07
1.64498e-07
1.95271e-07
7.46864e-09
0.00281333
4.05538e-09
2.08558e-09
9.22214e-05
4.94716e-08
6.70358e-09
9.57762e-07
0.00972359
0.0603256
0.0109396
0.00320395
0.0778843
0.265123
6.00417e-09
0.189298
0.000165271
0.396347
0.0128694
1.10173e-07
9.29552e-05
0.00756398
0.263423
1.73866e-09
0.00119008
0.0192438
0.00464781
1.63782e-05
0.0256913
1.10053e-06
2.4234e-07
0.0792787
1.01132e-08
0.0080561
1.10447e-07
9.26895e-07
0.00829399
0.000461522
0.00274568
1.16689e-06
0.000391234
0.000671319
4.24797e-07
0.000202612
7.51727e-07
0.0235413
1.43089e-07
1.30334e-07
0.255844
0.0447646
0.000540904
3.32986e-07
6.57357e-09
0.00466653
0.19592
0.00467784
0.0151231
0.217788
0.0202912
2.50092e-09
0.0365525
0.00315259
0.006707
0.036945
0.0102422
7.97033e-09
0.193707
1.08164e-09
0.0405922
0.0093731
0.0111991
1.44484e-08
0.0133311
1.33584e-06
0.00272765
0.00898733
5.15438e-06
3.0189e-10
4.63579e-09
0.00297262
0.082222
2.32671e-09
0.0042803
0.0216428
0.000102298
0.00733498
0.0493716
2.34315e-06
0.000141284
0.000849438
6.123e-08
0.0103085
1.98033e-06
0.0025684
2.90527e-08
2.7688e-08
0.012302
6.2605e-09
0.000220098
0.00372977
3.06719e-08
8.41457e-08
0.00460457
0.000549751
0.358876
1.18317e-07
0.248578
1.84642e-06
0.000371524
0.000171801
0.00758621
8.39906e-05
0.0808074
0.00560278
5.52053e-05
0.00109198
0.0682452
7.06714e-07
5.02966e-08
0.000427698
0.000787967
0.0425021
1.9121e-07
0.0346471
0.000949115
1.4747e-08
0.232716
9.62752e-09
1.70475e-07
2.36852e-06
0.00289062
0.312237
0.0586819
4.72832e-07
2.51061e-08
1.76535e-09
1.10952e-07
1.09393e-07
6.6178e-07
1.2145e-07
6.42215e-09
6.41071e-08
1.1784e-08
1.84726e-07
0.0643555
0.0381633
2.85647e-09
1.38496e-05
7.71943e-09
7.80039e-08
1.31562e-08
0.0374083
0.082436
0.0169279
4.20397e-08
1.38917e-08
8.388e-07
0.00664389
4.09326e-06
1.37202e-07
0.299807
2.70483e-07
3.12901e-06
0.0228719
0.000190123
5.36284e-06
0.00888622
0.0244417
3.18051e-08
0.00343681
0.00480005
1.85032e-08
0.013545
0.0391494
0.0177785
0.00342076
0.0106319
3.7475e-06
1.12857e-07
0.335692
0.0104621
0.00327078
0.0643844
0.00693541
0.00181003
0.0214658
0.0099416
0.000699658
0.0156294
0.00107779
0.0103798
3.37647e-06
0.0240613
0.0084287
0.00162538
0.00143491
5.55546e-09
6.52771e-08
4.7676e-08
6.72121e-10
1.7859e-07
0.00909155
0.0134941
1.93936e-08
3.19289e-09
1.85609e-07
1.74116e-05
4.44687e-09
9.88041e-09
8.25365e-07
1.12631e-06
0.00467842
0.000299798
0.0216901
0.248283
1.16918e-07
1.16381e-05
0.0298132
1.1984e-05
4.40912e-09
1.82635e-08
0.232478
5.6229e-07
6.32937e-09
4.59489e-06
0.234192
0.0134858
0.0334635
0.034554
1.09993e-06
0.0138918
0.000355742
0.000388478
1.97016e-08
0.0119453
4.9703e-06
1.86078e-07
0.0156291
1.04457
0.197577
6.7912e-06
1.37752e-06
0.0170853
0.0196279
0.0178672
0.00559199
0.00707873
1.19685e-08
0.000642363
0.000416539
0.0611033
1.0063e-05
0.276278
3.10852e-08
0.00198512
0.0246121
0.0175127
0.0110649
3.26743e-06
0.00606757
3.60317e-08
9.83705e-06
1.11699e-09
2.03043e-08
0.00244699
0.88589
1.01462e-07
5.11435e-09
0.000422853
0.0229271
0.00177556
0.00682668
0.0321617
0.00466863
0.0204369
2.01204e-05
4.54708e-06
0.000205921
0.028916
0.00552813
0.0033151
1.22168e-06
7.35016e-09
0.000157917
0.0217806
0.00265843
5.02399e-09
0.149298
0.0577929
0.00630945
0.00610664
7.44864e-09
0.000196952
0.00676141
0.0222559
8.17674e-10
0.000416075
0.0148209
0.00104815
0.20587
0.00462568
0.00775389
0.00024732
0.00319764
0.0205758
0.0350458
8.44201e-05
0.022042
0.000120597
0.200193
0.000164355
5.39867e-10
0.00246738
0.00749471
0.000423437
0.0113353
0.000460222
0.00100994
0.000500794
0.0428919
0.00363008
5.29184e-05
0.0369958
0.00128604
1.24207e-07
1.07738e-08
0.10233
0.000520356
0.00104579
1.05863
0.0345516
0.0121352
0.000435757
0.0445221
2.26851e-06
3.23183e-06
0.0037834
4.2317e-05
0.00199655
0.00391171
0.00217414
0.00450152
6.43987e-09
0.000213602
0.104177
2.01578e-08
0.0135622
0.00738578
8.04888e-06
0.00391191
0.000135709
4.05984e-08
0.000601439
0.139096
4.78626e-08
5.53828e-09
2.1188e-08
0.149087
0.252199
0.013579
0.0533382
0.00458292
0.0317933
8.00968e-06
0.0077781
0.0120172
0.0229437
0.00150222
0.1184
0.341382
0.402104
0.0100789
0.00881806
0.035403
0.15696
0.364979
1.40891e-08
0.175555
0.0475297
1.10302e-08
0.000406099
5.9634e-07
2.85057e-08
3.74748e-08
2.29735e-07
1.75762e-08
0.140459
4.49136e-08
0.00692691
0.00128102
2.29643e-08
0.00360782
7.35127e-06
0.013281
6.53368e-08
0.000614612
6.4405e-06
0.0207206
0.000223873
6.7193e-06
0.00412503
0.027108
0.015791
0.00375067
0.026109
0.00340317
0.022325
0.0519882
0.00944455
8.3516e-07
0.00104183
0.000331879
0.00542693
0.00967671
0.000591902
1.15399e-06
5.79323e-05
1.3882e-07
0.00334683
0.0412182
0.000777747
0.329454
0.00248117
0.000361929
1.61131e-08
0.0615524
1.16532e-09
0.00842469
0.0203308
0.00112405
9.70056e-05
0.00176669
0.00662444
0.0017881
0.000781475
0.00622171
0.00599426
0.0025985
2.2534e-05
0.0790582
3.56138e-07
0.0122389
0.0103054
8.05897e-07
5.16213e-10
0.000261572
0.00823727
0.0173162
1.405e-08
0.00215621
0.0443954
0.000213068
0.00438804
0.0860627
1.69757e-09
8.42755e-11
0.00344456
4.18948e-09
0.000104985
0.011427
2.17702e-05
0.0103529
0.0310387
0.0182314
3.04873e-08
0.00152963
9.04936e-05
0.000133219
0.0461097
2.8981e-08
9.82139e-07
0.010103
0.000536647
1.01146e-06
0.162192
0.000923748
2.92482e-08
4.16721e-08
0.000230959
8.5176e-05
0.00234608
0.0029771
0.0245779
0.242638
3.83661e-10
0.000334615
0.000717173
0.0425317
1.76333e-06
0.0474994
0.0830786
0.000120168
7.57271e-06
2.02108e-05
1.12726e-08
1.56675e-05
2.71179e-05
0.000379243
1.92661e-05
0.000317107
2.61895e-05
0.000683556
0.000346053
0.000617183
0.000130821
1.68718e-08
0.0273196
0.00937755
6.29282e-06
0.0814132
0.000249485
0.000215341
1.38392e-05
0.00116375
0.000266547
0.00263627
0.000387393
0.00103715
1.94743e-05
2.45614e-08
0.00119305
0.000424513
0.066871
2.13355e-06
0.0365618
4.9258e-05
0.0350265
8.53747e-05
8.40299e-07
0.000399093
0.0264251
0.00739565
2.51606e-08
0.000301495
1.10577e-05
0.00439528
0.00122548
0.340807
4.65345e-05
2.05108e-06
0.0191925
0.00156574
0.00498307
0.0338589
0.0704226
4.0341e-10
0.0206565
0.00363503
0.0498596
5.68979e-09
0.00114888
5.70242e-07
0.0427499
4.99519e-08
4.88079e-09
0.0032264
0.0021176
0.00290869
0.29878
0.0395491
0.0251272
0.0338805
0.0159585
0.22094
0.0432607
0.00485903
0.00469642
0.00569997
0.000580271
0.00945521
0.037406
0.00143181
0.00142212
0.030802
1.93225e-06
0.00331116
5.21309e-07
0.0174841
2.31812e-06
7.69656e-07
0.00156874
4.15237e-06
0.00570337
2.4638e-08
3.67601e-07
0.08064
9.79967e-09
7.7357e-08
0.000841095
6.34152e-08
0.000684651
3.5619e-05
0.0659174
0.0164803
0.266463
0.00753986
0.00685619
0.0399186
0.548854
2.47355e-10
0.0641798
0.0279822
0.0163056
0.0230429
0.00227
0.0526324
7.043e-06
7.47037e-06
8.52706e-07
0.12964
1.09587e-06
1.02836e-07
0.0165609
6.67286e-07
1.52219e-08
0.00530479
2.47457e-06
0.28599
8.36899e-05
3.51798e-05
4.64094e-05
5.86517e-05
0.0014502
0.00637933
1.41713e-10
0.0216898
0.000412279
2.15505e-05
0.094965
6.92288e-08
0.0145437
0.0169403
0.00359955
3.21459e-08
0.0169966
0.0096366
0.000891018
0.00517709
0.0117353
2.91835e-08
2.26432e-08
0.00166891
2.24089e-08
1.52616e-09
2.87127e-09
0.0185055
0.355206
0.00430565
0.00220905
6.9155e-05
0.0475966
0.0432618
0.00398527
0.00238107
0.00888313
0.0196931
0.00266653
4.06815e-09
2.99625e-09
4.08896e-09
0.00700975
1.1165e-07
0.352479
0.000526949
0.000769199
0.00184084
0.00247429
0.0208004
2.5153e-09
0.0592768
0.00245795
0.000375877
1.5518e-06
4.12197e-07
1.61706e-07
0.481526
0.000309973
0.000581575
0.000870545
0.00970286
0.204148
3.17009e-07
3.20309e-07
4.99655e-07
0.00359707
0.0164788
0.0189325
0.0331502
0.00164811
0.00343398
3.60132e-06
5.36026e-10
0.000190408
3.81859e-07
0.165595
0.0212128
2.40795e-07
1.25211e-06
1.89556e-05
0.06064
0.0297488
1.84769e-05
0.0133386
0.0905507
0.000891973
0.406957
0.0473672
2.52856e-05
0.0217113
0.17398
0.018642
1.0434e-05
0.0049483
1.53507e-08
0.0139635
0.0017322
0.0234499
1.14677e-05
0.000380897
1.32653e-09
0.0231225
1.04749e-08
2.87556e-05
0.38306
1.22452e-07
0.00589006
0.00120625
3.75046e-07
3.99567e-08
0.0020348
4.17998e-07
1.13311e-07
0.0106598
0.000152396
1.39398e-08
0.023277
0.0440955
0.0162606
2.55982e-10
1.91858e-09
0.000599186
0.00263089
0.00310287
3.34957e-09
9.94211e-08
0.00013312
0.00382476
0.00189591
0.0126454
0.367108
1.47424e-09
0.141588
0.011089
0.00624534
0.0562517
1.08553e-06
2.1116e-08
0.0228049
7.45487e-10
0.0296822
0.00487976
0.0057818
1.10177e-06
9.24993e-09
3.94891e-09
1.61909e-08
2.03846e-05
0.134101
0.212584
0.00211646
2.55072e-06
1.70581e-10
0.0557411
0.225569
0.0342188
0.11209
1.37749e-07
0.000968392
0.00024657
2.36166e-07
1.32454e-08
0.00367528
0.00615951
3.70762e-08
1.10689e-05
0.00285305
0.0599446
0.205079
0.00104928
2.0036
9.99132e-09
3.74303e-07
0.011409
0.000712218
3.37587e-05
0.636492
0.000590587
0.00598628
7.72091e-09
8.68048e-08
1.26563e-05
0.0582392
0.0081973
0.177903
2.01976e-08
0.0244942
0.0184606
0.825144
1.05583e-08
1.29259e-09
1.10506e-07
3.55691e-08
0.00654754
0.00032826
1.01759e-08
0.0373071
0.0179676
0.160052
0.0045701
3.02111e-06
1.65211e-06
0.0276729
1.33209e-05
3.07411e-08
2.31035e-08
1.34739e-08
0.0203591
9.63884e-06
0.0582545
0.056391
0.0246609
0.0114594
6.01718e-09
2.40324e-09
2.53306e-08
0.0146977
0.000250334
2.02386e-07
3.67705e-08
3.58373e-09
0.0219305
0.00234846
0.0109241
0.0403626
0.00190667
0.311881
0.0047771
4.39686e-07
4.25456e-10
2.59213e-07
0.0534418
9.78217e-10
0.0182435
2.24649e-08
0.0143963
4.5036e-05
0.00160275
0.000145632
0.00242776
4.10434e-09
1.59454e-08
0.369082
0.152787
3.51134e-05
0.00379353
4.22014e-07
0.000464485
9.6326e-05
3.00897e-06
3.29844e-06
0.000305526
8.22925e-08
0.00100722
0.0391415
0.0337503
2.06629e-07
8.33356e-05
9.0631e-07
0.0340667
0.182115
0.000153449
9.11934e-10
0.00968027
3.43172e-07
0.0026887
0.0173256
0.00140264
1.12299e-08
0.000883124
0.00053249
0.000134247
0.00406809
0.000123618
0.00169917
5.35789e-06
7.50469e-10
0.000156434
0.00558291
0.000298613
6.65266e-07
9.65866e-06
0.000121739
0.564071
9.43861e-09
1.8749e-08
3.48748e-08
3.49469e-10
1.27348e-07
0.0216465
0.000586193
0.00112399
0.000107596
0.000206327
0.00150099
2.79237e-10
0.00520455
6.85896e-09
5.38825e-07
7.12531e-09
2.64612e-05
0.00205525
1.54964e-05
1.11536e-07
1.32914e-08
0.0136456
1.22546e-07
6.93953e-09
0.156448
9.26559e-06
0.0766788
0.122955
0.548437
9.00463e-09
0.193867
1.07702
1.04671
0.607598
3.8613e-09
3.90815e-10
0.00455903
0.00427145
6.83189e-05
0.0105552
0.0424926
0.0299895
3.31034e-05
4.47549e-06
0.00125845
3.40404e-08
1.23467e-09
0.000124954
0.000410941
0.0260873
6.69127e-09
0.117909
0.000127163
3.3932e-07
0.000111236
0.00781121
0.0015634
2.28981e-06
0.00765615
6.72747e-09
0.00327711
0.0021708
0.00708431
5.81715e-08
0.00175727
0.00550859
1.07093e-05
0.00321963
8.70056e-08
0.0297927
5.71905e-05
0.00890955
8.58323e-07
0.193104
5.66298e-08
8.54061e-07
2.71333e-08
0.118091
0.120978
2.06791e-06
0.0111057
0.00885838
0.0550542
3.32858e-08
0.0301277
0.0158524
0.171568
1.28007e-06
0.195468
0.0231772
0.0424999
0.00363976
1.60615e-07
0.0529128
1.73214e-06
0.212446
1.84287e-09
0.00240555
0.00397945
1.08444e-07
5.76684e-05
1.27297e-06
0.0193953
7.30427e-09
0.0397934
2.88875e-07
1.00009e-05
1.09906e-06
5.30431e-07
0.000260443
0.00189513
0.124672
5.07137e-06
0.000247814
0.0380233
1.34864e-06
0.0429928
7.7328e-07
3.37975e-06
2.50253e-06
0.00551635
1.81138e-10
5.04213e-09
7.23305e-10
0.00305061
5.63642e-08
0.0677089
2.22632e-05
0.00307164
3.91644e-09
0.00567954
0.334636
0.00518946
0.00526987
0.0246915
1.25424e-05
2.00294e-07
7.87355e-08
0.00299544
0.00159885
2.71151e-06
0.000547
0.000577172
4.65707e-08
2.97254e-08
0.310296
7.86958e-08
0.0198384
4.12522e-08
0.00218288
0.002945
1.91883e-07
7.5407e-10
0.0456954
7.1194e-09
2.68608e-09
0.016414
0.0564441
0.00436551
2.24734e-06
1.40699e-08
0.00643305
5.36325e-06
0.0115501
6.03297e-06
7.42539e-09
0.00214076
6.75392e-05
0.129538
4.0973e-09
4.98482e-09
4.44926e-09
0.00314011
0.16425
9.6378e-07
1.557e-08
7.59651e-06
0.00142526
1.94025e-08
0.0177108
0.0285433
5.24808e-08
4.41393e-09
0.00671221
2.39866e-07
2.06273e-05
1.50238e-09
2.56048e-05
1.05815e-08
0.0632052
0.000350961
1.35043e-07
5.51246e-09
0.068806
2.98457e-08
0.0565766
2.4438e-07
4.66601e-08
9.53877e-06
0.00693398
0.0470203
0.00802856
0.0499271
0.0606492
0.531235
0.00255076
0.0403662
1.08705e-05
1.66867e-08
0.00228261
0.141198
0.0370061
0.0422044
1.18958e-08
0.00685457
1.53358e-08
0.00430412
9.898e-07
0.0087009
0.000171931
0.0517739
5.29503e-07
1.67374e-08
0.0199379
0.000295209
2.38677e-08
0.0243099
0.000282214
1.97688e-06
9.83925e-10
0.0325312
0.00907568
0.00601161
0.000791845
0.00169309
0.0159072
0.000957492
0.00442549
8.68936e-06
0.0266677
0.000126048
0.000457948
3.96967e-09
6.35335e-07
2.77774e-08
0.00966043
9.05866e-08
2.31274e-06
1.02708e-10
0.00040216
0.391909
0.0890573
0.00224926
5.10471e-09
0.00398081
0.0553246
0.102949
0.00294786
0.000271672
0.0415351
5.58014e-07
1.2075e-07
3.02708e-09
0.00274347
0.00117653
3.87622e-08
4.39094e-09
0.00230348
1.6572e-07
0.785192
0.0539109
0.0936619
5.23541e-09
1.15436e-08
0.0420757
5.0902e-09
0.00920779
9.84404e-09
0.000648089
2.18779e-08
0.00891771
5.15083e-08
6.09751e-09
0.00108238
0.154968
0.064633
1.45028e-08
0.0689773
4.24299e-08
0.00381605
0.17016
0.11807
2.40012e-07
0.000485711
3.92415e-09
1.97726e-06
0.00027867
0.0156409
0.000301384
9.9564e-09
0.000633586
0.00299846
0.00494059
0.00755049
3.66716e-07
3.32541e-07
3.38505e-06
6.10392e-07
1.00202e-08
3.58796e-09
0.0753813
0.0371647
1.42226e-08
0.0845189
2.99869e-10
2.102e-08
0.0685541
4.87219e-09
4.80982e-09
0.040242
1.82419e-08
7.42343e-10
1.00867
2.08719e-09
1.29791e-09
0.00194122
0.0930043
1.42507e-07
0.0371314
8.4356e-09
0.0209594
0.0503846
6.27863e-06
0.000863033
5.91414e-10
7.28205e-08
1.04528e-06
1.76929e-07
0.319791
0.0456526
0.00025702
3.2651e-08
0.0462793
1.03785e-09
2.0554e-08
1.79531e-09
0.102955
0.00178476
0.000110517
1.25961e-09
1.29144e-06
0.0481449
0.000914588
3.64733e-07
0.000251986
0.109063
0.0862798
3.522e-05
0.0853738
0.000925342
0.0426797
4.20968e-05
0.0657903
0.000345175
0.0288353
1.48062e-06
0.00673508
0.000458617
0.000933594
6.96762e-10
0.0013015
7.0462e-08
0.00377837
0.0243084
1.0019e-06
0.00233828
0.000311303
1.7452e-07
0.0102172
9.14299e-08
2.70055e-08
2.74175e-08
4.53166e-08
5.0582e-06
4.48907e-08
4.8681e-08
7.45517e-08
0.268418
4.32607e-05
2.00403e-10
1.8053e-09
5.47327e-08
1.0044e-07
0.0299649
0.7671
0.00210207
0.000141023
9.42631e-09
0.00202067
0.00139644
0.0463569
3.20637e-05
1.29128e-05
5.66423e-07
1.1062e-06
2.45593e-06
0.000222994
0.000117056
0.17987
0.0671815
8.23648e-08
0.00106356
0.000300254
1.39837e-08
0.0241637
4.60528e-06
3.81034e-08
1.73101e-06
0.162499
0.062162
1.22956e-09
0.0251625
1.38071e-08
0.0488109
5.12751e-05
0.0355078
0.0532863
4.66145e-09
6.71097e-09
2.31614e-08
2.50514e-05
0.0056454
0.225162
0.0275089
0.0416341
0.00448772
0.000541958
9.60489e-10
0.000117108
0.138854
0.00127724
9.54662e-05
0.00296642
4.05202e-06
0.0991943
4.87292e-08
0.205404
0.0383617
1.26415e-08
0.000488282
0.0071777
4.05394e-08
0.00963144
1.36277e-08
1.85973e-07
0.198117
0.0295766
5.32769e-08
8.13786e-09
6.96031e-07
2.55459e-09
6.10492e-09
0.000126838
2.4545e-08
5.50943e-10
0.00309295
7.69263e-09
9.74779e-08
2.70015e-07
0.000229169
2.19644e-07
0.000169336
1.07164e-07
4.71834e-08
2.2626e-05
6.61549e-05
0.00358769
0.0432361
8.07674e-05
0.00504098
2.30003e-06
0.320377
0.315653
1.2658e-07
0.00345078
1.79268e-08
0.0458999
0.0380304
0.00040587
0.0904708
0.0685027
7.16328e-06
1.10488e-09
0.00246611
1.12928e-08
1.23245e-09
3.97612e-07
1.59424e-05
7.18377e-09
1.7389e-05
0.035531
5.12302e-09
2.40752e-08
0.337724
1.52307e-09
0.0172885
8.29721e-06
0.00133216
9.74336e-09
0.000443442
0.000145789
0.239809
0.00794363
0.023992
0.000182984
0.0403795
0.000271273
0.0754594
0.00015384
0.000226852
0.00984439
0.0581372
0.000324139
0.00127421
4.32305e-06
1.79925e-07
0.00111727
0.000224572
0.0157491
0.0121265
0.00014785
1.90825e-06
0.00548891
0.00522274
0.0185516
2.18108e-09
0.0123106
0.0166475
0.00277612
0.00149681
0.00132036
0.00326644
0.018968
0.0409017
0.00714571
0.0110786
0.0080168
9.07847e-05
0.00291603
0.00364019
0.00108601
0.00262215
0.0141796
0.0137917
0.0193383
0.000122036
0.011519
0.000423127
0.00511156
0.00286305
0.000350545
0.00234771
0.000204129
0.0758446
0.00399265
0.00123701
0.000142429
0.000729018
0.0158374
0.00246713
0.21678
0.0035523
6.91121e-10
0.231829
0.0461372
0.0216373
0.00716062
0.0202938
0.000407237
0.0086634
0.463469
0.00213947
0.00137633
0.00251542
0.175118
0.00119395
0.0743624
7.61679e-05
7.8051e-08
1.31001e-08
0.00223997
0.00620312
0.0118405
0.0709434
0.00676922
0.0608496
0.0549896
0.0721327
2.90096e-08
0.00701141
0.0026311
0.0248957
1.0586e-06
0.0063558
9.2134e-08
0.225611
0.0116471
0.00756423
0.221542
5.19974e-09
8.98364e-08
0.0022323
0.000111698
0.000767436
1.55928e-07
0.00656936
0.000976138
0.0781088
8.86109e-07
0.0223744
0.00309723
0.000351828
0.00012681
0.00238773
0.00130767
2.45356e-07
0.0018867
5.3116e-05
9.75553e-09
0.269351
0.00381235
0.00255396
0.0101793
0.00128832
0.0143818
6.08909e-05