/*--------------------------------*- C++ -*----------------------------------*\
  =========                 |
  \\      /  F ield         | OpenFOAM: The Open Source CFD Toolbox
   \\    /   O peration     | Website:  https://openfoam.org
    \\  /    A nd           | Version:  10
     \\/     M anipulation  |
\*---------------------------------------------------------------------------*/
FoamFile
{
    format      ascii;
    class       volScalarField;
    location    "26";
    object      T;
}
// * * * * * * * * * * * * * * * * * * * * * * * * * * * * * * * * * * * * * //

dimensions      [0 0 0 1 0 0 0];

internalField   nonuniform List<scalar> 
111485
(
303.15
285.066
300.942
303.15
298.373
283.15
298.877
293.339
296.242
286.198
300.476
296.133
300.16
284.539
299.937
286.7
299.301
297.039
293.971
303.15
303.15
283.15
297.188
288.634
301.571
303.15
293.106
300.6
288.8
303.15
300.767
294.275
303.15
283.15
283.439
283.15
302.302
297.543
283.149
296.562
283.15
289.533
296.986
302.867
303.193
303.15
287.294
288.494
289.568
303.15
303.15
283.15
303.15
298.864
303.15
293.435
287.832
283.15
283.316
295.391
295.793
303.15
302.034
300.179
283.15
284.534
300.04
291.444
302.084
302.507
303.157
301.861
303.15
302.085
303.15
295.322
283.15
293.347
283.15
283.15
283.234
293.287
283.15
303.15
300.262
284.198
283.15
301.523
303.112
299.048
283.322
289.504
300.816
300.36
289.733
303.15
303.15
301.523
303.149
283.413
303.15
286.576
283.15
285.139
285.693
283.15
283.15
293.01
301.4
283.147
298.835
287.999
301.246
301.651
303.15
301.944
303.15
283.15
300.098
303.15
303.15
283.15
283.15
283.15
283.389
303.151
283.15
301.776
303.15
283.175
303.099
301.908
303.15
283.15
283.15
292.442
283.15
294.139
298.76
301.075
303.135
296.78
298.943
284.742
302.262
297.733
283.15
303.15
283.15
297.086
284.901
303.15
303.144
287.253
283.156
293.652
295.58
302.51
283.154
303.15
303.15
292.109
286.187
283.153
283.157
301.145
283.679
283.15
283.152
283.153
283.15
303.15
283.206
283.15
291.465
287.112
283.15
303.15
303.15
283.15
303.15
303.15
297.599
293.417
295.711
289.689
301.329
300.373
283.19
303.15
301.409
303.15
303.15
300.108
286.225
301.364
301.306
295.655
303.15
300.83
284.566
283.159
300.712
297.012
303.15
300.367
288.131
303.15
283.223
300.124
284.778
300.647
303.15
303.15
300.661
283.15
292.706
283.15
300.567
298.612
290.264
303.15
301.709
300.514
283.15
283.15
283.15
289.453
283.156
283.15
303.15
298.564
291.288
289.844
283.15
303.15
303.108
303.15
284.307
300.034
299.188
299.447
299.318
283.15
283.144
298.811
283.15
283.15
288.707
288.299
283.15
301.128
298.825
303.15
283.15
301.051
303.15
303.15
303.121
303.15
288.197
285.817
290.703
303.15
298.28
303.15
303.15
303.15
283.148
297.981
300.939
299.37
291.143
299.422
296.186
283.21
290.244
291.489
283.15
303.15
283.149
292.37
298.717
286.405
303.15
297.955
297.223
298.828
302.953
283.167
297.036
299.304
302.013
283.15
283.604
283.15
283.149
303.15
283.845
290.21
286.245
303.15
283.15
297.541
285.219
303.15
303.15
303.15
284.555
290.168
301.016
284.386
292.949
283.15
283.15
303.15
298.306
303.15
283.804
289.381
283.153
283.15
303.15
303.15
283.15
294.288
289.892
283.15
295.632
283.15
303.15
300.974
297.235
293.923
295.74
283.15
283.15
283.15
296.539
290.928
302.372
283.15
283.15
283.15
290.002
296.889
283.21
290.402
283.15
292.719
299.497
284.177
298.554
285.21
283.15
303.15
283.15
303.15
290.597
296.647
287.892
291.871
283.15
286.292
283.15
303.15
293.743
303.15
301.697
303.15
283.15
291.856
283.15
288.704
284.597
283.15
283.964
297.953
283.15
300.11
284.653
298.788
303.017
290.977
285.952
283.15
303.15
303.144
283.15
300.951
300.767
283.15
283.15
294.671
284.331
298.127
296.863
283.15
294.975
295.999
283.15
302.042
283.874
303.15
303.15
288.18
298.529
283.15
303.15
303.15
303.15
300.706
283.15
303.15
293.901
283.17
286.87
299.898
283.15
283.15
302.605
283.15
302.442
301.388
297.76
288.383
283.15
293.83
303.377
303.15
298.57
292.205
303.15
283.15
283.302
283.15
289.93
286.049
291.566
283.15
292.792
296.51
292.984
303.147
283.15
303.15
303.15
283.168
292.651
283.15
284.296
303.131
283.15
303.15
303.15
303.15
301.845
290.442
285.938
284.172
284.283
283.15
285.647
303.15
300.668
283.15
303.15
303.15
300.607
303.15
303.15
283.151
303.15
283.15
300.612
283.15
283.15
283.15
303.15
283.15
303.15
283.15
283.657
283.15
303.128
301.855
283.738
283.15
303.084
283.15
303.15
284.671
284.641
286.058
297.439
283.15
297.412
297.524
292.205
286.756
285.223
303.15
291.678
283.15
299.803
283.15
296.718
283.15
291.993
298.466
303.151
283.15
286.737
303.15
295.44
299.024
283.15
283.15
283.15
283.15
303.15
293.607
283.15
283.15
283.236
283.15
299.756
283.15
284.752
303.15
283.424
303.119
284.616
291.821
283.15
301.408
283.15
283.15
285.635
283.15
283.254
283.15
299.616
303.15
290.572
303.15
283.15
302.378
284.433
300.027
285.601
300.024
289.406
283.15
300.572
284.507
283.15
283.141
300.25
301.552
283.15
282.485
301.011
303.058
283.124
303.15
287.515
302.152
284.371
285.331
288.123
282.6
283.15
303.15
300.532
303.15
283.543
283.15
283.15
291.69
282.694
303.149
303.114
283.15
286.203
299.552
283.15
283.15
299.573
303.15
283.15
283.15
283.15
286.09
283.15
303.15
284.778
284.203
303.15
299.677
283.15
289.179
303.15
283.15
286.082
283.15
283.15
283.15
285.33
283.15
285.391
291.885
303.15
300.307
283.436
298.63
300.92
283.296
283.449
283.15
288.873
298.386
303.15
302.244
295.955
296.819
284.684
297.384
297.145
303.15
300.173
303.133
283.15
297.077
284.797
283.15
292.295
295.644
284.813
298.711
300.59
292.257
283.15
298.86
283.457
303.15
300.55
301.95
294.02
283.15
286.433
303.15
283.15
283.15
283.15
283.299
283.15
303.15
303.15
283.15
300.391
299.181
303.15
285.557
303.15
303.15
303.15
289.962
283.415
283.15
303.15
283.15
283.15
286.768
292.304
283.15
295.056
283.138
283.15
295.223
302.194
287.709
283.15
283.15
300.214
292.016
283.15
283.15
283.15
293.892
303.15
303.15
283.15
296.169
302.346
283.15
282.354
301.665
286.49
283.15
283.15
287.415
302.957
283.15
283.159
287.104
283.745
288.715
283.15
285.652
300.207
283.15
303.15
283.15
283.15
283.15
283.15
295.591
303.15
283.15
283.15
295.203
291.734
303.15
303.15
289.726
298.334
298.234
303.15
283.15
297.902
303.15
283.819
298.776
298.283
303.15
303.15
303.15
283.15
285.997
283.15
283.15
302.699
303.15
297.733
302.243
283.15
293.979
283.272
296.354
291.903
283.416
289.671
283.15
283.15
296.797
287.985
290.757
283.15
283.15
297.488
294.867
283.15
283.885
284.551
283.463
303.15
303.15
303.15
290.659
283.15
299.993
283.15
284.339
297.514
298.428
292.191
283.15
283.15
303.15
295.3
283.15
283.15
303.096
283.15
283.15
303.15
283.15
299.246
283.15
283.15
283.15
283.15
283.15
303.15
283.15
283.171
298.704
303.15
302.52
283.132
283.389
283.097
285.474
283.15
284.417
290.46
283.389
303.15
283.149
299.67
283.15
300.191
283.141
283.144
286.148
297.41
283.205
291.818
297.977
283.15
283.15
298.989
299.732
283.15
297.258
291.188
297.544
283.15
283.243
283.15
297.848
296.973
283.15
300.017
297.624
283.149
299.717
283.15
295.544
283.145
303.128
283.161
283.16
283.15
283.15
284.406
283.15
302.962
283.573
283.064
303.147
303.149
303.148
283.15
283.15
293.74
303.15
303.217
283.847
283.15
283.15
303.154
303.149
283.15
303.165
283.15
283.15
303.15
303.15
303.15
303.15
283.36
283.15
283.15
283.15
303.157
283.299
283.869
293.393
283.15
283.15
283.328
283.15
283.15
283.15
287.183
293.513
283.15
283.15
283.15
283.15
283.15
283.15
283.985
283.15
303.15
291.472
283.15
303.15
303.15
303.154
303.15
303.15
283.15
303.171
283.15
283.678
283.145
303.152
283.15
303.061
284.357
292.005
303.15
303.129
284.419
303.15
283.15
303.15
283.15
293.967
293.371
284.592
303.148
283.15
293.162
283.15
283.15
303.15
283.15
294.779
283.15
303.15
283.163
298.078
303.15
284.353
283.15
283.561
283.15
283.15
283.15
303.15
285.796
283.464
284.077
283.15
283.15
285.593
283.15
283.15
303.15
284.315
303.165
298.484
303.15
303.126
303.127
283.15
303.129
283.15
283.439
289.037
301.03
283.777
283.165
283.15
283.15
283.15
303.184
283.15
302.892
303.15
292.53
303.15
288.666
283.81
303.15
283.15
303.15
283.15
301.755
303.15
303.15
286.361
300.506
283.15
283.15
283.15
283.15
283.15
283.15
300.759
283.566
303.15
303.15
303.157
303.15
300.139
284.391
283.15
302.088
303.15
301.588
283.15
302.559
283.15
283.148
303.152
283.309
302.088
300.172
283.147
283.15
289.298
303.15
293.303
303.15
283.15
303.15
283.15
283.15
283.15
300.754
302.03
303.15
303.15
303.15
302.898
283.15
303.15
292.81
283.087
303.15
297.459
298.302
296.433
283.37
283.15
283.15
283.15
283.15
294.568
283.15
294.707
283.15
303.055
289.778
283.15
302.851
283.15
283.15
302.723
283.148
302.909
283.15
303.15
283.15
302.372
283.15
303.15
283.15
283.148
283.15
283.17
283.15
283.15
303.15
292.936
301.064
296.012
296.943
303.15
303.115
283.15
283.15
285.641
283.15
283.158
302.835
298.75
302.933
303.15
283.357
283.15
303.15
283.15
302.987
283.312
298.297
283.15
303.15
288.007
303.15
283.15
283.127
294.976
283.147
283.15
283.15
283.149
303.15
283.15
303.141
303.15
303.15
289.872
302.98
302.988
288.944
293.181
283.15
283.15
303.079
289.015
283.15
303.15
284.713
283.15
303.15
283.15
283.15
283.15
297.252
283.15
302.932
283.15
300.417
283.15
283.15
283.15
283.15
283.15
283.15
284.988
283.15
283.15
283.15
283.15
283.15
283.15
291.933
283.15
298.368
302.925
283.15
302.333
283.15
302.502
303.145
292.248
288.729
303.15
292.112
284.75
303.107
303.15
303.14
295.032
288.606
283.15
287.829
283.15
283.15
283.15
283.15
287.457
283.15
283.15
291.594
303.135
285.275
283.15
283.15
302.521
283.15
283.181
303.15
299.863
283.15
283.15
302.818
283.15
303.178
303.15
283.15
288.992
297.993
292.653
285.618
292.457
294.031
283.15
283.15
302.264
290.527
292.714
284.379
283.15
294.357
283.15
303.15
300.683
298.728
283.15
297.384
283.15
292.701
297.157
303.15
283.15
283.15
301.743
283.15
283.15
300.452
296.088
283.196
291.161
283.15
283.15
302.785
300.471
283.15
300.601
283.15
300.456
283.15
283.15
300.759
283.15
283.225
301.57
283.15
283.15
302.418
283.15
287.847
303.15
290.261
303.15
303.15
303.15
300.902
283.15
283.15
299.485
283.15
302.981
283.15
283.15
303.15
283.151
288.139
283.15
283.15
288.003
288.183
283.15
283.666
283.15
303.15
302.406
283.704
301.529
283.15
283.15
283.15
283.15
283.15
283.15
283.15
283.15
283.15
283.15
283.15
303.15
283.15
283.15
283.15
283.15
283.15
283.15
283.15
283.15
303.15
286.888
283.15
283.15
283.15
294.634
283.15
303.15
302.872
283.15
283.15
294.636
283.15
283.15
301.752
295.114
283.15
303.683
303.604
283.15
301.438
293.887
297.476
301.442
298.1
303.15
283.15
296.384
291.7
301.385
283.15
302.119
302.403
300.833
287.981
287.265
301.022
301.751
301.755
303.15
285.826
297.496
285.485
297.197
283.15
283.15
283.15
303.15
283.15
291.92
297.88
283.15
283.15
283.15
283.15
283.15
303.15
283.15
303.15
292.075
303.105
298.976
302.836
283.15
283.15
285.362
283.168
283.15
283.15
301.724
303.15
283.15
298.119
299.477
297.485
298.584
300.761
303.15
290.981
302.566
303.15
303.15
300.267
303.15
283.15
282.998
295.49
302.941
283.15
303.15
289.516
286.116
297.131
292.119
302.351
303.15
303.135
303.15
303.15
283.15
298.97
283.15
291.73
290.382
299.642
284.729
303.15
301.896
303.15
283.15
303.15
303.15
291.421
299.407
283.15
303.15
303.132
291.71
303.025
299.309
292.739
288.264
292.848
283.15
303.15
283.15
291.167
298.248
303.151
303.15
303.15
303.15
297.436
302.56
283.15
299.934
301.093
284.833
299.474
303.15
303.15
298.634
292.9
283.15
302.894
299.654
302.602
291.9
297.261
298.185
303.15
286.931
298.162
291.259
283.15
288.995
303.15
288.333
301.016
303.15
288.644
301.237
300.06
293.115
283.151
283.16
283.237
301.565
300.873
303.15
288.762
301.44
303.15
283.15
303.15
303.208
298.694
290.508
296.715
303.26
283.149
297.351
303.15
303.15
292.722
303.15
300.272
283.298
301.279
291.476
303.15
283.646
293.144
303.15
283.073
298.628
303.15
300.655
286.204
303.15
303.15
283.974
303.15
283.15
283.15
285.873
299.186
291.104
303.15
285.178
297.403
283.15
298.801
298.836
288.906
303.1
283.15
301.506
299.631
298.801
300.034
288.605
290.685
302.481
303.15
301.514
288.657
303.15
298.812
283.15
283.15
303.15
283.15
303.15
297.399
283.15
300.485
283.628
303.15
283.785
283.15
289.775
303.15
303.144
303.15
294.056
302.996
303.116
299.806
290.347
289.377
290.525
298.339
303.15
299.328
292.109
298.881
303.15
283.857
283.439
299.189
287.108
283.502
303.15
283.15
303.15
285.284
303.15
303.346
284.657
303.394
302.953
303.15
303.15
283.15
300.503
300.654
285.449
303.083
286.951
295.613
301.861
292.445
288.088
302.064
296.048
283.15
283.15
303.15
285.769
289.631
283.15
283.15
303.15
301.967
288.632
303.15
296.35
303.15
283.155
285.147
301.155
303.15
303.15
292.216
303.15
283.297
290.549
283.15
297.11
294.565
296.082
303.15
302.695
283.15
302.657
293.342
303.15
303.15
288.734
283.15
303.15
301.77
284.416
303.15
303.15
283.15
302.324
303.478
289.43
299.64
298.087
303.15
303.159
302.579
303.15
283.15
303.15
303.15
303.15
303.15
303.15
303.15
303.15
283.15
303.15
303.15
283.336
303.15
303.353
303.15
303.164
303.15
303.15
300.878
303.674
303.15
291.884
303.15
303.15
283.15
302.544
303.15
302.126
303.113
283.288
283.15
303.15
302.559
283.149
303.15
303.15
291.309
283.15
292.534
283.15
283.15
283.153
291.156
284.803
303.15
296.584
283.15
303.787
303.133
284.291
302.58
283.15
292.109
303.083
301.634
283.15
303.15
283.15
304.147
284.789
296.845
303.15
303.15
303.15
303.15
303.15
303.15
302.335
302.804
297.546
291.939
303.15
287.096
292.586
284.943
303.209
283.15
286.859
302.747
284.727
283.148
287.421
303.15
283.379
302.917
292.473
302.842
301.847
303.15
302.239
303.15
303.15
297.908
303.15
284.457
303.15
303.15
283.15
303.15
303.15
302.841
303.15
283.294
283.15
283.15
285.784
284.849
300.905
286.056
303.15
294.517
303.15
290.365
303.15
287.103
300.637
301.449
293.239
303.15
303.15
303.15
289.75
283.15
303.15
289.503
283.15
283.15
301.792
303.15
286.133
283.148
283.15
303.15
303.15
300.62
298.138
303.15
293.359
303.032
283.15
298.569
303.15
286.366
288.17
302.12
303.15
296.258
296.727
302.946
301.859
301.624
303.15
303.15
303.147
303.15
283.15
303.15
289.504
300.175
294.253
302.104
283.15
300.331
291.337
298.196
283.59
298.257
289.541
302.142
283.15
283.15
283.15
302.189
283.15
290.396
283.15
301.22
303.162
289.659
298.013
283.15
303.15
301.208
301.184
303.15
283.15
303.15
286.381
301.411
302.973
302.323
297.956
288.382
303.15
303.15
303.15
294.174
285.931
289.725
295.807
283.94
302.952
303.15
303.15
283.15
283.15
285.386
299.571
303.15
303.15
283.15
303.15
303.15
303.15
300.206
303.15
285.305
292.11
283.15
283.246
293.288
285.651
303.15
303.15
301.861
303.15
299.165
283.147
297.495
303.15
303.15
283.15
303.15
303.15
303.15
305.095
303.15
301.813
301.105
303.15
303.15
301.584
303.15
283.15
287.187
303.098
303.15
303.15
303.15
297.882
303.15
303.15
302.383
302.474
301.75
303.15
283.15
303.15
302.022
302.499
301.495
302.521
283.15
300.624
287.426
297.385
283.15
303.15
303.15
303.15
303.15
294.275
287.516
299.653
303.15
303.15
303.15
303.15
283.15
303.148
284.746
285.112
283.15
303.15
303.15
283.148
299.512
294.758
283.15
303.15
303.15
303.15
303.15
289.549
289.593
303.15
303.15
302.397
303.15
301.448
283.934
291.762
303.15
283.15
301.167
303.121
303.15
302.937
301.28
286.783
303.15
303.15
303.15
303.15
293.219
284.13
303.15
302.672
298.004
289.187
303.15
303.15
303.15
303.15
299.525
303.151
303.15
303.15
298.214
302.594
288.288
303.15
303.15
297.694
303.15
303.15
303.15
303.15
288.74
303.15
283.15
283.15
295.877
291.005
303.15
303.15
303.15
296.973
303.146
303.15
303.15
303.15
303.15
303.383
300.827
303.15
287.275
302.635
299.343
303.15
303.15
303.15
303.15
283.15
285.633
303.15
302.843
283.15
302.159
303.15
303.133
303.15
283.15
301.943
285.528
283.15
302.825
303.15
302.402
283.15
303.15
303.15
303.151
303.15
283.27
303.15
290.766
283.15
283.15
303.15
303.15
298.797
302.353
283.15
302.385
283.15
284.098
287.896
302.687
283.15
303.155
302.98
303.133
284.379
283.156
302.979
283.15
283.15
283.156
302.052
302.273
303.15
283.15
283.15
295.107
303.15
283.15
303.15
303.15
303.15
303.107
303.043
302.92
302.426
303.15
302.896
303.15
284.78
303.15
303.15
283.15
303.15
303.11
303.15
283.15
303.15
288.256
303.15
303.15
303.168
283.15
302.767
301.909
296.601
303.15
289.101
294.104
283.756
289.8
283.15
283.15
287.154
284.295
283.15
303.857
283.15
286.359
303.15
283.15
303.155
303.15
303.15
303.011
303.155
303.15
283.15
303.138
303.15
283.15
283.107
298.661
302.688
303.15
301.808
303.15
285.663
303.152
301.134
303.15
303.15
300.994
303.15
303.15
303.15
287.633
303.15
285.104
303.15
303.147
303.15
283.15
283.15
303.15
303.15
303.15
288.632
302.53
303.15
303.15
288.528
286.455
291.076
303.15
302.686
287.615
287.485
303.15
303.15
287.551
283.15
291.832
303.15
303.153
303.149
303.15
300.483
283.15
302.312
283.15
303.15
303.15
303.15
303.15
303.15
284.302
302.223
290.973
303.15
303.15
290.502
303.15
303.15
303.15
303.15
303.15
300.102
303.15
303.15
283.15
299.405
303.15
283.15
303.15
301.33
283.15
299.906
290.732
302.671
299.97
299.388
303.15
303.15
303.15
300.805
288.418
283.15
303.15
300.267
303.15
303.15
291.91
303.15
287.414
303.15
297.772
284.285
303.15
283.15
303.15
303.15
303.15
285.201
303.15
300.442
303.15
303.15
299.648
283.15
284.711
303.15
303.15
288.025
301.538
296.357
303.15
303.15
303.15
301.554
292.178
303.15
283.15
303.15
300.628
303.15
284.733
296.237
303.15
303.15
301.098
303.15
303.15
283.15
303.15
283.15
294.476
303.15
283.15
303.15
303.15
303.15
303.15
303.15
303.15
283.15
301.505
283.15
302.048
303.15
303.15
296.041
300.425
303.15
283.15
303.15
300.836
283.15
303.15
303.15
303.15
300.685
303.15
297.592
303.15
285.804
283.15
286.679
303.15
303.15
298.475
283.15
303.15
287.794
283.244
303.15
303.15
285.047
283.827
300.8
301.698
301.144
293.105
301.704
283.824
303.15
297.625
283.15
283.15
303.15
303.15
303.15
301.174
303.15
303.15
303.15
303.129
283.168
283.15
283.552
303.15
301.978
283.15
303.142
296.015
283.15
294.454
303.15
303.15
283.15
299.83
283.905
303.15
283.15
299.859
303.15
297.64
303.15
295.197
303.15
283.15
303.15
283.15
299.366
283.15
283.222
283.15
286.144
303.15
303.15
283.15
283.15
303.15
303.15
303.15
303.15
284.835
284.688
283.15
303.15
283.231
283.15
283.15
303.154
289.807
283.535
283.15
301.461
284.845
300.432
288.119
303.15
303.15
303.15
303.15
283.15
283.15
283.15
303.15
283.15
283.15
303.15
283.15
297.189
283.15
303.15
283.15
303.15
303.15
283.275
283.15
303.15
301.914
303.149
303.15
303.15
303.15
288.656
283.15
303.15
303.149
283.15
303.15
303.15
303.15
295.273
283.15
283.177
303.15
303.15
303.15
303.15
303.15
303.149
303.147
284.085
303.15
283.15
303.15
303.149
303.15
303.148
303.149
283.15
283.15
283.15
303.149
303.15
283.15
303.149
283.15
287.656
283.15
301.755
283.15
303.154
303.15
284.571
283.15
284.417
297.318
303.15
284.654
303.174
303.15
297.327
283.15
303.15
303.15
303.15
303.15
283.15
303.15
303.15
299.078
283.15
303.15
303.15
303.15
303.15
292.27
290.08
303.171
283.164
303.15
301.789
302.304
303.15
283.15
283.15
303.15
303.15
303.15
283.15
283.15
283.803
303.15
303.15
303.2
303.151
283.15
288.798
303.15
283.15
303.15
287.979
303.15
283.15
302.078
283.15
283.15
283.15
303.15
299.585
303.15
303.15
303.15
283.15
284.469
293.505
295.132
289.486
303.117
303.012
283.15
283.15
301.017
283.679
283.15
303.149
303.15
303.15
283.15
294.462
303.15
283.15
302.971
303.15
303.15
283.774
303.15
303.15
288.33
289.47
303.15
283.15
303.15
283.15
303.15
303.15
303.15
303.15
283.929
303.15
303.15
303.15
302.918
303.15
303.15
283.15
283.15
283.15
283.15
302.931
283.15
283.15
300.91
303.15
284.73
284.887
303.15
301.076
303.15
283.15
303.15
283.15
283.15
303.15
303.15
303.15
302.651
303.15
303.15
303.15
283.15
303.15
283.15
286.328
303.15
303.15
291.518
303.15
283.15
283.15
302.398
303.15
303.147
283.15
303.183
286.599
283.15
283.15
299.132
283.15
283.15
303.048
303.162
293.262
303.167
303.151
303.153
283.15
283.15
302.628
283.439
285.751
300.829
283.156
283.15
290.973
301.543
301.444
283.15
300.19
290.633
300.108
302.189
302.71
284.648
295.417
299.168
286.208
293.256
300.079
303.15
297.965
297.51
302.772
283.656
292.274
301.127
287.275
303.15
300.961
303.15
300.676
301.457
283.628
284.953
303.15
283.15
302.28
301.646
283.146
303.173
288.489
302.668
301.781
300.774
303.15
303.235
301.071
294.899
300.408
288.798
302.9
301.64
302.188
302.254
284.195
302.485
301.551
283.178
303.15
302.886
303.15
303.15
302.062
301.97
294.217
303.15
284.645
292.202
292.266
300.747
303.15
283.978
285.151
284.378
303.15
298.735
303.15
296.379
295.262
300.668
303.141
303.15
303.15
301.904
301.213
302.771
303.15
292.54
302.736
289.904
283.15
298.338
293.918
303.15
300.496
283.15
283.202
283.15
302.542
303.092
303.15
302.979
298.314
283.148
300.486
302.204
295.278
283.525
295.74
296.978
283.447
303.132
284.719
296.315
283.315
296.742
300.441
300.19
300.309
301.955
289.572
301.534
303.15
302.712
302.642
302.652
296.519
302.888
283.15
301.988
293.389
303.15
283.422
286.794
301.174
302.576
290.451
284.789
287.619
302.602
296.303
303.15
303.15
294.919
283.15
292.574
283.419
303.15
290.498
290.221
283.894
303.15
297.211
298.505
284.211
301.195
294.135
290.109
300.489
303.111
303.15
303.15
283.517
302.596
283.339
285.757
303.15
303.017
303.033
303.15
285.371
300.837
297.793
283.241
299.469
302.341
300.451
286.857
283.15
303.103
301.774
283.725
283.134
303.15
303.07
303.15
303.15
284.163
302.518
296.391
283.034
283.153
303.15
283.15
302.947
303.04
302.486
301.376
303.15
283.15
283.15
301.794
301.85
283.209
295.89
303.15
303.15
301.584
285.466
283.256
301.648
301.754
301.69
284.371
303.15
283.15
298.467
297.693
303.15
302.685
302.049
284.607
284.94
302.083
303.056
303.15
298.11
284.395
283.15
303.15
300.557
301.177
301.983
289.548
302.043
285.627
300.111
300.29
290.281
297.482
303.15
303.15
300.892
284.438
302.06
283.151
300.433
301.667
283.618
288.239
302.397
283.15
283.15
283.029
303.15
303.15
299.91
298.88
302.255
283.148
283.15
283.912
283.151
283.15
283.151
303.075
300.876
299.092
295.807
283.361
303.09
300.079
303.15
283.15
302.534
289.178
300.766
292.651
283.501
303.056
283.148
283.15
302.823
301.17
302.592
283.155
291.135
284.858
303.15
284.235
300.995
283.15
283.303
284.919
284.064
283.15
283.15
301.608
283.15
289.312
302.51
302.686
301.762
283.467
298.058
289.907
283.15
303.351
291.998
283.15
283.15
283.15
303.15
301.191
302.393
299.109
301.426
299.893
288.803
283.154
290.923
290.101
303.057
290.977
299.965
292.014
283.15
286.271
301.035
301.54
283.15
283.972
299.627
283.15
303.15
283.186
301.235
303.15
283.991
302.251
303.015
303.15
283.15
292.724
303.153
301.662
283.15
283.15
283.15
302.161
297.485
303.144
302.168
303.167
303.15
288.322
303.167
290.384
300.173
300.131
296.529
283.156
301.662
283.15
290.519
301.376
289.386
290.428
298.911
300.662
301.559
287.121
291.087
284.966
283.171
302.189
286.084
283.15
283.144
300.149
283.081
300.247
286.944
296.038
299.378
289.122
299.224
283.122
299.15
283.15
289.93
288.808
298.589
283.325
283.15
300.504
283.15
302.783
283.15
303.15
286.424
286.43
283.15
298.933
298.561
286.969
303.15
303.15
301.676
289.731
302.979
283.718
301.539
287.03
303.147
284.167
288.111
303.15
301.384
283.15
283.15
287.505
286.975
283.145
285.219
301.46
286.179
301.222
303.15
285.082
301.713
291.14
303.15
303.15
301.577
302.017
303.15
292.945
294.235
283.655
296.337
286.736
289.94
303.15
302.736
296.977
284.956
283.15
287.665
291.824
299.566
283.161
283.739
282.959
301.92
303.113
283.151
303.132
303.15
300.541
292.954
298.776
293.764
283.15
291.887
295.858
285.535
283.211
291.266
283.15
300.285
303.165
292.447
284.083
303.143
291.79
298.545
288.186
300.337
291.28
287.264
283.15
303.141
285.301
289.829
293.379
283.15
283.15
283.15
303.14
283.15
283.137
286.368
303.15
283.15
303.168
283.172
291.071
288.663
303.567
302.904
289.79
303.15
296.922
303.178
301.984
287.217
283.15
292.852
303.144
303.091
286.142
283.15
283.15
283.462
285.957
303.049
303.143
287.468
289.419
283.471
283.162
289.785
293.158
303.15
283.15
303.094
303.15
302.314
284.974
302.324
303.091
284.041
283.762
284.027
302.855
302.147
297.364
293.983
303.066
291.179
290.97
303.15
303.095
302.569
285.39
283.373
303.15
285.898
283.381
302.926
301.686
302.149
283.15
300.296
301.827
303.15
302.124
285.362
303.15
297.831
303.15
283.15
300.665
302.664
286.265
302.474
283.15
285.137
303.001
283.15
302.279
285.323
294.797
284.307
303.15
303.015
302.878
286.451
283.15
287.07
284.231
289.704
285.691
302.229
303.15
283.15
283.15
293.082
283.15
301.023
302.135
290.297
283.15
293.987
283.15
303.15
283.15
300.076
298.509
283.151
285.232
301.721
303.063
303.154
291.778
294.126
301.157
283.197
301.794
283.145
303.15
303.144
298.833
283.15
300.593
294.704
303.15
300.913
287.243
301.949
284.865
288.139
283.15
302.195
287.653
298.375
303.078
283.15
303.15
291.598
302.134
283.079
283.147
286.705
298.252
303.149
284.418
300.98
300.951
301.208
303.153
299.836
287.564
284.877
301.548
299.829
283.704
283.107
303.16
303.149
303.15
297.289
283.163
283.15
303.15
303.149
289.833
298.874
300.247
287.704
302.786
303.15
286.379
301.564
303.15
300.922
283.783
301.418
303.15
284.522
301.365
295.489
302.757
303.15
303.15
285.128
295.003
296.304
287.317
303.15
303.15
283.15
287.139
302.374
296.09
303.15
285.515
303.15
303.15
300.437
288.646
283.15
295.465
295.798
299.05
283.15
303.15
292.595
287.148
303.15
297.88
300.462
300.364
303.15
303.15
303.15
300.17
298.264
302.778
299.832
283.15
292.818
287.587
290.52
300.511
303.15
303.15
300.711
303.091
286.48
296.007
303.15
303.147
283.15
286.38
298.842
285.524
303.15
303.15
283.334
303.121
303.15
303.15
283.15
290.445
303.15
303.15
284.552
299.247
283.15
303.15
284.578
301.277
300.1
286.921
294.914
303.15
283.489
303.15
303.15
283.309
300.481
290.334
300.332
303.15
303.129
302.137
292.515
299.697
301.286
284.413
283.447
300.845
298.315
303.15
302.74
284.113
299.672
301.336
287.599
303.15
297.345
301.366
301.453
301.494
292.822
303.15
283.15
299.096
283.15
283.15
287.674
283.15
283.984
283.15
283.15
283.15
283.15
302.736
288.074
302.683
283.15
295.597
290.86
284.698
283.15
303.15
302.658
301.694
303.16
302.613
283.15
294.726
300.197
290.082
283.15
283.15
299.726
285.877
283.15
283.15
303.149
290.483
283.15
287.062
303.149
303.152
284.278
283.15
288.129
291.958
300.761
294.553
302.945
285.557
302.482
295.141
286.197
283.15
283.53
291.492
303.066
288.979
302.634
283.15
292.297
287.673
300.982
301.273
284.865
303.098
284.867
296.929
302.983
303.145
285.082
303.145
302.998
293.177
302.677
283.15
303.15
303.15
294.638
290.908
283.155
301.012
284.637
284.119
284.579
303.145
288.258
300.396
283.15
283.15
302.473
303.15
294.42
302.883
303.183
299.704
303.225
302.869
283.15
301.243
302.865
283.15
303.15
301.274
303.15
284.286
298.64
283.163
291.417
283.15
287.499
303.005
299.686
283.15
303.017
290.817
301.173
303.123
303.076
283.15
283.15
301.926
301.964
283.782
302.802
302.387
302.355
303.141
283.15
293.613
283.15
302.778
287.786
302.979
303.15
283.15
302.803
285.082
291.399
302.014
283.15
302.557
301.955
301.514
302.456
303.04
303.213
303.003
303.15
283.15
301.471
297.744
303.086
303.15
289.828
284.8
303.15
283.15
285.263
303.184
303.166
302.906
301.068
284.235
303.094
290.65
294.145
303.148
288.941
303.165
283.15
289.774
283.15
299.878
298.024
284.744
288.078
299.51
296.626
295.181
299.072
293.623
303.154
293.799
296.247
283.161
299.278
293.773
303.15
298.841
299.035
303.15
291.083
303.171
301.614
303.15
286.841
285.967
302.779
289.581
283.15
283.15
300.258
301.146
283.704
283.15
303.15
300.148
302.286
300.564
299.793
302.768
292.474
289.554
286.563
292.398
284.264
290.29
283.301
295.654
290.335
293.817
287.024
284.249
303.164
283.27
303.148
285.525
300.633
283.15
300.392
298.358
288.642
302.078
285.348
298.966
283.15
302.942
283.154
283.119
287.488
299.541
303.15
300.306
303.014
299.847
302.743
303.15
301.194
284.906
294.819
302.004
303.149
283.686
283.15
290.208
285.193
285.689
303.122
303.148
283.15
283.15
283.175
303.15
293.344
303.15
303.146
293.794
303.44
303.15
300.385
303.15
303.15
293.544
290.489
303.15
289.739
302.019
289.469
303.15
303.15
285.824
283.33
290.221
303.228
303.15
303.145
285.407
283.239
283.15
288.871
287.481
303.15
284.271
303.15
303.15
303.131
287.259
303.15
303.147
283.268
303.152
302.634
287.838
283.153
283.576
297.327
290.619
303.15
285.877
284.396
301.269
287.032
302.155
290.484
293.729
303.15
303.15
283.978
303.146
302.937
295.845
302.937
302.721
287.093
283.15
285.267
283.215
297.034
302.575
285.318
303.15
283.767
286.644
303.123
283.175
303.15
286.328
283.15
300.099
303.15
299.622
299.736
283.295
283.352
302.296
290.73
301.346
303.15
301.335
301.695
303.15
303.15
298.232
293.302
283.15
288.687
303.15
295.186
283.347
303.15
296.787
298.648
288.902
303.15
302.735
294.113
295.281
284.422
303.161
298.596
296.005
283.956
303.121
302.786
287.283
298.334
289.723
290.695
289.647
283.15
302.934
303.151
303.15
303.177
292.978
296.195
302.97
301.223
303.15
284.41
303.15
303.035
302.842
303.15
293.425
296.153
303.15
285.316
303.093
303.15
303.085
303.158
285.994
293.227
290.99
288.314
293.322
303.15
301.154
291.327
295.21
293.32
303.14
303.15
300.475
303.191
284.209
303.192
303.15
303.15
303.143
303.15
284.88
303.15
284.178
303.146
303.15
290.08
303.144
292.368
295.39
303.133
295.226
285.925
283.432
303.123
302.932
284.644
283.15
297.006
303.15
285.441
302.894
302.002
303.016
298.414
286.958
303.15
298.606
289.806
299.213
283.15
283.605
303.15
303.145
303.191
293.981
303.15
292.306
289.222
303.196
303.15
284.727
298.667
293.118
299.499
302.445
301.576
300.307
303.15
284.671
296.94
302.345
285.543
298.319
292.154
284.42
291.537
303.15
286.519
291.713
290.029
299.343
303.15
286.372
284.059
303.15
302.402
288.051
302.078
283.15
303.15
299.749
301.642
288.9
301.94
301.913
301.766
303.15
289.225
285.067
301.916
302.199
297.024
303.15
283.199
303.15
301.941
303.15
302.783
303.15
291.571
303.15
296.405
283.15
289.384
303.15
283.15
292.111
301.396
300.342
289.095
300.426
303.15
302.464
303.15
302.348
285.165
303.15
300.329
290.283
303.15
300.738
303.15
303.15
293.101
283.15
285.475
293.113
300.854
303.15
291.064
293.723
288.08
289.563
288.022
299.156