/*--------------------------------*- C++ -*----------------------------------*\
  =========                 |
  \\      /  F ield         | OpenFOAM: The Open Source CFD Toolbox
   \\    /   O peration     | Website:  https://openfoam.org
    \\  /    A nd           | Version:  10
     \\/     M anipulation  |
\*---------------------------------------------------------------------------*/
FoamFile
{
    format      ascii;
    class       volVectorField;
    location    "26";
    object      U;
}
// * * * * * * * * * * * * * * * * * * * * * * * * * * * * * * * * * * * * * //

dimensions      [0 1 -1 0 0 0 0];

internalField   nonuniform List<vector> 
111485
(
(1.45888 -1.45871 0.000450627)
(4.28506 -0.00987225 -0.0257671)
(4.21766 0.0110922 0.0126174)
(1.45832 -1.45858 0.000130836)
(4.38156 0.0206228 0.000145136)
(1.54346 1.54231 -0.000164181)
(4.30417 0.0129747 0.00108702)
(4.43479 -0.0133476 0.00533038)
(4.30154 -0.00200731 0.0035402)
(4.41671 -0.048055 -0.0197943)
(4.24155 0.0101866 0.012667)
(4.4378 -0.0120027 0.0205604)
(4.17824 0.00398168 0.00938062)
(4.2402 -0.00905231 -0.0296285)
(4.28021 0.0172778 0.00843765)
(4.38469 -0.0300518 -0.0230665)
(4.32125 -0.00512621 0.00712754)
(1.51252 -0.0951298 0.216254)
(4.38845 0.013431 -0.00969545)
(1.45516 -1.45352 5.73455e-05)
(1.45683 -1.45644 -0.00137541)
(1.54487 1.54462 -0.00021645)
(4.3418 0.0164211 -0.0040907)
(4.42391 -0.0291889 -0.0100339)
(4.3408 0.0129408 -0.00329624)
(1.46878 -1.46329 -0.00220819)
(4.45568 -0.0217572 0.0214992)
(4.22369 -0.00811537 0.00175508)
(4.40463 0.00643233 -0.0111547)
(1.45668 -1.45662 -7.07683e-05)
(4.4487 0.0685297 -0.0175895)
(4.39882 -0.00995057 0.00129872)
(1.45177 -1.45436 0.0020223)
(1.54426 1.5477 -0.00355248)
(1.54667 0.656172 0.244464)
(1.55407 1.56472 -0.0226348)
(4.42589 0.0686719 -0.027143)
(4.28931 0.00983977 0.0393812)
(4.40502 1.33519 0.0741657)
(4.39598 0.0208973 0.00104205)
(1.52683 1.54085 -0.010844)
(4.43574 0.00689705 -0.0273134)
(4.39578 0.0215871 0.00733196)
(4.22495 -0.0256273 0.00187427)
(4.42121 -0.0751007 -0.0387281)
(1.45947 -1.44759 0.00534426)
(4.43144 -0.0186769 0.0179802)
(4.41713 -0.027833 -0.00910761)
(4.43787 0.000626358 -0.0224784)
(1.44852 -1.42964 0.00795313)
(1.44527 -1.43186 0.0083461)
(1.75358 1.47659 0.0265942)
(1.44028 -1.43541 0.00481189)
(4.42766 0.0202973 -0.035858)
(1.43699 -1.43173 0.000809405)
(4.37684 0.0115892 -0.00484568)
(4.38309 -0.0192873 -0.010526)
(1.54622 1.54316 0.000970284)
(3.99932 -0.00788394 -0.0700431)
(4.40192 0.0181406 -0.00263592)
(4.40012 0.0200955 -0.000960105)
(1.45392 -1.45706 0.00214841)
(4.09828 0.0041639 0.0266578)
(4.45094 -0.0115985 0.0339458)
(1.59837 1.45005 0.00371226)
(4.01394 0.00916511 -0.00867782)
(3.08886 -0.237879 0.103883)
(4.41367 -0.0158575 0.0060074)
(3.98654 0.00169618 0.0151773)
(3.77318 -0.0058383 0.00313546)
(4.25323 0.0354579 -0.0132445)
(3.94567 -0.0106917 0.0214145)
(1.57905 -1.42248 -0.0316357)
(4.05205 0.00655663 0.0314154)
(1.45825 -1.45745 -0.00013981)
(4.39765 -0.0102168 0.00828852)
(1.5446 1.54504 5.74424e-05)
(4.42727 -0.00895267 0.0229779)
(1.54449 1.54338 2.71739e-05)
(1.40004 1.36877 -0.04478)
(4.27694 -0.0645597 0.043423)
(4.42649 0.015276 0.00160433)
(1.54216 1.53963 -0.000102338)
(1.45825 -1.45796 0.000758863)
(4.15273 -0.000303403 0.00911772)
(3.981 0.0110778 -0.017728)
(3.42645 2.22715 -0.594846)
(4.37292 0.0530163 0.00429388)
(4.2136 0.106333 0.0907733)
(4.27597 0.00637935 0.014426)
(4.51143 0.0886186 -0.0560427)
(4.37965 -0.00748109 0.00690327)
(4.10227 -0.00683747 0.0140956)
(4.18461 -0.00462533 0.00520957)
(4.43818 0.0143364 -0.0248514)
(1.45843 -1.45795 -0.000262845)
(1.45792 -1.45763 0.000694209)
(4.37037 0.0492096 0.0153848)
(4.49813 -0.879726 0.0620979)
(4.09287 0.0140769 0.0266944)
(1.45847 -1.45819 0.000466561)
(4.39071 -0.0231426 0.00192347)
(1.55269 1.55546 0.00859532)
(4.35821 0.000510158 -0.00239039)
(4.33359 -0.023706 -0.0286484)
(1.51575 1.35831 -0.0312915)
(1.5449 1.54458 -0.000223482)
(4.40589 -0.0134555 -0.00137987)
(4.05706 -0.0221618 0.0048638)
(3.89048 -0.115052 -0.120534)
(4.14852 -0.00392414 0.00904528)
(4.37097 0.00610477 -0.00268282)
(4.07065 -0.00206791 0.0154997)
(4.00632 -0.0199118 0.00921218)
(1.47178 -1.46427 0.000492014)
(3.86498 -0.00509071 0.0118473)
(1.4637 -1.45878 -0.00220508)
(1.55295 1.54649 0.0062822)
(4.2969 0.0179318 0.0137049)
(1.45793 -1.45698 0.000535301)
(1.46987 -1.46371 -0.00163476)
(2.02906 1.59949 0.0959395)
(1.53581 1.5406 -0.00304006)
(1.54941 1.54564 -0.00356204)
(4.19998 -0.00980071 0.0193524)
(1.16391 -0.818788 -0.22087)
(1.93623 1.66719 0.0582804)
(3.90329 -0.0010848 0.0187202)
(1.45804 -1.45739 -0.000453808)
(4.41437 0.332456 -0.118835)
(4.40888 0.0805744 -0.0423877)
(4.36246 0.050129 0.0162363)
(1.45432 -1.45078 -0.00698348)
(1.9876 1.73176 0.173559)
(1.8579 1.65897 0.0777273)
(4.40401 0.0138949 -0.00670823)
(1.54538 1.54562 -0.00039949)
(4.37954 0.0106461 0.000788265)
(4.34652 0.0165318 0.0073799)
(4.28133 0.018444 0.0155842)
(3.36226 0.000413167 0.0146597)
(4.392 0.0229788 0.00436453)
(4.35342 0.027515 0.0162192)
(4.13658 0.00367103 -0.0178815)
(4.32312 -0.00878764 0.00419601)
(4.27851 -0.00070653 0.0081729)
(1.54565 1.54586 -0.000355799)
(1.45802 -1.45812 0.000109632)
(1.54253 1.54325 0.00286424)
(4.37951 0.0174354 0.00212561)
(4.13825 0.0070262 -0.0163949)
(1.45681 -1.45577 0.000530671)
(2.87614 -0.0165666 0.0282061)
(4.27317 0.0204172 0.0100229)
(4.6822 0.188204 0.0837678)
(4.40316 0.0124211 -0.00895173)
(4.37987 0.0135037 -0.00335926)
(4.06698 0.000333548 -0.00542257)
(4.72493 0.230542 0.0583544)
(1.45058 -1.46413 0.00580374)
(1.45628 -1.45764 0.00123413)
(4.39228 0.0122286 -0.00903009)
(4.30492 -0.0148275 -0.0154503)
(4.75539 0.259741 0.0634599)
(4.68957 0.227951 0.0871457)
(4.09483 0.00763935 0.0214083)
(4.38626 0.0534254 -0.0195926)
(1.52707 1.53974 0.000348255)
(4.81255 0.322194 0.0780289)
(4.58792 0.230766 0.0719925)
(1.54438 1.54516 0.000367211)
(1.45659 -1.45632 -0.00020532)
(3.51787 0.00398296 -0.0257375)
(1.54519 1.54598 0.000100883)
(4.36047 -0.00958587 -0.00162335)
(4.191 0.00285384 -0.00992587)
(1.54538 1.50983 -0.0071119)
(1.57481 -1.44436 0.0132399)
(1.4616 -1.45386 -0.00242507)
(1.52162 1.43794 -0.0141533)
(1.58541 -1.45904 0.0248883)
(1.45635 -1.45735 0.00093876)
(4.37272 0.017206 0.00441091)
(4.37045 0.0109344 -0.00831116)
(4.35531 0.0143319 -0.00390379)
(4.32104 -0.0103357 0.0156886)
(4.15036 -0.00925204 0.00318049)
(4.16717 0.00874892 0.0138768)
(3.69504 0.0466071 0.00516874)
(1.45741 -1.4522 -0.000147787)
(4.04758 0.00100694 0.00411409)
(1.57111 -1.45837 0.014586)
(1.47023 -1.4727 -0.000840323)
(4.20684 0.00961946 0.0144562)
(4.41854 -0.054167 -0.0196275)
(4.36825 0.00871567 -0.0202241)
(4.19768 -0.00424892 0.00659485)
(4.26334 -0.00217143 0.00516422)
(1.45556 -1.45288 0.00321704)
(4.18659 -0.0197292 0.00377141)
(4.18138 -0.00542304 -0.0259831)
(2.92863 0.939972 0.12027)
(4.28374 -0.0331195 0.00257183)
(4.344 -0.00747773 0.00405453)
(1.46336 -1.45528 -0.00217734)
(4.18954 0.012135 0.0148423)
(4.38526 0.0095266 -0.00328076)
(1.59753 -1.44253 0.00583768)
(4.21339 0.0100355 0.0153418)
(4.41965 -0.00536651 0.0236346)
(4.13656 0.00385809 -0.0187582)
(4.17891 0.0106304 0.0189559)
(1.58292 -1.46334 0.0196791)
(1.45705 -1.45753 -0.000209376)
(4.17974 0.0105906 0.0188483)
(2.74024 1.72303 -0.168983)
(4.46972 0.0193369 -0.0427083)
(1.5447 1.54553 -0.000886372)
(4.20409 0.00783663 0.0159879)
(4.19553 0.00666208 0.00475837)
(4.44364 -0.0141284 0.027447)
(1.45963 -1.45891 0.000595701)
(3.92103 -0.000200319 0.0110525)
(4.39973 0.0613604 0.0303439)
(2.42262 1.63141 -0.176856)
(1.54541 1.54548 -0.00119153)
(1.54432 1.54509 0.0003406)
(4.49922 -0.0292284 0.0408614)
(4.19996 0.0996509 -0.00990176)
(1.62605 1.37507 -0.0306703)
(1.81294 -1.40266 0.0555288)
(4.21055 0.00331179 0.00562465)
(4.33952 0.00832221 0.000636335)
(4.40836 0.0108356 0.00250661)
(1.60394 1.39972 -0.040425)
(1.54133 -1.42494 -0.00553555)
(4.2335 0.0482708 -0.0560504)
(1.45806 -1.45765 0.000876381)
(4.00602 0.00465295 -0.0238858)
(4.16057 0.00465456 0.0134587)
(4.20776 0.00171995 0.0074107)
(4.21548 0.0106103 0.00890333)
(4.23143 0.00852487 0.0120139)
(1.54072 1.54076 0.00487561)
(3.18778 -0.00980339 -0.122163)
(4.2943 0.0102982 0.0164523)
(1.53785 1.5409 -0.00200805)
(1.54436 1.54514 -0.000236514)
(4.46913 -0.0540498 -0.0042525)
(4.37008 0.0181715 -0.00730222)
(1.58324 1.353 -0.0412502)
(3.97424 -0.002462 0.0120332)
(4.27777 0.0117761 0.0125612)
(1.45863 -1.45779 -0.000499245)
(1.95305 1.8401 -0.0120867)
(4.39969 0.0378362 -0.0168681)
(1.46208 -1.44326 0.000699536)
(1.61837 -1.1452 -0.0277725)
(2.23972 -0.781172 -0.0798051)
(1.45905 -1.4551 -0.000209342)
(4.29586 -0.00768019 -0.0077105)
(4.17793 -0.00750961 -0.010331)
(4.35904 0.00691081 -0.0126294)
(1.45751 -1.45773 -7.79878e-05)
(4.31688 0.0130679 0.0110227)
(1.45835 -1.45863 0.00014184)
(1.45833 -1.459 0.000256795)
(1.45592 -1.45049 0.0025063)
(2.94512 0.0110807 -0.0447646)
(4.42102 -0.0205171 0.0245348)
(4.22319 0.0149173 0.0195463)
(4.29163 0.0136523 0.0106187)
(4.4546 -0.0290526 -0.000844293)
(4.26791 0.00944955 0.00949411)
(4.38619 0.0157826 0.00551127)
(4.40943 0.0734955 -0.00777658)
(4.30736 0.00952456 0.000593639)
(4.35054 0.010073 0.00057881)
(1.56982 1.54433 -0.000819838)
(1.45634 -1.45618 -0.00162889)
(2.68703 0.0163216 -0.064251)
(4.37345 -0.0101338 0.00140122)
(4.42347 0.0333423 0.037133)
(4.16041 -0.00521756 -0.00736905)
(1.4581 -1.45724 0.000356972)
(4.36549 0.0131428 0.00831503)
(4.38856 0.0214342 0.0103213)
(4.2813 0.00816493 0.00708181)
(3.77283 -0.00401963 -0.0181429)
(3.95139 -0.0444889 -0.0981831)
(4.34712 0.0148159 0.00237256)
(4.27245 0.0111137 0.00952229)
(4.36158 0.0321552 -0.0193577)
(1.54591 1.54592 0.000145199)
(3.99513 0.0209583 -0.00059915)
(1.54448 1.54487 -0.000579105)
(1.26208 0.968589 -0.195766)
(1.64405 -1.04859 -0.107029)
(4.52918 -0.0413462 0.0556552)
(4.45691 -0.0290647 -0.000853315)
(4.35144 -0.00229508 0.000486675)
(1.46044 -1.45685 -0.00053663)
(1.54004 1.54876 0.0125351)
(4.35759 0.0141855 0.00798341)
(4.17086 0.00746973 -0.00647772)
(1.45747 -1.45651 0.000121722)
(1.45876 -1.45795 0.00131657)
(1.42791 -1.43524 0.0112193)
(4.14627 0.00584003 -0.00315463)
(4.3317 0.00589814 -0.00516155)
(4.13512 0.000808914 0.0146316)
(3.99388 0.00703059 -0.0230185)
(4.41662 0.0101301 -0.0103479)
(1.76834 1.52241 0.0400671)
(1.54203 1.54568 0.0030382)
(1.45833 -1.45617 -0.000866412)
(4.34187 0.014472 0.0122545)
(2.80476 -2.37843 -0.170462)
(4.1401 -0.00485383 0.00450743)
(4.49732 -0.031443 0.0956987)
(3.61877 0.00257829 -0.0739028)
(1.54503 1.54502 -0.0002251)
(1.45676 -1.45815 0.000790999)
(1.45837 -1.45923 -0.000802031)
(1.9448 1.63426 0.098639)
(4.392 0.0140578 -0.000449109)
(4.43343 -0.0253875 0.00153126)
(1.54887 1.55268 0.00055589)
(4.35413 0.0117957 -0.00118871)
(1.632 1.32599 0.0921213)
(1.46558 -1.44917 -0.00217499)
(4.46337 -0.0157346 0.0365401)
(4.3475 0.0153637 0.00666163)
(4.45084 -0.00696732 0.0109723)
(4.35733 0.0121829 -0.000787661)
(1.49134 1.32533 0.0789202)
(1.92565 1.6586 0.105055)
(1.54229 1.54439 -0.00237526)
(4.35087 0.0149375 0.00567172)
(4.34751 0.0129132 -0.000278141)
(4.43173 0.0745529 -0.0242109)
(1.532 1.52893 0.00334397)
(3.04388 2.69943 -0.642161)
(4.15205 0.0404665 0.0369517)
(4.43034 -0.0209708 0.0107494)
(4.36891 0.0161404 0.0103647)
(4.14855 0.430045 -0.0352572)
(4.41486 0.0104719 -0.0102895)
(1.54199 1.54195 0.000279305)
(4.41805 0.0120375 -0.00871829)
(4.23974 0.00560728 0.00851513)
(4.47288 -0.10408 1.83465e-05)
(4.47643 -0.0262217 0.053257)
(4.34013 -0.033209 -0.0299058)
(1.54029 1.54677 -0.00604185)
(1.45688 -1.45872 -0.00270714)
(1.54845 1.5401 0.00564596)
(1.44894 -1.45304 -0.000539583)
(4.42703 -0.0214323 -0.000145778)
(4.40093 -0.00809418 0.00282987)
(4.3754 0.0206742 -0.0145907)
(4.41112 0.012268 -0.0130957)
(1.53568 1.53725 -0.00637421)
(4.37245 -0.028708 -0.00954117)
(1.54347 1.54415 0.000589636)
(1.4519 -1.45623 0.000243057)
(4.413 0.0123251 -0.00959019)
(1.34515 -1.34684 0.0196058)
(2.42472 -0.420601 -0.0363062)
(1.44222 -1.4368 0.00128629)
(1.55916 1.5384 0.0122806)
(4.36518 0.00849009 -0.00584022)
(1.54531 1.54448 0.000605362)
(4.3234 0.0108755 -0.00314457)
(4.10556 0.00257763 -0.0190176)
(1.54624 1.54612 -0.000339301)
(3.96441 -0.00162514 -0.0194678)
(4.29353 0.0070558 0.00802542)
(1.55556 1.36675 -0.0502616)
(4.28737 0.0187406 0.0192423)
(4.04291 0.0207672 -0.00309685)
(4.31126 0.0244464 0.00617368)
(4.01186 0.0152429 0.049461)
(4.35478 0.0127307 0.00204708)
(4.14935 0.000656171 -0.00939438)
(1.52438 1.30708 -0.00558608)
(1.4573 -1.45189 0.00547474)
(3.72699 0.008252 0.0880006)
(1.53523 1.54051 -0.00890528)
(4.30277 0.0223067 0.0196619)
(4.46538 -0.0225498 0.0436227)
(1.55658 1.48912 0.0124324)
(1.54211 1.5485 -0.000272534)
(4.41594 -0.00921998 0.00311519)
(4.25072 -0.0194031 -0.0395715)
(4.26793 0.0222783 0.00236149)
(4.43121 0.00878428 -0.00207298)
(1.54486 1.54327 -0.000466026)
(4.48531 -0.0128797 0.0704793)
(4.41386 -0.0149948 0.0219735)
(1.54816 1.54537 3.51761e-05)
(4.33594 0.065545 0.0534022)
(4.13297 -0.0169225 -0.0426556)
(1.45726 -1.45618 -0.000250486)
(1.45722 -1.45702 0.000279076)
(4.31998 0.013703 -0.00374074)
(4.33612 0.0041164 -0.00617129)
(1.55222 1.55242 -0.00195885)
(1.46049 -1.45581 -0.00153099)
(2.58372 -1.3883 0.316088)
(1.45798 -1.45892 0.000526045)
(4.33723 -0.00225931 0.00928571)
(1.53725 1.54223 0.0036613)
(1.45843 -1.45879 9.43883e-05)
(4.45225 -0.00512096 0.0144494)
(4.0284 -0.0474212 -0.114814)
(4.40566 -0.0248571 0.00641994)
(4.2437 0.000249871 0.0079196)
(1.54674 1.54569 4.40176e-05)
(2.00125 1.54632 0.0747545)
(4.24891 0.0538268 0.079273)
(1.87692 1.65851 0.0872719)
(4.23266 0.0183115 0.0329159)
(4.21703 -0.0348423 0.00333648)
(4.39594 -0.0117922 -0.0103002)
(3.06703 0.106059 0.107126)
(1.84373 1.59026 0.078135)
(4.4098 0.00762465 -0.0415228)
(4.45569 0.134137 -0.0473752)
(1.45638 -1.45915 0.00245434)
(4.43644 0.0113202 -0.0433163)
(4.4455 -0.0213638 0.0158622)
(1.46016 -1.45983 0.00153124)
(4.2851 0.245509 -0.135888)
(3.74829 -0.000682123 -0.0526925)
(1.94693 1.53356 0.0627116)
(4.42022 -0.00841616 0.0187466)
(4.37005 0.00607325 -0.00610066)
(4.35829 0.0118703 -0.00225921)
(1.54452 1.54339 -0.000432547)
(4.34688 -0.00708902 0.0298735)
(4.44329 -0.00389326 0.0145891)
(4.33008 0.0416797 -0.00455916)
(2.73721 -0.0366547 0.0460939)
(1.8765 1.77258 -0.0370773)
(2.57851 -0.0653594 0.0849641)
(1.45665 -1.45843 0.00102166)
(4.00178 -0.130252 -0.129268)
(4.34797 -0.00771371 -0.0285652)
(1.54583 1.54479 0.00212953)
(4.11964 0.00996707 -0.0308332)
(3.40465 -0.00851188 0.0603727)
(1.99986 1.76992 -0.0185799)
(1.45841 -1.45743 0.000159786)
(1.70995 -1.44908 0.0458845)
(1.458 -1.45743 0.000103991)
(4.32282 0.0211926 -0.000645885)
(4.35665 0.022566 -0.00762621)
(4.2999 -0.0131801 -0.0123563)
(4.04315 0.0103804 -0.0226626)
(4.40945 -0.0902015 -0.0181783)
(1.54466 1.53855 -0.00309288)
(4.27549 0.000306994 -0.00943433)
(1.46177 -1.45103 0.000490636)
(4.23023 0.0163527 0.00959552)
(1.54985 1.5495 -0.000900261)
(1.45736 -1.45625 -2.99781e-05)
(1.4464 -1.45045 -0.00204722)
(4.15769 -0.0282569 0.00619582)
(1.45491 -1.45543 -0.000962896)
(1.45876 -1.45835 0.000467576)
(1.5213 1.01719 -0.062753)
(1.45821 -1.45936 0.000459108)
(1.53016 1.55131 0.0144205)
(4.26174 -0.0150182 -0.00666859)
(1.54641 1.54419 0.000648607)
(1.82875 1.35291 0.00245532)
(1.54658 1.54663 0.00164662)
(1.45605 -1.45196 -0.00100376)
(1.54603 1.54224 -0.00104026)
(1.45407 -1.44667 -0.00762108)
(1.54086 1.54068 -0.000220981)
(3.88162 0.000781986 -0.0331279)
(1.54857 1.54017 0.00631394)
(3.98551 0.0553196 0.0781844)
(4.35468 0.00395128 0.000760215)
(4.50082 -0.177257 -0.02813)
(1.54661 1.53973 -0.000358216)
(3.79501 0.0116112 0.0610163)
(1.54838 1.54279 0.00178965)
(1.45841 -1.45927 -0.000706905)
(4.31006 -0.0414291 -0.0462703)
(4.30712 -0.0345287 -0.0356936)
(4.30335 -0.00920307 -0.0121735)
(4.49904 0.0119486 -0.0753988)
(1.77293 1.49356 -0.048147)
(4.40337 0.00380888 -0.0229581)
(4.40262 0.00200548 -0.0199532)
(4.36178 0.0094685 -1.70097e-05)
(4.29416 0.00475364 0.000943535)
(4.37897 -0.0447271 -0.0292542)
(1.45517 -1.45542 -0.000542308)
(4.36812 0.00769233 -0.00141333)
(2.01676 1.75685 -0.0117064)
(4.34099 0.00839308 -0.00953673)
(1.54541 1.54426 0.000247663)
(4.42473 0.0155311 -0.0247286)
(1.99518 1.65787 0.0155455)
(4.36562 0.0041689 -0.00613411)
(4.37138 -0.0199775 0.0158773)
(1.68514 -0.840217 -0.0100311)
(1.54779 1.54955 0.017007)
(4.30112 0.00764049 0.00697183)
(1.45815 -1.45705 0.000170982)
(4.44 0.0182251 -0.0260406)
(4.40487 0.0217587 -0.0184121)
(1.54502 1.54079 -0.0126092)
(1.54305 1.5423 0.00373913)
(1.513 1.35651 -0.0384641)
(1.54444 1.54543 0.00092149)
(3.08907 -0.163973 0.0824669)
(4.44221 0.0159561 -0.0256992)
(1.56471 1.52834 -0.00115745)
(1.5426 1.54537 0.00179903)
(3.80103 0.00212496 -0.0106974)
(1.54541 1.54526 -7.77291e-05)
(4.37344 0.0159443 -0.0172459)
(1.54526 1.54455 0.000131768)
(4.33411 -0.0263603 -0.0183913)
(1.4591 -1.45856 0.000447456)
(4.07206 -0.0218071 -0.0603649)
(3.37124 -0.01271 0.00474567)
(4.07104 0.0123593 -0.00949816)
(4.36784 0.00570064 -0.00750761)
(1.55461 1.54298 -0.00471868)
(3.97074 0.00386393 -0.00051409)
(1.54804 1.5427 0.00132164)
(1.54536 1.54634 -0.00375244)
(4.30806 -0.0165914 -0.0101896)
(1.54565 1.54423 -0.000158269)
(3.67762 0.000349887 -0.0377144)
(1.49558 1.37702 -0.0433995)
(4.38428 0.0219738 -0.0138135)
(1.45724 -1.45773 -0.000292735)
(4.41272 0.0105122 -0.00942646)
(1.45853 -1.45735 0.000182532)
(1.82981 1.62175 0.0459454)
(4.47104 0.156227 -0.00902047)
(4.30491 -0.0356444 -0.0467028)
(4.35155 0.01642 0.000199736)
(4.40328 -0.0528354 -0.0328773)
(4.33142 0.0092563 -0.00594774)
(4.44893 -0.0302173 -0.00410586)
(1.53545 1.54733 -0.00682643)
(4.34986 0.0226835 0.0144955)
(4.31657 -0.0395994 -0.0464656)
(1.54468 1.54538 -0.000734532)
(3.65359 -0.0461983 -0.157406)
(4.45084 -0.0308981 -0.0224454)
(4.27585 0.0194459 0.0156608)
(1.53188 1.51052 -0.00888934)
(1.90009 0.388819 -0.296417)
(4.18445 0.0113089 0.0127754)
(3.4355 -0.0135953 0.03431)
(3.55426 0.920108 -0.00706687)
(1.89434 -0.958225 -0.0802841)
(4.43537 -0.0477138 -0.00690566)
(4.16285 0.0160928 0.0293077)
(4.3011 -0.0417265 -0.0447054)
(4.3706 -0.0242537 -0.00945796)
(4.31536 0.0256996 0.0105308)
(3.82248 0.499643 -0.0249868)
(1.90651 1.62 0.0133015)
(3.8841 -0.142067 0.0313707)
(3.75241 -0.326575 0.0777493)
(1.45641 -1.457 0.000846387)
(3.82501 0.0265645 -0.0117669)
(1.55402 1.52518 -0.00776974)
(1.81238 1.64828 0.015131)
(4.32685 0.00508619 -0.00220145)
(3.84581 0.65324 -0.020478)
(4.62685 -0.389537 -0.0725819)
(4.1673 -0.71579 0.014288)
(1.80733 1.71856 -0.124089)
(4.40892 -0.0258341 -0.00737397)
(4.36138 0.0248012 0.0186645)
(1.54177 1.53735 -0.000429963)
(1.98277 1.10707 -0.044031)
(4.36364 0.0315324 0.0185131)
(1.45681 -1.45156 0.000972985)
(1.54508 1.54482 -0.000137303)
(1.54338 1.54295 0.000237899)
(1.54635 1.53837 0.00162325)
(4.41275 -0.0454854 -0.0206593)
(1.54549 1.54523 0.000899325)
(1.46415 -1.46409 0.00786165)
(4.33014 -0.0265928 -0.022481)
(3.99095 -0.000570897 -0.0124446)
(2.15289 -1.88389 -0.099158)
(4.36443 0.0308464 0.018005)
(1.79302 1.4515 0.0323915)
(4.38652 -0.0173641 -0.00893045)
(1.43382 -1.43274 -0.00642938)
(1.54217 1.54523 -0.000686549)
(4.39538 -0.0271074 -0.00806923)
(1.54548 1.53691 -0.00593766)
(1.54483 1.54138 0.0010784)
(1.76964 1.69553 0.0496237)
(4.14356 -0.00314678 -0.00285703)
(2.53899 2.12853 -0.279858)
(4.3313 -0.0185936 -0.00937616)
(4.32349 0.00458666 -0.00291785)
(1.44749 -1.43814 -0.0117179)
(4.49751 -0.0133071 0.140663)
(4.12656 -0.0240887 -0.0601089)
(4.31222 0.00147667 -0.00229703)
(4.38022 0.077613 0.00984457)
(4.39591 0.0449438 -0.0940262)
(3.7892 0.00194582 -0.0359128)
(1.54355 1.54275 0.000570273)
(4.39786 0.00470484 0.0111437)
(4.36725 0.0175999 -4.72066e-05)
(1.44496 -1.46394 0.00296765)
(4.07748 -0.00272982 0.000305269)
(4.4168 0.0255503 -0.00849205)
(4.40734 0.0201361 -0.00704697)
(4.01924 -0.0173612 -0.0406121)
(4.40398 0.0212899 -0.00566832)
(4.40927 0.0216983 -0.00436271)
(1.46253 -1.44323 0.00866339)
(4.40474 -0.00926835 0.0220146)
(3.66012 -0.0218667 -0.00556657)
(1.86177 1.61838 0.100484)
(4.4022 0.0176942 -0.00941468)
(4.20308 0.00498548 -0.00956364)
(2.46965 2.01435 -0.301134)
(4.32732 0.00592612 -0.00149519)
(4.40495 0.0150683 -0.0132904)
(4.20497 0.00133498 -0.0170713)
(4.37321 0.0216871 -2.53606e-05)
(4.32402 0.0464029 0.0176487)
(4.33367 0.00557321 0.00053156)
(1.51181 1.47894 0.00194136)
(4.3726 0.0222906 -0.000813233)
(4.10763 -0.024738 -0.0543484)
(1.6322 -0.973786 0.0385843)
(4.35256 0.0340012 0.0222345)
(4.30489 0.0349423 0.0347863)
(4.35872 0.0140574 -0.00241697)
(1.54422 1.54112 0.00160167)
(4.24164 0.0252914 -0.0405465)
(1.45833 -1.45197 0.00377253)
(1.54518 1.54564 -0.000801964)
(1.54054 1.52844 -9.81878e-05)
(1.54694 1.53874 0.000827677)
(3.67172 0.00201344 -0.0174084)
(1.8363 1.58491 0.0629691)
(3.32759 -0.229672 0.273518)
(1.4545 -1.45446 0.000258809)
(1.54448 1.56323 -4.78119e-06)
(4.36783 0.0419265 0.0234014)
(4.3785 0.0106322 -0.0174388)
(1.459 -1.45882 5.36038e-05)
(4.38796 -0.0272375 -0.00383707)
(1.45802 -1.45671 0.0048354)
(1.45922 -1.45808 -0.000740901)
(1.43638 -1.4367 0.0044402)
(4.45997 -0.0373853 -0.00780669)
(3.70931 0.0200931 -0.0109403)
(1.81806 1.63979 0.0203656)
(1.47348 -1.4571 0.00390306)
(1.54321 1.54782 -0.00198796)
(1.54412 1.54532 -0.00021947)
(4.47995 0.00867032 -0.0487575)
(4.34388 0.00746877 -0.00321995)
(1.8365 1.72764 0.0794688)
(4.42798 0.0141538 -0.0229797)
(4.12551 -0.0574393 -0.167788)
(1.54275 1.54329 -0.000861705)
(4.41618 0.012234 -0.0199632)
(4.05244 0.00360998 0.021335)
(4.31934 0.0236807 -0.028496)
(1.54638 1.54542 -0.000212774)
(1.54387 1.54326 -4.00275e-05)
(4.28079 0.0188563 0.0226768)
(4.36446 0.00845219 -0.00131804)
(1.82368 1.66013 0.0259566)
(1.53973 1.54001 0.00013899)
(1.56802 1.52226 -0.00308365)
(4.32615 -0.00865143 0.00502749)
(1.45654 -1.45671 -0.00195849)
(1.45855 -1.4538 0.0012682)
(1.54061 1.54125 0.000700811)
(4.41388 0.0135524 -0.017016)
(3.86847 -0.0184741 0.00666363)
(1.54578 1.54594 0.000209487)
(1.71259 0.354476 0.295988)
(1.85897 -0.18678 -0.0687438)
(4.29408 0.0225696 -0.00210195)
(1.54287 1.54548 -0.000739398)
(1.54522 1.54231 -0.000774798)
(4.4451 -0.0450405 -0.0101663)
(4.24878 0.0720673 0.0650163)
(1.85024 1.65509 0.0770372)
(2.68744 0.884605 0.062647)
(4.18852 0.101239 0.117682)
(4.00622 0.0112383 -0.028666)
(4.24968 0.00350725 -0.00343202)
(1.60253 1.50453 -0.0025193)
(4.23204 0.0113363 0.000692918)
(4.38694 -0.0292094 0.0303469)
(1.54898 1.54496 -0.00177963)
(1.44846 -1.42528 0.00191635)
(1.5408 1.54169 -0.00019732)
(1.54348 1.54387 -0.00054577)
(1.54559 1.54778 -0.00168605)
(1.54621 1.54651 -0.000121931)
(4.4242 0.0147727 -0.0183419)
(1.45714 -1.45705 0.00106353)
(1.5437 1.54404 -5.3296e-05)
(1.53621 1.51611 -0.000210608)
(4.42769 0.0145676 -0.0238358)
(4.36006 0.00961917 -0.00327353)
(1.46433 -1.44511 -0.000527151)
(1.4414 -1.42662 0.00222575)
(4.4627 -0.0210601 0.0379993)
(4.24245 0.00357376 0.00544001)
(4.23574 0.00518046 0.00699262)
(1.45907 -1.45502 -0.00078212)
(1.54285 1.54343 0.000835171)
(4.23933 0.00306078 0.00657511)
(1.4586 -1.45754 -1.43638e-05)
(4.18877 0.0110465 0.00112536)
(4.29843 0.00741421 0.0147965)
(4.30736 0.0151371 0.0068024)
(1.46794 -1.45731 0.00458647)
(1.45791 -1.45848 0.000434114)
(1.45772 -1.45861 0.000446737)
(1.54531 1.54556 0.000408661)
(4.34878 -0.0187983 -0.0122182)
(1.54365 1.54471 0.000188298)
(1.54269 1.54308 0.000383433)
(4.32477 0.0114006 -0.0154972)
(1.45775 -1.45845 0.000626551)
(4.25534 -0.00148791 0.00530325)
(3.89442 -0.0319043 0.0128423)
(1.55814 1.50811 0.0074351)
(4.35862 0.0140045 -0.00276929)
(2.06093 0.313729 -0.0534142)
(4.2947 0.00335267 0.00392033)
(4.45752 -0.0165276 0.00903597)
(3.92412 0.0157417 0.00483473)
(4.44261 -0.000340121 0.0283933)
(3.21254 0.0712235 -0.120317)
(1.83622 1.47285 0.0299641)
(4.28505 0.000223803 0.00238227)
(4.46133 0.0317019 0.00193054)
(4.35696 -0.0125244 -0.00519128)
(1.58219 1.37867 -0.0466961)
(1.9512 0.194097 -0.0981547)
(2.32832 -0.148374 0.074683)
(4.28525 0.0067865 0.00380449)
(1.54286 1.54511 0.00204719)
(4.21285 -0.00960432 -0.0312627)
(4.30139 -0.00358157 -0.0106954)
(4.17981 -0.0376406 -0.0669398)
(1.59518 -1.12517 -0.085839)
(1.45833 -1.45846 0.000780198)
(1.45786 -1.45787 -1.80552e-05)
(4.38355 -0.0143453 -0.00255373)
(1.79758 1.49244 -0.0184191)
(4.15509 0.0140249 0.00663107)
(1.67431 1.52667 0.0205902)
(4.1391 -0.00781157 -0.0278478)
(4.24498 -0.0062362 0.00520091)
(4.20479 -0.00347974 0.0155869)
(4.36101 0.0109901 -0.00408307)
(1.54422 1.54313 -0.0004702)
(1.53579 1.53154 -0.00227941)
(1.55953 -1.4209 0.00656193)
(4.35577 0.0161582 0.000816534)
(1.54584 1.54167 -0.000238035)
(1.77904 1.53393 -0.0662824)
(4.45492 0.0785788 -0.0676235)
(1.55123 1.54941 -0.000780005)
(1.53894 1.54633 0.00452837)
(1.45516 -1.44931 -0.00377827)
(1.54548 1.54604 0.00040834)
(4.15926 -0.00242471 0.0148836)
(1.58281 1.50077 0.00506351)
(1.54542 1.54367 0.000163539)
(3.54056 0.499663 -0.366442)
(1.80325 1.46115 -0.0198269)
(1.53949 1.54034 -0.0128625)
(2.10497 -1.24422 0.0765385)
(1.54507 1.5428 -0.00138272)
(3.40501 0.012959 -0.0298826)
(4.24198 -0.00530568 0.0117803)
(1.45711 -1.45691 -0.000554382)
(4.17091 0.00486622 -0.00975042)
(4.21871 0.685074 -0.0962264)
(4.15229 -0.0407152 -0.0652715)
(4.56297 0.170639 0.00475997)
(4.09597 0.00482204 -0.00728156)
(1.54536 1.53457 0.00487743)
(4.31481 -0.0411444 -0.0461171)
(4.4707 -0.0178684 0.00975565)
(4.15149 -0.0408839 -0.0658754)
(1.45763 -1.45813 -2.20059e-05)
(4.52844 1.19858 0.314748)
(4.14966 0.00574767 0.00799995)
(2.05234 1.6426 -0.0959839)
(4.12246 0.00189673 0.00592723)
(4.50153 0.0554315 -0.0421176)
(4.29754 0.085022 0.00490731)
(4.2598 -0.0137558 -0.0177296)
(4.26104 0.0137232 0.000937507)
(4.53643 0.0650151 -0.0241586)
(4.38161 -0.00705494 -0.00747534)
(4.345 -0.00771493 0.00496261)
(1.53506 1.54006 0.00609341)
(1.54091 1.53351 0.00482524)
(4.17849 0.0110571 0.00554275)
(4.10981 0.0043745 0.00572146)
(1.54221 1.54592 -0.000278941)
(4.23487 0.00563923 0.000339598)
(4.45298 -0.0181318 0.00540335)
(4.36874 -0.0120803 0.00460058)
(1.54959 1.53436 9.40882e-05)
(4.28248 0.0847427 0.0194926)
(1.543 1.54161 0.000314616)
(4.34873 -0.00676537 0.00349693)
(4.37354 -0.00833745 0.00329652)
(1.54405 1.54331 -0.000224255)
(4.16559 0.018853 -0.0148248)
(4.36363 -0.0060496 0.00136162)
(4.26537 0.0792926 0.00673884)
(4.20747 0.00142382 0.0138965)
(1.57355 1.54417 -0.00233581)
(4.37842 -0.0131475 0.0146536)
(4.27843 0.096665 0.0012447)
(4.50969 -0.104778 0.0263709)
(3.79729 0.0490082 0.0149659)
(3.389 0.0102549 -0.0473037)
(1.547 1.53109 -0.00279228)
(1.54172 1.54046 0.00146735)
(4.20552 0.0566006 0.0075621)
(1.54531 1.54569 -0.000416948)
(3.68197 -0.010478 -0.00973991)
(4.22465 -0.0213554 -0.0322766)
(2.58159 0.365994 -0.0898142)
(4.67866 -0.297041 0.111722)
(4.13091 -0.183621 0.0524378)
(4.59908 -0.1634 0.043417)
(1.54533 1.54566 -0.000406502)
(2.09285 1.77749 0.0150614)
(4.37251 0.0125484 -0.00366439)
(1.45217 -1.45739 -0.00442575)
(0.797157 -0.552908 0.243789)
(4.34014 -0.0815755 -0.0657314)
(1.54533 1.54122 -0.00288257)
(1.54572 1.54407 -2.29034e-05)
(3.86675 -0.0761112 -0.00433772)
(3.16582 -0.20336 0.0401039)
(1.54586 1.54577 -0.000255222)
(3.91949 -0.0713435 0.0114275)
(1.54413 1.54262 0.000205923)
(1.54434 1.54651 -0.00257471)
(1.45742 -1.4576 -0.000265002)
(1.45929 -1.4557 0.00352453)
(1.43076 -1.41989 0.00518043)
(1.45735 -1.45472 1.86502e-06)
(3.90488 0.0310866 -0.0142798)
(1.54285 1.53403 -0.00127267)
(1.54426 1.54485 0.000459275)
(1.53672 1.54542 0.00278284)
(3.63714 -0.803536 -0.210754)
(4.12662 -0.0346071 -0.0760806)
(3.99568 -0.000837038 -0.039919)
(4.37271 0.0127779 -0.00402944)
(1.53971 1.52962 0.000278633)
(1.54856 1.54307 -4.35052e-05)
(4.1926 -0.0711709 -0.0864001)
(1.54507 1.54595 -0.00140858)
(1.54457 1.54329 0.000673396)
(2.44927 1.41302 0.0517021)
(4.46656 -0.0602223 -0.00547258)
(4.35878 0.0108369 -0.00334825)
(1.54338 1.54356 -0.000415936)
(1.54525 1.54218 0.00178335)
(1.54106 1.53711 -0.00203719)
(1.54338 1.54084 -0.000325169)
(1.54731 1.54712 -0.00168545)
(1.54789 1.5438 0.000190895)
(4.37715 -0.101028 -0.0633872)
(1.54604 1.5418 -0.000250119)
(3.03599 0.0440213 0.100076)
(4.39803 -0.00985235 0.0112007)
(1.54404 1.54616 -0.000320152)
(1.44882 -1.45474 -0.00394953)
(1.43878 -1.42531 0.00163153)
(3.69615 0.0426087 0.197683)
(1.43149 -1.42973 -0.00573623)
(1.45621 -1.4572 0.00143949)
(1.53736 1.53966 -0.00966691)
(3.96399 -0.0602696 0.00251039)
(1.54212 1.5421 -0.000403369)
(4.34095 -0.0562741 -0.0357038)
(3.46074 0.0552613 -0.0176166)
(2.86236 0.00425261 0.112773)
(1.5425 1.54282 0.00047053)
(2.96816 -0.755666 0.0603069)
(4.37475 -0.00842489 0.000765778)
(4.40506 0.0099645 -0.0117839)
(1.56424 -1.4922 -0.0183324)
(4.24344 -0.0676191 -0.0118259)
(4.329 -0.00845022 -0.00664992)
(1.45819 -1.44818 0.00145718)
(1.59332 1.51199 0.0075288)
(2.0645 -1.58819 -0.130326)
(1.54055 1.53952 0.000219894)
(4.38361 0.00960677 -0.00202596)
(4.36533 -0.00583831 0.00667862)
(4.44696 -0.0531965 0.0217952)
(2.9347 -0.00172949 0.159395)
(1.5456 1.54498 -0.000165083)
(4.38596 0.00981493 -0.00304763)
(1.59043 1.51358 -0.00207492)
(1.92688 1.6322 -0.0075265)
(1.96321 -1.52507 -0.0619349)
(1.54446 1.5449 0.000636174)
(4.38706 0.0124971 -0.00364515)
(1.54204 1.5385 0.00144269)
(1.44302 -1.4189 0.000392419)
(4.00184 -0.0548887 -0.0987937)
(4.28753 -0.00975776 0.00549386)
(1.44309 -1.41979 -0.00446838)
(4.3136 0.00740427 -0.00237184)
(1.64689 1.60974 -0.0102649)
(4.38062 -0.0371976 -0.0191793)
(1.45734 1.39501 0.0158877)
(1.54575 1.54655 -0.0007311)
(1.55374 1.54847 0.00519827)
(1.45847 -1.4587 0.000437211)
(4.2602 0.00878845 -0.00741863)
(3.80916 0.00634876 -0.0164668)
(4.41654 -0.0019917 0.0795583)
(1.54039 1.54073 0.000951664)
(1.54102 1.51227 0.00986258)
(4.24093 0.00942948 -0.00704462)
(1.54541 1.54574 -0.000520105)
(1.78815 1.62289 0.0222967)
(1.45764 -1.45651 0.000658524)
(4.19347 0.0264952 -0.00267967)
(4.46318 -0.113011 -0.0316322)
(4.37193 0.011464 -0.00444631)
(1.4607 -1.4571 0.00241065)