/*--------------------------------*- C++ -*----------------------------------*\
  =========                 |
  \\      /  F ield         | OpenFOAM: The Open Source CFD Toolbox
   \\    /   O peration     | Website:  https://openfoam.org
    \\  /    A nd           | Version:  10
     \\/     M anipulation  |
\*---------------------------------------------------------------------------*/
FoamFile
{
    format      ascii;
    class       surfaceScalarField;
    location    "32";
    object      phi;
}
// * * * * * * * * * * * * * * * * * * * * * * * * * * * * * * * * * * * * * //

dimensions      [0 3 -1 0 0 0 0];

internalField   nonuniform List<scalar> 
214403
(
-0.000467201
0.000358389
1.96208e-05
8.9191e-05
-0.000224091
-0.000756483
6.36782e-05
0.000916896
-0.000693037
4.68842e-06
-9.40165e-06
0.00069775
0.000615813
-0.000414052
-0.0010322
0.00083044
0.000831606
-0.00105143
0.000250519
-3.06911e-05
-0.000355419
0.000370294
-3.6915e-06
-1.11835e-05
-5.80156e-05
-0.000109764
-0.000623948
0.000791728
-0.00114901
0.000654441
-0.000172933
0.000667502
-0.00157565
0.00111384
0.00112244
-0.000660627
0.000958645
0.00011365
-0.0010719
-3.92365e-07
0.000340698
-0.000674988
0.000138979
0.000195311
-0.000700146
0.000219962
0.000363254
0.00011693
3.19303e-05
-0.000774258
0.000932489
-0.000190161
-0.000671583
0.000676279
-4.69637e-06
0.00012933
0.000807221
-0.00103471
9.81574e-05
-0.000809502
0.000676564
0.000205108
-7.21696e-05
-0.000819415
0.000799211
2.0204e-05
0.000267997
-7.69888e-06
-5.2862e-05
-0.000207436
0.001062
-0.000635372
-0.00141176
0.000985137
-5.24015e-06
-0.000214461
6.29975e-06
0.000213402
0.000442782
-0.000432398
-1.03835e-05
-0.000816589
-0.000282543
0.000280959
0.000818173
-0.000154131
0.000923228
-0.000744698
-2.43984e-05
0.000454639
4.78751e-05
0.000158558
-0.000661071
-0.000692694
-0.000334362
0.000896922
0.000130135
0.000638627
-0.000808605
4.99277e-06
0.000164985
0.000218297
-0.00019091
0.000715511
-0.000742897
0.000517201
0.000676149
-0.000814459
-0.000378891
0.000756171
-0.00047419
-2.13957e-05
-0.000260585
-0.000406618
0.000414487
-7.8693e-06
0.000162916
-0.000341743
0.000916996
-0.000738169
0.000955874
4.53629e-05
-0.000166424
-0.000834813
-0.000389283
-0.000399369
0.000408979
0.000379673
-7.92959e-05
-0.000447083
0.000396102
0.000130277
0.000288054
-0.000192596
-0.000625754
0.000530296
-0.000113933
0.000564226
-0.000203899
-0.000246393
0.00108643
-2.88499e-05
-0.00105758
-0.000466214
0.000909288
-0.000443074
7.84908e-05
-0.000988978
0.000577098
0.00033339
0.000166159
-6.67666e-05
0.000406718
-0.000506111
0.00037578
-3.92279e-06
-0.000371857
0.000693776
-1.50943e-05
0.000122476
-0.000801158
-0.000878752
0.000110689
0.000934222
5.84849e-05
5.87636e-05
0.000583749
-0.000700997
-0.000280547
-0.00182168
0.00176696
0.000335267
0.000393659
7.13933e-05
8.89808e-05
-0.000554033
0.000286622
0.000217212
-0.000701043
0.00019721
0.000903555
0.000541131
-0.000990046
8.20788e-05
0.000767164
-0.000155466
0.000126298
-0.00047331
-0.000278343
0.000625355
0.00021492
0.000330314
9.86567e-05
-0.000643891
0.000123368
-9.26047e-05
-0.000283508
0.000252744
0.000475834
-0.000861131
0.000600217
0.000806974
-0.000759534
-0.000260217
0.000212778
0.000736914
-0.000134783
-0.000582378
0.000789376
-3.3547e-05
-0.000173451
0.000598929
-0.000765889
8.88514e-06
0.000158074
-0.000548698
3.6205e-05
0.00087672
-0.000364227
-0.00103649
-0.000973606
0.000817694
0.0011924
-0.000555079
0.000558587
0.000109759
-0.000113267
8.75768e-05
-0.000709422
-0.000594881
-1.23663e-05
0.000309308
0.00029794
-0.000906169
0.000389419
0.00058622
-6.94703e-05
0.00106625
-0.000859997
5.56586e-05
-0.000261913
4.85124e-05
1.79501e-05
-0.000684627
0.000618165
3.5516e-05
-0.000193529
0.000956027
-0.000798015
-0.00238826
0.000259538
0.000270253
0.00185847
-0.00021754
0.000641424
-0.00020354
-0.000220344
0.000314051
-0.00016557
-0.000670059
0.000521578
7.52784e-05
0.00046758
-0.000594133
5.12749e-05
-1.02053e-05
0.000573427
0.000199725
-0.000762947
-0.000114078
-1.8206e-05
-0.000236935
0.000369218
-0.00062387
0.000680353
-2.51258e-05
-3.13572e-05
2.12458e-05
-0.000613364
-0.000441288
0.000390665
0.000118765
-6.81419e-05
-0.00114612
-7.23217e-05
0.000559028
0.000659415
-0.000338815
-0.000144357
0.000288229
0.000194943
0.000509937
-0.00171054
0.000237353
0.000963249
-0.00026014
0.000523665
-0.000285973
2.24472e-05
0.000369756
-0.000287619
3.60932e-05
-0.000118231
8.72022e-06
-0.000717777
0.000709057
2.42922e-06
0.000581976
-0.000584405
0.000501785
-9.81802e-05
6.64701e-05
-0.000470075
-0.000315047
0.000449605
0.000148898
-0.000283456
-0.000217332
0.000924864
-0.000222237
-0.000485295
0.000437234
-0.000745293
-2.82668e-05
0.000336326
0.000501898
0.000513996
-0.00101589
0.000738004
-0.000829021
0.000212034
-0.000121017
7.33977e-05
-0.000132252
0.000960007
-0.000901153
2.74932e-05
-0.000155192
0.000692603
-0.000564904
0.000165776
0.001446
0.000415439
-0.00202721
-0.00126955
0.00111712
0.000724407
-0.00057197
5.81756e-05
0.000446599
-0.000600518
9.57436e-05
0.000590641
0.00065654
-0.000214914
-0.00103227
0.00110009
-0.000668256
-2.16644e-05
-0.000410174
4.91494e-05
-0.000144137
-0.000452543
0.000547531
-0.000457134
2.54956e-06
0.000454584
0.000668393
2.33613e-05
4.62499e-05
0.000834433
6.72051e-05
-0.0012755
0.000373865
-0.000667008
0.000147182
0.000118991
0.000400835
-0.000432023
0.000107146
5.31564e-05
0.000271721
0.000103541
7.37882e-05
-0.000878263
0.000700934
-0.000175976
-0.00102454
0.000653275
0.000547236
0.00041985
-0.00049681
-0.000323852
0.000400812
0.000677689
-6.82127e-06
-0.000677344
6.47674e-06
0.000507421
-0.00071783
-0.000246776
0.000457185
0.00131634
-0.000398264
-0.000205064
-0.000713014
0.000762809
-1.35371e-06
-0.000701243
-6.02118e-05
-0.00038512
0.000453147
0.000943367
-0.00101139
0.000825211
-0.000290315
-0.000793389
0.000258493
0.00015119
-0.000222259
0.000965947
-0.000894878
-0.001088
0.000991209
0.000940322
-0.000843535
4.91076e-05
-0.000847558
0.000326831
0.000471619
0.00105986
-5.68806e-05
-2.1544e-05
-0.000981437
0.000766749
-0.000149521
0.000147734
-0.000764962
-0.000863689
-0.000785568
0.000929789
0.000719467
-0.000168781
0.000484064
0.000131234
-0.000446516
-0.000362783
1.95507e-05
0.000701529
-0.000358297
-8.28397e-05
0.000931473
-0.000867058
1.84255e-05
-0.000824234
0.000765472
0.000148968
-9.02063e-05
-2.76222e-05
-0.000480761
0.00114701
0.000146313
-0.000484795
-0.000356625
0.000695107
-0.000382771
5.02546e-06
0.000377745
0.000117421
0.000533512
-0.000492976
-0.000157956
0.000872856
-0.000503045
-0.000134368
-0.000235442
8.63395e-06
-0.00026617
0.000257536
-0.000482959
-0.000130297
0.000183133
0.000430123
5.05763e-05
0.000277977
-0.000623749
0.000295195
0.00109542
-9.89631e-05
0.000428086
-0.00142455
7.42634e-05
-9.88617e-05
-0.00128824
0.00131284
8.27973e-05
-0.000372798
-0.000487168
0.000777169
3.17846e-05
0.000674802
-3.81942e-05
2.71781e-06
-0.000406061
0.000403344
0.000806105
-0.000299857
-0.000359936
-0.00048833
0.000406319
-0.000400948
0.000906796
-0.000754336
-9.18743e-05
-6.05856e-05
8.88512e-05
-0.000420053
0.000183676
0.000147526
-0.000739683
-0.000223835
0.000150338
0.00081318
0.000614964
-0.000999808
0.000658648
-0.000273804
-2.78247e-05
0.000902975
-0.000904065
2.89141e-05
-2.9653e-06
0.000817415
-0.000809912
-4.53772e-06
-0.00114865
0.000916607
-0.000735946
0.000967988
0.000957687
-0.000926531
-3.11561e-05
-0.000879425
0.00117739
-0.000214902
-8.30621e-05
-0.000786543
0.000190342
-6.19113e-05
0.000658112
-0.00129404
9.9722e-05
0.000831901
0.000362416
0.000225038
-0.000307292
0.000171106
-0.000324622
0.000369453
0.000593891
-0.000638722
-0.000336578
-0.000151242
0.000192833
0.000294987
-0.000466739
0.000305243
-0.000589428
0.000750924
0.000140048
1.15121e-05
-0.00103099
-0.000469073
0.000468031
1.0421e-06
0.000495935
-0.0004766
-1.93351e-05
-0.000759082
-5.0307e-05
-0.000201749
0.000186388
-0.00100018
0.00116384
-0.000350043
0.000449968
0.000774155
-0.000984861
-0.000239262
0.000859921
-0.000933956
2.52791e-05
4.87562e-05
0.000457636
0.000118521
-0.000472629
-0.000103528
-0.000718991
-4.30328e-05
0.000948411
0.000426545
-3.088e-05
-0.000520084
0.000124419
0.000480616
-0.00041164
0.000474236
-0.000543212
-0.000819169
0.000154054
0.00111508
-0.00027648
-0.000387086
0.00127964
-0.000616074
-0.000389019
-0.000435345
0.000105373
0.000118038
0.000312529
-0.000819585
-0.000556855
-4.91747e-05
0.000894404
-0.000288374
8.68924e-05
0.000138266
0.000497888
-0.000723046
-0.000259106
0.000634647
-0.000375541
0.000208598
-0.00100595
0.000362011
0.000601337
0.000418492
-0.000901792
-0.000831865
9.96573e-06
0.00103663
-0.00021473
0.000147184
0.000126456
0.00039459
-0.00066823
0.000571273
-0.000575831
4.55806e-06
0.000210631
-7.95485e-05
0.000707092
-0.000838174
0.000758223
-0.000240277
0.000364337
-0.000882283
0.00139351
-0.000449231
0.00104138
-0.00198566
0.000221986
0.000413991
-0.000171637
-0.000464339
-0.000645078
0.00026562
0.000337259
4.21989e-05
0.000460731
-0.000347251
-9.50241e-06
-0.000103977
-0.000287215
-0.000362034
0.00105627
-0.000407023
-0.000517067
0.000672147
0.000266984
-0.000422064
0.000780026
-4.26488e-05
-0.000256761
-0.00118371
0.000782037
-6.50625e-05
-0.00113001
0.00104233
0.000484282
-0.0003966
0.000720671
-0.000811889
-0.000117302
0.000208519
0.000405168
-0.000732424
-0.00038322
-0.000418503
-0.000383805
0.000217336
0.000584973
-0.000597436
0.000185307
0.00058982
-0.000177691
0.000694179
-0.000659714
-0.000455385
0.00042092
4.25684e-06
-6.13831e-06
-0.000663128
0.000665009
1.55621e-05
-0.000567565
-2.1568e-05
0.000573571
-0.000167947
-0.000994197
0.000156647
-0.000574811
0.000516543
-9.83791e-05
-0.000382155
-0.00016107
-5.42111e-05
-1.20518e-05
0.000957731
1.29661e-05
-0.00229256
0.00161356
0.00116584
-0.000486843
-0.000677357
4.58839e-05
2.4296e-05
0.000607177
-0.000133513
0.00214672
-0.00252964
0.000516436
0.000109588
0.00016895
-0.000379127
0.00010059
-0.00145133
0.000782017
0.000100356
0.000568953
-1.69403e-05
-0.00096205
-0.000137362
0.00111635
-0.000388312
0.00144724
-0.00100245
-5.64747e-05
0.000650882
0.000945307
-0.00087492
-0.000721269
-0.000777853
0.000740737
0.000920126
-0.000883011
0.000308116
0.000430501
-0.000536103
-0.000202515
0.000299483
-0.000201997
-0.000479642
-0.00154472
-6.13006e-05
0.00126099
0.000345037
0.000463359
7.29592e-05
-0.000270699
0.000465787
0.000624377
-0.000576337
-0.000513827
-0.00077442
0.000172558
0.000754014
-0.000152152
9.12613e-05
0.000242473
0.000843655
-0.000893401
0.000882218
8.57403e-05
-7.45579e-05
0.000565457
0.000443949
-0.000399169
-1.58055e-05
-0.000112244
0.000527218
-0.000590742
-0.000117352
0.00033386
-0.00112549
0.000475139
0.000316487
3.49776e-05
0.000615058
-0.000682791
3.27554e-05
-0.000231262
4.47144e-05
-0.000214965
0.000401513
0.000950797
-0.000679657
2.83422e-05
-0.000539382
-0.000421979
0.000567454
0.000393907
0.00203923
-0.00218139
0.000712696
-0.000570536
-0.000400784
0.000497826
0.000200728
-0.00029777
-0.000892211
0.000388092
0.00077754
-0.00027342
-0.000385891
0.000561646
0.000722251
-0.000898006
0.00107686
-0.000416499
-0.000709884
4.95265e-05
1.85574e-05
-0.000258426
0.000628583
-0.000388714
-0.000109151
0.000108258
-0.000830973
0.000780123
0.000252557
-0.00083513
-0.000197549
0.000973596
-0.000801689
-0.000214939
0.00020065
0.000294905
-0.000703363
0.000207807
-0.000410728
-0.000750817
0.000668525
0.00049302
-0.000123104
-0.0003194
-9.68775e-05
0.000401566
-0.00042843
0.0009236
-0.000896737
9.70003e-05
-0.00111416
0.00101716
0.000367811
-0.000483804
0.000316643
0.000210123
0.000122913
0.000172755
-0.000505791
-2.24351e-05
-0.000928877
0.000951312
-0.000520013
6.90132e-05
-0.000168616
0.000619616
-6.14784e-05
0.000704882
-0.000642426
-9.7751e-07
-0.000478456
-0.000253002
0.000276109
0.000455349
-0.000178486
-0.000423075
-0.000392915
-0.000577589
0.000481608
0.000488896
2.12111e-05
-0.000592611
0.000997805
-0.000410414
-5.3196e-05
-0.000534195
0.000544855
-5.32287e-05
-0.000397548
-9.40789e-05
-8.74517e-05
0.000761803
-0.000949697
0.000275346
0.000479236
1.85223e-05
0.000233405
-0.000731164
-1.77026e-05
-0.000395573
0.000190988
0.000222287
-0.000280813
0.000364772
0.000703523
-0.000787482
-0.000990995
-0.000250062
-0.000271158
0.000889032
-0.000847933
2.02708e-05
0.000265111
0.000562551
8.18384e-05
-0.000300951
-0.000535588
0.000754701
-0.000399193
-0.000779236
0.000196605
0.000981824
-0.00034969
-0.000386178
0.000401523
0.000334345
-0.000917949
0.000883779
0.000934935
-0.000900765
-0.000127746
-0.000223148
-0.000672005
0.0010229
-0.000923189
8.67664e-05
0.000938415
-0.000101992
-0.00016111
0.000423111
-0.000262001
-0.000372342
0.000688586
-0.0005184
0.000202156
-1.49252e-05
0.00120655
-0.000449268
-0.000742359
-0.000431839
-0.000208213
0.000865622
-0.000225569
0.000139152
-0.000364998
0.000828289
-0.000602443
3.89265e-05
0.000551825
-9.67259e-05
-2.92514e-06
-0.000881132
0.000880787
3.27006e-06
0.00103294
-0.000182926
-0.00150956
0.000659545
-0.000953726
-9.30341e-05
0.00119021
-0.000143453
-0.000515542
0.000779189
6.40219e-05
-0.000327669
0.000452779
-0.000448369
-4.41017e-06
-0.000537909
5.20705e-05
-0.000464601
0.000950439
-0.000774072
0.00106717
-0.000222678
-7.04233e-05
0.000483672
-0.000202792
-0.000582526
0.000301646
-0.000932905
0.000940345
-7.43914e-06
0.000769495
-0.00111864
9.11542e-05
0.000257994
-0.000871474
-0.000238762
0.0014901
-0.000379867
0.000642582
-2.57774e-05
-0.000135432
-0.000481372
-0.000367173
-0.00062285
0.00139159
-6.53419e-05
-0.000918953
0.000555865
0.00141351
-0.00157657
-0.000149676
0.000312737
0.000395587
0.000188658
-0.000437062
-0.000411077
0.000427699
-1.6622e-05
-0.000164954
0.000923027
-5.86172e-05
-0.000699455
-0.00020137
0.000238747
0.000800879
-0.000838255
0.000523534
0.00122963
-0.000719259
-0.0010339
0.000921928
-0.00110613
0.000351588
-0.000167385
0.000815764
1.16623e-05
-0.000827426
1.53417e-05
0.000793909
-0.00080925
0.000897101
-0.00108524
0.000957635
1.00915e-05
-8.34304e-06
0.00069642
-0.000698168
1.79503e-05
0.00127271
-0.00126766
-2.29969e-05
-0.00010851
-0.000321258
-0.000650578
0.00108035
-0.000397074
-0.000237896
7.94546e-05
0.000754263
-0.00130949
0.000475776
-0.000620172
-0.000162464
0.000664766
0.000117871
-0.000751047
0.000829677
-0.000221632
0.000143002
0.000115254
0.000601302
-0.000204429
-0.000512127
-0.000282803
6.70127e-05
0.000488411
-0.000272621
1.80975e-06
0.000233506
-0.000296998
6.16823e-05
-0.000317133
0.000780991
-0.000452411
-1.1447e-05
0.000232516
-0.00073591
-0.000429512
5.44003e-06
-0.000685566
0.000680126
-0.000261467
-0.00025099
0.000116276
0.000396181
0.000375277
-0.000216363
-0.000158914
0.0009603
-0.000953377
-0.000194944
0.000188021
-8.69312e-05
-0.000568288
0.000524022
0.000131198
-2.42807e-06
3.25477e-06
0.000526237
-0.000527064
0.000263797
-0.000216756
-0.000838637
0.000791596
0.000607197
-1.52357e-05
-0.000591962
-0.000866678
-0.000560835
0.000836207
0.000591306
0.000508927
0.000797243
-0.00137151
0.00048219
-0.000173814
0.000272004
-0.00058038
-0.000193503
0.000193381
-0.00106713
0.00106725
0.000301614
-0.000594058
-0.000577115
0.000869558
-6.05751e-05
-0.000133405
0.000629091
-0.000435111
0.000438021
-0.000538362
0.000195044
-9.47027e-05
0.000251346
-0.000416197
-0.000402017
0.000566868
-0.000789839
0.000889211
-0.000236699
0.000137327
0.000913988
0.00117134
-0.00129283
-0.000792502
-0.000696618
0.000693775
2.8431e-06
-7.91625e-05
0.000824035
-0.00102601
0.00028114
3.07923e-05
-5.16101e-05
-0.000791696
0.000812514
0.000759928
3.17945e-05
-0.000874249
8.25267e-05
-0.000340037
-0.000574466
0.00072258
0.000191923
-0.000822452
0.00116557
-0.000412622
6.95045e-05
-0.000323328
-0.000397171
0.000235703
-4.91994e-05
-8.2659e-06
-0.000569083
0.000626549
-0.00185703
7.95537e-06
0.000165531
0.00168354
7.16669e-05
-0.000460298
-0.000239065
0.000627696
0.00116242
-9.5545e-05
-0.000376447
-0.000690432
-0.000199406
-0.0004384
8.07828e-05
0.000557024
0.000333461
-1.16479e-06
-0.000332296
0.000547095
0.000291421
-0.000181462
-0.000657054
0.000422927
-0.000334819
0.000833438
-0.000921546
2.66149e-05
0.000866991
-0.000286682
-0.000606924
0.000210685
0.000300953
0.000650786
-0.000404551
3.09368e-05
0.000373614
-0.000529683
7.60584e-05
0.000139807
8.82385e-05
-0.000728431
0.000500385
-0.000706567
0.00103395
0.000313314
0.00106856
-0.000226707
-0.00115517
-0.000679499
0.000664652
-0.00105335
0.00106819
-9.9268e-05
-0.000497112
0.00017408
0.0004223
-0.000559372
0.00106127
0.000317985
-0.000384302
9.14013e-05
-2.50844e-05
-0.000348562
-0.00111005
0.000347298
0.00111131
0.000728929
-0.00072746
-6.58664e-06
5.11768e-06
0.000586863
-0.000685727
0.000145592
-4.6728e-05
0.00015103
0.00059233
-0.00105504
0.000311678
2.55017e-06
0.00049647
-0.00049902
0.000329734
-0.000844474
0.000665771
-0.000318994
0.000856525
0.000721554
-0.00125908
0.000242327
-0.000247981
-0.00114969
0.00115534
-0.000348358
0.000576392
-0.00115625
0.000928213
-0.000825518
0.000657264
0.000861731
-0.000693477
-0.00050623
0.00069327
-0.00044794
0.0002609
-0.000111717
0.000486455
7.94472e-05
-0.000454186
0.000235866
-0.00034361
0.000354146
-0.000246401
0.000465564
0.000173345
0.000153302
-0.000792212
0.00129601
-0.000879184
-5.34901e-05
-0.000363333
-1.77979e-07
-0.000628207
0.000628385
0.000395255
-0.000576785
-0.00176863
0.00195016
-7.89927e-05
-0.000856773
-0.000259521
0.00119529
-5.07089e-05
-0.000384375
0.000435084
0.000119759
0.000568771
-9.04189e-05
-0.000598111
-0.000155474
-0.00056111
0.000452951
0.000263632
0.000454422
-0.00038081
-0.000668493
0.0011315
-0.000880755
0.000255099
0.000269825
-0.000524924
0.000857352
-8.65059e-07
-9.81789e-05
-0.000758308
-0.00016748
-0.000285189
0.000452669
0.000297622
0.000197135
0.00170918
-0.00205619
-0.000725305
0.00107231
0.00025641
0.000546336
-0.000417887
-0.000384858
-0.000598029
0.00114598
0.000760412
-0.00130836
0.000673868
0.000233873
-9.01642e-05
-0.000817577
0.00109101
-0.000727385
0.000469405
-0.000833034
-0.00062337
0.000285221
-0.000780835
0.00111898
-0.00101776
0.00182415
-0.000714725
-9.16614e-05
-2.8984e-05
-0.000423953
-0.000585046
0.00103798
0.000824698
0.000341003
-0.000968169
-0.000197532
0.000442489
-0.00118028
0.000744704
-6.90835e-06
-0.00104172
-3.94686e-05
0.000681269
0.000399922
-0.000208276
0.000540135
0.00023529
-0.000567149
-0.000132608
0.000531044
0.000427503
-0.000825939
-0.00108536
0.000558602
-5.26526e-05
0.000579408
9.53995e-05
-0.00028788
0.000574468
-0.000381987
0.000470383
-0.000236659
0.000167904
-0.000401627
0.000445836
8.49285e-05
4.36785e-05
-0.000574443
-0.000642909
0.00069001
0.000255392
-0.000302492
-0.000155618
0.000835087
1.66611e-05
-0.00069613
0.000674871
-0.000396028
-0.000261804
-1.7039e-05
0.000568524
3.80834e-06
-0.000572332
0.000416159
0.000322308
-7.30664e-05
-0.000665401
0.000199349
0.000525231
0.000448259
-0.00117284
-5.76467e-07
-0.000941949
0.000942526
-0.000492683
0.0019045
-0.000277228
-0.00113459
-8.02153e-06
0.000709127
-0.000701105
-4.64353e-05
-0.000500038
8.9756e-05
0.000456717
-0.000927743
0.000471891
0.000360643
9.52097e-05
0.000189304
0.000157552
-0.00108606
0.000739202
0.000541732
0.000855818
-0.000319839
-0.00107771
0.000834592
-0.000286656
-0.000798975
0.00025104
-0.00104132
0.000593908
0.00158718
-0.00113976
-2.76098e-06
0.000408537
-0.000408501
2.7252e-06
-0.000421739
0.000417302
4.43764e-06
-0.00105985
1.6088e-05
0.000445737
0.000118793
0.000256121
0.000701124
-0.00107604
0.000538062
-0.000639187
0.000412977
-0.000311853
-0.0005413
0.000474036
-1.78997e-05
8.51636e-05
-0.000106568
-0.00088209
0.00112601
-0.000137348
-0.000399584
0.000192386
0.000632552
-0.000425354
0.000677
-0.000261523
9.96312e-05
-0.000515108
-0.000438582
-7.63551e-05
0.000513373
1.56386e-06
-7.90622e-05
-4.21109e-06
0.000751104
-0.000667831
9.23362e-05
-7.85648e-05
0.000733671
-0.000747442
-0.000660354
0.000924095
-0.000968593
0.000704852
4.91786e-06
-0.000830677
0.000825759
-0.000296247
2.55781e-05
0.000747169
-0.000476501
-0.00055671
0.000650838
-0.000887488
0.00079336
-0.000572235
4.40409e-05
0.000171569
-0.000270866
0.000731553
4.09312e-05
-0.000501617
-0.000193063
2.75029e-05
-0.00032277
-0.000288578
-0.000934627
0.000939172
0.000284032
-0.000415404
-4.89828e-05
-0.000104155
0.000568542
-0.00142865
0.000482571
0.000142671
0.00080341
-0.000439119
0.00103461
-0.000520456
-7.5033e-05
0.000306436
0.000120283
-0.000619782
0.000621026
0.000632995
-0.00125402
8.42668e-05
0.00136155
-0.000313806
-0.00113201
-1.77205e-05
-2.48494e-05
-0.000615942
0.000658512
-0.00065593
0.00107991
-0.000434565
1.05875e-05
0.000621859
-0.000392477
-0.000563632
0.00033425
0.000158488
-2.11915e-05
0.000194229
0.000953016
0.000261979
-0.00137403
0.000159036
-0.000661033
-8.56122e-05
0.000216809
0.000529836
0.000244687
-0.000274119
-0.000367738
0.00115189
-0.000774951
0.00060249
-0.000979428
-0.000127827
0.000743167
-0.00128475
0.000669408
0.000446097
-0.000563721
-5.71798e-05
0.000174804
-0.000482544
-0.000167829
-1.6347e-05
0.00066672
-0.000367369
-0.000347444
0.000714813
9.24916e-05
-0.000988962
0.000876815
1.96556e-05
0.000378052
-0.000364653
-0.000380768
-0.000612971
0.000776808
-0.00014857
-1.52669e-05
0.000868477
0.000238016
-0.000934476
-0.000172017
-0.000337256
-0.000494105
-5.67819e-05
0.000888143
0.000574637
-0.000174604
0.000666219
-0.00106625
-0.000625008
-3.53461e-05
-0.00074731
0.000399867
9.42518e-05
-0.000819803
0.000262142
0.00046341
0.000243838
-0.000873335
0.000480273
0.000149224
0.000129437
3.48796e-05
-0.000652656
0.000488339
9.73157e-05
0.000421472
-2.95932e-05
0.000753992
-0.000149081
-0.000575317
-0.000294098
-3.27171e-05
-0.000275548
0.000602363
-0.00017514
-0.000235876
0.000451042
-4.00268e-05
-0.000683734
-8.96002e-06
-0.00115377
0.000413914
0.000607244
0.00164242
-1.35483e-05
0.000224275
-0.00185314
-0.000717385
0.00111539
0.000225937
-0.000623944
-0.000204473
0.000111278
0.000706209
-0.000613014
8.37744e-05
0.000237665
-0.000183899
-0.00013754
-0.00123272
-0.000254193
0.00106631
0.000420603
2.78348e-05
0.000534047
-0.00010746
1.60748e-05
0.000262735
-0.000824549
0.000545739
-0.000499024
-1.74635e-06
0.000183967
0.000316803
-0.000716529
0.000885263
-0.0001409
0.000403155
-0.000363371
-3.97838e-05
-0.000581178
8.38742e-05
-0.000453173
0.000950477
-0.000269326
0.000405074
-0.000312232
0.000176484
-0.000579627
0.000652197
-0.000269424
0.000196854
0.000251584
-4.18368e-05
-0.000586618
0.000376871
-0.0002594
0.00162705
-0.0021901
-0.000225179
-0.000157302
0.000153983
0.000228498
0.000753373
-0.00117719
-5.35192e-05
0.000477333
-0.000311577
0.000232377
0.00040079
-0.000321591
-9.38481e-05
0.000492843
-0.000134979
-0.000264016
-0.00055404
0.000122992
0.000129534
0.000301514
-0.000322634
2.76818e-05
0.000294952
0.000711176
-0.000338649
-0.000360767
-1.17598e-05
5.45821e-05
0.000371348
-0.000563704
0.000137774
-0.000380688
-0.000461129
0.000470291
0.000371526
-0.000202106
0.000519949
-0.000445486
0.000127643
0.000183979
-0.00034842
0.000240024
-7.55829e-05
0.00068313
1.94081e-05
-0.000702538
0.000588641
-0.000725556
0.000359383
-0.000222468
-0.000921078
-2.62407e-05
0.000947318
0.000372395
-0.00030891
7.2068e-05
-0.000135553
-3.09387e-05
0.000654408
-0.000713096
8.9627e-05
-0.000320785
0.000401605
0.000103159
-0.000373228
0.000799785
0.000739012
-0.000619742
0.000614256
5.48602e-06
1.43494e-05
-0.000982695
0.000968346
0.00132818
0.000159347
-0.000282901
-0.00120463
0.000275849
-0.00108182
-0.000132362
0.000938335
0.000205808
0.000242832
0.000139375
-0.000588015
-0.000372103
-0.000372779
5.68666e-06
0.000739196
-0.00017731
0.000243535
-0.000438328
-0.000817496
0.000147771
0.00107293
-0.000403205
-0.0016038
0.00117432
0.000517517
-8.80383e-05
0.00070821
5.83514e-06
-0.000714045
-0.000411289
-0.000553448
0.000357846
0.000606891
-0.000404678
-0.00058805
0.000175232
-0.000574162
0.000312353
0.000359125
0.000236972
-0.000308468
-0.000564983
0.000636478
-0.000389913
2.65341e-07
0.000389648
-0.000931864
0.000377984
0.000384925
0.000168955
0.000229659
-0.000617243
-0.000186579
0.000799615
-0.000253791
-2.0035e-05
-0.000525789
-0.000536118
0.000889331
0.000527898
-0.000881111
-0.000163272
-0.00033835
0.000129721
0.000371901
-0.000220821
-0.000177617
0.000398438
-0.000394296
-0.000828872
-0.000380633
0.000189498
2.42627e-06
0.000382593
-0.000574517
0.000760439
-0.000554198
-0.000800101
0.00059386
-0.000281945
0.000100771
0.000570044
-0.000388869
0.000522655
-0.000367889
-5.19232e-05
-0.000102843
-0.000598827
9.71901e-05
0.000467869
3.37685e-05
-0.000369981
0.000848417
-0.000925152
0.000360782
2.67613e-05
0.000537609
0.000879533
-0.000709464
-0.000550107
0.000380038
-0.000705102
0.000146797
0.00131874
-0.000671003
-0.000442937
0.000721987
0.000391953
-7.88477e-05
0.000698257
-0.000264745
-0.000354664
4.06805e-05
-0.000420406
-0.000277746
0.000657472
0.000795179
-0.00052447
-3.23064e-05
-0.000238402
0.00025149
0.000187612
-0.000616413
-0.00016716
0.000189116
0.000466671
-0.000488627
-0.00014244
0.000739731
-0.000911266
0.000313975
-0.000454606
0.000109602
0.000110067
0.000234938
-0.000972639
0.00098879
-1.61511e-05
0.000665179
-0.000655376
-9.80273e-06
0.000270056
-0.00104291
-0.000400632
0.00117349
0.000238778
0.000454759
0.000106079
-1.1136e-05
0.000387572
-0.000376436
0.000633224
0.000567819
-0.00120104
-0.000691323
0.000422004
0.000298343
-2.90244e-05
-0.0003883
0.000127986
0.000315628
-5.53145e-05
-0.00118706
0.000554249
0.000651333
-1.85183e-05
-0.000375927
-0.000419589
0.000405603
0.000609007
-9.6336e-05
-0.000391871
-0.0001208
-0.000638787
0.000688491
-0.000419684
0.000116077
-0.00073658
-3.66387e-05
0.000657142
-8.48405e-07
-0.000368351
0.000369199
0.00177688
1.21083e-05
0.000190277
-0.00197927
-6.83273e-05
-0.000133925
-0.000985871
0.00118812
0.000302886
-0.000410026
-0.000189492
0.000296632
0.000120327
0.000917456
-0.000371697
-0.000666086
0.000999824
-0.000999864
-1.94781e-06
1.98804e-06
-0.000562235
-0.00050717
0.000792715
0.000276691
0.000327501
0.000249979
-0.000652106
7.46254e-05
4.76647e-06
0.000608145
-0.000621571
8.65992e-06
-0.000836274
0.000268566
0.000677647
-0.000109939
0.000626253
0.00037826
-0.000633786
-0.000370727
1.53539e-05
-0.000572823
0.000289476
-0.000148715
0.000859063
-0.000452537
-5.88848e-05
-7.06046e-05
0.000582026
-0.000776077
4.16499e-05
0.000734427
0.00113244
0.000486918
-0.000366158
-0.0012532
-0.000739165
1.58881e-05
0.00073863
-6.5918e-05
-0.000171299
-0.000438361
0.000675578
-7.99672e-05
-8.87564e-05
-0.000239057
0.00040778
0.000186098
-0.000944246
0.000711932
4.62161e-05
0.000582978
-9.16925e-05
-0.000566833
7.55469e-05
-0.000703532
0.000141421
4.34658e-05
0.000518645
-0.000274235
0.000181922
-0.000382355
0.000474668
0.000158681
0.00010312
-0.000936671
0.000674871
3.30913e-05
-0.000634202
-4.46232e-05
0.000645734
0.000627638
8.23668e-05
-1.09261e-05
-0.000699078
-0.000750549
0.000174776
0.000679313
-0.000538428
-0.000714779
0.00125321
0.00102933
-0.000522381
0.000226203
-0.000733156
8.14445e-05
0.000573791
-0.00035235
-0.000839148
0.000151115
0.000300032
0.000388001
0.00103537
-0.00107285
3.74831e-05
-0.000643006
-0.000218003
0.000449927
0.000411083
-0.000816843
-0.000634306
0.00042536
0.00102579
0.000831226
-0.000868203
-0.000106476
0.000143453
-0.000120135
0.000404092
-0.000318726
3.47695e-05
-0.00106544
0.000347695
0.000244621
0.000473124
-0.00155679
0.00192603
0.000332744
-0.000701992
0.000690582
-0.00150803
-8.56568e-05
0.000903101
-0.000622265
0.000803251
-0.001475
0.00129401
-0.000644298
0.00140971
0.000144054
-0.000909468
5.76526e-05
0.000681484
-0.000159405
-0.000579732
0.00103612
-0.000777036
-2.61345e-05
-0.000232952
-0.000178083
-0.000170858
0.000261284
8.76569e-05
-0.000479727
-0.00100573
0.000861178
0.000624282
-0.000694552
0.000925015
0.000805659
0.000578369
-0.000425071
-0.000529817
0.000376519
0.000204256
-0.000264338
-0.000116763
0.000176845
0.000451574
-0.000446442
-0.000595972
0.000590841
-0.000183446
0.00052636
-3.81404e-05
-0.000304774
-0.000743731
-0.000118961
0.000920344
-0.000549942
-0.000135171
0.000679847
5.26608e-06
0.000234863
-0.000524739
0.000289876
0.000183486
-0.000243821
0.000906524
-0.000846189
0.000707396
-0.000996227
0.000144759
0.000144072
0.000459866
-0.000495291
3.5425e-05
-0.000713927
1.93755e-05
0.000626971
-0.0002394
-0.000605545
0.000217974
0.000200932
0.000162593
0.000711938
-0.00107546
0.000450419
-0.000488843
3.84239e-05
-5.30269e-06
0.000543006
-0.000613849
7.61451e-05
-0.000784166
-7.58164e-05
0.00104347
-0.000330872
-5.66349e-05
7.646e-05
0.000311047
4.57109e-05
-0.000378317
0.000279185
5.34204e-05
0.000620032
-0.000593544
-0.000146623
7.24897e-05
0.00104529
-0.000658201
-0.000459577
-0.000358634
0.000752897
-0.000394264
-0.000974621
0.000373302
-0.000228394
0.000829713
0.000768765
-0.000696284
-0.00113792
-0.000382124
-0.000456617
0.00157007
-0.000731334
-0.00109758
0.000698449
0.000995778
-0.000596645
-2.39739e-05
-0.000933785
0.000957758
0.00148517
3.60325e-06
-0.000856046
-0.000632728
0.00086037
-0.000554201
-7.52837e-05
-0.000230886
-0.000626545
0.000442534
-0.000109349
0.000293361
8.39805e-06
-0.00064244
0.000634042
-0.000461614
0.0004751
-1.34868e-05
-0.000342274
-0.000362505
-0.000928489
0.00163327
-0.000874365
0.000190682
-9.76149e-05
0.000781297
0.000207071
0.000335909
0.000894874
-0.000807352
-0.000668016
0.000580494
-0.000248987
-0.000512506
0.000565192
0.000196301
-0.000517392
-0.000263291
0.000781407
-7.2393e-07
0.000168669
-9.70786e-05
-0.000477098
0.000405508
0.000571146
2.51695e-05
-0.000730112
0.000133797
0.000176398
-0.000122644
0.000193085
-0.000232892
0.000231922
-0.000192115
0.000468165
0.000457955
-0.000468015
-0.000458105
0.000228486
0.000533166
-0.000552079
-0.000209573
0.000476801
0.000206747
-0.000377112
0.000603585
-0.00073185
0.000153434
-0.000801057
0.000560329
0.000301121
-6.03925e-05
0.000936467
-0.000312176
-0.000982924
-0.000255873
0.000681873
0.000342766
0.000663549
-0.000323254
-0.000558571
-0.00015232
-9.01668e-05
-0.000892566
0.000834985
7.87897e-05
-2.1209e-05
-5.56509e-05
0.00111405
-0.000115576
-0.000942824
-0.000730229
0.000148879
0.000325477
-0.000114021
-0.000719138
0.000202248
0.000630911
0.000666415
9.25984e-05
-1.88913e-06
-0.000757124
-0.000993063
-8.411e-06
6.44787e-06
0.000995026
-0.00026161
0.000282958