/*--------------------------------*- C++ -*----------------------------------*\
  =========                 |
  \\      /  F ield         | OpenFOAM: The Open Source CFD Toolbox
   \\    /   O peration     | Website:  https://openfoam.org
    \\  /    A nd           | Version:  10
     \\/     M anipulation  |
\*---------------------------------------------------------------------------*/
FoamFile
{
    format      ascii;
    class       volScalarField;
    location    "32";
    object      SgRate;
}
// * * * * * * * * * * * * * * * * * * * * * * * * * * * * * * * * * * * * * //

dimensions      [1 -1 -3 -1 0 0 0];

internalField   nonuniform List<scalar> 
111485
(
1.39345e-09
0.00902454
0.0210346
5.83619e-12
0.0450148
2.50462e-09
0.0416961
0.00587408
0.018381
0.00112858
0.0418874
0.0091603
0.00425388
0.00600699
0.00592695
0.0316516
0.00496997
1.99817
0.0100191
2.52225e-08
0.000692771
2.32843e-10
0.0234717
0.0355122
0.0084758
2.1793e-09
0.0400967
0.00174239
0.0159395
0.00090259
0.0435055
0.0173667
6.31696e-09
2.5554e-08
0.00968488
1.80201e-06
0.0129471
0.00751535
4.27207e-05
0.021578
0.00072233
0.0720089
0.0144328
0.00100022
3.69544e-05
3.90992e-08
0.0328157
0.000720043
0.0475726
1.45432e-08
2.90364e-08
3.58436e-07
1.03484e-08
0.0444606
3.48147e-08
0.0430213
0.00355085
4.18562e-10
2.79156e-05
0.00449316
0.0149369
5.81868e-09
0.00402017
0.0885169
1.4995e-07
0.00359278
0.300847
0.0973262
0.000922956
0.00512248
7.5714e-06
0.00547701
2.16275e-07
0.00244739
5.78011e-09
0.000636478
1.10704e-09
0.0425241
1.98245e-09
4.74042e-07
0.00501933
0.0408269
9.26762e-10
2.18058e-09
0.00812873
0.00442594
0.00249498
0.0225334
5.09219e-05
0.00679841
0.000867199
0.0410869
0.0103437
6.03497e-05
0.0559758
4.24164e-10
0.00050505
0.00145171
3.03413e-05
0.00148718
6.33962e-10
0.0195088
3.54574e-08
0.0214744
0.00483048
2.55306e-07
1.91689e-10
0.00747525
0.00318806
1.18907e-05
0.00561097
0.00506625
0.00313811
0.00264451
5.61001e-09
3.05418e-05
1.56622e-09
1.64877e-07
0.0113635
1.58711e-10
1.14382e-09
3.36103e-06
0.00124904
4.51686e-08
0.00233818
0.000533249
1.9793e-06
0.00149962
1.75704e-11
0.00017852
0.000990682
0.0280599
0.00088479
3.17058e-06
1.47438e-06
0.0491651
2.00648e-10
0.0409911
0.0225402
0.00256563
0.000173362
0.00187025
0.0236309
0.00310657
0.003795
0.0122189
2.30771e-10
8.27078e-10
2.22162e-09
0.0262437
0.00183087
0.000530759
0.00197851
0.00503647
1.66951e-06
0.010622
0.0154981
0.00943354
1.63398e-05
1.09077e-07
6.98707e-11
0.0526895
0.025232
6.2951e-06
1.58311e-06
0.00519327
0.00369214
0.000451772
3.74568e-05
6.80988e-05
4.09152e-11
2.10764e-09
0.00362263
2.73929e-11
0.0061232
0.002269
8.16207e-09
1.62364e-07
4.08017e-09
1.00276e-07
1.48696e-07
4.99705e-09
0.00133978
0.00671627
0.0276824
0.00417105
0.00642146
0.00356955
0.000101379
5.55083e-09
0.00425491
9.08281e-08
1.31601e-07
0.00582303
0.0110735
0.0228089
0.0103203
0.00467255
2.00857e-08
0.00604686
0.000573653
7.32208e-05
0.0111847
0.00230684
3.05502e-08
0.00325512
0.0275347
2.01568e-07
0.000230416
0.006527
0.00228094
0.000309531
1.4153e-07
1.18334e-10
0.00729021
5.05622e-06
0.123839
2.89427e-10
0.00601804
0.0189938
0.121838
1.35317e-09
0.00267483
0.0120008
5.05292e-06
1.1635e-10
2.22042e-11
0.166615
7.41986e-05
4.09599e-07
1.72509e-06
0.0091119
0.00846558
0.0185384
6.51884e-07
2.29913e-07
0.00285505
1.38492e-09
0.00272598
0.0083239
0.0149378
0.0107962
0.0091624
7.49332e-08
3.31988e-05
0.000567008
1.44423e-07
1.4855e-09
0.0306936
0.0238511
3.57168e-07
0.00558371
0.00980127
2.53015e-11
3.6342e-06
0.000153228
5.71257e-09
1.20642e-06
0.00184385
1.55909e-09
0.0156084
0.011727
0.00337552
6.55589e-11
0.010987
1.61628e-11
9.67409e-10
1.24519e-08
0.00297145
0.0225575
0.00553445
0.00466282
0.0400775
0.0109692
0.00150009
0.000594636
0.0340813
0.00942885
9.42513e-09
1.83071e-09
0.00203538
0.0220532
0.0215214
0.0128349
2.77184e-11
0.0101589
0.00661951
0.00276169
1.24063e-05
4.95179e-06
0.0122025
0.00211703
0.00186514
1.64559e-10
0.000778754
3.18394e-10
6.84804e-06
4.94514e-06
0.266441
0.0682787
0.0198972
6.05504e-09
0.00144089
0.00831174
0.00187573
2.2785e-10
2.20238e-09
0.000461977
0.000392125
0.0622959
0.00333732
0.0154494
0.0182921
4.58072e-07
7.73286e-10
3.91383e-09
0.00351518
7.30084e-05
0.00573603
0.18709
1.44372e-05
1.75579e-10
1.02488e-09
4.49145e-10
1.49677e-06
0.0574051
0.0123204
5.71652e-08
0.00485883
1.32007e-06
0.00112863
0.0671634
0.00538115
0.0107282
0.00855111
0.000795712
9.29775e-07
1.07582e-08
0.00871903
0.018932
0.00468063
2.6942e-09
0.0026475
0.000229498
0.00178033
0.00734034
6.82004e-05
0.0284688
0.000652053
0.0370404
0.00315795
0.0078494
0.0230862
0.0147322
1.75632e-07
6.85692e-09
9.12819e-09
1.93007e-08
0.0321089
0.0149035
0.0370877
0.0669798
0.00088231
0.0201546
4.20176e-10
8.7753e-09
0.0161237
0.000880171
0.0397824
0.000856222
0.000824261
0.0237425
2.16558e-10
0.0141265
0.00033543
3.45572e-11
0.00112271
0.0150642
2.82065e-07
0.00797782
0.0106779
0.00739258
0.000447697
0.00291341
0.00611362
8.96862e-07
1.2298e-08
0.00137648
5.51639e-09
0.00500486
0.112
0.000503739
1.99467e-09
0.0256048
0.00284805
0.00759861
0.0278472
7.80756e-09
0.0389874
0.0197522
1.31865e-10
0.000696085
0.00282029
1.69863e-09
0.000596817
0.0118151
0.00487878
1.66372e-08
3.24872e-10
1.31606e-05
3.46035e-10
0.0105536
6.68787e-08
1.27838e-12
0.0177185
3.38796e-06
0.0189616
0.0266873
3.90991e-11
1.4403e-06
0.00108463
1.7795e-06
0.000108461
0.0108328
0.121704
0.905652
9.73868e-07
0.00619282
0.000238406
3.84954e-09
0.0350272
0.0331195
1.94483e-09
2.43494e-05
0.000112498
1.38921e-06
0.0257039
0.0268853
0.0128256
3.64882e-09
0.00674585
0.0205918
0.02134
8.5042e-05
1.68476e-06
2.50625e-05
1.23007e-09
0.00451399
0.037668
4.13445e-10
0.00958038
7.33305e-05
2.00345e-06
6.19389e-11
4.8022e-07
4.37719e-10
0.00929694
0.00957664
0.00711601
0.00244345
0.00339132
4.64939e-09
0.00228222
1.35143e-08
0.0356412
2.93176e-09
1.79433e-08
0.000977564
0.0317936
1.78925e-09
2.06938e-09
7.64093e-06
1.54058e-09
3.14535e-08
0.000875494
6.74831e-11
1.0612e-06
1.66761e-09
0.00138475
8.47694e-09
4.47079e-08
3.12627e-09
0.00816122
8.87439e-09
0.00436214
0.00166325
0.00681387
4.92171e-10
0.000625577
4.68537e-08
6.04832e-11
0.00957706
0.00456836
0.0294075
0.0222198
5.65113e-07
0.00187028
0.0726653
0.00843068
0.00110874
0.00873123
1.05626e-09
0.0224531
1.94991e-06
0.00428242
0.000986902
0.0691069
2.01046e-06
0.0210371
0.000323388
1.31147e-05
0.00136538
0.00231349
9.69799e-09
0.0759292
0.0443116
6.0323e-08
2.30988e-08
4.04832e-07
2.10612e-11
3.07837e-05
0.054595
6.52369e-09
4.78972e-09
0.00288243
5.00048e-10
0.0304103
4.11977e-09
0.000351207
1.26816e-09
0.00263871
0.00198926
0.00112253
0.0124303
0.00108549
0.00172132
5.65961e-09
4.16545e-09
0.0162753
3.84978e-09
3.8424e-05
2.92494e-07
0.00147655
0.000795456
0.0661604
9.24184e-11
8.2528e-07
0.0121558
0.00387924
0.00150451
0.00430892
0.00591045
0.0208848
1.87723e-08
0.0207365
0.00708379
1.536e-10
0.00225858
0.0314571
0.012553
3.4474e-08
0.00551734
0.00543714
0.00128613
0.00143402
6.15095e-06
0.0137992
0.000985612
0.000166815
0.0267724
0.0161623
0.00109698
1.31328e-06
6.52994e-05
0.621524
5.94383e-09
0.000419636
8.13619e-08
6.15956e-07
0.00731388
0.00364706
4.96578e-05
1.77317e-05
2.97167e-06
0.0185154
0.00995233
6.25898e-09
3.42242e-06
0.0020417
1.45133e-09
5.31086e-11
9.04713e-09
7.6709e-10
0.015249
3.00661e-11
0.000651099
0.00987544
0.0023873
0.00181334
0.0150006
1.01751e-06
0.00860388
0.000691464
6.91664e-10
0.0571393
3.30387e-09
9.91203e-09
8.02673e-07
0.00488515
0.00208428
0.0328304
0.00643328
6.43758e-08
0.0727184
0.00536048
0.0261393
0.0235891
0.000930974
0.00354587
0.000696071
0.0569186
0.0416076
1.31936e-07
0.000308941
0.0361903
0.00707089
0.00154073
0.02444
0.0237598
2.15242e-08
0.0104708
1.64341e-05
5.48715e-07
0.0319732
0.000299366
1.22989e-05
0.0110009
0.0387705
0.00158844
0.0185336
0.0168399
0.00708185
6.87512e-08
0.00922448
0.00040069
3.15126e-06
0.0144621
0.014898
0.0348823
9.51169e-09
0.00209758
9.93213e-08
2.1266e-09
0.00129589
6.32424e-10
0.00243035
1.01323e-06
0.000233614
1.30992e-08
0.000492525
5.122e-05
0.0396562
3.26098e-10
0.0366182
6.00017e-09
4.14047e-10
2.01094e-08
0.0446298
0.000498614
5.68298e-07
0.000762504
2.27697e-09
4.17047e-10
0.238188
0.0683858
1.48822e-06
0.00177187
7.07794e-06
6.48513e-10
0.0349101
0.00649743
0.0160205
9.19327e-12
3.68234e-09
0.000393083
0.00106993
2.27233e-06
9.11132e-09
0.00104524
0.00705827
1.1291e-09
4.48097e-09
0.000759283
0.0384901
0.00161759
1.86506e-11
4.1214
0.142919
0.0141752
2.53222e-10
2.55621e-09
0.056784
0.000305101
7.53571e-07
1.71765e-05
0.170113
0.00291662
0.0119171
0.00105399
0.0578099
0.00152054
1.45572e-09
2.46211e-08
4.93713e-09
3.77103e-09
1.14108e-09
2.62746e-11
0.0193271
1.36198e-09
8.43935e-09
1.89399e-08
0.0119249
0.0234732
4.71967e-09
1.48001e-08
0.10567
0.0133441
0.00881155
8.78224e-09
7.23392e-10
0.0345976
2.15162e-11
0.00227802
0.00240971
0.00353761
2.96385e-09
8.63372e-11
2.25873e-10
4.53362e-11
0.0158592
2.08874e-09
1.18395e-08
0.000816794
2.21734e-10
0.0210855
0.00140775
6.86399e-08
0.0359097
0.599875
0.00234826
0.0338616
0.000202215
0.0480039
0.00376534
1.47976e-06
0.0218641
0.0766427
0.00617406
3.45097e-07
0.00169276
0.517776
0.00989239
3.91449e-09
0.00291608
0.00313748
0.00143621
1.36393e-06
7.55893e-11
4.74044e-13
0.0126387
6.73466e-07
0.00232413
6.94902e-08
0.00145795
0.00128598
0.0342743
0.000536192
2.85876e-09
0.000558339
2.00922e-07
0.0197506
2.08928e-09
8.90269e-07
4.48329e-05
3.38362e-08
8.19119e-09
0.000759993
3.61796e-11
0.00896186
0.00106067
6.46981e-10
0.00125278
7.65095e-07
0.000617688
8.86146e-06
5.5356e-09
3.78283e-06
0.0015159
0.000852495
0.00333397
3.49147e-05
0.00285775
8.74871e-05
0.00438091
2.11228e-08
1.00817e-05
0.0178034
0.00323296
3.18658e-09
0.00418709
0.000751439
2.94823e-06
0.00888467
0.000300866
2.27954e-05
0.0253038
0.00865804
0.002161
0.00553316
0.00197692
0.000765769
3.70601e-09
0.0300842
0.0243501
9.86685e-10
0.00776265
0.0575151
0.0277287
6.19277e-09
0.00166947
8.16359e-10
0.0102763
0.0171974
7.82381e-09
0.00457142
0.00646546
2.43744e-05
0.00449183
1.88997e-08
0.0471547
2.03842e-05
0.0018655
6.06352e-05
1.91662e-05
7.88618e-08
0.000762802
0.00833473
5.97455e-10
9.58047e-05
0.000334062
2.24064e-05
8.41797e-06
1.61022e-05
4.29723e-06
1.06029e-10
1.30584e-06
0.0216822
1.38056e-08
0.00118536
0.00848861
4.3464e-09
5.61053e-09
5.794e-05
6.24722e-05
4.19865e-11
1.45273e-05
9.8793e-09
2.28762e-10
3.46041e-10
7.70223e-09
1.06356e-07
8.23824e-09
0.000332098
0.000856334
5.60343e-11
1.36593e-08
8.37866e-05
0.00212681
0.00204275
0.00912064
0.000544609
6.93145e-11
0.000235195
5.35184e-10
8.53898e-10
1.07679e-05
0.0217793
0.0407633
2.00181e-09
3.26888e-09
0.000593827
8.50245e-09
0.000388429
4.64665e-09
0.00845659
1.37438e-10
3.86558e-05
0.0269209
4.29167e-11
1.79251e-08
9.77286e-09
4.25547e-05
1.62118e-08
3.51753e-09
3.52936e-08
9.0957e-05
0.000907105
0.00530416
1.15443e-05
2.03995e-05
4.01339e-09
6.9273e-05
0.0026043
0.0434741
4.96081e-08
9.79929e-06
0.00721682
4.6125e-09
1.56956e-07
2.78484e-06
4.13913e-09
0.00789267
0.00174797
0.00396138
0.00125649
9.57618e-11
0.0222378
0.00101243
2.11957e-06
1.36148e-06
2.91719e-10
0.0252871
2.85473e-09
1.95555e-08
3.08184e-06
0.0488128
1.7772e-08
0.00300186
4.42131e-07
0.00112559
3.93005e-07
9.28352e-11
6.24095e-08
7.99533e-11
0.00265625
0.000685023
0.339237
3.63912e-09
8.60223e-09
0.00213976
9.08274e-11
7.76962e-07
9.30498e-09
0.0422446
2.0898e-05
0.0286878
4.80088e-09
3.34005e-05
3.17855e-05
1.33112e-06
7.23143e-05
8.8573e-10
0.00182615
0.0276387
0.0220755
0.00164581
0.000328718
8.95127e-09
1.29374e-11
1.28618e-09
0.00329857
0.00125597
0.00544537
8.16751e-12
0.175989
6.46308e-10
0.0447373
0.00354478
1.52407e-08
2.53377e-09
4.85604e-08
1.55982e-08
0.0313289
4.4118e-08
2.10173e-06
0.0184849
0.00535877
1.29481e-06
5.3176e-07
1.34005e-06
9.28777e-07
7.86721e-09
1.16067e-11
0.0204001
0.000520446
4.74675e-09
3.75863e-09
1.1101e-05
6.8437e-09
0.00132832
0.00749419
2.72103e-08
0.00271243
1.19974e-11
0.000332506
3.79017e-09
0.00673108
3.89806e-10
0.00214967
0.00010745
0.000878796
0.0143965
0.0274119
1.88248e-05
4.60176e-08
0.000452559
4.83432e-08
0.00436286
1.29312e-08
3.8299e-08
1.52616e-06
5.6442e-08
0.00118882
4.63505e-09
0.00569312
0.00627711
9.34613e-11
7.34171e-06
4.58398e-09
0.000534796
3.17253e-05
2.34852e-09
0.0184352
0.000214248
9.75193e-09
0.0224969
0.0113311
0.00331713
0.0134473
1.33282e-10
0.000778553
1.59044e-07
1.22215e-08
0.0362538
8.10081e-08
0.103819
1.41657e-09
0.00292162
0.000729172
5.05085e-11
0.000671718
8.18962e-09
1.35718e-10
0.00227273
1.59364e-05
0.00591947
4.39383e-10
3.41062e-08
8.42516e-10
0.000694597
8.68359e-07
0.000643251
1.06423e-07
1.49407e-05
1.25535e-06
3.25399e-05
5.25594e-07
5.38783e-08
2.19902e-08
0.0178165
0.0095741
0.017685
0.0343207
0.000820171
1.49301e-05
0.000801461
4.27032e-11
0.0107537
1.7961e-09
4.52701e-06
0.000257243
0.00629548
0.000241361
8.83891e-06
0.00242657
1.5422e-11
0.000116156
0.000144114
9.50666e-05
0.00123663
0.0134845
1.58152e-05
3.69376e-08
0.0311664
7.13363e-09
1.18295e-09
3.4044e-05
0.0744824
1.65181e-05
1.51751e-08
0.000792903
1.19368e-05
1.60516e-08
1.97362e-08
2.13614e-05
5.88648e-08
0.00104031
0.0468694
0.000144008
0.000110042
0.0234277
0.00717166
4.95872e-10
2.91427e-09
4.9215e-06
0.00419922
0.000582785
0.00102662
0.011236
5.65645e-09
5.67067e-06
0.000704156
4.61438e-07
2.10934e-05
2.52196
0.000739219
0.00233481
0.00085955
0.01532
1.58891e-10
3.59117e-05
3.17127e-08
3.42513e-09
4.58645e-09
5.49511e-09
0.00336499
1.29957e-09
3.30277e-09
1.57379e-06
2.33707e-09
2.47145e-10
1.71511e-08
0.00995888
0.00100099
0.0110287
0.0023382
0.00129169
0.00637715
1.99463e-09
0.00373536
4.8047e-06
0.0109444
0.014142
1.37021e-09
8.95258e-05
0.00933636
0.00465059
3.77131e-11
2.39252e-05
0.0169577
0.00477462
2.89832e-07
0.0267348
2.69238e-08
5.83669e-09
0.00131168
2.5909e-09
0.00827975
4.74545e-09
9.23143e-09
0.00804228
8.98433e-06
0.00279893
1.98462e-08
6.56812e-06
0.000676615
9.89882e-09
0.000149672
2.20561e-08
0.0217499
3.76226e-09
2.30983e-09
0.00456443
0.000743948
0.00010945
6.01327e-09
6.76082e-10
0.00535201
0.00383603
0.00489203
0.017471
0.217396
0.0197353
5.34979e-10
0.000597893
0.00237225
0.0066928
0.0351789
0.0133399
3.14488e-09
0.0144682
3.64315e-10
0.000756226
0.00763181
0.00960806
3.17109e-10
0.0124318
2.49543e-08
0.00283751
0.0082784
7.49655e-08
2.25926e-11
1.21802e-10
0.00232504
0.00136758
2.6068e-10
0.0035472
0.0199254
5.81435e-06
0.00765763
0.000821964
3.2122e-08
5.58931e-05
0.000656797
7.66455e-09
0.00924483
5.04551e-08
0.00243945
3.46338e-09
6.4542e-09
0.011118
1.37353e-09
4.83455e-05
0.00296563
1.24525e-09
5.76641e-09
0.00365183
9.51605e-06
0.0593825
2.49784e-09
0.285272
3.95431e-08
6.64517e-06
3.70372e-06
0.00643637
1.57056e-06
0.00135965
0.00500916
9.49129e-07
0.000175684
0.00115441
1.51872e-08
9.33473e-10
7.50816e-06
0.000774323
0.000707508
4.90336e-09
0.0359801
0.000941517
4.35052e-09
0.00469618
1.18242e-09
1.0876e-08
1.22558e-06
0.00368915
0.00634548
0.000971275
8.75816e-09
2.43009e-09
7.49306e-11
1.11192e-08
1.06746e-08
1.74658e-08
2.98701e-09
1.34522e-10
3.90644e-09
1.9269e-10
5.3939e-09
0.00106603
0.000635182
2.13728e-10
2.61317e-07
4.08758e-09
8.40906e-09
2.09853e-09
0.000622969
0.00154551
0.0183586
4.36668e-09
1.38134e-09
1.65515e-08
0.00618686
8.82731e-08
5.81989e-09
0.194882
5.00239e-09
5.42088e-08
0.0218919
3.18296e-06
9.80646e-08
0.00439152
0.0232776
4.88142e-09
0.00127765
0.00216983
6.12075e-09
0.0111007
0.0373958
0.016504
0.00287675
0.0097581
7.39162e-08
3.46387e-09
0.00858461
0.0101739
0.00268455
0.00106923
0.00559852
0.00135116
0.0186414
0.0106747
0.000644336
0.0135913
0.00106931
0.00844396
8.03866e-08
0.0265871
0.0075608
0.00181888
0.00117237
1.49886e-10
7.92649e-09
5.61064e-10
1.01525e-11
2.75731e-09
0.00874106
0.0122019
2.37239e-09
3.58379e-11
8.11136e-09
3.08922e-07
6.46281e-09
2.12302e-10
1.46359e-08
4.15439e-08
0.00410086
8.85178e-05
0.0194766
0.00442794
2.24849e-09
2.04511e-07
0.0331929
2.92695e-06
4.04574e-10
1.04852e-08
0.0109766
9.41406e-09
2.91348e-10
3.71155e-06
0.010999
0.0122291
0.02936
0.0270192
2.99158e-08
0.0139822
0.000261167
6.91222e-06
2.67246e-10
0.0102028
1.05568e-07
3.62551e-09
0.0276647
0.99376
0.00361795
1.35826e-07
3.03673e-08
0.0154277
0.0222233
0.0158702
0.00576641
0.00203513
3.96845e-09
1.35609e-05
6.88618e-06
0.00113131
1.41807e-07
0.0215419
4.87657e-09
0.0019395
0.0259084
0.0155065
0.0119745
7.15806e-08
0.00523481
9.61909e-10
1.66121e-07
4.15559e-10
2.17809e-10
0.00251106
0.710214
5.47498e-09
3.62653e-10
1.2335e-05
0.0224757
0.000472904
0.00617083
0.0311983
0.00457243
0.019696
3.66463e-07
9.82898e-08
3.74517e-06
0.0306409
0.00511477
6.31885e-05
3.11129e-08
3.13242e-10
2.70191e-06
0.0186995
0.00269129
8.78238e-10
0.00686133
0.0450539
0.00816852
0.0054469
6.25795e-09
3.75806e-06
0.00613032
0.0214929
7.91114e-11
0.000239565
0.0120423
0.000858529
0.0122861
0.00411289
0.0074655
4.71517e-06
0.00346275
0.0186811
0.0369887
1.23787e-06
0.0230028
2.26317e-06
0.0191708
0.000147387
3.16377e-13
0.00250046
0.00635476
0.000312743
0.0106695
1.15315e-05
0.000206889
2.58548e-05
0.024623
0.00311851
9.01355e-07
0.0377252
0.00105903
6.39905e-09
4.20006e-10
0.00187444
1.44122e-05
0.000898986
1.0133
0.0324904
0.00778756
9.1863e-06
0.0371005
4.97743e-08
5.96467e-08
0.00383391
7.82498e-07
0.00231412
0.00615653
0.00180797
0.00445156
8.50353e-09
0.000239005
0.102105
5.50243e-10
0.0596427
0.00652979
1.8248e-07
0.00342506
0.000182866
2.81419e-09
9.78183e-06
0.00252435
1.34517e-08
4.15117e-10
1.02642e-10
0.00683996
0.0088623
0.0132468
0.00100116
0.0056045
0.0296661
1.46677e-07
0.00702844
0.0108934
0.0240644
0.00130179
0.00195957
0.00660849
0.015594
0.00919521
0.00779867
0.0368762
0.146437
0.00959873
6.27771e-10
0.00306902
0.0502427
6.20013e-10
0.00037588
1.01645e-08
7.32178e-09
1.44789e-09
3.73061e-09
1.19333e-09
0.00508176
1.22913e-09
0.0061336
0.00144518
4.29674e-10
0.00408404
1.25446e-07
0.0139142
2.05108e-09
1.78145e-05
1.04096e-07
0.0206344
0.000112847
1.3697e-06
0.00355968
0.0277606
0.0165552
0.00363635
0.0239451
5.65033e-05
0.019627
0.049707
0.00816028
1.9655e-08
0.00118881
0.000360224
0.00479235
0.0113086
0.000754422
2.22831e-08
1.05908e-06
8.80798e-09
0.0040446
0.000764459
5.51028e-05
0.00599895
0.000550184
0.000273453
2.66118e-10
0.00114893
7.84045e-10
0.00738163
0.0199894
0.00130745
8.94335e-06
0.00185102
0.00612709
0.00196923
0.000721361
0.00627248
0.00530226
0.00231452
4.53629e-07
0.00131566
4.52959e-09
0.0138053
0.0102496
2.18824e-08
3.001e-10
4.26354e-06
0.00707526
0.0185389
7.09976e-09
0.00188723
0.000831521
4.32086e-06
0.00524823
0.0741377
6.5659e-11
3.76248e-12
0.00342444
3.08002e-10
8.56358e-05
0.0109785
3.94301e-07
0.00938471
0.0313119
0.0160458
6.4677e-10
0.000660663
1.53008e-06
5.78833e-05
0.0454464
2.08884e-09
1.99041e-08
0.0107234
9.92418e-06
2.89089e-08
0.00286942
0.00107782
3.98457e-09
6.23044e-09
4.12821e-06
4.67767e-05
0.0012574
0.00305135
0.0201952
0.0135979
2.81662e-10
6.08374e-06
0.00042153
0.000796136
2.88459e-08
0.000886367
0.00154926
2.188e-06
1.35646e-07
3.25201e-07
8.05843e-10
2.82408e-07
4.66463e-07
6.41084e-06
3.26689e-07
0.000410273
4.40166e-07
9.31248e-05
6.32227e-06
7.14819e-05
2.74408e-06
1.85108e-09
0.0220066
0.0080574
1.07148e-07
0.0867676
4.17571e-06
3.60024e-06
2.84863e-07
0.00104525
4.523e-06
0.00218885
1.18274e-05
0.000977085
3.84464e-07
6.59501e-10
0.000634589
8.12329e-06
0.00123979
4.73926e-08
0.0368754
7.92221e-07
0.0339045
1.41928e-06
1.51299e-08
7.943e-06
0.0266532
0.00844374
4.51243e-09
0.000397436
2.35414e-07
0.00104664
3.51985e-05
0.00780931
0.000645907
2.95631e-08
0.0190088
0.000766147
0.00480968
0.000562508
0.00131328
1.84767e-11
0.00521706
0.00398447
0.0440504
1.04508e-08
2.29418e-05
2.02493e-08
0.000799702
4.05067e-09
2.72475e-10
0.0023796
0.00156556
0.00236497
0.279315
0.00073695
0.0286927
0.0329459
0.0174992
0.00510931
0.000719259
0.00544998
0.00327089
0.00476876
1.09204e-05
0.00962325
0.000698377
0.00172353
0.000894135
0.0303658
8.12927e-07
0.00241364
1.39279e-08
0.0166367
3.30889e-08
1.22161e-08
0.0014257
8.36008e-08
0.00695399
5.45112e-10
1.18928e-08
0.00134084
1.64627e-10
1.63495e-09
0.000591574
8.53497e-09
0.000603789
6.22947e-07
0.00110273
0.0187854
0.0105202
0.0072515
0.00808534
0.000745019
0.555864
9.29738e-12
0.0666369
0.000523471
0.0185464
0.0180559
0.00183252
0.0534043
1.32574e-07
1.49878e-07
1.98853e-08
0.00430052
3.55882e-08
2.29001e-08
0.016768
1.23407e-08
1.09933e-09
0.00403976
5.95087e-08
0.0173725
1.74263e-06
6.38264e-07
7.85273e-07
1.00438e-06
0.0014333
0.00575281
1.12342e-10
0.0207298
0.000244044
3.82661e-07
0.0942118
5.63017e-09
0.0153908
0.0170197
0.00296143
6.23681e-09
0.0154879
0.00824209
0.000598532
0.00410669
0.0111054
4.78096e-09
5.01892e-09
3.37011e-05
7.05761e-09
1.49102e-09
1.51783e-10
0.0182952
0.0413007
0.00400418
0.00175707
1.2867e-06
0.0416624
0.0429791
0.00365828
0.00300194
0.00796646
0.0200864
0.00204134
2.21391e-09
1.67193e-09
5.78782e-10
0.00505102
4.88545e-09
0.0299332
9.31156e-06
0.000629397
3.48761e-05
0.00238425
0.0208772
9.64795e-10
0.0011066
0.00197842
0.000278977
3.35467e-08
2.09803e-08
1.25705e-09
0.00842199
0.000257868
0.000114872
0.000635866
0.00874757
0.085796
1.57232e-08
6.42019e-09
1.05882e-08
0.00356096
0.0188287
0.018686
0.0310383
0.00191306
0.00212076
5.58094e-08
3.59776e-10
3.21171e-06
9.57841e-09
0.0121215
0.0190792
5.85817e-09
2.78009e-08
3.5622e-07
0.00114295
0.000558916
3.2844e-07
0.0109395
0.00167385
0.00108653
0.291589
0.000784307
1.57448e-05
0.0209022
0.00365053
0.000348769
1.71143e-07
0.00368259
1.71304e-09
0.0116081
3.17323e-05
0.0218141
1.75236e-07
6.49912e-06
3.38179e-10
0.000430888
2.57335e-09
4.97457e-07
0.177308
2.60035e-09
0.00441051
0.00105962
9.00642e-09
9.91467e-09
0.00146392
1.22242e-08
2.79775e-09
0.0142219
5.10793e-05
8.7809e-10
0.000432116
0.00082052
0.0148311
7.01094e-12
1.37286e-10
0.000248621
0.00196846
0.00224749
5.21574e-09
1.00014e-08
2.49268e-06
0.00295282
0.00140724
0.0103616
0.00933492
1.22047e-10
0.0031548
0.0123398
0.00585668
0.000939761
2.85961e-08
9.86303e-10
0.000426421
7.40364e-11
0.0282236
0.00717615
0.00427136
1.72485e-08
6.49106e-09
1.80436e-10
6.1638e-10
3.69189e-07
0.00231406
0.00401734
0.00232483
6.75114e-08
4.67915e-12
0.00104275
0.00397858
0.0275329
0.0946966
6.38562e-09
2.17868e-05
4.0603e-06
3.64004e-09
5.83571e-10
0.0032623
0.00676331
2.39201e-09
1.75706e-07
0.00243954
0.00111281
0.0042776
0.00114938
2.00883
2.2616e-10
1.17903e-08
0.0119951
0.000363437
5.29171e-07
0.63453
0.000490151
0.00672775
2.05643e-09
9.66796e-09
2.76933e-07
0.00108574
0.0069539
0.00322777
7.82605e-10
0.0217089
0.0159756
0.838202
5.81576e-10
3.30632e-11
1.0994e-08
1.17067e-09
0.00536796
6.05893e-06
6.60925e-09
0.000690566
0.0167722
0.00386555
0.00478835
4.62496e-08
3.05223e-08
0.0256089
2.02269e-07
2.34534e-10
1.01452e-09
8.51811e-10
0.0227286
1.50827e-07
0.000963348
0.000937461
0.0229658
0.0126375
1.0636e-10
5.38788e-11
4.35485e-10
0.0133875
3.69475e-06
7.38857e-09
3.0454e-10
1.05163e-10
0.000407932
0.00217566
0.00864241
0.000756395
0.00205664
0.00633602
0.00392565
1.44547e-08
1.79376e-11
4.83688e-09
0.00100054
1.58486e-11
0.0213852
9.00184e-10
0.0155349
7.728e-07
0.00115468
2.41914e-06
0.00169963
6.75712e-10
4.6639e-10
0.0165035
0.261405
6.09908e-07
0.00259832
1.62809e-08
0.000287682
1.5878e-06
5.14266e-08
9.24152e-08
5.90657e-06
6.28032e-09
0.000370805
0.000728448
0.0335102
6.96056e-09
1.45703e-06
1.46511e-08
0.000635791
0.00320663
0.000111509
7.62733e-10
0.0038337
5.82857e-09
0.00351693
0.0195492
0.000891949
4.85222e-11
2.02766e-05
0.00030715
3.90581e-06
0.00490895
2.62203e-06
0.00119513
1.17814e-07
2.68042e-11
3.53846e-06
0.00471857
0.000170296
2.07765e-08
1.71724e-07
2.10735e-06
0.431201
1.93287e-10
4.23312e-10
1.62263e-09
1.91053e-11
2.18035e-09
0.000480775
0.000129806
0.000755457
5.30013e-05
3.75097e-06
0.000912643
6.4429e-12
0.00632415
3.72795e-10
9.48067e-09
1.46452e-09
4.05896e-07
6.21143e-05
4.28858e-07
2.38974e-09
4.74498e-09
0.014517
7.51559e-09
2.60512e-09
0.0132106
1.94167e-07
0.0364943
0.0656331
0.384449
1.30888e-09
0.20444
1.27447
1.80488
0.668924
6.40414e-10
4.27574e-11
0.00473519
0.00523574
1.17919e-06
0.00293422
0.000705765
0.0310677
5.62913e-07
7.29222e-08
0.00048037
3.9312e-09
9.92e-11
8.92527e-06
3.49449e-05
0.000488565
2.12245e-10
0.00207981
2.09139e-06
1.43919e-08
2.1649e-05
0.00738675
0.00113232
4.92983e-08
0.00605638
5.7757e-09
0.00337884
4.02524e-05
0.00511654
1.47524e-08
3.22953e-05
0.00465661
1.79434e-07
6.01539e-05
1.35537e-09
0.0317669
9.40383e-07
0.010198
1.25749e-08
0.00338165
2.69801e-09
2.88712e-08
4.13386e-09
0.002092
0.00206813
4.50686e-08
0.0119465
0.00670874
0.00102865
1.08479e-08
0.0327239
0.0176405
0.173654
2.62814e-08
0.00344827
0.0240742
0.0455807
7.71302e-05
1.50095e-09
0.0647165
3.40911e-08
0.213535
5.1354e-10
4.56294e-05
6.62721e-05
1.66854e-09
3.69525e-05
3.15869e-08
0.0198136
3.51731e-10
0.000737174
1.08875e-08
2.26057e-07
1.46249e-08
1.37187e-08
0.000365965
0.00147744
0.137741
9.28666e-08
4.24736e-06
0.0407873
2.60809e-08
0.000800092
2.17028e-08
5.55341e-08
5.90372e-08
0.00498549
3.32021e-11
4.65287e-10
4.51322e-11
0.00269595
1.17748e-08
0.00112138
3.59502e-07
0.00270097
8.87799e-10
0.0051153
0.198098
0.00381009
0.00449896
0.0226655
2.05374e-07
6.26354e-09
7.03141e-09
0.0025611
0.00166696
4.73881e-08
8.84132e-06
0.000482058
2.08817e-09
5.78007e-09
0.311684
1.33037e-08
0.0215665
9.5385e-10
0.0020614
0.00365677
5.06347e-09
2.62276e-11
0.000852916
1.43135e-10
6.28115e-11
0.0200258
0.00105457
0.00382188
3.96073e-08
6.23135e-10
0.0056857
1.02616e-07
0.0137718
9.64742e-08
1.90362e-09
0.00220195
7.76425e-05
0.123637
1.10775e-09
6.67138e-10
8.18492e-09
0.00357625
0.171101
2.57443e-08
3.60355e-09
1.28276e-07
0.00125207
2.5808e-09
0.0212711
0.0233175
1.7141e-08
5.92993e-10
0.00583624
2.95093e-09
3.6582e-07
5.34366e-11
4.54344e-07
5.41949e-10
0.0601207
6.09089e-06
2.40446e-09
1.0976e-09
0.00126596
9.7262e-10
0.00104165
9.99083e-09
1.17265e-08
2.01398e-07
0.00753371
0.000774582
0.00675158
0.00092264
0.00112103
0.542592
0.00216148
0.000752147
1.94454e-07
5.06555e-10
0.00193546
0.00236735
0.000688219
0.000781314
5.61944e-10
0.00574228
1.51369e-10
0.00292389
1.79496e-08
0.0100157
3.16851e-06
0.0551988
1.98137e-08
3.82245e-09
0.0170927
5.39869e-06
1.18784e-09
0.0258378
0.000269545
3.95827e-08
1.26063e-11
0.0385845
0.0118395
0.00527085
0.000651841
0.00145363
0.0156299
0.000768843
0.00543799
1.57868e-07
0.0199452
2.21941e-06
8.2931e-06
1.40842e-10
1.78118e-08
3.86502e-09
0.00827294
1.86421e-09
4.95834e-08
6.27542e-12
7.90717e-06
0.00694505
0.00150834
0.00280858
3.87335e-10
0.00408283
0.000918466
0.00179372
0.00311134
4.88698e-06
0.0399041
1.0751e-08
7.56526e-09
2.40199e-09
0.00236317
0.0014223
8.70352e-09
8.59306e-10
0.00201813
1.05484e-08
0.625724
0.00100849
0.0800937
2.29802e-10
3.06103e-09
0.000786964
4.73184e-10
0.00837432
1.00315e-08
7.14036e-05
3.25812e-10
0.00933526
8.13178e-09
3.84164e-09
2.00064e-05
0.00268423
0.0012055
2.67613e-08
0.00127919
7.01005e-10
0.00435411
0.227477
0.00200948
7.81548e-09
0.000398641
4.31017e-10
5.40557e-08
6.77569e-06
0.0165675
0.000172928
4.86515e-09
0.000545387
0.00368028
0.00442523
0.00842872
1.08599e-08
7.12512e-09
6.05366e-08
2.41311e-08
4.19402e-09
2.49289e-09
0.00125144
0.00069113
2.80658e-09
0.00139196
1.78519e-10
5.59981e-09
0.0705755
1.18471e-08
1.03564e-10
0.000647827
2.37491e-09
6.96366e-11
1.05415
1.59102e-10
3.03271e-11
0.00139653
0.00156476
3.74574e-09
0.000694135
7.78229e-10
0.0206959
0.00083276
1.24154e-07
1.68602e-05
2.0898e-11
3.02075e-09
2.30389e-08
3.89335e-09
0.104976
0.000756758
0.000250145
8.651e-10
0.000864174
1.63783e-10
6.50824e-09
8.52793e-10
0.00174847
3.4381e-05
0.000125847
2.50126e-11
1.72931e-08
0.000899341
1.88331e-05
7.58908e-09
4.9797e-06
0.00185358
0.00143098
6.49528e-07
0.00144926
1.8206e-05
0.000795309
7.26996e-07
0.00113769
6.00082e-06
0.03024
3.51844e-08
0.00546161
7.8161e-06
1.81342e-05
1.19378e-10
0.00156174
1.85319e-09
0.00448455
0.0193401
2.78417e-08
0.00264288
1.44004e-05
4.61354e-09
0.00818827
6.89341e-09
4.77952e-10
1.87328e-09
8.83314e-10
8.94355e-08
1.99618e-09
1.33046e-08
2.06055e-09
0.239313
7.61044e-07
7.51942e-11
4.77186e-11
1.07085e-09
2.18107e-09
0.0293069
0.779307
4.20754e-05
1.85667e-05
1.34606e-10
0.00156564
0.00104562
0.000861602
5.26774e-07
3.01198e-07
9.4068e-09
1.67779e-08
5.08034e-08
3.91278e-06
2.00824e-06
0.0035681
0.00124968
1.46562e-09
0.000109187
7.05671e-06
8.62791e-10
0.026382
9.04569e-08
2.10129e-09
3.8843e-08
0.16534
0.00115006
2.69859e-11
0.0215563
3.06285e-09
0.000814037
9.70308e-07
0.000664158
0.0481713
8.6311e-10
1.16222e-09
8.8592e-09
4.87227e-07
0.00644634
0.230646
0.0268467
0.0452107
0.00267469
0.000159345
2.55103e-10
2.01598e-06
0.105931
0.00157004
1.70481e-06
5.7359e-05
8.09505e-08
0.00169883
5.75429e-09
0.210822
0.000713306
7.05511e-10
0.000170669
0.000141382
2.11978e-09
0.011647
5.59763e-10
4.40789e-09
0.202128
0.0277116
1.60484e-09
2.34748e-09
2.45006e-08
3.07715e-10
1.78403e-09
1.99517e-06
4.40876e-10
1.8587e-11
0.00344263
9.10089e-11
2.56075e-09
3.56148e-09
1.44334e-05
8.9104e-09
3.02119e-06
1.34207e-08
2.10458e-09
3.95765e-07
1.22963e-06
0.00242559
0.000714575
1.38397e-06
0.00419592
4.426e-08
0.00603714
0.0105613
6.0317e-09
0.00276995
3.86646e-09
0.000768286
0.000710893
6.92801e-06
0.00150373
0.00127909
9.87348e-08
1.74628e-11
0.00183909
3.06902e-09
3.52101e-10
1.30684e-08
2.96915e-07
3.23903e-09
3.42013e-07
0.040206
1.78341e-10
8.2309e-10
0.325578
6.08538e-11
0.000287444
1.76293e-07
0.000957952
4.41241e-10
1.12154e-05
2.55331e-06
0.00430511
0.00855573
0.000400359
3.40267e-06
0.0375417
4.55192e-06
0.00126105
8.78897e-05
4.7327e-06
0.00974039
0.000989037
5.39859e-06
2.11132e-05
8.55391e-08
2.82256e-09
0.000743403
0.000219523
0.0206253
0.0106449
3.75023e-05
3.39591e-08
0.00536604
0.0041276
0.015953
2.90904e-12
0.0108013
0.0157519
0.00239665
0.00111981
0.000410531
0.00451871
0.018057
0.03567
0.00738705
0.0107951
0.00716795
1.43575e-06
0.00245627
0.00341066
0.000576423
0.0030986
0.0136147
0.0121537
0.0203114
1.90863e-06
0.00734279
7.7948e-06
0.00443124
0.00231824
0.000313711
0.00281632
3.23376e-06
0.00126202
0.00450051
0.00101604
6.38181e-06
1.71112e-05
0.0167513
0.00179877
0.145741