/*--------------------------------*- C++ -*----------------------------------*\
  =========                 |
  \\      /  F ield         | OpenFOAM: The Open Source CFD Toolbox
   \\    /   O peration     | Website:  https://openfoam.org
    \\  /    A nd           | Version:  10
     \\/     M anipulation  |
\*---------------------------------------------------------------------------*/
FoamFile
{
    format      ascii;
    class       volScalarField;
    location    "5.7";
    object      p;
}
// * * * * * * * * * * * * * * * * * * * * * * * * * * * * * * * * * * * * * //

dimensions      [0 2 -2 0 0 0 0];

internalField   nonuniform List<scalar> 
111485
(
31.7605
0.927186
1.08023
31.7352
1.09626
30.942
0.941091
0.852962
0.948984
1.30444
0.919643
1.15431
0.960804
0.845227
0.95918
1.03216
0.383811
35.1423
0.964942
31.7259
31.7218
30.9845
0.943567
1.01031
1.06909
31.5726
1.2846
0.668437
1.06782
31.7813
1.41932
0.27274
31.7534
31.0583
34.3915
30.9772
1.50581
0.26374
1.69287
1.00236
31.2717
1.29612
1.0075
1.40829
0.946011
31.8924
1.36015
0.996437
1.30554
31.8253
31.8169
29.9119
31.8479
1.39567
31.8683
0.648077
0.956869
31.1567
1.08775
0.990611
0.996966
31.7619
0.804693
1.42454
31.0398
0.72229
21.2575
0.88334
0.723719
0.833533
1.32938
0.711321
31.0753
0.741907
31.835
0.471081
31.0046
1.25037
30.9776
32.5318
1.36266
1.34902
31.0272
31.8106
0.799061
0.99823
8.75631
1.38286
1.40948
0.366898
1.13682
1.00997
0.815185
0.282189
1.29019
31.8091
31.7618
1.42727
-0.853132
1.87902
31.7503
1.28811
31.06
1.2106
0.885046
31.9917
31.0997
0.320123
1.02215
0.645662
0.237913
0.762376
1.03024
1.19021
31.5649
0.465107
31.633
31.1298
0.728422
31.731
31.5711
27.2633
31.0303
31.1593
1.35625
35.7128
27.12
0.347038
31.8317
3.51254
1.3456
1.42296
31.8365
26.6875
27.7804
0.921164
31.0113
0.491483
0.832525
0.910703
1.18705
0.857055
0.871474
1.07734
1.31678
0.161976
31.0098
31.8014
31.1459
0.892553
1.06655
31.7117
1.48169
0.0377456
-0.482811
0.904647
0.888261
0.912169
0.0518657
31.8644
31.7363
0.89348
1.0246
0.201034
-0.242271
0.389318
1.42579
31.2527
0.345124
0.476498
31.1262
31.7956
1.10674
31.0608
0.158775
0.0732797
31.0986
30.9916
31.6391
31.6273
30.889
31.7327
0.91151
0.918375
0.909011
0.255121
1.27094
0.559774
1.5453
31.7481
0.453909
30.9795
31.7231
0.597216
1.27837
1.47107
0.734801
0.107718
31.8391
0.937409
1.09348
22.0721
1.39789
0.358456
31.8142
0.585625
1.17011
30.9685
1.44784
1.34858
1.04938
0.527785
30.8573
31.7699
0.555509
20.8319
1.42721
31.0557
0.575671
0.506427
1.32377
31.8399
0.582291
1.38961
24.7203
31.0599
31.1291
1.43138
-0.206333
31.2988
29.4305
0.523366
0.196424
0.331135
31.2867
31.3908
1.43828
31.832
0.880693
0.494897
0.512716
0.462708
0.505227
31.1371
1.38004
0.356449
31.1582
31.0237
1.36234
0.757337
31.5022
0.294644
0.406502
31.8003
26.108
1.37229
31.7212
32.1938
29.0451
31.6993
0.465541
0.438449
-1.70267e-05
31.8573
0.416378
31.7387
31.7541
31.8462
1.43678
1.23815
0.784562
0.700345
1.18536
0.755581
0.752273
1.47873
0.160622
0.22537
30.7442
31.7948
1.49724
0.288509
0.957923
0.218582
31.734
0.792798
0.913733
0.769945
1.26528
1.38965
0.772191
0.691218
1.37812
31.1456
1.20279
31.0632
35.0556
32.4498
1.39178
1.16336
0.95811
31.6616
31.3806
0.633092
0.260147
31.7079
31.7658
31.8814
0.459872
0.245055
0.91497
0.947675
0.98107
29.4022
31.1191
31.8171
0.637658
14.0975
0.910753
1.39445
1.36947
31.0262
31.7554
31.7631
27.7585
0.662902
1.09055
31.1163
0.661191
31.4895
31.6291
1.46736
0.665069
1.18283
0.663121
32.2644
27.6266
31.108
0.656064
0.0942456
1.44313
31.0526
3.881
1.18768
1.11741
0.629952
6.84841
0.981552
30.9934
0.977414
0.682859
1.41083
1.43828
1.0848
31.0776
31.8225
31.1073
31.7464
0.893611
0.593168
1.13497
1.01102
31.1338
1.1448
31.1096
31.7899
0.993748
32.6479
28.2068
32.0048
30.9676
0.918552
31.1542
0.0768782
1.15212
30.98
0.787859
0.703368
31.7701
0.670321
1.15735
0.733021
1.46678
0.194279
0.202142
32.2997
31.8036
1.44037
31.2078
1.1809
1.43741
31.0843
31.1389
0.649807
1.11083
0.102571
1.18611
31.0067
1.42173
1.13712
30.9258
1.39788
1.09502
31.7649
31.7284
0.101009
1.07168
31.064
31.6433
23.9888
31.7476
1.11056
31.0569
31.7467
1.14156
1.37131
1.36052
1.11263
30.952
27.8225
1.48567
28.1995
1.4028
1.5286
1.31755
21.914
28.4902
-1.62455
0.761365
31.7691
1.40504
1.15302
31.834
0.135116
1.32061
28.3431
1.18829
1.13672
0.202064
30.9671
1.05038
1.19274
0.23242
1.37509
27.0407
-0.375868
31.8087
1.56449
-0.580241
31.1262
1.15812
1.42322
26.3531
31.8517
30.0997
31.7165
1.09404
0.344332
1.18121
1.20793
1.43569
31.0635
1.0491
31.8068
1.13781
30.8807
31.7961
31.851
1.17643
31.8092
31.7676
33.5911
31.7588
31.1654
1.39311
31.1519
30.1058
31.0924
31.7243
30.9197
31.8424
30.993
1.17908
31.0875
1.39151
1.18996
1.64706
30.954
1.40681
31.121
31.7578
1.19393
1.23855
1.32299
1.36974
29.7656
1.32087
1.31401
0.181243
0.0855214
1.20869
31.797
0.0838491
26.3962
1.44377
31.0674
1.36043
27.2428
0.234054
1.20691
33.2158
31.3399
0.0278221
31.7042
1.30766
1.28269
31.1602
31.1648
32.0278
31.1166
-1.77306
1.29938
30.8859
31.166
1.08517
30.9852
1.2882
30.9981
1.3689
31.7609
1.35351
1.37353
0.781059
0.220504
30.837
-0.430205
30.9012
31.0691
1.19343
31.0733
1.32074
32.0539
1.38166
31.7851
1.32488
31.718
28.381
1.51791
1.13588
1.2757
1.27333
1.22328
1.13148
31.1413
1.24895
1.21228
31.0459
1.60487
1.44644
1.31874
31.1512
32.3533
1.16687
1.23598
15.9577
31.0461
1.16808
1.11742
1.27433
1.26662
0.729787
11.5966
28.0295
-0.754024
13.8373
31.7415
1.36937
31.2066
28.4956
0.41916
11.3977
-0.810768
7.30723
28.0166
1.22741
1.10413
30.9807
30.1876
1.11287
31.7089
30.9815
30.9942
30.9416
1.27503
31.104
31.6641
1.31268
0.496695
24.5689
0.948515
29.7069
0.480105
31.8433
31.1376
1.25985
31.0614
30.9557
28.3692
0.202487
19.6388
1.21699
0.414186
31.7352
1.08227
1.07143
1.10008
1.61364
2.96585
1.06984
31.0766
1.28001
1.11079
31.8422
0.694311
1.38669
1.15232
0.169345
1.13495
1.13953
31.8636
1.32603
1.45356
28.2887
1.13612
1.39859
20.3892
0.418437
1.15315
1.37294
1.20934
1.22512
0.400086
31.4328
1.20956
1.31726
32.9793
1.2496
1.20748
0.406585
31.0797
0.203902
31.9051
31.0169
31.1233
30.9366
1.13786
28.7157
-2.05369
31.7567
30.7102
1.27913
1.25465
31.6997
1.30177
31.7546
31.8284
31.8527
1.27743
1.36578
28.4799
31.6495
31.0697
31.0832
1.45048
0.363437
27.7952
1.23869
0.421898
31.1479
1.26582
1.37309
0.448895
30.9699
31.0548
0.726322
0.400867
28.2346
31.1249
30.8597
0.531774
31.8101
31.6736
31.057
1.22939
1.047
30.9851
33.9802
32.9667
0.683509
31.1564
30.9401
1.33149
1.42773
28.173
24.5096
6.23178
1.38486
0.0212414
30.7886
0.990512
1.44551
31.1443
31.8407
31.0113
31.0615
31.1168
30.9899
1.28514
31.7558
31.0142
31.1263
1.26874
0.395229
31.6823
31.8942
1.32812
0.390122
0.436885
31.6775
31.0208
0.404214
31.8056
1.21514
0.359327
0.466997
31.5909
31.7511
31.7504
31.0863
1.16836
31.026
30.9902
1.43281
31.748
0.618316
1.48242
30.9758
0.396027
31.6203
0.588671
1.29156
1.24856
1.34396
-2.77146
29.4075
0.575045
1.35558
0.0179523
31.5146
-5.90752
28.9673
0.168025
31.1
1.36363
1.35272
1.34655
32.4146
31.7557
31.8525
0.388068
29.7001
0.106797
30.2318
1.03029
0.206463
0.227957
0.395238
30.9956
30.9992
31.1532
0.396345
30.942
29.3994
1.32006
31.1472
31.1707
31.7552
31.016
0.248546
30.8263
31.0571
-3.77068
29.6317
31.2229
28.5684
31.0504
1.32888
0.248808
31.7149
1.1098
5.87952
1.33716
0.564993
0.357076
31.1274
1.25421
1.57645
1.33905
31.8113
-7.74836
0.224258
26.535
0.181556
1.38335
1.50337
0.79318
0.245519
1.3249
0.173624
0.269217
31.0138
30.9731
0.176003
0.127087
31.1409
0.190238
1.19427
0.259684
30.9008
1.42252
31.0872
0.250401
0.22607
30.963
-0.181219
0.280077
1.28678
-0.0171228
30.7367
0.912503
1.31099
1.66424
1.27764
1.43408
31.0378
31.1256
1.47763
31.0133
1.28093
1.32665
27.4087
0.132645
-1.19203
0.799251
31.0164
26.2047
0.52193
31.8285
37.629
1.4181
30.9064
30.9478
-0.804635
-1.34927
31.0146
1.43243
31.0614
31.0625
31.8388
31.7595
31.9674
31.8008
1.50991
30.9313
31.1274
31.163
-3.54172
1.6501
1.01392
0.506543
31.024
30.9289
1.47632
31.0413
30.9594
24.0438
1.44201
0.635108
30.9725
30.9272
30.9704
30.9405
30.9097
30.9286
1.37973
30.9497
1.12365
1.00335
31.0805
31.796
31.8795
1.41339
31.8497
31.7388
31.143
1.08866
31.0884
1.40248
1.45166
1.18648
30.9784
21.8908
1.50156
0.953324
30.8349
1.15145
1.313
31.7161
30.7922
27.9416
30.9307
0.517497
0.876762
1.44932
0.607358
30.9686
0.510821
30.6708
27.9006
27.7774
31.1296
0.847867
31.0532
31.9188
1.51339
0.617112
31.9081
1.32971
29.7442
1.37888
32.2363
31.0677
30.9993
31.7463
0.302387
0.903271
3.42648
30.9769
31.0872
0.260422
31.015
28.8063
31.7636
1.20611
0.56455
1.21855
31.6439
1.49792
1.53455
33.2233
1.54184
30.9521
1.3838
1.29212
0.814675
1.43791
1.11253
31.0273
31.0631
31.0624
1.49083
31.4121
1.37344
31.8463
4.68747
31.6748
0.993021
1.02325
31.9265
31.0072
31.987
31.1776
1.35482
32.0149
27.9741
0.237799
1.37754
31.9855
28.6794
31.1764
28.7578
30.9275
31.0319
1.40732
1.42845
31.7341
31.6399
-0.435925
31.7882
1.40322
0.303442
31.204
1.43693
31.7483
0.16225
30.9433
1.07394
30.9575
-0.188704
0.740899
1.29391
1.4198
1.40861
19.7716
30.6219
1.45772
31.831
0.836608
31.6905
31.2064
30.6806
31.1381
31.2377
31.139
1.36305
1.31653
31.7495
27.0085
31.706
1.3914
1.41612
31.7636
0.850624
1.30605
31.8805
0.364091
0.269734
0.802335
1.29916
31.0136
31.0427
31.1848
30.9984
0.825975
30.8409
1.47179
31.0364
1.45531
1.10003
31.1035
1.41795
31.0898
31.0088
1.44262
1.38196
10.0303
31.0388
31.9641
30.9143
0.846052
30.4585
32.0256
30.5472
5.35168
27.5132
0.00589956
28.6542
30.4126
31.2477
0.29411
0.210515
1.19682
0.915904
31.7796
1.45914
31.0744
31.1356
0.250669
30.8284
-0.402395
1.44937
0.275068
1.46074
-1.70851
1.12284
31.1181
-3.49707
-9.12885
1.34866
1.52314
0.652187
23.0215
31.7444
1.11576
31.7021
30.9459
1.06758
1.28402
-2.07897
31.0105
30.4294
1.46618
31.8791
30.9225
1.44056
31.9496
31.91
1.05154
1.45341
1.33481
0.853114
0.438876
30.9459
31.0244
0.89994
0.760956
30.9928
31.9283
1.29619
30.966
26.8445
27.6363
27.7858
18.5919
26.9718
30.9984
1.1777
30.8951
1.38551
30.964
15.0902
31.1186
31.001
31.1229
31.0158
1.13837
31.0163
31.0143
28.2387
30.9338
31.1199
31.0528
0.715626
31.0827
0.646786
1.37974
31.0114
1.29821
30.9806
1.31918
1.17162
0.220438
0.245983
31.5705
0.250906
1.12735
1.28094
31.8335
1.3299
0.593505
0.174999
29.8003
0.164253
31.1671
31.1133
30.968
30.985
0.176989
31.0613
30.9173
0.15429
1.23785
0.0832076
31.1693
22.6111
1.23548
31.1058
0.614418
31.8687
0.203569
30.8977
30.9177
1.12458
30.9463
1.643
31.7776
30.9634
0.522785
1.29391
0.454278
0.879646
1.38751
0.705438
30.966
32.3864
1.01123
0.467106
0.732517
1.36335
31.0153
0.651344
31.0047
31.4087
1.00594
1.47413
30.9711
0.458467
31.0684
0.457213
0.430702
31.0292
30.9872
31.0867
1.01859
31.0572
31.0589
1.02521
0.457744
1.49529
0.173257
31.0396
31.1431
1.32413
1.07718
30.9848
1.0061
31.2268
0.994506
30.9831
30.9726
0.927591
31.0155
1.31182
0.994529
30.9545
30.9875
0.907258
26.5225
1.17287
31.7577
1.4487
31.8038
27.1063
26.2587
1.00171
28.4074
28.1152
0.868341
27.9675
17.9993
26.0344
31.1283
31.7037
1.17042
1.1462
31.2053
31.0644
1.04167
1.11
30.9683
1.02866
30.9913
31.7222
1.25424
1.20441
0.469186
30.976
31.0768
31.0605
31.013
30.907
30.9194
31.0491
30.9171
30.9388
30.9812
31.0587
31.7105
31.0399
30.9687
30.9493
31.5209
30.9692
30.9889
31.0229
31.1405
31.6211
1.17193
31.049
30.9712
31.1616
0.837743
31.1659
31.7209
13.1139
30.8555
30.506
0.817058
33.2022
30.6963
15.1146
0.803772
31.0353
27.4535
29.3458
30.9475
1.4109
0.800182
0.808464
0.722241
0.549008
31.7983
30.9286
0.626984
0.669689
0.72948
30.9934
0.740961
1.41505
0.811599
0.19202
0.219598
0.725058
0.326052
0.786134
31.8719
0.898697
0.786403
1.07264
0.74915
31.0829
31.0612
31.1043
31.7488
31.0717
0.66531
0.751496
31.0895
30.9423
30.9328
31.6413
30.9599
31.7038
30.9276
31.7118
0.739881
1.38491
0.752242
1.24965
30.8206
30.9276
1.38362
0.952132
30.9853
31.0146
1.09463
31.8822
31.0488
0.889173
0.691977
0.729704
1.17865
1.39325
31.7915
0.0745742
0.88437
27.982
31.7028
0.827995
31.7719
30.9624
11.0221
6.78217
1.1683
31.446
31.7425
1.54055
0.888834
0.129714
0.668201
14.7596
31.7481
1.53146
32.9938
31.8409
30.6705
1.07498
30.955
0.671431
0.0626573
0.81698
0.867343
31.8158
0.609638
31.8175
30.2816
31.8007
31.6494
0.272467
18.9392
31.018
31.7307
33.4798
0.678997
27.8055
0.595869
0.657452
0.250475
0.665151
31.6644
31.6255
27.1477
1.08746
0.545631
-1.55306
31.8421
31.7577
27.6626
1.44191
1.04765
31.0096
0.373177
11.3945
0.881918
0.512033
31.7368
26.9727
0.508829
0.665704
31.0702
1.33639
1.29225
1.11715
0.503933
0.531669
0.610223
27.9866
0.304569
0.551995
0.504903
32.1377
0.836899
28.3074
1.11253
0.570722
31.8517
0.200554
0.528022
0.54741
0.732219
35.0634
9.89462
1.48449
18.1367
0.538839
30.7688
0.223338
0.5678
31.6942
31.0243
0.522827
1.41008
0.80346
34.9312
1.18113
1.12743
-2.35138
1.37069
31.6886
31.9082
0.656679
33.4156
0.633409
1.05433
0.604791
0.264646
31.72
1.3825
0.65336
31.6819
28.2208
0.473537
31.8481
0.463406
0.460857
31.7666
35.0978
0.900357
31.6996
30.9718
31.1504
0.249131
2.03609
1.09421
32.0369
1.06355
0.359547
31.1022
0.351515
0.372042
0.245317
1.33341
30.9968
0.587415
0.307159
0.402259
0.333348
0.256305
1.2318
1.03439
31.7568
-0.139062
0.255436
31.7405
0.384379
31.1467
31.0528
31.8228
31.1785
31.7365
1.52134
31.1073
0.339219
1.16371
31.8416
1.25455
31.5912
0.242058
31.7069
1.18117
30.8245
1.02421
1.57881
1.19987
0.444494
0.25774
1.07215
0.261609
0.463284
12.3371
0.409624
0.67612
0.459226
31.8325
0.734172
1.3909
0.423883
0.965737
1.24039
31.8328
27.6749
31.6853
1.09042
31.7208
25.2203
0.257863
33.6091
1.33384
31.6519
31.7003
31.0153
0.740148
1.26148
0.418134
1.45276
0.247671
0.610501
0.644674
0.710673
0.261991
0.632684
0.613011
31.8784
30.9287
31.8215
0.877699
0.700716
31.0365
31.0142
25.6934
0.699482
0.274895
31.7155
0.614487
31.7629
0.369617
1.1048
1.43986
31.7428
31.7602
0.684583
31.7482
1.33657
0.387917
30.2646
0.808749
0.971828
0.213172
31.6688
1.31121
28.4751
1.22307
1.08641
31.75
31.8637
0.367276
22.9806
31.9131
0.486619
0.250899
31.7588
31.609
28.2919
0.574615
25.6561
0.860612
1.37198
1.30346
31.7595
28.4617
1.35691
31.7571
31.0804
31.7917
31.7349
28.8494
31.0682
30.4847
31.6857
31.6895
29.6873
33.6124
30.7531
1.3684
30.7868
27.4314
26.0166
35.5436
27.9207
31.7612
1.38208
29.844
31.0108
1.41775
32.9005
34.2819
31.4647
1.36506
33.5024
1.40416
1.37832
1.33359
29.175
31.7233
1.43117
0.350386
31.5133
31.8039
0.875322
28.8719
0.863505
28.5908
30.9975
31.248
0.871215
0.878763
31.7732
1.18088
31.9447
29.8247
1.09606
0.585377
1.39413
31.1211
0.8669
29.2221
1.19738
30.9939
31.6746
30.9693
28.3161
0.557331
0.623364
31.8114
-0.969912
31.7147
31.771
31.7124
31.7299
1.32872
1.27972
0.608944
1.87915
31.6972
1.07673
0.894847
0.517838
1.30806
31.3115
0.516574
1.42042
0.721194
0.483693
0.841807
31.8553
0.942558
1.35114
0.875758
1.387
1.34422
31.7824
1.39123
31.2803
31.7811
0.755185
31.8287
1.1213
31.776
31.9138
30.6349
31.7014
31.8191
1.28833
31.6888
1.15205
29.2903
31.0976
1.03966
1.38803
0.650805
1.10507
31.8796
4.63958
31.8106
1.23632
31.9184
1.02281
1.31257
1.38143
1.26564
32.0235
32.05
31.68
0.550532
31.1365
31.6589
0.539863
30.8736
30.954
1.44416
32.0206
0.743749
0.465985
29.1037
30.2044
29.973
0.580787
0.930478
31.7238
0.0472155
1.20355
28.5092
1.3928
31.7884
0.532926
1.09229
0.547799
31.7253
1.12661
0.624454
1.40999
1.38279
1.22527
31.7492
31.7512
1.44885
31.6744
30.9896
31.7673
0.506731
1.39833
0.686319
0.820623
28.0443
1.08371
0.874505
0.9261
0.822272
1.14358
1.29329
1.21822
31.0149
31.0116
31.01
1.2815
31.0844
1.13256
21.9298
1.18581
-0.168755
0.494653
0.289562
30.9554
31.7811
1.19332
1.17826
31.8216
31.0057
31.8436
0.545805
1.17551
1.23903
1.2561
0.212536
0.859634
31.6966
31.8118
31.759
0.263687
0.817756
0.052954
0.979796
0.625489
1.25132
31.5458
31.757
26.0392
31.0664
0.233983
1.13872
31.7309
31.7926
31.8218
31.8407
31.7029
31.0393
1.25578
31.7182
1.38897
1.5114
30.9661
1.25324
0.132072
0.538649
31.9624
31.2138
1.25165
31.7472
1.24999
-2.47868
0.583089
30.8484
24.3361
30.9978
31.7224
31.6788
30.6049
9.90874
31.7253
1.32668
0.713032
31.7711
31.7591
1.27537
31.7154
31.0569
0.769676
1.13859
31.6429
31.6359
30.899
0.368424
31.749
31.7499
6.36353
1.22482
1.28139
31.7171
30.9616
29.0988
1.26194
1.26363
1.26057
0.961256
30.9787
0.408296
0.18722
0.149879
30.9231
31.8029
31.7571
31.6455
31.7495
0.785831
0.807164
0.716231
31.9017
31.7907
31.7462
31.7682
31.1416
1.45273
0.500367
0.101848
30.933
31.7434
32.0393
-1.76618
1.33462
1.46868
31.0544
-5.53788
33.0844
31.5423
31.7501
0.795451
0.918834
31.6928
31.7858
1.02044
31.7585
0.582752
0.751959
12.254
31.6769
31.092
0.618051
1.38567
31.775
11.5139
0.29609
1.16008
31.7164
31.7069
31.8659
31.7936
0.240239
0.465432
31.7096
1.42971
1.32128
2.74684
31.7261
31.6912
31.6874
31.7098
1.14245
33.5755
31.7293
31.2694
0.329879
1.15409
0.41033
31.5479
31.8144
1.3494
30.693
31.7585
31.7076
31.7174
0.840808
30.969
30.9133
30.9699
0.391057
0.888152
31.6809
31.8052
31.6099
0.978905
32.6945
31.6866
31.6177
31.8112
31.7972
1.16677
1.14955
32.0062
0.926645
1.12064
0.805637
31.8578
31.833
31.752
31.679
30.9544
1.04235
31.7295
29.8033
29.809
1.33101
30.7842
1.28887
31.7498
31.0892
1.57386
3.08037
28.679
1.37085
31.7288
1.35415
32.7919
31.7488
31.881
36.2881
31.7111
1.45491
31.6712
0.929431
31.1023
28.2998
31.817
31.6745
0.331574
1.40254
31.006
11.9448
31.1337
1.13791
1.43145
1.31077
31.1548
0.585043
1.18088
1.41298
1.16376
-0.338471
1.18279
30.795
30.9669
-0.787494
0.53581
1.26086
31.7975
30.494
26.1777
14.2922
31.8445
30.9466
31.8094
31.8361
31.8564
33.2748
1.37212
1.40951
0.699532
28.2035
1.42737
31.8078
1.0638
31.7589
31.8711
31.0478
31.0192
1.29358
30.9382
31.1241
31.7251
0.938148
31.7218
31.778
1.47343
31.6839
23.6846
20.5943
19.3359
31.8429
20.1658
19.5473
19.972
22.6037
30.9703
30.9732
0.912354
1.27301
28.3879
28.8825
30.984
0.899079
32.8389
31.2592
1.29038
31.7089
31.7467
1.27869
1.39653
31.7099
30.945
1.67727
28.4217
30.8788
0.477929
0.974789
1.10197
31.4128
1.0218
31.8232
0.631764
0.41623
0.991257
31.7303
0.431925
1.0172
31.9961
-1.99645
31.6415
0.946675
30.3297
1.00439
31.3896
1.40119
31.6811
30.7434
31.0952
-3.679
-3.6494
31.8664
1.00509
1.62455
32.0247
31.7275
0.697729
0.0803737
1.46706
31.8618
1.05935
1.03
1.49348
-1.27451
31.8557
1.28849
30.9995
1.29085
31.7595
-4.61009
-5.63314
31.6005
0.68722
31.1377
1.48035
31.0045
31.6048
31.7342
31.832
31.6113
31.7085
1.31252
0.831746
1.26535
31.7146
25.8171
1.3019
31.7163
31.6831
31.7895
31.8111
31.7978
0.1162
31.7306
31.818
30.9649
0.094842
31.6282
31.0238
30.3745
0.273592
31.0442
0.146984
-0.991035
1.09803
0.25732
0.069993
32.9525
31.7048
31.7303
0.383429
0.425056
30.6246
25.6883
0.192201
31.777
31.826
1.33463
31.6366
1.02291
31.6915
0.101049
1.4366
31.7176
30.9678
31.6902
31.8118
31.7661
1.5606
31.6834
0.201053
31.9273
31.7182
0.409805
31.0745
1.05413
31.2661
31.776
1.29532
0.709731
1.416
31.8098
31.8129
31.7405
0.730365
1.45965
31.9502
31.0184
30.771
0.459957
31.6591
1.08832
1.35063
31.7128
31.6801
0.458282
31.7353
30.7704
31.0439
31.9622
31.0685
1.28525
25.3602
31.0049
31.7955
25.9854
31.6815
26.8258
31.5639
31.6575
31.3052
0.678789
31.5336
0.41485
31.5858
31.6685
1.72383
0.472381
31.6439
31.6707
31.6988
0.410369
27.4348
31.7311
31.1085
31.6838
0.485923
31.6516
1.21542
31.8454
1.20925
28.2267
1.39981
31.7252
31.7657
1.19512
26.81
31.7077
0.415201
1.19269
31.9019
31.811
1.2722
1.33701
0.456234
0.408514
0.406928
1.30655
0.477129
1.41975
31.9404
1.17299
25.7346
25.3089
31.7233
31.6479
31.7633
0.462364
31.8394
31.825
31.8342
1.29514
1.39665
24.5703
1.26975
31.8217
1.37691
30.8932
1.49315
0.520754
26.0094
1.24487
31.6354
31.563
31.0114
0.527166
1.21632
31.7394
31.0575
0.510164
31.8058
1.4221
31.9232
1.49577
31.7548
31.0105
31.7463
31.0048
0.434741
31.0038
3.06987
31.1022
1.26498
31.7187
31.6847
18.4104
17.1931
31.7668
31.6937
31.7577
31.8155
1.22457
1.36648
21.8005
31.8111
1.25301
30.9787
31.1149
0.315688
0.960744
1.49227
31.016
0.324807
1.25747
0.728859
1.03665
31.7647
31.8542
31.8705
31.8193
31.0182
31.0051
31.0082
31.5457
31.0162
31.0089
31.7485
31.0042
1.40578
31.0075
31.6923
34.6132
31.8137
31.7248
12.2442
30.98
31.7029
0.986983
1.51316
31.5786
31.7601
31.7475
0.948286
31.2637
31.7137
1.43913
31.054
31.688
31.7623
31.8012
1.50774
31.0347
1.27846
31.8105
31.7213
31.704
31.7217
31.6876
1.45806
1.33137
0.564062
31.8161
30.979
31.9571
1.41752
31.6807
1.32886
1.5677
31.0367
31.7194
24.5375
0.364345
31.6011
28.6041
0.413742
24.8467
1.3466
31.2058
1.43153
24.7174
23.1008
31.7489
1.21573
31.0596
1.17397
1.46291
31.7068
1.22376
0.828595
31.7479
1.42582
30.9629
31.6151
31.6627
31.5958
31.6196
30.9979
31.6795
31.8276
1.28319
28.9441
31.7313
31.7641
31.6686
31.6768
0.938779
17.275
1.40556
0.865101
31.6829
1.21569
1.16739
31.7398
28.5276
31.5267
31.6182
31.7606
31.9892
26.3957
29.1552
1.32203
31.7235
31.853
24.9474
26.9564
31.022
1.17494
31.6737
30.9821
31.8098
1.42496
31.8422
30.982
1.28875
31.0412
30.9945
31.4291
32.0236
1.30422
31.7224
31.7102
31.6969
31.7261
1.36771
1.4943
1.52992
1.19251
1.4236
1.39281
31.0598
26.8209
1.31565
1.38784
26.781
1.33721
31.7817
-2.13713
30.9958
1.41953
31.739
30.9524
1.42424
-3.36484
31.688
1.38061
31.7399
31.7761
1.39924
1.48508
31.808
30.9972
31.8318
31.0135
31.6858
27.7823
31.8143
31.761
1.36466
31.8154
31.7366
31.7167
1.45383
31.73
27.931
31.0306
30.9879
29.6857
28.238
1.44988
30.9418
28.2781
0.917613
31.7815
1.33583
1.40234
31.7017
0.938035
31.7506
30.2761
32.0222
27.7486
31.1067
31.7566
31.8208
31.849
0.989018
31.8268
31.7841
31.8135
31.3264
31.7259
31.5105
1.3691
31.7497
31.8158
1.42905
31.7404
31.0232
31.1468
1.03589
31.7196
1.11796
27.4241
0.505351
0.170193
31.0037
26.8005
0.936412
25.7848
31.0141
1.15821
0.490673
-0.0041589
1.40374
0.971144
-2.48515
31.2033
30.9355
1.14959
1.43834
1.43694
1.14073
0.509776
31.0835
0.271012
1.09608
1.11971
31.1578
1.1371
0.249298
0.71677
1.08888
1.34753
1.0513
0.394147
1.02536
0.0329231
0.56658
1.10078
27.9794
0.367417
0.0392381
1.19704
1.31747
0.146268
1.10106
0.0902848
28.6037
1.40685
28.414
0.711046
1.16377
1.25181
0.853712
28.3573
31.0093
1.07334
0.89999
1.32422
1.51047
0.375038
1.12072
20.195
1.17019
31.7502
1.9622
1.41006
1.43277
0.743889
1.31444
1.21516
1.28775
0.828612
0.732222
0.690811
1.1352
0.52392
25.2138
22.253
1.12993
31.7079
31.7494
1.08068
1.16949
0.182464
31.7068
1.37045
1.47874
0.839835
23.0584
31.7446
1.05553
0.0547671
1.38553
31.8557
0.400399
31.7711
0.880556
1.27033
1.39248
1.41378
31.6944
31.762
1.56301
1.14529
1.1948
31.7331
0.931852
1.19855
1.31276
31.0623
0.856469
0.114892
28.3487
0.71596
-3.60498
1.34771
30.7876
1.43812
1.54508
31.7541
1.36144
0.184734
7.34683
1.30155
1.39906
0.331584
1.27844
1.27434
0.0169999
0.976467
1.30822
1.29698
0.305933
1.10992
1.25435
0.916721
1.34663
0.658815
1.11297
1.29057
0.405447
31.7628
1.36612
1.32357
1.37987
0.46697
1.45645
31.0143
1.34898
0.731607
31.7482
1.35501
0.0112544
1.34728
1.33935
0.243646
-0.1376
1.22727
1.26789
1.44625
31.7647
31.7475
1.48469
31.1351
1.49913
1.5971
31.0086
0.247064
1.37105
0.72193
31.8133
0.741196
0.804261
1.40191
1.30753
0.770123
0.41974
0.923456
1.44557
31.7492
31.6097
1.43516
1.36086
1.41387
1.01364
31.6078
1.38305
1.34443
31.0074
0.879398
1.15427
-0.228896
1.12249
1.43434
1.14692
0.40935
1.05707
31.1629
1.40078
0.7249
1.29834
1.18376
31.613
1.47718
32.1778
31.7365
0.794467
1.22917
0.851888
2.47086
1.26069
7.45418
31.0367
1.16068
1.38918
1.12043
0.865112
31.7098
31.1543
31.1129
0.866129
0.890225
1.08894
0.724977
30.7258
31.6284
0.831159
0.942077
1.42855
0.889523
0.86366
1.10918
1.37337
18.4052
30.9739
1.26087
0.148414
31.6237
1.11972
1.08785
1.69016
1.2822
1.0411
1.50767
31.6261
0.912673
1.02957
31.1231
30.7883
0.184916
0.378128
0.411555
0.221418
1.06929
1.12637
0.388493
0.749816
1.01405
0.192035
31.6083
31.5774
0.0450369
0.260382
1.06034
1.52525
1.03342
0.94072
1.28632
0.884587
1.017
31.0015
31.1534
1.48528
31.5997
27.7855
1.07118
0.720776
0.982874
1.48671
29.149
1.43908
1.60337
29.6584
1.52472
1.13026
1.02206
1.04065
0.139467
1.18418
1.2776
0.238882
31.7417
29.4457
1.43734
0.400558
0.848374
0.402256
1.23638
1.34949
1.38555
29.5423
1.1111
0.425735
0.925355
1.43806
1.41688
1.39344
1.14341
1.03505
0.314814
29.1297
1.41053
1.06264
12.5778
27.7475
25.6766
1.01649
27.1571
0.12739
0.962862
0.8638
1.19258
1.30127
21.0451
13.5033
32.5263
27.3415
1.4804
31.0075
31.0075
-2.78003
31.7345
0.743361
0.895387
0.738586
0.689743
0.718922
1.14652
25.7384
0.385698
0.209803
1.3373
1.07593
0.703472
1.04934
31.0208
1.13454
0.69756
0.955032
31.0104
1.32198
1.0346
31.008
31.6534
1.33173
0.661279
31.9257
1.22373
1.1236
1.31865
31.7988
31.0052
0.18202
1.12462
1.18414
31.0139
31.0469
31.0084
1.28519
11.6054
10.7003
0.402736
0.5092
31.8701
0.500895
0.594527
0.979046
0.18894
0.11802
0.514714
0.151107
0.222247
31.3316
0.467932
0.390035
0.0830268
0.815667
0.222075
0.295533
0.20789
0.258767
0.154968
1.449
0.553311
1.04754
1.33318
1.32817
0.280079
0.229249
0.611522
0.258805
0.206731
0.629223
0.468425
1.42949
0.438693
0.605171
0.447028
30.3193
1.04784
16.4191
0.800533
1.09924
31.1274
1.32956
30.3215
1.14876
30.4283
31.7564
0.969758
1.31115
27.9478
0.382235
0.913847
1.34417
31.6333
31.8092
1.7105
0.473717
1.30219
0.808642
0.365539
1.30005
1.52348
1.28132
1.33714
26.4641
1.04818
31.0245
31.6188
0.675617
0.513752
1.4962
0.653502
0.45978
1.36981
1.36947
31.3062
1.37826
0.435436
1.34207
31.3418
31.8543
1.04457
1.1724
25.1386
1.45754
0.15135
1.21977
-0.409009
0.421573
0.840785
31.6582
19.238
0.70019
1.45815
31.3972
0.705203
1.43571
1.22757
1.55645
0.65394
1.43783
1.04116
1.52746
20.3547
1.53831
31.7201
1.16538
1.3468
0.398457
0.0782737
26.9271
0.0746793
1.43058
1.30387
1.27784
30.0219
31.0121
0.735086
1.47
1.32375
1.16645
1.4547
0.523029
0.0827323
0.909514
0.254439
0.14955
1.4361
28.6542
1.3441
1.24547
0.0251661
1.42545
29.3896
30.9625
-6.8922
1.40904
32.8925
1.32152
1.37252
29.7138
20.9815
22.5134
1.262
0.670971
2.6231
23.988
1.3133
0.77877
30.6519
1.02334
27.9096
1.22
0.521926
31.198
0.0192807
1.49332
1.47749
0.51627
30.9826
0.924558
1.37251
1.41757
1.513
1.58397
1.5295
1.41128
1.29839
1.4004
0.326588
0.677383
31.6732
26.4498
26.6653
31.0741
1.25828
0.774878
0.733014
1.35523
0.426085
0.723791
1.20069
1.34674
1.2975
0.53121
1.40137
1.27898
1.28784
0.43147
31.7264
1.42222
1.34436
1.33246
1.44039
30.6287
0.823794
0.848569
1.29727
1.16028
0.967389
30.9808
1.00056
0.951343
27.8425
1.00828
1.26872
31.0614
0.90881
31.0154
31.1392
0.83361
1.19237
1.28574
0.965933
30.964
0.27933
1.32738
31.1524
0.880686
0.991999
0.851661
1.28958
31.1719
1.31426
1.31808
1.28044
31.1715
0.777197
0.33206
1.2604
0.649431
0.754459
31.9216
30.282
28.7688
0.153785
29.2671
0.740282
0.588642
0.257029
31.7028
0.274648
31.0185
31.7263
31.5907
0.868962
-0.0332548
1.13665
1.28522
0.805243
30.3027
27.906
1.46931
1.40671
0.67985
1.20603
0.775725
0.459768
31.7299
23.591
24.0673
30.986
24.3394
0.0937773
31.7479
0.782934
1.18643
0.807115
0.17058
0.874994
25.9526
0.544958
1.23195
1.36487
1.49613
26.1128
31.7204
1.35051
0.599176
0.870784
-0.0556236
1.39607
1.26348
0.908545
1.17025
0.55413
0.116157
0.523396
-1.10706
0.503932
1.22429
1.25765
0.405761
0.48737
1.36252
-0.323394
0.0319466
-1.69068
-2.85201
0.388218
1.4665
31.1572
-2.09133
-5.67622
0.268622
0.182367
0.0425109
1.20585
1.04858
-6.39166
0.191895
1.43501
31.8213
0.756348
0.868543
1.00047
31.7099
0.726655
0.445341
0.209514
0.915276
31.8598
31.8272
1.28088
0.326717
0.342024
0.246978
31.5156
31.7644
31.0659
1.04545
1.24336
0.286482
31.7713
0.700065
31.8408
31.9278
0.229754
0.17068
30.9285
0.302165
0.329647
-0.0301719
31.1155
31.801
0.506088
1.22243
31.8718
0.272976
0.399037
0.0046989
32.0794
32.1064
31.9798
-0.00295484
0.273826
1.48087
0.406521
31.0835
0.262336
1.12452
1.45363
1.39578
30.9048
31.706
0.45128
1.47679
1.44236
0.901746
30.9007
1.17926
31.0269
0.361291
1.40735
1.12993
31.0956
28.8739
1.4369
1.59235
28.3442
28.5011
31.0315
0.900942
30.4437
27.1596
1.1731
1.16109
31.0319
27.9041
1.04622
0.427891
0.318801
0.844863
0.740305
28.359
1.23769
26.1393
25.5161
31.8043
0.86945
1.36987
0.275932
25.6617
33.8802
1.23004
1.40617
1.30939
1.34061
1.08335
0.996785
1.06158
0.495133
25.2032
1.12162
0.801115
0.474541
0.872447
1.28083
18.6308
0.71905
0.820086
0.830785
0.822076
0.354743
24.4477
29.0213
0.941922
29.2369
29.6082
1.10784
29.3029
0.737574
28.6416
28.982
31.0745
27.8916
0.901551
0.365359
0.861784
28.582
0.509699
0.854865
1.05528
29.0341
31.7625
0.913257
0.956605
1.28547
0.914449
27.7387
0.0500651
0.338122
0.234803
30.9576
31.2696
0.633212
0.484881
31.3775
29.1401
1.40025
0.0330948
28.5228
1.49009
1.34939
1.3888
1.00615
28.82
1.08066
5.77568
0.254095
0.387038
1.48009
1.34464
1.35477
0.678814
1.15691
28.2063
1.21848
1.14561
1.23464
1.43187
1.40926
28.9617
0.758764
1.15868
0.698309
0.941536
1.13084
1.24651
0.560686
1.36935
1.36809
1.44387
0.548691
1.43854
1.54129
1.10499
1.33906
31.8856
0.344377
31.8364
1.09649
1.14533
1.42325
1.42137
1.50649
1.08351
1.10384
1.35299
0.903822
0.3929
30.927
23.9401
1.44296
1.49391
1.26978
1.52213
1.40035
1.35941
1.4291
1.76547
24.9369
0.37133
1.84152
-5.34312
26.0386
0.182957
24.2154
0.859028
1.02014
0.678943
0.861865
31.1529
1.09147
1.23406
-1.01542
31.0122
1.3402
0.336501
1.43088
1.34807
1.38605
24.3622
30.9993
0.828852
1.16678
0.727359
1.16566
1.06236
1.13394
1.48287
26.8649
0.288486
25.927
1.31111
0.372852
1.24999
31.798
22.1206
1.37418
1.1849
0.900738
1.19686
31.0121
1.26613
1.21855
0.256368
1.20136
12.5215
6.82453
1.34097
31.7437
30.9876
0.813692
12.1152
1.33459
31.8085
0.647417
31.7453
-1.41257
31.1236
0.444315
1.4245
0.595992
1.20298
1.29401
1.12984
1.28624
1.20563
0.193148
0.701588
0.777784
0.696047
30.258
0.50984
30.9351
1.32134
1.32461
1.06064
0.983013
1.27025
0.519586
0.862907
1.19052
1.26506
0.689825
1.38535
1.50662
32.2889
1.21653
0.395687
-1.03205
0.386091
1.25016
-1.2711
0.505543
1.47118
1.16416
-0.841249
1.15607
0.807263
1.31007
1.08433
30.9717
30.9625
1.11791
1.19454
1.37826
31.039
-2.20566
0.2548
1.15457
0.872346
0.588367
0.94616
0.797429
1.20825
0.0642921
0.758982
1.38775
0.640124
1.00241
0.946504
0.857092
1.41825
1.29581
0.625504
1.12243
1.21519
0.099194
0.489482
1.30729
-0.980553
0.733321
0.705707
0.899992
1.15437
0.678463
0.49032
30.9048
1.3033
-0.3324
0.0234257
11.7415
1.30431
26.2205
0.8509