/*--------------------------------*- C++ -*----------------------------------*\
  =========                 |
  \\      /  F ield         | OpenFOAM: The Open Source CFD Toolbox
   \\    /   O peration     | Website:  https://openfoam.org
    \\  /    A nd           | Version:  10
     \\/     M anipulation  |
\*---------------------------------------------------------------------------*/
FoamFile
{
    format      ascii;
    class       volScalarField;
    location    "5.7";
    object      SgRate;
}
// * * * * * * * * * * * * * * * * * * * * * * * * * * * * * * * * * * * * * //

dimensions      [1 -1 -3 -1 0 0 0];

internalField   nonuniform List<scalar> 
111485
(
2.45496e-18
9.85249e-06
2.77202e-05
4.49263e-19
5.82348e-05
1.63443e-18
5.3921e-05
7.20844e-06
2.2535e-05
1.40441e-06
5.42737e-05
1.11981e-05
5.53024e-06
9.9477e-07
7.68482e-06
3.69906e-05
1.64223e-06
0.00306294
1.24356e-05
1.1869e-17
2.50288e-17
3.61403e-19
3.06565e-05
4.19211e-05
1.04556e-05
1.37784e-18
4.79467e-05
2.14799e-06
1.89056e-05
1.17305e-18
5.44154e-05
2.23373e-05
2.95128e-18
1.04842e-18
8.83572e-06
5.7949e-17
1.30406e-05
4.91955e-06
5.39985e-11
2.74274e-05
1.91518e-18
8.50638e-05
1.88709e-05
1.62681e-06
6.39374e-08
9.31278e-17
3.68857e-05
8.60713e-07
5.67987e-05
3.72207e-18
1.68863e-18
3.26521e-18
6.7748e-18
5.91065e-05
1.6227e-17
5.1902e-05
3.89028e-06
6.89638e-18
2.71523e-08
5.70215e-06
1.9238e-05
1.1118e-18
5.40716e-06
0.000114462
2.00916e-18
3.99378e-06
0.000376087
0.000113764
1.24563e-06
6.91396e-06
1.33418e-08
7.39194e-06
4.52209e-18
3.28039e-06
8.59782e-18
8.2594e-07
7.73905e-18
5.00627e-05
4.66022e-18
2.1111e-17
6.95381e-09
3.99768e-05
1.25247e-18
2.35362e-18
1.06356e-05
4.88125e-06
5.30929e-13
2.96203e-05
6.71863e-08
8.59945e-06
4.22051e-07
4.91119e-05
1.35464e-05
7.17172e-08
6.40018e-05
4.97935e-18
6.16623e-19
2.01554e-06
2.59277e-11
1.47053e-06
5.04614e-18
2.22267e-05
1.80287e-18
2.2731e-05
5.63506e-06
4.21532e-18
5.33184e-19
9.07538e-06
4.58804e-06
8.91579e-11
6.84111e-06
5.7839e-06
4.25879e-06
3.64687e-06
3.8535e-18
3.90687e-08
2.37598e-18
4.56629e-17
1.48126e-05
1.41525e-18
7.22767e-18
2.48804e-17
6.7966e-19
5.36442e-18
2.06389e-06
3.37404e-09
2.10394e-18
1.92852e-06
2.65844e-18
5.69048e-08
1.5691e-06
3.77362e-05
6.23854e-19
3.0617e-17
2.36331e-18
5.86426e-05
4.95962e-18
5.04514e-05
2.96415e-05
3.22593e-06
2.64886e-07
2.38992e-06
2.66109e-05
3.37946e-06
4.67695e-06
1.5325e-05
1.77426e-18
2.8594e-19
3.35629e-17
3.30414e-05
1.98254e-06
3.62304e-18
2.33047e-10
5.90103e-06
5.50349e-10
1.27046e-05
1.97673e-05
1.24945e-05
9.04562e-11
3.97119e-18
1.84256e-18
6.28648e-05
2.84632e-05
2.55932e-09
4.1405e-10
6.72191e-06
4.28051e-06
7.70047e-18
6.25734e-09
5.80408e-08
1.16618e-18
1.73882e-18
1.63645e-07
3.3268e-18
6.92165e-06
2.5825e-06
7.43972e-19
5.06391e-18
7.76742e-18
1.31347e-17
1.37264e-18
5.51572e-19
1.71266e-06
8.1636e-06
3.50013e-05
5.0438e-06
8.68953e-06
4.62947e-06
9.90072e-08
7.7636e-18
5.51033e-06
4.9574e-19
2.17501e-18
7.56822e-06
1.27121e-05
3.20692e-05
1.30945e-05
5.80421e-06
3.49852e-18
7.74945e-06
6.32353e-07
5.33354e-08
1.59083e-05
2.77508e-06
1.29911e-17
4.32503e-06
3.13782e-05
2.10366e-18
2.14897e-07
9.09288e-06
2.53696e-06
4.11683e-07
5.51991e-19
4.20575e-18
9.49139e-06
1.04964e-14
0.000145216
5.57391e-18
7.72606e-06
2.39013e-05
0.000144746
2.10532e-17
3.6213e-06
1.64215e-05
3.04732e-16
1.53407e-19
1.41996e-18
0.000185852
3.69336e-10
1.36113e-18
1.57544e-18
1.13617e-05
9.39322e-06
1.81361e-05
1.21569e-18
5.95981e-18
1.47226e-08
6.54823e-18
3.02837e-06
1.07346e-05
1.87427e-05
1.36526e-05
1.16618e-05
1.01288e-17
3.26336e-10
7.30094e-07
2.47585e-18
4.47286e-18
3.66242e-05
2.50193e-05
3.72298e-18
7.30722e-06
1.24775e-05
5.74242e-19
1.86297e-17
1.67802e-07
1.77451e-18
3.1444e-17
5.1418e-08
4.51711e-18
1.81609e-05
1.32891e-05
4.48083e-06
2.51507e-17
1.3868e-05
1.54466e-20
3.49854e-18
6.90839e-18
2.71547e-11
2.73766e-05
7.2117e-06
6.14697e-06
4.41551e-05
1.4264e-05
1.95778e-06
6.87496e-07
3.97193e-05
1.08605e-05
1.71489e-18
4.78991e-19
3.24487e-10
2.67945e-05
2.88974e-05
1.46888e-05
1.02432e-19
8.27455e-06
2.52643e-06
3.52879e-06
4.37145e-09
4.37619e-09
1.59033e-05
2.63086e-06
2.30975e-06
5.52322e-17
8.43043e-07
4.30181e-18
1.21796e-10
2.10492e-16
0.000298519
8.17751e-05
1.48005e-05
1.56263e-17
5.05299e-18
1.0632e-05
2.03151e-06
2.34605e-17
1.59092e-18
5.41714e-17
3.84126e-07
7.12298e-05
4.55524e-06
1.70266e-05
2.2896e-05
1.60571e-18
4.50446e-18
2.11872e-18
4.51686e-06
1.448e-15
1.19366e-06
0.000223939
4.34545e-10
8.75193e-19
3.91616e-18
1.48933e-18
5.13771e-17
7.09162e-05
1.44753e-05
9.26728e-18
6.14087e-06
2.18059e-17
4.8517e-18
8.18619e-05
6.84914e-06
1.33236e-05
1.09525e-05
2.1033e-17
7.47802e-18
1.30988e-18
1.10528e-05
2.24482e-05
5.99463e-06
5.39262e-18
3.27365e-13
2.07483e-07
2.49754e-06
9.45524e-06
4.82641e-08
3.3989e-05
4.82555e-18
4.48351e-05
4.1151e-06
9.26189e-06
2.93926e-05
1.65738e-05
8.82177e-19
1.60807e-18
8.82786e-18
2.77185e-18
3.79309e-05
1.13682e-05
4.12776e-05
8.06056e-05
5.54852e-19
2.29228e-05
6.7536e-19
1.23973e-17
1.94344e-05
1.5373e-18
7.83933e-05
1.34759e-17
2.59728e-19
2.79005e-05
2.77099e-18
1.65624e-05
3.61668e-07
1.24193e-18
1.25061e-06
1.92397e-05
8.18356e-18
1.03426e-05
1.16272e-05
9.52422e-06
7.11709e-07
3.30007e-06
6.96947e-06
1.93972e-17
1.49943e-18
2.04564e-06
5.49855e-18
7.00948e-06
0.000139767
1.01147e-18
2.78146e-17
3.21181e-05
1.38292e-07
9.65104e-06
2.60013e-05
1.97622e-18
5.24878e-05
2.3183e-05
5.61653e-19
9.57686e-07
3.05117e-06
7.96199e-19
1.78984e-18
1.34873e-05
6.23195e-06
5.75615e-18
3.29207e-18
3.26266e-11
8.37904e-18
1.40485e-05
1.41279e-18
3.57749e-18
2.06273e-05
2.19874e-09
1.52032e-05
3.45902e-05
1.38022e-18
6.31553e-18
1.62757e-06
6.20731e-19
1.66067e-07
1.5847e-05
0.000146699
0.00103734
1.62692e-18
3.25107e-06
5.18307e-07
1.084e-17
4.56506e-05
3.84686e-05
4.49128e-17
9.73723e-12
1.15085e-07
3.12926e-17
2.95776e-05
2.9826e-05
1.73277e-05
7.15882e-18
7.96639e-07
2.22684e-05
2.75391e-05
9.8484e-10
5.08231e-18
6.8766e-13
1.42433e-19
1.68131e-08
3.76536e-05
9.80983e-18
1.05197e-05
1.0575e-07
1.22462e-17
4.62804e-18
6.4268e-18
7.50151e-18
4.77821e-06
1.16133e-05
7.94237e-06
2.64146e-06
3.45009e-06
7.28335e-18
2.48727e-06
5.92735e-18
4.7026e-05
3.01125e-18
4.33286e-18
8.08287e-19
4.23262e-05
7.27508e-18
2.11583e-18
2.61054e-10
3.14033e-18
7.10652e-18
1.20364e-06
2.68858e-17
2.96119e-18
6.51803e-18
1.85512e-18
7.65015e-18
2.26452e-17
2.17445e-18
8.8293e-06
1.10224e-17
5.83204e-07
2.22153e-06
1.28883e-06
1.97349e-19
9.37556e-07
9.43429e-18
8.91998e-19
3.40252e-06
2.22318e-06
3.33139e-05
2.90688e-05
3.24322e-18
2.45215e-06
9.50237e-05
1.0233e-05
1.25426e-06
3.99183e-06
1.52616e-17
2.79816e-05
8.04681e-18
5.71753e-06
4.84464e-18
8.91314e-05
1.12847e-17
2.58792e-05
2.85245e-07
3.18653e-10
7.39337e-18
2.46468e-06
3.11962e-19
9.58614e-05
5.74835e-05
3.82942e-18
1.8639e-18
1.316e-17
2.31093e-18
1.66826e-12
6.55684e-05
2.6569e-18
2.39157e-17
3.12071e-06
5.32421e-19
3.93326e-05
3.6083e-18
3.92004e-07
1.29639e-18
6.12052e-07
1.19554e-09
1.26187e-06
1.56615e-05
1.8564e-17
4.69778e-07
1.0427e-18
2.9159e-19
1.84969e-05
5.58369e-19
3.85259e-08
6.8236e-18
1.88084e-06
4.29563e-18
7.8021e-05
1.42233e-18
2.07723e-18
2.01113e-05
4.12893e-06
2.0308e-06
4.80442e-06
7.89881e-06
2.50247e-05
2.21039e-18
2.84794e-05
7.65376e-06
9.33607e-18
9.52422e-11
4.58332e-05
1.72399e-05
4.04537e-18
5.12283e-06
7.59957e-06
1.91788e-06
1.36397e-06
2.79256e-13
1.63797e-05
1.36426e-06
1.73732e-07
2.94868e-05
1.65711e-05
8.37663e-07
4.73942e-18
3.82666e-12
0.000772663
7.18436e-18
4.50063e-07
3.31831e-18
3.15731e-18
8.81234e-06
3.60731e-06
2.38394e-10
1.62126e-08
3.66288e-17
2.03222e-05
1.32238e-05
3.0005e-18
1.13384e-13
2.47893e-06
3.58714e-18
8.46693e-19
4.0233e-18
4.24936e-18
1.65216e-05
7.77302e-18
3.24405e-17
1.0862e-05
2.4567e-06
4.08818e-17
1.24292e-05
3.19143e-18
1.02295e-05
8.38887e-19
4.37973e-18
6.48406e-05
2.16771e-18
5.31469e-20
2.25949e-17
5.44044e-06
1.20993e-17
3.60315e-05
7.52227e-06
1.20717e-18
0.000100101
3.01963e-06
3.34706e-05
3.27469e-05
7.15013e-07
9.86736e-08
2.64749e-18
6.58753e-05
5.40252e-05
8.06302e-18
3.76249e-07
4.78697e-05
8.84645e-06
1.7685e-06
3.2724e-05
3.09299e-05
2.34564e-17
1.27632e-05
5.89826e-09
7.36506e-18
4.06056e-05
3.18973e-07
5.14777e-17
1.30913e-05
4.75653e-05
1.681e-06
2.4769e-05
2.27568e-05
8.48715e-06
1.7462e-17
1.19584e-05
4.00076e-07
2.475e-14
1.9751e-05
2.04259e-05
4.28838e-05
2.16591e-18
2.31356e-06
1.77773e-17
1.03991e-18
2.2972e-17
2.69158e-18
1.77835e-08
1.493e-18
2.68444e-13
2.5434e-18
8.27556e-18
8.39021e-08
5.10308e-05
8.91516e-18
3.97388e-05
1.57796e-18
9.09802e-17
9.4283e-18
4.70283e-05
5.15335e-07
6.2821e-18
6.69033e-17
3.17386e-18
2.36998e-18
0.000260215
8.27469e-05
3.05539e-18
2.28845e-06
2.95822e-09
6.62644e-18
4.40839e-05
9.40269e-06
1.49348e-05
6.50816e-19
3.02544e-18
4.89274e-07
1.28859e-06
5.13657e-18
7.1935e-18
7.36267e-18
8.63677e-06
4.71195e-20
1.78202e-17
6.07959e-18
4.91e-05
2.30333e-06
5.59895e-19
0.00476876
0.000333519
1.24422e-05
1.69294e-18
6.51437e-18
6.66765e-05
4.54544e-07
2.24626e-18
8.67764e-09
0.000151946
3.10035e-06
1.37675e-05
2.14687e-17
6.52729e-05
2.14171e-06
9.812e-18
4.2884e-19
7.62198e-18
2.17959e-18
3.47816e-18
4.06013e-19
2.56129e-05
2.4656e-18
3.72919e-19
3.17929e-18
1.40089e-05
2.80656e-05
4.86971e-18
4.97245e-18
0.00012697
1.68482e-05
1.12949e-05
6.80902e-18
1.83338e-19
4.37093e-05
1.31668e-18
2.22115e-06
3.08147e-06
4.53207e-06
1.21961e-18
7.53922e-19
3.13035e-18
4.8252e-18
1.82177e-05
2.63402e-18
1.15223e-17
1.14963e-06
6.76389e-19
2.68966e-05
2.086e-06
4.30602e-18
4.43092e-05
0.000511367
2.97409e-06
3.50376e-05
1.86391e-07
5.41876e-05
1.57312e-13
3.18472e-17
2.76337e-05
8.50696e-05
7.30679e-06
1.17179e-18
9.69649e-13
0.000845245
1.20302e-05
2.06901e-18
3.15239e-06
3.25505e-06
1.50158e-06
6.32962e-17
1.3773e-18
3.22025e-17
1.56503e-05
1.72493e-17
3.02358e-06
6.83562e-18
1.54853e-06
1.63101e-06
4.30576e-05
6.79839e-07
8.51956e-18
9.86092e-20
3.74673e-18
2.44536e-05
2.87876e-19
5.49772e-19
7.16686e-08
2.09644e-18
2.09266e-18
6.48088e-18
1.11166e-18
1.14779e-05
1.05133e-17
2.38062e-18
5.9234e-13
5.37413e-18
3.6328e-18
1.97618e-17
7.14336e-18
3.62175e-09
1.90588e-06
5.45345e-19
4.57622e-06
8.89909e-09
3.7085e-10
7.55902e-08
4.99331e-06
3.58784e-18
1.12304e-08
1.16552e-05
4.66884e-07
3.66443e-18
2.17719e-12
9.66501e-07
2.44834e-18
1.1326e-05
2.36225e-07
2.07149e-09
2.87199e-05
1.09437e-05
2.69062e-06
6.1478e-06
2.39395e-06
2.47105e-17
8.18273e-18
3.82304e-05
3.07113e-05
1.5341e-17
9.74586e-06
6.47162e-05
3.37992e-05
3.45204e-18
1.61471e-06
3.37397e-19
1.23068e-05
1.65152e-05
7.13717e-18
1.82667e-06
5.52995e-07
1.50114e-09
5.71513e-06
3.82301e-18
5.8046e-05
1.86667e-08
1.90138e-06
4.01456e-08
1.52044e-08
5.39486e-19
1.16863e-18
8.81557e-06
4.68278e-19
1.35159e-07
3.22993e-07
2.61444e-07
5.92996e-11
8.86717e-11
8.4007e-10
2.08848e-18
4.34464e-18
2.74519e-05
9.95932e-18
2.49752e-07
2.51257e-06
9.56258e-18
1.0791e-17
6.76588e-10
1.0245e-12
2.77887e-18
5.36204e-09
4.66575e-18
1.01016e-17
9.48748e-18
4.98666e-18
2.21093e-17
2.43671e-19
3.52477e-07
8.63771e-18
1.26485e-17
5.49635e-18
7.61283e-09
6.58993e-08
2.17955e-06
1.10838e-05
2.06398e-18
1.65703e-18
2.15927e-07
2.93966e-19
3.32545e-18
7.42918e-17
2.24803e-05
5.04246e-05
1.70783e-18
1.05182e-18
8.69645e-18
6.91566e-18
5.65332e-20
8.86076e-20
8.71477e-06
2.68566e-18
5.29109e-11
3.2075e-05
1.72346e-18
8.20775e-18
1.15832e-17
2.86617e-08
1.49216e-18
9.70457e-19
3.80337e-18
9.96187e-09
1.73809e-18
5.45472e-06
1.19698e-09
6.16433e-12
9.24314e-18
8.05622e-08
2.58317e-06
5.29616e-05
1.8113e-17
8.44009e-09
6.98119e-06
7.04842e-18
5.13748e-19
5.19094e-17
7.89931e-18
9.87318e-06
2.0699e-06
4.09597e-06
2.05814e-10
1.04408e-18
2.67504e-05
5.71562e-18
6.913e-18
2.9251e-17
6.79106e-19
3.11529e-05
2.77213e-18
2.93637e-17
2.24787e-09
6.05368e-05
3.87171e-19
3.00979e-06
1.04941e-17
1.08015e-06
6.74893e-18
4.15549e-18
1.54585e-17
3.8875e-18
3.00946e-06
7.50942e-07
0.000379071
2.39898e-18
8.91474e-18
2.51117e-06
4.23345e-18
3.95737e-18
7.53806e-18
4.54923e-05
9.77197e-09
3.72686e-05
1.13954e-17
1.11815e-08
5.19748e-08
2.5126e-17
1.29191e-07
9.53363e-18
1.58711e-06
3.09109e-05
2.41169e-05
1.54067e-06
3.01331e-07
1.49866e-17
2.63919e-18
9.02784e-18
2.34888e-08
9.28511e-18
8.22899e-06
1.55641e-17
0.00021166
1.5678e-18
4.95328e-05
3.82149e-06
1.4861e-17
4.20587e-18
8.25092e-18
2.59418e-18
4.61582e-05
1.72853e-17
7.57727e-17
1.45331e-05
7.78258e-06
9.74286e-18
2.79342e-18
2.44531e-17
3.93879e-18
1.49618e-17
1.69641e-19
2.92275e-05
5.19078e-07
3.96799e-18
1.06861e-18
5.46582e-10
7.86256e-18
1.85436e-06
1.32858e-07
3.13208e-19
3.89739e-06
6.45537e-19
4.3058e-07
2.4942e-19
1.2317e-06
4.92894e-18
1.02429e-10
2.48636e-09
8.15483e-07
2.04278e-05
3.85741e-05
1.36233e-09
1.38855e-18
5.6486e-07
1.78071e-18
5.3509e-06
2.41949e-18
8.47587e-19
3.759e-17
4.29666e-19
1.12609e-17
6.83947e-19
8.11919e-06
9.0381e-06
1.37238e-18
2.28245e-17
2.80531e-17
8.23959e-07
1.67421e-08
6.80464e-19
2.18709e-05
2.26131e-07
1.81466e-18
2.76451e-05
9.74741e-06
4.14491e-06
1.43366e-05
2.86814e-19
5.35025e-18
4.35137e-19
9.01845e-18
4.38789e-05
3.41625e-18
0.000133215
6.13941e-19
3.40175e-07
8.71308e-07
4.35475e-19
1.03686e-06
9.06508e-18
1.1319e-18
3.39112e-06
2.82755e-11
1.00876e-05
7.53873e-19
9.6454e-18
6.54188e-18
9.38635e-07
1.9325e-18
3.00477e-17
5.74359e-18
3.87681e-10
1.13586e-17
9.42187e-09
8.03531e-19
9.48012e-18
1.28938e-18
2.17225e-05
1.17141e-05
2.17482e-05
4.26035e-05
8.51157e-17
1.66346e-08
6.83191e-19
1.29445e-17
1.20779e-05
3.03711e-18
2.78127e-09
3.91643e-07
7.81954e-06
3.90335e-07
1.21698e-12
2.42726e-06
7.0831e-18
1.29649e-12
6.77695e-13
1.37653e-07
1.03405e-06
1.74068e-05
8.23049e-11
5.48254e-18
3.65764e-05
1.30872e-18
6.68961e-18
1.9648e-08
8.9346e-05
7.72408e-11
2.91258e-18
3.81896e-18
4.06655e-10
2.86741e-18
1.40303e-17
1.8535e-08
1.10234e-17
3.4589e-18
4.81576e-05
2.36454e-07
1.83865e-07
2.71584e-05
8.68295e-06
2.9377e-18
1.64973e-18
1.54259e-08
4.91979e-06
2.05438e-19
4.03974e-18
1.20233e-05
5.59448e-18
1.50009e-17
1.99243e-17
1.75039e-17
2.62533e-16
0.0030845
2.91805e-18
2.47362e-07
1.05872e-17
2.34557e-05
1.38972e-18
1.86721e-15
1.39994e-17
6.5499e-18
9.02699e-18
2.74876e-18
3.59718e-06
1.85789e-18
2.82914e-18
3.20771e-18
4.95614e-18
1.95431e-18
2.60087e-18
1.17184e-05
7.31136e-18
1.31601e-05
3.41494e-06
9.09992e-19
1.91788e-06
3.89276e-18
5.59702e-07
2.25843e-09
4.67174e-06
1.61765e-05
1.28262e-18
1.09295e-07
9.74382e-06
9.35765e-09
2.73552e-18
2.39656e-09
2.20078e-05
5.64124e-06
1.21392e-17
3.13269e-05
8.00691e-18
1.46146e-17
9.40897e-18
4.41416e-18
9.77712e-06
8.37202e-19
3.717e-19
9.83284e-06
2.39545e-10
3.21021e-06
5.1319e-19
8.6656e-17
7.84524e-07
3.95243e-19
9.69455e-08
5.76496e-18
2.73131e-05
8.66075e-19
2.02456e-18
6.57632e-08
1.05579e-19
1.52825e-07
1.93051e-17
2.13328e-18
5.88081e-06
4.98721e-07
5.77063e-06
1.90578e-05
0.000263664
2.41388e-05
4.02669e-18
2.90895e-17
3.32813e-06
8.06327e-06
4.32799e-05
1.36231e-05
3.48512e-18
1.43455e-05
3.24329e-18
1.35281e-18
1.03772e-05
1.27499e-05
1.30168e-18
1.55057e-05
2.81857e-18
3.29382e-06
1.03995e-05
8.34623e-18
2.40341e-18
1.64141e-18
3.19422e-06
7.58001e-18
8.22307e-19
4.77408e-06
2.49525e-05
4.50694e-09
8.99127e-06
2.39704e-18
2.85041e-18
9.12056e-08
8.84089e-07
3.11687e-19
1.19822e-05
9.71966e-18
3.04682e-06
1.51148e-18
1.74856e-18
1.42767e-05
8.257e-19
4.80863e-08
4.08942e-06
4.68788e-18
4.25627e-18
4.98298e-06
5.61083e-14
6.32219e-05
4.40359e-18
0.000315069
3.42098e-19
6.86176e-17
9.21139e-19
8.56161e-06
2.84506e-18
1.25816e-18
6.46626e-06
8.31243e-18
2.75451e-07
1.36307e-17
1.32355e-17
6.44146e-18
1.40886e-10
9.09393e-07
1.2267e-17
8.93882e-18
4.23025e-05
1.104e-06
4.16575e-19
5.39574e-07
1.64334e-17
5.14234e-18
1.80177e-09
3.32632e-06
1.49291e-06
2.87017e-18
9.28633e-18
3.88694e-18
9.16347e-19
3.57206e-18
4.06092e-18
4.34916e-18
1.55517e-18
4.38353e-18
1.59404e-17
1.32532e-18
1.63654e-18
3.25748e-18
3.66726e-18
2.03697e-18
8.73276e-19
6.15546e-18
2.43084e-18
8.87341e-19
3.19604e-18
1.66926e-17
2.12208e-05
2.63676e-18
3.41809e-18
5.19377e-18
7.6659e-06
8.79201e-18
4.47595e-18
0.000314895
8.81533e-18
1.86696e-19
2.7224e-05
5.36495e-16
2.83356e-18
8.06137e-06
2.87371e-05
6.05598e-19
2.66775e-06
4.15234e-06
8.13149e-18
1.52073e-05
4.6602e-05
2.07515e-05
3.83028e-06
1.25454e-05
2.82462e-17
2.39669e-18
3.4599e-06
1.25594e-05
3.63001e-06
5.5916e-18
7.44235e-06
1.99375e-06
2.44858e-05
1.24023e-05
7.96252e-07
1.78555e-05
1.26571e-06
1.1527e-05
4.79749e-17
3.03374e-05
9.8093e-06
2.02517e-06
1.5183e-06
4.00515e-18
8.8755e-18
1.46354e-17
4.06458e-18
6.86203e-18
1.09973e-05
1.58778e-05
8.89072e-19
3.28226e-19
3.98372e-17
9.07946e-19
1.16054e-18
1.16132e-17
2.14489e-18
1.37665e-17
5.33861e-06
1.82339e-07
2.52179e-05
7.5294e-08
9.3454e-19
1.13025e-17
3.74179e-05
6.72796e-09
6.86807e-19
5.96097e-18
8.49057e-06
4.69904e-17
4.9798e-18
4.67498e-09
9.14482e-06
1.58356e-05
3.84573e-05
3.82946e-05
8.78626e-19
1.67421e-05
3.7374e-07
1.00378e-17
2.65379e-18
1.34731e-05
5.75076e-18
1.26993e-18
2.23769e-05
0.00123137
1.97915e-07
5.19342e-18
5.3082e-17
1.97736e-05
2.47918e-05
2.04088e-05
6.65978e-06
4.15905e-06
4.70324e-18
1.19331e-09
3.02914e-12
1.72101e-16
3.57316e-18
2.02327e-05
5.80828e-19
2.35403e-06
3.00703e-05
1.99811e-05
1.37519e-05
2.37643e-18
6.82478e-06
2.20179e-18
6.28063e-18
2.19378e-18
8.19422e-20
2.92855e-06
0.000998938
2.19421e-18
5.33124e-18
4.90209e-09
2.73756e-05
1.08933e-06
7.96771e-06
3.84982e-05
5.53455e-06
2.33293e-05
4.66679e-19
8.05228e-18
2.52653e-18
3.58888e-05
6.54861e-06
3.00426e-11
3.23234e-18
1.74485e-18
5.30162e-17
2.54821e-05
3.21723e-06
1.77535e-18
5.564e-06
6.53327e-05
8.14213e-06
7.0307e-06
7.24242e-19
2.71776e-18
7.96555e-06
2.65282e-05
3.22781e-19
3.65456e-07
1.64996e-05
1.13226e-06
1.08049e-05
5.31997e-06
9.28291e-06
4.51845e-17
3.96829e-06
2.37466e-05
4.2927e-05
5.91965e-13
2.66673e-05
9.41106e-17
1.91539e-05
1.72603e-07
6.28272e-18
2.9668e-06
8.39124e-06
4.18162e-07
1.31082e-05
2.24334e-09
1.67133e-07
1.89372e-08
4.23307e-05
4.08573e-06
2.08606e-17
4.50658e-05
1.4161e-06
1.11902e-18
1.51914e-18
4.5557e-11
1.02202e-08
1.17608e-06
0.00127113
4.01333e-05
1.26878e-05
2.52825e-10
4.97112e-05
6.75546e-19
3.41418e-17
4.65391e-06
6.6304e-18
2.44476e-06
5.34039e-06
2.39844e-06
5.36944e-06
4.68113e-19
2.41991e-07
0.000124728
2.29958e-18
2.93368e-05
8.41716e-06
7.43273e-20
4.44165e-06
1.962e-07
4.02374e-19
7.09003e-12
1.08191e-07
9.14013e-18
4.66154e-18
2.48113e-19
5.0557e-06
5.16965e-06
1.62706e-05
1.44513e-17
5.85859e-06
3.74178e-05
9.16424e-18
8.97319e-06
1.38969e-05
2.82777e-05
1.71196e-06
8.71144e-18
6.74705e-07
1.07736e-05
1.17334e-05
1.00179e-05
4.34215e-05
0.000184895
3.82721e-06
2.6196e-18
7.75646e-09
5.87207e-05
1.13268e-18
4.65985e-07
1.61393e-17
1.8119e-18
4.91657e-19
2.90771e-17
1.36181e-18
3.64396e-06
1.21447e-18
7.8902e-06
1.4298e-06
2.14661e-17
4.60543e-06
2.7311e-17
1.63483e-05
1.89628e-18
2.09587e-08
1.60348e-17
2.49666e-05
1.67314e-07
2.40814e-09
4.57876e-06
3.29953e-05
1.93649e-05
4.43261e-06
3.02469e-05
5.6659e-15
2.4975e-05
6.17419e-05
1.03758e-05
8.71833e-17
1.32181e-06
3.21629e-07
6.22582e-06
1.23447e-05
7.21128e-07
5.22293e-18
4.11912e-18
2.0375e-18
4.26586e-06
4.30783e-18
1.79238e-07
2.53756e-07
1.35758e-06
3.1553e-07
8.68744e-19
1.99981e-18
4.35987e-18
9.59589e-06
2.43267e-05
1.45917e-06
9.77624e-09
2.15981e-06
7.68566e-06
2.23023e-06
9.42862e-07
7.92147e-06
6.63387e-06
2.90815e-06
2.51008e-18
1.39586e-18
4.51289e-17
1.54069e-05
1.22986e-05
9.07058e-19
2.66306e-18
2.26772e-17
9.21929e-06
2.17107e-05
1.42718e-17
2.3921e-06
1.97313e-18
6.65763e-10
5.58862e-06
9.83334e-05
1.17887e-19
4.48537e-19
4.24153e-06
2.32665e-18
7.45071e-08
1.34769e-05
4.17083e-18
1.20715e-05
3.73294e-05
2.06223e-05
1.27725e-18
1.34944e-06
7.53802e-18
9.04709e-08
5.53885e-05
4.00566e-18
4.61526e-18
1.25013e-05
2.72241e-16
1.3512e-18
4.62769e-08
1.15236e-06
2.21866e-18
1.57119e-18
1.92381e-17
6.63089e-08
1.44644e-06
3.62879e-06
2.7792e-05
1.05101e-05
4.13811e-18
7.44638e-10
6.99467e-07
1.79959e-18
3.23476e-19
3.07396e-18
6.40766e-19
2.15122e-18
1.03305e-17
2.59516e-18
2.3812e-18
1.79693e-17
1.54686e-17
2.76218e-12
6.97937e-18
4.07176e-07
2.05469e-18
2.13193e-07
2.00441e-17
6.45456e-08
5.19377e-17
1.4325e-18
3.05803e-05
1.03197e-05
2.62913e-17
0.00010166
5.81652e-12
2.36041e-13
4.50835e-19
1.436e-06
7.44013e-15
2.96773e-06
6.66433e-09
1.03009e-06
3.27932e-18
1.53208e-17
9.47911e-07
3.52799e-11
1.12224e-18
6.88159e-17
4.39948e-05
4.09425e-18
4.17939e-05
6.6705e-18
1.1217e-18
1.69296e-09
3.16205e-05
9.32095e-06
1.00003e-18
3.71131e-07
2.02513e-17
2.78917e-06
1.91032e-08
2.08448e-06
9.78393e-07
5.4775e-18
2.29339e-05
1.24634e-06
5.78562e-06
3.61108e-18
3.26148e-18
2.52753e-18
1.59627e-05
4.5155e-06
5.74022e-05
1.46941e-18
4.53846e-10
2.04047e-20
8.39863e-18
2.78912e-17
1.84999e-18
3.45268e-06
2.28388e-06
3.22051e-06
0.000355042
8.78211e-17
3.163e-05
4.00979e-05
1.98668e-05
1.7876e-06
5.06734e-18
6.13243e-06
4.76753e-06
5.55076e-06
4.87442e-10
1.1471e-05
7.92053e-18
1.8189e-06
1.31327e-06
3.67601e-05
1.19483e-09
3.54574e-06
1.08531e-17
2.06779e-05
5.20605e-18
1.17256e-18
1.84618e-06
5.19575e-18
7.29759e-06
3.32199e-18
8.79414e-18
1.59165e-17
4.63142e-19
8.96294e-18
8.4841e-07
1.33812e-17
6.55024e-07
1.70401e-18
2.77557e-18
2.08155e-05
6.18919e-06
8.72197e-06
8.77447e-06
2.82176e-18
0.000656172
2.2698e-18
7.89316e-05
1.08908e-17
2.0555e-05
2.5422e-05
2.54504e-06
6.41509e-05
1.74848e-17
8.4894e-17
1.67673e-18
2.44771e-06
6.47266e-19
1.8946e-18
2.00058e-05
7.17849e-18
2.73395e-18
5.73729e-06
4.02945e-18
1.44885e-05
8.2678e-11
5.44131e-18
1.9844e-18
5.1712e-18
1.7985e-06
7.45253e-06
1.5141e-18
2.56411e-05
3.60142e-07
4.61171e-18
0.000115808
2.57653e-18
1.79539e-05
2.03533e-05
3.81819e-06
3.50528e-18
2.01125e-05
1.07626e-05
9.10616e-07
5.72475e-06
1.39937e-05
4.67895e-19
2.98242e-18
1.94627e-09
2.34291e-18
5.18313e-18
1.84142e-19
2.21794e-05
4.9452e-05
4.95895e-06
2.31811e-06
3.95511e-18
5.48927e-05
5.16303e-05
4.79032e-06
2.88022e-06
1.02336e-05
2.3631e-05
2.87117e-06
3.71987e-18
1.96209e-18
2.8916e-18
7.41458e-06
1.51626e-18
2.84519e-05
5.67821e-17
8.4132e-07
5.45347e-10
2.93664e-06
2.50126e-05
6.8211e-18
4.5829e-18
2.71445e-06
3.99037e-07
5.48963e-18
5.93187e-18
7.90829e-18
3.66361e-08
3.32486e-07
1.53796e-07
8.83634e-07
1.11205e-05
9.9173e-05
5.07517e-18
2.04966e-17
4.3187e-18
4.27937e-06
2.0978e-05
2.26939e-05
3.89439e-05
2.12145e-06
3.12111e-06
7.94396e-19
2.84276e-18
1.85977e-16
5.39803e-18
1.08567e-05
2.50874e-05
3.36333e-18
1.14694e-17
6.69181e-18
2.71547e-17
2.61164e-17
4.64833e-18
1.49888e-05
4.01075e-17
1.18138e-06
0.000441473
2.70039e-17
1.68839e-08
2.5674e-05
8.0467e-07
6.2224e-19
2.46675e-18
5.33985e-06
1.7594e-18
1.57504e-05
1.24105e-09
2.72868e-05
1.07184e-17
1.54419e-15
1.05359e-17
2.28582e-18
1.70805e-18
1.00539e-17
0.000222932
5.43155e-19
6.35985e-06
1.35653e-06
1.70464e-18
3.92835e-18
2.14585e-06
5.82479e-18
1.06662e-17
1.54723e-05
1.16486e-07
6.86949e-19
4.88842e-18
2.58359e-18
1.87769e-05
6.69485e-19
7.0741e-18
4.32251e-07
2.82615e-06
3.32952e-06
1.76901e-18
1.81237e-17
1.2598e-17
4.11479e-06
1.99775e-06
1.41922e-05
4.04516e-06
6.27175e-19
8.81992e-07
1.40323e-05
7.24023e-06
3.25324e-18
2.2343e-17
5.15686e-19
4.03808e-18
1.79899e-18
3.50277e-05
6.22038e-06
6.03013e-06
3.16352e-17
3.38452e-18
3.52213e-18
6.5526e-19
1.38525e-18
1.01624e-09
2.85497e-07
2.61348e-06
8.32438e-19
5.09886e-18
1.29005e-18
3.1403e-12
3.8261e-05
0.000127568
5.24133e-18
1.87374e-12
7.85776e-15
3.868e-18
3.9735e-18
4.34008e-06
7.69246e-06
3.0782e-19
1.13218e-17
3.22546e-06
3.42487e-18
7.93729e-07
1.28462e-06
0.00243391
1.03785e-18
5.51731e-18
1.38647e-05
5.58866e-07
2.87593e-18
0.000769052
6.53724e-07
7.57903e-06
9.31004e-18
1.46809e-17
3.28591e-17
1.00286e-19
8.95328e-06
1.11652e-07
1.4921e-17
2.81976e-05
2.12718e-05
0.0010067
3.81716e-19
7.20751e-19
4.55554e-18
8.75015e-19
7.18019e-06
7.02927e-11
3.2338e-18
2.94556e-17
2.11632e-05
1.07854e-06
5.77677e-06
1.74585e-18
8.12115e-18
3.26661e-05
3.19088e-18
3.85886e-18
1.32086e-19
9.31404e-18
2.54863e-05
3.21056e-18
1.20068e-18
1.03961e-17
2.88889e-05
1.42967e-05
5.09575e-19
2.11431e-18
4.96569e-19
1.74981e-05
1.79985e-10
2.09223e-18
3.35904e-18
6.62907e-18
4.92415e-18
2.70788e-06
1.20214e-05
6.32868e-18
2.37252e-06
1.19395e-06
5.20139e-06
1.78509e-16
4.89358e-17
7.78763e-20
5.53473e-17
3.30774e-19
2.34007e-05
3.77774e-17
1.72146e-05
3.16621e-18
1.65776e-06
9.10769e-17
2.5365e-06
2.65253e-18
3.7791e-18
1.22674e-05
0.000206933
1.70305e-19
3.81716e-06
6.57382e-18
4.13655e-07
6.07301e-18
7.11576e-18
2.28856e-18
3.5022e-10
4.81582e-18
3.8144e-07
1.60877e-19
4.04619e-05
7.98429e-18
1.49427e-17
1.31992e-18
3.94696e-18
8.94172e-09
1.48709e-07
1.44964e-18
5.89984e-06
8.15747e-18
3.408e-06
2.18372e-05
1.34655e-06
1.41282e-18
4.90463e-09
4.65483e-07
2.2044e-09
5.21503e-06
3.9449e-10
1.76648e-06
6.4955e-19
7.74843e-19
4.66415e-10
6.23886e-06
2.53477e-07
5.46428e-18
5.77469e-18
1.47356e-18
0.000626712
2.09105e-17
1.02222e-17
3.23358e-18
4.81642e-18
2.4879e-17
5.1035e-08
1.89084e-07
1.09744e-06
7.1641e-08
6.67858e-16
1.56946e-06
1.25674e-18
6.65612e-06
6.15759e-18
1.84728e-17
4.71807e-18
1.46275e-17
2.26729e-08
3.44076e-18
2.35325e-17
1.31948e-17
1.67521e-05
3.96654e-17
3.11763e-19
1.23988e-05
6.38224e-18
7.15595e-05
0.000127396
0.000599005
1.76794e-17
0.000233278
0.0013851
0.00152074
0.00076568
1.62409e-17
2.65086e-18
5.552e-06
5.4379e-06
1.33133e-18
8.2015e-06
6.60821e-19
3.66312e-05
2.2581e-17
4.05644e-18
7.33424e-07
4.89867e-18
2.17599e-18
1.09148e-08
4.18202e-08
3.39907e-18
1.37463e-18
2.62816e-09
2.70477e-17
3.19243e-18
2.3589e-08
9.22272e-06
1.60203e-06
2.5185e-18
8.37455e-06
1.06051e-17
3.97681e-06
4.5638e-10
7.87245e-06
1.32673e-18
1.29795e-11
6.11512e-06
7.18475e-20
1.63869e-12
1.47132e-18
3.67683e-05
1.36098e-18
1.1215e-05
2.93823e-18
1.87785e-10
1.79012e-18
1.36406e-17
1.05768e-18
5.88e-13
3.41893e-13
2.27889e-18
1.37736e-05
9.53892e-06
5.2356e-17
9.56573e-18
3.73322e-05
2.01475e-05
0.000207554
1.05186e-17
7.20754e-08
2.82584e-05
5.22496e-05
6.27572e-11
1.30607e-17
6.44895e-05
2.02616e-18
0.000255384
2.4534e-18
4.04629e-11
4.14091e-11
7.93494e-19
5.72466e-08
5.74109e-18
2.36294e-05
8.70087e-18
7.19289e-18
5.26491e-18
3.93613e-18
2.58762e-18
1.42621e-18
3.36212e-07
2.03399e-06
0.00015377
2.16702e-17
3.96551e-17
4.64045e-05
2.11519e-17
1.12585e-18
3.65438e-19
5.8331e-18
2.37852e-17
6.32596e-06
2.89711e-18
1.61145e-18
9.26076e-19
3.52396e-06
5.04629e-18
5.50476e-18
3.44607e-18
3.45762e-06
1.10276e-18
6.51838e-06
0.000254106
5.50799e-06
5.82202e-06
2.87108e-05
5.18021e-18
1.87076e-18
3.02195e-18
3.30601e-06
1.99873e-06
5.86747e-19
3.14718e-17
6.22645e-07
4.24589e-18
1.44901e-17
0.000371663
5.34006e-18
2.47459e-05
8.42318e-18
2.56541e-06
3.8414e-06
1.08987e-17
3.76934e-18
1.6115e-18
2.32758e-18
1.72299e-18
2.13751e-05
8.41796e-18
4.91982e-06
7.85407e-19
1.93109e-18
7.2787e-06
1.95396e-17
1.46562e-05
2.50821e-17
8.54047e-19
2.60754e-06
8.55355e-08
0.000154808
1.16795e-17
1.7356e-18
2.04103e-18
4.02191e-06
0.000198143
3.85524e-18
4.91811e-18
7.46554e-18
1.59317e-06
1.40637e-17
2.25254e-05
3.34236e-05
2.39931e-17
5.0702e-19
7.6108e-06
1.2367e-18
2.14128e-17
5.889e-20
2.63057e-17
1.13595e-17
7.41977e-05
5.00828e-17
6.15311e-18
2.61302e-19
3.92311e-17
6.40836e-18
1.5515e-17
6.66679e-19
1.73267e-18
2.8342e-18
8.55304e-06
3.64621e-18
8.79102e-06
7.38716e-17
6.46623e-18
0.000647134
2.85215e-06
7.66872e-18
7.58468e-19
1.64068e-18
2.51265e-06
9.26911e-18
1.7037e-18
1.82837e-17
6.48032e-18
7.58888e-06
9.39202e-19
4.97767e-06
1.58278e-17
1.10296e-05
1.7372e-18
6.36546e-05
1.51256e-18
2.55903e-18
2.25177e-05
1.38527e-18
2.84981e-18
3.01884e-05
3.17142e-07
7.73256e-18
2.0195e-18
4.17848e-05
1.16792e-05
6.78399e-06
8.57519e-07
1.88161e-06
1.88856e-05
1.01906e-06
5.67528e-06
4.96872e-18
3.05832e-05
1.11338e-17
1.79896e-18
2.29989e-18
5.97805e-18
2.90427e-18
1.07964e-05
1.55388e-16
1.81289e-17
5.16768e-18
2.24082e-09
1.13454e-08
1.78998e-17
2.71793e-06
1.04654e-18
4.60883e-06
1.15991e-19
1.17645e-09
4.04912e-06
2.82194e-16
4.90883e-05
2.39623e-18
1.90075e-18
4.95439e-19
3.1044e-06
1.49131e-06
3.12598e-18
1.29197e-17
2.62789e-06
9.51553e-18
0.000728647
3.38347e-19
0.00010881
4.32885e-18
1.16372e-18
3.76188e-17
3.18605e-18
1.06306e-05
5.04843e-18
4.64432e-08
4.46175e-18
1.0786e-05
1.16838e-17
4.28729e-20
7.42518e-15
1.75722e-16
5.75432e-18
7.6073e-18
4.52244e-18
6.45275e-18
4.82049e-06
0.000219683
5.44269e-19
5.59918e-19
4.26451e-07
2.62861e-18
3.63656e-18
1.53006e-09
1.90725e-05
1.71746e-07
3.06523e-18
7.0305e-07
3.85344e-06
5.53556e-06
9.3997e-06
1.97666e-18
3.39237e-17
6.66965e-17
4.85274e-18
1.06727e-18
5.71527e-18
2.76318e-18
6.59187e-18
4.65943e-18
7.01005e-18
1.8293e-18
6.33172e-19
8.31808e-05
1.02929e-17
3.62759e-19
7.79653e-13
3.10104e-18
6.26244e-18
0.00122793
2.4569e-19
5.40732e-19
2.03897e-06
1.73017e-12
6.35425e-19
5.49423e-19
1.31556e-19
2.50295e-05
3.13408e-17
4.08218e-18
5.24821e-11
1.68036e-18
3.14996e-18
1.4136e-18
5.3233e-18
0.0001258
4.41441e-18
2.04506e-07
2.76588e-19
1.11184e-18
6.26136e-19
1.83095e-18
3.29812e-18
2.58618e-11
4.7489e-11
1.32759e-07
1.93252e-18
1.33135e-18
2.06532e-18
1.11645e-10
2.88692e-18
3.20821e-10
1.58053e-11
2.38935e-18
1.37504e-17
6.52255e-18
7.57714e-12
6.40777e-18
3.97002e-18
2.30134e-12
1.01743e-17
3.54436e-05
3.50534e-18
7.48636e-06
6.16404e-18
2.53439e-09
1.26258e-18
1.69638e-06
3.69183e-18
4.82037e-06
2.71835e-05
6.06838e-18
2.9076e-06
1.3942e-08
1.40633e-18
1.13509e-05
4.32388e-18
7.81887e-19
2.10009e-17
5.24039e-18
2.01795e-17
5.44604e-19
8.91458e-18
1.30641e-17
0.000311165
2.9993e-18
3.90144e-18
7.06292e-19
4.47295e-19
1.7524e-18
3.56809e-05
0.000930547
3.28274e-09
1.40458e-08
6.92065e-19
2.20023e-06
1.49826e-06
2.06028e-18
1.46064e-17
8.20453e-18
1.81269e-18
1.16931e-18
1.13587e-17
5.06354e-18
9.7179e-18
4.56089e-07
3.48146e-18
4.62474e-17
2.11011e-07
3.29154e-09
1.48953e-17
3.02489e-05
1.21379e-17
3.5926e-18
4.21086e-18
0.000196007
6.26536e-17
3.34592e-19
2.82903e-05
1.8657e-18
3.55971e-17
4.4404e-18
7.6326e-17
6.11966e-05
1.23101e-18
4.86547e-18
4.33916e-19
4.24423e-18
7.04817e-06