/*--------------------------------*- C++ -*----------------------------------*\
  =========                 |
  \\      /  F ield         | OpenFOAM: The Open Source CFD Toolbox
   \\    /   O peration     | Website:  https://openfoam.org
    \\  /    A nd           | Version:  10
     \\/     M anipulation  |
\*---------------------------------------------------------------------------*/
FoamFile
{
    format      ascii;
    class       surfaceScalarField;
    location    "33";
    object      phi;
}
// * * * * * * * * * * * * * * * * * * * * * * * * * * * * * * * * * * * * * //

dimensions      [0 3 -1 0 0 0 0];

internalField   nonuniform List<scalar> 
214403
(
-0.000467251
0.0003584
1.96549e-05
8.91962e-05
-0.000224088
-0.000756478
6.36701e-05
0.000916896
-0.000693044
4.6816e-06
-9.40343e-06
0.000697766
0.000615825
-0.000414056
-0.00103221
0.000830441
0.000831597
-0.00105143
0.000250523
-3.0693e-05
-0.000355419
0.000370294
-3.69143e-06
-1.11835e-05
-5.80199e-05
-0.000109779
-0.000623921
0.00079172
-0.00114895
0.00065445
-0.000172925
0.000667427
-0.00157552
0.00111379
0.00112256
-0.000660826
0.000958629
0.000113667
-0.00107185
-4.46122e-07
0.000340693
-0.000674985
0.00013899
0.000195302
-0.000700136
0.000219955
0.000363258
0.000116922
3.19441e-05
-0.000774217
0.000932471
-0.000190197
-0.000671585
0.000676277
-4.69273e-06
0.000129337
0.000807221
-0.00103472
9.81647e-05
-0.00080952
0.00067658
0.000205101
-7.21617e-05
-0.000819407
0.000799203
2.02034e-05
0.000267995
-7.70305e-06
-5.28532e-05
-0.000207439
0.001062
-0.000635359
-0.00141178
0.00098514
-5.23991e-06
-0.000214461
6.29952e-06
0.000213402
0.000442781
-0.000432396
-1.03847e-05
-0.000816589
-0.000282544
0.000280959
0.000818173
-0.000154146
0.000923227
-0.000744676
-2.44045e-05
0.000454657
4.78665e-05
0.00015855
-0.000661074
-0.000692701
-0.000334372
0.000896933
0.00013014
0.000638631
-0.000808604
4.99628e-06
0.000164976
0.000218318
-0.000190941
0.000715515
-0.000742891
0.000517208
0.000676163
-0.00081447
-0.000378901
0.000756166
-0.000474188
-2.13951e-05
-0.000260584
-0.00040662
0.000414487
-7.8672e-06
0.000162848
-0.000341708
0.000916908
-0.000738048
0.000955871
4.53637e-05
-0.000166421
-0.000834813
-0.000389282
-0.000399369
0.000408979
0.000379672
-7.9296e-05
-0.000447083
0.000396102
0.000130277
0.000288024
-0.000192619
-0.000625729
0.000530324
-0.000113933
0.000564226
-0.000203899
-0.000246393
0.00108633
-2.87709e-05
-0.00105756
-0.00046624
0.00090931
-0.00044307
7.8435e-05
-0.000989075
0.00057721
0.00033343
0.00016616
-6.67704e-05
0.00040672
-0.00050611
0.000375779
-3.92241e-06
-0.000371857
0.000693773
-1.50903e-05
0.000122477
-0.00080116
-0.000878753
0.000110688
0.000934225
5.84883e-05
5.87396e-05
0.000583716
-0.000700944
-0.000280768
-0.0018216
0.00176709
0.000335278
0.000393659
7.13934e-05
8.89808e-05
-0.000554033
0.000286621
0.000217209
-0.000701043
0.000197213
0.000903571
0.000541134
-0.000990047
8.20812e-05
0.00076716
-0.000155469
0.000126295
-0.00047331
-0.000278342
0.000625356
0.000214917
0.000330315
9.86593e-05
-0.000643891
0.000123372
-9.26029e-05
-0.000283506
0.000252737
0.000475828
-0.000861127
0.000600216
0.000806979
-0.000759528
-0.000260222
0.000212771
0.000736914
-0.000134791
-0.000582378
0.000789378
-3.35462e-05
-0.000173454
0.000598926
-0.000765888
8.8963e-06
0.000158066
-0.000548698
3.6205e-05
0.000876721
-0.000364227
-0.00103649
-0.000973606
0.000817695
0.0011924
-0.00055508
0.000558585
0.000109762
-0.000113267
8.75708e-05
-0.000709422
-0.00059488
-1.23661e-05
0.000309307
0.00029794
-0.000906191
0.000389437
0.000586232
-6.94788e-05
0.00106631
-0.00086005
5.57279e-05
-0.000261985
4.85129e-05
1.79486e-05
-0.000684626
0.000618164
3.55098e-05
-0.000193523
0.000956016
-0.000798003
-0.00238843
0.000259192
0.000270613
0.00185863
-0.000217391
0.000641136
-0.000203445
-0.000220301
0.000314058
-0.000165556
-0.000670088
0.000521586
7.52807e-05
0.000467588
-0.000594141
5.12731e-05
-1.03537e-05
0.000573259
0.000200117
-0.000763022
-0.000114062
-1.82066e-05
-0.000236943
0.000369212
-0.000623915
0.000680388
-2.51259e-05
-3.13466e-05
2.12547e-05
-0.000613388
-0.000441288
0.000390666
0.000118765
-6.81419e-05
-0.00114613
-7.2322e-05
0.000559036
0.000659412
-0.000338815
-0.000144357
0.000288228
0.000194944
0.000509953
-0.00171055
0.000237349
0.000963246
-0.00026014
0.000523666
-0.000285972
2.24464e-05
0.000369635
-0.000287201
3.54996e-05
-0.000117933
8.71796e-06
-0.000717776
0.000709058
2.42753e-06
0.000581974
-0.000584402
0.000501783
-9.8179e-05
6.64691e-05
-0.000470074
-0.000315048
0.000449606
0.000148898
-0.000283456
-0.000217342
0.000924842
-0.000222243
-0.000485257
0.000437233
-0.000745299
-2.82698e-05
0.000336336
0.000501858
0.000514044
-0.0010159
0.000738014
-0.000829023
0.000212027
-0.000121018
7.3322e-05
-0.00013222
0.000960102
-0.000901204
2.74924e-05
-0.000155192
0.000692604
-0.000564904
0.000165841
0.00144597
0.00041535
-0.00202717
-0.00126951
0.001117
0.0007245
-0.000571992
5.81576e-05
0.000446586
-0.000600505
9.57617e-05
0.000590599
0.000656517
-0.000214912
-0.0010322
0.00110009
-0.000668254
-2.16654e-05
-0.000410173
4.91494e-05
-0.000144137
-0.000452543
0.000547531
-0.000457152
2.56609e-06
0.000454586
0.0006684
2.33634e-05
4.62511e-05
0.000832812
6.71154e-05
-0.00127242
0.000372489
-0.000667005
0.000147184
0.000118993
0.000400829
-0.000432075
0.000107152
5.31679e-05
0.000271754
0.000103536
7.37954e-05
-0.000878279
0.000700948
-0.000175976
-0.00102454
0.000653275
0.000547236
0.00041985
-0.00049681
-0.000323852
0.000400812
0.000677687
-6.8208e-06
-0.000677342
6.4754e-06
0.000507577
-0.000718108
-0.000246609
0.00045714
0.00131634
-0.000398264
-0.000205064
-0.000713014
0.000762812
-1.35496e-06
-0.000701237
-6.02198e-05
-0.000385111
0.000453127
0.000943354
-0.00101137
0.000825216
-0.000290308
-0.000793396
0.000258488
0.00015118
-0.000222271
0.000965929
-0.000894838
-0.00108799
0.000991216
0.000940319
-0.00084354
4.91062e-05
-0.000847561
0.00032682
0.000471636
0.00105989
-5.68693e-05
-2.15297e-05
-0.000981491
0.000766754
-0.000149528
0.000147735
-0.000764961
-0.000863659
-0.000785524
0.00092974
0.000719442
-0.000168784
0.000484062
0.000131239
-0.000446517
-0.000362783
1.95507e-05
0.000701529
-0.000358297
-8.2874e-05
0.000931507
-0.000867108
1.84751e-05
-0.000824235
0.000765472
0.000148968
-9.02042e-05
-2.76251e-05
-0.000480759
0.00114702
0.000146317
-0.000484792
-0.000356623
0.000695098
-0.000382771
5.02574e-06
0.000377745
0.000117421
0.000533512
-0.000492976
-0.000157956
0.000872846
-0.000503085
-0.000134374
-0.000235387
8.63727e-06
-0.000266176
0.000257538
-0.000482958
-0.000130307
0.000183141
0.000430124
5.05736e-05
0.000277952
-0.000623713
0.000295187
0.00109542
-9.89632e-05
0.000428086
-0.00142455
7.42648e-05
-9.89782e-05
-0.00128822
0.00131293
8.284e-05
-0.000372781
-0.000487269
0.000777209
3.17843e-05
0.000674815
-3.81991e-05
2.71781e-06
-0.000406062
0.000403344
0.0008061
-0.000299852
-0.000359931
-0.00048837
0.000406318
-0.000400906
0.000906791
-0.000754338
-9.1875e-05
-6.05772e-05
8.88502e-05
-0.000420052
0.000183672
0.00014753
-0.000739682
-0.000223833
0.000150337
0.000813178
0.000615119
-0.00100004
0.000658797
-0.00027388
-2.7699e-05
0.000902935
-0.000904064
2.88278e-05
-2.98955e-06
0.00081742
-0.000809912
-4.51875e-06
-0.00114862
0.000916534
-0.000735836
0.000967926
0.000958027
-0.000926778
-3.12497e-05
-0.000879443
0.0011774
-0.000214876
-8.30783e-05
-0.000786544
0.000190279
-6.18458e-05
0.00065811
-0.00129406
9.97359e-05
0.000831916
0.000362406
0.000225038
-0.000307293
0.000171106
-0.000324622
0.000369454
0.000593893
-0.000638724
-0.000336578
-0.000151242
0.000192833
0.000294987
-0.000466755
0.000305249
-0.00058942
0.000750926
0.000140045
1.15086e-05
-0.001031
-0.000469083
0.00046804
1.04328e-06
0.000495887
-0.000476578
-1.93096e-05
-0.000759059
-5.02857e-05
-0.000201736
0.00018636
-0.00100017
0.00116384
-0.000350037
0.000449976
0.000774152
-0.000984862
-0.000239267
0.000859929
-0.000933953
2.52764e-05
4.87481e-05
0.000457634
0.000118521
-0.000472623
-0.000103531
-0.000719016
-4.30396e-05
0.000948416
0.000426545
-3.088e-05
-0.000520084
0.000124419
0.0004806
-0.000411664
0.000474276
-0.000543212
-0.000819171
0.000154058
0.00111509
-0.000276509
-0.000387067
0.00127963
-0.000616051
-0.000388996
-0.000435369
0.000105349
0.000118012
0.000312559
-0.000819567
-0.000556842
-4.9182e-05
0.000894403
-0.000288379
8.69033e-05
0.000138262
0.000497881
-0.000723047
-0.000259106
0.000634647
-0.000375541
0.000208538
-0.00100593
0.000362021
0.000601358
0.000418483
-0.000901829
-0.000831865
9.96584e-06
0.00103663
-0.00021473
0.000147183
0.000126456
0.000394591
-0.00066823
0.000571292
-0.000575849
4.55613e-06
0.000210631
-7.95483e-05
0.000707091
-0.000838174
0.000758237
-0.000240286
0.000364355
-0.000882305
0.00139353
-0.000449246
0.00104139
-0.00198568
0.000222001
0.000413977
-0.00017164
-0.000464338
-0.000645032
0.000265584
0.000337258
4.21901e-05
0.000460731
-0.000347246
-9.50035e-06
-0.000103985
-0.000286966
-0.000361943
0.001056
-0.000407094
-0.000517032
0.000672178
0.000266966
-0.000422112
0.000780016
-4.26589e-05
-0.000256757
-0.00118371
0.000782034
-6.50764e-05
-0.00113002
0.00104234
0.000484301
-0.000396612
0.000720665
-0.000811899
-0.000117298
0.000208533
0.000405197
-0.000732438
-0.000383246
-0.000418521
-0.000383805
0.000217337
0.000584989
-0.000597424
0.000185304
0.000589812
-0.000177691
0.000694188
-0.000659725
-0.000455387
0.000420924
4.25754e-06
-6.14473e-06
-0.000663117
0.000665005
1.55707e-05
-0.000567551
-2.15677e-05
0.000573548
-0.000167951
-0.000994113
0.000156647
-0.000574811
0.000516543
-9.8379e-05
-0.000382145
-0.000161063
-5.42163e-05
-1.20799e-05
0.000957755
1.29538e-05
-0.00229258
0.00161354
0.0011658
-0.000486768
-0.000677358
4.58699e-05
2.43299e-05
0.000607158
-0.00013362
0.00214689
-0.00252966
0.000516387
0.000109588
0.00016895
-0.000379127
0.00010059
-0.00145131
0.00078201
0.000100354
0.000568949
-1.69415e-05
-0.000962049
-0.000137369
0.00111636
-0.000388041
0.00144703
-0.00100286
-5.61284e-05
0.00065088
0.000945373
-0.000874969
-0.000721284
-0.000777837
0.000740721
0.00092012
-0.000883003
0.000308116
0.000430501
-0.000536103
-0.000202515
0.000299479
-0.000201988
-0.000479636
-0.00154472
-6.12949e-05
0.00126098
0.000345035
0.000463336
7.29677e-05
-0.000270719
0.000465787
0.000624375
-0.000576338
-0.000513824
-0.000774163
0.000172473
0.000753953
-0.000152263
9.12541e-05
0.000242488
0.000843655
-0.000893393
0.0008822
8.57408e-05
-7.45476e-05
0.000565438
0.000443998
-0.000399168
-1.58049e-05
-0.000112243
0.000527216
-0.000590731
-0.000117358
0.000333871
-0.00112535
0.000475137
0.000316344
3.49834e-05
0.000615053
-0.000682789
3.27524e-05
-0.000231257
4.47204e-05
-0.000214977
0.000401513
0.000950786
-0.000679656
2.83493e-05
-0.000539376
-0.000421985
0.000567452
0.00039391
0.00203936
-0.00218135
0.000712478
-0.00057049
-0.000400784
0.000497826
0.000200728
-0.00029777
-0.000892231
0.000388108
0.000777549
-0.000273426
-0.000385885
0.000561638
0.000722252
-0.000898005
0.00107685
-0.000416448
-0.000710093
4.96927e-05
1.85576e-05
-0.000258426
0.000628582
-0.000388714
-0.000109151
0.000108258
-0.000830973
0.000780133
0.000252554
-0.000835143
-0.000197544
0.000973606
-0.000801708
-0.000214937
0.00020061
0.000294878
-0.000703324
0.000207835
-0.00041072
-0.00075082
0.000668542
0.000492998
-0.000123106
-0.000319401
-9.68701e-05
0.000401358
-0.00042837
0.000923617
-0.000896605
9.69941e-05
-0.00111417
0.00101717
0.000367774
-0.000483815
0.000316652
0.000210177
0.000123032
0.000172721
-0.00050593
-2.24e-05
-0.000928977
0.000951377
-0.000520013
6.90133e-05
-0.000168616
0.000619616
-6.148e-05
0.000704886
-0.000642426
-9.79935e-07
-0.000478451
-0.000253001
0.000276107
0.000455345
-0.000178484
-0.000423073
-0.000392895
-0.00057755
0.000481606
0.000488838
2.12193e-05
-0.000592597
0.000997805
-0.000410414
-5.3196e-05
-0.000534195
0.000544831
-5.31999e-05
-0.000397538
-9.40939e-05
-8.74531e-05
0.000761808
-0.000949699
0.000275344
0.000479236
1.85223e-05
0.000233405
-0.000731164
-1.77038e-05
-0.000395573
0.000190986
0.00022229
-0.000280579
0.000364812
0.000703595
-0.000787829
-0.000991001
-0.000250038
-0.000271169
0.000888981
-0.000847907
2.02863e-05
0.000265091
0.000562529
8.18364e-05
-0.000300951
-0.000535589
0.000754703
-0.000399193
-0.000779236
0.000196605
0.000981824
-0.00034976
-0.000386169
0.000401519
0.000334409
-0.000917925
0.000883762
0.000934877
-0.000900713
-0.000127747
-0.000223147
-0.000672006
0.0010229
-0.000923205
8.68127e-05
0.00093839
-0.000101998
-0.000161112
0.000423107
-0.000261996
-0.000372342
0.000688586
-0.0005184
0.000202156
-1.4929e-05
0.00120656
-0.000449269
-0.000742364
-0.000431855
-0.000208205
0.000865626
-0.000225566
0.000139137
-0.000365015
0.000828307
-0.00060243
3.89265e-05
0.000551825
-9.67259e-05
-2.92359e-06
-0.000881137
0.000880789
3.27067e-06
0.00103294
-0.000182923
-0.00150956
0.000659541
-0.000953725
-9.30336e-05
0.00119021
-0.000143454
-0.000515542
0.000779189
6.4022e-05
-0.000327669
0.000452781
-0.000448373
-4.40729e-06
-0.000537922
5.20685e-05
-0.000464592
0.000950446
-0.000774112
0.00106722
-0.000222682
-7.04295e-05
0.000483675
-0.000202798
-0.000582521
0.000301644
-0.000932921
0.000940362
-7.44098e-06
0.000769501
-0.00111863
9.11408e-05
0.000257989
-0.00087149
-0.000238762
0.00149013
-0.000379874
0.000642585
-2.57796e-05
-0.000135436
-0.000481369
-0.000367166
-0.000622788
0.00139131
-6.53358e-05
-0.000918905
0.00055587
0.00141351
-0.00157657
-0.000149674
0.000312739
0.000395587
0.000188658
-0.000437062
-0.000411102
0.000427665
-1.6563e-05
-0.000164951
0.000923016
-5.86305e-05
-0.000699434
-0.000201368
0.000238744
0.000800878
-0.000838253
0.000523516
0.00122968
-0.000719273
-0.00103392
0.000921929
-0.00110613
0.000351587
-0.000167384
0.000815702
1.16722e-05
-0.000827374
1.53315e-05
0.00079391
-0.000809242
0.000897107
-0.00108524
0.000957631
1.01108e-05
-8.35188e-06
0.000696413
-0.000698172
1.78214e-05
0.00127278
-0.00126765
-2.29481e-05
-0.000108516
-0.000321253
-0.000650588
0.00108036
-0.000397086
-0.00023787
7.946e-05
0.000754216
-0.00130947
0.000475797
-0.000620172
-0.000162464
0.000664766
0.000117871
-0.000751046
0.000829674
-0.000221632
0.000143004
0.00011524
0.000601305
-0.000204423
-0.000512121
-0.000282705
6.68769e-05
0.00048839
-0.000272562
1.8201e-06
0.000233508
-0.000297004
6.16767e-05
-0.000317139
0.000781004
-0.000452417
-1.14482e-05
0.000232521
-0.000735921
-0.000429521
5.44268e-06
-0.000685574
0.000680131
-0.000261468
-0.00025099
0.000116275
0.000396182
0.000375277
-0.000216363
-0.000158914
0.000960308
-0.000953389
-0.000194939
0.00018802
-8.69273e-05
-0.000568296
0.000524022
0.000131201
-2.42873e-06
3.2482e-06
0.000526263
-0.000527083
0.000263797
-0.000216755
-0.000838638
0.000791596
0.000607201
-1.5242e-05
-0.000591959
-0.000866691
-0.000560844
0.00083622
0.000591315
0.000508936
0.000797249
-0.00137152
0.000482184
-0.000173788
0.000271986
-0.000580381
-0.000193502
0.000193381
-0.00106713
0.00106725
0.00030162
-0.000594067
-0.000577111
0.000869557
-6.05769e-05
-0.000133425
0.000629138
-0.000435136
0.000438021
-0.000538362
0.000195044
-9.47027e-05
0.000251346
-0.000416197
-0.000402018
0.000566868
-0.000789855
0.00088923
-0.000236701
0.000137326
0.000909623
0.0011718
-0.00129099
-0.000790432
-0.000696621
0.000693777
2.84445e-06
-7.91833e-05
0.000824029
-0.001026
0.000281159
3.07922e-05
-5.16108e-05
-0.0007917
0.000812518
0.000759927
3.17951e-05
-0.000874249
8.25268e-05
-0.000340037
-0.000574467
0.000722582
0.000191922
-0.000822452
0.00116557
-0.00041262
6.95052e-05
-0.000323321
-0.000397181
0.000235709
-4.91974e-05
-8.26734e-06
-0.000569083
0.000626547
-0.00185704
7.95205e-06
0.000165563
0.00168352
7.1667e-05
-0.000460298
-0.000239065
0.000627696
0.00116243
-9.55485e-05
-0.000376448
-0.000690434
-0.000199402
-0.000438395
8.07684e-05
0.000557029
0.000333461
-1.16482e-06
-0.000332296
0.000547088
0.000291412
-0.000181428
-0.000657072
0.000422928
-0.000334822
0.00083345
-0.000921555
2.66048e-05
0.000866988
-0.000286679
-0.000606914
0.000210682
0.000300957
0.000650791
-0.00040455
3.09048e-05
0.000373645
-0.000529702
7.60741e-05
0.000139807
8.82386e-05
-0.000728431
0.000500385
-0.00070657
0.00103395
0.000313303
0.00106856
-0.000226688
-0.00115518
-0.000679374
0.000664708
-0.0010533
0.00106797
-9.92534e-05
-0.000497103
0.000174071
0.000422285
-0.000559428
0.00106129
0.000317987
-0.000384303
9.1402e-05
-2.50865e-05
-0.000348553
-0.00111005
0.000347297
0.0011113
0.000728925
-0.000727459
-6.58855e-06
5.12198e-06
0.000586966
-0.000685749
0.000145523
-4.67401e-05
0.000151038
0.000592337
-0.00105507
0.000311691
2.55011e-06
0.000496467
-0.000499017
0.000329742
-0.000844474
0.00066577
-0.000319012
0.000856541
0.000721571
-0.0012591
0.000242326
-0.000247981
-0.00114968
0.00115534
-0.00034838
0.000576389
-0.00115622
0.000928211
-0.000825528
0.000657268
0.000861742
-0.000693481
-0.00050623
0.00069327
-0.00044794
0.0002609
-0.000111717
0.000486455
7.94471e-05
-0.000454186
0.000235865
-0.00034361
0.000354146
-0.000246401
0.000465599
0.000173333
0.000153304
-0.000792236
0.001296
-0.000879189
-5.35232e-05
-0.000363285
-1.7285e-07
-0.000628204
0.000628377
0.000395254
-0.00057678
-0.00176863
0.00195016
-7.90114e-05
-0.000856774
-0.000259541
0.00119533
-5.0709e-05
-0.000384375
0.000435084
0.00011976
0.000568779
-9.04246e-05
-0.000598114
-0.000155474
-0.00056111
0.000452951
0.000263632
0.000454422
-0.000380809
-0.000668493
0.00113152
-0.000880787
0.0002551
0.000269824
-0.000524924
0.000857298
-8.51959e-07
-9.81439e-05
-0.000758302
-0.00016748
-0.000285189
0.000452669
0.000297622
0.000197135
0.00170919
-0.00205617
-0.000725375
0.00107235
0.00025641
0.000546336
-0.000417887
-0.000384858
-0.000597934
0.00114577
0.000760391
-0.00130822
0.000673856
0.000233872
-9.01591e-05
-0.000817569
0.00109101
-0.000727385
0.000469405
-0.000833034
-0.000623393
0.000285236
-0.000780829
0.00111899
-0.00101774
0.00182416
-0.000714753
-9.16626e-05
-2.92097e-05
-0.000423956
-0.00058494
0.00103811
0.000824681
0.000341013
-0.000968166
-0.000197528
0.000442485
-0.00118029
0.000744711
-6.90959e-06
-0.00104172
-3.94673e-05
0.000681261
0.000399928
-0.000208321
0.000540141
0.000235301
-0.000567121
-0.00013262
0.000531061
0.000427508
-0.000825949
-0.0010854
0.000558606
-5.26511e-05
0.00057944
9.55393e-05
-0.000287969
0.000574472
-0.000382042
0.000470383
-0.00023666
0.000167904
-0.000401627
0.000445815
8.49347e-05
4.36837e-05
-0.000574433
-0.00064291
0.00069001
0.000255392
-0.000302492
-0.000155618
0.000835067
1.66541e-05
-0.000696103
0.000674892
-0.000396063
-0.000261811
-1.70171e-05
0.00056853
3.79227e-06
-0.000572322
0.000416159
0.000322308
-7.30664e-05
-0.000665401
0.000199349
0.000525218
0.000448259
-0.00117283
-5.98085e-07
-0.000941941
0.000942539
-0.000492676
0.00190453
-0.000277232
-0.00113462
-8.02312e-06
0.000709124
-0.0007011
-4.64351e-05
-0.000500038
8.97559e-05
0.000456717
-0.000927742
0.000471906
0.000360558
9.52774e-05
0.000189299
0.000157552
-0.00108606
0.000739209
0.000541733
0.000855815
-0.000319839
-0.00107771
0.000834585
-0.000286651
-0.000798972
0.000251038
-0.00104134
0.000593919
0.00158719
-0.00113976
-2.76146e-06
0.000408531
-0.000408496
2.72676e-06
-0.000421661
0.000417243
4.41768e-06
-0.00105986
1.61449e-05
0.000445784
0.000118783
0.000256126
0.000701119
-0.00107603
0.000538062
-0.000639187
0.000412977
-0.000311853
-0.0005413
0.00047404
-1.79007e-05
8.51608e-05
-0.000106576
-0.00088212
0.00112605
-0.000137354
-0.00039958
0.000192384
0.000632549
-0.000425353
0.000677013
-0.000261537
9.96316e-05
-0.000515108
-0.000438582
-7.63553e-05
0.000513374
1.564e-06
-7.90671e-05
-4.21355e-06
0.000751099
-0.000667819
9.23606e-05
-7.85449e-05
0.000733635
-0.00074745
-0.00066035
0.000924091
-0.000968595
0.000704854
4.90205e-06
-0.000830678
0.000825776
-0.000296234
2.55846e-05
0.000747156
-0.000476507
-0.00055671
0.000650838
-0.000887487
0.000793359
-0.000572245
4.40499e-05
0.000171572
-0.000270862
0.000731558
4.09315e-05
-0.000501628
-0.000193251
2.74893e-05
-0.000322609
-0.000288592
-0.000934665
0.000939192
0.000284065
-0.000415424
-4.89911e-05
-0.000104147
0.000568563
-0.00142862
0.000482583
0.000142669
0.000803372
-0.000439127
0.00103461
-0.000520467
-7.50135e-05
0.000306613
0.000120422
-0.000620286
0.000621027
0.000632997
-0.00125402
8.40943e-05
0.001362
-0.000313982
-0.00113211
-1.77162e-05
-2.48592e-05
-0.00061594
0.000658516
-0.000655908
0.00107992
-0.000434581
1.05676e-05
0.000621861
-0.00039247
-0.000563632
0.000334241
0.000158488
-2.11915e-05
0.000194229
0.000953023
0.00026202
-0.00137411
0.000159062
-0.000661031
-8.56118e-05
0.000216808
0.000529834
0.000244711
-0.000274113
-0.000367778
0.00115189
-0.000774945
0.000602479
-0.000979425
-0.000127836
0.000743168
-0.00128475
0.000669413
0.000446117
-0.000563732
-5.71825e-05
0.000174798
-0.000482543
-0.000167829
-1.63469e-05
0.000666719
-0.000367367
-0.000347453
0.00071482
9.24937e-05
-0.00098897
0.000876809
1.96668e-05
0.000378061
-0.000364653
-0.000380775
-0.00061262
0.000776488
-0.000148517
-1.53512e-05
0.000868472
0.000238028
-0.000934467
-0.000172032
-0.000337032
-0.000494419
-5.6503e-05
0.000887953
0.000574637
-0.000174604
0.000666218
-0.00106625
-0.000625008
-3.53425e-05
-0.000747313
0.00039986
9.42527e-05
-0.000819803
0.000262142
0.000463408
0.00024384
-0.000873335
0.000480274
0.000149222
0.000129428
3.48564e-05
-0.000652505
0.000488221
9.73398e-05
0.000421373
-2.95932e-05
0.000753992
-0.000149081
-0.000575317
-0.000294084
-3.26258e-05
-0.00027558
0.000602289
-0.000175139
-0.000235876
0.000451042
-4.00268e-05
-0.000683739
-8.96209e-06
-0.00115375
0.000413896
0.000607238
0.00164241
-1.35476e-05
0.000224275
-0.00185314
-0.000717394
0.0011154
0.000225939
-0.000623942
-0.000204464
0.000111294
0.000706215
-0.000613046
8.37737e-05
0.000237665
-0.0001839
-0.000137539
-0.00123272
-0.000254193
0.00106631
0.000420605
2.78346e-05
0.000534046
-0.000107459
1.60658e-05
0.000262727
-0.000824539
0.000545746
-0.000499024
-1.74618e-06
0.000183968
0.000316802
-0.000716528
0.000885263
-0.0001409
0.000403156
-0.000363372
-3.97842e-05
-0.000581233
8.38748e-05
-0.000453165
0.000950524
-0.000269326
0.000405074
-0.000312232
0.000176484
-0.000579704
0.000652085
-0.000269497
0.000197116
0.00025156
-4.17319e-05
-0.000586724
0.000376895
-0.0002594
0.00162704
-0.0021901
-0.000225179
-0.000157302
0.000153983
0.000228497
0.000753374
-0.0011772
-5.34987e-05
0.000477328
-0.000311577
0.000232377
0.00040079
-0.000321591
-9.38581e-05
0.00049284
-0.000134988
-0.000263994
-0.00055404
0.000122993
0.000129534
0.000301514
-0.00032264
2.76899e-05
0.00029495
0.000711175
-0.000338649
-0.000360767
-1.17593e-05
5.45821e-05
0.000371348
-0.000563704
0.000137774
-0.000380688
-0.000461129
0.000470291
0.000371526
-0.000202106
0.000519952
-0.00044549
0.000127644
0.000183979
-0.00034842
0.000240024
-7.55829e-05
0.00068312
1.93894e-05
-0.000702509
0.000588636
-0.00072555
0.000359382
-0.000222468
-0.000920448
-2.6037e-05
0.000946485
0.000372398
-0.000308925
7.20109e-05
-0.000135484
-3.09266e-05
0.000654332
-0.000713038
8.9632e-05
-0.000320785
0.000401606
0.000103159
-0.00037323
0.000799784
0.000739013
-0.000619744
0.000614259
5.48514e-06
1.4272e-05
-0.000982621
0.000968349
0.00132818
0.000159347
-0.000282902
-0.00120463
0.000275804
-0.00108172
-0.000132388
0.000938299
0.000205815
0.000242826
0.000139373
-0.000588014
-0.000372097
-0.000372781
5.68766e-06
0.00073919
-0.000177306
0.000243536
-0.000438327
-0.000817493
0.000147775
0.00107292
-0.000403203
-0.00160382
0.00117432
0.000517522
-8.80288e-05
0.000708212
5.8359e-06
-0.000714047
-0.000411289
-0.000553447
0.000357845
0.000606891
-0.000404689
-0.000588034
0.00017523
-0.000574072
0.000312319
0.000359092
0.000236969
-0.000308456
-0.000564975
0.000636461
-0.000389914
2.66079e-07
0.000389648
-0.000931862
0.000377984
0.000384922
0.000168955
0.000229776
-0.000617194
-0.000186653
0.000799619
-0.00025379
-2.00352e-05
-0.000525794
-0.000536142
0.000889337
0.00052791
-0.000881106
-0.000163253
-0.000338349
0.000129704
0.000371898
-0.000220821
-0.000177616
0.000398437
-0.00039429
-0.000828891
-0.000380634
0.000189498
2.42483e-06
0.000382594
-0.000574516
0.000760429
-0.000554188
-0.000800105
0.000593864
-0.000281947
0.000100769
0.000570037
-0.000388859
0.000522655
-0.000367889
-5.19233e-05
-0.000102843
-0.000598827
9.71899e-05
0.000467869
3.37685e-05
-0.000369896
0.000848263
-0.000925152
0.000360782
2.67614e-05
0.000537609
0.000880484
-0.000709378
-0.000551421
0.000380315
-0.000705099
0.00014679
0.00131874
-0.000671002
-0.000442938
0.000721983
0.000391957
-7.88477e-05
0.000698257
-0.000264745
-0.000354664
4.06824e-05
-0.00042041
-0.00027774
0.000657467
0.00079518
-0.000524471
-3.23062e-05
-0.000238403
0.000251484
0.000187615
-0.000616405
-0.00016716
0.000189116
0.00046667
-0.000488627
-0.000142441
0.000739731
-0.000911264
0.000313974
-0.000454626
0.000109633
0.000110071
0.000234922
-0.000972641
0.000988788
-1.61465e-05
0.000665145
-0.000655339
-9.80651e-06
0.00027005
-0.0010429
-0.000400623
0.00117348
0.000238777
0.000454764
0.000106078
-1.11369e-05
0.000387573
-0.000376436
0.000633134
0.000567847
-0.00120098
-0.000691311
0.000422
0.000298354
-2.9043e-05
-0.0003883
0.000127985
0.000315629
-5.53144e-05
-0.00118707
0.000554249
0.000651343
-1.85261e-05
-0.000375927
-0.000419591
0.000405604
0.000609004
-9.63359e-05
-0.000391869
-0.000120799
-0.00063909
0.000688411
-0.000419216
0.000116075
-0.000736569
-3.66361e-05
0.00065713
-8.49457e-07
-0.00036835
0.000369199
0.00177687
1.20858e-05
0.000190285
-0.00197925
-6.8326e-05
-0.000133926
-0.00098587
0.00118812
0.00030289
-0.000410022
-0.00018948
0.000296612
0.000120266
0.000917637
-0.000371785
-0.000666118
0.000999807
-0.000999856
-1.93707e-06
1.98661e-06
-0.000562224
-0.000507166
0.000792705
0.000276685
0.000327517
0.000249971
-0.000652128
7.46399e-05
4.7776e-06
0.000608126
-0.000621559
8.6559e-06
-0.00083626
0.000268539
0.000677645
-0.000109924
0.000626253
0.00037826
-0.000633786
-0.000370727
1.53637e-05
-0.00057281
0.000289464
-0.000148725
0.000859068
-0.000452526
-5.88959e-05
-7.06143e-05
0.000582036
-0.000776084
4.16515e-05
0.000734432
0.00113243
0.000486894
-0.000366114
-0.00125321
-0.000739149
1.5885e-05
0.000738628
-6.59265e-05
-0.000171304
-0.000438362
0.000675592
-7.99621e-05
-8.8767e-05
-0.000239044
0.000407773
0.000186105
-0.00094425
0.000711936
4.62082e-05
0.00058296
-9.16481e-05
-0.000566861
7.55491e-05
-0.000703523
0.000141395
4.3461e-05
0.000518667
-0.000274232
0.000181916
-0.000382359
0.000474675
0.000158691
0.000103146
-0.000936706
0.000674868
3.30914e-05
-0.000634209
-4.46296e-05
0.000645747
0.000627631
8.23724e-05
-1.09325e-05
-0.000699071
-0.000750561
0.000174783
0.000679314
-0.000538425
-0.000714793
0.00125322
0.00102935
-0.000522343
0.00022621
-0.000733215
8.14493e-05
0.000573779
-0.000352338
-0.000838822
0.00015086
0.000299395
0.000388567
0.00103524
-0.00107281
3.75666e-05
-0.000642985
-0.000218004
0.000449926
0.000411062
-0.000816838
-0.000634304
0.000425357
0.00102578
0.000831226
-0.000868203
-0.000106476
0.000143453
-0.000120124
0.00040409
-0.000318731
3.47646e-05
-0.00106545
0.000347694
0.000244629
0.00047313
-0.00155652
0.0019262
0.000332923
-0.000702597
0.000690929
-0.00150779
-8.54302e-05
0.000902296
-0.000618923
0.000799521
-0.00147183
0.00129123
-0.000643023
0.0014107
0.000141514
-0.000909191
5.76497e-05
0.000681506
-0.000159392
-0.000579764
0.00103612
-0.000777033
-2.61358e-05
-0.000232953
-0.000178083
-0.000170872
0.000261284
8.76702e-05
-0.000479858
-0.00100567
0.000861087
0.000624441
-0.000694548
0.000925013
0.000805658
0.000578369
-0.000425071
-0.000529817
0.000376519
0.000204256
-0.000264338
-0.000116763
0.000176845
0.000451567
-0.000446431
-0.000595974
0.000590838
-0.000183446
0.000526359
-3.81381e-05
-0.000304775
-0.000743717
-0.00011894
0.000920307
-0.000549942
-0.000135171
0.000679847
5.26585e-06
0.000234864
-0.000524739
0.000289876
0.000183485
-0.000243821
0.000906524
-0.000846188
0.000707408
-0.000996244
0.00014476
0.000144075
0.00045977
-0.000495034
3.52642e-05
-0.000713927
1.93788e-05
0.000626977
-0.000239414
-0.000605532
0.000217969
0.000200928
0.000162599
0.000711938
-0.00107546
0.000450417
-0.000488842
3.84246e-05
-5.30268e-06
0.000543006
-0.000613849
7.61451e-05
-0.000784213
-7.57822e-05
0.00104348
-0.00033087
-5.66347e-05
7.64571e-05
0.000311048
4.5704e-05
-0.000378311
0.000279191
5.34156e-05
0.00062002
-0.000593542
-0.000146602
7.25e-05
0.00104526
-0.000658182
-0.000459583
-0.000358703
0.000752865
-0.000394162
-0.000974627
0.000373291
-0.000228382
0.000829718
0.000768781
-0.000696299
-0.00113794
-0.000382124
-0.000456616
0.00157007
-0.000731334
-0.0010979
0.000698577
0.00099579
-0.00059647
-2.39686e-05
-0.000933795
0.000957763
0.00148516
3.60668e-06
-0.000856034
-0.000632738
0.000860363
-0.000554199
-7.52705e-05
-0.000230893
-0.000626543
0.000442524
-0.000109348
0.000293368
8.4012e-06
-0.000642469
0.000634068
-0.000461616
0.000475103
-1.34873e-05
-0.000342261
-0.000362518
-0.000928492
0.00163327
-0.000874359
0.000190683
-9.76177e-05
0.000781294
0.000207071
0.000335909
0.000894827
-0.000807316
-0.000667982
0.000580471
-0.000248987
-0.000512505
0.000565196
0.000196295
-0.0005174
-0.000263292
0.000781413
-7.21032e-07
0.000168655
-9.70817e-05
-0.000477096
0.000405523
0.000571153
2.51718e-05
-0.00073011
0.000133785
0.00017639
-0.000122637
0.000193085
-0.000232892
0.000231922
-0.000192115
0.000468157
0.000457978
-0.000468005
-0.00045813
0.000228482
0.000533127
-0.000552062
-0.000209547
0.000476842
0.000206744
-0.000376972
0.000603588
-0.000731852
0.000153436
-0.000801059
0.00056033
0.000301118
-6.03892e-05
0.000936348
-0.00031227
-0.00098278
-0.000255871
0.000681882
0.00034277
0.00066355
-0.000323253
-0.000558573
-0.000152318
-9.01686e-05
-0.000892645
0.00083503
7.87754e-05
-2.11601e-05
-5.56501e-05
0.00111406
-0.000115599
-0.000942813
-0.000730237
0.000148883
0.000325483
-0.000113997
-0.000719236
0.00020223
0.000631002
0.000666498
9.26083e-05
-1.98254e-06
-0.000757124
-0.000993069
-8.40524e-06
6.44636e-06
0.000995027
-0.000261607
0.000282956
-0.000467006
0.000445657
-0.000684801
0.000866852
-9.04425e-05