/*--------------------------------*- C++ -*----------------------------------*\
  =========                 |
  \\      /  F ield         | OpenFOAM: The Open Source CFD Toolbox
   \\    /   O peration     | Website:  https://openfoam.org
    \\  /    A nd           | Version:  10
     \\/     M anipulation  |
\*---------------------------------------------------------------------------*/
FoamFile
{
    format      ascii;
    class       volScalarField;
    location    "33";
    object      SgP;
}
// * * * * * * * * * * * * * * * * * * * * * * * * * * * * * * * * * * * * * //

dimensions      [1 -1 -3 -1 0 0 0];

internalField   nonuniform List<scalar> 
111485
(
1.71878e-09
1.70364e-06
5.54009e-07
5.68242e-12
1.41122e-07
2.5001e-09
2.69124e-07
1.08642e-08
2.58374e-07
2.46453e-08
5.07284e-07
2.09372e-08
1.31454e-07
0.00517126
1.32854e-07
2.70649e-07
0.00367622
1.60644e-05
1.67371e-08
2.52326e-08
0.000692768
2.32403e-10
5.03536e-08
1.76516e-07
9.09216e-07
2.14826e-09
2.09147e-08
3.15071e-07
4.87673e-08
0.000902592
6.59003e-08
3.21553e-09
6.31772e-09
2.55532e-08
1.3482e-05
1.80201e-06
0.00241773
0.00362997
4.2608e-05
7.02964e-08
0.000722329
1.63285e-08
5.35779e-08
2.02694e-06
2.89393e-07
3.90998e-08
1.2292e-07
1.51134e-08
1.29285e-07
1.4541e-08
2.91761e-08
3.57555e-07
1.03998e-08
1.76867e-07
3.48907e-08
1.17591e-09
2.81917e-08
4.18571e-10
8.69971e-07
8.58557e-09
1.8593e-08
5.81835e-09
1.87255e-06
1.07822e-07
1.50013e-07
5.33934e-07
6.80362e-06
2.52972e-08
1.42433e-06
3.03357e-06
9.68808e-07
2.01546e-06
2.16046e-07
1.76357e-06
5.78009e-09
2.68333e-09
1.10844e-09
1.47072e-08
1.98293e-09
5.22089e-07
0.00496751
0.00922151
9.27051e-10
2.18113e-09
3.31883e-07
7.52274e-07
0.00249499
1.40959e-07
4.39392e-06
1.43302e-07
2.89426e-08
1.25929e-07
9.0401e-07
7.54969e-09
3.98966e-08
4.24428e-10
0.00050509
2.71928e-07
2.92886e-05
8.30296e-06
5.29545e-10
5.62314e-08
3.54574e-08
2.27758e-07
1.30198e-07
2.63369e-07
1.91575e-10
3.81919e-09
2.55698e-07
1.17397e-05
8.65159e-07
2.11272e-08
2.46181e-07
1.36318e-06
5.60776e-09
6.24901e-09
1.55685e-09
1.64877e-07
4.68024e-07
1.58163e-10
1.1443e-09
3.35933e-06
0.00124904
4.51686e-08
8.27773e-07
0.000530933
1.97763e-06
3.07563e-07
1.75823e-11
5.55208e-06
2.82878e-06
3.67249e-07
0.000884792
3.17093e-06
1.47891e-06
3.63162e-09
1.98571e-10
1.196e-08
2.26161e-07
4.12527e-07
1.37053e-06
2.51711e-09
0.00316976
1.74178e-06
5.98156e-07
5.09837e-08
2.30002e-10
8.25368e-10
2.22188e-09
1.95292e-08
6.02015e-07
0.000530778
0.00197807
2.64133e-07
1.18541e-06
1.52223e-09
7.5176e-08
2.99935e-06
1.61638e-05
1.09077e-07
7.91474e-11
5.19284e-09
7.21769e-07
1.11918e-06
1.34435e-06
9.55601e-07
1.19517e-07
0.000451772
2.74571e-05
2.203e-06
4.09125e-11
2.10664e-09
0.00347445
2.75544e-11
6.35239e-09
6.61564e-08
8.21867e-09
1.63833e-07
4.10005e-09
1.00806e-07
1.48939e-07
4.98471e-09
2.63919e-08
7.35629e-09
5.01798e-08
4.05557e-07
1.95724e-07
8.2614e-07
6.44553e-06
5.51884e-09
1.12562e-06
9.10525e-08
1.31596e-07
3.91521e-07
1.10263e-07
2.3377e-07
5.43311e-08
2.79301e-08
2.00856e-08
1.5462e-07
3.50659e-08
2.79012e-05
1.44865e-06
1.064e-08
3.055e-08
1.01198e-07
2.178e-07
2.00641e-07
2.90196e-07
7.31405e-08
8.28934e-08
1.45738e-07
1.41727e-07
1.18144e-10
1.58175e-06
5.06559e-06
7.01976e-09
3.05657e-10
2.22853e-07
3.61388e-07
1.89495e-08
1.35316e-09
3.19336e-07
2.65404e-07
5.03785e-06
1.16591e-10
2.2212e-11
6.62035e-07
7.37845e-05
4.09724e-07
1.72719e-06
2.85885e-07
2.48387e-08
0.00255591
6.52601e-07
2.18824e-07
0.00284615
1.38637e-09
1.03683e-06
4.86519e-07
4.57978e-07
5.8893e-07
1.10387e-07
7.49338e-08
3.28379e-05
6.55752e-09
1.44423e-07
1.48978e-09
1.0827e-07
0.00240158
3.58461e-07
3.36042e-07
3.82482e-07
2.52497e-11
3.63962e-06
1.52969e-08
5.70841e-09
1.20601e-06
0.00180455
1.56035e-09
1.10335e-07
1.06939e-06
1.98186e-08
6.55729e-11
1.13062e-07
1.55982e-11
9.68945e-10
1.2452e-08
0.00297146
6.63574e-08
5.69012e-07
1.85734e-08
0.0031103
3.6901e-07
1.72084e-08
4.27455e-06
7.4726e-08
2.78998e-08
9.40886e-09
1.83141e-09
0.002035
1.03827e-08
7.75956e-07
4.36188e-07
2.73648e-11
0.00382537
0.00466926
3.47769e-08
6.15847e-06
5.40175e-07
5.83676e-08
1.4698e-07
2.44361e-07
1.64564e-10
1.32099e-07
3.2937e-10
6.31696e-06
4.94433e-06
2.86663e-07
3.60445e-08
0.00606063
6.03521e-09
0.00144089
1.44306e-08
1.27834e-07
2.46886e-10
2.20195e-09
0.000461979
6.48572e-08
3.21756e-08
1.29975e-07
2.96295e-06
7.20962e-09
4.57547e-07
7.73388e-10
3.91451e-09
8.72288e-08
7.49065e-05
0.00441246
5.89771e-08
1.38543e-05
1.75748e-10
1.01802e-09
4.48414e-10
1.49402e-06
2.74874e-08
1.5031e-08
5.71653e-08
1.32811e-08
1.32067e-06
0.00112863
9.63512e-08
1.00308e-08
5.6328e-08
3.27068e-08
0.000795751
9.2808e-07
1.0758e-08
1.62676e-08
1.69581e-08
2.4629e-07
2.7034e-09
0.00264761
4.35805e-06
8.49999e-09
6.65433e-08
4.85733e-06
1.20009e-08
0.000652045
2.59114e-09
2.12577e-07
1.05821e-07
8.86387e-09
3.61308e-07
1.75633e-07
6.8575e-09
9.12842e-09
1.87196e-08
4.967e-08
0.00634433
5.44852e-07
1.27828e-09
0.00088231
3.30617e-07
4.20214e-10
8.77388e-09
2.15597e-09
0.000880165
1.23153e-05
0.000856222
0.000824261
6.26878e-09
2.16555e-10
2.9537e-08
5.08806e-08
3.45003e-11
1.76653e-07
4.71433e-08
2.83831e-07
5.06635e-07
2.54471e-06
8.46464e-08
1.258e-05
2.6101e-08
8.98443e-08
8.85996e-07
1.22997e-08
1.25942e-05
5.51638e-09
2.33758e-07
5.80239e-08
0.000503749
1.99465e-09
1.23339e-09
0.00272059
1.21142e-07
0.00538811
7.80669e-09
1.1283e-07
6.17827e-08
1.32756e-10
9.75497e-08
8.2825e-07
1.68015e-09
0.000596618
8.14993e-08
4.94921e-08
1.66367e-08
3.30073e-10
1.3157e-05
3.42502e-10
1.60998e-07
6.68815e-08
1.52302e-12
1.60898e-08
9.12493e-07
0.00433052
2.59747e-06
3.90286e-11
1.43953e-06
1.75379e-06
1.76079e-06
6.64264e-07
1.17814e-05
4.48407e-08
1.95139e-05
9.21546e-07
0.00358993
4.17919e-06
3.80212e-09
1.34682e-07
2.61556e-08
1.94484e-09
2.43355e-05
3.89438e-06
1.39305e-06
2.95031e-08
3.10842e-08
2.34775e-07
3.64742e-09
0.00614942
3.82419e-08
6.03765e-07
8.44767e-05
1.69008e-06
2.47751e-05
1.23022e-09
0.00449315
0.0058133
4.12757e-10
6.5156e-07
5.25328e-06
1.99601e-06
6.19422e-11
4.7711e-07
4.37849e-10
0.00501115
1.34672e-06
3.71313e-07
2.08075e-06
5.38632e-07
4.64146e-09
8.49221e-08
1.35144e-08
1.33196e-06
2.93101e-09
1.79432e-08
0.000977567
1.73989e-06
1.78664e-09
2.07325e-09
7.27484e-06
1.53996e-09
3.14541e-08
7.97998e-08
6.74807e-11
1.06042e-06
1.66832e-09
0.00138479
8.47367e-09
4.47078e-08
3.12683e-09
4.26398e-06
8.8745e-09
0.00396951
3.93216e-07
0.00415913
5.58463e-10
1.1436e-06
4.68534e-08
6.06541e-11
0.0064677
0.00251435
5.31976e-07
7.012e-08
5.65482e-07
1.50122e-08
2.54785e-07
5.99965e-09
6.94612e-07
0.0050738
1.05659e-09
2.04871e-08
1.93762e-06
3.25555e-07
0.000986905
1.04784e-07
2.00815e-06
3.06711e-08
2.79043e-08
1.3034e-05
0.00136537
2.3802e-07
9.69953e-09
2.21373e-08
7.71288e-08
6.03234e-08
2.31021e-08
4.00646e-07
2.10517e-11
3.02598e-05
2.06873e-09
6.51921e-09
4.78973e-09
1.78385e-06
4.99594e-10
1.48161e-07
4.12295e-09
1.64123e-07
1.26378e-09
0.00205238
0.00198833
4.47699e-07
6.94186e-09
0.00108549
0.00142102
5.79279e-09
4.16239e-09
2.69976e-07
3.85667e-09
2.69884e-06
2.90639e-07
2.31003e-07
0.000795454
3.85802e-08
9.21103e-11
8.26261e-07
7.31534e-07
1.13154e-06
2.18039e-08
3.42004e-07
2.60512e-07
2.56407e-08
1.87749e-08
4.11309e-07
6.30458e-07
1.68302e-10
0.00225856
1.3173e-06
8.70697e-07
3.42168e-08
2.07219e-05
6.32292e-07
8.69584e-06
4.06168e-05
6.15309e-06
4.602e-08
1.68701e-06
2.29183e-07
4.27894e-07
0.00201687
3.5315e-06
1.31292e-06
6.51154e-05
0.00135813
5.93224e-09
1.14822e-06
8.13619e-08
6.15526e-07
1.0962e-08
8.78077e-06
4.9299e-05
9.5693e-06
2.9858e-06
4.66904e-07
1.98336e-08
6.81501e-09
3.42512e-06
2.88607e-08
1.45155e-09
5.39781e-11
9.08848e-09
7.66747e-10
3.91983e-07
2.99514e-11
0.000651099
2.75025e-07
6.18324e-07
0.00181187
0.00561921
1.0183e-06
3.16984e-08
0.000691461
6.91685e-10
3.92856e-07
3.29145e-09
1.0004e-08
8.02499e-07
4.56871e-07
0.00208406
5.16975e-07
4.01015e-09
6.43759e-08
5.96212e-07
0.00253007
1.41363e-07
5.3709e-07
1.03977e-06
0.00345441
0.000696083
5.41915e-08
3.37613e-07
1.31935e-07
4.37583e-08
1.54074e-07
1.67602e-08
6.61651e-07
7.30293e-08
3.51605e-08
2.15235e-08
7.52126e-08
1.27668e-05
5.44415e-07
6.47832e-08
7.47402e-08
1.22972e-05
4.96942e-09
9.30789e-09
2.93703e-07
8.53681e-08
3.01554e-07
2.19316e-08
6.93879e-08
4.70025e-08
5.44077e-07
3.15105e-06
2.87775e-07
5.76083e-07
3.11413e-08
9.51125e-09
7.99976e-07
9.9321e-08
2.1562e-09
0.00129589
6.3845e-10
0.00241361
1.01365e-06
0.000233072
1.31658e-08
0.000492524
8.24702e-08
2.20641e-07
3.25327e-10
1.86154e-07
6.00031e-09
4.14049e-10
2.01013e-08
0.00498003
2.17184e-06
5.68474e-07
0.000762504
2.27843e-09
4.1679e-10
1.13789e-07
2.95997e-08
1.48914e-06
9.77148e-09
2.4021e-06
6.48501e-10
1.324e-07
2.3105e-06
0.00294912
9.16897e-12
3.68406e-09
2.94832e-08
3.68629e-10
2.27074e-06
9.1079e-09
0.00104518
1.32675e-08
1.12917e-09
4.47799e-09
0.000759279
9.0476e-08
2.85342e-06
1.87248e-11
8.43059e-05
1.55326e-05
0.00318819
2.53242e-10
2.55657e-09
8.38498e-08
4.75013e-07
7.53389e-07
9.57565e-06
6.52622e-06
4.59151e-06
1.08392e-07
0.00105398
5.29895e-07
2.00258e-08
1.45571e-09
2.4733e-08
4.94311e-09
3.76847e-09
1.14113e-09
2.62343e-11
3.4274e-08
1.36206e-09
8.43994e-09
2.00842e-08
3.05617e-09
9.43954e-09
4.71187e-09
1.48733e-08
4.18864e-09
3.10583e-07
3.03596e-07
8.78332e-09
7.25966e-10
4.25385e-07
2.14505e-11
1.5531e-06
3.23809e-08
7.94693e-08
2.94682e-09
8.49543e-11
2.23395e-10
4.5286e-11
3.20925e-07
2.08648e-09
1.18386e-08
3.87075e-07
2.16425e-10
2.80708e-07
1.42003e-06
6.87615e-08
1.47521e-08
9.45447e-06
5.6739e-08
0.00443677
2.00044e-06
2.06261e-07
0.00376555
1.47821e-06
1.56662e-07
5.35118e-07
1.03932e-08
3.46467e-07
0.00169272
1.23293e-05
1.38813e-08
3.91491e-09
2.46034e-07
1.53539e-06
1.77289e-06
1.36448e-06
7.87642e-11
4.74637e-13
1.28348e-08
6.72812e-07
7.15328e-08
6.94258e-08
3.26622e-06
4.40458e-08
5.96578e-07
1.56254e-10
2.85907e-09
0.000558347
2.03335e-07
4.79143e-09
2.08245e-09
8.89271e-07
2.25749e-06
3.38362e-08
8.19114e-09
0.000759965
3.62708e-11
5.53924e-07
0.00106067
6.46574e-10
0.00125277
7.64887e-07
0.000617688
8.86465e-06
5.53772e-09
5.17342e-07
3.36696e-07
0.000852463
9.92786e-07
2.26423e-05
0.00285743
2.05805e-06
2.65279e-07
2.11222e-08
1.14505e-08
0.0085579
0.00286182
3.18689e-09
0.00418712
2.83337e-07
2.98062e-06
6.34484e-07
3.71211e-07
2.07771e-05
7.07604e-07
2.42318e-07
1.28567e-07
1.33709e-08
2.36948e-08
0.000765769
3.69877e-09
1.01864e-06
6.03894e-07
9.86692e-10
7.59423e-08
0.00383109
9.06234e-08
6.25095e-09
1.06582e-05
8.16335e-10
1.95436e-08
0.00372348
7.8292e-09
0.00313039
0.00598943
2.28738e-05
3.75608e-07
1.88859e-08
6.27212e-08
1.04788e-06
4.63065e-06
2.04268e-05
5.38258e-06
7.88632e-08
0.000762802
1.98375e-06
6.05117e-10
6.37425e-06
5.20078e-06
1.15457e-05
8.36956e-06
1.61352e-05
3.07622e-06
1.04643e-10
1.28548e-06
7.15604e-09
1.38051e-08
2.66388e-05
0.0061416
4.34603e-09
5.60386e-09
5.71982e-05
6.21834e-05
4.20685e-11
1.12171e-05
9.88141e-09
2.28808e-10
3.46036e-10
7.70084e-09
1.06266e-07
8.23914e-09
1.36676e-06
0.00085638
5.6042e-11
1.36582e-08
7.90822e-05
0.00205635
1.44582e-06
1.27025e-09
0.000544609
6.93742e-11
2.46992e-06
5.31525e-10
8.50296e-10
1.07841e-05
0.00229229
3.38196e-08
2.0024e-09
3.26588e-09
0.000593828
8.51712e-09
0.000388429
4.64921e-09
2.15886e-06
1.38828e-10
3.85356e-05
4.35456e-08
4.29841e-11
1.79271e-08
9.84051e-09
2.72884e-05
1.61624e-08
3.72186e-09
3.52935e-08
8.50189e-05
0.000907107
1.33066e-06
1.04763e-05
2.04133e-05
4.0134e-09
2.25081e-05
1.80497e-07
3.60105e-09
4.95456e-08
4.27041e-06
3.77872e-07
4.61363e-09
1.56209e-07
2.78887e-06
4.13775e-09
1.17339e-08
1.61332e-08
3.27682e-07
0.00125631
9.57686e-11
1.52288e-09
0.00101242
2.11989e-06
1.35393e-06
2.92055e-10
2.36684e-08
2.85646e-09
1.95791e-08
4.46336e-07
1.04681e-06
1.77905e-08
4.73096e-07
4.4242e-07
1.46973e-06
3.9575e-07
9.28631e-11
6.24093e-08
7.93554e-11
1.32883e-08
1.62822e-06
3.03377e-06
3.6379e-09
8.52865e-09
1.75652e-08
8.27666e-11
7.77457e-07
9.30427e-09
1.25867e-06
1.52848e-05
1.4427e-06
4.79566e-09
2.68959e-05
2.10342e-06
1.31051e-06
2.79282e-06
8.81194e-10
2.69843e-06
6.31548e-08
0.00206705
6.17946e-07
1.80188e-06
8.95067e-09
1.28632e-11
1.30154e-09
0.00328439
0.00125597
9.90676e-07
8.16822e-12
2.4234e-06
6.46449e-10
0.00304155
3.36854e-06
1.51917e-08
2.53298e-09
4.84943e-08
1.55983e-08
1.69552e-06
4.40953e-08
2.10496e-06
0.00549142
9.19279e-08
1.28715e-06
5.3168e-07
1.33752e-06
9.23999e-07
7.85962e-09
1.15705e-11
8.04054e-08
5.73696e-07
4.74321e-09
3.75813e-09
1.07946e-05
6.84239e-09
5.69265e-08
0.00737956
2.69788e-08
1.21232e-06
1.21315e-11
8.3317e-08
3.79078e-09
0.00584219
3.90003e-10
0.00214955
0.000105666
2.32304e-06
3.30245e-07
3.03337e-07
1.78203e-05
4.60064e-08
9.77305e-08
4.83122e-08
8.53893e-09
1.29003e-08
3.82995e-08
1.52552e-06
5.64415e-08
0.00118882
4.63508e-09
9.69926e-08
5.78535e-06
9.43272e-11
7.27868e-06
4.58445e-09
8.51844e-07
1.41007e-05
2.35043e-09
4.31958e-09
1.17054e-06
9.80221e-09
1.67857e-07
0.00321141
9.93475e-09
1.82578e-07
1.30248e-10
0.000778552
1.59174e-07
1.22203e-08
1.13188e-08
8.10089e-08
1.33016e-07
1.41563e-09
0.00270466
2.04174e-08
5.05476e-11
2.28382e-06
8.18868e-09
1.36367e-10
8.21435e-07
1.5911e-05
1.4642e-05
4.41364e-10
3.41124e-08
8.41672e-10
9.841e-07
8.68303e-07
0.000643251
1.06225e-07
1.45879e-05
1.25545e-06
2.06105e-05
5.25708e-07
5.39552e-08
2.20802e-08
1.30732e-08
1.30843e-06
3.97651e-08
1.42135e-07
0.000820171
5.21057e-06
0.000801464
4.27027e-11
1.79199e-07
1.79637e-09
1.40494e-06
1.68619e-06
1.13055e-07
8.81762e-07
8.77168e-06
2.69836e-06
1.54368e-11
0.000112691
0.000144131
1.87298e-06
7.71521e-07
1.94677e-08
1.54496e-05
3.69358e-08
7.28856e-08
7.13431e-09
1.18411e-09
4.3856e-06
1.55529e-07
1.63776e-05
1.51703e-08
0.000792904
1.13333e-05
1.60599e-08
1.97312e-08
1.11195e-05
5.88314e-08
0.00104031
0.00493565
2.31134e-06
4.22488e-06
1.11856e-07
6.20766e-10
5.23987e-10
2.90821e-09
1.29447e-06
8.53247e-08
0.000582785
0.00102663
5.66085e-07
5.63956e-09
5.66529e-06
0.000704183
4.61186e-07
2.11301e-05
4.41743e-05
0.000739191
0.00215083
0.000859547
2.62408e-06
1.57824e-10
3.59006e-05
3.182e-08
3.37336e-09
4.58635e-09
5.50038e-09
5.22424e-07
1.29401e-09
3.29581e-09
1.57871e-06
2.33563e-09
2.47118e-10
1.7151e-08
3.36038e-09
0.00100099
1.16165e-07
6.13774e-07
0.00129169
0.00464982
1.99428e-09
0.00333586
3.3126e-06
0.00688119
1.22782e-07
1.36392e-09
1.89604e-09
8.07709e-07
0.00464566
3.7724e-11
2.28476e-05
3.14557e-09
8.69188e-08
2.89813e-07
2.31045e-07
2.78772e-08
5.83662e-09
0.00131169
2.5907e-09
1.40554e-07
4.75548e-09
9.23125e-09
1.00998e-08
8.88362e-06
2.18687e-06
1.98463e-08
6.54596e-06
3.94847e-07
9.89901e-09
2.30852e-06
2.20525e-08
6.5154e-07
3.75899e-09
2.30178e-09
0.00450944
0.000743948
7.86561e-06
6.01227e-09
6.76324e-10
2.9779e-08
0.00344436
6.52984e-09
2.07181e-07
1.51767e-08
4.23172e-08
5.33688e-10
0.000598902
2.40554e-06
3.24723e-09
2.01014e-08
3.20751e-07
3.16977e-09
0.00318087
3.6648e-10
0.000756227
1.47376e-06
9.25501e-08
3.32525e-10
3.89511e-08
2.49541e-08
2.01263e-09
4.76184e-08
7.55349e-08
2.25632e-11
1.2194e-10
1.77753e-06
0.00136757
2.60427e-10
6.75546e-07
9.4492e-08
1.81545e-06
2.80606e-09
0.000821963
3.2122e-08
1.10298e-06
1.06418e-06
7.66201e-09
1.09711e-06
4.53332e-08
3.127e-07
3.46262e-09
6.45497e-09
2.64043e-07
1.38323e-09
3.28434e-06
8.9618e-07
1.23922e-09
5.76652e-09
2.49227e-06
9.51562e-06
0.00545059
2.49732e-09
1.1272e-07
3.95393e-08
6.63678e-06
3.54297e-06
5.23874e-07
1.55991e-06
0.00135968
7.08657e-08
9.51415e-07
1.41662e-05
0.00115441
1.53544e-08
9.3344e-10
7.35838e-06
2.1151e-08
0.000707508
4.90262e-09
2.08937e-07
2.30742e-08
4.33675e-09
0.00410033
1.1836e-09
1.08702e-08
1.51352e-08
4.67584e-07
0.00541084
0.000971274
8.75552e-09
2.44754e-09
7.34895e-11
1.11206e-08
1.06784e-08
1.74648e-08
2.98777e-09
1.34462e-10
3.90651e-09
1.9269e-10
5.39496e-09
0.00106599
0.000635182
2.09058e-10
2.61567e-07
4.08803e-09
8.40895e-09
2.09841e-09
0.000622969
0.0015455
1.93446e-07
4.36341e-09
1.38188e-09
1.65514e-08
3.41082e-08
8.82732e-08
5.8212e-09
6.45687e-06
4.99417e-09
5.41724e-08
9.10807e-08
3.20928e-06
9.86564e-08
1.37176e-05
4.25012e-08
4.87521e-09
8.34247e-06
7.93453e-06
6.11029e-09
4.87198e-07
6.31607e-08
2.37614e-07
8.18929e-07
1.74643e-07
7.39158e-08
3.46487e-09
0.0058324
2.21348e-08
9.7109e-07
0.00106923
2.42543e-06
2.68279e-07
3.32335e-07
6.05663e-08
1.37201e-08
5.11881e-07
1.52682e-06
1.38889e-06
8.03864e-08
7.92661e-07
6.99639e-08
3.6627e-08
1.41661e-08
1.48165e-10
7.93535e-09
5.6134e-10
1.04201e-11
2.7583e-09
1.66108e-08
1.12442e-07
2.37351e-09
3.50113e-11
8.10859e-09
3.11169e-07
6.46218e-09
2.13494e-10
1.47534e-08
4.1546e-08
2.37013e-09
1.8952e-06
1.29836e-07
0.00437939
2.24631e-09
2.04952e-07
3.667e-07
7.91752e-08
4.04666e-10
1.04616e-08
0.00396442
9.41672e-09
2.90231e-10
6.47492e-08
0.00398103
1.53707e-08
1.1278e-06
1.11903e-06
2.99172e-08
1.76131e-07
2.11975e-07
6.93846e-06
2.6728e-10
8.27091e-07
1.05572e-07
3.5967e-09
5.22501e-06
7.24439e-06
0.00346899
1.36462e-07
3.03672e-08
1.90084e-07
7.00222e-07
3.5568e-07
1.22973e-08
4.38764e-05
3.95792e-09
1.29103e-05
6.8822e-06
0.00113131
1.41903e-07
0.00456706
4.87635e-09
1.91079e-08
1.02617e-07
3.95742e-07
9.92602e-07
7.15804e-08
2.54418e-06
9.62435e-10
1.66059e-07
4.1599e-10
2.1737e-10
2.5872e-08
7.71189e-06
5.47497e-09
3.70768e-10
8.10786e-06
5.45614e-09
9.64962e-06
4.60601e-08
1.51521e-08
3.02018e-08
2.89497e-09
3.65842e-07
9.83618e-08
3.74704e-06
9.17351e-09
1.2652e-07
6.32293e-05
3.11087e-08
3.17786e-10
2.69539e-06
6.54264e-08
6.03171e-07
9.07861e-10
0.00253828
2.29812e-06
9.71921e-07
3.6674e-08
6.31657e-09
3.78687e-06
1.00187e-07
2.76025e-09
7.94401e-11
1.25976e-06
1.41371e-06
1.50181e-06
0.00343212
8.50785e-08
1.46675e-07
4.72446e-06
1.46591e-07
1.08834e-07
4.16061e-08
1.23583e-06
4.82929e-08
2.27098e-06
0.00324705
2.73986e-07
3.16965e-13
5.3107e-08
1.08429e-06
2.67012e-07
4.83699e-09
1.12991e-05
1.51488e-05
8.57329e-06
1.73742e-05
3.56116e-07
9.00021e-07
2.34059e-07
3.87093e-07
6.37617e-09
4.22232e-10
0.00187652
9.41881e-06
3.92584e-08
2.56703e-05
1.08716e-07
5.20866e-07
8.92312e-06
8.5648e-08
4.97409e-08
5.96336e-08
6.5666e-10
7.82527e-07
5.99892e-07
2.28544e-06
7.20261e-07
6.27282e-09
8.50925e-09
4.19169e-07
1.80541e-08
5.50121e-10
5.98385e-06
8.96669e-08
1.82475e-07
8.20827e-07
6.61044e-08
2.81697e-09
9.77649e-06
0.00242968
1.34371e-08
4.15281e-10
1.02651e-10
0.00253832
0.00438449
7.39255e-09
0.00100116
1.64978e-07
4.17736e-07
1.4595e-07
1.62577e-07
2.48583e-07
3.06513e-07
6.00009e-07
0.00195957
0.00599054
0.00691144
2.15923e-07
5.95121e-07
2.3613e-07
1.45621e-07
0.00635363
6.28041e-10
0.00306334
4.43731e-07
5.92055e-10
6.9703e-09
1.01511e-08
7.42885e-09
1.44782e-09
3.73061e-09
1.20135e-09
0.00242425
1.22903e-09
7.09008e-07
3.6481e-06
4.29681e-10
8.72133e-08
1.25494e-07
1.05594e-07
2.05142e-09
1.09056e-05
1.00934e-07
2.26343e-08
1.49156e-06
1.02123e-07
6.37283e-07
1.22282e-07
2.07261e-08
3.38562e-09
3.80184e-07
6.19677e-05
9.29224e-07
9.03428e-09
3.1649e-07
1.96551e-08
4.88033e-07
2.39415e-06
2.4733e-07
9.89528e-08
8.85432e-08
2.22875e-08
1.05844e-06
8.84439e-09
2.26269e-07
0.000764457
7.35542e-06
0.00577194
1.29761e-05
1.82568e-06
2.69159e-10
0.00114893
7.86044e-10
1.13803e-06
1.27244e-07
2.31474e-07
1.62539e-06
1.33227e-08
5.80813e-09
7.52261e-07
1.86955e-08
1.65654e-09
4.77673e-07
1.01092e-08
4.59298e-07
0.00131566
4.52953e-09
6.96147e-07
2.56865e-08
2.1959e-08
3.01824e-10
4.28126e-06
1.76878e-06
8.55691e-08
7.09776e-09
2.22513e-08
0.000831514
3.94011e-06
2.19937e-07
3.16119e-07
6.59494e-11
3.53789e-12
1.2994e-08
3.06277e-10
8.68559e-07
5.81456e-09
3.94316e-07
3.23806e-08
5.9837e-09
9.76769e-08
6.46991e-10
1.0964e-06
1.53267e-06
8.31167e-07
8.70597e-09
2.08602e-09
1.99038e-08
3.25382e-08
9.94026e-06
2.88949e-08
0.002834
5.0226e-07
3.98655e-09
6.22595e-09
4.12191e-06
2.77683e-07
1.98584e-05
3.19531e-08
1.9191e-06
0.00412946
3.65945e-10
5.76361e-06
3.5794e-07
0.000796131
2.88463e-08
0.000886366
0.00154927
2.1869e-06
1.3223e-07
3.27126e-07
8.06082e-10
2.81247e-07
4.65863e-07
6.41382e-06
3.26747e-07
9.02808e-08
4.48889e-07
7.04571e-06
6.35441e-06
8.21232e-06
2.7537e-06
1.90947e-09
1.73595e-06
1.48167e-05
1.14484e-07
6.21127e-08
4.17435e-06
3.60132e-06
2.86089e-07
3.17215e-07
4.52293e-06
2.7309e-07
7.03634e-06
4.53018e-06
3.82848e-07
6.59183e-10
6.41771e-07
8.06122e-06
0.00123983
4.73926e-08
2.12297e-08
7.9183e-07
2.67787e-08
1.41936e-06
1.51299e-08
6.84338e-06
9.49893e-09
1.61866e-06
4.4986e-09
3.5564e-09
2.3672e-07
1.64669e-05
2.29892e-05
0.00594412
2.4465e-07
2.9563e-08
1.99669e-09
7.70303e-06
4.24753e-07
0.000562507
0.00131328
1.84693e-11
1.39603e-05
1.28664e-06
8.76825e-08
1.04495e-08
2.25338e-05
2.02498e-08
0.000799702
4.05114e-09
2.73416e-10
5.26079e-07
2.03888e-08
3.39573e-08
6.77951e-07
0.00073695
3.58274e-07
1.59391e-08
1.65661e-06
0.00388336
0.00071926
1.04275e-07
5.33652e-06
4.59114e-07
1.00691e-05
8.75576e-08
0.000698374
8.67416e-07
3.48076e-06
3.07094e-09
9.75785e-09
8.65823e-08
1.39141e-08
3.8337e-07
3.27484e-08
1.22141e-08
4.46154e-08
8.35977e-08
1.80112e-06
5.58322e-10
1.2019e-08
0.00134083
1.64712e-10
1.63478e-09
8.22021e-07
8.37141e-09
4.44737e-06
6.23993e-07
0.00110273
3.76156e-07
0.00458789
2.84418e-07
3.63437e-07
0.000745019
3.08313e-06
9.29094e-12
1.61441e-08
0.000523457
2.35825e-07
1.57113e-06
3.2426e-07
1.39561e-09
1.32187e-07
1.49615e-07
1.98807e-08
0.00223896
3.55871e-08
2.28806e-08
4.6391e-08
1.23763e-08
1.09926e-09
1.71923e-06
5.92949e-08
0.00480441
1.63005e-06
6.45421e-07
7.87729e-07
1.00246e-06
3.72958e-07
5.7247e-08
1.13624e-10
7.17371e-09
1.74945e-06
3.82166e-07
7.32096e-08
5.63191e-09
2.51217e-07
1.89154e-08
9.32754e-07
6.25898e-09
1.30774e-08
2.87905e-08
5.84811e-07
4.24838e-07
6.22847e-07
4.7844e-09
5.04285e-09
3.23254e-05
7.08095e-09
1.50105e-09
1.57548e-10
2.34755e-08
0.00544405
5.37146e-09
3.23984e-06
1.28963e-06
4.45662e-07
3.21223e-09
1.70214e-08
3.83174e-06
1.45523e-07
4.88293e-09
7.92028e-07
2.19563e-09
1.68132e-09
5.78981e-10
1.58522e-06
4.88657e-09
0.00576638
9.24393e-06
6.87495e-07
3.43255e-05
3.91045e-09
3.07288e-07
9.65929e-10
0.0011066
1.58086e-07
1.09414e-07
3.35459e-08
2.09816e-08
1.25706e-09
0.00839476
3.44735e-07
9.06647e-06
1.25718e-06
2.44351e-08
0.00214814
1.5724e-08
6.41846e-09
1.05892e-08
1.0309e-08
8.32866e-07
1.04349e-08
4.70119e-07
5.44381e-07
1.00767e-05
5.5903e-08
3.44041e-10
3.20933e-06
9.62338e-09
0.00274586
5.15268e-08
5.86977e-09
2.77996e-08
3.57124e-07
0.00114295
0.000558916
3.07194e-07
9.53622e-07
0.00167385
6.07755e-08
5.77477e-07
0.000784301
2.22063e-07
1.04932e-07
0.00303496
0.000348768
1.73716e-07
6.38652e-07
1.71738e-09
7.38344e-07
3.02739e-05
1.87845e-07
1.6512e-07
6.49427e-06
3.37484e-10
0.000430888
2.55793e-09
4.974e-07
0.00343776
2.59942e-09
2.2267e-07
1.13142e-07
9.00788e-09
1.02926e-08
9.93766e-07
1.22248e-08
2.80182e-09
6.18533e-07
2.15132e-07
8.78584e-10
0.000432116
0.000820519
1.82456e-07
7.5406e-12
1.36387e-10
2.63151e-06
2.89465e-07
9.35483e-08
5.2225e-09
1.00161e-08
2.49288e-06
1.38785e-06
8.79423e-07
1.64974e-06
0.00638643
1.2208e-10
0.00246838
3.35005e-07
9.43375e-08
0.000939761
2.8596e-08
9.8783e-10
0.000426421
7.48229e-11
1.25728e-07
1.07516e-07
5.17894e-08
1.72485e-08
6.4907e-09
1.80986e-10
6.35568e-10
3.69123e-07
0.0023138
0.00373127
7.49597e-07
6.75083e-08
5.16296e-12
0.00104275
0.00397837
5.78966e-06
2.41159e-08
6.39211e-09
2.17427e-05
4.06009e-06
3.63532e-09
5.83742e-10
1.73009e-08
1.34454e-07
2.39225e-09
1.75685e-07
1.36195e-06
0.00111281
0.00359476
9.96468e-07
1.29446e-05
2.26405e-10
1.18086e-08
5.30872e-07
2.42179e-06
5.29185e-07
7.42533e-06
1.64478e-07
2.57621e-07
2.05498e-09
9.66817e-09
2.76933e-07
0.00108573
6.22867e-09
0.00313151
7.82591e-10
2.06502e-07
4.51266e-08
3.44904e-07
5.94475e-10
3.29889e-11
1.09949e-08
1.17076e-09
4.7502e-08
6.03071e-06
6.61197e-09
0.000690483
3.20292e-07
0.00280915
2.6469e-08
4.63159e-08
3.05136e-08
3.83653e-08
2.0135e-07
2.36191e-10
1.01458e-09
8.51724e-10
6.8857e-08
1.52963e-07
0.000963345
0.000937468
9.81741e-08
1.89656e-08
1.06311e-10
5.39777e-11
4.36796e-10
1.95875e-08
3.62286e-06
7.77671e-09
3.04968e-10
1.05096e-10
0.000407933
7.69625e-07
9.05522e-07
0.000756395
1.45688e-08
0.00547155
1.42631e-07
1.44545e-08
1.79552e-11
4.83937e-09
0.00100054
1.53461e-11
4.59439e-07
9.00083e-10
1.1358e-05
7.72823e-07
1.62338e-06
2.41989e-06
4.96232e-07
6.85595e-10
4.68054e-10
0.00633651
6.9152e-07
6.10589e-07
4.3973e-06
1.62782e-08
1.62856e-06
1.58976e-06
5.14429e-08
9.24181e-08
5.73899e-06
6.27914e-09
1.19834e-05
0.000728449
3.58205e-08
6.96081e-09
1.4569e-06
1.46526e-08
0.000635793
0.00319945
4.42563e-07
7.62404e-10
6.82591e-05
5.82853e-09
2.47847e-07
3.53582e-08
2.24335e-06
4.85171e-11
1.74293e-05
1.62775e-06
2.52258e-06
4.51368e-07
2.12696e-06
5.11358e-07
1.17809e-07
2.67524e-11
3.20719e-06
1.14437e-06
1.10022e-06
2.07954e-08
1.7167e-07
2.10641e-06
7.81567e-06
1.93284e-10
4.49028e-10
1.62405e-09
1.91291e-11
2.18038e-09
0.000395321
8.25768e-06
2.5125e-06
9.64241e-07
3.75412e-06
1.65245e-06
6.40784e-12
3.37498e-07
3.76891e-10
9.48069e-09
1.4649e-09
4.27494e-07
3.81041e-05
4.15108e-07
2.38976e-09
4.74249e-09
2.94653e-08
7.51814e-09
2.61021e-09
0.00259628
1.95637e-07
1.16547e-05
1.77192e-05
1.29718e-05
1.30764e-09
1.00232e-05
1.2218e-05
2.25911e-05
1.24177e-05
6.40343e-10
4.26882e-11
3.05586e-08
2.15217e-07
1.19702e-06
6.34184e-06
0.00070579
4.13106e-07
5.631e-07
7.19224e-08
1.02214e-05
3.94421e-09
9.74183e-11
2.1272e-06
7.03006e-06
0.000488565
2.02065e-10
0.00207738
2.0831e-06
1.43888e-08
1.5086e-06
1.10319e-07
2.03374e-06
4.92508e-08
1.9473e-06
5.7255e-09
1.47896e-07
3.9963e-05
7.46089e-07
1.46188e-08
3.23892e-05
9.01387e-07
1.80149e-07
6.03648e-05
1.35577e-09
1.97572e-07
9.40136e-07
1.69649e-06
1.26155e-08
0.00338042
2.70293e-09
2.88746e-08
4.13532e-09
0.00209015
0.00207378
4.50686e-08
4.61254e-08
3.068e-06
0.00102865
1.08528e-08
1.73339e-07
5.68295e-07
2.05004e-07
2.62811e-08
0.00340107
1.95658e-07
3.61052e-07
7.75225e-05
1.50094e-09
1.15933e-07
3.40824e-08
4.43964e-08
5.1171e-10
4.53464e-05
6.56129e-05
1.67079e-09
1.62791e-08
3.19314e-08
1.77148e-06
3.51647e-10
0.00073717
1.08879e-08
2.26052e-07
1.46248e-08
1.37178e-08
4.55119e-08
7.01775e-07
2.97001e-08
9.2864e-08
4.24373e-06
2.31265e-08
2.60829e-08
0.000800092
2.1707e-08
5.55337e-08
5.90441e-08
5.03163e-07
3.27461e-11
4.67533e-10
4.47538e-11
1.98822e-07
1.17819e-08
0.00112138
3.60347e-07
3.82375e-07
8.8544e-10
5.52528e-07
0.0020686
1.6666e-06
2.31994e-07
1.01042e-06
2.0535e-07
6.26448e-09
7.03079e-09
3.35592e-07
3.77063e-08
4.7356e-08
8.81933e-06
2.15232e-07
2.08417e-09
5.79125e-09
2.97541e-08
1.33197e-08
1.2377e-07
9.53831e-10
1.44855e-07
2.80361e-07
5.0632e-09
2.62078e-11
0.000852916
1.42915e-10
9.15546e-11
4.79236e-07
0.00105457
5.59642e-07
3.96045e-08
6.22171e-10
2.38994e-07
1.02625e-07
5.16699e-07
9.48801e-08
1.90519e-09
3.26967e-08
1.52967e-08
1.0441e-07
1.10749e-09
6.67686e-10
8.29499e-09
6.75091e-08
3.63496e-07
2.56503e-08
3.60338e-09
1.28509e-07
1.07949e-06
2.62809e-09
5.70552e-07
9.829e-09
1.71378e-08
5.72068e-10
9.47927e-07
2.95044e-09
3.65802e-07
5.29261e-11
4.53165e-07
5.39008e-10
2.94601e-08
6.08736e-06
2.38548e-09
1.09798e-09
0.00126329
9.71445e-10
0.00104125
9.96775e-09
1.17267e-08
2.02112e-07
4.21341e-07
0.000774551
1.53401e-06
0.000922613
0.00112103
1.8007e-06
1.77128e-07
0.000752147
1.92932e-07
5.08608e-10
6.02302e-07
0.0023673
0.000688227
0.000781344
5.61831e-10
1.7292e-07
1.52261e-10
1.18956e-07
1.79494e-08
1.22279e-07
3.14409e-06
1.55048e-07
1.97668e-08
3.94389e-09
7.21743e-08
5.39968e-06
1.18781e-09
2.12444e-07
6.25347e-07
3.95826e-08
1.2635e-11
1.19855e-06
6.27489e-07
5.56302e-07
4.5233e-07
4.07421e-07
9.47268e-08
2.43903e-07
2.81274e-06
1.57098e-07
1.16225e-07
2.23851e-06
8.31599e-06
1.40824e-10
1.78719e-08
3.87155e-09
3.60295e-07
1.86417e-09
4.95834e-08
6.27507e-12
7.40402e-06
0.00693084
0.00150825
2.55933e-06
3.87702e-10
2.04531e-07
0.000918471
0.00179231
2.56518e-08
4.88707e-06
4.90351e-08
1.07594e-08
7.66471e-09
2.40023e-09
2.68611e-07
7.67239e-07
8.43672e-09
8.61156e-10
2.92125e-07
1.05483e-08
0.00311371
0.00100849
2.14264e-07
2.31769e-10
3.06139e-09
0.000786964
4.76653e-10
4.97007e-07
1.01242e-08
1.08342e-05
3.26036e-10
1.31073e-07
8.13139e-09
3.84131e-09
2.0016e-05
0.00268407
0.0012055
2.67021e-08
0.00127924
7.01236e-10
2.56316e-07
2.97171e-08
0.00200972
7.81582e-09
3.06276e-06
4.30159e-10
5.40552e-08
4.94782e-06
2.44253e-08
2.72706e-06
4.82646e-09
2.49966e-07
6.05711e-07
2.9488e-07
6.60167e-08
1.08824e-08
7.12516e-09
6.05366e-08
2.41304e-08
4.16932e-09
2.48633e-09
0.00125139
0.000691117
2.81194e-09
0.00139195
1.95753e-10
5.59702e-09
8.31524e-07
1.18536e-08
1.03581e-10
0.000647999
2.37442e-09
6.90968e-11
1.07491e-05
1.59016e-10
3.03078e-11
1.0305e-06
0.00156514
3.74155e-09
0.000694135
7.77832e-10
3.79684e-08
0.00083276
1.24149e-07
1.68479e-05
2.078e-11
3.02076e-09
2.30412e-08
3.89422e-09
0.00369522
0.000756756
1.95135e-06
8.6553e-10
0.000864183
1.63967e-10
6.52562e-09
8.52917e-10
0.00175013
3.45312e-05
2.18471e-07
2.49667e-11
1.73057e-08
0.000899342
1.86563e-05
7.59006e-09
4.74053e-06
0.00185341
0.00143098
6.4933e-07
0.00144918
1.81739e-05
0.000795309
7.24957e-07
0.00114172
6.00436e-06
7.77382e-08
3.51852e-08
4.33933e-08
7.84172e-06
1.63692e-05
1.15434e-10
1.05925e-07
1.85462e-09
7.51852e-07
1.58066e-07
2.78456e-08
1.64185e-07
5.4107e-06
4.61257e-09
1.7699e-07
6.8796e-09
4.75607e-10
1.87181e-09
8.90077e-10
8.9232e-08
1.99621e-09
1.33335e-08
2.06013e-09
2.67205e-07
7.63656e-07
7.08448e-11
4.82609e-11
1.07064e-09
2.18021e-09
2.28583e-08
2.10749e-05
4.00904e-05
1.91972e-06
1.34723e-10
5.71089e-07
1.46283e-07
0.000861792
5.2754e-07
3.01105e-07
9.41125e-09
1.67808e-08
5.01413e-08
3.90775e-06
2.00929e-06
0.00315658
0.00124968
1.46563e-09
1.42354e-05
5.5275e-06
8.63295e-10
4.56525e-08
9.05569e-08
2.059e-09
3.8843e-08
7.48631e-08
0.00115006
2.69909e-11
1.56865e-06
3.06389e-09
0.000814037
9.75397e-07
0.000664158
6.26181e-07
8.63345e-10
1.16201e-09
8.85321e-09
4.85275e-07
3.43565e-07
7.04189e-08
1.61345e-07
1.89151e-08
1.44662e-05
5.36144e-06
2.59276e-10
2.01546e-06
9.63865e-07
8.453e-07
1.70477e-06
5.71386e-05
8.0959e-08
0.00170186
5.71683e-09