/*--------------------------------*- C++ -*----------------------------------*\
  =========                 |
  \\      /  F ield         | OpenFOAM: The Open Source CFD Toolbox
   \\    /   O peration     | Website:  https://openfoam.org
    \\  /    A nd           | Version:  10
     \\/     M anipulation  |
\*---------------------------------------------------------------------------*/
FoamFile
{
    format      ascii;
    class       volScalarField;
    location    "33";
    object      T;
}
// * * * * * * * * * * * * * * * * * * * * * * * * * * * * * * * * * * * * * //

dimensions      [0 0 0 1 0 0 0];

internalField   nonuniform List<scalar> 
111485
(
303.15
285.233
301.177
303.15
298.741
283.15
299.234
293.583
296.715
286.438
300.738
296.446
300.463
284.666
300.213
286.915
299.381
300.895
294.509
303.15
303.15
283.15
297.608
288.889
301.552
303.15
293.485
300.711
289.288
303.15
300.818
294.45
303.15
283.15
283.495
283.15
302.329
297.884
283.149
296.967
283.15
290.082
297.37
302.938
303.181
303.15
287.678
288.744
290.132
303.15
303.15
283.15
303.15
299.323
303.15
293.917
288.089
283.15
283.338
295.858
296.251
303.15
302.155
300.53
283.15
284.663
301.546
291.805
302.213
302.603
303.172
302.024
303.15
302.204
303.15
295.509
283.15
293.872
283.15
283.15
283.255
293.937
283.15
303.15
300.543
284.303
283.15
301.742
303.142
299.335
283.519
289.913
301.069
300.458
290.275
303.15
303.15
301.742
303.15
283.452
303.15
286.904
283.15
285.424
285.872
283.15
283.15
293.204
301.628
283.145
299.116
288.455
301.479
301.866
303.15
302.084
303.15
283.15
300.339
303.15
303.15
283.15
283.15
283.15
283.451
303.153
283.15
301.927
303.15
283.186
303.065
302.137
303.15
283.15
283.15
292.948
283.15
294.598
299.061
301.244
303.142
297.162
299.227
284.891
302.353
298.081
283.15
303.15
283.15
297.483
285.063
303.15
303.145
287.595
283.156
294.16
296.014
302.579
283.153
303.15
303.15
292.623
286.429
283.151
283.156
301.331
283.751
283.15
283.152
283.16
283.15
303.15
283.21
283.15
291.715
287.368
283.15
303.15
303.15
283.15
303.15
303.15
297.974
293.927
296.185
290.139
301.583
300.619
283.195
303.15
301.583
303.15
303.15
300.367
286.465
301.628
301.397
296.059
303.15
300.998
284.705
283.163
301.057
297.207
303.15
300.612
288.58
303.15
283.247
300.351
284.928
300.863
303.15
303.15
300.877
283.15
293.353
283.15
300.786
298.975
290.704
303.15
301.863
300.753
283.15
283.15
283.15
289.965
283.158
283.15
303.15
298.913
291.788
290.343
283.15
303.15
303.112
303.15
284.412
300.304
299.513
299.745
299.623
283.15
283.143
299.103
283.15
283.15
289.002
288.736
283.15
301.32
299.126
303.15
283.15
301.036
303.15
303.15
303.12
303.15
288.464
285.991
291.209
303.15
298.6
303.15
303.15
303.15
283.148
298.411
301.141
299.668
291.414
299.729
296.589
283.217
290.681
292.017
283.15
303.15
283.149
292.647
299.032
286.612
303.15
298.282
297.586
299.161
302.987
283.164
297.432
299.612
302.044
283.15
283.678
283.15
283.148
303.15
284.087
290.473
286.631
303.15
283.15
297.886
285.442
303.15
303.15
303.15
284.753
290.623
301.25
284.509
293.464
283.15
283.15
303.15
298.621
303.15
283.922
290.099
283.151
283.15
303.15
303.15
283.15
294.752
290.168
283.15
296.077
283.15
303.15
301.326
297.614
294.178
296.178
283.15
283.15
283.15
296.949
291.423
302.409
283.15
283.15
283.147
290.305
297.262
283.234
290.917
283.15
293.235
299.788
284.314
299.075
285.392
283.15
303.15
283.15
303.15
290.858
296.687
288.319
292.4
283.15
286.532
283.15
303.15
294.241
303.15
302.201
303.15
283.15
292.368
283.15
289.135
284.734
283.15
284.04
298.323
283.15
300.346
284.798
299.104
303.051
291.468
286.13
283.15
303.15
303.147
283.15
301.179
301.112
283.15
283.15
294.836
284.462
298.452
296.848
283.15
295.624
296.442
283.15
302.167
283.958
303.15
303.15
288.603
298.911
283.15
303.15
303.15
303.15
300.837
283.15
303.15
294.145
283.172
287.426
300.248
283.15
283.15
302.689
283.15
302.557
301.656
298.327
291.035
283.15
294.281
303.393
303.15
299.056
292.571
303.15
283.15
283.317
283.15
290.395
286.417
292.048
283.15
293.253
296.788
293.435
303.147
283.15
303.15
303.15
283.17
293.127
283.15
284.407
303.137
283.15
303.15
303.15
303.15
301.818
290.906
286.183
284.267
284.438
283.15
285.876
303.15
300.966
283.15
303.15
303.15
300.913
303.15
303.15
283.151
303.15
283.15
300.953
283.15
283.15
283.15
303.15
283.15
303.15
283.15
283.699
283.15
303.132
301.873
283.861
283.15
303.095
283.15
303.15
284.824
284.793
286.302
298.066
283.15
297.911
298.011
292.652
287.101
285.409
303.15
292.135
283.15
300.167
283.15
297.224
283.15
292.456
298.921
303.15
283.15
287.08
303.15
296.02
299.438
283.15
283.15
283.15
283.15
303.15
294.192
283.15
283.15
283.249
283.15
300.129
283.15
284.948
303.15
283.461
303.128
284.759
292.298
283.15
301.581
283.15
283.15
285.866
283.15
283.26
283.15
299.991
303.15
291.112
303.15
283.15
302.535
284.575
300.369
285.829
300.375
289.678
283.15
300.872
284.665
283.15
283.138
300.726
301.76
283.15
282.26
301.264
303.078
283.132
303.15
287.778
302.265
284.507
285.564
288.553
282.34
283.15
303.15
301.357
303.15
283.581
283.15
283.15
292.136
282.621
303.15
303.125
283.15
286.502
299.826
283.15
283.15
299.833
303.15
283.15
283.15
283.15
286.367
283.15
303.15
284.964
284.311
303.15
299.912
283.15
289.408
303.15
283.15
286.369
283.15
283.15
283.15
285.562
283.15
285.621
292.329
303.15
300.664
283.482
299.042
301.141
283.414
283.479
283.15
289.335
298.775
303.15
302.318
296.564
297.271
284.798
297.816
297.568
303.15
300.434
303.141
283.15
297.554
284.956
283.15
292.747
296.158
284.973
299.101
300.83
292.714
283.15
299.219
283.501
303.15
300.801
302.071
294.461
283.15
286.759
303.15
283.15
283.15
283.15
283.313
283.15
303.15
303.15
283.15
300.602
299.59
303.15
285.816
303.15
303.15
303.15
290.279
283.432
283.15
303.15
283.15
283.15
287.337
292.759
283.15
295.615
283.13
283.15
295.779
302.338
288.117
283.15
283.15
300.443
292.484
283.15
283.15
283.15
294.322
303.15
303.15
283.15
296.682
302.477
283.15
282.921
301.824
286.819
283.15
283.15
287.667
303.011
283.15
283.161
288.214
283.802
289.048
283.15
285.862
300.57
283.15
303.15
283.15
283.15
283.15
283.15
296.146
303.15
283.15
283.15
295.771
292.2
303.15
303.15
290.245
298.694
298.592
303.15
283.15
298.276
303.15
283.935
299.071
298.612
303.15
303.15
303.15
283.15
286.227
283.15
283.15
302.736
303.15
298.113
302.402
283.15
294.425
283.208
296.776
292.214
283.457
290.19
283.15
283.15
297.213
288.471
291.021
283.15
283.15
299.521
295.304
283.15
283.982
284.724
283.515
303.15
303.15
303.15
290.928
283.15
300.254
283.15
284.457
297.797
298.777
292.655
283.15
283.15
303.15
295.727
283.15
283.15
303.11
283.15
283.15
303.15
283.15
299.552
283.15
283.15
283.15
283.15
283.15
303.15
283.15
283.174
298.929
303.15
302.584
283.125
283.429
283.086
285.675
283.15
284.555
290.863
283.429
303.15
283.15
299.956
283.15
300.446
283.184
283.142
286.377
297.776
283.245
292.005
298.047
283.15
283.15
299.293
299.992
283.15
297.639
291.516
297.613
283.15
283.257
283.15
297.94
297.056
283.15
300.266
297.698
283.148
299.975
283.15
295.975
283.143
303.116
283.163
283.159
283.15
283.15
284.535
283.15
302.997
283.646
283.158
303.147
303.148
303.147
283.15
283.15
294.208
303.15
303.135
283.955
283.15
283.15
303.153
303.15
283.15
303.162
283.15
283.15
303.15
303.15
303.15
303.15
283.381
283.15
283.15
283.15
303.159
283.324
283.942
293.863
283.15
283.15
283.365
283.15
283.15
283.15
287.484
293.987
283.15
283.15
283.15
283.15
283.15
283.15
284.1
283.15
303.151
291.896
283.15
303.15
303.15
303.15
303.15
303.15
283.15
303.166
283.15
283.769
283.143
303.152
283.15
303.071
284.549
292.539
303.15
303.131
284.631
303.15
283.15
303.15
283.15
294.435
293.852
284.827
303.148
283.15
293.638
283.15
283.15
303.15
283.15
295.243
283.15
303.15
283.162
298.359
303.15
284.554
283.15
283.649
283.15
283.15
283.15
303.15
286.102
283.497
285.023
283.15
283.15
285.875
283.15
283.15
303.15
284.476
303.161
298.905
303.15
303.132
303.133
283.15
303.135
283.15
283.489
289.523
301.008
283.915
283.172
283.15
283.15
283.15
303.177
283.15
302.961
303.15
293.859
303.15
288.894
283.873
303.15
283.15
303.15
283.15
302.004
303.15
303.15
286.683
300.89
283.15
283.15
283.15
283.15
283.15
283.15
301.137
283.622
303.15
303.15
303.155
303.15
300.559
284.491
283.15
302.246
303.15
301.747
283.15
302.629
283.15
283.147
303.152
283.346
302.26
300.56
283.147
283.15
289.644
303.15
293.804
303.15
283.15
303.15
283.15
283.15
283.15
301.099
302.189
303.15
303.15
303.15
302.941
283.148
303.15
293.326
283.077
303.15
297.669
298.358
296.842
283.4
283.15
283.15
283.15
283.15
295.046
283.15
295.436
283.15
303.077
290.037
283.15
302.907
283.15
283.15
302.812
283.147
302.896
283.15
303.15
283.15
302.472
283.15
303.15
283.15
283.147
283.15
283.176
283.15
283.15
303.15
293.127
301.183
296.505
297.378
303.15
303.124
283.15
283.15
285.936
283.15
283.159
302.897
298.88
302.986
303.15
283.398
283.15
303.15
283.15
303.018
283.382
298.342
283.15
303.15
288.34
303.15
283.15
283.113
295.497
283.147
283.15
283.15
283.146
303.15
283.15
303.144
303.15
303.15
290.369
303.021
303.03
289.416
293.654
283.15
283.15
303.116
289.488
283.15
303.15
284.935
283.15
303.15
283.15
283.15
283.15
298.449
283.15
302.971
283.15
300.893
283.15
283.15
283.15
283.15
283.15
283.15
285.233
283.15
283.15
283.15
283.15
283.15
283.15
292.433
283.15
298.404
302.989
283.15
302.339
283.15
302.594
303.146
292.438
288.955
303.15
292.304
284.984
303.122
303.15
303.14
295.17
288.864
283.15
288.077
283.15
283.15
283.15
283.15
287.715
283.15
283.15
291.792
303.139
285.42
283.15
283.15
302.547
283.15
283.2
303.15
299.983
283.15
283.15
302.849
283.15
303.175
303.15
283.15
289.311
298.057
292.862
285.926
293.072
294.441
283.15
283.15
302.392
290.77
293.196
284.543
283.15
294.467
283.15
303.15
300.969
298.922
283.15
297.532
283.15
292.948
297.516
303.15
283.15
283.15
301.926
283.15
283.15
300.747
296.278
283.198
291.398
283.15
283.15
302.854
300.764
283.15
300.863
283.15
300.728
283.15
283.15
301.022
283.15
283.233
301.742
283.15
283.15
302.504
283.15
288.112
303.15
290.965
303.15
303.15
303.15
301.155
283.15
283.15
299.806
283.15
303.012
283.15
283.15
303.15
283.149
288.407
283.15
283.15
288.263
288.445
283.15
283.758
283.15
303.15
302.498
283.802
301.685
283.15
283.15
283.15
283.15
283.15
283.15
283.15
283.15
283.15
283.15
283.15
303.15
283.15
283.15
283.15
283.15
283.15
283.15
283.15
283.15
303.15
287.151
283.15
283.15
283.15
295.102
283.15
303.15
303.067
283.15
283.15
295.113
283.15
283.15
302.184
295.583
283.15
303.475
303.521
283.15
301.746
294.376
297.889
301.62
298.415
303.15
283.15
296.417
292.198
301.567
283.15
302.243
302.48
301.055
288.21
287.458
301.233
301.861
301.907
303.15
286.04
297.858
285.797
297.576
283.15
283.15
283.15
303.15
283.15
292.415
298.21
283.15
283.15
283.15
283.15
283.15
303.15
283.15
303.15
292.304
303.157
299.275
302.867
283.15
283.15
285.588
283.172
283.15
283.15
301.699
303.15
283.15
298.436
299.739
297.832
298.998
301.06
303.15
291.21
302.656
303.15
303.15
300.562
303.15
283.15
282.802
296.198
302.978
283.15
303.15
290.257
286.349
297.197
292.612
302.61
303.15
303.141
303.15
303.15
283.15
298.953
283.15
292.229
290.713
299.945
284.871
303.15
302.035
303.15
283.15
303.15
303.15
291.739
300.45
283.15
303.15
303.14
292.208
303.069
299.583
293.238
288.495
293.33
283.15
303.15
283.15
291.726
298.586
303.15
303.15
303.15
303.15
297.937
302.582
283.15
300.174
301.393
285.079
299.742
303.15
303.15
298.949
293.378
283.15
302.942
300.072
302.652
292.397
297.621
298.538
303.15
287.134
298.233
291.698
283.15
289.451
303.15
288.589
301.232
303.15
288.902
301.441
300.319
293.592
283.148
283.158
283.244
302.065
301.104
303.15
288.974
301.626
303.15
283.15
303.15
303.203
299.049
292.303
297.002
303.234
283.149
298.154
303.15
303.15
293.214
303.15
300.424
283.34
301.475
291.676
303.15
283.714
293.636
303.15
282.965
298.949
303.15
300.871
286.413
303.15
303.15
284.049
303.15
283.15
283.15
286.026
299.974
291.664
303.15
285.473
297.791
283.15
299.096
299.13
289.158
303.138
283.15
301.555
299.625
299.097
300.289
288.813
291.505
302.512
303.15
301.673
288.892
303.15
299.107
283.15
283.15
303.15
283.15
303.15
297.866
283.15
300.708
283.681
303.15
283.878
283.15
290.052
303.15
303.147
303.15
294.49
303.012
303.128
300.088
290.584
289.655
290.747
298.714
303.15
299.644
292.602
299.205
303.15
283.922
283.519
299.502
287.402
283.558
303.15
283.15
303.15
285.584
303.15
303.249
284.772
303.266
302.977
303.15
303.15
283.15
300.751
300.657
285.737
303.103
287.139
296.047
301.946
292.928
288.488
302.151
296.461
283.15
283.15
303.15
285.974
289.924
283.15
283.15
303.15
302.063
289.008
303.15
296.739
303.15
283.155
285.432
301.019
303.15
303.15
292.714
303.15
283.335
290.787
283.15
297.48
294.897
296.176
303.15
302.779
283.15
302.723
293.878
303.15
303.15
288.96
283.15
303.15
301.923
284.547
303.15
303.15
283.15
302.426
303.24
289.925
300.062
298.065
303.15
303.157
302.698
303.15
283.15
303.15
303.15
303.15
303.15
303.15
303.15
303.15
283.15
303.15
303.15
283.383
303.15
303.263
303.15
303.162
303.15
303.15
301.225
303.65
303.15
292.493
303.15
303.15
283.15
302.635
303.15
302.239
303.123
283.3
283.15
303.15
302.958
283.149
303.15
303.15
291.815
283.15
293.033
283.15
283.15
283.147
291.656
284.947
303.15
296.902
283.15
303.52
303.136
284.388
302.671
283.15
292.612
303.092
301.844
283.15
303.15
283.15
303.776
284.919
297.019
303.15
303.15
303.15
303.15
303.15
303.15
302.451
302.854
297.878
292.725
303.15
287.459
293.086
285.085
303.201
283.15
287.088
302.804
284.877
283.147
287.642
303.15
283.409
302.951
292.974
302.887
302.103
303.15
302.262
303.15
303.15
298.237
303.15
284.617
303.15
303.15
283.15
303.15
303.15
302.887
303.15
283.307
283.15
283.15
286.068
285.157
300.96
286.32
303.15
295.795
303.15
290.767
303.15
287.484
300.949
301.688
293.724
303.15
303.15
303.15
289.972
283.15
303.15
289.724
283.15
283.15
302.004
303.15
286.334
283.147
283.15
303.15
303.15
300.806
298.52
303.15
293.795
303.058
283.15
298.735
303.15
286.545
288.44
302.225
303.15
296.681
296.847
302.984
302.033
301.778
303.15
303.15
303.147
303.15
283.15
303.15
289.734
300.038
294.604
302.253
283.15
300.594
291.841
298.53
283.678
298.686
290.107
302.279
283.15
283.15
283.15
302.318
283.15
290.956
283.15
301.469
303.158
289.888
298.185
283.15
303.15
301.458
301.44
303.15
283.15
303.15
286.549
301.628
303.001
302.433
298.203
288.599
303.15
303.15
303.15
294.612
286.197
290.128
296.279
284.011
302.98
303.15
303.15
283.15
283.15
285.528
299.831
303.15
303.15
283.15
303.15
303.15
303.15
300.559
303.15
285.572
294.074
283.15
283.254
293.69
285.809
303.15
303.15
302.034
303.15
299.577
283.145
297.824
303.15
303.15
283.15
303.15
303.15
303.15
305.825
303.15
301.99
301.193
303.15
303.15
301.797
303.15
283.15
287.446
303.139
303.15
303.15
303.15
298.221
303.15
303.15
302.737
302.573
301.942
303.15
283.15
303.15
302.172
302.584
301.695
302.597
283.15
300.833
287.787
297.642
283.15
303.15
303.15
303.15
303.15
294.75
287.723
299.722
303.15
303.15
303.15
303.15
283.15
303.149
284.931
285.247
283.15
303.15
303.15
283.147
299.975
295.634
283.15
303.15
303.15
303.15
303.15
289.783
290.009
303.15
303.15
302.43
303.15
301.498
284.006
292.665
303.15
283.15
301.214
303.133
303.15
303.815
301.459
287.14
303.15
303.15
303.15
303.15
293.498
284.251
303.15
302.766
298.524
291.862
303.15
303.15
303.15
303.15
299.793
303.151
303.15
303.15
298.543
302.6
288.663
303.15
303.15
298.214
303.15
303.15
303.15
303.15
289.05
303.15
283.15
283.15
296.289
291.454
303.15
303.15
303.15
297.356
303.148
303.15
303.15
303.15
303.15
303.498
301.11
303.15
287.57
302.697
299.655
303.15
303.15
303.15
303.15
283.15
285.918
303.15
302.818
283.15
302.301
303.15
303.14
303.15
283.15
301.943
287.008
283.15
302.87
303.15
302.514
283.15
303.15
303.15
303.152
303.15
283.28
303.15
291.104
283.15
283.15
303.15
303.15
299.092
302.489
283.15
302.566
283.15
284.261
288.392
302.771
283.15
303.154
303.015
303.138
284.551
283.157
303.006
283.15
283.15
283.155
302.181
302.4
303.15
283.15
283.15
296.867
303.15
283.15
303.15
303.15
303.15
303.1
303.061
302.977
302.531
303.15
302.972
303.15
285.031
303.15
303.15
283.15
303.15
303.114
303.15
283.15
303.15
288.505
303.15
303.15
303.201
283.15
303.419
302.916
298.508
303.15
291.685
297.435
284.595
292.076
283.15
283.15
287.378
284.497
283.15
303.581
283.15
286.565
303.15
283.15
303.159
303.15
303.15
303.031
303.154
303.15
283.15
303.142
303.15
283.15
283.1
299.098
302.763
303.15
302.002
303.15
285.821
303.15
301.47
303.15
303.15
301.259
303.15
303.15
303.15
287.883
303.15
285.274
303.15
303.148
303.15
283.15
283.15
303.15
303.15
303.15
288.964
302.648
303.15
303.15
288.937
286.672
292.613
303.15
302.764
287.858
287.786
303.15
303.15
288.785
283.15
292.715
303.15
303.151
303.15
303.15
300.733
283.15
302.346
283.15
303.15
303.15
303.15
303.15
303.15
284.513
302.341
291.834
303.15
303.15
291.353
303.15
303.15
303.15
303.15
303.15
300.35
303.15
303.15
283.15
299.684
303.15
283.15
303.15
301.511
283.15
300.175
291.136
302.745
300.232
299.674
303.15
303.15
303.15
301.004
288.807
283.15
303.15
300.511
303.15
303.15
292.789
303.15
287.723
303.15
298.119
284.465
303.15
283.15
303.15
303.15
303.15
285.501
303.15
300.666
303.15
303.15
299.934
283.15
284.955
303.15
303.15
288.487
301.585
297.165
303.15
303.15
303.15
301.604
293.027
303.15
283.15
303.15
300.854
303.15
284.98
297.059
303.15
303.15
301.298
303.15
303.15
283.15
303.15
283.15
295.524
303.15
283.15
303.15
303.15
303.15
303.15
303.15
303.15
283.15
301.55
283.15
302.18
303.15
303.15
296.504
300.675
303.15
283.15
303.15
301.055
283.15
303.15
303.15
303.15
300.87
303.15
298.35
303.15
286.138
283.15
286.958
303.15
303.15
298.833
283.15
303.15
288.182
283.251
303.15
303.15
285.24
283.994
301.029
301.857
301.341
293.402
301.859
283.92
303.15
298.404
283.15
283.15
303.15
303.15
303.15
301.366
303.15
303.15
303.15
303.135
283.173
283.15
283.593
303.15
302.137
283.15
303.144
296.454
283.15
294.992
303.15
303.15
283.15
300.12
283.993
303.15
283.15
300.145
303.15
298.217
303.15
296.073
303.15
283.15
303.15
283.15
299.617
283.15
283.257
283.15
286.396
303.15
303.15
283.15
283.15
303.15
303.15
303.15
303.15
285.007
285.227
283.15
303.15
283.237
283.15
283.15
303.155
290.307
283.588
283.15
301.635
285.014
300.567
288.563
303.15
303.15
303.15
303.15
283.15
283.15
283.15
303.15
283.15
283.15
303.15
283.15
297.825
283.15
303.15
283.15
303.15
303.15
283.967
283.15
303.15
302.086
303.15
303.15
303.15
303.15
288.925
283.15
303.15
303.149
283.15
303.15
303.15
303.15
295.486
283.15
283.21
303.15
303.15
303.15
303.15
303.15
303.15
303.146
284.176
303.15
283.15
303.15
303.15
303.15
303.148
303.15
283.15
283.15
283.15
303.15
303.15
283.15
303.15
283.15
287.935
283.15
301.993
283.15
303.154
303.15
284.718
283.15
284.552
297.918
303.15
284.807
303.169
303.15
297.942
283.15
303.15
303.15
303.15
303.15
283.15
303.15
303.15
299.509
283.15
303.15
303.15
303.15
303.15
292.487
292.056
303.166
283.174
303.15
301.953
302.403
303.15
283.15
283.15
303.15
303.15
303.15
283.15
283.15
283.876
303.15
303.15
303.18
303.15
283.15
289.275
303.15
283.15
303.15
288.665
303.15
283.15
302.264
283.15
283.15
283.15
303.15
299.975
303.15
303.15
303.15
283.15
284.62
294.295
295.931
290.015
303.133
303.044
283.15
283.15
301.372
283.74
283.15
303.149
303.15
303.15
283.15
295.259
303.15
283.15
303.011
303.15
303.15
283.863
303.15
303.15
289.013
290.239
303.15
283.15
303.15
283.15
303.15
303.15
303.15
303.15
284.005
303.15
303.15
303.15
302.97
303.15
303.15
283.15
283.15
283.15
283.15
302.983
283.15
283.15
301.191
303.15
284.909
285.08
303.15
301.327
303.15
283.15
303.15
283.15
283.15
303.15
303.15
303.15
302.716
303.15
303.15
303.15
283.15
303.15
283.15
286.602
303.15
303.15
292.229
303.15
283.15
283.15
302.498
303.15
303.148
283.15
303.206
286.852
283.15
283.15
299.496
283.15
283.15
303.067
303.158
293.542
303.164
303.151
303.152
283.15
283.15
302.719
283.522
286.144
301.024
283.164
283.15
291.237
301.723
301.608
283.15
300.444
290.851
300.244
302.298
302.905
284.903
295.835
299.507
286.378
293.727
300.333
303.15
298.03
297.858
302.844
283.702
292.724
301.302
287.482
303.15
301.372
303.15
300.841
301.666
283.674
285.12
303.15
283.15
302.315
301.837
283.146
303.168
288.719
302.73
302.084
301.051
303.15
303.192
301.376
295.609
300.496
289.742
302.971
301.651
302.229
302.355
284.295
302.577
301.707
283.181
303.15
302.929
303.15
303.15
302.225
302.133
294.539
303.15
284.83
292.891
292.541
301.706
303.15
284.152
285.293
284.459
303.15
299.039
303.15
296.449
295.726
301.009
303.145
303.15
303.15
302.127
301.455
302.835
303.15
292.861
302.79
290.502
283.15
298.418
294.241
303.15
300.572
283.15
283.207
283.15
302.685
303.123
303.15
302.998
298.645
283.147
300.72
302.32
295.496
283.602
296.289
297.352
283.527
303.138
284.939
296.399
283.331
297.401
300.734
300.556
300.559
302.125
290.981
301.704
303.15
302.773
302.711
302.695
296.527
302.915
283.15
302.152
293.61
303.15
283.473
286.968
301.378
302.677
290.731
284.909
287.959
302.702
296.9
303.15
303.15
295.561
283.15
293.25
283.474
303.15
290.734
290.842
283.962
303.15
297.521
298.527
284.337
301.522
294.349
290.343
300.589
303.115
303.15
303.15
283.656
302.692
283.383
285.998
303.15
303.033
303.053
303.15
285.548
300.816
298.13
283.293
299.861
302.488
300.678
287.204
283.15
303.115
301.944
283.842
283.168
303.15
303.088
303.15
303.15
284.264
302.601
296.425
283.083
283.151
303.15
283.15
302.974
303.059
302.57
301.566
303.15
283.15
283.15
301.941
301.992
283.259
295.922
303.15
303.15
301.762
285.708
283.268
301.82
301.905
301.883
284.527
303.15
283.15
298.555
297.976
303.15
302.773
302.208
285.284
285.124
302.231
303.052
303.15
298.445
284.532
283.15
303.15
300.669
301.364
302.121
289.891
302.198
285.871
300.347
300.292
290.533
297.831
303.15
303.15
301.075
284.574
302.218
283.152
300.782
301.861
283.668
288.464
302.51
283.15
283.15
283.02
303.15
303.15
300.188
299.103
302.396
283.145
283.15
284.026
283.149
283.15
283.153
303.09
301.155
299.507
296.21
283.411
303.116
300.338
303.15
283.15
302.658
289.443
300.956
292.847
283.548
303.077
283.147
283.15
302.881
301.358
302.688
283.163
291.789
285.045
303.15
284.403
301.17
283.15
283.324
285.122
284.941
283.15
283.15
301.779
283.15
289.678
302.601
302.766
301.869
283.536
300.006
291.251
283.15
303.269
292.674
283.15
283.15
283.15
303.15
301.27
302.499
299.359
301.616
300.01
289.3
283.154
291.17
290.324
303.074
291.511
300.205
292.273
283.15
286.555
301.256
301.668
283.15
284.089
299.882
283.15
303.15
283.197
301.437
303.15
284.094
302.31
303.044
303.15
283.15
293.05
303.152
301.85
283.15
283.15
283.15
302.328
298.051
303.14
302.276
303.162
303.15
288.737
303.162
290.633
300.409
300.37
296.906
283.158
301.819
283.15
290.827
301.553
289.778
290.694
299.222
300.873
301.727
287.337
291.305
285.26
283.184
302.33
286.33
283.145
283.147
300.396
283.076
300.491
287.246
296.197
299.68
289.69
299.524
283.125
299.166
283.15
290.454
291.086
298.904
283.365
283.15
300.847
283.15
302.854
283.15
303.15
286.637
286.692
283.15
299.252
298.621
287.332
303.15
303.15
301.942
289.96
303.075
283.779
301.708
287.426
303.147
284.357
288.537
303.15
301.61
283.15
283.15
287.76
287.346
283.144
285.399
301.636
286.487
301.182
303.15
285.51
301.87
291.486
303.15
303.15
301.792
302.177
303.15
293.938
294.455
283.797
296.724
287.104
290.359
303.15
303.059
297.36
285.285
283.15
287.919
292.976
299.996
283.176
283.804
282.856
302.083
303.134
283.15
303.138
303.15
300.704
293.498
299.08
294.207
283.15
292.11
296.493
285.802
283.218
294.625
283.15
300.286
303.162
293.042
284.169
303.146
292.068
298.859
288.563
300.436
291.48
287.688
283.15
303.143
285.499
290.233
293.9
283.15
283.15
283.15
303.142
283.15
283.135
286.685
303.15
283.15
303.161
283.172
291.244
290.599
303.198
302.953
290.221
303.15
297.291
303.167
302.121
287.513
283.15
293.315
303.147
303.105
286.467
283.15
283.15
283.511
286.334
303.075
303.145
287.801
289.758
283.574
283.162
290.074
293.417
303.15
283.15
303.117
303.15
302.433
285.125
302.396
303.104
284.129
283.832
284.125
302.872
302.312
297.53
294.204
303.09
291.659
291.2
303.15
303.108
302.673
285.618
283.424
303.15
286.11
283.405
302.959
301.686
302.28
283.15
300.555
301.973
303.15
302.235
285.563
303.15
298.25
303.15
283.15
300.86
302.755
286.567
302.562
283.15
285.317
303.039
283.15
302.401
285.497
295.186
284.446
303.15
303.03
302.888
286.701
283.15
287.332
284.334
290.105
285.984
302.344
303.15
283.15
283.15
293.282
283.15
301.134
302.263
290.533
283.15
294.21
283.15
303.15
283.15
300.076
298.817
283.151
285.438
301.773
303.122
303.155
292.524
294.799
301.365
283.302
301.851
283.145
303.15
303.158
300.293
283.15
302.692
295.09
303.15
301.042
287.533
301.987
284.988
288.589
283.15
302.319
287.992
298.81
303.08
283.15
303.15
291.935
302.261
283.093
283.145
287.227
298.76
303.15
284.88
301.19
301.142
301.402
303.151
300.123
287.911
285.076
301.713
300.12
283.835
283.083
303.158
303.15
303.15
297.651
283.161
283.15
303.15
303.15
290.15
299.032
300.374
288.034
302.849
303.15
286.553
301.695
303.15
301.052
283.841
301.625
303.15
284.669
301.452
295.612
302.797
303.15
303.15
285.329
295.423
296.699
287.648
303.15
303.15
283.15
287.433
302.499
296.492
303.15
285.717
303.15
303.15
300.515
288.913
283.15
295.889
296.21
299.148
283.15
303.15
292.87
287.443
303.15
298.23
300.68
300.59
303.15
303.15
303.15
300.407
298.587
302.866
300.088
283.15
293.023
287.936
291.238
300.852
303.15
303.15
300.919
303.116
286.851
296.484
303.15
303.148
283.15
286.595
299.44
285.739
303.15
303.15
283.373
303.13
303.15
303.15
283.15
290.692
303.15
303.15
284.765
299.377
283.15
303.15
284.72
301.462
300.355
287.197
295.022
303.15
283.515
303.15
303.15
283.191
300.735
290.639
300.569
303.15
303.137
302.284
293.474
300.094
301.575
284.54
283.503
300.863
298.645
303.15
302.795
284.235
299.939
301.523
288.02
303.15
297.61
301.548
301.632
301.665
293.026
303.15
283.15
299.403
283.15
283.15
287.935
283.15
284.06
283.15
283.15
283.15
283.15
302.809
288.267
302.76
283.15
296.018
291.101
284.847
283.15
303.15
302.736
301.872
303.202
302.702
283.15
295.091
300.447
290.349
283.15
283.15
300.007
286.043
283.15
283.15
303.149
290.812
283.15
287.465
303.15
303.152
284.389
283.15
288.585
294.589
300.868
294.686
302.992
285.846
302.574
295.519
286.453
283.15
283.564
291.966
303.12
289.616
302.73
283.15
292.532
287.936
301.109
301.239
285.079
303.13
285.05
297.494
302.991
303.149
285.223
303.146
303.027
293.606
302.691
283.15
303.15
303.15
295.118
291.423
283.156
301.391
284.812
284.222
284.717
303.145
288.53
300.638
283.15
283.15
302.609
303.151
294.895
302.954
303.177
300.222
303.206
302.934
283.15
301.424
302.928
283.15
303.15
301.39
303.15
284.412
299.168
283.171
291.978
283.15
287.755
303.045
299.95
283.15
303.049
291.054
301.355
303.137
303.09
283.15
283.15
301.969
302.12
283.841
302.848
302.503
302.451
303.141
283.15
294.06
283.15
302.827
288.042
303.013
303.15
283.15
302.885
285.269
291.633
302.161
283.15
302.663
302.125
301.673
302.572
303.057
303.183
303.032
303.15
283.15
301.618
298.289
303.096
303.15
290.311
285.457
303.15
283.15
285.464
303.181
303.161
302.953
301.347
284.394
303.108
291.035
294.352
303.148
289.319
303.16
283.15
290.248
283.15
300.252
298.558
284.887
288.453
299.928
296.677
295.545
299.481
294.078
303.151
294.017
296.828
283.152
299.698
293.999
303.15
299.136
299.467
303.15
291.56
303.166
301.841
303.15
287.109
286.128
302.855
289.839
283.15
283.15
300.591
301.135
283.817
283.15
303.15
300.376
302.42
300.792
300.078
302.834
292.778
289.824
286.777
292.666
284.418
290.794
283.314
295.768
290.587
294.452
287.43
284.34
303.16
283.278
303.147
285.845
300.962
283.151
300.385
298.437
288.911
302.155
285.516
299.304
283.15
302.982
283.155
283.102
288.406
299.979
303.15
300.406
303.037
300.068
302.816
303.15
301.468
285.085
295.242
302.183
303.15
283.765
283.15
290.711
285.327
285.927
303.165
303.149
283.15
283.15
283.18
303.15
293.978
303.15
303.164
296.405
303.439
303.15
300.482
303.15
303.15
294.19
290.815
303.15
290.006
302.164
289.731
303.15
303.15
286.369
283.349
290.601
303.205
303.15
303.147
285.646
283.322
283.15
289.223
287.907
303.15
284.37
303.15
303.15
303.133
287.52
303.15
303.147
283.312
303.152
302.734
288.1
283.147
283.736
297.394
291.238
303.15
286.051
284.545
301.479
287.264
302.382
290.725
294.17
303.15
303.15
284.077
303.154
302.976
295.899
302.972
302.793
287.328
283.15
285.454
283.229
297.402
302.662
285.598
303.15
283.887
286.888
303.132
283.181
303.15
286.618
283.15
300.149
303.15
300.063
300.313
283.276
283.399
302.407
291.255
301.318
303.15
301.593
301.911
303.15
303.15
298.541
293.9
283.15
289.016
303.15
295.249
283.398
303.15
297.128
298.996
289.19
303.15
302.82
294.557
295.758
284.563
303.161
298.904
296.598
284.03
303.133
302.85
287.673
298.852
289.966
290.994
289.907
283.15
302.987
303.151
303.15
303.165
293.625
296.771
302.996
301.474
303.15
284.512
303.15
303.064
302.9
303.15
293.932
296.418
303.15
285.577
303.106
303.15
303.106
303.154
286.366
293.733
291.36
288.576
293.517
303.15
301.344
291.992
295.674
293.971
303.142
303.15
300.702
303.18
284.379
303.18
303.15
303.15
303.143
303.15
285.127
303.15
284.387
303.146
303.15
290.58
303.145
292.889
295.973
303.136
295.679
286.091
283.48
303.131
302.955
284.784
283.15
297.305
303.15
285.655
302.956
302.138
303.031
298.461
287.31
303.15
298.817
290.082
299.657
283.15
283.655
303.15
303.144
303.184
294.194
303.15
292.706
289.563
303.188
303.15
285.014
298.977
293.626
299.779
302.575
301.623
300.529
303.15
284.806
296.952
302.419
285.77
298.354
292.526
284.628
292.032
303.15
287.088
292.208
290.254
299.62
303.15
286.576
284.131
303.15
302.5
288.326
302.155
283.15
303.15
300.06
301.808
289.323
302.085
301.911
301.919
303.15
289.679
285.269
302.058
302.319
297.382
303.15
283.208
303.15
302.085
303.15
302.875
303.15
292.098
303.15
297.001
283.15
290.094
303.15
283.15
292.29
301.567
300.592
289.408
300.664
303.15
302.571
303.15
302.418
285.412
303.15
300.579
290.636
303.15
300.964
303.15
303.15
293.312
283.15
285.836
293.491
301.078
303.15
291.53
294.176
288.517
289.801
288.251
299.193
300.268
300.957
287.548
287.281