/*--------------------------------*- C++ -*----------------------------------*\
  =========                 |
  \\      /  F ield         | OpenFOAM: The Open Source CFD Toolbox
   \\    /   O peration     | Website:  https://openfoam.org
    \\  /    A nd           | Version:  10
     \\/     M anipulation  |
\*---------------------------------------------------------------------------*/
FoamFile
{
    format      ascii;
    class       volScalarField;
    location    "13.5";
    object      p;
}
// * * * * * * * * * * * * * * * * * * * * * * * * * * * * * * * * * * * * * //

dimensions      [0 2 -2 0 0 0 0];

internalField   nonuniform List<scalar> 
111485
(
7.88416
0.0778433
0.0813165
7.8837
0.0767735
7.6474
0.0669647
0.0678087
0.0678402
0.0826602
0.065795
0.079832
0.0711196
0.0512052
0.0683318
0.0958917
0.04357
8.79121
0.0720458
7.88388
7.88355
7.65238
0.065208
0.0835798
0.0712256
7.8553
0.0952412
0.07586
0.0799797
7.88595
0.0280757
0.0284865
7.88654
7.65458
8.58302
7.62061
0.0515446
0.053542
0.02573
0.0797573
7.70347
0.0821233
0.0803836
0.0658804
-0.134049
7.90227
0.0762177
0.0792273
0.0770748
7.92213
7.92029
7.39596
7.92864
0.0550666
7.93357
0.0597753
0.0729412
7.66789
-0.00131345
0.0771368
0.0784268
7.88442
0.0641398
0.0365976
7.68814
0.0640743
5.15374
0.0695021
0.0511904
0.0652725
-0.0205405
0.0719465
7.73285
0.0511563
7.8927
0.0542755
7.65365
0.0753172
7.65094
8.08028
0.0018923
0.0615544
7.65507
7.88856
0.0684084
0.0697343
1.8668
0.0477284
0.0109911
0.0542128
-0.085339
0.0717828
0.0675468
0.0511628
0.0819668
7.88818
7.88462
0.0633128
-0.609565
0.16993
7.88384
0.0820163
7.64719
0.0700685
0.0647484
7.93852
7.66269
0.0294114
0.0708961
-0.21901
0.0308484
0.0732877
0.077026
0.0811398
7.85193
0.0496757
7.86869
7.66042
0.0569187
7.88447
7.85423
6.70612
7.65611
7.66816
0.0847321
8.94921
6.67007
0.0356009
7.89001
0.517786
0.00802499
0.0626237
7.89307
6.55492
6.84028
0.0666003
7.65405
0.0551504
0.0585946
0.0775153
0.0469057
0.0614985
0.0671273
0.0818558
0.067099
0.0341993
7.65398
7.88743
7.67048
0.0706594
0.0777869
7.88146
0.0397914
0.00922512
-0.523246
0.072205
0.0671915
0.0656166
-0.384315
7.89531
7.884
0.0692501
0.0707275
-0.345297
-0.46219
0.0446012
0.0429622
7.69421
-0.308178
-0.27294
7.66534
7.88671
0.0757695
7.65881
0.0325601
0.0172968
7.69989
7.71203
7.87104
7.84005
7.68354
7.88291
0.0777262
0.0727499
0.0799208
0.0690499
0.081629
0.0558606
0.0597261
7.88453
0.0400004
7.70735
7.87318
0.0638827
0.0758423
0.0577709
0.0696036
0.0182886
7.89352
0.0743549
0.0807767
5.35753
0.0718733
0.0405804
7.88447
0.0598773
0.067356
7.70611
0.0520607
0.0712064
0.0768347
0.0423553
7.67634
7.88449
0.0562257
5.02637
0.0651815
7.65824
0.05889
0.0573616
0.0813553
7.88748
0.0514734
0.0419994
6.04279
7.65856
7.66565
0.00125121
-0.45286
7.75396
7.30911
0.0556649
0.0283756
-0.0393118
7.75168
7.81174
0.0382444
7.89072
0.0604367
0.05287
0.0534584
0.041059
0.0527359
7.66711
0.00427926
0.0318726
7.67059
7.65498
0.0490723
0.0724741
7.81016
0.0423921
0.0464712
7.8875
6.40364
0.0666549
7.89454
8.02708
7.20337
7.88239
0.0457102
0.0418614
-0.00849676
7.89185
0.047817
7.88372
7.88309
7.89367
0.0318051
0.0695545
0.0682435
0.0606782
0.0748408
0.0625123
0.0611814
0.0338184
0.0153545
0.0264702
7.60608
7.88709
0.033234
0.0342526
-0.00790864
0.0328394
7.88451
0.0700178
0.0668399
0.0628177
0.0933241
0.00358181
0.0573932
0.0618533
0.0696523
7.66467
0.0663639
7.65888
8.74707
8.0935
-0.00247817
0.0685554
0.0675363
7.87509
7.72695
0.0604176
0.0363701
7.8811
7.88248
7.93727
0.0424274
0.0357218
0.0724248
0.0715524
0.0720497
7.26216
7.66709
7.88931
0.0628691
3.30133
0.0525223
0.00270965
0.0214728
7.65572
7.88358
7.88455
6.83433
0.0597913
0.0817713
7.65717
0.0625441
7.80759
7.87084
0.068191
0.0605115
0.0777182
0.0625323
8.00951
6.79942
7.65869
0.0599268
0.0211958
0.0278976
7.68406
0.590203
-0.0376761
0.0843385
0.0607519
1.38965
0.0712626
7.65152
0.0660193
0.0665677
0.0135848
0.0612187
0.0743288
7.65796
7.89073
7.66229
7.88692
0.0773357
0.0555165
0.061707
0.075825
7.67482
0.081907
7.66412
7.89152
0.0722684
8.14107
6.97387
7.93104
7.61653
0.0708931
7.66672
0.0182124
0.0859731
7.6508
0.0515865
0.063571
7.88009
0.0625341
0.0821145
0.06965
0.0559712
0.0427338
0.0355324
8.0179
7.88789
0.0771888
7.6834
0.0785528
0.0561018
7.6979
7.66606
0.0597285
0.0820052
0.00525455
0.092793
7.65349
0.0311479
0.0753231
7.64467
0.0633766
0.0616991
7.88355
7.88288
0.0255791
0.0718724
7.64488
7.87255
5.89013
7.88319
0.0793617
7.6582
7.88386
0.0716866
0.0147581
0.080052
0.0847287
7.64882
6.85126
0.0899465
6.94923
0.0675667
0.0950909
0.0861872
5.32532
7.02474
-0.470344
-0.16836
7.88337
0.0512557
0.0803517
7.88565
-0.369985
0.0820537
6.98693
0.0790684
0.0774703
0.0410844
7.65067
0.266968
0.0787003
0.05117
-0.0158092
6.64768
-0.476148
7.88623
0.067277
-0.163454
7.66573
0.0688593
0.0823276
6.46837
7.89071
7.48144
7.8826
0.0779778
0.0798134
0.0835556
0.0844839
0.0490978
7.65893
0.0303625
7.89627
0.0897645
7.63517
7.89365
7.90213
0.074821
7.88902
7.88449
8.36123
7.88308
7.67433
0.0739539
7.66617
7.44898
7.65888
7.87223
7.64207
7.89558
7.65331
0.0732614
7.65754
0.0719285
0.0771241
0.0353094
7.65407
0.0741616
7.66646
7.88369
0.0685068
0.0673474
0.11482
-0.00762158
7.35683
0.0717188
0.0615442
0.0269548
-0.00525038
0.0751546
7.88764
0.000408753
6.47938
0.0877991
7.65903
0.0652395
6.70022
0.0315439
0.0882757
8.292
7.72463
-0.0232922
7.88104
0.0727311
0.0650443
7.67339
7.6784
7.94689
7.6643
-0.846669
0.0725264
7.64188
7.67173
0.0752225
7.65241
0.0697741
7.65262
0.0717792
7.88401
0.0924906
0.0919233
0.0870964
0.029882
7.62639
-0.124707
7.64169
7.65906
0.0840193
7.66026
0.0834789
7.95305
0.0507578
7.88673
0.100968
7.88356
6.99492
0.0124419
0.0326064
0.0679658
0.0857233
0.0566379
0.0685
7.66947
0.0613624
0.0523164
7.65702
0.0653362
0.0445962
0.0761199
7.71362
8.05209
0.0966568
0.0485755
3.75773
7.72798
0.0738325
0.0858726
0.0827332
0.0790743
0.162228
2.62196
6.90268
-0.573018
3.21823
7.8841
0.0938042
7.68278
7.02553
0.0459062
2.56995
-0.591777
1.51875
6.9015
0.0674698
0.0810498
7.66246
7.47426
0.0878379
7.88752
7.65216
7.65376
7.65275
0.080862
7.66267
7.84543
0.0870319
0.050696
6.04098
0.0364285
7.34326
0.050931
7.92746
7.66773
0.0752952
7.65803
7.65346
6.99281
0.0469516
4.71213
0.0591466
0.0533409
7.89517
-0.101781
0.0181213
0.0731568
0.0907585
0.382037
0.0673358
7.66176
0.0754112
0.0756707
7.89197
0.0592345
0.0727924
0.0827744
0.0368496
0.08292
0.0818696
7.90088
0.0847314
0.0506854
6.9729
0.0837001
0.097908
4.90863
0.0544843
0.0839734
0.089418
0.0809975
0.0901252
0.0490913
7.78747
0.0840069
0.0822741
8.23074
0.0740444
0.0599399
0.0532822
7.66113
0.0498332
7.90664
7.65472
7.67195
7.65083
0.0843825
7.08467
-0.9172
7.88133
7.59216
0.0833864
0.0772005
7.87984
0.0739567
7.88223
7.88884
7.92997
0.0813283
0.0917045
7.02101
7.83729
7.66027
7.66122
0.0440042
0.0376979
6.84266
0.0806366
-0.281613
7.66912
0.0880185
0.0747092
0.0902692
7.65083
7.65775
0.0624409
0.047834
6.95681
7.66584
7.63693
0.0451553
7.89015
7.87826
7.65906
0.0838907
0.0810173
7.65193
8.48504
8.2188
0.155176
7.6691
7.64841
0.0663662
0.034424
6.94178
5.99413
1.24734
0.0790468
0.00280531
7.62282
0.0466558
0.0882612
7.66327
7.92711
7.65374
7.65886
7.66543
7.65188
0.101617
7.88322
7.65441
7.7048
0.0929765
0.0327848
7.88486
7.9403
0.0670643
0.0417143
0.051628
7.87798
7.65526
0.0423351
7.88802
0.0703017
0.0355708
0.0596075
7.85792
7.8839
7.88376
7.66093
0.100638
7.65583
7.65329
0.0662666
7.88373
0.064784
0.0990393
7.66849
0.0510087
7.85582
0.0550677
0.0789213
0.06127
0.0726373
-1.1235
7.26477
0.0527391
0.0723787
0.000989847
7.8136
-1.94891
7.16809
0.0280286
7.66382
0.0656168
0.0760777
0.0619797
8.08283
7.88415
7.89094
0.0456644
7.34073
-0.0140197
7.47652
0.0840824
0.0371215
0.0219828
0.0412658
7.65158
7.67287
7.75509
0.0440451
7.65098
7.26302
-0.0360576
7.66643
7.67303
7.88534
7.65439
0.0227747
7.63378
7.65869
-1.38752
7.32322
7.68573
7.08231
7.65815
0.0568457
0.0256331
7.88142
0.0823214
1.12971
0.0577058
-0.247748
0.0390262
7.66737
0.0726376
0.0779603
0.0586822
7.88809
-2.46287
0.0226894
6.51538
0.00785186
0.000312075
0.0178112
0.052022
0.034783
-0.0202049
0.0400518
0.0387139
7.63991
7.66307
0.0194675
0.00805322
7.66741
0.0220225
0.0794931
0.0328612
7.64448
-0.000859509
7.65981
0.0310503
0.0244728
7.65036
-0.0596635
0.0379692
-0.0377819
-0.0193721
7.60343
0.0681835
-0.03196
0.0485649
-0.0357974
0.062589
7.64964
7.67017
0.0763931
7.65408
0.103759
0.0267579
6.75343
-0.34504
-0.694331
-0.177332
7.65435
6.42931
0.05197
7.88925
9.44839
0.0544819
7.64308
7.6486
-0.59388
-0.731325
7.65449
-0.00131312
7.65881
7.65803
7.89114
7.8831
7.96072
7.88705
0.077138
7.65111
7.66571
7.67207
-1.30669
0.114828
0.0630585
0.0526274
7.66476
7.64703
0.057537
7.65718
7.65222
5.86648
0.050919
0.0590044
7.65133
7.64427
7.65884
7.6482
7.60886
7.6466
0.0339281
7.65285
-0.0811252
0.0726159
7.66083
7.89447
7.93689
-0.00377768
7.92916
7.88445
7.67638
-0.0900335
7.65928
0.0404279
0.0402342
-0.059522
7.6498
5.33234
0.065048
0.0655054
7.67092
-0.076808
0.0733911
7.88962
7.62108
6.9161
7.645
0.0504714
0.0658686
0.044862
-0.223428
7.65143
0.0529897
7.60019
6.86873
6.87362
7.6658
0.0685111
7.65759
7.94721
0.0462184
0.0645871
7.94435
0.0848528
7.34858
0.0250362
8.0034
7.65884
7.63373
7.88387
0.0371672
0.0733932
0.476659
7.65271
7.69565
0.02732
7.65444
7.11002
7.88422
0.0742945
-0.210819
0.111043
7.87128
0.0411174
0.0521678
8.26135
0.0528239
7.65567
0.0581285
0.0634975
0.0613772
0.0257032
-0.0635972
7.65568
7.65901
7.6587
0.0407617
7.73418
0.00646617
7.89165
0.844136
7.88
0.0770976
0.0806199
7.94894
7.65311
7.96582
7.67333
0.00416535
7.97381
6.92408
0.0168983
0.0110506
7.93664
7.07557
7.73226
7.09608
7.64879
7.65577
0.0136822
0.0951851
7.8837
7.87326
-0.497661
7.89058
0.014044
0.0354254
7.72832
0.0660052
7.88392
0.0247277
7.65591
0.0803411
7.64985
-0.44858
-0.184454
-0.0279617
0.059899
0.0566167
4.75485
7.57612
0.069378
7.9239
0.0625345
7.87985
7.68995
7.63162
7.67168
7.69597
7.66729
0.0460724
0.0348892
7.88419
6.67362
7.88695
0.0487626
-0.00352981
7.88184
0.0734733
-0.0288777
7.93734
0.0419891
0.0374026
0.061803
-0.0267634
7.65436
7.65616
7.68744
7.65341
0.0673226
7.59259
0.0680269
7.65617
0.0590352
0.0855123
7.66342
0.0515319
7.65395
7.6538
0.0581204
0.0265737
2.22582
7.65696
7.95996
7.64201
0.0704556
7.53711
7.93838
7.55647
0.98711
6.76871
-0.392756
7.06736
7.52063
7.77613
0.0328584
0.0183218
0.0855065
0.073905
7.87406
0.0712014
7.66048
7.66591
0.0286416
7.62468
-0.503452
0.0609002
0.0391275
0.0586432
-0.828671
0.0699939
7.66406
-1.27747
-2.79374
0.0803273
0.0705946
0.0562234
5.58496
7.87984
0.0714498
7.88496
7.64807
-0.114798
0.0819052
-0.970197
7.64363
7.49075
0.0375873
7.93688
7.64844
0.0538796
7.9553
7.94464
0.152382
0.0538255
0.016102
0.0892099
0.0472886
7.65221
7.65528
-0.147497
0.0674728
7.65364
7.94967
0.10714
7.65917
6.63114
6.80325
6.83928
4.43954
6.6542
7.65517
0.0910803
7.63688
0.0300302
7.65134
3.52256
7.70443
7.67087
7.66459
7.65494
0.0943172
7.65491
7.65441
6.95791
7.64609
7.66492
7.65544
0.0646198
7.67212
0.0574913
0.026133
7.67303
0.113366
7.65228
0.0640368
-0.0878441
0.0264438
0.0353162
7.85404
0.0329678
0.0903705
-0.0322129
7.89037
0.00363503
0.056699
0.0302825
7.36416
0.0230364
7.71634
7.66279
7.65281
7.65206
0.0285073
7.65873
7.64046
0.0241843
-0.0229915
0.0123878
7.67471
5.4911
0.10227
7.66535
-0.237407
7.93415
0.021116
7.64384
7.64708
0.0664202
7.64736
0.0897209
7.88781
7.65087
0.0586277
0.0546121
0.0456117
0.0705391
-0.0141087
0.058273
7.65142
8.04301
0.0749472
0.0513652
0.0700404
0.0161952
7.65438
0.0573571
7.65361
7.80816
0.0664376
0.0420356
7.66012
0.0468281
7.65058
0.040312
0.0522429
7.72038
7.652
7.66098
0.0738709
7.65867
7.65844
0.0779346
0.0392172
0.0630588
0.0277984
7.67192
7.67286
0.0869961
0.090479
7.65627
0.07282
7.73243
0.0684715
7.65254
7.65149
0.0543881
7.65412
0.0663306
0.0863718
7.6545
7.65193
0.0607445
6.51652
0.0993419
7.884
0.0474503
7.8946
6.69913
6.47866
0.0846691
7.00326
6.92871
0.0640354
6.88838
4.31607
6.38033
7.70617
7.88583
-0.0582993
0.0929987
7.69732
7.65763
0.0696329
0.0807812
7.65878
0.0748537
7.65171
7.89073
0.0823893
0.0700824
0.124636
7.65113
7.66072
7.65846
7.65419
7.64275
7.64599
7.65303
7.64408
7.64814
7.65055
7.6578
7.88712
7.65899
7.65009
7.65056
7.81398
7.65057
7.65274
7.65503
7.68359
7.8334
0.0889496
7.65832
7.65099
7.67431
0.0738221
7.6686
7.89059
3.0298
7.63524
7.54392
0.0659399
8.26129
7.59773
3.55468
0.0615005
7.65672
6.78367
7.27735
7.64847
0.0686763
0.0631943
0.0608071
0.0508325
0.0600664
7.9105
7.64383
0.052613
0.0600461
0.0494983
7.6512
0.0641173
0.0791095
0.0722736
0.0282632
0.0304519
0.0514157
0.0400361
0.0615258
7.90162
0.0739024
0.0682013
0.0783286
0.0613574
7.65937
7.65748
7.66103
7.88405
7.65683
0.0618573
0.0679442
7.66207
7.64839
7.6481
7.84619
7.65136
7.88334
7.65217
7.8873
0.0706953
-0.103134
0.0683652
0.101947
7.62319
7.65901
0.063397
-0.136671
7.65194
7.65477
0.077853
7.90081
7.65703
0.105642
0.0417752
0.0580175
0.0995999
0.0666993
7.90703
0.0145641
0.072397
6.92575
7.88475
0.0614732
7.90339
7.65959
2.47439
1.38001
0.0635056
7.79469
7.86568
0.0658552
0.0731633
0.0327103
0.0612397
3.46578
7.88388
0.0840091
8.23621
7.88967
7.59082
0.061956
7.65073
0.0634326
0.0101256
0.0614918
0.0642237
7.89324
0.0679361
7.88994
7.48846
7.88754
7.87364
0.0331373
4.54942
7.65464
7.88342
8.35966
0.0625501
6.87848
0.0443839
0.0569938
0.03233
0.0593915
7.85135
7.87451
6.67436
0.0798039
0.0534025
-0.788881
7.92669
7.884
6.84245
0.0747127
0.0475699
7.65314
-0.00523812
2.5778
0.0665986
0.0471185
7.88355
6.66368
0.0395371
0.0613803
7.65948
0.089505
0.0855879
0.0694721
0.0278305
0.0493625
0.0675028
6.92874
0.0416027
0.0542899
0.0538749
7.99628
0.0665626
7.01406
0.0987885
0.051882
7.89072
0.0281212
0.046059
0.0447871
0.0641308
8.74916
2.17015
0.055553
4.34107
0.0481245
7.65568
0.0309123
0.0474611
7.88718
7.65536
-0.247799
0.00238602
0.0637749
8.73104
0.0802974
-0.0851051
-1.00901
0.0293973
7.88739
7.90794
0.0598556
8.34416
0.0573811
-0.0956211
0.0470071
0.0412074
7.88257
0.0861203
0.0607666
7.87992
6.96366
0.0580596
7.90073
0.0503995
0.0526775
7.88558
8.78225
0.0748559
7.88166
7.65052
7.66523
0.0376074
0.160194
0.0801242
7.94168
0.0755085
0.0435697
7.70398
0.0464683
0.0359268
0.0339653
-0.00934233
7.65334
0.0516911
0.0593833
0.046931
0.0356017
0.0356301
-0.0393542
0.0885226
7.88372
-0.0455943
0.0331471
7.88313
0.0425542
7.66935
7.65827
7.8899
7.67441
7.88466
0.0990495
7.66249
0.0420029
0.060941
7.8914
0.0900315
7.83312
0.0282544
7.88713
-0.0496994
7.66184
0.070857
0.103563
-0.0659035
0.0583213
0.0344978
0.0823596
0.0377996
0.0554516
2.84023
0.0507254
0.0472375
0.0577535
7.88882
0.0769164
-0.00559538
0.0529748
0.0726508
-0.0467999
7.89065
6.81172
7.88427
0.0794498
7.88218
6.19985
0.0355487
8.39083
0.0965322
7.87232
7.85602
7.65458
0.0588159
0.112768
0.0413404
0.0587729
0.0336243
0.0579502
0.0654577
0.05162
0.0280043
0.0631874
0.0550594
7.90743
7.61609
7.88247
0.0694172
0.0645575
7.68185
7.65446
6.3304
0.077463
0.0316978
7.88199
0.0570843
7.88262
-0.299799
0.0834083
0.0423053
7.88439
7.88378
0.0522288
7.88367
0.080354
0.0466138
7.48778
0.0668726
0.0743226
0.0336473
7.87933
0.000450694
7.02095
0.0588331
0.0772725
7.88605
7.89915
0.0428857
5.58709
7.91785
0.0542512
0.0390422
7.88444
7.8632
6.9764
0.0466421
6.31569
0.0681132
0.0626736
0.0816406
7.88412
7.05213
0.0593315
7.88296
7.66444
7.88748
7.88594
7.16107
7.73328
7.58155
7.88127
7.89466
7.33418
8.39698
7.64965
0.0898178
7.65903
6.77813
6.41489
8.89964
6.91388
7.88424
0.0632125
7.40513
7.71781
0.0648612
8.21036
8.56959
7.8
0.0544367
8.36648
0.064873
0.0223485
0.0944677
7.20361
7.8851
0.072957
-0.320881
7.84268
7.88116
0.0722912
7.12551
0.0718872
7.05057
7.6417
7.75305
0.0704403
0.074027
7.88379
0.0801022
7.92413
7.40329
-0.0700538
0.0690847
0.0654674
7.66064
0.0733963
7.24695
0.0577226
7.65361
7.88002
7.65069
7.00802
0.0667246
0.0626778
7.88851
-0.63675
7.88956
7.89858
7.88895
7.88378
0.0670147
0.0535087
0.0650943
0.10426
7.84977
0.0774952
0.0654353
0.0585473
0.0606053
7.71194
0.0531708
0.0893327
0.042667
-0.292528
0.0714931
7.93049
0.0491541
0.0683413
0.0748323
0.0690252
0.0504601
7.9096
0.0583951
7.78676
7.88855
0.0636451
7.89374
0.0912026
7.88307
7.94507
7.58387
7.88726
7.88825
0.0454736
7.88564
0.0660065
7.23325
7.66364
0.0858709
0.0858031
0.0655155
0.0589241
7.90468
0.810969
7.88858
0.0623866
7.94617
0.0792851
0.0632065
0.0761861
0.0776188
7.97589
7.98278
7.88629
0.055948
7.67437
7.87423
0.0516748
7.63855
7.64948
0.093362
7.97558
0.059547
-0.302892
7.18525
7.50966
7.44895
0.0440303
0.0683397
7.88277
0.00832838
0.0679364
7.02921
0.0736148
7.88429
0.0488528
0.087827
0.0623287
7.88463
0.0805352
0.0559402
0.0689815
0.0869417
0.0836436
7.88526
7.88412
0.0111681
7.87672
7.65113
7.88316
0.0432506
0.0762229
0.0568732
0.0232585
6.90974
0.0653112
0.068416
0.0680747
0.00887144
0.0874734
0.0678462
0.0882374
7.65415
7.65431
7.65419
0.106914
7.66056
0.0475273
5.3108
0.0782706
-0.428149
0.0370827
0.0270474
7.64911
7.88605
0.0793865
0.0786512
7.89926
7.64957
7.88982
0.0425509
0.0806758
0.0803458
0.0852358
0.0358777
0.0668488
7.88203
7.88786
7.88387
0.0451818
0.056387
0.0031196
0.0727212
0.064681
0.0818765
7.85523
7.88404
6.38882
7.68904
0.0317229
0.0941812
7.87931
7.91298
7.89464
7.89097
7.85298
7.72447
0.0747709
7.88422
0.0515841
0.00725438
7.65598
0.0789827
0.02918
0.0518416
7.93103
7.77022
0.0764297
7.88411
0.0739446
-1.08014
0.051676
7.67497
5.98487
7.65297
7.88636
7.87731
7.61394
2.20258
7.8935
0.0896174
0.0344498
7.88718
7.88458
0.0743354
7.88734
7.65843
0.0589746
-0.0795352
7.8702
7.87068
7.67998
0.0583204
7.88386
7.88373
1.2688
0.0601071
0.0733525
7.88223
7.65523
7.22045
0.0692556
0.0729311
0.07144
0.0650028
7.65175
0.068224
0.0150246
0.00135667
7.60886
7.88415
7.88396
7.84097
7.88391
0.069351
0.0665452
0.0457126
7.90531
7.88607
7.88346
7.88268
7.7167
0.0633206
0.111692
0.0205538
7.6512
7.88401
7.94194
-0.864409
0.0538362
0.0398311
7.65676
-1.80467
8.2573
7.84671
7.8831
0.0683274
0.0839263
7.88334
7.91334
0.0731735
7.88514
0.0467303
0.0682622
2.82297
7.87896
7.69546
0.0557193
0.0435186
7.9158
2.63006
0.058885
0.0972711
7.88362
7.8854
7.89757
7.89303
0.0345981
0.0489662
7.88571
0.052918
0.0751887
0.330272
7.88304
7.88067
7.88191
7.8859
0.0775731
8.38331
7.88441
7.77571
0.038966
0.0692977
0.0472965
7.85224
7.88703
0.0691467
7.63378
7.88472
7.88378
7.88397
0.0686691
7.70388
7.63562
7.65299
0.038019
0.075725
7.87805
7.88816
7.86357
0.0734536
8.15448
7.88536
7.86564
7.88849
7.88733
-0.0770382
0.0905968
7.93058
0.0742531
0.0821233
0.0666109
7.89425
7.89019
7.88511
7.8496
7.65003
0.0954561
7.884
7.39437
7.36809
0.0721148
7.66089
0.0639303
7.88381
7.66199
0.0886781
0.41521
7.07319
0.0833825
7.88514
0.0784195
8.1465
7.89886
7.93062
9.0955
7.88821
0.0644703
7.87902
0.0657549
7.66273
6.9756
7.89309
7.87682
0.0313569
0.113769
7.65373
2.73054
7.66175
0.0159195
0.0613029
0.0956271
7.6666
-0.226805
0.057406
0.0533028
0.0916236
-0.485557
0.0522242
7.62503
7.65096
-0.607959
0.0498921
0.0801305
7.91629
7.54757
6.42072
3.33443
7.89035
7.6535
7.88877
7.89045
7.89209
8.30495
0.114117
0.0349678
0.0670892
6.98528
0.0212607
7.88839
0.07512
7.88388
7.8966
7.6575
7.72045
0.00281572
7.7014
7.65865
7.88276
0.0723154
7.88156
7.88546
0.0533349
7.85534
5.7943
4.98352
4.65022
7.89205
4.86576
4.7047
4.81497
5.50858
7.65127
7.65144
0.0660146
0.0713499
6.99813
7.15779
7.64842
0.0612724
8.19199
7.74305
0.00633035
7.88398
7.88406
0.0539813
0.0197725
7.85461
7.65023
0.0829453
7.04857
7.63981
-0.267959
0.0672662
0.110108
7.81903
0.0808682
7.88944
0.0524855
-0.27041
0.0753488
7.88344
-0.265303
0.079973
7.97136
-0.906038
7.87233
0.0747896
7.54058
0.0871361
7.81151
0.0543272
7.88173
7.60654
7.66186
-1.32511
-1.33268
7.90044
0.0703426
0.112808
7.93512
7.88306
0.0408902
0.0227281
0.000854706
7.89583
0.0777615
0.0712005
0.0593021
-0.716477
7.89217
-0.0456821
7.65913
-0.0311367
7.88395
-1.58781
-1.86038
7.86092
0.0602987
7.70733
0.0596879
7.65305
7.86507
7.89371
7.90246
7.85997
7.87113
0.0828031
0.074349
-0.0354854
7.88936
6.3733
-0.0235995
7.88889
7.84601
7.91239
7.88238
7.9115
0.0246256
7.88353
7.88897
7.65072
0.0178547
7.86635
7.65526
7.55077
0.0445867
7.65716
0.0175007
-0.642781
0.0316478
0.042433
-0.00569967
8.22191
7.88672
7.88226
0.0772609
0.0488851
7.57648
6.3349
0.0201083
7.88548
7.89033
-0.0132368
7.87128
0.0775212
7.88325
-0.00283416
0.0502961
7.89078
7.65063
7.88677
7.88915
7.88316
0.0807781
7.88007
0.0212371
7.94945
7.88422
0.0453355
7.65481
0.0730603
7.78208
7.88538
0.0737232
0.0699494
0.00111521
7.88813
7.88867
7.88392
0.0682326
0.0281785
7.95657
7.65404
7.65144
0.0364758
7.87461
0.0800785
-0.0143036
7.88155
7.87746
0.0453669
7.87852
7.65122
7.65733
7.96368
7.65928
-0.0330289
6.24447
7.67148
7.88698
6.40517
7.87728
6.62381
7.85458
7.87516
7.75841
0.0569517
7.81693
0.0341376
7.86653
7.87607
0.0699454
0.0288026
7.87114
7.8529
7.88323
0.0490205
6.74625
7.88448
7.74132
7.87943
0.0448783
7.87244
-0.0574799
7.89023
0.0701356
6.95654
0.0697468
7.89637
7.88313
0.0811392
6.5908
7.8881
0.046854
0.0705125
7.90769
7.8892
0.0682265
0.0424174
0.043276
0.0395098
0.0303265
0.0787137
0.0446062
0.0614695
7.95409
-0.067397
6.30768
6.19522
7.88368
7.87806
7.88321
0.0571167
7.89037
7.88419
7.89028
-0.007819
0.0568391
6.00325
0.0526242
7.89029
0.0739354
7.64433
0.0481653
0.0470692
6.38002
0.0808536
7.87336
7.85403
7.65461
0.0661478
0.0688534
7.88398
7.65811
0.0570331
7.88789
-0.00930731
7.92639
0.0341299
7.88383
7.65501
7.86796
7.65372
0.0450414
7.6539
0.396127
7.66282
0.0764931
7.88296
7.87831
4.39201
4.07268
7.89966
7.87894
7.88431
7.88775
0.0707645
-0.0189968
5.27806
7.8906
0.0805574
7.65066
7.66922
-0.298435
0.0720938
0.0451797
7.65539
0.0395104
0.0651626
0.0663396
0.0780923
7.88493
7.89159
7.89578
7.89031
7.65553
7.65373
7.6544
7.84846
7.65571
7.65458
7.88376
7.65407
0.00940499
7.65384
7.88154
8.62962
7.88872
7.88326
2.79651
7.6518
7.8814
0.0585732
0.0286142
7.85666
7.86779
7.88426
0.074018
7.69761
7.87244
0.0100257
7.65834
7.88187
7.88147
7.8903
0.0626652
7.65579
-0.0485079
7.8903
7.87031
7.88102
7.88264
7.87897
0.0162423
-0.0238127
0.0515779
7.88901
7.66873
7.92383
-0.00141719
7.88086
-0.0248871
0.0423849
7.65492
7.86793
5.99445
-0.280291
7.86339
7.05543
-0.267433
6.07328
0.0768835
7.69192
0.0629037
6.03973
5.64988
7.88363
0.0774133
7.65862
0.0648532
0.0531787
7.88903
0.0767318
-0.159604
7.8821
0.0401525
7.65257
7.8649
7.87433
7.86068
7.87392
7.65159
7.88061
7.88758
-0.0309165
7.1442
7.88334
7.88274
7.87908
7.88259
0.0724345
4.11136
-0.00956213
-0.172291
7.88006
0.0873905
0.0771435
7.88345
7.03401
7.81676
7.86932
7.9061
7.96722
6.48001
7.20077
0.0590018
7.88404
7.8935
6.13045
6.66143
7.6547
0.0699298
7.88666
7.66184
7.88857
0.0349826
7.89171
7.65204
0.0714107
7.65658
7.62569
7.79181
7.93584
0.0721745
7.88367
7.88175
7.88103
7.8696
0.0779724
0.0486404
0.0571358
0.0743157
0.0687104
0.0608011
7.65856
6.58946
-0.0404119
0.064089
6.58013
-0.0294514
7.88222
-0.950044
7.6692
0.0258419
7.88559
7.65356
0.0684516
-1.25641
7.88482
0.0637098
7.88632
7.88835
0.0197194
0.0536519
7.88694
7.65334
7.92395
7.65411
7.87855
6.87813
7.88829
7.88403
0.0628746
7.88798
7.88014
7.88146
0.0756787
7.89265
6.91961
7.65613
7.65353
7.33485
6.9608
0.074056
7.65212
6.97022
0.0625378
7.88057
0.0542209
0.0702279
7.88339
0.0594383
7.88314
7.48862
7.94746
6.82824
7.66345
7.86751
7.88192
7.89166
0.0786107
7.88975
7.88625
7.88643
7.76314
7.88253
7.81241
-0.00335039
7.88384
7.89103
0.0393781
7.88417
7.65571
7.66419
0.0891122
7.88413
-0.047361
6.74697
-0.25271
0.022401
7.65135
6.58482
0.0649107
6.31888
7.65517
-0.0750396
-0.252849
-0.00265906
0.0478447
-0.132364
-1.03081
7.68594
7.65258
0.0802307
0.0161833
0.0295439
0.0866756
-0.26219
7.65858
0.0317788
0.0703524
0.076536
7.66758
0.0787948
0.0325285
0.0636664
0.0718054
-0.00551282
0.0890285
0.0563066
0.0617891
0.0157184
0.0558823
0.0784471
6.93297
0.0916293
0.00662176
0.0754474
0.0656953
0.0264597
0.0797657
0.0176427
7.09189
0.00533941
7.04102
0.0713157
0.082143
0.0412376
0.0566208
7.03003
7.65303
0.0780384
0.0689233
-0.00873609
0.0501519
0.042216
0.071455
4.88092
0.0806549
7.8838
0.125914
0.00573845
0.0559373
0.0711207
-0.0208103
-0.0541542
0.0798374
0.0568928
0.0487256
0.0684209
0.0746073
0.128351
6.18236
5.43338
0.0748981
7.88524
7.88438
0.0701355
0.0910582
0.0281865
7.883
0.0333054
0.0525358
0.0670722
5.62751
7.88331
-0.0916911
0.00972743
-0.000879262
7.8918
0.0454733
7.88481
0.0612701
0.0768274
0.0547077
0.0565233
7.88111
7.88598
0.0718352
0.0820527
0.0962288
7.87763
0.064662
0.0971566
0.0638028
7.6644
0.0734321
0.0533879
7.02404
0.0632277
-1.34065
0.00720303
7.61553
0.0445093
0.0219421
7.88395
0.0898731
0.0249703
1.50906
0.0743021
0.0963102
0.03781
0.0981299
0.0557768
-0.0170692
-0.113797
0.0039872
0.113708
0.0359517
0.0600189
-0.0532208
0.0744282
0.0688777
0.0893227
0.0818995
-0.0379049
0.0550803
7.88447
0.0854302
0.0753001
0.0102051
0.0582746
0.0630395
7.67385
0.0828704
0.0652916
7.88016
0.0315917
-0.00502189
0.0830682
0.0876999
0.032103
-0.0420023
0.0893545
0.0680789
0.0534193
7.88421
7.88382
0.0579623
7.66679
0.0612841
0.0992799
7.7141
0.0324777
0.0704799
0.0467939
7.88647
0.0660777
0.058444
0.043051
-0.0238485
0.0664575
0.0641011
0.0652195
0.0858568
7.88388
7.86344
0.019533
0.0634019
0.0468291
0.079975
7.86312
0.0637374
0.0973248
7.71455
0.0543641
0.0830941
-0.0772706
-0.0896373
0.0699333
0.0447128
0.0543593
0.0569613
7.67189
0.091798
0.0482951
0.0843109
-0.0757673
7.86436
0.0784509
8.01824
7.88398
0.0599455
0.0700073
0.0566067
0.248338
-0.00742725
1.58042
7.65766
0.0521197
0.107508
0.117
0.0614477
7.88769
7.66649
7.65589
0.0508515
0.0555366
-0.10134
0.0647369
7.63586
7.86776
0.0433478
0.0627589
0.0595028
0.0657424
0.0606225
0.0918488
0.0448759
4.42659
7.65105
0.076628
0.0279062
7.86719
0.0723389
0.0874018
0.0519815
0.089642
0.0723094
0.0643812
7.86739
0.0796912
0.0708454
7.6648
7.65217
0.0314855
0.0833751
0.0339653
0.0296871
0.0807548
0.0763952
0.0476566
0.0697818
0.0815352
0.0225204
7.86308
7.85536
0.00956623
0.0406058
0.07992
0.0227653
0.0814226
0.0562273
0.0808754
0.0740967
0.0772861
7.65567
7.67194
0.00737431
7.86165
6.87981
0.0785981
0.0625187
0.0636018
0.0234498
7.1988
0.0660011
0.0411256
7.32869
0.0203018
-0.085779
0.0802634
0.0829476
0.0232609
0.0955888
-0.0265013
0.0302695
7.88381
7.27265
0.0320737
0.0458787
0.0576583
0.045609
-0.00161658
0.0616821
0.00599415
7.29844
0.0895889
0.0655839
0.0699672
-0.000118428
0.0629627
0.0179027
-0.0794845
0.0678
0.0366971
7.19156
0.0872379
0.0885017
2.87893
6.83174
6.28768
0.0930029
6.6784
0.0161546
0.0787138
0.0583102
0.0934161
0.00272554
5.09942
3.12641
8.08347
6.75438
0.0595715
7.65381
7.65348
-1.12741
7.88158
0.0687234
0.0657447
0.0801139
0.0603312
0.063429
0.0777064
6.31289
0.0425759
0.0330973
0.0637036
0.0829449
0.0719426
0.0778539
7.65478
-0.0809269
0.0666335
-0.00986295
7.65408
0.0780797
0.0617859
7.65389
7.87307
0.0250182
0.0557904
7.92108
0.0883869
0.0830513
0.0223446
7.88729
7.65361
0.0254168
-0.0850261
0.0937406
7.65425
7.64632
7.65392
0.082463
2.63735
2.40634
0.0248166
-0.244674
7.8971
0.0518547
-0.222275
0.0754763
0.0295469
0.0129591
0.0454537
-0.364795
0.0347268
7.71311
0.0404267
0.053894
0.0196319
0.0666708
0.024464
0.0448006
0.0284702
0.0215258
0.0317172
0.045859
-0.252327
0.0754025
0.0222997
-0.0143775
-0.320635
0.0185751
-0.234983
0.0297037
0.0316259
0.0559293
0.0587171
0.0517663
0.0537287
-0.241071
0.0453567
7.50254
0.0751413
3.88634
0.0620422
0.0661888
7.66542
0.0730597
7.50227
0.0713845
7.53007
7.90965
0.0934373
0.0650718
6.88659
0.0410619
0.0725115
0.0674052
7.8687
7.88836
0.120258
0.0295807
-0.0582211
0.0635374
0.047257
0.0659291
0.0495394
0.0769587
0.0714892
6.53127
0.0737356
7.65479
7.83569
0.066556
0.0551371
0.0231683
0.0645962
0.0529228
0.081142
0.0703014
7.78914
0.00387211
0.0407422
0.0761168
7.80154
7.89525
0.074547
0.0741826
6.18751
0.0615132
0.0303109
0.0786017
-0.127396
0.0503313
0.0704893
7.87257
4.6305
0.0602003
0.0376471
7.73033
0.0754311
0.0555808
0.0687232
0.0112095
0.0546802
-0.0207173
0.074142
0.068896
4.90348
0.0614753
7.88369
0.074649
0.0706234
0.0477317
0.0102019
6.61851
0.0156658
0.0326869
0.072008
0.00139218
7.44354
7.65377
0.0691222
0.037977
0.0822436
0.0783314
0.0614578
0.0506786
0.00310123
0.0631406
0.0472181
0.0297433
0.0544647
7.07029
-0.0122538
0.0627475
-0.000188801
0.0610941
7.26191
7.65021
-2.21327
0.0031329
8.17524
-0.0227604
0.0699046
7.38191
5.06639
5.49692
0.04869
0.0606639
0.294596
5.87885
0.0274011
0.0741983
7.6249
0.232143
6.9073
0.0681275
0.0506202
7.69175
-0.019737
0.0761882
0.0723417
0.0525841
7.65157
-0.142964
0.0573577
0.0334582
0.0815874
0.085724
0.0648013
0.0830969
-0.0484953
0.0722581
0.0368035
0.0604943
7.87991
6.49303
6.58185
7.73463
0.0564457
0.0703715
0.0698648
0.0387967
0.0425604
0.0679061
0.0716473
0.0713457
0.0708824
0.0522937
0.0809266
0.0180386
0.0849073
0.0451909
7.88326
0.0596249
0.0404252
0.0731305
0.0841153
7.61876
0.0540981
0.0581226
0.108635
0.0759853
0.0714416
7.66547
0.0813482
0.0710479
6.89616
0.0829807
0.0746439
7.72868
0.0577815
7.71997
7.6623
0.0551404
0.0305769
0.0782348
0.0724588
7.6526
0.0431562
0.0563409
7.6664
0.0764819
0.0726662
0.0675149
0.0731416
7.75918
0.059337
0.0641056
0.0900614
7.72469
0.0783415
0.0352329
0.0815242
0.062271
0.0578305
7.9158
7.488
7.09788
0.0289058
7.22581
0.0689356
0.0491548
0.0353973
7.86282
0.0330094
7.68502
7.88385
7.83489
0.0728398
-0.0113758
-0.0839306
0.0835975
0.0773096
7.52876
6.90509
0.0625029
0.0553648
0.0694787
-0.0481319
0.0677368
-0.265279
7.88581
5.77461
5.89055
7.65156
5.96497
0.0193913
7.88396
0.0775447
0.0695
0.0705197
0.0225149
0.072338
6.36376
0.0367551
0.0806256
0.0732466
0.0616541
6.40456
7.88431
0.0751338
0.0529545
-0.167636
-0.409385
0.00682169
-0.0315342
-0.138295
-0.0739958
0.0654106
0.0152849
0.0556876
-0.673398
0.0509627
0.0816834
0.0712142
0.051105
0.0497756
0.00180642
-0.481478
-0.374815
-0.826829
-1.12412
0.0267577
0.0505981
7.66936
-0.924784
-1.85776
0.0402642
0.0322894
0.00478126
0.0761632
0.0924903
-2.02991
0.0276141
0.0079377
7.91784
0.0719923
0.0477163
0.0666227
7.88826
0.0465504
0.0373632
0.0314062
0.0680309
7.89508
7.92073
0.075064
0.0469894
0.040507
0.00816132
7.84812
7.88379
7.65932
0.0750989
0.072726
0.0304458