/*--------------------------------*- C++ -*----------------------------------*\
  =========                 |
  \\      /  F ield         | OpenFOAM: The Open Source CFD Toolbox
   \\    /   O peration     | Website:  https://openfoam.org
    \\  /    A nd           | Version:  10
     \\/     M anipulation  |
\*---------------------------------------------------------------------------*/
FoamFile
{
    format      ascii;
    class       volScalarField;
    location    "13.5";
    object      SgP;
}
// * * * * * * * * * * * * * * * * * * * * * * * * * * * * * * * * * * * * * //

dimensions      [1 -1 -3 -1 0 0 0];

internalField   nonuniform List<scalar> 
111485
(
4.87292e-10
0.00011597
2.72347e-05
7.07497e-11
8.23043e-06
3.06746e-08
1.47983e-05
2.38395e-07
1.05197e-05
2.82174e-06
2.48756e-05
8.76621e-07
6.68018e-06
0.29073
6.45546e-06
1.57101e-05
0.205866
0.00103435
8.6815e-07
4.78742e-08
0.0369262
2.38276e-09
3.1217e-06
1.09737e-05
3.97421e-05
3.39188e-08
5.20119e-07
1.41398e-05
1.0563e-06
0.0477759
4.11718e-06
4.95319e-07
2.17855e-07
1.41967e-06
0.00073642
8.97428e-05
0.134597
0.20256
0.00244473
8.45086e-07
0.04259
1.18208e-06
2.85373e-06
0.000106848
1.87391e-05
1.57155e-06
6.3897e-06
4.29003e-07
6.05213e-06
4.22658e-07
1.09731e-06
1.70366e-05
4.63075e-07
9.15503e-06
1.48975e-06
2.00388e-07
2.69228e-06
4.19185e-08
4.84499e-05
3.89368e-07
5.56874e-07
2.62294e-07
8.34751e-05
6.80994e-06
6.4656e-06
2.10146e-05
0.000415948
2.30023e-06
7.01213e-05
0.000138519
4.91709e-05
8.48843e-05
1.10881e-05
9.00617e-05
4.28775e-08
1.9064e-06
1.55607e-08
7.00554e-07
2.75554e-08
3.09893e-05
0.276663
0.518202
4.49884e-08
4.9924e-09
1.55502e-05
3.70909e-05
0.141161
8.87872e-06
0.000244447
4.22847e-06
1.23095e-06
6.42252e-06
4.52717e-05
4.80126e-07
2.24904e-06
6.50818e-09
0.0268555
1.12798e-05
0.00151222
0.000562102
9.51116e-10
2.96844e-06
1.92044e-06
1.42392e-05
5.97816e-06
1.62878e-05
6.23703e-09
2.80471e-07
1.45937e-05
0.000710984
4.06351e-05
1.34749e-06
1.30679e-05
7.29944e-05
1.0336e-07
1.58495e-07
3.02217e-08
6.41326e-06
2.23133e-05
3.90567e-09
9.11143e-08
0.000188155
0.0736416
2.21275e-06
5.70602e-05
0.0278279
0.000105902
1.2923e-05
2.40648e-10
0.00031686
0.00013564
1.67759e-05
0.0468384
0.000173409
7.75e-05
7.8607e-07
1.19296e-09
2.93039e-07
9.29416e-06
2.40147e-05
6.99152e-05
3.87015e-07
0.17759
9.54928e-05
4.06102e-05
2.32049e-06
1.88521e-09
6.82139e-10
4.80818e-08
4.83444e-07
3.23086e-05
0.0283286
0.113624
1.33537e-05
3.58783e-05
5.52072e-07
5.58048e-06
0.000149803
0.00080898
5.39379e-06
9.26106e-10
7.38858e-07
3.88567e-05
7.30644e-05
6.38208e-05
3.74808e-05
6.91189e-06
0.0264893
0.00153412
0.000128938
1.4793e-09
1.43546e-08
0.195809
1.32417e-10
2.61893e-07
2.67638e-06
5.34189e-07
9.29312e-06
3.56432e-08
5.74824e-06
9.78061e-06
3.71017e-08
2.64086e-06
4.98217e-07
2.24123e-06
2.02543e-05
9.81231e-06
5.43466e-05
0.000378113
1.69387e-07
5.27635e-05
5.69643e-06
7.0772e-06
3.69012e-05
5.02859e-06
1.1812e-05
2.15206e-06
1.33482e-06
8.44769e-07
8.27863e-06
2.91378e-06
0.00160922
7.95044e-05
9.09828e-07
1.81001e-06
3.97441e-06
1.20544e-05
1.16229e-05
1.77235e-05
2.4554e-06
5.41451e-06
9.7048e-06
8.49442e-06
7.40477e-09
6.83108e-05
0.000307775
4.1146e-07
7.48057e-09
1.16118e-05
1.7171e-05
8.70596e-07
8.28834e-08
1.57291e-05
1.63499e-05
0.000274705
7.17933e-09
6.42336e-10
3.09817e-05
0.00408447
2.32828e-05
9.21363e-05
1.35606e-05
2.26247e-06
0.143791
3.81348e-05
2.05824e-05
0.158531
4.56653e-08
5.96699e-05
2.15121e-05
2.63497e-05
3.20289e-05
4.68251e-06
3.83518e-06
0.00189577
1.10038e-06
7.67023e-06
9.36859e-09
5.19976e-06
0.134377
1.79738e-05
1.06342e-05
2.10879e-05
7.68985e-10
0.000190034
4.45481e-07
2.74762e-07
6.49274e-05
0.0985502
1.85527e-08
4.43015e-06
5.21482e-05
2.45189e-06
3.41817e-09
1.14805e-05
6.32503e-11
6.09806e-08
5.04597e-07
0.163505
4.30607e-06
3.14051e-05
1.36601e-06
0.174634
1.92125e-05
1.3521e-06
0.000246019
4.45871e-06
1.16865e-06
4.53754e-07
5.3327e-09
0.110908
4.24403e-07
3.96275e-05
1.99647e-05
1.60225e-09
0.214422
0.261858
1.52597e-06
0.000313994
3.31191e-05
3.11393e-06
8.78745e-06
1.18821e-05
2.25234e-08
7.02548e-06
2.43354e-09
0.000357304
0.000271342
1.25502e-05
1.60134e-06
0.341231
1.79072e-08
0.0841275
9.85095e-07
7.37173e-06
3.80322e-09
1.14027e-07
0.0244383
4.57923e-06
1.51684e-06
5.8109e-06
0.000166662
7.4991e-07
3.00111e-05
2.9854e-08
3.35253e-08
5.28631e-06
0.00435241
0.246329
3.34622e-06
0.000766244
1.3728e-09
8.78498e-09
1.34672e-08
8.38987e-05
5.39035e-07
5.74432e-07
2.12277e-06
9.00214e-07
7.07799e-05
0.0603363
5.44023e-06
1.18404e-07
1.90071e-06
2.21989e-06
0.0471768
4.93859e-05
7.25672e-07
7.22645e-07
8.12221e-07
1.35045e-05
6.63077e-08
0.148603
0.000166284
8.01771e-07
3.07673e-06
0.000297698
4.48413e-07
0.038256
5.32201e-07
1.04724e-05
6.21532e-06
3.94227e-07
1.97304e-05
8.94654e-06
1.92944e-07
5.383e-07
7.06207e-07
1.73573e-06
0.356536
2.90221e-05
1.76075e-07
0.0518118
1.60457e-05
1.77401e-08
4.05595e-07
3.77555e-07
0.0466033
0.000613133
0.0455461
0.0485635
2.78649e-07
2.36078e-08
2.69796e-06
3.8345e-06
5.77884e-10
7.23877e-06
2.9574e-06
1.56955e-05
2.57369e-05
0.000137513
5.37438e-06
0.000694961
4.70631e-07
7.80669e-06
4.2491e-05
1.18412e-06
0.00066211
3.8251e-07
1.44807e-05
2.68624e-06
0.0296894
1.14582e-07
1.78422e-07
0.152372
4.6179e-06
0.301771
6.74773e-08
4.5251e-06
3.49859e-06
6.73756e-09
5.1019e-06
4.45065e-05
3.86381e-09
0.031796
3.14019e-06
2.80808e-06
4.49478e-07
2.4329e-08
0.000745673
3.87581e-09
1.00944e-05
3.53074e-06
3.25085e-10
1.13801e-06
3.79233e-05
0.242901
0.000132872
1.9597e-09
7.87145e-05
0.000100511
9.68118e-05
3.84395e-05
0.00062142
2.59006e-06
0.00110858
5.26349e-05
0.201561
0.000199895
4.50601e-08
7.04875e-06
1.0293e-06
2.00628e-07
0.00140464
0.000214179
8.25609e-05
1.47329e-06
1.45672e-06
9.45312e-06
3.49847e-08
0.345876
8.90957e-07
3.31601e-05
0.00435679
9.01656e-05
0.00125746
3.57369e-08
0.249801
0.327018
2.59618e-08
3.41691e-05
0.000259657
0.0001022
3.90325e-09
2.95825e-05
3.93437e-09
0.280781
7.12221e-05
2.04438e-05
0.000104421
2.08485e-05
1.78706e-07
1.68847e-06
4.95972e-07
6.78518e-05
1.55338e-07
5.93833e-07
0.0519998
9.44118e-05
3.94756e-08
1.16891e-09
0.000379063
8.44518e-08
1.55629e-06
3.57287e-06
2.63932e-08
6.07556e-05
6.57314e-08
0.0735864
6.72341e-08
1.64733e-06
3.77727e-08
0.000231947
4.15006e-07
0.220823
1.92859e-05
0.233178
8.50326e-09
6.48185e-05
2.52577e-06
2.84866e-09
0.363997
0.140973
2.54404e-05
3.07448e-06
3.03392e-05
6.85633e-07
1.18033e-05
7.6365e-07
4.48793e-05
0.285172
2.28619e-08
2.31688e-06
0.000107284
1.74687e-05
0.0577709
5.44169e-06
0.000113718
2.40772e-06
1.37998e-06
0.000767065
0.0801738
1.72864e-05
2.20202e-08
1.27275e-06
3.34098e-06
3.49353e-06
1.11959e-06
1.94205e-05
1.83318e-09
0.00168778
1.50872e-07
3.41941e-07
1.80297e-07
9.05505e-05
2.58696e-09
9.61887e-06
2.8221e-08
8.87588e-06
1.00674e-09
0.114569
0.112984
1.90944e-05
1.15306e-06
0.0638311
0.0802171
4.82552e-08
2.46819e-07
1.44891e-05
4.40757e-08
0.000166414
1.76968e-05
1.07855e-05
0.0423228
1.59585e-06
2.84169e-09
4.62538e-05
4.33276e-05
6.15285e-05
1.65916e-06
1.5825e-05
1.04251e-05
1.06057e-06
9.51036e-07
2.0731e-05
3.30679e-05
2.3139e-09
0.124863
6.67697e-05
4.25932e-05
1.317e-06
0.00117308
3.10992e-05
0.000456251
0.00297472
0.000379953
5.24818e-06
8.4113e-05
1.10403e-05
2.17719e-05
0.113191
0.000207929
7.3323e-05
0.0035596
0.0759229
3.18725e-08
6.43846e-05
4.48643e-06
4.02485e-05
3.49789e-07
0.000515877
0.00272944
0.000431238
0.000164683
2.55568e-05
2.29234e-06
5.44255e-08
0.000196526
3.394e-06
2.92483e-08
8.05475e-10
5.10683e-08
3.4598e-08
9.72186e-06
2.49784e-09
0.0344851
1.24974e-05
2.44289e-05
0.0978414
0.314563
5.97045e-05
2.92829e-06
0.0368714
5.42326e-08
1.85148e-05
1.52422e-07
2.24851e-08
4.72081e-05
2.31118e-05
0.119184
2.56476e-05
1.52241e-07
2.67161e-06
2.89167e-05
0.141605
6.92173e-06
2.69867e-05
6.87566e-05
0.194505
0.0406565
2.7291e-06
1.71127e-05
5.90628e-06
2.33882e-06
5.96562e-06
1.1021e-06
3.12277e-05
4.06288e-06
2.09965e-06
1.12937e-06
4.28558e-06
0.000653198
3.22941e-05
4.16694e-06
4.76752e-06
0.000651625
3.80415e-07
5.02943e-07
1.73112e-05
2.98762e-06
1.61262e-05
2.91533e-06
3.25608e-06
3.3887e-06
3.07812e-05
0.000193773
1.23155e-05
1.75879e-05
3.03927e-06
4.81975e-07
4.32031e-05
4.42537e-06
4.12559e-09
0.0760965
1.49665e-08
0.135172
5.84234e-05
0.0116932
8.09508e-08
0.0288585
1.61082e-06
1.26789e-05
1.13152e-09
7.60482e-06
2.98257e-07
1.88119e-08
8.18076e-07
0.278409
0.00012688
2.93415e-05
0.0408688
9.93347e-08
2.43412e-09
3.8154e-06
1.82984e-06
8.26495e-05
5.65495e-07
0.000126622
6.18761e-08
7.24767e-06
0.000122603
0.165586
1.24271e-09
4.9657e-09
3.32975e-06
8.08918e-07
0.000131194
4.2621e-07
0.0617619
1.14783e-06
2.63288e-08
1.22307e-07
0.0446134
6.29599e-06
0.00013675
5.75699e-10
0.00497781
0.00102694
0.179363
1.64451e-08
1.95847e-08
3.59935e-06
2.2556e-05
3.91159e-05
0.000576958
0.000327415
0.000251439
4.77847e-06
0.0622227
2.59003e-05
8.05326e-07
6.55189e-08
1.1949e-06
1.22343e-08
9.1494e-09
7.47599e-08
8.67004e-10
3.25318e-06
6.85969e-08
1.79186e-08
3.3291e-07
2.20635e-07
1.59948e-06
1.05068e-07
5.75045e-07
2.5608e-07
1.46033e-05
1.63413e-05
2.64589e-08
6.91445e-09
2.14709e-05
6.7117e-10
8.82707e-05
2.07354e-06
4.9974e-06
1.1784e-07
2.44413e-10
9.43068e-10
1.62224e-09
1.51645e-05
1.91623e-08
6.50469e-08
2.06606e-05
5.28887e-09
1.35505e-05
8.19608e-05
2.33466e-06
1.67214e-06
0.000516991
4.51008e-06
0.248319
0.00010857
8.17163e-06
0.20687
8.14728e-05
5.85691e-06
2.78868e-05
9.14127e-07
2.01042e-05
0.0879526
0.000693028
6.00316e-07
3.87921e-08
1.25198e-05
7.76762e-05
9.69194e-05
9.06881e-05
1.96526e-09
1.79005e-10
1.25864e-06
3.82344e-05
9.22322e-06
3.85208e-06
0.000196811
3.31189e-06
2.8938e-05
1.40034e-07
1.64599e-08
0.0328403
7.93517e-06
3.65482e-07
2.68516e-08
4.92125e-05
0.000129684
1.74506e-06
3.36508e-07
0.0403958
1.32029e-09
2.65648e-05
0.0626042
1.06228e-08
0.0717464
4.25756e-05
0.0363956
0.000600668
9.49369e-08
2.37931e-05
2.16286e-05
0.0455191
5.62928e-05
0.00130046
0.159408
0.000139545
1.10078e-05
9.73855e-07
1.22251e-06
0.479514
0.159748
4.137e-08
0.237998
1.35461e-05
0.000160611
2.44145e-05
2.16604e-05
0.00118558
3.8234e-05
1.36013e-05
6.8295e-06
1.32356e-07
1.73588e-06
0.0448059
8.35715e-08
5.38904e-05
2.71883e-05
9.5174e-08
3.82556e-06
0.214166
4.25526e-06
2.9045e-07
0.000627128
1.52575e-08
3.87625e-06
0.209288
2.16717e-08
0.175444
0.337524
0.00131961
1.73772e-05
1.06391e-06
3.63613e-06
6.06847e-05
0.000223389
0.00117204
0.000308235
4.20642e-06
0.044533
0.000108647
6.63015e-10
0.000300405
0.00029048
0.00060282
0.000462189
0.000854247
0.00016973
1.2411e-09
6.78879e-05
9.96532e-07
4.07577e-07
0.00165297
0.344537
1.72717e-07
3.04494e-08
0.00320653
0.00328506
2.88889e-09
0.000601328
8.42171e-08
1.56307e-08
1.31065e-08
4.44629e-07
4.95675e-06
1.64619e-07
7.61376e-05
0.0509194
1.64867e-09
4.99558e-07
0.00445408
0.114426
7.22185e-05
7.53496e-07
0.0319886
4.35151e-09
0.000130945
4.24013e-09
2.20186e-09
0.000568816
0.128106
2.48785e-06
5.13162e-09
6.93045e-08
0.0350674
1.76233e-08
0.0227267
4.70474e-08
0.000102151
6.59906e-09
0.00194775
3.08353e-06
2.51672e-09
7.50087e-07
5.58242e-07
0.00139455
6.19082e-07
2.3698e-08
2.04573e-06
0.00440873
0.0531414
7.10746e-05
0.000595686
0.00106399
4.29047e-08
0.00130524
1.00522e-05
3.54971e-07
2.93141e-06
0.000215111
2.21078e-05
1.21566e-07
9.32025e-06
0.000148019
9.84229e-08
1.3126e-06
7.19844e-07
1.6341e-05
0.0721737
1.2702e-09
8.4689e-07
0.0598208
0.000120456
7.64228e-05
6.12417e-09
8.20709e-07
2.21389e-08
1.11431e-06
2.6415e-05
5.21885e-05
5.43577e-07
2.96735e-05
2.72336e-05
8.11627e-05
1.65374e-05
8.56242e-09
3.7578e-06
1.6606e-09
4.96144e-07
6.44079e-05
0.000180764
2.90208e-08
4.97203e-07
4.1836e-06
3.00245e-10
4.72501e-05
4.44031e-07
7.10641e-05
0.000832108
7.37573e-05
1.31203e-08
0.00138471
0.000117771
6.23126e-05
0.000157165
4.58335e-08
0.000159876
2.70588e-06
0.115672
3.41681e-05
9.55272e-05
5.97623e-08
6.90624e-10
2.13256e-08
0.184064
0.0734634
4.39526e-05
8.13334e-10
0.000142785
2.86283e-08
0.170897
0.000155804
7.45622e-07
8.71347e-08
3.34521e-06
6.09045e-07
8.78782e-05
2.09459e-06
0.000121364
0.308462
4.06703e-06
7.15107e-05
3.36827e-05
7.02784e-05
5.11213e-05
3.00516e-08
3.40364e-10
2.70936e-06
3.40106e-05
8.4624e-09
1.99815e-07
0.000608477
4.51921e-07
1.31619e-06
0.418358
1.78537e-06
6.7124e-05
3.93957e-10
3.20007e-06
2.63856e-07
0.327225
2.98231e-09
0.117792
0.00550058
0.000134352
1.71888e-05
1.52287e-05
0.000935654
2.54956e-06
3.36631e-06
2.26362e-06
9.82996e-07
5.90351e-08
1.83803e-06
8.44046e-05
2.34343e-06
0.0694262
2.72249e-07
4.37927e-06
0.000303446
2.15445e-09
0.00037884
8.60276e-08
3.88652e-05
0.000811155
6.77138e-08
2.14656e-06
6.81368e-05
5.48029e-07
9.05888e-06
0.179802
8.05374e-07
9.67373e-06
2.20726e-10
0.0458001
8.81949e-06
1.90196e-07
1.89955e-07
4.86134e-06
7.13492e-06
8.2237e-09
0.150236
1.49772e-06
1.83069e-09
0.000124708
3.99464e-07
2.60113e-09
4.5236e-05
0.000993272
0.000880422
9.12481e-09
1.10147e-06
4.57176e-08
4.74988e-05
4.98874e-05
0.0340841
6.2353e-06
0.000913641
6.70654e-05
0.00113518
3.05974e-05
3.45895e-06
1.06384e-06
4.72963e-07
5.00346e-05
2.06661e-06
7.21455e-06
0.0437368
0.000253619
0.0471374
7.13106e-10
7.7058e-06
1.20215e-07
6.22712e-05
0.00010098
1.15234e-05
4.82755e-05
0.000540783
0.000146978
1.43191e-09
0.00714845
0.00826034
8.61857e-05
4.61276e-05
7.6445e-07
0.000890666
1.67736e-06
2.82662e-06
1.3532e-07
6.0201e-09
0.000249259
9.71722e-06
0.000978217
6.32885e-07
0.0466294
0.000656465
7.14023e-07
1.28265e-07
0.000575044
2.86774e-06
0.0553322
0.277548
0.000130792
0.000233824
1.57005e-06
5.09811e-07
3.78169e-08
1.28484e-08
6.22335e-05
4.89354e-06
0.0343388
0.0547639
3.07628e-05
2.73193e-08
0.000318654
0.0410462
2.73445e-05
0.00114304
0.0025602
0.0433722
0.120589
0.0504528
0.000122644
1.50009e-09
0.00201384
6.54588e-07
1.47342e-07
1.88049e-07
7.90669e-09
2.80646e-05
3.62527e-09
2.33745e-09
9.06389e-05
4.91271e-08
5.97478e-09
9.40834e-07
5.59148e-07
0.0589468
6.27582e-06
3.04826e-05
0.0760999
0.259669
4.9023e-09
0.185941
0.00015936
0.385973
3.50519e-07
1.10921e-07
7.25532e-08
4.39702e-05
0.259328
1.70059e-09
0.00116678
7.28449e-08
3.78463e-06
1.62108e-05
7.56405e-06
1.09108e-06
2.35051e-07
0.077471
1.0957e-08
6.86591e-06
1.06172e-07
8.52297e-07
1.66859e-06
0.00045532
0.000117288
1.14202e-06
0.000385742
2.12594e-05
4.17106e-07
0.000139325
7.40471e-07
2.42062e-05
1.4226e-07
1.3334e-07
0.251984
0.0437451
0.000398205
3.27562e-07
6.10803e-09
4.07979e-06
0.192443
2.73888e-07
1.14494e-05
5.57776e-07
2.8546e-06
1.90036e-09
0.0356577
0.000108155
7.19962e-07
5.68451e-07
1.74444e-05
7.76077e-09
0.178267
1.43574e-09
0.0402808
7.79097e-05
5.1151e-06
1.85039e-08
3.28061e-06
1.30149e-06
1.02937e-06
3.61292e-06
5.03281e-06
3.4285e-10
4.66247e-09
9.54183e-05
0.0803482
2.23956e-09
3.37332e-05
5.04999e-06
9.43394e-05
3.75815e-07
0.0482431
2.29096e-06
5.22775e-05
5.5084e-05
6.14023e-08
5.77639e-05
1.94883e-06
1.70318e-05
2.85626e-08
2.3056e-08
1.04097e-05
5.71522e-09
0.000177052
3.89351e-05
3.46864e-08
6.91554e-08
0.000132049
0.00054298
0.302043
1.16489e-07
4.99101e-06
1.83256e-06
0.000364919
0.000168577
2.66471e-05
8.32788e-05
0.0791
3.41621e-06
5.435e-05
0.00082335
0.0668323
7.35002e-07
4.69849e-08
0.000417675
3.01611e-06
0.0415327
1.92299e-07
6.94692e-06
3.52353e-06
1.628e-08
0.228591
9.77198e-09
1.67764e-07
6.12904e-07
2.67475e-05
0.306738
0.0573431
4.72394e-07
2.28715e-08
1.476e-09
1.10246e-07
1.05934e-07
6.42286e-07
1.17279e-07
5.32022e-09
6.30006e-08
1.08133e-08
1.83682e-07
0.0628818
0.037293
2.88307e-09
1.36579e-05
6.83554e-09
6.09743e-08
1.12008e-08
0.0365529
0.081802
5.66121e-06
3.53935e-08
1.24304e-08
8.17008e-07
1.26793e-06
4.00315e-06
1.34888e-07
0.000333069
2.69018e-07
3.1167e-06
3.3728e-06
0.000188645
5.26566e-06
0.000794792
1.71998e-06
3.06309e-08
0.000486928
0.000453856
1.73987e-08
2.30371e-05
3.86054e-06
1.34764e-05
4.30078e-05
1.01445e-05
3.63926e-06
1.11529e-07
0.327337
4.90039e-07
3.89867e-05
0.0629134
0.000117149
1.20387e-05
1.43405e-05
1.58973e-06
2.22408e-06
2.21629e-05
6.57093e-05
5.5588e-05
3.35618e-06
4.41893e-05
7.46355e-06
3.82794e-06
2.19205e-06
5.60584e-09
6.08689e-08
4.47864e-08
6.05092e-10
1.76284e-07
3.25752e-08
7.22968e-06
1.96331e-08
3.50697e-09
1.73796e-07
1.71397e-05
6.34825e-09
9.21304e-09
8.00291e-07
1.10564e-06
9.0213e-07
8.66214e-05
6.33824e-06
0.244505
1.22617e-07
1.14519e-05
1.52801e-05
3.89783e-06
4.09295e-09
1.73731e-08
0.221919
5.55351e-07
5.50982e-09
2.3413e-06
0.223015
1.68168e-06
5.77086e-05
5.76781e-05
1.092e-06
7.55411e-06
8.78216e-06
0.00038166
1.92085e-08
4.29106e-05
4.94565e-06
1.89214e-07
0.000324407
0.00039105
0.194447
6.72792e-06
1.36746e-06
7.10435e-06
3.71281e-05
1.56132e-05
2.0497e-07
0.00257985
1.19354e-08
0.000632386
0.000411179
0.060634
9.8435e-06
0.255509
2.88022e-08
1.36899e-07
4.92215e-06
2.47224e-05
7.05811e-05
3.24079e-06
0.000113834
3.51665e-08
9.61964e-06
1.11314e-09
1.83569e-08
1.53606e-06
0.000479496
9.88099e-08
5.45724e-09
0.000416721
1.92247e-07
0.000540446
3.34844e-06
1.89201e-06
1.45637e-06
4.60707e-07
1.99112e-05
4.41409e-06
0.000203238
6.25887e-07
8.02583e-06
0.00328274
1.20589e-06
7.43393e-09
0.000155495
2.20504e-06
3.96325e-05
4.42065e-09
0.142249
0.00011568
7.07118e-05
1.738e-06
7.16056e-09
0.000193403
4.56568e-06
2.27859e-07
8.84811e-10
6.47541e-05
7.14496e-05
7.95582e-05
0.193614
2.82756e-06
5.83583e-06
0.000243471
9.52955e-06
7.02069e-06
2.57744e-06
8.77531e-05
3.5035e-06
0.000118311
0.18124
1.47211e-05
3.69957e-10
1.61815e-06
5.14423e-05
1.49882e-05
2.4733e-07
0.000462831
0.000858465
0.000470698
0.000870258
1.68715e-05
5.19479e-05
6.93759e-06
1.99557e-05
1.10948e-07
1.11729e-08
0.100863
0.000504439
2.80321e-06
0.00164793
5.12624e-06
2.4122e-05
0.000425031
4.32155e-06
2.25303e-06
3.20114e-06
3.95468e-07
4.14941e-05
2.91723e-05
0.000149827
2.75127e-05
5.37769e-07
5.81934e-09
2.76171e-05
8.86165e-07
1.98484e-08
0.000310952
2.87194e-06
7.98835e-06
3.70193e-05
6.99297e-06
4.0753e-08
0.000586513
0.136991
4.89201e-08
6.17312e-09
2.08839e-08
0.14277
0.243591
4.18187e-07
0.0529279
5.35552e-06
1.97244e-05
7.91298e-06
8.09132e-06
1.13312e-05
1.32247e-05
2.90974e-05
0.115688
0.335858
0.387147
1.16042e-05
3.10031e-05
6.2761e-06
7.23115e-06
0.356505
1.343e-08
0.173077
4.023e-06
1.01178e-08
7.34605e-07
5.72647e-07
2.98382e-08
3.62105e-08
2.26067e-07
1.9096e-08
0.135182
5.01351e-08
2.81765e-05
0.000192202
2.20992e-08
4.60383e-06
7.26943e-06
6.10815e-06
6.56234e-08
0.000581134
6.34212e-06
8.50277e-07
6.75636e-05
4.24884e-06
3.01104e-05
4.51028e-06
1.20242e-06
5.05319e-07
1.95724e-05
0.00332065
4.63038e-05
8.60324e-07
1.33386e-05
8.29143e-07
2.43441e-05
9.78805e-05
1.16736e-05
2.18338e-06
5.31923e-06
1.15669e-06
5.72525e-05
1.24459e-07
8.03579e-06
0.0409013
0.000417601
0.324891
0.000758436
0.000107782
1.6917e-08
0.0610771
9.46749e-10
4.84524e-05
1.56278e-05
8.07444e-07
8.60624e-05
1.55406e-06
9.7968e-07
4.36285e-05
7.74777e-07
1.7163e-07
1.89064e-05
6.55912e-07
2.21587e-05
0.0772518
3.52273e-07
3.59884e-05
1.34381e-06
7.78685e-07
1.15401e-09
0.000257418
8.96238e-05
3.60703e-06
1.27152e-08
7.19203e-07
0.0440549
0.00020753
9.68401e-06
1.49828e-05
1.75864e-09
1.0358e-10
9.0297e-07
3.85812e-09
4.79594e-05
3.54865e-07
2.15317e-05
1.58535e-06
2.11874e-07
5.8105e-07
3.09718e-08
4.76234e-05
8.94478e-05
4.37511e-05
4.97171e-07
2.95323e-08
9.75375e-07
2.22667e-06
0.000530616
9.79533e-07
0.159832
2.10762e-05
2.90511e-08
4.03983e-08
0.000228028
1.25771e-05
0.00112951
5.03914e-07
9.72556e-05
0.23089
2.01389e-10
0.000327732
2.66276e-05
0.0422038
1.72066e-06
0.0471334
0.0824395
0.000117782
7.3531e-06
1.98826e-05
1.12284e-08
1.54999e-05
2.66994e-05
0.00037165
1.88627e-05
6.56309e-06
2.57387e-05
0.000423188
0.000340142
0.000497212
0.000128232
1.63066e-08
8.8366e-05
0.000876718
6.18856e-06
3.7864e-06
0.000243173
0.000210258
1.36191e-05
1.83985e-05
0.000260004
1.53882e-05
0.000374721
0.00024261
1.91157e-05
2.24566e-08
3.41313e-05
0.000410938
0.0663654
2.11281e-06
5.24678e-07
4.84023e-05
1.9135e-07
8.41111e-05
8.27417e-07
0.000389897
6.12649e-07
6.97404e-05
2.50011e-08
9.9848e-08
1.09387e-05
0.000907944
0.00119327
0.33462
4.0618e-05
1.99177e-06
1.89051e-07
0.000406354
2.32395e-05
0.0330838
0.0698831
7.62689e-10
0.00078227
6.15459e-05
6.72591e-06
5.71506e-09
0.00113565
5.65486e-07
0.0424204
4.91778e-08
2.88343e-09
2.93933e-05
9.13892e-07
1.32356e-06
3.77723e-05
0.0392446
1.99604e-05
2.20282e-07
8.00769e-05
0.215975
0.0422725
6.56081e-06
0.000278912
2.87388e-05
0.000560317
2.88827e-06
0.0371235
3.75359e-05
0.000183225
2.23887e-07
8.76185e-07
4.62584e-06
5.16947e-07
2.36358e-05
2.26503e-06
7.64288e-07
2.50511e-06
4.11812e-06
9.77717e-05
2.47784e-08
3.61329e-07
0.0788204
9.62427e-09
7.34852e-08
4.24217e-05
6.17447e-08
0.000176246
3.51838e-05
0.0644157
2.30371e-05
0.257168
1.24281e-05
2.08317e-05
0.0396112
0.000153249
1.81716e-10
2.44491e-06
0.0277709
1.57344e-05
7.77286e-05
1.66059e-05
1.51818e-07
6.90405e-06
7.35203e-06
8.29204e-07
0.125486
1.07694e-06
1.01884e-07
1.69214e-06
6.67215e-07
1.58634e-08
8.602e-05
2.4468e-06
0.26991
7.97992e-05
3.45272e-05
4.55356e-05
5.77115e-05
1.62315e-05
2.86914e-06
1.23636e-10
8.48904e-07
7.31373e-05
2.12611e-05
6.4909e-06
6.89176e-08
1.11108e-05
1.24689e-06
3.95507e-05
3.12496e-08
1.36252e-07
1.33481e-06
2.80467e-05
2.15707e-05
3.24331e-05
2.96719e-08
2.15796e-08
0.00165215
2.17517e-08
1.32166e-09
2.92813e-09
1.41145e-06
0.304183
7.83731e-07
0.000113499
6.83903e-05
2.01875e-05
1.70766e-07
1.20315e-06
0.000221647
7.23091e-06
3.43172e-07
3.68777e-05
3.9468e-09
2.47348e-09
3.87938e-09
9.58723e-05
1.10564e-07
0.323784
0.000520934
3.51655e-05
0.00182238
6.65028e-07
1.63639e-05
3.89747e-09
0.0588177
7.95824e-06
6.25149e-06
1.5387e-06
3.97279e-07
1.59529e-07
0.47359
1.66906e-05
0.000432227
6.45838e-05
1.34826e-06
0.120482
3.14612e-07
3.18294e-07
5.00731e-07
6.99213e-07
3.50148e-05
4.83917e-07
2.41688e-05
1.73956e-05
0.000495365
3.51636e-06
4.23658e-10
0.00018767
3.80118e-07
0.154514
3.32866e-06
2.35565e-07
1.24674e-06
1.8924e-05
0.0601728
0.0295197
1.81932e-05
4.73066e-05
0.0898454
3.4385e-06
2.49801e-05
0.0462866
1.22077e-05
5.76096e-06
0.170521
0.0184983
1.03133e-05
3.31758e-05
1.48105e-08
3.79846e-05
0.00168601
1.01758e-05
1.13045e-05
0.000373853
1.21894e-09
0.0229449
8.98556e-09
2.81115e-05
0.191428
1.21079e-07
1.18727e-05
4.70023e-06
3.73754e-07
4.16971e-08
4.77489e-05
4.16198e-07
1.10625e-07
3.02302e-05
9.59121e-06
1.33386e-08
0.0230976
0.0437337
4.79389e-06
3.09597e-10
2.11573e-09
0.000142386
1.38252e-05
5.28994e-06
4.14052e-09
9.77339e-08
0.000130976
6.84773e-05
4.66738e-05
8.2063e-05
0.358259
8.31e-10
0.13874
1.69081e-05
6.93276e-06
0.054968
1.07508e-06
2.11949e-08
0.0226299
8.18617e-10
6.71371e-06
6.12342e-06
7.5477e-06
1.09257e-06
9.26317e-09
4.13089e-09
1.6182e-08
2.02437e-05
0.131731
0.209201
3.05634e-05
2.48906e-06
1.69164e-10
0.0553111
0.221959
0.000277012
9.90216e-07
1.37693e-07
0.000953585
0.00024148
2.40498e-07
1.28331e-08
2.09688e-06
7.80781e-06
3.52083e-08
1.09767e-05
6.8288e-05
0.0594838
0.201378
5.4249e-05
0.000851382
9.67019e-09
3.6488e-07
3.21116e-05
0.000176554
3.31518e-05
0.000432243
7.42275e-06
1.42329e-05
8.21897e-09
8.61665e-08
1.25609e-05
0.0577904
1.087e-06
0.175198
1.97313e-08
1.20301e-05
2.31341e-06
1.67804e-05
1.14846e-08
1.4064e-09
1.07557e-07
3.54432e-08
1.20389e-06
0.000319268
9.97402e-09
0.0370093
1.7296e-05
0.156901
1.85474e-06
2.94308e-06
1.63677e-06
1.95895e-06
1.30633e-05
3.18714e-08
2.35942e-08
1.46749e-08
3.14605e-06
9.50967e-06
0.0569245
0.0551024
5.02252e-06
9.50329e-07
6.13352e-09
2.18476e-09
2.50994e-08
1.6862e-06
0.000246179
1.99512e-07
3.57292e-08
3.44733e-09
0.0217619
2.67107e-05
4.32119e-05
0.0400519
8.21361e-07
0.306406
9.69957e-06
4.35684e-07
4.75613e-10
2.58154e-07
0.0530307
7.00805e-10
2.22049e-05
1.39179e-08
0.000690514
4.44615e-05
8.26855e-05
0.000143489
2.82622e-05
4.36456e-09
1.46655e-08
0.353672
3.32908e-05
3.46009e-05
0.000229809
4.21459e-07
8.44623e-05
9.55734e-05
2.97934e-06
3.27248e-06
0.000295589
7.9911e-08
0.000698112
0.0388409
1.36902e-06
2.01989e-07
8.23276e-05
8.99901e-07
0.0338054
0.179263
2.13439e-05
9.72499e-10
0.00405711
3.36245e-07
2.19774e-05
1.54236e-06
0.000121657
1.12187e-08
0.000871356
8.6007e-05
0.000131178
2.07058e-05
0.0001208
2.95782e-05
5.3831e-06
1.26245e-09
0.000155815
4.59658e-05
5.79529e-05
6.56354e-07
9.54449e-06
0.000121123
0.000446117
9.20022e-09
3.12848e-08
3.52347e-08
4.29344e-10
1.2673e-07
0.0214229
0.000401201
0.000141345
3.97432e-05
0.000202617
8.20788e-05
2.64788e-10
1.13813e-05
6.51189e-09
5.33626e-07
6.96574e-09
2.60076e-05
0.00201294
1.51894e-05
1.11161e-07
1.4043e-08
1.46393e-06
1.22813e-07
7.71302e-09
0.144249
9.16705e-06
0.000663147
0.00100698
0.000729134
8.18286e-09
0.000667136
0.000736747
0.00132465
0.000719921
2.00713e-09
5.2243e-10
3.24301e-06
8.67181e-06
6.73924e-05
0.000319725
0.0415233
7.84585e-06
3.22465e-05
4.41239e-06
0.000550805
3.31362e-08
1.37266e-09
0.000111275
0.000368437
0.0258868
9.38066e-09
0.116077
0.000125136
3.34229e-07
9.137e-05
4.88429e-06
8.80137e-05
2.23433e-06
9.62423e-05
6.21273e-09
9.04863e-06
0.00215302
3.58988e-05
5.71111e-08
0.0017429
4.38376e-05
1.04825e-05
0.00320015
8.33408e-08
7.63567e-06
5.61628e-05
9.51893e-05
8.71318e-07
0.190192
5.56892e-08
8.70083e-07
2.67164e-08
0.116175
0.119207
2.05572e-06
1.79001e-06
0.000154303
0.0546297
3.04158e-08
1.06443e-05
2.06148e-05
1.28906e-05
1.26844e-06
0.192532
7.09018e-06
1.64201e-05
0.00358225
1.58809e-07
6.98685e-06
1.67464e-06
2.4708e-06
1.71714e-09
0.00238612
0.00393391
1.10622e-07
7.36389e-07
1.25771e-06
0.00010049
7.97402e-09
0.0394866
2.85503e-07
9.93074e-06
1.09143e-06
5.26059e-07
4.89241e-06
3.33283e-05
1.23858e-06
4.92504e-06
0.000242816
1.46993e-06
1.32481e-06
0.0426624
7.64208e-07
3.36659e-06
2.49055e-06
1.98116e-05
2.21819e-10
4.44852e-09
1.06413e-09
5.37825e-06
5.56095e-08
0.0661597
2.19364e-05
1.17737e-05
3.62732e-09
3.18362e-05
0.115663
7.92785e-05
1.36095e-05
6.01606e-05
1.2354e-05
1.99344e-07
7.97795e-08
2.40498e-05
4.18236e-06
2.66688e-06
0.000537594
9.48491e-06
4.70688e-08
2.83369e-08
2.1255e-06
6.78277e-08
6.77762e-06
4.04109e-08
1.17606e-05
1.5997e-05
1.97786e-07
1.38162e-09
0.0453447
7.00175e-09
2.17782e-09
2.44232e-05
0.05601
1.97647e-05
2.22011e-06
1.92367e-08
9.79036e-06
5.2514e-06
2.19247e-05
5.89253e-06
8.12611e-09
1.72327e-06
1.54137e-06
5.42144e-06
4.12987e-09
5.39542e-09
4.82826e-09
5.28619e-06
1.69005e-05
9.47356e-07
1.50938e-08
7.47581e-06
5.08006e-05
1.96292e-08
2.44944e-05
4.51584e-07
4.16033e-08
6.45567e-09
3.82583e-05
2.37801e-07
2.05638e-05
1.70485e-09
2.51257e-05
8.31428e-09
1.51716e-06
0.000344974
1.33631e-07
5.62316e-09
0.0680944
3.10698e-08
0.0560186
2.44089e-07
4.66727e-08
9.44593e-06
2.50025e-05
0.0459302
5.71299e-05
0.0495257
0.0601824
8.84477e-05
1.11908e-05
0.0400546
1.07704e-05
1.62409e-08
4.2539e-05
0.138184
0.0367237
0.0418652
1.13281e-08
1.0325e-05
1.52254e-08
5.51649e-06
9.80655e-07
7.84671e-06
0.000169829
7.00423e-06
5.18995e-07
1.53092e-08
3.75592e-06
0.0002906
2.40452e-08
1.17823e-05
3.72894e-05
1.96171e-06
8.89424e-10
6.15586e-05
2.5527e-05
2.53621e-05
1.72502e-05
1.6004e-05
2.20051e-06
7.33467e-06
0.000150026
8.61379e-06
6.75002e-06
0.000124324
0.000452529
3.29188e-09
6.30964e-07
2.80274e-08
1.9671e-05
8.89808e-08
2.29852e-06
9.35338e-11
0.000391927
0.385762
0.0872424
0.000145723
4.41354e-09
1.18569e-05
0.0540636
0.101241
2.47586e-06
0.00026797
2.0733e-06
5.48668e-07
1.18112e-07
2.75568e-09
8.9851e-06
4.2578e-05
3.93564e-08
4.6865e-09
1.7397e-05
1.64167e-07
0.173613
0.0534972
1.1604e-05
5.52756e-09
1.12532e-08
0.041751
4.78951e-09
2.48421e-05
1.06548e-08
0.000603378
2.03271e-08
4.88316e-06
5.10696e-08
5.60343e-09
0.00106755
0.152062
0.0641344
1.44569e-08
0.0684533
4.27219e-08
1.33048e-05
1.5902e-06
0.115733
2.39257e-07
0.00015765
3.97221e-09
1.93015e-06
0.000274687
1.67662e-06
0.000160696
9.66753e-09
1.12784e-05
3.17308e-05
2.05642e-05
5.21763e-06
3.64801e-07
3.28609e-07
3.34691e-06
6.03448e-07
9.65011e-09
3.41277e-09
0.0736571
0.0368719
1.45873e-08
0.082588
4.30983e-10
2.01668e-08
5.19635e-05
5.45725e-09
4.64218e-09
0.0391954
2.0158e-08
8.90057e-10
0.000632213
2.12831e-09
1.01438e-09
4.96726e-05
0.0911204
1.36062e-07
0.0368447
8.95329e-09
4.48506e-06
0.0492327
6.22178e-06
0.000853795
5.89209e-10
7.16936e-08
1.03694e-06
1.79412e-07
0.206471
0.0446095
0.000107277
3.17083e-08
0.0459329
8.32854e-10
1.93702e-08
2.85323e-09
0.101013
0.00177571
8.55334e-06
1.40005e-09
1.28946e-06
0.0477748
0.000898866
3.70008e-07
0.000253
0.106881
0.0843195
3.40612e-05
0.0836231
0.000916799
0.0423476
4.15398e-05
0.0645503
0.000339739
4.74101e-06
1.44822e-06
2.27348e-06
0.000452739
0.000915294
7.24849e-10
3.70404e-06
7.07026e-08
4.49934e-05
7.28557e-06
9.94545e-07
7.82054e-06
0.000294604
1.73386e-07
7.93698e-06
8.8845e-08
2.59807e-08
2.86578e-08
4.50588e-08
4.97048e-06
4.39566e-08
4.89813e-08
7.1748e-08
1.06595e-05
4.26948e-05
1.42965e-10
1.69849e-09
5.64367e-08
9.88923e-08
1.09505e-06
0.0012641
0.00207528
0.000128741
9.74369e-09
3.16929e-05
5.57778e-06
0.046001
3.16605e-05
1.28526e-05
5.56432e-07
1.08688e-06
2.42008e-06
0.000220266
0.000115789
0.176663
0.066665
8.14735e-08
0.000815495
0.000291916
1.21383e-08
2.67062e-06
4.53084e-06
3.86964e-08
1.70971e-06
3.82566e-06
0.0616841
3.13462e-10
8.26619e-05
1.41631e-08
0.047695
5.06083e-05
0.0352346
3.29968e-05
4.5431e-09
6.65529e-09
2.47667e-08
2.47721e-05
2.37652e-05
4.12622e-06
7.16686e-06
1.01202e-06
0.000754957
0.000284666
9.04395e-10
0.000115177
4.69382e-05
5.1237e-05
9.41029e-05
0.00292775
4.02557e-06
0.0976624
4.96195e-08
5.78653e-06
0.0380635
1.07217e-08
0.000259892
0.00715136
3.96941e-08
0.000100598
1.47387e-08
1.84209e-07
2.49341e-06
3.78041e-06
5.39176e-08
7.59142e-09
6.69525e-07
2.47967e-09
5.47323e-09
0.000124716
2.40357e-08
4.97526e-10
2.86432e-05
7.63619e-09
9.73754e-08
2.65586e-07
0.000212543
2.17614e-07
0.000166201
1.05299e-07
4.64162e-08
2.22975e-05
6.52321e-05
0.000228097
0.0422466
7.96502e-05
4.20296e-05
2.28037e-06
0.314837
0.30613
1.21897e-07
2.85502e-05
1.66332e-08
0.0448718
0.0377379
0.000398959
0.0883984
0.0679751
7.09353e-06
1.31474e-09
0.000112874
1.14466e-08
1.42855e-09
3.93663e-07
1.57235e-05
6.9411e-09
1.70905e-05