/*--------------------------------*- C++ -*----------------------------------*\
  =========                 |
  \\      /  F ield         | OpenFOAM: The Open Source CFD Toolbox
   \\    /   O peration     | Website:  https://openfoam.org
    \\  /    A nd           | Version:  10
     \\/     M anipulation  |
\*---------------------------------------------------------------------------*/
FoamFile
{
    format      ascii;
    class       volScalarField;
    location    "13.5";
    object      SgRate;
}
// * * * * * * * * * * * * * * * * * * * * * * * * * * * * * * * * * * * * * //

dimensions      [1 -1 -3 -1 0 0 0];

internalField   nonuniform List<scalar> 
111485
(
4.87293e-10
0.00811442
0.0238755
7.075e-11
0.0489484
3.06746e-08
0.0460014
0.00614384
0.0189237
0.00121273
0.0463976
0.00937517
0.00474718
0.291515
0.00648999
0.0307382
0.207272
2.60788
0.0103256
4.78742e-08
0.0369262
2.38276e-09
0.0264349
0.0348943
0.00857132
3.39188e-08
0.03976
0.00176687
0.0156907
0.0477759
0.0442394
0.0193205
2.17855e-07
1.41967e-06
0.00758735
8.97428e-05
0.145122
0.206761
0.00244477
0.0239475
0.04259
0.0711193
0.015801
0.00159909
7.91502e-05
1.57155e-06
0.030094
0.000715364
0.0476672
4.22658e-07
1.09731e-06
1.70366e-05
4.63075e-07
0.0506256
1.48975e-06
0.0435437
0.00315271
4.19185e-08
6.96219e-05
0.00478669
0.0160493
2.62294e-07
0.00477942
0.0959136
6.4656e-06
0.00324324
0.314542
0.0945223
0.00115734
0.00609628
6.45265e-05
0.00654676
1.10881e-05
0.00293793
4.28775e-08
0.000702448
1.55608e-08
0.0412807
2.75554e-08
3.09893e-05
0.276665
0.552099
4.49884e-08
4.9924e-09
0.00919881
0.00397309
0.141161
0.0250837
0.000302605
0.00738561
0.000294543
0.0406055
0.0117629
5.78672e-05
0.0525446
6.50818e-09
0.0268555
0.00179199
0.00151225
0.00173209
9.51129e-10
0.0182079
1.92044e-06
0.0182596
0.00465441
1.62878e-05
6.23703e-09
0.00757893
0.00404221
0.000711047
0.00543236
0.00472009
0.00372044
0.00322165
1.0336e-07
3.34436e-05
3.02217e-08
6.41326e-06
0.0127222
3.90568e-09
9.11143e-08
0.000188155
0.0736416
2.21275e-06
0.00161056
0.0278308
0.000105902
0.00168555
2.40648e-10
0.000350102
0.00155382
0.0323748
0.0468384
0.000173409
7.75e-05
0.0484646
1.19296e-09
0.0425114
0.0251747
0.00272026
0.000311463
0.00200279
0.200039
0.00282901
0.00396362
0.0130111
1.88522e-09
6.82139e-10
4.80818e-08
0.0279875
0.00162788
0.0283286
0.113624
0.00483002
3.63412e-05
0.0106699
0.0163962
0.0106536
0.000809044
5.39379e-06
9.26108e-10
0.0522063
0.0231511
7.48706e-05
6.41624e-05
0.00579396
0.00348626
0.0264893
0.00153856
0.000175195
1.4793e-09
1.43546e-08
0.195939
1.32417e-10
0.00557222
0.00210442
5.34189e-07
9.29312e-06
3.56432e-08
5.74824e-06
9.78061e-06
3.71017e-08
0.00149204
0.00679348
0.0296055
0.00417043
0.00751794
0.00402411
0.000458954
1.69387e-07
0.00480851
5.69643e-06
7.0772e-06
0.0064954
0.0105188
0.0279256
0.0111407
0.00502046
8.44769e-07
0.00662946
0.000529965
0.00165209
0.0140212
0.00231429
1.81001e-06
0.00373147
0.0256373
1.16229e-05
0.000187218
0.00772379
0.00206621
0.000369187
8.49442e-06
7.40478e-09
0.00825554
0.000307775
0.11981
7.48058e-09
0.00661606
0.0203602
0.119595
8.28834e-08
0.00321965
0.0136427
0.000274705
7.17933e-09
6.42336e-10
0.153174
0.00408475
2.32828e-05
9.21363e-05
0.00941813
0.00778117
0.158565
3.81348e-05
2.05824e-05
0.158543
4.56653e-08
0.00250744
0.00942827
0.0165004
0.0116087
0.00957646
3.83518e-06
0.00189603
0.000621043
7.67023e-06
9.36859e-09
0.0309538
0.155002
1.79738e-05
0.0063966
0.0106838
7.68985e-10
0.000190034
0.000117053
2.74762e-07
6.49274e-05
0.0985945
1.85527e-08
0.0149582
0.010931
0.00367184
3.41817e-09
0.0118672
6.32504e-11
6.09806e-08
5.04597e-07
0.163506
0.0227264
0.00614536
0.00537471
0.211346
0.0122153
0.00159231
0.000821626
0.032763
0.00890871
4.53754e-07
5.3327e-09
0.110908
0.0226261
0.0243937
0.0120193
1.60225e-09
0.221405
0.263913
0.00299218
0.000315827
3.67929e-05
0.0136579
0.00218573
0.00192309
2.25234e-08
0.000673897
2.43354e-09
0.000357481
0.000271342
0.241738
0.0683656
0.353225
1.79072e-08
0.0841275
0.00896082
0.00173351
3.80322e-09
1.14027e-07
0.0244383
0.000301485
0.0574786
0.00392903
0.0139859
0.0192331
3.00111e-05
2.9854e-08
3.35253e-08
0.00378696
0.00435241
0.247152
0.185682
0.000766566
1.3728e-09
8.78498e-09
1.34672e-08
8.38987e-05
0.0597681
0.0119736
2.12277e-06
0.00521357
7.07799e-05
0.0603363
0.0667873
0.00587421
0.0114093
0.00923615
0.0471768
4.93859e-05
7.25672e-07
0.00937601
0.0188121
0.00473034
6.63077e-08
0.148603
0.000330582
0.00216901
0.00800767
0.00033303
0.0285375
0.038256
0.0375941
0.00352889
0.00777516
0.0250473
0.0134967
8.94654e-06
1.92944e-07
5.383e-07
7.06207e-07
0.0315327
0.366259
0.0333781
0.0673861
0.0518118
0.0187611
1.77401e-08
4.05595e-07
0.016536
0.0466033
0.0757877
0.0455461
0.0485635
0.0229715
2.36078e-08
0.0136537
0.000297325
5.77884e-10
0.00102055
0.0164317
1.56955e-05
0.00883507
0.00950433
0.00809291
0.00135964
0.00275032
0.00560492
4.2491e-05
1.18412e-06
0.00258494
3.8251e-07
0.00619593
0.115975
0.0296894
1.14582e-07
0.0273698
0.152483
0.00822596
0.322407
6.74773e-08
0.0461804
0.0187427
6.73756e-09
0.000823306
0.00250544
3.86381e-09
0.031796
0.0110151
0.00521442
4.49478e-07
2.4329e-08
0.000745708
3.87581e-09
0.0121435
3.53074e-06
3.25087e-10
0.016899
3.95977e-05
0.255353
0.0296853
1.9597e-09
7.87145e-05
0.00156476
9.68118e-05
0.000196726
0.0147044
0.12187
0.848129
5.26349e-05
0.204308
0.000701555
4.50601e-08
0.0385591
0.0314391
2.00628e-07
0.00140465
0.000306271
8.25609e-05
0.0240725
0.0243614
0.0139976
3.49847e-08
0.346539
0.0171937
0.0230116
0.00435762
9.01656e-05
0.00125746
3.57369e-08
0.249814
0.358457
2.59618e-08
0.00851057
0.000357336
0.0001022
3.90325e-09
2.95825e-05
3.93438e-09
0.284459
0.00966496
0.00647145
0.00223892
0.00275923
1.78706e-07
0.00202265
4.95972e-07
0.04049
1.55338e-07
5.93833e-07
0.0519998
0.0365443
3.94756e-08
1.16891e-09
0.000379234
8.44518e-08
1.55629e-06
0.00105586
2.63932e-08
6.07556e-05
6.57314e-08
0.0735864
6.72341e-08
1.64733e-06
3.77727e-08
0.00732934
4.15006e-07
0.221337
0.00192407
0.234102
8.50326e-09
0.000930361
2.52577e-06
2.84866e-09
0.366777
0.142778
0.0273867
0.0246248
3.03392e-05
0.00202444
0.0812364
0.00846466
0.00106976
0.288431
2.28619e-08
0.0234314
0.000107284
0.00498006
0.0577709
0.0754186
0.000113718
0.0209344
0.000242814
0.000767585
0.0801738
0.00200834
2.20202e-08
0.0799233
0.0483675
3.49353e-06
1.11959e-06
1.94205e-05
1.83318e-09
0.00168778
0.054945
3.41941e-07
1.80297e-07
0.00261389
2.58697e-09
0.0335438
2.8221e-08
0.000337011
1.00675e-09
0.115057
0.112985
0.0010427
0.0125175
0.0638311
0.0806254
4.82552e-08
2.46819e-07
0.0150803
4.40757e-08
0.000196882
1.76968e-05
0.00163363
0.0423228
0.064258
2.84169e-09
4.62538e-05
0.0169467
0.00336041
0.0017192
0.0039419
0.00680105
0.0208403
9.51036e-07
0.0249188
0.00619592
2.3139e-09
0.124863
0.0400314
0.0151442
1.317e-06
0.00506013
0.00672438
0.0021879
0.0040081
0.000379953
0.0136356
0.00127895
0.00014273
0.0237896
0.126974
0.000839057
7.3323e-05
0.00355961
0.722499
3.18725e-08
0.000426552
4.48643e-06
4.02485e-05
0.0073274
0.00333079
0.00272966
0.000446699
0.000164683
0.0164464
0.0110334
5.44255e-08
0.000196527
0.00142906
2.92483e-08
8.05476e-10
5.10683e-08
3.4598e-08
0.0132403
2.49784e-09
0.0344851
0.00878522
0.00195991
0.0978414
0.325051
5.97045e-05
0.0085476
0.0368714
5.42326e-08
0.0530804
1.52422e-07
2.24851e-08
4.72081e-05
0.00428518
0.119184
0.0290955
0.0062456
2.67161e-06
0.0871933
0.144016
0.0283518
0.0278003
0.00053694
0.194583
0.0406565
0.053999
0.0460498
5.90628e-06
0.000313964
0.0404022
0.00784463
0.0014596
0.0275308
0.0259931
1.12937e-06
0.0106824
0.000659421
3.22941e-05
0.0345845
0.000260699
0.000651625
0.0109991
0.0403966
0.00136331
0.021293
0.0194071
0.00721686
3.25608e-06
0.0103074
0.000345774
0.000193773
0.0169203
0.0176786
0.0357196
4.81975e-07
0.00189917
4.42537e-06
4.1256e-09
0.0760965
1.49666e-08
0.135186
5.84234e-05
0.0116932
8.09508e-08
0.0288585
8.06968e-05
0.0429317
1.13153e-09
0.031844
2.98257e-07
1.88119e-08
8.18076e-07
0.317221
0.00053961
2.93415e-05
0.0408688
9.93347e-08
2.43412e-09
0.210075
0.0693224
8.26495e-05
0.0019567
0.00012874
6.18761e-08
0.0370181
0.00842653
0.177246
1.24271e-09
4.9657e-09
0.000412898
0.00106038
0.000131194
4.2621e-07
0.0617619
0.0072274
2.63288e-08
1.22307e-07
0.0446134
0.0416363
0.00217234
5.757e-10
3.89212
0.32992
0.189176
1.64451e-08
1.95848e-08
0.05564
0.000437197
3.91159e-05
0.00058277
0.11784
0.00273586
0.0113802
0.0622227
0.0531519
0.00186335
6.55189e-08
1.1949e-06
1.22343e-08
9.1494e-09
7.47599e-08
8.67005e-10
0.0219647
6.85969e-08
1.79186e-08
3.3291e-07
0.0114684
0.0238152
1.05068e-07
5.75045e-07
0.105567
0.0142055
0.00977867
2.64589e-08
6.91445e-09
0.0368181
6.71171e-10
0.00180285
0.00263784
0.00393088
1.1784e-07
2.44416e-10
9.43074e-10
1.62224e-09
0.0149383
1.91623e-08
6.50469e-08
0.00102826
5.28887e-09
0.0229281
0.00193587
2.33466e-06
0.0368604
0.368387
0.00251132
0.27757
0.00025601
0.0441186
0.20687
8.14728e-05
0.0234318
0.0688882
0.00601579
2.01042e-05
0.0879526
0.745284
0.00991797
3.87921e-08
0.0025564
0.00262911
0.00129255
9.06881e-05
1.96526e-09
1.79007e-10
0.013401
3.82344e-05
0.00265574
3.85208e-06
0.0014255
0.00140517
0.0363081
0.000583424
1.64599e-08
0.0328403
7.93517e-06
0.0204768
2.68516e-08
4.92125e-05
0.000197497
1.74506e-06
3.36508e-07
0.0403958
1.32029e-09
0.00999611
0.0626042
1.06228e-08
0.0717464
4.25756e-05
0.0363956
0.000600668
9.49369e-08
2.68582e-05
0.00160959
0.0455191
0.00396593
0.0013073
0.159408
0.000200042
0.0040731
9.73855e-07
1.0418e-05
0.489547
0.160135
4.137e-08
0.237998
0.000854417
0.000160611
0.00977075
0.000215184
0.00118724
0.0235204
0.00930525
0.00224437
0.00493747
0.00196292
0.0448059
8.35715e-08
0.0326442
0.0260967
9.5174e-08
0.00839809
0.268523
0.028167
2.9045e-07
0.00192416
1.52575e-08
0.0101101
0.223122
2.16717e-08
0.17702
0.337968
0.00132082
0.0049134
1.06391e-06
0.048227
7.57267e-05
0.00170258
0.00120322
0.000320906
4.20642e-06
0.044533
0.00717625
6.63015e-10
0.000417288
0.000545815
0.000899697
0.000462242
0.000854316
0.000170032
1.2411e-09
6.78879e-05
0.0225262
4.07577e-07
0.00175778
0.34656
1.72717e-07
3.04494e-08
0.00320715
0.00328506
2.88889e-09
0.000606277
8.42171e-08
1.56307e-08
1.31065e-08
4.44629e-07
4.95675e-06
1.64619e-07
0.000359763
0.0509194
1.64867e-09
4.99558e-07
0.00446043
0.114477
0.00181104
0.00910054
0.0319886
4.35151e-09
0.000296787
4.24013e-09
2.20186e-09
0.000568816
0.146761
0.0421218
5.13162e-09
6.93045e-08
0.0350674
1.76233e-08
0.0227267
4.70474e-08
0.00701806
6.59906e-09
0.0019478
0.0264725
2.51672e-09
7.50087e-07
5.58242e-07
0.00142173
6.19082e-07
2.3698e-08
2.04573e-06
0.00441789
0.0531414
0.0044108
0.000596628
0.00106399
4.29047e-08
0.00137915
0.00203627
0.0441746
2.93141e-06
0.000223389
0.00548477
1.21566e-07
9.32025e-06
0.000148019
9.84229e-08
0.00807341
0.00161065
0.00330688
0.0721739
1.2702e-09
0.0234435
0.0598208
0.000120456
7.64228e-05
6.12417e-09
0.0261938
2.21389e-08
1.11431e-06
2.80994e-05
0.051079
5.43577e-07
0.00239827
2.72336e-05
0.000915086
1.65374e-05
8.56242e-09
3.7578e-06
1.66061e-09
0.00250362
0.000669968
0.311825
2.90208e-08
4.97203e-07
0.00217125
3.00246e-10
4.72501e-05
4.44031e-07
0.0365407
0.000841361
0.0316973
1.31203e-08
0.00139524
0.000165734
6.23126e-05
0.000280374
4.58335e-08
0.00140153
0.0250969
0.13563
0.00123402
0.000328314
5.97623e-08
6.90625e-10
2.13256e-08
0.184085
0.0734634
0.00741762
8.13339e-10
0.174809
2.86283e-08
0.212354
0.00320464
7.45622e-07
8.71347e-08
3.34521e-06
6.09045e-07
0.0407505
2.09459e-06
0.000121364
0.320236
0.006693
7.15107e-05
3.36827e-05
7.02784e-05
5.11213e-05
3.00516e-08
3.40364e-10
0.0253028
0.000443844
8.4624e-09
1.99815e-07
0.000608988
4.51921e-07
0.00151961
0.418466
1.78537e-06
0.00349797
3.93957e-10
0.000379457
2.63856e-07
0.328303
2.98231e-09
0.117792
0.00550269
0.000772192
0.0179475
0.033694
0.000936822
2.54956e-06
0.00052955
2.26362e-06
0.0045856
5.90351e-08
1.83803e-06
8.44046e-05
2.34343e-06
0.0694262
2.72249e-07
0.00711119
0.00826791
2.15445e-09
0.00037884
8.60276e-08
0.000810623
0.00082421
6.77138e-08
0.0180975
0.000245383
5.48029e-07
0.0231652
0.18783
0.00364545
0.0115023
2.20728e-10
0.0458001
8.81949e-06
1.90196e-07
0.0369104
4.86134e-06
0.112712
8.2237e-09
0.150542
0.000730138
1.83069e-09
0.00106801
3.99464e-07
2.60114e-09
0.00304724
0.000993295
0.009851
9.12481e-09
1.10147e-06
4.57176e-08
0.000868226
4.98874e-05
0.0340841
6.2353e-06
0.000913936
6.70654e-05
0.0011422
3.05974e-05
3.45895e-06
1.06384e-06
0.0182735
0.00965144
0.0181043
0.0357598
0.0437368
0.000268666
0.0471374
7.13109e-10
0.00967075
1.20215e-07
6.45095e-05
0.000445549
0.00663433
0.000410452
0.000540785
0.00205634
1.43191e-09
0.00714845
0.00826034
0.000211125
0.00083786
0.0149959
0.000890724
1.67736e-06
0.0304563
1.3532e-07
6.0201e-09
0.000263232
0.0740764
0.000978273
6.32885e-07
0.0466294
0.000656803
7.14023e-07
1.28265e-07
0.000592346
2.86774e-06
0.0553322
0.317102
0.000354184
0.000407968
0.0223256
0.0072093
3.78169e-08
1.28484e-08
8.19865e-05
0.00408956
0.0343388
0.0547639
0.00980365
2.73193e-08
0.000318654
0.0410462
2.73445e-05
0.00114304
2.57179
0.0433722
0.120797
0.0504528
0.020982
1.50009e-09
0.00201384
6.54588e-07
1.47342e-07
1.88049e-07
7.90669e-09
0.00291693
3.62527e-09
2.33745e-09
9.06389e-05
4.91271e-08
5.97478e-09
9.40834e-07
0.00969107
0.0589468
0.0107938
0.00308221
0.0760999
0.261157
4.9023e-09
0.186442
0.000161365
0.389839
0.0132007
1.10921e-07
9.28781e-05
0.0077058
0.259337
1.70059e-09
0.00116954
0.0189882
0.00472882
1.62108e-05
0.0260007
1.09108e-06
2.35051e-07
0.077471
1.0957e-08
0.00815062
1.06172e-07
8.52297e-07
0.00830472
0.000455638
0.00280148
1.14202e-06
0.000385742
0.000651802
4.17106e-07
0.000208961
7.40471e-07
0.0230558
1.4226e-07
1.3334e-07
0.252035
0.0437451
0.000533416
3.27562e-07
6.10803e-09
0.0047793
0.192879
0.00471122
0.0153217
0.2179
0.0201379
1.90036e-09
0.0356577
0.00304272
0.0067449
0.0367491
0.010818
7.76077e-09
0.190607
1.43574e-09
0.0402808
0.00910388
0.0109218
1.85039e-08
0.0131366
1.30149e-06
0.0027412
0.00899123
5.03281e-06
3.4285e-10
4.66247e-09
0.00288435
0.0803482
2.23957e-09
0.00417539
0.0213163
9.80665e-05
0.00739885
0.0482431
2.29096e-06
0.000138073
0.000823775
6.14023e-08
0.0102034
1.94883e-06
0.0025689
2.85626e-08
2.3056e-08
0.0121384
5.71522e-09
0.000215037
0.00362116
3.46864e-08
6.91554e-08
0.0044795
0.00054298
0.354637
1.16489e-07
0.254835
1.83256e-06
0.000364919
0.000168577
0.00742157
8.32788e-05
0.0791
0.00551547
5.435e-05
0.00106799
0.0668323
7.35002e-07
4.69849e-08
0.000417775
0.000779111
0.0415327
1.92299e-07
0.035185
0.000942313
1.628e-08
0.228998
9.77198e-09
1.67764e-07
2.28697e-06
0.00295227
0.308021
0.0573431
4.72394e-07
2.28715e-08
1.476e-09
1.10246e-07
1.05934e-07
6.42286e-07
1.17279e-07
5.32022e-09
6.30006e-08
1.08133e-08
1.83682e-07
0.0628818
0.037293
2.88307e-09
1.36579e-05
6.83555e-09
6.09743e-08
1.12008e-08
0.0365529
0.081802
0.0173969
3.53935e-08
1.24304e-08
8.17008e-07
0.00652565
4.00315e-06
1.34888e-07
0.281038
2.69018e-07
3.1167e-06
0.0228417
0.000188645
5.26566e-06
0.00816435
0.0242011
3.06309e-08
0.00315857
0.00444977
1.73987e-08
0.0130689
0.0389573
0.0175482
0.00334864
0.0106135
3.63926e-06
1.11529e-07
0.330316
0.0106574
0.00318626
0.0629134
0.00673221
0.00174412
0.0210811
0.0101371
0.000692706
0.015364
0.00105535
0.0100606
3.35618e-06
0.0247911
0.00836237
0.00166019
0.00138112
5.60585e-09
6.08689e-08
4.47864e-08
6.05095e-10
1.76284e-07
0.00928651
0.0134148
1.96331e-08
3.50697e-09
1.73796e-07
1.71397e-05
6.34825e-09
9.21304e-09
8.00291e-07
1.10564e-06
0.00459536
0.000270551
0.0214805
0.244575
1.22617e-07
1.14519e-05
0.0305732
1.0299e-05
4.09296e-09
1.73731e-08
0.228912
5.55351e-07
5.50982e-09
4.98485e-06
0.230691
0.0134898
0.0329294
0.0335811
1.092e-06
0.0139818
0.000340573
0.00038166
1.92085e-08
0.0116569
4.94565e-06
1.89214e-07
0.0169818
1.03031
0.194611
6.72792e-06
1.36746e-06
0.0167926
0.0200872
0.0175543
0.00548327
0.00649199
1.19355e-08
0.000633342
0.000411181
0.060634
9.8435e-06
0.272108
2.88022e-08
0.00197309
0.0248793
0.0172449
0.0112568
3.24079e-06
0.0059667
3.51665e-08
9.61964e-06
1.11315e-09
1.83569e-08
0.00247129
0.860385
9.88099e-08
5.45724e-09
0.000420231
0.023064
0.00165226
0.00676069
0.0322236
0.004692
0.019822
1.99112e-05
4.41409e-06
0.000203238
0.029446
0.00553453
0.00328276
1.20589e-06
7.43393e-09
0.000155495
0.0215559
0.00258817
4.42065e-09
0.147003
0.0559266
0.00633989
0.00600073
7.16056e-09
0.000193403
0.0067152
0.0223911
8.84812e-10
0.000399505
0.0143847
0.00101112
0.202742
0.00454705
0.00773655
0.000243471
0.00327657
0.0202169
0.0352947
8.77535e-05
0.0220148
0.000118311
0.197252
0.000164472
3.69957e-10
0.00249024
0.00732065
0.000408191
0.0112043
0.000463012
0.000988255
0.000485696
0.0391571
0.00354089
5.19479e-05
0.0374336
0.00125642
1.10948e-07
1.11729e-08
0.100863
0.000515338
0.00100631
1.06418
0.0339529
0.0111505
0.00042523
0.0428494
2.25303e-06
3.20114e-06
0.0038584
4.14941e-05
0.00197824
0.00421433
0.00211167
0.00451728
5.81934e-09
0.000219624
0.104262
1.98484e-08
0.0179001
0.00722952
7.98835e-06
0.00384515
0.000142512
4.0753e-08
0.00058652
0.137078
4.89201e-08
6.17312e-09
2.08839e-08
0.146943
0.248089
0.0136169
0.0529279
0.00460984
0.0314546
7.91298e-06
0.00768205
0.0118951
0.0232676
0.0014608
0.115688
0.336357
0.395903
0.0100105
0.00865765
0.0359257
0.155503
0.359591
1.343e-08
0.173084
0.0485055
1.01178e-08
0.000402056
5.72647e-07
2.98382e-08
3.62105e-08
2.26067e-07
1.9096e-08
0.138282
5.01351e-08
0.00681124
0.00131871
2.20992e-08
0.00374734
7.26943e-06
0.0134471
6.56234e-08
0.000603268
6.34212e-06
0.0207261
0.000212121
6.32138e-06
0.0040507
0.0274208
0.0160092
0.00375501
0.0258139
0.00332065
0.0219261
0.052073
0.0092373
8.29143e-07
0.00109218
0.000345963
0.00532041
0.0100772
0.00059745
1.15669e-06
5.72525e-05
1.24459e-07
0.00340583
0.0409013
0.000690199
0.325101
0.00230586
0.000349003
1.6917e-08
0.0610771
9.46751e-10
0.00826979
0.0200354
0.00116897
9.45721e-05
0.00179427
0.00652433
0.00176119
0.000818305
0.00654026
0.00578334
0.00252262
2.21587e-05
0.0772518
3.52273e-07
0.0126313
0.0104064
7.78685e-07
1.15401e-09
0.000257418
0.00798179
0.0176391
1.27152e-08
0.00209454
0.0440549
0.00020814
0.00449005
0.0843339
1.75864e-09
1.0358e-10
0.00355203
3.85812e-09
0.000106284
0.0114706
2.15317e-05
0.010281
0.031083
0.0178779
3.09718e-08
0.00140741
8.94478e-05
0.000129373
0.0460504
2.95323e-08
9.75375e-07
0.0102671
0.000530616
9.79533e-07
0.159873
0.000938961
2.90511e-08
4.03983e-08
0.000228028
7.89297e-05
0.00226418
0.00305579
0.0239608
0.239108
2.01391e-10
0.000328387
0.000681421
0.0422038
1.72066e-06
0.0471334
0.0824395
0.000117782
7.3531e-06
1.98826e-05
1.12284e-08
1.54999e-05
2.66994e-05
0.000371652
1.88627e-05
0.000325843
2.57387e-05
0.00064412
0.000340142
0.000555564
0.000128232
1.63066e-08
0.0266357
0.0095416
6.18856e-06
0.0827234
0.000243183
0.000210259
1.36191e-05
0.00113072
0.000260004
0.0025753
0.000380246
0.00107447
1.91157e-05
2.24566e-08
0.00114361
0.000410961
0.0663654
2.11281e-06
0.0366806
4.84023e-05
0.0351761
8.41111e-05
8.27417e-07
0.000391589
0.026338
0.00764994
2.50011e-08
0.000293062
1.09387e-05
0.00386716
0.00121081
0.336319
4.49005e-05
1.99177e-06
0.0191791
0.00151104
0.00483512
0.0330838
0.0698831
7.6269e-10
0.0184344
0.00374574
0.0489775
5.71506e-09
0.00113608
5.65486e-07
0.0424204
4.91778e-08
2.88343e-09
0.00311636
0.00201841
0.00285505
0.296136
0.0392446
0.0254785
0.033826
0.0163619
0.217553
0.0422725
0.00500533
0.00453098
0.00465685
0.000560646
0.00959642
0.0371235
0.00148669
0.00136648
0.030808
1.88138e-06
0.00315534
5.16947e-07
0.0170147
2.26503e-06
7.64288e-07
0.00156838
4.11812e-06
0.00587329
2.47784e-08
3.61329e-07
0.0788204
9.62427e-09
7.34852e-08
0.000810187
6.17447e-08
0.00070554
3.51838e-05
0.0644157
0.0168015
0.262231
0.00737981
0.00708931
0.0396112
0.546006
1.81716e-10
0.0649693
0.0277709
0.0165781
0.0223435
0.00222695
0.0527766
6.90405e-06
7.35203e-06
8.29204e-07
0.127532
1.07694e-06
1.01884e-07
0.0167324
6.67215e-07
1.58634e-08
0.00513494
2.4468e-06
0.281715
7.98648e-05
3.45272e-05
4.55356e-05
5.77115e-05
0.00143597
0.0063346
1.23637e-10
0.0218458
0.000397956
2.12611e-05
0.0945647
6.89176e-08
0.0148208
0.0170189
0.00347047
3.12496e-08
0.0169376
0.00940562
0.000840355
0.00501597
0.0113901
2.96719e-08
2.15796e-08
0.00165386
2.17517e-08
1.32166e-09
2.92813e-09
0.0186205
0.350673
0.00421479
0.0021451
6.83903e-05
0.0469367
0.0431225
0.00399279
0.00239279
0.00873263
0.0195354
0.00258718
3.9468e-09
2.47348e-09
3.87938e-09
0.00674517
1.10564e-07
0.347499
0.000520934
0.000747567
0.0018229
0.00249546
0.0205445
3.89747e-09
0.0588177
0.00238
0.000360679
1.5387e-06
3.97279e-07
1.59529e-07
0.473625
0.000305485
0.000570537
0.000847704
0.00955225
0.203112
3.14612e-07
3.18294e-07
5.00731e-07
0.0036882
0.0169939
0.0190635
0.0329869
0.00172166
0.0033082
3.51636e-06
4.23659e-10
0.00018767
3.80118e-07
0.163404
0.0210499
2.35565e-07
1.24674e-06
1.8924e-05
0.0601728
0.0295197
1.81932e-05
0.0130166
0.0898454
0.000953897
0.388702
0.0462866
2.57997e-05
0.0215799
0.171214
0.0184983
1.03133e-05
0.00478057
1.48105e-08
0.013565
0.00168695
0.0231058
1.13045e-05
0.000373853
1.21895e-09
0.0229449
8.98557e-09
2.81115e-05
0.380529
1.21079e-07
0.00569824
0.00117488
3.73754e-07
4.16971e-08
0.00195431
4.16198e-07
1.10625e-07
0.0124662
0.000132128
1.33386e-08
0.0230976
0.0437337
0.0161168
3.09599e-10
2.11573e-09
0.000551185
0.00254545
0.00298865
4.14052e-09
9.77339e-08
0.000130976
0.00371254
0.00183533
0.0123898
0.361796
8.31007e-10
0.139486
0.0113042
0.00615781
0.054968
1.07508e-06
2.11949e-08
0.0226299
8.18621e-10
0.0294603
0.00502802
0.00548404
1.09257e-06
9.26317e-09
4.13089e-09
1.6182e-08
2.02437e-05
0.131732
0.209406
0.002179
2.48906e-06
1.69172e-10
0.0553111
0.221959
0.0332433
0.109377
1.37693e-07
0.000953586
0.00024148
2.40498e-07
1.28331e-08
0.00365264
0.00630324
3.52083e-08
1.09767e-05
0.00276247
0.0594838
0.20204
0.0010966
2.01745
9.67019e-09
3.6488e-07
0.0112707
0.000684998
3.31518e-05
0.64133
0.000574955
0.00616668
8.21897e-09
8.61665e-08
1.25609e-05
0.0577904
0.00798452
0.175289
1.97313e-08
0.0237528
0.0182195
0.832159
1.14846e-08
1.4064e-09
1.07557e-07
3.54432e-08
0.00643607
0.000319334
9.97403e-09
0.0370093
0.0178494
0.157683
0.00469657
2.94308e-06
1.63677e-06
0.0275154
1.30633e-05
3.18714e-08
2.35942e-08
1.46749e-08
0.0208366
9.50967e-06
0.0569245
0.0551024
0.0248063
0.0116549
6.13353e-09
2.18476e-09
2.50994e-08
0.014645
0.000246359
1.99512e-07
3.57292e-08
3.44733e-09
0.0217619
0.00231261
0.0105697
0.0400519
0.00194877
0.307452
0.00459583
4.35684e-07
4.75613e-10
2.58154e-07
0.0530307
7.00805e-10
0.0186811
1.39179e-08
0.0147051
4.44615e-05
0.0015471
0.000143489
0.00232696
4.36456e-09
1.46655e-08
0.363392
0.159758
3.46009e-05
0.00365563
4.21459e-07
0.000448007
9.55734e-05
2.97934e-06
3.27248e-06
0.000295704
7.9911e-08
0.00100432
0.0388409
0.0338649
2.01989e-07
8.23276e-05
8.99901e-07
0.0338054
0.179271
0.000149163
9.725e-10
0.00926727
3.36245e-07
0.00273942
0.0177196
0.00134534
1.12187e-08
0.000875843
0.000511933
0.000133245
0.00420389
0.00012112
0.00162987
5.3831e-06
1.26245e-09
0.000156235
0.00542883
0.00029019
6.56354e-07
9.54449e-06
0.000121123
0.542932
9.20022e-09
3.12848e-08
3.52347e-08
4.29345e-10
1.2673e-07
0.0214524
0.000574748
0.00109609
0.000103999
0.000202617
0.00140494
2.64788e-10
0.00532217
6.51191e-09
5.33626e-07
6.96574e-09
2.60076e-05
0.0020281
1.51894e-05
1.11161e-07
1.4043e-08
0.0139279
1.22813e-07
7.71302e-09
0.154073
9.16705e-06
0.0704063
0.118491
0.527576
8.18286e-09
0.191025
1.09887
1.13122
0.618282
2.00713e-09
5.22431e-10
0.00463245
0.00438668
6.73924e-05
0.00909993
0.0415233
0.0304773
3.22465e-05
4.41239e-06
0.00121932
3.31362e-08
1.37267e-09
0.000121161
0.000405752
0.0258868
9.38066e-09
0.11608
0.000125136
3.34229e-07
0.00010997
0.00772731
0.00150663
2.23433e-06
0.0073878
6.21273e-09
0.00328954
0.00215342
0.00687689
5.71111e-08
0.00174292
0.00533269
1.04825e-05
0.00320015
8.33408e-08
0.0304697
5.61628e-05
0.00920388
8.71318e-07
0.190192
5.56892e-08
8.70083e-07
2.67164e-08
0.116175
0.119207
2.05572e-06
0.0113629
0.00857544
0.0546297
3.04158e-08
0.0304495
0.0162264
0.171808
1.26844e-06
0.192597
0.0235211
0.0432508
0.00358231
1.58809e-07
0.0536467
1.67464e-06
0.212585
1.71715e-09
0.00238616
0.00393395
1.10622e-07
5.31611e-05
1.25771e-06
0.0189877
7.97402e-09
0.0394866
2.85503e-07
9.93074e-06
1.09143e-06
5.26059e-07
0.000255773
0.00182761
0.126113
4.92504e-06
0.000242816
0.0383156
1.32482e-06
0.0426624
7.64208e-07
3.36659e-06
2.49055e-06
0.00542389
2.2182e-10
4.44853e-09
1.06413e-09
0.0030123
5.56095e-08
0.0661597
2.19364e-05
0.00299652
3.62732e-09
0.00560743
0.33114
0.00498083
0.00508962
0.0244837
1.2354e-05
1.99344e-07
7.97795e-08
0.00289751
0.00164001
2.66688e-06
0.000537594
0.000554822
4.70688e-08
2.83369e-08
0.310519
6.78277e-08
0.0203005
4.04109e-08
0.00217869
0.00308721
1.97786e-07
1.38162e-09
0.0453447
7.00175e-09
2.17783e-09
0.0171778
0.05601
0.00427828
2.22011e-06
1.92367e-08
0.00631747
5.2514e-06
0.0117498
5.89253e-06
8.12611e-09
0.00217288
6.72516e-05
0.129519
4.12987e-09
5.39542e-09
4.82827e-09
0.00309339
0.164904
9.47356e-07
1.50938e-08
7.47581e-06
0.00141869
1.96292e-08
0.0179894
0.0284866
4.16034e-08
6.45567e-09
0.006562
2.37801e-07
2.05638e-05
1.70485e-09
2.51257e-05
8.31428e-09
0.0627488
0.000344974
1.33631e-07
5.62316e-09
0.0680944
3.10698e-08
0.0560186
2.44089e-07
4.66727e-08
9.44593e-06
0.00685862
0.0459302
0.00776689
0.0495257
0.0601824
0.536002
0.00247707
0.0400546
1.07704e-05
1.62409e-08
0.00222314
0.138184
0.0367237
0.0418652
1.13281e-08
0.00667972
1.52254e-08
0.00438287
9.80655e-07
0.00890221
0.000169829
0.0525883
5.18995e-07
1.53092e-08
0.019566
0.0002906
2.40452e-08
0.0247827
0.000299936
1.96171e-06
8.89431e-10
0.0336511
0.00929979
0.00585202
0.00077025
0.00165228
0.0159889
0.000922432
0.00466786
8.61379e-06
0.0260191
0.000124324
0.000452529
3.29188e-09
6.30964e-07
2.80274e-08
0.00940419
8.89808e-08
2.29852e-06
9.3534e-11
0.000395454
0.38577
0.0872424
0.00230255
4.41355e-09
0.0038446
0.0540636
0.101242
0.00283016
0.00026797
0.0409578
5.48668e-07
1.18112e-07
2.75568e-09
0.00267647
0.00122724
3.93564e-08
4.6865e-09
0.00225858
1.64167e-07
0.784038
0.0534972
0.0925169
5.52756e-09
1.12532e-08
0.041751
4.78951e-09
0.00900216
1.06548e-08
0.00063922
2.03271e-08
0.00900321
5.10696e-08
5.60343e-09
0.00106755
0.152062
0.0641344
1.44569e-08
0.0684533
4.27219e-08
0.0039199
0.176405
0.115733
2.39257e-07
0.000501207
3.97221e-09
1.93015e-06
0.000275705
0.015713
0.00030082
9.66755e-09
0.000622507
0.00311453
0.00480138
0.00760606
3.64801e-07
3.2861e-07
3.34691e-06
6.03448e-07
9.65011e-09
3.41277e-09
0.0736571
0.0368719
1.45873e-08
0.082588
4.30985e-10
2.01668e-08
0.068963
5.45725e-09
4.64218e-09
0.0391954
2.0158e-08
8.9006e-10
1.01673
2.12831e-09
1.01438e-09
0.00186845
0.0911204
1.36062e-07
0.0368447
8.95329e-09
0.0210259
0.0492327
6.22178e-06
0.000853841
5.89209e-10
7.16936e-08
1.03694e-06
1.79412e-07
0.315626
0.0446095
0.000265607
3.17083e-08
0.0459329
8.32854e-10
1.93702e-08
2.85323e-09
0.101013
0.00177575
0.000112945
1.40005e-09
1.28946e-06
0.0477748
0.000898956
3.70008e-07
0.000253275
0.106881
0.0843195
3.40612e-05
0.0836231
0.000916804
0.0423476
4.15398e-05
0.0645503
0.000339739
0.0292187
1.44822e-06
0.00648528
0.000452739
0.000917441
7.24851e-10
0.00135326
7.07026e-08
0.00389646
0.0238591
9.94545e-07
0.00238864
0.000307716
1.73386e-07
0.00999634
8.8845e-08
2.59807e-08
2.86578e-08
4.50588e-08
4.97048e-06
4.39567e-08
4.89813e-08
7.1748e-08
0.262756
4.26948e-05
1.42966e-10
1.69849e-09
5.64367e-08
9.88923e-08
0.0299795
0.773587
0.00207817
0.000139291
9.7437e-09
0.00197277
0.001355
0.046001
3.16605e-05
1.28526e-05
5.56432e-07
1.08688e-06
2.42008e-06
0.000220266
0.000115789
0.177032
0.066665
8.14735e-08
0.00102317
0.000295217
1.21383e-08
0.0246
4.53084e-06
3.86964e-08
1.70971e-06
0.162844
0.0616841
3.13462e-10
0.0243111
1.41631e-08
0.047695
5.06083e-05
0.0352346
0.0519693
4.5431e-09
6.65529e-09
2.47667e-08
2.47721e-05
0.00573308
0.226712
0.027618
0.0422236
0.00432921
0.000522078
9.04396e-10
0.000115177
0.133858
0.00132221
9.41029e-05
0.00292783
4.02557e-06
0.0976624
4.96195e-08
0.20668
0.0380635
1.07217e-08
0.000479244
0.00715136
3.96941e-08
0.0100303
1.47387e-08
1.84209e-07
0.198901
0.0292291
5.39176e-08
7.59142e-09
6.69525e-07
2.47967e-09
5.47323e-09
0.000124716
2.40357e-08
4.97526e-10
0.0031407
7.63619e-09
9.73754e-08
2.65586e-07
0.000225861
2.17614e-07
0.000166201
1.05299e-07
4.64162e-08
2.22975e-05
6.52321e-05
0.00345107
0.0422466
7.96502e-05
0.00492432
2.28037e-06
0.315204
0.310701
1.21897e-07
0.00334676
1.66332e-08
0.0448718
0.0377379
0.000398959
0.0883984
0.0679751
7.09353e-06
1.31474e-09
0.00238582
1.14466e-08
1.42856e-09
3.93663e-07
1.57235e-05
6.9411e-09
1.70905e-05
0.0362005
5.12382e-09
2.48507e-08
0.337617
1.53397e-09
0.0168935
8.11505e-06
0.00128113
9.47547e-09
0.000436866
0.000144005
0.236057
0.00806329
0.0234431
0.00018042
0.0399871
0.000265592
0.0737388
0.00014584
0.00022604
0.00981287
0.0570559
0.000320052
0.00126246
4.2197e-06
1.70252e-07
0.00106912
0.000230593
0.0165905
0.0119579
0.000148637
1.85394e-06
0.0054877
0.00509018
0.0182482
1.81121e-09
0.0121718
0.0166271
0.00266569
0.00145134
0.0012125
0.00327833
0.0190122
0.0401017
0.00720426
0.0109814
0.00795359
8.93373e-05
0.00284867
0.00360995
0.00103985
0.00272125
0.014272
0.0136237
0.0196672
0.000120238
0.0107881
0.000415153
0.00495204
0.00278111
0.000370875
0.00239414
0.000200351
0.0741122
0.00394608
0.00119574
0.000138875
0.000721891
0.0161239
0.00238095
0.20362
0.00344696
9.68995e-10
0.228378
0.0440304
0.0223225
0.00696916
0.0201811
0.000397732
0.00868746
0.456704
0.00208238
0.00142204
0.00242786
0.172745
0.00122915
0.0735269
7.31283e-05
7.57789e-08
1.27289e-08
0.00215882
0.0060034
0.0118157
0.0704001
0.00707151
0.060803
0.0550236
0.0643795
2.79793e-08
0.00749792
0.00271413
0.0267057
1.04961e-06
0.00628072
9.0737e-08
0.22205
0.0114213
0.00728831
0.217971
5.92901e-09
8.83828e-08
0.00211147
0.000107336
0.000740521
1.53478e-07
0.00654797
0.00093991
0.0797932
8.97864e-07
0.0218597
0.00309501
0.000344553
0.000129611
0.00237668
0.0013838
2.43876e-07
0.0017891
5.34045e-05
9.78948e-09
0.265411