/*--------------------------------*- C++ -*----------------------------------*\
  =========                 |
  \\      /  F ield         | OpenFOAM: The Open Source CFD Toolbox
   \\    /   O peration     | Website:  https://openfoam.org
    \\  /    A nd           | Version:  10
     \\/     M anipulation  |
\*---------------------------------------------------------------------------*/
FoamFile
{
    format      ascii;
    class       volScalarField;
    location    "13.5";
    object      SgT;
}
// * * * * * * * * * * * * * * * * * * * * * * * * * * * * * * * * * * * * * //

dimensions      [1 -1 -3 -1 0 0 0];

internalField   nonuniform List<scalar> 
111485
(
1.57287e-15
0.00799845
0.0238482
3.15101e-16
0.0489402
1.23453e-15
0.0459866
0.0061436
0.0189132
0.0012099
0.0463727
0.00937429
0.0047405
0.00078485
0.00648354
0.0307225
0.00140507
2.60684
0.0103247
9.38792e-15
2.94677e-15
8.03929e-17
0.0264318
0.0348833
0.00853158
1.44781e-15
0.0397595
0.00175273
0.0156897
1.09146e-15
0.0442353
0.01932
2.20866e-14
2.01842e-15
0.00685093
2.6537e-15
0.0105248
0.00420184
4.05945e-08
0.0239467
3.00913e-16
0.0711181
0.0157981
0.00149224
6.04112e-05
8.82921e-15
0.0300876
0.000714935
0.0476612
5.43792e-16
9.02412e-16
3.59123e-15
4.10952e-15
0.0506165
2.40591e-15
0.0435435
0.00315002
2.16394e-15
2.11719e-05
0.0047863
0.0160488
1.30134e-15
0.00469595
0.0959068
2.06636e-15
0.00322222
0.314126
0.09452
0.00108722
0.00595776
1.53556e-05
0.00646188
6.04015e-15
0.00284786
1.5989e-15
0.000700541
6.08766e-15
0.04128
2.41767e-15
9.41231e-16
1.94427e-06
0.0338965
2.2535e-16
3.30138e-15
0.00918326
0.003936
3.55193e-10
0.0250748
5.81579e-05
0.00738138
0.000293312
0.0405991
0.0117176
5.73871e-05
0.0525423
4.30281e-16
9.44704e-16
0.00178071
2.67372e-08
0.00116999
1.30638e-14
0.0182049
4.10383e-15
0.0182453
0.00464844
1.08681e-15
5.44763e-16
0.00757865
0.00402761
6.29089e-08
0.00539173
0.00471874
0.00370737
0.00314865
2.27731e-15
3.32851e-05
1.73194e-15
5.61662e-15
0.0126999
3.31066e-15
4.44387e-17
7.40491e-16
4.05392e-16
2.46487e-15
0.0015535
2.98171e-06
2.93554e-15
0.00167263
2.4769e-16
3.32424e-05
0.00141818
0.032358
6.62029e-16
1.98463e-14
2.23921e-15
0.0484638
1.65928e-15
0.0425111
0.0251655
0.00269624
0.000241548
0.00200241
0.0224489
0.00273352
0.00392301
0.0130088
2.70661e-15
2.21836e-16
3.02082e-15
0.027987
0.00159557
2.06387e-16
2.217e-07
0.00481666
4.62867e-07
0.0106694
0.0163906
0.0105038
6.44712e-08
1.99476e-15
1.73835e-15
0.0522056
0.0231122
1.80615e-06
3.41623e-07
0.00575648
0.00347934
2.51477e-15
4.43868e-06
4.62576e-05
8.54711e-17
9.87077e-16
0.000130381
2.05543e-17
0.00557195
0.00210174
4.72204e-16
1.20363e-14
4.79375e-15
3.45115e-15
1.14043e-14
1.39638e-15
0.0014894
0.00679298
0.0296033
0.00415017
0.00750813
0.00396977
8.08412e-05
2.78307e-15
0.00475574
8.59886e-16
4.08873e-16
0.0064585
0.0105137
0.0279138
0.0111385
0.00501912
2.0314e-15
0.00662119
0.000527051
4.28648e-05
0.0139417
0.00231338
8.15146e-16
0.00372749
0.0256252
1.69454e-14
0.000169494
0.00772133
0.0020608
0.000359482
3.70507e-15
9.88025e-15
0.00818723
1.021e-11
0.11981
2.09856e-15
0.00660445
0.020343
0.119595
4.42094e-15
0.00320392
0.0136263
1.61243e-13
7.39166e-16
5.61197e-16
0.153143
2.80619e-07
6.31522e-15
3.0392e-15
0.00940457
0.00777891
0.0147736
9.84079e-16
5.89652e-15
1.23791e-05
1.40405e-16
0.00244777
0.00940675
0.016474
0.0115766
0.00957178
1.80194e-15
2.5679e-07
0.000619943
1.27196e-15
2.17585e-15
0.0309486
0.0206253
6.07589e-15
0.00638597
0.0106627
9.52919e-17
9.25887e-15
0.000116608
3.42632e-15
1.26784e-14
4.43811e-05
5.5413e-15
0.0149538
0.0108789
0.00366939
8.6581e-16
0.0118557
9.60804e-17
1.50182e-15
4.26343e-16
1.92086e-08
0.0227221
0.00611395
0.00537334
0.036712
0.0121961
0.00159096
0.000575607
0.0327586
0.00890754
5.81156e-16
1.78278e-15
2.50424e-07
0.0226256
0.0243541
0.0119993
8.18955e-17
0.0069827
0.00205472
0.00299066
1.83373e-06
3.67381e-06
0.0136547
0.00217694
0.00191121
8.71769e-15
0.000666871
2.16137e-15
1.77605e-07
3.20551e-13
0.241725
0.068364
0.0119939
2.54602e-15
4.13299e-15
0.00895984
0.00172614
4.08751e-15
2.74805e-15
1.47054e-15
0.000296906
0.0574771
0.00392322
0.0138192
0.0192324
2.59348e-15
1.0668e-15
1.05582e-15
0.00378167
1.20279e-12
0.000823158
0.185679
3.21867e-07
3.26676e-16
3.80437e-15
6.86376e-16
1.0095e-14
0.0597676
0.011973
2.67338e-15
0.00521267
6.83421e-15
8.09253e-15
0.0667818
0.0058741
0.0114074
0.00923393
7.90591e-15
1.00895e-14
1.53187e-16
0.00937529
0.0188113
0.00471683
1.11991e-15
3.2552e-10
0.000164298
0.00216821
0.00800459
3.53326e-05
0.0285371
2.70197e-16
0.0375936
0.00351842
0.00776894
0.0250469
0.013477
9.1309e-15
3.56028e-15
7.13605e-15
1.47128e-15
0.031531
0.00972252
0.0333491
0.0673859
2.53695e-15
0.0187451
6.66962e-17
1.03087e-14
0.0165356
1.67052e-15
0.0751746
1.7801e-15
1.40863e-16
0.0229712
8.50507e-16
0.013651
0.00029349
8.76735e-16
0.00101332
0.0164287
1.61002e-15
0.00880933
0.00936681
0.00808753
0.000664677
0.00274985
0.00559711
6.02713e-15
8.82708e-16
0.00192283
1.76385e-15
0.00618145
0.115972
2.61368e-16
6.49918e-15
0.0273696
0.00011117
0.00822134
0.0206361
1.08993e-16
0.0461759
0.0187392
1.85191e-16
0.000818204
0.00246093
1.57308e-15
5.50233e-15
0.011012
0.00521161
2.86749e-15
1.09635e-15
3.42664e-08
5.85499e-15
0.0121334
7.02806e-16
1.70821e-15
0.0168979
1.67439e-06
0.012452
0.0295524
1.33409e-15
1.31381e-14
0.00146425
1.51809e-15
0.000158287
0.014083
0.121867
0.847021
4.847e-15
0.00274677
0.00050166
9.81572e-15
0.038552
0.0314381
8.69478e-16
7.40717e-09
9.20926e-05
4.17617e-15
0.024071
0.02436
0.0139882
3.90548e-15
0.00066255
0.0171928
0.0229784
8.22793e-07
4.28183e-15
6.1886e-10
1.34886e-16
1.22004e-05
0.0314399
4.57423e-16
0.0084764
9.76789e-05
1.05694e-15
3.45541e-15
5.63274e-15
5.13568e-15
0.003678
0.00959374
0.006451
0.00213449
0.00273839
5.32634e-15
0.00202096
4.71294e-15
0.0404222
1.66339e-15
1.83972e-15
1.28483e-15
0.0364499
1.52404e-15
5.23379e-16
1.71267e-07
8.29518e-16
8.13774e-15
0.00105229
5.81823e-15
3.36623e-14
9.67976e-17
3.33875e-16
4.26648e-16
8.66381e-16
1.79482e-15
0.00709739
1.26015e-15
0.000514434
0.00190479
0.000924488
8.98945e-16
0.000865542
1.77133e-15
6.50952e-16
0.00278073
0.00180493
0.0273613
0.0246217
6.05298e-16
0.00202375
0.0812246
0.0084639
0.00102488
0.00325967
8.64175e-16
0.0234291
7.99035e-15
0.00496259
1.19069e-15
0.0754132
4.60594e-15
0.020932
0.000241434
5.19989e-07
2.20465e-15
0.00199106
8.10055e-16
0.079922
0.0483641
1.9196e-15
2.8962e-15
5.3702e-15
1.48119e-15
1.3792e-09
0.0549449
4.80001e-16
1.15829e-14
0.00252334
1.35244e-15
0.0335342
1.86219e-15
0.000328135
3.56409e-15
0.000487706
1.11993e-06
0.00102361
0.0125163
5.27201e-14
0.000408309
8.91319e-16
1.9726e-16
0.0150658
2.48977e-15
3.04673e-05
9.14071e-16
0.00162284
2.19886e-15
0.0642564
2.56472e-15
2.40866e-16
0.0169033
0.00329888
0.00171754
0.00392608
0.00679063
0.0208392
1.27003e-15
0.0248981
0.00616285
1.89801e-15
7.61279e-08
0.0399646
0.0151016
2.57412e-15
0.00388704
0.00669328
0.00173165
0.00103338
1.82297e-10
0.0136303
0.00119483
0.00013169
0.0237678
0.0137831
0.000631129
2.52831e-14
3.14296e-09
0.646576
5.96011e-15
0.000362168
6.17414e-16
1.73272e-14
0.00732705
0.00281492
2.1649e-07
1.54618e-05
9.74546e-16
0.0164208
0.0110311
5.92716e-16
1.84446e-10
0.00142567
1.40887e-14
7.97685e-16
6.98602e-16
3.96656e-16
0.0132306
2.30389e-15
2.35694e-15
0.00877272
0.00193548
2.39053e-14
0.0104881
5.1457e-15
0.00854467
3.52358e-15
1.11925e-15
0.0530619
2.60574e-16
2.75536e-16
1.57456e-15
0.00426206
3.32418e-15
0.0290699
0.00624545
8.03643e-17
0.0871644
0.00241054
0.0283449
0.0277733
0.000468183
7.76292e-05
4.45285e-15
0.0539963
0.0460327
5.12882e-15
0.000311625
0.0403962
0.00784352
0.00142837
0.0275267
0.025991
1.17341e-15
0.0106782
6.22262e-06
4.50884e-15
0.0345803
0.000255931
4.57972e-14
0.0109987
0.0403961
0.001346
0.0212901
0.019391
0.00721395
2.4685e-15
0.010304
0.000314992
3.68702e-12
0.016908
0.017661
0.0357166
1.01344e-15
0.00185597
1.01708e-15
4.17249e-16
6.76534e-15
9.56377e-15
1.41064e-05
2.83005e-15
2.81329e-10
1.19333e-15
8.325e-16
7.90859e-05
0.042919
5.51153e-15
0.0318364
2.71589e-15
5.51702e-16
3.61819e-15
0.0388122
0.00041273
1.29191e-14
2.61481e-15
1.18245e-15
9.99606e-16
0.210071
0.0693206
1.80995e-14
0.00195614
2.11803e-06
1.00209e-15
0.0370108
0.00830392
0.0116602
4.3431e-16
8.64212e-16
0.000409568
0.00105957
1.78215e-14
1.35535e-15
4.94778e-15
0.00722625
3.292e-16
9.49434e-15
2.5804e-15
0.04163
0.00203559
2.05832e-16
3.88714
0.328893
0.0098129
1.50819e-16
4.31821e-15
0.0556364
0.000414641
7.44291e-15
5.81198e-06
0.117513
0.00248442
0.0113755
9.43479e-15
0.053126
0.00186255
2.13499e-15
4.11203e-15
2.40297e-16
1.56339e-15
1.1002e-16
1.32548e-15
0.0219614
1.95128e-15
9.30147e-16
8.61981e-16
0.0114681
0.0238136
3.33392e-15
4.57033e-15
0.105566
0.0141909
0.00976233
1.04686e-14
6.06605e-16
0.0367966
1.10263e-15
0.00171458
0.00263577
0.00392588
1.82716e-15
2.5438e-15
6.06961e-15
3.01497e-17
0.0149231
7.64159e-16
2.07002e-15
0.0010076
1.75938e-15
0.0229145
0.00185391
2.90646e-15
0.0368587
0.36787
0.00250681
0.0292514
0.00014744
0.0441105
9.986e-11
8.82312e-15
0.0234259
0.0688603
0.00601487
1.21429e-15
5.59601e-10
0.744591
0.00991737
5.63963e-16
0.00254388
0.00255143
0.00119563
9.30167e-15
4.94308e-16
1.70751e-15
0.0133997
2.55111e-15
0.00264651
9.44224e-16
0.00122869
0.00140186
0.0362792
0.000583283
7.85538e-16
1.56274e-15
1.1822e-14
0.0204764
1.62331e-16
4.07399e-15
6.78133e-05
1.3288e-15
1.11025e-15
7.98325e-16
1.97956e-16
0.00996954
8.19453e-15
8.40468e-16
4.61685e-10
2.86496e-15
1.16529e-15
1.52588e-13
6.70176e-16
3.06509e-06
0.00158796
6.13327e-16
0.00390963
6.83811e-06
3.10313e-07
6.04977e-05
0.00406209
1.99496e-15
9.19545e-06
0.010033
0.000387329
4.74426e-16
2.43172e-09
0.000840871
1.36563e-15
0.00974634
0.000193524
1.65796e-06
0.0234822
0.00929165
0.00223754
0.00493733
0.00196119
4.68149e-15
1.10221e-15
0.0325903
0.0260696
8.8902e-15
0.00839426
0.0543568
0.0281627
1.37526e-15
0.00129703
1.76732e-15
0.0101062
0.0138345
5.00381e-15
0.00157515
0.000444738
1.21791e-06
0.00489603
6.43667e-17
0.0482234
1.50419e-05
0.00147919
3.11788e-05
1.26716e-05
1.47451e-15
2.20661e-15
0.0070676
4.16571e-16
0.000116883
0.000255335
0.000296877
5.35726e-08
6.96072e-08
3.01621e-07
1.57201e-16
2.42019e-14
0.0225252
7.17694e-16
0.00010481
0.0020235
2.63711e-14
1.04013e-15
6.24464e-07
9.10098e-10
4.70215e-16
4.9484e-06
4.89571e-15
5.48652e-16
7.62615e-16
1.63263e-16
2.70758e-14
3.0088e-16
0.000283625
1.55321e-15
7.91305e-17
1.86148e-15
6.34826e-06
5.06293e-05
0.00173882
0.00909978
2.25125e-16
1.6575e-15
0.000165842
7.7791e-16
2.12246e-15
2.02132e-13
0.0186551
0.0421193
4.4936e-15
1.3042e-16
4.56816e-15
2.57608e-15
2.15917e-16
3.86005e-15
0.0069159
6.18998e-16
5.05859e-08
0.0264694
1.6359e-15
3.29147e-15
4.59855e-15
2.71806e-05
2.26367e-15
1.59883e-15
2.89677e-16
9.1674e-06
7.09831e-15
0.00433973
9.42744e-07
5.54267e-09
7.36197e-16
7.39069e-05
0.00202621
0.0441742
1.66546e-16
8.27786e-06
0.00546266
4.24321e-15
9.81826e-17
7.73046e-15
4.46153e-15
0.0080721
0.00160993
0.00329054
1.72493e-07
3.16537e-17
0.0234426
6.7785e-15
1.38835e-14
1.5466e-14
8.41841e-16
0.0261929
6.10328e-15
1.29645e-14
1.68444e-06
0.0510268
1.93432e-15
0.0023686
4.21267e-15
0.000833924
4.60086e-16
5.7019e-16
7.67771e-16
5.01433e-15
0.00250313
0.000605561
0.311644
1.42631e-15
2.22141e-16
0.00216707
1.57002e-15
1.34713e-15
1.97672e-15
0.0364696
9.25322e-06
0.0316236
9.62198e-15
1.05247e-05
4.79636e-05
4.02602e-15
0.000123209
4.08659e-16
0.00124165
0.0250942
0.0199577
0.00119986
0.000232787
1.92514e-15
9.84173e-16
8.65541e-15
2.13937e-05
1.41679e-15
0.00737366
4.64056e-15
0.174666
3.86823e-16
0.0414568
0.00304884
9.42009e-15
2.406e-16
2.72445e-14
5.14677e-16
0.0406626
1.6185e-14
1.00234e-14
0.0117733
0.00668893
1.44371e-15
3.3691e-14
4.13291e-15
1.97503e-15
5.27079e-16
1.94446e-16
0.0253001
0.000409833
2.33669e-15
8.32734e-17
5.11122e-07
7.83603e-16
0.0015183
0.000108191
5.7308e-16
0.00343085
4.23394e-16
0.000376257
2.1657e-15
0.00107807
5.16644e-16
7.38555e-08
2.11076e-06
0.00063784
0.0179303
0.0336788
1.16849e-06
1.53307e-16
0.000526183
6.27958e-16
0.00458462
8.66807e-16
2.86584e-15
4.46356e-14
1.77614e-16
7.29179e-16
1.84001e-15
0.00710681
0.00796446
3.18629e-15
3.45927e-14
4.67568e-15
0.000771758
1.30542e-05
1.08051e-15
0.0180953
0.000177246
1.72821e-15
0.0231562
0.00802774
0.00364465
0.0114926
2.01638e-15
7.19251e-15
3.2999e-15
3.65703e-16
0.0369102
2.58978e-15
0.112705
6.43316e-16
0.000305437
0.000728641
2.49128e-15
0.000943307
1.00278e-15
9.69641e-16
0.003002
2.31979e-08
0.00897058
2.32569e-15
1.79658e-15
1.09011e-15
0.000820727
9.23795e-15
2.06226e-16
4.52424e-17
2.94984e-07
3.15883e-15
7.02552e-06
4.85957e-15
7.18212e-16
4.65083e-16
0.018273
0.00960141
0.0181022
0.0357526
1.37078e-15
1.50467e-05
1.95526e-15
3.53091e-15
0.00966304
5.49333e-17
2.23834e-06
0.000344569
0.0066228
0.000362177
1.07821e-09
0.00190936
2.44742e-16
1.18843e-09
3.99016e-10
0.000124939
0.000791732
0.0149951
5.80733e-08
4.00352e-15
0.0304535
2.45687e-15
3.80815e-16
1.39728e-05
0.0740667
5.53631e-08
2.93994e-15
3.74933e-15
3.37989e-07
3.12185e-15
5.68748e-15
1.73016e-05
1.72053e-14
1.2252e-14
0.0395547
0.000223392
0.000174144
0.022324
0.00720879
2.65831e-16
4.16254e-16
1.9753e-05
0.00408467
1.14719e-15
1.02921e-14
0.00977288
7.40269e-16
7.85008e-16
1.58689e-15
1.7208e-15
2.15788e-13
2.56923
1.89662e-15
0.000208484
7.03806e-16
0.0208593
1.70661e-15
1.04706e-12
1.872e-15
1.45507e-15
2.2024e-15
2.89192e-16
0.00288887
2.79105e-16
2.70198e-15
1.54489e-15
2.01727e-15
1.98101e-15
1.04522e-14
0.00969051
1.44134e-15
0.0107875
0.00305173
9.54611e-16
0.00148825
4.76848e-15
0.000500884
2.00486e-06
0.00386592
0.0132004
1.86989e-15
9.28056e-05
0.00766183
8.79639e-06
1.77726e-16
2.76033e-06
0.0189881
0.00472503
3.99003e-16
0.0259931
1.32637e-15
2.68452e-15
7.19393e-15
8.64891e-16
0.00814375
4.79439e-15
1.09847e-15
0.00830305
3.17969e-07
0.00268419
9.76403e-16
8.75013e-14
0.000630543
1.45224e-16
6.96363e-05
5.1026e-15
0.0230316
5.61267e-16
1.74812e-16
5.18129e-05
7.90493e-16
0.000135211
5.87949e-15
4.87981e-16
0.00477522
0.000435702
0.00471095
0.0153102
0.217899
0.020135
4.33025e-16
1.42464e-14
0.00293457
0.00674418
0.0367485
0.0108006
3.9404e-15
0.0123403
1.91753e-16
5.45655e-16
0.00902597
0.0109167
2.39188e-15
0.0131333
3.33168e-16
0.00274017
0.00898761
9.04153e-15
1.94265e-16
3.80488e-16
0.00278893
1.57485e-15
6.34231e-15
0.00414166
0.0213113
3.72712e-06
0.00739847
3.56727e-15
1.89508e-15
8.57953e-05
0.000768691
2.36285e-15
0.0101456
7.3519e-15
0.00255186
1.35428e-15
8.08014e-16
0.012128
1.82108e-15
3.79843e-05
0.00358223
5.60437e-15
7.25157e-16
0.00434745
5.45201e-11
0.0525939
4.86127e-15
0.25483
3.98548e-16
4.567e-14
1.83265e-17
0.00739493
1.03813e-15
2.76976e-15
0.00551205
9.12721e-15
0.000244637
7.04545e-15
1.83655e-15
1.90708e-15
1.00234e-07
0.000776094
1.14422e-15
3.03237e-16
0.0351781
0.000938789
6.21089e-15
0.000406157
3.76048e-15
5.98737e-15
1.67407e-06
0.00292553
0.00128226
4.27326e-15
8.57892e-17
7.90152e-16
4.60881e-17
3.87423e-14
3.81552e-15
1.63844e-16
1.4652e-15
1.46683e-15
9.21818e-15
6.64142e-16
2.72305e-15
1.64636e-14
1.3822e-15
2.62155e-16
3.16018e-16
6.08968e-16
2.00407e-15
2.10567e-15
8.0997e-17
3.68247e-16
0.0173912
4.10098e-15
1.67557e-15
9.67976e-16
0.00652438
3.00827e-15
3.32726e-15
0.280705
7.28285e-16
5.35636e-17
0.0228384
6.94344e-13
4.64397e-16
0.00736956
0.0241994
1.32541e-16
0.00267165
0.00399591
2.81681e-16
0.0130459
0.0389535
0.0175347
0.00330563
0.0106033
2.65127e-14
3.41756e-16
0.00297938
0.0106569
0.00314728
4.84669e-15
0.00661506
0.00173208
0.0210667
0.0101355
0.000690482
0.0153418
0.000989642
0.010005
3.82449e-15
0.0247469
0.00835491
0.00165636
0.00137893
2.99776e-15
2.9975e-15
1.42118e-15
3.02919e-15
2.23388e-15
0.00928648
0.0134076
1.82373e-15
3.53393e-16
5.42194e-14
5.89575e-17
1.34199e-15
3.54446e-16
9.99766e-16
2.07876e-14
0.00459446
0.000183929
0.0214741
6.94572e-05
7.68656e-17
1.44845e-14
0.030558
6.40119e-06
3.48438e-15
4.50095e-15
0.00699285
4.87246e-15
1.38915e-15
2.64355e-06
0.00767607
0.0134882
0.0328716
0.0335235
1.64565e-15
0.0139742
0.000331791
5.94154e-15
1.59314e-15
0.011614
9.91374e-15
4.81078e-16
0.0166574
1.02992
0.00016413
2.77229e-15
2.25259e-15
0.0167855
0.0200501
0.0175387
0.00548307
0.00391214
1.38709e-15
9.56366e-07
2.5529e-09
3.42698e-15
3.24881e-15
0.0165992
1.15687e-15
0.00197295
0.0248744
0.0172201
0.0111862
5.47125e-15
0.00585287
1.62728e-15
2.09845e-16
7.16594e-16
3.75686e-16
0.00246975
0.859905
5.25329e-15
1.16994e-15
3.50977e-06
0.0230638
0.00111182
0.00675734
0.0322217
0.00469054
0.0198215
2.29629e-15
1.68263e-15
2.79156e-15
0.0294454
0.0055265
2.66321e-08
8.7135e-15
2.00455e-15
4.32861e-15
0.0215537
0.00254854
1.50112e-15
0.00475405
0.0558109
0.00626918
0.005999
1.09318e-15
1.9097e-14
0.00671064
0.0223909
9.4729e-16
0.000334751
0.0143132
0.000931558
0.00912712
0.00454422
0.00773071
2.25136e-14
0.00326704
0.0202098
0.0352921
4.69251e-10
0.0220113
1.66136e-13
0.0160125
0.00014975
1.55064e-16
0.00248862
0.00726921
0.000393203
0.0112041
1.81722e-07
0.00012979
1.49982e-05
0.0382868
0.00352402
1.18111e-14
0.0374267
0.00123646
3.19914e-15
3.09901e-17
4.08381e-08
1.08989e-05
0.0010035
1.06253
0.0339478
0.0111264
1.98632e-07
0.042845
3.10115e-15
1.6708e-15
0.003858
3.968e-15
0.00194907
0.00406451
0.00208416
0.00451675
7.73168e-16
0.000192007
0.104262
1.71216e-15
0.0175892
0.00722665
5.87991e-16
0.00380813
0.000135519
4.67062e-16
6.32346e-09
8.62996e-05
9.79042e-15
5.30989e-16
2.70749e-16
0.00417301
0.0044988
0.0136165
3.55063e-16
0.00460448
0.0314349
1.98461e-16
0.00767396
0.0118838
0.0232543
0.0014317
1.25786e-15
0.000499549
0.00875557
0.00999894
0.00862665
0.0359194
0.155496
0.00308609
1.37868e-15
7.15624e-06
0.0485015
3.56177e-16
0.000401322
5.73906e-16
6.33402e-16
1.87518e-15
9.61264e-15
6.25093e-16
0.0030995
8.16673e-16
0.00678307
0.00112651
9.95959e-16
0.00374274
4.358e-15
0.013441
2.53929e-15
2.2134e-05
1.77605e-15
0.0207253
0.000144558
2.07254e-06
0.00402058
0.0274163
0.016008
0.00375451
0.0257944
6.52729e-12
0.0218798
0.0520721
0.00922396
1.07627e-15
0.00106783
0.000248082
0.00530873
0.010075
0.000592131
8.93444e-16
9.05656e-15
4.97295e-16
0.00339779
1.00836e-15
0.000272598
0.000210285
0.00154743
0.000241221
8.47845e-16
1.42048e-15
1.31035e-15
0.00822133
0.0200198
0.00116816
8.50964e-06
0.00179272
0.00652335
0.00171756
0.00081753
0.00654009
0.00576444
0.00252197
2.5797e-15
1.89722e-16
2.51714e-15
0.0125953
0.0104051
2.32282e-15
2.08005e-15
1.85244e-14
0.00789216
0.0176355
4.4154e-15
0.00209382
2.61195e-15
6.10241e-07
0.00448036
0.0843189
1.53983e-16
2.13421e-16
0.00355113
9.90428e-16
5.8325e-05
0.0114703
6.34678e-15
0.0102794
0.0310828
0.0178774
3.06899e-16
0.00135978
1.35242e-15
8.56218e-05
0.0460499
2.43124e-15
1.12941e-15
0.0102649
1.89818e-13
1.74987e-16
4.07991e-05
0.000917885
1.59164e-15
3.74364e-15
1.11641e-15
6.63526e-05
0.00113468
0.00305529
0.0238635
0.00821753
1.89903e-15
6.55101e-07
0.000654794
1.76526e-15
6.80234e-16
2.73653e-16
5.37995e-15
4.49924e-15
1.37579e-15
2.99493e-15
9.76176e-16
2.44398e-15
3.85203e-16
2.65074e-09
7.27007e-15
0.00031928
9.69106e-15
0.000220931
6.97244e-14
5.8352e-05
1.03146e-13
6.38183e-16
0.0265473
0.00866488
8.08212e-15
0.0827196
1.04911e-08
3.83768e-10
1.08738e-16
0.00111232
1.05638e-11
0.00255991
5.52563e-06
0.000831864
1.46796e-15
1.66754e-15
0.00110948
2.38944e-08
2.41457e-16
1.15134e-15
0.0366801
7.41238e-16
0.0351759
3.2061e-15
7.43266e-16
1.69222e-06
0.0263373
0.0075802
1.54944e-15
0.000292962
4.04833e-15
0.00295921
1.7537e-05
0.00169871
4.28257e-06
1.45647e-15
0.0191789
0.00110468
0.00481188
1.86825e-15
4.33948e-16
4.11653e-16
0.0176521
0.0036842
0.0489708
1.25369e-15
4.27023e-07
8.98549e-16
1.40094e-15
3.57112e-15
4.73313e-16
0.00308696
0.0020175
0.00285373
0.296098
4.09301e-15
0.0254586
0.0338258
0.0162818
0.00157799
1.41333e-15
0.00499877
0.00425207
0.00462811
3.29106e-07
0.00959353
6.33538e-16
0.00144916
0.00118326
0.0308078
1.00519e-06
0.00315071
1.87392e-15
0.016991
2.8028e-15
1.23661e-15
0.00156588
2.51193e-15
0.00577551
1.11818e-16
2.12441e-15
1.70159e-15
1.41263e-16
6.46264e-16
0.000767765
1.93485e-15
0.000529294
8.41045e-16
7.45117e-16
0.0167785
0.00506291
0.00736739
0.00706848
3.05365e-15
0.545853
1.52731e-16
0.0649669
2.25513e-15
0.0165623
0.0222658
0.00221034
0.0527765
3.72321e-15
5.88292e-14
2.80912e-15
0.00204587
2.8003e-15
3.28549e-16
0.0167307
3.6174e-16
8.65758e-16
0.00504892
1.39301e-15
0.0118045
6.56449e-08
2.9677e-15
6.20462e-15
2.48245e-14
0.00141973
0.00633173
1.23142e-15
0.021845
0.000324818
1.28421e-15
0.0945582
6.40828e-15
0.0148096
0.0170176
0.00343092
5.69325e-15
0.0169374
0.00940428
0.000812308
0.0049944
0.0113577
4.28358e-15
4.34704e-15
1.70341e-06
3.79769e-16
1.5735e-16
1.38825e-15
0.0186191
0.0464902
0.00421401
0.0020316
2.07016e-15
0.0469165
0.0431224
0.00399159
0.00217114
0.0087254
0.019535
0.00255031
1.53611e-15
3.46959e-15
2.35665e-16
0.0066493
2.75333e-15
0.0237144
2.60985e-15
0.000712401
5.20092e-07
0.00249479
0.0205282
1.80124e-15
2.81986e-15
0.00237204
0.000354428
1.51897e-16
8.91397e-16
5.38794e-15
3.5604e-05
0.000288794
0.00013831
0.00078312
0.0095509
0.0826293
3.4385e-15
8.84441e-16
6.8077e-15
0.0036875
0.0169589
0.0190631
0.0329627
0.00170426
0.00281284
3.87532e-15
6.49031e-16
1.51847e-13
2.81566e-15
0.00888988
0.0210466
2.26945e-15
2.55567e-15
1.44481e-15
1.64988e-15
9.03044e-15
8.73364e-15
0.0129693
2.21677e-14
0.000950459
0.388677
1.83155e-15
1.3592e-05
0.0215741
0.000692937
4.45047e-16
1.07188e-15
0.0047474
1.06457e-15
0.013527
9.40187e-07
0.0230956
9.89446e-15
2.20802e-12
3.20623e-16
2.99428e-15
5.61258e-15
1.66263e-14
0.189101
3.65869e-16
0.00568636
0.00117018
1.10639e-15
1.3772e-14
0.00190656
3.67246e-15
1.56017e-15
0.012436
0.000122537
2.18962e-15
1.73216e-14
2.58096e-15
0.016112
1.88768e-15
1.74274e-15
0.000408799
0.00253162
0.00298336
2.79273e-15
7.4357e-16
1.57433e-15
0.00364407
0.00178865
0.0123077
0.00353693
7.64545e-15
0.000745528
0.0112873
0.00615088
9.43317e-17
2.36344e-15
6.48491e-16
7.16146e-16
4.47979e-15
0.0294536
0.0050219
0.00547649
3.45123e-15
5.28145e-16
2.08044e-15
6.9582e-16
9.5084e-16
9.69269e-07
0.000205262
0.00214843
1.12e-15
8.17394e-15
2.25901e-15
2.20791e-09
0.0329663
0.109376
6.03393e-16
7.26838e-10
2.24639e-11
1.04064e-15
4.24575e-15
0.00365055
0.00629543
3.09889e-15
1.96563e-15
0.00269418
1.07189e-15
0.000662004
0.00104235
2.0166
1.38941e-15
2.05239e-15
0.0112385
0.000508444
2.17402e-15
0.640898
0.000567533
0.00615245
1.45438e-15
1.88286e-14
5.03861e-16
1.30503e-15
0.00798344
9.12164e-05
1.34091e-14
0.0237408
0.0182172
0.832142
2.48539e-16
8.05504e-16
3.12025e-16
8.8416e-16
0.00643486
6.61493e-08
3.27759e-15
2.48665e-14
0.0178321
0.0007814
0.00469471
3.50895e-15
2.20639e-16
0.0275134
5.08153e-15
5.72111e-16
1.4162e-16
2.67817e-15
0.0208335
8.81571e-15
6.84937e-16
2.91233e-15
0.0248013
0.011654
8.63501e-16
1.73016e-15
3.59123e-16
0.0146433
1.8078e-07
8.91058e-15
6.31877e-16
1.08753e-16
3.40593e-16
0.0022859
0.0105265
3.14282e-16
0.00194795
0.00104591
0.00458613
7.78769e-16
2.60288e-16
2.74107e-15
1.18593e-15
2.66083e-16
0.0186589
3.57424e-14
0.0140146
5.50011e-16
0.00146441
4.11398e-14
0.0022987
1.94286e-15
4.43584e-15
0.00971961
0.159725
1.91016e-14
0.00342582
8.83947e-15
0.000363545
3.39286e-15
6.08092e-15
1.08531e-15
1.15771e-07
2.5481e-15
0.000306206
1.05516e-15
0.0338635
1.65396e-15
1.18321e-14
1.99125e-15
2.40628e-15
7.47642e-06
0.000127819
1.91193e-15
0.00521016
2.60148e-15
0.00271745
0.0177181
0.00122369
3.98746e-16
4.48646e-06
0.000425926
2.06616e-06
0.00418319
3.20539e-07
0.00160029
6.04792e-15
2.01334e-15
4.20019e-07
0.00538287
0.000232238
4.04003e-15
3.86068e-15
3.21998e-15
0.542486
2.22148e-15
1.80472e-15
9.57595e-16
6.24634e-16
2.03424e-14
2.94365e-05
0.000173547
0.000954747
6.42561e-05
1.02395e-12
0.00132286
9.01713e-17
0.00531079
2.26838e-14
2.0401e-15
1.75499e-15
6.65281e-15
1.51554e-05
3.20362e-15
4.62015e-15
8.45765e-15
0.0139265
2.27537e-14
1.51521e-15
0.00982335
2.16653e-15
0.0697432
0.117484
0.526847
8.97623e-17
0.190358
1.09814
1.1299
0.617562
2.11574e-15
9.14531e-16
0.0046292
0.00437801
2.16829e-15
0.0087802
3.69892e-15
0.0304695
1.1989e-15
1.44634e-15
0.000668515
4.29831e-15
6.04868e-15
9.88638e-06
3.73146e-05
5.52972e-15
3.04841e-16
2.39972e-06
4.63369e-15
6.32438e-15
1.86003e-05
0.00772242
0.00141862
4.78704e-15
0.00729155
1.55984e-15
0.00328049
3.99892e-07
0.00684099
1.75874e-15
1.35379e-08
0.00528885
9.3172e-15
1.46297e-09
5.73781e-16
0.0304621
1.90961e-15
0.00910869
1.91079e-15
1.56657e-07
6.27573e-16
4.9514e-15
1.99607e-15
7.51316e-10
4.61008e-10
1.82423e-16
0.0113611
0.00842113
9.61754e-15
4.76081e-15
0.0304389
0.0162058
0.171795
1.30316e-15
6.43776e-05
0.023514
0.0432344
5.6079e-08
3.32648e-15
0.0536397
2.19506e-15
0.212583
4.75648e-15
3.49259e-08
3.38816e-08
2.08274e-16
5.24247e-05
3.09437e-15
0.0188872
2.29947e-15
1.41343e-15
1.62528e-15
1.70065e-16
1.37622e-15
2.84486e-15
0.000250881
0.00179428
0.126111
2.78551e-15
1.42116e-14
0.0383141
3.84472e-15
8.80447e-17
6.86376e-16
4.46262e-15
2.81876e-15
0.00540408
1.42445e-15
2.09175e-15
6.44105e-16
0.00300692
7.48201e-15
1.98978e-15
3.50876e-15
0.00298475
1.80447e-15
0.00557559
0.215477
0.00490155
0.00507601
0.0244235
7.95826e-16
4.20059e-15
8.37692e-15
0.00287346
0.00163583
2.10229e-16
6.59782e-15
0.000545338
7.73341e-15
4.02159e-16
0.310517
1.69182e-15
0.0202937
1.52595e-15
0.00216693
0.00307122
1.83388e-15
1.25559e-15
1.57093e-16
8.28744e-16
2.69203e-15
0.0171534
9.98267e-15
0.00425852
5.95464e-16
1.21622e-15
0.00630768
1.03944e-14
0.0117279
4.2585e-15
1.77227e-15
0.00217115
6.57102e-05
0.129514
1.05916e-15
1.14438e-15
8.48199e-15
0.0030881
0.164887
5.17219e-15
8.98854e-16
6.32607e-15
0.00136789
2.11612e-15
0.0179649
0.0284862
2.32923e-14
2.87591e-16
0.00652374
2.37338e-15
9.48065e-15
1.89824e-15
1.98943e-15
4.34219e-15
0.0627472
3.61761e-14
3.41376e-15
3.14381e-16
3.01982e-15
8.54739e-16
5.69495e-15
1.81981e-15
1.87793e-15
7.97366e-15
0.00683362
1.26337e-15
0.00770976
3.20757e-14
4.3813e-15
0.535914
0.00246588
1.90801e-15
2.46131e-15
2.25982e-15
0.0021806
5.66363e-15
3.78563e-15
7.36709e-15
5.81934e-16
0.00666939
2.08892e-15
0.00437735
1.96688e-15
0.00889436
3.08919e-15
0.0525813
1.06493e-14
1.21837e-15
0.0195622
4.62832e-15
3.38516e-16
0.024771
0.000262647
1.49769e-16
7.0637e-15
0.0335895
0.00927426
0.00582666
0.000753
0.00163628
0.0159867
0.000915098
0.00451783
1.71344e-15
0.0260124
6.11044e-15
2.17938e-15
1.27575e-15
7.37288e-15
9.06889e-15
0.00938452
6.94478e-16
5.30074e-15
1.37592e-16
3.52776e-06
7.95808e-06
1.96567e-14
0.00215683
3.51626e-15
0.00383274
8.32833e-15
1.14521e-06
0.00282768
1.64944e-13
0.0409557
1.05556e-16
7.16467e-16
1.73452e-15
0.00266748
0.00118466
4.76798e-17
1.11477e-15
0.00224118
3.11831e-15
0.610425
2.62131e-16
0.0925053
1.85701e-15
1.52903e-15
3.81842e-16
2.81641e-16
0.00897732
1.37049e-15
3.5842e-05
2.23181e-15
0.00899833
1.6805e-15
1.71971e-16
4.75598e-12
9.00093e-16
3.44262e-15
2.47068e-14
2.17446e-15
7.83559e-16
0.00390659
0.176403
8.73221e-15
1.44088e-15
0.000343556
1.01279e-15
5.86191e-17
1.01817e-06
0.0157113
0.000140124
1.74196e-14
0.000611228
0.0030828
0.00478082
0.00760084
2.40128e-15
2.49834e-14
3.57067e-15
2.65346e-15
1.56945e-16
1.40215e-15
1.56372e-14
3.27426e-15
6.1467e-15
4.31894e-15
1.71085e-15
1.37327e-15
0.068911
2.69885e-16
5.13565e-16
3.49012e-11
6.44768e-16
2.84645e-15
1.0161
4.26309e-16
2.27708e-16
0.00181877
1.73185e-09
8.5721e-16
2.25681e-15
6.85159e-16
0.0210214
2.97734e-15
1.71876e-15
4.62802e-08
1.909e-16
5.71018e-15
7.97475e-16
8.29899e-15
0.109155
1.59454e-15
0.00015833
7.76441e-16
1.15585e-16
6.70244e-16
1.96528e-15
1.45044e-15
1.71546e-08
3.22669e-08
0.000104392
2.87746e-16
8.9375e-16
4.63255e-16
8.95914e-08
8.73788e-16
2.74983e-07
9.91268e-09
7.72429e-15
3.31306e-15
2.21769e-15
5.18676e-09
5.73307e-16
2.07607e-15
2.07262e-09
1.10647e-14
0.0292139
2.19983e-15
0.00648301
1.44215e-14
2.14703e-06
1.88552e-15
0.00134955
1.95589e-15
0.00385146
0.0238518
1.02699e-14
0.00238082
1.31115e-05
1.88013e-15
0.00998841
1.75856e-15
2.65807e-16
3.07419e-16
1.57228e-15
6.53718e-15
9.94996e-16
1.37112e-15
3.54544e-16
0.262745
9.61119e-16
1.57475e-15
6.41253e-16
1.11243e-16
2.97044e-16
0.0299784
0.772323
2.88912e-06
1.05493e-05
6.64819e-16
0.00194107
0.00134942
1.60763e-15
2.80034e-15
3.06846e-15
2.89018e-15
1.37737e-15
2.44942e-16
3.91462e-15
2.11511e-15
0.000368702
1.93735e-14
4.54851e-16
0.000207679
3.30042e-06
8.16873e-15
0.0245973
2.26231e-15
1.10259e-15
3.40384e-15
0.16284
1.6421e-15
2.28168e-16
0.0242284
1.06621e-15
4.32226e-15
8.27261e-16
7.63261e-15
0.0519363
7.87609e-16
1.8757e-15
7.72581e-16
1.4828e-15
0.00570932
0.226708
0.0276108
0.0422226
0.00357426
0.000237412
1.37054e-15
3.48631e-15
0.133811
0.00127097
4.44388e-15
8.24637e-08
1.45554e-15
7.10465e-11
1.5839e-15
0.206675
2.54257e-15
2.38914e-15
0.000219352
1.77981e-10
1.62599e-16
0.00992974
1.01066e-15
3.94792e-15
0.198898
0.0292253
1.60692e-15
1.25683e-15
3.60392e-16
7.0944e-16
3.4015e-16
2.23094e-14
2.70334e-15
6.46766e-16
0.00311206
2.63929e-16
2.71431e-15
4.46867e-15
1.33174e-05
7.35938e-15
3.88316e-15
3.65149e-15
7.44877e-16
2.24844e-15
2.13762e-16
0.00322297
1.67988e-15
8.73108e-16
0.00488229
6.62323e-17
0.000366919
0.00457175
2.47423e-15
0.00331821
1.91076e-15
4.82221e-16
4.03593e-17
1.09475e-15
6.20703e-15
1.40243e-15
4.05947e-15
2.7276e-15
0.00227294
3.52322e-16
8.76831e-15
3.58158e-17
1.69124e-15
1.55402e-15
9.97331e-15
0.0361668
9.58306e-16
1.08639e-15
0.337609
3.68387e-16
6.69384e-17
6.48782e-15
0.00120789
6.73428e-16
5.60488e-06
1.36353e-15
5.304e-05
0.00805291
1.82533e-15
3.26322e-15
0.0399669
2.26825e-14
2.1372e-15
0.000119524
6.58213e-07
0.0098115
2.15578e-06
8.20009e-07
1.1754e-07
7.65058e-16
2.49042e-15
0.000974686
0.00012747
0.0165836
0.0119449
3.00984e-05
1.58991e-16
0.00548632
0.0050725
0.018248
5.7953e-15
0.0121594
0.0166252
0.00265581
0.0013486
0.00115188
0.00324399
0.0190085
0.0400865
0.00714963
0.0109794
0.00794265
7.42002e-15
0.00284161
0.00360513
0.000814843
0.00267054
0.0142704
0.0136201
0.0196625
2.305e-15
0.0107797
2.12084e-14
0.00492423
0.0027654
0.000286915