/*--------------------------------*- C++ -*----------------------------------*\
  =========                 |
  \\      /  F ield         | OpenFOAM: The Open Source CFD Toolbox
   \\    /   O peration     | Website:  https://openfoam.org
    \\  /    A nd           | Version:  10
     \\/     M anipulation  |
\*---------------------------------------------------------------------------*/
FoamFile
{
    format      ascii;
    class       volScalarField;
    location    "13.5";
    object      T;
}
// * * * * * * * * * * * * * * * * * * * * * * * * * * * * * * * * * * * * * //

dimensions      [0 0 0 1 0 0 0];

internalField   nonuniform List<scalar> 
111485
(
303.15
285.108
300.975
303.15
298.416
283.15
298.924
293.418
296.323
286.243
300.516
296.218
300.206
284.572
299.977
286.752
299.349
297.708
294.042
303.15
303.15
283.15
297.244
288.702
301.593
303.15
293.201
300.641
288.839
303.15
300.794
294.353
303.15
283.15
283.451
283.15
302.319
297.597
283.149
296.606
283.15
289.578
297.029
302.877
303.191
303.15
287.374
288.561
289.612
303.15
303.15
283.15
303.15
298.925
303.15
293.498
287.901
283.15
283.321
295.443
295.845
303.15
302.054
300.25
283.15
284.565
300.247
291.543
302.106
302.524
303.159
301.89
303.15
302.104
303.15
295.398
283.15
293.455
283.15
283.15
283.237
293.343
283.15
303.15
300.307
284.225
283.15
301.554
303.117
299.094
283.345
289.601
300.856
300.402
289.79
303.15
303.15
301.554
303.149
283.419
303.15
286.65
283.15
285.163
285.737
283.15
283.15
293.091
301.44
283.146
298.901
288.018
301.281
301.683
303.15
301.972
303.15
283.15
300.133
303.15
303.15
283.15
283.15
283.15
283.393
303.151
283.15
301.806
303.15
283.176
303.101
301.942
303.15
283.15
283.15
292.494
283.15
294.188
298.797
301.1
303.136
296.814
298.976
284.782
302.283
297.791
283.15
303.15
283.15
297.13
284.946
303.15
303.144
287.305
283.156
293.703
295.624
302.526
283.154
303.15
303.15
292.172
286.249
283.153
283.157
301.18
283.689
283.15
283.152
283.152
283.15
303.15
283.208
283.15
291.551
287.179
283.15
303.15
303.15
283.15
303.15
303.15
297.64
293.488
295.775
289.732
301.364
300.415
283.191
303.15
301.442
303.15
303.15
300.152
286.271
301.401
301.34
295.736
303.15
300.876
284.602
283.16
300.757
297.084
303.15
300.408
288.221
303.15
283.227
300.181
284.82
300.683
303.15
303.15
300.697
283.15
292.783
283.15
300.603
298.672
290.361
303.15
301.742
300.545
283.15
283.15
283.15
289.518
283.157
283.15
303.15
298.624
291.364
289.863
283.15
303.15
303.11
303.15
284.338
300.084
299.245
299.501
299.371
283.15
283.144
298.856
283.15
283.15
288.759
288.334
283.15
301.17
298.871
303.15
283.15
301.076
303.15
303.15
303.121
303.15
288.273
285.87
290.754
303.15
298.325
303.15
303.15
303.15
283.148
298.07
300.969
299.412
291.211
299.466
296.227
283.212
290.32
291.559
283.15
303.15
283.149
292.459
298.757
286.468
303.15
297.993
297.257
298.877
302.96
283.166
297.083
299.349
302.031
283.15
283.612
283.15
283.149
303.15
283.881
290.272
286.266
303.15
283.15
297.584
285.249
303.15
303.15
303.15
284.572
290.229
301.051
284.412
292.998
283.15
283.15
303.15
298.347
303.15
283.811
289.494
283.153
283.15
303.15
303.15
283.15
294.324
289.964
283.15
295.695
283.15
303.15
301.043
297.284
294.001
295.803
283.15
283.15
283.15
296.594
290.984
302.389
283.15
283.15
283.15
290.08
296.933
283.213
290.449
283.15
292.768
299.547
284.195
298.652
285.25
283.15
303.15
283.15
303.15
290.677
296.702
287.947
291.933
283.15
286.345
283.15
303.15
293.795
303.15
301.759
303.15
283.15
291.945
283.15
288.754
284.633
283.15
283.988
298.013
283.15
300.144
284.688
298.833
303.022
291.023
286.008
283.15
303.15
303.145
283.15
300.981
300.831
283.15
283.15
294.738
284.36
298.179
296.904
283.15
295.101
296.095
283.15
302.064
283.893
303.15
303.15
288.219
298.58
283.15
303.15
303.15
303.15
300.748
283.15
303.15
293.974
283.17
286.886
299.949
283.15
283.15
302.621
283.15
302.46
301.423
297.841
288.751
283.15
293.877
303.379
303.15
298.634
292.296
303.15
283.15
283.307
283.15
290.038
286.078
291.614
283.15
292.837
296.592
293.03
303.147
283.15
303.15
303.15
283.169
292.697
283.15
284.326
303.132
283.15
303.15
303.15
303.15
301.862
290.483
285.997
284.199
284.306
283.15
285.703
303.15
300.715
283.15
303.15
303.15
300.656
303.15
303.15
283.151
303.15
283.15
300.658
283.15
283.15
283.15
303.15
283.15
303.15
283.15
283.672
283.15
303.129
301.879
283.75
283.15
303.086
283.15
303.15
284.702
284.674
286.117
297.52
283.15
297.474
297.585
292.257
286.788
285.258
303.15
291.722
283.15
299.849
283.15
296.783
283.15
292.048
298.548
303.151
283.15
286.769
303.15
295.508
299.073
283.15
283.15
283.15
283.15
303.15
293.669
283.15
283.15
283.239
283.15
299.801
283.15
284.793
303.15
283.432
303.12
284.648
291.878
283.15
301.446
283.15
283.15
285.692
283.15
283.258
283.15
299.663
303.15
290.672
303.15
283.15
302.401
284.461
300.071
285.644
300.07
289.469
283.15
300.613
284.538
283.15
283.14
300.32
301.582
283.15
282.453
301.048
303.061
283.118
303.15
287.566
302.17
284.396
285.38
288.157
282.562
283.15
303.15
300.648
303.15
283.555
283.15
283.15
291.764
282.679
303.149
303.117
283.15
286.264
299.585
283.15
283.15
299.603
303.15
283.15
283.15
283.15
286.145
283.15
303.15
284.816
284.228
303.15
299.706
283.15
289.253
303.15
283.15
286.144
283.15
283.15
283.15
285.363
283.15
285.442
291.96
303.15
300.367
283.446
298.69
300.952
283.311
283.459
283.15
288.966
298.436
303.15
302.265
296.013
296.867
284.722
297.432
297.187
303.15
300.234
303.135
283.15
297.131
284.84
283.15
292.371
295.704
284.856
298.758
300.624
292.329
283.15
298.902
283.466
303.15
300.584
301.969
294.086
283.15
286.464
303.15
283.15
283.15
283.15
283.304
283.15
303.15
303.15
283.15
300.42
299.234
303.15
285.613
303.15
303.15
303.15
290.025
283.424
283.15
303.15
283.15
283.15
286.819
292.377
283.15
295.122
283.137
283.15
295.296
302.214
287.74
283.15
283.15
300.244
292.074
283.15
283.15
283.15
293.988
303.15
303.15
283.15
296.227
302.367
283.15
282.401
301.777
286.512
283.15
283.15
287.463
302.966
283.15
283.16
287.282
283.764
288.793
283.15
285.708
300.272
283.15
303.15
283.15
283.15
283.15
283.15
295.651
303.15
283.15
283.15
295.266
291.796
303.15
303.15
289.834
298.396
298.295
303.15
283.15
297.965
303.15
283.83
298.821
298.333
303.15
303.15
303.15
283.15
286.051
283.15
283.15
302.712
303.15
297.8
302.263
283.15
294.041
283.264
296.422
291.981
283.422
289.775
283.15
283.15
296.868
288.065
290.844
283.15
283.15
297.756
294.95
283.15
283.908
284.592
283.474
303.15
303.15
303.15
290.745
283.15
300.042
283.15
284.369
297.589
298.492
292.253
283.15
283.15
303.15
295.364
283.15
283.15
303.101
283.15
283.15
303.15
283.15
299.304
283.15
283.15
283.15
283.15
283.15
303.15
283.15
283.172
298.769
303.15
302.537
283.131
283.396
283.095
285.523
283.15
284.443
290.535
283.396
303.15
283.149
299.723
283.15
300.239
283.147
283.143
286.209
297.478
283.213
291.896
298.034
283.15
283.15
299.047
299.786
283.15
297.336
291.268
297.602
283.15
283.245
283.15
297.906
297.035
283.15
300.064
297.683
283.149
299.764
283.15
295.641
283.144
303.125
283.162
283.16
283.15
283.15
284.436
283.15
302.968
283.587
283.06
303.148
303.149
303.147
283.15
283.15
293.798
303.15
303.187
283.862
283.15
283.15
303.154
303.149
283.15
303.165
283.15
283.15
303.15
303.15
303.15
303.15
283.366
283.15
283.15
283.15
303.157
283.304
283.888
293.453
283.15
283.15
283.333
283.15
283.15
283.15
287.235
293.581
283.15
283.15
283.15
283.15
283.15
283.15
284.001
283.15
303.15
291.576
283.15
303.15
303.15
303.153
303.15
303.15
283.15
303.171
283.15
283.694
283.145
303.152
283.15
303.062
284.397
292.068
303.15
303.128
284.439
303.15
283.15
303.15
283.15
294.025
293.473
284.634
303.148
283.15
293.21
283.15
283.15
303.15
283.15
294.832
283.15
303.15
283.163
298.153
303.15
284.374
283.15
283.576
283.15
283.15
283.15
303.15
285.82
283.474
284.212
283.15
283.15
285.617
283.15
283.15
303.15
284.336
303.164
298.543
303.15
303.127
303.128
283.15
303.13
283.15
283.447
289.142
301.056
283.798
283.166
283.15
283.15
283.15
303.183
283.15
302.902
303.15
292.767
303.15
288.723
283.829
303.15
283.15
303.15
283.15
301.786
303.15
303.15
286.389
300.554
283.15
283.15
283.15
283.15
283.15
283.15
300.805
283.578
303.15
303.15
303.157
303.15
300.191
284.425
283.15
302.11
303.15
301.623
283.15
302.571
283.15
283.148
303.152
283.315
302.114
300.225
283.147
283.15
289.356
303.15
293.37
303.15
283.15
303.15
283.15
283.15
283.15
300.801
302.052
303.15
303.15
303.15
302.907
283.15
303.15
292.877
283.085
303.15
297.532
298.356
296.483
283.377
283.15
283.15
283.15
283.15
294.615
283.15
294.831
283.15
303.059
289.846
283.15
302.862
283.15
283.15
302.738
283.148
302.917
283.15
303.15
283.15
302.389
283.15
303.15
283.15
283.148
283.15
283.171
283.15
283.15
303.15
293.016
301.102
296.112
297.01
303.15
303.116
283.15
283.15
285.665
283.15
283.158
302.846
298.807
302.941
303.15
283.361
283.15
303.15
283.15
302.991
283.32
298.349
283.15
303.15
288.086
303.15
283.15
283.125
295.078
283.147
283.15
283.15
283.149
303.15
283.15
303.142
303.15
303.15
289.895
302.986
302.994
288.971
293.241
283.15
283.15
303.086
289.042
283.15
303.15
284.732
283.15
303.15
283.15
283.15
283.15
297.472
283.15
302.939
283.15
300.482
283.15
283.15
283.15
283.15
283.15
283.15
285.011
283.15
283.15
283.15
283.15
283.15
283.15
291.976
283.15
298.419
302.935
283.15
302.348
283.15
302.517
303.145
292.328
288.803
303.15
292.192
284.765
303.11
303.15
303.14
295.098
288.683
283.15
287.901
283.15
283.15
283.15
283.15
287.528
283.15
283.15
291.674
303.135
285.323
283.15
283.15
302.535
283.15
283.184
303.15
299.912
283.15
283.15
302.827
283.15
303.178
303.15
283.15
289.074
298.034
292.735
285.643
292.573
294.13
283.15
283.15
302.284
290.609
292.755
284.414
283.15
294.42
283.15
303.15
300.727
298.779
283.15
297.448
283.15
292.786
297.2
303.15
283.15
283.15
301.771
283.15
283.15
300.496
296.16
283.198
291.245
283.15
283.15
302.793
300.515
283.15
300.64
283.15
300.495
283.15
283.15
300.798
283.15
283.227
301.596
283.15
283.15
302.432
283.15
287.912
303.15
290.388
303.15
303.15
303.15
300.942
283.15
283.15
299.532
283.15
302.987
283.15
283.15
303.15
283.151
288.203
283.15
283.15
288.066
288.246
283.15
283.675
283.15
303.15
302.422
283.713
301.566
283.15
283.15
283.15
283.15
283.15
283.15
283.15
283.15
283.15
283.15
283.15
303.15
283.15
283.15
283.15
283.15
283.15
283.15
283.15
283.15
303.15
286.947
283.15
283.15
283.15
294.696
283.15
303.15
302.934
283.15
283.15
294.702
283.15
283.15
301.838
295.18
283.15
303.656
303.594
283.15
301.483
293.951
297.538
301.471
298.137
303.15
283.15
296.439
291.734
301.414
283.15
302.139
302.421
300.867
288.052
287.327
301.055
301.781
301.78
303.15
285.881
297.536
285.504
297.239
283.15
283.15
283.15
303.15
283.15
291.96
297.916
283.15
283.15
283.15
283.15
283.15
303.15
283.15
303.15
292.153
303.115
299.014
302.845
283.15
283.15
285.396
283.168
283.15
283.15
301.743
303.15
283.15
298.154
299.511
297.521
298.642
300.802
303.15
291.063
302.581
303.15
303.15
300.314
303.15
283.15
282.977
295.556
302.947
283.15
303.15
289.588
286.174
297.191
292.16
302.411
303.15
303.137
303.15
303.15
283.15
299.01
283.15
291.764
290.471
299.686
284.766
303.15
301.921
303.15
283.15
303.15
303.15
291.513
299.608
283.15
303.15
303.133
291.743
303.03
299.349
292.804
288.337
292.901
283.15
303.15
283.15
291.243
298.3
303.151
303.15
303.15
303.15
297.492
302.573
283.15
299.97
301.146
284.852
299.515
303.15
303.15
298.683
292.949
283.15
302.9
299.717
302.616
291.939
297.305
298.243
303.15
286.994
298.216
291.341
283.15
289.055
303.15
288.396
301.055
303.15
288.722
301.276
300.117
293.159
283.149
283.159
283.24
301.668
300.915
303.15
288.833
301.476
303.15
283.15
303.15
303.21
298.751
290.751
296.788
303.256
283.149
297.492
303.15
303.15
292.782
303.15
300.321
283.303
301.315
291.555
303.15
283.659
293.207
303.15
283.056
298.683
303.15
300.693
286.265
303.15
303.15
283.998
303.15
283.15
283.15
285.924
299.298
291.179
303.15
285.193
297.471
283.15
298.847
298.881
288.983
303.108
283.15
301.534
299.675
298.847
300.081
288.674
290.766
302.496
303.15
301.551
288.732
303.15
298.858
283.15
283.15
303.15
283.15
303.15
297.45
283.15
300.525
283.643
303.15
283.799
283.15
289.859
303.15
303.144
303.15
294.158
303.001
303.119
299.86
290.428
289.448
290.605
298.406
303.15
299.386
292.147
298.941
303.15
283.879
283.45
299.247
287.181
283.512
303.15
283.15
303.15
285.301
303.15
303.329
284.697
303.363
302.959
303.15
303.15
283.15
300.543
300.683
285.469
303.087
287.01
295.667
301.887
292.488
288.138
302.088
296.098
283.15
283.15
303.15
285.824
289.713
283.15
283.15
303.15
301.994
288.689
303.15
296.391
303.15
283.156
285.163
301.173
303.15
303.15
292.261
303.15
283.3
290.629
283.15
297.153
294.657
296.146
303.15
302.713
283.15
302.669
293.421
303.15
303.15
288.807
283.15
303.15
301.8
284.445
303.15
303.15
283.15
302.345
303.473
289.454
299.695
298.125
303.15
303.159
302.597
303.15
283.15
303.15
303.15
303.15
303.15
303.15
303.15
303.15
283.15
303.15
303.15
283.34
303.15
303.34
303.15
303.16
303.15
303.15
300.921
303.685
303.15
292.014
303.15
303.15
283.15
302.558
303.15
302.147
303.115
283.292
283.15
303.15
302.574
283.149
303.15
303.15
291.346
283.15
292.572
283.15
283.15
283.153
291.198
284.842
303.15
296.671
283.15
303.744
303.133
284.323
302.594
283.15
292.147
303.084
301.67
283.15
303.15
283.15
304.101
284.829
296.914
303.15
303.15
303.15
303.15
303.15
303.15
302.355
302.813
297.626
292.063
303.15
287.15
292.622
284.987
303.208
283.15
286.923
302.757
284.777
283.148
287.481
303.15
283.385
302.923
292.512
302.85
301.884
303.15
302.255
303.15
303.15
297.944
303.15
284.477
303.15
303.15
283.15
303.15
303.15
302.849
303.15
283.299
283.15
283.15
285.82
284.857
300.938
286.123
303.15
294.741
303.15
290.458
303.15
287.148
300.682
301.481
293.344
303.15
303.15
303.15
289.823
283.15
303.15
289.575
283.15
283.15
301.819
303.15
286.184
283.148
283.15
303.15
303.15
300.666
298.188
303.15
293.419
303.036
283.15
298.617
303.15
286.416
288.237
302.145
303.15
296.296
296.792
302.954
301.884
301.66
303.15
303.15
303.147
303.15
283.15
303.15
289.578
300.22
294.349
302.126
283.15
300.367
291.375
298.235
283.594
298.318
289.608
302.162
283.15
283.15
283.15
302.208
283.15
290.43
283.15
301.256
303.161
289.733
298.078
283.15
303.15
301.244
301.221
303.15
283.15
303.15
286.429
301.44
302.978
302.34
298.027
288.445
303.15
303.15
303.15
294.233
285.978
289.805
295.878
283.965
302.957
303.15
303.15
283.15
283.15
285.434
299.603
303.15
303.15
283.15
303.15
303.15
303.15
300.253
303.15
285.359
292.408
283.15
283.25
293.386
285.697
303.15
303.15
301.887
303.15
299.226
283.147
297.576
303.15
303.15
283.15
303.15
303.15
303.15
305.214
303.15
301.838
301.14
303.15
303.15
301.614
303.15
283.15
287.257
303.103
303.15
303.15
303.15
297.932
303.15
303.15
302.452
302.489
301.777
303.15
283.15
303.15
302.044
302.513
301.523
302.534
283.15
300.662
287.486
297.458
283.15
303.15
303.15
303.15
303.15
294.373
287.577
299.697
303.15
303.15
303.15
303.15
283.15
303.148
284.774
285.157
283.15
303.15
303.15
283.148
299.575
294.911
283.15
303.15
303.15
303.15
303.15
289.622
289.689
303.15
303.15
302.413
303.15
301.476
283.956
291.851
303.15
283.15
301.197
303.123
303.15
303.063
301.32
286.851
303.15
303.15
303.15
303.15
293.312
284.149
303.15
302.695
298.068
289.42
303.15
303.15
303.15
303.15
299.559
303.151
303.15
303.15
298.267
302.606
288.345
303.15
303.15
297.76
303.15
303.15
303.15
303.15
288.824
303.15
283.15
283.15
295.932
291.112
303.15
303.15
303.15
297.015
303.146
303.15
303.15
303.15
303.15
303.404
300.87
303.15
287.353
302.646
299.39
303.15
303.15
303.15
303.15
283.15
285.668
303.15
302.843
283.15
302.179
303.15
303.135
303.15
283.15
301.965
285.691
283.15
302.834
303.15
302.418
283.15
303.15
303.15
303.151
303.15
283.274
303.15
290.858
283.15
283.15
303.15
303.15
298.842
302.371
283.15
302.425
283.15
284.107
287.985
302.699
283.15
303.155
302.985
303.134
284.397
283.156
302.984
283.15
283.15
283.156
302.076
302.291
303.15
283.15
283.15
295.407
303.15
283.15
303.15
303.15
303.15
303.108
303.046
302.927
302.445
303.15
302.909
303.15
284.79
303.15
303.15
283.15
303.15
303.111
303.15
283.15
303.15
288.323
303.15
303.15
303.176
283.15
302.867
302.068
296.716
303.15
289.374
294.544
283.827
290.013
283.15
283.15
287.212
284.313
283.15
303.816
283.15
286.409
303.15
283.15
303.156
303.15
303.15
303.016
303.155
303.15
283.15
303.138
303.15
283.15
283.105
298.732
302.7
303.15
301.839
303.15
285.706
303.152
301.175
303.15
303.15
301.038
303.15
303.15
303.15
287.699
303.15
285.147
303.15
303.147
303.15
283.15
283.15
303.15
303.15
303.15
288.718
302.546
303.15
303.15
288.598
286.518
291.226
303.15
302.697
287.677
287.539
303.15
303.15
287.683
283.15
291.921
303.15
303.152
303.149
303.15
300.525
283.15
302.329
283.15
303.15
303.15
303.15
303.15
303.15
284.318
302.246
291.063
303.15
303.15
290.591
303.15
303.15
303.15
303.15
303.15
300.154
303.15
303.15
283.15
299.462
303.15
283.15
303.15
301.368
283.15
299.959
290.79
302.686
300.022
299.442
303.15
303.15
303.15
300.842
288.472
283.15
303.15
300.316
303.15
303.15
292
303.15
287.49
303.15
297.833
284.323
303.15
283.15
303.15
303.15
303.15
285.26
303.15
300.486
303.15
303.15
299.7
283.15
284.72
303.15
303.15
288.122
301.565
296.445
303.15
303.15
303.15
301.582
292.244
303.15
283.15
303.15
300.67
303.15
284.743
296.326
303.15
303.15
301.136
303.15
303.15
283.15
303.15
283.15
294.584
303.15
283.15
303.15
303.15
303.15
303.15
303.15
303.15
283.15
301.532
283.15
302.075
303.15
303.15
296.127
300.472
303.15
283.15
303.15
300.877
283.15
303.15
303.15
303.15
300.733
303.15
297.684
303.15
285.834
283.15
286.724
303.15
303.15
298.511
283.15
303.15
287.836
283.248
303.15
303.15
285.094
283.839
300.845
301.729
301.182
293.181
301.735
283.845
303.15
297.719
283.15
283.15
303.15
303.15
303.15
301.21
303.15
303.15
303.15
303.131
283.169
283.15
283.565
303.15
302.009
283.15
303.142
296.095
283.15
294.57
303.15
303.15
283.15
299.884
283.926
303.15
283.15
299.912
303.15
297.721
303.15
295.268
303.15
283.15
303.15
283.15
299.425
283.15
283.226
283.15
286.192
303.15
303.15
283.15
283.15
303.15
303.15
303.15
303.15
284.869
284.74
283.15
303.15
283.234
283.15
283.15
303.154
289.875
283.543
283.15
301.496
284.888
300.477
288.176
303.15
303.15
303.15
303.15
283.15
283.15
283.15
303.15
283.15
283.15
303.15
283.15
297.24
283.15
303.15
283.15
303.15
303.15
283.345
283.15
303.15
301.939
303.149
303.15
303.15
303.15
288.728
283.15
303.15
303.149
283.15
303.15
303.15
303.15
295.332
283.15
283.181
303.15
303.15
303.15
303.15
303.15
303.149
303.147
284.109
303.15
283.15
303.15
303.149
303.15
303.148
303.149
283.15
283.15
283.15
303.15
303.15
283.15
303.149
283.15
287.709
283.15
301.801
283.15
303.154
303.15
284.601
283.15
284.445
297.388
303.15
284.683
303.173
303.15
297.398
283.15
303.15
303.15
303.15
303.15
283.15
303.15
303.15
299.158
283.15
303.15
303.15
303.15
303.15
292.345
290.406
303.17
283.164
303.15
301.812
302.321
303.15
283.15
283.15
303.15
303.15
303.15
283.15
283.15
283.814
303.15
303.15
303.197
303.151
283.15
288.863
303.15
283.15
303.15
288.034
303.15
283.15
302.107
283.15
283.15
283.15
303.15
299.654
303.15
303.15
303.15
283.15
284.494
293.581
295.215
289.547
303.119
303.016
283.15
283.15
301.07
283.687
283.15
303.149
303.15
303.15
283.15
294.539
303.15
283.15
302.976
303.15
303.15
283.787
303.15
303.15
288.386
289.544
303.15
283.15
303.15
283.15
303.15
303.15
303.15
303.15
283.942
303.15
303.15
303.15
302.925
303.15
303.15
283.15
283.15
283.15
283.15
302.938
283.15
283.15
300.953
303.15
284.757
284.916
303.15
301.115
303.15
283.15
303.15
283.15
283.15
303.15
303.15
303.15
302.662
303.15
303.15
303.15
283.15
303.15
283.15
286.37
303.15
303.15
291.582
303.15
283.15
283.15
302.415
303.15
303.147
283.15
303.192
286.661
283.15
283.15
299.193
283.15
283.15
303.053
303.161
293.352
303.167
303.151
303.152
283.15
283.15
302.64
283.45
285.823
300.858
283.157
283.15
291.06
301.568
301.47
283.15
300.224
290.712
300.156
302.207
302.736
284.665
295.469
299.211
286.264
293.321
300.111
303.15
298.018
297.566
302.782
283.669
292.33
301.153
287.339
303.15
301.021
303.15
300.721
301.487
283.641
284.991
303.15
283.15
302.297
301.677
283.145
303.173
288.561
302.678
301.846
300.814
303.15
303.231
301.135
295.045
300.45
288.942
302.91
301.667
302.207
302.271
284.22
302.498
301.588
283.179
303.15
302.893
303.15
303.15
302.085
301.994
294.295
303.15
284.68
292.265
292.351
300.886
303.15
284.008
285.197
284.398
303.15
298.782
303.15
296.435
295.369
300.731
303.142
303.15
303.15
301.936
301.249
302.78
303.15
292.629
302.745
289.969
283.15
298.394
294.01
303.15
300.535
283.15
283.204
283.15
302.567
303.098
303.15
302.985
298.379
283.148
300.517
302.223
295.358
283.53
295.836
297.057
283.458
303.133
284.743
296.378
283.32
296.859
300.489
300.241
300.353
301.985
289.772
301.568
303.15
302.724
302.654
302.668
296.577
302.895
283.15
302.012
293.464
303.15
283.43
286.853
301.204
302.589
290.538
284.828
287.7
302.614
296.362
303.15
303.15
294.976
283.15
292.629
283.427
303.15
290.579
290.248
283.915
303.15
297.295
298.552
284.237
301.235
294.21
290.186
300.538
303.113
303.15
303.15
283.532
302.611
283.345
285.805
303.15
303.022
303.036
303.15
285.416
300.864
297.846
283.247
299.546
302.36
300.501
286.916
283.15
303.105
301.805
283.734
283.138
303.15
303.074
303.15
303.15
284.187
302.532
296.441
283.038
283.153
303.15
283.15
302.953
303.043
302.5
301.406
303.15
283.15
283.15
301.818
301.873
283.215
295.943
303.15
303.15
301.612
285.503
283.26
301.675
301.778
301.719
284.394
303.15
283.15
298.52
297.766
303.15
302.696
302.073
284.707
284.989
302.105
303.06
303.15
298.146
284.426
283.15
303.15
300.599
301.215
302.01
289.634
302.066
285.669
300.152
300.325
290.353
297.541
303.15
303.15
300.936
284.466
302.084
283.151
300.487
301.699
283.631
288.303
302.415
283.15
283.15
283.029
303.15
303.15
299.946
298.95
302.277
283.147
283.15
283.941
283.151
283.15
283.151
303.08
300.919
299.159
295.882
283.364
303.094
300.131
303.15
283.15
302.557
289.257
300.793
292.731
283.51
303.059
283.148
283.15
302.833
301.207
302.608
283.155
291.262
284.888
303.15
284.245
301.038
283.15
283.308
284.946
284.175
283.15
283.15
301.634
283.15
289.39
302.525
302.699
301.791
283.476
298.296
290.116
283.15
303.342
292.054
283.15
283.15
283.15
303.15
301.225
302.411
299.18
301.462
299.942
288.852
283.155
291.009
290.179
303.061
291.089
299.998
292.09
283.15
286.301
301.077
301.565
283.15
283.993
299.657
283.15
303.15
283.187
301.275
303.15
284.013
302.272
303.018
303.15
283.15
292.816
303.153
301.688
283.15
283.15
283.15
302.185
297.591
303.143
302.193
303.167
303.15
288.369
303.167
290.456
300.224
300.183
296.567
283.157
301.696
283.15
290.607
301.411
289.458
290.505
298.973
300.702
301.594
287.188
291.168
285.02
283.172
302.211
286.123
283.15
283.144
300.201
283.079
300.296
287.003
296.105
299.433
289.221
299.277
283.121
299.197
283.15
289.955
289.093
298.661
283.328
283.15
300.555
283.15
302.795
283.15
303.15
286.478
286.475
283.15
298.991
298.612
287.045
303.15
303.15
301.714
289.806
302.996
283.732
301.573
287.115
303.147
284.183
288.201
303.15
301.418
283.15
283.15
287.574
287.007
283.145
285.265
301.494
286.248
301.244
303.15
285.125
301.743
291.216
303.15
303.15
301.61
302.04
303.15
293.02
294.318
283.659
296.388
286.769
290.038
303.15
302.797
297.024
285.014
283.15
287.734
291.89
299.632
283.162
283.755
282.944
301.945
303.119
283.151
303.133
303.15
300.591
293.064
298.824
293.857
283.15
291.971
295.982
285.588
283.212
291.627
283.15
300.32
303.164
292.555
284.108
303.144
291.882
298.611
288.263
300.38
291.36
287.342
283.15
303.142
285.337
289.908
293.482
283.15
283.15
283.15
303.141
283.15
283.137
286.427
303.15
283.15
303.167
283.173
291.139
288.934
303.527
302.91
289.885
303.15
296.974
303.176
302.005
287.283
283.15
292.9
303.145
303.093
286.171
283.15
283.15
283.47
286.032
303.052
303.143
287.513
289.484
283.483
283.163
289.87
293.241
303.15
283.15
303.095
303.15
302.332
285.019
302.344
303.092
284.065
283.777
284.052
302.862
302.169
297.431
294.048
303.069
291.288
291.054
303.15
303.097
302.585
285.445
283.379
303.15
285.954
283.389
302.931
301.707
302.17
283.15
300.334
301.85
303.15
302.147
285.399
303.15
297.893
303.15
283.15
300.693
302.678
286.328
302.488
283.15
285.177
303.005
283.15
302.301
285.363
294.892
284.334
303.15
303.02
302.885
286.501
283.15
287.138
284.259
289.796
285.72
302.248
303.15
283.15
283.15
293.163
283.15
301.061
302.158
290.377
283.15
294.066
283.15
303.15
283.15
300.108
298.563
283.151
285.281
301.747
303.074
303.156
291.865
294.214
301.195
283.205
301.819
283.145
303.15
303.141
299.019
283.15
300.879
294.775
303.15
300.954
287.306
301.971
284.907
288.166
283.15
302.217
287.73
298.417
303.082
283.15
303.15
291.668
302.157
283.078
283.147
286.762
298.343
303.149
284.483
301.021
300.993
301.246
303.153
299.889
287.644
284.918
301.58
299.884
283.72
283.104
303.159
303.149
303.15
297.344
283.163
283.15
303.15
303.149
289.92
298.931
300.293
287.779
302.797
303.15
286.435
301.598
303.15
300.963
283.801
301.449
303.15
284.549
301.397
295.558
302.769
303.15
303.15
285.175
295.076
296.366
287.379
303.15
303.15
283.15
287.211
302.391
296.155
303.15
285.565
303.15
303.15
300.477
288.725
283.15
295.538
295.865
299.101
283.15
303.15
292.685
287.213
303.15
297.938
300.501
300.405
303.15
303.15
303.15
300.212
298.317
302.791
299.88
283.15
292.901
287.67
290.598
300.556
303.15
303.15
300.75
303.094
286.556
296.079
303.15
303.147
283.15
286.441
298.913
285.575
303.15
303.15
283.341
303.123
303.15
303.15
283.15
290.523
303.15
303.15
284.571
299.308
283.15
303.15
284.612
301.314
300.149
286.992
294.977
303.15
283.5
303.15
303.15
283.307
300.519
290.397
300.379
303.15
303.129
302.164
292.648
299.763
301.331
284.442
283.452
300.876
298.371
303.15
302.749
284.131
299.718
301.366
287.689
303.15
297.422
301.395
301.482
301.522
292.904
303.15
283.15
299.162
283.15
283.15
287.736
283.15
284.009
283.15
283.15
283.15
283.15
302.747
288.136
302.695
283.15
295.643
290.936
284.737
283.15
303.15
302.67
301.728
303.168
302.628
283.15
294.803
300.245
290.166
283.15
283.15
299.786
285.924
283.15
283.15
303.149
290.573
283.15
287.129
303.149
303.152
284.307
283.15
288.187
292.343
300.801
294.625
302.952
285.623
302.496
295.234
286.259
283.15
283.542
291.603
303.074
289.09
302.646
283.15
292.375
287.733
301.022
301.297
284.891
303.103
284.897
297.058
302.988
303.146
285.125
303.145
303.002
293.279
302.687
283.15
303.15
303.15
294.737
291.029
283.155
301.065
284.663
284.144
284.616
303.145
288.333
300.441
283.15
283.15
302.491
303.15
294.529
302.892
303.182
299.774
303.222
302.879
283.15
301.277
302.875
283.15
303.15
301.31
303.15
284.308
298.72
283.163
291.445
283.15
287.561
303.011
299.733
283.15
303.022
290.899
301.199
303.125
303.078
283.15
283.15
301.948
301.987
283.801
302.81
302.405
302.371
303.141
283.15
293.663
283.15
302.787
287.861
302.983
303.15
283.15
302.816
285.129
291.474
302.035
283.15
302.571
301.979
301.551
302.472
303.046
303.21
303.007
303.15
283.15
301.505
297.823
303.087
303.15
289.864
284.918
303.15
283.15
285.303
303.184
303.165
302.912
301.108
284.248
303.096
290.704
294.226
303.148
289.036
303.164
283.15
289.805
283.15
299.931
298.101
284.783
288.17
299.573
296.69
295.274
299.133
293.734
303.154
293.863
296.362
283.16
299.341
293.857
303.15
298.887
299.099
303.15
291.144
303.17
301.649
303.15
286.9
285.984
302.791
289.648
283.15
283.15
300.315
301.17
283.717
283.15
303.15
300.202
302.305
300.598
299.843
302.778
292.563
289.617
286.625
292.48
284.286
290.321
283.306
295.718
290.412
293.877
287.073
284.286
303.163
283.274
303.148
285.537
300.682
283.151
300.425
298.412
288.716
302.102
285.4
299.035
283.15
302.947
283.155
283.116
287.634
299.612
303.15
300.349
303.017
299.902
302.752
303.15
301.232
284.934
294.869
302.027
303.149
283.697
283.15
290.267
285.239
285.727
303.129
303.148
283.15
283.15
283.176
303.15
293.401
303.15
303.148
294.174
303.441
303.15
300.427
303.15
303.15
293.605
290.581
303.15
289.809
302.043
289.534
303.15
303.15
285.916
283.335
290.296
303.225
303.15
303.145
285.445
283.246
283.15
288.965
287.565
303.15
284.302
303.15
303.15
303.132
287.302
303.15
303.147
283.273
303.152
302.65
287.891
283.153
283.586
297.374
290.671
303.15
285.908
284.419
301.307
287.1
302.182
290.564
293.831
303.15
303.15
284
303.148
302.943
295.9
302.943
302.733
287.161
283.15
285.309
283.218
297.079
302.59
285.335
303.15
283.791
286.69
303.125
283.175
303.15
286.378
283.15
300.14
303.15
299.682
299.835
283.298
283.355
302.319
290.793
301.372
303.15
301.369
301.724
303.15
303.15
298.302
293.386
283.15
288.765
303.15
295.244
283.356
303.15
296.867
298.69
288.961
303.15
302.746
294.175
295.327
284.449
303.16
298.646
296.082
283.983
303.124
302.794
287.357
298.4
289.803
290.785
289.715
283.15
302.944
303.152
303.15
303.174
293.056
296.268
302.976
301.263
303.15
284.442
303.15
303.039
302.85
303.15
293.509
296.228
303.15
285.359
303.095
303.15
303.088
303.158
286.013
293.277
291.091
288.377
293.402
303.15
301.19
291.409
295.316
293.38
303.141
303.15
300.526
303.189
284.219
303.19
303.15
303.15
303.143
303.15
284.924
303.15
284.211
303.146
303.15
290.197
303.144
292.405
295.489
303.133
295.282
285.973
283.441
303.124
302.939
284.683
283.15
297.085
303.15
285.493
302.903
302.025
303.021
298.456
287.031
303.15
298.671
289.877
299.291
283.15
283.619
303.15
303.145
303.191
294.063
303.15
292.402
289.315
303.195
303.15
284.776
298.726
293.169
299.553
302.462
301.603
300.358
303.15
284.708
296.988
302.365
285.595
298.369
292.253
284.456
291.601
303.15
286.619
291.752
290.106
299.402
303.15
286.421
284.089
303.15
302.418
288.112
302.102
283.15
303.15
299.796
301.675
288.945
301.968
301.935
301.795
303.15
289.288
285.109
301.944
302.223
297.104
303.15
283.2
303.15
301.968
303.15
302.796
303.15
291.613
303.15
296.512
283.15
289.467
303.15
283.15
292.19
301.424
300.386
289.169
300.467
303.15
302.481
303.15
302.367
285.185
303.15
300.372
290.375
303.15
300.778
303.15
303.15
293.179
283.15
285.493
293.207
300.894
303.15
291.107
293.814
288.159
289.635
288.086
299.216