/*--------------------------------*- C++ -*----------------------------------*\
  =========                 |
  \\      /  F ield         | OpenFOAM: The Open Source CFD Toolbox
   \\    /   O peration     | Website:  https://openfoam.org
    \\  /    A nd           | Version:  10
     \\/     M anipulation  |
\*---------------------------------------------------------------------------*/
FoamFile
{
    format      ascii;
    class       volScalarField;
    location    "29.5";
    object      p;
}
// * * * * * * * * * * * * * * * * * * * * * * * * * * * * * * * * * * * * * //

dimensions      [0 2 -2 0 0 0 0];

internalField   nonuniform List<scalar> 
111485
(
7.87188
0.0267039
0.0171132
7.87287
0.0103236
7.60718
0.0104456
0.0192185
0.0107776
-0.0025558
0.00993127
0.00739482
0.0141657
-0.00104253
0.0122444
0.0378264
0.0262952
8.79368
0.0153681
7.87351
7.87368
7.60991
0.00832019
0.0269045
0.00437858
7.84712
0.0135268
0.0460857
0.0161314
7.87293
-0.0841452
0.0163257
7.87545
7.60499
8.57224
7.56496
-0.0600577
0.0520871
-0.123574
0.0211577
7.65193
-0.00234041
0.0218764
-0.0318346
-0.261331
7.88653
-0.0155335
0.0225116
-0.00688124
7.91528
7.91342
7.35918
7.9219
-0.0467482
7.92686
0.0245738
0.0160413
7.61322
-0.095338
0.0185469
0.0197293
7.87236
0.0189317
-0.0735927
7.65539
0.0244639
5.10059
0.0172181
0.00548316
0.0163941
-0.141462
0.0304948
7.72539
0.00551329
7.87826
0.0306316
7.60953
-0.00515928
7.60836
8.05443
-0.113264
-0.0338695
7.60896
7.87457
0.023333
0.00895357
1.74055
-0.0528498
-0.1053
0.0384679
-0.214521
0.0108573
0.0222842
0.046386
-0.00160223
7.87425
7.87238
-0.036461
-0.7394
0.0675259
7.87221
0.00510203
7.59416
-0.0093593
0.0108526
7.91036
7.612
0.01537
0.00840617
-0.350538
0.0212005
0.0328832
0.0163928
0.00601156
7.84364
0.0315841
7.86025
7.60544
0.0123376
7.87441
7.84611
6.65941
7.60983
7.6134
-0.00378727
8.95728
6.62205
0.0190085
7.87515
0.389041
-0.104099
-0.0378564
7.87874
6.50584
6.7952
0.0110031
7.60934
0.0320284
0.00796466
0.027192
-0.0386463
0.0101365
0.015027
0.0183293
-0.0230238
0.0329566
7.60935
7.87372
7.61832
0.0169472
0.0141547
7.87136
-0.0725427
0.0092833
-0.668431
0.0186167
0.0144268
0.00930593
-0.525784
7.87985
7.87315
0.0157463
0.00736732
-0.485559
-0.60571
0.0253828
-0.0647664
7.64049
-0.447894
-0.413429
7.61301
7.87321
0.00599265
7.61066
0.0293842
0.0172484
7.66513
7.70322
7.86301
7.80922
7.67427
7.8722
0.0236455
0.0189074
0.0267733
0.0701222
0.00123817
0.0276949
-0.0501174
7.87291
0.0153272
7.69839
7.86066
0.0356837
-0.00947976
-0.0485723
0.0317067
0.0162329
7.8791
0.0223392
0.017905
5.28627
-0.0227256
0.0252581
7.86936
0.0315224
-0.00990785
7.69707
-0.0544049
-0.0103313
0.0132616
0.0141568
7.66698
7.87193
0.0279914
4.95275
-0.0375903
7.61042
0.0305453
0.0338154
-0.00425019
7.87155
0.0196507
-0.0634556
5.98545
7.6104
7.61312
-0.117127
-0.594485
7.72265
7.29356
0.032071
0.0229498
-0.0823531
7.72042
7.80583
-0.0714757
7.876
0.00740242
0.0294707
0.0297388
0.0171826
0.0286862
7.6143
-0.108081
0.0189768
7.61712
7.60908
-0.0516222
0.0318903
7.78003
0.030122
0.0300149
7.87389
6.35029
-0.0284027
7.88737
8.02304
7.18638
7.87333
0.0253822
0.0180657
-0.0104144
7.87587
0.0288095
7.87273
7.87104
7.87879
-0.0790975
-0.011838
0.0255863
0.0164172
0.000876683
0.0191526
0.0166328
-0.0817331
0.0101236
0.0206915
7.56933
7.87359
-0.0838639
0.0194842
-0.0941243
0.0256462
7.87398
0.0258856
0.0123573
0.019435
0.0170171
-0.114093
0.0145365
0.0178719
-0.0251446
7.60975
-0.0134367
7.61074
8.73668
8.08985
-0.123341
-0.011563
0.00937969
7.86648
7.674
0.0271119
0.0262222
7.87106
7.86974
7.93044
0.0181332
0.0296608
0.0199668
0.0164254
0.0120445
7.2234
7.61626
7.87509
0.0307142
3.24145
-0.00442883
-0.114578
-0.088439
7.60989
7.87156
7.87232
6.78935
0.0239128
0.0168986
7.60216
0.0269447
7.7778
7.86307
-0.0348567
0.0244829
0.00269086
0.026986
7.98305
6.75346
7.60539
0.0243404
0.0199289
-0.0851374
7.64804
0.4412
-0.152429
0.0174511
0.0286521
1.2664
0.0106982
7.60779
0.00560623
0.0301852
-0.104353
-0.0410134
0.00707775
7.60766
7.87645
7.61062
7.87612
0.0260882
0.0241354
-0.0144157
0.0154343
7.62573
0.0112526
7.61307
7.87941
0.0118665
8.13902
6.94957
7.91574
7.56028
0.0174119
7.61186
0.0174093
0.0163142
7.60816
0.00513655
0.0260607
7.85114
0.0257065
0.0110287
0.0316805
-0.0494811
0.0409319
0.0300861
7.99139
7.87433
-0.0205564
7.63
0.00447391
-0.0476333
7.66387
7.61249
0.0263558
0.00870247
-0.000667366
0.0235699
7.60923
-0.0820054
0.00283011
7.60527
-0.0345482
-0.0119859
7.87096
7.87239
0.024894
0.00539408
7.59047
7.86418
5.85493
7.87156
0.0104124
7.61055
7.87245
-0.0004152
-0.0977354
-0.00955913
0.018432
7.60829
6.80679
-0.00717581
6.90499
-0.0300394
-0.00327602
0.0043121
5.27497
6.97969
-0.48988
-0.318499
7.87043
-0.0509972
0.00980121
7.86964
-0.515925
-0.00288718
6.94392
0.00453023
0.00623913
0.038809
7.60945
0.268787
0.00354507
0.0491646
-0.137123
6.5986
-0.606409
7.87176
-0.0437524
-0.169012
7.61365
-0.00684184
-0.0108924
6.41647
7.87481
7.46903
7.87266
0.0105894
0.0784329
0.0105634
0.00970266
-0.0571036
7.61069
-0.0458756
7.88418
0.0231924
7.59641
7.88154
7.88887
0.000641365
7.87521
7.87191
8.34414
7.87079
7.62156
-0.0198779
7.61124
7.41429
7.60752
7.85945
7.60192
7.88135
7.61025
-0.00156975
7.60601
-0.0228947
0.00156982
-0.0991616
7.61634
-0.0204318
7.61516
7.87159
-0.00516387
-0.00596008
0.0412224
-0.125425
7.31947
-0.0138431
-0.0245593
0.0230919
-0.0145196
-0.00293403
7.87431
-0.00425563
6.42774
0.0025213
7.61016
-0.0164167
6.65216
0.0224865
0.0148311
8.29123
7.67478
-0.0326336
7.87135
-0.013521
-0.0166446
7.6203
7.62761
7.91906
7.61245
-0.98285
-0.0129735
7.60573
7.61759
0.00818162
7.60989
-0.0182705
7.60883
-0.0187313
7.87185
0.00713577
0.00639071
0.051306
0.0216485
7.58866
-0.128453
7.60363
7.61023
0.00327149
7.61126
-0.00258443
7.92519
-0.0376114
7.87351
0.0225119
7.87371
6.95159
-0.110747
-0.0486757
-0.0166171
0.00651586
-0.0287739
-0.00530412
7.61735
-0.0242767
-0.0288433
7.60992
-0.0533457
-0.0644338
-0.00931374
7.67912
8.03635
0.0311253
-0.0400675
3.67368
7.71829
-0.00112371
0.0195941
0.00339506
0.000420594
0.156022
2.52146
6.85809
-0.704496
3.13613
7.87306
0.00784173
7.62927
6.98255
0.0297838
2.47992
-0.724768
1.42092
6.85633
-0.0141182
0.0148696
7.62482
7.44241
0.0219613
7.87897
7.60992
7.61061
7.6151
-0.00204983
7.61165
7.82996
0.0046053
0.0258209
6.0128
-0.0304739
7.30606
0.0271522
7.92076
7.61526
-0.00713204
7.60932
7.61512
6.94934
0.0458411
4.63263
-0.0259132
0.0375618
7.88712
-0.229318
-0.0692534
0.00387014
-0.0151651
0.252884
-0.000442994
7.61255
-0.00846238
0.00678352
7.87692
0.0202496
-0.0223087
0.0123086
0.0355313
0.0124233
0.011371
7.88669
-0.00185478
-0.0561577
6.92928
0.0132318
0.0131042
4.83226
0.0383928
0.0136305
0.00367531
0.00672938
0.0151036
0.0322846
7.75509
0.0090106
-0.00219562
8.23023
-0.00559104
-0.0197889
0.0363779
7.61247
0.0494871
7.89147
7.60968
7.62216
7.61318
0.0160636
7.0425
-1.04862
7.86889
7.55053
0.0037357
-0.00178033
7.87022
-0.0111595
7.8701
7.87389
7.92311
-0.00764971
0.00599071
6.97837
7.82089
7.61164
7.61179
-0.0657714
0.0203198
6.79704
0.00145693
-0.417188
7.61587
0.00904212
-0.0174616
0.0829908
7.6092
7.60997
0.02197
0.0311316
6.913
7.61364
7.60096
0.0156125
7.87665
7.86981
7.61173
0.00560031
0.019715
7.60921
8.47988
8.21209
0.149198
7.615
7.60895
-0.0230384
-0.0754273
6.89748
5.94318
1.1324
-0.0134552
0.00215793
7.58835
-0.021103
-0.0052509
7.60821
7.92051
7.60878
7.61073
7.61411
7.60853
0.0223791
7.87129
7.60953
7.66981
0.0136912
0.0170728
7.87735
7.93378
-0.0237852
0.0253835
0.0346519
7.86914
7.61013
0.0253922
7.87431
-0.0085192
0.0187367
0.0414364
7.84997
7.87229
7.87213
7.61089
0.0346944
7.61001
7.6094
-0.033445
7.87222
0.0340893
0.00548036
7.63378
0.0344229
7.83974
0.0236585
-0.00736018
-0.0247454
-0.016832
-1.28118
7.22635
0.0217328
-0.0122781
0.00100404
7.78348
-2.1182
7.14584
0.0238804
7.61357
-0.0286976
-0.0136674
-0.0320704
8.07863
7.87236
7.87497
0.0289998
7.3032
-0.0264739
7.43996
0.0251558
0.0344234
0.00959679
0.0242673
7.60817
7.63624
7.74666
0.0268056
7.61236
7.22415
-0.160496
7.61224
7.61918
7.87378
7.60924
0.0101875
7.59949
7.61099
-1.58496
7.28563
7.63178
7.06279
7.61111
-0.0369012
0.0135902
7.87124
0.0158048
0.999163
-0.0371227
-0.389891
0.0239722
7.61573
-0.00878869
-0.0318002
-0.036216
7.87397
-2.65788
0.0102909
6.46475
-0.00375017
-0.117919
-0.104231
0.00318502
0.0271911
-0.140653
0.0387964
0.0277842
7.58931
7.62632
0.011383
-0.000259733
7.61445
0.013879
0.00616864
0.0221555
7.60813
-0.122072
7.60947
0.0196922
0.013657
7.60935
-0.0661942
0.0274908
-0.160496
-0.0216864
7.56655
0.0157025
-0.154762
-0.0770888
-0.158232
-0.0396788
7.60003
7.62001
-0.0227937
7.60925
0.0283634
-0.0781656
6.7188
-0.474677
-0.828856
-0.305893
7.60914
6.37681
0.0253947
7.87441
9.46321
-0.0472892
7.60487
7.60838
-0.727801
-0.865075
7.60936
-0.123109
7.61074
7.6093
7.87615
7.87088
7.95478
7.87334
-0.0256401
7.61413
7.61339
7.61962
-1.44443
0.0144996
0.000448747
0.0264219
7.62363
7.60839
-0.0493901
7.61037
7.61223
5.80692
-0.0540497
0.024367
7.60891
7.6044
7.62122
7.60869
7.55553
7.60771
-0.0726919
7.61415
-0.203424
0.0124666
7.61147
7.8827
7.93045
-0.124991
7.92262
7.87357
7.62708
-0.21243
7.60808
-0.0656245
-0.0702466
-0.181511
7.60681
5.28839
-0.0410606
0.00751939
7.66392
-0.199724
-0.0146448
7.88137
7.58579
6.89857
7.60516
0.0239266
0.0139068
-0.0645686
-0.349538
7.61022
0.0267664
7.56402
6.82344
6.8553
7.61321
0.0197586
7.61023
7.94102
-0.0658898
0.0295046
7.93811
-0.00346536
7.30961
-0.0845813
7.97559
7.60999
7.58149
7.87253
0.0253555
0.0221823
0.353992
7.61115
7.66069
0.0151647
7.60951
7.06802
7.87191
-0.00338707
-0.337923
0.0450608
7.86276
-0.0731724
-0.0608982
8.23971
-0.0606208
7.61806
-0.0407087
-0.0255938
0.00729983
-0.0882134
-0.179107
7.60986
7.61072
7.61037
-0.0726572
7.68085
-0.109587
7.87634
0.738059
7.87185
0.0190718
0.0210995
7.94272
7.609
7.96003
7.61961
-0.11142
7.96811
6.9065
0.00480941
-0.104589
7.90906
7.03362
7.70275
7.05463
7.61106
7.60963
-0.103205
0.00676303
7.8729
7.86568
-0.631136
7.87836
-0.102866
0.0234262
7.6946
-0.0342963
7.87247
0.018103
7.61921
0.0155446
7.6092
-0.589739
-0.308514
-0.147876
-0.039729
-0.0440761
4.68208
7.54005
-0.0306849
7.91698
0.0137908
7.87069
7.6395
7.62338
7.62083
7.64484
7.61445
-0.0543706
-0.065845
7.87275
6.65278
7.87857
-0.0533654
-0.1254
7.86915
0.0255452
-0.151228
7.93088
0.0266129
0.0262805
0.0167795
-0.147577
7.60953
7.60892
7.63875
7.60988
0.0199693
7.53937
-0.0345383
7.60996
-0.0443178
0.0205771
7.61264
-0.0523528
7.60067
7.60925
-0.0455569
-0.0833429
2.13221
7.61063
7.95425
7.60253
0.0211688
7.50246
7.92352
7.51972
0.857927
6.72235
-0.532188
7.02483
7.48324
7.76829
0.0196143
0.0067491
0.0123682
0.0196806
7.85862
-0.0296169
7.61032
7.61277
0.0168311
7.58692
-0.649184
-0.0405432
0.0327718
-0.0461903
-0.965596
-0.00240244
7.61194
-1.42125
-2.97994
-0.00828585
-0.0356452
0.0232498
5.50901
7.86771
0.00149946
7.87643
7.60824
-0.248044
-0.00228574
-1.11998
7.59419
7.43779
-0.0751047
7.9305
7.61106
-0.0521787
7.94935
7.93831
0.112401
-0.0519727
-0.0928756
0.047857
0.0267746
7.6139
7.60939
-0.276442
0.0261351
7.61057
7.94358
0.0330395
7.62174
6.60993
6.75685
6.79338
4.35586
6.62663
7.61214
0.0209381
7.59728
-0.0776493
7.61066
3.42352
7.66937
7.63458
7.6123
7.6102
0.0292844
7.60995
7.60968
6.91358
7.60609
7.61298
7.60653
0.0247438
7.62734
0.0215059
-0.0829619
7.63693
0.042048
7.61024
-0.0268329
-0.211503
0.0178552
0.026157
7.84588
0.0234404
0.025015
-0.151114
7.8755
-0.108028
0.0253321
0.026637
7.3255
0.0180092
7.68187
7.61066
7.61281
7.60928
0.0237161
7.61061
7.59991
0.0202265
-0.135488
0.00861656
7.62171
5.42439
0.030753
7.61519
-0.373531
7.92768
0.0129725
7.60701
7.60952
-0.00486581
7.60668
-0.0203333
7.87553
7.61022
0.0279196
-0.0387387
0.0245351
0.0200975
-0.13737
0.0186595
7.61056
8.01592
0.0140661
0.02911
0.0305818
-0.0945601
7.60944
0.0227862
7.60931
7.7988
0.00466006
-0.0685019
7.62235
0.0234631
7.59812
0.0187762
0.0313994
7.71158
7.60908
7.61099
0.0132308
7.61199
7.61046
0.0165194
0.019364
-0.0421156
0.0229088
7.63163
7.62168
0.0117064
0.0289815
7.61533
0.0113748
7.69852
0.00749224
7.61028
7.60996
-0.00712691
7.60893
-0.0230484
0.0311572
7.61632
7.60847
0.00495676
6.47009
0.0316276
7.87196
-0.0599845
7.88243
6.67888
6.45507
0.0280736
6.96051
6.88573
0.0120131
6.84403
4.25752
6.32951
7.67192
7.87725
-0.179893
0.025291
7.65043
7.60852
0.00178866
0.01322
7.62078
0.0135849
7.60811
7.88236
0.00465392
-0.00523692
0.126108
7.60914
7.61146
7.61046
7.60942
7.6046
7.60779
7.60356
7.60511
7.60891
7.60745
7.60935
7.87863
7.61284
7.60851
7.61127
7.78321
7.60895
7.60915
7.6095
7.63762
7.81814
0.0195538
7.61118
7.60929
7.62157
0.0275372
7.6136
7.88224
2.94606
7.59937
7.50692
0.0187996
8.24194
7.56289
3.48024
0.0139219
7.61052
6.7588
7.25879
7.60845
-0.0291917
0.0161648
0.012536
0.00499738
0.032511
7.90236
7.60337
0.0177551
0.0239717
0.00383486
7.60704
0.0225355
-0.0154914
0.0275345
0.0218601
0.022945
0.00576471
0.0264666
0.0168409
7.88678
0.0233166
0.0266525
0.0135757
0.019554
7.60919
7.60873
7.60911
7.87258
7.60679
0.0258354
0.025382
7.6123
7.60879
7.60941
7.81645
7.611
7.87421
7.61609
7.87879
0.0302797
-0.225494
0.0260733
0.0318714
7.58578
7.62627
-0.0330425
-0.265324
7.6092
7.61003
0.00844372
7.88555
7.60953
0.0650238
-0.00132586
0.0159479
0.0326754
-0.0292153
7.89859
0.0145025
0.0225615
6.90822
7.87601
0.0115323
7.89533
7.62283
2.38138
1.27048
-0.00878165
7.76354
7.85017
-0.0443409
0.0229514
0.0330183
0.0249471
3.39111
7.87218
-0.0176069
8.23668
7.87436
7.55581
-0.000472398
7.61053
0.0275028
0.0103877
0.0124869
0.0144928
7.87988
0.0365084
7.87588
7.45143
7.87392
7.86545
0.0221192
4.48804
7.60958
7.87281
8.35851
0.026858
6.85564
0.0114473
0.0206252
0.0216732
0.023212
7.82187
7.86761
6.6258
0.0136895
0.0268401
-0.924922
7.92003
7.87198
6.82354
-0.0232783
-0.0247161
7.60819
-0.0333399
2.48762
0.0156339
0.0202721
7.8724
6.64285
0.0124777
0.0255686
7.61082
0.00626485
0.00433262
-0.00243359
-0.00467227
0.0208338
0.037944
6.91121
0.0315316
0.0237583
0.029165
7.96902
0.0180549
6.99777
0.0333694
0.0209869
7.87474
0.0212585
0.0168549
0.0117818
0.0256418
8.738
2.07767
-0.052268
4.27745
0.01865
7.64676
0.0225731
0.0185433
7.87976
7.60966
-0.36256
-0.117424
0.0206645
8.73075
0.00737916
-0.209705
-1.17196
-0.0825958
7.88039
7.89283
0.0235768
8.34628
0.0251974
-0.218881
0.0180868
0.0332467
7.87235
-0.00120311
0.025056
7.87131
6.93002
0.0361322
7.88738
0.0282035
0.0325452
7.87334
8.78918
0.0234076
7.8724
7.60888
7.61005
0.0295155
0.0322742
0.0135377
7.92693
0.0104885
0.0290053
7.67091
0.0320176
0.0202291
0.0250197
-0.127979
7.6097
0.0191547
0.0542576
0.0318908
0.0202806
0.0269199
-0.159292
0.0300365
7.87171
-0.049614
0.0226028
7.87206
0.0273109
7.6162
7.61074
7.87552
7.62022
7.87411
0.00306502
7.61094
0.0273294
-0.0177952
7.87628
0.0148908
7.80216
0.0175487
7.87881
-0.167474
7.65243
0.00801436
0.00329728
-0.190049
0.0446856
0.0241061
0.0177257
0.0289221
0.0391119
2.76413
0.0368759
0.00595342
0.0406187
7.87367
0.0412878
-0.126149
0.035193
0.0141155
-0.168959
7.87584
6.76656
7.87714
0.0139679
7.87172
6.16604
0.0250722
8.38899
0.00852037
7.86375
7.84093
7.60966
0.0185134
0.0444017
0.0233088
-0.0449779
0.0249982
0.0204929
0.0330154
0.00976142
0.0156721
0.0311036
0.0219791
7.878
7.56372
7.86644
0.0187086
0.029334
7.64698
7.60958
6.30501
0.0457239
0.0186079
7.87215
0.023761
7.87
-0.438224
0.0178521
-0.0668326
7.87328
7.87158
0.0114325
7.87211
-0.00837426
0.0303454
7.45232
0.0209935
0.0166793
0.0276171
7.87134
-0.111487
6.97892
-0.0256039
0.0104484
7.87483
7.88463
0.0276002
5.52257
7.90434
0.0354949
0.0316922
7.87247
7.85486
6.93532
0.0137881
6.28382
0.0170984
-0.0344013
-0.000817966
7.87194
7.03304
-0.0360923
7.87071
7.61605
7.87423
7.87559
7.14317
7.72462
7.57088
7.87276
7.88967
7.29489
8.39817
7.63985
5.12272e-05
7.64927
6.75391
6.39098
8.9073
6.89641
7.87206
-0.033769
7.38971
7.70899
-0.0339412
8.20844
8.57369
7.76915
-0.0430711
8.36794
-0.0318788
-0.0856964
0.0121481
7.1629
7.87513
-0.0235048
-0.460428
7.83533
7.86593
0.0218627
7.08394
0.0216971
7.00827
7.59216
7.72823
0.020156
0.0237687
7.87087
0.00547073
7.89544
7.38789
-0.188208
0.0436089
-0.0314656
7.60675
0.0234026
7.229
-0.0218359
7.61044
7.87183
7.60916
6.98632
0.0414419
0.0316661
7.87452
-0.772252
7.88136
7.89318
7.88095
7.87332
-0.025126
-0.0396237
0.0335409
-0.0207824
7.83346
0.0117504
0.0131181
0.0369669
-0.0313207
7.65965
0.0277327
-8.90688e-05
-0.0040242
-0.43382
0.0230848
7.92359
-0.0135973
-0.0245759
0.0233076
-0.0240925
-0.0474286
7.90237
-0.0403845
7.77805
7.87626
0.0212364
7.87985
0.0262212
7.86988
7.93864
7.54949
7.87928
7.8737
-0.0476641
7.87791
-0.0170304
7.19384
7.61396
0.0202808
-0.0037901
0.0302512
-0.0166742
7.89052
0.69669
7.87465
-0.0198201
7.93994
0.0148191
-0.0266261
-0.0166327
-0.00470926
7.97035
7.97729
7.87957
0.0287013
7.62494
7.86551
0.0242931
7.60212
7.60874
0.00124684
7.97019
0.00927515
-0.440534
7.14402
7.49801
7.43602
0.0119134
0.0131515
7.87241
0.0075254
-0.0116419
6.98607
-0.0227989
7.87081
0.0207574
0.0227416
0.0396926
7.87451
0.0122233
0.0204241
-0.0283186
-0.003231
0.0081273
7.87397
7.87232
-0.106
7.86782
7.60745
7.87033
0.0142728
-0.0190556
0.0190202
-0.0359517
6.86581
-0.00312131
0.0157488
0.0124912
-0.0596556
0.0190854
-0.0179144
0.0131405
7.60932
7.60973
7.60949
0.0311137
7.61069
-0.0327605
5.24064
0.00324403
-0.561515
0.00806173
0.0136465
7.60838
7.87312
0.0042314
0.00342731
7.88708
7.60345
7.8743
0.0111767
0.00587794
0.00280132
0.00839233
0.0298361
0.0152902
7.87304
7.87366
7.87181
0.0400411
0.00663112
0.00254277
0.0160954
0.0332401
0.00428009
7.84826
7.87203
6.33709
7.65353
0.0245303
0.027706
7.86761
7.90582
7.86528
7.87591
7.83698
7.7157
-0.0056691
7.87442
-0.0499144
-0.119244
7.61695
-0.000868035
0.0271521
0.0218907
7.91795
7.76216
-0.00513633
7.87269
-0.00686936
-1.23374
0.0193494
7.66561
5.94672
7.60917
7.87662
7.8682
7.60348
2.10725
7.88601
0.00905681
-0.00357915
7.87515
7.8726
-0.00909918
7.87859
7.61074
0.0128826
-0.203788
7.86157
7.86213
7.67582
0.042397
7.87227
7.87202
1.16358
-0.024066
-0.0100865
7.8721
7.61633
7.20733
-0.0146106
-0.00960159
-0.0121987
0.00627901
7.60976
0.0531172
0.0128841
-0.00103905
7.55409
7.8696
7.87189
7.82558
7.87243
0.0242406
0.0205328
0.000662276
7.89022
7.87272
7.87201
7.86973
7.68438
-0.0394359
0.110329
0.0187525
7.61367
7.87281
7.92715
-1.01427
-0.0414306
-0.0701603
7.60829
-1.94923
8.25679
7.8386
7.87133
0.0231947
0.0353647
7.87466
7.90678
0.0118879
7.87337
0.0140066
0.0296343
2.73593
7.8704
7.65986
0.0232516
-0.0608913
7.91057
2.53927
0.0544147
0.032124
7.87378
7.87662
7.8826
7.88109
0.0266227
0.0265433
7.87682
-0.0505748
-0.0145789
0.202856
7.87262
7.87172
7.87312
7.87708
0.00955211
8.38414
7.87386
7.76774
0.0246404
-0.00915303
0.029715
7.84506
7.87238
-0.0213899
7.6238
7.87283
7.87473
7.87399
0.0206475
7.69505
7.59478
7.61242
0.0201679
0.0271695
7.86908
7.87442
7.85523
0.0158201
8.15182
7.87789
7.8573
7.87449
7.87393
-0.201829
0.0233693
7.91501
0.0219147
0.0157109
0.0205674
7.87888
7.87535
7.87401
7.83419
7.60969
0.0285926
7.87354
7.3802
7.3311
-0.0166053
7.65089
-0.0245046
7.87221
7.6122
-0.0217755
0.29053
7.03057
-0.00541619
7.87488
-0.00945618
8.12264
7.89134
7.92236
9.10751
7.87989
-0.0371867
7.87036
0.00987654
7.61181
6.93265
7.87964
7.86776
0.0150902
0.0331244
7.60933
2.64381
7.60692
-0.0130663
-0.0402401
0.00990654
7.61156
-0.351817
-0.0232956
-0.0496062
0.0232678
-0.629175
-0.0292914
7.59108
7.60974
-0.753782
0.0220706
-0.00185797
7.90948
7.51309
6.36865
3.25351
7.87483
7.61511
7.87492
7.87544
7.87628
8.30335
0.035095
-0.0734891
0.0303239
6.96843
-0.0934194
7.8745
0.010229
7.87175
7.88102
7.61049
7.71149
-0.105633
7.69222
7.60354
7.8723
0.0168081
7.87088
7.8725
-0.0554276
7.82552
5.75068
4.92511
4.58491
7.87699
4.80493
4.64435
4.75311
5.45739
7.60927
7.60982
0.0109619
-0.0136795
6.95513
7.13802
7.60546
0.00593751
8.19102
7.71019
-0.10161
7.87479
7.87269
-0.0370161
-0.0880821
7.83863
7.61109
-0.0320895
7.03237
7.60309
-0.408243
0.00717457
0.0513227
7.8115
0.0220201
7.875
0.0156412
-0.396183
0.0166808
7.87285
-0.390759
0.0213128
7.96726
-1.04248
7.86435
0.0199355
7.52994
0.0270628
7.804
-0.0480359
7.87359
7.57022
7.61104
-1.46867
-1.47616
7.88604
0.00981391
0.0123901
7.91958
7.87246
-0.0049927
0.0188061
-0.124199
7.88064
0.0151847
0.00978254
-0.0480448
-0.853668
7.87643
-0.172015
7.61864
-0.151746
7.87182
-1.73333
-2.01022
7.85273
0.0223825
7.67288
-0.0446663
7.60852
7.85699
7.88543
7.89043
7.85094
7.85902
-0.00237301
0.0288381
-0.155475
7.88171
6.3409
-0.143426
7.88034
7.82969
7.90552
7.86702
7.90486
0.0229722
7.87292
7.87468
7.60959
0.0160245
7.85795
7.60979
7.54053
0.0369343
7.61023
0.0088208
-0.787768
-0.0515585
0.0345354
-0.0151135
8.2212
7.87781
7.87133
0.0697636
0.0310128
7.54026
6.30848
0.0105351
7.8727
7.87587
-0.133272
7.86348
0.0162288
7.8748
-0.0122093
-0.055493
7.88143
7.60908
7.87568
7.87521
7.87042
-0.024558
7.87115
0.0118267
7.94336
7.87519
0.0244509
7.60348
0.00797039
7.77423
7.87241
-0.0125724
0.0314295
-0.119094
7.87422
7.87462
7.87287
0.0299995
-0.0874296
7.95111
7.60867
7.6417
0.013317
7.86596
0.0146352
-0.134632
7.87187
7.86831
0.0221513
7.86647
7.64135
7.61035
7.95921
7.61036
-0.152734
6.21814
7.63517
7.8735
6.38085
7.86799
6.60254
7.84688
7.86686
7.72669
0.0182363
7.78624
0.0112446
7.85955
7.86721
-0.0574984
0.00579631
7.86249
7.82309
7.87439
0.0263765
6.69814
7.87411
7.7329
7.87055
0.018699
7.86373
-0.180548
7.87468
-0.00939608
6.91367
-0.0264388
7.88926
7.87042
0.00565671
6.54117
7.87985
0.0291861
-0.00673378
7.8929
7.87525
-0.0189771
-0.0563126
0.0204899
0.0171302
0.00724753
-0.00742472
0.0224147
-0.0383388
7.94862
-0.190431
6.25475
6.14014
7.8736
7.87122
7.87076
0.0353381
7.87518
7.86833
7.87535
-0.121889
-0.0418607
5.94615
-0.0421667
7.87603
-0.0150989
7.6085
-0.060055
0.0230745
6.32851
0.00315516
7.86613
7.84591
7.61007
0.0419456
-0.0112843
7.87301
7.61004
0.0319277
7.87401
-0.134971
7.91458
-0.0820198
7.87201
7.61059
7.853
7.60942
0.0252582
7.60968
0.270703
7.61195
-0.00470965
7.87275
7.869
4.30775
3.98257
7.89084
7.86945
7.87243
7.87334
-0.00641551
-0.143089
5.20838
7.87702
0.00100239
7.60808
7.61965
-0.429282
0.0127495
-0.0677044
7.61068
0.0260772
-0.0209767
0.0257655
0.014784
7.87267
7.87581
7.88004
7.87622
7.61044
7.60937
7.61013
7.84047
7.611
7.61032
7.87224
7.61005
-0.107945
7.60929
7.87261
8.61436
7.87459
7.87308
2.70307
7.60953
7.87181
-0.00504359
-0.0981105
7.84863
7.85197
7.87285
0.0183773
7.64436
7.86028
-0.110037
7.61088
7.87322
7.86872
7.87629
-0.0470071
7.60928
-0.176019
7.87677
7.85741
7.87151
7.87234
7.87
-0.109635
-0.142464
0.0215503
7.87485
7.63411
7.90959
-0.125426
7.87226
-0.131944
-0.085197
7.60768
7.83947
5.93621
-0.405517
7.85541
7.01341
-0.392425
6.01425
-0.0102655
7.64241
-0.0390939
5.98126
5.61347
7.87202
7.783e-05
7.61077
-0.0131986
-0.0546745
7.88134
-0.000775682
-0.283568
7.8702
-0.068546
7.61241
7.85652
7.86549
7.85241
7.86719
7.60796
7.8721
7.87236
-0.151027
7.10351
7.87263
7.8701
7.87105
7.87508
0.0193002
4.03922
-0.131799
-0.3084
7.87148
0.014705
0.00389382
7.87267
6.99083
7.78578
7.86221
7.8994
7.96265
6.42908
7.16282
-0.0340317
7.87425
7.87824
6.09711
6.63658
7.60914
-0.00616076
7.88024
7.62415
7.87463
-0.0789031
7.87676
7.60947
-0.0156897
7.60991
7.57024
7.76159
7.92057
-0.0157573
7.8736
7.87204
7.8719
7.84081
-0.0143486
-0.0652432
-0.056282
-0.00234828
-0.0298169
-0.0382793
7.61053
6.53974
-0.164789
-0.0317085
6.52982
-0.150917
7.86857
-1.08823
7.63218
-0.0885524
7.87471
7.61474
-0.0305738
-1.3929
7.87692
-0.0319581
7.87591
7.87613
-0.0948788
-0.0547977
7.87274
7.60991
7.91731
7.60931
7.86937
6.85969
7.87403
7.87183
-0.0322839
7.87358
7.86836
7.87114
-0.0234721
7.88427
6.90192
7.61005
7.60948
7.29638
6.91871
-0.0250195
7.61416
6.92711
0.00572007
7.86651
-0.0416553
-0.024599
7.87428
0.000427349
7.87127
7.45223
7.93487
6.78112
7.61225
7.85187
7.86583
7.8763
0.0201821
7.87517
7.8733
7.87182
7.73158
7.872
7.78211
-0.119444
7.8722
7.87739
-0.0689299
7.87318
7.61034
7.60916
0.0324258
7.87445
-0.162568
6.70011
-0.384453
0.0157467
7.60656
6.53459
0.00804134
6.26399
7.61066
-0.200636
-0.379241
-0.00259557
-0.0564293
-0.259529
-1.16871
7.63427
7.61551
0.00889023
-0.101241
-0.0837022
0.0177541
-0.400642
7.60807
0.019772
-0.000951322
0.00545691
7.61252
0.00811122
0.0225231
0.0234264
0.00466293
-0.122576
0.0153812
0.0423882
-0.00417074
0.0121934
0.026475
0.0113789
6.91535
0.0913986
0.00634595
-0.00136591
-0.0288559
0.0236829
0.0124436
0.0156744
7.07653
-0.114124
7.02528
0.0350793
0.011228
-0.0354579
0.0032063
7.01368
7.60779
0.0121692
0.0153258
-0.127788
-0.0635707
0.0246956
-0.000337959
4.82752
0.00939209
7.87218
-0.000523518
-0.112495
-0.0476507
0.0305923
-0.140568
-0.176313
-0.00247191
0.00713482
-0.00279977
0.0319619
0.0017949
0.123653
6.13655
5.39758
0.00206184
7.87632
7.87285
0.00153065
0.0221965
0.0234822
7.8736
-0.0720351
-0.055921
0.0182993
5.58367
7.87166
-0.209933
0.00762796
-0.1192
7.87599
0.029243
7.87225
0.00884146
-0.00470606
-0.0458107
-0.0450961
7.87213
7.87418
-0.0370502
0.0127665
0.027842
7.86563
0.0080761
0.0277016
-0.0056881
7.61717
0.0346629
0.0501212
7.0043
0.0228896
-1.50843
-0.105375
7.57825
-0.062367
-0.103271
7.87212
0.00335676
0.0180337
1.38629
-0.0131173
0.00913341
0.0230031
0.0220236
-0.0343524
-0.0226908
-0.233144
-0.110082
0.0327441
0.0222686
-0.0141232
-0.173449
0.0209155
-0.0192814
0.0596178
0.0145651
-0.16146
0.0403952
7.87223
-0.0021752
-0.0122027
-0.105588
0.0382725
-0.0402107
7.63737
-0.00464089
0.0245751
7.86766
-0.0740959
-0.0143489
-0.00390593
0.00274387
0.0227551
-0.0449675
0.0131185
-0.0164046
-0.0526653
7.87186
7.87238
-0.048699
7.6139
-0.0456606
-0.00376682
7.70518
0.0227372
-0.0195855
0.0403351
7.87186
0.0264354
0.01173
-0.0623879
-0.143675
0.0210901
0.0452642
0.00876604
-0.00880704
7.87234
7.85508
-0.0959416
-0.0317645
-0.0581362
0.0209125
7.85475
-0.0324272
0.0160957
7.70563
0.000816618
0.0111836
-0.0834242
-0.226906
-0.0300649
-0.0378619
0.0390944
-0.00436613
7.61888
0.00383374
0.00362004
0.000390322
-0.203938
7.85595
-0.0212457
8.01255
7.87313
0.0133689
-0.0119071
0.00623204
0.12212
-0.117683
1.48593
7.61212
-0.0310417
0.0262444
0.0664533
0.00953768
7.87935
7.61137
7.60086
-0.00123849
0.00365884
-0.23143
0.0255044
7.62607
7.8593
-0.00906876
0.00651761
-0.0425777
0.0137727
0.00876454
0.0297069
-0.0529372
4.3735
7.60937
-0.0041127
0.0243843
7.85879
-0.00419457
0.0251219
-0.0754623
0.010625
0.00990549
-0.0416641
7.85895
0.0264771
0.0064589
7.61231
7.64265
0.0296198
0.0797785
0.0156178
0.0212142
0.0184784
0.0134354
0.033804
0.0301639
0.0249903
0.0142549
7.85469
7.84709
0.00995835
0.0310395
0.0175045
-0.100407
0.0211896
-0.00273773
-0.000870502
0.0246991
0.0174398
7.61218
7.61948
-0.113838
7.85342
6.86134
0.0135033
0.0200773
0.00133899
-0.0957126
7.16049
-0.0341283
-0.0819348
7.29131
-0.103556
-0.210803
0.0206945
0.0228265
0.0202852
0.0296878
-0.144459
0.020991
7.87265
7.23406
-0.0795082
0.0290536
0.00530131
0.0263818
-0.107867
-0.0318232
-0.109943
7.26015
0.0256396
0.0534215
0.0144823
-0.124249
-0.0363043
-0.0950618
-0.203063
0.00348755
0.0229272
7.15165
-0.00304153
0.0271501
2.78602
6.78678
6.23489
0.0383087
6.63117
0.0139246
0.0236762
0.00554394
0.0237176
-0.107508
5.04215
3.04214
8.05778
6.72839
-0.0466753
7.60927
7.60899
-1.28544
7.8703
0.028467
0.0120371
0.0299402
0.023055
0.0235346
0.0060495
6.26747
0.0231483
0.0255863
-0.0306446
0.0151529
0.0355487
0.0139858
7.60937
-0.206923
0.0302321
-0.0954427
7.60941
-0.00846014
-0.00493001
7.60935
7.86422
-0.0800771
0.019619
7.90836
0.0132412
0.0172581
-0.0834946
7.87368
7.60931
0.0206127
-0.208738
0.0235029
7.60941
7.59432
7.60945
0.00253419
2.54824
2.32115
-0.00358688
-0.369581
7.88171
0.0269301
-0.346715
0.0189881
0.0239309
0.00744085
0.0183994
-0.507017
0.0287277
7.65926
0.0108788
0.0401843
0.0181265
0.0208124
0.0142085
0.0354247
0.0168361
0.0100084
0.0303928
-0.0618667
-0.389685
0.0122057
-0.0848171
-0.132851
-0.460573
0.0111102
-0.374037
0.0202449
0.0305359
0.0224808
0.039661
-0.0532885
0.0350194
-0.380485
0.0229858
7.46791
0.0110699
3.81277
0.0146741
-0.00591687
7.61299
-0.0158131
7.46732
-0.00373161
7.4953
7.90402
0.0439877
-0.0250195
6.84413
0.0245611
0.0205352
-0.0225857
7.86012
7.87431
0.0153979
0.0009686
-0.18123
0.0180916
0.0325238
-0.0238631
-0.0642971
-0.00765743
-0.0167393
6.50876
0.0101176
7.60896
7.80451
0.0314039
0.0300517
-0.0970088
0.0305906
0.0321636
-0.00985039
-0.0214219
7.78099
-0.111539
0.0226636
-0.0119286
7.79295
7.88043
0.00998492
-0.00126377
6.16037
-0.0414738
0.0293638
0.0011129
-0.13536
0.0329879
0.0233494
7.86357
4.57358
0.0222451
-0.0741867
7.67686
0.0404439
-0.0476662
-0.0130614
-0.122547
0.0174027
-0.152867
0.009724
-0.0378924
4.82902
-0.0484884
7.87362
0.000433349
-0.0197071
0.0309912
0.00983664
6.57011
0.014629
-0.0802006
-0.0135944
-0.109128
7.42217
7.60954
0.0299043
-0.0735102
-0.00362962
0.00480237
-0.0421516
0.0215893
-0.0020104
0.00867701
0.0419852
0.0264442
-0.0500299
7.02989
-0.131667
-0.0227597
-0.000801057
-0.0395956
7.226
7.60926
-2.39135
-0.115322
8.15198
-0.142498
-0.0241396
7.36796
4.99417
5.45602
-0.0433498
0.02435
0.172922
5.84006
-0.0767097
0.0317703
7.61645
0.227329
6.88502
-0.0127681
0.0220413
7.64286
-0.02844
-0.0256632
-0.0295252
0.0272454
7.60898
-0.270136
-0.0402894
-0.0770548
-0.0198641
-0.0197906
-0.0407052
-0.00925695
-0.178469
-0.0222287
0.021827
0.0234143
7.8719
6.44302
6.55513
7.72608
-0.0302707
0.0258837
0.0316803
-0.0637595
0.0206988
0.0297051
-0.00566089
-0.0196145
-0.0159051
0.0230735
-0.0144627
-0.0857792
0.00316863
0.0265878
7.87284
-0.0420227
-0.0607132
-0.017713
-0.00976362
7.6087
0.00228667
0.00467196
0.0359085
0.00322552
0.0130716
7.62909
0.0239656
0.0130098
6.87809
0.0242401
-0.00886892
7.72016
-0.000932455
7.71151
7.60715
0.00306061
-0.0612604
-0.0063311
0.0143704
7.61237
0.0347964
-0.0386189
7.61153
0.0298021
0.0127225
0.0190202
-0.0125937
7.75117
-0.032064
-0.0268856
0.0101401
7.69239
0.0465364
0.0208121
-0.00206506
0.0273586
0.0133428
7.90166
7.45066
7.05663
0.0269179
7.18521
0.0291293
0.0161216
0.0253216
7.83232
0.0215776
7.65305
7.87344
7.80572
0.010064
-0.0126303
-0.210462
0.00337901
0.03445
7.51563
6.8829
-0.0402166
-0.0449518
0.0375975
-0.166275
0.0244834