/*--------------------------------*- C++ -*----------------------------------*\
  =========                 |
  \\      /  F ield         | OpenFOAM: The Open Source CFD Toolbox
   \\    /   O peration     | Website:  https://openfoam.org
    \\  /    A nd           | Version:  10
     \\/     M anipulation  |
\*---------------------------------------------------------------------------*/
FoamFile
{
    format      ascii;
    class       volScalarField;
    location    "29.5";
    object      SgP;
}
// * * * * * * * * * * * * * * * * * * * * * * * * * * * * * * * * * * * * * //

dimensions      [1 -1 -3 -1 0 0 0];

internalField   nonuniform List<scalar> 
111485
(
1.03228e-09
0.00012174
2.82209e-05
5.50217e-11
8.59116e-06
3.20728e-08
1.5208e-05
2.55154e-07
1.04909e-05
2.91825e-06
2.56828e-05
9.33665e-07
6.85517e-06
0.295551
6.76931e-06
1.61327e-05
0.209133
0.00105518
9.01283e-07
4.80361e-08
0.0372074
3.19721e-09
3.16192e-06
1.13921e-05
4.01215e-05
3.49971e-08
5.88225e-07
1.47795e-05
1.05385e-06
0.0481374
4.18923e-06
5.04679e-07
2.17907e-07
1.45339e-06
0.000740365
9.18643e-05
0.136669
0.205846
0.00246558
9.07687e-07
0.0436019
1.16158e-06
3.03483e-06
0.000107843
1.86751e-05
1.58673e-06
6.53857e-06
4.4015e-07
6.10613e-06
4.28665e-07
1.09621e-06
1.72173e-05
4.63151e-07
9.98186e-06
1.50793e-06
1.60221e-07
2.81496e-06
4.44654e-08
5.0749e-05
3.84391e-07
5.82049e-07
2.65038e-07
8.64083e-05
7.0913e-06
6.46982e-06
2.13848e-05
0.000426602
2.3943e-06
7.17858e-05
0.000142507
4.82655e-05
8.73002e-05
1.12664e-05
9.2406e-05
4.65458e-08
1.81425e-06
1.51309e-08
7.21235e-07
2.68971e-08
3.13144e-05
0.281105
0.526631
4.71175e-08
5.2246e-09
1.60002e-05
3.81541e-05
0.143783
9.24802e-06
0.000247632
4.44301e-06
1.37141e-06
6.63036e-06
4.64417e-05
4.79906e-07
2.31128e-06
6.69096e-09
0.0270599
1.18786e-05
0.00153312
0.000577835
1.39646e-09
2.64401e-06
1.96888e-06
1.43884e-05
6.15197e-06
1.64818e-05
5.89254e-09
2.82986e-07
1.52541e-05
0.000731055
4.21978e-05
1.38072e-06
1.32622e-05
7.42124e-05
1.03126e-07
1.84724e-07
3.06142e-08
6.56213e-06
2.31644e-05
4.27202e-09
9.24522e-08
0.000190111
0.0753867
2.27212e-06
5.80142e-05
0.027932
0.000107392
1.33767e-05
2.92811e-10
0.000325019
0.000137376
1.7522e-05
0.047196
0.000175308
7.85686e-05
8.34e-07
8.44721e-10
3.23077e-07
9.7235e-06
2.45801e-05
7.13853e-05
3.81936e-07
0.180411
9.98289e-05
4.15984e-05
2.41989e-06
8.10582e-10
8.98245e-10
4.77086e-08
5.10628e-07
3.36214e-05
0.0285433
0.115735
1.41803e-05
3.53603e-05
5.53544e-07
5.6736e-06
0.000154204
0.000823672
5.4358e-06
9.68564e-10
7.20165e-07
4.04448e-05
7.42437e-05
6.39813e-05
3.85113e-05
7.35344e-06
0.0271165
0.00156694
0.000127583
1.58929e-09
1.52355e-08
0.197971
1.19229e-10
2.68743e-07
2.85963e-06
5.25016e-07
9.58739e-06
3.66624e-08
5.82389e-06
9.90961e-06
3.71343e-08
2.648e-06
5.07238e-07
2.39064e-06
2.06136e-05
9.84365e-06
5.54733e-05
0.000387641
1.78838e-07
5.44239e-05
5.74573e-06
7.1346e-06
3.72978e-05
5.08321e-06
1.2109e-05
2.06881e-06
1.39189e-06
8.46064e-07
8.88123e-06
3.08101e-06
0.00166428
8.05787e-05
9.25177e-07
1.82874e-06
4.13026e-06
1.25944e-05
1.17995e-05
1.83239e-05
3.08051e-06
5.69272e-06
9.87315e-06
8.71326e-06
7.81054e-09
7.05596e-05
0.000312133
4.60537e-07
7.06933e-09
1.2061e-05
1.78021e-05
8.74494e-07
8.33199e-08
1.62909e-05
1.66089e-05
0.000277996
6.90754e-09
4.28296e-10
3.16043e-05
0.00418543
2.35554e-05
9.37319e-05
1.40101e-05
2.37691e-06
0.146202
3.8767e-05
2.03128e-05
0.160981
4.65033e-08
6.21307e-05
2.21584e-05
2.71003e-05
3.30542e-05
4.86088e-06
3.90246e-06
0.00195829
1.07344e-06
7.85192e-06
1.24997e-08
5.30734e-06
0.136648
1.83032e-05
1.0976e-05
2.19683e-05
7.88752e-10
0.00019327
4.75356e-07
2.78386e-07
6.62306e-05
0.0996953
1.85434e-08
4.64993e-06
5.51008e-05
2.52057e-06
3.36483e-09
1.16265e-05
6.73448e-11
6.08393e-08
5.1004e-07
0.165033
4.33547e-06
3.23161e-05
1.39419e-06
0.177513
1.98343e-05
1.42022e-06
0.000256086
4.75798e-06
1.18614e-06
4.51101e-07
5.35706e-09
0.11157
4.26762e-07
4.03129e-05
2.10299e-05
1.79164e-09
0.217816
0.266066
1.57589e-06
0.000319807
3.26048e-05
3.17333e-06
8.85071e-06
1.19279e-05
2.01166e-08
7.60984e-06
2.95789e-09
0.000360286
0.000276396
1.56814e-05
1.59395e-06
0.346926
1.77258e-08
0.0861201
1.10537e-06
7.7801e-06
3.04466e-09
1.1501e-07
0.0246243
4.90568e-06
1.52097e-06
5.94907e-06
0.000172114
7.71202e-07
3.04612e-05
3.05581e-08
3.53643e-08
5.74145e-06
0.00441908
0.250461
3.38625e-06
0.000793217
1.79377e-09
8.68224e-09
1.4056e-08
8.48104e-05
5.71731e-07
5.85351e-07
2.17618e-06
8.73306e-07
7.1358e-05
0.0607958
5.58077e-06
1.24098e-07
1.89693e-06
2.25706e-06
0.0483998
4.99851e-05
7.38394e-07
7.24464e-07
7.85972e-07
1.34604e-05
7.09946e-08
0.151397
0.000173598
8.55851e-07
3.21635e-06
0.000304981
4.7684e-07
0.0391573
5.38192e-07
1.07718e-05
6.47587e-06
3.89181e-07
2.02168e-05
9.11574e-06
1.97923e-07
5.46815e-07
7.13335e-07
1.76504e-06
0.362392
2.97765e-05
1.70294e-07
0.0530418
1.65796e-05
1.74719e-08
4.07681e-07
3.74599e-07
0.046907
0.000622988
0.0458926
0.049713
2.833e-07
2.50488e-08
2.8028e-06
4.07135e-06
4.06536e-10
7.78987e-06
3.03465e-06
1.58679e-05
2.65226e-05
0.000141852
5.60517e-06
0.000709096
4.77383e-07
8.22619e-06
4.31916e-05
1.16224e-06
0.000672677
3.89938e-07
1.47234e-05
2.85439e-06
0.0303969
1.17716e-07
2.08879e-07
0.154852
4.78231e-06
0.306593
6.6735e-08
4.65333e-06
3.52356e-06
7.87451e-09
5.177e-06
4.63279e-05
3.77312e-09
0.0320367
3.16965e-06
2.84047e-06
4.56566e-07
2.59872e-08
0.000758064
3.77065e-09
1.03236e-05
3.63743e-06
4.30919e-10
1.14267e-06
3.894e-05
0.246948
0.000134981
1.97549e-09
7.95801e-05
0.000102715
9.88073e-05
3.90392e-05
0.000631552
2.48756e-06
0.00112707
5.50204e-05
0.20495
0.000204354
4.58496e-08
7.43334e-06
1.05521e-06
2.03791e-07
0.00142062
0.000223007
8.33073e-05
1.48474e-06
1.37213e-06
9.58334e-06
3.66889e-08
0.35172
8.28705e-07
3.36437e-05
0.0043911
9.16664e-05
0.00127043
3.56495e-08
0.253613
0.332564
2.49741e-08
3.56981e-05
0.000261484
0.000103562
4.05812e-09
3.01243e-05
3.5028e-09
0.285111
7.24142e-05
2.1395e-05
0.000108561
2.11534e-05
1.75625e-07
1.78197e-06
4.99783e-07
6.96613e-05
1.54582e-07
5.98138e-07
0.0523945
9.62063e-05
4.03695e-08
1.55987e-09
0.000385124
8.46212e-08
1.60584e-06
3.62109e-06
2.7512e-08
6.13478e-05
6.72916e-08
0.0741443
6.96097e-08
1.65932e-06
3.68118e-08
0.000239461
4.3094e-07
0.224179
1.97504e-05
0.237068
7.88836e-09
6.67901e-05
2.5917e-06
2.67272e-09
0.369941
0.143275
2.63123e-05
3.0395e-06
3.0636e-05
6.75289e-07
1.21346e-05
7.91651e-07
4.60449e-05
0.289994
2.55336e-08
2.42496e-06
0.00010846
1.80001e-05
0.0591389
5.95799e-06
0.000114981
2.45639e-06
1.3772e-06
0.000782763
0.0820754
1.78187e-05
2.17198e-08
1.33966e-06
3.72766e-06
3.55694e-06
1.14546e-06
1.96369e-05
1.74798e-09
0.00169785
1.59395e-07
3.55253e-07
1.78823e-07
9.6453e-05
4.1348e-09
1.04805e-05
2.89691e-08
9.31788e-06
1.94509e-09
0.116306
0.114815
2.00654e-05
1.16432e-06
0.0653405
0.0814004
4.74917e-08
2.65516e-07
1.51363e-05
4.60021e-08
0.000173223
1.79134e-05
1.07476e-05
0.0426446
1.68137e-06
2.38945e-09
4.6832e-05
4.70392e-05
6.33835e-05
1.48781e-06
1.58147e-05
1.03193e-05
1.20266e-06
9.74599e-07
2.10991e-05
3.32203e-05
2.59489e-09
0.126588
6.73055e-05
4.38795e-05
1.34673e-06
0.00119119
3.2093e-05
0.000463796
0.0030229
0.000386637
4.16195e-06
8.65415e-05
1.15323e-05
2.12454e-05
0.115115
0.000213021
7.44339e-05
0.00358882
0.0770695
3.16007e-08
6.54928e-05
4.59702e-06
4.07121e-05
3.65131e-07
0.000517841
0.00274319
0.00043343
0.000167317
2.68152e-05
2.37326e-06
5.54715e-08
0.000197831
3.46763e-06
2.87296e-08
5.6668e-10
5.6352e-08
3.18874e-08
9.97502e-06
1.81204e-09
0.0347471
1.28022e-05
2.56405e-05
0.0989137
0.319533
6.03684e-05
3.03814e-06
0.0371433
5.53723e-08
1.87655e-05
1.59825e-07
1.90428e-08
4.78019e-05
2.37141e-05
0.121572
2.65798e-05
1.66513e-07
2.69259e-06
2.90122e-05
0.143891
7.08413e-06
2.75545e-05
7.04116e-05
0.196929
0.0416186
2.82251e-06
1.77799e-05
5.96042e-06
2.41333e-06
5.95252e-06
1.06769e-06
3.18577e-05
4.22923e-06
2.18877e-06
1.14037e-06
4.38945e-06
0.000659302
3.27255e-05
4.24927e-06
5.14682e-06
0.000660229
4.08806e-07
5.14108e-07
1.8001e-05
3.1132e-06
1.66332e-05
3.08589e-06
3.26999e-06
3.41884e-06
3.29754e-05
0.000198191
1.26765e-05
1.84986e-05
3.12077e-06
4.64754e-07
4.48309e-05
4.4531e-06
4.02085e-09
0.0778962
1.59978e-08
0.136815
5.89437e-05
0.0117582
8.04057e-08
0.0295435
1.44241e-06
1.1415e-05
1.32143e-09
7.20447e-06
3.01102e-07
1.64872e-08
8.16598e-07
0.283
0.000130166
2.96465e-05
0.0411793
1.02364e-07
2.57556e-09
3.6524e-06
1.90826e-06
8.36792e-05
5.33025e-07
0.000128601
6.48912e-08
7.3925e-06
0.000125409
0.168405
6.33946e-10
4.63264e-09
3.31642e-06
8.46837e-07
0.00013272
4.19977e-07
0.0632229
1.21116e-06
2.65166e-08
1.22896e-07
0.0456715
6.51579e-06
0.000139509
5.42125e-10
0.00504157
0.00105336
0.18241
1.61562e-08
1.91451e-08
3.55637e-06
2.27455e-05
3.9587e-05
0.000586715
0.000331605
0.000260109
5.03849e-06
0.0636797
2.69897e-05
8.13076e-07
6.90641e-08
1.20457e-06
1.39188e-08
9.35868e-09
7.72679e-08
9.92412e-10
3.55941e-06
7.12438e-08
1.92923e-08
3.22257e-07
2.15304e-07
1.66704e-06
1.08286e-07
5.79807e-07
2.76579e-07
1.49664e-05
1.67009e-05
2.69586e-08
7.43195e-09
2.24837e-05
8.03129e-10
9.24269e-05
2.12579e-06
5.34127e-06
1.24491e-07
1.26956e-10
9.55447e-10
1.6163e-09
1.56796e-05
1.88067e-08
6.58905e-08
2.1065e-05
4.79566e-09
1.41195e-05
8.22024e-05
2.36593e-06
1.7352e-06
0.00052867
4.55008e-06
0.25247
0.000110087
8.33644e-06
0.209971
8.24857e-05
6.21869e-06
2.85287e-05
9.75861e-07
2.03973e-05
0.089046
0.000707631
6.22751e-07
4.00113e-08
1.27676e-05
8.05323e-05
9.9805e-05
9.22527e-05
1.85466e-09
1.56471e-10
1.31319e-06
3.86495e-05
9.32889e-06
3.90879e-06
0.000209977
3.46291e-06
2.99936e-05
1.41248e-07
1.52274e-08
0.0336177
8.19164e-06
3.72804e-07
2.76335e-08
4.98645e-05
0.000130877
1.78803e-06
3.47879e-07
0.0407022
1.62956e-09
2.75024e-05
0.064078
9.67998e-09
0.0727088
4.3047e-05
0.0372575
0.000609751
9.79406e-08
2.49278e-05
2.20564e-05
0.0458639
5.69444e-05
0.00131691
0.161911
0.000145469
1.15201e-05
1.0011e-06
1.42789e-06
0.487363
0.162267
4.30727e-08
0.242239
1.39017e-05
0.000162669
2.5334e-05
2.2179e-05
0.0012153
3.99318e-05
1.4004e-05
6.83616e-06
1.31096e-07
1.78419e-06
0.0458672
8.18279e-08
5.57281e-05
2.82743e-05
9.80453e-08
3.97176e-06
0.217747
4.50124e-06
2.96331e-07
0.000646999
1.5785e-08
4.05921e-06
0.212744
2.34421e-08
0.178172
0.343061
0.00135479
1.78201e-05
1.07326e-06
3.76662e-06
6.32462e-05
0.000224835
0.00120411
0.000318752
4.30204e-06
0.0455847
0.000112121
9.22268e-10
0.000304002
0.000299567
0.000612377
0.000467335
0.00086399
0.000171667
1.0735e-09
6.88653e-05
1.02752e-06
4.12236e-07
0.00171306
0.350224
1.75623e-07
3.28955e-08
0.00324287
0.00330526
3.2941e-09
0.000604719
8.67705e-08
1.585e-08
1.25034e-08
4.49277e-07
5.06958e-06
1.65556e-07
7.86486e-05
0.052122
1.45728e-09
5.13059e-07
0.00451224
0.116214
7.53966e-05
7.8796e-07
0.0327475
1.05322e-08
0.000134423
3.97803e-09
2.25639e-09
0.000574697
0.130215
2.5779e-06
8.64909e-09
6.70788e-08
0.035898
1.84434e-08
0.0232649
4.71876e-08
0.000104274
7.03644e-09
0.00195994
3.19066e-06
2.85942e-09
7.56889e-07
5.59965e-07
0.00140797
6.26925e-07
2.36337e-08
2.09377e-06
0.00444529
0.0544028
7.26701e-05
0.000614905
0.00107009
4.31669e-08
0.00132818
1.03378e-05
3.43854e-07
3.38135e-06
0.000215722
2.2483e-05
1.17237e-07
9.55752e-06
0.000151167
1.00968e-07
1.37811e-06
7.5285e-07
1.64008e-05
0.0734753
1.36588e-09
8.99612e-07
0.0612179
0.000121975
7.76026e-05
5.40915e-09
8.98051e-07
2.535e-08
1.13794e-06
2.75906e-05
5.33811e-05
5.53018e-07
3.01313e-05
2.76581e-05
8.34056e-05
1.69337e-05
7.15544e-09
3.83642e-06
1.67725e-09
5.07032e-07
6.73902e-05
0.000187641
3.17252e-08
5.10208e-07
4.57064e-06
1.46995e-10
4.79585e-05
4.46615e-07
7.33385e-05
0.000841544
7.55759e-05
1.48097e-08
0.00139456
0.000119717
6.32791e-05
0.000159582
4.5759e-08
0.000164615
2.56044e-06
0.117532
3.4983e-05
9.77656e-05
6.18855e-08
6.90947e-10
2.31645e-08
0.186995
0.0752034
4.47174e-05
6.76127e-10
0.000140561
2.99175e-08
0.173778
0.000160469
7.62211e-07
9.25685e-08
3.41852e-06
6.18354e-07
9.01799e-05
2.12888e-06
0.000123351
0.313631
4.1978e-06
7.23463e-05
3.39974e-05
7.13519e-05
5.21846e-05
3.25617e-08
3.52019e-10
2.85013e-06
3.68101e-05
8.218e-09
2.0366e-07
0.000610031
4.5932e-07
1.44267e-06
0.423853
1.76331e-06
6.86982e-05
4.00758e-10
3.3407e-06
2.67084e-07
0.332015
3.1143e-09
0.119425
0.00554306
0.000138107
1.72454e-05
1.58119e-05
0.000947403
2.57743e-06
4.22802e-06
2.3135e-06
1.03165e-06
6.20889e-08
1.87233e-06
8.60912e-05
2.4034e-06
0.0710712
2.76916e-07
4.34553e-06
0.000308838
2.07191e-09
0.000385695
8.56388e-08
3.9715e-05
0.00083269
6.86118e-08
2.13635e-06
7.06997e-05
5.51767e-07
9.43667e-06
0.182701
7.92901e-07
9.97669e-06
1.6153e-10
0.0468829
9.01398e-06
1.93171e-07
1.91091e-07
4.96104e-06
7.30514e-06
9.47802e-09
0.152506
1.48322e-06
2.13299e-09
0.000125619
4.08744e-07
2.67174e-09
4.60351e-05
0.00102356
0.00088604
7.97754e-09
1.12016e-06
4.65764e-08
4.90834e-05
5.07876e-05
0.0343428
6.27933e-06
0.00091491
6.79107e-05
0.0011787
3.09539e-05
3.5385e-06
1.09256e-06
4.76432e-07
5.23651e-05
2.09625e-06
7.40659e-06
0.0440693
0.000252659
0.0482494
1.27995e-09
7.9575e-06
1.19514e-07
6.06335e-05
0.0001027
1.18829e-05
4.91465e-05
0.000539656
0.000151465
7.57939e-10
0.00721916
0.0084286
8.67806e-05
4.76368e-05
8.51509e-07
0.0010006
1.68711e-06
2.86454e-06
1.38433e-07
5.58038e-09
0.00025351
9.70613e-06
0.00100255
6.43029e-07
0.0477308
0.000673887
7.22673e-07
1.37392e-07
0.000582225
2.91912e-06
0.055741
0.282199
0.000131643
0.000237591
1.66207e-06
5.29371e-07
2.09619e-08
1.36454e-08
6.30445e-05
5.04583e-06
0.0351515
0.0551614
3.1689e-05
3.20171e-08
0.000323948
0.0419513
2.76847e-05
0.00115982
0.00261597
0.0443992
0.122409
0.0516468
0.000122446
1.15594e-09
0.00204309
6.63617e-07
1.63594e-07
1.95329e-07
7.36483e-09
2.8838e-05
4.09022e-09
2.08164e-09
9.22389e-05
4.94184e-08
6.70608e-09
9.58311e-07
5.55706e-07
0.060344
6.51292e-06
3.08617e-05
0.0779086
0.263602
5.95681e-09
0.188797
0.00015623
0.392561
3.90234e-07
1.10739e-07
6.84884e-08
4.4936e-05
0.263462
1.73666e-09
0.00118605
7.41907e-08
3.99999e-06
1.63781e-05
7.80533e-06
1.09614e-06
2.42358e-07
0.0793033
1.02572e-08
7.21043e-06
1.11192e-07
9.30949e-07
1.76404e-06
0.000460843
0.000121674
1.16687e-06
0.000391231
2.18005e-05
4.25201e-07
0.000143553
7.51988e-07
2.54311e-05
1.43755e-07
1.25594e-07
0.255777
0.0447783
0.000400487
3.32953e-07
6.31209e-09
4.48872e-06
0.195488
2.4949e-07
1.16706e-05
5.50994e-07
2.95533e-06
2.51335e-09
0.0365401
0.000111825
7.60621e-07
6.2055e-07
1.77626e-05
7.98441e-09
0.181193
1.08388e-09
0.0405858
7.98561e-05
4.93608e-06
1.35016e-08
3.35958e-06
1.33611e-06
1.0305e-06
3.68157e-06
5.10052e-06
3.04258e-10
4.66825e-09
9.63402e-05
0.0822464
2.41053e-09
3.44244e-05
5.23825e-06
9.88455e-05
3.92224e-07
0.0493867
2.34464e-06
5.1613e-05
5.54854e-05
6.13415e-08
5.89378e-05
1.9836e-06
1.72749e-05
2.88491e-08
2.74293e-08
1.08025e-05
6.25756e-09
0.000184567
4.0336e-05
3.02436e-08
8.2824e-08
0.000136208
0.000550408
0.30712
1.18137e-07
4.96057e-06
1.84606e-06
0.000371869
0.000171721
2.73685e-05
8.41447e-05
0.0808277
3.54038e-06
5.52098e-05
0.000835835
0.0682626
7.1036e-07
5.04091e-08
0.000427774
2.94069e-06
0.0425151
1.91432e-07
6.98537e-06
3.52357e-06
1.5296e-08
0.232332
9.49381e-09
1.70571e-07
6.39589e-07
2.75345e-05
0.310971
0.058699
4.85122e-07
2.42993e-08
1.82336e-09
1.11983e-07
1.09714e-07
6.61938e-07
1.21405e-07
6.8768e-09
6.40193e-08
1.1827e-08
1.84133e-07
0.0643753
0.0381751
2.93242e-09
1.38434e-05
7.61396e-09
7.73481e-08
1.3109e-08
0.0374196
0.0824234
5.66946e-06
3.79127e-08
1.40474e-08
8.39015e-07
1.2889e-06
4.09441e-06
1.36958e-07
0.000333805
2.6982e-07
3.13658e-06
3.58567e-06
0.000190211
5.37157e-06
0.000807141
1.80693e-06
3.17819e-08
0.000494637
0.00045117
1.85822e-08
2.30659e-05
4.06094e-06
1.37304e-05
4.38787e-05
1.05451e-05
3.70919e-06
1.13215e-07
0.332706
5.06783e-07
4.0379e-05
0.0644042
0.000120327
1.2257e-05
1.51081e-05
1.68274e-06
2.38555e-06
2.29178e-05
6.71833e-05
5.76328e-05
3.37577e-06
4.57855e-05
7.59427e-06
3.95321e-06
2.17888e-06
5.54439e-09
6.37849e-08
4.73574e-08
6.685e-10
1.78627e-07
3.35209e-08
7.43203e-06
1.9306e-08
2.92485e-09
1.83633e-07
1.73984e-05
4.25821e-09
9.8051e-09
8.24036e-07
1.12344e-06
1.01589e-06
8.78979e-05
6.56907e-06
0.248193
1.24333e-07
1.16037e-05
1.55193e-05
4.27004e-06
4.4481e-09
1.82619e-08
0.225382
5.62162e-07
6.30036e-09
2.36472e-06
0.2265
1.7471e-06
5.9366e-05
5.90423e-05
1.10003e-06
7.68673e-06
9.19676e-06
0.000388289
1.95136e-08
4.41652e-05
4.97843e-06
1.92288e-07
0.00032317
0.000400078
0.197389
6.7922e-06
1.3773e-06
7.43552e-06
3.85938e-05
1.61859e-05
1.95261e-07
0.00262119
1.19524e-08
0.000639863
0.000416506
0.061094
1.00846e-05
0.259482
3.14663e-08
1.51224e-07
5.19395e-06
2.51291e-05
7.45877e-05
3.26687e-06
0.00011772
3.60473e-08
9.83504e-06
1.1134e-09
2.02745e-08
1.63512e-06
0.000493936
1.01492e-07
5.25637e-09
0.000420805
2.17693e-07
0.000551624
3.4902e-06
2.02235e-06
1.5037e-06
4.52947e-07
2.01054e-05
4.5497e-06
0.000205923
6.46522e-07
8.29193e-06
0.00331433
1.21764e-06
7.26035e-09
0.000158047
2.20953e-06
4.08184e-05
4.99047e-09
0.144497
0.000117424
7.18025e-05
1.789e-06
7.33053e-09
0.000197178
4.71464e-06
2.45279e-07
7.95113e-10
6.62425e-05
7.20022e-05
8.05874e-05
0.196859
2.93004e-06
6.12649e-06
0.000247404
1.01588e-05
6.83016e-06
2.72224e-06
8.73245e-05
3.65127e-06
0.000120585
0.184289
1.50722e-05
5.4005e-10
1.70833e-06
5.31159e-05
1.50356e-05
2.68242e-07
0.00046043
0.000889332
0.000487248
0.000880068
1.73768e-05
5.29326e-05
7.19493e-06
2.04133e-05
1.10781e-07
1.06658e-08
0.102356
0.000508417
2.85888e-06
0.00166646
5.15333e-06
2.49206e-05
0.000435519
4.32085e-06
2.26161e-06
3.23125e-06
4.06345e-07
4.2319e-05
3.01652e-05
0.000153163
2.8692e-05
5.62491e-07
6.44233e-09
2.82264e-05
9.88993e-07
2.02917e-08
0.000312717
3.03876e-06
8.04735e-06
3.82436e-05
7.56667e-06
4.05731e-08
0.000601188
0.139025
4.78787e-08
5.66578e-09
2.11748e-08
0.144969
0.247397
4.28605e-07
0.0533301
5.3888e-06
2.04275e-05
8.00839e-06
8.39199e-06
1.18118e-05
1.3918e-05
3.04374e-05
0.118437
0.34088
0.393258
1.2003e-05
3.19994e-05
6.69667e-06
7.4178e-06
0.361836
1.40481e-08
0.175573
4.08456e-06
1.10578e-08
7.24731e-07
5.93631e-07
2.92202e-08
3.7463e-08
2.2981e-07
1.75603e-08
0.137326
4.65936e-08
2.90981e-05
0.000196932
2.29718e-08
4.52109e-06
7.35586e-06
6.39118e-06
6.55121e-08
0.000587809
6.46417e-06
8.58775e-07
6.91327e-05
4.24803e-06
3.12345e-05
4.68111e-06
1.1933e-06
5.28483e-07
2.0401e-05
0.00341895
4.87325e-05
9.03669e-07
1.39611e-05
8.35059e-07
2.5431e-05
0.000100525
1.22121e-05
2.22877e-06
5.46744e-06
1.15329e-06
5.79106e-05
1.24072e-07
8.1823e-06
0.0412118
0.000425909
0.32927
0.000774286
0.000114586
1.68368e-08
0.061543
1.16979e-09
4.96289e-05
1.5921e-05
8.25258e-07
8.7728e-05
1.66439e-06
9.50118e-07
4.48135e-05
8.0299e-07
2.08986e-07
1.98068e-05
6.4991e-07
2.25445e-05
0.0790823
3.56079e-07
3.8074e-05
1.38808e-06
8.04408e-07
5.56952e-10
0.000261597
9.14349e-05
3.71657e-06
1.40262e-08
7.11116e-07
0.0443886
0.000212589
9.86771e-06
1.50418e-05
1.7008e-09
8.35519e-11
9.35769e-07
4.16073e-09
4.93071e-05
3.52963e-07
2.1755e-05
1.6998e-06
1.98094e-07
6.0273e-07
3.09762e-08
4.80468e-05
9.05849e-05
4.41292e-05
5.14124e-07
2.88399e-08
9.81963e-07
2.29425e-06
0.00053669
9.90999e-07
0.162169
2.18896e-05
2.91375e-08
4.13751e-08
0.000231383
1.28553e-05
0.00114343
5.45872e-07
9.88948e-05
0.234541
4.1557e-10
0.000334285
2.71449e-05
0.0425252
1.76364e-06
0.0474922
0.0830656
0.000120042
7.53063e-06
2.02022e-05
1.1273e-08
1.57678e-05
2.71194e-05
0.000379463
1.92236e-05
6.99067e-06
2.62076e-05
0.000431771
0.000346316
0.000516417
0.000130824
1.68804e-08
8.97321e-05
0.000891716
6.34985e-06
3.99684e-06
0.000250562
0.000214621
1.38165e-05
1.8734e-05
0.000266614
1.56725e-05
0.000381339
0.000250029
1.94544e-05
2.47521e-08
3.48621e-05
0.000419782
0.0668684
2.13346e-06
5.20229e-07
4.92376e-05
1.85134e-07
8.53684e-05
8.40883e-07
0.000397302
5.84416e-07
7.05339e-05
2.51134e-08
1.01574e-07
1.10626e-05
0.000923462
0.00120595
0.339179
4.17119e-05
2.04723e-06
2.13065e-07
0.000412502
2.316e-05
0.0338668
0.0704104
3.84052e-10
0.000791873
6.48005e-05
6.76024e-06
5.66044e-09
0.00114802
5.70377e-07
0.0427424
4.98768e-08
4.8836e-09
3.02202e-05
1.14755e-06
1.32251e-06
3.73142e-05
0.0395431
2.04259e-05
2.39883e-07
8.42722e-05
0.219309
0.0432739
6.80363e-06
0.000284707
3.04386e-05
0.000581385
3.02961e-06
0.0374002
3.85602e-05
0.000186777
2.41701e-07
8.83642e-07
4.72779e-06
5.22845e-07
2.42615e-05
2.36736e-06
7.69739e-07
2.55262e-06
4.1518e-06
0.000101563
2.46143e-08
3.61681e-07
0.0806627
9.72604e-09
7.738e-08
4.33737e-05
6.35582e-08
0.000186014
3.56137e-05
0.0659383
2.3609e-05
0.261472
1.28797e-05
2.18068e-05
0.0399125
0.000159442
2.47162e-10
2.01178e-06
0.0279776
1.58014e-05
7.8899e-05
1.68645e-05
1.6778e-07
7.06607e-06
7.48592e-06
8.51074e-07
0.127623
1.09612e-06
1.02847e-07
1.7765e-06
6.59753e-07
1.52795e-08
8.69157e-05
2.48498e-06
0.274442
8.1629e-05
3.51321e-05
4.64379e-05
5.86885e-05
1.67697e-05
2.97462e-06
1.46603e-10
8.99527e-07
7.40149e-05
2.15509e-05
6.50536e-06
6.9223e-08
1.13402e-05
1.24974e-06
4.03326e-05
3.21824e-08
1.3607e-07
1.23434e-06
2.86822e-05
2.19183e-05
3.31422e-05
2.92155e-08
2.26133e-08
0.00164923
2.22314e-08
1.53373e-09
2.76614e-09
1.46443e-06
0.308973
9.30111e-07
0.000115966
6.921e-05
2.11124e-05
1.78516e-07
1.25244e-06
0.000226221
7.38225e-06
3.79952e-07
3.7573e-05
4.08183e-09
2.92e-09
4.0504e-09
9.94148e-05
1.11868e-07
0.329129
0.000526982
3.53583e-05
0.00183983
6.84246e-07
1.71797e-05
2.4721e-09
0.0592679
8.28953e-06
6.19628e-06
1.55161e-06
4.12063e-07
1.61738e-07
0.481538
1.68619e-05
0.000436871
6.59572e-05
1.37827e-06
0.122514
3.16714e-07
3.20255e-07
4.99514e-07
7.24412e-07
3.5163e-05
5.02348e-07
2.44428e-05
1.81858e-05
0.000502454
3.60151e-06
5.31531e-10
0.000190567
3.82535e-07
0.156867
3.47021e-06
2.40806e-07
1.25391e-06
1.89462e-05
0.0606307
0.0297443
1.84694e-05
4.85689e-05
0.0905368
3.60503e-06
2.5317e-05
0.047382
1.2521e-05
5.92725e-06
0.173272
0.0186391
1.05947e-05
3.33375e-05
1.53476e-08
3.87353e-05
0.0017283
1.03768e-05
1.14827e-05
0.000380536
1.33195e-09
0.0231189
1.02821e-08
2.87691e-05
0.194338
1.22201e-07
1.22265e-05
4.61413e-06
3.7469e-07
3.96398e-08
4.81262e-05
4.17714e-07
1.13168e-07
3.16881e-05
9.74427e-06
1.39445e-08
0.023274
0.0440464
4.95017e-06
2.66542e-10
1.91309e-09
0.000143957
1.4067e-05
5.45043e-06
3.34894e-09
9.86207e-08
0.000132901
6.96546e-05
4.75617e-05
8.36159e-05
0.363527
1.51478e-09
0.140859
1.76496e-05
6.90303e-06
0.0562688
1.08545e-06
2.10802e-08
0.0228014
7.35097e-10
6.83907e-06
6.45937e-06
7.24058e-06
1.10159e-06
9.25763e-09
3.93973e-09
1.62935e-08
2.03797e-05
0.134079
0.212371
3.14489e-05
2.55147e-06
1.75438e-10
0.0557326
0.225572
0.000279229
1.04131e-06
1.36503e-07
0.000968599
0.000247187
2.36108e-07
1.32256e-08
2.18924e-06
8.02606e-06
3.70139e-08
1.10708e-05
6.99322e-05
0.0599358
0.204411
5.6317e-05
0.000862597
1.0021e-08
3.74361e-07
3.29259e-05
0.000179914
3.37893e-05
0.000435112
8.26103e-06
1.51284e-05
6.73663e-09
8.83576e-08
1.26538e-05
0.0582303
1.13135e-06
0.177827
2.00227e-08
1.22299e-05
2.41153e-06
1.65701e-05
1.07083e-08
1.26159e-09
1.10341e-07
3.52716e-08
1.22469e-06
0.000328053
1.02112e-08
0.0373014
1.79004e-05
0.159281
1.95512e-06
3.0173e-06
1.65201e-06
2.02917e-06
1.33302e-05
3.06919e-08
2.40038e-08
1.3409e-08
3.34723e-06
9.60964e-06
0.0582721
0.0564084
5.269e-06
1.01131e-06
6.00092e-09
2.41184e-09
2.51179e-08
1.71887e-06
0.000250265
2.0304e-07
3.65828e-08
3.5763e-09
0.0219272
2.66325e-05
4.47027e-05
0.0403564
8.78801e-07
0.310842
9.88601e-06
4.39578e-07
4.25928e-10
2.592e-07
0.0534336
8.9296e-10
2.31097e-05
2.24937e-08
0.000704789
4.50219e-05
8.46597e-05
0.00014568
2.94692e-05
4.10311e-09
1.57259e-08
0.359213
3.30327e-05
3.51121e-05
0.000234862
4.21733e-07
8.6071e-05
9.6113e-05
3.01198e-06
3.29859e-06
0.000305173
8.26414e-08
0.000719346
0.0391355
1.42431e-06
2.06359e-07
8.33459e-05
9.06155e-07
0.0340614
0.182156
2.17929e-05
9.11442e-10
0.00411047
3.43294e-07
1.56287e-05
1.52641e-06
0.000125461
1.1231e-08
0.00087976
8.74541e-05
0.000132115
2.14343e-05
0.000123309
3.0661e-05
5.45362e-06
7.3317e-10
0.000156001
4.76196e-05
5.82173e-05
6.6453e-07
9.65671e-06
0.000121729
0.000454551
9.4451e-09
1.84159e-08
3.48208e-08
3.46201e-10
1.2729e-07
0.0216128
0.000404701
0.000144269
4.07746e-05
0.000206424
8.31789e-05
2.7877e-10
1.1648e-05
6.92137e-09
5.38823e-07
7.81058e-09
2.62014e-05
0.00204029
1.55018e-05
1.11609e-07
1.33155e-08
1.50267e-06
1.22411e-07
6.93629e-09
0.146487
9.2588e-06
0.000677107
0.00103122
0.000731592
9.00856e-09
0.000677253
0.000755037
0.00135861
0.000733621
3.85043e-09
4.0682e-10
3.45806e-06
8.61834e-06
6.8311e-05
0.000323672
0.0425068
8.30674e-06
3.29146e-05
4.47927e-06
0.00055888
3.40006e-08
1.22937e-09
0.000115029
0.000371912
0.0260833
6.78717e-09
0.11796
0.000127003
3.39217e-07
9.38425e-05
4.96696e-06
8.98422e-05
2.28218e-06
9.87044e-05
6.73195e-09
9.62827e-06
0.00217077
3.6659e-05
5.83425e-08
0.0017569
4.48544e-05
1.06898e-05
0.00322516
8.72901e-08
7.69361e-06
5.71278e-05
0.000103598
8.5766e-07
0.193171
5.67493e-08
8.72373e-07
2.68743e-08
0.118102
0.12099
2.06771e-06
1.81801e-06
0.000155198
0.0550457
3.32533e-08
1.10292e-05
2.1718e-05
1.34202e-05
1.27981e-06
0.195437
7.20557e-06
1.69906e-05
0.0036415
1.60587e-07
7.1966e-06
1.73314e-06
2.53093e-06
1.83051e-09
0.0024048
0.00397896
1.07822e-07
7.67882e-07
1.27585e-06
0.000102324
7.30344e-09
0.0397863
2.90085e-07
9.99959e-06
1.09906e-06
5.30341e-07
5.03168e-06
3.37321e-05
1.2959e-06
5.01128e-06
0.000247636
1.59227e-06
1.345e-06
0.0429862
7.70828e-07
3.37897e-06
2.47447e-06
1.99509e-05
1.87713e-10
5.0527e-09
7.16174e-10
6.02961e-06
5.58788e-08
0.0677301
2.22533e-05
1.21277e-05
3.98244e-09
3.27609e-05
0.1175
7.88964e-05
1.38598e-05
6.19152e-05
1.26199e-05
2.01101e-07
7.87758e-08
2.43644e-05
4.40548e-06
2.72584e-06
0.000546673
9.73416e-06
4.65616e-08
2.97348e-08
2.32863e-06
7.65719e-08
7.00557e-06
4.1301e-08
1.20632e-05
1.63307e-05
1.94925e-07
7.93225e-10
0.0456881
7.12724e-09
2.55901e-09
2.52258e-05
0.0564354
2.07069e-05
2.24874e-06
1.38612e-08
1.00705e-05
5.36482e-06
2.23368e-05
6.08661e-06
7.4181e-09
1.76311e-06
1.58804e-06
5.51813e-06
4.05398e-09
4.98699e-09
4.39299e-09
5.2679e-06
1.71193e-05
9.68688e-07
1.64175e-08
7.59454e-06
5.21838e-05
1.91689e-08
2.49459e-05
4.63689e-07
5.25007e-08
4.40242e-09
3.93858e-05
2.39836e-07
2.09587e-05
1.52359e-09
2.55801e-05
1.00847e-08
1.5545e-06
0.000350897
1.34388e-07
5.50563e-09
0.0688093
2.97702e-08
0.0565732
2.47978e-07
4.61555e-08
9.47268e-06
2.58608e-05
0.0470365
5.91271e-05
0.0499201
0.0606399
9.17302e-05
1.14332e-05
0.04036
1.0887e-05
1.66673e-08
4.27979e-05
0.141235
0.0370003
0.0421996
1.19214e-08
1.016e-05
1.42607e-08
5.55544e-06
9.89737e-07
7.92652e-06
0.000172238
7.08388e-06
5.30154e-07
1.64958e-08
3.76106e-06
0.000295255
2.38374e-08
1.21247e-05
3.8451e-05
1.97657e-06
9.85031e-10
6.34912e-05
2.62445e-05
2.61581e-05
1.79731e-05
1.66908e-05
2.13974e-06
7.6082e-06
0.000154005
8.7124e-06
6.75062e-06
0.000126088
0.000457945
4.10002e-09
6.3512e-07
2.78097e-08
1.98887e-05
9.058e-08
2.31237e-06
1.03303e-10
0.000397376
0.391926
0.0890766
0.000150375
5.09048e-09
1.1233e-05
0.0553394
0.102955
2.46722e-06
0.000271668
2.09774e-06
5.58085e-07
1.18104e-07
3.04234e-09
9.45948e-06
4.48643e-05
3.85027e-08
4.34446e-09
1.77621e-05
1.65682e-07
0.176377
0.0539027
1.16886e-05
5.26294e-09
1.15549e-08
0.0420692
5.05522e-09
2.57947e-05
9.65959e-09
0.000614822
2.34086e-08
5.05034e-06
5.13257e-08
6.11876e-09
0.00108246
0.154995
0.0646224
1.45166e-08
0.068966
4.24329e-08
1.36967e-05
1.64356e-06
0.118093
2.39931e-07
0.000162656
3.97092e-09
1.96936e-06
0.000277131
1.72747e-06
0.000165173
1.02209e-08
1.16776e-05
3.30455e-05
2.0688e-05
5.41566e-06
3.6651e-07
3.32536e-07
3.3848e-06
6.10295e-07
9.99718e-09
3.59582e-09
0.0754054
0.0371589
1.44496e-08
0.0845448
3.11382e-10
2.14087e-08
5.2864e-05
4.90995e-09
4.81937e-09
0.0402503
1.82046e-08
7.66826e-10
0.000650226
2.10724e-09
1.26097e-09
5.06531e-05
0.0929522
1.42253e-07
0.0371258
8.43979e-09
4.67344e-06
0.0504
6.27794e-06
0.000877869
5.79864e-10
7.27763e-08
1.04533e-06
1.7474e-07
0.209814
0.0456664
0.000109581
3.26419e-08
0.0462823
9.8296e-10
2.051e-08
1.79248e-09
0.103337
0.00176264
9.27603e-06
1.25702e-09
1.30708e-06
0.0481376
0.000912255
3.6471e-07
0.000264045
0.109131
0.0863096
3.4763e-05
0.085392
0.000925588
0.0426708
4.21003e-05
0.0657787
0.000345213
4.72296e-06
1.48282e-06
2.34348e-06
0.00045862
0.000931423
6.94792e-10
3.91134e-06
7.08601e-08
4.64756e-05
7.45919e-06
9.99952e-07
8.09336e-06
0.000297717
1.74491e-07
8.10934e-06
9.25181e-08
2.68184e-08
2.75322e-08
4.5409e-08
5.07988e-06
4.49917e-08
4.87931e-08
7.45087e-08
1.06465e-05
4.32627e-05
1.99953e-10
1.8044e-09
5.53915e-08
1.0087e-07
1.07033e-06
0.00129784
0.00210026
0.000131164
9.58834e-09
3.22554e-05
5.78428e-06
0.0463498
3.20659e-05
1.29353e-05
5.65519e-07
1.11272e-06
2.46729e-06
0.000222941
0.000117036
0.179521
0.0671711
8.23503e-08
0.000828956
0.000296457
1.45731e-08
2.69774e-06
4.61795e-06
3.81647e-08
1.73084e-06
3.94077e-06
0.0621525
1.05095e-09
8.33651e-05
1.38733e-08
0.0488258
5.12538e-05
0.0355024
3.33609e-05
4.90258e-09
6.73425e-09
2.32122e-08
2.50524e-05
2.44711e-05
4.23484e-06
7.26086e-06
9.6151e-07
0.000763437
0.000290081
9.52672e-10
0.000117092
4.82288e-05
5.29511e-05
9.54679e-05
0.00296692
4.05128e-06
0.0992043
4.95515e-08
5.90374e-06
0.038356
1.39825e-08
0.000260992
0.00716435
4.03584e-08
0.000103135
1.39518e-08
1.85938e-07
2.57797e-06
3.93261e-06
5.32891e-08
8.59463e-09
6.93092e-07
2.56644e-09
6.08111e-09
0.000126703
2.45389e-08
5.64253e-10
2.93952e-05
7.70932e-09
9.77388e-08
2.70173e-07
0.000214996
2.19698e-07
0.000169515
1.07939e-07
4.74921e-08
2.26285e-05
6.60423e-05
0.000231639
0.0432491
8.07904e-05
4.29451e-05
2.29974e-06
0.320066
0.311218
1.25096e-07
2.91049e-05
1.79356e-08
0.0459128
0.0380246
0.000405915
0.090495
0.0684922
7.16269e-06
1.10399e-09
0.000116272
1.12917e-08
1.23078e-09
3.97558e-07
1.60068e-05
7.25903e-09
1.73666e-05
3.37733e-05
5.12039e-09
2.40661e-08
8.90948e-06