/*--------------------------------*- C++ -*----------------------------------*\
  =========                 |
  \\      /  F ield         | OpenFOAM: The Open Source CFD Toolbox
   \\    /   O peration     | Website:  https://openfoam.org
    \\  /    A nd           | Version:  10
     \\/     M anipulation  |
\*---------------------------------------------------------------------------*/
FoamFile
{
    format      ascii;
    class       volScalarField;
    location    "29.5";
    object      SgRate;
}
// * * * * * * * * * * * * * * * * * * * * * * * * * * * * * * * * * * * * * //

dimensions      [1 -1 -3 -1 0 0 0];

internalField   nonuniform List<scalar> 
111485
(
1.03229e-09
0.00782229
0.0243819
5.5022e-11
0.0490473
3.20728e-08
0.0465664
0.00616999
0.019095
0.00125116
0.0469542
0.00949065
0.00483775
0.296344
0.00652538
0.0302015
0.210571
2.62498
0.0103555
4.80361e-08
0.0372074
3.19722e-09
0.0269726
0.034509
0.00878767
3.49972e-08
0.0393123
0.00179891
0.0152265
0.0481374
0.0447019
0.0196255
2.17907e-07
1.45339e-06
0.00702134
9.18643e-05
0.14732
0.21006
0.00246562
0.0242962
0.0436019
0.0707815
0.0158584
0.00168
8.23784e-05
1.58673e-06
0.0294003
0.000711525
0.047425
4.28665e-07
1.09621e-06
1.72173e-05
4.63151e-07
0.0515777
1.50793e-06
0.0438016
0.00302962
4.44654e-08
7.07254e-05
0.00479981
0.0160753
2.65038e-07
0.00491369
0.0984524
6.46982e-06
0.00312118
0.316452
0.0943889
0.00119096
0.0063365
6.79416e-05
0.00677032
1.12664e-05
0.00301699
4.65458e-08
0.000721203
1.51309e-08
0.0411161
2.68971e-08
3.13144e-05
0.281106
0.560694
4.71175e-08
5.22461e-09
0.00942296
0.00383684
0.143783
0.0254429
0.000308617
0.00744663
0.000255048
0.0402497
0.0120333
5.84761e-05
0.0520977
6.69097e-09
0.0270599
0.00184001
0.00153315
0.00169729
1.39646e-09
0.0176384
1.96888e-06
0.0179579
0.00457678
1.64818e-05
5.89254e-09
0.00759173
0.0042265
0.00073111
0.00559137
0.00476093
0.00382805
0.00335007
1.03126e-07
3.44172e-05
3.06143e-08
6.56213e-06
0.0129306
4.27202e-09
9.24522e-08
0.000190111
0.0753867
2.27212e-06
0.00158982
0.027935
0.000107392
0.00173946
2.92811e-10
0.000347474
0.00166952
0.0329061
0.047196
0.000175308
7.85686e-05
0.048284
8.44729e-10
0.0425525
0.0254434
0.00273222
0.000324308
0.0019981
0.202911
0.00270847
0.004125
0.0130646
8.1059e-10
8.98246e-10
4.77087e-08
0.0281051
0.00155809
0.0285433
0.115735
0.00468706
3.57842e-05
0.0109488
0.0161231
0.0110264
0.000823733
5.4358e-06
9.68564e-10
0.0523731
0.0224854
7.58922e-05
6.42815e-05
0.00590177
0.00339613
0.0271165
0.00157093
0.000170365
1.58929e-09
1.52355e-08
0.198092
1.1923e-10
0.00548434
0.00206347
5.25016e-07
9.58739e-06
3.66624e-08
5.82389e-06
9.90961e-06
3.71343e-08
0.00152035
0.00678075
0.0299475
0.00414208
0.00772255
0.00409588
0.000464807
1.78838e-07
0.00492376
5.74573e-06
7.1346e-06
0.00659281
0.0103512
0.0288243
0.0115155
0.0050262
8.46064e-07
0.00681725
0.000500657
0.00170511
0.0145687
0.00234086
1.82874e-06
0.00386881
0.0249403
1.17995e-05
0.000175781
0.00794376
0.00199813
0.000381536
8.71326e-06
7.81054e-09
0.0084206
0.000312133
0.119273
7.06934e-09
0.00671294
0.020646
0.119061
8.33199e-08
0.00332231
0.0137434
0.000277996
6.90754e-09
4.28299e-10
0.149934
0.00418566
2.35554e-05
9.37319e-05
0.00946477
0.00783372
0.161158
3.8767e-05
2.03128e-05
0.160994
4.65033e-08
0.00242145
0.00961496
0.016711
0.0116668
0.00967083
3.90246e-06
0.00195853
0.000634298
7.85192e-06
1.24997e-08
0.0309395
0.157221
1.83032e-05
0.00658932
0.0108198
7.88753e-10
0.00019327
0.000112772
2.78386e-07
6.62306e-05
0.0997416
1.85434e-08
0.0147545
0.0106498
0.00369249
3.36484e-09
0.0118205
6.73462e-11
6.08393e-08
5.1004e-07
0.165033
0.0230662
0.00621836
0.00551658
0.21373
0.0124257
0.00156104
0.00081951
0.0321831
0.0087
4.51101e-07
5.35706e-09
0.11157
0.0227004
0.0246044
0.0117907
1.79164e-09
0.224825
0.268098
0.00304078
0.000321832
3.61501e-05
0.0138709
0.00219641
0.00199699
2.01167e-08
0.000649608
2.9579e-09
0.000360513
0.000276396
0.233541
0.0678084
0.358688
1.77258e-08
0.0861201
0.0089778
0.00172435
3.04467e-09
1.1501e-07
0.0246243
0.000300064
0.056872
0.00403384
0.0134066
0.0191779
3.04612e-05
3.05581e-08
3.53643e-08
0.00378161
0.00441908
0.251317
0.184112
0.0007935
1.79377e-09
8.68224e-09
1.4056e-08
8.48104e-05
0.06019
0.0118076
2.17618e-06
0.00529604
7.1358e-05
0.0607958
0.0671788
0.00599474
0.0114504
0.00933734
0.0483998
4.99851e-05
7.38394e-07
0.00952185
0.0187515
0.00490773
7.09947e-08
0.151397
0.000327392
0.00230579
0.00806569
0.00033707
0.0284764
0.0391573
0.0375103
0.00359337
0.00772544
0.0258059
0.0131501
9.11574e-06
1.97923e-07
5.46815e-07
7.13335e-07
0.0310885
0.372199
0.0325985
0.0673282
0.0530418
0.0182733
1.74719e-08
4.07681e-07
0.016755
0.046907
0.0824667
0.0458926
0.049713
0.0228022
2.50488e-08
0.0135093
0.000288118
4.0654e-10
0.000978193
0.0166624
1.58679e-05
0.00897316
0.00911571
0.0082
0.00141631
0.00266055
0.00546454
4.31916e-05
1.16224e-06
0.00269049
3.89938e-07
0.00634386
0.118033
0.0303969
1.17716e-07
0.0276975
0.154961
0.00831129
0.327042
6.6735e-08
0.0479115
0.018904
7.87451e-09
0.000846984
0.00239896
3.77312e-09
0.0320367
0.0109259
0.00519434
4.56566e-07
2.59872e-08
0.000758105
3.77065e-09
0.0125287
3.63743e-06
4.30921e-10
0.0167019
4.0486e-05
0.259214
0.03012
1.97549e-09
7.95801e-05
0.00164573
9.88073e-05
0.000204375
0.0152574
0.1218
0.829665
5.50204e-05
0.207717
0.000766057
4.58496e-08
0.0390424
0.0308751
2.03791e-07
0.00142063
0.000308951
8.33073e-05
0.0236973
0.023926
0.0138655
3.66889e-08
0.352381
0.0167172
0.0228024
0.00439192
9.16664e-05
0.00127043
3.56495e-08
0.253624
0.363751
2.49742e-08
0.00818831
0.000363748
0.000103562
4.05814e-09
3.01243e-05
3.5028e-09
0.288833
0.00965665
0.0063057
0.00213779
0.00258873
1.75625e-07
0.00194382
4.99783e-07
0.0413382
1.54583e-07
5.98138e-07
0.0523945
0.0376367
4.03695e-08
1.55988e-09
0.000385265
8.46212e-08
1.60584e-06
0.00107166
2.7512e-08
6.13478e-05
6.72916e-08
0.0741443
6.96097e-08
1.65932e-06
3.68118e-08
0.00702699
4.3094e-07
0.224723
0.00200462
0.23789
7.88836e-09
0.000974943
2.5917e-06
2.67272e-09
0.372667
0.145027
0.0267318
0.0251593
3.0636e-05
0.00203492
0.0824788
0.00851685
0.00105476
0.293187
2.55336e-08
0.023227
0.00010846
0.00504985
0.0591389
0.076423
0.000114981
0.0211948
0.000247977
0.000783283
0.0820754
0.00204419
2.17198e-08
0.0799314
0.0489032
3.55694e-06
1.14546e-06
1.96369e-05
1.74798e-09
0.00169786
0.0547065
3.55253e-07
1.78823e-07
0.00250267
4.13481e-09
0.0340479
2.89691e-08
0.000319887
1.94509e-09
0.116771
0.114816
0.000998332
0.0127724
0.0653405
0.0818186
4.74917e-08
2.65516e-07
0.0147226
4.60021e-08
0.000201661
1.79134e-05
0.00164837
0.0426446
0.0644635
2.38945e-09
4.6832e-05
0.0178412
0.00325625
0.00174545
0.00385985
0.00689228
0.0206684
9.74599e-07
0.0254959
0.00596232
2.5949e-09
0.126588
0.041456
0.0154996
1.34673e-06
0.00477989
0.0069615
0.00227283
0.00399561
0.000386637
0.0136763
0.00132321
0.000130376
0.0228472
0.128847
0.00077813
7.44339e-05
0.00358882
0.727638
3.16007e-08
0.000407958
4.59702e-06
4.07121e-05
0.00731198
0.00315343
0.00274343
0.000451422
0.000167317
0.0159358
0.011055
5.54715e-08
0.000197831
0.0012958
2.87296e-08
5.66703e-10
5.6352e-08
3.18874e-08
0.0126201
1.81205e-09
0.0347471
0.00845811
0.00193228
0.0989137
0.33011
6.03684e-05
0.0084606
0.0371433
5.53723e-08
0.0516614
1.59825e-07
1.90428e-08
4.78019e-05
0.00421609
0.121572
0.0280095
0.00624984
2.69259e-06
0.090377
0.146209
0.0287541
0.0283906
0.000481673
0.197002
0.0416186
0.0538329
0.0467919
5.96042e-06
0.000323202
0.0406567
0.00803905
0.00141245
0.0276584
0.026143
1.14037e-06
0.0109715
0.000666093
3.27255e-05
0.0348788
0.000254358
0.000660229
0.0108483
0.0407329
0.00132499
0.0215301
0.0196757
0.00720878
3.26999e-06
0.0104367
0.000332525
0.000198191
0.0172182
0.0180526
0.0357602
4.64754e-07
0.00188632
4.4531e-06
4.02085e-09
0.0778962
1.59979e-08
0.136828
5.89437e-05
0.0117582
8.04057e-08
0.0295435
8.31695e-05
0.0428079
1.32143e-09
0.0303487
3.01102e-07
1.64873e-08
8.16598e-07
0.321509
0.00052204
2.96465e-05
0.0411793
1.02364e-07
2.57557e-09
0.205385
0.0697999
8.36792e-05
0.00200978
0.000130392
6.48912e-08
0.0374293
0.00872959
0.17985
6.33951e-10
4.63265e-09
0.000415392
0.00107425
0.00013272
4.19977e-07
0.0632229
0.00722875
2.65166e-08
1.22896e-07
0.0456715
0.0421714
0.00228153
5.42132e-10
3.84634
0.368749
0.192078
1.61562e-08
1.91451e-08
0.0550035
0.000453941
3.9587e-05
0.000591798
0.108722
0.00262696
0.0111988
0.0636797
0.0520092
0.00191945
6.90641e-08
1.20457e-06
1.39188e-08
9.35869e-09
7.72679e-08
9.92413e-10
0.0224359
7.12438e-08
1.92923e-08
3.22257e-07
0.0113127
0.0235424
1.08286e-07
5.79807e-07
0.105537
0.0143582
0.0099012
2.69586e-08
7.43195e-09
0.0372456
8.03129e-10
0.00177379
0.0026368
0.00397575
1.24491e-07
1.26956e-10
9.55451e-10
1.61631e-09
0.0145859
1.88067e-08
6.58905e-08
0.00108748
4.79567e-09
0.0233216
0.00201189
2.36593e-06
0.0368607
0.337612
0.0025407
0.281429
0.000250337
0.0434259
0.209971
8.24857e-05
0.0237172
0.0675679
0.00599009
2.03973e-05
0.089046
0.788567
0.0100397
4.00113e-08
0.00241664
0.00248143
0.00122257
9.22527e-05
1.85466e-09
1.56486e-10
0.0134749
3.86495e-05
0.00274142
3.90879e-06
0.00139633
0.00143399
0.0367997
0.000565122
1.52274e-08
0.0336177
8.19164e-06
0.0204952
2.76335e-08
4.98645e-05
0.000206232
1.78803e-06
3.47879e-07
0.0407022
1.62956e-09
0.0101871
0.064078
9.67998e-09
0.0727088
4.3047e-05
0.0372575
0.000609751
9.79406e-08
2.78378e-05
0.00164195
0.0458639
0.00412241
0.00132302
0.161912
0.000203174
0.00395602
1.0011e-06
1.08087e-05
0.497455
0.162665
4.30728e-08
0.242239
0.000871687
0.000162669
0.00999292
0.000208972
0.00121688
0.0229359
0.009483
0.0022495
0.00483676
0.00198208
0.0458672
8.18279e-08
0.0330865
0.0265653
9.80453e-08
0.00842548
0.271726
0.0284525
2.96331e-07
0.0018914
1.5785e-08
0.0101978
0.226721
2.34421e-08
0.179758
0.343508
0.00135596
0.00497649
1.07326e-06
0.0486897
7.79023e-05
0.00161939
0.00123325
0.000330718
4.30204e-06
0.0455847
0.00692598
9.22269e-10
0.000428689
0.000540775
0.000913472
0.000467395
0.000864059
0.000171841
1.0735e-09
6.88653e-05
0.0226516
4.12236e-07
0.00191045
0.352182
1.75623e-07
3.28955e-08
0.00324353
0.00330526
3.2941e-09
0.000609941
8.67706e-08
1.585e-08
1.25034e-08
4.49277e-07
5.06958e-06
1.65556e-07
0.00034734
0.052122
1.45729e-09
5.13059e-07
0.00451875
0.116262
0.00175654
0.00920993
0.0327475
1.05322e-08
0.000289495
3.97803e-09
2.25639e-09
0.000574697
0.148634
0.042074
8.64909e-09
6.70788e-08
0.035898
1.84434e-08
0.0232649
4.71876e-08
0.00672588
7.03644e-09
0.00195999
0.0263119
2.85942e-09
7.56889e-07
5.59965e-07
0.00143738
6.26925e-07
2.36337e-08
2.09377e-06
0.0044551
0.0544028
0.00420473
0.000615788
0.00107009
4.31669e-08
0.00140632
0.00187299
0.0439569
3.38135e-06
0.000224219
0.00541035
1.17237e-07
9.55752e-06
0.000151167
1.00968e-07
0.00822214
0.00163351
0.00316384
0.0734755
1.36588e-09
0.022856
0.0612179
0.000121975
7.76026e-05
5.40915e-09
0.0264648
2.535e-08
1.13794e-06
2.91217e-05
0.0522206
5.53018e-07
0.00233022
2.76581e-05
0.000846407
1.69337e-05
7.15544e-09
3.83642e-06
1.67726e-09
0.00246512
0.000645806
0.301701
3.17252e-08
5.10208e-07
0.00207274
1.46997e-10
4.79585e-05
4.46615e-07
0.0359273
0.000851533
0.0320566
1.48097e-08
0.0014059
0.000171491
6.32791e-05
0.000294259
4.5759e-08
0.00133877
0.0244649
0.13782
0.00115897
0.000317859
6.18855e-08
6.90953e-10
2.31646e-08
0.187018
0.0752034
0.00770391
6.76139e-10
0.174049
2.99175e-08
0.214721
0.00308686
7.62211e-07
9.25685e-08
3.41852e-06
6.18354e-07
0.0421492
2.12888e-06
0.000123351
0.325284
0.00689962
7.23463e-05
3.39974e-05
7.13519e-05
5.21846e-05
3.25617e-08
3.52022e-10
0.026079
0.000427428
8.218e-09
2.0366e-07
0.000610594
4.5932e-07
0.00155532
0.423955
1.76331e-06
0.00362942
4.0076e-10
0.000392005
2.67084e-07
0.333129
3.11432e-09
0.119425
0.00554524
0.000741906
0.0185069
0.0346683
0.000948553
2.57743e-06
0.000581514
2.3135e-06
0.00467365
6.20889e-08
1.87233e-06
8.60912e-05
2.4034e-06
0.0710712
2.76916e-07
0.00733511
0.00858903
2.07191e-09
0.000385695
8.56388e-08
0.000847081
0.000844903
6.86118e-08
0.017993
0.000237628
5.51767e-07
0.0235359
0.190832
0.00371701
0.0109573
1.61532e-10
0.0468829
9.01398e-06
1.93171e-07
0.0370188
4.96104e-06
0.114935
9.47802e-09
0.152833
0.000728724
2.13299e-09
0.00112095
4.08744e-07
2.67174e-09
0.00317278
0.00102358
0.0106643
7.97754e-09
1.12016e-06
4.65764e-08
0.000896348
5.07876e-05
0.0343428
6.27933e-06
0.000915175
6.79107e-05
0.00118488
3.09539e-05
3.5385e-06
1.09256e-06
0.0183494
0.00986772
0.0182798
0.0359287
0.0440693
0.000269257
0.0482494
1.27998e-09
0.00954975
1.19514e-07
6.27264e-05
0.000468593
0.00675965
0.000430645
0.000539657
0.00199753
7.5794e-10
0.00721917
0.0084286
0.000217268
0.000798557
0.0153187
0.00100067
1.68711e-06
0.0299598
1.38433e-07
5.58038e-09
0.000265331
0.0750087
0.00100261
6.43029e-07
0.0477308
0.000674185
7.22673e-07
1.37392e-07
0.000601108
2.91912e-06
0.055741
0.322085
0.000372656
0.000427304
0.0223717
0.00722361
2.09619e-08
1.36454e-08
8.94846e-05
0.0040381
0.0351515
0.0551614
0.00958069
3.20171e-08
0.000323948
0.0419513
2.76847e-05
0.00115982
2.56942
0.0443992
0.122629
0.0516468
0.0219509
1.15594e-09
0.00204309
6.63617e-07
1.63594e-07
1.95329e-07
7.36483e-09
0.00281046
4.09023e-09
2.08164e-09
9.22389e-05
4.94184e-08
6.70608e-09
9.58311e-07
0.00971472
0.060344
0.0109416
0.00320724
0.0779086
0.265124
5.95682e-09
0.189317
0.000158332
0.396383
0.0128623
1.10739e-07
9.29604e-05
0.00755339
0.263473
1.73666e-09
0.00118931
0.019257
0.00464612
1.63781e-05
0.0256827
1.09614e-06
2.42358e-07
0.0793033
1.02573e-08
0.00805385
1.11192e-07
9.30949e-07
0.00829271
0.000461256
0.00274396
1.16687e-06
0.000391231
0.000671768
4.25201e-07
0.00020233
7.51988e-07
0.0235385
1.43755e-07
1.25594e-07
0.25583
0.0447783
0.00054097
3.32953e-07
6.31209e-09
0.00466522
0.195938
0.00467868
0.0151156
0.217773
0.0202922
2.51335e-09
0.0365401
0.00315634
0.00670721
0.0369373
0.0102274
7.98441e-09
0.193723
1.08388e-09
0.0405858
0.00938007
0.0112098
1.35016e-08
0.0133355
1.33611e-06
0.00272717
0.00898367
5.10052e-06
3.04261e-10
4.66826e-09
0.0029741
0.0822464
2.41054e-09
0.00428237
0.0216453
0.000102427
0.00733336
0.0493867
2.34464e-06
0.00014143
0.000849981
6.13416e-08
0.0103091
1.9836e-06
0.00256738
2.88491e-08
2.74293e-08
0.0123054
6.25756e-09
0.000220094
0.00373545
3.02436e-08
8.2824e-08
0.00461202
0.000550408
0.35886
1.18137e-07
0.248531
1.84606e-06
0.000371869
0.000171721
0.00759443
8.41447e-05
0.0808277
0.00560663
5.52098e-05
0.0010927
0.0682626
7.1036e-07
5.04091e-08
0.00042787
0.000786785
0.0425151
1.91432e-07
0.0346175
0.000947767
1.5296e-08
0.232735
9.49381e-09
1.70571e-07
2.37524e-06
0.00288788
0.312285
0.058699
4.85122e-07
2.42994e-08
1.82336e-09
1.11983e-07
1.09714e-07
6.61938e-07
1.21405e-07
6.8768e-09
6.40193e-08
1.1827e-08
1.84133e-07
0.0643753
0.0381751
2.93242e-09
1.38434e-05
7.61396e-09
7.73481e-08
1.3109e-08
0.0374196
0.0824234
0.0169185
3.79127e-08
1.40474e-08
8.39015e-07
0.00664656
4.09441e-06
1.36958e-07
0.300321
2.6982e-07
3.13658e-06
0.0228695
0.000190211
5.37157e-06
0.00890729
0.0244419
3.17819e-08
0.00344863
0.0048171
1.85822e-08
0.0135579
0.0391364
0.0177794
0.00342713
0.0106374
3.70919e-06
1.13215e-07
0.335716
0.0104619
0.00327405
0.0644042
0.00693752
0.00181034
0.0214773
0.00993475
0.000699629
0.0156403
0.00107591
0.010386
3.37577e-06
0.0240436
0.00843287
0.00162438
0.00143338
5.5444e-09
6.37849e-08
4.73574e-08
6.685e-10
1.78627e-07
0.00909085
0.0135017
1.9306e-08
2.92485e-09
1.83633e-07
1.73984e-05
4.25821e-09
9.8051e-09
8.24036e-07
1.12344e-06
0.00468027
0.000300699
0.0216994
0.248267
1.24333e-07
1.16037e-05
0.0297908
1.20506e-05
4.44811e-09
1.82619e-08
0.232497
5.62162e-07
6.30036e-09
4.63433e-06
0.234224
0.0134901
0.0335075
0.0345911
1.10003e-06
0.0138892
0.00035602
0.000388289
1.95136e-08
0.0119565
4.97843e-06
1.92288e-07
0.0156007
1.04342
0.197563
6.7922e-06
1.3773e-06
0.0170995
0.0196183
0.0178865
0.00558598
0.00709244
1.19524e-08
0.00064094
0.000416508
0.061094
1.00846e-05
0.276311
3.14663e-08
0.00198347
0.0246016
0.0175288
0.0110605
3.26687e-06
0.00607519
3.60473e-08
9.83504e-06
1.1134e-09
2.02745e-08
0.00244602
0.886726
1.01492e-07
5.25638e-09
0.000424951
0.0229201
0.00178188
0.00683155
0.0321594
0.00466988
0.0204398
2.01054e-05
4.5497e-06
0.000205923
0.0289169
0.00553007
0.00331436
1.21764e-06
7.26035e-09
0.000158047
0.0217955
0.00266062
4.99048e-09
0.149316
0.0577539
0.00630205
0.00611069
7.33054e-09
0.000197178
0.00676526
0.0222519
7.95114e-10
0.000415885
0.0148298
0.00104863
0.20589
0.0046288
0.00775749
0.000247404
0.00319577
0.0205877
0.0350334
8.73249e-05
0.0220431
0.000120585
0.200211
0.000164763
5.40051e-10
0.00246834
0.00749672
0.000424355
0.0113377
0.000460872
0.00101009
0.000500826
0.0430101
0.00363182
5.29326e-05
0.036989
0.00128634
1.10781e-07
1.06658e-08
0.102356
0.000522979
0.00104521
1.05849
0.0345697
0.0121871
0.000435706
0.0445693
2.26161e-06
3.23125e-06
0.00378032
4.2319e-05
0.00199722
0.00390389
0.00217566
0.00450258
6.44233e-09
0.000213419
0.10417
2.02917e-08
0.0134748
0.00739189
8.04735e-06
0.00391452
0.000135717
4.05731e-08
0.000601195
0.139107
4.78787e-08
5.66579e-09
2.11748e-08
0.149102
0.252256
0.0135792
0.0533301
0.00457672
0.031806
8.00839e-06
0.00778068
0.0120259
0.0229385
0.00150632
0.118437
0.341383
0.402122
0.0100821
0.00882455
0.0353912
0.156568
0.364984
1.40481e-08
0.17558
0.0475097
1.10578e-08
0.000405999
5.93631e-07
2.92202e-08
3.7463e-08
2.2981e-07
1.75603e-08
0.140458
4.65936e-08
0.00693313
0.00127999
2.29718e-08
0.00360578
7.35586e-06
0.0132774
6.55121e-08
0.000614536
6.46417e-06
0.0207203
0.000223992
6.71003e-06
0.00412853
0.0271012
0.0157876
0.0037508
0.0261207
0.00341895
0.0223431
0.0519798
0.00945432
8.35059e-07
0.00104107
0.000331619
0.00542839
0.00966569
0.000591312
1.15329e-06
5.79106e-05
1.24072e-07
0.0033422
0.0412118
0.000785902
0.329473
0.00247577
0.000361798
1.68368e-08
0.061543
1.16981e-09
0.00843307
0.0203385
0.00112311
9.69644e-05
0.00176577
0.00662517
0.00178806
0.000782314
0.0062181
0.00600022
0.00259941
2.25445e-05
0.0790823
3.56079e-07
0.012228
0.0103044
8.04408e-07
5.56956e-10
0.000261597
0.00824441
0.0173063
1.40262e-08
0.0021573
0.0443886
0.000213175
0.00438314
0.0861602
1.70081e-09
8.35522e-11
0.00344692
4.16074e-09
0.00010472
0.0114282
2.1755e-05
0.0103575
0.0310284
0.01824
3.09762e-08
0.00153353
9.05849e-05
0.000133405
0.0460937
2.88399e-08
9.81963e-07
0.0100999
0.00053669
9.90999e-07
0.16221
0.000922231
2.91376e-08
4.13751e-08
0.000231383
8.53336e-05
0.00235101
0.00297986
0.0246068
0.242655
4.15571e-10
0.000334977
0.000717962
0.0425252
1.76364e-06
0.0474922
0.0830656
0.000120042
7.53063e-06
2.02022e-05
1.1273e-08
1.57678e-05
2.71194e-05
0.000379466
1.92236e-05
0.000316842
2.62076e-05
0.000684418
0.000346316
0.000619312
0.000130824
1.68804e-08
0.0273491
0.00937492
6.34985e-06
0.0813603
0.000250572
0.000214622
1.38165e-05
0.00116507
0.000266614
0.00263837
0.000387442
0.00103622
1.94544e-05
2.47521e-08
0.00119437
0.000419802
0.0668684
2.13346e-06
0.0365539
4.92376e-05
0.0350252
8.53684e-05
8.40883e-07
0.000399001
0.0264268
0.00738826
2.51134e-08
0.000301682
1.10626e-05
0.00440927
0.00122456
0.340819
4.65e-05
2.04723e-06
0.0191941
0.0015673
0.00498515
0.0338668
0.0704104
3.84055e-10
0.0207535
0.00363143
0.0498911
5.66044e-09
0.00114849
5.70377e-07
0.0427424
4.98768e-08
4.8836e-09
0.00323407
0.00212593
0.00291123
0.298786
0.0395431
0.0251091
0.0338816
0.015947
0.220972
0.0432739
0.00485645
0.00470625
0.00569584
0.000581657
0.00944815
0.0374002
0.00143002
0.00142538
0.0308124
1.93468e-06
0.0033143
5.22845e-07
0.0174844
2.36736e-06
7.69739e-07
0.00156848
4.1518e-06
0.00569549
2.46143e-08
3.61681e-07
0.0806627
9.72604e-09
7.738e-08
0.000843113
6.35582e-08
0.000684258
3.56137e-05
0.0659383
0.0164675
0.266489
0.00754529
0.006853
0.0399125
0.549219
2.47162e-10
0.0641617
0.0279776
0.0162958
0.0230828
0.00227226
0.0526247
7.06607e-06
7.48592e-06
8.51074e-07
0.129653
1.09612e-06
1.02847e-07
0.0165596
6.59753e-07
1.52795e-08
0.00531256
2.48498e-06
0.286013
8.16903e-05
3.51321e-05
4.64379e-05
5.86885e-05
0.0014505
0.00638525
1.46604e-10
0.0216835
0.000412419
2.15509e-05
0.0948892
6.9223e-08
0.0145382
0.0169326
0.00360476
3.21824e-08
0.0169998
0.00964041
0.000892094
0.00518656
0.0117386
2.92155e-08
2.26133e-08
0.00165099
2.22314e-08
1.53374e-09
2.76614e-09
0.0185059
0.355202
0.00430644
0.0022114
6.921e-05
0.0476584
0.0432528
0.00398861
0.00237595
0.0088929
0.0197081
0.00266873
4.08183e-09
2.92001e-09
4.05041e-09
0.00701468
1.11868e-07
0.352519
0.000526982
0.000769055
0.0018404
0.00247421
0.0208025
2.47211e-09
0.0592679
0.00245672
0.00037556
1.55161e-06
4.12063e-07
1.61738e-07
0.481575
0.000311215
0.000581564
0.000870858
0.00971025
0.204132
3.16714e-07
3.20255e-07
4.99514e-07
0.00359581
0.0164682
0.0189323
0.0331612
0.0016465
0.00343436
3.60151e-06
5.31534e-10
0.000190567
3.82535e-07
0.165605
0.0212525
2.40806e-07
1.25391e-06
1.89462e-05
0.0606307
0.0297443
1.84694e-05
0.0133418
0.0905368
0.000890588
0.407453
0.047382
2.52435e-05
0.0217145
0.173996
0.0186391
1.05947e-05
0.00495047
1.53476e-08
0.0139835
0.00172921
0.0234595
1.14827e-05
0.000380536
1.33196e-09
0.0231189
1.02821e-08
2.87691e-05
0.383765
1.22201e-07
0.00589014
0.00120709
3.7469e-07
3.96398e-08
0.00203605
4.17714e-07
1.13168e-07
0.0106525
0.000152939
1.39445e-08
0.023274
0.0440464
0.0162632
2.66544e-10
1.9131e-09
0.000599926
0.00263337
0.00310373
3.34895e-09
9.86208e-08
0.000132901
0.00382847
0.00189801
0.0126469
0.367169
1.51478e-09
0.141613
0.0110789
0.00624841
0.0562688
1.08545e-06
2.10802e-08
0.0228014
7.35101e-10
0.0296978
0.00487676
0.00578585
1.10159e-06
9.25763e-09
3.93973e-09
1.62935e-08
2.03797e-05
0.13408
0.212586
0.00211463
2.55147e-06
1.75439e-10
0.0557326
0.225572
0.0342376
0.112141
1.36503e-07
0.0009686
0.000247187
2.36108e-07
1.32256e-08
0.00367329
0.00615603
3.70139e-08
1.10708e-05
0.00285625
0.0599358
0.205082
0.00104907
2.00638
1.0021e-08
3.74361e-07
0.0114146
0.000712082
3.37893e-05
0.638315
0.000591386
0.00598288
6.73664e-09
8.83576e-08
1.26538e-05
0.0582303
0.00820224
0.177915
2.00227e-08
0.0245207
0.0184829
0.82471
1.07083e-08
1.26159e-09
1.10341e-07
3.52716e-08
0.00655568
0.000328134
1.02112e-08
0.0373014
0.0179733
0.160068
0.00456735
3.0173e-06
1.65201e-06
0.0276814
1.33302e-05
3.06919e-08
2.40038e-08
1.3409e-08
0.0203528
9.60964e-06
0.0582721
0.0564084
0.0246656
0.0114554
6.00092e-09
2.41184e-09
2.5118e-08
0.0146958
0.000250459
2.0304e-07
3.65828e-08
3.5763e-09
0.0219272
0.00234751
0.010935
0.0403564
0.00190515
0.311923
0.00477541
4.39578e-07
4.25934e-10
2.592e-07
0.0534336
8.9296e-10
0.0182265
2.24937e-08
0.014363
4.50219e-05
0.00160582
0.00014568
0.00243185
4.10311e-09
1.57259e-08
0.369041
0.152323
3.51121e-05
0.00380033
4.21733e-07
0.000465408
9.6113e-05
3.01198e-06
3.29859e-06
0.000305227
8.26414e-08
0.00100715
0.0391355
0.0337558
2.06359e-07
8.33459e-05
9.06155e-07
0.0340614
0.182163
0.000153649
9.11447e-10
0.00968223
3.43294e-07
0.00268432
0.0173127
0.00140344
1.1231e-08
0.000884534
0.000532599
0.000134313
0.00406342
0.000123607
0.00169947
5.45362e-06
7.33172e-10
0.000156416
0.0055883
0.000298584
6.6453e-07
9.65671e-06
0.000121729
0.564553
9.4451e-09
1.84159e-08
3.48208e-08
3.46209e-10
1.2729e-07
0.0216453
0.000586285
0.00112493
0.000107625
0.000206424
0.00150363
2.7877e-10
0.00519891
6.92138e-09
5.38823e-07
7.8106e-09
2.62014e-05
0.0020541
1.55018e-05
1.11609e-07
1.33155e-08
0.013639
1.22411e-07
6.93629e-09
0.156514
9.2588e-06
0.0777875
0.123364
0.548526
9.00858e-09
0.193751
1.07594
1.04514
0.606866
3.85044e-09
4.06822e-10
0.00455779
0.00427025
6.8311e-05
0.0106047
0.0425068
0.0299812
3.29146e-05
4.47927e-06
0.00126066
3.40006e-08
1.22938e-09
0.000125413
0.000410849
0.0260833
6.78717e-09
0.117962
0.000127003
3.39217e-07
0.000111286
0.00781518
0.00156548
2.28218e-06
0.00766372
6.73196e-09
0.00327549
0.00217118
0.00709032
5.83425e-08
0.00175691
0.00551327
1.06898e-05
0.00322516
8.72901e-08
0.0297779
5.71278e-05
0.00890074
8.5766e-07
0.193171
5.67493e-08
8.72373e-07
2.68743e-08
0.118102
0.12099
2.06771e-06
0.0111033
0.0088665
0.0550457
3.32533e-08
0.0301148
0.0158398
0.170962
1.27981e-06
0.195504
0.023161
0.0424871
0.00364156
1.60587e-07
0.052754
1.73314e-06
0.212401
1.83052e-09
0.00240484
0.003979
1.07822e-07
5.74726e-05
1.27585e-06
0.019403
7.30344e-09
0.0397863
2.90085e-07
9.99959e-06
1.09906e-06
5.30341e-07
0.000261635
0.00189714
0.124628
5.01128e-06
0.000247636
0.0380128
1.345e-06
0.0429862
7.70828e-07
3.37897e-06
2.47447e-06
0.00551982
1.87714e-10
5.05271e-09
7.16175e-10
0.00305219
5.58788e-08
0.0677301
2.22533e-05
0.00307522
3.98244e-09
0.00568596
0.334874
0.00519422
0.0052729
0.0247109
1.26199e-05
2.01101e-07
7.87758e-08
0.00299706
0.00159811
2.72584e-06
0.000546673
0.000577957
4.65616e-08
2.97348e-08
0.310502
7.65719e-08
0.0198302
4.1301e-08
0.00218355
0.00294312
1.94925e-07
7.9323e-10
0.0456881
7.12724e-09
2.55901e-09
0.016399
0.0564354
0.00437168
2.24874e-06
1.38612e-08
0.00643606
5.36482e-06
0.0115353
6.08661e-06
7.4181e-09
0.00213926
6.75483e-05
0.129553
4.05399e-09
4.98699e-09
4.393e-09
0.0031398
0.164302
9.68688e-07
1.64176e-08
7.59454e-06
0.00142617
1.91689e-08
0.0176872
0.028547
5.25007e-08
4.40242e-09
0.00671698
2.39837e-07
2.09587e-05
1.52359e-09
2.55801e-05
1.00847e-08
0.063271
0.000350897
1.34388e-07
5.50564e-09
0.0688093
2.97702e-08
0.0565732
2.47978e-07
4.61555e-08
9.47268e-06
0.00693554
0.0470365
0.0080376
0.0499201
0.0606399
0.53108
0.0025533
0.04036
1.0887e-05
1.66673e-08
0.00228485
0.141235
0.0370003
0.0421996
1.19214e-08
0.00686099
1.42607e-08
0.00428403
9.89737e-07
0.00869747
0.000172238
0.0517231
5.30154e-07
1.64958e-08
0.0199463
0.000295255
2.38374e-08
0.0242975
0.000282032
1.97657e-06
9.85034e-10
0.032501
0.0090627
0.00601716
0.000792527
0.00169432
0.0159052
0.000958432
0.0044202
8.7124e-06
0.0266939
0.000126088
0.000457945
4.10003e-09
6.3512e-07
2.78097e-08
0.00966875
9.058e-08
2.31237e-06
1.03305e-10
0.000401853
0.391933
0.0890766
0.00224552
5.09049e-09
0.00398185
0.0553394
0.102956
0.0029478
0.000271668
0.0415531
5.58085e-07
1.18104e-07
3.04235e-09
0.00274657
0.00117543
3.85027e-08
4.34449e-09
0.00230563
1.65682e-07
0.785166
0.0539027
0.0935427
5.26295e-09
1.15549e-08
0.0420692
5.05522e-09
0.00921422
9.65959e-09
0.000648245
2.34086e-08
0.00891084
5.13257e-08
6.11877e-09
0.00108246
0.154995
0.0646224
1.45166e-08
0.068966
4.24329e-08
0.00381425
0.170475
0.118093
2.39931e-07
0.000485399
3.97092e-09
1.96936e-06
0.000278151
0.0156446
0.000301138
1.02209e-08
0.000635425
0.00299493
0.004943
0.00755009
3.6651e-07
3.32536e-07
3.3848e-06
6.10295e-07
9.99718e-09
3.59582e-09
0.0754054
0.0371589
1.44496e-08
0.0845448
3.11385e-10
2.14087e-08
0.0685436
4.90996e-09
4.81937e-09
0.0402503
1.82046e-08
7.66827e-10
1.00943
2.10725e-09
1.26097e-09
0.00194378
0.0929522
1.42253e-07
0.0371258
8.43979e-09
0.0209623
0.0504
6.27794e-06
0.000877919
5.79864e-10
7.27763e-08
1.04533e-06
1.7474e-07
0.319946
0.0456664
0.000256525
3.26419e-08
0.0462823
9.82961e-10
2.051e-08
1.79248e-09
0.103337
0.00176267
0.000110448
1.25702e-09
1.30708e-06
0.0481376
0.000912339
3.6471e-07
0.000264324
0.109131
0.0863096
3.4763e-05
0.085392
0.000925592
0.0426708
4.21003e-05
0.0657787
0.000345213
0.0288219
1.48282e-06
0.00674078
0.00045862
0.000933589
6.94793e-10
0.0013006
7.08601e-08
0.00377575
0.0243515
9.99952e-07
0.00233739
0.000311355
1.74491e-07
0.0102067
9.25181e-08
2.68184e-08
2.75322e-08
4.5409e-08
5.07988e-06
4.49917e-08
4.87931e-08
7.45087e-08
0.268713
4.32627e-05
1.99954e-10
1.8044e-09
5.53915e-08
1.0087e-07
0.0299683
0.766804
0.0021033
0.000140905
9.58834e-09
0.00202326
0.00139864
0.0463498
3.20659e-05
1.29353e-05
5.65519e-07
1.11272e-06
2.46729e-06
0.000222941
0.000117036
0.179886
0.0671711
8.23503e-08
0.00106978
0.000300211
1.45731e-08
0.0241622
4.61795e-06
3.81647e-08
1.73084e-06
0.162786
0.0621525
1.05096e-09
0.0251886
1.38733e-08
0.0488258
5.12538e-05
0.0355024
0.053319
4.90258e-09
6.73425e-09
2.32122e-08
2.50524e-05
0.00564273
0.2253
0.0274056
0.0416323
0.00449248
0.000542166
9.52702e-10
0.000117092
0.139102
0.00127588
9.54679e-05
0.00296702
4.05128e-06
0.0992043
4.95515e-08
0.205404
0.038356
1.39825e-08
0.000488804
0.00716435
4.03584e-08
0.00962379
1.39518e-08
1.85938e-07
0.198295
0.0295953
5.32891e-08
8.59463e-09
6.93092e-07
2.56644e-09
6.08112e-09
0.000126703
2.45389e-08
5.64255e-10
0.00309135
7.70932e-09
9.77388e-08
2.70173e-07
0.000228889
2.19698e-07
0.000169515
1.07939e-07
4.74921e-08
2.26285e-05
6.60423e-05
0.00359182
0.0432491
8.07904e-05
0.00504661
2.29974e-06
0.320424
0.315681
1.25096e-07
0.00345382
1.79356e-08
0.0459128
0.0380246
0.000405915
0.090495
0.0684922
7.16269e-06
1.104e-09
0.00246926
1.12917e-08
1.23078e-09
3.97558e-07
1.60068e-05
7.25905e-09
1.73666e-05
0.0355671
5.12039e-09
2.40661e-08
0.337666
1.5169e-09
0.0172938
8.3e-06
0.00133412
9.69105e-09
0.000442586
0.000145818
0.239835
0.0079353
0.0239991
0.000182992
0.0403964
0.00027128
0.0754823
0.000153943
0.000226812
0.00984328
0.0581305
0.000324161
0.00127482
4.32423e-06
1.78941e-07
0.00111825
0.00022462
0.0157183
0.0121426
0.000147879
1.90871e-06
0.00549015
0.0052334
0.0185769
2.1722e-09
0.012323
0.0166534
0.00277738
0.00150066
0.0013218
0.00326564
0.0189691
0.0409321
0.00714048
0.0110752
0.00802792
9.06255e-05
0.00292001
0.00364076
0.0010864
0.00261892
0.01418
0.013816
0.019327
0.000122099
0.0115423
0.000423399
0.0051162
0.00286621
0.000350216
0.00234728
0.000204263
0.075867
0.00399472
0.001238
0.00014249
0.000728277
0.0158317
0.00247123
0.217436
0.0035562
6.84583e-10
0.231841
0.0461838
0.0216335
0.00716096
0.020304
0.000407496
0.00865271
0.463502
0.00214026
0.00137452
0.00252041
0.175144
0.00118837
0.0744332
7.61584e-05
7.74332e-08
1.31234e-08
0.00224244
0.00620993
0.0118423
0.070933
0.00676154
0.0608475
0.0549843
0.0722835
2.90371e-08
0.0069985
0.00262861
0.0248403
1.05841e-06
0.00635893
9.18126e-08
0.225634
0.0116556
0.0075677
0.221532
5.1352e-09
8.98585e-08
0.0022341
0.000111569
0.000769053
1.55911e-07
0.006571
0.00097777
0.0780796
9.22324e-07
0.022386
0.00309934
0.000351544
0.000126862
0.00238851
0.00130527
2.45764e-07
0.00188796
5.3003e-05
9.75615e-09
0.269353
0.00381337
0.00255437
0.0101841
0.00129112
0.014387