/*--------------------------------*- C++ -*----------------------------------*\
  =========                 |
  \\      /  F ield         | OpenFOAM: The Open Source CFD Toolbox
   \\    /   O peration     | Website:  https://openfoam.org
    \\  /    A nd           | Version:  10
     \\/     M anipulation  |
\*---------------------------------------------------------------------------*/
FoamFile
{
    format      ascii;
    class       volScalarField;
    location    "29.5";
    object      SgT;
}
// * * * * * * * * * * * * * * * * * * * * * * * * * * * * * * * * * * * * * //

dimensions      [1 -1 -3 -1 0 0 0];

internalField   nonuniform List<scalar> 
111485
(
1.20864e-15
0.00770055
0.0243537
2.55565e-16
0.0490387
4.98096e-15
0.0465512
0.00616974
0.0190845
0.00124824
0.0469285
0.00948972
0.00483089
0.000793313
0.00651862
0.0301853
0.0014376
2.62393
0.0103546
1.76068e-14
2.20789e-14
1.30786e-14
0.0269694
0.0344976
0.00874755
1.2981e-15
0.0393118
0.00178413
0.0152255
3.30161e-16
0.0446977
0.019625
2.91604e-15
2.16319e-15
0.00628098
8.1387e-15
0.0106516
0.00421436
3.84941e-08
0.0242953
1.44215e-14
0.0707803
0.0158553
0.00157216
6.37032e-05
5.14882e-14
0.0293937
0.000711085
0.0474189
2.91744e-15
1.58143e-14
4.34798e-14
1.56549e-14
0.0515677
2.42986e-14
0.0438014
0.0030268
9.61611e-15
1.99764e-05
0.00479943
0.0160748
5.33753e-15
0.00482728
0.0984453
8.57594e-15
0.00309979
0.316026
0.0943865
0.00111918
0.00619399
1.96761e-05
0.00668302
6.42145e-15
0.00292458
3.49635e-15
0.000719388
1.42723e-15
0.0411154
1.56727e-15
9.19563e-16
1.02604e-06
0.0340622
1.99278e-15
2.62662e-15
0.00940696
0.00379869
3.29293e-10
0.0254336
6.09849e-05
0.00744218
0.000253677
0.0402431
0.0119869
5.79962e-05
0.0520954
7.39467e-16
7.11615e-16
0.00182813
3.15878e-08
0.00111945
5.2691e-15
0.0176357
7.5739e-15
0.0179435
0.00457063
1.26325e-15
2.49839e-15
0.00759145
0.00421125
5.44291e-08
0.00554917
0.00475955
0.00381478
0.00327586
5.67053e-15
3.42325e-05
3.1527e-15
1.42592e-14
0.0129074
1.97336e-15
7.11635e-15
1.69012e-14
1.91502e-15
4.3518e-15
0.00153181
3.04395e-06
4.30141e-15
0.00172608
4.43321e-16
2.24556e-05
0.00153214
0.0328886
1.8438e-14
9.26607e-14
6.71599e-16
0.0482832
7.33161e-15
0.0425522
0.0254337
0.00270764
0.000252922
0.00199772
0.0225004
0.00260865
0.0040834
0.0130622
7.43069e-15
4.92513e-16
6.6692e-14
0.0281045
0.00152447
2.84231e-15
2.38891e-07
0.00467288
4.23939e-07
0.0109483
0.0161174
0.0108722
6.0164e-08
1.21953e-14
1.84709e-16
0.0523723
0.022445
1.64852e-06
3.00196e-07
0.00586325
0.00338878
4.37388e-15
3.99009e-06
4.27827e-05
8.63499e-16
1.97415e-15
0.000121502
4.52203e-16
0.00548407
0.00206061
3.66678e-16
4.53805e-15
1.42051e-14
4.09407e-15
6.30958e-15
3.73301e-15
0.00151771
0.00678024
0.0299451
0.00412147
0.00771271
0.00404041
7.7166e-05
5.0421e-15
0.00486934
4.54739e-15
8.87025e-16
0.00655551
0.0103461
0.0288122
0.0115134
0.00502481
3.10414e-15
0.00680837
0.000497576
4.08293e-05
0.0144882
0.00233994
8.03637e-15
0.00386468
0.0249277
3.00184e-14
0.000157457
0.00794068
0.00199244
0.000371663
1.81913e-14
2.81576e-16
0.00835004
1.09623e-11
0.119272
6.87699e-15
0.00670088
0.0206282
0.11906
2.49791e-14
0.00330602
0.0137268
1.75611e-13
3.06671e-15
2.53405e-15
0.149903
2.31331e-07
1.83583e-15
2.07577e-14
0.00945076
0.00783135
0.0149559
1.04994e-14
3.36512e-14
1.32905e-05
1.25839e-15
0.00235932
0.0095928
0.0166839
0.0116337
0.00966597
1.55304e-14
2.40386e-07
0.000633225
5.53304e-15
3.31745e-15
0.0309342
0.0205735
1.14922e-14
0.00657834
0.0107978
4.35637e-16
3.26059e-14
0.000112297
5.76178e-15
2.021e-15
4.62732e-05
8.10561e-16
0.0147499
0.0105947
0.00368997
2.61755e-15
0.0118089
1.36936e-15
3.03747e-17
1.24301e-15
1.7432e-08
0.0230619
0.00618604
0.00551518
0.0362169
0.0124059
0.00155962
0.000563424
0.0321784
0.00869881
2.58656e-17
9.03283e-16
2.32271e-07
0.0227
0.0245641
0.0117697
6.37563e-16
0.00700862
0.00203127
0.0030392
2.02502e-06
3.54525e-06
0.0138677
0.00218756
0.00198507
3.99547e-14
0.000641998
4.57951e-15
2.26079e-07
5.1907e-13
0.233525
0.0678068
0.0117623
1.14336e-15
1.81954e-14
0.00897669
0.00171657
1.04041e-14
8.64849e-16
2.75308e-14
0.000295159
0.0568704
0.00402789
0.0132345
0.0191771
5.40574e-15
6.15069e-15
1.69159e-15
0.00377587
2.06172e-12
0.000856642
0.184108
2.83667e-07
2.03399e-16
7.11848e-16
1.0715e-16
3.16631e-14
0.0601894
0.011807
1.08786e-14
0.00529517
6.13044e-15
4.57622e-15
0.0671732
0.00599462
0.0114485
0.00933509
5.2829e-14
1.18323e-14
1.22355e-14
0.00952112
0.0187507
0.00489427
1.52412e-15
2.95319e-10
0.000153795
0.00230494
0.00806247
3.20884e-05
0.028476
8.4407e-15
0.0375098
0.0035826
0.00771897
0.0258056
0.0131299
1.96129e-14
4.41575e-15
1.41761e-14
4.22943e-15
0.0310867
0.00980776
0.0325687
0.067328
1.28878e-14
0.0182567
3.21876e-15
1.43598e-15
0.0167546
7.92153e-15
0.0818437
8.76317e-15
5.31902e-16
0.0228019
9.81686e-16
0.0135065
0.000284047
3.39677e-15
0.000970403
0.0166594
1.7319e-15
0.00894664
0.00897386
0.00819439
0.000707213
0.00266008
0.00545631
1.30495e-14
4.73141e-16
0.00201781
9.84297e-16
0.00632914
0.11803
6.10423e-15
6.54302e-14
0.0276973
0.000109088
0.00830651
0.0204494
2.98853e-16
0.0479069
0.0189005
5.58241e-16
0.000841807
0.00235264
1.03399e-15
3.50516e-15
0.0109227
0.0051915
9.24672e-15
1.27113e-15
4.08832e-08
3.64942e-15
0.0125184
2.94578e-16
1.71033e-15
0.0167008
1.54602e-06
0.0122665
0.029985
7.42753e-16
3.62231e-14
0.00154302
5.85626e-15
0.000165335
0.0146258
0.121798
0.828538
2.17678e-15
0.00276746
0.000561703
1.47458e-15
0.039035
0.030874
7.8595e-15
6.96025e-09
8.59445e-05
6.10251e-15
0.0236958
0.0239246
0.013856
6.09363e-15
0.000660911
0.0167164
0.0227688
8.25731e-07
3.28054e-14
6.69522e-10
1.53689e-15
1.13142e-05
0.0311863
1.94404e-14
0.00815261
0.000102264
1.15316e-13
1.58954e-14
1.9601e-15
2.91564e-15
0.0037224
0.00958424
0.0062843
0.00202922
0.00256758
1.59971e-14
0.00194203
3.71811e-15
0.0412686
4.16664e-15
2.03879e-16
3.673e-15
0.0375405
9.25031e-16
1.79509e-15
1.4097e-07
5.04087e-16
3.60373e-14
0.00106804
1.83849e-14
5.71426e-14
3.37338e-15
5.19992e-15
2.08859e-14
1.31088e-15
4.12281e-15
0.00678753
2.27186e-14
0.000543823
0.00198487
0.00082188
3.2365e-15
0.000908153
6.07862e-14
8.83289e-17
0.00272601
0.00175135
0.0267055
0.0251562
1.22515e-14
0.00203425
0.0824666
0.00851606
0.00100872
0.00319333
7.08912e-16
0.0232246
2.5302e-14
0.00503185
3.83856e-15
0.0764171
2.87586e-15
0.0211924
0.000246599
5.20074e-07
1.32836e-14
0.00202637
1.07695e-15
0.0799301
0.0488995
5.67135e-15
5.73963e-15
1.99267e-14
3.67404e-15
1.39424e-09
0.0547063
4.44328e-16
3.94119e-14
0.00240622
5.77528e-15
0.0340374
4.73705e-15
0.000310569
2.40887e-16
0.000465356
1.19032e-06
0.000978266
0.0127713
1.6458e-15
0.000418241
2.03244e-15
4.57697e-16
0.0147074
2.01642e-15
2.84381e-05
1.8018e-14
0.00163762
5.86054e-15
0.0644618
1.30271e-15
2.47608e-14
0.0177942
0.00319286
0.00174396
0.00384403
0.00688196
0.0206672
1.13254e-14
0.0254748
0.0059291
4.06781e-15
7.47774e-08
0.0413887
0.0154557
7.17239e-15
0.00358869
0.00692941
0.00180904
0.000972716
1.94233e-10
0.0136722
0.00123667
0.000118843
0.022826
0.013732
0.000565108
2.20784e-14
3.0184e-09
0.650569
1.17869e-15
0.000342465
2.85999e-15
6.37138e-14
0.00731162
0.00263559
2.35588e-07
1.79916e-05
2.50779e-15
0.015909
0.0110527
8.61942e-15
2.00104e-10
0.00129233
6.72818e-15
2.23411e-14
3.16598e-15
3.34417e-16
0.0126101
1.06389e-14
2.61628e-14
0.00844531
0.00190664
1.07127e-13
0.010577
1.48295e-15
0.00845756
2.19506e-15
2.12594e-14
0.0516427
9.68331e-15
2.36237e-15
2.45077e-15
0.00419237
1.77226e-14
0.0279829
0.00624967
5.83427e-16
0.090348
0.00231809
0.028747
0.0283631
0.000411261
7.3338e-05
1.22566e-17
0.0538301
0.0467741
3.2084e-14
0.000320789
0.0406507
0.00803798
0.00138059
0.0276542
0.0261408
7.84953e-15
0.0109671
6.79054e-06
2.31869e-15
0.0348746
0.000249211
3.94202e-14
0.0108479
0.0407324
0.00130699
0.021527
0.0196591
0.00720569
6.19206e-15
0.0104333
0.000299549
4.30945e-12
0.0172055
0.0180341
0.0357571
1.81164e-15
0.00184149
9.64804e-16
4.36612e-15
1.83807e-14
5.5624e-15
1.30965e-05
6.67675e-15
3.03534e-10
4.65334e-16
1.04255e-15
8.17271e-05
0.0427965
4.65954e-15
0.0303415
1.35322e-14
1.79375e-14
9.70976e-15
0.0385092
0.000391874
4.21647e-14
2.27282e-14
1.42585e-14
6.93988e-15
0.205382
0.069798
7.98407e-15
0.00200925
1.79097e-06
4.78366e-15
0.0374219
0.00860418
0.011445
4.93018e-15
1.01097e-14
0.000412076
0.00107341
3.18389e-14
7.55695e-15
2.24455e-15
0.00722753
2.98004e-15
3.06378e-16
8.10362e-15
0.0421649
0.00214202
6.51951e-15
3.8413
0.367696
0.00966875
2.14733e-15
1.01914e-14
0.0549999
0.000431196
2.24993e-15
5.08211e-06
0.10839
0.00236685
0.0111937
3.81135e-15
0.0519822
0.00191864
3.62848e-15
1.02398e-14
1.23709e-15
8.55247e-15
6.25362e-15
1.96416e-15
0.0224323
2.23856e-15
1.61384e-14
2.80718e-15
0.0113125
0.0235407
3.05258e-15
3.61089e-15
0.105536
0.0143433
0.0098845
9.63553e-15
6.59483e-16
0.0372232
7.28729e-17
0.00168137
0.00263468
0.00397041
6.42659e-15
4.99406e-17
3.59378e-15
4.959e-15
0.0145702
2.8518e-15
8.77034e-15
0.00106641
1.17734e-14
0.0233075
0.00192968
6.0017e-15
0.036859
0.337083
0.00253615
0.0289587
0.00014025
0.0434175
6.9763e-11
3.62278e-14
0.023711
0.0675394
0.00598912
1.13529e-14
4.7588e-10
0.787859
0.010039
1.09626e-14
0.00240388
0.0024009
0.00112277
3.65178e-14
2.15153e-15
1.46765e-14
0.0134736
1.55161e-14
0.00273209
7.25539e-16
0.00118636
0.00143053
0.0367697
0.000564981
9.34024e-15
2.75855e-15
1.73879e-15
0.0204949
4.73658e-16
1.36863e-14
7.53548e-05
2.83776e-15
4.44397e-15
2.08791e-15
1.95905e-15
0.0101596
2.85652e-14
7.10397e-15
4.20963e-10
5.07301e-15
3.90003e-15
7.62762e-14
9.51608e-15
2.90998e-06
0.0016199
6.66405e-16
0.00406546
6.10825e-06
2.87177e-07
5.77056e-05
0.0039445
1.83971e-14
9.38077e-06
0.010092
0.000397635
6.68968e-15
5.33565e-09
0.000857785
1.93846e-14
0.00996759
0.000186793
1.58214e-06
0.0228959
0.00946899
0.00224266
0.00483662
0.00198029
4.72232e-14
1.48931e-15
0.0330308
0.026537
8.19877e-15
0.00842151
0.0539793
0.028448
1.38344e-14
0.0012444
1.39869e-15
0.0101937
0.0139773
1.38098e-14
0.00158687
0.000447199
1.17689e-06
0.00495867
1.26978e-16
0.048686
1.46562e-05
0.00139456
2.91436e-05
1.19667e-05
1.86275e-14
1.35223e-15
0.00681386
7.85016e-16
0.000124687
0.000241207
0.000301095
5.97889e-08
6.96289e-08
1.73246e-07
2.39606e-15
1.15879e-14
0.0226506
5.79533e-15
0.000197393
0.00195867
1.02006e-14
1.05671e-14
6.6464e-07
9.62398e-10
5.09633e-15
5.222e-06
1.69582e-14
1.17539e-14
3.63184e-15
1.62784e-15
3.88884e-14
2.69474e-15
0.000268692
3.59477e-15
1.47451e-14
7.87579e-15
6.51433e-06
4.80231e-05
0.00168115
0.00920915
8.79463e-16
2.99622e-15
0.000155072
1.76155e-15
2.97742e-16
4.17541e-14
0.0184194
0.0420714
4.58455e-15
3.18992e-15
8.47945e-15
1.9533e-14
9.49031e-16
2.96809e-16
0.00662161
3.9198e-15
5.43114e-08
0.0263087
1.6147e-15
9.9419e-16
1.11555e-15
2.94036e-05
1.11592e-14
2.19407e-15
3.55969e-15
9.81318e-06
5.49856e-15
0.00413206
8.82988e-07
6.3689e-09
4.67072e-15
7.81421e-05
0.00186265
0.0439566
1.50737e-14
8.49701e-06
0.00538787
1.09465e-15
8.73658e-16
1.24472e-13
1.80472e-15
0.00822076
0.00163276
0.00314744
1.82236e-07
5.20593e-17
0.0228551
6.60599e-15
2.0581e-14
3.28356e-14
1.72672e-15
0.0264639
1.09595e-14
1.17388e-14
1.53106e-06
0.0521672
8.50704e-15
0.00230009
5.63648e-15
0.000763001
9.40373e-15
1.89407e-15
4.19513e-15
9.28171e-15
0.00246461
0.000578415
0.301513
3.4614e-15
2.97011e-15
0.00206817
1.85796e-15
2.11996e-14
6.50373e-15
0.035854
9.98877e-06
0.031981
8.48451e-15
1.13339e-05
5.17736e-05
1.39781e-14
0.000134677
5.27806e-16
0.00117416
0.0244623
0.0202875
0.00112398
0.000220093
9.50342e-15
5.81626e-15
2.12488e-15
2.29843e-05
5.33243e-15
0.00765919
1.19979e-14
0.173908
1.5123e-16
0.0409432
0.00292639
6.82821e-15
2.01612e-14
2.5734e-15
3.9473e-15
0.0420591
4.08008e-14
2.1361e-14
0.0116538
0.00689543
2.52713e-14
9.38877e-14
6.73926e-14
1.44149e-14
1.16503e-15
2.7674e-15
0.0260762
0.000390618
5.13108e-15
1.82983e-15
5.63473e-07
5.791e-15
0.00155388
0.000101946
2.71499e-15
0.00356072
2.32519e-15
0.000388665
5.63279e-17
0.00111405
1.60214e-14
6.61705e-08
2.17371e-06
0.000603799
0.0184897
0.0346525
1.14932e-06
2.09875e-16
0.000577286
9.05504e-16
0.00467262
6.36882e-16
4.66364e-15
8.10248e-14
2.98918e-14
1.30346e-14
4.9033e-15
0.00733076
0.00828019
1.47077e-15
3.3285e-14
4.36513e-15
0.000807366
1.22127e-05
5.03792e-16
0.0179908
0.000166928
3.17482e-14
0.0235264
0.00813097
0.00371622
0.0109473
1.34291e-15
1.66913e-15
7.01584e-15
6.60554e-15
0.0370186
1.61761e-14
0.114927
4.0154e-15
0.000327765
0.000727241
2.8735e-15
0.000995332
9.58314e-15
2.69925e-15
0.00312674
2.19526e-08
0.00977829
3.11379e-15
8.95945e-15
9.6515e-16
0.000847264
7.38105e-15
2.88534e-15
9.76327e-16
2.64846e-07
1.37501e-14
6.18302e-06
4.24184e-14
8.97325e-15
1.1826e-15
0.0183489
0.00981535
0.0182777
0.0359213
4.76074e-14
1.65981e-05
6.72908e-15
2.60014e-14
0.00954179
4.1085e-16
2.09289e-06
0.000365893
0.00674777
0.000381498
1.06424e-09
0.00184606
7.17222e-16
1.40544e-09
3.2127e-10
0.000130488
0.00075092
0.0153178
6.81394e-08
1.85532e-14
0.0299569
2.24141e-15
1.83676e-15
1.18213e-05
0.074999
5.11154e-08
1.70772e-14
4.15184e-15
2.98053e-07
5.51826e-16
2.53888e-15
1.88831e-05
3.65104e-14
2.27324e-14
0.0398861
0.000241013
0.000189713
0.02237
0.00722308
2.12889e-16
7.621e-15
2.64401e-05
0.00403306
4.25425e-15
2.67643e-14
0.009549
1.97162e-15
1.19291e-14
7.88321e-15
1.70942e-14
2.71958e-13
2.56681
2.01872e-15
0.000220128
4.94852e-15
0.0218284
1.14622e-15
6.37087e-13
1.10944e-14
5.88127e-15
1.86462e-14
2.25886e-15
0.00278163
6.83726e-15
4.63574e-15
3.18016e-14
1.3255e-14
3.11735e-15
5.56795e-15
0.00971417
1.85777e-14
0.0109351
0.00317637
2.91991e-15
0.00152208
1.59934e-14
0.0005193
2.10228e-06
0.00382283
0.0128619
3.84123e-16
9.28919e-05
0.00750846
1.0607e-05
1.40208e-15
3.25713e-06
0.0192569
0.00464212
2.50818e-15
0.0256749
7.78229e-17
1.27474e-14
3.96851e-15
2.50829e-14
0.00804664
1.48913e-14
2.30301e-15
0.00829095
4.12904e-07
0.00262228
9.6987e-16
1.55294e-13
0.000649967
7.29401e-15
5.87765e-05
8.98701e-15
0.0235131
1.16968e-15
7.47837e-16
5.3312e-05
1.85857e-16
0.000140483
1.23617e-15
9.88182e-16
0.00466073
0.000449686
0.00467843
0.0151039
0.217773
0.0202892
4.13079e-16
1.18742e-15
0.00304452
0.00670645
0.0369367
0.0102097
4.78353e-15
0.0125306
1.76049e-15
1.7079e-15
0.00930022
0.0112048
3.868e-15
0.0133321
5.20962e-15
0.00272614
0.00897999
7.12161e-15
2.73955e-15
1.72243e-15
0.00287776
1.45562e-14
1.26151e-14
0.00424794
0.02164
3.58115e-06
0.00733297
8.90881e-15
1.24349e-14
8.98168e-05
0.000794496
3.01429e-14
0.0102502
6.49185e-15
0.00255011
1.07202e-14
2.22319e-15
0.0122946
4.55824e-15
3.55262e-05
0.00369512
5.63616e-16
2.75071e-15
0.00447582
5.35796e-11
0.0517394
3.76526e-15
0.248526
1.91496e-15
7.34172e-14
1.95628e-14
0.00756707
1.8753e-14
1.51704e-15
0.00560309
1.63775e-14
0.000256869
3.5984e-14
2.57172e-15
8.94143e-15
9.61726e-08
0.000783844
5.01028e-15
5.70438e-15
0.0346106
0.000944244
4.35512e-15
0.000403585
2.32554e-15
2.91184e-15
1.73565e-06
0.00286034
0.0013135
2.24479e-15
4.50601e-14
2.66341e-14
4.40535e-15
1.12901e-14
3.89632e-15
4.26608e-15
7.04471e-16
2.28609e-16
2.69859e-14
2.3325e-15
4.73778e-16
1.36179e-14
3.4218e-16
6.70951e-16
4.3541e-15
8.1623e-16
8.80978e-15
9.88844e-15
5.34223e-15
1.69453e-15
0.0169128
1.4801e-14
4.41948e-15
6.43361e-15
0.00664527
6.95086e-15
2.12082e-15
0.299987
7.29188e-16
3.09782e-15
0.0228659
5.45838e-12
2.23199e-15
0.00810015
0.0244401
9.26629e-16
0.00295399
0.00436593
1.00068e-15
0.0135348
0.0391323
0.0177656
0.00338325
0.0106269
8.77602e-16
1.48512e-15
0.00300986
0.0104613
0.00323367
1.38823e-15
0.00681719
0.00179808
0.0214622
0.00993307
0.000697244
0.0156174
0.00100873
0.0103283
4.21541e-14
0.0239978
0.00842528
0.00162043
0.0014312
2.07537e-15
3.1096e-14
1.84471e-14
5.02311e-16
4.65689e-15
0.00909081
0.0134942
3.38387e-15
5.46922e-16
5.48985e-15
3.52314e-15
2.30446e-15
1.71695e-16
3.25277e-15
1.82667e-15
0.00467925
0.000212801
0.0216928
7.31266e-05
6.95011e-16
2.12645e-14
0.0297753
7.78053e-06
5.02054e-15
5.10903e-15
0.00711499
2.50202e-14
5.34807e-15
2.26961e-06
0.007724
0.0134883
0.0334482
0.034532
2.10654e-15
0.0138816
0.000346824
2.36563e-14
1.36798e-15
0.0119124
6.38827e-17
4.86799e-16
0.0152775
1.04302
0.000173154
6.98816e-15
2.83836e-14
0.0170921
0.0195797
0.0178703
0.00558579
0.00447124
8.00794e-16
1.07626e-06
2.68572e-09
4.97583e-14
7.19591e-15
0.0168297
2.82262e-15
0.00198331
0.0245964
0.0175037
0.0109859
4.82267e-16
0.00595747
5.84084e-15
2.90331e-15
2.27536e-15
5.05377e-16
0.00244439
0.886232
4.37377e-15
1.13984e-15
4.14546e-06
0.0229199
0.00123025
0.00682806
0.0321574
0.00466838
0.0204394
5.24803e-15
5.12513e-15
2.21208e-14
0.0289163
0.00552178
3.06353e-08
3.64102e-15
1.0021e-15
6.47539e-14
0.0217932
0.0026198
1.73297e-15
0.00481954
0.0576365
0.00623025
0.0061089
9.25188e-15
8.37811e-14
0.00676054
0.0222516
1.5527e-15
0.000349642
0.0147578
0.000968047
0.00903109
0.00462587
0.00775136
6.35171e-14
0.00318561
0.0205809
0.0350307
4.58102e-10
0.0220394
1.38338e-13
0.0159223
0.000149691
1.28327e-15
0.00246663
0.0074436
0.00040932
0.0113375
4.41681e-07
0.000120754
1.35773e-05
0.0421301
0.00361445
6.00754e-15
0.0369818
0.00126592
2.24638e-15
4.59288e-15
4.26199e-08
1.45622e-05
0.00104235
1.05683
0.0345645
0.0121622
1.86348e-07
0.044565
3.17972e-14
8.16855e-16
0.00377991
1.15158e-14
0.00196706
0.00375072
0.00214697
0.00450202
1.25447e-15
0.000185192
0.104169
3.80623e-16
0.0131621
0.00738886
8.34038e-16
0.00387628
0.00012815
2.48557e-15
6.93917e-09
8.16028e-05
3.53182e-15
4.99403e-16
4.51704e-15
0.00413306
0.00485904
0.0135788
6.11375e-15
0.00457133
0.0317856
1.98779e-15
0.00777228
0.0120141
0.0229245
0.00147589
1.39218e-14
0.000503207
0.00886458
0.0100701
0.00879255
0.0353845
0.156561
0.00314806
3.47435e-15
7.30632e-06
0.0475056
6.63272e-15
0.000405274
1.02017e-14
2.85914e-15
1.72943e-15
3.6034e-14
8.92464e-16
0.00313195
2.28413e-15
0.00690404
0.00108306
4.95136e-15
0.00360126
6.42876e-15
0.013271
3.37368e-15
2.6727e-05
5.92896e-15
0.0207194
0.00015486
2.462e-06
0.00409729
0.0270965
0.0157864
0.00375027
0.0261003
6.42045e-12
0.0222943
0.0519789
0.00944036
3.9159e-14
0.00101564
0.000231095
0.00541618
0.00966347
0.000585844
5.37819e-15
9.11644e-15
2.58109e-15
0.00333402
6.34681e-15
0.000359993
0.000202766
0.00170149
0.000247212
1.8574e-15
2.17364e-15
1.51373e-14
0.00838344
0.0203226
0.00112228
9.23646e-06
0.0017641
0.00662422
0.00174324
0.000781511
0.00621789
0.00598041
0.00259876
6.65251e-15
7.67254e-16
2.51448e-14
0.0121899
0.0103031
4.72291e-15
3.31562e-15
1.71004e-13
0.00815297
0.0173026
1.86986e-15
0.00215659
4.24508e-15
5.8519e-07
0.00437327
0.0861451
3.95799e-15
2.7372e-16
0.00344599
6.92966e-15
5.54126e-05
0.0114278
1.69633e-15
0.0103558
0.0310282
0.0182394
2.26565e-16
0.00148548
3.43597e-15
8.92757e-05
0.0460932
4.84412e-15
5.70662e-16
0.0100976
8.06107e-14
5.11722e-16
4.16717e-05
0.000900342
7.86398e-16
1.12612e-15
2.12365e-13
7.24783e-05
0.00120759
0.00297931
0.0245079
0.00811388
1.08153e-15
6.91985e-07
0.000690817
5.07502e-16
3.78868e-16
3.47112e-15
7.34571e-15
3.51741e-15
5.81195e-15
1.04228e-14
1.38859e-16
1.10907e-15
6.43448e-16
2.47046e-09
3.03724e-15
0.000309851
1.35984e-14
0.000252647
2.06256e-15
0.000102895
6.96308e-14
4.60015e-16
0.0272594
0.0084832
1.74712e-14
0.0813563
1.0178e-08
6.49196e-10
4.62464e-15
0.00114634
1.5024e-11
0.0026227
6.1031e-06
0.000786194
5.09642e-15
9.36091e-15
0.00115951
1.99709e-08
6.77629e-15
9.02452e-15
0.0365533
1.22281e-14
0.035025
1.37675e-14
9.00363e-15
1.69943e-06
0.0264263
0.00731773
9.93988e-17
0.000301581
3.81507e-15
0.00348581
1.86122e-05
0.00163961
4.78807e-06
4.79496e-15
0.0191939
0.0011548
0.00496199
1.30986e-15
8.59469e-17
2.76192e-15
0.0199616
0.00356663
0.0498843
1.19304e-15
4.68414e-07
5.11063e-16
2.95696e-15
8.21631e-15
2.06664e-16
0.00320385
0.00212478
0.00290991
0.298749
3.65411e-14
0.0250887
0.0338814
0.0158627
0.00166303
5.51258e-15
0.00484965
0.00442155
0.00566541
2.71747e-07
0.00944512
8.46451e-15
0.00139146
0.0012386
0.0308121
1.05104e-06
0.00330957
1.31555e-14
0.0174602
8.12571e-15
2.00955e-15
0.00156593
2.01882e-15
0.00559392
3.65386e-16
2.84815e-15
2.30035e-14
6.5901e-16
8.30895e-15
0.000799739
2.50283e-15
0.000498244
2.62093e-15
9.35797e-15
0.0164439
0.00501704
0.00753241
0.00683119
2.1912e-15
0.54906
1.11803e-16
0.0641597
7.53668e-15
0.0162799
0.0230039
0.00225539
0.0526246
3.80771e-14
1.35229e-13
8.64412e-16
0.00203022
2.04162e-14
5.9134e-15
0.0165578
5.44534e-16
5.11814e-15
0.00522564
7.24318e-15
0.0115713
6.12675e-08
1.0047e-14
5.80796e-15
2.10238e-14
0.00143373
0.00638228
1.08699e-15
0.0216826
0.000338404
8.2467e-15
0.0948827
2.54845e-15
0.0145269
0.0169313
0.00356442
1.89105e-15
0.0169997
0.00963917
0.000863412
0.00516464
0.0117055
1.4749e-14
4.1603e-15
1.75792e-06
4.53984e-15
6.85648e-15
2.25949e-16
0.0185044
0.0462296
0.00430551
0.00209544
1.29142e-14
0.0476373
0.0432527
0.00398735
0.00214973
0.00888552
0.0197077
0.00263115
1.40296e-15
7.97701e-15
9.30399e-15
0.00691527
3.79929e-15
0.0233894
3.89998e-14
0.000733697
5.68861e-07
0.00247353
0.0207853
1.22393e-14
5.03298e-15
0.00244843
0.000369364
6.61225e-16
6.13834e-15
1.54546e-14
3.7173e-05
0.000294353
0.000144693
0.0008049
0.00970887
0.0816182
8.866e-15
7.16032e-15
2.57052e-14
0.00359509
0.0164331
0.0189318
0.0331367
0.00162831
0.00293191
2.42572e-15
2.54943e-15
2.87639e-13
1.59032e-15
0.00873744
0.021249
4.79758e-16
1.20346e-14
6.88657e-16
4.36797e-15
5.29206e-14
1.66539e-14
0.0132932
1.63049e-14
0.000886983
0.407428
3.72137e-15
1.27225e-05
0.0217086
0.000724446
2.25363e-16
2.75396e-15
0.00491713
6.73462e-15
0.0139448
9.11504e-07
0.0234491
2.68917e-14
1.16256e-12
7.90962e-15
1.73382e-15
1.53958e-15
3.68657e-14
0.189427
6.22909e-16
0.00587791
0.00120248
8.35947e-15
5.07525e-15
0.00198792
1.49189e-15
1.47483e-14
0.0106208
0.000143195
2.63145e-15
1.21267e-15
1.3274e-14
0.0162583
2.00789e-15
1.13808e-15
0.000455968
0.00261931
0.00309828
5.91015e-15
4.60007e-15
4.21382e-14
0.00375882
0.00185045
0.0125633
0.00364198
1.2602e-15
0.000753681
0.0110612
0.0062415
4.85326e-15
2.54459e-15
2.58906e-15
1.55621e-15
3.56057e-15
0.0296909
0.0048703
0.00577861
3.94616e-14
1.01727e-15
1.4564e-15
2.47941e-15
4.74546e-15
1.03434e-06
0.000214334
0.00208319
8.40148e-16
3.63168e-16
1.9703e-14
2.06328e-09
0.0339584
0.11214
2.0319e-14
9.45358e-10
2.42429e-11
3.81669e-15
3.13203e-15
0.0036711
0.006148
3.3905e-15
6.68319e-16
0.00278632
1.5769e-15
0.000671668
0.000992755
2.00552
1.02154e-15
2.70141e-15
0.0113817
0.000532167
5.98351e-15
0.63788
0.000583125
0.00596776
8.36e-15
8.79125e-16
2.18746e-14
6.06523e-15
0.0082011
8.71893e-05
1.80397e-15
0.0245084
0.0184805
0.824693
2.58467e-15
6.44611e-17
2.895e-15
1.503e-15
0.00655445
8.02558e-08
2.68247e-15
1.76093e-14
0.0179554
0.00078734
0.00456539
3.86621e-15
7.44304e-15
0.0276794
1.81967e-14
4.75558e-16
4.74083e-16
2.34993e-15
0.0203494
2.30208e-14
5.32598e-16
1.03924e-14
0.0246604
0.0114544
4.42027e-16
1.2802e-15
4.86623e-15
0.0146941
1.9414e-07
2.63978e-14
4.61581e-15
2.61165e-15
5.09585e-15
0.00232088
0.0108903
2.25252e-15
0.00190427
0.00108104
0.00476552
4.02633e-14
6.24119e-15
1.02269e-14
1.99349e-14
2.95022e-16
0.0182034
4.11948e-15
0.0136582
5.62844e-15
0.00152116
5.98747e-15
0.00240238
2.49008e-15
1.14393e-14
0.00982843
0.15229
3.24653e-14
0.00356547
5.15155e-15
0.000379337
9.91065e-15
2.60478e-15
2.35542e-15
5.43294e-08
2.54263e-15
0.000287801
8.92448e-17
0.0337544
1.51263e-14
1.92709e-15
1.18753e-15
3.34678e-15
7.43002e-06
0.000131856
4.56272e-15
0.00557176
6.89358e-15
0.00266869
0.0173112
0.00127798
1.37093e-16
4.77442e-06
0.000445145
2.1973e-06
0.00404198
2.97715e-07
0.00166881
5.24812e-14
2.7455e-15
4.14915e-07
0.00554068
0.000240367
2.79217e-14
7.43465e-15
1.00324e-14
0.564098
3.19724e-15
4.03892e-16
1.39106e-15
8.25888e-15
9.62889e-14
3.24771e-05
0.000181584
0.000980658
6.68504e-05
1.49339e-12
0.00142045
2.36691e-16
0.00518726
2.72876e-15
1.63063e-14
1.96418e-14
1.91346e-14
1.38166e-05
1.74359e-16
5.79572e-15
2.06933e-15
0.0136375
2.64849e-14
2.0266e-15
0.0100274
3.3217e-15
0.0771104
0.122333
0.547794
1.36844e-14
0.193074
1.07518
1.04379
0.606132
8.61251e-15
2.19729e-15
0.00455433
0.00426163
3.34151e-15
0.010281
4.71453e-15
0.0299729
1.29874e-14
1.70846e-15
0.00070178
4.18922e-15
2.59928e-15
1.03834e-05
3.89364e-05
2.16742e-14
1.48969e-15
2.87012e-06
5.60228e-14
5.81546e-15
1.74432e-05
0.00781021
0.00147564
1.05683e-15
0.00756502
1.17343e-14
0.00326586
4.18726e-07
0.00705366
3.26419e-16
1.61021e-08
0.00546841
1.17814e-14
1.57724e-09
3.6441e-16
0.0297702
7.67511e-15
0.00879715
1.36033e-15
2.49096e-07
2.71837e-15
6.54823e-15
1.44069e-14
8.59128e-10
4.71148e-10
9.07312e-15
0.0111015
0.0087113
6.98047e-14
4.15918e-15
0.0301037
0.0158181
0.170949
4.55066e-15
6.7175e-05
0.0231538
0.0424701
5.6697e-08
1.05059e-14
0.0527468
1.04464e-14
0.212398
1.64904e-15
4.35416e-08
3.77576e-08
3.20921e-15
5.67047e-05
5.70971e-15
0.0193007
5.28542e-15
3.00222e-16
1.00356e-15
5.97585e-15
2.86531e-16
4.70184e-16
0.000256603
0.00186341
0.124627
6.55857e-15
1.43662e-14
0.0380112
1.27667e-15
6.70251e-16
1.7586e-15
6.53496e-15
5.24423e-16
0.00549987
8.74259e-16
3.43169e-16
1.11149e-15
0.00304616
3.65742e-15
8.1713e-15
1.19785e-14
0.00306309
1.99331e-15
0.0056532
0.217374
0.00511532
0.00525904
0.024649
2.49194e-15
1.61556e-14
1.60437e-15
0.00297269
0.00159371
6.74435e-17
2.26766e-13
0.000568223
5.54428e-15
1.17628e-14
0.310499
2.0227e-16
0.0198232
2.30575e-15
0.00217148
0.00292678
2.97595e-15
4.88083e-15
1.71437e-14
1.72257e-15
2.92561e-15
0.0163737
2.06696e-14
0.00435097
3.89434e-15
2.46418e-15
0.00642599
1.931e-14
0.011513
4.67038e-15
5.92389e-16
0.0021375
6.59603e-05
0.129547
9.65056e-16
2.26514e-16
1.4306e-14
0.00313454
0.164285
4.12921e-15
1.27325e-14
1.42877e-14
0.00137398
1.02932e-15
0.0176623
0.0285465
6.44904e-15
4.45973e-16
0.0066776
3.41946e-15
2.44565e-14
1.84001e-16
3.19026e-15
1.81554e-14
0.0632694
2.32253e-13
1.09698e-14
8.403e-16
2.01293e-14
2.15498e-16
2.01273e-14
1.11211e-15
3.73925e-15
2.30449e-14
0.00690968
2.43343e-15
0.00797847
8.7983e-14
7.00116e-15
0.530988
0.00254186
5.73074e-15
2.06348e-14
1.71508e-15
0.00224205
2.23662e-14
3.85285e-15
1.2933e-14
1.15953e-15
0.00685083
2.96002e-16
0.00427848
6.891e-15
0.00868954
2.21546e-15
0.051716
1.71297e-14
1.22676e-15
0.0199425
7.48734e-15
2.04259e-16
0.0242854
0.000243581
2.03196e-15
3.43872e-15
0.0324375
0.00903646
0.005991
0.000774554
0.00167763
0.015903
0.000950824
0.00426619
5.55374e-15
0.0266871
3.85181e-14
2.29478e-14
2.365e-15
3.0236e-14
1.78153e-15
0.00964886
9.15044e-14
3.05458e-14
1.67052e-15
4.47718e-06
7.37811e-06
4.1424e-14
0.00209515
2.07981e-15
0.00397062
4.87196e-15
1.22187e-06
0.00294534
1.91068e-13
0.041551
2.90318e-16
9.51516e-15
1.39579e-14
0.00273711
0.00113057
7.09353e-16
2.69652e-14
0.00228787
8.6699e-16
0.608789
4.34695e-15
0.093531
6.8442e-15
1.21864e-15
7.26477e-16
2.82273e-15
0.00918842
2.34642e-15
3.3423e-05
3.42731e-15
0.00890579
2.77984e-15
6.16055e-15
4.99339e-12
8.60213e-14
3.04856e-15
5.92695e-15
7.65157e-16
8.11615e-15
0.00380055
0.170473
1.46662e-14
3.19311e-15
0.000322742
2.07867e-15
5.26201e-15
1.02006e-06
0.0156428
0.000135965
3.86712e-15
0.000623748
0.00296189
0.00492231
0.00754467
1.84719e-15
1.06032e-13
2.15704e-14
5.26729e-16
6.50951e-15
5.05171e-15
5.84111e-16
9.97784e-15
3.39522e-14
2.04987e-15
2.6216e-15
8.12918e-15
0.0684907
9.30199e-16
5.03743e-16
3.79397e-10
9.92963e-16
9.54357e-16
1.00878
3.73765e-15
1.19623e-16
0.00189313
2.52814e-09
1.97644e-17
2.05315e-14
4.22309e-16
0.0209576
4.78884e-14
6.70612e-15
4.95024e-08
7.98601e-16
3.89736e-15
9.23206e-16
3.3951e-15
0.110132
2.17829e-15
0.000146944
3.66428e-16
4.39103e-16
7.08073e-16
4.44074e-15
2.00266e-16
1.51184e-08
2.90253e-08
0.000101172
1.42224e-16
2.77214e-15
2.25517e-14
8.44809e-08
9.32722e-16
2.785e-07
8.4427e-09
1.25975e-14
2.41344e-14
8.971e-14
4.27689e-09
5.39733e-15
8.0839e-15
2.21111e-09
1.26868e-14
0.0288172
2.60357e-14
0.00673843
2.71618e-14
2.16596e-06
1.66006e-15
0.00129669
3.10195e-15
0.00372928
0.024344
2.20011e-15
0.00232929
1.36387e-05
1.36583e-14
0.0101986
1.66075e-15
5.10054e-15
1.32951e-15
9.57079e-16
3.47927e-15
2.89677e-15
2.47261e-15
1.37219e-14
0.268702
8.59752e-15
6.71477e-16
1.28211e-16
7.99157e-16
1.90103e-15
0.0299673
0.765507
3.035e-06
9.74148e-06
3.70418e-16
0.00199101
0.00139285
1.75968e-15
2.71026e-16
4.19928e-15
2.26378e-15
6.74252e-16
1.87748e-16
1.3343e-14
3.82511e-15
0.000364803
2.54696e-15
3.64136e-15
0.000240821
3.75308e-06
2.33312e-15
0.0241595
4.53244e-15
1.28808e-14
4.76064e-15
0.162782
5.41341e-14
1.51361e-15
0.0251053
1.73426e-15
3.17683e-14
4.66943e-15
3.43696e-14
0.0532856
1.07287e-15
5.18715e-16
7.50244e-16
3.14526e-17
0.00561826
0.225296
0.0273984
0.0416313
0.00372904
0.000252085
2.96474e-14
1.28368e-14
0.139054
0.00122293
3.18107e-15
9.07027e-08
1.62289e-15
6.62933e-11
1.04645e-14
0.205398
2.92004e-15
6.8777e-15
0.000227812
2.19372e-10
2.29131e-15
0.00952065
3.52799e-15
3.42685e-15
0.198293
0.0295913
1.92778e-16
3.12825e-15
7.59884e-15
2.35123e-15
3.26985e-15
3.47818e-14
2.48617e-15
2.02264e-15
0.00306196
2.2669e-15
2.37466e-15
1.30401e-15
1.38925e-05
2.24628e-15
5.67753e-14
3.7911e-15
7.94658e-15
2.38874e-15
1.72272e-14
0.00336018
3.03731e-15
5.24502e-15
0.00500366
1.15622e-15
0.000357867
0.00446289
2.31329e-15
0.00342471
1.3058e-15
6.40406e-15
3.61971e-15
2.81744e-14
3.58751e-15
1.98566e-14
4.72188e-14
1.47251e-14
0.00235299
3.73461e-15
5.39087e-16
2.57094e-15
6.71592e-15
2.78488e-14
1.87022e-14
0.0355333
2.84002e-15
9.07768e-16
0.337657
5.94241e-15
1.60027e-14
1.30903e-14
0.00125861
7.00478e-16
6.02928e-06
1.95956e-15
4.85321e-05
0.00792431
1.03366e-15
2.51134e-14
0.040376
1.25141e-14
7.49911e-15
0.000127686
7.20276e-07
0.00984184
2.30892e-06
9.13976e-07
1.40394e-07
1.01418e-15
7.22347e-15
0.001022
0.000119167
0.0157113
0.0121291
2.8577e-05
7.49471e-14
0.00548872
0.00521542
0.0185767
1.31595e-14
0.0123102
0.0166514
0.00276747
0.00139476
0.00126076
0.00323036
0.0189653
0.0409163
0.00708348
0.0110731
0.0080167
4.78701e-14
0.00291274
0.00363584
0.000857052
0.00255914
0.0141783
0.0138123
0.0193223
1.83834e-14
0.0115337
1.57523e-14
0.00508795
0.00285016