/*--------------------------------*- C++ -*----------------------------------*\
  =========                 |
  \\      /  F ield         | OpenFOAM: The Open Source CFD Toolbox
   \\    /   O peration     | Website:  https://openfoam.org
    \\  /    A nd           | Version:  10
     \\/     M anipulation  |
\*---------------------------------------------------------------------------*/
FoamFile
{
    format      ascii;
    class       volScalarField;
    location    "29.5";
    object      T;
}
// * * * * * * * * * * * * * * * * * * * * * * * * * * * * * * * * * * * * * //

dimensions      [0 0 0 1 0 0 0];

internalField   nonuniform List<scalar> 
111485
(
303.15
285.065
300.94
303.15
298.369
283.15
298.875
293.336
296.238
286.196
300.474
296.132
300.158
284.538
299.934
286.699
299.299
297.025
293.968
303.15
303.15
283.15
297.185
288.632
301.571
303.15
293.104
300.599
288.797
303.15
300.766
294.275
303.15
283.15
283.439
283.15
302.301
297.539
283.149
296.562
283.15
289.534
296.986
302.867
303.193
303.15
287.291
288.493
289.569
303.15
303.15
283.15
303.15
298.862
303.15
293.433
287.83
283.15
283.316
295.39
295.792
303.15
302.033
300.177
283.15
284.533
300.038
291.442
302.083
302.506
303.157
301.86
303.15
302.084
303.15
295.321
283.15
293.345
283.15
283.15
283.234
293.286
283.15
303.15
300.26
284.197
283.15
301.521
303.112
299.046
283.32
289.501
300.815
300.359
289.732
303.15
303.15
301.521
303.149
283.413
303.15
286.575
283.15
285.138
285.692
283.15
283.15
293.008
301.399
283.147
298.833
287.997
301.245
301.651
303.15
301.943
303.15
283.15
300.096
303.15
303.15
283.15
283.15
283.15
283.389
303.151
283.15
301.774
303.15
283.175
303.099
301.907
303.15
283.15
283.15
292.439
283.15
294.137
298.76
301.074
303.135
296.778
298.942
284.741
302.261
297.73
283.15
303.15
283.15
297.083
284.9
303.15
303.144
287.251
283.156
293.649
295.578
302.51
283.154
303.15
303.15
292.105
286.185
283.153
283.157
301.144
283.679
283.15
283.152
283.153
283.15
303.15
283.206
283.15
291.462
287.11
283.15
303.15
303.15
283.15
303.15
303.15
297.596
293.414
295.708
289.688
301.329
300.372
283.19
303.15
301.408
303.15
303.15
300.106
286.223
301.362
301.306
295.651
303.15
300.829
284.565
283.159
300.71
297.01
303.15
300.366
288.13
303.15
283.222
300.122
284.777
300.645
303.15
303.15
300.66
283.15
292.702
283.15
300.565
298.609
290.261
303.15
301.709
300.511
283.15
283.15
283.15
289.449
283.156
283.15
303.15
298.562
291.284
289.84
283.15
303.15
303.108
303.15
284.306
300.032
299.186
299.445
299.316
283.15
283.144
298.81
283.15
283.15
288.704
288.297
283.15
301.127
298.823
303.15
283.15
301.05
303.15
303.15
303.121
303.15
288.195
285.815
290.7
303.15
298.278
303.15
303.15
303.15
283.148
297.979
300.937
299.367
291.141
299.419
296.183
283.21
290.24
291.485
283.15
303.15
283.149
292.368
298.719
286.404
303.15
297.951
297.22
298.825
302.953
283.167
297.032
299.301
302.012
283.15
283.603
283.15
283.149
303.15
283.844
290.208
286.244
303.15
283.15
297.539
285.217
303.15
303.15
303.15
284.554
290.164
301.014
284.385
292.949
283.15
283.15
303.15
298.304
303.15
283.803
289.379
283.153
283.15
303.15
303.15
283.15
294.285
289.889
283.15
295.629
283.15
303.15
300.973
297.231
293.922
295.737
283.15
283.15
283.15
296.536
290.925
302.371
283.15
283.15
283.15
290
296.887
283.21
290.402
283.15
292.719
299.496
284.176
298.552
285.209
283.15
303.15
283.15
303.15
290.596
296.646
287.891
291.869
283.15
286.291
283.15
303.15
293.742
303.15
301.695
303.15
283.15
291.854
283.15
288.701
284.597
283.15
283.964
297.951
283.15
300.107
284.652
298.785
303.017
290.974
285.951
283.15
303.15
303.144
283.15
300.949
300.765
283.15
283.15
294.668
284.331
298.124
296.861
283.15
294.971
295.997
283.15
302.041
283.874
303.15
303.15
288.178
298.525
283.15
303.15
303.15
303.15
300.705
283.15
303.15
293.9
283.17
286.866
299.896
283.15
283.15
302.605
283.15
302.441
301.387
297.759
288.372
283.15
293.827
303.376
303.15
298.568
292.203
303.15
283.15
283.301
283.15
289.928
286.048
291.563
283.15
292.789
296.509
292.981
303.147
283.15
303.15
303.15
283.168
292.648
283.15
284.296
303.131
283.15
303.15
303.15
303.15
301.844
290.44
285.937
284.171
284.283
283.15
285.647
303.15
300.666
283.15
303.15
303.15
300.607
303.15
303.15
283.151
303.15
283.15
300.61
283.15
283.15
283.15
303.15
283.15
303.15
283.15
283.656
283.15
303.128
301.855
283.737
283.15
303.084
283.15
303.15
284.671
284.641
286.057
297.436
283.15
297.41
297.523
292.201
286.753
285.222
303.15
291.674
283.15
299.801
283.15
296.717
283.15
291.989
298.465
303.151
283.15
286.734
303.15
295.44
299.022
283.15
283.15
283.15
283.15
303.15
293.607
283.15
283.15
283.236
283.15
299.755
283.15
284.751
303.15
283.424
303.118
284.615
291.817
283.15
301.406
283.15
283.15
285.634
283.15
283.254
283.15
299.614
303.15
290.571
303.15
283.15
302.376
284.433
300.026
285.601
300.023
289.405
283.15
300.573
284.506
283.15
283.141
300.247
301.552
283.15
282.489
301.009
303.058
283.124
303.15
287.513
302.151
284.37
285.33
288.119
282.601
283.15
303.15
300.535
303.15
283.543
283.15
283.15
291.687
282.695
303.149
303.114
283.15
286.202
299.548
283.15
283.15
299.57
303.15
283.15
283.15
283.15
286.089
283.15
303.15
284.777
284.203
303.15
299.673
283.15
289.177
303.15
283.15
286.08
283.15
283.15
283.15
285.328
283.15
285.39
291.882
303.15
300.306
283.436
298.627
300.918
283.295
283.449
283.15
288.87
298.383
303.15
302.244
295.956
296.815
284.683
297.381
297.141
303.15
300.171
303.133
283.15
297.073
284.796
283.15
292.292
295.64
284.812
298.709
300.589
292.254
283.15
298.858
283.457
303.15
300.549
301.949
294.017
283.15
286.431
303.15
283.15
283.15
283.15
283.299
283.15
303.15
303.15
283.15
300.39
299.181
303.15
285.555
303.15
303.15
303.15
289.96
283.415
283.15
303.15
283.15
283.15
286.765
292.3
283.15
295.054
283.138
283.15
295.222
302.193
287.705
283.15
283.15
300.21
292.013
283.15
283.15
283.15
293.889
303.15
303.15
283.15
296.167
302.346
283.15
282.349
301.684
286.487
283.15
283.15
287.414
302.956
283.15
283.159
287.101
283.745
288.712
283.15
285.65
300.205
283.15
303.15
283.15
283.15
283.15
283.15
295.59
303.15
283.15
283.15
295.201
291.731
303.15
303.15
289.723
298.332
298.231
303.15
283.15
297.899
303.15
283.818
298.774
298.281
303.15
303.15
303.15
283.15
285.996
283.15
283.15
302.699
303.15
297.73
302.242
283.15
293.976
283.271
296.351
291.901
283.416
289.667
283.15
283.15
296.795
287.982
290.754
283.15
283.15
297.481
294.863
283.15
283.884
284.55
283.463
303.15
303.15
303.15
290.656
283.15
299.99
283.15
284.339
297.511
298.424
292.188
283.15
283.15
303.15
295.297
283.15
283.15
303.096
283.15
283.15
303.15
283.15
299.243
283.15
283.15
283.15
283.15
283.15
303.15
283.15
283.171
298.703
303.15
302.519
283.132
283.389
283.097
285.473
283.15
284.416
290.458
283.389
303.15
283.149
299.667
283.15
300.188
283.14
283.144
286.146
297.406
283.205
291.815
297.977
283.15
283.15
298.986
299.729
283.15
297.255
291.187
297.544
283.15
283.243
283.15
297.848
296.973
283.15
300.014
297.624
283.149
299.714
283.15
295.542
283.145
303.129
283.161
283.16
283.15
283.15
284.405
283.15
302.962
283.573
283.064
303.147
303.149
303.148
283.15
283.15
293.737
303.15
303.218
283.847
283.15
283.15
303.154
303.149
283.15
303.165
283.15
283.15
303.15
303.15
303.15
303.15
283.36
283.15
283.15
283.15
303.157
283.299
283.868
293.39
283.15
283.15
283.328
283.15
283.15
283.15
287.183
293.51
283.15
283.15
283.15
283.15
283.15
283.15
283.984
283.15
303.15
291.469
283.15
303.15
303.15
303.154
303.15
303.15
283.15
303.171
283.15
283.678
283.145
303.152
283.15
303.061
284.356
292.003
303.15
303.129
284.418
303.15
283.15
303.15
283.15
293.965
293.368
284.591
303.148
283.15
293.16
283.15
283.15
303.15
283.15
294.777
283.15
303.15
283.163
298.075
303.15
284.353
283.15
283.56
283.15
283.15
283.15
303.15
285.794
283.464
284.073
283.15
283.15
285.591
283.15
283.15
303.15
284.314
303.165
298.481
303.15
303.126
303.127
283.15
303.129
283.15
283.439
289.034
301.028
283.776
283.165
283.15
283.15
283.15
303.184
283.15
302.891
303.15
292.524
303.15
288.664
283.809
303.15
283.15
303.15
283.15
301.754
303.15
303.15
286.359
300.504
283.15
283.15
283.15
283.15
283.15
283.15
300.756
283.566
303.15
303.15
303.157
303.15
300.137
284.39
283.15
302.087
303.15
301.586
283.15
302.558
283.15
283.148
303.152
283.309
302.087
300.17
283.147
283.15
289.295
303.15
293.3
303.15
283.15
303.15
283.15
283.15
283.15
300.753
302.029
303.15
303.15
303.15
302.897
283.15
303.15
292.807
283.087
303.15
297.457
298.302
296.431
283.37
283.15
283.15
283.15
283.15
294.566
283.15
294.704
283.15
303.055
289.775
283.15
302.851
283.15
283.15
302.723
283.148
302.908
283.15
303.15
283.15
302.371
283.15
303.15
283.15
283.148
283.15
283.17
283.15
283.15
303.15
292.935
301.063
296.011
296.94
303.15
303.115
283.15
283.15
285.639
283.15
283.158
302.834
298.75
302.933
303.15
283.356
283.15
303.15
283.15
302.987
283.311
298.295
283.15
303.15
288.005
303.15
283.15
283.127
294.973
283.148
283.15
283.15
283.149
303.15
283.15
303.141
303.15
303.15
289.868
302.98
302.987
288.941
293.178
283.15
283.15
303.079
289.011
283.15
303.15
284.712
283.15
303.15
283.15
283.15
283.15
297.247
283.15
302.932
283.15
300.416
283.15
283.15
283.15
283.15
283.15
283.15
284.986
283.15
283.15
283.15
283.15
283.15
283.15
291.929
283.15
298.366
302.924
283.15
302.333
283.15
302.501
303.145
292.247
288.727
303.15
292.111
284.749
303.106
303.15
303.14
295.03
288.604
283.15
287.827
283.15
283.15
283.15
283.15
287.455
283.15
283.15
291.591
303.135
285.274
283.15
283.15
302.521
283.15
283.181
303.15
299.863
283.15
283.15
302.818
283.15
303.178
303.15
283.15
288.99
297.993
292.651
285.617
292.45
294.029
283.15
283.15
302.263
290.525
292.71
284.378
283.15
294.355
283.15
303.15
300.681
298.726
283.15
297.383
283.15
292.699
297.155
303.15
283.15
283.15
301.742
283.15
283.15
300.451
296.086
283.196
291.159
283.15
283.15
302.784
300.469
283.15
300.599
283.15
300.455
283.15
283.15
300.758
283.15
283.225
301.569
283.15
283.15
302.417
283.15
287.845
303.15
290.259
303.15
303.15
303.15
300.9
283.15
283.15
299.483
283.15
302.981
283.15
283.15
303.15
283.151
288.137
283.15
283.15
288.001
288.18
283.15
283.666
283.15
303.15
302.406
283.703
301.528
283.15
283.15
283.15
283.15
283.15
283.15
283.15
283.15
283.15
283.15
283.15
303.15
283.15
283.15
283.15
283.15
283.15
283.15
283.15
283.15
303.15
286.886
283.15
283.15
283.15
294.631
283.15
303.15
302.871
283.15
283.15
294.633
283.15
283.15
301.75
295.111
283.15
303.684
303.604
283.15
301.437
293.884
297.473
301.44
298.097
303.15
283.15
296.382
291.697
301.383
283.15
302.118
302.403
300.831
287.98
287.264
301.02
301.751
301.754
303.15
285.825
297.492
285.484
297.193
283.15
283.15
283.15
303.15
283.15
291.917
297.876
283.15
283.15
283.15
283.15
283.15
303.15
283.15
303.15
292.073
303.105
298.973
302.836
283.15
283.15
285.362
283.168
283.15
283.15
301.723
303.15
283.15
298.115
299.473
297.481
298.581
300.759
303.15
290.978
302.565
303.15
303.15
300.265
303.15
283.15
282.998
295.491
302.94
283.15
303.15
289.514
286.114
297.129
292.116
302.351
303.15
303.135
303.15
303.15
283.15
298.968
283.15
291.727
290.379
299.64
284.728
303.15
301.895
303.15
283.15
303.15
303.15
291.419
299.401
283.15
303.15
303.132
291.707
303.025
299.307
292.735
288.263
292.845
283.15
303.15
283.15
291.164
298.246
303.151
303.15
303.15
303.15
297.435
302.56
283.15
299.932
301.093
284.832
299.472
303.15
303.15
298.632
292.897
283.15
302.894
299.652
302.602
291.897
297.259
298.183
303.15
286.93
298.162
291.256
283.15
288.992
303.15
288.33
301.015
303.15
288.642
301.237
300.059
293.111
283.151
283.16
283.237
301.562
300.872
303.15
288.761
301.439
303.15
283.15
303.15
303.208
298.692
290.501
296.714
303.26
283.149
297.347
303.15
303.15
292.719
303.15
300.271
283.298
301.278
291.475
303.15
283.645
293.141
303.15
283.073
298.626
303.15
300.653
286.203
303.15
303.15
283.973
303.15
283.15
283.15
285.872
299.185
291.1
303.15
285.177
297.399
283.15
298.799
298.833
288.905
303.099
283.15
301.505
299.629
298.799
300.032
288.604
290.677
302.48
303.15
301.513
288.656
303.15
298.81
283.15
283.15
303.15
283.15
303.15
297.4
283.15
300.483
283.628
303.15
283.785
283.15
289.773
303.15
303.144
303.15
294.053
302.996
303.116
299.804
290.346
289.374
290.524
298.336
303.15
299.325
292.105
298.878
303.15
283.856
283.439
299.187
287.106
283.502
303.15
283.15
303.15
285.283
303.15
303.349
284.656
303.393
302.953
303.15
303.15
283.15
300.502
300.653
285.448
303.083
286.95
295.61
301.86
292.441
288.085
302.064
296.046
283.15
283.15
303.15
285.767
289.629
283.15
283.15
303.15
301.967
288.629
303.15
296.348
303.15
283.155
285.145
301.155
303.15
303.15
292.212
303.15
283.296
290.546
283.15
297.108
294.563
296.081
303.15
302.695
283.15
302.658
293.338
303.15
303.15
288.732
283.15
303.15
301.769
284.415
303.15
303.15
283.15
302.323
303.479
289.428
299.638
298.085
303.15
303.159
302.579
303.15
283.15
303.15
303.15
303.15
303.15
303.15
303.15
303.15
283.15
303.15
303.15
283.336
303.15
303.353
303.15
303.164
303.15
303.15
300.876
303.674
303.15
291.88
303.15
303.15
283.15
302.543
303.15
302.126
303.113
283.288
283.15
303.15
302.559
283.149
303.15
303.15
291.307
283.15
292.531
283.15
283.15
283.153
291.154
284.802
303.15
296.583
283.15
303.788
303.133
284.29
302.58
283.15
292.107
303.083
301.633
283.15
303.15
283.15
304.15
284.788
296.844
303.15
303.15
303.15
303.15
303.15
303.15
302.334
302.803
297.543
291.936
303.15
287.094
292.583
284.942
303.209
283.15
286.857
302.746
284.726
283.148
287.419
303.15
283.379
302.916
292.471
302.841
301.846
303.15
302.239
303.15
303.15
297.904
303.15
284.456
303.15
303.15
283.15
303.15
303.15
302.84
303.15
283.294
283.15
283.15
285.782
284.848
300.904
286.055
303.15
294.51
303.15
290.363
303.15
287.101
300.634
301.447
293.236
303.15
303.15
303.15
289.748
283.15
303.15
289.501
283.15
283.15
301.79
303.15
286.132
283.148
283.15
303.15
303.15
300.619
298.135
303.15
293.356
303.032
283.15
298.568
303.15
286.365
288.168
302.119
303.15
296.254
296.725
302.946
301.857
301.623
303.15
303.15
303.147
303.15
283.15
303.15
289.502
300.174
294.251
302.103
283.15
300.329
291.334
298.193
283.59
298.255
289.54
302.141
283.15
283.15
283.15
302.188
283.15
290.392
283.15
301.219
303.162
289.657
298.013
283.15
303.15
301.207
301.183
303.15
283.15
303.15
286.38
301.409
302.973
302.322
297.954
288.381
303.15
303.15
303.15
294.17
285.93
289.722
295.804
283.94
302.952
303.15
303.15
283.15
283.15
285.385
299.568
303.15
303.15
283.15
303.15
303.15
303.15
300.206
303.15
285.304
292.102
283.15
283.246
293.285
285.65
303.15
303.15
301.861
303.15
299.164
283.147
297.493
303.15
303.15
283.15
303.15
303.15
303.15
305.103
303.15
301.813
301.104
303.15
303.15
301.584
303.15
283.15
287.185
303.097
303.15
303.15
303.15
297.88
303.15
303.15
302.381
302.474
301.749
303.15
283.15
303.15
302.021
302.499
301.494
302.52
283.15
300.622
287.424
297.383
283.15
303.15
303.15
303.15
303.15
294.273
287.514
299.652
303.15
303.15
303.15
303.15
283.15
303.148
284.744
285.111
283.15
303.15
303.15
283.148
299.511
294.754
283.15
303.15
303.15
303.15
303.15
289.546
289.59
303.15
303.15
302.397
303.15
301.447
283.933
291.753
303.15
283.15
301.166
303.121
303.15
302.941
301.278
286.781
303.15
303.15
303.15
303.15
293.218
284.129
303.15
302.672
298
289.174
303.15
303.15
303.15
303.15
299.522
303.151
303.15
303.15
298.211
302.594
288.286
303.15
303.15
297.69
303.15
303.15
303.15
303.15
288.737
303.15
283.15
283.15
295.874
291.002
303.15
303.15
303.15
296.972
303.146
303.15
303.15
303.15
303.15
303.382
300.826
303.15
287.273
302.635
299.342
303.15
303.15
303.15
303.15
283.15
285.631
303.15
302.844
283.15
302.158
303.15
303.133
303.15
283.15
301.943
285.521
283.15
302.824
303.15
302.401
283.15
303.15
303.15
303.151
303.15
283.27
303.15
290.764
283.15
283.15
303.15
303.15
298.795
302.353
283.15
302.385
283.15
284.097
287.893
302.687
283.15
303.155
302.98
303.133
284.378
283.156
302.979
283.15
283.15
283.156
302.051
302.273
303.15
283.15
283.15
295.099
303.15
283.15
303.15
303.15
303.15
303.107
303.043
302.92
302.425
303.15
302.895
303.15
284.779
303.15
303.15
283.15
303.15
303.11
303.15
283.15
303.15
288.254
303.15
303.15
303.168
283.15
302.767
301.901
296.592
303.15
289.091
294.099
283.751
289.79
283.15
283.15
287.152
284.295
283.15
303.859
283.15
286.358
303.15
283.15
303.155
303.15
303.15
303.01
303.155
303.15
283.15
303.138
303.15
283.15
283.107
298.659
302.688
303.15
301.807
303.15
285.662
303.152
301.133
303.15
303.15
300.993
303.15
303.15
303.15
287.631
303.15
285.103
303.15
303.147
303.15
283.15
283.15
303.15
303.15
303.15
288.63
302.53
303.15
303.15
288.526
286.453
291.057
303.15
302.685
287.613
287.484
303.15
303.15
287.538
283.15
291.833
303.15
303.153
303.149
303.15
300.482
283.15
302.312
283.15
303.15
303.15
303.15
303.15
303.15
284.302
302.223
290.971
303.15
303.15
290.499
303.15
303.15
303.15
303.15
303.15
300.1
303.15
303.15
283.15
299.403
303.15
283.15
303.15
301.328
283.15
299.903
290.727
302.671
299.967
299.385
303.15
303.15
303.15
300.802
288.415
283.15
303.15
300.264
303.15
303.15
291.907
303.15
287.412
303.15
297.768
284.285
303.15
283.15
303.15
303.15
303.15
285.2
303.15
300.44
303.15
303.15
299.646
283.15
284.71
303.15
303.15
288.023
301.537
296.357
303.15
303.15
303.15
301.554
292.174
303.15
283.15
303.15
300.627
303.15
284.732
296.237
303.15
303.15
301.096
303.15
303.15
283.15
303.15
283.15
294.475
303.15
283.15
303.15
303.15
303.15
303.15
303.15
303.15
283.15
301.504
283.15
302.047
303.15
303.15
296.041
300.424
303.15
283.15
303.15
300.835
283.15
303.15
303.15
303.15
300.684
303.15
297.589
303.15
285.803
283.15
286.677
303.15
303.15
298.473
283.15
303.15
287.792
283.244
303.15
303.15
285.046
283.827
300.799
301.697
301.143
293.102
301.703
283.824
303.15
297.623
283.15
283.15
303.15
303.15
303.15
301.173
303.15
303.15
303.15
303.129
283.168
283.15
283.552
303.15
301.977
283.15
303.142
296.013
283.15
294.452
303.15
303.15
283.15
299.828
283.905
303.15
283.15
299.857
303.15
297.638
303.15
295.188
303.15
283.15
303.15
283.15
299.364
283.15
283.222
283.15
286.143
303.15
303.15
283.15
283.15
303.15
303.15
303.15
303.15
284.835
284.686
283.15
303.15
283.231
283.15
283.15
303.154
289.806
283.535
283.15
301.459
284.844
300.432
288.117
303.15
303.15
303.15
303.15
283.15
283.15
283.15
303.15
283.15
283.15
303.15
283.15
297.18
283.15
303.15
283.15
303.15
303.15
283.276
283.15
303.15
301.913
303.149
303.15
303.15
303.15
288.654
283.15
303.15
303.149
283.15
303.15
303.15
303.15
295.273
283.15
283.177
303.15
303.15
303.15
303.15
303.15
303.149
303.147
284.085
303.15
283.15
303.15
303.149
303.15
303.148
303.149
283.15
283.15
283.15
303.149
303.15
283.15
303.149
283.15
287.655
283.15
301.754
283.15
303.154
303.15
284.571
283.15
284.417
297.314
303.15
284.653
303.174
303.15
297.324
283.15
303.15
303.15
303.15
303.15
283.15
303.15
303.15
299.075
283.15
303.15
303.15
303.15
303.15
292.268
290.071
303.171
283.164
303.15
301.787
302.302
303.15
283.15
283.15
303.15
303.15
303.15
283.15
283.15
283.803
303.15
303.15
303.2
303.151
283.15
288.797
303.15
283.15
303.15
287.978
303.15
283.15
302.077
283.15
283.15
283.15
303.15
299.582
303.15
303.15
303.15
283.15
284.469
293.508
295.132
289.485
303.117
303.012
283.15
283.15
301.014
283.678
283.15
303.149
303.15
303.15
283.15
294.462
303.15
283.15
302.971
303.15
303.15
283.774
303.15
303.15
288.328
289.467
303.15
283.15
303.15
283.15
303.15
303.15
303.15
303.15
283.929
303.15
303.15
303.15
302.918
303.15
303.15
283.15
283.15
283.15
283.15
302.931
283.15
283.15
300.909
303.15
284.729
284.886
303.15
301.075
303.15
283.15
303.15
283.15
283.15
303.15
303.15
303.15
302.65
303.15
303.15
303.15
283.15
303.15
283.15
286.327
303.15
303.15
291.515
303.15
283.15
283.15
302.398
303.15
303.147
283.15
303.183
286.597
283.15
283.15
299.13
283.15
283.15
303.048
303.162
293.259
303.167
303.151
303.153
283.15
283.15
302.627
283.439
285.749
300.826
283.156
283.15
290.972
301.541
301.441
283.15
300.187
290.632
300.107
302.188
302.71
284.647
295.414
299.164
286.206
293.253
300.076
303.15
297.963
297.507
302.772
283.655
292.271
301.125
287.273
303.15
300.96
303.15
300.674
301.455
283.628
284.952
303.15
283.15
302.279
301.645
283.146
303.173
288.487
302.667
301.779
300.772
303.15
303.235
301.07
294.897
300.408
288.793
302.899
301.64
302.187
302.253
284.195
302.484
301.55
283.178
303.15
302.886
303.15
303.15
302.061
301.969
294.213
303.15
284.644
292.199
292.264
300.745
303.15
283.977
285.15
284.377
303.15
298.732
303.15
296.378
295.26
300.666
303.141
303.15
303.15
301.904
301.212
302.77
303.15
292.538
302.735
289.899
283.15
298.336
293.915
303.15
300.496
283.15
283.202
283.15
302.542
303.092
303.15
302.979
298.311
283.148
300.484
302.204
295.277
283.525
295.737
296.975
283.447
303.132
284.718
296.314
283.314
296.738
300.439
300.187
300.308
301.954
289.566
301.533
303.15
302.712
302.642
302.652
296.518
302.888
283.15
301.987
293.387
303.15
283.422
286.792
301.172
302.575
290.45
284.788
287.618
302.601
296.299
303.15
303.15
294.915
283.15
292.569
283.419
303.15
290.497
290.212
283.893
303.15
297.21
298.503
284.211
301.194
294.132
290.107
300.488
303.111
303.15
303.15
283.516
302.595
283.339
285.756
303.15
303.017
303.033
303.15
285.37
300.836
297.79
283.241
299.467
302.341
300.449
286.855
283.15
303.103
301.774
283.724
283.134
303.15
303.07
303.15
303.15
284.162
302.518
296.389
283.034
283.153
303.15
283.15
302.948
303.04
302.485
301.375
303.15
283.15
283.15
301.793
301.85
283.209
295.889
303.15
303.15
301.584
285.465
283.256
301.647
301.753
301.689
284.371
303.15
283.15
298.465
297.691
303.15
302.684
302.048
284.603
284.939
302.083
303.056
303.15
298.107
284.394
283.15
303.15
300.556
301.175
301.982
289.545
302.042
285.625
300.108
300.29
290.279
297.478
303.15
303.15
300.89
284.437
302.059
283.151
300.431
301.666
283.618
288.238
302.397
283.15
283.15
283.029
303.15
303.15
299.907
298.879
302.255
283.148
283.15
283.911
283.151
283.15
283.151
303.075
300.875
299.091
295.803
283.361
303.09
300.076
303.15
283.15
302.533
289.176
300.765
292.649
283.501
303.056
283.148
283.15
302.823
301.168
302.592
283.155
291.132
284.858
303.15
284.234
300.994
283.15
283.303
284.918
284.063
283.15
283.15
301.606
283.15
289.309
302.51
302.686
301.761
283.466
298.045
289.902
283.15
303.352
291.993
283.15
283.15
283.15
303.15
301.191
302.393
299.107
301.425
299.893
288.8
283.154
290.921
290.099
303.057
290.975
299.962
292.011
283.15
286.269
301.034
301.54
283.15
283.971
299.623
283.15
303.15
283.186
301.234
303.15
283.99
302.251
303.015
303.15
283.15
292.722
303.153
301.661
283.15
283.15
283.15
302.16
297.484
303.144
302.168
303.167
303.15
288.32
303.167
290.382
300.171
300.129
296.526
283.156
301.66
283.15
290.516
301.374
289.383
290.425
298.908
300.659
301.557
287.12
291.084
284.965
283.171
302.188
286.084
283.15
283.144
300.147
283.081
300.244
286.942
296.036
299.376
289.122
299.222
283.122
299.15
283.15
289.926
288.8
298.587
283.325
283.15
300.502
283.15
302.783
283.15
303.15
286.423
286.428
283.15
298.93
298.559
286.967
303.15
303.15
301.675
289.729
302.979
283.717
301.538
287.027
303.147
284.167
288.108
303.15
301.382
283.15
283.15
287.504
286.973
283.145
285.218
301.459
286.177
301.221
303.15
285.079
301.712
291.138
303.15
303.15
301.576
302.016
303.15
292.941
294.232
283.655
296.333
286.734
289.937
303.15
302.734
296.973
284.955
283.15
287.663
291.82
299.565
283.161
283.739
282.96
301.919
303.113
283.151
303.132
303.15
300.54
292.95
298.773
293.761
283.15
291.884
295.854
285.533
283.211
291.257
283.15
300.285
303.165
292.444
284.083
303.143
291.787
298.542
288.184
300.336
291.278
287.264
283.15
303.141
285.299
289.826
293.375
283.15
283.15
283.15
303.14
283.15
283.137
286.366
303.15
283.15
303.168
283.172
291.069
288.655
303.569
302.904
289.788
303.15
296.918
303.178
301.983
287.216
283.15
292.848
303.144
303.091
286.14
283.15
283.15
283.462
285.955
303.049
303.143
287.466
289.418
283.471
283.162
289.783
293.156
303.15
283.15
303.094
303.15
302.313
284.973
302.324
303.091
284.041
283.761
284.027
302.855
302.146
297.363
293.982
303.066
291.177
290.968
303.15
303.095
302.568
285.389
283.373
303.15
285.896
283.38
302.925
301.686
302.148
283.15
300.294
301.826
303.15
302.123
285.361
303.15
297.829
303.15
283.15
300.663
302.664
286.263
302.473
283.15
285.136
303
283.15
302.279
285.322
294.794
284.306
303.15
303.015
302.878
286.45
283.15
287.069
284.231
289.702
285.69
302.228
303.15
283.15
283.15
293.079
283.15
301.023
302.134
290.296
283.15
293.986
283.15
303.15
283.15
300.074
298.507
283.151
285.231
301.721
303.062
303.154
291.776
294.123
301.156
283.197
301.794
283.145
303.15
303.144
298.801
283.15
300.581
294.701
303.15
300.913
287.242
301.949
284.864
288.137
283.15
302.194
287.652
298.369
303.078
283.15
303.15
291.596
302.134
283.079
283.147
286.702
298.249
303.149
284.416
300.979
300.949
301.207
303.153
299.834
287.563
284.876
301.546
299.827
283.703
283.107
303.16
303.149
303.15
297.286
283.163
283.15
303.15
303.149
289.831
298.873
300.245
287.703
302.786
303.15
286.378
301.563
303.15
300.921
283.782
301.417
303.15
284.521
301.364
295.487
302.757
303.15
303.15
285.127
295
296.301
287.315
303.15
303.15
283.15
287.137
302.373
296.087
303.15
285.514
303.15
303.15
300.436
288.644
283.15
295.462
295.795
299.048
283.15
303.15
292.593
287.147
303.15
297.876
300.458
300.361
303.15
303.15
303.15
300.167
298.261
302.778
299.829
283.15
292.818
287.586
290.519
300.509
303.15
303.15
300.708
303.09
286.479
296.004
303.15
303.147
283.15
286.379
298.837
285.523
303.15
303.15
283.333
303.121
303.15
303.15
283.15
290.443
303.15
303.15
284.551
299.246
283.15
303.15
284.577
301.275
300.097
286.919
294.913
303.15
283.489
303.15
303.15
283.309
300.48
290.332
300.33
303.15
303.129
302.137
292.511
299.696
301.285
284.412
283.447
300.844
298.311
303.15
302.74
284.113
299.668
301.335
287.597
303.15
297.342
301.365
301.451
301.493
292.82
303.15
283.15
299.094
283.15
283.15
287.672
283.15
283.983
283.15
283.15
283.15
283.15
302.735
288.072
302.683
283.15
295.595
290.859
284.698
283.15
303.15
302.657
301.693
303.16
302.613
283.15
294.723
300.194
290.081
283.15
283.15
299.725
285.876
283.15
283.15
303.149
290.48
283.15
287.06
303.149
303.152
284.278
283.15
288.126
291.948
300.76
294.55
302.945
285.556
302.48
295.139
286.196
283.15
283.53
291.49
303.066
288.977
302.634
283.15
292.295
287.671
300.981
301.273
284.864
303.098
284.865
296.927
302.982
303.145
285.081
303.145
302.998
293.174
302.677
283.15
303.15
303.15
294.635
290.907
283.155
301.012
284.637
284.119
284.578
303.145
288.256
300.394
283.15
283.15
302.473
303.15
294.417
302.883
303.183
299.703
303.225
302.869
283.15
301.242
302.865
283.15
303.15
301.272
303.15
284.285
298.638
283.163
291.416
283.15
287.497
303.005
299.682
283.15
303.017
290.815
301.169
303.123
303.076
283.15
283.15
301.925
301.963
283.781
302.802
302.387
302.354
303.141
283.15
293.611
283.15
302.778
287.784
302.978
303.15
283.15
302.803
285.081
291.397
302.014
283.15
302.557
301.954
301.513
302.456
303.04
303.213
303.003
303.15
283.15
301.47
297.748
303.086
303.15
289.826
284.797
303.15
283.15
285.262
303.184
303.166
302.906
301.068
284.234
303.094
290.651
294.143
303.148
288.939
303.165
283.15
289.772
283.15
299.878
298.024
284.743
288.076
299.509
296.624
295.179
299.071
293.621
303.154
293.8
296.244
283.161
299.277
293.771
303.15
298.839
299.034
303.15
291.081
303.171
301.613
303.15
286.84
285.965
302.779
289.579
283.15
283.15
300.257
301.146
283.704
283.15
303.15
300.146
302.286
300.563
299.791
302.767
292.471
289.553
286.561
292.396
284.264
290.287
283.301
295.653
290.333
293.817
287.023
284.248
303.164
283.27
303.148
285.524
300.632
283.15
300.391
298.356
288.64
302.078
285.346
298.964
283.15
302.942
283.154
283.119
287.487
299.539
303.15
300.304
303.014
299.846
302.742
303.15
301.194
284.906
294.817
302.003
303.149
283.686
283.15
290.205
285.192
285.688
303.122
303.148
283.15
283.15
283.175
303.15
293.344
303.15
303.146
293.785
303.439
303.15
300.384
303.15
303.15
293.545
290.487
303.15
289.736
302.018
289.466
303.15
303.15
285.821
283.33
290.219
303.228
303.15
303.145
285.406
283.238
283.15
288.868
287.479
303.15
284.271
303.15
303.15
303.131
287.258
303.15
303.147
283.268
303.152
302.633
287.836
283.153
283.575
297.325
290.62
303.15
285.876
284.395
301.268
287.03
302.154
290.482
293.726
303.15
303.15
283.977
303.146
302.937
295.843
302.937
302.72
287.091
283.15
285.265
283.215
297.031
302.575
285.317
303.15
283.766
286.642
303.123
283.175
303.15
286.326
283.15
300.098
303.15
299.621
299.734
283.295
283.352
302.295
290.726
301.345
303.15
301.334
301.694
303.15
303.15
298.229
293.301
283.15
288.684
303.15
295.184
283.347
303.15
296.785
298.644
288.9
303.15
302.735
294.11
295.278
284.422
303.16
298.593
296.003
283.956
303.121
302.786
287.281
298.332
289.72
290.692
289.644
283.15
302.934
303.151
303.15
303.177
292.975
296.193
302.97
301.222
303.15
284.41
303.15
303.035
302.842
303.15
293.422
296.152
303.15
285.314
303.093
303.15
303.085
303.159
285.993
293.224
290.987
288.311
293.32
303.15
301.152
291.323
295.206
293.321
303.14
303.15
300.474
303.191
284.208
303.192
303.15
303.15
303.143
303.15
284.879
303.15
284.177
303.146
303.15
290.078
303.144
292.364
295.388
303.133
295.224
285.923
283.432
303.123
302.932
284.643
283.15
297.004
303.15
285.441
302.894
302.001
303.016
298.412
286.955
303.15
298.604
289.803
299.211
283.15
283.604
303.15
303.145
303.191
293.98
303.15
292.304
289.219
303.196
303.15
284.725
298.665
293.115
299.496
302.444
301.576
300.305
303.15
284.67
296.94
302.345
285.541
298.319
292.152
284.419
291.534
303.15
286.516
291.71
290.027
299.34
303.15
286.371
284.059
303.15
302.401
288.05
302.078
283.15
303.15
299.747
301.641
288.896
301.939
301.913
301.765
303.15
289.222
285.067
301.915
302.198
297.021
303.15
283.199
303.15
301.94
303.15
302.783
303.15
291.569
303.15
296.405
283.15
289.378
303.15
283.15
292.108
301.394
300.341
289.094
300.425
303.15
302.463
303.15
302.347
285.164
303.15
300.327
290.281
303.15
300.736
303.15
303.15
293.099
283.15
285.476
293.109
300.853
303.15
291.06
293.719
288.078
289.56
288.021
299.154
300.241