/*--------------------------------*- C++ -*----------------------------------*\
  =========                 |
  \\      /  F ield         | OpenFOAM: The Open Source CFD Toolbox
   \\    /   O peration     | Website:  https://openfoam.org
    \\  /    A nd           | Version:  10
     \\/     M anipulation  |
\*---------------------------------------------------------------------------*/
FoamFile
{
    format      ascii;
    class       volVectorField;
    location    "29.5";
    object      U;
}
// * * * * * * * * * * * * * * * * * * * * * * * * * * * * * * * * * * * * * //

dimensions      [0 1 -1 0 0 0 0];

internalField   nonuniform List<vector> 
111485
(
(1.45876 -1.45861 0.000419754)
(4.28526 -0.00990561 -0.0257851)
(4.21787 0.0110902 0.0126236)
(1.4582 -1.45847 0.000131963)
(4.38178 0.020636 0.000141769)
(1.54369 1.54254 -0.000170319)
(4.30439 0.0129987 0.00109238)
(4.43496 -0.0133439 0.00532084)
(4.30177 -0.00196818 0.00355279)
(4.41698 -0.0481349 -0.0197031)
(4.24179 0.0102089 0.012677)
(4.43798 -0.0118996 0.020539)
(4.17851 0.00400662 0.00938327)
(4.24044 -0.00905006 -0.0296202)
(4.28042 0.0172882 0.00841176)
(4.38488 -0.0300496 -0.0230743)
(4.32139 -0.0051409 0.00706063)
(1.5123 -0.0948129 0.216121)
(4.38866 0.0134572 -0.00968488)
(1.45505 -1.45341 5.8745e-05)
(1.45672 -1.45633 -0.00137956)
(1.54512 1.54485 -0.000220874)
(4.34202 0.016443 -0.00409342)
(4.4241 -0.0292119 -0.0100428)
(4.34092 0.0129206 -0.00333018)
(1.46868 -1.46318 -0.00221592)
(4.45576 -0.0217149 0.0215583)
(4.22374 -0.00815567 0.00179065)
(4.40486 0.00642829 -0.0112222)
(1.45657 -1.45651 -7.09627e-05)
(4.4488 0.0685239 -0.0176495)
(4.399 -0.0099888 0.00129718)
(1.45166 -1.45425 0.00202162)
(1.54448 1.54793 -0.00356262)
(1.54724 0.656041 0.244781)
(1.55431 1.56498 -0.0226357)
(4.42602 0.0688189 -0.027224)
(4.28951 0.00983715 0.0393806)
(4.40542 1.33538 0.0742756)
(4.39615 0.0209054 0.0010417)
(1.52707 1.54111 -0.0108592)
(4.43586 0.00676801 -0.0271735)
(4.39594 0.0215915 0.00733207)
(4.22507 -0.0256554 0.00182264)
(4.42141 -0.0749567 -0.0386349)
(1.45936 -1.44748 0.00534434)
(4.4316 -0.0186538 0.0179723)
(4.41732 -0.027842 -0.00912818)
(4.43791 0.000494735 -0.0222879)
(1.44841 -1.42955 0.00793826)
(1.44517 -1.43175 0.00834343)
(1.75367 1.4769 0.0265304)
(1.44016 -1.4353 0.0048089)
(4.42772 0.0202815 -0.035717)
(1.43688 -1.43162 0.00080427)
(4.37703 0.0115733 -0.004838)
(4.38329 -0.0193017 -0.0105419)
(1.54646 1.5434 0.000970805)
(3.99944 -0.00788419 -0.0700555)
(4.4021 0.0181393 -0.00263175)
(4.4003 0.020098 -0.000963788)
(1.45381 -1.45695 0.00214977)
(4.09857 0.00416605 0.02657)
(4.45106 -0.0114223 0.0340212)
(1.59875 1.45043 0.00374562)
(4.01406 0.00916134 -0.00861944)
(3.08896 -0.23777 0.103889)
(4.41383 -0.0158581 0.00597332)
(3.98689 0.00168581 0.015294)
(3.77334 -0.00606867 0.0031246)
(4.25384 0.0348844 -0.0130536)
(3.94596 -0.0107238 0.0214507)
(1.57896 -1.42247 -0.0316622)
(4.0524 0.00659816 0.0313774)
(1.45814 -1.45734 -0.000139807)
(4.39785 -0.010215 0.00822658)
(1.54483 1.54525 7.32474e-05)
(4.42749 -0.00895247 0.0229909)
(1.54468 1.5436 3.86473e-05)
(1.40027 1.36902 -0.044761)
(4.27707 -0.0646255 0.0434541)
(4.42666 0.01513 0.00171194)
(1.54245 1.53975 -0.000129989)
(1.45814 -1.45784 0.000759325)
(4.15296 -0.000275515 0.00906365)
(3.98113 0.0110882 -0.0177103)
(3.42672 2.22738 -0.594888)
(4.37309 0.0531781 0.00436725)
(4.21376 0.106324 0.0907662)
(4.27626 0.00627658 0.0145808)
(4.51158 0.0887531 -0.0560818)
(4.37985 -0.00748953 0.00689802)
(4.10253 -0.00696773 0.0139275)
(4.18464 -0.00483184 0.0050819)
(4.4384 0.0143035 -0.0249048)
(1.45831 -1.45784 -0.000261475)
(1.4578 -1.45751 0.000702632)
(4.37061 0.0492522 0.0154033)
(4.49855 -0.879496 0.062293)
(4.09313 0.0140515 0.0267157)
(1.45837 -1.45809 0.000463102)
(4.39102 -0.0232077 0.00195432)
(1.55292 1.55569 0.00859755)
(4.35843 0.000526949 -0.00239802)
(4.33382 -0.0237122 -0.0286594)
(1.51601 1.35855 -0.0313004)
(1.54515 1.54482 -0.000221791)
(4.40609 -0.0134722 -0.001383)
(4.05726 -0.0221578 0.00482493)
(3.89062 -0.115049 -0.120541)
(4.14878 -0.00391311 0.00910633)
(4.37116 0.00609793 -0.00268099)
(4.0709 -0.00206202 0.0154736)
(4.00636 -0.0199136 0.00917572)
(1.4717 -1.46416 0.00048663)
(3.86497 -0.00505919 0.0118949)
(1.46361 -1.45867 -0.00221363)
(1.55319 1.54673 0.00628328)
(4.29683 0.0180374 0.0139215)
(1.4578 -1.45689 0.000521813)
(1.46977 -1.46359 -0.0016485)
(2.0293 1.5997 0.0959032)
(1.53605 1.54083 -0.00305315)
(1.54964 1.54588 -0.00356234)
(4.20017 -0.00984866 0.0193891)
(1.16543 -0.821549 -0.217335)
(1.93647 1.66742 0.0582417)
(3.90354 -0.00107024 0.0187103)
(1.45793 -1.45728 -0.000452319)
(4.41463 0.332529 -0.119083)
(4.40902 0.0806104 -0.0424024)
(4.3627 0.0502706 0.0162499)
(1.45421 -1.45067 -0.00698301)
(1.98787 1.73201 0.173562)
(1.85809 1.65924 0.0777312)
(4.40417 0.0139021 -0.00669663)
(1.5456 1.54584 -0.000412933)
(4.37972 0.0106392 0.000779192)
(4.34704 0.0153213 0.00647468)
(4.28152 0.0184144 0.015447)
(3.36246 0.000420746 0.0146609)
(4.39186 0.0227422 0.00447266)
(4.35422 0.0280275 0.0160752)
(4.13675 0.00369599 -0.0180191)
(4.32325 -0.00871126 0.0042481)
(4.27872 -0.000711995 0.00817076)
(1.54589 1.54611 -0.000358814)
(1.45791 -1.45801 0.000109032)
(1.54276 1.54349 0.00286108)
(4.3797 0.0174396 0.00213087)
(4.1383 0.0070087 -0.0163848)
(1.45669 -1.45567 0.000541419)
(2.87658 -0.0165977 0.0280581)
(4.27332 0.0204152 0.0100352)
(4.68246 0.188287 0.0837861)
(4.40335 0.0124351 -0.00893992)
(4.38005 0.0135093 -0.0033472)
(4.06695 0.000315287 -0.00536228)
(4.7252 0.230569 0.0584038)
(1.45047 -1.46402 0.00580387)
(1.45617 -1.45752 0.00123207)
(4.39246 0.0122336 -0.00900235)
(4.30508 -0.0148565 -0.0154631)
(4.75575 0.25983 0.0634594)
(4.68984 0.228017 0.087148)
(4.095 0.00762176 0.0214492)
(4.3865 0.0534051 -0.0195859)
(1.5273 1.53998 0.000348013)
(4.81291 0.32225 0.078034)
(4.58824 0.230873 0.0720327)
(1.54462 1.54539 0.000366493)
(1.45648 -1.4562 -0.000205715)
(3.51787 0.00397411 -0.0257608)
(1.54542 1.54622 0.000103198)
(4.36066 -0.00962221 -0.00166522)
(4.19114 0.00285452 -0.00992165)
(1.54561 1.51007 -0.00710927)
(1.57454 -1.44435 0.0131893)
(1.46152 -1.45374 -0.00243399)
(1.52186 1.43818 -0.0141529)
(1.58535 -1.45885 0.0248207)
(1.45624 -1.45724 0.00093661)
(4.37291 0.0172124 0.00441203)
(4.37067 0.0109697 -0.00828538)
(4.35553 0.0143538 -0.00393851)
(4.3212 -0.0103406 0.0156855)
(4.15035 -0.0092719 0.00312672)
(4.16738 0.00874856 0.013897)
(3.69521 0.0466299 0.0051456)
(1.45731 -1.45209 -0.000151757)
(4.0477 0.00101582 0.00412364)
(1.57102 -1.45827 0.0144196)
(1.47012 -1.47259 -0.000840067)
(4.2071 0.00961686 0.0144672)
(4.4188 -0.0541595 -0.0196322)
(4.36806 0.0095081 -0.0200742)
(4.19774 -0.0042487 0.00660298)
(4.26353 -0.0022043 0.00513783)
(1.45544 -1.45277 0.00321624)
(4.18675 -0.0197164 0.00380886)
(4.18152 -0.00545018 -0.0259986)
(2.92886 0.94021 0.120183)
(4.28394 -0.0330664 0.0025949)
(4.34413 -0.00748799 0.00408734)
(1.46325 -1.45517 -0.00217844)
(4.18977 0.0121405 0.0148585)
(4.38547 0.00955735 -0.00326521)
(1.59753 -1.44234 0.00584444)
(4.21324 0.00995483 0.0154981)
(4.41786 -0.00540184 0.0253723)
(4.13674 0.00386708 -0.01878)
(4.17913 0.0106342 0.0189668)
(1.58276 -1.46318 0.0196174)
(1.45694 -1.45742 -0.000208547)
(4.17996 0.0105947 0.0188609)
(2.74047 1.72322 -0.169011)
(4.46995 0.0193611 -0.0427407)
(1.54495 1.54577 -0.000881176)
(4.20433 0.00783837 0.0160007)
(4.19572 0.00669391 0.00478008)
(4.44371 -0.0141688 0.0275998)
(1.45952 -1.4588 0.000594973)
(3.92116 -0.000209238 0.0110389)
(4.39983 0.0615269 0.0304492)
(2.42286 1.63162 -0.176905)
(1.54564 1.54572 -0.00119343)
(1.54455 1.54532 0.000337124)
(4.49926 -0.0290751 0.0410382)
(4.20008 0.0997047 -0.00987869)
(1.62621 1.3754 -0.0307055)
(1.81291 -1.40258 0.0555051)
(4.21074 0.00333322 0.00565203)
(4.33967 0.00831334 0.000629783)
(4.40855 0.0108402 0.00250666)
(1.60413 1.40001 -0.0403971)
(1.54159 -1.42455 -0.00543922)
(4.23367 0.0482409 -0.0560006)
(1.45795 -1.45754 0.000875763)
(4.00614 0.0046681 -0.0238825)
(4.16074 0.00467636 0.0134722)
(4.20793 0.00174173 0.00740976)
(4.21564 0.0106243 0.00891399)
(4.23159 0.00853553 0.0120427)
(1.54095 1.54099 0.00487771)
(3.18786 -0.00927223 -0.120961)
(4.29417 0.0103181 0.0161017)
(1.53808 1.54113 -0.00200952)
(1.54459 1.54539 -0.000239831)
(4.47047 -0.0524209 -0.005993)
(4.37028 0.0181817 -0.00731046)
(1.58351 1.35336 -0.0412895)
(3.97453 -0.00255767 0.0121312)
(4.2771 0.0119508 0.01237)
(1.45852 -1.45768 -0.000499077)
(1.95328 1.84032 -0.0120988)
(4.39985 0.0378195 -0.0168899)
(1.46197 -1.44314 0.000703617)
(1.61813 -1.14463 -0.0279217)
(2.23959 -0.78113 -0.0797102)
(1.45894 -1.45498 -0.000208876)
(4.29606 -0.00767861 -0.00771293)
(4.1781 -0.00749671 -0.0103334)
(4.35919 0.00690704 -0.0126325)
(1.4574 -1.45762 -7.70059e-05)
(4.31714 0.0130113 0.0108677)
(1.45823 -1.45852 0.000141819)
(1.45822 -1.45889 0.000260333)
(1.45581 -1.45038 0.00250587)
(2.94518 0.0110749 -0.0447514)
(4.42122 -0.0205249 0.0244736)
(4.22348 0.0149726 0.0195871)
(4.29191 0.0136187 0.0105743)
(4.45475 -0.0291548 -0.000850793)
(4.26822 0.00948347 0.00942566)
(4.38637 0.0158414 0.00548465)
(4.40954 0.0735898 -0.00778051)
(4.30747 0.00949355 0.00057204)
(4.35069 0.0100543 0.00056709)
(1.57006 1.54453 -0.000828449)
(1.45623 -1.45607 -0.00162949)
(2.68712 0.0169014 -0.0653519)
(4.37364 -0.0101622 0.00139184)
(4.42379 0.0333304 0.0373087)
(4.16054 -0.00520554 -0.00738654)
(1.458 -1.45712 0.000352471)
(4.36547 0.0132693 0.00831029)
(4.38873 0.0214402 0.0103283)
(4.28159 0.00818822 0.00708962)
(3.77273 -0.00400998 -0.0182074)
(3.95123 -0.0450743 -0.0980612)
(4.34739 0.0148235 0.00232034)
(4.27273 0.0111158 0.00948766)
(4.36168 0.0321799 -0.0193489)
(1.54615 1.54616 0.000146586)
(3.99529 0.0209681 -0.000603228)
(1.54471 1.54513 -0.000575733)
(1.2624 0.968772 -0.195546)
(1.64512 -1.04775 -0.106884)
(4.52972 -0.040684 0.0561149)
(4.45708 -0.0293335 -0.000969782)
(4.35165 -0.00229865 0.000501763)
(1.46033 -1.45674 -0.000540606)
(1.54028 1.549 0.0125363)
(4.35779 0.0141352 0.00794416)
(4.17099 0.00747545 -0.00649159)
(1.45735 -1.45639 0.000130943)
(1.45865 -1.45784 0.00131676)
(1.42792 -1.4353 0.0111296)
(4.14643 0.00583007 -0.00315684)
(4.33184 0.00586564 -0.00517291)
(4.13533 0.000838657 0.0146532)
(3.99401 0.0069338 -0.0229904)
(4.41679 0.0101247 -0.0103178)
(1.76848 1.52257 0.0401673)
(1.54227 1.54591 0.00303746)
(1.45822 -1.45606 -0.000866528)
(4.34213 0.0144379 0.0122177)
(2.80597 -2.37857 -0.171221)
(4.14025 -0.00487007 0.00454431)
(4.49751 -0.0315015 0.0955501)
(3.61908 0.0025168 -0.0740175)
(1.54526 1.54525 -0.000230063)
(1.45665 -1.45804 0.000791761)
(1.45826 -1.45912 -0.000801323)
(1.94503 1.63446 0.0985904)
(4.39218 0.0140248 -0.000439249)
(4.43361 -0.0253824 0.00154441)
(1.5491 1.55291 0.00055588)
(4.35431 0.0117597 -0.00120566)
(1.63212 1.32639 0.0920471)
(1.46546 -1.44907 -0.0022001)
(4.4636 -0.0156344 0.0364076)
(4.34766 0.0153615 0.00662468)
(4.45102 -0.00697496 0.0109108)
(4.35745 0.0122186 -0.000801756)
(1.49138 1.32626 0.0790902)
(1.92589 1.65882 0.105017)
(1.54253 1.54463 -0.00237578)
(4.35102 0.01494 0.00565218)
(4.34768 0.0129127 -0.000278802)
(4.43193 0.0745145 -0.0241976)
(1.53225 1.52921 0.00333021)
(3.04412 2.69968 -0.642191)
(4.15222 0.0404593 0.0370021)
(4.43052 -0.0209726 0.0107407)
(4.36912 0.0161065 0.0103345)
(4.14881 0.430081 -0.0352754)
(4.41504 0.0104341 -0.0102891)
(1.54221 1.5422 0.000280323)
(4.41824 0.0120101 -0.00872841)
(4.23988 0.00560242 0.00849347)
(4.47358 -0.103834 -0.000476297)
(4.47665 -0.0261893 0.0532456)
(4.34036 -0.0332151 -0.0299206)
(1.54052 1.54701 -0.00604262)
(1.45676 -1.45859 -0.00271784)
(1.54868 1.54034 0.00564603)
(1.44883 -1.45293 -0.0005404)
(4.42723 -0.0214356 -0.000151155)
(4.40109 -0.0081405 0.00284318)
(4.37579 0.0206745 -0.0145339)
(4.41132 0.012236 -0.0130918)
(1.53595 1.53765 -0.0063598)
(4.37276 -0.0287069 -0.00954015)
(1.5437 1.5444 0.000579646)
(1.45179 -1.45612 0.000244252)
(4.41317 0.0123168 -0.009585)
(1.34499 -1.34669 0.0196178)
(2.42472 -0.421309 -0.0363725)
(1.44211 -1.43669 0.00128683)
(1.55939 1.53863 0.0122822)
(4.3654 0.00847826 -0.00582545)
(1.54554 1.54472 0.000605441)
(4.32355 0.0108696 -0.00314309)
(4.10573 0.00258092 -0.0190882)
(1.54647 1.54635 -0.000341978)
(3.96453 -0.00165917 -0.0194237)
(4.29368 0.00703604 0.00802568)
(1.5558 1.36704 -0.0503086)
(4.28761 0.0187927 0.0192687)
(4.04308 0.0207059 -0.0030944)
(4.31142 0.0244705 0.00614658)
(4.01266 0.0153053 0.0493818)
(4.35494 0.0127265 0.00204334)
(4.14947 0.000659536 -0.00942468)
(1.52462 1.30729 -0.00561032)
(1.45718 -1.45178 0.0054742)
(3.72745 0.00831883 0.0881065)
(1.53546 1.54075 -0.00890701)
(4.30293 0.022371 0.0197125)
(4.46555 -0.0225759 0.0435951)
(1.55686 1.48936 0.0124742)
(1.54234 1.54874 -0.000272989)
(4.41609 -0.00923387 0.00312641)
(4.25099 -0.0192095 -0.0392381)
(4.26814 0.0222882 0.00236906)
(4.43126 0.00887361 -0.00212867)
(1.54517 1.54349 -0.000446709)
(4.48553 -0.0130794 0.0706556)
(4.41406 -0.0150338 0.0219456)
(1.54839 1.54558 5.40613e-05)
(4.33611 0.0655498 0.053406)
(4.13305 -0.0170243 -0.0426006)
(1.45715 -1.45607 -0.00025203)
(1.45711 -1.45691 0.000279871)
(4.32014 0.013701 -0.00373803)
(4.33633 0.0041267 -0.00616147)
(1.5524 1.55269 -0.0019792)
(1.46039 -1.4557 -0.00153262)
(2.58372 -1.38833 0.316102)
(1.45787 -1.45881 0.000524155)
(4.33734 -0.00220369 0.00934348)
(1.53747 1.54248 0.003667)
(1.45831 -1.45868 9.90608e-05)
(4.45259 -0.00518701 0.014487)
(4.02849 -0.0474012 -0.1149)
(4.40581 -0.0248588 0.00641836)
(4.24392 0.000237213 0.00793416)
(1.54697 1.54593 4.5423e-05)
(2.0015 1.54653 0.0747435)
(4.24917 0.0538819 0.0793046)
(1.87712 1.65874 0.0872504)
(4.23287 0.0183513 0.0329538)
(4.21718 -0.0347548 0.00334294)
(4.39609 -0.0119411 -0.0103671)
(3.06689 0.106323 0.107108)
(1.84397 1.59058 0.0780083)
(4.40999 0.00765095 -0.0415239)
(4.4567 0.13424 -0.0485331)
(1.45627 -1.45904 0.00245453)
(4.43655 0.011345 -0.0432652)
(4.4457 -0.0213622 0.0159017)
(1.46005 -1.45971 0.00153061)
(4.28542 0.245536 -0.13596)
(3.7484 -0.000687313 -0.0526927)
(1.94716 1.5338 0.0626876)
(4.42048 -0.00850425 0.0187064)
(4.37027 0.00605725 -0.0061041)
(4.35846 0.0118691 -0.00226257)
(1.54475 1.54363 -0.000433333)
(4.34705 -0.00709546 0.0298739)
(4.44346 -0.0039205 0.0145919)
(4.33025 0.0416768 -0.00456078)
(2.7378 -0.0363092 0.0465328)
(1.87673 1.77281 -0.0370809)
(2.57885 -0.0653556 0.0849839)
(1.45654 -1.45832 0.00102137)
(4.00175 -0.130435 -0.129417)
(4.34814 -0.00771957 -0.0285671)
(1.54604 1.54501 0.00217623)
(4.11977 0.00997299 -0.0307223)
(3.4055 -0.00842501 0.0605621)
(2.00008 1.77014 -0.0185883)
(1.45829 -1.45732 0.000160409)
(1.70983 -1.44896 0.0459042)
(1.45789 -1.45733 0.00010358)
(4.32299 0.0208975 -0.000760619)
(4.35681 0.0225597 -0.00762451)
(4.30015 -0.0132918 -0.012275)
(4.04327 0.0104039 -0.0225634)
(4.40971 -0.0902491 -0.0181853)
(1.54489 1.53877 -0.00309665)
(4.27569 0.000355709 -0.00936243)
(1.46166 -1.45092 0.000491377)
(4.23045 0.0163549 0.00961632)
(1.55008 1.54973 -0.000900456)
(1.45725 -1.45614 -2.90262e-05)
(1.44629 -1.45034 -0.0020465)
(4.15769 -0.0282396 0.00614278)
(1.4548 -1.45532 -0.000962403)
(1.45866 -1.45825 0.000470965)
(1.5217 1.01711 -0.06282)
(1.4581 -1.45925 0.000459471)
(1.53039 1.55154 0.0144225)
(4.26203 -0.0149244 -0.00667267)
(1.54665 1.54443 0.000648707)
(1.82889 1.35312 0.00243769)
(1.54682 1.54686 0.00164547)
(1.45593 -1.45185 -0.00100282)
(1.54628 1.54247 -0.00104999)
(1.45396 -1.44656 -0.00762079)
(1.54109 1.54091 -0.000220666)
(3.88177 0.000798404 -0.0331557)
(1.5488 1.5404 0.00631107)
(3.98592 0.0554151 0.0782699)
(4.3547 0.00380598 0.000896962)
(4.5011 -0.177345 -0.0281292)
(1.547 1.53999 -0.000211516)
(3.79575 0.011634 0.0611766)
(1.54862 1.54302 0.00178959)
(1.45829 -1.45916 -0.000706248)
(4.31027 -0.041356 -0.0459838)
(4.30724 -0.034651 -0.0351481)
(4.30361 -0.009215 -0.0121661)
(4.49917 0.011923 -0.0753717)
(1.77314 1.49379 -0.0481326)
(4.40342 0.00399662 -0.0232786)
(4.40343 0.00162845 -0.0197969)
(4.36194 0.00946897 -1.44691e-05)
(4.29432 0.00473801 0.000918388)
(4.37915 -0.0447772 -0.0292496)
(1.45505 -1.45531 -0.000556375)
(4.36828 0.00768817 -0.00141413)
(2.01698 1.75706 -0.0117162)
(4.34131 0.00665636 -0.0101742)
(1.54565 1.5445 0.000246978)
(4.42507 0.0162664 -0.0247255)
(1.99541 1.65809 0.0155333)
(4.36579 0.00418764 -0.00613967)
(4.37151 -0.0199766 0.0158741)
(1.68496 -0.841064 -0.0101595)
(1.54802 1.54978 0.0170095)
(4.30129 0.00765437 0.00694564)
(1.45804 -1.45694 0.000158453)
(4.44023 0.0180397 -0.025533)
(4.40329 0.0227931 -0.0187487)
(1.54525 1.54102 -0.0126115)
(1.54329 1.54253 0.00373901)
(1.51331 1.35672 -0.0385148)
(1.54468 1.54567 0.000918344)
(3.08942 -0.163923 0.0823765)
(4.44231 0.0158076 -0.026059)
(1.56489 1.52846 -0.00110753)
(1.54283 1.5456 0.0017994)
(3.80106 0.00214738 -0.0107291)
(1.54564 1.54549 -7.43815e-05)
(4.37437 0.0152292 -0.0176486)
(1.5455 1.54475 0.000107331)
(4.33433 -0.0263889 -0.0184341)
(1.45901 -1.45835 0.000421715)
(4.07221 -0.0218026 -0.0603755)
(3.37162 -0.0127157 0.00482116)
(4.07118 0.0123863 -0.00957713)
(4.368 0.00571302 -0.00751368)
(1.55482 1.54324 -0.00468211)
(3.97101 0.00386791 -0.000512329)
(1.54826 1.54294 0.00132834)
(1.54549 1.54659 -0.00378614)
(4.30825 -0.0166746 -0.0101973)
(1.54589 1.54447 -0.00016695)
(3.67774 0.000336478 -0.0377146)
(1.49583 1.3773 -0.0433981)
(4.38461 0.0247048 -0.01437)
(1.45713 -1.45761 -0.00029252)
(4.41291 0.010519 -0.00939434)
(1.45841 -1.45722 0.000185659)
(1.83008 1.622 0.0459315)
(4.46997 0.157917 -0.00881944)
(4.30523 -0.0355299 -0.0466988)
(4.35206 0.0160434 0.000643373)
(4.40361 -0.0528127 -0.0328965)
(4.33167 0.00917296 -0.0053936)
(4.44916 -0.0302889 -0.00417218)
(1.53568 1.54758 -0.00682232)
(4.34986 0.0216715 0.0143084)
(4.31686 -0.0394841 -0.0462705)
(1.54492 1.54558 -0.00069853)
(3.65362 -0.0462208 -0.157451)
(4.45091 -0.0309886 -0.0224003)
(4.2758 0.0193133 0.0156205)
(1.53212 1.51075 -0.00889385)
(1.90038 0.389938 -0.296177)
(4.18468 0.011298 0.0127886)
(3.43587 -0.0136254 0.0344322)
(3.55451 0.920539 -0.00724851)
(1.89408 -0.95819 -0.0800783)
(4.43531 -0.0475744 -0.0070739)
(4.16308 0.0160859 0.0293008)
(4.30138 -0.0417136 -0.0446889)
(4.37087 -0.0243279 -0.00943929)
(4.31552 0.0257024 0.0105291)
(3.82254 0.500092 -0.025053)
(1.90675 1.62024 0.0132874)
(3.8844 -0.142053 0.0313506)
(3.75262 -0.326707 0.0778803)
(1.4563 -1.45689 0.000846543)
(3.82515 0.0265608 -0.0117446)
(1.55425 1.52542 -0.00776966)
(1.81262 1.64851 0.0151402)
(4.32702 0.00510073 -0.00220383)
(3.8462 0.653315 -0.0204287)
(4.62697 -0.389445 -0.072529)
(4.16742 -0.715557 0.0144589)
(1.80755 1.71878 -0.124092)
(4.40919 -0.0259175 -0.00733414)
(4.36155 0.0248041 0.0186652)
(1.54201 1.53763 -0.000424948)
(1.98318 1.10714 -0.0443283)
(4.36382 0.0315314 0.0185097)
(1.45672 -1.45143 0.000968818)
(1.5453 1.54506 -0.000135636)
(1.5436 1.54318 0.000243633)
(1.54659 1.5386 0.00162899)
(4.41302 -0.0454519 -0.0206067)
(1.54572 1.54546 0.000901424)
(1.46404 -1.46398 0.00786159)
(4.33038 -0.026572 -0.0224408)
(3.99101 -0.000570076 -0.0124511)
(2.15293 -1.8839 -0.099116)
(4.3646 0.0308521 0.0180059)
(1.79323 1.45172 0.032363)
(4.38672 -0.0173715 -0.00887641)
(1.43371 -1.43263 -0.00643538)
(1.54241 1.54546 -0.000687028)
(4.3956 -0.0271254 -0.00807241)
(1.54573 1.53715 -0.00594659)
(1.54507 1.54164 0.00108554)
(1.76987 1.69576 0.0496206)
(4.1437 -0.00315036 -0.00284837)
(2.53924 2.12874 -0.279875)
(4.33151 -0.0186006 -0.00939073)
(4.32367 0.00459949 -0.00294608)
(1.44737 -1.43803 -0.0117178)
(4.49771 -0.01369 0.140616)
(4.12673 -0.0240954 -0.0601173)
(4.31244 0.00145642 -0.00225776)
(4.38033 0.0775541 0.00987776)
(4.39607 0.0453435 -0.0940789)
(3.7892 0.00194341 -0.0359153)
(1.54378 1.54302 0.000561334)
(4.39808 0.00469594 0.0112459)
(4.36747 0.0176044 -5.33386e-05)
(1.44485 -1.46383 0.0029672)
(4.07751 -0.0027436 0.000330287)
(4.41689 0.0255341 -0.00864321)
(4.40757 0.0202083 -0.00705576)
(4.01931 -0.0173395 -0.0405846)
(4.40415 0.021355 -0.00566603)
(4.40949 0.0217418 -0.00436815)
(1.46242 -1.44312 0.00866278)
(4.40485 -0.00917426 0.0218669)
(3.66003 -0.0219292 -0.00553291)
(1.86196 1.61863 0.100421)
(4.4024 0.0177236 -0.00943975)
(4.20322 0.00497363 -0.00958218)
(2.46986 2.01456 -0.301144)
(4.32749 0.00594327 -0.00151869)
(4.40515 0.0151389 -0.0133299)
(4.20511 0.00132629 -0.0170932)
(4.37349 0.0217426 -4.03811e-05)
(4.32426 0.0464318 0.0177144)
(4.33381 0.00556561 0.000461466)
(1.51205 1.47919 0.00194197)
(4.37286 0.0223038 -0.000806934)
(4.10779 -0.02477 -0.0543547)
(1.63207 -0.973692 0.0386703)
(4.35272 0.0339701 0.0222633)
(4.30506 0.0349243 0.0347178)
(4.3589 0.0140177 -0.00241948)
(1.54419 1.54144 0.00160186)
(4.24179 0.0252871 -0.040543)
(1.45822 -1.45186 0.00377154)
(1.54542 1.54588 -0.000793773)
(1.54078 1.52868 -9.74402e-05)
(1.54716 1.53897 0.000836987)
(3.67174 0.00201264 -0.0174299)
(1.83654 1.58515 0.0629625)
(3.32738 -0.229643 0.273239)
(1.4544 -1.45436 0.000248035)
(1.54472 1.56346 -3.69115e-06)
(4.36796 0.0419235 0.0233856)
(4.3787 0.0106373 -0.0173955)
(1.45887 -1.45871 5.19194e-05)
(4.38809 -0.0272246 -0.00384069)
(1.45791 -1.45659 0.0048343)
(1.4591 -1.45797 -0.000741125)
(1.43626 -1.43659 0.00443795)
(4.46006 -0.0372706 -0.0077967)
(3.70942 0.0200971 -0.0109161)
(1.81834 1.64006 0.0203727)
(1.47337 -1.45699 0.00390337)
(1.54344 1.54805 -0.0019908)
(1.54436 1.54557 -0.000290851)
(4.48011 0.00857022 -0.0487447)
(4.34401 0.00748594 -0.00319596)
(1.83673 1.72787 0.0794633)
(4.42816 0.0141897 -0.0230575)
(4.12563 -0.0574334 -0.167772)
(1.54299 1.54352 -0.00086211)
(4.41635 0.0122661 -0.0199965)
(4.053 0.00357945 0.0213888)
(4.31951 0.0236849 -0.0284966)
(1.54661 1.54566 -0.0002116)
(1.5441 1.54349 -4.20378e-05)
(4.28097 0.0188856 0.0226811)
(4.36465 0.00848724 -0.00137152)
(1.82393 1.66037 0.0259538)
(1.53977 1.54026 -6.21573e-05)
(1.56828 1.52247 -0.00307909)
(4.32637 -0.00861118 0.0050506)
(1.45643 -1.45659 -0.0019576)
(1.45844 -1.45369 0.00126839)
(1.54083 1.54151 0.000754111)
(4.41395 0.013521 -0.016989)
(3.86857 -0.0184897 0.0066094)
(1.54602 1.54619 0.000214882)
(1.71437 0.355854 0.294841)
(1.85862 -0.186239 -0.0678973)
(4.29423 0.0225814 -0.00210464)
(1.5431 1.54571 -0.000741995)
(1.54548 1.54255 -0.000784964)
(4.44533 -0.0450174 -0.0103122)
(4.24896 0.0721625 0.0648953)
(1.85049 1.65533 0.0770071)
(2.6878 0.884969 0.0624952)
(4.18895 0.100891 0.118058)
(4.00632 0.0112289 -0.0286948)
(4.24984 0.00350304 -0.00341735)
(1.60289 1.50494 -0.00270889)
(4.23221 0.0113437 0.000653717)
(4.38709 -0.029195 0.0303722)
(1.54921 1.54519 -0.00178043)
(1.44835 -1.42516 0.00192303)
(1.54105 1.54192 -0.000192575)
(1.54372 1.54411 -0.00055127)
(1.54583 1.54801 -0.00168765)
(1.54645 1.54674 -0.000117349)
(4.42404 0.0145835 -0.0182741)
(1.45703 -1.45694 0.00106374)
(1.54394 1.54428 -5.74019e-05)
(1.53645 1.51636 -0.000168737)
(4.42786 0.0148395 -0.0239573)
(4.36027 0.00955752 -0.00326003)
(1.46422 -1.44499 -0.000530382)
(1.44128 -1.42653 0.00222097)
(4.46286 -0.0210977 0.037953)
(4.24268 0.00325256 0.00529567)
(4.23585 0.00509145 0.00685043)
(1.45896 -1.45491 -0.000781979)
(1.54309 1.54367 0.000824426)
(4.2395 0.00295114 0.00644652)
(1.45848 -1.45743 -1.46837e-05)
(4.18896 0.0110709 0.00110553)
(4.29912 0.00707408 0.0147756)
(4.30706 0.0151386 0.00729193)
(1.46788 -1.45722 0.00459448)
(1.4578 -1.45837 0.000433567)
(1.45761 -1.4585 0.000445079)
(1.54555 1.54579 0.000404914)
(4.34897 -0.0188437 -0.0122317)
(1.54388 1.54496 0.000232927)
(1.54292 1.54331 0.000381388)
(4.32496 0.011441 -0.0154606)
(1.45764 -1.45834 0.0006243)
(4.25549 -0.00149731 0.00530569)
(3.89496 -0.0318833 0.0129177)
(1.55835 1.50836 0.00741053)
(4.3588 0.0139765 -0.00273601)
(2.06153 0.313987 -0.0531979)
(4.2949 0.00337443 0.00392747)
(4.45793 -0.016547 0.00883393)
(3.92429 0.0157408 0.00487581)
(4.44278 -0.00031861 0.028382)
(3.21281 0.0711284 -0.120272)
(1.83641 1.47307 0.029946)
(4.28524 0.00021714 0.00239625)
(4.46152 0.0317321 0.00192354)
(4.35717 -0.0125013 -0.00519578)
(1.58245 1.37896 -0.0467045)
(1.95118 0.194115 -0.0982177)
(2.32823 -0.148226 0.0746349)
(4.28544 0.00679453 0.00380925)
(1.54314 1.54542 0.00201522)
(4.21303 -0.00958798 -0.031255)
(4.30155 -0.00356562 -0.0107084)
(4.17999 -0.0376369 -0.0669386)
(1.59532 -1.12504 -0.0847937)
(1.45822 -1.45835 0.000779154)
(1.45775 -1.45776 -1.74666e-05)
(4.38375 -0.0143505 -0.00255458)
(1.79779 1.49266 -0.0184329)
(4.15543 0.0140299 0.0066627)
(1.67454 1.52691 0.0206038)
(4.1393 -0.00767456 -0.0278019)
(4.24497 -0.00632716 0.00521843)
(4.20504 -0.00346563 0.0155935)
(4.36117 0.0109749 -0.00408393)
(1.54446 1.54335 -0.000475244)
(1.53602 1.53179 -0.0022646)
(1.55934 -1.42074 0.00672535)
(4.35597 0.0161048 0.000825548)
(1.54606 1.54189 -0.000231164)
(1.77922 1.53415 -0.0662802)
(4.45491 0.0783757 -0.0674616)
(1.55146 1.54965 -0.000780076)
(1.53917 1.54657 0.00452913)
(1.45505 -1.4492 -0.00377838)
(1.54571 1.54629 0.000413951)
(4.15955 -0.00244133 0.0148801)
(1.583 1.50133 0.00513306)
(1.54566 1.54391 0.000163188)
(3.54081 0.499744 -0.366541)
(1.80345 1.46137 -0.019836)
(1.53972 1.54057 -0.0128629)
(2.10495 -1.24407 0.0764206)
(1.54526 1.54309 -0.00137205)
(3.40497 0.0129649 -0.0299126)
(4.24195 -0.00535039 0.0118498)
(1.457 -1.4568 -0.000559428)
(4.17099 0.00484534 -0.00977365)
(4.21905 0.685193 -0.096274)
(4.15247 -0.0407196 -0.0652807)
(4.56331 0.17074 0.00477072)
(4.09608 0.00482851 -0.00728625)
(1.54559 1.5348 0.00487757)
(4.31505 -0.0411993 -0.0461445)
(4.47136 -0.0176715 0.0107456)
(4.15168 -0.0408897 -0.0658828)
(1.45752 -1.45802 -2.12302e-05)
(4.52874 1.19898 0.314651)
(4.14997 0.00574933 0.00798269)
(2.05257 1.64282 -0.0959939)
(4.12279 0.0019221 0.00596738)
(4.50176 0.0554183 -0.0421484)
(4.2977 0.0850353 0.00494904)
(4.25998 -0.0137967 -0.0177278)
(4.26128 0.0137336 0.000965569)
(4.53663 0.0650366 -0.024122)
(4.38178 -0.00704418 -0.00750722)
(4.3452 -0.0076528 0.00492928)
(1.5353 1.54029 0.00609223)
(1.54114 1.53375 0.00482076)
(4.17874 0.0110637 0.0055725)
(4.1101 0.00437179 0.00575934)
(1.54245 1.54616 -0.000279771)
(4.23512 0.00566334 0.000365088)
(4.45325 -0.0180633 0.00539987)
(4.36892 -0.0120907 0.00461108)
(1.54984 1.5346 9.00735e-05)
(4.28263 0.0847603 0.019568)
(1.54318 1.54183 0.000301358)
(4.34888 -0.00677986 0.003578)
(4.37371 -0.00836708 0.00330186)
(1.54428 1.54354 -0.000223822)
(4.1658 0.0188571 -0.014807)
(4.3638 -0.00604315 0.00135092)
(4.26551 0.0793164 0.00675221)
(4.20766 0.00142838 0.0138985)
(1.57379 1.54444 -0.00220304)
(4.37861 -0.013154 0.0146498)
(4.27858 0.0966972 0.00127315)
(4.50983 -0.104712 0.026487)
(3.79741 0.0490012 0.0149742)
(3.3891 0.0102599 -0.0473457)
(1.54723 1.53132 -0.0027927)
(1.54197 1.54069 0.00147524)
(4.20573 0.0565826 0.00753315)
(1.54553 1.54591 -0.000434316)
(3.68183 -0.0104944 -0.00976664)
(4.22483 -0.0213992 -0.0322779)
(2.58172 0.366151 -0.0897926)
(4.67872 -0.297015 0.11187)
(4.13104 -0.183602 0.0525511)
(4.59917 -0.163318 0.0434838)
(1.54555 1.54588 -0.000423038)
(2.09309 1.77771 0.0150456)
(4.37269 0.0125534 -0.00365604)
(1.45206 -1.45728 -0.00442272)
(0.797153 -0.552843 0.243861)
(4.34069 -0.0815622 -0.065769)
(1.54552 1.54147 -0.00287112)
(1.54595 1.5443 -1.97158e-05)
(3.86687 -0.0760739 -0.00417423)
(3.16598 -0.203184 0.0402345)
(1.5461 1.54601 -0.000262422)
(3.91982 -0.0713885 0.011422)
(1.54436 1.54286 0.000207391)
(1.54458 1.54675 -0.00257636)
(1.45731 -1.45749 -0.000264362)
(1.45918 -1.45559 0.00352455)
(1.43064 -1.41979 0.00520496)
(1.45724 -1.45461 2.06355e-06)
(3.90519 0.0311512 -0.0143776)
(1.54308 1.53427 -0.00127608)
(1.5445 1.54508 0.000459334)
(1.53684 1.54541 0.00287337)
(3.63733 -0.803467 -0.210663)
(4.12679 -0.0345799 -0.076061)
(3.9958 -0.000834279 -0.0399372)
(4.3729 0.012766 -0.00399343)
(1.53994 1.52985 0.000276247)
(1.54885 1.54334 -4.78594e-06)
(4.19287 -0.0711865 -0.086416)
(1.54532 1.54619 -0.00137008)
(1.5448 1.54353 0.000674029)
(2.44945 1.41323 0.0517007)
(4.467 -0.0605998 -0.00560169)
(4.35898 0.0108441 -0.00332852)
(1.54361 1.54381 -0.000446602)
(1.54549 1.54242 0.00178187)
(1.54129 1.53735 -0.00203007)
(1.54361 1.54108 -0.00032434)
(1.54754 1.54735 -0.00168557)
(1.54812 1.54404 0.000192549)
(4.37745 -0.101052 -0.063398)
(1.54627 1.54206 -0.000323226)
(3.03616 0.0440481 0.10013)
(4.39823 -0.0098664 0.0112311)
(1.54426 1.54642 -0.000322803)
(1.44871 -1.45462 -0.00394996)
(1.43867 -1.42519 0.00164637)
(3.69621 0.0425784 0.197626)
(1.43138 -1.42962 -0.00573541)
(1.4561 -1.45709 0.00143909)
(1.53759 1.5399 -0.00966868)
(3.96435 -0.060291 0.00250041)
(1.54248 1.54233 -0.000281941)
(4.34128 -0.0562993 -0.0357388)
(3.46085 0.0552574 -0.0176225)
(2.86277 0.00417396 0.112565)
(1.54273 1.54306 0.000469917)
(2.96798 -0.755553 0.0602267)
(4.37501 -0.0083944 0.000741185)
(4.40526 0.00997582 -0.011758)
(1.56421 -1.49102 -0.0183064)
(4.24371 -0.067672 -0.011969)
(4.32917 -0.00850618 -0.00666992)
(1.45809 -1.44806 0.00146264)
(1.59355 1.51223 0.00751855)
(2.06452 -1.5881 -0.130339)
(1.54078 1.53975 0.00021364)
(4.38379 0.0096049 -0.00200227)
(4.36555 -0.00582539 0.00667464)
(4.44736 -0.0530961 0.0219035)
(2.93507 -0.0016878 0.15965)
(1.54583 1.54522 -0.000169577)
(4.38616 0.00981108 -0.00302871)
(1.59071 1.51401 -0.00240964)
(1.92711 1.63244 -0.00752507)
(1.96315 -1.52507 -0.0618149)
(1.54469 1.54518 0.000592551)
(4.38721 0.0124788 -0.00361588)
(1.54228 1.53914 0.00125323)
(1.4429 -1.4188 0.000396264)
(4.00184 -0.0549688 -0.0990072)
(4.28769 -0.00976399 0.00549605)
(1.44297 -1.41968 -0.0044505)
(4.31374 0.00749067 -0.00249224)
(1.64711 1.60998 -0.0102799)
(4.38098 -0.0372286 -0.0191146)
(1.45761 1.39518 0.0159254)
(1.54599 1.54679 -0.000732355)
(1.55398 1.5487 0.00519793)
(1.45836 -1.45859 0.000437741)
(4.26033 0.00880953 -0.00742381)
(3.80921 0.00635563 -0.016469)
(4.41674 -0.00187824 0.0796405)
(1.54062 1.54095 0.000956963)
(1.54126 1.51249 0.00988178)
(4.24107 0.00943718 -0.00703471)
(1.54564 1.54598 -0.000525459)
(1.78833 1.62312 0.0223102)
(1.45753 -1.4564 0.000658507)
(4.19365 0.0265154 -0.00268821)
(4.46338 -0.112909 -0.0316229)
(4.37214 0.0114668 -0.00443316)
(1.46059 -1.45701 0.00236455)