/*--------------------------------*- C++ -*----------------------------------*\
  =========                 |
  \\      /  F ield         | OpenFOAM: The Open Source CFD Toolbox
   \\    /   O peration     | Website:  https://openfoam.org
    \\  /    A nd           | Version:  10
     \\/     M anipulation  |
\*---------------------------------------------------------------------------*/
FoamFile
{
    format      ascii;
    class       volScalarField;
    location    "1.4";
    object      p;
}
// * * * * * * * * * * * * * * * * * * * * * * * * * * * * * * * * * * * * * //

dimensions      [0 2 -2 0 0 0 0];

internalField   nonuniform List<scalar> 
111485
(
37.1671
12.562
14.5902
36.687
15.0988
36.0687
12.7933
11.1223
12.8286
18.9251
12.6701
16.312
12.9037
12.556
12.9668
13.1795
4.15504
35.2765
12.7954
36.5041
36.3766
36.4642
12.9638
13.0321
15.0484
35.5957
18.1524
7.12028
14.5557
37.4715
25.1213
2.89993
36.7905
37.6271
35.1519
38.4248
24.8746
0.705984
29.0876
13.3529
38.1256
18.9294
13.3418
21.9798
27.9098
38.521
20.7631
12.9927
18.883
35.5144
35.5337
34.674
35.521
22.4129
35.5111
8.04393
12.9659
38.4854
20.786
13.33
13.3664
37.1534
10.3091
24.5559
34.9935
9.08583
32.5213
11.8457
10.4395
11.1876
26.8255
9.38122
34.9062
10.3951
38.0325
5.37908
36.7317
18.175
36.4579
35.2311
25.5901
21.3668
37.0462
37.8502
10.2747
13.7539
30.4768
22.5111
26.0519
3.81757
27.8892
13.7818
10.329
1.50435
18.9543
37.8189
37.1952
22.4697
28.41
23.4263
36.9979
18.2667
38.1301
17.91
12.1667
35.1374
37.8115
3.37895
14.0814
27.7409
2.30421
9.31676
13.753
16.9907
35.5862
5.05817
35.7613
38.5029
10.5179
36.5228
35.5802
34.0395
37.0422
38.5024
19.7586
35.4503
34.051
3.90511
38.1684
29.0069
24.9822
22.4293
37.9753
33.9152
34.1881
12.4883
36.8233
5.36394
11.463
11.5792
19.1789
11.5927
11.5693
14.4178
20.1639
0.499986
36.806
37.7393
38.1016
12.2091
14.4629
36.405
25.1397
0.0434186
28.0297
12.1202
11.9865
12.8468
28.1088
38.4045
36.69
12.0838
14.503
28.1798
28.1446
4.69671
24.0732
38.4468
28.2374
28.2339
38.1078
37.6662
15.7207
37.3956
0.870697
0.162253
35.343
34.9314
35.6583
35.1925
34.9277
36.6543
12.2266
12.258
12.1253
0.0872745
18.1929
6.45875
24.7583
36.9468
5.65326
34.9555
37.2584
6.50879
18.8728
23.9467
8.60961
0.70523
38.0258
12.2833
14.2791
32.8105
21.2929
3.69593
38.247
6.54787
17.3585
34.9106
23.8279
20.6791
14.346
6.39926
34.8842
37.311
6.45739
32.7072
22.4666
37.3349
6.53408
5.56739
19.2369
38.5313
7.26532
23.459
33.4813
37.3787
38.1397
26.7058
28.0871
35.0113
34.327
5.6181
1.44541
9.2919
34.9936
35.0317
24.5205
38.1226
12.1767
5.58888
5.63094
5.59389
5.63132
38.1911
25.7792
4.43288
38.3063
36.9851
22.5284
9.36164
35.0144
2.78955
4.16218
37.7045
33.8514
21.0501
35.5198
34.8992
33.9963
36.0264
4.88425
5.53471
0.442581
38.5608
4.24906
36.7523
37.1218
38.1882
24.6948
18.2475
9.82555
9.96079
17.0149
9.84667
10.0472
25.7619
1.42193
1.48274
35.3602
37.6634
25.9553
3.39593
19.2087
1.77248
36.5889
9.99293
12.276
9.79552
17.3177
25.9238
9.74909
9.91469
21.255
38.5199
18.1119
37.4017
35.4173
34.8784
26.6742
17.0797
13.2187
35.8618
38.4711
7.71536
2.42661
36.3473
37.3655
35.5572
5.51303
1.50136
11.951
12.5152
13.59
34.5717
37.8711
37.9289
7.73713
31.3494
13.3055
26.1741
24.4141
37.0003
37.1206
37.1815
34.1657
8.32994
14.9453
38.4947
8.21334
34.9404
35.5476
22.9508
8.27163
16.8244
8.15223
35.0937
34.1625
38.2245
8.242
0.423881
25.37
35.5147
29.5934
25.4175
15.1625
7.32347
29.8245
13.6764
36.6773
13.6902
8.41386
25.935
22.8803
15.3151
37.739
37.9387
37.9761
36.7078
11.812
7.12785
16.9339
13.684
37.5865
15.9924
37.891
37.1869
13.6811
35.2421
33.8669
38.4753
38.5162
12.1414
38.5112
0.326607
15.7916
36.473
10.9732
8.67761
35.0766
8.51033
16.117
8.54849
23.9105
0.692527
1.56905
35.1408
37.7221
21.8799
38.355
16.6536
23.2659
35.203
38.3076
8.10104
16.477
1.40272
15.8378
36.7603
25.0936
16.3026
35.9265
21.9767
16.5557
37.3245
36.5987
0.332546
15.0825
38.3607
35.7831
33.0889
36.983
15.4142
37.3461
36.8965
16.3882
25.0847
20.1785
15.0576
36.1186
34.1617
21.9743
34.2969
21.9756
22.0592
18.7067
32.6298
34.3664
2.42963
27.9674
37.4476
22.9316
15.8775
38.5532
28.5887
19.1565
34.3063
16.8283
16.3197
0.775972
36.2521
0.805998
17.2404
0.739542
27.1862
34.0662
27.8257
38.0163
25.1107
0.638387
38.0618
16.8335
20.9381
33.9002
38.5278
34.5722
36.3716
15.1324
0.740085
16.6274
16.7356
23.7425
37.3977
17.091
37.1809
15.0905
35.791
37.1806
37.6353
16.7774
37.785
37.3045
35.1534
37.2041
38.2113
21.0382
38.521
34.6058
37.9223
37.3567
36.0373
37.9646
36.5668
16.9025
37.9523
21.2426
17.3599
28.0655
35.7721
21.2094
37.9422
37.1391
16.759
16.6404
16.8799
26.2053
34.6626
19.3687
19.4064
1.03886
1.89569
17.3
37.6206
1.08816
33.8879
19.5899
37.5013
19.5858
34.0856
2.1427
16.5759
34.9245
37.9679
1.93354
36.249
19.3628
19.5255
38.2661
37.9116
35.1239
38.012
27.7948
19.3129
35.4055
38.4224
15.1526
36.4716
19.4302
36.6685
20.4283
37.1745
18.9641
19.3559
8.3898
2.06608
35.5795
0.454853
35.7022
37.5275
17.8116
37.5262
19.0682
35.1453
19.629
37.5232
17.8078
36.3372
34.3532
28.1007
17.97
19.3583
17.9103
19.4412
16.5029
38.0798
19.4244
17.9252
37.2454
26.4698
24.4333
19.407
35.3411
34.7036
14.9602
19.9335
31.5925
34.5152
17.9116
14.988
18.1863
18.2499
2.03565
30.7159
34.2652
27.8363
31.1822
36.7633
19.2559
38.3698
34.4119
3.79587
30.6807
28.0081
29.8615
34.2838
18.3697
15.0382
35.705
34.4838
14.9744
35.8812
36.4217
36.5676
35.6737
18.3805
37.8829
38.2327
18.5158
5.74438
33.3747
14.9922
34.595
5.65575
35.5082
38.1391
18.4912
37.4845
35.824
34.3857
0.486799
32.4988
18.9924
3.84293
35.7917
28.0389
19.0765
15.575
23.9342
28.7446
15.2389
37.5658
18.9217
15.5216
38.2445
8.82252
21.3302
15.9214
0.505295
15.998
15.9433
37.9807
19.3824
23.8404
34.3158
15.9806
19.4637
32.6352
3.81935
15.9425
19.5346
16.8414
16.9474
3.84429
35.2766
16.9662
19.1396
34.9627
18.1138
18.1489
4.10219
37.5537
0.427843
38.3334
36.8857
37.7167
35.6796
15.508
34.4319
27.7917
37.2606
36.0486
18.1477
18.2283
36.2308
19.4779
37.1524
38.1917
35.554
19.92
19.3127
34.3927
38.5275
37.4676
37.622
24.493
4.11729
34.2348
17.7618
27.9305
38.2672
17.755
20.6888
2.08885
36.3085
37.3471
9.17215
4.03489
34.3363
38.0633
35.2737
6.76579
37.6911
35.8091
37.2766
17.5915
13.8957
36.498
34.9815
34.8213
2.10607
38.3981
35.9565
20.0553
24.5928
34.2981
33.2326
29.5382
20.4406
0.106682
35.0495
14.9125
21.0028
38.529
35.4795
36.8651
37.3992
37.9375
36.5916
17.6267
37.1358
36.8461
35.4141
17.6754
4.00564
35.5245
35.4802
20.5134
4.04625
4.15422
35.9401
36.9005
4.08495
37.7735
17.8191
4.04887
4.2062
35.5616
36.9772
36.9745
37.7009
15.0915
36.9926
36.6778
22.3926
36.9302
7.12154
20.8904
35.2139
3.88868
34.6162
7.11257
18.5017
19.1687
20.3003
27.9419
34.5254
7.06184
20.5608
0.0978613
35.0331
27.4966
34.0206
1.17451
37.7602
21.1703
20.6982
21.148
34.9464
37.0438
38.5532
4.05213
34.6459
2.75934
34.8967
13.5629
1.09475
2.88857
4.07788
36.6069
35.6038
34.9015
4.1425
35.8206
34.5832
27.5491
38.405
38.3847
36.9503
36.8903
2.95847
35.0974
37.3284
27.6609
34.5974
38.4477
34.1088
37.2225
21.1389
2.85086
36.4257
15.2217
29.7483
21.1945
28.2088
3.56685
38.0019
18.6643
24.1662
21.2564
37.9012
27.5595
2.96726
33.9008
2.76841
26.2459
27.1416
11.0682
1.96242
26.6281
0.517097
2.5598
37.7172
35.5992
1.94202
1.93573
38.2273
1.97051
16.6331
2.51797
35.4461
26.9197
37.7708
2.67745
2.56099
36.206
1.30965
2.49219
27.0196
0.751082
35.3506
11.9307
27.0718
28.615
26.8702
22.9717
37.6026
37.7683
22.437
36.8515
17.074
23.2382
33.774
28.3488
28.0966
28.4052
36.889
33.8533
6.09202
38.1612
35.7748
22.8766
35.7251
36.0657
28.1458
27.809
36.8707
27.164
37.3828
37.4697
38.2283
37.193
35.4278
37.7388
23.1406
35.5829
38.1065
38.2624
28.0046
22.8356
14.1238
6.03747
36.2978
35.8364
23.9224
37.1747
36.0582
33.3169
23.4135
7.90241
36.3539
36.0069
35.7293
35.9582
38.0082
35.8633
23.7814
35.8221
27.1402
13.6178
37.61
37.0623
35.4571
27.1228
35.4802
36.7047
37.6563
27.3847
37.8418
23.7291
24.7731
26.8578
36.529
32.6651
23.8141
13.1204
34.9804
27.2435
19.7084
35.8355
35.1571
33.9831
35.9928
6.084
11.8202
24.3939
27.6218
36.244
6.05327
35.0827
34.2482
33.9723
38.1419
10.7023
37.2696
35.432
25.2624
7.90251
35.4376
19.1913
34.8455
24.4288
35.2149
37.5038
37.9486
36.8783
2.7989
11.6966
28.8315
36.3182
35.3501
2.85927
36.8743
34.4898
37.2172
17.5682
27.7992
15.0816
35.8325
25.5605
25.3797
35.2583
25.4404
35.6788
22.1046
19.8377
11.474
25.4098
25.3956
37.0277
37.4138
37.4283
25.4251
38.5651
25.8073
38.3375
29.185
35.7434
13.2049
13.6194
35.4626
36.7262
35.4086
38.3637
25.8155
35.4015
33.9879
2.85609
25.799
35.0724
34.4614
34.7225
34.4867
35.6959
37.0757
25.8955
19.8907
36.67
35.5261
28.0034
37.2138
25.8709
2.8647
35.2661
22.468
36.9302
1.72294
35.5262
14.6189
36.1637
27.988
27.4472
26.5428
22.5623
22.5536
32.3867
35.1537
22.7151
35.5071
10.6757
36.0701
37.9014
34.5827
37.8923
38.0338
38.1999
22.5776
22.5897
36.9433
33.7733
35.839
22.9263
27.0071
37.3518
10.7284
26.9105
35.4783
3.73437
2.61365
10.2185
26.6664
36.8561
37.2381
37.6472
36.6241
10.7718
37.9212
23.0102
37.0948
23.1374
14.6886
37.828
23.0528
38.2116
36.8011
23.2695
24.5685
30.4863
37.1007
35.3847
35.938
11.122
34.8268
38.3325
35.1863
29.6803
34.1399
27.9675
34.4684
35.1385
35.142
3.19778
2.82215
16.5021
12.2616
38.3213
23.2432
37.5219
38.2351
2.74805
35.5667
28.0827
23.1582
1.9694
23.4224
27.8377
16.348
38.0585
27.624
27.1136
19.947
23.8268
8.19266
32.9931
37.1385
15.7672
35.9113
36.0242
28.178
18.8918
28.0454
37.5204
37.4465
25.2312
35.4687
35.5986
23.6057
35.421
35.4734
9.58295
23.6763
24.2599
9.55052
4.85345
35.7882
36.9906
28.1663
9.47727
36.5658
35.4426
16.8194
35.6742
33.7541
34.191
34.2473
32.2861
33.5956
36.5616
15.9924
35.927
24.1276
36.1611
31.6317
35.4242
35.4967
38.0931
36.8361
14.8162
36.8719
36.8383
34.3591
36.0353
38.0333
37.481
9.01159
36.9102
8.17135
24.2952
35.487
16.1926
36.4018
20.4314
27.1226
2.11998
2.17436
35.5776
2.36192
14.863
26.4834
38.1726
24.8129
7.10656
1.06394
34.8388
1.35407
35.3586
38.0437
36.0675
36.5138
1.3548
37.3828
36.1088
1.06521
24.796
1.02859
38.2517
33.0705
16.2016
37.7598
28.2594
35.4643
2.30049
35.4957
35.6497
16.0999
36.1537
24.722
37.2296
36.1584
7.03243
20.9073
5.15043
11.4794
27.3737
9.10962
36.1923
35.1992
13.7936
5.3538
8.91249
24.7273
36.8632
8.23633
36.7455
35.9324
14.0402
24.9326
35.7099
5.47136
38.0628
5.20034
4.78534
34.9674
36.5409
37.6982
13.761
37.3551
37.3569
13.8866
5.17796
23.8079
1.26163
36.1954
37.9441
17.1869
13.942
36.2212
13.8724
35.3514
13.802
36.4123
36.2879
13.7947
36.9076
19.8611
12.6657
35.7658
36.555
12.6918
33.7296
15.3549
37.1304
24.0494
37.2107
33.794
33.6723
12.7778
34.3755
34.2279
11.7945
34.2655
31.9242
33.8483
35.3466
35.8869
26.5544
15.3699
37.3322
37.538
15.2245
15.2927
35.7466
13.9285
36.6214
35.8633
17.7457
16.9089
0.16243
36.3861
37.5474
37.3897
36.8476
35.7156
35.7396
37.589
35.8671
35.939
36.5597
37.4256
35.9015
37.0727
36.3106
35.9596
35.1074
36.2962
36.5466
36.9591
37.2273
38.1209
15.5865
37.2393
36.3228
38.207
10.6024
38.5401
35.8505
30.9726
35.3024
35.1688
10.6748
35.1242
35.0544
31.3621
10.7394
37.0814
33.7251
34.0921
36.0473
21.9472
10.8029
10.8528
10.4395
6.36848
35.7996
36.1102
7.97398
8.38553
10.4127
36.7355
9.4834
21.1805
10.2808
1.64262
1.87354
10.5016
3.26749
10.2706
38.2067
11.6781
9.46164
14.6261
9.51136
37.7341
37.478
38.0018
36.9463
37.7027
8.31215
9.6316
37.6759
35.9648
35.8355
35.0753
36.1205
36.0621
35.4046
35.9076
9.49416
27.1157
9.59214
16.0062
35.5422
34.9298
21.675
27.729
36.5104
36.8512
15.3502
38.3499
37.2824
9.36851
9.56373
9.53961
15.1504
21.5099
35.932
0.100622
11.4142
34.0043
35.9292
11.2945
35.8393
35.5732
30.5572
29.6374
16.1692
35.1099
38.3181
24.5543
11.5963
0.138064
8.36214
31.3378
36.9864
22.8567
34.9842
38.335
35.0577
15.1597
36.0902
8.2942
0.356014
11.1421
11.5253
37.6328
7.29289
37.8806
34.9982
37.7092
35.7296
2.66138
32.0619
36.8854
36.614
34.9567
8.33879
33.8059
7.46755
8.32874
2.58264
8.34411
35.0595
35.2189
34.0854
15.0006
6.25095
27.9976
35.4905
37.145
33.9475
21.8556
16.1331
36.8703
6.22345
30.6482
11.5973
6.21685
36.7988
33.7887
6.26065
8.3021
37.4975
18.8584
18.3152
16.1714
7.40138
6.5404
6.73531
33.9681
2.42749
6.75053
5.70504
34.8583
11.1119
34.0483
14.7095
7.06267
38.55
1.70758
6.74943
7.36577
8.77938
35.3831
30.3909
24.1975
31.9171
6.7912
34.6484
2.06014
6.719
35.5965
36.9845
28.6237
26.6046
9.7209
35.2517
16.4669
27.4581
27.9156
25.0785
35.4122
38.3235
8.2645
35.2466
7.4447
26.9756
6.73294
1.99242
36.4604
20.0781
8.20606
35.871
33.9121
5.18409
37.6496
5.21435
4.87452
37.1965
35.3435
11.6478
36.1551
36.3366
38.5582
1.97131
28.3884
15.0796
38.3179
14.6613
3.56745
35.1114
3.54126
3.72428
2.22517
26.8147
36.6162
7.36638
1.39657
3.63276
3.68116
2.32209
26.3173
13.4081
37.1211
0.366379
2.53217
36.8058
3.678
38.2474
37.2998
37.9931
38.4386
36.5689
21.7833
37.9561
3.55053
17.7074
38.2612
16.9792
35.1919
2.5132
35.8362
26.1424
34.9207
14.1445
22.6435
27.4073
3.83981
2.51777
14.6219
2.23278
3.90689
31.0153
3.84097
9.3566
3.93508
38.2674
8.29944
26.6925
3.98612
13.0738
26.9686
38.1619
34.1469
35.6245
14.8127
36.5321
33.2979
2.49907
34.9498
18.1882
35.8598
38.131
36.8658
9.17992
15.4632
4.29267
23.2208
2.05632
7.86471
7.41306
9.42204
2.94532
7.39271
7.72874
35.1417
37.89
38.5501
11.6684
8.1206
35.3353
36.8584
33.5012
7.4459
3.01903
36.3653
7.72635
37.3354
28.0515
14.8621
24.1105
36.7741
37.186
9.2522
36.929
19.7985
3.94043
34.7864
10.3873
13.092
1.60582
35.6825
24.9811
34.2942
18.9569
15.0697
36.8344
38.0753
3.79407
33.1428
37.7651
4.91886
1.83038
37.0938
35.7067
34.1824
7.5047
33.3566
11.7787
21.9137
18.6014
37.1642
33.9903
21.4418
37.2096
37.4377
37.5725
36.5153
34.2419
34.9281
34.7597
35.8428
35.0572
34.819
35.0385
34.8326
19.7949
34.8082
33.7406
33.5942
35.394
33.9762
37.1849
21.855
34.1969
34.8712
22.4075
34.89
35.1933
35.0803
21.9274
35.0809
21.843
24.172
18.606
34.5837
36.3488
21.7835
28.0682
35.3725
38.2751
11.642
34.4647
11.5782
34.385
37.5679
34.6279
11.5597
11.4702
37.4478
16.8629
35.1587
34.1885
26.1221
5.9581
21.8005
38.3237
11.5986
34.081
18.2245
36.5934
35.7315
36.3078
33.8899
5.94964
7.25306
37.8208
27.9318
35.8123
35.8225
35.799
36.5649
20.5077
20.5571
7.40663
28.2603
38.5346
14.9275
11.8323
5.44667
20.5217
38.2958
5.83797
20.4173
10.5096
28.1063
10.984
35.5596
14.0715
20.8305
11.7198
20.9258
21.9657
35.589
22.1727
35.243
37.2318
9.61234
37.8295
14.8096
37.5506
35.4678
34.9897
35.7015
38.0484
20.8799
35.6103
17.3107
34.557
37.6675
14.4482
20.0022
7.77979
16.7373
37.9721
29.0972
37.8445
18.2991
35.4625
14.4443
20.4429
20.753
18.4526
35.3847
35.3839
35.307
6.28481
37.6787
35.8894
6.28808
35.4567
36.1201
20.6871
35.3777
11.2903
27.9918
34.5677
34.5864
34.4978
7.40938
12.4668
36.5244
0.23675
17.9113
34.4461
21.0884
37.6489
6.44763
14.6553
5.53078
36.3848
15.4582
8.06156
21.8358
20.2483
17.1337
36.8506
37.0335
26.6575
36.014
36.6036
37.3881
6.50711
21.1869
8.47033
13.4317
34.2416
15.4233
11.7586
12.617
15.1937
15.4288
19.3968
16.966
36.8476
36.7991
36.8119
17.0239
37.697
18.0067
32.9555
17.0301
28.0803
6.53063
3.17723
36.158
37.4451
17.0783
16.9663
37.2306
37.0282
38.4162
7.03864
16.9597
17.5474
17.7179
1.69747
11.7238
36.0078
37.9272
37.1244
1.37058
11.304
0.183315
12.811
7.31621
17.7832
35.0985
37.1177
33.7217
35.448
1.78014
15.1384
36.9825
35.5759
35.1252
38.2508
38.4514
34.8549
18.434
36.2902
22.5901
28.1903
35.9022
18.0655
0.530935
6.87213
37.6637
34.9908
18.3468
36.9021
18.418
28.0353
7.46122
34.7946
33.2492
36.6679
36.2743
36.0524
34.7672
30.3637
35.6239
18.4834
8.45008
37.1355
37.079
18.8419
35.9693
37.3289
10.2536
27.5152
35.8254
35.8011
35.0165
3.81146
36.9494
37.0034
29.5897
18.921
18.8548
36.4407
35.8749
34.3169
18.9169
18.7293
18.8672
13.3365
36.4117
3.15828
0.642719
0.790237
38.2332
38.0412
37.1416
38.1924
36.9532
10.2381
10.4989
8.42983
38.3021
37.6043
36.9136
37.446
35.0046
23.0255
1.21742
0.302922
35.6743
36.8159
38.3197
27.9271
21.5019
24.7778
37.4472
27.5234
34.994
35.5449
37.0153
10.2054
11.3422
35.8895
35.4016
13.9416
37.0279
7.49922
9.30242
30.7543
35.8532
35.4697
7.52628
23.1689
34.9737
30.6545
1.05057
15.0015
36.3135
35.9543
38.2386
37.1103
2.02942
5.18843
35.9648
23.2417
19.9182
28.5991
36.5348
36.0175
35.9177
35.9666
15.4112
35.0055
36.5731
35.243
3.41943
17.4638
4.23278
35.2089
38.0872
19.9424
34.8222
37.0555
36.0532
36.3034
10.892
34.9697
36.1308
36.1543
4.21414
11.3544
35.9997
37.7668
35.667
13.2004
34.841
35.5216
35.694
37.8617
37.641
27.9208
15.2923
38.5596
12.0808
15.2035
10.5905
38.3562
38.1736
36.7905
38.2232
36.0874
14.4226
36.5275
34.1498
34.6506
19.9865
34.5751
19.8653
36.9717
37.6702
23.9459
28.7062
34.494
20.0591
36.4942
19.975
35.1474
35.6463
35.9509
35.5732
35.8223
22.816
35.8668
12.7541
37.8511
34.2919
37.6571
36.0127
3.98997
18.3252
36.7691
30.8176
38.4874
20.4669
22.8264
18.2951
38.5465
27.7417
18.2664
23.0314
15.4903
28.0053
18.5097
34.955
36.2465
28.1207
6.37563
18.3463
35.5099
34.8191
33.8512
31.1809
38.3988
35.7395
37.8047
38.2225
38.5091
34.8835
18.1028
24.276
8.47849
33.9964
25.6704
37.8063
14.6358
37.1532
38.4496
37.2102
34.8519
24.3075
35.024
38.5132
36.4977
12.5234
36.6205
37.44
23.8332
35.1025
32.9828
32.3884
32.1629
38.2455
32.3183
32.1672
32.292
32.7832
36.3271
36.3264
12.4246
19.1008
34.3335
33.9979
36.5122
12.618
35.1714
35.1795
24.0788
36.0898
36.877
20.3889
24.2847
38.451
35.9102
25.8401
34.1878
35.4715
28.0631
13.5779
13.1945
35.1334
13.3907
38.0237
8.29154
27.7755
13.3193
36.6077
27.786
13.3754
35.0381
27.7869
35.6218
12.5588
34.6232
12.4232
35.2473
22.7934
35.7172
35.2458
37.8369
27.6103
27.6862
38.0442
13.6709
22.8018
38.5615
36.5711
10.3121
0.513556
27.6888
38.3085
14.0668
13.8557
23.966
27.861
38.4915
27.7163
36.1754
26.7511
37.1542
27.5955
27.4133
35.6395
8.64278
35.357
23.6918
36.79
35.6485
35.853
37.1839
35.9848
37.1011
19.0514
10.4052
26.6132
35.7823
33.5491
26.5253
35.8912
38.5245
35.4872
38.3244
35.6762
0.418107
36.604
37.9496
36.2201
0.375628
35.7466
36.9415
34.7349
1.96868
37.1994
2.0067
27.7184
18.6325
1.97742
2.10258
35.2208
35.8864
36.7069
2.00859
4.31544
35.1958
33.5995
2.14967
37.3873
38.0364
26.4817
35.6186
13.839
35.8207
2.15661
23.668
35.858
36.293
35.8382
37.8254
37.3698
23.7334
35.8842
2.2111
35.4408
36.3682
4.89702
37.8967
14.6866
35.0337
37.4301
19.2654
8.65086
26.7516
37.8135
37.8676
36.7583
8.61689
25.753
35.3773
36.9373
34.8903
5.35943
35.8524
14.8101
26.6716
36.328
36.0515
5.44691
37.1118
34.7733
37.1984
35.0609
37.5236
26.684
33.4508
35.5056
37.6591
33.6073
36.0857
33.7724
35.4927
35.7473
35.0865
8.67942
35.1053
5.29869
34.9015
35.9655
28.1627
5.35952
35.8514
35.0941
35.9921
5.19789
34.1966
36.5518
35.1336
35.96
5.85613
35.8418
27.0654
38.4264
17.9116
34.3213
21.5762
35.4756
37.3281
17.0151
33.9885
35.8162
4.28989
17.5348
38.2104
37.8066
19.1972
22.0336
5.27011
5.30964
5.36812
19.2415
5.2367
22.4122
35.3121
27.1191
33.6738
33.608
36.4488
35.3044
37.2704
5.18391
38.2964
38.4993
38.1983
25.3644
22.3164
33.4188
20.2549
37.9504
20.701
35.3678
24.2021
5.66815
33.7115
17.5563
35.4134
35.5586
36.7955
5.81729
18.0267
36.7367
37.3805
5.87825
37.804
27.4392
37.1752
25.9058
37.0399
36.785
38.1326
36.7518
4.65463
36.744
28.7526
37.8482
18.4939
36.4542
36.1115
32.2407
32.0242
36.012
36.1862
37.1357
37.9985
17.5232
27.3291
32.8945
37.7089
17.9769
36.4769
37.6811
28.1013
13.5379
25.1703
36.8302
3.20637
19.135
9.21382
14.3985
37.1982
38.5044
38.507
37.8888
36.8866
36.759
36.7557
35.4766
36.8326
36.7567
36.9437
36.6956
25.9131
36.7951
35.9832
35.409
37.8916
36.479
30.874
36.4164
36.1953
14.4333
26.7736
35.5288
38.4307
36.8931
12.5662
38.3898
37.1114
26.6567
37.3
35.8746
37.3699
37.6611
24.1526
37.117
27.6933
37.6779
37.3843
36.2446
36.5032
36.0863
26.7298
26.87
6.93662
37.9361
35.1936
38.0644
26.886
35.8455
26.838
26.8819
37.2414
34.9769
33.4339
27.7162
35.5951
34.3776
27.6847
33.5549
19.7006
37.7618
22.792
33.5207
32.9294
36.9627
17.3094
37.3591
17.4547
24.1121
35.6542
17.5221
27.2607
37.0664
24.2959
36.0819
35.7166
35.9379
35.6528
35.123
36.6344
35.8336
38.2757
26.9052
34.4601
36.6296
37.345
35.7091
35.5408
12.6904
31.7542
27.2057
28.3667
35.8868
16.4658
16.5209
36.7701
34.4131
35.0957
35.3675
35.4098
35.3295
33.854
34.3946
20.7387
36.3314
38.3266
33.2408
33.6646
36.9402
17.2614
35.1617
35.7136
37.8424
25.5093
38.215
36.4467
19.468
37.1566
38.4242
34.9937
38.4851
19.6129
36.4117
36.2875
36.1219
35.0427
20.8849
25.5012
25.4574
17.2964
22.0365
22.1277
37.3879
34.0026
27.8504
21.5096
34.0001
27.8472
37.6997
27.9116
35.6292
25.5703
36.6464
35.8384
22.1449
27.5731
35.6621
21.4615
36.5774
37.2016
25.5808
24.2518
37.9254
36.6232
35.474
36.8534
36.0621
34.0043
37.9567
37.1812
21.3788
37.9891
37.0051
36.4968
22.1846
35.8806
34.0374
37.0469
36.7081
34.7371
34.1907
22.1808
35.7155
34.277
12.9313
37.8469
21.4802
21.2173
36.0483
13.3751
37.0652
34.9669
37.5312
34.2833
37.8983
38.3718
38.5577
38.4035
13.1742
38.0717
37.4707
38.072
35.0575
36.583
35.0465
25.933
36.9746
37.7387
24.2294
36.7519
36.9322
38.527
13.0167
36.3137
25.4351
34.1006
28.1397
1.54086
36.8386
34.0023
12.7704
33.7863
36.7976
27.3505
27.6914
0.0950344
23.338
28.3677
27.9342
38.081
35.5753
16.0724
26.1366
25.3223
15.6201
28.1336
37.7836
2.86488
16.0884
16.0424
38.5488
16.0051
2.42153
9.15784
15.2071
26.0842
16.6708
3.39993
14.9097
0.546846
6.7808
15.263
34.0426
0.421879
0.121707
17.36
20.2399
0.822712
15.2066
0.571334
34.1274
26.5519
34.0781
8.13558
16.1383
20.6045
12.0866
34.1011
36.8931
14.905
12.1925
26.248
25.4246
4.1382
16.166
32.3218
16.2125
36.9717
28.6047
26.3294
23.2203
9.24716
26.4948
27.0118
18.6253
11.4604
11.5736
8.3278
16.2764
0.464591
33.3428
32.8887
16.3221
35.9912
36.9392
15.4363
15.6038
1.26232
36.1553
23.5876
24.2957
11.1332
32.879
36.9657
26.5459
0.344677
26.3724
38.5093
4.02511
37.364
12.007
18.4123
22.5407
22.7274
36.0991
37.055
24.6012
15.6735
15.6308
37.0837
12.6062
15.7351
20.3085
37.2761
11.333
0.918853
33.997
9.23395
27.9301
25.1537
35.4945
23.9677
28.1561
37.0442
19.4584
1.72802
30.0065
19.818
19.7979
3.54598
17.2279
20.092
1.24529
26.5172
25.4603
18.8275
3.1666
16.7448
27.1279
12.1124
19.9168
6.82114
15.2648
27.1493
3.61539
37.1973
19.8093
19.7598
25.7991
4.83592
23.0861
35.5405
19.7337
9.19265
37.2682
23.5641
0.398726
19.8632
19.1369
2.31758
0.438549
17.0177
19.1584
23.7625
37.2467
36.9074
23.8839
38.2035
23.9407
23.2344
35.0085
2.36609
20.3425
12.6482
38.0699
9.19299
10.5031
23.5319
26.3884
10.3292
4.44878
12.7899
21.4852
36.9468
35.6986
25.7862
21.4398
23.4739
13.3815
35.6973
21.6159
18.4198
34.9697
12.6803
16.2897
1.16169
27.9076
22.1922
18.564
3.79323
14.158
38.1945
19.8499
10.137
18.8804
27.7622
35.7169
22.3777
35.2905
36.7075
10.6517
18.4062
11.5634
28.5225
24.4136
30.1523
37.0008
18.429
18.4828
11.8071
11.7863
35.8475
38.552
38.4924
11.879
11.8339
27.7512
9.07525
34.8723
35.7771
11.8374
13.1591
22.8724
11.7684
11.7532
14.1431
22.0802
32.1057
36.3257
18.0927
1.28787
35.7564
17.0508
14.0517
28.1819
17.9918
14.0894
23.7506
35.7646
12.1475
14.6062
38.1235
34.9195
0.779926
1.2483
4.95239
2.0392
14.117
14.2355
3.45332
9.08455
13.0278
2.01849
35.6795
35.6011
0.0830844
2.26701
14.0765
27.2587
13.659
13.4602
18.7278
11.4711
13.5825
36.5894
38.1141
27.1338
35.6249
34.0646
14.7569
9.34356
14.4636
26.5414
34.4107
22.4439
27.3392
34.61
27.4106
27.5152
13.5597
13.6641
0.903873
15.7947
26.2399
2.29779
36.8042
34.5707
25.0208
4.41206
11.8162
4.55555
23.554
21.2839
25.8617
34.6157
14.4244
3.06848
12.5367
27.3761
22.3792
25.2935
27.5494
14.5022
3.29302
34.4897
20.5606
13.9118
30.8255
34.144
33.6866
12.5327
34.0064
0.697705
12.4805
11.699
15.7929
24.5737
32.4722
31.0058
35.0254
33.7015
23.8099
36.7918
36.7958
27.9143
36.8643
9.12626
12.1635
11.1966
8.54737
9.05498
16.1875
33.4914
4.36043
1.90629
21.0769
15.3148
8.51471
14.3966
36.9343
27.5389
8.35107
19.0563
36.811
19.3558
15.0586
36.7787
35.9167
23.4037
8.24181
37.5038
17.0031
15.3137
23.4292
37.6955
36.7461
1.33443
27.2944
15.9853
36.8553
37.9618
36.7779
18.4091
30.6563
30.6134
5.74339
27.61
38.3859
5.72641
27.5577
12.9488
1.47856
1.40522
6.20448
28.3109
1.59681
38.5546
6.53343
3.36056
0.504321
10.4031
2.41813
2.35133
2.48935
2.64747
0.604088
24.2809
28.2092
14.2324
23.78
26.3604
28.0147
2.58569
28.1473
2.60303
0.604835
7.54232
4.58908
23.4278
4.54854
28.3288
5.35408
34.7343
14.5631
31.5733
10.7645
16.209
38.1294
19.9084
34.7612
16.9529
34.8125
35.1095
11.1745
20.427
34.0968
4.41785
11.7917
20.3585
35.7883
37.8444
23.7046
6.47399
27.1542
10.6802
3.55162
19.8909
25.5161
18.9147
20.0243
33.6302
14.428
37.0062
35.2573
8.04408
5.79627
26.7639
7.71054
5.11905
19.9709
20.7199
35.2163
25.8035
5.00566
19.7314
35.1576
38.173
14.4832
16.9733
33.4035
23.2157
0.441808
17.4654
1.30344
4.15491
10.7878
35.9295
32.1353
8.58556
25.0509
38.5707
8.06816
23.2569
18.3278
28.5113
8.58045
28.437
14.4854
24.1173
32.5678
24.666
36.3932
16.7597
20.2576
3.95775
0.213635
33.9493
0.305209
25.1694
19.1835
24.4776
34.2662
36.7593
9.03063
24.8254
19.231
16.5863
23.0332
6.52384
1.2366
12.4739
1.38771
0.956686
23.342
34.2912
26.9401
18.9685
0.0935885
22.7409
34.4056
36.2025
26.7399
26.5866
35.1636
26.6569
21.1003
34.515
32.6946
32.7917
20.6812
8.40769
28.563
33.0444
23.1174
9.56294
34.6985
2.12342
33.8333
18.3002
6.55401
37.6714
1.88862
22.8347
22.8367
5.81685
36.4884
27.5591
21.9004
24.4226
22.7883
23.7377
24.3232
20.7803
27.7623
21.4347
3.38611
8.53773
35.6929
33.836
33.5884
34.9219
19.6155
9.92278
8.69094
22.9011
4.99288
8.77696
17.4308
20.3978
19.5121
6.33386
20.9724
22.9265
18.4028
4.66125
36.5365
22.7142
22.6949
19.9177
21.1292
34.7604
11.7367
12.0051
16.4277
16.4725
13.1896
35.5116
13.0402
13.1274
33.9952
13.2727
18.821
34.9437
13.2704
34.8552
38.5418
11.7389
20.471
18.9022
13.121
36.1112
2.0461
21.1536
38.5149
10.6297
13.5581
11.1174
19.3335
34.8692
20.5244
20.4457
17.8578
35.0417
9.31464
3.53822
18.2368
8.00188
10.0824
37.989
35.0511
34.3921
0.663056
34.5795
9.08082
7.55272
2.46317
35.2137
2.76725
34.9014
36.5392
35.0101
11.1674
0.28218
27.4513
18.218
9.75809
34.2888
33.8442
23.112
22.7475
7.45578
26.2653
9.82761
27.633
36.4711
32.9963
33.0704
36.5547
33.1199
0.4005
36.9061
9.07728
17.2945
9.81187
1.88195
11.7081
33.7823
7.70568
17.3056
20.2191
23.9648
33.8483
36.3272
20.945
7.6722
28.1609
28.0227
25.9873
26.963
27.7997
27.5856
5.76625
1.29563
5.80016
27.8713
5.67888
17.3893
18.7266
3.83218
5.6844
25.928
28.129
27.963
27.8047
27.6513
3.96109
24.2015
38.4248
27.7695
27.3971
2.13905
1.27644
0.468975
17.4116
13.0651
27.2934
1.38385
26.627
35.8221
9.13432
12.5036
14.2054
35.8264
10.5831
5.85361
1.46913
12.8026
38.3348
35.5739
18.9972
3.62097
3.4561
0.704215
34.9621
37.2645
37.4452
14.1544
16.9563
3.25012
37.204
9.36252
35.5223
35.4322
1.40818
0.994589
35.8002
3.28524
3.37481
0.66814
38.4865
37.7706
6.03984
17.4159
35.5166
2.97806
2.67737
2.6831
35.4019
35.3801
35.4314
2.69709
2.9848
23.0162
2.66668
38.3241
2.48404
16.3968
23.2226
21.1977
34.867
36.2888
2.39157
24.5471
23.9
11.9644
34.9393
27.4774
36.9604
4.03435
26.1504
16.5722
35.0094
34.2029
24.8436
25.6738
34.0643
34.1327
37.0617
10.7611
34.6149
33.8885
17.1831
16.8093
37.0362
33.9228
14.6009
2.56077
2.62357
11.1697
9.37817
34.0172
17.3932
33.5541
33.4589
34.6568
11.8032
19.3461
2.66511
33.5483
35.0129
16.7665
25.9576
17.781
19.5366
15.372
13.3495
15.2053
2.60287
33.4638
16.4786
12.1902
2.62448
10.9756
19.4205
32.1485
10.8721
10.8863
10.846
10.8622
3.69566
33.3041
34.5916
12.6433
34.5674
34.6646
15.2496
34.6362
9.05677
34.483
34.5755
35.0451
34.131
12.0699
3.93802
12.135
34.3175
5.76663
11.5065
16.354
34.4745
37.1943
12.0823
12.858
26.8839
12.1027
34.2784
0.12814
2.58723
2.05987
36.1526
35.0184
7.14228
6.02785
35.0828
34.5706
22.5361
0.180082
34.3685
24.836
22.4936
22.5426
13.3765
34.526
15.225
29.3872
1.32591
0.319621
22.5663
22.3246
20.6252
8.49558
15.5326
34.1776
17.4213
15.5427
26.8102
24.3337
22.5347
34.3502
10.6451
15.8708
8.90135
13.5288
15.6795
26.1695
1.10545
23.8523
20.8882
22.5794
6.30505
22.6836
23.8224
15.4593
18.9978
35.0211
27.7621
38.5072
15.3287
15.9892
22.7406
23.8919
21.8321
15.5633
15.5842
25.2416
12.0609
4.01229
35.9226
33.3386
23.8874
23.9069
18.4967
23.8526
26.626
24.8604
26.595
26.5166
33.5394
3.91252
26.5854
28.0606
33.5616
0.407961
33.2353
11.8513
15.5821
27.8805
10.5631
38.4717
15.0433
26.4745
1.67501
36.8549
26.5426
3.40501
20.4341
26.439
26.4687
33.43
36.712
10.9396
16.4266
8.66434
16.4099
14.7682
16.6896
26.9047
33.9764
0.443376
33.8002
16.5448
3.91248
17.6684
37.6089
32.9904
24.8454
16.5997
11.9599
17.9087
36.7942
17.7165
17.9196
0.508895
17.8757
30.971
29.9566
17.7153
36.4211
36.2417
10.5828
30.8057
24.5828
37.8262
7.93032
34.6103
27.6671
38.008
4.92327
23.572
27.666
17.7904
18.7455
16.0655
22.613
27.2195
1.43829
27.7313
9.87802
27.5179
34.9506
5.68313
36.0474
18.7736
19.0223
14.9234
13.1949
18.6432
0.456056
11.6779
18.5949
18.1346
28.3725
22.0672
24.8365
34.7031
18.5655
4.13124
27.8548
3.82672
18.6759
27.8846
5.74135
26.2623
16.6205
27.9615
16.7282
10.0538
18.849
15.16
36.2427
36.1428
16.0053
16.3248
20.6227
37.1083
27.7571
1.16536
15.5339
11.7426
7.38186
12.3552
10.5169
16.2744
0.0500826
9.25111
21.8988
7.77297
14.1266
12.6313
11.5854
21.8684
18.6296
7.69169
28.3763
17.4417
28.2962
6.77226
19.7988
28.1309
8.71385
0.138933
12.4004
16.3009
6.93893
5.73338
35.6338
19.4183
28.2038
28.1462
30.6956
19.4537
33.6426
10.6775
19.4191
2.70677
20.8698
35.6595
18.9369
22.0346
0.433717
19.7691
28.0843
21.8418
36.7726
12.761
1.6702
21.009
27.3078
28.5272
35.6299
36.9061
29.3781
34.3083
21.8967
36.0592
27.9106
29.0921
34.0818
34.2251
1.48021
34.3259
36.9136
21.8363
12.3074
37.8974
14.7296
11.1565
15.4447
27.6428
36.9218
25.1434
22.1057
20.939
28.7592
36.9681
26.6153
21.3705
24.0541
36.7318
12.5518
21.2331
35.5837
11.0127
36.5827
34.991
26.6645
21.0237
37.202
26.7077
26.3337
26.7331
26.2342
18.0775
25.7525
25.574
19.0188
21.8449
38.2902
10.0134
3.54076
7.6021
1.07101
26.1064
3.34883
10.8427
37.268
35.9784
16.7567
26.1518
21.6456
10.2085
21.6798
11.5785
1.16758
37.0025
0.0806439
25.7682
2.89952
21.6826
6.8111
37.2634
25.08
19.0296
25.0985
29.1169
37.1697
9.52254
38.3721
3.82271
38.1597
21.7342
25.0674
20.664
15.7241
18.8338
0.959079
20.5344
37.2077
21.8066
21.808
35.351
35.4089
1.37456
18.6627
37.4327
0.0402237
35.4305
8.13225
25.1062
35.4621
2.22426
15.9177
17.7974