/*--------------------------------*- C++ -*----------------------------------*\
  =========                 |
  \\      /  F ield         | OpenFOAM: The Open Source CFD Toolbox
   \\    /   O peration     | Website:  https://openfoam.org
    \\  /    A nd           | Version:  10
     \\/     M anipulation  |
\*---------------------------------------------------------------------------*/
FoamFile
{
    format      ascii;
    class       volScalarField;
    location    "1.4";
    object      SgRate;
}
// * * * * * * * * * * * * * * * * * * * * * * * * * * * * * * * * * * * * * //

dimensions      [1 -1 -3 -1 0 0 0];

internalField   nonuniform List<scalar> 
111485
(
0.000118811
2.48967e-14
1.15452e-14
1.11787e-07
5.48087e-15
1.00022e-14
5.05486e-16
2.07294e-15
5.32752e-17
3.23507e-16
6.49627e-16
4.73945e-14
3.03109e-15
2.64985e-16
9.86334e-17
1.40015e-15
6.03702e-16
9.70158e-13
6.7502e-16
4.63356e-12
9.7465e-14
1.15809e-15
2.87644e-17
5.70435e-15
1.17633e-15
1.6069e-14
3.78555e-15
2.3926e-15
6.77674e-15
6.2319e-08
7.59421e-15
7.2418e-15
2.83159e-07
6.98982e-14
8.68091e-15
1.99547e-14
5.75283e-15
1.45247e-14
1.92356e-14
7.25258e-15
2.22117e-16
2.80736e-15
1.51246e-14
6.55966e-15
5.08737e-14
4.49643e-14
1.85187e-14
8.13314e-16
2.76337e-15
8.70816e-15
1.57214e-15
1.82978e-15
8.52643e-15
5.80451e-15
3.89608e-14
1.1908e-15
2.49707e-15
2.75316e-15
9.38358e-16
1.15907e-14
9.22852e-15
0.000130265
2.26669e-16
7.29922e-14
3.11486e-15
1.6143e-15
9.53135e-15
2.007e-14
1.77904e-16
1.66213e-15
5.04968e-15
3.92582e-16
5.23235e-15
9.93737e-17
4.95955e-16
1.7331e-15
3.9937e-14
5.1183e-16
8.60175e-15
9.0572e-14
4.85501e-15
7.25604e-15
7.34225e-14
1.65032e-12
3.13732e-15
3.43884e-15
5.67182e-14
6.69546e-15
9.56991e-14
5.17162e-15
5.97367e-14
5.11051e-15
2.12673e-15
2.25502e-15
2.24014e-16
1.458e-12
6.0099e-05
9.38655e-16
9.0335e-14
5.82552e-14
5.2142e-05
5.3175e-16
7.21641e-17
3.06636e-15
8.4582e-16
5.4663e-16
1.03452e-15
1.77947e-14
5.71957e-15
1.01537e-13
5.87333e-14
8.1558e-17
3.56059e-15
4.31846e-15
8.58955e-14
2.91582e-17
4.0636e-14
1.74206e-14
3.61821e-16
7.58511e-10
9.847e-15
4.59137e-15
4.397e-13
5.07545e-15
7.40359e-16
2.30335e-15
2.60908e-15
6.62903e-15
2.90742e-14
1.39562e-13
3.52174e-14
8.38029e-15
4.20653e-14
2.10385e-14
1.46959e-14
1.58811e-15
6.48847e-14
2.5029e-14
3.40323e-16
8.19472e-17
8.48668e-15
3.35987e-16
9.65763e-16
3.87749e-15
4.37753e-14
2.56204e-14
2.1631e-13
2.44695e-10
4.19077e-15
1.16667e-16
6.76109e-16
1.06602e-13
3.71841e-15
9.25041e-14
8.041e-13
3.46596e-15
2.71886e-16
1.61132e-14
1.98426e-13
5.82243e-15
1.53788e-08
1.82706e-15
1.29092e-14
1.99754e-14
1.48474e-13
1.13188e-14
4.68115e-14
3.26004e-15
2.79191e-14
3.55428e-14
2.52318e-17
7.66578e-10
2.80435e-15
1.6465e-14
9.53843e-16
1.42561e-14
5.25146e-15
1.05981e-14
5.42412e-14
1.43061e-14
7.20379e-14
3.83357e-09
4.54258e-16
3.05845e-16
1.82812e-15
8.61374e-15
2.36872e-15
5.48482e-15
2.84509e-15
1.35264e-05
1.04818e-16
3.93853e-14
3.22642e-05
1.62608e-14
9.89261e-16
4.7412e-15
1.93699e-15
1.00472e-15
1.48945e-15
8.9538e-15
1.60571e-15
2.35852e-16
2.24664e-14
1.59905e-15
2.16748e-16
4.2117e-15
2.60196e-15
7.23493e-16
3.85278e-14
2.59307e-14
7.01605e-16
1.80393e-15
2.94068e-14
9.37221e-06
6.11259e-16
7.07765e-15
1.55921e-14
6.63074e-14
9.80699e-15
2.65141e-15
1.44303e-15
1.36229e-14
1.91931e-16
1.28272e-14
2.88082e-14
3.05667e-14
3.61601e-16
2.10333e-14
8.19809e-14
1.60346e-15
1.28838e-13
5.73434e-16
3.11902e-14
2.42759e-16
2.71644e-16
4.9287e-14
2.32179e-15
2.04109e-15
2.93878e-15
6.43628e-15
9.31044e-15
9.62028e-15
7.87901e-16
9.57497e-16
5.38932e-15
6.24433e-16
2.34459e-14
5.96637e-13
6.94636e-15
3.91006e-17
5.63467e-16
9.23266e-14
3.30306e-15
1.89038e-11
5.43031e-14
4.68809e-15
8.85978e-15
4.05548e-14
8.93827e-15
1.18465e-14
3.22734e-15
1.26278e-14
8.60093e-15
1.17514e-14
2.57021e-14
8.03214e-07
4.47339e-05
5.77631e-15
1.65063e-14
1.25714e-15
6.28264e-16
9.05198e-16
4.41398e-15
7.85315e-16
2.1688e-15
2.67528e-14
3.01199e-14
1.84483e-14
3.89652e-15
2.26041e-09
2.37068e-14
4.74799e-15
2.11112e-16
2.87493e-14
3.78146e-09
1.15402e-15
2.68948e-15
1.00907e-15
2.1206e-14
3.38835e-14
1.61571e-15
1.80918e-15
3.75768e-14
1.36131e-14
6.02791e-15
7.35044e-14
5.81195e-14
1.91533e-14
1.01377e-14
6.53052e-15
7.37891e-16
8.37476e-15
1.89747e-15
1.03544e-14
2.70709e-14
1.0066e-13
1.15082e-05
8.18233e-14
1.23814e-15
1.34083e-14
2.54757e-15
2.41406e-15
4.0618e-14
3.05652e-15
1.90457e-15
2.57126e-13
3.19732e-16
1.26364e-15
9.91017e-15
7.68172e-16
4.52053e-14
2.12067e-14
0.000110254
7.87184e-05
5.09172e-14
8.7439e-16
1.78505e-15
3.68424e-15
1.91786e-15
1.96449e-15
1.67395e-14
5.74617e-14
8.68642e-16
1.13746e-14
5.91784e-15
3.09008e-14
2.0603e-14
9.06745e-15
3.86382e-15
1.20522e-15
1.30083e-15
1.42433e-14
2.07737e-13
5.2439e-14
1.90599e-15
1.31303e-14
3.76297e-15
3.80938e-14
1.05685e-14
3.31997e-14
1.91178e-15
1.04002e-14
4.92177e-14
2.19434e-14
1.59536e-15
8.98978e-14
5.73161e-15
2.91941e-08
1.21049e-14
3.15319e-16
8.97739e-15
2.0445e-14
5.54155e-14
4.75099e-15
2.7929e-16
0.00016173
5.49595e-14
4.30216e-14
1.35879e-13
8.7942e-15
5.38868e-16
9.82975e-17
1.80348e-15
2.49204e-14
1.12078e-16
1.41924e-15
1.36605e-15
7.27058e-16
4.74856e-15
1.10956e-14
2.18776e-15
5.24347e-16
2.70846e-14
4.2463e-15
7.09007e-14
7.75853e-14
7.66469e-12
5.77381e-15
1.55373e-15
6.82838e-15
5.81078e-15
1.19894e-14
3.51823e-15
2.11501e-15
2.1718e-15
1.8873e-15
5.79441e-16
8.30821e-14
1.34934e-14
3.99057e-15
4.1558e-15
2.88582e-15
6.62349e-15
9.43052e-06
2.80663e-10
2.07645e-14
2.77239e-15
3.39455e-14
4.15864e-15
4.55205e-14
3.35566e-05
3.72771e-15
5.16555e-14
8.3253e-06
9.1026e-16
3.89558e-14
1.19707e-15
5.61485e-15
1.02211e-14
2.48152e-15
4.75035e-16
3.18977e-14
3.13458e-16
1.39432e-14
3.15855e-15
5.88419e-14
1.80733e-15
5.23272e-16
4.76103e-15
1.78494e-07
1.52695e-15
2.70461e-15
2.05419e-14
1.95927e-14
9.36069e-15
1.22699e-14
6.67029e-16
1.03561e-15
1.25799e-14
2.17481e-15
1.56879e-14
1.05487e-14
2.57337e-14
5.65616e-14
3.86585e-14
1.04761e-14
1.91447e-16
1.05616e-13
6.29163e-15
2.16274e-17
5.06351e-16
3.10734e-15
4.05326e-14
1.53675e-15
1.00358e-13
6.39267e-14
2.05657e-16
3.16615e-14
1.54994e-15
8.22201e-15
1.07858e-15
3.47399e-14
2.06604e-16
6.37768e-05
1.25223e-14
4.53062e-16
5.8947e-05
8.72257e-11
1.54566e-14
2.79263e-10
2.99702e-05
8.97709e-14
8.35558e-05
3.36781e-15
3.2695e-15
9.54733e-15
2.00954e-15
5.06376e-16
1.66486e-05
2.70095e-14
2.79757e-15
1.17656e-14
1.0346e-14
1.03966e-15
2.25124e-14
4.35208e-15
3.13331e-14
2.14815e-15
9.69346e-16
1.35212e-15
4.33752e-05
6.16376e-15
2.16904e-15
1.24673e-15
2.09011e-15
2.59478e-14
1.61908e-16
1.34834e-14
2.07943e-14
6.04754e-15
1.35386e-15
9.67641e-09
2.95936e-14
7.88946e-14
2.26455e-15
2.39065e-14
2.22811e-15
1.5392e-14
9.20357e-16
7.88425e-15
1.62825e-14
8.73979e-17
1.19534e-14
3.58836e-15
5.29062e-15
9.13197e-16
5.37012e-15
1.91264e-16
9.72358e-15
2.71027e-16
7.13696e-15
1.37139e-16
6.96201e-15
1.43481e-15
7.16124e-14
6.94113e-15
8.42062e-15
7.63117e-14
1.24331e-14
2.98146e-05
1.79888e-16
7.97179e-16
4.72031e-16
1.39833e-16
3.04336e-14
1.07753e-14
2.09935e-14
8.0662e-14
5.42338e-16
8.05385e-16
1.71501e-14
2.66815e-15
3.35289e-15
7.96188e-08
2.22537e-15
1.99354e-13
7.01331e-15
3.58249e-14
7.19847e-15
3.82726e-15
8.77389e-15
5.89201e-15
4.78283e-15
3.00593e-15
3.04698e-15
9.703e-15
4.63885e-14
7.8269e-14
5.73982e-15
4.28601e-14
2.11728e-14
2.24022e-13
1.86269e-14
1.92464e-14
2.05624e-13
3.66341e-15
4.05371e-15
8.90748e-15
1.5315e-15
1.38171e-15
3.4998e-15
9.98686e-15
1.16987e-15
8.67807e-15
6.68668e-14
8.84742e-08
1.34411e-15
2.7461e-15
3.55676e-14
1.41133e-15
6.13495e-14
1.10151e-14
6.00163e-16
1.17946e-13
1.45403e-15
4.27235e-15
9.10096e-17
5.25061e-15
4.90919e-15
1.58791e-14
6.04545e-15
4.63133e-16
1.05134e-13
6.69617e-15
9.76485e-16
2.22548e-15
1.37433e-16
4.54583e-15
5.75886e-15
9.32539e-15
1.45229e-14
4.57365e-15
2.59855e-17
1.36514e-14
1.08484e-15
1.18454e-14
3.51414e-14
8.07263e-14
2.82259e-14
1.47091e-13
1.21339e-15
1.93144e-16
1.06479e-14
5.1635e-14
2.66872e-15
6.99462e-15
1.9115e-14
1.0361e-13
8.1196e-16
6.05427e-14
7.45853e-16
6.92047e-16
1.46655e-14
4.87455e-16
1.56652e-14
4.89077e-16
2.59767e-14
2.21153e-14
8.99323e-15
4.9248e-15
1.81527e-14
7.99631e-15
1.69421e-15
9.6803e-16
7.22948e-15
7.32372e-14
6.13797e-15
2.08466e-15
7.76817e-15
1.35249e-15
1.16479e-14
4.31347e-14
5.21463e-14
2.36265e-15
3.55685e-15
6.05391e-16
3.08822e-14
5.51746e-15
3.86025e-14
4.40226e-14
5.17285e-14
1.0796e-15
3.37998e-13
4.00706e-14
1.87116e-14
3.8235e-16
2.40729e-14
1.38258e-13
0.000145909
1.6081e-15
5.14679e-16
3.43429e-15
3.96076e-14
1.28436e-15
8.48001e-05
5.341e-15
1.09282e-13
7.46922e-16
2.26742e-16
2.69235e-15
4.03488e-14
1.53342e-14
3.6451e-14
4.93563e-14
3.33408e-14
4.92581e-15
1.46678e-16
4.21715e-14
2.65228e-15
5.84298e-16
1.45789e-14
1.62448e-15
6.68104e-16
2.15959e-13
6.86584e-16
1.63025e-16
4.93058e-15
3.66209e-16
1.91687e-15
5.83711e-15
1.03469e-09
1.33457e-13
6.5432e-14
1.55323e-16
3.15342e-15
8.21637e-15
1.16759e-13
4.06631e-14
2.45516e-16
1.37632e-15
1.06939e-14
4.08451e-16
6.18222e-15
1.91413e-14
6.64234e-15
2.36042e-13
1.54222e-14
8.90935e-15
2.99327e-15
4.1672e-15
1.01638e-16
4.58614e-15
6.61299e-14
2.97762e-14
4.08091e-14
1.1297e-16
2.00949e-14
1.37001e-15
0.000115123
1.87123e-13
2.86527e-14
9.03396e-17
2.20147e-14
2.73549e-14
4.07759e-14
1.27114e-14
4.20913e-15
5.51747e-15
4.60441e-14
8.47782e-14
3.50538e-15
3.40509e-11
1.01574e-14
1.44149e-15
4.16752e-15
3.84725e-15
1.05308e-05
3.77049e-05
4.29119e-15
2.07835e-14
8.91873e-14
5.94015e-14
5.75186e-15
8.21259e-06
4.53595e-16
2.50009e-14
1.32408e-14
4.05359e-14
1.92066e-13
2.2362e-15
8.24609e-15
3.00927e-15
2.42918e-14
2.45384e-14
1.06729e-15
9.05621e-17
4.18916e-15
8.94851e-15
1.97618e-15
7.7302e-14
4.42027e-15
2.34253e-14
4.29098e-15
2.18233e-14
1.79637e-14
1.29855e-14
1.25904e-14
8.46227e-05
1.19986e-14
5.68841e-15
1.06106e-14
5.11033e-15
9.83556e-15
5.36951e-16
6.42587e-15
5.54809e-14
1.67303e-15
1.34289e-14
1.14196e-15
2.97585e-14
3.37275e-14
3.27367e-15
2.23777e-14
1.15685e-14
1.0307e-14
2.52155e-15
1.44532e-05
9.03453e-14
1.67594e-14
2.06435e-15
3.05224e-15
6.66517e-14
8.70159e-15
1.00801e-15
1.97503e-13
3.56205e-13
1.19575e-14
6.64865e-16
1.61608e-13
4.58314e-15
6.4665e-15
2.73858e-16
1.93275e-14
1.52817e-16
4.17676e-16
7.37407e-16
5.74406e-15
1.15495e-15
1.32854e-13
2.17765e-16
3.00407e-15
1.55405e-14
2.98816e-14
3.88989e-14
7.3066e-14
5.59243e-15
7.29063e-15
7.83506e-15
1.54404e-14
3.63204e-16
4.30542e-14
8.06842e-15
1.86881e-14
2.94572e-14
1.97305e-14
4.69853e-16
8.01384e-15
2.21359e-15
1.94986e-14
1.74465e-13
5.60712e-15
6.36548e-16
6.76511e-15
1.39343e-14
3.1578e-15
7.37571e-17
9.16572e-14
1.41236e-14
6.38344e-15
5.02288e-16
5.87183e-14
1.97076e-14
3.82148e-14
4.74473e-14
1.15133e-14
4.83836e-15
2.72237e-15
2.69421e-13
6.4466e-15
3.18083e-14
2.70599e-14
1.04027e-13
4.10258e-14
9.34766e-14
1.0301e-13
1.24449e-13
2.52134e-14
1.81883e-14
3.30261e-14
2.30254e-15
2.50743e-15
7.63889e-15
1.87583e-13
6.32232e-15
2.38191e-14
6.1029e-15
1.76726e-13
2.56449e-14
4.60759e-15
4.27837e-05
6.14205e-14
8.41348e-13
4.16072e-15
2.29053e-15
6.40694e-17
2.76688e-14
2.06611e-14
2.49213e-14
1.67873e-14
5.82242e-15
3.8345e-16
7.90421e-15
9.34843e-15
1.1054e-13
9.48358e-16
2.90832e-15
9.9796e-16
8.19736e-15
1.05072e-15
2.46054e-15
5.0873e-15
1.18343e-14
6.29703e-16
4.19168e-15
2.53619e-15
4.76567e-15
5.53796e-14
2.07066e-15
3.20134e-14
0.000113203
8.36211e-15
7.89579e-14
9.03579e-14
1.68307e-08
6.75962e-15
3.30779e-14
1.36221e-14
7.1237e-15
3.91296e-14
1.06623e-15
2.4118e-14
1.60059e-14
1.00225e-14
1.20537e-15
4.03608e-14
5.41535e-15
9.21013e-15
1.63183e-14
9.84849e-16
2.72961e-14
7.01499e-15
1.12408e-14
1.20905e-14
1.11528e-14
6.10294e-15
4.46931e-16
1.13273e-14
7.25629e-16
2.78303e-15
2.19431e-14
2.50689e-15
8.80226e-16
3.72954e-14
6.90275e-14
4.21847e-14
6.79268e-15
4.85145e-14
4.38752e-15
5.39637e-14
9.70411e-15
1.13923e-13
2.54465e-14
1.45401e-15
9.00121e-06
7.67678e-15
6.3299e-15
1.92951e-13
1.31417e-14
3.1816e-14
9.89528e-14
9.66528e-14
4.87494e-15
0.000157886
2.24485e-15
3.067e-14
6.17495e-15
5.46085e-16
1.10004e-14
1.01851e-13
6.9974e-14
4.53036e-14
3.46138e-14
1.20857e-14
9.44159e-15
4.17294e-15
1.30477e-14
1.19883e-14
4.01203e-13
5.4711e-14
9.07054e-14
1.01294e-13
3.13816e-15
2.35771e-15
1.90915e-15
1.09112e-14
1.26524e-14
6.69385e-16
5.95417e-15
2.20905e-13
2.25587e-14
1.07042e-13
9.32811e-15
1.37825e-15
3.30521e-14
5.04534e-15
5.98514e-14
4.11372e-17
7.466e-15
1.02843e-15
5.45193e-15
3.89317e-15
7.69517e-15
4.15736e-14
2.95439e-15
8.41069e-15
3.41165e-09
3.50985e-14
1.82661e-14
0.000110112
2.43414e-15
9.46058e-15
1.70065e-15
1.59651e-14
1.43845e-05
7.47725e-14
1.37908e-14
1.55097e-15
4.31538e-15
3.66478e-13
5.47764e-14
1.60515e-14
1.23917e-14
8.28844e-15
3.52891e-14
2.92502e-15
5.95179e-17
6.30044e-15
4.66653e-16
8.98746e-15
6.10621e-15
1.87e-15
1.31955e-15
2.00645e-16
1.93895e-14
5.12698e-15
3.56335e-14
3.85789e-05
2.48776e-15
4.46894e-14
4.16176e-15
1.04442e-13
1.50553e-05
3.38707e-16
5.55567e-14
6.10442e-15
2.26567e-15
1.20409e-16
1.30775e-15
3.84396e-15
7.30773e-14
6.48072e-13
1.93455e-14
1.75429e-14
7.96822e-15
6.64633e-16
1.88578e-14
1.80544e-13
7.92256e-15
2.87314e-15
9.72658e-15
4.3073e-15
1.35962e-15
3.26881e-13
4.79349e-15
7.61147e-16
2.43018e-14
2.32607e-13
1.30905e-14
7.55013e-16
6.50359e-16
2.10884e-14
6.37558e-16
3.27032e-14
1.81162e-14
3.27931e-15
2.67057e-14
9.44475e-15
1.6146e-14
1.48504e-14
2.33345e-14
8.4814e-16
1.15018e-15
2.30456e-15
5.88977e-15
4.74029e-14
4.55686e-14
1.00374e-15
5.81787e-14
3.80011e-15
1.94173e-13
4.22403e-15
3.18191e-15
6.14543e-14
8.03752e-15
7.22268e-15
2.38107e-16
1.38885e-14
1.05595e-13
1.97341e-14
3.72688e-14
4.08281e-15
3.08874e-15
0.000107784
1.69663e-15
1.59569e-14
8.72883e-16
2.63138e-15
3.46269e-15
9.45942e-14
5.37086e-14
1.0987e-14
2.26311e-13
2.53897e-15
3.08209e-15
1.92361e-13
7.10789e-15
1.50309e-13
8.95271e-16
3.99335e-14
4.70057e-14
8.94392e-16
9.43352e-15
5.44117e-15
4.51331e-13
4.8833e-14
4.9163e-15
3.01295e-15
3.19817e-15
2.81881e-15
1.42789e-13
2.90677e-14
1.37344e-13
1.05016e-13
2.49415e-14
4.435e-15
2.86686e-14
2.14189e-16
9.47513e-16
2.20683e-15
3.40711e-15
1.40373e-13
8.73782e-14
8.21326e-15
2.10697e-15
9.55406e-14
5.04524e-15
7.95228e-14
2.6397e-13
3.4102e-14
4.78703e-15
4.3144e-15
4.50856e-14
2.64367e-15
3.29361e-13
6.54007e-16
5.14538e-15
1.9138e-15
1.41495e-14
2.90764e-15
1.60728e-14
5.23724e-15
3.53238e-15
3.64738e-15
7.74146e-15
2.30198e-16
1.77951e-15
1.11049e-14
1.34785e-13
1.00516e-14
2.37642e-16
1.29282e-15
4.67149e-14
3.13798e-14
3.06545e-14
2.12345e-15
3.28771e-15
1.98899e-15
4.02136e-14
3.9564e-14
9.31535e-16
2.05323e-14
8.80214e-15
2.27618e-13
1.96923e-15
4.01602e-15
3.51083e-15
7.7973e-15
2.83506e-14
7.32411e-14
4.12219e-15
4.22325e-14
1.00969e-14
2.36043e-15
2.04167e-14
9.77147e-15
9.10026e-05
5.97005e-15
2.24673e-15
5.20353e-15
1.86404e-15
3.22544e-16
1.73385e-14
1.71833e-14
6.31221e-15
1.9091e-13
5.1742e-15
5.96828e-16
5.23833e-15
1.23269e-14
1.47613e-13
6.109e-16
1.81762e-13
5.04304e-14
8.26268e-15
2.74381e-14
1.18537e-15
2.0492e-15
2.41064e-15
5.09461e-16
1.25882e-14
2.6975e-15
8.13105e-16
3.08665e-15
7.58981e-15
8.1016e-14
2.31408e-14
3.99902e-15
2.60594e-15
3.13592e-15
2.19285e-14
1.78507e-15
1.12681e-15
1.85325e-14
2.98497e-16
1.06267e-14
7.67598e-15
9.5363e-14
7.34731e-16
5.10141e-15
5.56599e-14
2.94011e-16
9.19918e-13
4.93001e-15
6.67836e-15
1.83464e-14
8.48282e-15
4.32258e-15
3.75104e-15
2.71519e-14
7.27721e-05
6.50541e-15
9.58908e-05
2.02405e-14
1.29685e-15
8.75644e-16
4.17452e-16
1.07446e-14
2.39424e-16
6.30696e-15
1.18905e-14
5.12892e-14
9.66913e-15
1.57581e-15
3.37923e-14
2.15538e-15
6.77482e-15
4.79634e-14
2.82191e-14
1.74597e-15
2.39622e-15
1.26263e-16
6.45431e-15
1.38566e-14
6.34158e-16
1.72878e-15
1.31384e-14
3.67033e-15
8.19482e-14
5.37038e-14
5.18256e-14
9.602e-15
1.96646e-15
6.52487e-14
3.81841e-15
2.89166e-14
5.91327e-15
2.53109e-14
3.45255e-16
8.74084e-14
1.3372e-15
2.42138e-16
6.16298e-15
4.5484e-15
2.05112e-14
6.82128e-14
2.13967e-15
2.02827e-15
1.9088e-14
1.34366e-13
3.54267e-15
1.26398e-15
2.00982e-15
6.44217e-15
1.2611e-14
1.55987e-13
2.64744e-14
7.94559e-16
9.43811e-16
2.84472e-14
3.51426e-16
4.74233e-14
2.09478e-15
9.08563e-14
9.8389e-14
5.17245e-14
1.74425e-14
5.5395e-15
3.04292e-15
1.92362e-15
2.14021e-16
6.33243e-16
3.78012e-14
6.00462e-15
8.79119e-17
2.71564e-15
2.88609e-16
1.1444e-15
3.87155e-15
1.48777e-14
1.08257e-15
2.39996e-15
7.38858e-15
1.62424e-15
1.14429e-15
2.00902e-15
5.76694e-15
8.74663e-16
1.22046e-15
2.34815e-15
6.15748e-15
9.26556e-15
8.26886e-14
4.99453e-15
5.78735e-06
1.02529e-14
1.39404e-15
4.78881e-15
6.01103e-15
1.70451e-15
4.9886e-15
2.42151e-15
2.99953e-14
5.95517e-15
2.25561e-15
1.76779e-14
3.50171e-15
9.54766e-15
4.92274e-15
1.43334e-14
4.55589e-15
8.0231e-15
2.48496e-14
4.03234e-14
6.95037e-15
2.40317e-14
9.05984e-16
2.42867e-15
1.4582e-13
2.3632e-15
4.71194e-16
2.37751e-14
6.4603e-15
1.18008e-14
3.32464e-14
1.30326e-13
2.88233e-15
1.87095e-14
6.49175e-16
4.80969e-16
1.26192e-14
6.77153e-15
1.08163e-13
1.1505e-15
9.11292e-17
2.63388e-14
3.37154e-15
1.24563e-14
9.41701e-16
1.14249e-14
2.18366e-15
5.41584e-14
2.88818e-05
7.17845e-15
1.72291e-14
4.70117e-15
7.43926e-15
6.11199e-15
2.04586e-15
1.53352e-15
2.00325e-14
4.97189e-15
9.95131e-15
4.60803e-10
6.58969e-16
4.36214e-14
1.05737e-14
2.0184e-10
2.60131e-14
2.26055e-16
8.84799e-14
1.73365e-13
3.46854e-10
8.74625e-15
5.77615e-15
9.25842e-14
7.81978e-16
9.43656e-15
2.37053e-15
2.4126e-15
4.23274e-15
4.63767e-15
7.22999e-15
8.29732e-16
1.18249e-15
1.11787e-13
6.06446e-15
9.85352e-05
8.38082e-15
3.55263e-15
2.06129e-15
1.16573e-13
7.51486e-15
3.92294e-14
1.49555e-16
1.15874e-15
5.2222e-07
7.78042e-15
2.06106e-16
9.709e-16
6.94478e-14
4.42326e-15
4.58726e-16
1.804e-14
5.32652e-17
8.33036e-17
1.55506e-15
1.04205e-14
4.4387e-15
2.08038e-16
1.24151e-14
2.37565e-15
2.50252e-16
2.06676e-14
4.12046e-15
1.4059e-15
3.64033e-15
1.11518e-14
9.2333e-16
6.32575e-16
1.82675e-15
1.67428e-13
5.57641e-14
1.00193e-15
1.53902e-13
2.58613e-15
2.21717e-15
2.49189e-15
4.23387e-17
1.31839e-14
1.00111e-13
4.94002e-14
5.2019e-14
1.12544e-15
2.17924e-13
4.79223e-14
5.16365e-15
8.39957e-14
7.29445e-14
4.71601e-14
1.27065e-14
1.6698e-15
2.58877e-14
6.90778e-15
2.71186e-15
3.04103e-16
8.13836e-15
4.36042e-12
1.14544e-15
5.81355e-15
1.6855e-14
8.07893e-14
2.84449e-15
2.18028e-10
7.57906e-15
7.88054e-16
3.56773e-05
5.34781e-14
5.96374e-16
9.0817e-15
1.48886e-15
7.72945e-16
7.96889e-14
2.56182e-14
2.32087e-15
4.18041e-16
7.85863e-15
4.7345e-15
2.38535e-14
6.43651e-15
3.62481e-15
9.15125e-16
4.13182e-15
1.04086e-15
6.4728e-16
7.5865e-15
7.0526e-15
5.8163e-14
3.86218e-15
1.96089e-17
3.05056e-15
7.35254e-05
4.0735e-15
2.08008e-14
6.47832e-07
1.36025e-15
9.18823e-16
1.13743e-13
2.46035e-14
1.51387e-15
1.73614e-10
2.46774e-15
5.05064e-16
5.0703e-14
3.01889e-16
8.10444e-15
4.64698e-16
3.97818e-15
4.48037e-15
1.15736e-15
2.6161e-14
4.27033e-14
2.83832e-15
5.64709e-15
3.9311e-14
7.48884e-15
3.94878e-15
1.84503e-15
4.44037e-15
1.01643e-15
4.55253e-15
8.96672e-15
3.99158e-15
4.36737e-15
2.47173e-15
5.28823e-16
2.40088e-15
3.1239e-15
5.11969e-15
2.05189e-14
2.95618e-15
1.24738e-14
9.08712e-16
1.2873e-15
2.7065e-11
8.06347e-14
4.2494e-15
2.32662e-14
1.33591e-14
3.93639e-15
1.30656e-15
2.19959e-13
1.36918e-15
2.40156e-15
1.03112e-15
1.32574e-15
4.05846e-16
7.838e-15
6.82509e-16
1.64903e-16
6.9655e-15
1.65035e-16
5.60327e-15
5.48138e-14
6.5733e-15
2.11191e-14
8.82585e-15
5.94326e-15
2.68529e-14
1.48818e-13
1.31869e-14
5.22805e-16
1.82043e-14
8.73532e-14
1.93888e-15
1.55527e-05
1.8752e-13
3.40421e-15
2.7197e-14
4.27724e-07
9.63061e-05
2.21097e-16
5.51382e-06
1.25499e-15
3.29804e-16
1.16196e-14
1.54699e-15
3.79126e-15
8.26392e-15
2.09574e-14
2.59569e-14
1.52094e-14
1.85296e-14
1.01515e-14
5.74735e-07
7.50468e-16
1.44323e-15
8.42933e-14
1.49384e-10
7.59307e-16
1.34382e-14
9.9937e-05
1.68274e-14
1.18913e-14
6.71282e-16
1.46222e-13
2.22701e-16
1.57435e-14
1.23502e-15
7.11366e-05
1.28971e-14
7.81323e-15
7.15993e-05
7.91335e-14
2.29449e-09
7.88457e-12
3.70952e-14
3.25382e-15
6.70912e-14
8.97942e-15
4.61873e-14
4.61347e-14
1.01758e-14
1.72669e-14
9.25036e-16
7.37059e-16
2.05018e-14
3.81305e-15
8.34383e-14
2.78048e-15
4.14673e-05
3.93285e-15
4.27297e-14
7.8971e-16
1.20771e-14
1.72853e-15
3.95242e-14
4.33984e-15
8.1105e-15
5.74648e-14
1.30004e-14
5.62167e-15
8.62566e-15
5.69488e-15
7.31037e-14
1.58404e-15
8.55565e-15
7.80295e-15
3.48459e-15
6.11344e-16
2.22027e-14
7.55791e-16
1.31614e-15
7.0276e-14
8.90016e-14
1.31447e-15
2.64244e-14
4.17562e-07
9.1002e-15
5.47776e-15
7.12532e-14
2.55941e-14
7.83486e-15
6.67731e-16
8.34129e-15
7.95834e-16
1.38124e-13
1.23007e-15
8.07723e-15
4.19288e-15
2.93494e-15
6.64314e-14
1.98006e-14
2.04033e-15
1.75373e-11
6.11098e-14
4.64223e-16
1.92847e-14
1.54246e-14
9.65597e-11
1.73123e-14
9.30596e-15
6.19081e-15
3.57823e-14
3.84179e-14
2.28862e-15
1.44737e-15
1.3334e-14
1.85096e-14
2.00826e-16
3.95024e-15
2.43596e-14
4.30556e-15
7.28158e-15
1.03019e-16
5.59101e-14
3.93052e-14
1.75119e-14
7.70015e-16
3.21913e-14
1.58685e-14
6.27924e-14
6.09524e-14
1.07669e-13
6.59269e-05
1.18941e-15
2.77944e-13
3.06059e-15
9.32832e-09
5.73848e-14
2.77641e-13
1.64513e-15
3.52663e-15
1.4123e-14
5.57647e-15
6.59474e-16
8.08057e-15
4.87278e-15
2.97766e-15
1.31151e-15
2.79954e-15
5.75487e-15
8.05342e-16
5.45989e-16
9.34127e-11
2.20465e-16
1.63683e-14
8.17449e-15
1.05446e-14
2.37641e-16
1.91499e-16
5.68382e-14
4.1139e-14
3.60367e-15
9.37713e-16
8.07816e-14
7.51738e-15
1.29352e-14
4.26638e-15
1.39076e-14
1.01561e-14
2.43547e-14
9.49264e-15
9.6114e-16
2.59384e-15
1.96358e-16
8.86609e-15
7.13141e-16
1.27509e-15
4.75862e-11
1.13965e-15
1.82013e-15
2.26065e-14
1.11644e-13
2.337e-11
2.35648e-15
1.35123e-15
1.11641e-15
2.38334e-14
2.25576e-15
1.77149e-16
4.20956e-15
1.52939e-14
6.1897e-15
2.62004e-06
6.54715e-05
2.52313e-14
5.91337e-14
3.43169e-15
1.5316e-06
3.63994e-15
7.7529e-14
8.61635e-16
3.35126e-15
5.4014e-15
2.34459e-15
3.41527e-16
4.9444e-15
9.54568e-16
2.4447e-15
1.77337e-15
9.74293e-15
3.31353e-13
6.43103e-14
1.08029e-13
2.59683e-14
1.81675e-14
3.58928e-15
8.9679e-14
3.16248e-16
1.18712e-13
3.6673e-15
2.69136e-15
2.36855e-15
4.3112e-07
1.06644e-15
6.31455e-16
5.40117e-05
8.03059e-13
9.44403e-15
2.60149e-15
1.54021e-15
2.77106e-14
4.23602e-15
1.55054e-15
4.26954e-15
8.46686e-15
6.62289e-14
9.46827e-05
1.41839e-15
5.29796e-16
3.77184e-15
2.47332e-15
3.31183e-15
2.7746e-14
2.53828e-15
8.90671e-05
7.7029e-15
1.75663e-14
5.19185e-14
8.54154e-16
2.54855e-05
1.42587e-15
6.54105e-16
1.72003e-16
2.14968e-14
4.63358e-15
2.35441e-14
1.99381e-14
1.06259e-14
5.26811e-14
6.20461e-15
2.73275e-15
1.79119e-14
2.16576e-15
2.21019e-10
3.68616e-16
5.72367e-14
6.41299e-06
1.84682e-14
6.99432e-14
1.46133e-15
5.40685e-15
2.34156e-15
9.69805e-15
5.07503e-16
2.78812e-15
6.84138e-14
9.78795e-15
1.38772e-14
5.27593e-15
3.4124e-16
9.11953e-05
4.76136e-05
4.16651e-14
1.02496e-14
2.70313e-14
1.93176e-15
3.59076e-14
8.80912e-15
8.17951e-15
2.01543e-14
1.33394e-14
2.90557e-05
7.01104e-05
1.24714e-14
2.12252e-14
1.90044e-14
4.91285e-13
3.70899e-15
4.36854e-15
7.95838e-14
1.01899e-13
5.07503e-14
2.04882e-14
2.21878e-15
6.28758e-14
4.37438e-15
2.32838e-14
2.53205e-15
3.48053e-15
0.000100739
3.98075e-16
3.87201e-05
2.55771e-15
1.81304e-15
2.69145e-15
4.57527e-15
4.84821e-10
3.99684e-06
4.41695e-08
1.58051e-14
8.65846e-15
2.00465e-15
6.05564e-14
8.98373e-15
6.83615e-07
2.84465e-15
2.10209e-14
5.71821e-15
1.04614e-14
9.73541e-15
2.13892e-14
6.06856e-15
7.67714e-15
5.74699e-05
1.60055e-15
1.6163e-15
9.79138e-15
3.9987e-14
1.44957e-14
4.72653e-05
3.39868e-16
2.26936e-15
1.29883e-14
2.31164e-14
5.4433e-14
2.0869e-15
1.0701e-14
1.66482e-14
1.14431e-13
8.27374e-15
1.57416e-14
5.43018e-14
4.78442e-14
1.40581e-14
5.4517e-05
4.17786e-15
3.00392e-16
2.62173e-14
9.55928e-15
8.73349e-16
4.69351e-15
7.05801e-11
1.20906e-16
5.76964e-15
1.2236e-15
1.86107e-15
7.23054e-14
1.10047e-10
1.97355e-14
3.10335e-14
5.94803e-16
3.20337e-14
4.14213e-15
6.99352e-16
1.05305e-15
4.07998e-14
4.78715e-05
1.08215e-15
8.83879e-14
2.51119e-15
3.92863e-16
9.40277e-16
2.17417e-15
6.65791e-14
3.28095e-15
3.25572e-15
1.34505e-11
2.52468e-15
6.06646e-15
1.9331e-14
4.25901e-15
5.84277e-15
3.13547e-12
5.18527e-11
1.39487e-14
1.07607e-14
2.78462e-15
6.78751e-16
4.97551e-15
1.15167e-15
8.55874e-14
1.52901e-15
1.8942e-07
2.20171e-16
8.47051e-16
8.29479e-15
1.77395e-11
5.38492e-14
2.98763e-15
1.65538e-14
9.46322e-15
5.01093e-15
1.77792e-05
9.96853e-15
1.92439e-14
1.07829e-13
2.74065e-14
4.15308e-14
5.19301e-12
2.96289e-14
4.93884e-14
2.20047e-14
2.40712e-14
1.49775e-15
1.57803e-14
5.46346e-15
2.98541e-15
1.25305e-15
2.49746e-15
7.39033e-15
1.2997e-10
4.71045e-14
4.44904e-17
2.05512e-15
2.91054e-13
6.49471e-15
4.80377e-15
7.54245e-15
4.44714e-15
1.04526e-14
2.08819e-15
1.04624e-14
7.56523e-14
2.96628e-15
2.55388e-15
3.06573e-13
5.19102e-14
1.96042e-14
5.19498e-15
1.02855e-13
4.88624e-16
1.61998e-15
6.47462e-14
1.55944e-15
1.04009e-15
7.81128e-14
1.10624e-14
2.31e-15
8.61554e-11
6.69151e-15
1.08266e-14
1.0591e-14
5.83193e-14
1.28923e-14
1.10721e-15
1.12126e-14
3.41395e-15
1.90124e-12
3.95196e-15
0.000134594
6.6449e-17
5.30178e-14
5.19401e-15
7.70252e-15
1.66424e-14
1.50619e-14
7.3631e-12
1.49788e-15
8.15627e-10
5.71139e-08
3.18866e-14
7.78172e-15
4.20458e-14
2.22038e-14
3.49323e-15
4.87204e-15
5.58203e-16
5.34515e-16
1.24513e-13
7.38146e-15
5.60017e-15
2.97403e-15
9.79453e-15
8.16901e-15
1.30121e-14
7.72008e-15
3.05118e-14
8.53872e-15
3.17816e-14
1.58777e-14
2.77465e-14
4.93481e-15
5.66745e-06
5.67693e-16
2.03592e-14
8.42997e-16
1.85469e-15
3.37625e-15
1.06077e-14
8.15074e-15
4.69157e-14
1.17527e-16
1.12203e-14
1.32111e-14
1.53915e-14
2.09228e-13
1.84471e-15
8.38963e-15
1.16763e-14
9.31148e-10
1.5003e-14
1.76731e-15
1.46294e-14
6.19405e-16
9.0178e-15
2.94898e-14
2.10974e-16
2.31507e-14
8.86735e-15
6.22005e-15
2.65929e-14
1.17334e-14
7.68473e-15
6.06195e-15
1.27194e-15
1.31631e-15
9.5418e-16
1.49526e-14
1.56802e-14
6.13788e-11
1.13691e-15
1.38402e-14
7.91848e-15
3.57321e-15
1.22566e-14
8.04281e-16
1.9544e-14
5.48834e-15
1.15989e-14
1.1752e-14
5.12411e-15
7.38644e-15
4.96741e-05
1.43662e-13
2.83541e-14
3.65208e-15
2.07083e-16
6.58081e-15
5.19839e-14
3.67871e-14
1.93468e-14
2.67888e-14
0.000169012
2.24026e-14
8.84733e-05
2.41376e-16
1.07918e-15
1.56391e-14
2.15144e-14
2.97401e-14
4.9626e-15
1.76712e-14
4.13859e-16
6.7437e-15
3.50457e-15
4.84773e-14
4.86105e-15
1.69838e-09
9.00835e-13
1.81422e-15
3.79145e-15
5.633e-15
4.30619e-14
1.37933e-14
7.77762e-14
1.49098e-13
5.58961e-15
9.02968e-15
4.53909e-15
1.37518e-15
2.399e-14
1.03289e-14
2.52278e-14
1.12094e-08
1.36439e-16
2.18226e-14
5.60667e-15
1.50398e-13
1.08082e-14
4.93511e-06
3.15578e-16
2.15315e-14
3.34814e-14
1.79847e-15
1.52745e-14
4.7215e-15
1.74246e-15
3.41458e-14
1.55789e-15
1.18725e-15
2.87195e-12
1.0701e-07
2.92115e-14
1.4291e-14
1.72956e-15
1.1059e-15
9.52293e-14
7.17801e-15
4.54276e-15
9.59599e-15
6.78678e-16
1.55405e-06
4.89311e-15
1.21009e-15
4.94193e-15
2.52853e-12
4.72899e-13
3.56943e-07
1.51709e-15
1.92071e-14
1.84538e-14
3.11038e-13
5.62279e-14
9.63808e-15
7.86151e-15
7.16587e-15
1.61593e-15
3.77731e-14
1.39012e-14
1.74495e-15
0.00017468
1.12977e-13
2.26046e-14
7.35282e-15
1.55903e-13
1.00661e-14
1.70427e-14
7.14069e-15
2.90197e-09
1.6138e-15
1.49461e-14
7.56643e-15
3.9393e-14
1.01963e-14
1.26326e-15
1.42174e-16
4.64002e-15
2.61151e-15
7.32702e-15
3.09501e-14
1.29843e-15
3.44704e-16
3.23261e-14
1.01609e-14
3.40147e-15
2.60342e-15
3.7049e-15
3.45175e-11
2.93555e-14
4.0798e-14
2.06133e-15
1.92027e-15
2.04128e-15
1.48344e-14
1.59054e-16
1.31021e-14
6.87285e-15
1.79429e-15
1.05806e-05
5.81828e-15
9.77002e-16
7.74821e-15
5.52779e-14
1.96933e-15
2.53108e-15
2.67602e-11
6.11413e-17
3.229e-14
2.436e-16
8.47026e-16
2.9678e-16
1.03795e-14
1.9471e-16
2.62129e-15
2.98934e-14
6.97319e-15
2.51212e-15
1.63628e-14
1.53143e-11
1.5813e-13
3.57965e-05
9.55844e-16
2.19961e-15
5.15956e-15
4.62444e-16
3.98519e-15
5.11292e-14
8.85919e-16
8.67583e-15
5.41895e-13
7.78176e-14
1.4652e-14
2.03339e-14
2.01749e-15
1.61941e-14
7.33386e-16
1.97284e-14
3.07904e-14
5.30726e-14
9.38495e-16
3.96045e-14
4.51551e-08
4.45366e-13
3.09789e-15
5.55286e-13
7.36134e-15
9.35491e-05
6.07698e-15
5.44745e-05
3.72397e-13
4.77041e-15
7.26931e-14
2.37323e-15
4.4101e-14
2.79986e-14
5.5023e-15
2.67957e-15
2.80891e-13
1.10274e-14
1.35831e-14
4.01333e-13
7.11578e-16
4.28314e-14
0.000172193
3.19145e-14
7.81797e-15
5.72582e-14
7.33044e-15
2.9671e-11
1.22412e-14
3.32371e-15
1.34262e-14
8.20081e-14
1.16729e-15
1.69914e-14
4.35812e-13
6.39977e-15
1.35795e-15
1.44405e-15
7.58931e-15
6.2637e-05
2.02963e-14
6.3446e-14
4.69875e-13
6.68297e-14
1.81981e-13
3.90521e-13
1.95712e-14
5.66176e-13
4.83673e-13
9.99864e-06
6.14751e-14
1.75206e-14
1.05981e-13
7.88528e-15
3.2773e-13
8.74624e-13
6.69717e-12
7.53328e-14
1.37964e-14
6.91641e-15
1.4346e-14
2.05136e-15
4.01759e-14
4.34138e-15
1.05045e-05
4.50952e-15
6.13364e-15
8.90349e-05
2.89355e-14
2.61375e-14
7.4296e-15
1.12592e-05
1.40477e-12
3.09899e-15
2.93771e-14
2.19994e-14
3.60307e-10
1.8856e-06
6.07134e-15
2.67982e-12
4.23953e-16
4.21194e-14
6.07164e-14
1.31672e-15
2.33662e-15
1.30442e-14
5.78245e-15
5.18558e-14
6.76669e-15
2.35173e-15
4.64973e-14
7.15121e-14
1.53951e-16
7.99929e-16
1.21876e-14
1.484e-14
1.81598e-15
3.94488e-16
1.22627e-13
3.77689e-15
4.74012e-14
1.90617e-15
6.36704e-14
1.13272e-13
5.69542e-06
2.25615e-15
5.78712e-14
1.58841e-14
1.00629e-14
1.42179e-14
4.41348e-16
7.85187e-15
7.37706e-05
1.5259e-14
2.75557e-15
5.00804e-15
8.16174e-15
2.37325e-14
1.44027e-14
4.64805e-15
1.41712e-14
7.03064e-16
2.92825e-14
1.15792e-14
2.26726e-09
1.68968e-05
2.9665e-15
1.52616e-14
8.87189e-15
2.70236e-13
3.12586e-14
1.00192e-14
2.74685e-15
1.0594e-14
1.68178e-15
1.67328e-07
1.93893e-14
5.57209e-14
1.35661e-14
7.22936e-16
2.05371e-14
6.23012e-15
4.6904e-15
2.91769e-15
1.88339e-14
1.39605e-15
7.4149e-14
1.55843e-15
3.15929e-14
5.39394e-16
1.60881e-14
1.37271e-14
8.11746e-15
2.67052e-14
6.42487e-16
1.75653e-15
1.01872e-14
1.13009e-13
4.41166e-14
1.89025e-15
3.14778e-14
1.61901e-15
3.31465e-13