/*--------------------------------*- C++ -*----------------------------------*\
  =========                 |
  \\      /  F ield         | OpenFOAM: The Open Source CFD Toolbox
   \\    /   O peration     | Website:  https://openfoam.org
    \\  /    A nd           | Version:  10
     \\/     M anipulation  |
\*---------------------------------------------------------------------------*/
FoamFile
{
    format      ascii;
    class       volScalarField;
    location    "9.5";
    object      p;
}
// * * * * * * * * * * * * * * * * * * * * * * * * * * * * * * * * * * * * * //

dimensions      [0 2 -2 0 0 0 0];

internalField   nonuniform List<scalar> 
111485
(
31.5276
0.23908
0.273214
31.5277
0.259382
30.5567
0.222742
0.2355
0.221919
0.257559
0.215645
0.248161
0.238126
0.146734
0.232237
0.301475
0.158459
35.1562
0.244137
31.5264
31.5288
30.5754
0.216058
0.296842
0.230736
31.4114
0.277194
0.281563
0.2617
31.5355
0.00615569
0.113676
31.5411
30.575
34.314
30.4323
0.107396
0.236738
-0.0345562
0.265469
30.7688
0.244938
0.271451
0.167898
-0.653196
31.5976
0.212617
0.280887
0.261886
31.6826
31.6727
29.5599
31.7063
0.125693
31.7272
0.202769
0.236856
30.6213
-0.0859259
0.255657
0.262869
31.5318
0.227311
0.0419303
30.7332
0.218799
20.5862
0.23544
0.141295
0.215807
-0.192995
0.182431
30.9223
0.160678
31.5635
0.175452
30.579
0.23869
30.5686
32.3073
-0.0916128
0.148395
30.5816
31.5473
0.223486
0.232699
7.34775
0.112147
-0.0599793
0.177372
-0.46443
0.239418
0.238526
0.200243
0.248212
31.5475
31.529
0.164216
-2.54505
0.587108
31.528
0.271201
30.5419
0.213026
0.209977
31.7364
30.6058
0.131593
0.237575
-0.987253
0.113493
0.247873
0.269284
0.256411
31.4035
0.18849
31.4672
30.5913
0.176332
31.5325
31.4101
26.7922
30.585
30.623
0.258634
35.784
26.6348
0.130141
31.5532
1.9506
-0.0668275
0.163444
31.5677
26.1897
27.3281
0.229825
30.5792
0.193018
0.198081
0.272574
0.113539
0.215959
0.236643
0.277786
0.191074
0.138826
30.5788
31.5433
30.6365
0.226045
0.26325
31.5163
0.068348
0.0362773
-2.23042
0.238627
0.224336
0.196492
-1.66763
31.5754
31.5278
0.228818
0.222637
-1.5133
-1.98373
0.145482
0.0720648
30.7276
-1.36733
-1.22363
30.6145
31.5404
0.233065
30.5938
0.115707
0.0696269
30.7709
30.8377
31.4756
31.3452
30.7299
31.5232
0.253173
0.241568
0.270641
0.264918
0.26064
0.202817
0.142559
31.5314
0.140931
30.8233
31.4855
0.231885
0.229379
0.130742
0.263899
0.0701348
31.5678
0.269472
0.300019
21.39
0.213854
0.154968
31.531
0.219171
0.213909
30.8132
0.109308
0.201502
0.252902
0.165888
30.6989
31.5317
0.196148
20.0379
0.158438
30.5917
0.214941
0.199091
0.254572
31.543
0.181612
0.0694225
24.1165
30.5928
30.6155
-0.0821802
-1.93942
31.0103
29.2216
0.214917
0.118073
-0.209938
30.9973
31.2484
0.0584065
31.5559
0.201662
0.187465
0.203545
0.153389
0.196123
30.6205
-0.0557561
0.162929
30.6351
30.5817
0.0929975
0.240227
31.2265
0.191747
0.160419
31.5439
25.5677
0.197072
31.5725
32.1018
28.7926
31.5229
0.198112
0.136076
-0.0221411
31.5597
0.097397
31.5278
31.525
31.5672
0.0320344
0.221637
0.243874
0.144728
0.240846
0.208632
0.19472
0.0314876
0.0865574
0.145786
30.3949
31.5409
0.021801
0.0991482
-0.130247
0.121702
31.531
0.240048
0.231553
0.226776
0.310275
-0.0714391
0.23407
0.135724
0.189779
30.6075
0.190497
30.5942
34.9798
32.3676
-0.132946
0.215793
0.224269
31.4916
30.8624
0.192059
0.125646
31.516
31.5249
31.7455
0.151351
0.164258
0.248675
0.25192
0.218473
29.0197
30.6233
31.5492
0.217139
13.1526
0.169341
-0.078044
-0.0135053
30.5847
31.527
31.5313
27.3075
0.202116
0.273829
30.578
0.205596
31.2155
31.4723
0.176502
0.207097
0.244853
0.213699
32.0269
27.1653
30.5867
0.197752
0.0739755
0.0122587
30.7119
2.22287
-0.252259
0.277762
0.217555
5.42962
0.221197
30.5713
0.209018
0.219236
-0.0513046
0.151511
0.231035
30.5875
31.5547
30.603
31.5383
0.24442
0.203357
0.184263
0.258494
30.6586
0.259906
30.6117
31.5595
0.233357
32.5635
27.8896
31.7185
30.4164
0.239832
30.6162
0.0776844
0.278448
30.5694
0.170782
0.227715
31.5045
0.195718
0.266375
0.261341
0.132129
0.163031
0.129668
32.0636
31.5468
0.210986
30.6876
0.256467
0.130024
30.7684
30.6156
0.205987
0.192869
0.108084
0.310712
30.5779
0.014111
0.233458
30.5491
0.168679
0.173966
31.5256
31.5252
0.0983331
0.236576
30.5304
31.4759
23.5339
31.5252
0.255174
30.5923
31.5286
0.232092
-0.0436707
0.238168
0.279762
30.564
27.3788
0.265406
27.7607
0.182579
0.290827
0.276092
21.2639
28.0581
-1.87422
-0.861013
31.5243
0.114343
0.274398
31.5359
-1.62113
0.254531
27.9171
0.24061
0.231773
0.166335
30.5724
1.06441
0.240585
0.200777
-0.162347
26.5455
-2.02223
31.5368
0.16167
-0.654113
30.6176
0.214643
0.260228
25.8247
31.5553
29.9147
31.5237
0.253373
0.319156
0.26334
0.279172
0.10128
30.5967
0.0937914
31.5775
0.303732
30.5109
31.5664
31.5999
0.24126
31.5491
31.5291
33.4392
31.5255
30.6495
0.221461
30.6137
29.7749
30.5911
31.4817
30.5345
31.5748
30.5775
0.238692
30.5844
0.210474
0.229554
0.0600543
30.5874
0.232791
30.6205
31.5281
0.261078
0.319701
0.408048
-0.120458
29.4017
0.244199
0.234271
0.128705
-0.0343993
0.24367
31.5442
0.0222764
25.87
0.353734
30.5937
0.275007
26.7573
0.116003
0.286171
33.1687
30.8537
-0.0966549
31.5179
0.231749
0.200581
30.641
30.6692
31.7752
30.6107
-3.49993
0.225707
30.5426
30.6363
0.245959
30.5754
0.206397
30.5757
0.214946
31.5301
0.310077
0.298485
0.324782
0.104398
30.478
-0.478297
30.538
30.5929
0.202159
30.5984
0.260031
31.8013
0.286722
31.5341
0.334375
31.5272
27.9509
-0.0740268
0.130203
0.197704
0.28326
0.138652
0.216595
30.6322
0.166877
0.213729
30.5862
0.120226
0.0733041
0.241339
30.8266
32.1685
0.342088
0.121506
14.97
30.9021
0.179203
0.288373
0.264448
0.251393
0.644907
10.4113
27.5837
-2.4168
12.8076
31.5301
0.299689
30.6831
28.069
0.207704
10.1772
-2.48598
6.00174
27.5652
0.201998
0.272024
30.6235
29.8696
0.28432
31.5415
30.5747
30.5785
30.5838
0.253415
30.6058
31.3745
0.285693
0.181062
24.1408
0.107571
29.3473
0.167346
31.6995
30.6254
0.232322
30.5874
30.5866
27.9367
0.202827
18.7768
0.159996
0.185269
31.5728
-0.523591
-0.00825612
0.234881
0.280279
1.40926
0.221586
30.599
0.229519
0.245894
31.5602
0.203569
0.173553
0.269874
0.155039
0.247907
0.25528
31.596
0.249513
0.114551
27.8586
0.250487
0.32071
19.5667
0.189096
0.270233
0.288217
0.274736
0.286919
0.156026
31.1328
0.266658
0.254599
32.9182
0.237874
0.183573
0.210176
30.6031
0.196699
31.6213
30.5814
30.6375
30.5786
0.285484
28.3001
-3.77411
31.5202
30.3102
0.281317
0.242283
31.5128
0.235641
31.5241
31.5482
31.7106
0.164591
0.292723
28.0562
31.3444
30.598
30.6014
0.0728982
0.142789
27.3368
0.252183
-1.24543
30.6284
0.280249
0.223353
0.345409
30.5705
30.5905
0.282259
0.190188
27.7972
30.6164
30.5143
0.163759
31.5543
31.507
30.5985
0.254939
0.277394
30.5737
33.9119
32.8675
0.593674
30.6268
30.5629
0.214108
0.037951
27.7338
23.9361
4.84175
0.235602
0.0109709
30.4628
0.145439
0.280765
30.6051
31.6992
30.5768
30.5939
30.6166
30.5724
0.315977
31.5267
30.5808
30.7973
0.294536
0.179512
31.5323
31.7546
0.185878
0.167307
0.194852
31.5036
30.5847
0.168488
31.545
0.222019
0.143211
0.199047
31.4341
31.5294
31.5288
30.5991
0.337667
30.5851
30.5664
0.174795
31.5286
0.223874
0.323918
30.6508
0.212027
31.4235
0.192472
0.25511
0.174278
0.213472
-4.62467
29.0358
0.179936
0.21173
0.0115548
31.2381
-7.93301
28.6727
0.108537
30.6104
0.181165
0.230509
0.164271
32.3292
31.5304
31.5554
0.171558
29.3332
-0.0529425
29.8804
0.277756
0.152965
0.0672804
0.178436
30.5779
30.6508
31.0093
0.169819
30.5742
29.0177
-0.241255
30.617
30.6445
31.5366
30.5801
0.0798015
30.5014
30.5938
-5.71263
29.2635
30.6947
28.3241
30.5935
0.14837
0.0883339
31.519
0.26952
4.39477
0.148272
-1.12553
0.161826
30.6235
0.216687
0.219415
0.146694
31.545
-9.97808
0.0622497
26.0166
0.0218828
-0.101993
-0.0299302
0.174634
0.138979
-0.185099
0.154667
0.131542
30.5218
30.6228
0.0656268
0.015304
30.623
0.0808981
0.27138
0.119846
30.5548
-0.103235
30.5957
0.102103
0.0839747
30.5696
-0.290332
0.144053
-0.253651
-0.0610292
30.3873
0.254407
-0.231017
0.07945
-0.249299
0.145982
30.5542
30.6371
0.221533
30.58
0.344407
0.0105985
26.997
-1.51697
-2.8984
-0.819183
30.5802
25.6684
0.184201
31.5502
37.7689
0.131845
30.5423
30.5632
-2.49571
-3.03191
30.5802
-0.102611
30.5945
30.5898
31.5576
31.5275
31.8346
31.5426
0.214029
30.5785
30.6158
30.6408
-5.33443
0.38075
0.227142
0.173337
30.6288
30.5586
0.131121
30.5879
30.5769
23.4211
0.118587
0.196005
30.57
30.5451
30.6062
30.563
30.389
30.5569
0.0390125
30.5814
-0.424543
0.242152
30.5998
31.572
31.7402
-0.117344
31.7089
31.5303
30.663
-0.467889
30.592
0.0651046
0.0628745
-0.344967
30.5644
21.2993
0.165287
0.225797
30.6745
-0.402231
0.216268
31.5506
30.4589
27.6584
30.5492
0.179987
0.227575
0.0794368
-0.989674
30.5728
0.176091
30.3334
27.4469
27.4862
30.6161
0.257194
30.5937
31.7812
0.0949473
0.180895
31.7704
0.268327
29.3669
0.00120143
31.9923
30.5927
30.4894
31.5293
0.145462
0.257321
1.90228
30.577
30.759
0.105719
30.5802
28.3939
31.5304
0.228668
-1.0342
0.390581
31.4746
0.0604249
0.109949
33.0384
0.112263
30.5944
0.143229
0.183015
0.177942
0.00688904
-0.338188
30.5832
30.5945
30.5919
0.0590463
30.8898
-0.0836557
31.5597
3.211
31.5132
0.261876
0.266796
31.7893
30.5803
31.8569
30.6473
-0.099141
31.8868
27.6887
0.0814442
-0.0780228
31.7344
28.2637
30.9092
28.3468
30.5676
30.5846
-0.0539696
0.321401
31.527
31.4857
-2.10508
31.5564
-0.0556346
0.146349
30.8903
0.174442
31.5292
0.061725
30.5946
0.267213
30.5677
-1.91603
-0.840964
-0.217966
0.149894
0.137166
18.9475
30.2786
0.181754
31.6891
0.247566
31.5117
30.7147
30.517
30.642
30.7386
30.622
0.0892448
0.0398107
31.5302
26.6793
31.5403
0.101173
-0.114212
31.5236
0.258991
-0.222717
31.7411
0.159245
0.127667
0.239176
-0.216626
30.5802
30.5837
30.7082
30.579
0.223973
30.3217
0.179188
30.5888
0.151487
0.272717
30.6087
0.119694
30.5693
30.5784
0.134263
0.00187724
8.82947
30.5904
31.834
30.5364
0.228127
30.1259
31.7474
30.1983
3.83271
27.0457
-1.69201
28.2341
30.0562
31.092
0.115687
0.0508804
0.282129
0.244441
31.4906
0.157006
30.5991
30.6158
0.0877232
30.4686
-2.14742
0.149319
0.172254
0.142344
-3.428
0.216581
30.6097
-5.23723
-11.3234
0.238779
0.187837
0.21282
22.3156
31.5138
0.239492
31.5327
30.5636
-0.575987
0.234077
-4.01039
30.5309
29.9124
0.0492194
31.7419
30.5672
0.112339
31.8169
31.7728
0.538464
0.123204
-0.0321815
0.32884
0.168623
30.5787
30.5817
-0.708833
0.236006
30.5774
31.7939
0.366586
30.6089
26.5112
27.171
27.3254
17.6816
26.588
30.5833
0.293363
30.5164
0.027304
30.5737
14.0007
30.7884
30.6582
30.6119
30.5829
0.332444
30.582
30.5802
27.797
30.5507
30.6131
30.5786
0.218244
30.65
0.20423
0.0120749
30.6689
0.403379
30.5751
0.183874
-0.364041
0.106235
0.126062
31.4096
0.122605
0.314698
-0.227606
31.5545
-0.072715
0.203259
0.123334
29.4256
0.084813
30.8442
30.605
30.5844
30.5724
0.108517
30.5945
30.5283
0.102707
-0.171005
0.0297479
30.6511
21.9019
0.344468
30.6169
-1.07606
31.7293
0.0756973
30.5486
30.5605
0.217104
30.5557
0.262796
31.5446
30.5736
0.209099
0.115144
0.171617
0.243314
-0.159511
0.199684
30.5734
32.1601
0.252736
0.176421
0.241454
-0.0374619
30.5807
0.196665
30.5769
31.2252
0.222773
0.0762987
30.6127
0.156623
30.5561
0.172426
0.158713
30.871
30.5731
30.5999
0.254938
30.593
30.5934
0.258248
0.173004
0.163702
0.109003
30.6527
30.6442
0.295724
0.309105
30.5925
0.236252
30.9094
0.229765
30.5765
30.5753
0.158117
30.5779
0.203264
0.294255
30.5885
30.5736
0.198016
26.025
0.325252
31.529
0.0973234
31.5727
26.7823
25.8967
0.291617
27.9822
27.6856
0.215101
27.5207
17.2165
25.4938
30.8048
31.5354
-0.349053
0.297036
30.7519
30.5875
0.194094
0.260804
30.6076
0.249963
30.5712
31.555
0.268893
0.265226
0.482914
30.5714
30.5998
30.591
30.5799
30.5435
30.555
30.5672
30.544
30.5624
30.5659
30.5889
31.5416
30.5939
30.5699
30.5721
31.238
30.5699
30.576
30.5824
30.6896
31.3355
0.310902
30.5912
30.5707
30.6458
0.251288
30.6266
31.5545
12.0544
30.5158
30.1518
0.222362
33.0295
30.3642
14.1615
0.203898
30.5875
27.1209
29.1027
30.5639
0.179816
0.199986
0.203771
0.141495
0.197167
31.6388
30.5398
0.182586
0.205618
0.147574
30.5659
0.208646
0.232457
0.235098
0.0934237
0.139602
0.147922
0.148124
0.21441
31.5931
0.254564
0.257073
0.261502
0.219401
30.5936
30.5879
30.5977
31.5294
30.5837
0.206656
0.225397
30.6048
30.5635
30.5624
31.3687
30.5726
31.5273
30.5863
31.5429
0.21066
-0.153365
0.233634
0.358459
30.4651
30.6178
0.167008
-0.655545
30.573
30.5817
0.239397
31.5967
30.5877
0.337238
0.162207
0.200517
0.343311
0.189314
31.6243
0.0744808
0.250921
27.6983
31.532
0.199907
31.6088
30.6109
9.82716
5.41316
0.26888
31.1579
31.4523
0.166813
0.247974
0.130411
0.207
13.7937
31.5254
0.250973
32.9319
31.5535
30.3352
0.238978
30.5697
0.213271
0.045426
0.195966
0.227814
31.5636
0.25889
31.5529
29.9262
31.5437
31.4878
0.126978
18.1534
30.5814
31.5266
33.4356
0.217523
27.5003
0.151432
0.195671
0.114041
0.203632
31.3913
31.4864
26.6579
0.261378
0.206637
-3.27569
31.6994
31.5281
27.3633
0.226173
0.138616
30.5749
0.0199272
10.2447
0.241689
0.171019
31.5232
26.6377
0.161909
0.207379
30.5957
0.28925
0.277083
0.214731
0.0872361
0.170657
0.242369
27.7021
0.164631
0.180314
0.191463
31.9444
0.221026
28.039
0.296666
0.186913
31.5545
0.103658
0.167472
0.136172
0.247348
34.9911
8.58868
0.126252
17.3206
0.169579
30.613
0.108671
0.182384
31.5401
30.5834
-1.0913
-0.0958665
0.27036
34.9162
0.264866
-0.440097
-4.19533
-0.0555175
31.544
31.6252
0.199351
33.3757
0.20462
-0.497776
0.179859
0.15948
31.5233
0.264987
0.199748
31.5123
27.8372
0.187878
31.5963
0.173999
0.192473
31.5344
35.127
0.257107
31.5172
30.5705
30.6097
0.143252
0.504684
0.259417
31.7603
0.246324
0.168591
30.7942
0.157723
0.112035
0.12036
-0.200146
30.5795
0.17364
0.234017
0.154753
0.123331
0.133046
-0.263191
0.293159
31.5283
-0.16889
0.116218
31.5267
0.146891
30.6292
30.5907
31.5525
30.648
31.536
0.289437
30.6042
0.145677
0.175652
31.5589
0.315928
31.3073
0.0970874
31.541
-0.305324
30.6541
0.238762
0.318104
-0.362546
0.238219
0.121742
0.264227
0.141816
0.25019
11.3167
0.201214
0.153507
0.244619
31.5489
0.284414
-0.118012
0.204161
0.243165
-0.297268
31.5549
27.2186
31.5265
0.2792
31.5203
24.78
0.121797
33.5604
0.326633
31.4814
31.4181
30.5812
0.227537
0.412232
0.185027
0.146733
0.132767
0.179917
0.231288
0.185707
0.102349
0.220821
0.189704
31.6146
30.4178
31.5228
0.232904
0.256324
30.7071
30.5806
25.3027
0.29123
0.11318
31.5232
0.188149
31.5223
-1.3195
0.289005
0.0860739
31.5303
31.5285
0.168233
31.5285
0.234332
0.177243
29.9231
0.231534
0.243077
0.127873
31.5105
-0.100717
28.0515
0.164365
0.249164
31.5357
31.591
0.160034
22.2896
31.6588
0.217642
0.15098
31.5314
31.4449
27.8696
0.154723
25.2449
0.208656
0.161447
0.267106
31.5259
28.1956
0.153571
31.5257
30.6111
31.5425
31.5343
28.6247
30.9194
30.314
31.5182
31.5634
29.3062
33.5853
30.5896
0.26904
30.6252
27.1015
25.6378
35.5899
27.6351
31.5281
0.161919
29.6077
30.8603
0.161068
32.8368
34.2772
31.1817
0.136316
33.4648
0.183936
0.0146061
0.307526
28.7817
31.5329
0.21447
-1.30658
31.3621
31.5186
0.231539
28.4647
0.222812
28.1718
30.514
30.9972
0.231407
0.245767
31.5279
0.241697
31.6852
29.6096
-0.391772
0.25931
0.1715
30.5942
0.224583
28.9791
0.18525
30.5741
31.5123
30.5699
28.0299
0.226885
0.225809
31.5514
-2.66546
31.5504
31.6094
31.5488
31.5278
0.187362
0.132039
0.200817
0.283134
31.3938
0.275546
0.242644
0.209665
0.165529
30.8002
0.189128
0.290175
0.12458
-1.19361
0.234934
31.7117
0.146302
0.190281
0.228747
0.223437
0.105819
31.6339
0.146385
31.1216
31.548
0.225641
31.5673
0.297632
31.5264
31.7748
30.3051
31.5427
31.5461
0.120979
31.5357
0.19512
28.903
30.6139
0.237685
0.275066
0.221412
0.163744
31.6131
3.16659
31.5474
0.215874
31.7802
0.219198
0.163765
0.225783
0.239012
31.897
31.9248
31.5402
0.200449
30.655
31.4875
0.189216
30.5274
30.5666
0.298587
31.8968
0.120312
-1.18078
28.7056
30.0257
29.7853
0.156243
0.215122
31.5249
0.0383096
0.203964
28.0815
0.211416
31.5344
0.171623
0.282671
0.246067
31.5322
0.270046
0.173172
0.180692
0.258648
0.279435
31.5337
31.527
-0.0530957
31.499
30.5697
31.5255
0.155813
0.211141
0.214663
0.0790169
27.6064
0.22014
0.225409
0.22217
-0.0428134
0.289007
0.204847
0.283484
30.5816
30.5813
30.5789
0.357784
30.5989
0.127272
21.1814
0.247074
-1.82633
0.133141
0.115347
30.564
31.5376
0.252811
0.239576
31.5905
30.5593
31.5529
0.15758
0.241288
0.230396
0.279097
0.12446
0.21357
31.5207
31.5449
31.5297
0.195348
0.187744
0.0393887
0.246696
0.224248
0.266997
31.4097
31.5266
25.5172
30.7317
0.139344
0.304028
31.5074
31.6448
31.5569
31.5585
31.4041
30.8892
0.230583
31.5292
0.114481
-0.0771887
30.593
0.258663
0.114789
0.163451
31.7157
31.0668
0.231967
31.5293
0.227387
-4.45351
0.167101
30.6901
23.9119
30.5758
31.534
31.5007
30.4419
8.71814
31.5766
0.301068
0.236446
31.5424
31.5321
0.226739
31.5435
30.5943
0.196794
-0.430711
31.4737
31.4675
30.7367
0.160865
31.5286
31.5265
4.9921
0.168741
0.232713
31.5216
30.5895
28.8649
0.209062
0.220255
0.210003
0.220512
30.573
0.2427
0.0931884
0.072531
30.3874
31.5295
31.5278
31.357
31.5295
0.208147
0.222298
0.180928
31.6194
31.5384
31.5274
31.5232
30.8407
0.160196
0.463769
0.0917377
30.5748
31.529
31.7626
-3.59602
0.12471
0.081448
30.5838
-7.34339
33.0304
31.3818
31.5263
0.229623
0.298264
31.5237
31.645
0.251596
31.5343
0.163663
0.230468
11.1701
31.5081
30.7575
0.198146
0.0796709
31.6571
10.4065
0.246143
0.351128
31.5289
31.5353
31.5855
31.5662
0.131486
0.180906
31.5367
0.123085
0.213568
1.19539
31.5258
31.5159
31.5168
31.5379
0.282306
33.5314
31.5274
31.1115
0.146566
0.179763
0.178528
31.4054
31.5394
0.240837
30.5271
31.5329
31.5307
31.5285
0.240078
30.8062
30.5219
30.5812
0.133461
0.275703
31.5057
31.546
31.448
0.248943
32.6092
31.5326
31.4551
31.5474
31.5435
-0.420916
0.306726
31.7156
0.259313
0.27796
0.220885
31.5705
31.5541
31.5398
31.3906
30.5691
0.243219
31.5296
29.5721
29.4481
0.222514
30.6337
0.17903
31.5285
30.6046
0.240773
1.545
28.2585
0.259141
31.5306
0.24519
32.5867
31.5962
31.7171
36.3742
31.5464
0.166182
31.501
0.219759
30.6063
27.8751
31.5637
31.4976
0.111237
0.396553
30.577
10.8356
30.5968
-0.000698494
0.14857
0.299002
30.6149
-1.0144
0.161982
0.117204
0.310598
-2.07644
0.143757
30.4763
30.571
-2.57158
0.174079
0.240684
31.6528
30.1649
25.6434
13.2808
31.5544
30.5833
31.5482
31.5549
31.5616
33.2087
0.395805
0.0438553
0.240595
27.9249
-0.0184491
31.5467
0.249113
31.5285
31.5802
30.5915
30.8718
-0.0794547
30.7771
30.5843
31.5266
0.2416
31.5171
31.5345
0.13693
31.411
23.1431
19.8906
18.5618
31.5613
19.4329
18.7956
19.2295
22.0032
30.5695
30.5731
0.220529
0.214185
27.9576
28.6237
30.5713
0.2078
32.767
30.9532
-0.0719806
31.5304
31.5298
0.14069
0.0345295
31.4115
30.5711
0.233832
28.1756
30.5296
-1.20522
0.21903
0.38165
31.265
0.281116
31.5522
0.16818
-1.19236
0.254343
31.5278
-1.1722
0.278584
31.8843
-3.73717
31.4828
0.248888
30.1524
0.317199
31.2369
0.117233
31.5196
30.4005
30.5998
-5.42048
-5.4485
31.5954
0.228737
0.353758
31.7346
31.5249
0.122711
0.0277832
-0.105899
31.5773
0.266693
0.258615
0.147688
-2.98912
31.5618
-0.291939
30.6113
-0.225938
31.5288
-6.48507
-7.56558
31.4383
0.210107
30.8139
0.150391
30.5752
31.4433
31.5684
31.6034
31.434
31.4782
0.259936
0.251599
-0.243739
31.5516
25.4631
-0.20197
31.5484
31.3795
31.6439
31.5239
31.6407
0.0967524
31.527
31.549
30.5706
0.0774009
31.4624
30.5848
30.1948
0.169057
30.5876
0.0361287
-2.70035
0.0503162
0.154723
-0.0480898
32.885
31.5365
31.5207
0.284112
0.189979
30.2778
25.3154
0.0740177
31.5352
31.5543
-0.164805
31.478
0.259474
31.5255
-0.0189114
0.105854
31.5515
30.5692
31.5237
31.5498
31.526
0.233429
31.5132
0.0815548
31.7929
31.5264
0.137353
30.5735
0.236836
31.1183
31.533
0.220484
0.233796
-0.0921521
31.5483
31.5481
31.5297
0.259045
0.00492568
31.8192
30.5792
30.6039
0.164511
31.4891
0.272062
-0.161394
31.5214
31.5018
0.158143
31.5062
30.6047
30.5886
31.8476
30.5948
-0.228459
24.9547
30.6621
31.541
25.6105
31.5016
26.4891
31.4094
31.4962
31.0097
0.200756
31.2508
0.118702
31.4604
31.4933
0.0955167
0.177725
31.4732
31.3983
31.5254
0.120616
26.9529
31.53
30.9511
31.51
0.161068
31.4822
-0.330517
31.5548
0.209626
27.7958
0.189245
31.5776
31.5268
0.251491
26.3073
31.543
0.179895
0.215354
31.6246
31.5503
0.197839
0.0951551
0.164108
0.113936
0.109059
0.247882
0.188752
0.160738
31.8094
-0.374863
25.1813
24.7315
31.5282
31.5058
31.5263
0.177859
31.5549
31.529
31.5542
-0.141585
0.140757
23.9633
0.134416
31.5536
0.232347
30.5531
0.138248
0.215148
25.4711
0.278253
31.486
31.4043
30.5816
0.210149
0.212433
31.5292
30.5909
0.187837
31.5445
-0.135255
31.6993
0.0402784
31.5287
30.581
31.4658
30.5771
0.178666
30.5774
1.48679
30.6063
0.233813
31.5217
31.5053
17.492
16.2083
31.5958
31.5098
31.528
31.5446
0.253846
-0.182792
21.0522
31.5549
0.256931
30.5679
30.6318
-1.31167
0.255586
0.0784004
30.5835
0.145683
0.185871
0.215195
0.237331
31.5325
31.5597
31.5766
31.5542
30.5838
30.5755
30.5823
31.3904
30.5853
30.584
31.5285
30.58
-0.0495362
30.5746
31.5182
34.5102
31.5479
31.5271
11.1047
30.5736
31.5181
0.183207
-0.00414605
31.4215
31.4649
31.5302
0.248682
30.7427
31.483
-0.0684502
30.5928
31.5191
31.5197
31.5476
0.156789
30.5841
-0.302883
31.5555
31.4775
31.5182
31.5231
31.5091
-0.0589532
-0.196301
0.178977
31.5493
30.6548
31.6893
-0.110079
31.5132
-0.178119
0.0458917
30.5781
31.4601
23.9237
-1.23842
31.4432
28.1846
-1.18565
24.2459
0.253337
30.7235
0.150374
24.1106
22.5728
31.5276
0.257315
30.5947
0.203769
0.108513
31.5498
0.253428
-0.740407
31.5217
0.0598737
30.5777
31.4505
31.4894
31.4334
31.4858
30.5775
31.5128
31.5428
-0.246283
28.5409
31.5265
31.5242
31.5103
31.5245
0.232731
16.3972
-0.135423
-0.816453
31.5138
0.303727
0.250254
31.5275
28.1015
31.244
31.4695
31.6182
31.8589
25.8718
28.7723
0.132548
31.5342
31.5676
24.5008
26.6259
30.5809
0.217346
31.5411
30.6251
31.547
-0.0118139
31.5608
30.5737
0.205994
30.5885
30.4518
31.1485
31.7378
0.210072
31.5271
31.5217
31.5157
31.4616
0.242448
0.0559315
0.0912038
0.231803
0.185555
0.14695
30.5926
26.3177
-0.26719
0.179669
26.2737
-0.225269
31.5246
-3.91443
30.6438
-0.024922
31.5334
30.5826
0.177897
-5.15806
31.5312
0.175595
31.5385
31.5441
-0.0432633
0.123211
31.5407
30.5783
31.6889
30.5796
31.5071
27.4938
31.5465
31.5293
0.165632
31.5451
31.5132
31.5179
0.206478
31.5634
27.66
30.5844
30.5657
29.3107
27.8087
0.20132
30.5805
27.844
0.198534
31.5172
0.128972
0.207917
31.5248
0.200329
31.5251
29.9251
31.7823
27.2794
30.6067
31.4642
31.5216
31.5594
0.261676
31.5528
31.5398
31.539
31.0348
31.5234
31.2328
-0.112121
31.5284
31.5585
0.0646885
31.5299
30.5826
30.6075
0.315031
31.53
-0.332029
26.948
-1.1257
0.0830673
30.5713
26.2937
0.210225
25.2314
30.5852
-0.405393
-1.11613
-0.00824271
0.0917402
-0.635887
-4.25002
30.6988
30.5829
0.255197
-0.0364618
0.0107543
0.278503
-1.17611
30.5911
0.113014
0.201822
0.227852
30.6184
0.250366
0.118318
0.203214
0.244595
-0.126624
0.126093
0.217702
0.194573
0.00826285
0.190801
0.254139
27.7168
0.364519
0.03397
0.231628
0.188096
0.106114
0.257609
0.0674871
28.3522
-0.0809965
28.1536
0.266169
0.273425
0.0951352
0.182628
28.0999
30.5719
0.243989
0.225748
-0.166605
0.08123
0.150452
0.223234
19.4873
0.275426
31.5286
0.39549
-0.0795231
0.129015
0.23138
-0.18688
-0.324486
0.253188
0.193581
0.0870029
0.23422
0.231008
0.514668
24.6898
21.7147
0.219504
31.5336
31.5292
0.222992
0.309014
0.11658
31.5247
0.0424595
0.113098
0.216937
22.4902
31.5222
-0.467179
0.0376409
-0.108722
31.5609
0.19169
31.5313
0.217689
0.245385
0.125888
0.13234
31.5147
31.5369
0.189641
0.277483
0.330005
31.5049
0.229483
0.330957
0.185794
30.6093
0.223791
0.0836949
28.0832
0.201056
-5.55285
-0.0730808
30.4323
0.0885792
-0.0288647
31.5288
0.281478
0.091953
5.92259
0.200633
0.306756
0.135183
0.32582
0.146158
-0.0729929
-0.550052
-0.129212
0.392839
0.130713
0.181047
-0.298708
0.246579
0.245332
0.295143
0.270782
-0.255106
0.213161
31.5305
0.263658
0.222133
-0.0787046
0.209728
0.158136
30.6699
0.260241
0.218538
31.5118
0.0272187
-0.0147665
0.246924
0.27912
0.12078
-0.168017
0.278771
0.199858
0.11063
31.5295
31.5294
0.14563
30.6174
0.157591
0.299043
30.8515
0.120331
0.209151
0.0184202
31.5389
0.228369
0.221312
0.0779553
-0.189831
0.211696
0.232581
0.216886
0.260844
31.5289
31.4459
-0.0207828
0.167913
0.0933954
0.273181
31.4433
0.16848
0.324811
30.8475
0.17111
0.252079
-0.299481
-0.479937
0.184106
0.107298
0.204198
0.269403
30.6403
0.300948
0.157237
0.262537
-0.41198
31.448
0.222096
32.0647
31.5272
0.201917
0.200085
0.206823
0.878821
-0.12694
6.23156
30.5935
0.121897
0.364007
0.472079
0.206718
31.5435
30.6142
30.574
0.184224
0.205155
-0.514436
0.221212
30.5552
31.4617
0.145769
0.219807
0.143257
0.226303
0.201496
0.326065
0.141868
17.6818
30.5724
0.254048
0.0807783
31.4577
0.214119
0.303839
0.0996242
0.270583
0.226338
0.178213
31.4601
0.263022
0.22053
30.612
30.6173
0.141252
0.318083
0.136225
0.111152
0.273229
0.343017
0.177687
0.245434
0.289216
0.0785222
31.4449
31.416
0.0450139
0.136579
0.276576
-0.0151297
0.276189
0.197709
0.255367
0.237863
0.264164
30.5845
30.644
-0.0523147
31.4404
27.4971
0.252042
0.201211
0.179115
-0.0126808
28.7643
0.178537
0.0631207
29.2899
-0.0246412
-0.440928
0.26821
0.283437
0.0904913
0.311857
-0.209948
0.124128
31.5283
29.0657
0.0283568
0.157729
0.185816
0.150002
-0.102452
0.167113
-0.0804057
29.1668
0.311593
0.259137
0.229146
-0.113283
0.164117
-0.0327837
-0.422552
0.228467
0.136308
28.7404
0.272662
0.294672
11.463
27.3008
25.1345
0.326534
26.6863
0.0643977
0.273578
0.21479
0.317216
-0.0891854
20.3589
12.4489
32.3147
27.001
0.144833
30.5764
30.577
-4.64635
31.5181
0.235269
0.224687
0.120883
0.21828
0.217761
0.24915
25.2161
0.140788
0.107241
0.159175
0.226168
0.230233
0.251187
30.5816
-0.442554
0.237614
-0.123294
30.5788
0.242261
0.196514
30.5784
31.4804
0.00779655
0.198631
31.6774
0.285779
0.277528
-0.00678864
31.5424
30.5777
0.112436
-0.436969
0.301314
30.5802
30.5398
30.5794
0.267599
10.4699
9.5658
0.0755896
-1.08747
31.5823
0.18649
-0.998096
0.259383
0.109193
0.0367527
0.171703
-1.58166
0.14142
30.8041
0.150709
0.209421
0.0723455
0.236392
0.0964377
0.174138
0.0917553
0.114941
0.130513
0.0894943
-1.13811
0.250845
-0.014369
-0.15831
-1.41854
0.00132911
-1.06459
0.0910403
0.157296
0.212345
0.233273
0.110191
0.206394
-1.09024
0.152258
29.9851
0.240405
15.501
0.208013
0.198071
30.6148
0.215355
29.9849
0.210906
30.0953
31.6291
0.350555
0.169127
27.5102
0.16027
0.262034
0.198664
31.466
31.546
0.390605
0.101114
-0.240714
0.219707
0.17276
0.188345
0.0894272
0.235745
0.218493
26.1103
0.248519
30.5809
31.3323
0.230922
0.194616
-0.0129188
0.224748
0.179908
0.250577
0.209073
31.1518
-0.0798272
0.160497
0.24355
31.1886
31.5765
0.242776
0.232572
24.7257
0.156909
0.133585
0.251511
-0.511744
0.200011
0.24408
31.4845
18.4826
0.230187
0.0533215
30.8734
0.259734
0.129975
0.206983
-0.0891943
0.178221
-0.207805
0.238685
0.17734
19.5487
0.156388
31.5268
0.232407
0.211706
0.192078
0.0706059
26.4298
0.0592641
0.0210889
0.23091
-0.093245
29.7639
30.5819
0.235293
0.0718954
0.254262
0.251615
0.157888
0.18029
0.00340124
0.212741
0.182643
0.100818
0.124982
28.2455
-0.186488
0.178661
0.0229267
0.146315
29.0211
30.5689
-8.99576
-0.0913823
32.6927
-0.188773
0.196358
29.5139
20.2065
21.9594
0.11361
0.204
1.05737
23.488
0.010332
0.250695
30.4857
0.948849
27.6121
0.205122
0.159938
30.7214
-0.0954354
0.209365
0.194417
0.195731
30.5722
-0.676197
0.145148
0.033128
0.233423
0.259412
0.202972
0.258184
-0.289985
0.201847
0.138041
0.200229
31.5157
25.9311
26.3106
30.9245
0.16219
0.228631
0.258351
0.0624975
0.152117
0.239046
0.22802
0.20978
0.209034
0.182477
0.229526
-0.0205646
0.264794
0.184468
31.5264
0.143911
0.0627423
0.218399
0.262428
30.4622
0.168283
0.184676
0.39354
0.243631
0.23721
30.6364
0.276203
0.228298
27.5587
0.271824
0.225886
30.9044
0.176049
30.8684
30.5988
0.173232
0.0412129
0.240246
0.241697
30.5779
0.171233
0.149546
30.6148
0.284363
0.231119
0.23215
0.213873
31.0284
0.169464
0.178883
0.286917
30.8683
0.239216
0.137719
0.246247
0.20608
0.192794
31.6557
29.9238
28.3637
0.12539
28.8821
0.23322
0.15328
0.125606
31.4249
0.121773
30.7189
31.5258
31.3201
0.251652
-0.051372
-0.444072
0.271208
0.267006
30.106
27.6075
0.165704
0.124906
0.259314
-0.293241
0.23056
-1.17771
31.5316
23.0729
23.5369
30.5703
23.836
0.0779392
31.5299
0.268023
0.219618
0.263585
0.0753859
0.22507
25.4083
0.120436
0.261623
0.240106
0.149778
25.5744
31.5318
0.183025
0.175167
-0.781747
-1.77147
-0.070081
-0.271691
-0.665536
-0.406465
0.245541
0.0485321
0.206293
-2.80942
0.193807
0.266494
0.215224
0.203557
0.175869
-0.102301
-2.06253
-1.6121
-3.42601
-4.6167
0.191334
0.107031
30.6276
-3.81168
-7.56153
0.154472
0.113946
0.0419425
0.269295
0.329478
-8.24426
0.116923
-0.058209
31.6611
0.244135
0.169543
0.210829
31.5449
0.134104
0.115682
0.131928
0.202466
31.5737
31.6811
0.227095
0.132194
0.164793
0.0662504
31.3842
31.5284
30.5939
0.256835
0.238228
0.104244
31.5387
0.174079
31.6994
31.7928
0.149726
0.123116
30.5609
0.120005
0.146473
-0.0657149
30.5773
31.5417
0.171938
0.266813
31.7298
0.115057
0.260162
-0.157755
31.958
31.9845
31.8533
-0.166946
0.118887
0.191193
0.268705
30.5547
0.128815
0.217845
0.166182
0.213288
30.7517
31.5188
0.33536
0.0990085
0.0983741
0.237513
30.7424
-0.382743
30.5861
0.1365
-0.0676935
0.213591
30.9395
28.6269
0.0350997
0.152972
28.0766
28.2489
30.5822
0.301804
30.2692
26.8426
0.219049
0.226392
30.5871
27.6135
0.235635
0.300205
0.16689
0.219768
0.216786
28.0882
0.273368
25.768
25.119
31.6185
0.210661
0.281424
0.105919
25.2664
33.8462
0.300363
-0.0618642
0.316479
0.254953
0.229848
0.256632
0.218716
0.359125
24.7943
0.200408
0.118399
0.336974
0.262945
0.196682
17.9292
0.213074
0.208992
0.223104
0.212934
0.151862
23.9997
28.6141
0.237597
28.8494
29.2332
0.260096
28.909
0.238221
28.2213
28.5734
30.7644
27.4441
0.235277
0.152237
0.181644
28.1659
0.194647
0.222935
0.141279
28.6346
31.5307
0.241914
0.24624
-0.242968
0.245126
27.268
0.045413
0.201353
0.122941
30.5678
30.9762
0.242497
0.154654
31.0858
28.7362
0.130013
0.0189521
28.0975
0.104869
0.0787865
0.118691
0.264382
28.4063
0.234412
4.3651
0.195061
0.39224
0.208261
0.0822749
0.205985
0.201557
0.298005
27.7763
0.247529
0.285448
-0.289684
0.0658826
0.139703
28.5663
0.1665
0.278805
0.203638
0.184984
0.261324
-0.239007
0.527552
0.0268858
0.20345
0.171304
0.197708
0.161627
0.214614
0.246075
0.284555
31.6333