/*--------------------------------*- C++ -*----------------------------------*\
  =========                 |
  \\      /  F ield         | OpenFOAM: The Open Source CFD Toolbox
   \\    /   O peration     | Website:  https://openfoam.org
    \\  /    A nd           | Version:  10
     \\/     M anipulation  |
\*---------------------------------------------------------------------------*/
FoamFile
{
    format      ascii;
    class       volVectorField;
    location    "9.5";
    object      U;
}
// * * * * * * * * * * * * * * * * * * * * * * * * * * * * * * * * * * * * * //

dimensions      [0 1 -1 0 0 0 0];

internalField   nonuniform List<vector> 
111485
(
(2.90943 -2.90991 0.00334295)
(8.51219 -0.0224972 -0.0494104)
(8.38615 0.0199485 0.0259905)
(2.91013 -2.91091 0.000241556)
(8.7133 0.0383424 -0.0033405)
(3.05779 3.05617 0.000266293)
(8.56446 0.0248742 0.00220306)
(8.79758 -0.0251381 0.012183)
(8.56923 -0.00505379 0.00606485)
(8.76945 -0.0953725 -0.0407925)
(8.43664 0.0208099 0.0250209)
(8.82679 -0.0218654 0.040615)
(8.31393 0.00711645 0.0186192)
(8.39801 -0.0176358 -0.0612527)
(8.51184 0.0337789 0.0179529)
(8.69233 -0.0599354 -0.047461)
(8.55534 -0.00961536 0.0128592)
(3.00149 -0.215141 0.444203)
(8.73663 0.0252753 -0.019772)
(2.88937 -2.8855 -0.0014706)
(2.89465 -2.89419 -0.0033886)
(3.06545 3.06443 -0.000266113)
(8.64081 0.0294684 -0.00902196)
(8.77678 -0.0589994 -0.0173961)
(8.59632 0.0330002 -0.00987536)
(2.93307 -2.92011 -0.00355128)
(8.86825 -0.0441042 0.0458555)
(8.39126 -0.0127413 0.00350697)
(8.76262 0.0151588 -0.0198454)
(2.89975 -2.90076 -0.000123879)
(8.83015 0.143397 -0.0374332)
(8.72425 -0.0194634 0.00248397)
(2.88746 -2.89372 0.00427297)
(3.06176 3.06807 -0.00753201)
(3.06893 1.28577 0.488583)
(3.08093 3.10153 -0.0450259)
(8.78749 0.143644 -0.0577672)
(8.50222 0.0311451 0.0744959)
(8.75895 2.65104 0.147658)
(8.72693 0.0423248 0.00322147)
(3.02425 3.05173 -0.0213043)
(8.8234 0.0102052 -0.0510591)
(8.71763 0.0440869 0.0150892)
(8.41072 -0.0506097 0.00157248)
(8.79299 -0.153956 -0.0787498)
(2.91749 -2.89596 0.0152821)
(8.82078 -0.0392502 0.0385605)
(8.76406 -0.0547171 -0.016545)
(8.82396 0.00410072 -0.038325)
(2.89304 -2.85859 0.0162502)
(2.87806 -2.85067 0.0185308)
(3.48015 2.92911 0.0505634)
(2.86848 -2.85748 0.00949176)
(8.80902 0.0406482 -0.0754436)
(2.86113 -2.85007 0.000964521)
(8.70823 0.0233912 -0.00802385)
(8.71105 -0.0372657 -0.0179954)
(3.06543 3.05947 0.00174059)
(7.94396 -0.0178446 -0.140288)
(8.75143 0.035682 -0.00531994)
(8.74987 0.0396959 -0.00381134)
(2.90054 -2.90626 0.00374162)
(8.1116 0.00885193 0.0534345)
(8.85104 -0.0229994 0.0693874)
(3.16051 2.86533 0.0047184)
(7.98107 0.0183866 -0.0154041)
(6.13718 -0.485752 0.216507)
(8.77833 -0.031162 0.0126385)
(7.91597 0.00370002 0.0233868)
(7.48667 -0.0145524 0.00360817)
(8.46874 0.0516081 -0.0428166)
(7.85412 -0.00881211 0.0247912)
(3.14184 -2.8279 -0.0653304)
(8.02356 0.0151883 0.0627629)
(2.90679 -2.90575 -4.3033e-05)
(8.73653 -0.0205563 0.00971226)
(3.06453 3.06461 -0.000519786)
(8.81352 -0.0188023 0.0467827)
(3.06368 3.06178 -0.000402307)
(2.75966 2.69301 -0.0912811)
(8.49384 -0.131043 0.0888879)
(8.77197 0.0343881 0.00768931)
(3.05322 3.04598 -0.000145027)
(2.90722 -2.90737 0.00163346)
(8.26074 -0.00146836 0.0158189)
(7.91574 0.0218066 -0.0328641)
(6.80384 4.41916 -1.18547)
(8.69122 0.102326 0.00918424)
(8.3728 0.215463 0.18447)
(8.47909 0.0110052 0.0254334)
(8.96936 0.179576 -0.114554)
(8.7221 -0.0151243 0.0138309)
(8.15785 -0.0130153 0.0321945)
(8.2933 -0.00951223 0.00939547)
(8.83388 0.0267586 -0.0555832)
(2.9071 -2.90676 -0.00069146)
(2.90206 -2.90118 0.00164985)
(8.68774 0.0956162 0.0298357)
(8.94683 -1.76442 0.125609)
(8.13794 0.0302093 0.0536021)
(2.90705 -2.90746 0.00139991)
(8.73816 -0.0476493 0.0046729)
(3.07778 3.08291 0.0168956)
(8.66626 0.000564628 -0.00473607)
(8.5903 -0.0446425 -0.0553108)
(3.00675 2.69032 -0.063191)
(3.0644 3.06333 -0.000572079)
(8.73182 -0.0239444 -0.00241256)
(8.06704 -0.04432 0.0102133)
(7.73092 -0.229911 -0.245272)
(8.2564 -0.00648416 0.0151096)
(8.67506 0.0122612 -0.00477213)
(8.08985 -0.0049041 0.0327389)
(7.96494 -0.0415882 0.017786)
(2.93495 -2.91917 0.00266066)
(7.65809 -0.00734254 0.0230738)
(2.91855 -2.90912 -0.00353394)
(3.07818 3.0651 0.0127121)
(8.52478 0.0335543 0.024674)
(2.90932 -2.90729 0.00104723)
(2.93452 -2.91926 -0.00142461)
(4.02724 3.17072 0.188169)
(3.03291 3.04519 -0.00589162)
(3.07094 3.06361 -0.00728048)
(8.33297 -0.0208994 0.0407328)
(2.31828 -1.6332 -0.431849)
(3.84031 3.30413 0.116436)
(7.73451 -0.0021263 0.0377622)
(2.90676 -2.90561 -0.0010253)
(8.77615 0.659896 -0.23849)
(8.75911 0.169442 -0.0868136)
(8.67173 0.0980812 0.0289497)
(2.89398 -2.88673 -0.0142883)
(3.94454 3.4312 0.353424)
(3.68139 3.28545 0.154883)
(8.75926 0.0261399 -0.016435)
(3.06672 3.06643 -0.000953293)
(8.69413 0.02047 0.00128293)
(8.63681 0.0400152 0.0233592)
(8.48958 0.0381984 0.0362936)
(6.65424 0.000698891 0.0277019)
(8.7062 0.0450808 0.0107506)
(8.6322 0.044515 0.0281762)
(8.22779 0.00872823 -0.0345095)
(8.60067 -0.0164339 0.00906315)
(8.50627 -0.00441127 0.0214799)
(3.06742 3.06768 -0.000637251)
(2.90707 -2.90832 0.00026504)
(3.05887 3.06055 0.00640121)
(8.71014 0.0381043 0.00650013)
(8.23176 0.0146309 -0.0311878)
(2.89663 -2.89515 0.00184286)
(5.68895 -0.0333838 0.0575552)
(8.49232 0.0408996 0.0191263)
(9.30418 0.376145 0.16314)
(8.75796 0.0258341 -0.0172032)
(8.71824 0.0267614 -0.00694816)
(8.0774 0.0025193 -0.0155879)
(9.39112 0.460126 0.112784)
(2.89095 -2.91822 0.0112522)
(2.90503 -2.90767 0.00275247)
(8.7436 0.0247101 -0.0170993)
(8.56522 -0.0305616 -0.0317724)
(9.45351 0.518351 0.122778)
(9.32454 0.453767 0.168959)
(8.10592 0.0120119 0.0415014)
(8.72375 0.10916 -0.0394266)
(3.02636 3.05165 0.000507937)
(9.56451 0.641281 0.151944)
(9.12564 0.461917 0.140579)
(3.06235 3.06418 0.000843018)
(2.90173 -2.90111 0.000215788)
(6.95308 0.00855616 -0.0540792)
(3.06565 3.06701 0.000359817)
(8.67886 -0.0188815 -0.00363654)
(8.34971 0.00454633 -0.019284)
(3.06488 2.99162 -0.0167793)
(3.14471 -2.88479 0.0312304)
(2.9011 -2.88619 -0.00511203)
(3.02078 2.85337 -0.0295064)
(3.16 -2.90932 0.0507733)
(2.90469 -2.90653 0.00260039)
(8.6902 0.0332252 0.00980629)
(8.70499 0.0209344 -0.0164726)
(8.67349 0.0270999 -0.00872375)
(8.56405 -0.0254117 0.0307891)
(8.25259 -0.02033 0.00677236)
(8.28126 0.0140119 0.0262589)
(7.34332 0.0956167 0.0101607)
(2.90206 -2.89195 1.95659e-05)
(8.01907 0.0013643 0.0102851)
(3.13676 -2.90881 0.0317558)
(2.92827 -2.93336 -0.00148123)
(8.3511 0.015893 0.0298791)
(8.77355 -0.106647 -0.0397055)
(8.68834 0.0174982 -0.0399822)
(8.34144 -0.00984675 0.011122)
(8.49533 -0.0062719 0.00995915)
(2.90162 -2.89686 0.00717683)
(8.33178 -0.0377251 0.00618255)
(8.30876 -0.00884912 -0.0525207)
(5.82025 1.86634 0.245465)
(8.51738 -0.0686638 0.00539801)
(8.63801 -0.0145691 0.0074953)
(2.91555 -2.89914 -0.00468647)
(8.31503 0.0205106 0.0297279)
(8.72897 0.0207623 -0.00724715)
(3.19111 -2.8758 0.0143619)
(8.376 0.0208239 0.0324101)
(8.79222 -0.0063763 0.0447813)
(8.22758 0.00928785 -0.0359174)
(8.29052 0.0217855 0.0390351)
(3.15705 -2.91854 0.0413457)
(2.90011 -2.90029 -0.000794208)
(8.2882 0.0222399 0.041945)
(5.4423 3.41983 -0.337234)
(8.89349 0.0378982 -0.0875368)
(3.06414 3.06522 -0.0018788)
(8.33995 0.0165944 0.0348759)
(8.34748 0.0066119 0.0047213)
(8.84406 -0.0283509 0.0553743)
(2.90918 -2.90787 0.0011307)
(7.78586 -0.00214797 0.0210688)
(8.73732 0.125399 0.0654171)
(4.81083 3.2355 -0.352391)
(3.06572 3.06625 -0.00227091)
(3.06239 3.06407 0.000831798)
(8.93533 -0.0574001 0.0849159)
(8.34289 0.198733 -0.0240285)
(3.22009 2.72145 -0.0624475)
(3.60744 -2.79255 0.114735)
(8.37196 0.00861412 0.0150591)
(8.64523 0.0147334 -0.000852249)
(8.73118 0.0191738 0.00820705)
(3.17419 2.76481 -0.0812231)
(3.06858 -2.82367 -0.010429)
(8.40609 0.100277 -0.119479)
(2.90642 -2.90623 0.00173569)
(7.96989 0.010606 -0.0509988)
(8.27857 0.0055992 0.0347462)
(8.36868 0.0042657 0.0190193)
(8.37926 0.0171335 0.0215531)
(8.41296 0.00969022 0.0286876)
(3.05407 3.05469 0.00946314)
(6.33041 -0.0186964 -0.244175)
(8.51364 0.0182735 0.0328044)
(3.04936 3.05458 -0.00367245)
(3.06424 3.06612 0.00033948)
(8.87313 -0.108197 -0.010597)
(8.67123 0.0390673 -0.0130435)
(3.13759 2.67457 -0.0832974)
(7.89267 -0.00332501 0.0243242)
(8.49694 0.0239257 0.0219462)
(2.90873 -2.90729 -0.000865226)
(3.87218 3.64897 -0.0236219)
(8.72962 0.0800004 -0.0352219)
(2.91994 -2.88179 0.00160945)
(3.23204 -2.28988 -0.0548738)
(4.44843 -1.54871 -0.157994)
(2.9119 -2.9035 -0.00145494)
(8.54671 -0.0153291 -0.01658)
(8.30825 -0.0131826 -0.0164005)
(8.65404 0.0140157 -0.0215931)
(2.90511 -2.90557 -0.000210587)
(8.56516 0.0238041 0.020103)
(2.91011 -2.91086 0.000231439)
(2.90941 -2.91039 0.000734048)
(2.90151 -2.8902 0.00478522)
(5.84018 0.0224829 -0.0907188)
(8.79634 -0.0426489 0.0498295)
(8.3717 0.0310651 0.0433021)
(8.53162 0.0285449 0.0136331)
(8.82861 -0.0512114 -0.00207108)
(8.49176 0.0127666 0.0148873)
(8.7048 0.0316064 0.0109469)
(8.76795 0.149832 -0.0144484)
(8.58124 0.0124284 -0.00346184)
(8.65523 0.0151789 -0.00440531)
(3.11717 3.06758 -0.00186397)
(2.89774 -2.89789 -0.00381341)
(5.33663 0.0332583 -0.13104)
(8.70415 -0.0197598 0.00225526)
(8.77341 0.0663737 0.0712491)
(8.28255 -0.0106631 -0.0136081)
(2.90976 -2.90806 0.000774825)
(8.65831 0.0274994 0.015991)
(8.69457 0.0442917 0.0214071)
(8.51861 0.0197721 0.0109006)
(7.48905 -0.00780751 -0.04003)
(7.85166 -0.0927036 -0.196655)
(8.64467 0.0270304 0.010037)
(8.50767 0.0241013 0.0153521)
(8.66244 0.0666567 -0.0422181)
(3.06474 3.06496 0.000360682)
(7.94637 0.0445864 -0.00268202)
(3.06368 3.06406 -0.00093575)
(2.48886 1.89648 -0.39601)
(3.27976 -2.09442 -0.213658)
(9.00593 -0.0816103 0.11837)
(8.83117 -0.0512822 -0.00175931)
(8.62197 -0.00373757 0.00163728)
(2.91156 -2.90419 -0.000860211)
(3.0514 3.06929 0.0252748)
(8.64822 0.0291332 0.0143064)
(8.27794 0.0183407 -0.0115579)
(2.89827 -2.89753 0.000848795)
(2.90985 -2.90769 0.00239347)
(2.83936 -2.855 0.0229676)
(8.21307 0.011341 -0.00443497)
(8.61615 0.00943031 -0.00896021)
(8.2216 0.00230217 0.0302745)
(7.95191 0.0139587 -0.0425068)
(8.78333 0.0200783 -0.0209251)
(3.50903 3.01287 0.0837421)
(3.05818 3.06552 0.00557504)
(2.90653 -2.90291 -0.00135744)
(8.6118 0.0334534 0.0232173)
(5.57955 -4.72827 -0.33538)
(8.2045 -0.00970882 0.0124551)
(8.94066 -0.0629308 0.196782)
(7.19726 0.00538648 -0.149921)
(3.06594 3.06535 -0.0004387)
(2.90482 -2.90804 0.00204795)
(2.90969 -2.91083 -0.00141938)
(3.85893 3.23929 0.198481)
(8.72408 0.0264317 -0.00337428)
(8.79858 -0.0512371 0.00743622)
(3.07001 3.07788 0.0009961)
(8.66604 0.0242609 -0.00143858)
(3.23583 2.62442 0.184592)
(2.91197 -2.87878 -0.00714972)
(8.8782 -0.0306909 0.07278)
(8.64315 0.0322454 0.0159636)
(8.83261 -0.0121124 0.0208722)
(8.66922 0.0248264 0.000607489)
(2.94602 2.61381 0.158415)
(3.81999 3.28943 0.209225)
(3.05765 3.06155 -0.00437799)
(8.65584 0.0303957 0.011533)
(8.64409 0.0250851 -0.00204663)
(8.8023 0.156229 -0.0530641)
(3.03004 3.02314 0.00552209)
(6.04393 5.35284 -1.27988)
(8.25328 0.0820607 0.0750682)
(8.80539 -0.0420575 0.0210378)
(8.66567 0.0313524 0.0196328)
(8.24979 0.85892 -0.0672668)
(8.78235 0.018938 -0.0245653)
(3.05261 3.05264 0.00133378)
(8.78441 0.0215027 -0.0131881)
(8.43915 0.0120213 0.0177262)
(8.88537 -0.210138 -0.00171946)
(8.9063 -0.0535507 0.109174)
(8.60842 -0.0697407 -0.0636281)
(3.05111 3.06451 -0.0114475)
(2.9033 -2.90651 -0.0054863)
(3.0702 3.0523 0.0116642)
(2.88486 -2.89319 -0.000569185)
(8.78649 -0.0414494 0.000532823)
(8.70701 -0.0128965 0.00334149)
(8.71074 0.0422471 -0.033585)
(8.77646 0.0242149 -0.0273656)
(3.03955 3.04263 -0.0131755)
(8.68913 -0.0642151 -0.0235733)
(3.06122 3.06209 0.00109709)
(2.89635 -2.90465 0.000137864)
(8.77774 0.0249835 -0.01803)
(2.67428 -2.67724 0.0385314)
(4.82151 -0.852438 -0.0683335)
(2.87316 -2.86243 0.00241758)
(3.09027 3.04918 0.0244275)
(8.69511 0.0156376 -0.0123775)
(3.06366 3.06197 0.00111308)
(8.58722 0.0247796 -0.00513247)
(8.16753 0.00470474 -0.0379467)
(3.06902 3.06914 -0.000681876)
(7.86392 -0.00345261 -0.0373661)
(8.5473 0.0153029 0.0123537)
(3.08697 2.71092 -0.0990424)
(8.50957 0.0382552 0.0426394)
(8.04532 0.0428472 -0.00382873)
(8.56439 0.040671 0.0120797)
(7.98063 0.0308132 0.100922)
(8.6431 0.0249347 0.00426998)
(8.25393 0.00215931 -0.0162375)
(3.03042 2.59314 -0.0130833)
(2.8971 -2.89172 0.0173755)
(7.39421 0.0116288 0.173508)
(3.04288 3.05347 -0.0173526)
(8.54926 0.0466673 0.0409605)
(8.88446 -0.0453485 0.0890933)
(3.07763 2.94327 0.0245512)
(3.05706 3.06999 -0.000862056)
(8.76162 -0.0177386 0.0067411)
(8.44477 -0.0398582 -0.087163)
(8.46629 0.0452289 0.00139576)
(8.7758 0.0202236 -0.00777132)
(3.06427 3.05981 -0.00149758)
(8.92338 -0.0250482 0.144177)
(8.78961 -0.0300478 0.0442656)
(3.07342 3.06819 -7.5501e-06)
(8.60201 0.133792 0.109174)
(8.21426 -0.0335188 -0.0888802)
(2.90255 -2.90214 -0.000665386)
(2.89915 -2.8991 0.000920035)
(8.57822 0.025922 -0.00883599)
(8.62951 0.00751156 -0.013002)
(3.07659 3.0767 -0.00389174)
(2.9051 -2.89914 -0.00448812)
(5.13555 -2.75871 0.630599)
(2.90891 -2.91087 0.000608268)
(8.62673 -0.00318404 0.0158173)
(3.04377 3.0553 0.00706079)
(2.90989 -2.91076 0.000223937)
(8.83705 -0.0127455 0.0285376)
(8.00701 -0.0935486 -0.231721)
(8.74075 -0.0523293 0.0118575)
(8.44443 -0.000977881 0.0161819)
(3.07106 3.06893 0.000185949)
(3.97033 3.06405 0.153387)
(8.4418 0.112955 0.161155)
(3.72182 3.28443 0.173569)
(8.41559 0.0359199 0.0661217)
(8.38238 -0.0717414 0.0070999)
(8.75063 -0.0254833 -0.0233453)
(6.09021 0.200232 0.225941)
(3.65222 3.14945 0.157825)
(8.73928 0.0141463 -0.0827775)
(8.85214 0.275568 -0.0880942)
(2.90478 -2.91003 0.00537231)
(8.82561 0.0230452 -0.0873793)
(8.83774 -0.0394419 0.0324011)
(2.91023 -2.90962 0.00298414)
(8.51632 0.489329 -0.261926)
(7.44417 8.44017e-05 -0.102475)
(3.86237 3.0415 0.127809)
(8.80271 -0.0218435 0.0361221)
(8.69567 0.0138865 -0.00983999)
(8.64781 0.0236263 -0.00632902)
(3.06372 3.06109 -0.000862569)
(8.60956 -0.0128748 0.0596844)
(8.83471 -0.00376076 0.028331)
(8.57764 0.0840734 -0.00852433)
(5.41313 -0.0726962 0.0913273)
(3.72085 3.5103 -0.0721708)
(5.10701 -0.129926 0.172604)
(2.90406 -2.90799 0.00213288)
(7.93693 -0.269097 -0.26298)
(8.61145 -0.0144708 -0.0567243)
(3.06515 3.0629 0.00485342)
(8.19182 0.0206248 -0.0628456)
(6.74744 -0.0175368 0.123588)
(3.96547 3.50953 -0.0365593)
(2.90697 -2.90502 0.000184422)
(3.40862 -2.89144 0.0942043)
(2.90922 -2.90806 -0.000340679)
(8.54735 0.0474452 -0.00604114)
(8.63576 0.0464333 -0.0149176)
(8.55851 -0.0244819 -0.0249868)
(8.03836 0.0222414 -0.0451352)
(8.76312 -0.179056 -0.037108)
(3.06235 3.04943 -0.00651756)
(8.50174 0.000335459 -0.0213662)
(2.91556 -2.89419 0.00037002)
(8.41383 0.0315157 0.0202671)
(3.07451 3.07489 -0.00132505)
(2.90704 -2.90447 1.51586e-05)
(2.87735 -2.88549 -0.00387314)
(8.26882 -0.0556096 0.0120481)
(2.89647 -2.89759 -0.00245252)
(2.90858 -2.90883 0.00124627)
(3.02238 2.01978 -0.123544)
(2.90914 -2.91095 0.00102635)
(3.03179 3.07377 0.0289035)
(8.4746 -0.0314845 -0.0132777)
(3.06574 3.06149 0.00113398)
(3.63067 2.68326 0.00531244)
(3.06611 3.06796 0.00367701)
(2.89809 -2.88825 -0.00107774)
(3.06513 3.05406 -0.00422701)
(2.89698 -2.8823 -0.0147587)
(3.04705 3.04934 3.24857e-05)
(7.71088 0.0022149 -0.0662405)
(3.06979 3.05354 0.01222)
(7.90763 0.11736 0.160285)
(8.65641 0.0114806 -0.00345459)
(8.92913 -0.368092 -0.0610067)
(3.07236 3.05695 -0.0006513)
(7.53294 0.0217588 0.1255)
(3.06982 3.0591 0.00295808)
(2.90976 -2.91095 -0.00126812)
(8.53173 -0.0813306 -0.087706)
(8.54378 -0.065919 -0.0793377)
(8.56261 -0.0185861 -0.0236625)
(8.94587 0.0231551 -0.152442)
(3.51944 2.96433 -0.0974966)
(8.76558 0.0103774 -0.0455148)
(8.76193 0.015593 -0.0418177)
(8.6594 0.0158248 -0.000300959)
(8.51851 0.00958541 0.00279395)
(8.67344 -0.088552 -0.0608616)
(2.89651 -2.89804 -0.000792266)
(8.66721 0.012063 4.60798e-05)
(4.00515 3.49035 -0.0250107)
(8.63631 0.0217959 -0.0119222)
(3.06091 3.05751 -0.00110082)
(8.79402 0.0286804 -0.0388769)
(3.9626 3.29318 0.0301925)
(8.67575 0.00771551 -0.0126804)
(8.70139 -0.0412954 0.0319314)
(3.35918 -1.68585 -0.0205548)
(3.06609 3.06823 0.0341685)
(8.5307 0.0152401 0.0149813)
(2.90611 -2.90508 0.000617244)
(8.8318 0.0363989 -0.0572723)
(8.76607 0.0338528 -0.0373688)
(3.06291 3.05377 -0.0244035)
(3.0563 3.05511 0.00754495)
(2.99837 2.69072 -0.0597989)
(3.06266 3.06493 0.00147559)
(6.13072 -0.327548 0.166845)
(8.83684 0.0304862 -0.0550355)
(3.1084 3.03529 -0.00220745)
(3.05881 3.06311 0.00303027)
(7.53493 0.00996632 -0.0177413)
(3.06755 3.06716 0.00017604)
(8.70027 0.0238846 -0.0315981)
(3.06533 3.06462 0.000275653)
(8.61821 -0.0518951 -0.0367981)
(2.90998 -2.91014 0.000515578)
(8.08204 -0.0410265 -0.122979)
(6.67519 -0.0269537 0.00722619)
(8.09578 0.0256138 -0.0174629)
(8.67877 0.00992966 -0.0137146)
(3.07676 3.05421 -0.0100206)
(7.86667 0.00806032 -0.00105233)
(3.07056 3.05971 0.00275487)
(3.06604 3.0669 -0.00832988)
(8.57853 -0.023212 -0.0138732)
(3.06212 3.05848 -0.00140065)
(7.29698 0.00113721 -0.0745149)
(2.95651 2.72247 -0.0900794)
(8.71077 0.0219397 -0.028043)
(2.89961 -2.90268 0.000280648)
(8.78547 0.0217956 -0.019341)
(2.91125 -2.90856 0.000398707)
(3.635 3.21892 0.0931271)
(8.87981 0.323463 -0.0204116)
(8.53528 -0.0730014 -0.0920076)
(8.66421 0.0362349 1.65312e-05)
(8.73602 -0.0991378 -0.0647667)
(8.62492 0.0163892 -0.00877609)
(8.8221 -0.0626463 -0.00618663)
(3.04339 3.06672 -0.013628)
(8.65848 0.0497528 0.027069)
(8.57026 -0.0859976 -0.0888287)
(3.06453 3.06636 -0.0016741)
(7.27118 -0.106692 -0.281658)
(8.85466 -0.0641803 -0.0442388)
(8.50302 0.0367936 0.0323025)
(3.032 2.99069 -0.0170883)
(3.76784 0.762889 -0.598811)
(8.32106 0.0211771 0.0272583)
(6.80597 -0.027029 0.0689637)
(7.0613 1.82384 -0.0147012)
(3.77428 -1.91102 -0.157584)
(8.80506 -0.101865 -0.0229861)
(8.26207 0.0317894 0.0612595)
(8.52991 -0.0805115 -0.0887256)
(8.69347 -0.0488903 -0.0185799)
(8.55058 0.0501039 0.02117)
(7.59586 0.988374 -0.044481)
(3.78503 3.21358 0.0265351)
(7.72024 -0.29021 0.064384)
(7.4533 -0.646944 0.157182)
(2.9037 -2.90529 0.00149195)
(7.60327 0.0533997 -0.0225885)
(3.08055 3.02268 -0.01582)
(3.59257 3.26783 0.0306824)
(8.62295 0.0197405 -0.00462836)
(7.65231 1.302 -0.0454126)
(9.19996 -0.782188 -0.142282)
(8.29087 -1.42988 0.0289918)
(3.58309 3.40572 -0.250369)
(8.76889 -0.0544859 -0.0172482)
(8.65192 0.0504942 0.0391068)
(3.05801 3.04946 -0.00149789)
(3.94077 2.19702 -0.090877)
(8.65169 0.0649824 0.0404492)
(2.9073 -2.89617 0.00315549)
(3.06443 3.06312 -0.000642304)
(3.05491 3.05376 -0.000279737)
(3.06816 3.05222 0.00357549)
(8.76599 -0.090909 -0.0417514)
(3.0653 3.06452 0.00193592)
(2.91717 -2.91701 0.0154169)
(8.60915 -0.0531865 -0.0432821)
(7.91639 -0.00310783 -0.024171)
(4.28135 -3.74791 -0.198642)
(8.65221 0.0634618 0.0389805)
(3.56457 2.88393 0.0647182)
(8.69905 -0.0359086 -0.0197563)
(2.85044 -2.84827 -0.0132307)
(3.05772 3.06383 -0.00226878)
(8.74397 -0.0559006 -0.015959)
(3.06539 3.04696 -0.0118843)
(3.06588 3.05875 0.00168674)
(3.50943 3.35897 0.0968683)
(8.22126 -0.00650238 -0.00555654)
(5.03803 4.22056 -0.558796)
(8.61615 -0.0361774 -0.017582)
(8.61929 0.0190713 -0.00674197)
(2.88159 -2.86285 -0.0229897)
(8.94268 -0.0248258 0.284753)
(8.19184 -0.0503233 -0.123031)
(8.5843 0.00152787 -0.00423777)
(8.68897 0.156748 0.0154533)
(8.73608 0.0868863 -0.188088)
(7.50797 0.00384272 -0.0708146)
(3.05936 3.05606 0.00174242)
(8.75466 0.0095376 0.024012)
(8.6885 0.0367339 -0.00711175)
(2.87897 -2.91706 0.00575256)
(8.0798 -0.00590397 -0.00221555)
(8.76941 0.0482957 -0.0176636)
(8.76803 0.0402645 -0.0146334)
(7.96142 -0.0344389 -0.0789134)
(8.76478 0.0384102 -0.0161939)
(8.76954 0.045948 -0.00498041)
(2.91269 -2.87406 0.0177557)
(8.76796 -0.0186312 0.0449653)
(7.25468 -0.0454534 -0.0137039)
(3.68874 3.20511 0.20346)
(8.76385 0.0325988 -0.0214894)
(8.36265 0.00956284 -0.0199422)
(4.9031 3.99527 -0.601952)
(8.62033 0.0168624 -0.00306636)
(8.7681 0.0278915 -0.0267157)
(8.36586 0.00272437 -0.0350848)
(8.69691 0.0384388 0.0039103)
(8.59707 0.0855734 0.0378466)
(8.63951 0.00772493 0.00732952)
(2.99823 2.93046 0.00444757)
(8.69556 0.0456692 0.00568736)
(8.16181 -0.0539743 -0.110684)
(3.25725 -1.95167 0.0763629)
(8.65375 0.0746515 0.0459205)
(8.54217 0.0709615 0.0696239)
(8.67027 0.028101 0.00135099)
(3.05979 3.05257 0.00270239)
(8.40501 0.0488804 -0.080136)
(2.9068 -2.89419 0.0072256)
(3.06531 3.06554 -0.00208045)
(3.04909 3.02808 -0.00125187)
(3.06998 3.05231 0.000643791)
(7.2753 0.00446195 -0.0333875)
(3.64796 3.14317 0.126598)
(6.57192 -0.462156 0.542143)
(2.89212 -2.8933 -0.000226351)
(3.05831 3.09928 -0.00461964)
(8.6628 0.0861411 0.0444226)
(8.71641 0.0226212 -0.0404616)
(2.90897 -2.90918 6.08584e-05)
(8.72556 -0.0530885 -0.00599454)
(2.90708 -2.90511 0.00847142)
(2.90908 -2.90705 -0.00111742)
(2.85988 -2.86068 0.00858257)
(8.85501 -0.0718969 -0.0100105)
(7.37133 0.0422572 -0.0203041)
(3.61073 3.25465 0.0405163)
(2.93628 -2.90371 0.00781679)
(3.06029 3.07023 -0.00417786)
(3.06222 3.06412 -0.000726155)
(8.91187 0.017762 -0.0981066)
(8.65146 0.0175888 -0.00105958)
(3.63822 3.42158 0.157263)
(8.81351 0.0279543 -0.0482495)
(8.19741 -0.114794 -0.341132)
(3.05874 3.06013 -0.00157255)
(8.79053 0.0242326 -0.0419375)
(8.05829 0.00635361 0.0432075)
(8.55534 0.0452845 -0.0516695)
(3.06977 3.06815 -0.000219938)
(3.06069 3.05813 0.000352708)
(8.49345 0.0514815 0.0519558)
(8.68164 0.0210436 -0.00333918)
(3.61856 3.2928 0.0513927)
(3.05072 3.05175 0.000266074)
(3.10274 3.00848 -0.0124249)
(8.62781 -0.0162888 0.00739178)
(2.90458 -2.90453 -0.00321277)
(2.90032 -2.88917 0.00223615)
(3.0469 3.04744 0.000146084)
(8.78769 0.027025 -0.0368412)
(7.68086 -0.0384333 0.0137339)
(3.0681 3.06842 7.68426e-05)
(3.40022 0.694292 0.596333)
(3.68916 -0.38586 -0.144901)
(8.49908 0.0458391 -0.00261536)
(3.05906 3.06408 -0.00137358)
(3.06508 3.05956 -0.00235779)
(8.81665 -0.111231 -0.0164014)
(8.44469 0.143428 0.135725)
(3.66959 3.28059 0.154591)
(5.33444 1.74136 0.126362)
(8.32592 0.192338 0.240387)
(7.96637 0.0242391 -0.0560969)
(8.472 0.00541318 -0.00702899)
(3.16704 2.9745 -0.00758116)
(8.4225 0.0252346 -0.00351538)
(8.7298 -0.0589146 0.0627261)
(3.07012 3.06259 -0.00327614)
(2.88559 -2.8356 0.00496089)
(3.04865 3.05044 0.000396525)
(3.0591 3.05883 -0.000625304)
(3.06479 3.06967 -0.00361257)
(3.06887 3.06999 -0.000625065)
(8.80517 0.0257798 -0.0391021)
(2.90691 -2.90621 0.00189273)
(3.05703 3.05767 0.000462191)
(3.04736 3.00741 -0.00405107)
(8.81322 0.0278035 -0.0494731)
(8.67621 0.0205971 -0.000367829)
(2.92017 -2.87951 -0.000717577)
(2.87122 -2.84249 0.00399934)
(8.88267 -0.0428393 0.0768343)
(8.44051 0.00365438 0.00762756)
(8.42781 0.00753273 0.0124258)
(2.90805 -2.90031 -0.00162286)
(3.05508 3.05518 0.00208343)
(8.43453 0.0049849 0.0116431)
(2.9089 -2.90647 0.000365614)
(8.33117 0.0232576 0.00240903)
(8.52263 0.0146153 0.0295707)
(8.54588 0.0288068 0.00981324)
(2.91634 -2.89462 0.00830289)
(2.90825 -2.90973 0.000557985)
(2.90777 -2.90971 0.000198076)
(3.06536 3.06566 0.000880368)
(8.63978 -0.0415925 -0.0241123)
(3.06184 3.06482 0.00131262)
(3.05628 3.05354 -0.000131151)
(8.59772 0.0232136 -0.0341882)
(2.90847 -2.90943 0.00123786)
(8.47164 0.00127416 0.00997143)
(7.72994 -0.0668066 0.0262314)
(3.08279 2.97898 0.0159582)
(8.66658 0.022911 -0.00453739)
(4.08719 0.627238 -0.108045)
(8.5536 0.00908519 0.00464823)
(8.84293 -0.0301929 0.0207509)
(7.7993 0.0320221 0.0110198)
(8.84368 -0.001334 0.0576372)
(6.38433 0.139071 -0.24284)
(3.64455 2.91821 0.0588185)
(8.53425 0.00524889 0.00327203)
(8.8782 0.0703724 0.0110056)
(8.6685 -0.0208472 -0.00892667)
(3.13845 2.73206 -0.0911904)
(3.8806 0.384887 -0.198456)
(4.62122 -0.312183 0.154544)
(8.54393 0.0123359 0.00667177)
(3.05643 3.06095 0.00407153)
(8.37758 -0.0194162 -0.0620288)
(8.55763 -0.00768225 -0.0198977)
(8.30699 -0.0741312 -0.134338)
(3.17791 -2.24408 -0.169925)
(2.90902 -2.91015 0.00142873)
(2.90595 -2.90598 -4.73665e-05)
(8.70923 -0.0285155 -0.00330377)
(3.57107 2.96179 -0.0383753)
(8.26615 0.0288325 0.0134788)
(3.3232 3.02753 0.0422139)
(8.2227 -0.0176071 -0.0593139)
(8.45541 -0.0174828 0.0085366)
(8.36762 -0.0103625 0.0298638)
(8.6786 0.0221085 -0.00534572)
(3.05614 3.0561 -0.00101719)
(3.0429 3.03339 -0.00571569)
(3.10604 -2.82975 0.014595)
(8.66376 0.0301968 0.00542643)
(3.0688 3.06003 -0.000608366)
(3.53544 3.04279 -0.134156)
(8.8523 0.165341 -0.13912)
(3.07428 3.0705 -0.00179885)
(3.05027 3.06532 0.00924575)
(2.89245 -2.88352 -0.00476837)
(3.06684 3.06768 0.000894585)
(8.27661 -0.0032075 0.0282712)
(3.12698 2.9704 0.00605179)
(3.06564 3.06244 0.00101605)
(7.03071 0.99843 -0.731409)
(3.58373 2.9026 -0.0398359)
(3.05081 3.05241 -0.0253919)
(4.19252 -2.46602 0.154762)
(3.06314 3.05957 -0.00330769)
(6.75149 0.0268857 -0.0597135)
(8.4384 -0.0144744 0.0234941)
(2.89734 -2.8977 -0.000187969)
(8.29275 0.00862532 -0.0219099)
(8.38096 1.36437 -0.185671)
(8.2467 -0.0803704 -0.132842)
(9.07339 0.342336 0.00825713)
(8.15441 0.00710587 -0.0132833)
(3.06225 3.04122 0.00969311)
(8.56124 -0.0813485 -0.0922329)
(8.86559 -0.0321283 0.0197251)
(8.2445 -0.0808799 -0.13332)
(2.90623 -2.90715 -0.000223058)
(8.99114 2.36365 0.630396)
(8.25674 0.0122966 0.0126864)
(4.07416 3.25645 -0.192406)
(8.19972 0.00347819 0.00918792)
(8.95179 0.113199 -0.0849205)
(8.54149 0.173633 0.00960357)
(8.47399 -0.0255742 -0.0336016)
(8.47771 0.0284789 0.00107269)
(9.02284 0.133378 -0.0498528)
(8.7002 -0.0152995 -0.0140431)
(8.61382 -0.0121999 0.00896324)
(3.03877 3.0504 0.0114664)
(3.04985 3.03485 0.00946443)
(8.31555 0.0226851 0.0117751)
(8.17542 0.0105856 0.0105326)
(3.05789 3.06515 -0.00131573)
(8.43267 0.00815565 0.000329745)
(8.83362 -0.0419451 0.00542706)
(8.6364 -0.0211383 0.00764691)
(3.06339 3.03204 -0.00114964)
(8.51215 0.173334 0.0386132)
(3.05564 3.05316 0.000170114)
(8.61824 -0.0119222 0.0076775)
(8.64647 -0.0135746 0.00579173)
(3.06311 3.06184 -0.000285901)
(8.2625 0.0448483 -0.0213046)
(8.62333 -0.00981576 0.00131406)
(8.47737 0.161936 0.0143831)
(8.34186 0.00208901 0.0340813)
(3.12527 3.06676 -0.00467381)
(8.7176 -0.0234316 0.0259763)
(8.50322 0.19761 0.00263735)
(8.96436 -0.206373 0.0580055)
(7.54486 0.0991789 0.0259028)
(6.73266 0.0212997 -0.0954977)
(3.06505 3.03357 -0.00549827)
(3.05495 3.05216 0.0022133)
(8.3626 0.115669 0.0150368)
(3.06701 3.0672 -0.00101225)
(7.29885 -0.0207562 -0.0181409)
(8.40266 -0.0449944 -0.066023)
(5.12864 0.726446 -0.186237)
(9.30358 -0.594383 0.227535)
(8.21044 -0.365481 0.110657)
(9.13996 -0.324 0.0916795)
(3.06639 3.06659 -0.000936345)
(4.15397 3.52946 0.0296884)
(8.69854 0.0215221 -0.00666994)
(2.89426 -2.90592 -0.00986817)
(1.59269 -1.1108 0.477419)
(8.60706 -0.16566 -0.129133)
(3.05294 3.04547 -0.0060617)
(3.06841 3.06487 0.000309194)
(7.68367 -0.148127 -0.00239577)
(6.28317 -0.406445 0.0844466)
(3.06756 3.06787 -0.000384028)
(7.78038 -0.14499 0.0255887)
(3.05434 3.05179 0.00126302)
(3.0631 3.06795 -0.0050558)
(2.90559 -2.90584 -0.000569816)
(2.9093 -2.90284 0.00593196)
(2.85101 -2.82654 0.00965573)
(2.90334 -2.89764 -0.000351992)
(7.7627 0.0645707 -0.0292063)
(3.04197 3.02167 -0.00363643)
(3.06213 3.06347 0.00104204)
(3.04581 3.06195 0.00545437)
(7.23033 -1.59379 -0.414855)
(8.19187 -0.0680142 -0.150265)
(7.92941 0.000142383 -0.0830748)
(8.69923 0.0203178 -0.00748396)
(3.0477 3.02802 -4.13859e-05)
(3.07575 3.06452 0.000166971)
(8.33322 -0.143271 -0.174709)
(3.06537 3.06636 -0.00354755)
(3.06276 3.05969 0.000905207)
(4.8682 2.80718 0.102677)
(8.87043 -0.120982 -0.00618566)
(8.68234 0.0199649 -0.00815066)
(3.06141 3.06072 -0.000312812)
(3.05938 3.05405 0.00448047)
(3.04781 3.03955 -0.00394795)
(3.05269 3.04633 -0.000430512)
(3.06613 3.0649 -0.00335092)
(3.07312 3.06434 0.00186431)
(8.68757 -0.203579 -0.128503)
(3.06995 3.06111 -5.9141e-05)
(6.02773 0.0869739 0.202683)
(8.76064 -0.0199384 0.0228519)
(3.06287 3.06724 -0.00085019)
(2.88595 -2.89758 -0.00789098)
(2.86588 -2.83649 0.0032721)
(7.34371 0.0863207 0.3977)
(2.8457 -2.84233 -0.0117527)
(2.90424 -2.90665 0.00300582)
(3.0457 3.05085 -0.0191462)
(7.87128 -0.123213 0.00781468)
(3.05324 3.05219 0.000282344)
(8.63537 -0.113604 -0.0716218)
(6.87557 0.113062 -0.0352264)
(5.67396 0.007043 0.226353)
(3.05445 3.05673 0.000876941)
(5.90657 -1.50657 0.119271)
(8.70284 -0.0160124 0.00276665)
(8.76615 0.0208075 -0.0226371)
(3.12225 -2.98038 -0.0338285)
(8.42821 -0.136497 -0.0223012)
(8.60353 -0.0164264 -0.00917081)
(2.90941 -2.88895 0.00281352)
(3.1652 3.00357 0.0147862)
(4.1102 -3.16591 -0.265095)
(3.0468 3.04579 0.001047)
(8.70301 0.0171005 -0.00222733)
(8.69567 -0.0108657 0.0103348)
(8.84308 -0.107382 0.0443294)
(5.81851 -0.00641471 0.318776)
(3.06868 3.06695 -0.000324983)
(8.70595 0.0172524 -0.00382568)
(3.14431 2.99318 -0.00750898)
(3.82621 3.23902 -0.0132287)
(3.91295 -3.04407 -0.125788)
(3.06273 3.06322 0.00119803)
(8.72591 0.0263174 -0.00567729)
(3.05345 3.04642 0.00195929)
(2.87527 -2.82367 0.00140577)
(7.95414 -0.109589 -0.199955)
(8.54034 -0.0192631 0.010163)
(2.87734 -2.82957 -0.00807064)
(8.57941 0.0153546 -0.00375291)
(3.2622 3.19048 -0.0189728)
(8.71385 -0.0746563 -0.0385714)
(2.88185 2.75768 0.0272889)
(3.06599 3.06797 -0.00139187)
(3.07871 3.06831 0.0100273)
(2.90981 -2.91039 0.000788718)
(8.43428 0.0132538 -0.0135094)
(7.54473 0.0162294 -0.034602)
(8.74275 -0.025402 0.184066)
(3.05018 3.05293 0.00200312)
(3.04557 2.99101 0.0206151)
(8.38644 0.0160898 -0.0151011)
(3.06642 3.06657 -0.00112501)
(3.5584 3.22201 0.0444273)
(2.90684 -2.90489 0.000202436)
(8.34406 0.0538514 -0.00535666)
(8.88415 -0.218852 -0.0647096)
(8.70264 0.0217404 -0.00924122)
(2.90267 -2.89677 0.00674743)
(6.89009 -0.0104216 0.19219)
(7.19242 0.00684153 0.184875)
(2.75531 2.43509 0.0169565)
(7.77689 0.0996742 0.156389)
(3.06729 3.05144 0.00299108)
(8.214 0.0773712 -0.00771258)
(8.82376 -0.0147931 0.0511674)
(8.54546 0.00566961 -0.014729)
(8.83439 -0.111898 0.0135826)
(8.11572 -0.178994 -0.252248)
(3.06573 3.06241 0.000763652)
(3.06632 3.06606 -0.000215289)
(3.0591 3.06322 -0.000615914)
(7.11375 0.0702172 0.256501)
(3.03679 3.00974 0.00332905)
(8.63326 0.036577 -0.0157977)
(2.90559 -2.90525 -0.000226555)