/*--------------------------------*- C++ -*----------------------------------*\
  =========                 |
  \\      /  F ield         | OpenFOAM: The Open Source CFD Toolbox
   \\    /   O peration     | Website:  https://openfoam.org
    \\  /    A nd           | Version:  10
     \\/     M anipulation  |
\*---------------------------------------------------------------------------*/
FoamFile
{
    format      ascii;
    class       volScalarField;
    location    "97";
    object      SgP;
}
// * * * * * * * * * * * * * * * * * * * * * * * * * * * * * * * * * * * * * //

dimensions      [1 -1 -3 -1 0 0 0];

internalField   nonuniform List<scalar> 
59698
(
0.00309493
0.00183544
0.00231274
0.00271379
1.14773e-06
0.00145199
0.00249693
1.07302e-07
1.98224e-09
3.92643e-09
0.00058648
1.79052e-09
1.5797e-09
0.00228616
2.76408e-08
4.28429e-07
9.40836e-09
3.81036e-09
1.65107e-09
5.97481e-10
0.00036542
1.56241e-06
0.000498824
8.81905e-08
1.98224e-07
1.206e-09
1.19448e-09
0.00248145
0.00239284
2.09019e-09
1.35314e-07
0.00060062
6.68522e-08
0.00403523
1.11383e-06
3.8042e-09
0.000465479
5.07568e-07
1.73034e-08
0.00245364
2.95307e-08
2.30474e-07
2.29196e-08
2.46391e-08
0.000402108
1.04712e-07
2.68472e-09
4.88848e-08
0.00290842
3.14625e-08
2.96302e-10
2.3448e-09
0.00172824
0.00272944
0.00216786
2.05634e-09
8.46025e-08
1.55765e-08
1.77457e-08
2.74822e-05
0.00178294
6.29214e-08
1.98607e-07
1.54479e-09
4.96793e-07
4.18521e-08
1.75264e-09
3.23944e-09
4.19938e-09
6.7668e-09
6.34732e-07
2.80084e-08
0.000359975
1.51318e-06
0.000411946
1.00873e-06
2.15223e-08
2.19114e-08
6.4086e-09
9.06226e-09
4.80015e-07
9.96094e-10
4.05801e-09
8.03752e-09
1.70087e-05
3.13762e-08
9.16523e-09
2.2352e-07
2.33541e-06
2.31715e-08
4.51036e-09
6.35727e-08
1.67485e-07
6.53518e-09
6.05735e-08
0.00359102
1.35586e-07
6.19723e-08
4.98329e-08
8.5912e-10
0.00353684
2.07074e-05
2.95135e-07
0.00329239
5.26227e-08
0.000564779
2.34278e-09
2.27769e-09
2.70177e-09
4.40307e-10
3.57676e-08
2.64842e-06
1.35726e-06
1.5628e-07
9.75617e-08
3.45623e-08
3.49099e-07
0.00353382
2.92568e-07
1.14998e-08
2.26359e-09
2.97771e-07
2.25446e-07
3.34241e-09
1.63483e-09
7.85886e-09
8.35224e-09
7.21169e-09
1.26397e-08
3.86432e-07
0.00335569
3.86271e-09
1.10283e-09
1.88589e-07
6.43999e-08
3.23091e-09
4.91692e-07
2.37955e-10
1.7273e-09
5.65227e-09
2.0845e-08
0.00231719
0.00252088
1.58249e-09
1.90697e-07
7.93136e-10
5.35039e-07
3.78905e-07
0.00448816
7.04592e-07
0.000257316
0.000434379
2.79162e-08
2.54756e-07
9.11296e-09
1.04666e-07
7.40906e-09
0.00162893
6.72095e-08
5.66292e-10
3.11834e-09
7.70714e-09
2.22314e-08
9.72031e-08
1.87665e-08
0.00222847
1.06227e-09
0.0005677
0.00152526
6.92508e-09
2.55669e-07
1.50763e-06
2.17289e-07
9.24226e-07
5.77133e-07
0.00121899
4.38069e-09
0.00139608
0.000326016
0.00293191
2.25504e-06
7.41561e-07
3.99534e-07
1.12409e-08
2.49713e-07
6.84222e-08
3.71002e-07
0.0023803
1.37684e-10
1.80546e-08
6.44541e-09
7.06296e-09
2.29837e-08
6.0614e-07
1.2197e-07
0.00416754
1.75887e-06
0.00294362
1.27692e-05
9.10516e-08
0.0002271
6.74343e-07
1.57453e-09
2.57867e-09
0.00356708
0.00244691
3.61075e-08
0.00205807
0.0027077
0.00350246
0.00242677
6.1015e-09
0.00262738
1.56779e-08
2.33952e-09
0.00336711
9.86961e-09
4.54554e-08
1.55157e-07
4.65927e-09
1.37009e-05
0.00217432
1.72636e-09
5.0921e-07
8.89496e-09
0.00274682
2.11348e-08
5.47398e-09
4.89401e-08
6.92876e-07
7.56321e-09
1.87014e-08
7.41296e-09
1.13654e-08
9.51772e-09
8.9417e-09
3.06918e-07
1.95284e-08
1.76574e-07
8.18943e-09
0.00261371
1.19009e-07
3.43221e-08
0.000664542
8.59998e-09
2.1489e-07
2.29461e-05
3.47526e-06
5.27714e-09
4.95915e-09
6.12363e-08
6.1525e-09
3.08643e-08
0.000233554
1.92842e-08
0.00169894
1.10231e-07
5.41458e-08
0.00314714
2.87378e-09
7.75349e-06
1.83904e-09
7.83263e-09
0.00270865
0.00357795
8.57696e-07
1.0855e-09
1.06618e-07
1.97873e-08
6.06332e-10
3.12344e-09
1.54105e-06
6.91016e-05
6.62879e-10
1.25373e-07
5.01427e-08
0.00146581
3.97856e-08
2.95807e-09
1.21807e-09
0.000574132
1.79066e-09
1.66975e-09
4.71799e-07
0.00334942
1.01961e-07
5.28795e-09
0.000647048
3.83895e-07
1.00844e-07
2.66833e-06
0.00232502
9.25689e-09
1.3621e-09
7.03599e-07
0.00273219
4.8281e-10
1.52437e-07
1.44951e-08
6.42216e-07
3.08012e-09
2.22809e-09
6.86688e-08
5.71503e-10
1.11921e-09
1.15938e-09
3.60907e-07
2.19365e-08
5.35942e-09
5.34453e-10
0.00190124
4.13099e-08
3.86283e-09
2.37972e-08
0.00191499
5.63995e-09
0.000403389
8.30447e-09
0.000829308
8.52041e-08
9.53056e-08
3.131e-07
1.67307e-08
2.91234e-09
1.64732e-06
2.55909e-07
1.60789e-08
8.69657e-09
4.41329e-10
0.000361923
0.00289956
4.02288e-08
3.57733e-07
2.45018e-06
0.000430952
1.03463e-08
7.76132e-09
4.28122e-09
1.39725e-07
0.00122088
2.13534e-08
0.00206208
0.00250597
4.94845e-09
9.9451e-08
1.36022e-09
2.64005e-10
1.24582e-06
1.34029e-09
0.00203388
9.27787e-10
1.28735e-08
1.23699e-06
7.95372e-10
9.46703e-07
0.00191586
2.75249e-06
1.43977e-08
3.31773e-08
1.82608e-09
2.10027e-08
1.08639e-08
1.10573e-07
3.5997e-09
1.16969e-10
1.04126e-07
0.00279681
0.00201716
2.82545e-08
9.67489e-07
1.13137e-07
0.000533997
0.00366893
0.000651123
2.09981e-08
2.98004e-09
3.63542e-08
2.04227e-09
0.000460519
2.48689e-09
0.000347123
4.4604e-08
4.31288e-08
5.15489e-08
8.50246e-10
6.77515e-06
1.09243e-08
0.000544827
8.67795e-10
3.38741e-08
2.07201e-08
0.000457465
0.00330056
3.25274e-09
5.39261e-05
0.00179781
3.65029e-06
0.00182708
0.00269785
8.14811e-08
0.0024387
0.00236492
0.00257383
5.42532e-09
0.00148346
0.00417843
0.00383869
0.00276233
5.89954e-09
8.27397e-07
1.88409e-07
0.000404302
0.00163747
0.000434527
4.70046e-10
2.05985e-07
2.01729e-09
2.2941e-06
0.00189679
0.00175685
0.00292211
0.00218235
0.0024916
0.00166292
7.82672e-09
2.03597e-09
7.85592e-09
1.39602e-08
0.00138445
5.59219e-10
7.79423e-09
0.00196006
0.00116559
2.34728e-08
3.72263e-08
1.42954e-08
1.39886e-08
0.00126413
3.33479e-09
0.00211841
1.92325e-07
0.00321068
5.00478e-09
4.39929e-08
1.8633e-07
2.03485e-06
8.63934e-08
4.52534e-10
2.13725e-09
1.2888e-07
0.00254332
6.63337e-09
7.25706e-08
1.96982e-06
6.17114e-07
1.15072e-07
3.4042e-07
1.40023e-09
1.15247e-06
1.65033e-07
6.10282e-08
4.61304e-09
0.00320868
6.27671e-09
2.1892e-09
2.01453e-07
3.50868e-07
9.28202e-09
4.44966e-08
6.16754e-09
0.00247478
4.40888e-09
2.07477e-10
6.89995e-09
6.33462e-08
2.04256e-06
8.18031e-07
2.21799e-09
0.0030091
0.00194625
2.34201e-08
2.09486e-07
1.59551e-08
1.92904e-08
2.53082e-07
4.12185e-08
4.43761e-08
1.96295e-08
1.61527e-09
1.65382e-09
2.50337e-07
4.07332e-07
3.80265e-10
4.23042e-08
0.00402077
2.12569e-07
1.53167e-08
0.00236662
3.71977e-08
0.000365618
9.72975e-10
1.18655e-07
2.03911e-07
1.21007e-08
1.71094e-08
1.11963e-09
8.17527e-08
2.16043e-09
5.27122e-09
8.26489e-09
5.75378e-09
7.81113e-09
1.34789e-06
5.41923e-08
1.60503e-08
2.6873e-09
6.88072e-09
9.88053e-09
7.04306e-08
2.48234e-08
1.71655e-08
3.47141e-09
5.06483e-09
3.86984e-09
2.18647e-09
6.31771e-06
3.30106e-08
2.80414e-09
0.00339749
0.00370811
2.911e-09
0.00383213
1.82747e-08
5.48375e-09
0.0014513
3.56492e-10
1.35535e-08
0.00178831
1.88925e-09
0.000384878
4.3122e-08
2.5624e-09
4.50193e-08
2.97645e-06
1.4852e-08
5.14715e-09
8.92453e-06
0.000167127
1.87605e-08
7.49207e-06
1.8334e-08
2.28892e-09
3.10909e-08
1.91065e-09
4.99744e-09
1.43921e-08
1.92513e-08
1.62023e-08
2.5828e-09
2.23072e-09
0.000768501
1.75089e-09
1.65465e-08
1.02168e-05
1.51011e-08
1.81245e-09
1.21921e-06
2.26244e-08
8.56773e-09
0.000539255
7.78154e-10
7.61572e-09
2.03768e-07
1.57064e-09
4.39566e-08
1.31554e-09
3.14517e-10
4.37871e-10
0.00200345
2.31316e-09
0.000732636
3.88834e-08
0.00320697
1.49385e-08
3.28369e-09
0.000313357
1.15527e-09
1.35969e-08
1.78154e-08
1.63975e-08
1.9866e-09
0.00316742
8.11418e-09
1.68006e-08
8.51826e-10
4.18659e-08
9.28465e-07
0.0026493
0.000349775
7.35083e-09
7.93505e-09
1.647e-09
2.79657e-09
0.00337478
1.35414e-08
4.42864e-09
2.49421e-09
0.00108744
0.00385601
1.53825e-08
1.26178e-08
1.56573e-09
1.14812e-08
4.29783e-09
4.12825e-09
5.15244e-09
4.90713e-09
3.64485e-08
7.85744e-05
7.32458e-09
5.03658e-09
7.87003e-09
1.81516e-08
2.54196e-05
0.00241928
1.09896e-08
0.0026635
1.63174e-09
8.7829e-09
4.32913e-09
0.00269467
0.000211182
9.61841e-10
8.42391e-09
7.16143e-10
2.85833e-08
6.32419e-09
2.85623e-09
0.00151548
0.00323685
1.25647e-07
1.62389e-07
0.000607882
1.45388e-09
5.12637e-09
1.59992e-09
4.12145e-07
0.00210648
3.38585e-08
1.76605e-09
0.000439476
7.70649e-09
3.18375e-08
3.32524e-09
2.38367e-09
4.35054e-09
9.28711e-10
7.69725e-06
1.02257e-09
0.00182038
5.0654e-08
1.12018e-07
6.84498e-09
1.56191e-06
3.42351e-06
5.37685e-09
2.07826e-08
0.00230812
0.0031102
7.34681e-08
3.86781e-09
7.58862e-07
1.56327e-09
0.00343723
3.11011e-10
1.96112e-08
0.000428463
0.00255399
4.41236e-09
1.59794e-09
1.96484e-07
5.89831e-07
3.53428e-07
0.0003781
0.00139637
1.13276e-10
6.62278e-09
7.85365e-10
4.62875e-09
0.00277471
2.71736e-08
0.00302961
9.96836e-09
0.00131532
0.00209607
0.00236425
6.18684e-08
4.11614e-09
0.000650645
1.28012e-09
2.31728e-10
9.67823e-10
4.34707e-09
1.81539e-08
4.55024e-09
1.50632e-09
9.2088e-08
6.73145e-08
7.45907e-09
2.72215e-09
0.00186394
4.18149e-08
3.52679e-08
0.000362113
1.03801e-08
3.48061e-08
3.82006e-08
1.93665e-09
1.38317e-09
0.000646938
0.00196295
0.0024149
3.8684e-09
1.11268e-08
6.83226e-09
1.63412e-07
0.00194553
1.34594e-09
5.69365e-07
2.58722e-08
1.32193e-05
0.000344565
0.00169868
2.25185e-07
1.48148e-07
2.23752e-08
0.00430841
0.000532161
1.89394e-08
8.87139e-07
3.51529e-09
6.80735e-08
3.46846e-06
0.00231898
2.4502e-08
1.20651e-07
1.00131e-07
1.59094e-05
2.53087e-08
0.00185637
2.47831e-09
5.17039e-08
1.16263e-08
0.00213025
7.12644e-10
6.66697e-09
2.05661e-07
4.44205e-06
0.000599768
1.09209e-07
7.00586e-08
0.000383643
4.15219e-08
2.53402e-09
0.00190614
0.00219655
5.44388e-09
7.55505e-09
0.000401557
1.01245e-08
1.74303e-08
0.000373922
3.51226e-10
0.00265402
2.55724e-09
1.93365e-08
1.81589e-07
3.98965e-09
3.95547e-08
3.57252e-08
4.98081e-05
3.75433e-09
6.11828e-09
7.1135e-09
1.16973e-08
9.70739e-08
1.51486e-08
0.000326089
7.10077e-09
2.0531e-08
0.00140038
5.70342e-08
9.85473e-08
9.06699e-06
0.00187023
2.37605e-06
0.000541223
6.94698e-09
0.000382989
1.59285e-08
4.19704e-09
1.56926e-09
0.00314075
3.78708e-07
3.24243e-08
7.11623e-05
6.43151e-08
0.00157969
1.6549e-07
9.80263e-06
3.53071e-09
0.00100438
3.16364e-09
0.00130409
5.35997e-05
2.439e-07
0.000651795
0.00179452
1.23004e-06
1.11172e-05
4.11053e-09
1.12972e-06
2.52499e-08
4.09505e-05
0.000444781
0.000428754
0.00211176
3.52748e-08
3.18374e-08
0.000561237
4.45649e-08
0.00227711
6.9663e-10
0.000401153
2.28803e-09
2.67184e-09
2.94308e-05
0.00050365
0.000206325
0.000108639
7.69389e-09
5.1789e-09
2.02528e-09
0.000487266
2.09442e-09
0.00350804
0.00473706
2.49015e-09
0.000499714
2.06237e-09
9.74048e-10
2.92163e-09
3.22745e-06
0.000469634
2.88632e-09
1.29485e-09
1.05472e-06
4.42669e-09
1.12226e-07
3.78687e-09
2.97418e-09
8.81215e-08
2.63812e-07
3.11445e-08
1.04099e-08
0.000532564
8.11334e-10
0.000127589
2.70211e-10
2.50593e-09
0.00124247
1.49241e-09
7.76806e-06
8.98225e-08
7.42116e-09
0.000108822
1.25068e-08
0.00157162
2.72474e-08
4.58532e-10
0.00174582
5.66029e-09
1.1346e-08
0.000307132
1.24187e-09
0.00205968
1.69008e-08
1.42282e-09
0.00422999
3.05453e-09
5.09738e-09
1.49177e-08
1.64979e-08
0.000319936
7.78184e-09
5.58502e-09
1.64844e-07
0.00180905
0.000633465
0.000584029
2.24604e-08
1.77912e-09
0.000379941
0.00237002
6.83853e-09
8.57597e-09
5.56964e-08
1.16392e-08
2.83353e-09
2.5456e-08
0.000412241
0.00144848
0.00262295
1.49209e-07
2.03963e-09
0.00267084
0.00400967
0.00520959
5.05688e-08
1.80342e-08
1.5658e-07
4.41798e-07
1.80813e-08
2.8351e-08
7.86216e-07
2.81837e-08
7.51683e-09
8.16537e-09
1.35228e-06
7.16643e-08
7.36235e-09
0.00254233
1.64394e-09
6.03529e-08
1.87654e-08
2.8214e-08
6.47858e-09
3.87622e-10
0.000761137
1.88383e-08
3.11011e-09
0.00193673
1.91418e-08
2.39257e-08
0.00316677
2.9275e-08
3.34507e-07
5.6811e-09
2.00071e-08
2.43379e-08
0.000826059
3.02281e-08
0.00220049
1.82762e-07
1.98619e-07
3.67033e-08
0.00533114
0.000294937
4.57321e-09
5.48367e-09
9.92135e-07
1.44588e-09
1.12173e-08
8.51485e-09
0.0016735
1.17086e-09
2.28741e-09
8.13494e-09
2.46942e-09
3.57807e-08
2.36704e-08
7.50537e-09
0.000429222
0.00219285
0.000466221
6.29978e-08
0.00314134
0.00256316
5.59019e-08
1.76415e-09
0.00183297
6.44998e-06
0.00154628
0.00208227
0.00203137
3.32534e-09
5.88716e-08
0.00237841
1.9662e-07
3.34025e-08
1.87779e-07
2.64552e-08
0.000443783
2.08825e-08
0.000538422
1.67988e-05
2.57517e-08
0.00196165
2.00096e-08
0.000608732
6.86825e-09
1.72295e-08
1.18634e-09
3.99656e-08
0.00153623
0.00364916
1.29589e-09
0.000395621
0.00188714
0.00135367
0.00278165
5.67181e-10
1.0107e-08
1.17342e-09
0.00355378
8.00317e-10
1.29655e-07
0.00355916
5.31934e-09
0.00346991
0.0035155
0.00366746
1.55763e-08
5.72378e-08
4.63841e-08
8.7717e-09
1.1112e-08
6.13072e-08
1.2641e-08
4.78532e-09
0.000475256
4.1141e-09
3.71196e-08
2.75953e-07
5.65344e-10
0.00162312
2.92237e-08
4.59786e-09
6.67728e-08
2.68572e-10
6.99696e-08
3.90998e-09
2.03269e-07
0.00306616
3.15278e-05
8.90636e-10
1.56471e-08
0.00210094
0.00314934
1.78211e-07
0.000760262
9.972e-09
7.73404e-09
0.00257376
2.20983e-08
0.00322074
0.000542246
1.04778e-09
7.27909e-08
0.0007658
1.68589e-08
2.49756e-08
0.00250177
6.35987e-09
1.36929e-08
3.12193e-09
0.000534596
3.15026e-06
0.00193135
1.82568e-07
9.35857e-09
0.00175017
1.38311e-07
2.57079e-10
5.9456e-06
2.1917e-09
7.23694e-07
0.00129385
2.71427e-09
9.46554e-10
1.13564e-08
5.84058e-09
1.54739e-08
5.83095e-09
1.26506e-08
1.00021e-06
9.52803e-10
1.24853e-09
0.00169856
4.6555e-09
5.34044e-06
2.93538e-08
5.23585e-06
1.28898e-06
1.17192e-06
5.34275e-06
1.25821e-06
5.35319e-09
1.65781e-08
0.00100309
3.09856e-06
2.48456e-08
2.25356e-08
2.49385e-08
0.00044909
1.36944e-06
7.90403e-08
2.28905e-07
3.48019e-09
0.00226252
4.7136e-09
1.22691e-08
2.08758e-08
1.18579e-08
2.99205e-08
0.0021259
5.58878e-08
2.40611e-08
1.86734e-08
4.78315e-09
0.000477735
2.2744e-09
5.18712e-09
3.34486e-08
2.5267e-10
1.41896e-09
6.14828e-09
9.36158e-09
1.37254e-08
0.000333187
1.14217e-08
1.31698e-08
2.36647e-09
2.01087e-08
1.24332e-08
1.01106e-08
5.84701e-08
0.00038063
0.00242461
1.54552e-08
7.84084e-09
0.00284483
1.66496e-09
4.31382e-05
0.00202981
4.95802e-09
7.2228e-07
1.53157e-06
0.00186632
2.20838e-08
3.18313e-08
2.17508e-07
1.74224e-05
8.67986e-07
2.14881e-07
1.40071e-09
3.79395e-09
4.19111e-07
1.08727e-07
5.64179e-09
1.53167e-09
1.25479e-08
7.55204e-09
3.04383e-06
0.00129395
6.41726e-08
3.63251e-08
5.10975e-08
0.00264617
0.00244628
9.3526e-07
1.51393e-08
3.28849e-08
4.01494e-08
4.45628e-09
2.89232e-09
1.81485e-07
4.2227e-09
3.45798e-08
2.02642e-09
1.27847e-08
2.26785e-08
3.3212e-09
4.13774e-07
2.79678e-09
0.000434431
9.50445e-08
0.00394802
0.001652
1.12396e-07
2.14172e-08
0.000579701
0.000345167
2.77459e-08
2.34401e-08
9.38068e-06
2.28626e-09
1.87753e-09
2.35634e-08
1.72975e-08
0.000781453
0.00064699
9.57032e-09
1.18181e-08
7.74204e-09
3.33314e-07
5.02115e-08
0.00267069
0.000496399
1.50871e-08
0.000238786
7.02068e-09
0.000315463
0.000227746
0.000223582
2.81943e-08
1.06312e-07
1.77287e-09
9.99067e-08
2.5401e-08
0.00240353
4.88331e-09
4.14148e-08
6.92113e-09
7.70215e-08
2.31793e-05
0.00194485
0.00227798
2.25983e-08
2.97421e-08
0.000377614
3.99763e-08
1.04043e-06
1.04427e-08
0.00304784
4.06824e-08
2.26588e-08
8.52832e-06
0.00262291
6.84889e-08
2.27828e-08
0.0013129
2.01346e-08
4.65691e-10
1.39184e-09
4.45291e-09
3.16815e-08
1.33228e-08
6.41269e-10
2.23018e-08
3.69757e-08
1.18889e-08
6.06661e-08
1.81052e-08
5.5156e-07
0.00191159
2.81182e-09
1.57294e-08
5.63429e-08
0.00200067
8.70707e-07
2.02543e-08
0.000374063
2.87639e-09
2.25162e-07
1.46429e-07
0.000983775
3.58914e-07
3.19034e-10
1.22018e-07
1.40293e-08
1.2268e-07
5.05748e-08
2.88921e-09
1.47279e-07
6.88483e-09
8.69837e-08
7.86478e-10
0.000584269
4.96585e-08
0.00207399
1.32066e-09
6.35366e-08
2.14751e-06
1.07406e-08
4.64135e-06
4.782e-09
6.62609e-10
2.46846e-07
4.18347e-08
4.85056e-09
1.74234e-05
6.10869e-08
7.4192e-08
0.000547253
2.99039e-09
0.0005637
3.16127e-08
2.26665e-09
7.75032e-09
5.79101e-09
1.98225e-08
3.90345e-07
3.13466e-07
1.50121e-07
0.00237872
2.16245e-07
0.0039323
0.00209536
0.00329159
8.50014e-08
2.24104e-07
0.00143521
3.83169e-09
2.4893e-08
2.98111e-08
0.00236999
9.80507e-09
0.000635584
0.000492204
2.77267e-09
0.00262589
5.03798e-06
0.00263983
1.89039e-08
0.00249643
5.59727e-08
0.000340279
1.66244e-09
3.70946e-09
4.27186e-08
0.000746786
7.67959e-07
4.15252e-10
2.69106e-08
6.33874e-10
0.000532957
0.000313611
5.70035e-08
0.00190922
4.56578e-07
0.000544713
3.19264e-08
5.57992e-10
6.30006e-09
2.60688e-09
8.93955e-08
2.03764e-05
5.6888e-09
1.34253e-06
4.44494e-08
4.21376e-08
4.66447e-09
9.88113e-05
2.24159e-07
1.86804e-09
6.42334e-09
0.000432446
1.09839e-06
7.77606e-08
0.00152079
1.77364e-06
1.48894e-06
7.42147e-09
8.54407e-09
3.9074e-09
0.000681664
2.63408e-08
5.42316e-09
1.49204e-08
3.63743e-07
9.94414e-07
2.09663e-07
1.82233e-09
3.20872e-06
6.72022e-07
7.47911e-09
5.97139e-09
5.50268e-06
2.51436e-09
5.13078e-09
0.00238709
0.00220923
6.16863e-08
4.50776e-09
1.14971e-09
3.33889e-08
0.00192951
2.59957e-07
1.37554e-06
5.44812e-10
5.50326e-07
3.25841e-08
0.00112025
0.000444877
6.98504e-07
2.40053e-08
3.47738e-06
5.33487e-07
0.000100631
2.24154e-09
1.83644e-08
0.00118819
2.55278e-08
7.79835e-07
5.89445e-07
2.02881e-06
1.22129e-06
1.16876e-08
0.00162263
1.30801e-05
2.47824e-09
1.20783e-08
4.67563e-09
0.000427673
0.000113452
1.88332e-08
0.000637652
1.21756e-07
7.26462e-05
0.00282734
0.000398955
0.0028196
0.00183706
0.00221777
4.49581e-10
2.81809e-06
8.38809e-08
3.5143e-06
1.48738e-05
2.21501e-06
2.0165e-09
3.97757e-07
1.47198e-08
3.20228e-07
0.000761567
2.90857e-07
9.13256e-10
0.00178404
1.39302e-07
0.000207822
1.8348e-07
4.111e-07
4.74171e-09
3.87619e-07
2.12103e-07
0.00151227
2.09867e-07
3.56129e-08
1.50082e-07
2.60449e-05
0.00129738
0.0013139
0.00294041
4.94838e-09
0.000502803
0.00149671
0.00175309
0.00149454
2.39713e-07
0.0021739
2.68414e-07
4.72781e-09
5.474e-09
6.1181e-09
0.00147152
0.0017686
5.59025e-09
1.46613e-08
8.38525e-09
4.08792e-07
0.000298096
0.00368259
0.00135435
8.21507e-08
0.00247913
8.79422e-10
3.62018e-08
0.00108922
0.000804588
5.33331e-09
2.72726e-06
1.21764e-08
6.35861e-09
0.00351981
6.3533e-09
0.000423327
1.17485e-09
0.000378711
0.000405407
0.000581335
0.0019092
3.24613e-07
0.00161663
1.26533e-08
1.17523e-05
0.000460534
0.00124703
0.00220781
0.00109665
7.52983e-09
0.00124442
9.01771e-09
1.59633e-08
0.0029274
1.64006e-07
6.61328e-06
5.66625e-08
5.19977e-08
0.000573418
1.43548e-06
3.25019e-09
1.4932e-07
4.36788e-07
0.000403271
0.0021985
2.72824e-07
7.60602e-09
0.000614697
1.86725e-08
1.5674e-08
5.11625e-08
6.0398e-07
0.00214168
3.73258e-09
0.00241692
8.36422e-10
0.000256109
0.00433601
8.69455e-09
3.0344e-06
0.00242904
4.97814e-05
5.20414e-06
2.47493e-09
0.00177887
0.0027788
5.14217e-10
0.000489114
8.35593e-07
0.000618779
1.49042e-08
8.49734e-07
5.11994e-07
3.52532e-08
7.89386e-11
0.000345789
0.00131457
6.49152e-09
1.17836e-09
0.00218203
1.11139e-08
2.20598e-09
3.73837e-08
1.87411e-09
7.8756e-08
0.00354115
0.00209357
2.65724e-08
5.44189e-10
0.00221218
1.99238e-07
0.00270355
2.78266e-09
1.91494e-06
4.58974e-08
7.42681e-09
2.74782e-09
1.07249e-08
0.00333614
5.05154e-09
2.80147e-07
0.000274717
0.00237603
0.000453104
1.37939e-08
1.17416e-06
2.56573e-09
0.000229155
0.00228075
8.78756e-10
3.77003e-09
3.97896e-08
3.31093e-08
0.00050253
2.62019e-07
0.000529724
1.92301e-07
6.62155e-09
5.87056e-11
4.98291e-08
0.000221095
0.000394062
5.42702e-09
0.00384294
0.00245681
8.95191e-09
3.14352e-10
3.90586e-09
7.33487e-09
3.79759e-09
1.52946e-08
0.00275302
0.000620119
0.000514078
7.75837e-05
0.000348249
0.000381683
2.75341e-09
4.2709e-08
1.53005e-09
3.0534e-08
1.89305e-08
0.00234569
1.0737e-08
4.94163e-09
0.00111863
1.90215e-08
7.63756e-08
8.81404e-08
1.65234e-09
8.39865e-08
3.47873e-08
0.00219887
5.27712e-09
1.44572e-08
4.28847e-09
1.58287e-08
2.08513e-08
0.00375559
4.5276e-07
1.12041e-07
7.31865e-08
1.06231e-09
4.53386e-05
1.17499e-06
3.30096e-09
5.78177e-07
1.26241e-05
1.01339e-08
1.12606e-08
1.03779e-05
3.71818e-06
2.50388e-07
0.00304105
3.87444e-09
3.96918e-07
1.4837e-06
0.00282697
2.24877e-07
4.3528e-10
1.91924e-06
1.69735e-05
3.43369e-07
1.00549e-08
1.70483e-07
4.57789e-08
6.62808e-08
1.99332e-08
3.31361e-08
0.00184922
2.16521e-09
1.18166e-08
1.10634e-08
6.93083e-10
4.61188e-09
8.99462e-10
0.00421493
1.25399e-07
1.94771e-09
3.30424e-09
3.10157e-09
1.08089e-09
5.01681e-08
5.13248e-09
2.82108e-09
5.43044e-08
1.33803e-08
0.00220951
3.06707e-09
0.000384394
3.54652e-08
1.17126e-07
1.77293e-08
1.21595e-06
1.01628e-09
0.00315758
9.44604e-09
0.00178983
2.98277e-07
4.01468e-08
1.34713e-08
1.82828e-06
2.75068e-09
3.62034e-09
2.93811e-09
0.000259125
0.000626659
0.00213654
1.00689e-07
1.58243e-07
0.00227922
1.72463e-06
3.36691e-09
1.37598e-08
2.87355e-07
1.03267e-08
0.00411984
2.80084e-06
0.00307946
2.37076e-08
7.67599e-09
0.00158929
0.0014443
0.00174764
1.66396e-08
1.47418e-06
0.00186865
1.67286e-09
1.23227e-05
1.51515e-07
0.00177477
0.000459354
1.81326e-07
0.0023082
2.04626e-05
6.20853e-07
0.00205368
0.00216972
1.91603e-08
0.00237782
0.00300982
0.00180854
2.49347e-08
4.40652e-09
6.09291e-09
7.80024e-10
2.881e-09
0.00162993
0.00275217
0.0018247
2.59906e-09
0.00303298
2.73938e-09
0.00228085
0.00249146
5.76497e-09
3.66169e-08
0.00165394
2.45887e-08
1.32761e-08
3.22517e-07
4.52831e-10
0.00256029
0.00199028
8.28275e-07
0.00163458
3.71524e-09
3.04157e-09
7.10229e-09
3.32075e-08
6.71738e-08
3.13211e-07
1.22556e-09
5.57534e-09
1.41989e-08
8.13797e-09
6.18945e-09
1.04434e-07
3.72019e-10
2.30149e-08
2.12092e-06
1.15447e-08
3.43723e-08
2.74904e-09
1.23194e-07
1.56898e-09
5.20836e-09
2.22357e-07
1.56005e-09
3.03476e-09
0.00188087
3.49409e-08
5.1816e-09
6.52809e-07
3.12786e-09
1.47285e-08
4.79235e-08
0.00185719
9.28475e-08
0.0022081
0.00148589
1.71904e-08
2.07002e-08
5.77333e-08
6.5606e-09
0.00157706
4.93334e-08
2.24162e-07
3.66998e-07
2.90624e-08
0.00235742
0.00149677
1.88265e-09
3.13497e-09
6.98056e-09
6.37354e-08
5.90886e-08
7.41667e-09
4.16135e-07
5.30636e-09
1.49147e-06
2.49393e-09
1.52073e-09
6.3356e-09
1.55169e-08
2.32924e-07
7.74604e-09
1.8958e-08
0.00429575
0.00144843
0.00257013
0.00155372
1.48872e-06
1.18092e-08
0.00201319
6.9444e-07
6.72246e-09
0.000410057
1.31863e-09
1.44648e-07
0.00235105
4.41494e-08
1.27229e-07
2.30276e-08
4.25315e-08
0.0013999
8.20991e-09
9.48667e-10
2.03691e-07
2.67229e-09
4.69053e-07
5.96045e-06
6.72489e-08
0.00211099
4.19058e-08
0.00046051
2.57217e-07
0.00209895
3.87464e-10
5.03716e-09
2.68143e-07
3.89501e-09
0.00183881
3.83356e-07
0.000518364
1.49309e-07
1.83282e-07
1.33905e-07
2.65715e-08
8.53871e-09
4.94647e-08
3.01114e-06
4.10969e-08
2.59253e-06
0.00324754
5.29727e-08
0.00421537
5.6503e-09
2.47213e-09
4.55176e-06
0.00186434
1.40417e-08
1.32069e-09
9.02262e-07
5.66649e-08
3.36752e-08
0.0023396
1.3463e-08
6.13554e-07
0.0026208
1.35909e-09
8.02659e-09
4.17984e-07
9.72489e-10
8.15254e-09
0.00253089
5.32963e-09
0.0027677
2.31497e-08
2.15614e-07
3.94086e-08
0.000894199
5.99563e-08
2.79392e-08
1.48698e-07
0.00253483
1.58815e-06
1.26006e-08
9.24197e-09
1.24595e-07
0.00207282
3.45224e-09
5.1937e-08
6.30892e-08
1.60195e-06
0.00252799
0.000270128
0.00119042
1.74506e-08
0.000358089
1.3174e-08
8.98816e-07
0.000789604
1.15342e-08
0.00088078
3.28302e-06
4.86135e-09
2.64127e-09
1.20905e-08
0.00253348
1.51763e-08
2.41744e-09
2.59551e-07
1.12551e-08
5.63329e-09
0.000301464
2.72075e-09
4.47182e-08
0.00242964
1.26631e-06
4.51779e-09
0.00203795
3.25676e-06
6.5298e-09
1.38543e-08
1.20219e-05
4.30556e-08
2.23108e-07
1.6779e-08
4.14649e-08
6.10345e-08
4.75097e-06
0.00109754
4.84184e-08
0.00248239
1.51173e-08
3.79843e-08
0.00271653
3.09481e-08
7.83683e-08
9.55065e-09
1.29808e-07
0.00237011
3.00028e-08
2.1266e-08
0.00163516
5.80166e-09
0.00266886
1.40325e-09
7.61965e-09
1.03982e-09
1.05122e-08
0.00151678
5.40688e-08
1.38998e-09
2.57727e-09
1.42962e-08
5.28678e-08
0.00255049
4.77149e-09
4.59763e-09
1.88151e-09
1.54771e-07
5.29582e-06
5.03513e-09
0.00156981
3.50876e-08
9.45592e-09
6.29043e-09
5.12074e-08
0.000429645
6.49761e-07
1.62009e-10
1.00394e-09
0.00182619
0.00217011
6.14522e-08
3.89712e-09
0.0018355
1.61983e-08
9.06092e-10
0.00356046
9.03852e-09
0.00275319
2.92236e-07
1.76728e-08
2.02075e-08
9.7774e-09
9.5615e-09
4.35024e-09
3.04716e-05
7.46184e-07
2.27237e-09
3.98524e-08
5.55152e-08
5.33098e-09
0.00257875
8.69891e-09
1.33297e-08
0.00197406
2.62535e-08
3.59163e-08
3.04111e-10
0.00228712
2.82831e-08
1.3434e-07
3.26858e-09
3.70095e-08
4.03358e-09
0.00233762
5.92252e-09
7.16182e-09
0.000615304
1.06987e-08
7.11311e-09
0.0023317
6.55237e-08
3.87764e-10
3.15234e-08
5.94452e-09
0.0018836
4.41521e-07
5.99671e-08
3.46309e-09
4.02788e-07
1.41186e-07
8.6789e-09
1.379e-09
1.03073e-09
3.41131e-08
1.05266e-08
8.10539e-10
7.82122e-09
7.115e-09
1.05585e-08
0.00231616
6.96463e-07
1.4782e-08
2.05255e-09
9.40271e-10
0.00219977
1.94439e-08
0.00327803
9.37883e-07
0.00158579
7.71368e-10
0.00215252
0.00292639
8.9574e-09
9.38073e-09
8.97091e-08
0.00210512
0.00251638
3.06891e-07
7.949e-09
2.49521e-07
1.05196e-09
2.20314e-07
8.76037e-09
9.42747e-08
1.66975e-08
1.46206e-09
3.91963e-09
8.53915e-10
6.17524e-09
9.31209e-09
3.79316e-09
5.07296e-09
1.52556e-08
9.02731e-08
3.55753e-11
3.35965e-09
7.47164e-10
5.67006e-09
1.51986e-09
1.71936e-07
0.00189959
0.00279692
4.51249e-09
0.00222561
1.40054e-08
3.07011e-09
4.4882e-09
1.64667e-06
1.79785e-07
7.18773e-08
9.9287e-10
1.10345e-08
2.14166e-09
7.91751e-09
1.59527e-09
1.28359e-08
1.41443e-07
0.00158849
2.44376e-09
2.12212e-08
0.00140358
0.00178425
0.00219801
0.00206375
0.00176509
4.64492e-08
3.77805e-08
2.88947e-09
7.84796e-09
7.59668e-09
1.34109e-06
3.93594e-09
2.95052e-08
3.41128e-08
7.17621e-09
2.2509e-09
2.66214e-09
7.43428e-07
3.15501e-06
3.9849e-07
5.97457e-09
1.67236e-09
3.23721e-09
0.00284209
2.53528e-09
0.00185272
1.07155e-07
8.78003e-09
7.52677e-07
0.00105424
6.75722e-08
4.01229e-10
3.80478e-09
3.2046e-08
1.50432e-09
2.36493e-08
8.16075e-10
0.00110407
3.42979e-10
4.18301e-08
0.00284507
2.96944e-09
0.00133044
5.86797e-08
0.0021666
1.00794e-07
0.00121969
3.5511e-10
0.0028953
0.00232084
2.77437e-08
4.16109e-09
0.00158364
1.95938e-08
0.00186935
1.68468e-08
7.79277e-09
5.04766e-10
1.67031e-08
2.0429e-08
1.49978e-08
6.36658e-07
0.00292274
0.00166186
1.22693e-06
3.7848e-09
3.46616e-07
0.0030563
0.00136142
0.0023658
0.00234395
5.33028e-09
6.07866e-08
2.74574e-08
1.2457e-08
0.00303577
6.51319e-09
0.00148776
0.00321499
5.505e-09
3.14188e-09
0.00160518
0.00302784
2.82407e-08
9.2615e-10
0.00169035
8.84379e-08
2.56087e-09
4.67467e-07
9.62378e-08
0.000406013
7.13513e-08
5.66802e-08
2.47184e-07
2.69329e-07
9.07551e-08
3.91991e-09
4.40584e-09
1.06323e-08
2.03118e-09
2.05169e-08
8.6809e-09
1.81738e-10
2.21871e-09
0.00200651
0.00284307
3.43473e-10
2.54397e-08
6.65353e-09
2.79316e-09
4.81454e-07
1.94922e-08
2.36134e-09
0.00270669
0.00150585
0.00144871
0.00162333
4.87912e-08
0.00136246
2.54944e-07
0.00376677
7.28873e-10
0.00227612
2.72986e-08
3.64646e-08
1.55395e-07
6.12255e-10
0.00294104
1.85675e-07
0.00423617
5.93248e-09
9.46218e-10
9.08647e-09
8.96448e-09
0.00133978
0.00286833
1.38012e-10
3.3179e-09
2.43135e-08
0.00167429
3.96339e-09
0.002803
3.40441e-07
1.93168e-09
5.74276e-09
0.00241512
3.51034e-08
0.00213604
8.20343e-08
0.00383043
0.0031996
7.75794e-08
3.69627e-09
0.00352899
8.63701e-09
8.51522e-07
0.000344638
1.54984e-08
1.39044e-07
2.28551e-08
8.87567e-09
0.00300984
3.92121e-09
7.38041e-08
3.85373e-10
7.0337e-08
4.53283e-09
5.31117e-09
1.51194e-08
1.01091e-08
1.71302e-08
0.00294978
2.14301e-08
2.76416e-08
4.69889e-09
1.42997e-08
8.95728e-09
9.82914e-09
1.16011e-08
0.00217429
8.58785e-09
0.0029368
0.00189492
4.90788e-09
0.000360671
2.94796e-09
3.32122e-09
2.61222e-08
3.47289e-08
3.00846e-08
0.00152605
0.00202693
1.10598e-07
1.03246e-07
8.25466e-08
0.00305492
0.00110992
4.80922e-08
0.0021631
0.00439037
1.26251e-06
0.00259017
0.000410463
6.46681e-09
7.83157e-07
2.51715e-08
0.000563894
6.80237e-10
0.00252477
3.30562e-10
2.32231e-09
0.000636437
0.000341711
1.5547e-08
0.000460459
4.25925e-08
1.04489e-07
2.57842e-08
2.6725e-09
3.95228e-07
2.86652e-09
4.72561e-09
0.00243078
1.32488e-08
1.38684e-08
4.22039e-09
1.22014e-07
1.65418e-09
4.57278e-05
2.97536e-08
2.03036e-08
7.72961e-08
1.64153e-07
0.00029709
0.00227195
4.17962e-08
6.91872e-09
0.00236628
0.00234085
3.70338e-08
2.28446e-08
1.23897e-08
3.15763e-09
3.0588e-08
1.09297e-08
0.00200159
0.00433498
6.11012e-09
2.04366e-09
3.84379e-09
6.02753e-09
0.00246896
0.000394487
1.75958e-09
1.8118e-08
1.53245e-08
0.00211929
1.05278e-05
1.09145e-06
0.00194327
2.49352e-08
2.49927e-08
4.9383e-09
4.11722e-08
2.5314e-08
0.00220479
5.27372e-08
0.000310648
5.5234e-09
6.26508e-09
0.00320552
0.00260272
7.56244e-09
0.00306981
1.07888e-09
1.47227e-09
4.53059e-07
4.99246e-09
3.55305e-09
0.00179302
2.66923e-08
1.23946e-07
0.00385269
1.4414e-08
0.00155048
0.00300659
1.37273e-08
0.00319281
1.44084e-08
1.27724e-08
1.79251e-08
1.87112e-07
9.89155e-09
4.63613e-08
5.9832e-09
2.41407e-08
4.76996e-07
1.96187e-08
0.00232322
6.38728e-09
0.00301324
8.49006e-10
1.14665e-08
5.36642e-09
0.00230987
8.45793e-09
0.00223805
0.0019234
0.00309696
1.5706e-08
0.00209384
1.44703e-07
2.15144e-08
3.1419e-09
7.9156e-09
1.27103e-08
7.6293e-08
1.42234e-07
2.84713e-07
3.42516e-09
0.00282187
3.2199e-08
1.16442e-09
8.94684e-10
4.50422e-09
7.05309e-10
0.00200404
3.56727e-08
0.00294233
2.69862e-08
0.000624968
3.60317e-09
3.64079e-09
0.00176861
0.00346524
6.65741e-08
3.70128e-09
0.0037556
1.56723e-08
9.94139e-10
3.32617e-09
1.3252e-08
6.24864e-10
1.3737e-08
1.51568e-09
1.40885e-08
2.85745e-09
5.92709e-08
2.70241e-08
0.00246208
5.49223e-07
1.02105e-07
1.12214e-08
4.63934e-09
0.00208846
1.39818e-08
0.00298221
4.13554e-08
2.80939e-08
6.6423e-09
6.2331e-09
7.95937e-08
7.42828e-07
0.0012973
0.00121775
7.97273e-09
0.00369086
2.41625e-08
0.00276917
9.04003e-09
1.3127e-08
2.94302e-09
0.00259935
0.00127757
0.000427414
4.45134e-08
2.03101e-09
0.00128973
5.30943e-09
3.26602e-09
8.95336e-09
5.34047e-09
0.00237151
0.00202097
1.78796e-08
3.15213e-08
5.155e-08
3.88419e-09
3.23567e-06
1.80832e-06
6.20918e-09
2.4493e-08
0.00157763
8.82943e-09
3.1168e-08
1.09067e-09
2.99994e-08