/*--------------------------------*- C++ -*----------------------------------*\
  =========                 |
  \\      /  F ield         | OpenFOAM: The Open Source CFD Toolbox
   \\    /   O peration     | Website:  https://openfoam.org
    \\  /    A nd           | Version:  10
     \\/     M anipulation  |
\*---------------------------------------------------------------------------*/
FoamFile
{
    format      ascii;
    class       volScalarField;
    location    "33";
    object      SgT;
}
// * * * * * * * * * * * * * * * * * * * * * * * * * * * * * * * * * * * * * //

dimensions      [1 -1 -3 -1 0 0 0];

internalField   nonuniform List<scalar> 
59698
(
0.0131569
1.16394e-15
5.09341e-15
1.66838e-15
0.0305133
3.63278e-18
0.0011457
1.53897e-14
2.23792e-15
1.9979e-17
2.19753e-15
2.01556e-15
8.7787e-17
2.25611e-17
0.000359545
9.06476e-18
5.61678e-16
5.76381e-16
2.14948e-16
0.000259004
0.00140132
0.0142835
1.20035e-07
2.13978e-18
0.0422223
7.93792e-16
2.00584e-16
0.00763652
0.00676142
0.00748178
0.00480661
8.36972e-17
1.05299e-16
0.012465
0.00249413
5.9261e-16
0.0191966
0.0204794
2.19324e-15
0.0226165
0.00864172
4.82717e-18
0.00372094
8.74083e-16
7.43575e-19
0.032246
1.03809e-15
4.9533e-06
1.03253e-05
7.19074e-16
7.13708e-06
1.22939e-15
1.47054e-16
3.71306e-15
0.0092001
4.62815e-16
1.40218e-15
0.000212159
1.53551e-16
0.00281864
0.00346407
5.01172e-16
0.122499
5.03125e-16
0.0124893
2.22585e-14
1.32032e-16
8.60981e-17
8.59975e-16
4.20502e-17
7.88378e-10
1.35716e-15
4.11881e-06
0.040989
7.82604e-18
0.0391777
1.62087e-15
0.00922538
0.000288272
0.00616133
0.00881031
1.23389e-16
9.68189e-18
2.01467e-15
0.00857718
4.13349e-15
1.14187e-15
1.31463e-14
0.0631675
7.22527e-16
5.46009e-17
0.00199961
0.0147217
6.13427e-16
1.70623e-16
1.10455e-17
0.00527619
2.6624e-14
0.000269049
2.91328e-18
0.0730024
0.00178826
0.0161806
0.0120757
6.50361e-16
5.71898e-17
9.2469e-16
1.26926e-16
5.25079e-19
2.84255e-17
4.96547e-15
1.49177e-15
0.0379317
6.32537e-18
8.11185e-15
1.91177e-14
2.60903e-15
1.51849e-15
4.00947e-15
8.13222e-17
1.05221e-14
1.14513e-16
3.27031e-15
5.74077e-16
4.97793e-16
4.98546e-15
0.0108051
2.77429e-17
2.49782e-15
8.81709e-15
0.0417832
1.18917e-14
1.59796e-16
0.100111
0.00433466
0.00438698
1.94744e-14
1.19848e-16
2.75675e-16
3.4866e-16
7.02565e-16
1.16711e-16
0.000280876
0.00161395
9.50961e-15
9.53739e-16
2.37987e-14
2.45985e-14
1.63532e-15
0.0292611
4.20613e-05
2.11649e-16
0.00146586
6.23253e-15
5.84042e-12
1.11792e-15
2.38604e-16
7.34475e-15
0.0124085
2.63961e-16
0.000858919
3.75366e-15
0.0163885
0.00163321
0.00343033
0.0323933
1.10786e-16
0.071327
0.000476121
6.56206e-16
0.0119688
2.34054e-08
0.0108281
0.0148289
0.079512
6.24567e-16
1.37124e-17
5.09052e-05
2.63492e-15
0.00637068
0.00944115
0.0183912
0.0148343
2.78275e-14
0.045581
0.000234981
0.0114639
3.21301e-16
8.47135e-15
0.000202467
3.417e-15
2.35639e-16
0.00266987
0.0386157
0.00410086
3.51184e-15
0.00985802
0.0558425
1.4372e-05
0.00772003
5.29127e-16
0.00625573
0.0210901
2.9208e-15
0.00693133
0.0011103
0.0061577
0.000669163
0.00511337
0.00800655
9.22947e-16
9.93154e-17
0.000160576
7.29686e-17
0.00406425
1.1953e-14
1.07563e-14
4.78266e-16
0.012814
0.0066632
0.00560786
0.00050901
6.07355e-15
0.0664734
0.000817745
0.0236728
0.00731916
0.0031124
0.00694648
0.158798
2.68742e-16
0.00468112
0.00292423
0.00321006
1.03923e-14
0.00976735
0.0830643
2.70698e-15
9.52846e-15
0.00045907
1.1474e-15
0.00147456
0.0134892
2.58229e-18
0.00602559
2.14974e-14
0.00376286
0.229827
7.37505e-08
1.60082e-16
9.66942e-14
0.000125723
8.00765e-05
7.82096e-16
6.16387e-15
7.3542e-05
3.64327e-13
0.000274827
1.80707e-15
6.57923e-15
6.98917e-06
3.34993e-17
2.24096e-08
2.86221e-13
1.43255e-13
0.0478414
1.86506e-15
4.85024e-15
8.18028e-16
6.27631e-15
1.39882e-15
0.0440185
0.000153177
8.134e-15
0.0180224
4.83463e-16
9.64612e-15
4.63805e-16
0.00209291
1.28508e-16
1.85118e-17
9.94517e-15
5.31284e-16
0.105097
0.0459837
0.0203082
5.1638e-16
3.39456e-10
0.0731847
5.79605e-16
0.090747
3.95597e-05
1.09147e-15
6.87106e-15
1.55884e-15
1.74132e-14
1.99475e-15
1.13684e-15
0.00420087
1.42318e-16
0.00242912
1.06089e-17
1.969e-18
6.0381e-16
3.04402e-15
1.24483e-15
0.0520169
5.38694e-17
1.32495e-15
6.05089e-16
1.42203e-14
3.12692e-15
1.23807e-15
2.75877e-18
5.97055e-16
0.000150086
1.30636e-18
9.7214e-16
1.72896e-18
5.00146e-16
2.15281e-16
0.323171
8.8559e-16
1.31074e-17
0.0485271
0.0104811
1.16271e-15
4.55193e-16
0.00024113
6.1976e-17
0.0065342
0.00416231
0.0203572
0.206449
9.21716e-16
0.000165038
1.22166e-16
2.92375e-15
0.00909751
0.00326335
0.00925424
9.14021e-05
1.42436e-15
0.00145953
9.68149e-05
8.64434e-15
0.000121105
0.0394665
2.24698e-16
1.4338e-05
0.00798418
2.25822e-15
0.0401975
1.39572e-19
0.245692
0.000252983
0.0141607
3.6223e-15
3.34926e-16
8.47731e-17
1.23391e-14
6.21381e-17
1.54378e-15
0.000912384
1.46895e-17
7.82239e-19
2.4531e-16
0.000350801
2.51629e-15
0.00165925
0.00188969
1.1802e-16
3.14471e-15
8.69838e-19
0.00618576
6.41815e-17
1.57058e-15
6.99141e-14
1.11409e-16
9.65538e-16
8.16905e-19
1.01474e-14
1.567e-15
0.000573178
7.53613e-16
1.27927e-05
1.43541e-15
4.50627e-18
1.23258e-16
1.04608e-15
4.11729e-16
1.03314e-17
6.37169e-06
0.00260611
0.00128712
0.000474749
0.0477428
5.63081e-15
4.74798e-16
1.9483e-15
0.00040919
3.76177e-05
2.23371e-15
2.48222e-14
5.14976e-15
3.71258e-14
0.0820452
0.0254064
1.91542e-05
0.00542061
0.0316944
7.15299e-16
1.55915e-06
2.11073e-15
2.29085e-14
0.0592237
5.58702e-15
0.010369
0.000503695
8.42642e-05
8.55095e-16
7.13302e-16
5.58447e-05
0.309546
5.23959e-15
3.2037e-15
2.73047e-15
4.00524e-16
1.406e-15
9.36576e-17
0.000284237
0.000187048
0.0151963
0.00302967
0.002122
5.58239e-17
2.61355e-15
0.212136
4.84249e-15
0.00105988
2.95174e-19
1.61108e-16
5.10896e-16
2.07904e-15
1.52996e-14
0.00239223
0.0702055
2.0298e-18
1.19156e-15
0.00906978
3.58052e-16
1.9751e-15
4.97382e-16
0.0329021
1.36966e-15
1.08457e-15
0.108473
3.40972e-17
0.00965011
2.13557e-14
0.0543795
3.47372e-14
0.0125346
0.013334
1.68862e-17
2.12517e-14
3.04244e-14
0.00840819
3.72185e-15
0.00801808
0.000706946
2.98788e-16
1.10905e-15
5.51463e-17
2.95199e-15
1.21361e-14
0.0011143
0.0690185
0.00137666
1.06245e-15
2.75085e-14
1.61864e-15
4.06972e-15
3.08474e-16
0.00537121
1.28271e-15
2.30322e-15
1.49123e-15
0.0658087
0.00193992
0.0231363
0.0664136
0.00109671
1.92918e-15
0.0545414
4.70941e-15
1.36071e-15
2.11502e-15
0.00942574
1.81705e-16
9.94526e-17
0.0643282
0.00715521
0.00199196
1.23902e-17
7.60228e-17
7.71915e-15
8.61984e-17
3.96548e-14
0.00314159
0.000323763
0.0748179
0.00736972
2.18122e-19
0.00906647
1.86701e-14
1.3869e-17
2.86117e-14
4.48176e-18
7.46882e-18
0.00541942
0.00377989
2.2415e-14
5.53355e-18
6.80782e-18
0.00125413
0.00973012
7.13179e-16
0.00728298
0.000193224
2.63095e-14
0.0393504
7.96711e-18
1.08737e-15
3.08716e-15
3.18155e-17
2.17629e-18
6.69174e-05
3.85822e-16
1.98243e-16
0.00971276
9.67234e-16
2.20864e-14
0.0679574
0.00818808
0.013551
0.0100854
6.32705e-06
0.0117134
3.83111e-07
6.4405e-15
6.66927e-16
1.14148e-15
4.48367e-17
2.56194e-16
3.09528e-15
2.4777e-16
0.00134089
0.00688716
0.000534084
3.82142e-16
8.23139e-17
8.37521e-16
8.24406e-05
1.23793e-14
1.0221e-17
0.0746781
2.30131e-15
0.0036829
1.07958e-15
0.00249163
2.1069e-15
1.80503e-16
2.95157e-05
5.72858e-06
1.8019e-05
8.40919e-16
0.00351909
0.000106089
5.26638e-17
2.06208e-18
9.80468e-16
0.00200112
4.95793e-16
4.02378e-05
1.74138e-16
4.51742e-14
1.06985e-15
0.00417105
2.35898e-05
3.55627e-05
0.000157373
7.19365e-16
3.78253e-16
5.6281e-19
1.07909e-15
1.25486e-12
0.00167799
2.54714e-19
1.12163e-17
0.0027237
1.97066e-11
2.58928e-16
2.57131e-15
1.86647e-09
6.53568e-09
1.06455e-15
6.09605e-18
2.85205e-11
1.6722e-14
9.70515e-15
2.53048e-16
1.01103e-14
1.63051e-15
3.37429e-14
1.97143e-15
1.36732e-14
0.225869
1.8795
7.06447e-15
2.62854e-16
2.59002e-16
1.96089e-16
0.000921819
0.000775211
2.04765e-16
0.00444379
2.63014e-16
1.75536e-15
6.1809e-16
7.06454e-05
2.46087e-16
5.3641e-17
1.36375e-16
9.29379e-16
2.59164e-15
5.36623e-16
8.96552e-15
1.63591e-14
0.106313
8.76152e-16
8.45519e-16
1.45715e-15
6.44548e-16
4.46244e-08
0.0037808
7.93532e-15
1.03517e-16
1.35565e-15
1.19841e-17
8.79663e-17
1.59645e-15
0.0082821
5.44701e-15
7.9788e-16
2.18282e-16
8.3825e-16
2.81805e-07
0.000325445
2.43284e-16
3.24631e-16
3.99344e-16
0.000881574
0.0196552
0.0898192
0.00119458
5.76965e-16
4.89841e-16
1.63555e-14
0.0415193
3.19508e-16
4.79376e-15
1.73843e-15
2.92917e-15
2.42503e-15
2.09622e-15
7.08253e-19
0.00587307
0.0473263
2.74688e-16
2.92345e-16
2.11887e-16
1.94668e-18
3.05513e-18
1.59369e-16
9.12626e-16
5.0495e-15
8.88465e-16
2.13457e-16
0.00859517
0.00439923
0.0362136
5.88526e-15
1.33108e-15
2.70115e-07
8.3039e-17
4.38727e-16
1.21898e-16
1.89544e-17
8.34883e-17
1.17055e-17
4.93423e-17
0.00582877
4.21752e-16
1.99316e-15
2.3788e-15
0.00634639
2.61289e-14
5.07794e-16
2.06893e-19
5.37935e-13
1.34801e-18
5.93946e-15
9.37998e-17
1.46899e-15
0.00195108
0.0092004
1.31649e-14
7.06858e-15
9.087e-18
0.0604877
0.00080454
6.73189e-15
7.27106e-16
0.00144263
0.0257014
0.00693639
4.3292e-17
0.0557637
1.36742e-14
0.00256986
8.18755e-18
0.00769343
6.88404e-05
8.14729e-19
0.0111695
4.58194e-16
2.17523e-15
0.00308721
0.0599891
9.04793e-15
8.14441e-16
0.24562
6.2902e-06
0.000689599
3.21093e-06
0.00191675
0.00174035
1.71177e-15
0.0133517
7.00732e-15
0.0600328
0.00265594
0.0224651
4.97691e-17
2.58696e-16
0.105023
0.238208
1.60777e-15
1.30411e-14
0.0500798
5.16675e-17
0.00225887
0.00516196
2.77522e-17
0.0060798
0.00404942
2.18195e-14
1.91997e-16
0.00197664
0.0142458
1.46963e-17
3.12873e-17
4.95384e-16
5.19404e-16
0.00434437
4.79901e-15
3.62177e-17
0.00607997
0.005223
1.23403
1.69264e-18
0.0246628
0.00973351
0.0210472
0.0015177
0.00476413
5.85487e-18
0.000972539
0.0015851
8.88394e-15
0.00655727
0.0111274
0.104342
1.21543e-15
0.00543177
1.08668e-16
4.8299e-16
1.34997e-15
6.19098e-16
1.36668e-16
1.50988e-16
5.41835e-15
1.93596e-14
0.00949854
0.000141923
6.05297e-12
4.3603e-16
2.42298e-17
0.00685704
6.99148e-17
1.61114e-16
1.43088e-15
7.97805e-11
6.49714e-05
0.0137281
1.90949e-17
3.80589e-16
0.0199376
0.210987
3.73278e-16
0.008765
1.44775e-14
0.00067505
6.5154e-17
1.07269e-16
1.2278e-06
5.41958e-05
0.00749743
1.21389e-17
0.00627751
1.92189e-15
2.3942e-15
2.20184e-17
3.40021e-15
2.3824e-15
3.96737e-06
7.8861e-16
6.74488e-05
0.000210777
1.12908e-15
2.99862e-17
1.37894e-16
8.34792e-16
1.34041e-16
0.0023111
1.92716e-14
1.33942e-11
5.54366e-17
0.00406287
6.51753e-15
5.33909e-17
0.0157804
1.09035e-17
5.95344e-15
1.3367e-16
0.0355686
0.00488295
2.48201e-06
2.28693e-15
2.71515e-15
0.0105981
6.02959e-19
0.00983268
1.40158e-14
9.45375e-16
1.07731e-15
7.87002e-07
3.55956e-15
5.2656e-17
4.95424e-16
1.80674e-17
0.00884566
3.7046e-19
0.0018475
8.76011e-18
1.69388e-15
1.55691e-16
0.0013931
1.6575e-16
4.19055e-16
6.99137e-15
9.36572e-16
3.52867e-18
6.60791e-17
6.50027e-15
5.37582e-16
6.82649e-15
5.0819e-17
2.06977e-16
7.50328e-13
0.00372766
0.0182794
3.26592e-17
9.78882e-13
0.00297689
7.84019e-15
0.00281131
4.59765e-16
1.13904e-18
0.00448873
1.95113e-16
2.07055e-19
4.76622e-14
5.86229e-13
2.63424e-19
0.0026299
2.38992e-14
3.09088e-16
0.0654792
6.07385e-17
1.70054e-14
1.75858e-14
7.95766e-17
2.28418e-17
2.36246e-16
1.91765e-15
7.16052e-17
0.0202437
0.00399428
1.26543e-15
0.04089
9.07093e-05
1.14337e-13
0.115315
1.42829e-15
0.00459539
0.00450625
0.0322663
0.05868
1.35764e-16
8.13102e-07
4.68687e-17
0.0247066
0.000267682
2.61556e-16
0.00140413
7.5637e-17
2.70511e-17
0.00243439
3.4641e-16
1.65281e-05
0.00680557
0.00279579
4.3912e-14
0.000299779
0.0251227
0.000748623
1.13797e-15
4.12455e-14
4.91545e-14
2.34131e-16
5.40407e-16
2.59789e-16
1.41607e-14
2.02666e-15
4.25456e-14
7.08593e-16
2.16603e-15
8.98211e-16
0.00543722
9.65053e-17
3.27407e-16
0.00962223
9.88318e-09
9.93423e-16
5.85576e-16
3.88411e-16
0.000121813
5.2288e-16
2.82674e-16
3.45048e-17
6.49095e-18
0.000138045
1.62202e-18
4.75782e-15
0.0109328
0.0161561
0.0177929
5.24782e-16
1.67711e-08
0.00294176
0.00116672
0.00278996
0.00400335
0.000391198
1.11424e-14
0.000176767
1.69682e-15
0.0110852
0.0565707
4.77321e-09
3.0914e-16
3.46543e-15
4.37618e-18
8.93474e-05
2.27703e-08
0.000315897
9.56225e-07
9.02854e-16
1.64727e-15
3.49186e-16
6.11194e-13
7.90903e-07
7.59492e-16
8.78696e-15
0.0472135
2.90787e-18
3.82423e-17
3.1556e-14
0.0202797
2.99823e-18
1.2648e-06
1.42479e-06
0.00108
7.62973e-16
6.90143e-11
0.00115684
2.80939e-15
6.65071e-16
5.18739e-05
8.88065e-16
0.00546784
0.00952129
0.0100916
0.00816246
0.00526973
0.00588405
6.68881e-15
2.36041e-16
2.90761e-17
0.00593274
0.00469606
3.30838e-16
2.45647e-16
1.695e-16
0.00393177
1.59165e-15
5.69219e-15
4.40135e-14
0.0148946
9.2911e-17
0.0407184
2.63319e-16
0.734974
2.82967e-15
5.3148e-17
1.2269e-16
2.32045e-05
2.79789e-15
2.23353e-10
0.000302966
0.0070037
0.00180489
2.39773e-16
0.00354485
1.17943e-16
1.25205e-17
0.0198006
4.50805e-16
0.000218208
1.09194e-15
1.23485e-16
0.000111261
1.0551e-16
5.22725e-16
8.33158e-17
0.00819285
9.92067e-05
0.0921233
1.43248e-16
2.86992e-16
0.0819995
3.65577e-17
0.008783
6.12862e-16
0.0251427
8.75493e-16
0.000184169
1.49043e-15
1.80415e-14
0.00016447
1.58818e-18
1.1222e-16
7.13493e-16
2.41116e-14
3.04163e-16
1.87864e-15
1.64714e-14
0.00115087
0.00964834
3.44715e-16
0.00249425
0.000518992
2.23406e-16
0.036216
0.0543181
0.00393671
0.00104196
0.00325593
0.45682
0.0239603
0.0262512
1.19117e-14
3.51003e-18
0.102407
5.05419e-16
8.63601e-18
4.32922e-15
0.0144141
1.77697e-15
0.0012872
4.39164e-16
0.00192303
8.33785e-18
0.00246746
0.00903996
0.00195376
0.000656608
1.72e-15
4.5246e-18
8.95303e-18
1.53808e-15
0.00363509
1.51694e-16
2.51309e-16
1.18171e-16
0.0054099
5.74651e-16
0.113628
2.47985e-16
0.0013535
9.65177e-15
0.00566416
1.24509e-15
0.00110879
0.00376832
1.52859e-17
1.87149e-15
3.28758e-15
9.09613e-16
1.25511e-05
6.95128e-15
0.0186114
0.0101731
1.26353e-14
0.00151922
0.0842303
0.00108741
0.00391346
2.44355e-15
1.6758e-14
0.00368416
0.0362673
0.0089962
0.00206183
4.67546e-16
0.00191472
0.00338302
0.00301463
0.00395483
0.00506946
1.1169e-18
0.115825
0.0502451
0.000463579
2.78356e-16
2.93556e-15
0.000484618
8.4232e-16
0.0260614
0.00140133
1.19355e-14
0.00229649
2.71353e-15
1.25554e-17
0.00341332
1.34654e-17
0.00277956
1.59348e-15
7.4892e-13
0.00432418
5.79552e-16
0.0194388
8.83738e-16
9.72832e-18
0.00273351
0.000178156
0.00039971
0.00197956
0.0118373
2.58225e-17
1.74458e-17
1.1424e-15
3.87439e-15
3.3061e-10
1.63736e-15
1.92107e-15
1.63945e-16
4.12804e-15
1.48187e-17
1.26991e-16
6.73293e-16
7.49709e-16
1.38731e-15
2.13297e-14
0.000320083
8.00357e-16
8.04587e-17
4.57166e-05
1.23766e-15
3.28206e-15
1.43968e-15
4.36318e-06
4.61053e-16
0.0038928
0.103298
4.45727e-16
0.00479338
0.00172303
0.0017304
3.90306e-17
4.287e-16
2.65502e-15
0.00831337
0.0197966
0.00287243
9.36507e-15
3.74803e-16
8.79886e-16
4.04267e-15
0.00477362
0.00938126
4.7172e-18
1.54848e-05
0.00285346
1.5275e-16
0.00351986
1.82041e-05
0.0145568
0.00193328
0.00261341
9.69229e-05
7.65084e-18
2.24805e-17
5.25245e-05
0.00564537
1.5253e-15
1.26527e-17
8.76076e-15
0.00502852
1.20954e-15
2.71033e-16
5.98924e-15
4.89642e-17
6.83018e-17
2.4174e-15
8.24144e-16
7.19828e-15
9.06087e-05
0.0284267
0.00210952
0.000856958
2.31246e-15
2.3135e-18
1.59145e-15
2.71286e-18
0.0146748
1.52245e-15
5.10102e-16
0.00120882
3.6042e-18
0.00088925
3.77446e-16
8.06989e-12
7.26074e-19
1.18472e-15
7.90333e-16
6.19888e-17
1.59616e-14
7.14468e-16
1.33864e-15
1.21405e-15
2.39611e-05
2.25945e-17
0.00570064
2.36043e-16
8.06368e-18
0.0474717
1.87107e-15
1.91633e-14
0.000267768
9.7651e-18
2.25919e-14
4.71124e-17
4.22452e-15
2.34277e-17
3.08912e-14
0.000949134
0.00034256
0.00272956
0.00428509
0.000734588
2.03754e-14
0.0625099
4.58831e-16
2.34642e-14
0.00124226
0.000797854
0.00343261
9.46557e-06
3.1677e-15
0.350769
1.51361e-14
1.87029e-15
1.09626e-14
0.0229805
0.00304126
1.5323e-15
1.26858e-16
1.36021e-14
0.000589888
0.03616
0.00217807
0.00867754
0.0118031
2.73479e-17
2.35075e-16
1.08955e-16
2.70823e-15
0.0083078
1.24175e-16
0.0750212
3.96418e-17
0.000483484
3.28487e-18
3.15769e-15
1.95636e-16
0.000385464
0.00859553
0.0180659
2.52656e-16
0.00185396
7.266e-08
1.17781e-16
9.95103e-16
0.000991573
0.00199964
3.72298e-09
0.000814631
0.00748759
0.0106026
7.74428e-16
0.00161552
0.00257897
4.07411e-16
2.69659e-17
1.16687e-16
0.0136611
0.0116237
0.00349847
0.0471775
0.00265362
1.80547e-14
0.00527274
5.09843e-16
7.73089e-15
0.00018636
0.0223404
5.94826e-17
0.0206363
0.011687
0.0339535
6.76129e-20
0.101546
0.00888323
0.00173663
0.00462429
0.0646894
1.58446e-15
0.00282052
2.5988e-15
1.32711e-15
0.00805314
2.42828e-16
2.63359e-15
2.14185e-14
0.00010511
0.0248927
0.29412
6.86206e-16
0.00897253
2.09321e-16
0.000144662
2.23396e-16
0.190416
0.000222975
0.286964
0.78012
3.28548e-06
1.13775e-16
3.47117e-16
0.000182591
0.0106967
0.00560512
0.0101421
0.0634382
0.0342952
1.14709e-09
1.36077e-05
0.0103902
0.011346
6.50531e-16
0.000517368
1.29771e-17
0.000243356
0.00042824
3.45375e-18
0.137933
0.000201964
2.15454e-15
1.75781e-15
0.000262136
0.00018102
1.04487e-17
6.45237e-16
0.479402
0.0313945
0.18506
0.147935
0.0022017
2.79194e-15
0.00666923
7.15221e-16
1.52231e-14
2.41039e-20
0.0852673
1.91552e-17
3.29977e-06
1.44576e-14
4.82622e-17
0.016486
6.82049e-15
0.00854999
9.92224e-15
3.21602e-14
2.42897e-14
0.000626367
0.0011256
0.013015
3.29052e-06
0.001147
9.84381e-15
0.0149012
4.6409e-17
1.01298e-16
2.86027e-15
0.0134722
0.000151124
8.13919e-17
5.40045e-16
0.03149
6.10551e-16
2.79643e-16
1.9869e-14
1.25174e-14
9.89303e-15
0.00306672
2.7892e-17
3.13957e-05
9.97182e-15
3.99941e-16
0.000124863
8.3675e-15
1.41082e-16
0.000210116
1.25177e-16
0.0107229
3.14984e-15
1.8085e-16
0.00190264
0.00168236
0.0095276
9.93272e-16
0.010302
0.000302961
2.80526e-17
1.55228e-18
2.44815e-17
9.43714e-17
8.39284e-17
2.60221e-15
1.13412e-14
1.58043e-05
0.00947719
0.00172647
1.15601e-16
0.0175457
4.35051e-05
0.000205721
0.0145313
0.00623158
0.0123255
0.0130937
0.00335494
3.70897e-18
0.321447
0.0621786
1.53445e-16
3.89498e-17
0.014799
4.45049e-16
0.024242
0.00010463
8.93472e-18
0.0120339
1.96709e-14
0.00682623
6.08532e-16
1.1092e-14
0.00752522
2.06218e-14
0.0312592
0.355554
0.000938812
0.0549314
1.43018e-15
1.65668e-16
3.99899e-05
9.05391e-06
0.103111
5.79501e-09
0.00163526
0.000483659
1.88283e-16
0.00164562
1.83238e-05
3.47475e-16
1.36838e-16
0.0265226
6.12477e-18
8.24722e-05
0.0620413
9.9153e-14
0.00228696
1.3469e-17
1.33303e-15
0.00110007
3.81314e-16
4.73016e-17
3.41385e-06
8.56899e-16
0.00249007
4.55044e-16
2.95827e-15
4.89818e-17
9.66211e-09
5.43468e-06
6.25027e-11
1.54176e-16
3.6014e-06
2.07876e-15
4.19976e-12
5.30229e-12
0.0320492
4.90017e-18
6.75176e-12
5.39547e-16
0.00166069
0.0337485
7.29435e-16
2.84916e-14
1.38826e-16
1.67517e-16
6.23588e-16
5.65304e-12
0.296701
1.48628e-16
2.91377e-06
3.49656e-16
6.9653e-17
5.00008e-16
2.10296e-16
3.69672e-16
1.05001e-16
3.56411e-16
3.66209e-17
1.89306e-16
6.25905e-15
1.85182e-16
0.01154
1.57692e-16
5.78411e-19
3.72459e-17
1.09513e-15
1.99662e-16
0.0444277
4.73424e-16
3.91487e-16
1.10221e-15
8.27746e-15
5.41598e-17
2.6655e-05
1.53422e-17
2.46886e-15
4.24914e-05
2.65441e-16
5.4066e-17
3.76567e-15
7.47673e-17
3.04878e-16
0.0226659
5.48389e-16
0.00619846
1.9316e-16
0.0156233
2.29325e-14
9.15796e-17
1.04563e-15
0.00438996
8.49571e-16
0.00410071
0.0192861
1.8726e-16
1.15938e-15
5.01727e-16
1.41906e-15
1.93488e-15
4.06435e-15
2.25705e-17
0.0163251
1.3413e-15
0.0104474
4.35621e-14
0.876218
0.441648
1.11379e-15
0.040921
8.23717e-05
1.32611e-15
0.00932843
9.28603e-10
0.601939
0.0440461
0.00454107
5.48741e-16
0.02832
0.393381
2.15216e-15
0.0249299
0.00440424
0.00220425
0.125126
0.0441368
1.99911e-15
0.000958711
0.0259869
0.0487311
0.000654702
0.000290232
0.0321552
2.79098e-16
0.0139451
7.28339e-17
3.86292e-15
0.00658965
6.30825e-16
9.36988e-07
0.00390259
1.58638e-15
0.000127149
2.23433e-15
7.70012e-17
0.0078558
0.00602444
1.93382e-16
1.36125e-15
0.00170971
6.26723e-15
0.00406375
4.25208e-16
0.011531
0.063724
1.43081e-15
0.0331652
1.19556e-08
0.0015989
7.83422e-16
0.000447301
0.0302286
0.00415797
7.43963e-16
0.0272404
1.95789e-15
1.78518e-16
4.18362e-16
2.37776e-16
1.3744e-16
0.00538191
0.0259457
0.0146808
0.00511479
0.00550647
6.50527e-06
4.53851e-14
3.42387e-15
2.80174e-16
3.35853e-16
1.32646e-08
5.10534e-16
1.01195e-15
8.29176e-16
4.71365e-06
2.25007e-16
4.37455e-16
9.16616e-15
0.0101969
1.62674e-16
3.60104e-15
0.00338412
4.21728e-17
4.99611e-14
6.17254e-17
0.00682877
1.51343e-15
0.00505481
0.000446873
0.00429249
1.19433e-14
9.18562e-17
1.10814e-15
2.61255e-16
1.60704e-15
3.02186e-05
2.35663e-16
3.10645e-14
2.12922e-15
0.0346232
0.000165969
2.80972e-14
1.63392e-05
9.37703e-15
0.000312169
0.00839882
1.86258e-07
8.82513e-15
3.46695e-16
5.39714e-16
1.18767e-14
0.00180564
2.50118e-15
4.06114e-05
2.11042e-13
4.31446e-15
4.26604e-07
0.0290687
3.93711e-05
7.35277e-15
0.0029756
1.76867e-16
0.00427103
1.02584e-14
0.000393642
0.000356319
0.00280034
1.40261e-14
2.63009e-05
0.000921244
0.00716401
9.68971e-15
0.0200703
0.00614199
1.78664e-14
6.3606e-16
0.00159123
2.21674e-15
7.15094e-15
0.000207638
0.0218817
1.51252e-15
0.0376434
3.84471e-16
3.22291e-14
2.5352e-15
3.1443e-09
9.74335e-15
0.00147839
0.0137732
0.0213722
0.00206453
0.00959054
4.55234e-16
2.83897e-15
0.00292363
0.014327
7.80855e-16
1.21383e-15
8.09542e-14
0.0821873
0.0418643
5.67216e-16
1.21715e-15
1.47043e-15
1.81453e-14
1.3124e-14
0.0338122
0.00868282
0.0158487
2.88006e-15
5.07783e-17
1.50715e-15
0.0194215
9.57106e-18
2.36054e-06
1.73265e-16
4.16926e-16
0.0202789
4.0768e-16
0.000398853
1.05646e-14
7.99912e-15
5.45508e-15
2.71733e-14
0.0236949
6.63388e-16
4.20358e-14
0.0200033
1.85214e-16
1.19996e-16
3.27755e-07
7.43818e-15
4.4365e-16
0.0134065
8.18793e-15
4.74165e-19
2.19902e-16
1.19409e-05
3.22505e-15
3.06264e-14
4.14945e-14
2.09071e-16
2.31149e-14
3.18633e-05
0.0115943
0.00288969
1.32118e-15
1.0015e-09
0.000289032
0.0603251
8.08285e-14
4.65191e-16
0.0181034
1.12241e-07
0.000263809
0.00146636
9.70625e-15
7.57267e-18
0.0182043
1.51463e-15
0.0229069
0.000715853
0.0501013
0.0142671
5.01004e-16
0.0257291
5.09174e-06
0.0891264
0.00321065
8.24491e-16
1.09951e-15
0.25678
0.00490735
0.0010208
0.000217699
0.000158605
0.00334809
0.0308366
0.00853868
0.00287345
0.144272
3.91302e-05
6.2945e-19
0.0177936
0.0640414
0.03484
2.15588e-10
4.417e-14
1.45292e-16
1.09241e-15
0.000675062
0.0190163
0.0197222
2.26753e-08
0.0524388
0.0230689
0.000606737
5.97873e-14
0.0137073
0.00322895
0.000720046
0.0505116
0.000534224
0.000113642
0.0107064
0.0108628
0.0218251
4.14779e-14
5.46582e-07
0.00157249
0.0163276
1.78521e-17
3.82351e-16
0.173032
0.00259802
1.44176e-05
0.000729679
4.37399e-05
0.00316878
1.11203e-16
0.0186175
3.00288e-15
0.0140923
3.52139e-15
0.00570368
3.951e-19
0.0165008
2.05804e-11
5.11794e-15
0.00875798
9.4423e-15
0.00661914
0.00771011
3.37184e-15
0.0158303
5.50369e-11
0.0156914
0.00658053
0.00931385
0.0563788
0.00196057
0.029289
0.0346428
0.0169316
4.36884e-05
0.000545852
0.000167944
0.000963891
3.07101e-16
0.00145704
1.26795e-16
0.000630672
1.48912e-15
2.56937e-15
4.85553e-16
2.22468e-16
8.8249e-16
0.0523631
1.50374e-13
2.20233e-15
2.98688e-15
2.8084e-16
1.49515e-15
2.84783e-15
0.00119603
0.0299549
4.11996e-16
3.48461e-16
2.21139e-14
0.0170305
5.71563e-16
1.19644e-14
4.32236e-14
8.94564e-16
0.0346314
0.00687836
0.000535501
0.000721941
0.00447264
0.000262286
5.16884e-15
0.00498099
6.87629e-16
5.51665e-15
2.75327e-14
3.97196e-15
0.000117057
4.86568e-05
0.00136676
0.00866335
0.101468
0.000244972
4.37236e-14
6.6917e-06
3.02022e-15
0.00835136
0.00240117
3.02758e-14
1.27884e-14
0.00297162
3.62311e-14
0.0101074
0.0754054
0.0447558
0.000172505
2.18195e-14
5.84626e-15
1.45845e-15
5.36159e-16
0.00298529
2.42503e-16
0.00074732
0.0142038
0.00192943
2.98297e-16
7.44725e-06
0.000409825
0.0298153
1.11953e-14
2.84978e-19
0.0110506
3.01366e-05
3.22177e-16
0.00467118
2.05529e-09
1.4543e-15
3.29577e-16
7.00028e-16
0.0226879
1.45595e-15
1.49926e-15
1.55852e-15
0.00511195
3.68698e-16
0.00038107
1.07511e-14
0.000797348
0.00951874
9.6244e-16
0.0285956
1.36509e-17
4.29999e-16
0.00241002
1.5692e-16
2.10432e-15
0.00331292
0.00118787
1.86334e-15
6.29687e-15
0.00185716
1.50619e-15
3.78633e-15
6.53263e-05
0.00338083
1.17258e-15
0.300271
8.09856e-15
2.18409e-11
1.57688e-14
1.55307e-06
6.94754e-15
1.32954e-15
0.00380079
5.57381e-12
0.000577882
0.00198423
8.13013e-12
0.0140376
0.00234538
0.111933
1.34009e-11
0.0100777
0.010426
0.0123413
6.02768e-16
2.03165e-14
1.06349e-14
4.7257e-14
9.87462e-17
4.26686e-17
2.07784e-11
0.011536
3.79871e-16
8.08959e-18
0.00376569
4.95177e-15
6.82972e-16
0.0149828
1.41092e-14
5.05606e-17
1.70822e-09
1.52979e-15
1.85649e-16
1.07139e-16
9.19523e-15
0.0242912
0.0132498
0.0102641
3.30661e-09
2.7553e-16
3.78873e-09
1.17664e-14
4.28993e-15
4.16306e-15
1.94558e-18
1.49437e-14
0.0109998
0.00703398
5.28267e-15
3.65901e-16
1.13446e-14
0.000258802
1.36999e-06
7.60801e-16
0.00410265
1.47824e-15
3.31001e-15
8.61891e-16
6.12251e-16
0.00277762
1.22255e-15
1.07793e-15
2.63793e-08
1.19e-14
2.13335e-15
3.33927e-14
7.71064e-18
0.0537174
0.000469396
1.7605e-16
1.69158e-15
2.70797e-15
0.000421027
7.29884e-15
0.000277758
3.86247e-05
4.82007e-18
3.96928e-18
2.82527e-05
0.0194665
0.000954934
0.0240538
0.00164482
0.0512134
1.96543e-15
3.24017e-15
9.01581e-16
2.13894e-18
0.000885651
8.2232e-16
4.29987e-16
0.00023736
4.35605e-17
0.0192534
5.83589e-16
0.00238422
0.00574783
7.55711e-10
0.0108383
0.00359743
8.75941e-11
1.33683e-15
0.00319744
0.0296963
9.9348e-16
1.88575e-17
0.063535
0.00887398
0.00641053
1.9601e-16
0.0624358
0.000251857
0.015209
4.4446e-16
0.0173024
1.87253e-15
1.11547e-16
7.57288e-15
5.85108e-17
3.13189e-14
0.0402105
0.0145827
0.0145563
1.07314e-14
5.63361e-08
4.60797e-16
5.66603e-15
0.000964455
3.26116e-14
1.08207e-14
1.12636e-14
1.70031e-15
1.99541e-17
1.74465e-15
0.0362034
0.000194358
1.78118e-15
1.7736e-15
4.00716e-16
3.84571e-09
4.27758e-17
9.50345e-16
1.66119e-16
3.33366e-16
0.0140866
1.27941e-15
1.05371e-15
4.21929e-16
9.42303e-16
0.000123582
6.50033e-16
6.66592e-17
2.72487e-16
2.12934e-14
4.52022e-14
9.49988e-16
0.000665847
4.86874e-15
8.58624e-07
0.0168071
1.40692e-15
0.00057979
1.25541e-15
5.56261e-05
1.65659e-15
0.00695049
0.00292452
0.00059563
9.86759e-16
1.21718e-15
1.1221e-15
0.00438718
9.71275e-18
0.00752367
1.81579e-15
1.8412e-17
0.00188464
0.0956827
4.76505e-16
1.03227e-15
8.47274e-17
6.17655e-17
7.21555e-17
1.37077e-14
7.90601e-16
3.14459e-15
0.000187149
0.00373584
0.000492225
1.15383e-11
2.16556e-14
1.90128e-16
0.00949876
5.89322e-12
2.57202e-16
6.13256e-16
1.52259e-13
5.58141e-17
7.50202e-16
3.33195e-15
2.44184e-15
2.04995e-14
4.74933e-15
7.70234e-13
2.44955e-17
1.04141e-16
0.120132
8.48446e-06
8.5808e-17
2.50189e-16
5.92111e-17
0.0117173
4.75787e-16
3.74983e-05
1.12978e-15
1.50897e-15
2.31829e-05
2.22088e-05
1.88939e-16
1.94205e-05
9.36258e-18
7.32412e-15
8.96244e-16
0.018581
0.000589983
9.80002e-16
3.64604e-16
9.67678e-17
2.87622e-15
3.31497e-16
0.00265203
2.84143e-14
8.9496e-18
8.2725e-16
2.29465e-15
1.68769e-16
0.0123247
5.73418e-16
1.40987e-14
7.43979e-16
2.1786e-15
0.0844789
6.03743e-15
8.28177e-16
1.82588e-17
1.00737e-17
0.000211257
3.09357e-16
0.0265071
0.00865228
8.03969e-16
1.73168e-17
0.0378745
0.0399978
3.24612e-18
0.0179258
9.56459e-17
4.30663e-16
7.40617e-16
1.59514e-16
2.48606e-17
1.00323e-15
3.27466e-16
0.00439324
2.64472e-14
0.000157833
3.71478e-16
6.30775e-16
0.00601895
4.10618e-16
3.8934e-05
4.70355e-14
8.46765e-19
0.000199157
1.0366e-18
8.5125e-16
0.999873
1.44329e-16
0.0193918
0.000753383
2.24364e-14
1.04483e-17
0.0156788
2.05471e-06
8.64676e-15
1.19798e-16
0.00329494
1.06534e-15
5.52135e-15
4.55567e-16
9.09207e-15
9.254e-12
3.00641e-16
0.000477782
1.65271e-16
3.12802e-15
1.69776e-15
0.0198181
4.25325e-12
2.49173e-15
1.86312e-17
3.61814e-12
3.31067e-16
1.69665e-15
0.000243764
0.00924225
0.0126027
0.00412378
0.000752042
4.32792e-16
2.63231e-11
5.43955e-12
1.47588e-11
0.000467075
2.30565e-16
4.11225e-19
0.00305099
0.000982289
0.000174061
0.000397252
0.000472436
0.00153016
1.37854e-16
1.63358e-15
0.022616
2.81749e-14
1.66072e-15
3.50722e-13
0.0016307
0.009866
3.39799e-07
3.37595e-16
0.00549654
1.28404e-14
1.63374e-16
1.10514e-15
1.76215e-14
3.5333e-14
1.11119e-14
0.00362251
0.0128881
1.88722e-18
0.00606773
0.00161388
0.151871
0.000167815
0.00137702
6.17528e-16
2.92259e-06
1.21079e-15
8.62419e-05
2.7594e-16
0.0198535
4.90923e-15
2.18498e-16
0.000697602
2.40028e-17
0.00681324
6.50806e-05
0.00219906
0.0168393
0.00695934
1.57992e-15
2.68215e-16
0.0122195
7.12358e-15
5.23199e-16
2.32035e-05
4.70772e-16
9.12966e-15
4.83478e-16
1.90851e-14
7.82545e-05
0.00314434
6.63457e-10
8.23439e-16
0.000256
0.00191821
1.96997e-17
2.94969e-16
1.52876e-16
2.69442e-15
0.0149215
1.05182e-10
7.01503e-05
0.00338842
5.30134e-10
0.0313774
0.00147061
0.00737287
5.68025e-16
2.02437e-15
8.59561e-11
8.91494e-16
4.42361e-15
2.89357e-14
1.99981e-18
0.00119865
6.98843e-15
0.037281
2.24381e-15
0.00788825
5.03453e-06
0.00743259
0.000342633
0.0148067
0.0174583
0.00139716
0.00977355
0.000273023
5.28357e-16
6.70353e-16
0.00059469
4.48563e-16
1.36406e-15
1.83864e-14
6.41112e-16
0.000345856
5.97268e-13
9.87288e-15
4.38497e-16
2.71631e-15
1.83908e-16
0.0265259
4.18247e-16
2.76045e-15
1.03506e-14
3.82024e-16
4.57766e-16
5.32756e-16
1.41132e-14
2.18665e-15
8.7826e-16
0.00141213
0.00312412
1.01878e-15
0.0157253
0.0133264
1.47272e-16
8.27927e-16
3.8199e-15
2.4804e-16
0.00219273
5.68537e-16
0.000475761
1.31359e-16
8.50528e-16
3.25237e-16
0.00534645
5.42232e-17
0.00117564
0.00053349
0.00836803
0.00368911
0.00869224
9.5477e-15
0.0534789
0.0219054
0.0973965
6.36844e-05
9.3874e-05
2.36651e-15
0.000277736
1.0209e-14
0.0102098
0.0298746
0.0247085
1.81435e-16
4.2386e-16
0.00779583
9.64104e-16
0.0173393
0.302123
0.0176248
7.85037e-16
8.03609e-16
0.0162172
0.00158461
8.15368e-15
1.97646e-15
0.16143
1.37444
4.42165e-16
6.20085e-14
1.28381e-14
0.00344157
3.21215e-15
9.05937e-16
1.40529e-15
1.54545e-15
3.43357e-16
2.16667e-17
1.92543e-16
2.26167e-14
6.26719e-15
1.09114e-14
5.77141e-05
3.84886e-16
1.94461e-15
5.4337e-15
0.00319238
0.0109904
0.00403115
5.85167e-15
2.05473e-15
3.27853e-05
4.77077e-15
2.81037e-16
1.15502e-15
0.00873889
2.98869e-17
0.0313028
6.41783e-17
0.0486241
0.0150156
0.000244472