/*--------------------------------*- C++ -*----------------------------------*\
  =========                 |
  \\      /  F ield         | OpenFOAM: The Open Source CFD Toolbox
   \\    /   O peration     | Website:  https://openfoam.org
    \\  /    A nd           | Version:  10
     \\/     M anipulation  |
\*---------------------------------------------------------------------------*/
FoamFile
{
    format      ascii;
    class       volScalarField;
    location    "33";
    object      T;
}
// * * * * * * * * * * * * * * * * * * * * * * * * * * * * * * * * * * * * * //

dimensions      [0 0 0 1 0 0 0];

internalField   nonuniform List<scalar> 
59698
(
286.625
283.15
283.15
283.15
299.926
283.15
291.533
283.15
303.15
303.15
303.15
283.15
283.15
283.15
300.107
303.15
283.15
283.15
283.15
293.805
303.282
302.121
303.149
303.15
295.681
283.15
283.15
298.339
295.697
295.336
300.292
303.15
303.15
298.821
302.368
283.15
283.382
283.467
283.15
297.58
296.224
283.15
296.566
283.15
283.15
296.596
283.15
283.288
283.31
283.15
283.339
283.15
283.15
283.15
294.383
283.15
283.15
302.178
283.15
282.976
291.255
283.15
299.611
283.15
286.783
283.15
303.15
283.15
283.15
303.15
283.15
283.15
283.136
298.542
283.15
297.778
283.15
287.693
291.433
294.147
299.956
283.15
303.15
283.15
303.7
283.15
283.15
283.15
298.891
283.15
303.15
294.712
298.993
283.15
283.15
283.15
299.069
283.15
298.917
283.15
299.122
283.129
285.892
284.492
283.15
283.15
283.15
283.15
303.15
283.15
283.15
283.15
298.874
283.15
283.15
283.15
283.15
283.15
283.15
303.15
283.15
283.15
283.15
283.15
283.15
283.15
295.475
303.15
283.15
283.15
287.531
283.15
303.15
292.786
290.25
291.655
283.15
303.15
283.15
283.15
283.15
283.15
285.592
289.983
283.15
283.15
283.15
283.15
283.15
301.182
283.138
303.15
288.079
283.15
283.15
283.15
283.15
283.15
296.948
283.15
289.667
283.15
290.778
299.55
297.791
296.668
283.15
280.919
299.359
283.15
300.366
283.151
300.932
300.994
285.551
283.15
303.15
283.238
303.15
298.909
302.763
300.403
298.619
283.15
298.737
300.856
300.76
283.15
283.15
284.958
283.15
283.15
296.604
297.47
299.383
283.15
293.944
296.571
303.155
299.377
283.15
284.151
292.422
283.15
299.289
285.898
297.318
294.32
293.577
298.022
283.15
283.15
299.139
303.15
294.872
283.15
283.15
283.15
297.84
296
282.054
296.307
283.15
299.272
295.285
299.325
295.837
291.309
295.61
285.002
283.15
296.166
295.177
295.839
283.15
294.888
295.972
283.15
283.15
294.977
283.15
293.995
289.915
303.15
294.632
283.15
282.929
285.613
283.163
283.15
283.15
284.475
284.306
303.15
283.15
284.066
283.15
284.621
283.15
283.15
303.12
283.15
283.159
283.15
283.15
295.292
283.15
303.15
283.15
283.15
283.15
286.643
303.101
283.15
287.338
283.15
283.15
283.15
293.999
303.15
303.15
283.15
283.15
289.115
295.087
290.698
283.15
303.15
286.047
283.15
301.42
290.941
283.15
283.15
283.15
283.15
283.15
283.15
295.098
283.15
291.136
283.15
283.15
283.15
283.15
283.15
287.815
283.15
283.15
283.15
283.15
283.15
283.15
283.15
283.15
284.503
283.15
283.15
283.15
283.15
283.15
293.386
283.15
303.15
298.326
286.254
283.15
283.15
284.528
283.15
300.172
290.669
298.873
281.568
303.15
293.675
283.15
283.15
298.463
293.825
294.978
294.538
283.15
294.78
298.95
283.15
295.476
301.434
283.15
289.169
292.835
283.15
301.344
303.15
284.218
300.753
302.082
283.15
283.15
303.15
283.15
283.15
303.15
294.821
283.15
283.15
283.15
287.162
283.15
282.758
292.68
283.15
283.15
283.15
296.427
303.15
283.15
283.15
283.15
303.15
283.15
283.15
283.15
293.255
283.15
283.148
283.15
283.15
283.15
283.15
283.15
303.15
283.265
290.762
303.133
301.994
301.768
283.15
283.15
283.15
288.509
295.657
283.15
283.15
283.15
283.15
295.918
293.237
295.658
302.248
297.869
303.15
283.23
303.15
283.15
289.825
283.15
283.574
302.292
302.826
283.15
283.15
283.815
282.001
283.15
283.15
303.15
283.15
283.15
283.15
295.487
302.786
285.303
291.402
287.587
303.15
303.15
298.649
283.15
291.951
283.15
283.15
303.15
283.15
283.15
302.912
294.879
283.15
283.15
299.211
283.15
283.15
283.15
286.322
283.15
283.15
290.643
303.15
284.306
283.15
290.063
283.15
283.965
293.911
303.15
283.15
283.15
291.874
283.15
294.983
288.669
283.15
283.15
283.15
283.15
283.15
302.758
292.123
288.612
283.15
283.15
283.15
283.15
283.15
300.931
283.15
283.15
283.15
291.953
292.779
299.045
290.513
291.383
283.15
292.103
283.15
283.15
283.15
289.572
283.15
283.15
295.181
299.054
289.945
283.15
303.15
283.15
303.15
283.15
290.265
289.836
290.69
283.156
283.15
291.618
283.15
283.15
283.15
283.15
283.15
289.54
293.957
283.15
283.15
283.15
302.996
294.92
283.15
289.843
288.751
283.15
301.466
303.15
283.15
283.15
283.15
283.15
286.368
283.15
303.15
290.009
283.15
283.15
281.271
289.384
291.84
282.229
283.132
290.847
283.147
283.15
303.15
283.15
303.15
283.15
283.15
283.15
295.355
291.513
290.787
283.15
303.15
283.15
283.123
283.15
303.15
286.396
283.15
290.102
303.15
290.814
283.15
283.15
283.541
283.413
283.45
283.15
292.235
295.523
303.15
283.15
283.15
285.286
283.15
283.421
283.15
283.15
283.15
289.739
283.603
283.47
296.416
283.15
283.15
283.15
283.15
303.15
282.782
283.15
283.15
289.661
283.15
283.15
283.15
283.152
283.154
283.15
283.15
283.15
283.15
283.15
283.15
283.15
283.15
283.15
283.15
283.15
297.835
285.64
283.15
283.15
283.15
283.15
302.959
288.306
283.15
290.9
283.15
283.15
283.15
295.559
283.15
283.15
283.15
283.15
283.15
283.15
283.15
283.15
286.91
283.15
283.15
283.15
303.15
283.16
294.041
283.15
283.15
283.15
283.15
283.15
283.15
288.56
283.15
283.15
283.15
283.15
303.147
293.584
283.15
283.15
283.15
291.004
283.793
301.84
291.033
283.15
283.15
283.15
288.939
283.15
283.15
283.15
283.15
283.15
283.15
283.15
294.288
293.224
283.15
283.15
283.15
283.15
283.15
283.15
283.15
283.15
283.15
283.15
295.757
290.801
297.185
283.15
283.15
283.179
283.15
283.15
283.15
283.15
283.15
283.15
283.15
291.785
283.15
283.15
303.15
296.535
283.15
283.15
283.15
283.15
283.15
283.15
283.15
283.15
297.642
289.342
283.15
303.15
283.15
297.84
297.947
283.15
283.15
295.552
297.218
295.514
283.15
296.215
283.15
282.862
283.15
290.55
300.332
283.15
291.067
283.15
303.15
297.638
287.928
283.15
283.15
283.266
297.043
294.553
283.269
283.596
283.45
283.15
286.011
283.15
296.887
292.226
298.126
283.15
283.15
290.233
295.04
303.15
283.15
296.898
283.15
298.215
295.937
283.15
293.831
296.737
283.15
283.15
294.929
294.56
283.15
283.15
283.15
283.15
289.443
283.15
283.15
294.53
294.546
297.364
283.15
293.684
290.47
294.875
294.992
295.318
283.15
284.365
298.82
283.15
288.638
297.67
301.061
283.15
302.77
283.15
283.15
283.15
283.15
283.15
283.15
283.15
283.15
298.047
283.164
283.15
283.15
283.15
282.35
283.15
283.15
283.15
283.15
303.101
298.497
303.15
283.15
284.564
288.634
283.15
282.179
283.15
283.228
283.15
283.15
283.233
283.816
296.695
283.15
295.802
283.15
283.15
283.15
283.15
283.15
283.162
283.15
283.132
283.173
303.15
283.15
283.15
283.15
283.15
290.093
283.15
283.15
283.15
294.64
283.15
283.15
285.398
283.15
283.15
283.15
299.446
295.182
283.219
283.15
283.15
295.896
303.15
295.891
283.15
283.15
283.15
283.149
283.15
283.15
283.15
283.15
284.103
283.15
289.613
283.15
283.15
283.15
294.673
283.15
283.15
283.15
283.15
283.15
283.15
283.15
283.15
283.15
283.15
283.15
283.15
296.329
296.014
283.15
283.15
295.074
283.15
296.745
303.15
283.15
295.889
283.15
283.15
283.15
283.15
283.15
295.884
283.15
283.15
293.578
283.15
283.15
283.15
283.15
303.15
283.15
283.15
283.15
295.901
297.654
283.15
296.708
290.218
283.15
295.617
283.15
291.427
290.816
286.58
292.078
283.15
289.765
283.15
296.543
295.746
283.15
290.285
283.15
283.15
297.55
283.15
290.057
296.137
296.765
283.15
284.669
285.341
293.994
283.15
283.15
283.15
283.15
283.15
283.15
283.15
283.15
283.15
303.15
283.15
283.15
294.48
303.15
283.15
296.67
283.154
283.15
283.15
283.15
295.677
283.15
303.15
303.15
283.15
295.546
283.15
283.15
291.451
302.709
298.558
283.15
283.154
302.159
297.861
294.918
295.843
293.717
283.15
295.684
283.15
290.668
287.75
283.153
283.15
283.15
303.15
283.169
283.157
300.389
283.204
303.15
303.15
283.15
283.15
283.205
283.15
283.15
292.603
283.15
283.15
283.15
298.336
283.15
283.206
283.214
302.796
283.15
283.15
302.792
283.15
283.15
302.8
283.15
294.549
295.193
296.446
295.368
295.983
295.202
283.15
283.15
303.15
295.486
296.534
283.15
283.15
283.15
297.704
283.15
283.15
283.15
295.321
283.15
287.746
283.15
290.815
283.15
303.15
283.15
288.101
283.15
303.15
284.088
294.206
295.965
283.15
289.322
303.15
303.15
293.101
283.15
284.344
283.15
283.15
284.19
283.15
303.15
303.15
284.105
284.091
295.133
303.15
283.15
296.126
303.15
282.448
283.15
283.57
283.15
284.304
283.15
283.15
284.308
303.15
283.15
283.15
283.15
283.15
283.15
283.15
288.609
301.064
303.15
297.255
302.914
283.15
301.666
287.091
290.498
293.523
297.734
297.116
289.456
289.168
283.15
283.15
288.109
283.15
303.15
283.15
300.975
283.15
288.877
283.15
292.252
283.15
302.397
289.609
292.228
292.359
283.15
283.15
303.15
283.15
286.773
283.15
283.15
283.15
292.212
283.15
304.937
283.15
292.853
283.15
295.3
283.15
287.086
292.499
303.15
283.15
283.15
283.15
290.197
283.15
300.814
301.115
283.15
295.891
299.104
302.607
293.685
283.15
283.15
302.579
287.723
300.251
290.815
283.15
295.937
295.792
295.33
293.292
295.21
303.15
286.054
298.842
295.775
283.15
283.15
297.24
283.15
299.006
293.581
283.15
293.476
283.15
303.15
293.04
303.15
292.357
283.15
283.15
291.754
283.15
285.395
283.15
303.15
294.263
291.943
288.95
292.268
293.38
303.15
303.15
283.15
283.15
283.15
303.15
283.15
283.15
283.15
283.15
303.15
283.15
283.15
283.15
283.15
285.265
283.15
283.15
284.963
303.15
283.15
283.15
303.143
303.15
297.274
290.56
283.15
297.373
296.692
292.34
303.15
283.15
283.15
296.919
282.325
296.647
283.15
303.15
283.15
303.15
296.77
284.581
283.15
283.429
297.596
283.15
302.762
297.486
295.754
297.45
291.28
297.62
283.15
283.15
297.485
297.42
283.15
303.15
283.15
291.92
283.15
283.15
283.15
283.15
283.15
283.15
283.15
283.15
300.609
285.596
297.025
303.022
283.15
303.15
283.15
283.15
299.948
303.15
303.15
293.479
283.15
300.65
283.15
283.15
303.15
283.15
283.15
303.15
283.15
283.15
283.15
283.15
302.959
303.15
297.485
283.15
283.15
289.055
283.15
283.15
283.097
303.15
283.15
303.15
283.15
303.15
283.15
297.884
297.781
296.974
297.556
286.753
283.15
286.799
283.15
283.15
287.636
298.051
294.811
296.655
283.15
301.152
283.15
303.15
283.15
297.031
296.294
303.15
303.15
283.15
288.938
287.346
294.29
289.22
289.624
303.15
303.15
283.15
283.15
287.794
303.15
299.754
303.15
287.573
303.15
303.15
303.15
291.634
290.768
299.277
303.15
292.588
283.163
303.15
283.15
287.302
282.68
283.153
283.736
295.847
291.685
283.15
283.31
293.659
283.15
303.15
303.15
285.175
288.649
292.716
283.57
283.278
283.15
289.884
283.15
283.15
284.966
291.708
283.15
287.718
285.228
293.968
303.15
292.197
284.068
290.957
293.997
300.93
283.15
292.388
283.15
283.15
298.101
283.15
283.15
283.15
283.904
286.788
283.763
283.15
284.853
283.15
284.216
303.15
294.035
284.887
288.467
292.615
303.112
303.15
283.15
284.405
294.757
300.64
284.976
285.123
298.428
283.152
284.949
282.311
294.007
303.15
287.368
283.15
283.129
285.157
303.15
297.653
283.152
283.15
303.15
284.93
300.026
303.15
283.15
289.239
295.133
296.514
297.86
283.517
303.15
285.257
283.15
283.15
283.15
293.97
283.15
303.125
283.15
303.15
294.348
283.15
292.605
283.15
283.15
283.15
300.153
298.994
285.917
283.138
299.313
283.15
299.449
303.15
283.15
283.15
296.286
285.773
283.15
283.15
288.104
283.15
283.15
283.15
283.15
283.15
296.749
303.15
293.673
283.15
303.15
288.563
283.15
283.15
288.198
303.15
296.122
283.15
303.15
296.848
302.681
290.216
283.15
286.916
288.125
303.15
283.15
303.15
283.15
283.15
283.15
283.15
283.14
291.9
283.208
303.15
288.301
288.775
287.964
294.283
288.26
294.9
289.064
286.224
303.15
287.433
291.772
283.15
303.15
300.57
283.15
289.595
303.228
303.15
299.156
283.15
290.296
303.15
283.15
290.414
283.15
297.732
297.179
290.058
295.08
303.15
303.15
290.1
290.102
283.933
283.153
283.153
283.575
303.15
283.799
290.034
303.15
283.15
283.003
283.15
290.112
299.828
303.15
290.105
303.15
303.15
283.678
283.15
283.15
283.149
303.15
293.25
283.15
303.15
303.15
283.153
283.127
283.15
303.15
283.139
283.15
283.15
283.15
300.7
283.15
283.15
303.15
294.759
294.265
303.15
303.15
303.15
283.15
283.15
283.15
291.871
303.15
283.14
283.15
303.15
303.15
303.15
283.15
283.15
283.15
283.15
283.15
283.15
283.15
296.13
303.15
283.15
283.15
283.15
283.15
294.11
283.15
283.15
283.15
283.15
283.15
283.14
283.15
303.15
283.15
283.15
283.15
283.15
303.15
283.15
294.238
303.15
285.312
283.15
293.197
283.15
283.15
283.15
297.184
283.15
296.725
295.93
283.15
283.15
283.15
283.15
283.15
283.15
283.15
298.963
283.15
287.278
283.15
304.962
284.034
283.15
300.348
283.134
283.15
291.721
303.15
294.393
296.499
295.232
283.15
301.439
296.235
283.15
298.938
293.102
302.821
297.702
300.38
283.15
285.25
294.223
289.332
284.806
295.832
297.495
283.15
296.666
283.15
283.15
294.747
283.15
283.143
299.538
283.15
288.101
283.15
283.15
297.872
293.71
283.15
283.15
292.484
283.15
295.057
283.15
293.107
298.438
283.15
300.329
283.156
291.935
283.15
293.623
298.446
291.679
283.15
284.618
283.15
283.15
283.15
283.15
303.15
292.48
297.125
298.064
301.57
283.459
283.33
283.15
283.15
283.15
283.15
303.151
283.15
283.15
283.15
283.139
283.15
283.15
283.15
301.99
283.15
283.15
303.187
283.15
283.15
283.15
299
283.15
302.104
302.824
294.641
283.15
283.15
283.15
283.15
283.15
283.549
283.15
283.15
283.15
295.154
302.943
283.15
288.18
283.15
298.907
293.006
283.158
283.15
283.15
283.15
283.15
290.008
283.15
302.926
283.15
283.15
283.199
298.231
302.943
283.15
292.713
283.15
298.506
283.15
285.433
288.184
289.74
283.15
283.638
289.082
294.118
283.15
289.333
302.814
283.15
283.15
289.437
283.15
283.15
283.974
299.702
283.15
294.598
283.15
283.15
283.15
283.152
283.15
291.398
287.189
298.57
299.513
289.325
283.15
283.15
291.02
295.976
283.15
283.15
283.15
298.714
285.524
283.15
283.15
283.15
283.15
283.15
296.202
288
296.578
283.15
283.15
283.15
299.564
303.15
283.244
283.15
283.15
296.955
283.15
299.684
283.15
283.15
283.15
283.15
299.645
283.15
283.15
301.3
283.15
283.15
283.173
283.15
283.15
289.346
283.15
303.15
283.15
301.438
283.15
283.15
283.15
283.15
283.15
301.369
287.256
290.35
283.15
283.15
283.227
295.98
283.15
283.15
298.918
283.16
288.048
287.981
283.15
303.15
298.534
283.15
294.387
295.662
295.033
301.376
283.15
301.179
283.298
293.022
292.073
303.15
283.15
300.057
295.435
295.672
284.976
302.834
286.648
295.643
293.883
292.404
296.225
283.418
283.15
291.135
292.614
295.756
283.151
283.15
283.15
283.15
296.43
296.078
295.212
296.194
294.31
295.75
294.785
283.15
291.997
295.609
295.818
296.778
300.254
297.332
297.453
297.952
301.223
283.15
303.146
283.145
290.491
283.15
283.15
301.772
303.556
283.321
303.009
303.129
289.74
283.15
292.107
283.15
290.851
283.15
300.591
283.15
291.104
303.15
283.15
293.476
283.15
301.073
295.238
283.15
302.014
283.15
289.243
302.277
286.675
295.412
288.188
292.615
294.618
300.56
302.96
286.908
289.826
289.038
283.15
286.933
283.15
295.874
283.15
283.15
283.15
283.15
283.15
295.778
283.15
283.15
283.15
283.15
283.15
283.15
290.968
294.069
283.15
283.15
283.15
293.424
283.15
283.15
283.15
283.15
286.562
302.171
291.942
299.933
296.657
284.511
283.15
295.955
303.15
283.15
283.15
283.15
283.791
296.769
295.303
294.339
298.69
288.438
283.15
283.142
283.15
291.36
291.607
283.15
283.15
289.256
283.15
296.162
297.862
300.893
295.596
283.15
283.15
283.15
283.15
295.166
283.15
295.507
294.698
289.676
283.15
295.584
300.951
296.706
283.15
303.15
292.582
295.525
283.15
294.713
283.15
283.15
283.15
283.15
290.615
283.15
283.15
283.15
292.919
283.15
285.301
283.15
286.363
290.866
283.15
293.63
283.15
283.15
292.258
283.15
283.15
295.073
295.165
283.15
283.15
295.465
283.15
283.15
296.646
296.173
283.15
297.942
283.15
283.15
283.15
283.216
283.15
283.15
296.008
283.15
296.428
287.643
283.15
299.988
291.571
296.152
283.15
296.788
295.655
293.663
283.15
283.15
283.15
283.15
283.15
303.15
283.15
289.359
283.15
283.15
292.505
283.15
283.15
299.283
283.15
283.15
283.151
283.15
283.15
283.15
283.15
300.844
286.348
287.372
283.153
283.15
283.153
283.15
283.15
283.15
283.15
283.15
291.736
295.909
283.15
283.15
283.15
284.19
288.5
283.15
294.616
283.15
283.15
303.15
283.15
293.609
283.15
283.15
283.156
283.15
283.15
283.15
303.15
287.168
291.351
283.15
283.15
283.15
285.574
283.15
284.388
290.501
283.15
283.15
294.586
293.407
286.832
294.164
293.521
291.609
283.15
283.15
283.15
303.15
283.41
283.15
283.15
288.155
283.15
295.855
283.15
291.733
285.199
283.152
289.286
295.576
283.15
283.15
302.019
294.39
283.15
283.15
294.281
293.171
296.903
283.15
300.489
291.951
301.241
283.15
297.602
283.15
283.15
283.15
283.15
283.15
293.947
295.03
292.919
283.15
283.161
283.15
283.15
292.199
283.15
283.15
283.15
283.15
283.15
283.15
299.344
284.21
283.15
283.15
283.15
283.152
283.15
283.15
283.15
283.15
291.617
283.15
283.15
283.15
283.15
289.771
283.15
283.15
283.15
283.15
283.15
283.15
290.944
283.15
302.664
290.513
283.15
296.797
283.15
285.561
283.15
298.652
303.389
296.192
283.15
283.15
283.15
298.422
283.15
290.08
283.15
283.15
286.387
285.99
283.15
283.15
283.15
283.15
283.15
283.15
283.15
283.15
284.017
293.048
285.339
283.15
283.15
283.15
292.25
283.15
283.15
283.15
283.15
283.15
283.15
283.15
283.15
283.15
283.15
303.15
303.15
283.15
291.99
295.66
283.15
283.15
283.15
297.011
283.15
283.54
283.15
283.15
283.418
283.484
283.15
283.469
283.15
283.15
283.15
295.404
295.449
283.15
283.15
283.15
283.15
283.15
303.243
283.15
303.15
283.15
283.15
283.15
296.097
283.15
283.15
283.15
283.15
291.116
283.15
283.15
283.15
303.15
282.892
283.15
301.986
284.045
303.15
283.15
300.872
294.274
283.15
291.753
283.15
283.15
283.15
303.15
303.15
283.15
283.15
296.669
283.15
295.55
283.15
283.15
293.901
283.15
296.771
283.15
283.15
300.781
303.15
303.15
297.736
283.15
294.849
285.135
283.15
283.15
300.95
283.24
283.15
283.15
291.786
303.15
283.15
283.15
283.15
283.15
283.15
300.842
283.15
283.15
283.15
294.442
283.15
283.15
283.15
283.15
283.15
283.15
296.702
301.95
302.709
293.575
295.787
283.15
283.15
283.15
283.15
300.577
283.15
283.15
290.575
289.611
289.233
289.249
290.748
290.017
283.15
303.15
297.131
283.15
283.15
283.15
287.704
297.94
283.146
283.15
283.66
283.15
283.15
283.15
283.15
283.15
283.15
292.176
294.943
303.15
295.672
284.942
292.881
297.801
298.036
283.15
283.192
283.15
298.075
283.15
296.176
283.15
283.15
298.674
283.15
294.567
298.117
294.133
296.545
293.864
283.15
283.15
296.995
283.15
283.15
283.529
283.15
283.15
283.15
283.15
284.032
291.511
283.151
283.15
295.853
292.071
283.15
283.15
283.15
283.15
299.688
283.151
284.03
286.322
283.151
290.759
289.921
293.863
283.15
283.15
283.15
283.15
283.15
283.15
283.15
290.83
283.15
296.849
283.15
296.331
283.27
295.961
297.503
295.577
287.433
297.248
294.004
284.462
283.15
283.15
297.504
283.15
283.15
283.15
283.15
286.678
283.15
283.15
283.15
283.15
283.15
290.08
283.15
283.15
283.15
283.15
283.15
283.15
283.15
283.15
283.15
295.538
298.739
283.15
302.763
301.08
303.15
283.15
283.15
283.15
289.27
283.15
295.136
283.15
283.15
283.15
302.513
283.15
298.129
290.012
294.426
291.884
300.332
283.15
288.332
300.867
287.181
283.841
289.974
283.15
283.119
283.15
289.965
282.4
293.564
283.15
283.15
296.768
283.15
284.906
291.394
302.413
283.15
283.15
297.375
303.182
283.15
283.15
294.872
290.944
283.15
283.15
283.15
284.316
283.15
283.15
283.15
283.15
283.15
283.15
283.15
283.15
283.15
283.15
300.293
283.15
283.15
283.15
294.659
300.417
290.237
283.15
283.15
298.931
283.15
283.15
283.15
283.222
283.15
297.223
283.15
285.058
297.045
283.144
290.128
283.15
298.614
283.15
283.15
290.668
283.15
283.15
283.149
283.15
293.225
282.637
291.914
283.15
283.764
303.151
283.152
283.15
293.668
285.989
283.15
283.15
283.15
297.344
285.999
283.742
283.15
284.418
283.286
283.15
283.15
293.797
283.15
284.348
293.844
283.15
289.464
297.412
287.164
283.15
283.15
283.15
295.7
283.15
296.348
283.15
283.15
293.354
296.771
292.731
303.15
287.468
295
285.597
293.839
285.805
283.15
296.628
287.999
293.078
303.15
286.252
283.15
288.235
285.275
285.176
283.62
285.466
288.56
284.047
294.529
295.575
283.15
289.256
283.15
283.15
283.151
283.15
283.15
283.15
283.15
288.528
299.556
288.967
288.388
287.419
283.15
286.463
302.408
283.15
295.178
292.97
283.15
294.834
291.008
291.248
283.15
283.15
295.854
283.15
291.196
283.15
283.15
283.15
283.15
302.589
296.427
286.892
293.376
283.15
294.453
283.15
303.106
283.15
283.15
283.15
283.15
292.459
292.744
283.15
283.15
284.086
299.056
283.15
283.15
283.15
283.158
283.154
293.677
300.077
283.15
299.594
283.15
299.152
299.227
302.348
302.081
299.497
299.686
299.541
289.056
283.303
283.15
283.15
283.31
288.852
293.546
283.153
283.299
283.158
285.593
283.156
283.15
283.155
290.022
283.15
283.15
301.034
283.15
299.967
301.465
289.118
283.15
283.15
283.15
290.312
299.052
283.659
283.15
283.15
283.15
283.15
283.15
283.15
283.15
283.15
283.15
283.15
285.174
283.15
283.682
283.15
283.15
283.15
283.15
292.122
297.39
283.15
283.74
283.15
283.15
283.15
295.936
283.15
283.15
283.15
283.15
283.15
284.038
283.15
283.15
283.15
301.892
302.257
283.15
283.15
301.088
304.628
283.15
302.209
302.154
283.15
283.15
283.15
283.15
302.347
283.167
283.15
283.15
302.345
283.15
283.15
283.15
283.15
283.15
283.15
283.15
303.081
283.15
296.167
283.15
283.15
283.15
283.15
283.15
283.15
290.519
283.15
283.154
283.15
283.15
283.15
283.15
299.281
283.15
283.15
283.15
287.056
301.446
283.15
301.103
291.15
300.532
283.15
301.546
283.15
298.684
283.15
289.305
290.404
296.688
298.659
297.845
294.224
283.15
290.514
300.219
283.15
284.059
298.937
283.15
283.151
283.15
284.221
299.032
287.917
299.049
291.599
283.15
283.15
295.788
283.15
283.15
283.15
296.743
289.174
295.218
283.15
297.344
283.15
283.15
298.132
297.081
288.392
291.791
297.143
290.267
287.455
297.548
298.819
303.15
283.15
285.569
283.15
304.297
288.19
287.617
296.079
283.15
296.477
283.15
283.15
294.763
297.5
283.15
292.019
283.15
283.15
291.987
283.15
283.15
301.819
283.15
296.488
286.156
297.299
283.15
283.15
283.15
301.913
283.15
295.005
294.902
288.698
295.599
300.136
283.15
283.15
283.15
283.15
299.374
296.64
283.15
283.15
283.448
283.15
294.537
283.15
303.144
295.582
295.684
290.644
299.18
290.279
287.156
303.15
292.994
283.15
283.15
283.15
286.954
294.935
285.382
283.15
283.15
286.203
283.15
283.15
287.951
283.15
294.373
291.161
292.798
289.722
283.15
298.273
295.788
300.583
291.778
283.15
293.023
294.07
284.601
296.429
297.109
288.629
296.631
293.704
296.612
297.102
300.251
283.173
283.155
290.563
283.15
283.15
303.106
303.15
283.15
286.177
290.323
283.15
283.15
303.15
303.15
293.944
283.185
283.15
283.294
283.169
287.265
283.172
283.173
283.16
283.165
295.834
289.764
283.15
283.15
298.637
283.15
293.974
293.031
283.15
302.509
285.115
283.15
283.15
294.031
283.15
283.15
283.15
285.219
283.15
293.986
291.647
283.15
302.717
283.15
283.15
298.255
295.628
303.15
288.094
297.621
300.9
283.15
283.15
295.825
295.98
293.488
283.15
283.15
294.723
292.298
283.15
283.163
296.369
284.519
293.711
297.257
284.084
297.039
283.195
291.797
283.15
283.15
283.15
283.15
295.277
294.697
283.201
300.805
295.226
283.15
283.15
283.15
286.858
283.158
283.15
283.15
289.49
283.15
283.15
303.15
283.15
293.34
293.791
283.24
283.15
283.15
302.442
294.777
297.427
289.868
289.796
283.15
283.15
283.15
283.15
294.153
290.415
283.15
283.203
283.195
283.197
283.191
283.15
283.186
283.15
294.27
295.531
285.174
291.736
283.15
283.15
283.15
283.15
295.946
295.637
295.867
295.626
294.936
295.633
283.15
295.282
295.32
290.225
292.134
290.878
295.167
283.15
294.764
283.15
302.967
294.676
295.66
296.869
285.485
295.146
290.254
285.422
283.15
290.271
293.734
283.15
282.851
283.15
295.033
283.15
292.883
300.069
297.322
283.146
297.869
283.15
300.962
290.304
293.346
283.15
293.579
301.33
296.117
283.15
291.782
283.163
290.709
283.15
283.15
283.15
291.167
293.081
295.62
289.931
283.15
283.15
283.15
293.677
289.82
295.03
292.804
290.909
283.15
283.15
291.126
283.15
290.42
289.477
290.422
296.969
283.15
297.628
286.652
283.15
299.372
290.195
283.15
303.2
283.15
283.15
283.15
283.15
283.15
283.15
289.775
283.15
283.15
283.15
289.298
290.819
291.368
287.3
290.09
297.477
295.797
283.15
297.282
283.592
283.15
288.661
303.15
297.601
283.15
292.282
283.15
283.195
283.15
283.15
283.15
298.151
290.133
303.15
290.134
289.601
287.551
289.979
289.552
291.991
286.343
303.15
283.15
289.718
286.581
283.15
283.15
283.15
283.15
289.999
296.717
283.15
283.15
292.804
283.15
283.15
301.587
283.15
288.659
283.15
293.178
296.619
292.542
283.152
283.15
300.898
283.15
283.15
283.15
283.15
283.15
286.231
295.426
284.999
295.894
283.15
283.15
283.15
302.451
283.15
283.15
295.418
303.114
283.15
294.462
283.15
293.822
296.745
289.415
283.15
283.15
283.15
295.525
283.15
284.934
295.565
283.15
296.621
283.15
283.15
283.15
283.15
303.15
283.15
283.15
283.15
283.15
283.15
283.15
283.15
283.15
287.504
283.186
283.15
283.15
283.15
293.68
290.313
283.15
283.15
293.45
283.15
283.15
283.15
283.15
283.15
283.15
283.15
283.15
283.15
283.15
293.128
283.15
292.366
298.843
290.602
283.15
296.539
283.15
283.15
296.892
297.079
296.909
283.15
283.15
283.15
283.15
283.15
283.15
297.21
287.572
301.635
283.15
283.15
283.159
283.15
283.15
283.15
283.15
283.15
283.15
283.15
293.588
287.03
284.127
288.472
284.367
283.15
292.013
283.15
283.15
283.15
283.15
283.15
283.15
290.048
296.736
283.15
283.15
283.15
292.99
283.15
290.961
296.125
283.15
291.737
283.15
283.15
283.15
285.184
290.997
286.704
287.814
288.538
291.266
284.589
297.694
283.15
283.15
283.15
300.988
285.03
295.932
283.15
285.056
284.938
283.15
283.15
290.689
283.15
296.449
283.15
283.15
283.15
283.15
297.507
285.024
283.15
283.15
295.804
296.953
289.228
283.15
293.934
300.238
293.382
301.686
294.032
283.15
283.15
283.15
283.15
283.15
283.15
283.15
284.093
283.15
293.638
283.152
283.15
283.15
283.15
283.15
283.15
283.15
283.15
283.15
283.714
283.15
283.15
283.15
283.15
284.78
283.15
283.15
283.15
283.15
283.15
283.15
283.15
283.15
293.751
283.15
283.15
301.231
283.574
283.15
288.404
283.15
283.15
288.453
283.15
283.15
293.874
283.15
283.15
283.15
283.15
283.15
283.15
283.15
283.15
283.15
283.15
286.96
283.15
283.15
283.15
283.15
283.15
293.983
283.15
283.15
283.15
283.15
283.15
283.15
293.229
283.15
293.175
283.162
283.15
286.996
283.15
283.15
292.887
283.15
294.022
283.15
283.15
283.15
285.076
283.15
283.15
291.926
283.23
283.15
294.22
283.15
302.498
283.15
295.225
297.198
283.15
295.364
283.15
283.15
283.15
283.15
283.15
295.69
283.15
291.749
296.671
283.15
290.917
298.88
292.075
291.805
290.553
290.81
283.15
283.15
283.15
283.15
283.15
283.15
283.15
283.15
283.15
283.15
283.15
283.15
283.15
283.15
283.15
283.15
283.15
283.15
283.15
283.15
283.15
283.15
283.15
285.714
283.15
283.15
283.15
283.15
295.004
283.15
283.15
294.63
283.162
283.15
283.15
283.15
283.15
283.15
283.15
283.15
284.883
283.15
283.15
283.15
283.15
283.725
283.15
283.15
283.216
284.915
283.15
283.15
283.15
283.745
283.15
283.15
283.15
284.999
290.09
283.15
283.15
283.15
283.15
283.15
283.15
283.15
283.15
283.15
283.15
283.15
283.15
285.298
283.15
289.574
285.502
285.342
290.983
283.15
283.15
283.15
283.153
283.535
283.155
283.15
290.278
283.15
283.15
283.15
283.15
283.155
292.151
283.15
284.163
293.894
283.15
283.15
283.156
283.15
283.15
283.15
283.15
283.15
292.687
283.15
283.15
283.15
283.15
283.15
283.15
283.15
290.627
283.155
283.15
289.994
283.15
283.15
283.15
283.15
288.737
283.15
289.234
301.694
294.7
289.027
283.15
283.15
296.052
283.15
283.15
290.265
283.15
289.024
283.15
283.15
283.15
296.35
288.941
303.15
283.15
283.15
283.15
288.742
295.516
291.087
283.15
283.318
283.295
300.449
283.209
283.286
283.682
283.15
283.15
283.15
290.598
284.855
283.15
283.15
283.15
283.15
283.15
289.685
283.15
283.152
283.15
284.897
289.156
283.15
283.15
283.15
283.15
283.15
283.15
283.15
285.766
287.988
283.15
293.687
283.15
283.15
303.15
283.15
283.15
296.845
303.15
288.264
283.15
283.15
283.15
290.418
291.732
283.15
288.982
283.15
283.15
285.252
295.336
283.15
283.15
283.151
283.15
283.15
293.551
294.203
283.15
283.15
283.15
283.151
299.043
292.601
283.151
283.15
283.153
283.15
283.15
286.517
283.15
283.15
283.15
303.15
283.15
283.15
283.195
283.15
283.15
283.15
291.243
283.15
283.15
283.15
283.15
283.15
294.729
283.15
283.15
283.15
283.15
286.497
283.15
283.15
283.15
283.15
283.15
283.15
283.152
283.15
283.15
283.15
283.15
283.15
283.15
283.15
283.158
283.15
283.15
288.34
298.853
283.15
283.15
283.15
283.15
283.15
283.15
283.15
283.21
283.15
283.15
283.15
283.15
283.15
283.15
283.15
283.15
283.15
289.493
283.15
283.15
283.15
283.15
283.15
283.15
283.15
294.031
283.15
302.565
283.151
283.15
283.15
283.151
283.15
283.15
283.15
283.15
283.15
294.125
294.103
283.15
283.15
283.15
283.15
283.15
283.15
283.15
283.15
283.167
283.15
283.15
283.15
289.15
283.15
283.15
283.15
290.122
290.116
283.15
283.15
283.15
290.923
283.15
283.15
283.15
296.231
283.15
287.534
283.15
283.15
283.15
283.15
295.036
283.292
283.15
283.15
283.15
283.15
283.15
283.15
295.67
283.15
283.15
283.15
283.15
294.857
295.614
283.15
283.15
295.668
283.15
283.15
283.238
283.15
283.15
283.15
283.174
283.15
283.251
283.24
283.23
283.15
293.193
291.796
283.15
295.976
283.15
283.15
296.333
283.15
283.15
283.21
283.15
293.844
283.15
291.859
289.505
291.46
290.59
291.395
283.15
283.15
283.15
292.56
283.15
291.607
302.654
291.338
293.322
283.15
291.585
293.351
293.588
294.918
302.758
283.15
302.966
302.577
297.036
290.045
283.15
296.291
295.046
290.299
290.097
286.759
303.15
290.818
295.136
283.15
283.15
290.071
283.15
283.15
295.599
283.15
303.15
283.15
283.15
290.267
289.95
295.03
283.15
296.857
283.15
283.15
283.15
295.918
296.689
295.588
294.382
295.413
283.15
295.711
283.15
293.704
302.729
283.15
289.441
283.15
283.15
283.15
283.15
289.924
292.838
283.15
283.15
296.823
296.806
292.167
297.834
283.15
283.15
283.157
292.883