/*--------------------------------*- C++ -*----------------------------------*\
  =========                 |
  \\      /  F ield         | OpenFOAM: The Open Source CFD Toolbox
   \\    /   O peration     | Website:  https://openfoam.org
    \\  /    A nd           | Version:  10
     \\/     M anipulation  |
\*---------------------------------------------------------------------------*/
FoamFile
{
    format      ascii;
    class       volVectorField;
    location    "33";
    object      U;
}
// * * * * * * * * * * * * * * * * * * * * * * * * * * * * * * * * * * * * * //

dimensions      [0 1 -1 0 0 0 0];

internalField   nonuniform List<vector> 
59698
(
(0.584679 0.00594903 -0.00173131)
(0.564645 -0.00115276 -0.000863199)
(0.566342 -0.000686083 0.0016995)
(0.57874 -0.00342871 -0.00126645)
(0.563008 0.00079289 -0.00296195)
(0.197726 0.19805 -0.00634874)
(0.566912 0.000245138 0.000407607)
(0.563984 0.000847506 -0.00029404)
(0.199878 -0.199528 -0.000424687)
(0.201225 -0.200788 -1.61499e-05)
(0.200369 -0.198721 -0.000624522)
(0.566979 -0.000285066 -0.000398459)
(0.1998 0.200491 -0.000579316)
(0.561684 -0.000771136 -0.000176436)
(0.562077 0.00113033 -0.00259527)
(0.203952 -0.197111 0.00181586)
(0.564848 0.000125947 0.00020185)
(0.566105 -0.00124192 0.000382173)
(0.567544 -0.000551774 0.00031775)
(0.567344 -0.000367019 -8.02475e-05)
(0.142909 -0.0998576 -0.0247542)
(0.536218 -0.00144866 -0.0028077)
(0.264929 -0.172763 -0.00685691)
(0.198824 -0.199921 -0.00136795)
(0.570389 0.000627947 0.00107443)
(0.566243 -0.00114017 0.000425754)
(0.566393 -0.000350389 -0.000420512)
(0.557305 -0.000195817 -0.00122455)
(0.570315 0.00132155 0.00093125)
(0.572446 -0.000463884 0.00044115)
(0.548146 -0.000340028 -0.000387531)
(0.19853 -0.198577 -0.000187746)
(0.201164 -0.197945 0.00230072)
(0.559767 0.00125549 -0.000864999)
(0.549112 0.0114957 -0.00755256)
(0.566746 -0.000895411 -0.000390022)
(0.274974 0.0657634 -0.0384991)
(0.539506 0.000710358 0.000114312)
(0.561732 0.000131957 0.000570183)
(0.568108 0.00146637 -0.00273517)
(0.563901 0.000427837 -8.32408e-05)
(0.1949 0.197809 -0.00173753)
(0.562391 0.000586775 -0.000615145)
(0.563702 0.000415616 7.63428e-05)
(0.196728 0.199572 -0.000252684)
(0.560909 0.00366672 0.00514045)
(0.56699 -0.000880556 0.000370083)
(0.5616 -0.000323951 0.00148136)
(0.562955 0.000331726 0.000871854)
(0.565411 -0.000680113 0.000225097)
(0.567928 0.000155892 -0.000169854)
(0.56684 -0.000881279 0.000346267)
(0.566383 -0.000104306 -0.000790961)
(0.560485 -0.000152794 0.000394479)
(0.572442 0.00292437 0.00102874)
(0.567352 -0.000507939 -0.000141131)
(0.562765 -0.000977343 0.000597798)
(0.524702 -0.00189968 -0.000273824)
(0.564648 -0.000785092 -0.000397885)
(0.268023 0.121077 -0.019004)
(0.559161 0.00459408 -0.00252814)
(0.564626 0.00136363 0.000520925)
(0.577849 0.0147666 0.0065012)
(0.567493 -0.000591254 0.000387956)
(0.561818 0.000245062 0.000717933)
(0.561444 0.000207523 0.00202746)
(0.199519 -0.199946 -1.32065e-05)
(0.567114 -0.000538737 -0.000623322)
(0.566955 -0.000440779 -0.000621976)
(0.199516 -0.199211 -7.82173e-05)
(0.209083 0.182308 -0.00791351)
(0.565288 -0.00071849 1.75222e-05)
(0.166586 0.118542 -0.0341531)
(0.593953 -0.0104862 0.0193179)
(0.202915 0.20354 -0.000370163)
(0.589716 -0.0252078 0.0204412)
(0.561179 0.000259632 0.000936753)
(0.561034 0.000252703 -0.00162834)
(0.566852 0.000818786 -0.000639503)
(0.571483 0.00155331 0.000126062)
(0.552684 -0.00189474 -3.87631e-05)
(0.56791 0.000243731 -0.000116309)
(0.201249 -0.200758 -5.91056e-05)
(0.565159 -0.000718067 0.000600792)
(0.399926 -0.103775 0.0148329)
(0.562836 0.000194808 -0.000148166)
(0.563237 -0.0012047 0.00161912)
(0.557736 0.000479721 0.00715408)
(0.561995 0.0012946 0.000948031)
(0.560703 -0.000123234 0.00162429)
(0.199535 -0.199173 -0.000163918)
(0.560439 0.000899037 0.000573485)
(0.560614 -0.00034967 0.00162636)
(0.565857 -0.000350526 0.000433402)
(0.561595 0.00116506 0.00100713)
(0.563425 -0.00369359 0.00132263)
(0.558639 0.000623817 0.00122252)
(0.562224 0.000473281 0.00055527)
(0.559257 0.000584547 0.00122242)
(0.199679 0.200038 -3.09791e-06)
(0.55643 0.00146523 0.000819483)
(0.5675 0.00519156 0.00627728)
(0.562991 1.88258e-05 0.000217844)
(0.56306 -0.00158117 -0.00445121)
(0.567066 -0.000577917 0.000826072)
(0.198838 0.198574 0.000130784)
(0.56549 -0.0009925 0.000588455)
(0.567219 -0.000355795 -0.000411623)
(0.200743 -0.200886 -6.1298e-05)
(0.199793 0.199689 -0.000370675)
(0.566285 -0.000785386 -0.000367457)
(0.570381 -0.0104477 -1.88496e-05)
(0.561769 0.0013826 0.00156365)
(0.200897 0.198779 -0.00033787)
(0.561005 -0.000192717 0.000280781)
(0.567361 -2.8623e-05 0.000156788)
(0.56707 0.00133936 -0.00136043)
(0.565079 0.00305876 0.000750127)
(0.563575 -0.000865966 0.00208807)
(0.200909 -0.200447 0.000440892)
(0.565555 -7.39229e-05 -1.74669e-05)
(0.558306 -0.00633481 -0.00379319)
(0.56304 -0.00505485 0.00581525)
(0.564447 -6.25042e-05 0.000123149)
(0.564008 0.000118447 0.000208417)
(0.565975 -0.000325132 -0.00013161)
(0.56596 -8.0799e-05 -0.000524131)
(0.199564 -0.199512 0.000485452)
(0.561964 -0.000625484 -0.00018225)
(0.567482 0.000314173 -0.00199629)
(0.567348 0.000343665 0.000572469)
(0.567162 -0.0001847 -0.0010788)
(0.201403 -0.200544 -1.33288e-05)
(0.579311 0.00683994 0.000426448)
(0.572768 -0.000137739 0.00016653)
(0.568488 -0.000188048 -0.000181869)
(0.569751 0.00383118 -0.00109328)
(0.201044 -0.200689 0.00030672)
(0.567361 -0.000339785 -0.000276756)
(0.568551 -1.7201e-05 -0.000337491)
(0.565361 -0.000263273 0.000880828)
(0.562706 0.00316798 -0.00100811)
(0.566055 -0.000851306 -0.000467685)
(0.567383 -0.000327456 -0.000301523)
(0.565994 0.00220409 -0.000458896)
(0.567449 -0.00026003 1.84731e-05)
(0.563575 -0.00396186 0.000303833)
(0.566434 -0.00373583 -0.000529113)
(0.562317 0.000372276 0.000916775)
(0.552161 -0.000252004 -8.29661e-06)
(0.408617 0.144145 0.0731942)
(0.200199 -0.199653 0.000118392)
(0.562144 -0.000108328 6.8937e-05)
(0.556696 -0.0021745 -0.00379683)
(0.563085 -0.000272882 -0.000193251)
(0.560679 0.00018826 -0.000465907)
(0.566501 -0.00102368 -0.000264955)
(0.558868 -0.000962203 0.00306798)
(0.563545 -0.000289081 -0.000357066)
(0.199698 0.199541 -0.000115223)
(0.564886 0.000101421 0.000174216)
(0.562762 -0.000380654 0.000250292)
(0.567892 -0.000618927 -0.000238461)
(0.554702 0.00186431 -0.00111688)
(0.562867 -0.000519555 -0.000204047)
(0.566834 -3.22525e-05 -0.000237824)
(0.567005 -0.000189744 -0.000677055)
(0.412166 0.0870006 0.00616998)
(0.554762 -0.000550312 -0.00040205)
(0.56702 -0.000112344 -0.000482663)
(0.559333 0.00178639 -0.00253902)
(0.210949 0.173776 0.000770732)
(0.553156 0.00141051 -0.00217581)
(0.552689 0.00131085 -0.00210316)
(0.578365 0.00131648 -0.00548925)
(0.562657 0.000289539 0.000328218)
(0.199576 -0.198909 0.000797468)
(0.538414 0.00499974 0.0030099)
(0.198955 -0.197826 -0.00579305)
(0.562004 0.00060725 -0.000510963)
(0.510515 -0.0019121 0.00524941)
(0.54842 -0.000530212 -0.000533808)
(0.56269 0.000406204 -0.00100322)
(0.565439 1.17395e-05 -0.000265898)
(0.564586 0.000574286 -0.000829276)
(0.543598 -0.000293147 -0.000297925)
(0.543522 7.40535e-05 -0.000899069)
(0.559799 0.00374192 0.00131045)
(0.566596 -5.47677e-05 0.00016097)
(0.563933 0.00151323 0.000724541)
(0.56159 0.000201738 0.00066024)
(0.562544 -0.000339411 0.000620704)
(0.56284 0.000558562 0.00050632)
(0.561867 -0.000379636 -0.000499487)
(0.554583 0.000274354 -0.000441428)
(0.557393 0.00326091 0.00079153)
(0.576492 0.00603515 -0.0139364)
(0.575768 0.00377437 -0.00218679)
(0.152229 -0.14404 -0.0196382)
(0.55422 -0.000541189 9.59328e-05)
(0.203032 0.205882 0.00271973)
(0.546002 0.000556543 0.000870803)
(0.5732 0.000378609 0.000277714)
(0.566593 -0.000340185 -0.000488928)
(0.552867 0.000956906 0.00113401)
(0.566761 0.000151827 0.000153603)
(0.563926 0.000386486 -0.000758701)
(0.557161 -0.00209289 0.00125694)
(0.554556 0.0115084 0.00047294)
(0.562333 0.000303716 -0.000196521)
(0.565845 0.000171235 0.00018964)
(0.565061 0.000210457 0.00046241)
(0.55473 0.000439532 0.00221226)
(0.199004 -0.197044 -0.00110278)
(0.565289 -0.000294519 -0.000198062)
(0.560067 0.000604384 -0.000127855)
(0.566199 -0.000765054 5.72429e-05)
(0.561161 -0.000616332 -0.00185684)
(0.561533 -0.000678288 -0.000170386)
(0.564929 0.000509955 -0.000598767)
(0.582017 0.0242614 0.0227172)
(0.563831 -0.000259056 0.000342107)
(0.565003 5.22997e-05 8.21693e-05)
(0.556993 0.000935775 0.00287543)
(0.565099 -0.000395749 -0.000238116)
(0.553674 0.00260657 0.00294353)
(0.564356 5.46397e-05 -7.64705e-05)
(0.566046 0.000588557 -0.000492793)
(0.577996 0.00285251 -0.000881606)
(0.593464 0.0122659 0.00958315)
(0.199023 0.1986 -0.000392365)
(0.563331 1.358e-05 0.000451783)
(0.565707 0.000394865 9.00879e-05)
(0.564458 0.000124844 -0.000361497)
(0.563519 -0.000549085 0.000488371)
(0.567918 -0.000476991 -2.2435e-05)
(0.56501 0.00161378 0.00153305)
(0.564085 0.000312553 0.000195878)
(0.558609 0.00137388 0.00348817)
(0.562147 -0.000906393 0.00048641)
(0.564737 -0.000225191 -8.0506e-05)
(0.563766 -0.00122531 -0.000499197)
(0.570467 6.84671e-05 -5.89242e-05)
(0.197427 -0.19788 0.0033443)
(0.566671 -0.000287553 -5.53022e-05)
(0.564141 0.000285979 0.00389936)
(0.582354 0.00513188 0.0161741)
(0.591495 -0.00720867 0.0130361)
(0.566259 2.38841e-05 0.000152823)
(0.566923 -0.000829601 0.000427095)
(0.561332 0.00108055 0.00401474)
(0.562594 -0.000461432 0.00043484)
(0.563422 0.00101827 0.000877117)
(0.198217 -0.193517 0.00311996)
(0.566465 -0.00138688 -7.98372e-05)
(0.563374 0.000339707 0.000424034)
(0.560498 0.0021078 0.00060021)
(0.561283 -0.000670668 0.000603146)
(0.565922 -0.000502167 -0.00013037)
(0.564947 -0.000163959 -3.38161e-05)
(0.199211 -0.108235 -0.000730159)
(0.200402 0.20004 0.000137706)
(0.563536 -0.000940546 0.000581547)
(0.559864 0.000595961 -0.00115811)
(0.558089 -0.00145332 0.00231634)
(0.586977 0.00751487 0.00245859)
(0.56536 6.24868e-05 -6.9877e-05)
(0.19693 -0.19841 -0.00160336)
(0.565529 -0.00117021 0.000404822)
(0.564883 -0.000179311 -0.000152349)
(0.566652 -0.000962162 -9.8528e-05)
(0.563124 -0.00125915 -0.000740343)
(0.545876 -0.118344 0.0771945)
(0.564741 -0.000120988 -0.000243894)
(0.565036 -0.000276552 5.63488e-05)
(0.55759 0.000322677 0.0013756)
(0.564889 -0.00164523 -0.00374243)
(0.564274 -0.000649165 0.00147327)
(0.570062 0.000252873 0.000195644)
(0.200809 -0.200142 0.000130914)
(0.19599 -0.195353 0.00168426)
(0.567439 -1.89744e-06 -3.21429e-05)
(0.566949 -0.000907079 0.000493851)
(0.581568 0.00205005 0.00127814)
(0.587077 0.00646777 0.000888434)
(0.577923 -0.00118235 0.0014529)
(0.566054 -0.000281056 -0.000688535)
(0.299292 -0.213235 -0.0187637)
(0.574336 0.00135501 0.000517735)
(0.563435 0.00229991 0.00299713)
(0.586103 0.0176265 0.000986095)
(0.567472 0.000359514 0.000321411)
(0.565339 -0.000868595 0.000547838)
(0.566942 -0.00101528 0.000172657)
(0.569826 -0.00107238 0.000812752)
(0.560556 -0.00150809 0.000723646)
(0.568142 -0.000247608 -0.000627714)
(0.568043 0.00157275 -0.000586968)
(0.565001 -2.08771e-05 -0.000158461)
(0.562991 0.00121028 0.00365248)
(0.566208 0.00163869 -6.29594e-05)
(0.198721 0.19892 -0.000102922)
(0.195968 0.197806 0.00149911)
(0.566967 -0.000182389 -0.000406958)
(0.567194 -0.000492639 -0.000169613)
(0.567011 -0.000195415 -0.000279625)
(0.569031 0.000308305 -0.00147029)
(0.560491 -0.00114587 -0.000338479)
(0.562336 -0.000375313 0.000221565)
(0.567241 -0.000113754 -0.000234178)
(0.565155 7.87767e-05 0.000165518)
(0.563318 -0.00204093 0.000537968)
(0.565867 0.000301186 0.000210635)
(0.200736 0.200934 0.00131624)
(0.561435 -0.00327595 0.00170999)
(0.566938 0.000689182 -0.00010291)
(0.202035 0.202597 -0.000457811)
(0.566719 -0.000207227 0.000193311)
(0.195215 0.197028 -0.00207497)
(0.565212 0.00243665 -0.00199068)
(0.562513 0.00300315 -0.00303981)
(0.594652 -0.00990289 0.0183496)
(0.564611 -0.000542635 6.80315e-05)
(0.199745 -0.199394 0.000599163)
(0.60042 -0.0133157 0.0187453)
(0.555744 -0.000173176 0.000665708)
(0.564398 -9.65761e-06 -0.000334604)
(0.56669 -0.000315793 0.000469299)
(0.56717 0.000544011 -0.0002032)
(0.199172 0.199228 -0.000186867)
(0.548393 -0.000146316 -0.00205138)
(0.564061 -0.000935089 0.000322873)
(0.558951 0.000239931 -0.000680826)
(0.582494 -0.0108496 0.0167234)
(0.199615 -0.199995 -0.000182546)
(0.567463 0.000544183 0.000616856)
(0.562753 -0.000645097 0.000183014)
(0.566341 -4.423e-05 0.000242453)
(0.55707 -0.00123318 -0.000427847)
(0.567957 0.000262225 -0.000131908)
(0.563864 0.00125846 0.000961492)
(0.566827 0.00259241 -0.00170066)
(0.564972 -0.000389939 0.000184961)
(0.565453 7.63323e-05 2.56492e-05)
(0.557795 0.000820532 -0.00118525)
(0.564878 -0.000177269 -0.000138076)
(0.564376 0.000211096 -7.31417e-05)
(0.540942 0.00125781 -0.00104651)
(0.562826 6.46803e-05 -0.000223058)
(0.562782 0.00013033 0.000278097)
(0.567645 0.000156968 0.000118267)
(0.562027 -0.00103267 0.000690643)
(0.569816 -0.00316146 -0.00101641)
(0.199481 -0.199203 -0.000145908)
(0.590106 0.00274052 0.00629469)
(0.546907 0.000631849 -0.000836773)
(0.554148 0.00244381 -0.00697779)
(0.564763 -0.000153723 0.000134892)
(0.562175 0.00037216 0.000767123)
(0.199411 -0.199034 3.02627e-05)
(0.56652 0.00109589 -0.000550279)
(0.559292 -0.000163024 0.000609086)
(0.203241 -0.194655 0.00034254)
(0.565677 -4.97756e-05 0.000271722)
(0.199991 0.200041 -5.3281e-05)
(0.196477 0.201287 0.000519406)
(0.563132 -6.34262e-05 8.66772e-05)
(0.564584 -0.000684868 0.0011843)
(0.564461 -0.000419912 0.000177004)
(0.490918 -0.00576905 0.00268774)
(0.56783 0.000230878 0.000295327)
(0.19799 0.198556 0.000297322)
(0.565997 0.000183115 -0.000331401)
(0.197307 0.199023 0.00130061)
(0.562898 8.83815e-05 -0.000547206)
(0.200086 -0.200255 -1.45667e-05)
(0.564286 -0.000400786 0.000389467)
(0.56527 0.000220279 2.24889e-06)
(0.19891 0.198364 -1.00589e-05)
(0.19902 -0.199213 0.000129736)
(0.201361 0.198084 -0.00338398)
(0.563134 -6.34476e-05 -0.000274236)
(0.56571 0.00133741 0.00039782)
(0.560213 0.000769537 -0.000376067)
(0.566693 -0.000271532 -8.02121e-06)
(0.27766 0.142054 -0.00531907)
(0.563412 -0.000394917 0.000974328)
(0.199303 0.199501 3.09407e-05)
(0.199591 0.200015 -6.71662e-05)
(0.564816 0.00258506 0.000941804)
(0.560145 -0.000560797 0.000134388)
(0.199363 -0.196653 0.000736525)
(0.563781 0.000314166 0.00116385)
(0.574337 0.00024192 -5.53687e-06)
(0.379793 -0.147359 0.0155306)
(0.526815 -0.00159574 -0.000356033)
(0.551571 0.0162898 -0.011848)
(0.562433 0.00262964 0.00163271)
(0.561094 -0.000242729 -0.0025036)
(0.563574 -0.00167915 0.00131509)
(0.562502 0.000475681 -0.000501255)
(0.563756 0.000124085 -0.000176532)
(0.565063 -7.79143e-06 -0.000431096)
(0.564688 -0.000537807 -0.000536219)
(0.553207 -0.00289254 -0.000617993)
(0.560741 0.0044792 0.000742874)
(0.575974 0.00425845 -0.00286765)
(0.581595 0.00306018 -0.000774855)
(0.564363 0.000359104 -0.00135903)
(0.530805 0.000412278 -0.00304496)
(0.571618 0.00242817 -0.00165807)
(0.19892 -0.199131 9.10258e-07)
(0.560202 0.000616642 -0.00130205)
(0.199602 -0.199554 0.000196574)
(0.561398 -4.83072e-05 0.000223536)
(0.584031 0.00150187 0.00227654)
(0.56711 1.29332e-05 -0.000126675)
(0.56744 -0.0276445 0.012763)
(0.532935 -0.00248585 0.00090858)
(0.535233 6.61671e-05 -0.00644679)
(0.561614 -0.000551787 0.000164589)
(0.562983 -0.00025613 0.000702433)
(0.563919 0.00122968 0.00238306)
(0.587729 0.0131798 0.0119519)
(0.563669 -3.12819e-05 7.97953e-05)
(0.564006 -0.000238997 0.000157363)
(0.199999 -0.199859 0.000343015)
(0.561624 -8.03386e-05 -0.000285011)
(0.558157 -0.00161453 1.87401e-05)
(0.199437 0.199207 -3.83076e-05)
(0.564304 -0.00147159 0.000758954)
(0.575428 0.0178161 0.00848779)
(0.572383 -0.00462793 0.00667335)
(0.564994 7.89327e-05 -0.00135416)
(0.561295 -0.000276834 0.00152157)
(0.20048 -0.200414 -0.000939054)
(0.205312 -0.20225 0.00030562)
(0.574026 0.00541631 -0.00151503)
(0.565829 -0.000376597 -0.000501254)
(0.56324 -0.00104446 -0.00402329)
(0.202961 0.200382 -0.00178362)
(0.565029 -0.000602566 -0.000379773)
(0.200612 -0.199903 0.000297655)
(0.562022 -0.000454226 -0.000179914)
(0.563793 -0.000802336 -0.00100791)
(0.516717 -0.00740608 -0.00339079)
(0.580697 -0.00167941 0.00291826)
(0.200021 0.199741 -4.2885e-05)
(0.565444 -0.00103212 0.000609838)
(0.554043 -0.000117795 0.000332789)
(0.562464 -8.41637e-05 -0.00191127)
(0.566137 -0.000685134 -0.000193722)
(0.564062 0.00102474 -0.000923382)
(0.565166 -0.00126032 -0.000153231)
(0.562711 0.00165252 9.8873e-05)
(0.562342 0.000232547 -3.52572e-06)
(0.580673 0.00141172 0.00230335)
(0.199644 -0.199556 0.000248761)
(0.546994 0.000430109 -0.000288033)
(0.561638 -0.000216611 0.0010972)
(0.577641 -0.0011534 0.00146733)
(0.564671 -0.000142249 -7.50173e-05)
(0.555186 -0.00150233 0.00162423)
(0.576996 7.62082e-05 0.000599234)
(0.200507 -0.199438 -0.000182758)
(0.560205 0.00513731 0.0019397)
(0.559717 0.00732542 0.00685597)
(0.5675 -0.000213069 -0.000144108)
(0.563911 0.000668301 -0.000598527)
(0.565739 0.000159911 6.04303e-06)
(0.560591 -0.00509846 -4.83792e-05)
(0.198388 0.198593 -0.000304442)
(0.199874 0.199799 2.47781e-06)
(0.198965 0.199799 2.46468e-05)
(0.563822 0.00216311 0.00286435)
(0.554119 -0.00311558 -0.00800751)
(0.504345 -0.0018079 0.000793575)
(0.577111 0.00104109 0.000574533)
(0.566691 -0.00296869 0.00095886)
(0.562974 -0.000450985 0.000645524)
(0.563179 0.000707127 -4.37622e-05)
(0.560068 0.00014265 0.000560442)
(0.563597 -0.000173293 0.000191827)
(0.20295 0.198915 -0.000340709)
(0.555911 -0.0067479 6.87347e-06)
(0.562625 -0.000561396 -0.000103821)
(0.560213 0.000894087 0.00130179)
(0.562701 -0.000554377 0.000553478)
(0.571971 0.000489136 0.000493478)
(0.567413 0.000782206 0.000101187)
(0.560716 0.000719319 -0.000839545)
(0.590302 -0.00135728 0.00688342)
(0.574139 0.000923327 0.00025995)
(0.560058 -0.000554874 -0.00130183)
(0.571359 0.000338575 -0.000111047)
(0.559846 0.000802812 0.00145677)
(0.562231 -2.52894e-05 -0.000153402)
(0.556276 0.00348219 0.00266453)
(0.566544 -0.000212908 -0.000461408)
(0.197299 0.196543 0.000418927)
(0.198797 0.198747 -9.56815e-05)
(0.573661 -0.0018307 0.000791401)
(0.557061 0.000338292 0.000308196)
(0.566104 6.85068e-05 0.000487103)
(0.199187 0.200506 0.000238453)
(0.200009 -0.199959 -0.000255363)
(0.562851 -0.000762601 -0.00012949)
(0.200481 -0.200704 -1.04712e-05)
(0.564089 0.000285692 -5.98955e-06)
(0.567268 -1.62405e-05 -1.41027e-05)
(0.565753 -0.000249578 0.000117375)
(0.570639 0.000211456 0.000270122)
(0.561018 -0.00429238 -0.00142193)
(0.197936 0.200093 0.00148547)
(0.568054 -0.000714343 5.50307e-05)
(0.564756 -0.000195522 -1.4151e-05)
(0.198155 0.19836 0.000185308)
(0.563522 0.000321767 0.000488897)
(0.198279 0.2002 0.000328748)
(0.197313 0.196194 9.58347e-05)
(0.566798 0.000230324 -0.000501214)
(0.567468 0.000659283 -0.000131627)
(0.564254 -6.06121e-05 4.82058e-05)
(0.199167 0.198901 -0.000639246)
(0.199052 0.199097 0.000120305)
(0.486568 -0.000435268 -0.000866694)
(0.565742 -0.000496958 0.00099087)
(0.566078 8.12272e-05 -0.000244616)
(0.567083 -0.000403953 -0.000363107)
(0.564101 0.000508895 -0.000726889)
(0.565879 0.000239264 -0.000463584)
(0.563225 0.0203599 -0.0143773)
(0.199761 -0.200313 -0.000235163)
(0.564304 -0.000496762 -3.83092e-05)
(0.560952 2.21258e-05 0.00018149)
(0.199429 0.199453 -4.00608e-05)
(0.200328 0.19868 -0.000271686)
(0.557016 -0.000212683 0.000167552)
(0.563797 -0.000381881 2.8153e-05)
(0.198437 -0.198836 0.000601695)
(0.566642 -0.000285233 -8.08354e-05)
(0.564956 0.000188616 -0.000141829)
(0.564978 -2.50636e-05 -0.00105922)
(0.590532 0.0429332 -0.0160114)
(0.563178 0.000477429 8.40554e-05)
(0.568915 -0.000440689 -2.37912e-05)
(0.559044 0.0242442 -0.00302811)
(0.637478 0.12972 -0.057788)
(0.566481 1.29052e-05 0.000116473)
(0.255609 0.159918 -0.00766015)
(0.561756 0.000572648 -0.000137076)
(0.200368 -0.199997 -7.4298e-06)
(0.558204 9.43022e-05 0.000983172)
(0.199714 -0.199532 0.000636607)
(0.565293 0.000130253 -0.000491472)
(0.563718 0.00043902 -0.000422585)
(0.199495 0.200293 -0.000231952)
(0.560814 0.000599391 0.000715772)
(0.565816 -0.000613871 -0.000278773)
(0.568195 -0.000297138 -0.00026568)
(0.199419 0.199112 4.82375e-05)
(0.198756 -0.199015 -0.000229992)
(0.56173 -0.000556822 0.000788115)
(0.163244 0.11619 0.0440897)
(0.567009 -0.00121477 -0.000638266)
(0.20042 -0.199736 0.000193763)
(0.582384 -0.00102543 0.00733346)
(0.561798 0.000467422 -0.000111823)
(0.567136 9.53251e-05 -0.00028903)
(0.200404 -0.198004 -0.0014102)
(0.568122 -0.000295615 -0.000169371)
(0.565572 -0.00097667 0.000586936)
(0.207152 0.195927 -0.00108238)
(0.568367 0.00018004 -0.000726944)
(0.566322 0.000279663 -0.00122259)
(0.567655 0.000313364 6.48406e-05)
(0.566517 -0.000305956 -9.35481e-05)
(0.568041 -6.10943e-05 -0.000196217)
(0.566135 -0.000431331 -0.000482713)
(0.200168 -0.20066 -0.000273342)
(0.19247 0.193548 0.00060972)
(0.560599 0.000418891 0.000983469)
(0.565523 0.000839238 0.00220929)
(0.564781 -7.88325e-05 -0.000374939)
(0.568101 0.000100251 -0.000355382)
(0.199523 0.199451 2.40705e-05)
(0.566066 -0.00020176 -4.03906e-05)
(0.565407 0.000107666 -0.000995737)
(0.570991 -0.000297619 0.000406841)
(0.566701 0.000209472 -0.000265775)
(0.568434 -4.41001e-05 -0.000360692)
(0.560424 0.00081472 0.000752114)
(0.565398 0.000513147 -0.00109785)
(0.565101 0.000513998 -0.000796729)
(0.198827 0.198663 -0.000342334)
(0.558754 0.000462808 -0.000121833)
(0.227813 -0.19196 -0.00760033)
(0.553875 -0.00352219 0.000503913)
(0.196659 0.191303 -0.00190576)
(0.198306 0.198715 -5.33468e-05)
(0.565652 -2.09267e-05 0.000151338)
(0.564869 1.05405e-05 0.000230929)
(0.19923 0.198871 -3.52135e-05)
(0.55598 -0.0004898 0.000472344)
(0.565533 -0.000627646 4.64401e-05)
(0.56638 -0.000484166 -0.000125734)
(0.566313 2.58396e-05 -0.000532574)
(0.199194 0.198414 0.000750089)
(0.564989 0.000277393 6.9062e-05)
(0.560144 -4.86323e-05 0.000665972)
(0.560683 6.26164e-05 0.000584638)
(0.567146 0.000218634 -0.000309544)
(0.562535 3.88575e-05 0.000398199)
(0.567026 -9.67207e-05 -0.00037608)
(0.565632 9.32725e-06 -0.000121411)
(0.565838 0.000171939 -0.000114284)
(0.562467 -7.2839e-05 0.000285102)
(0.573749 -0.000827229 0.000489111)
(0.157368 0.0630943 -0.0718333)
(0.562897 -2.28094e-05 0.000373075)
(0.198255 0.198719 0.000268708)
(0.565504 0.000175853 0.000907524)
(0.566671 -0.000151387 -0.000666228)
(0.562917 0.0023016 -0.000573872)
(0.558083 -0.00216067 0.00389928)
(0.564494 -0.00101279 0.00209928)
(0.5682 0.0004031 6.59387e-05)
(0.567402 -8.55834e-05 -0.000787181)
(0.566887 -0.000251298 -0.000253938)
(0.567031 -0.000794793 -0.000874866)
(0.561146 -0.00110368 0.000854781)
(0.197988 0.199497 -0.00289337)
(0.566564 -0.000257174 0.000255253)
(0.565967 0.000352674 0.000358468)
(0.567803 -0.000317711 8.4468e-05)
(0.56602 -5.54391e-05 -0.000346455)
(0.566377 -0.000693649 -0.000589257)
(0.562746 -6.93016e-05 0.000386716)
(0.556538 0.00649592 -0.00107789)
(0.57227 0.000803716 0.000658306)
(0.558508 0.00184496 -0.000897)
(0.562575 0.000321806 -0.000891491)
(0.199324 0.19933 8.62309e-05)
(0.200511 -0.199734 -1.87862e-06)
(0.566803 0.000167917 0.000181819)
(0.567758 0.000430731 0.000320636)
(0.562668 -0.000517056 0.000431938)
(0.559087 0.000721583 -0.00211185)
(0.561557 -0.000859876 5.38607e-05)
(0.198845 0.199064 -0.00032821)
(0.199095 0.199301 -0.000155015)
(0.566904 -0.000798501 -0.00086313)
(0.564114 -0.00043391 0.000155277)
(0.565557 -0.000237312 -0.000330383)
(0.565493 -4.65383e-05 -0.000200611)
(0.565057 -0.000156425 -0.000732251)
(0.566391 -0.000374449 -0.000197004)
(0.220719 -0.15318 -0.0146324)
(0.568011 0.000180983 -2.63488e-05)
(0.561808 -0.0011732 0.000875504)
(0.560185 0.000543314 -0.000791634)
(0.55666 -1.91973e-05 -0.00179117)
(0.56821 -0.000143474 -0.000103501)
(0.541668 0.00350941 -0.0127885)
(0.556999 0.0162024 -0.0106035)
(0.567976 0.000117332 4.21941e-05)
(0.562143 -0.000879257 0.000847589)
(0.560611 -0.000288681 0.000363628)
(0.563105 -0.000611474 0.000625142)
(0.573272 0.000254661 -0.00101527)
(0.199323 0.199348 4.65924e-06)
(0.556726 0.00231924 -0.00215321)
(0.567129 -5.8753e-05 2.43383e-05)
(0.550808 -0.0021162 -0.00586266)
(0.566161 0.000122296 -0.000580551)
(0.566915 0.000106469 -0.000561032)
(0.19973 0.197602 -0.000812254)
(0.563255 -0.000950411 0.00409759)
(0.573326 -0.000456916 0.000105802)
(0.567098 2.19653e-07 -0.000575829)
(0.561118 0.000294038 0.00101393)
(0.553837 -0.000175939 -0.00167769)
(0.199309 0.20511 -0.00187082)
(0.197821 0.195524 -0.00103373)
(0.565914 0.000348679 0.000164191)
(0.566519 -0.000218618 -0.000159817)
(0.566537 -0.000101321 7.28688e-05)
(0.567676 -3.1436e-05 4.69637e-05)
(0.566229 0.000157316 -2.9347e-05)
(0.565504 0.000578677 0.000452807)
(0.562501 -0.000643632 0.000810557)
(0.566474 0.00158193 -0.00273279)
(0.565658 -0.000227465 -0.000886351)
(0.566163 0.00087644 -0.000246524)
(0.564123 -0.00127677 0.00228442)
(0.561455 0.00117816 -0.000708786)
(0.563069 -0.000648748 0.000148745)
(0.566427 0.00020116 -0.000380948)
(0.19862 0.198616 0.000125936)
(0.566909 4.58659e-05 -0.00028447)
(0.200426 0.200577 -0.000126636)
(0.199606 0.19915 1.94098e-05)
(0.565819 0.000950842 -0.000462175)
(0.562734 7.76021e-05 0.00019156)
(0.56685 -0.000831409 0.000526425)
(0.200415 -0.200246 -3.53794e-05)
(0.564491 -2.06166e-05 0.000426452)
(0.560919 0.00107601 -0.00171674)
(0.567407 0.000539627 -0.00109758)
(0.199548 0.199646 9.26366e-05)
(0.565098 -0.00030224 -0.000178086)
(0.197085 0.198847 -0.000605788)
(0.563643 -0.000331446 0.00334633)
(0.198075 0.196987 -0.000124)
(0.561745 -0.000262859 0.00103879)
(0.558439 -0.000240994 0.00106808)
(0.563695 -0.000148623 2.18757e-05)
(0.565642 0.000782822 -3.12247e-05)
(0.200337 -0.200252 0.000101424)
(0.198374 0.198349 -0.00017088)
(0.566872 0.00268254 -0.00303025)
(0.555306 -0.000245309 0.00186801)
(0.567452 8.15121e-05 -0.000844849)
(0.565968 5.36857e-05 -0.000368166)
(0.5652 2.34257e-05 -0.000762267)
(0.563973 0.00116736 -0.000341677)
(0.574609 0.0032118 -0.00127752)
(0.199768 0.199927 -0.000270866)
(0.581998 0.00706628 -0.000886913)
(0.565197 -0.000520729 -0.000735525)
(0.541654 0.0635272 -0.039355)
(0.198089 0.196662 0.000529601)
(0.567624 0.00125216 -0.00161247)
(0.546557 0.000438831 0.00147298)
(0.19941 0.197821 0.00170523)
(0.581605 0.00232106 0.00104512)
(0.567453 -0.000290497 -0.000528268)
(0.199676 -0.199565 -7.24474e-05)
(0.558485 3.16619e-06 0.00128369)
(0.596299 0.00837611 0.00136001)
(0.566477 -0.000518238 -0.000178037)
(0.562069 -0.00146921 0.00246854)
(0.576284 0.00514314 0.0273975)
(0.56037 0.000812771 -0.000460311)
(0.563966 -0.000139763 -0.000403326)
(0.560371 9.90084e-05 -0.00197481)
(0.539749 -0.000119082 -8.01589e-05)
(0.566913 -0.0230948 0.0258767)
(0.564287 0.000325579 0.000782906)
(0.555476 -0.00110317 -0.000188279)
(0.566395 3.33342e-06 -0.000179459)
(0.575434 -0.00144699 0.000984777)
(0.567318 -3.13557e-05 7.7502e-05)
(0.567625 0.00219576 -0.00158498)
(0.199413 0.199488 2.38401e-05)
(0.566528 0.000716654 -0.000265573)
(0.580687 0.000472191 0.00148096)
(0.591026 0.00567653 0.00798962)
(0.199738 -0.199759 -7.51676e-05)
(0.562287 -0.00107499 0.00110038)
(0.569019 0.000422528 -0.000191377)
(0.197201 0.195146 0.000401148)
(0.557998 0.000404162 -7.47952e-05)
(0.562286 0.000159219 -0.00047387)
(0.565928 0.000383266 -0.000697754)
(0.568928 0.000378145 8.74845e-05)
(0.56205 -0.000553699 -0.000354934)
(0.565351 -0.0002442 0.000191425)
(0.198911 0.199227 -0.000231143)
(0.562266 -0.000264793 -0.00174823)
(0.570686 6.29998e-05 -0.000294991)
(0.198981 0.198968 0.000237054)
(0.200022 0.199453 -0.000105792)
(0.565718 0.000491073 0.000315771)
(0.199431 0.199794 -0.000112914)
(0.564456 -0.000190043 0.000390127)
(0.560292 -0.0040538 -0.000313853)
(0.566072 0.000281398 -0.000328171)
(0.562367 -0.000601907 -0.00228244)
(0.562335 -2.65412e-06 -0.00183495)
(0.283935 -0.019669 0.0422694)
(0.199424 0.19967 0.000193457)
(0.571495 0.000326085 -1.35335e-05)
(0.56614 5.07055e-05 0.000154406)
(0.562946 0.000574097 -0.000471773)
(0.560663 0.00272973 -0.00192557)
(0.56316 -0.000123784 -0.000773993)
(0.199139 0.199303 -0.000233426)
(0.544483 -2.54995e-05 -0.000727829)
(0.56075 -0.000174744 -0.000923157)
(0.556078 0.00164621 0.0042084)
(0.567067 -0.000231241 0.0011125)
(0.563779 -0.00106019 -0.000314341)
(0.555028 0.017887 -0.0205256)
(0.566355 -0.00163651 7.41558e-05)
(0.551164 0.00586935 -0.0108725)
(0.198618 0.195277 -0.001179)
(0.199636 0.199581 0.000186992)
(0.199136 0.199109 -7.74919e-05)
(0.566588 0.00022566 -0.000264299)
(0.566016 -0.000229292 -0.00055094)
(0.199126 0.198568 -9.89138e-05)
(0.564085 -0.000142614 0.000800605)
(0.557645 0.00380629 0.00296525)
(0.557157 -0.000748871 -0.000594734)
(0.501189 0.0706648 -0.0406313)
(0.559337 -0.000785878 -0.000491852)
(0.565769 0.000206908 0.00018258)
(0.199832 0.204359 0.000326613)
(0.557005 0.0130354 -0.0208116)
(0.199878 0.199843 0.000164787)
(0.198918 0.198378 0.000352055)
(0.566091 -0.000230281 -5.33508e-05)
(0.317937 0.243275 0.0367261)
(0.289946 -0.117892 -0.00408597)
(0.562658 -0.0013264 -0.000129246)
(0.194326 -0.197746 0.000260704)
(0.566146 0.000113791 -8.89596e-05)
(0.560756 -0.00252118 -0.00514714)
(0.570058 0.0193547 -0.0139351)
(0.565655 -0.000204899 0.000325617)
(0.575709 0.0110268 -0.0036399)
(0.563823 0.000409863 0.000195569)
(0.570666 -0.0366224 -0.0107296)
(0.199022 0.198983 5.15911e-05)
(0.198891 0.198037 0.000214353)
(0.564647 -0.000971763 -3.75913e-05)
(0.563602 -0.000698074 0.00106942)
(0.566991 -0.000417129 0.000192109)
(0.19587 0.198988 -0.00154674)
(0.560189 0.00115151 2.40895e-06)
(0.565481 -0.000412452 7.43621e-05)
(0.565789 -7.23401e-05 -0.000276306)
(0.199253 0.199479 0.000837964)
(0.565529 0.000217458 -0.00061014)
(0.565718 -0.000239913 -0.000284078)
(0.510914 0.0571391 0.0378035)
(0.199118 0.199148 -0.000145855)
(0.645154 0.172818 -0.00642304)
(0.522261 0.0735805 -0.0535297)
(0.2002 -0.199485 4.36211e-05)
(0.199814 0.199091 0.00034515)
(0.198921 0.198531 5.50344e-05)
(0.200494 0.199851 0.000416496)
(0.199955 0.199691 -0.000794137)
(0.565807 0.00058841 -0.000100824)
(0.566177 -0.000149155 0.000211612)
(0.564981 0.000508981 0.000160121)
(0.199455 0.198444 0.000166218)
(0.565019 -0.000330078 -0.000145493)
(0.567426 9.10735e-06 0.000443819)