/*--------------------------------*- C++ -*----------------------------------*\
  =========                 |
  \\      /  F ield         | OpenFOAM: The Open Source CFD Toolbox
   \\    /   O peration     | Website:  https://openfoam.org
    \\  /    A nd           | Version:  10
     \\/     M anipulation  |
\*---------------------------------------------------------------------------*/
FoamFile
{
    format      ascii;
    class       volScalarField;
    location    "25.5";
    object      SgP;
}
// * * * * * * * * * * * * * * * * * * * * * * * * * * * * * * * * * * * * * //

dimensions      [1 -1 -3 -1 0 0 0];

internalField   nonuniform List<scalar> 
111485
(
9.51555e-10
0.000121648
2.82483e-05
5.25859e-11
8.57895e-06
3.19174e-08
1.52138e-05
2.54497e-07
1.04944e-05
2.96786e-06
2.57106e-05
9.2526e-07
6.87143e-06
0.295512
6.77616e-06
1.61321e-05
0.209109
0.00105483
8.90087e-07
4.80023e-08
0.0372142
3.28305e-09
3.16461e-06
1.1393e-05
3.99032e-05
3.5116e-08
5.92109e-07
1.47013e-05
1.06379e-06
0.0481465
4.13765e-06
5.04186e-07
2.17982e-07
1.46334e-06
0.000742045
9.18362e-05
0.13666
0.205824
0.00245783
9.0452e-07
0.0435842
1.20175e-06
3.03901e-06
0.000107775
1.87636e-05
1.58691e-06
6.53894e-06
4.39422e-07
6.04948e-06
4.28463e-07
1.0949e-06
1.73045e-05
4.63425e-07
9.95863e-06
1.50933e-06
1.60458e-07
2.80254e-06
4.44713e-08
5.07137e-05
3.84961e-07
5.82191e-07
2.64938e-07
8.57487e-05
6.96026e-06
6.52897e-06
2.13904e-05
0.000424495
2.41478e-06
7.20807e-05
0.000142649
4.96594e-05
8.74683e-05
1.1246e-05
9.20761e-05
4.65318e-08
1.77773e-06
1.48453e-08
7.17398e-07
2.77142e-08
3.12439e-05
0.281064
0.526547
4.66945e-08
5.23751e-09
1.61396e-05
3.81409e-05
0.143769
9.20547e-06
0.000247585
4.49573e-06
1.35828e-06
6.62784e-06
4.61991e-05
4.92576e-07
2.29496e-06
6.68747e-09
0.0270651
1.18883e-05
0.00154117
0.000577968
1.42742e-09
2.63374e-06
1.96776e-06
1.4383e-05
6.15006e-06
1.64532e-05
5.68139e-09
2.82755e-07
1.52083e-05
0.000729814
4.22171e-05
1.37777e-06
1.32669e-05
7.41709e-05
1.03806e-07
1.81895e-07
3.08419e-08
6.5597e-06
2.31728e-05
4.24228e-09
9.15192e-08
0.000190006
0.0753588
2.27144e-06
5.79956e-05
0.0279392
0.00010733
1.34004e-05
2.98606e-10
0.000323697
0.000137339
1.76129e-05
0.0472047
0.000175289
7.85246e-05
8.48198e-07
8.55011e-10
3.24669e-07
9.72612e-06
2.45193e-05
7.14082e-05
3.48104e-07
0.180375
9.96345e-05
4.13671e-05
2.41923e-06
8.64501e-10
8.9864e-10
4.76298e-08
5.11262e-07
3.37201e-05
0.0285485
0.115723
1.41665e-05
3.52165e-05
5.52181e-07
5.66857e-06
0.000153983
0.00082368
5.43667e-06
9.63563e-10
7.2008e-07
4.03917e-05
7.38245e-05
6.35914e-05
3.8676e-05
7.33945e-06
0.0271061
0.00156316
0.000127791
1.5899e-09
1.52259e-08
0.197967
1.15516e-10
2.68531e-07
2.86033e-06
5.24505e-07
9.57157e-06
3.64752e-08
5.8058e-06
9.92109e-06
3.71392e-08
2.64605e-06
5.08043e-07
2.40279e-06
2.06066e-05
9.85218e-06
5.55829e-05
0.000387436
1.78653e-07
5.44191e-05
5.74455e-06
7.13579e-06
3.74287e-05
5.16335e-06
1.21335e-05
2.07369e-06
1.39253e-06
8.4604e-07
8.88164e-06
3.01132e-06
0.00164064
8.08596e-05
9.30974e-07
1.82921e-06
4.13019e-06
1.25907e-05
1.18048e-05
1.82636e-05
2.91585e-06
5.70747e-06
9.87518e-06
8.71509e-06
7.81487e-09
7.06254e-05
0.000312405
4.62642e-07
6.97178e-09
1.20507e-05
1.7738e-05
8.76117e-07
8.33194e-08
1.62312e-05
1.6535e-05
0.000277902
6.92098e-09
4.47567e-10
3.12652e-05
0.00418608
2.35551e-05
9.37707e-05
1.39415e-05
2.37666e-06
0.146183
3.87359e-05
2.02238e-05
0.160963
4.65761e-08
6.20934e-05
2.22662e-05
2.7113e-05
3.30686e-05
4.86492e-06
3.89994e-06
0.00195329
1.26855e-06
7.84965e-06
1.21158e-08
5.32312e-06
0.13663
1.84126e-05
1.09524e-05
2.19216e-05
7.83488e-10
0.000193255
4.72861e-07
2.79099e-07
6.61358e-05
0.0997123
1.86147e-08
4.65227e-06
5.49941e-05
2.52204e-06
3.37192e-09
1.18387e-05
6.95096e-11
6.08527e-08
5.10084e-07
0.165027
4.3449e-06
3.24768e-05
1.36351e-06
0.177493
1.98533e-05
1.40493e-06
0.000254254
4.75525e-06
1.18707e-06
4.50344e-07
5.36367e-09
0.111616
4.27161e-07
4.00846e-05
2.10126e-05
1.77824e-09
0.217842
0.266027
1.57934e-06
0.000319684
3.4297e-05
3.21767e-06
8.7729e-06
1.19232e-05
2.00874e-08
7.61334e-06
2.92515e-09
0.000358327
0.000276685
1.59403e-05
1.72125e-06
0.346883
1.76906e-08
0.0860871
1.11091e-06
7.78175e-06
3.04672e-09
1.14975e-07
0.0246276
4.90548e-06
1.51815e-06
5.95941e-06
0.000172132
7.74972e-07
3.05255e-05
3.05812e-08
3.53621e-08
5.73423e-06
0.00434441
0.250451
3.42803e-06
0.000792744
1.7642e-09
8.73031e-09
1.40347e-08
8.47874e-05
5.73961e-07
5.89127e-07
2.17544e-06
8.7405e-07
7.16042e-05
0.0608075
5.54673e-06
1.24442e-07
1.9071e-06
2.26512e-06
0.0483329
4.99612e-05
7.38054e-07
7.26935e-07
7.84234e-07
1.34847e-05
7.1182e-08
0.151373
0.000173556
8.56097e-07
3.23881e-06
0.000303322
4.8001e-07
0.0391422
5.39635e-07
1.07858e-05
6.2122e-06
3.90086e-07
2.02256e-05
9.11118e-06
1.96374e-07
5.46089e-07
7.13254e-07
1.76555e-06
0.362362
2.97926e-05
1.70435e-07
0.0530056
1.65764e-05
1.74122e-08
4.08051e-07
3.75833e-07
0.0469173
0.000621657
0.045901
0.049694
2.82559e-07
2.50398e-08
2.80353e-06
4.07826e-06
4.08563e-10
7.74751e-06
3.04392e-06
1.57773e-05
2.65528e-05
0.000141619
5.60258e-06
0.000707989
4.7729e-07
8.21825e-06
4.31781e-05
1.16181e-06
0.000673948
3.89732e-07
1.47366e-05
2.83632e-06
0.0303823
1.17513e-07
2.07851e-07
0.154827
4.77681e-06
0.306568
6.6047e-08
4.66702e-06
3.53881e-06
7.70507e-09
5.1801e-06
4.63111e-05
3.75431e-09
0.0320427
3.16814e-06
2.84125e-06
4.60176e-07
2.58978e-08
0.000758604
3.77219e-09
1.04458e-05
3.62628e-06
4.3485e-10
1.12106e-06
3.88068e-05
0.246919
0.000135026
2.02107e-09
7.95776e-05
0.000102865
9.91005e-05
3.91774e-05
0.000632371
2.42894e-06
0.0011254
5.53835e-05
0.204927
0.000200323
4.58586e-08
7.43141e-06
1.06725e-06
2.03776e-07
0.00141966
0.000222927
8.32369e-05
1.49439e-06
1.37598e-06
9.5832e-06
3.69013e-08
0.351681
8.30635e-07
3.36375e-05
0.00438916
9.16554e-05
0.00127521
3.56725e-08
0.253603
0.332528
2.57736e-08
3.55821e-05
0.000261863
0.000103554
4.05174e-09
3.01245e-05
3.58348e-09
0.285096
7.24082e-05
2.12914e-05
0.000108588
2.11237e-05
1.76163e-07
1.75697e-06
4.99913e-07
6.96773e-05
1.54489e-07
5.98463e-07
0.0524042
9.6148e-05
4.03679e-08
1.5633e-09
0.000384531
8.46594e-08
1.60544e-06
3.64686e-06
2.75151e-08
6.13738e-05
6.7303e-08
0.0741579
6.94417e-08
1.65942e-06
3.68415e-08
0.000239312
4.31079e-07
0.224121
1.96652e-05
0.23695
1.40623e-08
6.6935e-05
2.59077e-06
2.67988e-09
0.369892
0.143246
2.63322e-05
3.04819e-06
3.06272e-05
5.85494e-07
1.18558e-05
7.92801e-07
4.60234e-05
0.289956
2.55703e-08
2.42472e-06
0.000108441
1.78695e-05
0.0591159
5.38751e-06
0.000114981
2.45614e-06
1.37426e-06
0.000781809
0.0820442
1.78183e-05
2.15823e-08
1.44545e-06
3.23836e-06
3.55532e-06
1.14514e-06
1.962e-05
1.76595e-09
0.00169853
1.55702e-07
3.5613e-07
1.78647e-07
9.62932e-05
4.32725e-09
8.78849e-06
2.88849e-08
9.33638e-06
1.98619e-09
0.116295
0.114789
2.00676e-05
1.16326e-06
0.0653154
0.0813874
4.75057e-08
2.44134e-07
1.51541e-05
4.7055e-08
0.000173114
1.78396e-05
1.13858e-05
0.0426524
1.68001e-06
2.42381e-09
4.68565e-05
4.74005e-05
6.27849e-05
1.61553e-06
1.59247e-05
1.05257e-05
1.19456e-06
9.73066e-07
2.13961e-05
3.29934e-05
2.59468e-09
0.126583
6.74466e-05
4.32857e-05
1.34614e-06
0.00120159
3.20895e-05
0.000463894
0.00302057
0.000385496
4.16873e-06
8.65858e-05
1.15641e-05
2.12645e-05
0.115102
0.000212225
7.44491e-05
0.00359337
0.077072
3.17109e-08
6.54481e-05
4.59589e-06
4.07138e-05
3.62691e-07
0.00052698
0.00274763
0.000428437
0.000167286
2.6686e-05
2.37527e-06
5.52062e-08
0.000198631
3.46809e-06
2.87964e-08
5.55213e-10
5.58829e-08
3.20183e-08
9.9754e-06
1.94662e-09
0.0347535
1.27857e-05
2.56323e-05
0.0989069
0.31949
6.03755e-05
3.02065e-06
0.0371502
5.53377e-08
1.88161e-05
1.67957e-07
1.95518e-08
4.77953e-05
2.37039e-05
0.121548
2.65664e-05
1.61696e-07
2.69326e-06
2.90769e-05
0.143875
7.09085e-06
2.75728e-05
7.04468e-05
0.196922
0.0416017
2.83296e-06
1.78252e-05
5.96147e-06
2.41215e-06
6.08183e-06
1.06642e-06
3.18362e-05
4.2183e-06
2.17515e-06
1.14034e-06
4.34229e-06
0.000658816
3.26876e-05
4.25327e-06
5.13996e-06
0.000660466
4.02503e-07
5.12895e-07
1.79933e-05
3.10814e-06
1.66353e-05
3.05132e-06
3.28265e-06
3.41926e-06
3.29358e-05
0.00019814
1.27127e-05
1.85564e-05
3.14051e-06
5.11752e-07
4.48075e-05
4.4541e-06
3.99963e-09
0.0778655
1.61601e-08
0.136811
5.88933e-05
0.0118006
8.03456e-08
0.0295321
1.44681e-06
1.13613e-05
1.35189e-09
7.20012e-06
3.00923e-07
1.65415e-08
8.16473e-07
0.282992
0.000130079
2.96238e-05
0.041187
1.00073e-07
2.99196e-09
3.70166e-06
1.91701e-06
8.36641e-05
5.30065e-07
0.000128588
6.48555e-08
7.37525e-06
0.000125425
0.168388
6.12948e-10
4.74125e-09
3.3608e-06
8.42749e-07
0.000132755
4.46405e-07
0.0631996
1.19177e-06
2.66074e-08
1.23005e-07
0.0456538
6.54849e-06
0.00013956
6.41274e-10
0.00504546
0.00105699
0.182391
1.60822e-08
1.902e-08
3.58831e-06
2.29941e-05
3.95548e-05
0.000589409
0.00033396
0.00025999
5.03515e-06
0.0636635
2.69829e-05
8.14012e-07
6.90841e-08
1.20401e-06
1.37556e-08
9.39231e-09
7.72043e-08
9.35519e-10
3.57449e-06
7.09922e-08
1.95677e-08
3.27067e-07
2.09811e-07
1.66365e-06
1.09171e-07
5.8157e-07
2.70756e-07
1.50781e-05
1.67556e-05
2.69145e-08
7.39862e-09
2.22706e-05
7.8295e-10
9.23709e-05
2.16594e-06
5.13502e-06
1.2225e-07
1.28169e-10
9.52468e-10
1.61135e-09
1.56727e-05
1.87065e-08
6.5733e-08
2.10396e-05
4.79971e-09
1.41377e-05
8.23525e-05
2.35549e-06
1.75801e-06
0.000528788
4.55262e-06
0.252419
0.000110031
8.33151e-06
0.209922
8.24838e-05
6.21748e-06
2.84662e-05
9.69623e-07
2.05413e-05
0.089054
0.000707547
6.22667e-07
3.63321e-08
1.27963e-05
8.05587e-05
9.97532e-05
9.21911e-05
1.84907e-09
1.55859e-10
1.31738e-06
3.86586e-05
9.32878e-06
3.9127e-06
0.00020766
3.43048e-06
3.00071e-05
1.3719e-07
1.51189e-08
0.0336049
8.18466e-06
3.77385e-07
2.79776e-08
4.98192e-05
0.000131289
1.78739e-06
3.4779e-07
0.0407097
1.61341e-09
2.74907e-05
0.0640516
9.63536e-09
0.0727004
4.30267e-05
0.0372432
0.000610815
1.02123e-07
2.49312e-05
2.21094e-05
0.0458725
5.69908e-05
0.00131513
0.161898
0.000144669
1.15117e-05
1.00085e-06
1.28761e-06
0.487257
0.162253
4.30307e-08
0.242242
1.39193e-05
0.000162658
2.53297e-05
2.21521e-05
0.00121451
3.99165e-05
1.40041e-05
6.82867e-06
1.32561e-07
1.77631e-06
0.04585
8.20769e-08
5.57447e-05
2.82933e-05
9.79598e-08
3.96911e-06
0.217711
4.49681e-06
2.96258e-07
0.000646615
1.60363e-08
4.07092e-06
0.212719
2.37269e-08
0.178155
0.34302
0.00135409
1.78139e-05
1.09033e-06
3.7692e-06
6.32186e-05
0.00022517
0.00120384
0.000318569
4.29957e-06
0.0455669
0.00011208
9.28377e-10
0.000303955
0.000299399
0.000611532
0.000467335
0.000864362
0.000171655
1.08448e-09
6.88731e-05
1.02698e-06
4.12785e-07
0.00171282
0.350158
1.75332e-07
3.29208e-08
0.00324357
0.00330853
3.25208e-09
0.000604601
8.67885e-08
1.58503e-08
1.25087e-08
4.49243e-07
5.07095e-06
1.65619e-07
7.86172e-05
0.0521018
1.45117e-09
4.83187e-07
0.00451226
0.116199
7.54013e-05
7.8382e-07
0.0327351
1.06385e-08
0.000134496
4.06147e-09
2.28367e-09
0.000576687
0.130209
2.58327e-06
7.71139e-09
6.70239e-08
0.0358839
1.85961e-08
0.023256
4.7028e-08
0.000104232
7.23762e-09
0.00196098
3.18797e-06
2.86229e-09
7.56966e-07
5.60276e-07
0.00140781
6.26981e-07
2.36726e-08
2.09317e-06
0.0044479
0.0543778
7.25961e-05
0.000614796
0.00107077
4.31178e-08
0.00133045
1.03344e-05
3.48381e-07
2.90862e-06
0.000215684
2.24751e-05
1.17249e-07
9.55917e-06
0.000151242
1.00856e-07
1.37157e-06
7.52542e-07
1.64655e-05
0.0734603
1.30399e-09
8.96154e-07
0.0612046
0.000121961
7.77246e-05
5.66388e-09
8.62332e-07
2.08571e-08
1.13826e-06
2.76248e-05
5.33542e-05
5.53534e-07
3.01112e-05
2.76553e-05
8.33782e-05
1.69334e-05
7.00225e-09
3.83557e-06
1.66935e-09
5.08786e-07
6.73291e-05
0.000184895
3.12887e-08
5.08039e-07
4.60796e-06
1.56492e-10
4.7982e-05
4.46889e-07
7.33134e-05
0.000841336
7.55884e-05
1.4942e-08
0.00139487
0.000119528
6.32029e-05
0.000159553
4.70847e-08
0.000164463
2.56147e-06
0.117525
3.51729e-05
9.79381e-05
6.4304e-08
6.6725e-10
2.33484e-08
0.186996
0.0751746
4.47155e-05
6.79007e-10
0.000143839
2.9981e-08
0.173755
0.000161638
7.63811e-07
9.25796e-08
3.42015e-06
6.18044e-07
9.0154e-05
2.13572e-06
0.000123629
0.313605
4.19623e-06
7.22156e-05
3.3887e-05
7.09041e-05
5.22283e-05
3.24844e-08
3.42378e-10
2.84954e-06
3.67935e-05
8.19957e-09
2.02467e-07
0.000610708
4.59212e-07
1.43932e-06
0.423822
1.75994e-06
6.88064e-05
4.0105e-10
3.32707e-06
2.66057e-07
0.331968
3.07444e-09
0.119434
0.00554742
0.00013809
1.7274e-05
1.5819e-05
0.000948389
2.57591e-06
4.03971e-06
2.31178e-06
1.00812e-06
6.19541e-08
1.87136e-06
8.60876e-05
2.40511e-06
0.0710439
2.76797e-07
4.36283e-06
0.00030893
2.07774e-09
0.000385922
8.55866e-08
3.98562e-05
0.000832436
6.8605e-08
2.12929e-06
7.0671e-05
5.51926e-07
9.42614e-06
0.18267
8.34147e-07
9.94519e-06
1.66665e-10
0.0468672
9.00691e-06
1.95121e-07
1.94606e-07
4.9584e-06
7.30447e-06
9.59553e-09
0.15248
1.49457e-06
2.09965e-09
0.000125551
4.08061e-07
2.64411e-09
4.57632e-05
0.00102297
0.000885078
7.72282e-09
1.12389e-06
4.64822e-08
4.92621e-05
5.06604e-05
0.0343492
6.28022e-06
0.000920658
6.79001e-05
0.00117733
3.09437e-05
3.53911e-06
1.09276e-06
4.76758e-07
5.14403e-05
2.09613e-06
7.4108e-06
0.0440774
0.000252401
0.0482308
1.27572e-09
7.92774e-06
1.17239e-07
6.05067e-05
0.000102536
1.1848e-05
4.91592e-05
0.000542097
0.000151319
7.75074e-10
0.00722416
0.00842517
8.68285e-05
4.75641e-05
8.47112e-07
0.00095422
1.68717e-06
2.86434e-06
1.38539e-07
5.57803e-09
0.000253565
9.81764e-06
0.00100252
6.47943e-07
0.047726
0.00067322
7.23244e-07
1.38174e-07
0.000581812
2.92186e-06
0.0557516
0.28216
0.000133183
0.000237671
1.6552e-06
5.28839e-07
2.10172e-08
1.36132e-08
6.30338e-05
5.03545e-06
0.0351384
0.055172
3.17136e-05
3.20411e-08
0.000324278
0.0419365
2.76833e-05
0.00116062
0.00261685
0.0443823
0.122407
0.0516271
0.000122556
1.16556e-09
0.0020437
6.68579e-07
1.64604e-07
1.95332e-07
7.43333e-09
2.88408e-05
4.12481e-09
2.09815e-09
9.22167e-05
4.93992e-08
6.71506e-09
9.57837e-07
5.56238e-07
0.0603209
6.49153e-06
3.0793e-05
0.0778785
0.263583
6.01939e-09
0.188772
0.000160959
0.392515
3.86152e-07
1.10031e-07
6.90752e-08
4.49406e-05
0.263395
1.73358e-09
0.00118563
7.47598e-08
3.99943e-06
1.63804e-05
7.80349e-06
1.1142e-06
2.42437e-07
0.0792722
9.99027e-09
7.20738e-06
1.15517e-07
9.26885e-07
1.7671e-06
0.000460669
0.000121614
1.16621e-06
0.000391263
2.17992e-05
4.24326e-07
0.000143309
7.52193e-07
2.54239e-05
1.43842e-07
1.32844e-07
0.255763
0.0447612
0.000400466
3.32896e-07
6.40917e-09
4.49603e-06
0.195471
2.49201e-07
1.16867e-05
4.94147e-07
2.95416e-06
2.536e-09
0.0365546
0.000111864
7.65188e-07
6.21456e-07
1.77806e-05
7.99283e-09
0.181173
1.09042e-09
0.0405934
7.98288e-05
5.00927e-06
1.30658e-08
3.3538e-06
1.33571e-06
1.0321e-06
3.62069e-06
5.09505e-06
3.10343e-10
4.66017e-09
9.63732e-05
0.0822147
2.29376e-09
3.44389e-05
5.21392e-06
9.86832e-05
3.92565e-07
0.0493678
2.34349e-06
5.16349e-05
5.55293e-05
6.11268e-08
5.90135e-05
1.98329e-06
1.72955e-05
2.8849e-08
2.73376e-08
1.08008e-05
6.29198e-09
0.000184489
4.04775e-05
2.99019e-08
8.32299e-08
0.000136391
0.000549204
0.307083
1.18081e-07
4.97655e-06
1.84642e-06
0.000371898
0.000171953
2.73754e-05
8.39438e-05
0.0808017
3.52789e-06
5.51917e-05
0.000836391
0.0682403
7.09308e-07
5.03389e-08
0.000427831
2.93852e-06
0.0424991
1.9082e-07
6.98936e-06
3.5233e-06
1.67871e-08
0.232305
9.52451e-09
1.70126e-07
6.40332e-07
2.75171e-05
0.310916
0.0586772
4.57629e-07
2.49501e-08
1.80264e-09
1.11422e-07
1.09733e-07
6.62041e-07
1.21457e-07
6.5678e-09
6.40724e-08
1.18562e-08
1.84083e-07
0.0643489
0.0381604
2.9065e-09
1.38357e-05
7.89695e-09
7.89693e-08
1.34098e-08
0.0374045
0.0824387
5.67613e-06
4.35705e-08
1.35849e-08
8.38771e-07
1.29836e-06
4.09272e-06
1.36821e-07
0.000334183
2.67778e-07
3.13414e-06
3.49736e-06
0.000189509
5.35492e-06
0.000807117
1.80319e-06
3.21879e-08
0.000494747
0.000451462
1.84589e-08
2.30623e-05
4.04187e-06
1.37325e-05
4.3709e-05
1.05567e-05
3.69765e-06
1.12955e-07
0.332673
5.08009e-07
4.01936e-05
0.0643795
0.000120424
1.22235e-05
1.51842e-05
1.68106e-06
2.38421e-06
2.38323e-05
6.72922e-05
5.73962e-05
3.37661e-06
4.57689e-05
7.69635e-06
3.94986e-06
2.22819e-06
5.60054e-09
6.41808e-08
4.7326e-08
6.72732e-10
1.78504e-07
3.43156e-08
7.50027e-06
1.9235e-08
3.08834e-09
1.84852e-07
1.7394e-05
4.22687e-09
9.78414e-09
8.21812e-07
1.12177e-06
1.01479e-06
8.74986e-05
6.59231e-06
0.248187
1.22528e-07
1.15757e-05
1.55082e-05
4.25639e-06
4.3669e-09
1.84209e-08
0.225353
5.6225e-07
5.88407e-09
2.36373e-06
0.226489
1.73707e-06
5.93792e-05
5.9076e-05
1.10051e-06
7.70242e-06
9.33626e-06
0.000388923
1.94881e-08
4.42608e-05
4.98103e-06
1.8987e-07
0.000327653
0.000400127
0.197386
6.78086e-06
1.37764e-06
7.43106e-06
3.85973e-05
1.61867e-05
1.95265e-07
0.00262005
1.19602e-08
0.000640483
0.000416559
0.0611053
1.0034e-05
0.25946
3.11967e-08
1.30047e-07
5.18863e-06
2.4992e-05
7.45297e-05
3.26752e-06
0.000117858
3.60425e-08
9.83114e-06
1.11774e-09
2.02077e-08
1.63242e-06
0.000493835
1.01406e-07
5.24847e-09
0.000422071
2.17507e-07
0.000551853
3.47632e-06
2.02737e-06
1.50428e-06
4.5392e-07
2.01532e-05
4.54322e-06
0.000205892
6.46568e-07
8.30198e-06
0.00331237
1.22281e-06
7.22492e-09
0.000158031
2.35363e-06
4.10089e-05
5.0256e-09
0.14447
0.000116781
7.17613e-05
1.78811e-06
7.34887e-09
0.000196917
4.71793e-06
2.46884e-07
8.1688e-10
6.62774e-05
7.19734e-05
8.04989e-05
0.196838
2.95103e-06
6.1276e-06
0.000247408
1.01404e-05
6.75782e-06
2.71629e-06
8.50697e-05
3.65091e-06
0.000120668
0.184259
1.50694e-05
5.41225e-10
1.71042e-06
5.30825e-05
1.51218e-05
2.70508e-07
0.000460219
0.000878181
0.000487105
0.000879745
1.74345e-05
5.2909e-05
7.20299e-06
2.03741e-05
1.11253e-07
1.07566e-08
0.102403
0.00050842
2.82763e-06
0.00166585
5.15306e-06
2.47364e-05
0.000434299
4.33272e-06
2.26069e-06
3.23157e-06
4.06356e-07
4.23084e-05
3.01448e-05
0.000153193
2.85085e-05
5.63951e-07
6.45514e-09
2.82184e-05
9.92908e-07
2.02233e-08
0.000313234
3.03742e-06
8.04918e-06
3.82103e-05
7.54966e-06
4.06348e-08
0.000601151
0.139015
4.78859e-08
5.56108e-09
2.11868e-08
0.14495
0.247369
4.30035e-07
0.0533399
5.39728e-06
2.04591e-05
8.00729e-06
8.42223e-06
1.18265e-05
1.3912e-05
2.97621e-05
0.118389
0.340892
0.393218
1.20758e-05
3.1984e-05
6.74557e-06
7.42299e-06
0.361827
1.40923e-08
0.175543
4.0834e-06
1.09742e-08
7.38435e-07
5.81331e-07
2.81291e-08
3.7489e-08
2.29716e-07
1.75059e-08
0.137362
4.91906e-08
2.91586e-05
0.000196845
2.29652e-08
4.51524e-06
7.34206e-06
6.3912e-06
6.55175e-08
0.000587171
6.46452e-06
8.59225e-07
6.90235e-05
4.275e-06
3.10566e-05
4.68782e-06
1.20011e-06
5.28062e-07
2.01445e-05
0.00341837
4.77659e-05
9.03765e-07
1.37023e-05
8.35159e-07
2.54e-05
0.00010016
1.18872e-05
2.23015e-06
5.45098e-06
1.15437e-06
5.79045e-05
1.27762e-07
8.19018e-06
0.0412195
0.000426351
0.329242
0.000772856
0.0001146
1.65831e-08
0.0615544
1.20379e-09
4.96078e-05
1.62716e-05
8.26085e-07
8.77393e-05
1.66212e-06
9.46472e-07
4.47947e-05
8.02854e-07
2.09694e-07
1.97653e-05
6.48869e-07
2.2442e-05
0.0790521
3.56095e-07
3.80959e-05
1.38999e-06
8.04259e-07
6.08664e-10
0.000261474
9.15492e-05
3.71336e-06
1.4035e-08
7.08382e-07
0.0443969
0.000212435
9.8693e-06
1.47312e-05
1.70369e-09
8.36363e-11
9.3461e-07
4.22242e-09
4.93074e-05
3.55777e-07
2.17511e-05
1.64017e-06
1.98146e-07
5.99713e-07
3.07276e-08
4.80349e-05
9.05485e-05
4.41355e-05
5.14064e-07
2.92353e-08
9.82025e-07
2.29922e-06
0.000536687
1.00079e-06
0.162137
2.18823e-05
2.92112e-08
4.17221e-08
0.000230911
1.29135e-05
0.00114351
5.43657e-07
9.90334e-05
0.234521
3.71641e-10
0.000334242
2.70002e-05
0.0425331
1.76171e-06
0.047501
0.0830813
0.000120099
7.52919e-06
2.0208e-05
1.12834e-08
1.59136e-05
2.7115e-05
0.00037925
1.92129e-05
6.97063e-06
2.61881e-05
0.000431826
0.00034673
0.000516055
0.000130951
1.68447e-08
8.98574e-05
0.000891753
6.34205e-06
4.01113e-06
0.000250426
0.000214646
1.38354e-05
1.87895e-05
0.000266527
1.57195e-05
0.000381136
0.000249898
1.94842e-05
2.48772e-08
3.4937e-05
0.000423999
0.0668785
2.13374e-06
5.21075e-07
4.93085e-05
1.86624e-07
8.53821e-05
8.38868e-07
0.00039774
5.82191e-07
7.04379e-05
2.51972e-08
9.96083e-08
1.10413e-05
0.000920171
0.00120537
0.339159
4.18348e-05
2.04769e-06
2.10723e-07
0.000412251
2.3162e-05
0.0338549
0.0704253
4.16299e-10
0.000791177
6.47179e-05
6.75559e-06
5.67302e-09
0.00114797
5.70404e-07
0.0427502
4.97816e-08
4.87811e-09
3.01976e-05
1.14188e-06
1.32439e-06
3.70512e-05
0.0395504
2.04472e-05
2.39668e-07
8.43345e-05
0.219277
0.0432573
6.80232e-06
0.000284783
3.04031e-05
0.000579422
3.03007e-06
0.0374071
3.85241e-05
0.000187068
2.41358e-07
8.87004e-07
4.72738e-06
5.20724e-07
2.42348e-05
2.29296e-06
7.70127e-07
2.54765e-06
4.1526e-06
0.000101476
2.46407e-08
3.64874e-07
0.0806318
9.73699e-09
7.72995e-08
4.34504e-05
6.35483e-08
0.000185977
3.5613e-05
0.0659121
2.35164e-05
0.261442
1.28574e-05
2.1609e-05
0.0399199
0.000160882
2.51138e-10
1.96033e-06
0.0279831
1.56995e-05
7.91066e-05
1.69061e-05
1.62031e-07
7.05388e-06
7.47577e-06
8.52918e-07
0.127606
1.0958e-06
1.02991e-07
1.77453e-06
6.66709e-07
1.51306e-08
8.69971e-05
2.45152e-06
0.2744
8.34496e-05
3.5204e-05
4.64423e-05
5.8687e-05
1.67592e-05
2.97694e-06
1.28637e-10
8.99312e-07
7.40105e-05
2.15446e-05
6.50678e-06
6.92256e-08
1.13362e-05
1.26565e-06
4.02553e-05
3.2172e-08
1.36955e-07
1.23019e-06
2.86498e-05
2.1948e-05
3.3131e-05
2.9036e-08
2.25737e-08
0.00165637
2.21811e-08
1.46789e-09
2.76711e-09
1.46681e-06
0.308947
9.38591e-07
0.000115926
6.91562e-05
2.11253e-05
1.77289e-07
1.24991e-06
0.000226191
7.38497e-06
3.55018e-07
3.75363e-05
3.99242e-09
2.91679e-09
4.07051e-09
9.91588e-05
1.10839e-07
0.329076
0.00052712
3.53482e-05
0.00184054
6.84405e-07
1.71611e-05
2.46789e-09
0.0592787
8.28249e-06
6.19365e-06
1.55183e-06
4.12143e-07
1.6167e-07
0.481474
1.68545e-05
0.000437112
6.58882e-05
1.37779e-06
0.122497
3.17045e-07
3.20336e-07
4.99711e-07
7.25508e-07
3.50735e-05
5.02064e-07
2.44588e-05
1.81543e-05
0.000502281
3.6015e-06
4.6236e-10
0.000190116
3.80973e-07
0.156849
3.46933e-06
2.40785e-07
1.25055e-06
1.89483e-05
0.0606419
0.0297498
1.84792e-05
4.84706e-05
0.0905535
3.56743e-06
2.55711e-05
0.0473638
1.25206e-05
5.92776e-06
0.17325
0.0186426
1.05828e-05
3.33298e-05
1.53745e-08
3.86912e-05
0.00172934
1.03533e-05
1.14933e-05
0.000380946
1.30724e-09
0.0231232
1.03844e-08
2.87604e-05
0.194425
1.22189e-07
1.22213e-05
4.56028e-06
3.74493e-07
4.08281e-08
4.83185e-05
4.17811e-07
1.13477e-07
3.1673e-05
9.70919e-06
1.38948e-08
0.0232784
0.0441103
5.0683e-06
2.69569e-10
1.90896e-09
0.000144378
1.41465e-05
5.39812e-06
3.35059e-09
9.58738e-08
0.000133274
6.97655e-05
4.76001e-05
8.33734e-05
0.363481
1.49012e-09
0.140832
1.76252e-05
6.86812e-06
0.0562472
1.08553e-06
2.11085e-08
0.0228057
7.36046e-10
6.82738e-06
6.45732e-06
7.11983e-06
1.10176e-06
9.25042e-09
3.95407e-09
1.62874e-08
2.03811e-05
0.134095
0.212359
3.1437e-05
2.55054e-06
1.68813e-10
0.0557429
0.225567
0.000279343
1.05042e-06
1.35961e-07
0.000968629
0.000247116
2.3852e-07
1.32199e-08
2.17872e-06
8.02858e-06
3.69713e-08
1.10729e-05
6.98613e-05
0.0599467
0.204415
5.62275e-05
0.000848586
9.98212e-09
3.73961e-07
3.28612e-05
0.000180754
3.37691e-05
0.000425495
8.25356e-06
1.51237e-05
6.98964e-09
8.84109e-08
1.26561e-05
0.0582411
1.1412e-06
0.177816
1.99711e-08
1.21921e-05
2.49088e-06
1.66416e-05
1.06276e-08
1.27251e-09
1.10374e-07
3.52442e-08
1.22291e-06
0.000327955
1.01741e-08
0.0373089
1.78654e-05
0.159264
1.95236e-06
3.01315e-06
1.6523e-06
2.08103e-06
1.33264e-05
3.07916e-08
2.40737e-08
1.33308e-08
3.34554e-06
9.64981e-06
0.05825
0.0563865
5.30321e-06
1.01118e-06
6.02751e-09
2.40565e-09
2.50063e-08
1.72002e-06
0.000250245
2.02824e-07
3.66722e-08
3.5908e-09
0.0219312
2.67611e-05
4.47506e-05
0.0403639
8.7784e-07
0.310788
9.77608e-06
4.39692e-07
4.25335e-10
2.59244e-07
0.0534435
9.72087e-10
2.33432e-05
2.24743e-08
0.000703865
4.50353e-05
8.45529e-05
0.000146109
2.93975e-05
3.85964e-09
1.56314e-08
0.359132
3.2983e-05
3.51095e-05
0.000234854
4.22011e-07
8.60919e-05
9.60476e-05
3.00887e-06
3.29898e-06
0.000305232
8.17474e-08
0.000718763
0.0391427
1.4264e-06
2.06444e-07
8.3324e-05
9.06356e-07
0.0340677
0.182101
2.17648e-05
9.17714e-10
0.00411116
3.43139e-07
1.56193e-05
1.55187e-06
0.000125226
1.12284e-08
0.000881113
8.74456e-05
0.000132041
2.14218e-05
0.000123434
3.06489e-05
5.38364e-06
7.51011e-10
0.000155792
4.75629e-05
5.8153e-05
6.6385e-07
9.66205e-06
0.000121704
0.000454827
9.43698e-09
1.83177e-08
3.4904e-08
3.49584e-10
1.27396e-07
0.0216154
0.000404626
0.000144351
4.07383e-05
0.000206398
8.315e-05
2.79986e-10
1.16642e-05
6.69833e-09
5.38885e-07
7.42061e-09
2.62424e-05
0.00203983
1.54898e-05
1.1149e-07
1.33204e-08
1.50406e-06
1.22426e-07
6.92206e-09
0.146468
9.22763e-06
0.000674628
0.00103209
0.000731024
8.99634e-09
0.000677595
0.00075724
0.00135465
0.000728461
3.86027e-09
3.87442e-10
3.45523e-06
8.61727e-06
6.83146e-05
0.000322623
0.0424909
8.30701e-06
3.29754e-05
4.47493e-06
0.000557947
3.40358e-08
1.23673e-09
0.000114643
0.00037172
0.0260881
6.3624e-09
0.117922
0.000127279
3.39686e-07
9.40646e-05
4.9676e-06
8.97998e-05
2.2795e-06
9.85901e-05
6.72746e-09
9.62686e-06
0.00217503
3.66951e-05
5.77983e-08
0.00176235
4.48425e-05
1.06856e-05
0.0032473
8.74584e-08
7.69222e-06
5.72068e-05
0.000103526
8.634e-07
0.193171
5.66511e-08
8.64295e-07
2.70639e-08
0.118074
0.121045
2.06805e-06
1.80921e-06
0.000155169
0.055056
3.32564e-08
1.10148e-05
2.16369e-05
1.34985e-05
1.28007e-06
0.195399
7.21512e-06
1.75406e-05
0.00363664
1.60615e-07
7.20503e-06
1.73208e-06
2.56108e-06
1.8357e-09
0.00240405
0.00398172
1.08819e-07
7.66567e-07
1.26738e-06
0.000102143
7.49687e-09
0.0397944
2.90195e-07
1.00017e-05
1.09941e-06
5.30522e-07
5.01275e-06
3.37775e-05
1.30322e-06
4.99502e-06
0.000247447
1.59947e-06
1.34299e-06
0.0429942
7.7266e-07
3.37994e-06
2.50505e-06
1.99525e-05
1.93103e-10
5.03776e-09
7.08586e-10
6.02868e-06
5.60884e-08
0.0677046
2.23004e-05
1.21319e-05
3.8661e-09
3.27801e-05
0.11753
7.894e-05
1.3866e-05
6.19312e-05
1.26151e-05
2.01089e-07
7.9001e-08
2.4372e-05
4.40113e-06
2.71516e-06
0.000546687
9.73208e-06
4.67629e-08
2.97644e-08
2.33466e-06
7.67123e-08
7.00975e-06
4.13014e-08
1.20713e-05
1.6331e-05
1.95963e-07
7.61056e-10
0.0456965
7.10742e-09
2.48106e-09
2.52046e-05
0.0564457
2.06749e-05
2.24682e-06
1.38806e-08
1.00836e-05
5.36224e-06
2.23592e-05
6.08985e-06
7.409e-09
1.76511e-06
1.58127e-06
5.55912e-06
4.06437e-09
4.96708e-09
4.36813e-09
5.27466e-06
1.707e-05
9.68624e-07
1.63917e-08
7.60325e-06
5.21956e-05
1.88941e-08
2.49802e-05
4.61969e-07
5.24925e-08
4.43954e-09
3.9633e-05
2.3989e-07
2.06267e-05
1.5552e-09
2.55687e-05
1.01569e-08
1.56214e-06
0.000350989
1.34973e-07
5.51724e-09
0.0688115
2.98314e-08
0.0565829
2.45264e-07
4.63303e-08
9.54788e-06
2.58381e-05
0.0470173
5.89793e-05
0.0499239
0.0606512
9.126e-05
1.15141e-05
0.0403675
1.08526e-05
1.66902e-08
4.28464e-05
0.141184
0.0370072
0.042204
1.18735e-08
1.04282e-05
1.45178e-08
5.54901e-06
9.89876e-07
7.91533e-06
0.000171922
7.06654e-06
5.30289e-07
1.64669e-08
3.75104e-06
0.000295141
2.39628e-08
1.2113e-05
3.84288e-05
1.97695e-06
9.94506e-10
6.34503e-05
2.63181e-05
2.62107e-05
1.78828e-05
1.66349e-05
2.18299e-06
7.58191e-06
0.000153978
8.67997e-06
6.73259e-06
0.000126048
0.000457951
4.12861e-09
6.34337e-07
2.79261e-08
1.99163e-05
9.06138e-08
2.31287e-06
1.01827e-10
0.000397341
0.391902
0.0890512
0.000150353
5.08336e-09
1.15815e-05
0.0553179
0.102951
2.47827e-06
0.000271636
2.09808e-06
5.59265e-07
1.20677e-07
2.98126e-09
9.36594e-06
4.49237e-05
3.89883e-08
4.25487e-09
1.77818e-05
1.65695e-07
0.176363
0.0539127
1.16913e-05
5.253e-09
1.15642e-08
0.042077
5.12082e-09
2.57872e-05
9.69589e-09
0.000613896
2.139e-08
4.95616e-06
5.15799e-08
6.09751e-09
0.00108287
0.154972
0.0646341
1.45474e-08
0.0689787
4.24716e-08
1.36988e-05
1.66134e-06
0.118066
2.39999e-07
0.000162599
3.97499e-09
1.96877e-06
0.000276971
1.72877e-06
0.000165288
1.0003e-08
1.16585e-05
3.30346e-05
2.06868e-05
5.39468e-06
3.66611e-07
3.32562e-07
3.38495e-06
6.10562e-07
1.01523e-08
3.65247e-09
0.0753761
0.0371619
1.43083e-08
0.0845136
3.52044e-10
2.13832e-08
5.2808e-05
4.73757e-09
4.80874e-09
0.0402389
1.81926e-08
7.34017e-10
0.000651681
2.02603e-09
1.29733e-09
5.0644e-05
0.0929666
1.37713e-07
0.0371325
8.45813e-09
4.67397e-06
0.0503807
6.27922e-06
0.00086892
5.85211e-10
7.27847e-08
1.04565e-06
1.88495e-07
0.209787
0.045649
0.000109462
3.26241e-08
0.0462873
1.03587e-09
2.07418e-08
1.81017e-09
0.102988
0.00175789
9.25118e-06
1.28351e-09
1.29653e-06
0.0481465
0.000912685
3.64704e-07
0.000257119
0.109062
0.0862587
3.55714e-05
0.0853664
0.000928244
0.0426778
4.20937e-05
0.0657466
0.000345298
4.6277e-06
1.48163e-06
2.33261e-06
0.000458376
0.000931232
6.85904e-10
3.90965e-06
7.16856e-08
4.64256e-05
7.4163e-06
9.98748e-07
8.12419e-06
0.000297623
1.74534e-07
7.99948e-06
9.10929e-08
2.68029e-08
2.75427e-08
4.52542e-08
5.07806e-06
4.4502e-08
4.87483e-08
7.45311e-08
1.06621e-05
4.32701e-05
1.56503e-10
1.82354e-09
5.52629e-08
1.00232e-07
1.07285e-06
0.00129846
0.00210129
0.000131214
9.47717e-09
3.2276e-05
5.78843e-06
0.0463584
3.20468e-05
1.29548e-05
5.66979e-07
1.10954e-06
2.47761e-06
0.00022301
0.000117005
0.179505
0.0671837
8.23477e-08
0.000828645
0.000296595
1.4281e-08
2.68947e-06
4.61157e-06
3.82129e-08
1.73108e-06
3.95106e-06
0.0621639
1.18411e-09
8.34988e-05
1.42401e-08
0.0488071
5.12669e-05
0.035509
3.35156e-05
5.15821e-09
6.71535e-09
2.30853e-08
2.50903e-05
2.4455e-05
4.22445e-06
7.26206e-06
9.5799e-07
0.000764072
0.000290424
8.5268e-10
0.000117095
4.84861e-05
5.29302e-05
9.5418e-05
0.00296804
4.05212e-06
0.0992181
4.92642e-08
5.88348e-06
0.0383635
1.44863e-08
0.000260862
0.00717792
4.01848e-08
0.000103058
1.40499e-08
1.86009e-07
2.58285e-06
3.92948e-06
5.32664e-08
8.55443e-09
6.99469e-07
2.56585e-09
6.07612e-09
0.000127066
2.4534e-08
5.59288e-10
2.93807e-05
7.67521e-09
9.78685e-08
2.70288e-07
0.000215655
2.19646e-07
0.000169251
1.07631e-07
4.69204e-08
2.26204e-05
6.61226e-05
0.000231997
0.0432327
8.07519e-05
4.29463e-05
2.30011e-06
0.320023
0.31118
1.24818e-07
2.91253e-05
1.77483e-08
0.0458959
0.0380316
0.000405815
0.0904543
0.0685049
7.16365e-06
1.10423e-09
0.000116054
1.12875e-08
1.23514e-09
3.9762e-07
1.59049e-05
6.98848e-09