/*--------------------------------*- C++ -*----------------------------------*\
  =========                 |
  \\      /  F ield         | OpenFOAM: The Open Source CFD Toolbox
   \\    /   O peration     | Website:  https://openfoam.org
    \\  /    A nd           | Version:  10
     \\/     M anipulation  |
\*---------------------------------------------------------------------------*/
FoamFile
{
    format      ascii;
    class       volScalarField;
    location    "25.5";
    object      SgT;
}
// * * * * * * * * * * * * * * * * * * * * * * * * * * * * * * * * * * * * * //

dimensions      [1 -1 -3 -1 0 0 0];

internalField   nonuniform List<scalar> 
111485
(
3.83005e-15
0.00770944
0.0243292
5.78609e-16
0.0489601
1.21391e-15
0.046502
0.00616808
0.0190718
0.00124716
0.0468678
0.00948676
0.00482658
0.000793989
0.0065037
0.030202
0.00143792
2.62391
0.0103467
7.59972e-15
9.54934e-16
1.95296e-16
0.0269732
0.0345131
0.0087444
4.42639e-15
0.0393371
0.0017835
0.0152762
2.1669e-15
0.0446565
0.0196196
1.26545e-15
1.46431e-15
0.00630284
7.17227e-15
0.0106383
0.00421554
3.81912e-08
0.0242497
2.64668e-16
0.0707526
0.0158596
0.00156912
6.36179e-05
1.67808e-14
0.0294186
0.0007113
0.0474106
1.33512e-15
2.38082e-15
1.06379e-14
1.13943e-14
0.051514
4.35697e-15
0.0437778
0.00302997
1.54962e-15
2.00105e-05
0.00480251
0.0160646
3.77101e-15
0.00481536
0.0984665
1.55367e-15
0.0031042
0.315962
0.0943795
0.00111564
0.00618643
1.94743e-05
0.0066762
2.61192e-15
0.00291742
2.16718e-15
0.000718601
8.52763e-16
0.0411175
8.1338e-16
1.67904e-14
1.03029e-06
0.0339111
2.87708e-15
4.52123e-15
0.00940014
0.00380378
3.36168e-10
0.0254264
6.07316e-05
0.00744102
0.000256036
0.0402474
0.0119754
5.80127e-05
0.0521081
2.54545e-15
7.47741e-17
0.0018253
3.14722e-08
0.00112007
1.26877e-14
0.0176477
3.74852e-15
0.0179784
0.00457294
1.05489e-15
1.82116e-16
0.00759164
0.00420453
5.45259e-08
0.00555459
0.00476136
0.0038111
0.00327327
5.25607e-15
3.42352e-05
3.02115e-15
3.21551e-15
0.0128955
6.7686e-15
1.80473e-15
7.58713e-15
1.86268e-15
4.71025e-16
0.00152472
3.04239e-06
5.60292e-17
0.0017256
7.34702e-17
2.28411e-05
0.00152757
0.0328954
1.21904e-14
1.98791e-14
4.30367e-15
0.0482851
1.29047e-15
0.0425304
0.0254038
0.00271059
0.000252651
0.00199854
0.0225198
0.00261179
0.00407734
0.0130629
6.05943e-15
2.38542e-15
1.41152e-15
0.0281448
0.00152641
4.81001e-15
2.38778e-07
0.00467652
4.2405e-07
0.0109662
0.0160935
0.0108636
5.89377e-08
5.97223e-15
3.18189e-15
0.0524054
0.0224586
1.64578e-06
3.00366e-07
0.00585574
0.00338963
1.16321e-15
3.99274e-06
4.27906e-05
5.75919e-16
2.05321e-15
0.000121699
3.30409e-16
0.00548358
0.0020624
1.57884e-16
2.34538e-15
2.13151e-15
3.87422e-15
1.03919e-15
2.25396e-15
0.00152021
0.00677742
0.0299404
0.00412285
0.00771616
0.00403558
7.7312e-05
7.95397e-16
0.00486239
2.30125e-16
2.9354e-15
0.00654896
0.0103524
0.0287954
0.0115024
0.00502599
5.7948e-15
0.00680347
0.000498112
4.08904e-05
0.0144716
0.00233861
1.7786e-14
0.00385608
0.0249383
1.87465e-14
0.00015777
0.00792988
0.00199425
0.000370943
1.03963e-14
2.94099e-16
0.00834029
1.0487e-11
0.11941
4.50377e-15
0.00669267
0.020608
0.119083
1.6283e-15
0.00329791
0.0137203
1.83209e-13
1.41605e-15
2.84524e-17
0.150061
2.34455e-07
1.26823e-15
1.65538e-16
0.00944154
0.00783461
0.014983
3.16061e-15
5.23489e-15
1.32704e-05
1.15063e-14
0.00236268
0.00958123
0.0166661
0.0116372
0.00966615
4.57972e-16
2.4197e-07
0.00062839
1.539e-15
2.37963e-15
0.0309486
0.0205846
3.19831e-15
0.00657465
0.0107892
7.18138e-16
5.53098e-14
0.000112609
5.32023e-15
1.32414e-14
4.44542e-05
1.20704e-15
0.0147566
0.0106045
0.00368735
2.43902e-14
0.0117975
5.52568e-17
2.52141e-15
1.40239e-15
1.74639e-08
0.0230521
0.00616965
0.00552748
0.0362082
0.0124013
0.0015553
0.000563815
0.0321951
0.00870658
1.37206e-16
3.62961e-15
2.33129e-07
0.0226971
0.0245855
0.0117768
4.83804e-15
0.00700974
0.00202199
0.00303805
2.00866e-06
3.54553e-06
0.0138686
0.00218518
0.00198209
3.01889e-15
0.000642485
2.36978e-16
2.20994e-07
5.1676e-13
0.233916
0.0678171
0.0117721
5.4128e-15
2.71776e-15
0.00897821
0.00171969
3.03395e-15
8.44254e-16
3.44824e-14
0.000295805
0.0569039
0.00402451
0.0132499
0.0192194
7.25727e-15
2.12476e-15
5.50026e-15
0.00377549
2.08511e-12
0.00086124
0.184058
2.84971e-07
7.17098e-16
6.01343e-15
5.91309e-16
4.02639e-15
0.0601602
0.011806
1.05912e-15
0.00529518
3.93055e-15
8.74567e-15
0.0671139
0.00599237
0.0114467
0.00933529
1.23177e-14
5.89972e-15
8.66336e-16
0.00951402
0.0187441
0.0048869
8.05458e-16
3.10984e-10
0.000154517
0.00230995
0.00805595
3.24311e-05
0.0284656
1.53795e-15
0.0375102
0.00358155
0.0077181
0.0257891
0.0131418
3.76511e-15
7.72856e-15
1.18631e-15
2.8099e-15
0.0310981
0.00980021
0.0325849
0.0673293
7.20802e-16
0.0182717
6.38364e-16
4.19012e-15
0.0167374
3.20852e-15
0.0815528
1.67857e-14
2.48094e-16
0.0228131
3.46901e-18
0.0135042
0.000283987
3.50422e-16
0.000971544
0.0166529
1.6118e-15
0.0089451
0.00898555
0.00819161
0.000705981
0.00266184
0.00546239
5.48901e-15
1.93352e-14
0.00201248
1.99845e-15
0.0063237
0.118046
1.64363e-16
7.19408e-16
0.0276955
0.000109242
0.00829542
0.0204411
4.11777e-15
0.0478438
0.0188922
2.63178e-17
0.000845321
0.00235569
5.09017e-15
1.11312e-14
0.0109238
0.00518067
3.86599e-15
1.14242e-15
4.0432e-08
7.1019e-15
0.0125133
6.44749e-15
5.47377e-17
0.016709
1.5495e-06
0.012288
0.0299422
1.16871e-16
5.06316e-15
0.00154021
2.99626e-15
0.00016525
0.0145979
0.121739
0.829183
1.84931e-15
0.00276418
0.000554906
3.91921e-15
0.0389952
0.030856
1.40973e-14
7.05233e-09
8.61001e-05
2.96166e-15
0.0237034
0.0239501
0.0138678
5.75816e-15
0.000661836
0.0166986
0.0227789
8.25777e-07
6.98453e-15
6.75614e-10
1.34711e-15
1.13419e-05
0.0311921
1.63618e-15
0.00816016
0.000102033
6.32373e-14
5.70958e-15
2.13267e-14
2.37527e-16
0.00372105
0.00957658
0.00628868
0.00203208
0.00256794
5.92901e-15
0.00194371
3.18489e-15
0.0412154
2.15349e-16
4.01753e-16
3.44758e-16
0.0375159
2.64243e-15
4.1119e-15
1.41903e-07
3.6468e-15
7.781e-15
0.00106835
7.75054e-16
1.29577e-14
3.22498e-15
9.4034e-16
4.07667e-15
1.51225e-15
1.33645e-15
0.00679565
1.43791e-15
0.000540424
0.00198301
0.000830281
4.62769e-16
0.000905029
4.82363e-15
9.46919e-16
0.00272992
0.00175358
0.0267227
0.0251328
9.74584e-15
0.00202865
0.082389
0.00852178
0.00100995
0.00319557
7.39919e-15
0.0232248
1.2929e-14
0.00502361
1.27705e-14
0.0763737
8.3698e-15
0.0212014
0.000246494
5.0836e-07
4.52041e-15
0.0020307
6.25971e-16
0.0800477
0.0489298
2.39444e-15
6.01249e-15
1.73156e-15
1.57373e-15
1.37304e-09
0.0546686
2.11702e-15
5.9339e-15
0.0024091
9.16559e-16
0.0340538
9.83634e-16
0.000311211
7.56192e-16
0.000465923
1.18788e-06
0.000980045
0.0127748
1.69717e-15
0.000417862
7.82779e-16
9.11354e-16
0.014714
1.59424e-15
2.84885e-05
8.78527e-16
0.0016471
2.8515e-15
0.064455
9.73253e-16
3.92451e-15
0.0177264
0.00319416
0.00174436
0.0038435
0.00688202
0.0206671
6.49772e-15
0.0254224
0.00593381
5.53512e-16
7.46752e-08
0.041316
0.0154563
7.46289e-16
0.00365395
0.00692234
0.00180602
0.000973218
1.93514e-10
0.0136751
0.00123299
0.000119198
0.0228351
0.0137388
0.000567722
1.49586e-15
3.00928e-09
0.650731
3.22357e-16
0.000343325
1.93665e-16
1.40822e-14
0.00730743
0.00263683
2.35433e-07
1.79408e-05
2.56505e-15
0.0159143
0.0110329
3.39109e-16
2.02001e-10
0.00129404
3.61256e-15
7.83413e-16
2.17478e-16
9.29582e-16
0.0126193
5.89026e-16
6.15617e-15
0.00845305
0.00191055
2.40176e-14
0.010539
2.6236e-16
0.00846089
2.89909e-15
2.24507e-15
0.0516778
2.00979e-16
9.38922e-16
3.85043e-15
0.00419511
1.11669e-14
0.0280126
0.00625059
7.17985e-17
0.0904684
0.00232115
0.028722
0.0282387
0.00041688
7.3401e-05
1.61639e-15
0.0538406
0.0467073
6.1147e-15
0.000320536
0.0406065
0.00805604
0.00138226
0.0275782
0.0260884
1.81147e-14
0.0109529
6.79267e-06
2.01522e-15
0.0348625
0.000249417
4.93355e-14
0.0108531
0.0407157
0.00130881
0.0215455
0.0196687
0.00720372
1.5448e-15
0.0104434
0.000299887
4.2319e-12
0.01716
0.017986
0.0357417
6.45836e-17
0.00184187
1.47193e-14
2.93302e-15
1.14993e-15
7.85621e-16
1.31158e-05
2.33496e-15
3.37883e-10
5.20451e-15
4.21534e-16
8.17277e-05
0.0427411
5.97411e-16
0.0303857
1.89333e-14
4.95682e-15
2.2274e-15
0.0385209
0.000392732
8.30991e-15
2.08115e-14
2.42207e-16
4.70762e-16
0.205515
0.069794
1.79969e-15
0.00200804
1.79768e-06
7.65083e-17
0.0373913
0.00858351
0.0114572
4.48512e-16
2.67285e-15
0.000411785
0.00107268
2.14704e-14
1.57475e-15
1.4365e-15
0.00722298
5.33217e-16
2.01446e-15
1.78879e-15
0.0421358
0.00213837
8.38213e-16
3.84079
0.369412
0.00967888
3.31122e-16
3.08379e-15
0.0550316
0.000430574
3.92911e-15
4.82157e-06
0.108711
0.00237128
0.011202
3.98472e-16
0.052008
0.00191716
2.61295e-16
4.47566e-15
1.112e-16
2.03053e-15
1.35815e-15
1.20326e-15
0.0224165
4.30658e-16
9.83569e-15
8.36446e-16
0.0112992
0.0235484
2.59784e-15
2.75956e-15
0.105566
0.0143355
0.00987978
1.89038e-15
1.21162e-15
0.0372048
4.65374e-16
0.00168446
0.00263235
0.00396841
2.97039e-15
9.29438e-16
1.35362e-16
6.28199e-16
0.0145761
5.90151e-16
7.56769e-16
0.00106457
1.26725e-15
0.0232819
0.00192521
4.66577e-16
0.0368587
0.33842
0.00253528
0.0289528
0.000140616
0.0434443
7.85183e-11
1.10833e-14
0.0236865
0.0675942
0.00598945
4.60397e-16
4.62974e-10
0.786771
0.0100359
1.79432e-15
0.00240717
0.00240552
0.00112468
1.95549e-14
2.88923e-15
1.27803e-14
0.0134716
6.61508e-15
0.00273319
2.85088e-16
0.00118768
0.00142919
0.0367584
0.000566517
1.87426e-15
6.67379e-16
1.52944e-15
0.0204919
2.9994e-16
6.48357e-15
7.51913e-05
1.2529e-15
1.49474e-15
1.45939e-15
2.29708e-15
0.0101452
1.11636e-15
3.14395e-15
4.20933e-10
3.84993e-15
2.63366e-15
3.69722e-14
9.25467e-16
2.90895e-06
0.00161962
2.03516e-16
0.00406284
6.20942e-06
2.87817e-07
5.75275e-05
0.00394703
5.2129e-15
9.37236e-06
0.0101418
0.000397378
1.45342e-15
5.77992e-09
0.00085621
3.17659e-14
0.00995894
0.000187008
1.59373e-06
0.0229134
0.00946456
0.00224228
0.00483796
0.00197798
1.03272e-15
5.48947e-16
0.0329959
0.0265245
1.04738e-15
0.00841258
0.0539887
0.0284318
7.2211e-16
0.00124467
1.81689e-16
0.0101867
0.0139704
3.47564e-15
0.00158489
0.000446748
1.17743e-06
0.00495709
9.74766e-16
0.0486706
1.46903e-05
0.0014025
2.91879e-05
1.19937e-05
2.68518e-16
6.68008e-15
0.00682338
1.90118e-15
0.000124501
0.000241391
0.000301799
5.9772e-08
6.97603e-08
1.79499e-07
1.07256e-15
1.24151e-14
0.0226554
1.73631e-14
0.000193409
0.00195986
2.55149e-15
7.12526e-16
6.64243e-07
9.09445e-10
8.34179e-16
5.21185e-06
1.48766e-15
2.3417e-15
5.46634e-15
9.83715e-15
1.13394e-14
2.0718e-14
0.000269142
1.51062e-15
1.90618e-15
1.94781e-15
6.52236e-06
4.81152e-05
0.00168299
0.00920056
1.07517e-16
1.55713e-16
0.000155318
1.79069e-15
8.69559e-16
8.54547e-15
0.0184007
0.0420714
2.44364e-16
2.15649e-15
9.23649e-16
2.53959e-15
1.15074e-16
1.68004e-15
0.00662895
2.05103e-16
5.44163e-08
0.026313
4.83659e-15
1.81645e-14
3.98268e-15
2.93288e-05
8.24254e-15
2.70183e-15
4.11578e-15
9.78379e-06
4.46586e-15
0.004135
8.83852e-07
6.33272e-09
8.50248e-17
7.70037e-05
0.00186614
0.043963
1.62258e-14
8.51149e-06
0.00536815
1.35639e-15
1.5536e-16
1.44314e-13
3.47225e-15
0.00820318
0.00163279
0.00314833
1.82113e-07
5.096e-17
0.0229095
1.18884e-15
1.77582e-15
5.14097e-14
9.68537e-16
0.0264722
7.39175e-15
5.68525e-15
1.53927e-06
0.0521351
2.87014e-15
0.00229722
9.75742e-16
0.000764733
1.38879e-14
1.34921e-15
2.74847e-15
1.10645e-15
0.00246604
0.000579179
0.301729
7.61699e-16
1.3337e-15
0.00207002
7.65725e-16
1.60543e-14
1.05547e-14
0.0358683
9.97782e-06
0.0319165
3.62692e-16
1.12929e-05
5.17191e-05
6.53675e-15
0.000134265
1.88044e-15
0.00117913
0.0244881
0.0202825
0.00112696
0.000220441
2.4418e-15
5.60218e-17
6.48688e-15
2.29577e-05
2.36253e-16
0.00764517
3.19074e-14
0.173892
7.953e-16
0.040953
0.0029307
1.93228e-14
2.86284e-15
6.42951e-14
4.09499e-15
0.0419781
9.04648e-15
6.36533e-14
0.0116606
0.00687623
6.03217e-15
1.41824e-14
1.30129e-14
1.49934e-14
1.98548e-15
4.41881e-17
0.0260209
0.000391419
3.34365e-16
4.25756e-16
5.61737e-07
5.51841e-15
0.00154667
0.000101958
1.6201e-15
0.00355466
6.2362e-16
0.00038824
1.35095e-15
0.00111207
1.53299e-15
6.58207e-08
2.17238e-06
0.000604778
0.0184611
0.0346089
1.14872e-06
4.48854e-16
0.000574425
1.71916e-14
0.00466351
2.40573e-15
8.01657e-16
2.66508e-14
6.48237e-15
3.36324e-15
2.13605e-15
0.00732129
0.00826667
2.172e-15
4.94323e-14
1.30762e-14
0.000807312
1.22299e-05
6.30969e-16
0.0179968
0.000167299
7.19257e-15
0.0235143
0.00812223
0.00373298
0.0109586
2.02085e-15
2.80118e-14
3.25713e-16
2.80636e-15
0.0369866
1.1559e-15
0.114885
4.65978e-16
0.000326427
0.000727397
2.93882e-15
0.000993608
4.88311e-16
2.9271e-15
0.00311726
2.2018e-08
0.00974226
2.84222e-16
5.64818e-15
4.1319e-16
0.000846521
1.2769e-14
2.90197e-15
1.38809e-15
2.69208e-07
1.25374e-15
6.22285e-06
3.15231e-16
4.36334e-16
5.53663e-16
0.0183436
0.00981708
0.0182744
0.0359145
8.17119e-15
1.64858e-05
1.96262e-15
5.94795e-16
0.00954776
2.8372e-16
2.08288e-06
0.000364222
0.00674598
0.000381532
1.08462e-09
0.00184997
8.27963e-16
1.39701e-09
3.1033e-10
0.000130332
0.000754921
0.0153056
6.69982e-08
1.92739e-14
0.029964
1.71908e-15
5.55441e-16
1.18862e-05
0.0749615
5.12985e-08
4.01321e-16
3.68589e-15
2.99922e-07
1.21461e-15
3.32504e-16
1.88148e-05
1.14112e-14
5.56713e-16
0.0399444
0.000240355
0.000189486
0.0224161
0.00722081
4.01928e-16
6.33405e-15
2.62335e-05
0.00403901
2.04499e-16
1.53007e-14
0.00956019
3.63121e-16
5.10129e-15
1.72333e-15
5.46391e-15
1.4946e-13
2.56561
1.4075e-15
0.000219942
1.10099e-15
0.021807
1.15298e-16
8.67896e-13
1.3112e-15
6.23196e-16
6.01668e-15
2.52627e-15
0.00278743
2.23615e-15
3.89199e-15
4.33333e-15
2.35453e-15
3.37912e-16
8.96638e-16
0.00971939
8.49207e-15
0.0109299
0.00317243
8.79653e-16
0.00152062
1.61949e-15
0.000516257
2.09842e-06
0.003822
0.0128675
5.24273e-15
9.29112e-05
0.00752389
1.05487e-05
1.82954e-15
3.24096e-06
0.0192432
0.00464349
1.13239e-15
0.025684
5.12703e-16
1.48528e-15
2.18994e-15
9.37313e-16
0.00804952
4.60397e-15
8.9985e-16
0.00829264
4.15212e-07
0.00262454
4.04779e-16
1.22184e-13
0.000649309
1.14563e-15
5.94259e-05
5.90157e-15
0.0235123
3.42341e-16
5.48583e-17
5.32618e-05
7.73904e-17
0.000140292
1.73684e-14
4.41265e-16
0.00466174
0.000448314
0.00467822
0.0150941
0.217886
0.0202886
4.168e-16
4.30875e-15
0.0030384
0.00670762
0.0369086
0.0102321
3.35796e-16
0.012528
4.36031e-16
4.22489e-16
0.00928978
0.011189
2.07576e-15
0.0133276
2.57979e-15
0.00272609
0.00898029
5.36598e-15
2.41231e-15
6.96979e-16
0.002875
5.61309e-15
5.17735e-15
0.00424441
0.0216253
3.58167e-06
0.00733357
1.00836e-15
1.93829e-15
8.97421e-05
0.000793202
2.80558e-16
0.0102546
1.00092e-14
0.00255313
4.47452e-16
3.96969e-16
0.0122904
5.37361e-15
3.56069e-05
0.00368748
7.20371e-15
3.61447e-15
0.004466
5.57695e-11
0.0517704
5.45414e-15
0.2486
1.75742e-15
3.2447e-14
8.2709e-15
0.00755744
6.93402e-15
4.36991e-16
0.00559948
4.50832e-15
0.000256802
1.04987e-14
1.2619e-15
4.20106e-16
9.68436e-08
0.000785348
1.76248e-15
1.91538e-15
0.0346296
0.000945919
4.83121e-16
0.000403275
3.90688e-15
2.66396e-15
1.7494e-06
0.00286262
0.00131237
4.31379e-15
2.02413e-16
5.91795e-15
4.32622e-16
5.08933e-15
9.2098e-16
2.84133e-15
6.19322e-16
1.87834e-16
2.94045e-15
3.05225e-16
1.8139e-16
1.9645e-15
2.96258e-16
2.45866e-16
1.7586e-15
3.41419e-17
6.55273e-15
5.29729e-16
6.64254e-16
4.80459e-15
0.0169186
8.82567e-15
6.46618e-16
7.47824e-16
0.00664438
3.51654e-15
1.37538e-15
0.299479
3.10586e-16
8.92174e-17
0.0228801
5.98939e-12
1.38167e-15
0.00808904
0.024436
5.25077e-16
0.00293928
0.00435312
1.42029e-15
0.0135161
0.0391682
0.0177627
0.00337832
0.0106249
7.68712e-15
6.78861e-16
0.0030089
0.0104743
0.00322708
1.57622e-15
0.00680904
0.0017968
0.0214539
0.0099385
0.000697829
0.0156076
0.0010101
0.0103137
8.66474e-16
0.0240156
0.00842074
0.00162171
0.00143675
9.68872e-16
2.6989e-16
1.46482e-15
2.64333e-16
9.14894e-16
0.0091057
0.013476
1.78238e-15
3.17544e-16
1.61287e-14
1.44255e-15
5.53797e-16
1.49975e-15
2.46769e-16
4.50148e-15
0.00467774
0.000211833
0.021681
7.30975e-05
2.18748e-16
8.21383e-15
0.0298012
7.67367e-06
1.07107e-15
2.07316e-16
0.00711375
1.34521e-14
1.63815e-15
2.29868e-06
0.00770831
0.0135039
0.0333894
0.0344673
6.94863e-16
0.0138833
0.00034625
1.67603e-14
7.96478e-16
0.0118982
1.46575e-15
8.92771e-16
0.0153558
1.04374
0.000172973
1.36447e-15
1.54407e-15
0.0169138
0.0195891
0.01786
0.00557237
0.00446198
4.1653e-15
1.07275e-06
2.67879e-09
3.13429e-14
6.38476e-15
0.0168243
1.93425e-16
0.00197646
0.02461
0.0174902
0.010991
3.29705e-16
0.00594266
2.37544e-15
1.1525e-15
1.09651e-15
1.26996e-15
0.00244567
0.885625
6.44277e-16
8.26189e-16
4.21221e-06
0.0229129
0.00122379
0.00681757
0.032171
0.00467018
0.0203765
3.27195e-15
6.79178e-15
3.61724e-15
0.028912
0.00552762
3.04231e-08
4.43599e-16
2.37007e-15
9.84372e-14
0.0217932
0.00261729
1.27742e-16
0.00481424
0.0575565
0.00622994
0.00610216
6.73352e-16
4.24919e-14
0.00675825
0.0222543
1.21906e-15
0.000349405
0.0147471
0.000967083
0.00902542
0.00462246
0.00774811
5.37736e-14
0.00318779
0.0205673
0.0350506
4.18627e-10
0.0220203
3.47009e-13
0.015927
0.000149496
3.48666e-15
0.00246648
0.00743222
0.000408024
0.011318
4.3485e-07
0.000122147
1.36277e-05
0.0420166
0.00360931
6.13444e-15
0.0369982
0.00126344
1.33655e-15
3.97457e-16
4.26254e-08
1.45222e-05
0.00104206
1.05715
0.034551
0.0121164
1.8627e-07
0.0445068
3.23212e-15
3.07615e-14
0.00378402
2.41064e-14
0.00196613
0.00375886
0.00214321
0.00450147
1.14489e-15
0.000185509
0.104191
1.60376e-15
0.0132739
0.00737671
1.84384e-15
0.00386984
0.000128461
1.07904e-16
6.80426e-09
8.17486e-05
4.12008e-16
8.9307e-16
1.79852e-15
0.00413518
0.00482171
0.013573
1.19785e-14
0.00457445
0.0317735
1.52628e-15
0.00777106
0.0120033
0.0229334
0.00147159
6.08428e-16
0.000503272
0.00885477
0.0100673
0.00878561
0.0354018
0.157043
0.00314673
4.10485e-15
7.31397e-06
0.0475311
1.66127e-15
0.000405236
3.35664e-18
2.7171e-15
1.67782e-15
8.05942e-16
1.51106e-15
0.00313462
5.79309e-16
0.00689771
0.00108431
2.23931e-15
0.0036068
6.6758e-15
0.0132751
7.2108e-16
2.66278e-05
9.64229e-16
0.0207117
0.000154452
2.45105e-06
0.0040899
0.0271097
0.0157898
0.00375073
0.0260789
6.32499e-12
0.02227
0.0519461
0.00943012
3.27165e-15
0.00101656
0.000231737
0.0054188
0.00967637
0.000584453
1.40918e-15
3.84332e-15
3.61002e-16
0.00333989
8.97348e-15
0.000352596
0.000202786
0.00170594
0.000247088
5.89231e-16
1.07227e-14
3.65031e-15
0.00837432
0.0203151
0.00112414
9.21662e-06
0.00176505
0.00662217
0.00174375
0.000783336
0.0062252
0.00597495
0.00259176
8.75091e-16
2.07736e-16
7.99862e-15
0.0122016
0.0103064
1.38246e-15
1.30993e-15
1.09049e-13
0.00814661
0.0173115
1.20154e-15
0.00214723
3.38287e-15
5.84092e-07
0.00437932
0.0860322
9.66014e-16
5.24168e-17
0.00344174
1.36324e-15
5.56401e-05
0.0114272
1.90605e-16
0.0103358
0.0310366
0.0182377
6.91936e-16
0.00148026
3.79963e-15
8.91673e-05
0.04611
8.8271e-16
1.08683e-14
0.0100995
3.22614e-13
1.34643e-14
4.15575e-05
0.000901751
2.60894e-16
7.93435e-16
8.5734e-14
7.2242e-05
0.00120103
0.00296886
0.024484
0.00812256
7.36779e-15
6.90084e-07
0.000689304
1.56673e-15
5.14344e-16
1.54325e-15
1.95107e-15
1.32522e-15
4.06754e-15
7.72096e-15
7.8474e-16
3.76363e-15
6.53398e-16
2.45737e-09
2.57848e-14
0.000309705
2.88956e-14
0.00025114
6.3562e-14
0.000101166
3.98163e-14
2.27705e-15
0.0272191
0.00848734
5.20013e-15
0.0813802
9.83231e-09
6.39826e-10
1.33219e-15
0.00114952
1.4877e-11
0.00262576
6.08883e-06
0.000786978
6.67089e-15
1.5455e-15
0.00115798
2.01849e-08
2.09006e-15
8.16275e-15
0.0365517
1.63823e-15
0.0350211
2.47714e-15
3.50446e-15
1.70125e-06
0.0264008
0.00732516
2.75476e-15
0.000301376
1.488e-15
0.00347814
1.85739e-05
0.00164148
4.79787e-06
1.42768e-15
0.01918
0.00115545
0.00496164
2.36912e-15
7.62444e-16
7.11982e-16
0.0198328
0.00357086
0.0498435
7.78409e-16
4.66505e-07
7.39581e-16
7.1355e-16
1.21965e-14
7.91125e-17
0.00319676
0.00211816
0.00290617
0.298515
3.03855e-14
0.0251112
0.0338664
0.0158784
0.00165674
2.90724e-15
0.00485276
0.00441391
0.00566923
2.7175e-07
0.00944879
7.78541e-16
0.00139373
0.00123445
0.0307711
1.04719e-06
0.0033043
1.15464e-15
0.017438
9.0003e-17
1.65031e-15
0.00156564
3.57808e-16
0.00560242
2.62487e-16
5.5207e-15
2.2931e-14
2.54822e-15
1.70435e-14
0.000795892
8.65995e-15
0.000499131
1.78691e-15
1.19214e-15
0.016452
0.00498722
0.00752567
0.00683736
5.12307e-15
0.54902
5.54512e-16
0.0641656
6.56903e-15
0.0162847
0.0229564
0.00224989
0.0526272
3.38143e-14
1.44833e-14
2.63342e-15
0.00203031
1.83842e-15
5.46453e-16
0.0165615
1.44659e-15
2.59589e-15
0.0052132
4.5196e-15
0.0115768
6.20114e-08
2.38771e-15
2.96182e-15
7.54892e-15
0.00143318
0.00637099
3.04043e-15
0.0216939
0.000338171
4.33466e-15
0.0949837
7.11557e-15
0.014536
0.0169381
0.00355887
2.67615e-15
0.0169538
0.00963263
0.000861743
0.00515507
0.0116937
1.41176e-15
2.47582e-15
1.76083e-06
1.01059e-15
4.08127e-16
3.29125e-15
0.018506
0.0462694
0.00430431
0.00209119
1.39633e-15
0.0475387
0.0432651
0.00397553
0.00215927
0.00887389
0.0196653
0.00262914
9.19282e-16
1.2105e-15
6.89494e-16
0.00690735
1.57736e-15
0.0233803
8.46931e-15
0.000732485
5.66987e-07
0.00247391
0.0207739
3.09021e-15
1.15481e-15
0.00244811
0.000368855
9.83313e-15
3.52091e-15
1.5496e-14
3.72089e-05
0.000293761
0.000144617
0.000804792
0.00970109
0.0816416
1.47488e-15
2.81025e-14
1.06343e-14
0.00359427
0.0164477
0.0189365
0.0331128
0.00163018
0.00292977
4.64922e-15
3.92753e-15
1.17541e-13
1.41012e-15
0.00874305
0.0211594
1.15955e-15
4.13736e-15
2.6865e-15
1.01453e-14
2.04348e-14
1.43927e-14
0.0132868
1.87888e-15
0.000888128
0.406784
4.77561e-16
1.27402e-05
0.0217065
0.000725811
7.26696e-15
6.54809e-15
0.00491526
5.81354e-16
0.0139368
9.07278e-07
0.0234349
5.87072e-14
2.3131e-12
3.93814e-16
1.68517e-17
9.0092e-16
1.7417e-14
0.186972
3.80774e-15
0.00587145
0.00120137
1.42901e-14
1.24359e-15
0.00198295
8.32351e-16
5.49907e-16
0.0106293
0.000142102
1.71469e-15
7.5379e-16
9.41293e-15
0.0162511
1.18311e-15
3.22782e-15
0.000454068
0.00261731
0.00309478
1.08751e-16
1.93951e-16
3.65578e-16
0.00375506
0.00184819
0.0125656
0.00363656
1.02644e-15
0.000753003
0.0110693
0.00624081
3.33005e-16
9.37967e-15
7.20238e-16
4.21647e-15
1.05364e-15
0.0296786
0.00487142
0.00577193
2.62818e-15
9.14024e-16
3.90772e-16
7.9693e-17
2.15189e-15
1.02854e-06
0.000214449
0.00208541
1.44711e-15
2.38629e-16
3.50815e-14
1.98177e-09
0.0339242
0.112085
8.17412e-16
9.54582e-10
2.8356e-11
3.12709e-15
1.91504e-15
0.00367246
0.00615184
7.33739e-17
3.84555e-15
0.00278302
4.59436e-15
0.000670962
0.000993045
2.00354
9.88808e-16
2.83626e-16
0.0113761
0.000531315
2.48344e-15
0.635908
0.000582521
0.00597035
3.75026e-17
4.18791e-15
3.21221e-14
4.30423e-15
0.00820025
8.72839e-05
1.23687e-15
0.0245079
0.018469
0.825666
3.79472e-15
1.01625e-15
3.6161e-15
7.75579e-16
0.00655249
8.03211e-08
7.01426e-15
1.37365e-14
0.0179537
0.000786172
0.00457228
4.10972e-15
1.51434e-16
0.0276943
2.28412e-14
1.87719e-15
5.14037e-16
9.35493e-16
0.0203565
1.15549e-15
3.77387e-15
5.5697e-16
0.0246479
0.0114596
5.59414e-17
9.4406e-16
3.74209e-15
0.014683
1.94094e-07
6.89011e-15
4.60531e-15
3.75525e-15
7.44449e-15
0.00232011
0.0108817
2.49084e-15
0.00190562
0.00107778
0.00476367
1.40857e-13
2.17611e-14
7.74891e-15
8.84351e-15
9.50025e-17
0.0182126
1.31083e-14
0.0137007
1.01363e-15
0.00151859
8.28429e-14
0.00239849
2.81717e-15
5.31812e-17
0.00985056
0.15301
7.22532e-15
0.0035602
1.89523e-15
0.000378882
2.12826e-15
2.79676e-15
2.78945e-15
5.45057e-08
4.2354e-15
0.000288348
2.33771e-16
0.0337551
2.99098e-15
3.04255e-15
2.3213e-15
2.93255e-15
7.39628e-06
0.000131762
1.93687e-15
0.00556219
8.66807e-16
0.00267298
0.0173259
0.0012772
2.18753e-16
4.7718e-06
0.00044497
2.19367e-06
0.00404675
2.95354e-07
0.00166695
3.02442e-16
1.04684e-16
4.11464e-07
0.00553152
0.000240362
7.1266e-15
2.31664e-15
5.19379e-15
0.56361
6.46364e-15
2.18345e-16
2.33127e-15
2.04931e-18
3.94682e-14
3.134e-05
0.000181542
0.00097871
6.66276e-05
1.2038e-12
0.00141616
9.48781e-16
0.00519202
7.64936e-15
5.85924e-15
1.40585e-15
1.76866e-14
1.37331e-05
6.4743e-15
4.43249e-16
1.24821e-15
0.0136446
2.43143e-14
1.06985e-15
0.0100231
4.31431e-15
0.0761734
0.121792
0.547219
8.81733e-15
0.193366
1.07656
1.04831
0.606667
1.21664e-15
1.46146e-17
0.00455647
0.00426748
4.18309e-16
0.0102269
1.49239e-15
0.0299905
3.14053e-15
3.5474e-16
0.000701203
7.41774e-17
5.1973e-16
1.03552e-05
3.89013e-05
1.38442e-14
2.60069e-16
2.85186e-06
1.22737e-14
1.9259e-15
1.74329e-05
0.00780532
0.00147335
2.13981e-14
0.00755491
8.20391e-15
0.00326909
4.18478e-07
0.00704516
6.5854e-15
1.5869e-08
0.00546234
3.92612e-16
1.61523e-09
2.61828e-15
0.0297902
1.67326e-15
0.00880674
4.48102e-15
2.4601e-07
2.18538e-15
3.71751e-15
3.15133e-15
8.39593e-10
5.0106e-10
6.53823e-15
0.0111078
0.00869761
9.42927e-15
2.3794e-14
0.0301284
0.015833
0.172259
1.87418e-14
6.70783e-05
0.0231696
0.0425151
5.65198e-08
4.21541e-15
0.0529498
2.13359e-15
0.211768
1.57704e-15
4.28536e-08
3.76611e-08
6.80812e-15
5.6572e-05
1.05548e-15
0.0193019
2.21358e-15
8.04552e-16
1.66012e-15
9.59809e-15
1.75848e-15
4.20318e-15
0.000255035
0.00185966
0.124618
9.7545e-15
4.81541e-15
0.0379884
3.321e-15
9.43309e-17
7.79116e-15
9.23318e-14
1.17925e-14
0.00549643
1.0236e-15
4.9317e-15
1.05445e-17
0.00304514
4.19089e-15
1.59087e-15
1.66636e-15
0.00305978
4.07249e-15
0.00564505
0.217917
0.00510959
0.00525726
0.0246211
8.1967e-16
3.20761e-15
2.79984e-15
0.00297174
0.00159503
2.43558e-16
5.68502e-15
0.000567641
1.34736e-15
2.72799e-15
0.309798
2.45752e-15
0.019837
3.75096e-15
0.00217025
0.00292885
9.67628e-15
6.66637e-16
8.20855e-16
1.89133e-15
1.94987e-15
0.0163786
8.60186e-15
0.00434508
7.82121e-16
2.77515e-16
0.00641537
2.41973e-15
0.0115244
2.9932e-15
1.65423e-15
0.00213906
6.5939e-05
0.129331
1.84752e-15
3.44567e-16
1.77285e-15
0.00313338
0.163989
5.80579e-16
1.1604e-15
9.68124e-15
0.00137386
4.62982e-15
0.0176875
0.028468
2.57572e-15
7.68282e-16
0.00666192
7.91026e-16
1.61744e-14
6.79539e-16
2.88992e-14
3.07126e-15
0.0630765
4.43055e-14
2.59593e-15
1.7079e-15
3.16088e-14
1.79675e-15
3.0463e-15
2.94076e-15
1.96991e-15
1.21158e-15
0.00690826
1.01109e-15
0.00796378
3.42341e-14
1.68963e-16
0.53089
0.00253851
2.30368e-15
2.47988e-15
4.78486e-17
0.0022382
3.28578e-15
2.39488e-15
3.65362e-15
1.0852e-15
0.00684307
7.85027e-16
0.00431826
4.55032e-15
0.00869162
3.61865e-15
0.051755
1.31148e-14
1.50407e-15
0.0199326
5.5793e-15
6.80296e-16
0.024305
0.000244019
3.98619e-15
1.89108e-16
0.0324737
0.00904127
0.00598014
0.000773001
0.00167378
0.0159013
0.000949608
0.00427446
1.32298e-14
0.0266205
4.67716e-15
7.59056e-15
7.00125e-16
8.06001e-15
1.89891e-14
0.00963136
3.02306e-14
7.33766e-16
6.03068e-15
4.44412e-06
7.44773e-06
5.58534e-14
0.00209919
7.80034e-15
0.00396479
3.32234e-15
1.22122e-06
0.00295265
2.82451e-13
0.0415407
4.24127e-15
1.30836e-14
2.73743e-15
0.0027342
0.00113152
5.88462e-15
6.83939e-16
0.00228374
3.12907e-15
0.60885
6.51742e-16
0.0937237
3.39062e-15
2.62695e-16
3.92886e-15
7.58072e-16
0.009182
2.06293e-16
3.35089e-05
3.55742e-16
0.00890342
5.44008e-15
6.40795e-16
4.71662e-12
3.35649e-14
3.79721e-17
1.3627e-15
2.17797e-15
1.57627e-15
0.00380304
0.169629
6.78666e-14
3.4353e-15
0.00032316
2.84104e-15
5.9883e-16
1.02525e-06
0.0156357
0.00013609
3.70142e-15
0.000622114
0.00296663
0.00491904
0.00754591
1.2791e-15
2.26394e-14
1.24547e-14
3.42969e-15
1.1876e-16
4.41522e-16
5.56642e-16
6.84649e-15
8.58626e-16
1.59917e-15
2.14762e-15
3.41689e-16
0.0685604
2.13098e-15
1.15701e-16
3.74234e-10
2.39103e-16
1.36676e-15
1.00847
1.11406e-15
1.59761e-16
0.00189017
2.43617e-09
6.92833e-16
1.68838e-14
1.52034e-16
0.0209585
4.87498e-16
3.784e-15
4.96078e-08
1.20352e-15
2.5009e-15
8.24548e-16
9.44291e-15
0.109779
1.66316e-15
0.000147487
1.95953e-15
3.76431e-15
2.90894e-16
4.37656e-17
1.5155e-16
1.52561e-08
2.91058e-08
0.000101282
1.90978e-15
1.91215e-16
2.06536e-14
8.44025e-08
1.25786e-15
2.78166e-07
8.37374e-09
1.08197e-14
4.90782e-15
6.73314e-15
4.3935e-09
7.9919e-16
3.38798e-15
2.2043e-09
2.5406e-14
0.028829
1.82167e-15
0.00673031
8.15006e-15
2.1628e-06
2.7304e-15
0.00129794
2.23944e-15
0.0037327
0.0243464
2.69366e-15
0.00232992
1.36284e-05
3.77851e-15
0.0102127
9.44616e-16
8.66783e-16
5.01659e-15
2.39037e-15
1.48245e-15
6.85657e-16
1.39337e-15
1.70828e-15
0.268372
6.40913e-15
9.49728e-16
1.72116e-15
1.04991e-15
2.10693e-15
0.0299623
0.765837
3.03023e-06
9.73675e-06
1.88708e-15
0.00198907
0.00139004
2.23208e-15
9.3808e-16
1.6238e-15
1.11123e-15
5.44473e-15
3.08962e-14
2.07676e-14
6.04896e-15
0.000364994
5.7354e-16
4.06901e-15
0.000236635
3.73023e-06
5.85002e-15
0.0241698
5.06605e-15
1.61027e-15
1.57534e-14
0.161845
6.38961e-14
5.28015e-16
0.0250686
2.78192e-15
1.63875e-15
5.41512e-16
2.2618e-14
0.0532362
1.90545e-15
4.46132e-16
2.81576e-16
1.06843e-15
0.00562278
0.225166
0.0276697
0.0416447
0.00372079
0.00025127
1.86346e-15
1.22172e-15
0.138654
0.00122462
1.09094e-15
9.04434e-08
2.98301e-15
6.86498e-11
1.58976e-16
0.205419
8.71376e-15
2.14843e-15
0.000227523
2.332e-10
6.60883e-16
0.00953315
3.20881e-15
1.14663e-15
0.197881
0.0297683
3.13986e-15
1.49772e-15
1.46297e-15
3.7564e-16
1.03708e-15
6.16027e-15
2.75848e-15
1.79729e-15
0.00306432
2.98228e-15
1.38182e-16
4.10461e-15
1.38844e-05
6.38555e-16
3.19983e-14
6.16297e-16
2.06601e-16
8.5017e-16
8.04838e-15
0.00335346
9.24144e-16
5.37353e-16
0.00499662
9.01082e-16
0.000358237
0.00446663
1.22946e-15
0.00342031
3.93227e-15
1.90959e-15
1.5208e-15
1.67815e-14
4.22397e-15
3.40006e-14
5.55666e-14
3.56552e-16
0.00234849
8.15706e-15
1.26331e-14
9.76917e-15
1.60639e-15
2.24385e-15
4.24761e-15
0.0355644
3.96146e-15
2.34486e-16
0.337773
4.19929e-16
1.55608e-15
9.11459e-16
0.0012563
1.52748e-16
6.01186e-06
3.60189e-15
4.87708e-05
0.00793193
8.66098e-16
2.65279e-15
0.0403491
5.33155e-14
1.01935e-15
0.000127584
7.19571e-07
0.00984159
2.30487e-06
9.09728e-07
1.38502e-07
2.13805e-15
9.56314e-17
0.00102105
0.000119389
0.0157457
0.0120919
2.85014e-05
4.26464e-16
0.00548875
0.00520614
0.0185429
4.504e-15
0.0122922
0.0166534
0.00276513
0.00139011
0.00125816
0.00322321
0.0189684
0.0408824
0.00708955
0.0110786
0.00798176
1.15684e-14
0.00291008
0.00363386
0.000856202
0.00256353
0.0141742
0.0137608
0.0193343
2.67632e-14
0.0115059
1.78814e-14
0.00508238
0.00284669
0.000269464
0.00232161
3.05835e-14