/*--------------------------------*- C++ -*----------------------------------*\
  =========                 |
  \\      /  F ield         | OpenFOAM: The Open Source CFD Toolbox
   \\    /   O peration     | Website:  https://openfoam.org
    \\  /    A nd           | Version:  10
     \\/     M anipulation  |
\*---------------------------------------------------------------------------*/
FoamFile
{
    format      ascii;
    class       volScalarField;
    location    "32";
    object      SgRate;
}
// * * * * * * * * * * * * * * * * * * * * * * * * * * * * * * * * * * * * * //

dimensions      [1 -1 -3 -1 0 0 0];

internalField   nonuniform List<scalar> 
59698
(
0.0163547
0.00189753
0.00239393
0.00281303
0.0303759
0.00145199
0.00319733
1.10957e-07
1.97992e-09
3.94156e-09
0.000586479
1.70596e-09
1.58949e-09
0.00237222
0.000353583
4.28451e-07
9.79991e-09
3.80534e-09
1.77004e-09
0.000282773
0.00175345
0.0140016
0.000499084
8.81905e-08
0.0422066
1.1306e-09
9.64131e-10
0.0100253
0.00909889
0.00746905
0.00480262
0.000600655
6.68042e-08
0.0163661
0.00246701
3.88497e-09
0.0192166
0.0205468
1.76807e-08
0.0249644
0.00864128
2.30457e-07
0.00373503
2.542e-08
0.000402108
0.032127
2.39009e-09
5.75637e-08
0.00302651
3.3204e-08
1.61296e-08
2.04761e-09
0.00178322
0.0028394
0.0113445
2.08039e-09
8.75207e-08
0.000213099
1.82397e-08
0.00277236
0.00525744
6.5066e-08
0.121939
1.5129e-09
0.0124783
4.35969e-08
1.75436e-09
3.17781e-09
4.1398e-09
6.771e-09
6.03347e-07
2.88686e-08
0.00036425
0.0411439
0.000411957
0.0392754
2.23016e-08
0.00924897
0.000306578
0.00617793
0.00889503
1.06927e-09
4.05003e-09
8.11717e-09
0.00850268
3.24109e-08
9.26841e-09
2.30494e-07
0.0636791
2.34497e-08
4.50027e-09
0.00161998
0.0148274
6.79604e-09
6.28777e-08
0.0037209
0.00537253
6.04864e-08
0.00026822
8.60003e-10
0.0770607
0.00180254
0.0162861
0.0153473
5.40106e-08
0.000564779
2.31667e-09
2.25923e-09
2.7387e-09
4.40274e-10
3.80989e-08
2.71746e-06
0.0381102
1.56285e-07
1.00952e-07
3.53729e-08
3.59867e-07
0.00366013
3.10033e-07
1.13966e-08
2.31478e-09
3.06691e-07
2.22269e-07
3.47323e-09
1.76883e-09
8.13734e-09
0.0108095
7.20786e-09
1.28748e-08
3.99029e-07
0.0449515
3.9321e-09
1.10415e-09
0.100095
0.00428879
0.00444528
5.07876e-07
2.48207e-10
1.70678e-09
5.32939e-09
2.1325e-08
0.00240475
0.00260851
0.00124749
1.96436e-07
6.40315e-10
5.53687e-07
3.94621e-07
0.00465127
0.0293028
0.000299398
0.00043438
0.00149068
2.63339e-07
9.82477e-09
1.08474e-07
7.21798e-09
0.00168887
0.012455
5.93337e-10
0.000863698
7.91028e-09
0.0163605
0.00163037
0.00337898
0.0345138
1.01433e-09
0.0722912
0.00202781
7.06427e-09
0.0119215
1.48399e-06
0.0107841
0.0146321
0.0791725
0.00126131
4.39927e-09
0.00144608
0.00032602
0.00923221
0.00946118
0.0181632
0.0147899
1.16066e-08
0.0459656
0.000235571
0.0114732
0.00247268
1.1321e-10
4.87187e-06
6.67025e-09
7.15549e-09
0.00266072
0.038646
0.00405419
0.00432318
0.00986945
0.0584138
2.71585e-05
0.00773947
0.0002271
0.00610138
0.021188
2.49907e-09
0.0104301
0.00262101
0.00610995
0.00340608
0.00782668
0.0114363
0.00251036
6.11054e-09
0.00279315
1.5671e-08
0.00408303
0.00348978
9.85267e-09
4.68841e-08
0.0127783
0.00660494
0.0056083
0.00268254
1.75072e-09
0.0661209
0.000812954
0.0263759
0.00734748
0.00277151
0.00687867
0.159265
7.573e-09
0.00471816
0.00290005
0.00326278
9.74065e-09
0.00568159
0.0830368
1.99486e-08
1.82394e-07
0.00053836
0.00270572
0.00147529
0.0135175
0.000664542
0.00469809
2.20136e-07
0.00376396
0.231369
5.6033e-09
5.03389e-09
6.38587e-08
2.14806e-06
1.06945e-06
0.000233555
1.88894e-08
0.00176913
1.14154e-07
3.88051e-06
0.00325247
2.64457e-09
1.4559e-05
1.79285e-09
8.18273e-09
0.00281582
0.00372573
0.0476618
1.16323e-09
1.07177e-07
2.03583e-08
6.41194e-10
3.07479e-09
0.0440334
0.00022377
6.72699e-10
0.0179486
5.22394e-08
0.0015162
4.14233e-08
0.00210115
1.21987e-09
0.000574136
2.07989e-09
1.55077e-09
0.105136
0.0491063
0.0201
5.45087e-09
0.000647627
0.0729345
1.0517e-07
0.0912733
0.00247714
8.97783e-09
1.40203e-09
7.32725e-07
0.00283328
6.76743e-10
1.57999e-07
0.004226
6.60577e-07
0.00175187
2.25316e-09
6.86649e-08
9.11154e-10
1.01003e-09
1.17431e-09
0.0519947
2.27638e-08
5.64326e-09
4.08183e-10
0.00196723
4.45718e-08
3.92607e-09
2.37993e-08
0.00198607
3.00139e-06
0.00040339
8.28372e-09
0.000829308
8.97908e-08
9.72429e-08
0.323805
1.67435e-08
2.94771e-09
0.048284
0.0104021
1.5994e-08
9.49731e-09
5.56206e-06
0.000361922
0.00931373
0.00421378
0.0202678
0.206612
0.00043095
0.000679332
7.83164e-09
4.44641e-09
0.00911038
0.00447733
0.00602314
0.00294074
0.00259015
0.000867228
9.67659e-05
1.28063e-09
0.000607872
0.039399
1.55573e-09
0.00204884
0.0079768
1.4337e-08
0.0401087
7.94617e-10
0.243621
0.0021737
0.0140922
1.46906e-08
3.29279e-08
1.82665e-09
2.21532e-08
1.03612e-08
1.10394e-07
0.00201977
1.25233e-10
1.04128e-07
0.00289834
0.00218227
2.97728e-08
0.00166942
0.00190074
0.000533991
0.00379152
0.00065113
0.00616716
2.97787e-09
3.78192e-08
2.16967e-09
0.00046056
2.49183e-09
0.000347124
4.64075e-08
4.45055e-08
0.00077455
8.26391e-10
1.97374e-05
1.14204e-08
0.000544828
8.28711e-10
3.63482e-08
2.27919e-08
0.000457481
0.00343401
0.0025909
0.00134567
0.00227659
0.0485366
0.00189291
0.00278848
8.3195e-08
0.00284785
0.00272875
0.00266139
5.2185e-09
0.00153834
0.00433017
0.0853931
0.0280086
0.000317109
0.0053913
0.0315414
0.000404302
0.00170744
0.000434529
4.85318e-10
0.0596219
1.99924e-09
0.0103551
0.00241053
0.00183784
0.00303853
0.00226089
0.00255886
0.311444
8.31833e-09
2.30931e-09
7.82225e-09
1.79386e-08
0.00143469
5.53254e-10
0.0002968
0.0021461
0.0162821
0.00198584
0.00212571
1.42616e-08
1.39623e-08
0.213532
3.53499e-09
0.0031766
1.92332e-07
0.00331057
5.02018e-09
4.53403e-08
1.92307e-07
0.00240024
0.0698447
4.50607e-10
2.13845e-09
0.00907457
0.00262977
6.61801e-09
7.4372e-08
0.0330878
6.38851e-07
1.17265e-07
0.108281
1.40137e-09
0.00963035
1.71486e-07
0.0541324
4.49238e-09
0.015789
0.0133293
2.19393e-09
2.11947e-07
3.61516e-07
0.00813164
4.52859e-08
0.00802473
0.00270243
4.42223e-09
2.01775e-10
6.85431e-09
6.39996e-08
2.10524e-06
0.00113192
0.069066
0.00345737
0.00202111
2.44165e-08
2.22477e-07
1.51773e-08
1.94643e-08
0.00545224
4.10979e-08
4.54239e-08
2.00714e-08
0.0658984
0.000663262
0.0231762
0.0657657
0.00112482
4.33125e-08
0.0587054
2.20596e-07
1.5904e-08
0.00245485
0.00949759
0.000365619
9.70313e-10
0.0642083
0.00713466
0.000386126
1.71056e-08
1.11907e-09
8.40047e-08
2.15069e-09
5.12164e-09
0.00316325
0.000167912
0.0747923
0.00731188
5.41922e-08
0.00902433
2.57536e-09
6.88828e-09
9.69773e-09
7.04584e-08
2.48656e-08
0.00547307
0.00371015
4.91893e-09
3.87913e-09
2.18065e-09
0.00124792
0.00953713
2.41514e-09
0.0106626
0.00389978
3.04141e-09
0.0423908
1.82752e-08
5.18169e-09
0.00150513
3.56434e-10
1.35525e-08
0.0018576
2.07022e-09
0.000384877
0.00965969
2.3871e-09
4.51724e-08
0.0679566
0.00817488
0.0135266
0.0100325
0.000173383
0.0116856
7.81921e-06
1.86684e-08
2.29087e-09
3.16522e-08
1.91645e-09
5.39362e-09
1.47223e-08
1.91813e-08
0.00196294
0.00642584
0.000660695
0.000768501
1.74067e-09
1.60079e-08
9.34963e-05
1.51869e-08
1.81195e-09
0.0739095
2.28736e-08
0.00106159
0.000539254
0.000797964
7.76737e-09
2.00351e-07
1.5459e-07
6.97143e-08
5.93052e-08
2.94772e-10
0.00238226
0.00213581
2.3165e-09
0.000732638
4.12015e-08
0.00518262
1.4695e-08
1.07051e-07
0.000313343
1.18973e-09
1.26813e-08
0.0041956
1.46581e-07
1.37632e-07
0.00332325
7.94816e-09
1.61393e-08
8.53558e-10
4.18061e-08
9.26652e-07
0.00432834
0.000349776
7.15793e-09
0.00106065
1.71494e-09
2.66678e-09
0.00349929
1.39347e-08
4.57224e-09
2.33205e-09
0.00108763
0.00396385
1.51744e-08
1.25243e-08
1.58983e-09
1.08514e-08
4.50543e-09
4.26001e-09
5.35997e-09
4.89823e-09
0.224567
1.87902
7.20428e-09
5.04129e-09
8.06021e-09
1.90203e-08
0.000937107
0.0026403
1.1485e-08
0.00713308
1.64924e-09
9.22947e-09
4.46704e-09
0.00291434
0.000211201
1.28451e-09
8.81058e-09
9.00242e-10
2.89322e-08
6.51228e-09
2.88112e-09
0.00156994
0.109459
1.36528e-07
1.66296e-07
0.000607889
1.45413e-09
5.3567e-09
0.00395096
4.25564e-07
0.00218785
3.55588e-08
1.72891e-09
0.000439478
7.43914e-09
0.00828034
4.08929e-09
2.27161e-09
4.38734e-09
9.11986e-10
7.90581e-06
0.0003274
0.00187952
5.10442e-08
1.16316e-07
0.0008979
0.01981
0.090989
0.000358563
2.25999e-08
0.00239448
0.00320837
0.041541
3.85268e-09
7.83661e-07
1.87113e-09
0.00356647
3.19199e-10
2.02048e-08
0.000428465
0.00392561
0.0473015
1.52493e-09
2.03298e-07
6.09727e-07
3.53433e-07
0.000378103
0.00143856
1.25852e-10
6.6957e-09
1.0652e-09
4.73339e-09
0.0114846
0.0043799
0.0395359
1.05497e-08
0.00135459
0.00215303
0.00245376
6.4043e-08
4.29237e-09
0.00065063
1.23655e-09
2.29552e-10
1.00384e-09
0.00336602
1.87244e-08
5.04641e-09
1.48983e-09
0.00640207
6.93301e-08
8.398e-09
2.72526e-09
0.00193321
4.17911e-08
3.62202e-08
0.000362168
9.86923e-09
0.00198277
0.00920151
1.92732e-09
1.37923e-09
0.000646938
0.0617559
0.00323464
3.81388e-09
1.04461e-08
0.0016507
0.0257108
0.00886468
1.37252e-09
0.0553366
2.63234e-08
0.0025544
0.000344566
0.00941478
7.05944e-05
1.48083e-07
0.0112653
0.00445016
0.000532159
0.00307493
0.0596905
4.00499e-09
7.11978e-08
0.245885
0.00232598
0.000567562
1.30048e-07
0.00192153
0.00176957
2.47249e-08
0.0151144
2.27376e-09
0.0600145
0.000950769
0.024761
6.92265e-10
6.08434e-09
0.104992
0.238533
0.000599772
1.13768e-07
0.0498802
0.000383644
0.00224818
0.00520362
0.00196679
0.00834434
0.00411062
8.32696e-09
0.000401561
0.00195106
0.0141901
0.000373922
3.49959e-10
0.00273931
2.47153e-09
0.00435807
1.88174e-07
4.17322e-09
0.0061012
0.00520458
1.23077
3.75207e-09
0.0246502
0.00968847
0.0210781
0.00195871
0.00469351
0.000326092
0.000986718
0.00162663
0.0014523
0.00670458
0.0111233
0.105791
0.00193726
0.00552627
0.000541555
6.86115e-09
0.000383188
1.27369e-08
2.80555e-09
1.67102e-09
0.00324311
3.95303e-07
0.00947449
0.000212222
6.64737e-08
0.00162727
1.7016e-07
0.0068548
3.55696e-09
0.00100439
3.34001e-09
0.00130445
0.000114731
0.0137004
0.000651795
0.00185337
0.0199893
0.210087
3.83965e-09
0.00877467
2.58304e-08
0.000722802
0.000444768
0.000428786
0.00217259
3.56831e-07
0.00748061
0.000561237
0.00628469
0.00235262
6.28625e-10
0.000401153
2.3482e-09
2.82828e-09
3.32965e-05
0.00050364
0.000275761
0.000316849
7.69275e-09
5.09889e-09
1.92334e-09
0.000487225
2.03397e-09
0.00571208
0.00489758
2.58456e-09
0.000499712
0.00406021
1.06778e-09
2.91806e-09
0.015723
0.000469628
2.97296e-09
1.29608e-09
0.0358844
0.00489049
1.18205e-07
3.8604e-09
3.11298e-09
0.010577
2.6382e-07
0.0097972
1.07363e-08
0.000532563
8.57424e-10
0.000128456
2.84024e-10
2.4769e-09
0.00128085
1.49857e-09
0.00893625
8.98255e-08
0.00130819
0.000108824
1.27854e-08
0.00161931
0.000915503
4.19235e-10
0.00179961
5.9709e-09
1.1606e-08
0.000307131
1.24782e-09
0.00212866
1.76587e-08
1.62962e-09
0.00438379
3.05602e-09
5.47421e-09
0.003736
0.0183007
0.000319936
8.40951e-09
0.00298711
1.69167e-07
0.00459783
0.000633463
0.000584028
0.00449685
1.85333e-09
0.000379941
0.00245101
7.07839e-09
8.57512e-09
0.00260838
1.18764e-08
3.12393e-09
0.0652746
0.00041223
0.00149957
0.00271647
1.49186e-07
2.03831e-09
0.00276277
0.00414701
0.0053869
0.0202053
0.00397815
1.60204e-07
0.0406722
0.000130595
2.98549e-08
0.114922
2.8348e-08
0.00435326
0.00463559
0.0324854
0.0583409
7.36947e-09
0.00254362
1.63014e-09
0.0247163
0.000157621
2.91446e-08
0.00139098
3.90241e-10
0.000761135
0.00245995
3.195e-09
0.00194638
0.00677043
0.00284101
0.00328134
4.59057e-06
0.0250341
0.000726653
2.00785e-08
2.4979e-08
0.000825794
2.92542e-08
0.00227483
1.89389e-07
2.05054e-07
3.64448e-08
0.00552363
0.000295106
4.48332e-09
5.32464e-09
0.00540434
1.45274e-09
1.22704e-08
0.00958996
0.00173857
1.2117e-09
2.41025e-09
8.457e-09
0.000125988
3.64426e-08
2.38308e-08
7.52539e-09
0.000429216
0.00234047
0.000466222
6.42537e-08
0.0141498
0.0188121
0.0177945
2.01964e-09
0.00190966
0.00291509
0.00270128
0.00474994
0.00587636
0.000408685
5.99804e-08
0.00254312
2.12779e-07
0.0109733
0.0564187
2.75809e-08
0.000443689
2.18833e-08
0.000538422
0.000104635
2.6683e-08
0.00227844
2.16397e-08
0.00060874
6.87455e-09
1.6555e-08
1.19812e-09
4.23255e-08
0.00158913
0.00377465
0.0473
0.000395621
0.0019577
0.00140255
0.0227708
5.63887e-10
1.16821e-08
2.27847e-09
0.00460298
9.54648e-10
1.34388e-07
0.00468394
5.93618e-09
0.00359799
0.00356543
0.00379021
0.00544604
0.0094707
0.0101022
0.00816423
0.0052785
0.00574829
1.3095e-08
5.36399e-09
0.000475243
0.00593613
0.00467124
2.87134e-07
5.45629e-10
0.00168231
0.00395531
4.39101e-09
6.48612e-08
2.74931e-10
0.0147535
3.72414e-09
0.0406288
0.00318933
0.736373
8.65381e-10
1.56218e-08
0.00217729
0.00317353
1.79101e-07
0.000760531
3.17966e-06
0.00698953
0.00435584
2.28526e-08
0.00682456
0.000542246
1.04826e-09
0.0197631
0.000765798
2.307e-06
2.49007e-08
0.00260084
1.32526e-06
1.40842e-08
3.12176e-09
0.000534594
0.00813746
0.00200841
0.092323
9.38481e-09
0.00181779
0.0823088
2.58222e-10
0.00875348
2.24821e-09
0.0252334
0.00133345
1.63605e-06
8.72902e-10
1.17884e-08
2.2001e-06
1.54741e-08
5.88658e-09
1.30263e-08
1.03668e-06
9.34956e-10
1.32623e-09
0.00176171
0.000125529
0.00972253
2.93672e-08
0.00235514
0.000530327
1.21397e-06
0.036483
0.0545478
0.00299059
0.00209089
0.00427694
0.455247
0.0240435
0.0262849
2.49918e-08
0.000449091
0.102662
7.92414e-08
2.28929e-07
3.74108e-09
0.0166097
5.55422e-09
0.00024934
2.18518e-08
0.00101103
2.99267e-08
0.00464304
0.00900732
0.0010623
0.000621163
5.21075e-09
0.000477736
2.27706e-09
4.87348e-09
0.00364484
2.49995e-10
1.49558e-09
6.95852e-09
0.00165582
1.38227e-08
0.113864
1.19311e-08
0.000798451
2.52975e-09
0.00563622
1.20996e-08
0.00109911
0.00279341
0.000380629
0.0025059
1.58149e-08
8.29814e-09
0.00295162
1.71778e-09
0.0187532
0.0121489
4.93938e-09
0.00152589
0.0836067
0.00298294
0.00390091
3.17579e-08
2.25619e-07
0.00368812
0.0362042
0.00875084
0.000895611
3.77172e-09
0.00192818
0.0033947
0.00265346
0.00163879
0.00577946
7.56035e-09
0.115823
0.0513035
0.000170259
3.67897e-08
5.33544e-08
0.00313462
0.00253893
0.0262275
0.00257858
3.41886e-08
0.00100908
4.56464e-09
2.89608e-09
0.00275598
4.22055e-09
0.0022246
1.90795e-09
1.30852e-08
0.00384993
3.16477e-09
0.0195993
2.75775e-09
0.00043443
0.00226772
0.00411508
0.00204567
0.000968976
0.0119252
0.0005797
0.000345167
2.86616e-08
2.4179e-08
9.27879e-06
2.29276e-09
2.01413e-09
2.37629e-08
1.73444e-08
0.000781456
0.000646988
9.70747e-09
1.22708e-08
7.84947e-09
3.44393e-07
0.00031723
0.00275958
0.000496412
4.36134e-05
0.000238789
7.3361e-09
0.000315413
0.000232162
0.000223582
0.00390727
0.103529
1.91692e-09
0.00477136
0.00171986
0.00413615
4.89642e-09
4.27411e-08
7.11576e-09
0.00846147
0.019576
0.00482721
0.00235644
2.24719e-08
3.08767e-08
0.000377609
0.00476916
0.00954
1.04085e-08
0.00313445
0.00285049
2.11746e-08
0.00349777
0.00263965
0.0145348
0.00190123
0.00387328
9.76713e-05
4.65309e-10
1.39444e-09
5.26428e-05
0.00562172
1.37222e-08
6.33344e-10
2.2313e-08
0.00502416
9.98101e-09
6.64209e-08
1.87762e-08
5.72453e-07
0.00198684
3.13215e-09
1.64073e-08
5.615e-08
0.0020856
0.0284081
0.00209589
0.00122139
3.0903e-09
2.25162e-07
1.52658e-07
0.000983777
0.01457
3.18494e-10
1.21824e-07
0.0012506
1.22679e-07
0.000865682
3.21985e-09
1.53962e-07
6.88434e-09
8.99532e-08
7.8337e-10
0.000584266
5.2041e-08
0.00213556
1.29998e-09
5.7805e-08
2.52256e-05
1.07451e-08
0.00561327
5.12692e-09
6.53041e-10
0.0474036
4.32333e-08
4.82342e-09
0.00028217
6.10872e-08
7.63517e-08
0.000547252
3.10717e-09
0.000563699
3.15496e-08
0.000949808
0.000345039
0.00275562
0.00429566
5.44318e-05
3.23206e-07
0.0631573
0.00246848
2.15042e-07
0.00421955
0.00289258
0.00670482
9.60281e-06
2.16928e-07
0.351927
3.967e-09
2.48552e-08
2.94883e-08
0.0255086
0.00302383
0.000635586
0.000492191
2.7953e-09
0.00321954
0.0360866
0.00482972
0.00871183
0.0141988
5.59659e-08
0.000340327
1.66703e-09
4.15388e-09
0.00828849
0.000746785
0.0747545
4.15181e-10
0.000477031
6.33387e-10
0.000532954
0.000313624
0.000420443
0.0105086
0.0181174
0.000544654
0.00184136
6.21248e-10
6.05913e-09
2.83546e-09
0.000989315
0.00201228
5.95499e-09
0.000821999
0.00750101
0.010524
4.66779e-09
0.00169553
0.00260356
1.61541e-09
6.44352e-09
0.000432447
0.0138665
0.0115708
0.00503827
0.0473447
0.00269928
7.71878e-09
0.00523474
3.972e-09
0.000681334
3.59225e-06
0.0223112
1.58279e-08
0.0204846
0.0114925
0.0340904
1.82179e-09
0.100948
0.00876976
0.00175589
0.00466546
0.0649723
2.19794e-09
0.00282754
0.00246568
0.00229169
0.00800963
4.6324e-09
1.11323e-09
3.34936e-08
0.00203097
0.0248948
0.293044
6.31249e-10
0.00906838
3.38229e-08
0.00125517
0.000444877
0.188918
1.03823e-05
0.287095
0.781427
0.000103941
2.24058e-09
1.87148e-08
0.0013613
0.0106766
0.00563932
0.0101707
0.0629306
0.0341156
1.22512e-08
0.00163855
0.0103269
0.0113621
1.21629e-08
0.000533486
0.000427672
0.000358565
0.000418293
0.000637652
0.138287
0.000273855
0.00292394
0.000398956
0.00307616
0.00201989
0.00221777
4.51633e-10
0.478364
0.0314553
0.185154
0.149386
0.00217146
2.01654e-09
0.00649159
1.52173e-08
3.30151e-07
0.000761567
0.0851793
8.89756e-10
0.00178734
1.45861e-07
0.000207823
0.0165897
4.23495e-07
0.00853773
4.01389e-07
2.20179e-07
0.00156867
0.000598373
0.00112988
0.0129721
2.93556e-05
0.00245016
0.00136288
0.0179359
4.89238e-09
0.000502806
0.00155107
0.0152038
0.0016485
2.42884e-07
0.0022459
0.0313326
4.76652e-09
5.11879e-09
6.89721e-09
0.00152608
0.0018342
0.00305751
1.45555e-08
2.88851e-05
4.23088e-07
0.000298098
0.00380551
0.00140451
8.204e-08
0.00269115
8.6344e-10
0.0107512
0.00112942
0.000804584
0.0019124
0.00171921
0.00952677
6.60804e-09
0.0137488
0.00030292
0.000423333
1.17693e-09
0.000378711
0.000405409
0.000581334
0.00198446
3.38895e-07
0.00163304
0.00946934
0.00173308
0.000460524
0.0187843
0.00225174
0.00130455
0.0145452
0.00744893
0.0122755
0.0131144
0.00624833
1.64008e-07
0.320878
0.0624152
5.44866e-08
0.000573402
0.0148494
2.89728e-09
0.0242481
0.000104349
0.000403279
0.0142452
2.81729e-07
0.00497448
0.000614688
1.82684e-08
0.00553632
5.24257e-08
0.0312592
0.356193
0.00151224
0.0573407
8.37156e-10
0.000256107
0.00482937
7.47579e-05
0.104269
0.00253179
0.0017122
0.000492898
2.47511e-09
0.00341405
0.00329874
5.12947e-10
0.000489112
0.0263228
0.00061878
0.000243577
0.0619478
5.13843e-07
0.00168945
7.79182e-11
0.000345774
0.00241465
6.46549e-09
1.20111e-09
0.00218523
1.11168e-08
0.00251494
3.53783e-08
1.87694e-09
7.87565e-08
0.00364413
0.00209979
2.72203e-08
5.44987e-10
0.00221536
2.02845e-07
0.00277824
2.8862e-09
0.03181
4.55036e-08
7.65885e-09
2.74748e-09
0.0016776
0.0371887
5.04695e-09
2.7938e-07
0.000274716
0.00245578
0.0004531
1.41602e-08
0.296059
2.56573e-09
0.000232002
0.00234621
9.27461e-10
3.77173e-09
3.97776e-08
3.43267e-08
0.000502529
2.74092e-07
0.000529727
1.9866e-07
6.99939e-09
5.88681e-11
0.0114695
0.00022113
0.000394063
5.5752e-09
0.00395542
0.00252857
0.0445868
2.99073e-10
3.44478e-09
9.80425e-09
4.59735e-09
1.81676e-08
0.00277853
0.000620093
0.000514079
0.000120082
0.000348251
0.000381681
2.96071e-09
4.2722e-08
1.23963e-09
0.0225661
1.89195e-08
0.00853804
1.08719e-08
0.0155251
0.00115982
1.99166e-08
7.94932e-08
0.00435179
1.88272e-09
0.00410638
0.0192594
0.00226919
4.91461e-09
1.48429e-08
4.16608e-09
1.54621e-08
2.12135e-08
0.00387197
0.0163419
1.16964e-07
0.01038
1.0453e-09
0.877837
0.442641
3.5367e-09
0.0414062
9.57971e-05
9.84252e-09
0.00926664
1.03873e-05
0.602456
0.0441118
0.0075302
4.11933e-09
0.0283381
0.393589
0.00291514
0.025111
0.00436445
0.00223132
0.125542
0.0440689
1.05129e-08
0.000946127
0.0260506
0.0487572
1.44508e-05
0.000472761
0.0330579
1.99109e-09
0.0141185
1.10994e-08
6.79414e-10
0.00660889
9.91106e-10
0.00421593
0.00393133
2.44963e-09
0.000128776
3.36522e-09
1.0869e-09
0.00782924
0.00605336
2.82033e-09
5.57867e-08
0.0017005
0.00228528
0.00409346
0.000384381
0.0115726
0.0632837
1.80944e-08
0.0334057
1.05101e-09
0.00432503
9.4364e-09
0.00222732
0.0304265
0.00412726
1.18486e-08
0.0270845
2.43418e-09
3.76933e-09
2.9834e-09
0.000259108
0.000626651
0.00758534
0.0258391
0.0147078
0.00733734
0.00549686
1.77832e-08
1.33432e-08
2.98115e-07
1.1345e-08
0.0042548
2.77358e-06
0.00317053
2.7929e-08
7.64717e-09
0.00159331
0.00149242
0.00180519
1.701e-08
0.0101771
0.00194107
1.71347e-09
0.00336447
1.56569e-07
0.00183838
0.000459337
0.00679178
0.00238525
0.00502763
0.000435592
0.00632622
0.00224183
1.8906e-08
0.0024514
0.00311783
0.00186897
1.52349e-07
4.37038e-09
6.42416e-09
9.18775e-10
0.0346973
0.00179524
0.00284659
0.00184134
2.99875e-09
0.00334154
0.00840872
0.00228122
0.00258046
5.85741e-09
3.77595e-08
0.00170915
0.000524411
1.30682e-08
4.25276e-05
4.53765e-10
0.00264534
0.00204737
0.0288643
0.00167051
4.95487e-09
0.0030109
6.68024e-09
0.00425436
7.07998e-08
1.05574e-05
0.000355317
0.0027857
1.50309e-08
1.50646e-07
0.000926315
0.00713032
3.5528e-10
0.0198454
0.00616473
1.20201e-08
3.57199e-08
0.00159352
1.22974e-07
1.53695e-09
2.0147e-06
0.0219293
1.69057e-09
0.0378336
0.00194128
3.46032e-08
5.24442e-09
6.75824e-07
2.98663e-09
0.000542039
0.0138623
0.0230279
0.00208691
0.0117294
0.00153862
1.737e-08
0.00059775
0.014549
6.17732e-09
0.00163047
4.94196e-08
0.0827366
0.0419715
2.88502e-08
0.00243773
0.00154749
1.94223e-09
3.20435e-09
0.0337491
0.00859505
0.0158456
7.53282e-09
4.30435e-07
5.09981e-09
0.0193463
2.49218e-09
4.43269e-09
6.48895e-09
1.66608e-08
0.0201601
7.55828e-09
0.000396181
0.00444165
0.00150038
0.00265763
0.00160661
0.0235094
1.18471e-08
0.0020824
0.0200103
6.64364e-09
0.00041006
1.51452e-09
1.48755e-07
0.00242325
0.0134123
1.35189e-07
2.30293e-08
4.41317e-08
0.00141158
8.50223e-09
1.13044e-09
2.12064e-07
2.66288e-09
4.87174e-07
3.7587e-05
0.0116848
0.00500493
4.33975e-08
0.000460369
0.000298196
0.062239
4.10299e-10
5.05367e-09
0.0180737
3.96615e-09
0.00207254
0.000263264
0.000518086
1.49306e-07
0.0183861
1.38504e-07
0.0229237
0.0014376
0.0496788
0.0142278
4.09632e-08
0.0256747
0.00338663
0.0896434
0.00746503
5.62964e-09
2.62291e-09
0.256601
0.00662126
0.00135209
6.84321e-06
0.000160716
0.00334878
0.0308343
0.0108391
0.00290283
0.144392
0.0027344
1.35719e-09
0.0177455
0.064011
0.0346171
8.51745e-09
0.00261817
4.74308e-09
0.00285906
0.000614175
0.018885
0.0197574
0.000894373
0.0522374
0.0229604
0.000562312
0.00262142
0.0136743
0.00311706
0.00069397
0.0502996
0.00261272
0.000113325
0.0107776
0.0108491
0.02186
0.0026151
0.000270583
0.00280344
0.0162877
0.000358098
1.13265e-08
0.172898
0.00336941
4.00677e-08
0.00160513
4.68937e-05
0.0010198
2.63892e-09
0.0186457
0.00261772
0.0140916
2.71783e-09
0.00555494
1.12485e-08
0.0164586
0.000301471
2.93781e-09
0.00871396
0.00251964
0.00668233
0.00763817
0.00210893
0.0159304
6.75877e-09
0.0156512
0.00660396
0.00924577
0.0564415
0.000347987
0.0292357
0.0345547
0.017021
0.00114071
4.55034e-05
0.00258769
0.000978812
3.91373e-08
0.00289152
3.21734e-08
0.000526034
9.92205e-09
1.33754e-07
0.00244806
3.0961e-08
2.19781e-08
0.0536878
6.02019e-09
0.00275997
1.38049e-09
7.81675e-09
1.01534e-09
9.29482e-09
0.00268193
0.0298826
1.39861e-09
2.69804e-09
1.42777e-08
0.0170908
0.00265489
4.77007e-09
4.47299e-09
2.27168e-09
0.0346746
0.00688577
0.000528863
0.00230275
0.00446594
3.26983e-06
6.63534e-09
0.00496195
0.000429647
6.7289e-07
1.6495e-10
9.54566e-10
0.00190522
0.0022186
0.00244042
0.00858225
0.102805
0.000239029
8.14617e-10
0.00356674
9.58696e-09
0.0110672
0.0024114
1.80419e-08
1.92235e-08
0.000827415
9.57051e-09
0.0101087
0.0736093
0.0451137
0.000247391
4.19735e-08
5.62734e-08
5.62648e-09
0.00267651
0.00103151
1.39571e-08
0.00263619
0.0142273
0.00194717
2.05301e-10
0.00270982
0.000434512
0.0298522
3.58001e-09
3.70073e-08
0.0110174
0.00312276
6.33278e-09
0.00459714
0.000611838
1.12659e-08
7.33052e-09
0.00241547
0.0227301
3.88089e-10
3.13025e-08
5.83867e-09
0.00703164
4.5655e-07
9.3372e-06
3.48235e-09
3.30061e-05
0.0096195
9.3571e-09
0.0285887
1.03409e-09
3.49783e-08
0.00237112
8.70213e-10
7.12024e-09
0.00291278
0.00153121
0.00239672
7.19865e-07
0.00186872
2.13125e-09
8.61948e-10
0.00226445
0.00339658
0.00339893
0.300043
0.0016396
7.89804e-10
0.00222933
0.00303514
8.56853e-09
9.26747e-09
0.00384653
0.00217893
0.00310905
0.000175699
7.99227e-09
0.0139812
0.00138669
0.111961
9.16326e-09
0.0101736
0.0103144
0.012379
3.60436e-09
1.04013e-09
6.51851e-09
9.40559e-09
3.91848e-09
5.0693e-09
1.58591e-08
0.0115713
3.26238e-11
3.37409e-09
0.0037735
6.04375e-09
1.44665e-09
0.0149351
0.00196477
0.00289184
4.68814e-09
0.00230943
1.464e-08
3.2304e-09
4.93931e-09
0.0242737
0.013275
0.0102068
1.03546e-09
1.05505e-08
2.23274e-09
8.37323e-09
1.71389e-09
1.375e-08
1.41332e-07
0.00164245
0.0110405
0.00705594
0.0014544
0.00184833
0.00227158
0.00232269
0.00176673
4.59444e-08
0.00400025
3.00666e-09
8.41169e-09
7.58999e-09
1.39187e-06
0.0027456
3.01334e-08
3.52068e-08
7.36941e-09
2.4241e-09
2.60726e-09
7.63261e-07
3.15503e-06
0.0534613
0.000474442
1.88483e-09
3.68914e-09
0.00294867
1.87618e-05
0.00192125
5.44601e-06
3.80703e-05
7.52342e-07
0.00105424
3.56044e-05
0.0194659
0.000117737
0.0234039
0.00166549
0.0511511
1.1388e-09
0.00114515
3.59458e-10
4.18264e-08
0.00372964
3.00441e-09
0.00137993
0.000179414
0.00223779
0.019347
0.001262
0.00126183
0.00870674
0.00240129
0.0108756
0.00358064
0.00162772
2.02824e-08
0.00506574
0.0296938
8.03986e-09
5.06772e-10
0.0634892
0.00889531
0.00651904
6.50432e-07
0.065477
0.00190519
0.0152528
3.45949e-09
0.0172153
0.00315787
0.0014167
0.00245268
0.00243215
5.46736e-09
0.0403455
0.0145327
0.0145783
0.00314725
6.83346e-09
0.00153806
0.00333239
0.000951377
3.24917e-09
0.00166378
0.00313789
2.95915e-08
7.16834e-10
0.00174268
0.0363304
1.78408e-06
4.86002e-07
9.56995e-08
0.00040681
7.34509e-08
5.74019e-08
2.57383e-07
2.80271e-07
9.65099e-08
0.0140787
5.07287e-09
1.2235e-08
2.04939e-09
2.1427e-08
0.000132419
2.40945e-10
2.163e-09
0.00206977
0.00293924
3.18678e-10
2.50257e-08
0.000672949
3.26908e-09
1.61318e-06
0.01672
2.5153e-09
0.00327652
0.00156121
0.00150398
0.00168243
0.00695831
0.00425272
0.000599777
0.00390891
6.12235e-10
0.00235452
0.00432747
3.66347e-08
0.00753037
5.63089e-10
0.00305661
0.00187159
0.100154
6.15173e-09
1.27052e-09
1.00232e-08
9.11452e-09
0.00139223
0.00297232
1.49641e-10
3.05882e-09
1.75623e-06
0.00537911
1.15603e-05
0.00291987
3.51825e-07
1.86579e-09
0.00948179
0.0024997
3.56369e-08
0.00221635
8.46092e-08
0.00395661
0.0033073
7.97427e-08
2.18217e-09
0.00365671
8.7568e-09
8.51226e-07
0.000344637
1.60814e-08
0.120209
8.59131e-05
9.22356e-09
0.0031102
5.2361e-09
0.0117736
3.48902e-10
2.15302e-07
7.26542e-09
4.80879e-09
1.00106e-07
1.24644e-07
1.79226e-08
0.00303026
2.18013e-08
2.52009e-08
4.86074e-09
0.0184969
0.00110858
8.63808e-09
1.2006e-08
0.0022617
8.27663e-09
0.00303351
0.00454951
4.94321e-09
0.000360673
2.92557e-09
3.46795e-09
2.70138e-08
0.012517
3.07279e-08
0.0015814
0.00209683
1.12312e-07
0.0848629
8.7462e-08
0.00317767
0.00110978
4.8146e-08
0.00237296
0.00453404
0.0266944
0.0111291
0.000410464
6.50452e-09
0.038001
0.0398342
0.000563896
0.0179882
0.00261323
2.65522e-10
2.52687e-09
0.000636411
0.000341714
1.44001e-08
0.000460458
0.00430318
1.08248e-07
0.000152004
2.77011e-09
4.10213e-07
0.0060106
5.22519e-09
0.00246925
1.32938e-08
1.39018e-08
0.000198217
1.22012e-07
1.65884e-09
0.999926
3.06888e-08
0.0194191
1.38981e-05
1.68379e-07
0.000297091
0.0177451
4.5575e-08
6.99572e-09
0.00243359
0.00564502
3.70083e-08
2.32904e-08
1.31012e-08
3.10711e-09
3.13872e-08
1.10882e-08
0.0024638
0.00447767
6.59519e-09
2.25747e-09
0.0196037
6.20023e-09
0.0025494
0.000394483
1.81077e-09
1.87485e-08
1.65901e-08
0.00237024
0.0093114
0.0125984
0.00603813
0.000841632
2.40521e-08
5.01051e-09
4.23865e-08
2.60323e-08
0.00266555
5.41683e-08
0.0003106
0.00147321
0.000311505
0.00375276
0.00315587
0.00042083
0.00364768
1.07429e-09
1.47292e-09
0.0226473
5.02579e-09
3.23501e-09
0.00186861
0.000231839
0.00989434
0.00385177
1.27869e-08
0.00714597
0.0031148
1.55967e-08
0.00330126
1.4434e-08
1.31337e-08
1.82096e-08
0.00360702
0.0129845
4.63648e-08
0.00604755
0.00158895
0.151091
0.000167085
0.00372194
6.52506e-09
0.0031085
8.16112e-10
8.51008e-05
5.63718e-09
0.0220765
8.06568e-09
0.00230831
0.00260774
0.0031973
0.00677496
0.00215883
0.00221175
0.0168518
0.00682812
8.11725e-09
1.29482e-08
0.0123019
1.4737e-07
2.94626e-07
1.19644e-07
0.00291698
3.37184e-08
1.19161e-09
9.5249e-10
1.22595e-06
0.00294663
0.00206147
3.53158e-08
0.00320064
0.00188203
0.000624969
3.73813e-09
3.48721e-09
0.00182126
0.018555
6.86515e-08
1.1638e-06
0.00708259
1.61501e-08
0.031434
0.000473073
0.00740406
5.50845e-10
1.35894e-08
1.51345e-09
1.40285e-08
3.49808e-09
6.05258e-08
2.70122e-08
0.00365568
5.71009e-07
0.0375013
1.2137e-08
0.00786228
0.00216918
0.00747453
0.00332327
0.0149042
0.017426
0.00139863
0.00970821
3.52878e-06
7.63018e-07
0.00134934
0.0018172
8.27481e-09
0.00380901
2.35187e-08
0.00286516
8.0093e-05
1.29454e-08
2.87021e-09
0.00270029
0.00132538
0.0004274
0.026606
2.13328e-09
0.00133808
5.3129e-09
4.11708e-09
8.97522e-09
5.46182e-09
0.00245375
0.00209661
1.80384e-08
0.00077342
0.00312724
3.79735e-09
0.0157355
0.0132546
6.16666e-09
2.39971e-08
0.00164016
8.63985e-09
0.000405329
1.14453e-09
0.00049573
3.71429e-09
0.00235254
5.33919e-09
0.00530119
0.000526648
0.00115964
0.000541365
0.00838596
0.00106142
0.00873293
2.46029e-08
0.0541699
0.0219833
0.0970248
0.00189281
0.000154658
1.69341e-09
0.000287132
6.65017e-09
0.0100192
0.0299784
0.024701
2.28777e-08
1.16811e-08
0.00773851
7.7324e-09
0.0175124
0.302006
0.0179369
1.48459e-08
9.07257e-09
0.0159803
0.00158546
2.8216e-07
9.78997e-09
0.16162
1.36727
5.29041e-09
5.52878e-08
2.06434e-08
0.00481371
5.16153e-07
5.86858e-07
5.42192e-09
1.03473e-08
0.00232567
1.37596e-09
0.0023029
5.07241e-09
0.0024352
0.00273798
0.00256134
1.20527e-09
9.5064e-09
7.09915e-09
0.00466213
0.014615
0.00402982
0.00258573
2.36451e-08
0.00159864
0.00137064
1.45995e-08
2.16653e-09
0.00871444
5.2137e-09
0.0311533
9.60674e-10
0.0484741
0.0149894
0.000249319
0.0040811
1.73862e-09
0.00235156
6.33185e-08
1.20714e-08
0.0837766
2.13541e-07
3.11097e-08
8.2562e-06
0.00396297
0.00343475
0.00150612
0.00101009
1.53498e-08
4.24952e-07
0.00104063
4.95024e-07
1.52672e-07
0.0681994
0.0264939
1.74452e-09
1.28168e-09
0.00243859
0.066954
0.0119458
0.00410744
4.13294e-09
0.00720857
0.00268054
2.29546e-08
1.30834e-07
0.0048962