/*--------------------------------*- C++ -*----------------------------------*\
  =========                 |
  \\      /  F ield         | OpenFOAM: The Open Source CFD Toolbox
   \\    /   O peration     | Website:  https://openfoam.org
    \\  /    A nd           | Version:  10
     \\/     M anipulation  |
\*---------------------------------------------------------------------------*/
FoamFile
{
    format      ascii;
    class       volScalarField;
    location    "32";
    object      T;
}
// * * * * * * * * * * * * * * * * * * * * * * * * * * * * * * * * * * * * * //

dimensions      [0 0 0 1 0 0 0];

internalField   nonuniform List<scalar> 
59698
(
286.624
283.15
283.15
283.15
299.95
283.15
288.516
283.15
303.15
303.15
303.15
283.15
283.15
283.15
300.131
303.15
283.15
283.15
283.15
293.786
303.281
302.128
303.149
303.15
295.669
283.15
283.15
298.352
295.688
295.355
300.291
303.15
303.15
298.837
302.364
283.15
283.382
283.465
283.15
297.552
296.223
283.15
296.565
283.15
283.15
296.601
283.15
283.154
283.155
283.15
283.156
283.15
283.15
283.15
294.379
283.15
283.15
302.176
283.15
282.978
291.256
283.15
299.624
283.15
286.787
283.15
303.15
283.15
283.15
303.15
283.15
283.15
283.136
298.553
283.15
297.789
283.15
287.693
289.719
294.137
299.953
283.15
303.15
283.15
303.697
283.15
283.15
283.15
298.875
283.15
303.15
293.998
298.978
283.15
283.15
283.15
299.055
283.15
298.903
283.15
299.106
283.13
285.906
284.502
283.15
283.15
283.15
283.15
303.15
283.15
283.15
283.15
298.86
283.15
283.15
283.15
283.15
283.15
283.15
303.15
283.15
283.15
283.15
283.15
283.15
283.15
295.475
303.15
283.15
283.15
287.518
283.15
303.15
292.766
290.227
291.661
283.15
303.15
283.15
283.15
283.15
283.15
283.549
286.224
283.15
283.15
283.15
283.15
283.15
301.182
283.138
303.15
288.082
283.15
283.15
283.15
283.15
283.15
296.959
283.15
289.674
283.15
290.774
299.549
297.814
296.693
283.15
280.912
299.359
283.15
300.387
283.151
300.952
301.016
285.539
283.15
303.15
283.238
303.15
298.936
302.763
300.413
298.64
283.15
298.712
300.854
300.765
283.15
283.15
283.318
283.15
283.15
296.599
297.464
299.388
283.15
293.92
296.574
303.155
299.386
283.15
284.142
292.436
283.15
299.294
283.64
297.335
290.082
293.589
298.033
283.15
283.15
299.131
303.15
294.872
283.15
283.15
283.15
297.842
296.016
282.057
296.322
283.15
299.287
295.267
299.339
295.822
290.552
295.648
285.004
283.15
296.15
295.168
295.825
283.15
293.881
295.989
283.15
283.15
294.578
283.15
293.985
289.947
303.15
294.345
283.15
282.93
285.604
283.15
283.15
283.15
283.246
283.23
303.15
283.15
283.205
283.15
283.265
283.15
283.15
303.12
283.15
283.15
283.15
283.15
295.345
283.15
303.15
283.15
283.15
283.15
286.647
303.101
283.15
287.33
283.15
283.15
283.15
293.97
303.15
303.15
283.15
283.15
289.074
295.137
290.681
283.15
303.15
286.024
283.15
301.404
289.093
283.15
283.15
283.15
283.15
283.15
283.15
295.1
283.15
289.268
283.15
283.15
283.15
283.15
283.15
287.821
283.15
283.15
283.15
283.15
283.15
283.15
283.15
283.15
283.275
283.15
283.15
283.15
283.15
283.15
293.403
283.15
303.15
298.318
286.249
283.15
283.15
283.281
283.15
300.183
290.658
298.884
281.572
303.15
292.524
283.15
283.15
298.462
293.847
293.396
290.407
283.15
292.955
298.954
283.15
294.323
301.432
283.15
289.17
292.812
283.15
301.352
303.15
284.205
300.741
302.09
283.15
283.15
303.15
283.15
283.15
303.15
293.192
283.15
283.15
283.15
284.23
283.15
282.754
292.677
283.15
283.15
283.15
296.425
303.15
283.15
283.15
283.15
303.15
283.15
283.15
283.15
291.128
283.15
283.148
283.15
283.15
283.15
283.15
283.15
303.15
283.153
290.74
303.133
301.992
301.772
283.15
283.15
283.15
288.506
294.989
283.15
283.15
283.15
283.15
295.954
293.283
295.255
302.252
297.893
303.15
283.152
303.15
283.15
289.839
283.15
283.572
302.299
302.831
283.15
283.15
283.194
282.009
283.15
283.15
303.15
283.15
283.15
283.15
295.48
302.785
285.297
289.148
287.575
303.15
303.15
298.649
283.15
291.934
283.15
283.15
303.15
283.15
283.15
302.912
294.844
283.15
283.15
299.207
283.15
283.15
283.15
286.33
283.15
283.15
290.638
303.15
284.304
283.15
290.055
283.15
283.96
293.938
303.15
283.15
283.15
291.865
283.15
294.97
284.315
283.15
283.15
283.15
283.15
283.15
302.758
292.113
284.553
283.15
283.15
283.15
283.15
283.15
300.927
283.15
283.15
283.15
291.938
291.872
299.039
290.506
291.36
283.15
292.105
283.15
283.15
283.15
289.587
283.15
283.15
295.191
299.059
285.114
283.15
303.15
283.15
303.15
283.15
290.285
284.999
290.686
283.152
283.15
291.607
283.15
283.15
283.15
283.15
283.15
289.56
293.935
283.15
283.15
283.15
302.995
294.898
283.15
289.835
288.75
283.15
301.473
303.15
283.15
283.15
283.15
283.15
286.364
283.15
303.15
290
283.15
283.15
281.273
289.382
291.829
282.236
283.132
290.843
283.147
283.15
303.15
283.15
303.15
283.15
283.15
283.15
293.365
291.23
287.508
283.15
303.15
283.15
283.123
283.15
303.15
286.373
283.15
287.016
303.15
287.242
283.15
283.15
283.169
283.161
283.162
283.15
291.863
295.428
303.15
283.15
283.15
285.261
283.15
283.161
283.15
283.15
283.15
289.73
283.174
283.165
296.416
283.15
283.15
283.15
283.15
303.15
282.782
283.15
283.15
286.494
283.15
283.15
283.15
283.15
283.15
283.15
283.15
283.15
283.15
283.15
283.15
283.15
283.15
283.15
283.15
283.15
297.86
285.621
283.15
283.15
283.15
283.15
302.957
284.142
283.15
290.927
283.15
283.15
283.15
294.713
283.15
283.15
283.15
283.15
283.15
283.15
283.15
283.15
286.96
283.15
283.15
283.15
303.15
283.15
294.068
283.15
283.15
283.15
283.15
283.15
283.15
288.559
283.15
283.15
283.15
283.15
303.148
293.604
283.15
283.15
283.15
290.989
283.799
301.814
288.548
283.15
283.15
283.15
288.926
283.15
283.15
283.15
283.15
283.15
283.15
283.15
290.202
293.226
283.15
283.15
283.15
283.15
283.15
283.15
283.15
283.15
283.15
283.15
295.736
290.804
297.151
283.15
283.15
283.151
283.15
283.15
283.15
283.15
283.15
283.15
283.15
288.601
283.15
283.15
303.15
296.521
283.15
283.15
283.15
283.15
283.15
283.15
283.15
283.15
297.64
289.348
283.15
303.15
283.15
297.88
297.946
283.15
283.15
294.84
297.228
295.564
283.15
296.247
283.15
282.863
283.15
290.531
300.332
283.15
291.114
283.15
303.15
297.636
287.93
283.15
283.15
283.274
297.042
293.821
283.153
283.598
283.45
283.15
286.006
283.15
296.873
288.095
298.086
283.15
283.15
290.269
295.024
303.15
283.15
296.904
283.15
298.223
295.936
283.15
293.861
296.741
283.15
283.15
294.936
294.575
283.15
283.15
283.15
283.15
289.448
283.15
283.15
294.539
294.558
297.403
283.15
293.703
290.462
294.882
292.809
295.322
283.15
284.362
298.835
283.15
288.637
297.673
301.091
283.15
302.766
283.15
283.15
283.15
283.15
283.15
283.15
283.15
283.15
298.049
283.163
283.15
283.15
283.15
282.351
283.15
283.15
283.15
283.15
303.103
298.5
303.15
283.15
284.574
288.611
283.15
282.18
283.15
283.228
283.15
283.15
283.152
283.186
296.697
283.15
295.796
283.15
283.15
283.15
283.15
283.15
283.162
283.15
283.132
283.173
303.15
283.15
283.15
283.15
283.15
287.057
283.15
283.15
283.15
294.639
283.15
283.15
285.393
283.15
283.15
283.15
299.433
295.185
283.152
283.15
283.15
295.905
303.15
295.886
283.15
283.15
283.15
283.149
283.15
283.15
283.15
283.15
284.108
283.15
287.06
283.15
283.15
283.15
293.097
283.15
283.15
283.15
283.15
283.15
283.15
283.15
283.15
283.15
283.15
283.15
283.15
296.325
296.008
283.15
283.15
295.071
283.15
296.75
303.15
283.15
295.897
283.15
283.15
283.15
283.15
283.15
295.893
283.15
283.15
293.593
283.15
283.15
283.15
283.15
303.15
283.15
283.15
283.15
295.914
297.65
283.15
296.706
290.105
283.15
295.633
283.15
291.068
290.818
286.598
292.11
283.15
289.769
283.15
296.566
295.607
283.15
289.864
283.15
283.15
297.546
283.15
289.891
296.149
296.761
283.15
283.27
285.344
294.005
283.15
283.15
283.15
283.15
283.15
283.15
283.15
283.15
283.15
303.15
283.15
283.15
294.489
303.15
283.15
296.662
283.15
283.15
283.15
283.15
295.6
283.15
303.15
303.15
283.15
295.42
283.15
283.15
291.458
302.713
298.559
283.15
283.15
302.163
297.858
294.802
295.718
293.657
283.15
295.627
283.15
290.637
287.746
283.15
283.15
283.15
303.15
283.168
283.15
300.391
283.151
303.15
303.15
283.15
283.15
283.151
283.15
283.15
292.6
283.15
283.15
283.15
298.38
283.15
283.151
283.151
302.802
283.15
283.15
302.798
283.15
283.15
302.806
283.15
294.546
295.195
296.442
295.36
295.986
295.231
283.15
283.15
303.15
295.486
296.53
283.15
283.15
283.15
297.7
283.15
283.15
283.15
295.349
283.15
287.749
283.15
290.854
283.15
303.15
283.15
288.104
283.15
303.15
283.217
294.208
295.968
283.15
289.334
303.15
303.15
293.096
283.15
283.233
283.15
283.15
283.222
283.15
303.15
303.15
284.1
283.211
295.151
303.15
283.15
296.118
303.15
282.449
283.15
283.569
283.15
283.234
283.15
283.15
283.236
303.15
283.15
283.15
283.15
283.15
283.15
283.15
284.401
301.057
303.15
297.239
302.915
283.15
301.661
287.112
288.132
288.686
297.729
297.162
289.46
289.148
283.15
283.15
288.123
283.15
303.15
283.15
300.974
283.15
284.52
283.15
287.08
283.15
302.392
289.603
287.12
287.419
283.15
283.15
303.15
283.15
286.77
283.15
283.15
283.15
287.198
283.15
304.929
283.15
287.74
283.15
295.302
283.15
287.084
287.423
303.15
283.15
283.15
283.15
289.998
283.15
300.808
301.125
283.15
295.883
299.145
302.602
293.679
283.15
283.15
302.582
287.714
300.265
287.486
283.15
295.931
295.785
294.351
292.965
294.561
303.15
286.059
298.859
295.449
283.15
283.15
297.239
283.15
298.992
291.799
283.15
291.771
283.15
303.15
290.628
303.15
290.399
283.15
283.15
289.705
283.15
285.396
283.15
303.15
292.263
291.943
288.953
290.579
293.369
303.15
303.15
283.15
283.15
283.15
303.15
283.15
283.15
283.15
283.15
303.15
283.15
283.15
283.15
283.15
285.24
283.15
283.15
284.982
303.15
283.15
283.15
303.143
303.15
297.275
290.565
283.15
297.356
296.689
292.318
303.15
283.15
283.15
296.901
282.331
296.644
283.15
303.15
283.15
303.15
296.772
284.59
283.15
283.162
297.599
283.15
302.764
297.492
295.756
297.457
290.598
297.621
283.15
283.15
297.49
297.423
283.15
303.15
283.15
291.913
283.15
283.15
283.15
283.15
283.15
283.15
283.15
283.15
300.615
285.592
297.023
303.023
283.15
303.15
283.15
283.15
299.959
303.15
303.15
293.493
283.15
300.656
283.15
283.15
303.15
283.15
283.15
303.15
283.15
283.15
283.15
283.15
302.959
303.15
297.497
283.15
283.15
289.042
283.15
283.15
283.097
303.15
283.15
303.15
283.15
303.15
283.15
297.885
297.781
296.965
297.557
283.702
283.15
286.805
283.15
283.15
284.273
298.049
294.815
296.653
283.15
301.152
283.15
303.15
283.15
297.006
296.296
303.15
303.15
283.15
288.942
287.351
294.292
289.223
289.605
303.15
303.15
283.15
283.15
287.785
303.15
299.767
303.15
287.568
303.15
303.15
303.15
290.748
290.749
299.277
303.15
292.604
283.15
303.15
283.15
287.297
282.682
283.15
283.738
295.848
291.695
283.15
283.312
293.652
283.15
303.15
303.15
285.197
288.645
292.724
283.578
283.284
283.15
289.885
283.15
283.15
283.312
291.711
283.15
287.702
285.207
293.96
303.15
292.185
284.059
290.957
293.988
300.928
283.15
292.381
283.15
283.15
298.104
283.15
283.15
283.15
283.902
286.788
283.759
283.15
284.864
283.15
284.224
303.15
294.048
283.373
288.473
292.619
303.112
303.15
283.15
284.408
294.761
300.625
284.976
285.113
298.435
283.15
284.946
282.313
294.006
303.15
287.371
283.15
283.13
285.152
303.15
297.613
283.151
283.15
303.15
284.927
300.029
303.15
283.15
289.218
295.139
296.53
297.84
283.514
303.15
285.245
283.15
283.15
283.15
293.948
283.15
303.125
283.15
303.15
294.356
283.15
292.606
283.15
283.15
283.15
300.119
298.993
285.917
283.138
299.315
283.15
299.429
303.15
283.15
283.15
296.281
285.771
283.15
283.15
288.098
283.15
283.15
283.15
283.15
283.15
296.749
303.15
293.69
283.15
303.15
288.56
283.15
283.15
288.2
303.15
296.122
283.15
303.15
296.848
302.678
290.218
283.15
286.912
288.125
303.15
283.15
303.15
283.15
283.15
283.15
283.15
283.14
291.903
283.208
303.15
288.297
288.776
287.964
294.291
288.254
294.901
289.068
286.219
303.15
287.435
291.782
283.15
303.15
300.563
283.15
289.596
303.228
303.15
299.152
283.15
288.949
303.15
283.15
289.295
283.15
297.733
297.135
288.95
295.029
303.15
303.15
288.696
288.583
283.939
283.15
283.154
283.577
303.15
283.798
288.477
303.15
283.15
283.005
283.15
288.476
299.835
303.15
288.505
303.15
303.15
283.682
283.15
283.15
283.149
303.15
293.265
283.15
303.15
303.15
283.15
283.127
283.15
303.15
283.139
283.15
283.15
283.15
300.711
283.15
283.15
303.15
294.706
294.218
303.15
303.15
303.15
283.15
283.15
283.15
291.876
303.15
283.14
283.15
303.15
303.15
303.15
283.15
283.15
283.15
283.15
283.15
283.15
283.15
296.139
303.15
283.15
283.15
283.15
283.15
294.065
283.15
283.15
283.15
283.15
283.15
283.14
283.15
303.15
283.15
283.15
283.15
283.15
303.15
283.15
294.222
303.15
285.307
283.15
293.205
283.15
283.15
283.15
297.21
283.15
296.722
295.92
283.15
283.15
283.15
283.15
283.15
283.15
283.15
298.96
283.15
287.263
283.15
304.962
284.036
283.15
300.337
283.134
283.15
291.718
303.15
294.4
296.504
295.244
283.15
301.434
296.245
283.15
298.924
293.1
302.824
297.659
300.387
283.15
285.25
294.215
289.33
283.298
294.813
297.477
283.15
296.643
283.15
283.15
294.756
283.15
283.143
299.569
283.15
288.101
283.15
283.15
297.877
293.729
283.15
283.15
292.503
283.15
295.049
283.15
293.103
298.404
283.15
300.326
283.15
286.969
283.15
293.598
298.431
291.69
283.15
284.612
283.15
283.15
283.15
283.15
303.15
292.508
297.146
298.04
301.575
283.455
283.156
283.15
283.15
283.15
283.15
303.151
283.15
283.15
283.15
283.139
283.15
283.15
283.15
301.996
283.15
283.15
303.187
283.15
283.15
283.15
299.012
283.15
302.109
302.829
294.654
283.15
283.15
283.15
283.15
283.15
283.168
283.15
283.15
283.15
295.16
302.942
283.15
288.179
283.15
298.9
293.012
283.158
283.15
283.15
283.15
283.15
284.97
283.15
302.926
283.15
283.15
283.151
298.25
302.943
283.15
292.695
283.15
298.524
283.15
283.398
288.184
289.742
283.15
283.173
289.061
294.112
283.15
289.314
302.813
283.15
283.15
289.444
283.15
283.15
283.203
299.709
283.15
294.609
283.15
283.15
283.15
283.15
283.15
286.09
287.188
298.587
299.529
289.308
283.15
283.15
285.904
295.992
283.15
283.15
283.15
298.68
285.529
283.15
283.15
283.15
283.15
283.15
296.219
287.991
296.563
283.15
283.15
283.15
299.577
303.15
283.152
283.15
283.15
296.974
283.15
299.692
283.15
283.15
283.15
283.15
299.653
283.15
283.15
301.301
283.15
283.15
283.15
283.15
283.15
289.331
283.15
303.15
283.15
301.439
283.15
283.15
283.15
283.15
283.15
301.371
287.262
290.358
283.15
283.15
283.231
295.981
283.15
283.15
298.922
283.15
284.9
284.808
283.15
303.15
298.535
283.15
294.384
295.222
295.013
301.377
283.15
301.194
283.154
292.984
292.048
303.15
283.15
300.059
295.181
295.293
283.366
302.832
286.646
295.628
293.861
292.382
296.229
283.16
283.15
291.138
292.621
295.759
283.15
283.15
283.15
283.15
296.386
296.084
295.181
296.173
294.295
295.793
294.77
283.15
291.984
295.582
295.82
296.786
300.267
297.337
297.455
297.953
301.23
283.15
303.146
283.149
290.487
283.15
283.15
301.777
303.554
283.155
303.01
303.129
286.438
283.15
292.102
283.15
290.825
283.15
300.601
283.15
291.096
303.15
283.15
293.487
283.15
301.066
295.187
283.15
302.011
283.15
289.217
302.272
286.673
295.422
284.687
292.613
294.621
300.553
302.959
283.803
289.738
289.04
283.15
283.704
283.15
295.76
283.15
283.15
283.15
283.15
283.15
295.802
283.15
283.15
283.15
283.15
283.15
283.15
290.93
294.09
283.15
283.15
283.15
293.432
283.15
283.15
283.15
283.15
286.56
302.169
291.946
299.926
296.655
283.255
283.15
295.958
303.15
283.15
283.15
283.15
283.183
296.767
293.505
294.309
298.705
288.435
283.15
283.142
283.15
291.341
291.617
283.15
283.15
285.159
283.15
296.16
297.897
300.889
295.521
283.15
283.15
283.15
283.15
293.368
283.15
295.418
294.702
289.676
283.15
294.277
300.953
296.721
283.15
303.15
292.573
293.807
283.15
294.687
283.15
283.15
283.15
283.15
290.632
283.15
283.15
283.15
292.932
283.15
283.361
283.15
283.563
290.845
283.15
293.595
283.15
283.15
292.266
283.15
283.15
294.535
294.721
283.15
283.15
295.455
283.15
283.15
296.643
296.167
283.15
297.945
283.15
283.15
283.15
283.151
283.15
283.15
296.001
283.15
296.423
283.898
283.15
299.986
287.666
296.176
283.15
296.78
295.662
293.66
283.15
283.15
283.15
283.15
283.15
303.15
283.15
289.359
283.15
283.15
292.512
283.15
283.15
299.279
283.15
283.15
283.15
283.15
283.15
283.15
283.15
300.853
286.339
287.371
283.15
283.15
283.15
283.15
283.15
283.15
283.15
283.15
291.721
295.854
283.15
283.15
283.15
284.192
288.497
283.15
294.568
283.15
283.15
303.15
283.15
293.587
283.15
283.15
283.15
283.15
283.15
283.15
303.15
287.159
291.36
283.15
283.15
283.15
283.495
283.15
283.265
290.496
283.15
283.15
294.561
293.426
283.987
294.146
293.531
291.604
283.15
283.15
283.15
303.15
283.41
283.15
283.15
284.957
283.15
295.834
283.15
289.472
285.196
283.15
289.284
295.576
283.15
283.15
302.022
294.384
283.15
283.15
294.237
293.209
296.874
283.15
300.483
291.955
301.244
283.15
297.62
283.15
283.15
283.15
283.15
283.15
293.898
295.041
292.919
283.15
283.15
283.15
283.15
292.154
283.15
283.15
283.15
283.15
283.15
283.15
299.344
283.225
283.15
283.15
283.15
283.15
283.15
283.15
283.15
283.15
291.644
283.15
283.15
283.15
283.15
289.773
283.15
283.15
283.15
283.15
283.15
283.15
290.946
283.15
302.667
290.505
283.15
296.801
283.15
285.564
283.15
298.646
303.389
296.176
283.15
283.15
283.15
298.425
283.15
290.086
283.15
283.15
286.382
285.962
283.15
283.15
283.15
283.15
283.15
283.15
283.15
283.15
283.207
293.055
283.375
283.15
283.15
283.15
292.244
283.15
283.15
283.15
283.15
283.15
283.15
283.15
283.15
283.15
283.15
303.15
303.15
283.15
292.034
295.406
283.15
283.15
283.15
297.006
283.15
283.168
283.15
283.15
283.162
283.166
283.15
283.165
283.15
283.15
283.15
295.4
295.126
283.15
283.15
283.15
283.15
283.15
303.244
283.15
303.15
283.15
283.15
283.15
296.083
283.15
283.15
283.15
283.15
291.149
283.15
283.15
283.15
303.15
282.89
283.15
301.981
284.04
303.15
283.15
300.867
294.273
283.15
291.747
283.15
283.15
283.15
303.15
303.15
283.15
283.15
296.679
283.15
295.447
283.15
283.15
293.898
283.15
296.767
283.15
283.15
300.784
303.15
303.15
297.786
283.15
294.848
283.341
283.15
283.15
300.969
283.152
283.15
283.15
291.801
303.15
283.15
283.15
283.15
283.15
283.15
300.84
283.15
283.15
283.15
294.422
283.15
283.15
283.15
283.15
283.15
283.15
296.681
301.946
302.713
293.548
295.642
283.15
283.15
283.15
283.15
300.58
283.15
283.15
287.141
286.88
286.43
286.395
287.435
288.027
283.15
303.15
297.126
283.15
283.15
283.15
284.372
297.936
283.146
283.15
283.672
283.15
283.15
283.15
283.15
283.15
283.15
292.186
294.929
303.15
295.689
284.939
292.897
297.804
298.038
283.15
283.151
283.15
298.08
283.15
296.157
283.15
283.15
298.681
283.15
294.563
298.116
294.141
296.561
293.841
283.15
283.15
297.006
283.15
283.15
283.168
283.15
283.15
283.15
283.15
283.214
291.466
283.15
283.15
295.856
292.069
283.15
283.15
283.15
283.15
299.661
283.15
283.21
286.316
283.15
290.725
286.104
293.844
283.15
283.15
283.15
283.15
283.15
283.15
283.15
290.844
283.15
296.816
283.15
296.332
283.153
295.957
297.503
295.566
287.429
297.249
293.998
283.246
283.15
283.15
297.507
283.15
283.15
283.15
283.15
283.955
283.15
283.15
283.15
283.15
283.15
290.113
283.15
283.15
283.15
283.15
283.15
283.15
283.15
283.15
283.15
294.757
298.737
283.15
302.764
301.084
303.15
283.15
283.15
283.15
284.538
283.15
295.137
283.15
283.15
283.15
302.514
283.15
298.123
290.012
294.413
288.941
300.312
283.15
288.333
300.869
287.178
283.199
288.059
283.15
283.119
283.15
289.956
282.402
293.562
283.15
283.15
296.777
283.15
284.925
291.399
302.409
283.15
283.15
297.395
303.183
283.15
283.15
294.857
290.955
283.15
283.15
283.15
284.309
283.15
283.15
283.15
283.15
283.15
283.15
283.15
283.15
283.15
283.15
300.293
283.15
283.15
283.15
294.653
300.448
290.234
283.15
283.15
298.926
283.15
283.15
283.15
283.222
283.15
297.233
283.15
285.058
297.047
283.145
286.428
283.15
298.606
283.15
283.15
290.676
283.15
283.15
283.149
283.15
293.222
282.64
291.904
283.15
283.188
303.151
283.15
283.15
293.663
286.002
283.15
283.15
283.15
297.336
286.005
283.743
283.15
284.42
283.286
283.15
283.15
293.716
283.15
284.346
293.85
283.15
289.463
297.389
287.126
283.15
283.15
283.15
295.709
283.15
296.346
283.15
283.15
293.329
296.77
292.716
303.15
287.459
294.979
285.618
293.85
285.809
283.15
296.623
287.985
293.038
303.15
286.267
283.15
288.219
285.273
285.174
283.177
285.46
288.522
283.217
294.51
295.539
283.15
289.244
283.15
283.15
283.15
283.15
283.15
283.15
283.15
288.534
299.545
288.961
288.385
287.413
283.15
286.461
302.406
283.15
295.181
292.955
283.15
294.832
290.936
291.178
283.15
283.15
295.862
283.15
287.339
283.15
283.15
283.15
283.15
302.581
296.416
286.902
293.384
283.15
294.45
283.15
303.103
283.15
283.15
283.15
283.15
292.466
292.768
283.15
283.15
284.078
299.066
283.15
283.15
283.15
283.15
283.15
291.994
300.067
283.15
299.598
283.15
299.153
299.183
302.335
302.087
299.496
299.687
299.54
289.067
283.155
283.15
283.15
283.155
288.85
293.573
283.15
283.155
283.15
285.594
283.15
283.15
283.15
290
283.15
283.15
301.039
283.15
299.976
301.477
289.117
283.15
283.15
283.15
290.304
299.061
283.179
283.15
283.15
283.15
283.15
283.15
283.15
283.15
283.15
283.15
283.15
283.425
283.15
283.182
283.15
283.15
283.15
283.15
292.13
297.39
283.15
283.186
283.15
283.15
283.15
295.935
283.15
283.15
283.15
283.15
283.15
283.221
283.15
283.15
283.15
301.899
302.261
283.15
283.15
301.107
304.621
283.15
302.211
302.155
283.15
283.15
283.15
283.15
302.349
283.15
283.15
283.15
302.346
283.15
283.15
283.15
283.15
283.15
283.15
283.15
303.081
283.15
296.161
283.15
283.15
283.15
283.15
283.15
283.15
290.51
283.15
283.15
283.15
283.15
283.15
283.15
299.254
283.15
283.15
283.15
287.065
301.443
283.15
301.094
291.184
300.516
283.15
301.534
283.15
298.679
283.15
286.149
290.452
296.675
298.679
297.843
294.207
283.15
285.978
300.226
283.15
283.218
298.933
283.15
283.151
283.15
284.224
299.027
287.928
299.041
290.65
283.15
283.15
295.766
283.15
283.15
283.15
296.741
289.166
295.206
283.15
297.33
283.15
283.15
298.139
297.067
284.889
291.792
297.135
290.314
287.466
297.552
298.814
303.15
283.15
285.564
283.15
304.283
284.829
287.63
296.089
283.15
296.474
283.15
283.15
294.771
297.508
283.15
289.959
283.15
283.15
290.094
283.15
283.15
301.832
283.15
296.494
286.163
297.307
283.15
283.15
283.15
301.923
283.15
295.013
294.922
288.688
295.618
300.132
283.15
283.15
283.15
283.15
299.371
296.629
283.15
283.15
283.163
283.15
294.504
283.15
303.144
295.522
295.63
290.635
299.177
289.914
283.899
303.15
290.938
283.15
283.15
283.15
286.965
294.902
283.433
283.15
283.15
283.742
283.15
283.15
287.95
283.15
294.349
290.333
292.765
289.722
283.15
298.28
295.777
300.581
291.731
283.15
293.036
294.056
284.597
296.421
297.131
284.878
296.644
293.047
296.63
297.123
300.248
283.15
283.15
290.55
283.15
283.15
303.108
303.15
283.15
283.518
290.312
283.15
283.15
303.15
303.15
293.939
283.151
283.15
283.154
283.15
287.267
283.15
283.15
283.15
283.15
295.849
289.751
283.15
283.15
298.621
283.15
293.968
293.002
283.15
302.508
283.415
283.15
283.15
294.025
283.15
283.15
283.15
283.399
283.15
293.98
291.63
283.15
302.713
283.15
283.15
298.268
295.619
303.15
288.098
297.62
300.901
283.15
283.15
295.824
295.976
293.485
283.15
283.15
294.723
289.822
283.15
283.15
296.359
283.272
293.721
297.254
283.215
297.033
283.151
289.283
283.15
283.15
283.15
283.15
292.911
292.113
283.151
300.825
295.23
283.15
283.15
283.15
283.806
283.15
283.15
283.15
289.487
283.15
283.15
303.15
283.15
291.575
291.399
283.152
283.15
283.15
302.51
292.402
297.416
289.853
289.772
283.15
283.15
283.15
283.15
294.143
290.404
283.15
283.151
283.151
283.151
283.151
283.15
283.151
283.15
294.244
294.738
285.178
291.709
283.15
283.15
283.15
283.15
295.535
295.352
295.301
295.151
293.998
295.307
283.15
294.331
294.983
290.233
292.123
288.148
294.406
283.15
294.381
283.15
302.966
294.672
295.141
296.89
285.489
294.668
289.911
285.43
283.15
290.273
293.748
283.15
282.849
283.15
295.007
283.15
292.901
300.07
297.302
283.145
297.862
283.15
300.966
290.304
291.71
283.15
293.563
301.324
296.04
283.15
291.779
283.15
286.272
283.15
283.15
283.15
286.694
293.069
295.593
285.57
283.15
283.15
283.15
293.667
285.947
295.012
292.788
290.919
283.15
283.15
291.125
283.15
290.427
289.484
286.019
296.96
283.15
297.628
286.673
283.15
299.376
290.215
283.15
303.2
283.15
283.15
283.15
283.15
283.15
283.15
289.777
283.15
283.15
283.15
285.229
290.833
291.373
287.297
290.106
297.476
295.795
283.15
297.285
283.603
283.15
288.67
303.15
297.599
283.15
292.242
283.15
283.151
283.15
283.15
283.15
298.143
290.144
303.15
290.138
289.601
287.539
289.983
289.551
291.968
286.338
303.15
283.15
289.715
286.582
283.15
283.15
283.15
283.15
290.002
296.712
283.15
283.15
292.753
283.15
283.15
301.588
283.15
288.671
283.15
290.826
296.616
292.55
283.15
283.15
300.9
283.15
283.15
283.15
283.15
283.15
286.232
295.423
283.334
295.887
283.15
283.15
283.15
302.444
283.15
283.15
295.404
303.113
283.15
293.729
283.15
293.805
296.743
289.418
283.15
283.15
283.15
293.821
283.15
283.325
294.055
283.15
296.626
283.15
283.15
283.15
283.15
303.15
283.15
283.15
283.15
283.15
283.15
283.15
283.15
283.15
287.489
283.184
283.15
283.15
283.15
293.668
290.306
283.15
283.15
293.406
283.15
283.15
283.15
283.15
283.15
283.15
283.15
283.15
283.15
283.15
293.119
283.15
292.392
298.833
290.603
283.15
296.529
283.15
283.15
296.884
297.074
296.902
283.15
283.15
283.15
283.15
283.15
283.15
297.227
287.57
301.624
283.15
283.15
283.15
283.15
283.15
283.15
283.15
283.15
283.15
283.15
293.575
287.038
283.216
288.473
283.235
283.15
291.972
283.15
283.15
283.15
283.15
283.15
283.15
289.781
296.731
283.15
283.15
283.15
293.002
283.15
290.974
296.131
283.15
291.744
283.15
283.15
283.15
283.421
291.005
286.717
287.808
288.537
291.267
283.302
297.689
283.15
283.15
283.15
300.988
285.022
295.941
283.15
285.053
284.934
283.15
283.15
290.679
283.15
296.429
283.15
283.15
283.15
283.15
297.493
285.02
283.15
283.15
295.796
296.941
289.19
283.15
293.918
300.25
293.374
301.694
294.02
283.15
283.15
283.15
283.15
283.15
283.15
283.15
284.093
283.15
293.559
283.15
283.15
283.15
283.15
283.15
283.15
283.15
283.15
283.15
283.715
283.15
283.15
283.15
283.15
284.776
283.15
283.15
283.15
283.15
283.15
283.15
283.15
283.15
293.748
283.15
283.15
301.232
283.573
283.15
288.409
283.15
283.15
288.448
283.15
283.15
293.874
283.15
283.15
283.15
283.15
283.15
283.15
283.15
283.15
283.15
283.15
286.959
283.15
283.15
283.15
283.15
283.15
294
283.15
283.15
283.15
283.15
283.15
283.15
293.234
283.15
293.069
283.15
283.15
287.007
283.15
283.15
288.326
283.15
294.025
283.15
283.15
283.15
283.414
283.15
283.15
290.258
283.152
283.15
294.237
283.15
302.489
283.15
295.216
297.19
283.15
295.353
283.15
283.15
283.15
283.15
283.15
295.697
283.15
291.761
296.679
283.15
290.914
298.883
291.845
291.786
290.553
290.807
283.15
283.15
283.15
283.15
283.15
283.15
283.15
283.15
283.15
283.15
283.15
283.15
283.15
283.15
283.15
283.15
283.15
283.15
283.15
283.15
283.15
283.15
283.15
283.507
283.15
283.15
283.15
283.15
295.007
283.15
283.15
294.623
283.15
283.15
283.15
283.15
283.15
283.15
283.15
283.15
284.894
283.15
283.15
283.15
283.15
283.725
283.15
283.15
283.216
284.925
283.15
283.15
283.15
283.75
283.15
283.15
283.15
284.991
289.601
283.15
283.15
283.15
283.15
283.15
283.15
283.15
283.15
283.15
283.15
283.15
283.15
285.3
283.15
289.569
285.505
285.345
290.987
283.15
283.15
283.15
283.15
283.167
283.15
283.15
290.273
283.15
283.15
283.15
283.15
283.15
288.541
283.15
283.221
293.895
283.15
283.15
283.15
283.15
283.15
283.15
283.15
283.15
288.007
283.15
283.15
283.15
283.15
283.15
283.15
283.15
290.625
283.15
283.15
289.997
283.15
283.15
283.15
283.15
288.74
283.15
289.236
301.691
290.951
289.027
283.15
283.15
296.053
283.15
283.15
290.269
283.15
289.026
283.15
283.15
283.15
296.328
288.945
303.15
283.15
283.15
283.15
288.745
294.655
291.089
283.15
283.156
283.155
300.423
283.21
283.154
283.175
283.15
283.15
283.15
290.602
283.311
283.15
283.15
283.15
283.15
283.15
289.674
283.15
283.15
283.15
284.924
289.15
283.15
283.15
283.15
283.15
283.15
283.15
283.15
285.766
287.991
283.15
293.688
283.15
283.15
303.15
283.15
283.15
296.824
303.15
288.256
283.15
283.15
283.15
290.402
291.742
283.15
288.972
283.15
283.15
285.251
295.327
283.15
283.15
283.15
283.15
283.15
293.534
294.202
283.15
283.15
283.15
283.15
299.043
292.576
283.15
283.15
283.15
283.15
283.15
286.515
283.15
283.15
283.15
303.15
283.15
283.15
283.196
283.15
283.15
283.15
291.235
283.15
283.15
283.15
283.15
283.15
294.722
283.15
283.15
283.15
283.15
283.773
283.15
283.15
283.15
283.15
283.15
283.15
283.15
283.15
283.15
283.15
283.15
283.15
283.15
283.15
283.15
283.15
283.15
288.343
298.854
283.15
283.15
283.15
283.15
283.15
283.15
283.15
283.151
283.15
283.15
283.15
283.15
283.15
283.15
283.15
283.15
283.15
289.486
283.15
283.15
283.15
283.15
283.15
283.15
283.15
294.022
283.15
302.569
283.15
283.15
283.15
283.15
283.15
283.15
283.15
283.15
283.15
294.117
294.11
283.15
283.15
283.15
283.15
283.15
283.15
283.15
283.15
283.15
283.15
283.15
283.15
284.547
283.15
283.15
283.15
288.254
288.189
283.15
283.15
283.15
290.915
283.15
283.15
283.15
296.233
283.15
284.251
283.15
283.15
283.15
283.15
295.069
283.154
283.15
283.15
283.15
283.15
283.15
283.15
295.669
283.15
283.15
283.15
283.15
294.858
295.606
283.15
283.15
295.66
283.15
283.15
283.152
283.15
283.15
283.15
283.15
283.15
283.153
283.152
283.152
283.15
290.421
291.803
283.15
295.984
283.15
283.15
296.327
283.15
283.15
283.151
283.15
290.486
283.15
286.54
289.504
285.857
290.583
285.975
283.15
283.15
283.15
286.976
283.15
286.081
302.649
285.835
288.463
283.15
291.595
291.337
293.58
294.912
302.755
283.15
302.965
302.572
297.021
288.525
283.15
296.287
294.687
288.63
288.583
286.761
303.15
289.548
294.755
283.15
283.15
288.523
283.15
283.15
294.914
283.15
303.15
283.15
283.15
288.507
288.048
295.026
283.15
296.851
283.15
283.15
283.15
295.909
296.688
295.601
294.39
295.428
283.15
295.725
283.15
289.882
302.724
283.15
289.435
283.15
283.15
283.15
283.15
288.037
289.246
283.15
283.15
296.82
296.803
289.229
297.835
283.15
283.15
283.15
289.824
283.15
291.885
283.15
283.15
283.15