/*--------------------------------*- C++ -*----------------------------------*\
  =========                 |
  \\      /  F ield         | OpenFOAM: The Open Source CFD Toolbox
   \\    /   O peration     | Website:  https://openfoam.org
    \\  /    A nd           | Version:  10
     \\/     M anipulation  |
\*---------------------------------------------------------------------------*/
FoamFile
{
    format      ascii;
    class       volScalarField;
    location    "34";
    object      SgP;
}
// * * * * * * * * * * * * * * * * * * * * * * * * * * * * * * * * * * * * * //

dimensions      [1 -1 -3 -1 0 0 0];

internalField   nonuniform List<scalar> 
59698
(
0.00309486
0.00189746
0.00239436
0.00281324
1.14706e-06
0.00145199
0.00249775
1.11631e-07
1.98933e-09
3.93327e-09
0.000586478
1.70047e-09
1.58701e-09
0.00237252
2.75708e-08
4.28995e-07
9.73441e-09
3.82441e-09
1.73002e-09
5.91183e-10
0.000365512
1.56067e-06
0.000498749
8.81905e-08
1.98143e-07
1.11463e-09
1.15433e-09
0.00248156
0.00239307
2.12059e-09
1.35159e-07
0.00060064
6.67668e-08
0.00403574
1.11575e-06
3.8772e-09
0.000465569
5.07234e-07
1.75901e-08
0.00245362
2.96019e-08
2.30458e-07
2.30979e-08
2.53896e-08
0.000402108
1.0472e-07
2.37645e-09
5.07384e-08
0.00300849
3.32214e-08
3.05661e-10
2.07366e-09
0.00178305
0.00283952
0.00216797
2.05787e-09
8.7958e-08
1.56368e-08
1.84177e-08
2.74259e-05
0.00178294
6.54414e-08
1.98654e-07
1.52527e-09
4.97572e-07
4.31522e-08
1.7508e-09
3.16849e-09
4.22103e-09
6.78023e-09
6.39915e-07
2.90962e-08
0.000359772
1.49517e-06
0.000411957
1.01273e-06
2.25261e-08
2.19932e-08
6.39392e-09
9.28584e-09
4.80938e-07
1.01964e-09
3.96899e-09
8.25147e-09
1.70165e-05
3.24931e-08
9.56722e-09
2.29721e-07
2.35217e-06
2.34071e-08
4.51624e-09
6.35668e-08
1.71027e-07
6.75235e-09
6.27406e-08
0.0037212
1.36337e-07
6.05854e-08
4.86735e-08
8.5992e-10
0.00353776
2.07252e-05
2.95027e-07
0.00329318
5.44966e-08
0.00056478
2.38247e-09
2.27396e-09
2.67862e-09
4.401e-10
3.79236e-08
2.72627e-06
1.36244e-06
1.56285e-07
1.0081e-07
3.53669e-08
3.60488e-07
0.00366076
3.0922e-07
1.15238e-08
2.31801e-09
3.07587e-07
2.2376e-07
3.32696e-09
1.79494e-09
8.38229e-09
7.86315e-09
7.21003e-09
1.27544e-08
3.9907e-07
0.00335569
3.9438e-09
1.10598e-09
1.84594e-07
6.25783e-08
3.22334e-09
5.08062e-07
2.59868e-10
1.73115e-09
5.50419e-09
2.12666e-08
0.00240501
0.00253727
1.58462e-09
1.96572e-07
7.12778e-10
5.5342e-07
3.94094e-07
0.0046512
7.09756e-07
0.000257337
0.000434376
2.80241e-08
2.63542e-07
9.60397e-09
1.08398e-07
7.27378e-09
0.00168883
6.72027e-08
5.74744e-10
3.10365e-09
7.82698e-09
2.22507e-08
9.72298e-08
1.87589e-08
0.00222857
1.02893e-09
0.000567669
0.00152525
7.13385e-09
2.55197e-07
1.51753e-06
2.17131e-07
9.22941e-07
5.76148e-07
0.00126114
4.41061e-09
0.00139608
0.000326017
0.00293202
2.25571e-06
7.43625e-07
4.00464e-07
1.15992e-08
2.50022e-07
6.9717e-08
3.71605e-07
0.0024725
1.11487e-10
1.8856e-08
6.61871e-09
7.07989e-09
2.29724e-08
6.06755e-07
1.21938e-07
0.00432307
1.75267e-06
0.00294348
1.27733e-05
9.10252e-08
0.000227108
6.74496e-07
1.51666e-09
2.56516e-09
0.00356715
0.00246164
3.60539e-08
0.00205875
0.0027077
0.00350251
0.00251072
6.22174e-09
0.00262733
1.5671e-08
2.25714e-09
0.0034899
9.84702e-09
4.69431e-08
1.55148e-07
4.64383e-09
1.37139e-05
0.00217441
1.74067e-09
5.08908e-07
8.84573e-09
0.00274688
2.10418e-08
5.48467e-09
4.86136e-08
6.94724e-07
7.56927e-09
1.87229e-08
7.37951e-09
1.13244e-08
9.71723e-09
9.22386e-09
3.06487e-07
1.99952e-08
1.82335e-07
8.1874e-09
0.00270547
1.18972e-07
3.44101e-08
0.000664542
8.8484e-09
2.19986e-07
2.29217e-05
3.50123e-06
5.46244e-09
4.96951e-09
6.37944e-08
6.07e-09
3.14193e-08
0.000233554
1.89121e-08
0.00173943
1.14432e-07
5.55027e-08
0.00325303
2.72635e-09
7.78587e-06
1.81883e-09
8.13706e-09
0.00281543
0.00372503
8.55416e-07
1.16326e-09
1.07286e-07
2.04061e-08
6.21632e-10
3.08803e-09
1.54039e-06
6.90923e-05
6.6405e-10
1.25311e-07
5.22246e-08
0.00151619
4.13002e-08
2.93958e-09
1.22828e-09
0.000574132
2.067e-09
1.53944e-09
4.70807e-07
0.00334943
1.019e-07
5.48586e-09
0.000647076
3.81248e-07
1.0443e-07
2.70204e-06
0.00232525
9.13583e-09
1.39277e-09
7.32967e-07
0.00283326
6.6907e-10
1.57841e-07
1.43483e-08
6.60263e-07
3.07097e-09
2.25087e-09
6.86652e-08
8.35131e-10
1.01448e-09
1.18925e-09
3.61409e-07
2.27571e-08
5.62324e-09
4.24554e-10
0.00196723
4.4177e-08
3.31598e-09
2.37993e-08
0.00198637
5.60463e-09
0.00040339
8.26937e-09
0.000829308
8.90113e-08
9.76413e-08
3.19407e-07
1.6936e-08
2.98627e-09
1.75148e-06
2.56233e-07
1.61461e-08
9.22627e-09
4.45089e-10
0.000361922
0.00289962
4.01877e-08
3.56178e-07
2.457e-06
0.000430956
1.03671e-08
7.84345e-09
4.49036e-09
1.39626e-07
0.00122093
2.13288e-08
0.0020628
0.00259001
4.94968e-09
9.99433e-08
1.31913e-09
2.65622e-10
1.24615e-06
1.54302e-09
0.00203391
9.27842e-10
1.27957e-08
1.23753e-06
7.94276e-10
9.46662e-07
0.00191578
2.73874e-06
1.45865e-08
3.21108e-08
1.82782e-09
2.21662e-08
1.03599e-08
1.10522e-07
3.59144e-09
1.1897e-10
1.04128e-07
0.00289886
0.00202254
2.94727e-08
9.72517e-07
1.13249e-07
0.000533996
0.00379143
0.000651129
2.08283e-08
2.97511e-09
3.76498e-08
2.15561e-09
0.000460568
2.48771e-09
0.000347124
4.64646e-08
4.44548e-08
5.15396e-08
8.30872e-10
6.7569e-06
1.13977e-08
0.000544825
8.02439e-10
3.62325e-08
2.27814e-08
0.000457507
0.00341737
3.2663e-09
5.39168e-05
0.00179779
3.56739e-06
0.00189304
0.00278866
8.33744e-08
0.00243869
0.002365
0.00266154
5.20873e-09
0.00153842
0.00433037
0.00383859
0.00276226
5.8822e-09
8.22957e-07
1.88366e-07
0.000404302
0.00170096
0.000434524
4.81142e-10
2.04845e-07
2.00779e-09
2.29627e-06
0.00189773
0.00175621
0.00303829
0.00226122
0.00252943
0.00166264
8.21645e-09
2.30302e-09
7.85619e-09
1.81828e-08
0.00143475
5.53559e-10
7.77937e-09
0.00195911
0.00116558
2.34664e-08
3.72156e-08
1.41915e-08
1.39928e-08
0.00125785
3.53446e-09
0.00211839
1.92332e-07
0.00331106
5.13514e-09
4.54017e-08
1.92475e-07
2.03586e-06
8.61399e-08
4.50116e-10
2.14216e-09
1.28778e-07
0.00262994
6.63403e-09
7.52504e-08
1.96907e-06
6.33836e-07
1.17643e-07
3.39855e-07
1.40881e-09
1.15256e-06
1.71288e-07
6.10047e-08
4.49616e-09
0.00320873
6.35599e-09
2.19093e-09
2.0898e-07
3.63781e-07
9.28934e-09
4.40478e-08
6.19328e-09
0.00248984
4.4211e-09
2.04965e-10
6.87705e-09
6.45754e-08
2.10288e-06
8.19225e-07
2.21009e-09
0.0030222
0.00202115
2.44601e-08
2.25926e-07
1.53791e-08
1.91761e-08
2.52593e-07
4.10942e-08
4.53058e-08
2.0053e-08
1.57736e-09
1.64735e-09
2.51328e-07
4.08584e-07
3.95835e-10
4.32832e-08
0.00402082
2.20852e-07
1.58414e-08
0.00245497
3.71493e-08
0.000365618
9.66654e-10
1.18511e-07
2.03857e-07
1.19535e-08
1.71121e-08
1.12025e-09
8.42793e-08
2.17207e-09
5.14313e-09
8.2758e-09
5.69666e-09
7.81684e-09
1.3495e-06
5.41923e-08
1.6056e-08
2.58713e-09
6.89086e-09
9.71456e-09
7.04606e-08
2.48644e-08
1.7179e-08
3.47034e-09
4.94926e-09
3.86166e-09
2.18021e-09
6.32169e-06
3.29935e-08
2.48952e-09
0.00339746
0.00370813
3.02347e-09
0.00383468
1.82768e-08
5.2658e-09
0.00150514
3.55812e-10
1.35525e-08
0.00178835
2.07009e-09
0.00038488
4.29178e-08
2.398e-09
4.52338e-08
2.9771e-06
1.48205e-08
5.0663e-09
8.92531e-06
0.000167118
1.87095e-08
7.50068e-06
1.86486e-08
2.28051e-09
3.17204e-08
1.91931e-09
5.28996e-09
1.47371e-08
1.91624e-08
1.61906e-08
2.58197e-09
2.24596e-09
0.0007685
1.71496e-09
1.596e-08
1.02511e-05
1.51888e-08
1.81185e-09
1.22016e-06
2.30444e-08
8.60911e-09
0.000539254
7.77724e-10
7.81447e-09
1.99304e-07
1.60527e-09
4.5407e-08
1.35736e-09
2.81858e-10
4.37367e-10
0.00200348
2.31346e-09
0.000732638
4.10014e-08
0.00320709
1.49538e-08
3.34071e-09
0.00031335
1.21041e-09
1.29402e-08
1.78237e-08
1.67856e-08
2.07684e-09
0.00316752
8.00607e-09
1.64626e-08
8.535e-10
4.2261e-08
9.28495e-07
0.00264887
0.000349776
7.20693e-09
7.94111e-09
1.6887e-09
2.78871e-09
0.00349926
1.38554e-08
4.54941e-09
2.36299e-09
0.00108762
0.00396391
1.51632e-08
1.25848e-08
1.63595e-09
1.08793e-08
4.36189e-09
4.21673e-09
5.21959e-09
4.9129e-09
3.65458e-08
7.84109e-05
7.20568e-09
5.02767e-09
8.14653e-09
1.88406e-08
2.54302e-05
0.00243656
1.14379e-08
0.00266349
1.68498e-09
9.0943e-09
4.45292e-09
0.00269474
0.000211221
1.22095e-09
8.6907e-09
8.48916e-10
2.96947e-08
6.46378e-09
2.89084e-09
0.00156991
0.00323686
1.36093e-07
1.66763e-07
0.000607879
1.44896e-09
5.32047e-09
1.60295e-09
4.25321e-07
0.00218771
3.53107e-08
1.72899e-09
0.000439478
7.52679e-09
3.18432e-08
3.73015e-09
2.36155e-09
4.43187e-09
9.26095e-10
7.69861e-06
1.01985e-09
0.00187973
5.12004e-08
1.16265e-07
6.86666e-09
1.56392e-06
3.44523e-06
5.39778e-09
2.259e-08
0.0023948
0.00320503
7.3509e-08
3.85085e-09
7.83912e-07
1.84802e-09
0.00356613
3.21879e-10
2.05709e-08
0.000428465
0.00255493
4.44602e-09
1.56993e-09
2.03061e-07
6.09941e-07
3.53433e-07
0.000378102
0.00143903
1.29261e-10
6.81693e-09
1.05471e-09
4.71788e-09
0.00277465
2.71374e-08
0.0030293
1.00767e-08
0.0013551
0.00214892
0.00245356
6.39665e-08
4.2971e-09
0.000650633
1.26585e-09
2.28005e-10
1.00759e-09
4.34085e-09
1.87111e-08
4.96303e-09
1.50016e-09
9.22043e-08
6.93678e-08
8.29968e-09
2.72674e-09
0.00193324
4.17911e-08
3.68563e-08
0.000362112
9.88837e-09
3.47291e-08
3.819e-08
1.93635e-09
1.37971e-09
0.000646935
0.00196306
0.00241493
3.81225e-09
1.10555e-08
6.97294e-09
1.63386e-07
0.00194564
1.35695e-09
5.67007e-07
2.63709e-08
1.32264e-05
0.000344566
0.00169865
2.24931e-07
1.48085e-07
2.23234e-08
0.00445021
0.000532172
1.89372e-08
8.89559e-07
3.8855e-09
7.11903e-08
3.46432e-06
0.00231962
2.45361e-08
1.25176e-07
1.00242e-07
1.59046e-05
2.48786e-08
0.00185644
2.34426e-09
5.16664e-08
1.1555e-08
0.0021301
7.07263e-10
6.36464e-09
2.05121e-07
4.44231e-06
0.000599783
1.13723e-07
6.99673e-08
0.000383649
4.1471e-08
2.53672e-09
0.00196692
0.00219658
5.44949e-09
8.16474e-09
0.000401565
1.00527e-08
1.73936e-08
0.000373922
3.49347e-10
0.00273912
2.54051e-09
1.93325e-08
1.87988e-07
4.19755e-09
3.93553e-08
3.59174e-08
4.98438e-05
3.7498e-09
6.10842e-09
7.09133e-09
1.17342e-08
9.70691e-08
1.49574e-08
0.000326092
7.13668e-09
2.06115e-08
0.00145237
5.69057e-08
9.84866e-08
8.77705e-06
0.00193763
2.37355e-06
0.000541309
6.96461e-09
0.000383077
1.35845e-08
2.87891e-09
1.59061e-09
0.0032432
3.95652e-07
3.24051e-08
7.11739e-05
6.66733e-08
0.00162731
1.69309e-07
9.80969e-06
3.56072e-09
0.00100438
3.33117e-09
0.00130478
5.36406e-05
2.43457e-07
0.000651795
0.00185339
1.21114e-06
1.11342e-05
3.96182e-09
1.12878e-06
2.58349e-08
4.09581e-05
0.000444828
0.000428756
0.00216479
3.61115e-08
3.18382e-08
0.000561237
4.53091e-08
0.00235276
6.36741e-10
0.000401152
2.38331e-09
2.82764e-09
2.9422e-05
0.000503649
0.00020634
0.000108642
7.69134e-09
5.06522e-09
1.90683e-09
0.000487196
2.18479e-09
0.00350956
0.00489757
2.57157e-09
0.000499716
2.04932e-09
8.77298e-10
2.91855e-09
3.2373e-06
0.000469623
2.99667e-09
1.30189e-09
1.05618e-06
4.3365e-09
1.15337e-07
3.87466e-09
3.10403e-09
8.80639e-08
2.63824e-07
3.11167e-08
1.07248e-08
0.000532565
8.29431e-10
0.000127602
2.75986e-10
2.49894e-09
0.00128085
1.50726e-09
7.75435e-06
8.98254e-08
7.41303e-09
0.000108824
1.27002e-08
0.00161953
2.72408e-08
4.92299e-10
0.00179983
5.95692e-09
1.17778e-08
0.000307131
1.24969e-09
0.0021286
1.74682e-08
1.63547e-09
0.00438347
3.05617e-09
5.65072e-09
1.49163e-08
1.64756e-08
0.000319936
8.36156e-09
5.60219e-09
1.68988e-07
0.00180906
0.000633465
0.000584028
2.24182e-08
1.85789e-09
0.000379941
0.00245101
7.1774e-09
8.57443e-09
5.56713e-08
1.19086e-08
3.18046e-09
2.54416e-08
0.000412227
0.00149966
0.00271637
1.49187e-07
2.03985e-09
0.00276276
0.00414698
0.00538705
5.05304e-08
1.80268e-08
1.63688e-07
4.37277e-07
1.80618e-08
2.91867e-08
7.86567e-07
2.84166e-08
7.5047e-09
8.16493e-09
1.35642e-06
7.1949e-08
7.37325e-09
0.00254231
1.66615e-09
6.02729e-08
1.87654e-08
2.90496e-08
6.47467e-09
3.80532e-10
0.000761134
1.88118e-08
3.20887e-09
0.00193671
1.91519e-08
2.39086e-08
0.00328146
3.0154e-08
3.3472e-07
5.68188e-09
2.01738e-08
2.49899e-08
0.000825821
2.92852e-08
0.00227488
1.89322e-07
2.05102e-07
3.66618e-08
0.00552392
0.000294938
4.60746e-09
5.29797e-09
9.92313e-07
1.44472e-09
1.23186e-08
8.49659e-09
0.00173778
1.18072e-09
2.40127e-09
8.43747e-09
2.46926e-09
3.69447e-08
2.37367e-08
7.51701e-09
0.000429215
0.00219287
0.000466222
6.53112e-08
0.00314138
0.00256341
5.57647e-08
2.03199e-09
0.00190891
6.44617e-06
0.00154628
0.00208235
0.00203142
3.3209e-09
6.00569e-08
0.00237846
2.06188e-07
3.28975e-08
1.87708e-07
2.75054e-08
0.000443739
2.19225e-08
0.000538421
1.69252e-05
2.67162e-08
0.00196168
2.06868e-08
0.000608724
6.87963e-09
1.62553e-08
1.2056e-09
4.14014e-08
0.00158869
0.0037748
1.29084e-09
0.00039562
0.00195778
0.00140253
0.00278173
5.63606e-10
1.04358e-08
1.21687e-09
0.00355398
8.97367e-10
1.34518e-07
0.00355891
5.8452e-09
0.00359784
0.00351532
0.00379017
1.54422e-08
5.72947e-08
4.60654e-08
9.14248e-09
1.1023e-08
6.09148e-08
1.30869e-08
5.36158e-09
0.000475223
3.59269e-09
3.70068e-08
2.86254e-07
5.58003e-10
0.00168193
2.93987e-08
4.52318e-09
6.89277e-08
2.7758e-10
7.00904e-08
3.78846e-09
2.0328e-07
0.00318939
3.14559e-05
8.80155e-10
1.56365e-08
0.0021785
0.00314933
1.78389e-07
0.00076026
1.02393e-08
7.80657e-09
0.00257383
2.32963e-08
0.00322072
0.000542245
1.04723e-09
7.40523e-08
0.000765797
1.71478e-08
2.50029e-08
0.0026008
6.44178e-09
1.40721e-08
3.12257e-09
0.000534602
3.15567e-06
0.00197482
1.81807e-07
9.39608e-09
0.00181785
1.3108e-07
2.53823e-10
5.95343e-06
2.23681e-09
7.23146e-07
0.00133354
2.73825e-09
8.99825e-10
1.17513e-08
5.91736e-09
1.54762e-08
6.02802e-09
1.30374e-08
1.03686e-06
9.57606e-10
1.33487e-09
0.00176181
4.63098e-09
5.4331e-06
2.92982e-08
5.50702e-06
1.28408e-06
1.21213e-06
5.33482e-06
1.25962e-06
5.3702e-09
1.65138e-08
0.00100308
3.30116e-06
2.48175e-08
2.24973e-08
2.49213e-08
0.000449091
1.36856e-06
8.06966e-08
2.28884e-07
3.71197e-09
0.00226264
5.41874e-09
1.23298e-08
2.1704e-08
1.18454e-08
2.99263e-08
0.00212593
5.59028e-08
2.41715e-08
1.8692e-08
5.06953e-09
0.000477736
2.27126e-09
4.89195e-09
3.34243e-08
2.49587e-10
1.48599e-09
6.98543e-09
9.30097e-09
1.37144e-08
0.000333159
1.18995e-08
1.31438e-08
2.599e-09
2.0121e-08
1.22331e-08
1.01212e-08
5.85465e-08
0.000380629
0.00250604
1.58158e-08
8.23523e-09
0.00284481
1.69177e-09
4.31619e-05
0.00203021
4.94725e-09
7.12455e-07
1.5281e-06
0.00186593
2.1976e-08
3.19817e-08
2.25342e-07
1.74253e-05
8.68176e-07
2.10137e-07
1.39276e-09
3.80008e-09
4.2703e-07
1.09249e-07
5.5695e-09
1.5605e-09
1.2282e-08
7.55901e-09
3.05267e-06
0.00129409
6.41257e-08
3.76416e-08
5.33611e-08
0.00264619
0.00253914
9.22142e-07
1.51363e-08
3.42596e-08
4.01422e-08
4.61065e-09
2.89522e-09
1.81495e-07
4.21977e-09
3.45712e-08
1.95042e-09
1.31417e-08
2.26687e-08
3.19837e-09
4.13064e-07
2.81236e-09
0.00043443
9.5036e-08
0.00394803
0.001652
1.12394e-07
2.14614e-08
0.0005797
0.000345169
2.9126e-08
2.43359e-08
9.30665e-06
2.29936e-09
1.9783e-09
2.40179e-08
1.80979e-08
0.000781456
0.000646992
1.0019e-08
1.21502e-08
7.86502e-09
3.44536e-07
5.03982e-08
0.00275957
0.000496413
1.38679e-08
0.000238786
7.37583e-09
0.000315462
0.000227781
0.000223594
2.81902e-08
1.06513e-07
1.87955e-09
1.0182e-07
2.53643e-08
0.00240352
4.88678e-09
4.28281e-08
7.08999e-09
7.69733e-08
2.29734e-05
0.00194507
0.00235639
2.25918e-08
3.08566e-08
0.000377624
4.0335e-08
1.04102e-06
1.04083e-08
0.003112
4.19725e-08
2.13984e-08
8.52339e-06
0.00262268
6.84882e-08
2.28427e-08
0.00131293
2.1246e-08
4.6591e-10
1.39558e-09
4.25146e-09
3.20571e-08
1.38115e-08
6.32159e-10
2.21759e-08
3.71e-08
1.22682e-08
6.56088e-08
1.85051e-08
5.73236e-07
0.00198574
3.07551e-09
1.63175e-08
5.62594e-08
0.00200062
8.69474e-07
2.02238e-08
0.000373946
3.02815e-09
2.25158e-07
1.52141e-07
0.000983777
3.5954e-07
3.21988e-10
1.2201e-07
1.40214e-08
1.22679e-07
5.0782e-08
3.26104e-09
1.47541e-07
6.88374e-09
8.97209e-08
8.17698e-10
0.000584266
5.20447e-08
0.00213699
1.33984e-09
5.822e-08
2.14634e-06
1.07429e-08
4.86529e-06
5.03922e-09
6.57513e-10
2.46937e-07
4.32555e-08
4.83477e-09
1.74465e-05
6.10903e-08
7.64218e-08
0.000547252
3.09114e-09
0.000563699
3.16319e-08
2.26845e-09
7.7675e-09
5.78844e-09
1.98145e-08
3.94156e-07
3.23186e-07
1.49934e-07
0.0024686
2.14462e-07
0.00394811
0.00209541
0.00329166
8.50111e-08
2.28463e-07
0.00143522
3.95519e-09
2.48269e-08
2.94694e-08
0.00236991
9.01061e-09
0.000635588
0.000492196
2.80099e-09
0.00262603
5.04324e-06
0.00263987
1.89029e-08
0.00249646
5.59351e-08
0.000340301
1.6696e-09
4.12327e-09
4.27157e-08
0.000746738
7.78028e-07
4.14839e-10
2.69337e-08
6.35029e-10
0.000532966
0.000313619
5.69635e-08
0.0019093
4.56351e-07
0.000544689
3.1931e-08
5.68777e-10
6.15602e-09
2.72602e-09
8.94116e-08
2.03977e-05
5.91375e-09
1.32816e-06
4.54347e-08
4.22252e-08
4.79272e-09
9.88256e-05
2.2442e-07
1.92423e-09
6.45171e-09
0.000432446
1.08026e-06
7.77228e-08
0.00152078
1.76584e-06
1.49038e-06
7.64465e-09
8.58963e-09
3.95034e-09
0.000681683
2.79378e-08
5.55769e-09
1.55133e-08
3.63848e-07
9.94615e-07
2.08181e-07
1.8211e-09
3.21726e-06
6.72491e-07
7.51095e-09
5.97332e-09
5.51154e-06
2.46233e-09
5.13902e-09
0.00246564
0.00229144
6.18517e-08
4.67679e-09
1.14556e-09
3.35074e-08
0.00192943
2.6019e-07
1.38192e-06
5.94875e-10
5.50811e-07
3.38472e-08
0.00112023
0.000444875
7.07019e-07
2.45713e-08
3.47773e-06
5.35281e-07
0.000100634
2.22449e-09
1.89102e-08
0.0011882
2.55202e-08
7.81532e-07
5.8937e-07
2.03522e-06
1.22086e-06
1.21748e-08
0.00162267
1.30836e-05
2.46354e-09
1.20769e-08
4.69236e-09
0.000427672
0.000113413
1.88617e-08
0.000637651
1.21947e-07
7.25424e-05
0.0029244
0.000398953
0.00281974
0.00183707
0.00221777
4.49896e-10
2.82027e-06
8.39057e-08
3.51419e-06
1.48598e-05
2.21486e-06
2.01798e-09
3.97604e-07
1.52565e-08
3.30221e-07
0.000761567
2.87951e-07
8.8485e-10
0.00178397
1.45876e-07
0.000207825
1.83214e-07
4.23637e-07
5.14366e-09
4.01308e-07
2.20072e-07
0.00156872
2.09902e-07
3.56278e-08
1.50079e-07
2.6038e-05
0.00129738
0.00136293
0.00294039
4.92957e-09
0.000502806
0.0015511
0.00175307
0.00149454
2.42642e-07
0.00224597
2.68434e-07
4.91662e-09
5.16555e-09
6.9718e-09
0.00152613
0.00183428
5.59508e-09
1.46133e-08
8.39789e-09
4.23258e-07
0.000298097
0.00368308
0.00140458
8.22447e-08
0.00247911
8.60488e-10
3.62294e-08
0.0011295
0.000804569
5.33525e-09
2.72828e-06
1.21677e-08
6.6066e-09
0.00351976
6.37779e-09
0.000423336
1.17672e-09
0.00037871
0.000405405
0.000581334
0.0019834
3.39039e-07
0.00161671
1.2667e-08
1.17397e-05
0.00046054
0.00124703
0.00220792
0.00109665
7.52735e-09
0.00124442
8.96827e-09
1.5962e-08
0.00292754
1.64013e-07
6.61022e-06
5.66993e-08
5.38533e-08
0.000573392
1.43591e-06
3.32085e-09
1.4938e-07
4.35957e-07
0.000403272
0.00219855
2.81469e-07
7.61865e-09
0.000614679
1.82041e-08
1.56612e-08
5.24353e-08
6.03515e-07
0.00214101
3.87235e-09
0.00241695
8.42246e-10
0.000256112
0.00433592
8.69936e-09
3.03879e-06
0.00253104
4.97384e-05
5.19702e-06
2.46139e-09
0.00177918
0.00277877
5.17351e-10
0.000489115
8.38413e-07
0.00061878
1.49329e-08
8.48395e-07
5.1191e-07
3.52267e-08
7.72636e-11
0.000345754
0.00131474
6.42419e-09
1.19712e-09
0.00218219
1.11207e-08
2.20414e-09
3.57848e-08
1.87649e-09
7.87401e-08
0.00364271
0.00209369
2.73764e-08
5.44503e-10
0.00221238
2.0324e-07
0.00277862
2.86652e-09
1.91468e-06
4.5522e-08
7.62394e-09
2.74831e-09
1.07318e-08
0.00333606
5.03598e-09
2.80038e-07
0.000274718
0.0024552
0.000453101
1.42173e-08
1.17506e-06
2.56866e-09
0.00022909
0.00234645
8.88785e-10
3.74566e-09
3.97794e-08
3.45808e-08
0.000502527
2.73826e-07
0.000529725
1.99827e-07
6.88175e-09
5.89217e-11
4.97322e-08
0.000221123
0.000394063
5.64623e-09
0.00395499
0.00252831
9.09915e-09
3.20002e-10
3.46545e-09
7.51535e-09
4.0151e-09
1.83348e-08
0.00275367
0.000620057
0.000514083
7.75978e-05
0.000348272
0.000381677
2.9312e-09
4.27272e-08
1.24676e-09
3.07158e-08
1.88741e-08
0.00234565
1.09434e-08
5.08539e-09
0.00115986
1.97722e-08
8.00569e-08
8.80872e-08
1.80138e-09
8.37413e-08
3.46924e-08
0.00226922
4.98617e-09
1.47478e-08
4.22928e-09
1.63281e-08
2.13326e-08
0.00387201
4.52797e-07
1.16804e-07
7.31371e-08
1.06661e-09
4.5343e-05
1.16344e-06
3.52125e-09
5.78042e-07
1.25755e-05
9.91839e-09
1.12724e-08
1.03831e-05
3.80398e-06
2.49958e-07
0.00304119
4.06898e-09
3.97034e-07
1.48391e-06
0.0029155
2.24958e-07
4.0006e-10
1.9228e-06
1.76355e-05
3.43847e-07
1.04129e-08
1.70664e-07
4.55614e-08
6.62228e-08
2.00885e-08
3.31375e-08
0.00185108
2.00007e-09
1.18082e-08
1.08791e-08
6.61414e-10
4.6564e-09
8.41388e-10
0.00421513
1.25138e-07
2.36527e-09
3.31824e-09
3.3559e-09
1.08687e-09
5.03562e-08
5.14767e-09
2.82601e-09
5.57789e-08
1.33829e-08
0.00228524
3.06348e-09
0.000384399
3.53808e-08
1.16813e-07
1.81305e-08
1.21218e-06
1.03085e-09
0.00316069
9.47888e-09
0.00178982
2.97529e-07
4.02364e-08
1.21832e-08
1.83047e-06
2.54967e-09
3.76665e-09
2.97909e-09
0.000259143
0.000626659
0.00213656
1.00496e-07
1.58715e-07
0.00227954
1.72363e-06
3.42354e-09
1.34479e-08
2.97972e-07
1.07152e-08
0.00425429
2.79996e-06
0.00317195
2.92171e-08
7.65269e-09
0.00158931
0.00149235
0.0018052
1.71063e-08
1.47468e-06
0.00194086
1.71025e-09
1.23226e-05
1.57023e-07
0.00183817
0.00045933
1.81197e-07
0.00238542
2.04646e-05
6.20288e-07
0.00205371
0.00224198
1.89393e-08
0.00245144
0.00311765
0.00186892
2.55839e-08
4.35313e-09
6.41238e-09
8.69117e-10
2.85372e-09
0.00162981
0.00284849
0.00182467
2.89867e-09
0.00303294
2.74315e-09
0.00228102
0.00258044
5.88003e-09
3.78303e-08
0.00170904
2.46317e-08
1.34199e-08
3.23086e-07
4.62036e-10
0.00264523
0.00204199
8.28039e-07
0.00163449
4.89651e-09
3.04131e-09
7.07206e-09
3.31814e-08
6.95757e-08
3.17487e-07
1.22646e-09
5.55988e-09
1.4913e-08
8.35582e-09
6.19017e-09
1.04333e-07
3.58322e-10
2.30092e-08
2.1111e-06
1.2053e-08
3.5569e-08
2.75091e-09
1.23398e-07
1.54337e-09
5.23219e-09
2.22386e-07
1.67404e-09
3.05499e-09
0.00194074
3.4657e-08
5.34693e-09
6.75681e-07
3.07393e-09
1.46705e-08
4.79052e-08
0.00185737
9.29264e-08
0.00220811
0.00153839
1.70403e-08
2.05444e-08
5.75658e-08
6.20502e-09
0.00163038
4.94128e-08
2.24822e-07
3.665e-07
2.88775e-08
0.00243796
0.00154747
1.94864e-09
3.20054e-09
6.99946e-09
6.37613e-08
5.91515e-08
7.54225e-09
4.30296e-07
5.07663e-09
1.48945e-06
2.49066e-09
1.55861e-09
6.49925e-09
1.66341e-08
2.33097e-07
7.75282e-09
1.88623e-08
0.00444196
0.00150028
0.00265777
0.00160671
1.48701e-06
1.18351e-08
0.0020824
6.93943e-07
6.76129e-09
0.000410059
1.34397e-09
1.5083e-07
0.00242345
4.41283e-08
1.31447e-07
2.30311e-08
4.45499e-08
0.00139997
8.48966e-09
1.05891e-09
2.11657e-07
2.68331e-09
4.86662e-07
5.96233e-06
6.70831e-08
0.0021111
4.33802e-08
0.000460501
2.6508e-07
0.00209898
4.05758e-10
4.98389e-09
2.67953e-07
4.07523e-09
0.00184101
3.84199e-07
0.000518396
1.49302e-07
1.83599e-07
1.38813e-07
2.65662e-08
8.79854e-09
4.96839e-08
3.01082e-06
4.10828e-08
2.592e-06
0.00336717
5.30292e-08
0.00421541
5.65218e-09
2.6101e-09
4.54338e-06
0.00186442
1.42005e-08
1.32326e-09
9.01725e-07
5.6655e-08
3.37029e-08
0.00233959
1.34625e-08
6.14144e-07
0.0027118
1.35726e-09
8.03025e-09
4.17908e-07
9.71902e-10
8.50908e-09
0.00261851
4.77574e-09
0.00285927
2.31059e-08
2.15524e-07
3.93593e-08
0.000894219
6.01785e-08
2.79153e-08
1.48788e-07
0.0026217
1.58883e-06
1.25817e-08
9.27817e-09
1.2442e-07
0.002073
3.17316e-09
5.19263e-08
6.31172e-08
1.6026e-06
0.00261547
0.000270068
0.00119083
1.73664e-08
0.000358052
1.14463e-08
8.97833e-07
0.000789711
1.18924e-08
0.000880813
3.28106e-06
4.90053e-09
2.64194e-09
1.20882e-08
0.0026179
1.51537e-08
2.7655e-09
2.59471e-07
1.12498e-08
5.52353e-09
0.000301468
2.97811e-09
4.46695e-08
0.00251959
1.2663e-06
4.50331e-09
0.00210874
3.25924e-06
6.74659e-09
1.38503e-08
1.20214e-05
4.30773e-08
2.22669e-07
1.71168e-08
4.14719e-08
6.08258e-08
4.75408e-06
0.0010975
4.86394e-08
0.00248236
1.50816e-08
3.94007e-08
0.00274475
3.20472e-08
7.8315e-08
9.87668e-09
1.33908e-07
0.00244804
3.13581e-08
2.21469e-08
0.00163521
5.92989e-09
0.00276016
1.42234e-09
8.33731e-09
1.02212e-09
9.35918e-09
0.00151667
5.39608e-08
1.42234e-09
2.65737e-09
1.43179e-08
5.29087e-08
0.00265464
4.78635e-09
4.56534e-09
1.88825e-09
1.54668e-07
5.28711e-06
5.04357e-09
0.0015698
3.49986e-08
9.57322e-09
6.61896e-09
5.12163e-08
0.000429644
6.72321e-07
1.54832e-10
9.82192e-10
0.00187814
0.00217014
6.1408e-08
3.90886e-09
0.00183553
1.6899e-08
8.19729e-10
0.00355998
9.50673e-09
0.00275317
2.8968e-07
1.80652e-08
1.94887e-08
9.82533e-09
9.63605e-09
4.39294e-09
3.05306e-05
7.46066e-07
2.26503e-09
4.2168e-08
5.62875e-08
5.61436e-09
0.00267623
8.67905e-09
1.38522e-08
0.00197409
2.61951e-08
3.59705e-08
3.12818e-10
0.00228721
2.82885e-08
1.34338e-07
3.53301e-09
3.70022e-08
4.0411e-09
0.00233774
6.19566e-09
7.01674e-09
0.000616997
1.12164e-08
7.37812e-09
0.00241574
6.53465e-08
3.83771e-10
3.14586e-08
5.79094e-09
0.00188366
4.57096e-07
6.08449e-08
3.50529e-09
4.08487e-07
1.41082e-07
9.25331e-09
1.35465e-09
1.03375e-09
3.50383e-08
1.05395e-08
8.03057e-10
7.1298e-09
6.35916e-09
1.01781e-08
0.00239708
7.19914e-07
1.47584e-08
2.14765e-09
9.00014e-10
0.0021998
1.93717e-08
0.00339879
9.40025e-07
0.00163969
7.75608e-10
0.00222932
0.00302504
9.35796e-09
9.29669e-09
8.96038e-08
0.00217876
0.00251642
3.09493e-07
8.06641e-09
2.49484e-07
1.04292e-09
2.20084e-07
9.17368e-09
9.42188e-08
1.67113e-08
1.312e-09
3.97092e-09
1.02708e-09
6.52793e-09
9.53382e-09
3.77694e-09
5.07406e-09
1.5802e-08
9.02496e-08
3.08089e-11
3.37492e-09
7.60073e-10
5.98531e-09
1.4314e-09
1.73359e-07
0.00196476
0.00289173
4.72304e-09
0.00230939
1.46639e-08
3.21594e-09
4.85491e-09
1.64465e-06
1.79768e-07
7.18626e-08
1.01973e-09
1.09637e-08
2.21524e-09
8.32722e-09
1.66335e-09
1.37668e-08
1.41336e-07
0.00164243
2.44585e-09
2.11293e-08
0.00145444
0.00184818
0.00227145
0.00206369
0.0017651
4.75235e-08
3.77396e-08
3.02775e-09
8.42667e-09
7.60016e-09
1.39215e-06
3.92574e-09
3.01544e-08
3.54207e-08
7.40637e-09
2.41799e-09
2.61342e-09
7.63296e-07
3.15507e-06
3.98329e-07
6.0206e-09
1.90771e-09
3.69976e-09
0.00294806
2.56115e-09
0.00192118
1.10423e-07
8.79056e-09
7.5236e-07
0.00105424
6.75609e-08
4.0142e-10
3.83263e-09
3.19235e-08
1.49997e-09
2.36658e-08
1.15873e-09
0.00114507
3.69451e-10
4.18219e-08
0.00284538
2.9584e-09
0.00137988
5.88258e-08
0.00223809
9.88898e-08
0.00126211
3.54046e-10
0.00289535
0.00240055
2.77342e-08
4.23913e-09
0.00162762
2.0639e-08
0.0018693
1.69218e-08
8.15845e-09
5.05088e-10
1.67751e-08
2.04181e-08
1.50248e-08
6.53525e-07
0.0029226
0.00166185
1.22847e-06
3.4941e-09
3.4664e-07
0.00315846
0.00141654
0.00245263
0.00243249
5.32544e-09
6.09954e-08
2.74936e-08
1.24904e-08
0.00314721
6.65356e-09
0.00153838
0.00333259
5.45584e-09
3.2795e-09
0.00166387
0.00313809
2.95674e-08
7.06536e-10
0.00174271
8.892e-08
2.56392e-09
4.8522e-07
9.65547e-08
0.000406234
7.35722e-08
5.84043e-08
2.57069e-07
2.8079e-07
9.54355e-08
3.88905e-09
4.97062e-09
1.16242e-08
2.13555e-09
2.13032e-08
8.66564e-09
1.99089e-10
2.18249e-09
0.00206988
0.00293917
3.21499e-10
2.56798e-08
6.65089e-09
3.29499e-09
4.81664e-07
1.95019e-08
2.51834e-09
0.00270668
0.00156101
0.00144854
0.00168205
4.90175e-08
0.00136265
2.55046e-07
0.00390923
6.34704e-10
0.00235461
2.72014e-08
3.65973e-08
1.554e-07
5.71632e-10
0.00305537
1.85574e-07
0.00423637
6.10041e-09
1.29282e-09
9.9181e-09
9.08122e-09
0.00139204
0.00297232
1.44957e-10
2.89465e-09
2.48035e-08
0.00167429
4.07674e-09
0.00291972
3.5203e-07
1.83583e-09
5.73155e-09
0.00249951
3.56183e-08
0.00221643
8.48286e-08
0.00395661
0.00330753
7.99049e-08
2.17512e-09
0.00365677
8.81262e-09
8.51248e-07
0.000344637
1.60802e-08
1.4062e-07
2.27797e-08
9.13919e-09
0.00311041
5.29729e-09
7.37503e-08
3.51984e-10
7.17134e-08
6.91954e-09
4.7965e-09
1.54608e-08
1.00463e-08
1.7863e-08
0.00300732
2.19201e-08
2.50818e-08
4.85746e-09
1.42969e-08
9.16806e-09
8.90517e-09
1.19961e-08
0.00226172
8.1047e-09
0.00303352
0.00189482
4.94512e-09
0.000360672
2.90068e-09
3.38575e-09
2.72054e-08
3.47549e-08
3.10111e-08
0.00158138
0.00209707
1.12658e-07
1.04764e-07
8.69521e-08
0.00317783
0.00110979
4.82374e-08
0.00216282
0.00453518
1.26846e-06
0.00259029
0.000410464
6.46978e-09
7.82816e-07
2.51319e-08
0.000563895
6.79642e-10
0.00261307
3.0827e-10
2.43555e-09
0.000636412
0.000341713
1.76046e-08
0.000460459
4.2743e-08
1.08198e-07
2.5756e-08
2.80142e-09
4.11049e-07
2.85915e-09
5.2365e-09
0.00243081
1.33529e-08
1.39015e-08
4.52739e-09
1.22002e-07
1.65773e-09
4.57254e-05
3.08294e-08
2.03629e-08
7.97456e-08
1.68678e-07
0.000297091
0.00227193
4.30402e-08
7.04838e-09
0.00243379
0.00234085
3.69831e-08
2.33856e-08
1.24944e-08
3.12729e-09
3.16072e-08
1.10607e-08
0.0020016
0.00447833
6.63344e-09
2.26767e-09
3.86352e-09
6.26659e-09
0.00254956
0.000394482
1.75818e-09
1.88892e-08
1.66489e-08
0.0021193
1.05285e-05
1.09124e-06
0.00194326
2.49114e-08
2.41403e-08
5.02841e-09
4.26261e-08
2.62145e-08
0.00220485
5.38884e-08
0.0003106
5.50433e-09
6.28718e-09
0.00320625
0.00260367
7.55612e-09
0.00306992
1.07691e-09
1.47271e-09
4.53164e-07
5.07315e-09
3.28991e-09
0.00186883
2.664e-08
1.2395e-07
0.00385271
1.2809e-08
0.00155048
0.00311482
1.40497e-08
0.00330129
1.43067e-08
1.30748e-08
1.82722e-08
1.87078e-07
9.90806e-09
4.63682e-08
5.99099e-09
2.48874e-08
4.77225e-07
1.96838e-08
0.00232325
6.58276e-09
0.00310133
8.15789e-10
1.14538e-08
5.53868e-09
0.00231004
8.18264e-09
0.00230956
0.0019235
0.00319972
1.57436e-08
0.0020939
1.44885e-07
2.13978e-08
3.16717e-09
8.01738e-09
1.29405e-08
7.62969e-08
1.4733e-07
2.94515e-07
3.46678e-09
0.00291569
3.3017e-08
1.18348e-09
1.02742e-09
4.50403e-09
7.05931e-10
0.00206102
3.46925e-08
0.0029424
2.69876e-08
0.000624969
3.7108e-09
3.46792e-09
0.00182273
0.00346501
6.86137e-08
3.79504e-09
0.00375569
1.62873e-08
1.02554e-09
3.32606e-09
1.32391e-08
5.56722e-10
1.35842e-08
1.5154e-09
1.4037e-08
2.97134e-09
6.07416e-08
2.70348e-08
0.00246205
5.70702e-07
1.02247e-07
1.13807e-08
4.64789e-09
0.00215908
1.36938e-08
0.00298222
4.13592e-08
2.80914e-08
6.18927e-09
6.22646e-09
8.08519e-08
7.64334e-07
0.00134791
0.00121779
8.24743e-09
0.00381398
2.34757e-08
0.0028644
9.07565e-09
1.38489e-08
2.87277e-09
0.00269976
0.00132534
0.000427408
4.46658e-08
2.11864e-09
0.00133805
5.28819e-09
3.86372e-09
9.04328e-09
5.49958e-09
0.00245377
0.00209677
1.80552e-08
3.15108e-08
5.15909e-08
3.87681e-09
3.23778e-06
1.80813e-06
6.18785e-09
2.42073e-08
0.00163942
8.70104e-09
3.13103e-08
1.12784e-09
2.99889e-08
3.74488e-09
0.00235272