/*--------------------------------*- C++ -*----------------------------------*\
  =========                 |
  \\      /  F ield         | OpenFOAM: The Open Source CFD Toolbox
   \\    /   O peration     | Website:  https://openfoam.org
    \\  /    A nd           | Version:  10
     \\/     M anipulation  |
\*---------------------------------------------------------------------------*/
FoamFile
{
    format      ascii;
    class       volScalarField;
    location    "34";
    object      SgT;
}
// * * * * * * * * * * * * * * * * * * * * * * * * * * * * * * * * * * * * * //

dimensions      [1 -1 -3 -1 0 0 0];

internalField   nonuniform List<scalar> 
59698
(
0.0131532
1.35198e-14
1.87128e-15
9.80466e-16
0.0302152
4.83133e-18
0.0020154
2.20587e-15
7.13918e-16
6.65646e-17
1.40386e-15
1.39977e-15
1.56738e-16
3.32279e-15
0.000354084
1.39871e-16
1.06617e-16
5.0774e-16
9.01318e-16
0.00026079
0.001377
0.0139496
1.208e-07
1.02961e-17
0.0422492
5.29107e-16
1.0138e-15
0.00755296
0.0067614
0.00743125
0.00477642
1.11076e-16
2.19078e-17
0.0124732
0.00241918
2.77405e-16
0.0187692
0.0204513
6.04884e-15
0.0226824
0.00866714
1.26683e-19
0.00376267
7.23048e-16
1.73395e-17
0.0321902
3.32736e-15
0.000262127
0.000477776
8.977e-16
0.000233577
5.80064e-15
2.10015e-16
1.37533e-16
0.00922358
2.09819e-15
4.17946e-13
0.000211958
3.99589e-15
0.00274264
0.00344783
5.18794e-13
0.122394
3.11888e-15
0.0126071
6.89169e-16
3.25865e-17
2.85699e-16
2.31957e-15
4.28574e-16
7.91287e-10
1.6329e-12
3.33261e-06
0.0418948
6.21842e-19
0.0392061
2.72871e-16
0.0092523
0.000354687
0.00615421
0.00890065
1.53129e-14
7.45491e-17
6.29031e-16
0.00856075
6.76525e-17
6.84627e-16
2.39852e-15
0.0637921
1.75181e-16
1.71079e-16
0.00204034
0.0148913
5.19674e-16
5.44922e-16
7.55129e-16
0.0054103
1.13539e-14
0.000273389
1.21436e-17
0.0735669
0.00179508
0.0162609
0.0122433
1.42166e-14
1.43487e-16
1.35775e-15
4.64488e-16
4.40653e-16
3.7673e-17
1.41407e-15
3.07817e-15
0.0381371
2.99027e-18
3.54496e-14
4.66717e-14
3.09479e-14
5.14126e-14
1.95275e-14
3.77285e-17
1.49616e-15
1.92493e-14
5.17055e-14
6.8287e-15
3.16876e-15
1.08765e-14
0.0108038
2.57916e-17
1.79375e-14
2.03733e-14
0.0411681
3.52009e-14
7.86826e-17
0.100228
0.00424863
0.00440232
5.81413e-14
4.05578e-18
2.75606e-15
1.43963e-15
1.08919e-16
3.86019e-16
0.000227266
0.00187507
2.04328e-14
9.72638e-16
4.0826e-14
2.93597e-14
2.94701e-15
0.0293137
4.21245e-05
3.14765e-15
0.00152933
4.7431e-14
2.94843e-08
9.51684e-15
2.59478e-15
9.00839e-15
0.0123973
2.73613e-16
0.000856733
1.5355e-14
0.0164632
0.0016485
0.00338342
0.032271
1.1048e-15
0.0712222
0.000497963
8.87203e-16
0.0120356
2.34861e-08
0.0108037
0.0147387
0.0796018
1.30292e-16
3.78947e-17
5.08314e-05
6.95564e-16
0.00628971
0.00939088
0.0180376
0.0147001
1.07154e-15
0.0460262
0.000237815
0.0114305
4.61781e-16
3.88355e-15
0.000648223
2.47872e-18
1.49673e-15
0.00268513
0.0388151
0.00401433
7.57337e-15
0.00983184
0.0548914
1.40757e-05
0.00770154
5.80355e-15
0.00625817
0.0211367
6.31795e-16
0.00679609
0.00111012
0.00613367
0.000770212
0.00512734
0.00786667
1.05541e-15
2.77083e-16
0.000164451
1.73848e-18
0.00407551
3.56291e-15
2.1119e-15
4.43184e-17
0.0127441
0.00659489
0.00560516
0.000514818
8.08405e-16
0.0660783
0.000806152
0.0236534
0.00735485
0.00325197
0.00681932
0.158584
4.9177e-16
0.00474403
0.00290363
0.00324185
1.71265e-14
0.00983276
0.0828198
1.38945e-16
6.97067e-16
0.00044936
1.19334e-14
0.00146707
0.0135522
7.62709e-18
0.00609079
8.50798e-15
0.00376504
0.229324
2.08273e-05
3.30621e-15
6.34939e-10
0.000632199
0.000528185
2.10315e-16
2.94497e-15
0.000508422
2.6304e-09
0.00134286
2.49165e-15
2.55017e-14
6.92429e-06
2.33766e-17
8.5843e-06
2.13221e-09
1.08657e-09
0.0474695
6.34847e-15
2.91641e-15
3.62056e-16
8.49765e-15
5.82684e-16
0.043836
0.000154509
6.45452e-15
0.0179866
5.50641e-16
2.55626e-14
2.91724e-16
0.00206417
2.84442e-17
1.00103e-16
6.48418e-15
6.86139e-16
0.104277
0.0454508
0.020231
8.59675e-12
3.47129e-10
0.0727903
3.10152e-12
0.0920585
1.65459e-05
3.08476e-16
1.93358e-15
2.61527e-12
2.48141e-15
2.81204e-15
1.76739e-11
0.00423737
4.09342e-15
0.0027143
3.37774e-19
3.78018e-18
1.66311e-15
2.04411e-15
4.32305e-16
0.0521149
9.39253e-17
2.6574e-16
4.96656e-16
8.38473e-16
3.33107e-14
3.76037e-15
1.6512e-18
2.19615e-15
0.00129801
4.79971e-18
8.03121e-16
7.35304e-18
1.23083e-15
9.1591e-16
0.323651
2.02308e-15
1.12011e-17
0.0483427
0.0105608
7.91312e-16
3.74341e-16
0.000424564
1.15368e-16
0.00656892
0.00414395
0.0203057
0.206148
6.45643e-17
7.76647e-05
2.02646e-15
3.1181e-15
0.00908651
0.00325651
0.0101709
2.74784e-06
1.90218e-15
0.00147135
9.67831e-05
6.24776e-15
9.86765e-05
0.0396516
4.53664e-16
1.48259e-05
0.00797623
1.57298e-14
0.0399323
4.27607e-18
0.243281
0.000257392
0.0140185
3.22165e-15
9.43967e-16
5.3575e-16
1.7008e-15
2.17809e-15
2.23209e-15
0.000884597
1.70139e-17
6.68334e-18
7.93053e-16
6.45568e-05
1.93318e-15
0.00164321
0.00190947
2.51774e-15
2.38828e-14
3.30732e-17
0.00617889
6.66699e-17
2.28175e-15
1.78429e-15
1.70805e-16
2.10089e-16
5.73962e-18
1.93107e-14
2.22404e-15
0.000555736
1.33773e-15
1.30468e-05
2.54225e-16
4.04901e-17
5.61738e-17
1.04784e-15
1.80851e-16
1.11088e-17
0.00036908
0.00265568
0.00129587
0.00048663
0.0484815
2.27134e-15
3.9013e-15
3.07734e-15
0.000410626
2.26291e-05
9.13263e-16
7.04003e-15
2.72023e-16
9.58618e-15
0.0811285
0.0254486
2.26924e-05
0.00537437
0.0313447
7.15916e-16
0.000126302
2.17225e-15
9.27789e-16
0.059571
3.09753e-14
0.0103127
0.000510429
8.227e-05
1.32847e-16
1.17634e-14
0.000434579
0.308104
6.83442e-15
3.32801e-14
1.30085e-15
9.68885e-16
1.37383e-14
5.49048e-16
0.00028107
0.000184686
0.0151934
0.0030279
0.00210646
8.40994e-17
7.03968e-16
0.211467
8.95785e-15
0.00105742
1.62417e-18
8.65002e-17
1.81757e-16
1.36717e-16
4.75474e-16
0.00238156
0.0700272
2.43084e-18
2.74504e-16
0.00909271
5.34232e-15
1.77172e-15
1.36591e-15
0.0329927
1.53945e-16
3.27336e-15
0.108577
2.95521e-17
0.0097979
4.78034e-14
0.0542218
1.77504e-15
0.0127794
0.0133279
2.21664e-16
1.80103e-16
1.15952e-15
0.00846204
2.79093e-16
0.00805946
0.000370882
4.86446e-16
1.41107e-15
5.28148e-16
4.27731e-16
8.15803e-16
0.0011244
0.0689048
0.00228991
3.90383e-16
2.09361e-15
4.45594e-16
2.49037e-16
4.52398e-16
0.00541047
1.90961e-16
8.84548e-16
2.62696e-16
0.0657354
0.0017894
0.0229609
0.0656884
0.00113198
1.09167e-16
0.0549563
3.33438e-16
3.06283e-15
2.82457e-16
0.00952138
4.53911e-17
2.67859e-17
0.0638061
0.00717147
0.00420691
1.81829e-16
2.14839e-16
2.45303e-14
5.64891e-17
1.7902e-16
0.00315776
0.000378136
0.0747899
0.00717998
4.3102e-18
0.00908962
7.31468e-16
3.60421e-17
9.98982e-16
8.18022e-18
7.0302e-18
0.00545815
0.00377233
6.90518e-15
2.27763e-17
1.43808e-17
0.00126729
0.00952876
3.76626e-15
0.00732465
0.000197527
3.4607e-15
0.0391537
1.5766e-18
4.60137e-16
3.1038e-16
3.03141e-16
6.3571e-19
6.73597e-05
1.79217e-16
2.98098e-16
0.00973233
3.54692e-16
1.22838e-15
0.0676938
0.00817722
0.013518
0.0100352
6.30312e-06
0.0116866
3.86793e-07
2.00465e-14
6.6736e-16
1.14445e-14
4.16639e-17
1.8112e-15
2.40957e-14
6.33083e-16
0.00114815
0.00691972
0.000561936
1.63508e-17
2.85078e-16
1.0314e-14
8.42768e-05
2.57245e-15
3.64609e-18
0.0742953
7.84935e-15
0.00528033
2.45818e-15
0.00278203
1.27959e-15
5.03347e-16
0.000539527
0.000121891
0.000432808
1.7466e-14
0.00395518
0.000108219
5.9891e-17
2.60811e-18
1.39736e-15
0.00194342
5.8543e-16
0.00110494
5.11649e-17
5.45329e-10
5.40653e-16
0.00412996
0.000408238
0.000666518
0.000159011
8.12778e-16
1.1405e-15
3.02852e-17
1.23208e-14
1.21615e-12
0.00166105
3.20208e-18
8.79163e-17
0.00448016
5.38936e-08
9.64927e-17
2.90759e-14
1.48476e-06
3.67891e-06
1.02851e-15
3.01031e-18
7.27782e-08
4.66357e-15
7.64694e-16
6.34227e-12
1.01635e-15
6.67404e-11
6.45297e-10
2.89195e-11
1.03515e-15
0.225161
1.87755
2.68104e-15
6.54021e-16
1.09052e-11
2.57893e-15
0.000903442
0.000190563
4.9114e-16
0.00447103
7.5954e-17
6.21182e-16
1.88119e-16
7.56346e-05
5.75813e-16
6.04108e-16
2.0161e-15
3.0989e-16
2.80009e-16
3.67329e-16
9.53653e-16
9.18242e-16
0.106541
3.49581e-16
4.54195e-15
2.56588e-15
7.7964e-17
1.45348e-05
0.0037772
4.48649e-15
9.9383e-16
1.95972e-15
1.19228e-16
5.10624e-16
1.47525e-15
0.0083004
5.9528e-16
1.10548e-15
1.44886e-15
9.53107e-15
2.8113e-07
0.000326073
9.49074e-16
6.19326e-16
1.67466e-16
0.000891427
0.0196462
0.0916009
0.00137016
4.03891e-16
3.16307e-16
3.14471e-15
0.0416029
1.03628e-16
4.20723e-15
4.90688e-15
3.87568e-15
1.03651e-15
2.10375e-16
1.1653e-18
0.00788592
0.0473252
3.18688e-15
6.6654e-16
5.41116e-15
8.48739e-19
1.17624e-17
6.60891e-15
1.79484e-14
1.43148e-16
2.59932e-15
6.30239e-16
0.0086484
0.00439937
0.0363089
1.14435e-16
2.18487e-16
3.04178e-05
1.90075e-16
9.46874e-16
1.0008e-16
1.46467e-16
4.61052e-16
4.90047e-17
6.76951e-17
0.00663154
4.6421e-14
3.63334e-16
1.60714e-15
0.00642034
1.56018e-15
1.50933e-15
4.30262e-17
3.62503e-09
8.46301e-19
2.38037e-15
2.89992e-16
6.62955e-14
0.00196993
0.00914447
9.49445e-16
1.44827e-15
2.25673e-16
0.0598715
0.000815729
1.50896e-15
3.45505e-16
0.00144458
0.0258084
0.00683422
1.62408e-16
0.0553347
2.53418e-15
0.0025525
6.30162e-17
0.0077205
6.41966e-05
5.88121e-18
0.0112233
3.09552e-16
1.15265e-15
0.00307969
0.0607183
3.99279e-15
5.74524e-16
0.24656
6.17887e-06
0.00073966
0.000173275
0.001913
0.00169861
7.52213e-16
0.0134311
2.45225e-14
0.0600718
0.00309999
0.0225207
3.39297e-16
1.55048e-15
0.105232
0.236819
3.53638e-15
3.76962e-15
0.0497369
1.85566e-17
0.00224469
0.00519954
9.09742e-16
0.00610853
0.00409795
1.65623e-15
1.03908e-15
0.00197783
0.014185
5.98717e-17
1.40566e-16
5.909e-16
1.68849e-15
0.00432637
2.96523e-15
6.13206e-16
0.00609043
0.00523515
1.22968
2.35609e-17
0.024469
0.00969078
0.0210601
0.00107732
0.0047625
2.39432e-18
0.000950211
0.00163103
1.29106e-15
0.00666111
0.0111407
0.105831
4.91698e-15
0.00542925
1.11021e-15
1.62847e-15
1.0649e-15
7.11137e-16
8.69618e-16
1.72967e-15
2.50878e-15
1.97857e-15
0.00943419
0.000142471
2.71865e-08
4.46752e-16
7.47641e-17
0.00684127
3.3482e-16
3.73334e-16
1.0426e-15
8.09449e-11
6.19336e-05
0.0137081
9.661e-18
1.0643e-15
0.020112
0.210628
3.14148e-15
0.00872457
6.98807e-16
0.000643205
8.65026e-16
9.13747e-16
6.38532e-05
0.00082684
0.00741699
3.43885e-17
0.00627117
5.65753e-16
4.50728e-16
6.31181e-17
6.99696e-15
2.61246e-15
3.91213e-06
2.25674e-15
6.88834e-05
0.000209094
5.03563e-16
9.80268e-16
3.61163e-16
1.43828e-15
6.51766e-16
0.00173719
1.19802e-14
4.12322e-08
2.22834e-16
0.0040642
3.95672e-15
2.71566e-17
0.0155672
3.03299e-17
8.92905e-15
1.00221e-16
0.0358052
0.00488439
0.000193601
1.70919e-15
8.2256e-15
0.010626
3.43667e-18
0.00982658
1.6575e-14
2.82784e-15
2.90746e-16
7.91732e-07
1.46787e-15
5.65317e-16
1.28637e-15
9.46649e-17
0.00875533
1.59396e-18
0.00168868
2.50321e-17
1.28368e-15
2.84902e-14
0.00164507
1.35195e-16
3.76223e-14
1.21932e-14
4.82634e-16
3.03987e-18
3.01418e-17
4.41436e-15
2.32065e-16
5.51495e-15
1.78662e-15
1.80128e-17
5.80263e-09
0.00372727
0.0182943
7.21293e-17
7.42182e-09
0.00300443
1.8155e-15
0.00279831
2.06057e-15
4.68695e-17
0.0044932
6.98088e-16
1.49955e-17
1.89564e-15
4.04844e-09
4.73625e-17
0.00261133
1.85469e-15
1.69799e-14
0.0652013
4.80239e-17
1.07069e-15
3.54678e-16
1.60439e-17
1.35191e-17
9.90292e-15
1.14748e-14
3.2973e-15
0.0202699
0.00398207
2.17014e-17
0.0410543
9.42663e-05
1.30399e-09
0.115304
3.6744e-15
0.00461401
0.00448754
0.0325959
0.0586186
1.28211e-16
8.86332e-07
5.7662e-17
0.0246778
0.00026839
1.04069e-15
0.00141219
1.14672e-17
1.03775e-16
0.00245094
1.5059e-13
1.69013e-05
0.00681768
0.00283111
9.53799e-15
0.00135626
0.0250121
0.000739527
8.77167e-16
1.36385e-14
6.78233e-14
4.76439e-16
4.91158e-16
2.14929e-16
1.92309e-14
3.59805e-15
1.52747e-14
1.33557e-16
1.44439e-15
9.85644e-17
0.00539448
6.45429e-18
1.53859e-16
0.00958386
5.88647e-06
1.17322e-16
2.18555e-16
1.08376e-16
0.000121839
6.24793e-16
7.33834e-18
3.30655e-16
1.08535e-16
0.000142537
1.29813e-18
1.63971e-15
0.0109962
0.0165122
0.0178238
6.51008e-17
1.02758e-05
0.00292218
0.00116806
0.00280071
0.0040183
0.000380672
3.8444e-15
0.000179204
3.4503e-16
0.0110528
0.0565805
3.15302e-06
1.35899e-15
6.017e-15
3.1306e-17
8.7191e-05
1.07492e-05
0.000301089
0.000103728
8.93753e-16
3.69139e-15
6.0331e-16
4.47675e-09
7.09875e-05
4.70475e-15
6.60912e-16
0.0471796
1.17389e-17
2.13001e-16
5.07655e-15
0.0200315
6.43711e-17
0.000143217
0.000128039
0.00105913
2.30653e-15
1.62758e-07
0.00112692
3.68187e-15
1.42625e-14
4.91849e-05
2.31007e-15
0.00550418
0.00950301
0.0100835
0.00817612
0.00522087
0.00581884
2.76576e-15
6.80559e-16
1.35033e-17
0.00599694
0.00471006
1.13629e-15
1.49727e-17
2.43993e-18
0.00390231
2.68737e-15
9.98968e-15
1.99962e-15
0.0145812
9.9407e-16
0.040554
1.94491e-17
0.739464
5.44666e-16
5.15799e-17
3.85614e-16
2.2289e-05
1.34014e-16
2.28917e-10
0.002764
0.00701712
0.00175982
5.49143e-16
0.00361348
5.06047e-17
5.34329e-18
0.019781
4.56213e-16
0.000976369
3.71039e-16
6.08422e-16
0.000688787
2.00346e-16
1.48203e-16
2.36328e-16
0.00825637
0.000801424
0.0924168
1.1681e-15
4.26803e-17
0.0818654
1.55292e-16
0.00881841
3.027e-16
0.0251302
1.59337e-17
0.00154418
5.68875e-15
5.54395e-15
0.000903879
1.0237e-18
3.87382e-15
9.67316e-16
7.04666e-15
1.16025e-15
2.69677e-14
9.9732e-16
0.00253342
0.00964603
5.25055e-16
0.00224366
0.000522702
3.95899e-16
0.0358669
0.0546202
0.00456132
0.000447717
0.00326426
0.458778
0.0241132
0.0263019
6.73588e-16
1.67076e-18
0.102298
2.04575e-15
1.85132e-19
1.7202e-15
0.0142453
6.02954e-15
0.00153785
6.20163e-16
0.00176414
3.68904e-18
0.00247336
0.00901191
0.00232237
0.000612951
3.40572e-16
2.47845e-17
1.91776e-17
3.75539e-15
0.00365334
1.40776e-16
1.50644e-16
6.77615e-17
0.00669806
5.93677e-16
0.11387
5.17277e-16
0.00119236
9.9458e-15
0.00565144
6.9983e-16
0.00110287
0.0030286
1.48429e-17
2.39359e-14
2.55474e-14
1.27864e-14
1.43877e-05
3.17296e-15
0.0187257
0.0101141
5.5034e-15
0.0015115
0.0836947
0.00110327
0.0039567
1.47332e-15
1.36276e-14
0.00370933
0.0362142
0.00887642
0.00256833
1.27265e-15
0.00193232
0.00337571
0.00303091
0.00376836
0.00533356
5.44752e-18
0.116447
0.0501543
0.000491804
1.75552e-18
9.5216e-16
0.000488697
2.51666e-16
0.0262691
0.00111583
1.5972e-14
0.00228082
3.84771e-15
3.05504e-16
0.00356066
1.86653e-18
0.0027023
3.98778e-15
5.06115e-09
0.00376666
4.81212e-15
0.0198529
3.57186e-15
1.94697e-17
0.00362869
0.000185368
0.000392755
0.0020901
0.0118954
4.28466e-18
3.33481e-18
2.7996e-15
1.33783e-15
3.38287e-10
6.8716e-16
4.07647e-16
2.37245e-15
2.4425e-15
2.32172e-17
2.90477e-16
2.17935e-15
1.09465e-14
2.55369e-14
6.92514e-15
0.00030719
8.69578e-16
1.15117e-16
4.37278e-05
1.90378e-15
4.75345e-14
7.51789e-15
4.41245e-06
2.90877e-16
0.00392688
0.10361
4.86159e-16
0.00477928
0.00167999
0.0017203
6.10671e-17
1.56227e-14
4.25427e-14
0.00843958
0.0195456
0.00283674
9.21468e-16
4.1136e-16
6.26481e-16
7.44965e-15
0.00474388
0.00951965
5.35471e-17
0.000224604
0.00280909
5.96695e-15
0.00349841
1.72076e-05
0.0145811
0.00186673
0.00254332
9.2226e-05
2.26021e-17
4.27535e-16
5.29703e-05
0.00561977
7.72081e-17
3.20356e-17
3.92425e-15
0.00502695
5.24191e-16
5.51051e-15
5.14613e-16
9.98564e-17
8.45901e-16
1.66005e-15
2.38781e-11
4.47031e-15
8.70983e-05
0.0285428
0.00213741
0.000841031
1.64432e-15
5.73891e-18
1.03125e-11
1.72028e-17
0.0146393
6.93993e-16
1.88862e-15
0.00126531
1.17324e-16
0.000872652
2.11831e-15
4.6883e-12
9.99183e-19
7.54438e-14
1.98302e-15
3.44963e-18
5.36853e-16
1.07907e-15
7.37457e-16
1.1049e-15
2.2938e-05
1.91607e-17
0.00506246
1.27557e-15
1.05924e-16
0.046969
6.25183e-14
1.14464e-15
0.000266496
1.69657e-18
2.88268e-15
1.85323e-16
1.6786e-15
5.15863e-17
3.13803e-15
0.000945614
0.000334664
0.00276455
0.00427998
0.000925006
1.29865e-15
0.0632246
4.47125e-16
4.11376e-14
0.00146677
0.000791013
0.0033818
1.11184e-05
7.92585e-15
0.349658
3.20921e-15
1.98014e-15
3.5173e-15
0.0231838
0.00306414
4.00008e-15
1.91298e-16
6.47098e-15
0.000597658
0.035956
0.00217745
0.00869292
0.0118095
2.54113e-17
3.31349e-16
2.2499e-16
5.0871e-15
0.00832195
9.31694e-16
0.0749219
1.30574e-16
0.000490121
1.2293e-15
2.71453e-15
7.17786e-16
0.000373389
0.00861127
0.0181443
1.08484e-16
0.00183441
1.78515e-05
1.60385e-17
1.06188e-13
0.000994616
0.00201818
3.0644e-06
0.000799068
0.00750075
0.0106812
4.28818e-16
0.00160717
0.00261474
1.12296e-16
7.40891e-18
3.20367e-17
0.0137865
0.0116591
0.00351734
0.0474888
0.00272673
4.46408e-16
0.0052599
1.00225e-15
6.7351e-15
0.000931724
0.0222665
4.01612e-16
0.0204015
0.0115598
0.0343272
1.74701e-19
0.102306
0.00879977
0.0017271
0.00460085
0.06444
5.13244e-16
0.00281198
3.44756e-16
2.82931e-16
0.00812505
1.55453e-16
2.53927e-14
3.18166e-16
0.000102067
0.024919
0.296625
7.23961e-16
0.00908206
1.51326e-15
0.000137808
1.58023e-16
0.18969
0.000150372
0.285871
0.780759
3.32041e-06
1.70291e-16
1.84802e-15
0.000176672
0.0106113
0.00567826
0.0101874
0.0639873
0.0343337
1.20358e-06
1.48809e-05
0.0105028
0.011353
1.31291e-16
0.00051904
4.7608e-17
0.000240362
0.000423303
9.31793e-18
0.138527
0.000199739
1.61562e-14
1.70296e-15
0.000259922
0.000182171
1.11746e-17
2.02608e-16
0.478915
0.0314997
0.18467
0.147284
0.00217037
1.42566e-15
0.00657803
8.55934e-16
3.7098e-15
5.02109e-19
0.0854751
4.96731e-17
3.30759e-06
3.32149e-15
9.3402e-18
0.0166248
3.49833e-15
0.00854481
1.08161e-15
3.85314e-15
4.04743e-15
0.000633875
0.00114017
0.0129752
3.32271e-06
0.00113724
2.18444e-15
0.0151468
1.66979e-16
2.47555e-16
1.30518e-14
0.0135114
0.000154116
1.37256e-15
3.54923e-16
0.031389
1.36497e-17
3.495e-16
8.13021e-15
6.39012e-16
2.17574e-15
0.00303094
3.30744e-16
2.9912e-05
1.1899e-15
3.77646e-15
0.000126661
2.13541e-15
9.79809e-16
0.000215706
8.23457e-16
0.01071
1.46496e-15
1.6395e-15
0.00191706
0.00170991
0.00954155
2.43213e-15
0.0102804
0.00030622
1.92608e-17
1.4922e-17
8.44067e-18
4.79168e-16
6.46804e-16
1.18202e-16
1.77702e-15
1.54499e-05
0.00947564
0.00170896
5.3583e-15
0.017681
4.35387e-05
0.000213611
0.0145177
0.00628284
0.0122554
0.0130731
0.00332955
1.63423e-17
0.323133
0.0620704
1.20786e-14
3.13863e-17
0.0147032
1.62055e-14
0.0242117
0.000102432
1.04798e-16
0.0121597
4.87495e-15
0.00678795
3.87648e-16
2.86362e-15
0.00756252
4.58527e-15
0.0312289
0.355472
0.00111397
0.0552253
6.36769e-16
5.84559e-15
1.57451e-05
1.4864e-06
0.10292
4.46864e-06
0.00158757
0.000436457
1.33633e-16
0.00161404
1.76765e-05
2.73149e-16
9.04056e-17
0.0260796
9.33531e-19
5.88471e-05
0.0619529
1.06423e-13
0.00254299
6.80405e-18
6.71841e-16
0.00107869
2.54886e-15
9.92211e-17
3.42512e-06
3.66579e-15
0.00250152
1.31954e-15
1.99371e-15
6.23444e-18
6.34859e-06
5.4529e-06
1.09211e-07
6.40668e-17
3.58794e-06
7.70219e-16
1.39597e-08
1.81622e-08
0.0315524
8.57449e-19
2.53278e-08
6.35827e-17
0.00160954
0.0338642
6.33587e-16
2.73828e-14
2.03147e-16
3.38553e-16
1.02526e-15
2.48243e-08
0.296753
2.43525e-16
2.70584e-06
5.38273e-14
8.04758e-17
1.72431e-15
4.17894e-16
5.41513e-16
1.27725e-16
2.78402e-15
4.36646e-17
3.98945e-16
4.98454e-16
4.85866e-16
0.0114343
8.94636e-17
5.59733e-18
1.72491e-15
2.30635e-16
7.0415e-15
0.0444747
2.83056e-15
7.26785e-16
3.0967e-15
4.54286e-16
5.45993e-16
2.64285e-05
2.60419e-16
3.2848e-15
4.26052e-05
2.19206e-15
1.2245e-16
3.01393e-14
3.42617e-16
1.49725e-15
0.0227165
2.51923e-16
0.00611802
4.2632e-16
0.0155429
4.48783e-15
1.34708e-15
3.30276e-16
0.00432905
4.84582e-14
0.00408167
0.0193005
1.14519e-15
6.71316e-16
4.4852e-15
2.45026e-15
7.85084e-16
2.99458e-16
4.12227e-16
0.0164572
1.02982e-16
0.0104235
1.95673e-15
0.878848
0.44122
6.35891e-17
0.04132
8.54017e-05
8.41777e-16
0.00938397
8.29834e-10
0.602045
0.0443321
0.00452911
1.54274e-15
0.0283327
0.393509
1.51639e-16
0.0249171
0.00438015
0.00221742
0.12487
0.0438826
1.85582e-15
0.000954351
0.0260254
0.0486427
0.00111112
0.000310099
0.0313266
3.98811e-16
0.0140914
8.08149e-17
3.68722e-14
0.00659249
3.01072e-16
9.3215e-07
0.00393084
8.29312e-15
0.000129917
1.30153e-15
3.22618e-17
0.00781268
0.00605417
1.44121e-16
8.02745e-17
0.00172209
3.9454e-15
0.00403336
8.28048e-15
0.0115562
0.0632135
3.78993e-16
0.0330019
5.5997e-06
0.00104778
2.97792e-16
0.000453065
0.0301107
0.00414669
7.79429e-17
0.0271924
2.61809e-16
4.34147e-16
5.72854e-17
4.24888e-16
8.20708e-16
0.00539848
0.025843
0.0147349
0.0051568
0.0055148
0.000299807
3.00386e-15
2.83779e-15
4.51721e-16
1.16413e-15
1.29306e-08
1.96912e-16
2.12584e-15
3.3397e-16
4.79778e-06
2.64497e-15
3.17566e-16
3.00529e-14
0.0103381
3.35585e-16
1.43504e-16
0.00338042
4.98532e-16
4.32907e-16
8.36996e-16
0.00681353
1.48659e-14
0.00505197
0.000443518
0.00431071
1.9203e-15
6.9016e-15
1.83424e-16
1.74124e-15
1.77671e-15
0.000617539
6.17907e-16
1.64251e-15
2.51573e-15
0.0345877
0.000166248
5.10242e-16
1.42642e-05
2.72554e-15
0.000313362
0.00835377
1.90034e-07
1.21865e-14
3.62518e-16
1.54061e-16
4.16114e-15
0.00163262
3.17652e-16
4.08624e-05
1.62443e-09
2.61196e-15
5.39234e-05
0.0289769
3.86609e-05
3.51677e-16
0.00299938
1.41226e-15
0.00426526
5.93993e-15
0.0018463
0.000347378
0.00278609
1.03166e-14
0.00037282
0.000929738
0.00718569
9.2178e-15
0.0200237
0.00614036
5.69629e-15
5.64312e-15
0.00158579
5.31827e-16
1.12419e-14
0.00181397
0.021885
3.8509e-15
0.037762
3.71787e-16
2.06566e-15
3.92952e-14
3.74966e-06
1.05244e-13
0.000890227
0.0137478
0.0213142
0.00208837
0.00960123
1.04533e-14
3.37142e-15
0.00435394
0.0144649
1.89284e-15
1.42817e-14
5.01968e-15
0.0828189
0.0418581
4.66106e-16
1.09212e-14
1.08924e-15
2.33955e-16
4.84517e-15
0.0337694
0.00858799
0.015865
1.41578e-14
1.30856e-15
7.20076e-15
0.0192681
1.6159e-17
0.000200891
4.87748e-15
1.37066e-16
0.0202703
2.41284e-15
0.000401361
8.58171e-16
7.04737e-15
1.19539e-15
5.39838e-16
0.0234432
8.14504e-16
2.98489e-16
0.0199809
1.46888e-17
1.33087e-16
4.95293e-05
7.63175e-16
1.44782e-16
0.0134364
1.25225e-16
3.98554e-19
7.99753e-16
1.07341e-05
1.45302e-14
3.62379e-15
1.32761e-14
3.55066e-17
2.67811e-14
3.02694e-05
0.011685
0.00289213
3.41474e-14
9.58227e-10
0.000293131
0.0602649
7.51358e-15
7.70282e-17
0.0181056
3.30648e-05
2.84093e-05
0.00300497
1.06834e-14
4.23027e-18
0.0184242
6.16463e-13
0.0229866
0.000762671
0.0497344
0.01419
4.53955e-16
0.025794
0.000258162
0.0893643
0.00324227
2.61384e-15
4.25585e-16
0.256801
0.00494803
0.000982672
0.00128812
0.000160743
0.00331046
0.0308582
0.00854159
0.00292703
0.144389
0.000826747
5.94957e-19
0.0178761
0.0638487
0.0348479
3.4021e-07
1.93394e-15
2.71936e-16
3.72305e-15
0.000678324
0.0190609
0.0197058
2.35848e-08
0.0522876
0.0230198
0.000612892
1.18463e-15
0.0136771
0.00325663
0.000715212
0.0505516
0.000538156
0.000110709
0.0108431
0.0108144
0.021732
2.02292e-15
5.00291e-07
0.00160996
0.0163316
1.04255e-15
1.58139e-15
0.17328
0.0025625
0.000515707
0.000718361
4.3321e-05
0.0040936
2.82308e-17
0.0185568
5.80082e-15
0.0140768
1.49521e-14
0.00557119
3.1186e-17
0.0164691
1.99865e-11
1.66419e-14
0.00869337
3.50369e-15
0.00663474
0.00770523
9.81019e-15
0.0158189
1.66648e-07
0.0156174
0.00665807
0.00926977
0.0563429
0.00535027
0.0290292
0.0344808
0.0169351
4.30537e-05
0.00215489
0.000169364
0.000982943
6.06532e-15
0.00202351
1.93175e-15
0.000647135
1.54431e-14
7.46371e-14
4.56331e-16
5.45143e-14
4.95808e-14
0.0521363
1.12309e-09
7.85149e-15
1.63747e-14
1.01142e-15
8.06251e-16
3.91154e-14
0.0012223
0.0298204
1.68432e-14
1.22574e-14
2.03766e-15
0.0170406
1.90288e-16
5.5462e-15
8.4629e-15
2.75385e-15
0.0347607
0.00672118
0.000526314
0.000731426
0.00446904
0.0011597
3.72188e-14
0.00490405
1.80934e-15
7.19028e-14
4.93421e-15
3.74459e-15
0.00111148
4.68138e-05
0.00104482
0.00864424
0.1012
0.000247596
2.65892e-15
6.74494e-06
4.07738e-15
0.00836469
0.00241268
1.70747e-15
6.66496e-15
0.00280168
6.7569e-15
0.0101031
0.0737648
0.0453383
0.000169517
2.10005e-10
1.21603e-14
1.20757e-14
2.41427e-16
0.00382287
4.86572e-17
0.000761702
0.0142903
0.00192794
7.70227e-15
2.25079e-05
0.000422421
0.0297903
1.36243e-14
1.27099e-18
0.0109951
6.38061e-06
6.91758e-17
0.00466143
2.01673e-09
3.8484e-16
9.59764e-16
5.52821e-16
0.0226791
7.01427e-15
1.48839e-15
5.753e-16
0.00512759
6.65735e-16
0.00118723
2.91918e-14
0.00168673
0.00961299
2.24132e-16
0.0285777
2.7703e-17
1.4952e-15
0.00238141
4.93395e-16
1.18609e-15
0.00341827
0.00117983
2.08453e-15
6.95813e-16
0.00184392
3.65567e-15
1.65103e-14
6.65111e-05
0.00332283
1.52978e-15
0.300462
7.92569e-15
7.14955e-08
9.3e-16
0.000164147
2.06251e-16
1.9841e-15
0.00377803
2.02464e-08
0.000574
0.00157748
3.30163e-08
0.0140023
0.00264262
0.111987
4.18789e-08
0.0101296
0.0102895
0.0124128
1.57839e-14
1.64233e-15
1.7472e-14
3.93287e-14
1.59295e-15
9.61211e-17
7.69482e-08
0.011683
1.37645e-15
2.65137e-17
0.00374873
7.06883e-15
7.31696e-15
0.0149035
7.93077e-16
1.73934e-14
1.82833e-06
4.85984e-16
3.32529e-14
2.72319e-16
6.35326e-15
0.0241715
0.0135005
0.0101475
2.63711e-06
6.31824e-16
2.91419e-06
1.19781e-14
8.81645e-16
1.40383e-15
2.86097e-18
8.27777e-15
0.0110596
0.00706087
1.2224e-14
9.9511e-14
2.89872e-15
0.000262613
1.72212e-06
4.71817e-15
0.00410905
1.54811e-14
1.26327e-15
8.11711e-16
7.01955e-15
0.00276624
4.42094e-16
5.63786e-16
1.14928e-05
6.9293e-16
6.62453e-16
2.0344e-15
4.07785e-18
0.0532374
0.000480327
8.9507e-16
5.91766e-15
6.59691e-15
0.00137521
3.23717e-15
0.00173346
3.84304e-05
1.0951e-17
2.94357e-19
2.76365e-05
0.0194748
0.00210535
0.0242127
0.00160304
0.0512215
3.93379e-15
2.08683e-15
1.39806e-15
2.46161e-18
0.000893091
4.13186e-16
2.34561e-16
0.000133352
2.22652e-16
0.0193036
2.36667e-17
0.00237084
0.00592241
7.1391e-07
0.0107916
0.00357642
1.63439e-07
9.32789e-12
0.0031524
0.0296324
3.44652e-12
1.13916e-16
0.0632244
0.00892354
0.00646756
6.14721e-16
0.0621049
0.000265068
0.015056
1.28278e-16
0.0172448
3.73166e-16
5.90037e-16
2.56013e-15
1.94554e-16
5.73051e-16
0.0403595
0.0144436
0.0145868
3.67627e-15
1.91464e-05
1.69019e-15
1.07972e-15
0.000925116
1.00675e-15
5.32581e-15
3.98017e-16
9.2133e-15
3.75979e-16
3.83521e-17
0.0361134
0.00200009
2.0984e-16
1.89761e-15
2.38957e-16
2.99509e-06
3.36395e-15
2.60652e-12
5.99198e-13
2.088e-16
0.0141008
7.06163e-16
1.53461e-15
1.52204e-15
1.89138e-15
0.000124115
1.84996e-15
1.67261e-15
3.79094e-15
1.27577e-16
4.20213e-16
2.48894e-16
0.000671322
3.08729e-16
6.25572e-07
0.0167405
4.13046e-16
0.000584022
1.22994e-15
5.66376e-05
9.86286e-16
0.00694856
0.00290238
0.000594278
4.8238e-16
1.57466e-15
3.6998e-16
0.00435922
7.22387e-17
0.00746999
2.89063e-16
1.16191e-17
0.00187555
0.095419
5.33299e-14
3.63309e-16
1.63299e-15
1.60428e-14
1.14816e-16
2.44508e-14
4.81238e-16
2.92865e-16
0.00163569
0.00373434
0.00163231
4.49539e-08
2.13508e-14
1.2546e-15
0.00954187
2.65734e-08
1.07482e-16
2.77216e-15
1.12564e-14
1.61055e-16
5.29226e-16
3.7435e-14
8.74379e-17
5.8038e-14
1.54814e-14
6.98984e-13
1.16308e-17
1.01962e-15
0.120402
6.16897e-06
5.39063e-15
7.6252e-16
1.22193e-16
0.0118188
2.42647e-16
0.000721149
1.0544e-15
7.9085e-16
0.000466201
0.000259602
8.18018e-16
0.000278978
1.15844e-16
3.99565e-16
2.7753e-16
0.0184962
0.000598338
4.21068e-16
3.33475e-16
1.90896e-16
2.85139e-16
3.93742e-17
0.00267204
6.83297e-14
4.23676e-17
9.92539e-15
4.78431e-15
2.92719e-16
0.0124925
8.07747e-16
1.7287e-14
1.88795e-15
3.51015e-16
0.0845622
4.05914e-17
6.9283e-16
2.99012e-18
4.40807e-18
0.000206293
5.15424e-16
0.0267312
0.0087001
1.51739e-15
1.15435e-14
0.0379781
0.0399098
1.03318e-17
0.0179577
1.68534e-15
2.50245e-16
1.04053e-14
2.79569e-16
6.95129e-17
5.90933e-16
1.18531e-15
0.00437032
4.40105e-14
0.000161071
9.46428e-17
2.42888e-12
0.00604604
1.24615e-16
3.9432e-05
9.45997e-14
4.29654e-18
0.00019316
4.50496e-18
1.78875e-16
1.00226
1.67742e-14
0.019388
0.0022179
7.64268e-15
1.42225e-16
0.0154212
0.000139429
4.00478e-14
1.98499e-15
0.00333279
3.48233e-15
3.00418e-14
4.65718e-17
4.0534e-14
2.60505e-08
2.24591e-16
0.000484917
1.12325e-16
6.05896e-16
2.16254e-16
0.019798
1.9401e-08
1.92139e-15
8.6593e-17
1.77103e-08
4.01272e-16
3.46278e-16
0.000252146
0.00928412
0.0126648
0.00409091
0.000754056
1.26448e-17
8.28663e-08
2.36836e-08
5.25972e-08
0.000467841
2.11228e-17
4.21446e-18
0.00375473
0.0016304
7.93199e-05
9.55366e-05
0.000729451
0.00155035
6.29986e-17
6.30087e-16
0.0227489
6.15819e-16
1.91509e-16
2.50812e-09
0.00300033
0.00979515
3.51452e-07
2.12778e-15
0.0055552
2.37249e-14
6.41208e-16
1.33407e-15
3.62056e-16
7.1212e-16
8.64032e-16
0.00361602
0.012929
1.3494e-18
0.00604687
0.00159956
0.151031
0.000167915
0.00140438
1.09506e-16
0.000415921
7.55217e-15
8.47967e-05
2.4784e-14
0.0198903
1.91922e-14
3.11974e-15
0.00068803
2.71819e-16
0.0067544
6.24587e-05
0.00219814
0.0168377
0.00688139
1.50387e-14
8.49184e-15
0.0122905
8.36827e-15
7.864e-14
0.000344076
5.16937e-15
6.70638e-16
2.55941e-15
7.39747e-15
0.000434845
0.00329292
8.10739e-07
3.51121e-16
0.00025643
0.00189584
9.79162e-18
3.73763e-17
8.32555e-15
4.5739e-16
0.0151706
1.87234e-07
0.000221855
0.00334258
5.79893e-07
0.0313718
0.00143609
0.0074331
2.71578e-16
5.08025e-15
1.59073e-07
4.72515e-15
5.80548e-15
7.62378e-15
6.61982e-17
0.00119483
8.68828e-15
0.0372728
3.54798e-15
0.00787201
0.000258757
0.00740064
0.000331324
0.0148984
0.017468
0.00141202
0.00976061
0.0012703
1.00566e-15
1.42209e-15
0.000604585
3.86974e-16
6.53263e-16
9.05159e-15
7.5233e-16
0.000129345
4.66977e-09
8.72527e-15
2.52193e-16
4.44462e-16
6.83779e-17
0.0266075
5.08902e-17
1.00143e-15
9.63603e-15
1.69777e-16
9.04051e-16
3.10498e-15
9.10363e-16
3.8066e-16
4.84198e-15
0.00158098
0.00312509
7.16204e-16
0.0156745
0.0132835
2.67503e-16
7.59183e-16
1.74684e-15
1.01962e-15
0.000870663
5.98882e-16
0.000458493
7.59629e-16
4.31097e-16
1.41133e-16
0.00533652
8.73705e-17
0.00116017
0.000539571
0.00837117
0.00505651
0.00881761
2.36678e-14
0.0539393
0.0219005
0.0971693
0.00042
0.000140554
1.57236e-14
0.000292805
4.83119e-17
0.0101701
0.0298871
0.0246727
1.74788e-14
1.65381e-17
0.00779216
1.65652e-16
0.0174173
0.30164
0.0172133
4.5216e-16
3.13258e-15
0.0159756
0.00160222
2.92684e-15
1.85863e-17
0.162677
1.37331
1.78767e-15
3.54876e-15
6.11721e-15
0.00343295
3.16729e-16
4.35185e-12
1.1491e-15
3.67399e-16
2.00131e-15
6.33037e-16
9.77238e-16
1.44021e-14
9.92858e-15
1.21909e-14
6.28665e-05
9.29208e-17
3.05892e-15
4.07335e-15
0.00322312
0.0108016
0.0040399
3.20087e-15
1.18867e-14
3.0017e-05
9.13061e-17
3.30787e-16
2.08807e-14
0.00868353
5.86541e-17
0.0314102
3.54036e-16
0.0487377
0.0149654
0.000244321
0.0022213
8.61683e-17