/*--------------------------------*- C++ -*----------------------------------*\
  =========                 |
  \\      /  F ield         | OpenFOAM: The Open Source CFD Toolbox
   \\    /   O peration     | Website:  https://openfoam.org
    \\  /    A nd           | Version:  10
     \\/     M anipulation  |
\*---------------------------------------------------------------------------*/
FoamFile
{
    format      ascii;
    class       volScalarField;
    location    "34";
    object      T;
}
// * * * * * * * * * * * * * * * * * * * * * * * * * * * * * * * * * * * * * //

dimensions      [0 0 0 1 0 0 0];

internalField   nonuniform List<scalar> 
59698
(
286.61
283.15
283.15
283.15
299.962
283.15
292.433
283.15
303.15
303.15
303.15
283.15
283.15
283.15
300.142
303.15
283.15
283.15
283.15
293.81
303.281
302.133
303.149
303.15
295.695
283.15
283.15
298.35
295.712
295.337
300.289
303.15
303.15
298.817
302.372
283.15
283.378
283.462
283.15
297.532
296.214
283.15
296.558
283.15
283.15
296.587
283.15
284.774
284.865
283.15
284.897
283.15
283.15
283.15
294.398
283.15
283.15
302.176
283.15
282.978
291.246
283.15
299.611
283.15
286.798
283.15
303.15
283.15
283.15
303.15
283.15
283.15
283.135
298.544
283.15
297.761
283.15
287.694
291.645
294.159
299.955
283.15
303.15
283.15
303.702
283.15
283.15
283.15
298.874
283.15
303.15
294.735
298.978
283.15
283.15
283.15
299.054
283.15
298.901
283.15
299.107
283.126
285.916
284.496
283.15
283.15
283.15
283.15
303.15
283.15
283.15
283.15
298.859
283.15
283.15
283.15
283.15
283.15
283.15
303.15
283.15
283.15
283.15
283.15
283.15
283.15
295.481
303.15
283.15
283.15
287.508
283.15
303.15
292.765
290.228
291.661
283.15
303.15
283.15
283.15
283.15
283.15
288.928
291.826
283.15
283.15
283.15
283.15
283.15
301.184
283.138
303.15
288.085
283.15
283.157
283.15
283.15
283.15
296.964
283.15
289.678
283.15
290.762
299.554
297.815
296.697
283.15
280.915
299.359
283.15
300.366
283.151
300.936
301.003
285.538
283.15
303.15
283.236
303.15
298.936
302.767
300.418
298.65
283.15
298.705
300.857
300.768
283.15
283.15
289.684
283.15
283.15
296.592
297.452
299.393
283.15
293.918
296.605
303.155
299.385
283.15
284.149
292.452
283.15
299.302
289.163
297.343
295.329
293.594
298.045
283.15
283.15
299.129
303.15
294.873
283.15
283.15
283.15
297.845
296.012
282.054
296.32
283.15
299.288
295.267
299.341
295.826
291.359
295.663
284.997
283.15
296.156
295.17
295.83
283.15
294.831
295.992
283.15
283.15
294.997
283.15
293.988
289.929
303.15
294.635
283.15
282.929
285.587
283.462
283.15
283.151
288.958
288.583
303.15
283.15
287.911
283.152
289.321
283.15
283.15
303.12
283.15
283.403
283.151
283.151
295.329
283.15
303.15
283.15
283.15
283.15
286.636
303.101
283.15
287.319
283.15
283.15
283.15
293.974
303.15
303.15
283.15
283.15
289.07
295.115
290.708
283.15
303.15
286.009
283.15
301.413
291.256
283.15
283.15
283.15
283.15
283.15
283.15
295.101
283.15
291.437
283.15
283.15
283.15
283.15
283.15
287.833
283.15
283.15
283.15
283.15
283.15
283.15
283.15
283.15
288.162
283.15
283.15
283.15
283.15
283.15
293.366
283.15
303.15
298.314
286.255
283.15
283.15
288.191
283.15
300.174
290.671
298.873
281.567
303.15
293.794
283.15
283.15
298.464
293.836
295.108
295.455
283.15
294.973
298.95
283.15
295.594
301.426
283.15
289.168
292.823
283.15
301.358
303.15
284.2
300.756
302.091
283.15
283.15
303.15
283.15
283.15
303.15
294.995
283.15
283.15
283.15
289.653
283.15
282.757
292.666
283.15
283.15
283.15
296.424
303.15
283.15
283.15
283.15
303.15
283.15
283.15
283.15
293.511
283.15
283.148
283.15
283.15
283.15
283.15
283.15
303.15
284.555
290.722
303.133
301.991
301.767
283.15
283.15
283.15
288.503
295.715
283.15
283.15
283.15
283.15
295.973
293.295
295.667
302.255
297.911
303.15
284.28
303.15
283.15
289.8
283.15
283.575
302.296
302.831
283.15
283.15
286.409
281.966
283.15
283.15
303.15
283.15
283.15
283.15
295.492
302.788
285.307
291.829
287.58
303.15
303.15
298.662
283.15
291.938
283.15
283.15
303.15
283.15
283.15
302.914
294.874
283.15
283.15
299.203
283.15
283.15
283.15
286.324
283.15
283.15
290.671
303.15
284.312
283.15
290.082
283.15
283.967
293.909
303.15
283.15
283.15
291.892
283.15
294.985
293.346
283.15
283.15
283.15
283.15
283.15
302.759
292.149
292.418
283.15
283.15
283.15
283.15
283.15
300.933
283.15
283.15
283.15
291.956
292.864
299.066
290.521
291.385
283.15
292.082
283.15
283.15
283.15
289.591
283.15
283.15
295.185
299.054
293.747
283.15
303.15
283.15
303.15
283.15
290.283
293.767
290.699
283.15
283.15
291.625
283.15
283.15
283.15
283.15
283.15
289.56
293.959
283.15
283.15
283.15
302.995
294.929
283.15
289.851
288.756
283.15
301.49
303.15
283.15
283.15
283.15
283.15
286.367
283.15
303.15
290.013
283.15
283.15
281.273
289.38
291.842
282.232
283.132
290.838
283.147
283.15
303.15
283.15
303.15
283.15
283.15
283.15
295.571
291.517
291.736
283.15
303.15
283.15
283.123
283.15
303.15
286.381
283.15
291.141
303.15
291.969
283.15
283.15
285.661
285.063
285.535
283.15
292.279
295.522
303.15
283.15
283.15
285.266
283.15
285.246
283.15
283.151
283.15
289.711
285.844
285.352
296.414
283.15
283.15
283.15
283.15
303.15
282.783
283.15
283.15
290.773
283.162
283.15
283.15
283.219
283.267
283.15
283.15
283.165
283.15
283.15
283.15
283.15
283.15
283.151
283.15
283.15
297.845
285.616
283.15
283.15
283.15
283.15
302.957
293.209
283.15
290.916
283.15
283.15
283.15
295.595
283.15
283.15
283.15
283.15
283.15
283.15
283.15
283.15
286.951
283.15
283.15
283.15
303.15
283.386
294.042
283.15
283.15
283.15
283.15
283.15
283.15
288.57
283.15
283.15
283.15
283.15
303.147
293.593
283.15
283.15
283.15
290.995
283.787
301.836
291.564
283.15
283.15
283.15
288.922
283.15
283.15
283.15
283.15
283.15
283.15
283.15
295.224
293.206
283.15
283.15
283.15
283.15
283.15
283.15
283.15
283.15
283.15
283.15
295.761
290.799
297.18
283.15
283.15
283.642
283.15
283.15
283.15
283.15
283.15
283.15
283.15
292.502
283.15
283.15
303.15
296.517
283.15
283.15
283.15
283.153
283.15
283.15
283.15
283.15
297.64
289.339
283.15
303.15
283.15
297.87
297.945
283.15
283.15
295.599
297.207
295.55
283.15
296.207
283.15
282.863
283.15
290.529
300.326
283.15
291.114
283.15
303.15
297.635
287.936
283.15
283.15
283.265
297.043
294.587
284.54
283.595
283.447
283.15
286.009
283.15
296.886
293.557
298.122
283.15
283.15
290.284
295.062
303.15
283.15
296.886
283.15
298.219
295.934
283.15
293.855
296.739
283.15
283.15
294.928
294.555
283.15
283.15
283.15
283.15
289.439
283.15
283.15
294.529
294.547
297.426
283.15
293.676
290.456
294.873
295.279
295.319
283.15
284.362
298.846
283.15
288.64
297.666
301.094
283.15
302.766
283.15
283.15
283.15
283.15
283.15
283.15
283.15
283.15
298.053
283.164
283.157
283.15
283.15
282.351
283.15
283.15
283.15
283.15
303.102
298.49
303.15
283.15
284.566
288.66
283.15
282.181
283.15
283.227
283.15
283.15
284.13
287.129
296.691
283.15
295.803
283.15
283.15
283.15
283.15
283.15
283.162
283.15
283.132
283.173
303.15
283.15
283.15
283.15
283.15
291.046
283.15
283.161
283.15
294.64
283.15
283.15
285.385
283.15
283.15
283.15
299.435
295.182
284.076
283.15
283.15
295.88
303.15
295.878
283.15
283.15
283.15
283.149
283.15
283.15
283.15
283.15
284.104
283.15
290.345
283.15
283.15
283.15
294.914
283.15
283.15
283.15
283.15
283.15
283.15
283.15
283.15
283.15
283.15
283.15
283.153
296.328
296.016
283.15
283.154
295.068
283.15
296.749
303.15
283.15
295.895
283.15
283.15
283.15
283.153
283.15
295.891
283.15
283.15
293.579
283.15
283.15
283.15
283.15
303.15
283.15
283.15
283.15
295.892
297.65
283.15
296.674
290.218
283.152
295.612
283.15
291.432
290.737
286.592
292.121
283.15
289.769
283.15
296.563
295.748
283.15
290.3
283.15
283.15
297.546
283.15
290.052
296.123
296.761
283.15
289.421
285.341
294.019
283.15
283.15
283.15
283.15
283.15
283.15
283.15
283.15
283.15
303.15
283.15
283.15
294.491
303.15
283.15
296.664
283.289
283.15
283.15
283.15
295.677
283.15
303.15
303.15
283.15
295.55
283.15
283.15
291.472
302.707
298.553
283.15
283.293
302.163
297.861
294.916
295.843
293.712
283.15
295.684
283.15
290.659
287.769
283.264
283.15
283.15
303.15
283.168
283.355
300.405
284.01
303.15
303.15
283.15
283.153
283.995
283.15
283.15
292.634
283.15
283.15
283.15
298.374
283.15
284.012
284.13
302.803
283.15
283.171
302.8
283.15
283.15
302.809
283.15
294.566
295.188
296.451
295.372
296.002
295.201
283.15
283.15
303.15
295.491
296.539
283.15
283.15
283.15
297.708
283.15
283.15
283.15
295.361
283.15
287.743
283.15
290.986
283.15
303.15
283.15
288.107
283.15
303.15
287.731
294.204
295.981
283.15
289.343
303.15
303.15
293.096
283.15
288.667
283.15
283.15
288.092
283.15
303.15
303.15
284.115
287.86
295.123
303.15
283.15
296.144
303.15
282.445
283.15
283.566
283.15
288.316
283.15
283.15
288.248
303.15
283.15
283.15
283.15
283.15
283.15
283.15
292.77
301.067
303.15
297.247
302.914
283.15
301.679
287.115
291.034
295.098
297.731
297.167
289.464
289.157
283.15
283.15
288.12
283.15
303.15
283.15
300.988
283.15
293.093
283.15
294.577
283.15
302.395
289.605
294.467
294.373
283.15
283.15
303.15
283.15
286.77
283.15
283.15
283.15
294.346
283.15
304.914
283.15
294.805
283.15
295.299
283.15
287.086
294.607
303.15
283.15
283.15
283.15
290.196
283.15
300.805
301.125
283.15
295.892
299.135
302.603
293.683
283.15
283.15
302.575
287.714
300.26
291.852
283.15
295.938
295.792
295.382
293.304
295.254
303.15
286.066
298.849
295.791
283.15
283.15
297.236
283.15
298.991
293.76
283.15
293.66
283.15
303.15
293.354
303.15
292.579
283.15
283.153
292.077
283.15
285.413
283.15
303.15
294.472
291.964
288.946
292.44
293.375
303.15
303.15
283.15
283.15
283.15
303.15
283.15
283.15
283.15
283.15
303.15
283.15
283.15
283.15
283.15
285.243
283.15
283.15
284.968
303.15
283.15
283.15
303.143
303.15
297.275
290.531
283.15
297.352
296.698
292.324
303.15
283.15
283.15
296.905
282.331
296.66
283.15
303.15
283.15
303.15
296.784
284.586
283.15
285.163
297.606
283.15
302.764
297.495
295.76
297.46
291.395
297.627
283.15
283.15
297.493
297.426
283.15
303.15
283.15
291.915
283.15
283.15
283.15
283.15
283.15
283.15
283.15
283.15
300.613
285.61
297.02
303.023
283.15
303.15
283.15
283.15
299.952
303.15
303.15
293.5
283.15
300.655
283.15
283.15
303.15
283.15
283.15
303.15
283.15
283.15
283.15
283.15
302.961
303.15
297.436
283.15
283.15
289.034
283.15
283.15
283.097
303.15
283.15
303.15
283.15
303.15
283.15
297.881
297.779
296.957
297.554
291.726
283.15
286.813
283.15
283.15
290.855
298.046
294.834
296.66
283.15
301.16
283.15
303.15
283.15
297.006
296.293
303.15
303.15
283.15
288.942
287.334
294.314
289.221
289.616
303.15
303.15
283.15
283.15
287.796
303.15
299.766
303.15
287.571
303.15
303.15
303.15
291.707
290.745
299.279
303.15
292.597
283.445
303.15
283.15
287.299
282.678
283.252
283.731
295.845
291.702
283.15
283.312
293.657
283.15
303.15
303.15
285.182
288.657
292.713
283.575
283.285
283.15
289.889
283.15
283.15
289.959
291.707
283.15
287.699
285.218
293.951
303.15
292.234
284.064
290.957
294.012
300.941
283.15
292.387
283.15
283.15
298.084
283.15
283.15
283.15
283.9
286.79
283.785
283.15
284.861
283.15
284.222
303.15
294.007
288.052
288.469
292.608
303.112
303.15
283.15
284.407
294.781
300.627
284.978
285.135
298.417
283.221
284.945
282.307
294.007
303.15
287.37
283.15
283.13
285.153
303.15
297.621
283.151
283.15
303.15
284.927
300.028
303.15
283.15
289.287
295.106
296.526
297.882
283.514
303.15
285.249
283.15
283.15
283.15
293.927
283.15
303.125
283.15
303.15
294.344
283.15
292.614
283.15
283.15
283.15
300.13
298.995
285.916
283.138
299.322
283.15
299.415
303.15
283.15
283.15
296.3
285.769
283.15
283.15
288.099
283.15
283.15
283.15
283.15
283.15
296.754
303.15
293.69
283.15
303.15
288.565
283.15
283.15
288.195
303.15
296.128
283.15
303.15
296.851
302.676
290.226
283.15
286.896
288.13
303.15
283.15
303.15
283.15
283.15
283.15
283.15
283.14
291.909
283.207
303.15
288.309
288.774
287.967
294.283
288.266
294.901
289.064
286.219
303.15
287.423
291.758
283.15
303.15
300.561
283.15
289.591
303.228
303.15
299.147
283.15
290.464
303.15
283.15
290.516
283.15
297.734
297.147
290.171
295.033
303.15
303.15
290.271
290.297
283.923
283.273
283.153
283.569
303.15
283.789
290.226
303.15
283.15
283.001
283.15
290.351
299.836
303.15
290.323
303.15
303.15
283.663
283.15
283.15
283.149
303.15
293.271
283.15
303.15
303.15
283.241
283.127
283.169
303.15
283.139
283.15
283.156
283.158
300.724
283.15
283.157
303.15
294.715
294.223
303.15
303.15
303.15
283.15
283.15
283.157
291.887
303.15
283.14
283.15
303.15
303.15
303.15
283.15
283.15
283.15
283.15
283.15
283.15
283.15
296.143
303.15
283.15
283.15
283.15
283.15
294.069
283.15
283.15
283.15
283.15
283.15
283.14
283.15
303.15
283.15
283.15
283.15
283.15
303.15
283.15
294.24
303.15
285.301
283.15
293.205
283.15
283.15
283.15
297.212
283.15
296.725
295.912
283.15
283.15
283.15
283.15
283.15
283.15
283.15
298.952
283.15
287.288
283.15
304.96
284.009
283.15
300.343
283.134
283.15
291.738
303.15
294.342
296.497
295.228
283.15
301.435
296.224
283.15
298.952
293.109
302.823
297.589
300.39
283.15
285.248
294.217
289.313
289.281
295.904
297.373
283.15
296.649
283.15
283.15
294.763
283.15
283.143
299.573
283.15
288.105
283.15
283.15
297.891
293.729
283.15
283.15
292.499
283.15
295.064
283.15
293.104
298.405
283.15
300.336
283.313
294.167
283.15
293.605
298.454
291.701
283.15
284.615
283.15
283.15
283.15
283.15
303.15
292.501
297.132
298.068
301.561
283.458
284.776
283.15
283.15
283.15
283.15
303.151
283.15
283.15
283.15
283.139
283.15
283.15
283.15
301.989
283.15
283.15
303.188
283.15
283.15
283.15
299.006
283.15
302.105
302.826
294.672
283.15
283.15
283.15
283.15
283.15
286.014
283.15
283.15
283.15
295.15
302.944
283.15
288.185
283.15
298.909
293.007
283.158
283.15
283.15
283.15
283.15
294.094
283.15
302.927
283.152
283.15
283.867
298.238
302.945
283.15
292.717
283.15
298.512
283.15
290.323
288.188
289.743
283.15
286.503
289.07
294.117
283.15
289.328
302.814
283.15
283.15
289.431
283.15
283.15
287.472
299.714
283.15
294.615
283.15
283.15
283.15
283.226
283.15
294.479
287.184
298.571
299.535
289.324
283.15
283.15
294.177
295.977
283.15
283.15
283.15
298.68
285.525
283.15
283.15
283.15
283.15
283.15
296.223
287.991
296.574
283.15
283.15
283.15
299.581
303.15
284.274
283.15
283.15
296.961
283.15
299.698
283.15
283.15
283.15
283.15
299.658
283.15
283.15
301.302
283.15
283.15
283.605
283.15
283.15
289.33
283.15
303.15
283.15
301.437
283.15
283.15
283.15
283.15
283.15
301.371
287.261
290.354
283.15
283.15
283.229
295.96
283.15
283.15
298.925
283.391
290.021
290.128
283.15
303.15
298.523
283.15
294.397
295.697
295.013
301.376
283.15
301.187
284.827
293.01
292.092
303.15
283.15
300.054
295.435
295.681
288.74
302.834
286.646
295.639
293.877
292.392
296.215
285.529
283.15
291.139
292.605
295.752
283.186
283.15
283.15
283.15
296.433
296.072
295.21
296.197
294.295
295.789
294.786
283.15
291.978
295.612
295.812
296.775
300.26
297.341
297.454
297.95
301.248
283.15
303.146
283.149
290.493
283.15
283.15
301.782
303.552
284.99
303.01
303.129
291.044
283.15
292.09
283.15
290.847
283.15
300.601
283.15
291.1
303.15
283.15
293.473
283.15
301.07
295.236
283.15
302.016
283.167
289.221
302.272
286.672
295.405
290.957
292.615
294.645
300.559
302.96
291.218
289.82
289.042
283.15
292.297
283.15
295.877
283.15
283.15
283.15
283.15
283.15
295.78
283.152
283.15
283.15
283.15
283.15
283.15
290.979
294.091
283.15
283.15
283.15
293.404
283.15
283.15
283.15
283.15
286.565
302.178
291.964
299.93
296.662
288.969
283.15
295.972
303.15
283.15
283.15
283.15
287.188
296.775
295.471
294.329
298.702
288.436
283.15
283.142
283.15
291.342
291.613
283.15
283.15
291.958
283.15
296.164
297.885
300.887
295.597
283.151
283.15
283.15
283.15
295.378
283.15
295.505
294.703
289.675
283.15
295.684
300.952
296.73
283.15
303.15
292.591
295.688
283.15
294.709
283.15
283.15
283.15
283.15
290.621
283.15
283.15
283.15
292.916
283.15
290.472
283.15
291.853
290.854
283.15
293.614
283.15
283.15
292.242
283.15
283.15
295.095
295.174
283.15
283.15
295.471
283.15
283.15
296.654
296.182
283.15
297.95
283.15
283.164
283.15
284.109
283.15
283.15
296.012
283.158
296.425
292.999
283.159
299.987
292.786
296.147
283.162
296.781
295.667
293.661
283.15
283.15
283.15
283.15
283.15
303.15
283.162
289.371
283.15
283.15
292.523
283.15
283.15
299.296
283.15
283.15
283.215
283.15
283.15
283.15
283.15
300.858
286.359
287.364
283.249
283.15
283.258
283.15
283.15
283.15
283.15
283.15
291.718
295.911
283.15
283.15
283.15
284.191
288.496
283.15
294.62
283.15
283.15
303.15
283.15
293.608
283.15
283.15
283.329
283.15
283.15
283.15
303.15
287.149
291.365
283.15
283.15
283.15
289.414
283.15
287.744
290.507
283.15
283.15
294.588
293.425
290.191
294.156
293.511
291.586
283.15
283.15
283.15
303.15
283.411
283.15
283.15
290.232
283.15
295.833
283.15
292.084
285.213
283.228
289.291
295.571
283.17
283.15
302.029
294.378
283.15
283.15
294.265
293.209
296.891
283.15
300.504
291.969
301.264
283.15
297.614
283.15
283.15
283.15
283.15
283.15
293.917
295.036
292.925
283.15
283.417
283.15
283.15
292.175
283.15
283.15
283.15
283.15
283.15
283.15
299.359
288.041
283.15
283.15
283.15
283.23
283.15
283.15
283.15
283.15
291.638
283.15
283.15
283.15
283.15
289.775
283.15
283.15
283.15
283.15
283.15
283.15
290.943
283.15
302.662
290.511
283.15
296.798
283.15
285.564
283.15
298.651
303.388
296.195
283.15
283.15
283.15
298.422
283.15
290.072
283.15
283.15
286.384
285.95
283.15
283.15
283.15
283.15
283.15
283.15
283.15
283.15
287.45
293.062
290.387
283.161
283.15
283.15
292.252
283.157
283.15
283.15
283.15
283.15
283.15
283.15
283.15
283.15
283.15
303.15
303.15
283.15
292.002
295.676
283.15
283.15
283.15
296.995
283.15
285.772
283.15
283.15
285.109
285.401
283.15
285.288
283.15
283.15
283.15
295.392
295.462
283.15
283.15
283.15
283.15
283.15
303.243
283.15
303.15
283.15
283.15
283.15
296.085
283.15
283.15
283.15
283.15
291.141
283.15
283.15
283.15
303.15
282.892
283.15
301.982
284.045
303.15
283.15
300.864
294.263
283.15
291.751
283.15
283.15
283.15
303.15
303.15
283.15
283.15
296.672
283.15
295.551
283.15
283.15
293.889
283.15
296.773
283.15
283.15
300.788
303.15
303.15
297.818
283.15
294.85
290.066
283.15
283.15
300.98
284.245
283.15
283.15
291.807
303.15
283.15
283.15
283.15
283.161
283.15
300.84
283.15
283.15
283.15
294.443
283.156
283.15
283.15
283.156
283.15
283.15
296.683
301.947
302.708
293.566
295.791
283.15
283.162
283.156
283.158
300.575
283.15
283.15
291.699
290.409
290.261
290.396
291.71
290.462
283.15
303.15
297.112
283.15
283.15
283.152
290.678
297.955
283.146
283.15
283.667
283.15
283.15
283.15
283.15
283.15
283.15
292.176
294.954
303.15
295.677
284.938
292.865
297.801
298.036
283.15
283.801
283.15
298.076
283.15
296.183
283.15
283.15
298.68
283.15
294.562
298.112
294.134
296.556
293.857
283.15
283.15
297.008
283.15
283.15
285.698
283.15
283.15
283.15
283.15
287.156
291.515
283.189
283.15
295.871
292.072
283.15
283.15
283.15
283.15
299.662
283.178
287.554
286.32
283.196
290.747
291.77
293.865
283.15
283.15
283.174
283.15
283.15
283.15
283.15
290.851
283.15
296.827
283.15
296.331
284.498
295.975
297.512
295.569
287.431
297.251
294.022
288.988
283.15
283.15
297.509
283.15
283.15
283.15
283.15
289.51
283.153
283.15
283.15
283.15
283.15
290.099
283.15
283.15
283.15
283.15
283.15
283.15
283.15
283.15
283.15
295.593
298.738
283.15
302.765
301.08
303.15
283.15
283.15
283.15
293.989
283.15
295.138
283.15
283.15
283.15
302.51
283.15
298.123
290.027
294.386
292.677
300.3
283.15
288.344
300.868
287.19
286.364
290.293
283.15
283.116
283.15
289.93
282.403
293.563
283.15
283.15
296.77
283.15
284.91
291.409
302.41
283.15
283.15
297.411
303.178
283.15
283.15
294.841
290.927
283.15
283.15
283.15
284.322
283.15
283.15
283.15
283.15
283.15
283.15
283.15
283.15
283.15
283.15
300.293
283.15
283.15
283.15
294.648
300.45
290.232
283.15
283.15
298.925
283.15
283.15
283.15
283.221
283.15
297.203
283.15
285.063
297.045
283.144
291.766
283.15
298.597
283.15
283.15
290.645
283.15
283.15
283.149
283.15
293.209
282.638
291.896
283.15
286.407
303.151
283.223
283.15
293.63
286.013
283.15
283.15
283.15
297.34
285.998
283.745
283.15
284.423
283.289
283.15
283.15
293.79
283.15
284.347
293.855
283.15
289.459
297.401
287.168
283.15
283.15
283.15
295.705
283.15
296.337
283.15
283.15
293.351
296.75
292.712
303.15
287.441
294.98
285.601
293.845
285.811
283.15
296.631
287.969
293.045
303.15
286.259
283.15
288.237
285.271
285.173
285.788
285.47
288.564
287.174
294.507
295.578
283.15
289.254
283.15
283.15
283.182
283.15
283.151
283.152
283.15
288.52
299.552
288.967
288.381
287.414
283.151
286.464
302.407
283.15
295.184
292.973
283.15
294.817
291.003
291.245
283.15
283.15
295.854
283.15
292.407
283.152
283.15
283.15
283.15
302.589
296.43
286.903
293.381
283.15
294.453
283.15
303.104
283.15
283.152
283.15
283.15
292.483
292.748
283.15
283.15
284.081
299.069
283.15
283.15
283.15
283.362
283.268
293.924
300.076
283.151
299.602
283.153
299.155
299.188
302.348
302.085
299.49
299.694
299.539
289.055
284.727
283.15
283.15
284.718
288.847
293.561
283.25
284.532
283.363
285.601
283.314
283.15
283.292
289.984
283.15
283.15
301.038
283.15
299.975
301.473
289.118
283.15
283.15
283.15
290.273
299.042
285.938
283.15
283.15
283.15
283.15
283.15
283.15
283.15
283.15
283.15
283.15
288.496
283.15
285.998
283.15
283.15
283.15
283.15
292.126
297.392
283.15
286.356
283.15
283.15
283.15
295.912
283.15
283.15
283.15
283.15
283.15
286.83
283.15
283.15
283.15
301.896
302.257
283.15
283.15
301.13
304.618
283.15
302.216
302.159
283.15
283.15
283.15
283.15
302.353
283.523
283.15
283.15
302.35
283.15
283.15
283.15
283.15
283.15
283.15
283.15
303.081
283.15
296.172
283.15
283.15
283.15
283.15
283.15
283.15
290.507
283.15
283.278
283.15
283.15
283.15
283.15
299.254
283.15
283.15
283.15
287.046
301.438
283.15
301.094
291.197
300.51
283.15
301.533
283.15
298.683
283.15
290.718
290.437
296.682
298.689
297.847
294.206
283.15
293.022
300.207
283.15
287.178
298.93
283.15
283.151
283.15
284.221
299.026
287.904
299.041
291.659
283.15
283.15
295.773
283.15
283.15
283.15
296.742
289.166
295.186
283.15
297.322
283.15
283.15
298.131
297.058
290.759
291.815
297.131
290.31
287.445
297.546
298.821
303.15
283.15
285.558
283.15
304.272
290.598
287.61
296.078
283.15
296.478
283.15
283.15
294.753
297.508
283.15
292.301
283.15
283.15
292.191
283.15
283.15
301.821
283.15
296.487
286.151
297.298
283.15
283.15
283.15
301.925
283.15
295.023
294.909
288.688
295.602
300.127
283.15
283.15
283.15
283.15
299.359
296.604
283.15
283.15
285.252
283.15
294.54
283.15
303.144
295.581
295.685
290.648
299.161
290.292
291.497
303.15
293.346
283.15
283.15
283.15
286.954
294.905
289.447
283.15
283.15
289.477
283.15
283.15
287.957
283.15
294.357
291.275
292.791
289.749
283.15
298.281
295.795
300.579
291.767
283.15
293.028
294.064
284.603
296.425
297.126
291.392
296.642
293.735
296.624
297.118
300.245
283.637
283.303
290.562
283.15
283.15
303.109
303.15
283.15
291.627
290.322
283.15
283.15
303.15
303.15
293.95
283.783
283.15
284.803
283.589
287.263
283.611
283.622
283.431
283.522
295.839
289.752
283.15
283.15
298.638
283.15
293.979
293.041
283.15
302.505
288.34
283.15
283.15
294.038
283.15
283.15
283.15
289.196
283.15
293.994
291.646
283.15
302.709
283.15
283.15
298.267
295.639
303.15
288.107
297.619
300.9
283.15
283.15
295.836
295.993
293.491
283.15
283.15
294.743
292.657
283.15
283.44
296.361
288.28
293.722
297.255
287.556
297.036
283.851
292.345
283.15
283.15
283.15
283.15
295.554
295.032
283.927
300.806
295.229
283.15
283.15
283.15
291.106
283.373
283.15
283.15
289.493
283.15
283.15
303.15
283.15
293.539
294.226
284.362
283.15
283.15
302.463
295.125
297.406
289.867
289.766
283.15
283.15
283.15
283.15
294.149
290.412
283.15
283.933
283.852
283.87
283.807
283.15
283.76
283.15
294.283
295.59
285.18
291.727
283.15
283.15
283.15
283.15
295.97
295.656
295.898
295.661
294.995
295.656
283.151
295.377
295.331
290.231
292.112
291.47
295.208
283.15
294.778
283.15
302.972
294.652
295.674
296.852
285.481
295.168
290.264
285.429
283.15
290.287
293.755
283.15
282.851
283.15
294.992
283.15
292.896
300.07
297.295
283.146
297.865
283.15
300.966
290.299
293.521
283.15
293.566
301.325
296.121
283.15
291.784
283.478
292.851
283.15
283.15
283.15
293.255
293.072
295.588
292.209
283.15
283.15
283.15
293.668
291.673
294.985
292.781
290.911
283.15
283.15
291.12
283.15
290.438
289.494
292.565
296.963
283.15
297.622
286.673
283.15
299.374
290.225
283.15
303.199
283.15
283.15
283.15
283.15
283.15
283.15
289.779
283.15
283.15
283.15
291.96
290.824
291.373
287.294
290.076
297.476
295.797
283.15
297.28
283.6
283.15
288.682
303.15
297.598
283.15
292.289
283.15
283.883
283.151
283.15
283.15
298.146
290.163
303.15
290.137
289.598
287.531
289.977
289.549
291.993
286.326
303.15
283.15
289.699
286.599
283.15
283.15
283.15
283.15
289.997
296.717
283.15
283.15
292.793
283.15
283.15
301.587
283.15
288.684
283.15
293.495
296.618
292.58
283.22
283.15
300.899
283.15
283.15
283.15
283.15
283.15
286.249
295.424
289.505
295.879
283.15
283.15
283.15
302.452
283.15
283.15
295.431
303.114
283.15
294.447
283.15
293.83
296.744
289.414
283.15
283.15
283.15
295.689
283.15
289.339
295.694
283.15
296.586
283.15
283.15
283.15
283.15
303.15
283.15
283.15
283.15
283.15
283.15
283.15
283.15
283.15
287.477
283.187
283.15
283.15
283.15
293.662
290.315
283.15
283.15
293.453
283.15
283.15
283.15
283.15
283.15
283.15
283.15
283.15
283.15
283.15
293.122
283.15
292.377
298.827
290.611
283.15
296.531
283.15
283.15
296.887
297.075
296.905
283.15
283.15
283.15
283.15
283.15
283.15
297.204
287.571
301.622
283.15
283.15
283.382
283.15
283.15
283.15
283.15
283.15
283.15
283.15
293.603
287.05
287.932
288.498
288.798
283.15
291.976
283.15
283.15
283.15
283.15
283.15
283.15
290.046
296.74
283.15
283.15
283.15
293.006
283.15
290.997
296.135
283.15
291.731
283.15
283.15
283.15
288.736
290.993
286.744
287.808
288.536
291.267
287.908
297.692
283.15
283.15
283.15
300.988
285.008
295.938
283.15
285.036
284.918
283.153
283.15
290.693
283.15
296.452
283.15
283.15
283.15
283.15
297.486
285.004
283.15
283.15
295.805
296.941
289.2
283.15
293.923
300.246
293.384
301.698
294.025
283.15
283.15
283.154
283.15
283.15
283.171
283.15
284.1
283.17
293.629
283.214
283.15
283.15
283.15
283.15
283.15
283.15
283.15
283.15
283.72
283.15
283.15
283.15
283.15
284.771
283.15
283.15
283.15
283.15
283.15
283.15
283.15
283.15
293.736
283.15
283.15
301.233
283.568
283.15
288.404
283.15
283.15
288.446
283.15
283.15
293.863
283.15
283.15
283.15
283.15
283.15
283.15
283.15
283.15
283.15
283.15
286.956
283.15
283.15
283.15
283.15
283.15
293.97
283.15
283.151
283.15
283.15
283.15
283.15
293.24
283.15
293.164
283.461
283.15
286.993
283.15
283.15
294.43
283.15
294.018
283.15
283.169
283.15
288.309
283.15
283.15
292.165
284.197
283.15
294.207
283.15
302.493
283.15
295.196
297.197
283.15
295.372
283.15
283.15
283.15
283.15
283.15
295.688
283.15
291.755
296.678
283.15
290.914
298.884
292.076
291.785
290.551
290.805
283.15
283.15
283.15
283.15
283.15
283.15
283.15
283.15
283.15
283.15
283.15
283.15
283.15
283.15
283.15
283.15
283.15
283.15
283.15
283.15
283.15
283.15
283.15
289.753
283.15
283.15
283.15
283.15
295.013
283.15
283.15
294.62
283.456
283.15
283.15
283.15
283.15
283.15
283.15
283.15
284.892
283.15
283.15
283.15
283.15
283.73
283.15
283.15
283.215
284.925
283.15
283.15
283.15
283.747
283.15
283.15
283.15
284.994
290.1
283.15
283.15
283.15
283.15
283.15
283.15
283.15
283.15
283.15
283.15
283.15
283.15
285.295
283.15
289.575
285.498
285.34
290.98
283.15
283.15
283.15
283.255
285.997
283.322
283.15
290.265
283.15
283.15
283.15
283.15
283.315
293.261
283.15
287.962
293.891
283.15
283.15
283.331
283.15
283.15
283.15
283.15
283.15
294.183
283.15
283.15
283.15
283.15
283.15
283.15
283.15
290.619
283.311
283.15
289.996
283.15
283.15
283.15
283.15
288.735
283.15
289.236
301.692
295.457
289.026
283.15
283.15
296.053
283.15
283.15
290.269
283.15
289.02
283.15
283.154
283.15
296.327
288.938
303.15
283.15
283.15
283.15
288.74
295.591
291.084
283.15
284.62
284.491
300.434
283.209
284.477
286.773
283.15
283.15
283.15
290.598
289.448
283.15
283.15
283.15
283.15
283.15
289.672
283.15
283.22
283.15
284.926
289.14
283.15
283.15
283.15
283.15
283.15
283.15
283.15
285.767
287.997
283.15
293.681
283.15
283.15
303.15
283.15
283.15
296.859
303.15
288.242
283.15
283.151
283.15
290.427
291.749
283.15
288.964
283.15
283.15
285.249
295.331
283.15
283.15
283.202
283.15
283.15
293.559
294.198
283.15
283.15
283.15
283.202
299.047
292.575
283.195
283.15
283.264
283.15
283.15
286.516
283.15
283.15
283.15
303.15
283.15
283.15
283.194
283.15
283.15
283.15
291.241
283.15
283.15
283.15
283.15
283.15
294.731
283.15
283.15
283.15
283.15
290.166
283.15
283.151
283.15
283.15
283.15
283.15
283.218
283.15
283.15
283.15
283.15
283.15
283.15
283.15
283.361
283.15
283.15
288.342
298.835
283.15
283.15
283.15
283.15
283.15
283.15
283.15
284.073
283.15
283.15
283.15
283.15
283.15
283.15
283.15
283.15
283.15
289.495
283.15
283.15
283.15
283.15
283.15
283.15
283.15
294.027
283.15
302.572
283.212
283.15
283.15
283.192
283.15
283.15
283.15
283.15
283.15
294.12
294.115
283.15
283.15
283.15
283.15
283.15
283.15
283.15
283.15
283.54
283.15
283.15
283.15
293.326
283.15
283.15
283.15
290.486
290.545
283.151
283.15
283.15
290.921
283.15
283.15
283.15
296.221
283.15
290.857
283.151
283.15
283.15
283.15
295.058
284.671
283.15
283.15
283.15
283.15
283.15
283.15
295.669
283.15
283.15
283.15
283.151
294.856
295.614
283.15
283.15
295.668
283.15
283.15
284.36
283.152
283.15
283.15
283.615
283.16
284.428
284.338
284.289
283.15
293.732
291.803
283.15
295.983
283.15
283.15
296.329
283.15
283.15
284.014
283.15
294.526
283.15
294.618
289.503
294.903
290.583
294.653
283.15
283.15
283.15
295.201
283.15
294.713
302.647
294.618
294.938
283.15
291.588
293.671
293.585
294.924
302.752
283.15
302.966
302.575
297.018
290.282
283.15
296.285
295.058
290.554
290.317
286.759
303.15
290.973
295.15
283.15
283.15
290.287
283.15
283.15
295.635
283.15
303.15
283.15
283.15
290.588
290.296
295.03
283.15
296.858
283.15
283.15
283.15
295.929
296.698
295.611
294.367
295.435
283.15
295.733
283.15
294.507
302.727
283.15
289.439
283.15
283.15