/*--------------------------------*- C++ -*----------------------------------*\
  =========                 |
  \\      /  F ield         | OpenFOAM: The Open Source CFD Toolbox
   \\    /   O peration     | Website:  https://openfoam.org
    \\  /    A nd           | Version:  10
     \\/     M anipulation  |
\*---------------------------------------------------------------------------*/
FoamFile
{
    format      ascii;
    class       surfaceScalarField;
    location    "59";
    object      phi;
}
// * * * * * * * * * * * * * * * * * * * * * * * * * * * * * * * * * * * * * //

dimensions      [0 3 -1 0 0 0 0];

internalField   nonuniform List<scalar> 
214403
(
-0.000467206
0.000358388
1.96241e-05
8.91935e-05
-0.000224088
-0.000756491
6.36772e-05
0.000916902
-0.000692996
4.67436e-06
-9.40187e-06
0.000697724
0.000615815
-0.000414045
-0.0010322
0.000830429
0.000831609
-0.00105145
0.000250522
-3.06777e-05
-0.000355419
0.000370294
-3.69139e-06
-1.11836e-05
-5.80147e-05
-0.000109776
-0.000623925
0.000791716
-0.001149
0.00065445
-0.000172904
0.00066745
-0.00157554
0.00111379
0.00112256
-0.000660808
0.000958587
0.00011368
-0.00107181
-4.57575e-07
0.000340696
-0.000674975
0.000138988
0.000195291
-0.000700152
0.000219975
0.000363247
0.00011693
3.19447e-05
-0.000774199
0.000932449
-0.000190195
-0.00067159
0.00067629
-4.70011e-06
0.000129337
0.000807212
-0.0010347
9.81514e-05
-0.000809519
0.000676575
0.0002051
-7.21565e-05
-0.000819407
0.000799208
2.01989e-05
0.000268002
-7.70285e-06
-5.28591e-05
-0.00020744
0.001062
-0.000635363
-0.00141178
0.000985143
-5.23986e-06
-0.000214462
6.29982e-06
0.000213402
0.000442782
-0.000432398
-1.0384e-05
-0.000816588
-0.000282544
0.000280958
0.000818173
-0.000154141
0.000923223
-0.00074468
-2.44025e-05
0.000454647
4.78644e-05
0.000158541
-0.000661052
-0.000692752
-0.00033431
0.000896958
0.000130104
0.000638627
-0.000808604
4.99203e-06
0.000164986
0.000218304
-0.000190927
0.000715508
-0.000742885
0.000517207
0.000676155
-0.000814459
-0.000378902
0.000756161
-0.000474184
-2.13952e-05
-0.000260582
-0.000406622
0.000414488
-7.86563e-06
0.000162832
-0.000341691
0.000917039
-0.00073818
0.000955868
4.53627e-05
-0.000166427
-0.000834804
-0.000389282
-0.00039937
0.000408979
0.000379672
-7.92961e-05
-0.000447083
0.000396102
0.000130278
0.000288049
-0.000192687
-0.000625755
0.000530393
-0.000113933
0.000564226
-0.000203899
-0.000246393
0.00108649
-2.89179e-05
-0.00105757
-0.000466229
0.000909312
-0.000443083
7.84947e-05
-0.000989066
0.000577161
0.000333411
0.000166155
-6.67703e-05
0.000406725
-0.000506111
0.00037578
-3.92273e-06
-0.000371858
0.000693775
-1.50957e-05
0.000122474
-0.000801153
-0.000878755
0.000110681
0.00093423
5.8491e-05
5.87636e-05
0.00058375
-0.000701005
-0.000280795
-0.00182171
0.00176717
0.000335337
0.000393659
7.13933e-05
8.89807e-05
-0.000554033
0.000286624
0.000217212
-0.000701045
0.00019721
0.000903548
0.00054112
-0.000990021
8.20757e-05
0.000767161
-0.000155462
0.000126296
-0.00047331
-0.000278343
0.000625357
0.000214917
0.000330316
9.8659e-05
-0.000643892
0.00012337
-9.26045e-05
-0.000283501
0.000252735
0.000475829
-0.000861128
0.000600217
0.00080698
-0.000759534
-0.000260221
0.000212775
0.000736915
-0.00013479
-0.000582379
0.000789378
-3.35436e-05
-0.000173456
0.00059892
-0.000765882
8.89682e-06
0.000158065
-0.000548698
3.6205e-05
0.000876721
-0.000364227
-0.00103649
-0.000973605
0.000817694
0.0011924
-0.000555086
0.000558591
0.000109759
-0.000113265
8.75688e-05
-0.000709425
-0.000594882
-1.23666e-05
0.000309308
0.00029794
-0.000906141
0.000389416
0.000586202
-6.94778e-05
0.00106628
-0.000860036
5.56816e-05
-0.000261928
4.85164e-05
1.79498e-05
-0.000684631
0.000618164
3.54866e-05
-0.000193509
0.000956014
-0.000797991
-0.00238872
0.000259135
0.000270612
0.00185897
-0.000217536
0.000641395
-0.000203525
-0.000220334
0.000314044
-0.000165561
-0.000670048
0.000521565
7.52815e-05
0.000467578
-0.000594132
5.12726e-05
-1.03077e-05
0.000573282
0.00020025
-0.000763224
-0.000114074
-1.82057e-05
-0.000236936
0.000369215
-0.000623932
0.000680388
-2.51149e-05
-3.13418e-05
2.12528e-05
-0.00061335
-0.000441288
0.000390665
0.000118765
-6.81419e-05
-0.00114612
-7.23205e-05
0.000559021
0.000659423
-0.000338815
-0.000144358
0.000288229
0.000194944
0.000509947
-0.00171055
0.000237338
0.000963261
-0.00026014
0.000523666
-0.000285973
2.2447e-05
0.000369785
-0.000287451
3.59668e-05
-0.000118301
8.71283e-06
-0.00071777
0.000709057
2.43056e-06
0.000581975
-0.000584406
0.000501784
-9.81805e-05
6.64701e-05
-0.000470073
-0.000315048
0.000449605
0.000148898
-0.000283455
-0.00021733
0.000924832
-0.000222233
-0.000485269
0.000437232
-0.000745301
-2.82627e-05
0.000336332
0.000501906
0.000513955
-0.00101586
0.000738012
-0.000829028
0.000212036
-0.00012102
7.32795e-05
-0.000132203
0.000960103
-0.00090118
2.74986e-05
-0.000155191
0.000692598
-0.000564906
0.000165819
0.00144598
0.000415368
-0.00202717
-0.00126958
0.00111712
0.000724468
-0.000572002
5.8165e-05
0.000446581
-0.000600493
9.57471e-05
0.000590584
0.000656505
-0.000214917
-0.00103217
0.00110009
-0.000668253
-2.1657e-05
-0.000410177
4.91493e-05
-0.000144137
-0.000452542
0.00054753
-0.000457109
2.53734e-06
0.000454571
0.000668402
2.33628e-05
4.62468e-05
0.000833881
6.67915e-05
-0.00127337
0.000372699
-0.000667013
0.000147183
0.000118992
0.000400839
-0.000432059
0.000107153
5.3165e-05
0.000271741
0.000103539
7.37928e-05
-0.000878305
0.000700973
-0.000175976
-0.00102454
0.000653275
0.000547236
0.00041985
-0.000496812
-0.000323851
0.000400814
0.000677694
-6.82531e-06
-0.000677345
6.47649e-06
0.000507347
-0.00071793
-0.000246716
0.000457298
0.00131634
-0.000398264
-0.000205064
-0.000713014
0.000762795
-1.35397e-06
-0.00070123
-6.0211e-05
-0.000385126
0.00045315
0.000943385
-0.00101141
0.000825199
-0.000290311
-0.000793376
0.000258489
0.000151178
-0.000222281
0.000965893
-0.000894791
-0.001088
0.000991212
0.00094032
-0.000843537
4.91151e-05
-0.000847543
0.000326817
0.000471611
0.0010599
-5.68606e-05
-2.15399e-05
-0.000981501
0.000766752
-0.000149518
0.000147724
-0.000764958
-0.000863653
-0.000785508
0.000929731
0.00071943
-0.000168782
0.000484063
0.000131237
-0.000446518
-0.000362783
1.95507e-05
0.000701529
-0.000358297
-8.28832e-05
0.000931479
-0.000867056
1.84599e-05
-0.000824235
0.000765474
0.000148969
-9.02079e-05
-2.76241e-05
-0.00048076
0.00114701
0.000146299
-0.000484797
-0.000356621
0.000695119
-0.000382771
5.02578e-06
0.000377745
0.000117421
0.000533512
-0.000492976
-0.000157956
0.000872856
-0.000503046
-0.000134367
-0.000235443
8.60634e-06
-0.000266132
0.000257525
-0.000482969
-0.000130287
0.000183132
0.000430124
5.05703e-05
0.000277937
-0.000623665
0.000295157
0.00109542
-9.8963e-05
0.000428086
-0.00142455
7.42732e-05
-9.89416e-05
-0.00128824
0.00131291
8.28196e-05
-0.000372835
-0.000487182
0.000777197
3.17864e-05
0.000674807
-3.8191e-05
2.7182e-06
-0.000406061
0.000403343
0.000806101
-0.000299859
-0.000359943
-0.000488363
0.000406329
-0.000400934
0.000906791
-0.000754339
-9.18737e-05
-6.05781e-05
8.88506e-05
-0.000420051
0.000183674
0.000147526
-0.000739684
-0.000223839
0.000150343
0.00081318
0.000615096
-0.000999981
0.000658786
-0.000273901
-2.7792e-05
0.000902966
-0.000904033
2.88586e-05
-2.99743e-06
0.000817395
-0.000809911
-4.48646e-06
-0.00114866
0.000916584
-0.000735932
0.000968008
0.000957844
-0.00092654
-3.13032e-05
-0.000879431
0.00117739
-0.000214902
-8.30608e-05
-0.000786466
0.00018991
-6.13936e-05
0.000657949
-0.00129405
9.97106e-05
0.000831922
0.000362418
0.000225037
-0.000307292
0.000171106
-0.000324624
0.000369454
0.000593897
-0.000638727
-0.000336578
-0.000151242
0.000192833
0.000294987
-0.000466753
0.00030525
-0.000589419
0.000750923
0.000140048
1.15141e-05
-0.00103099
-0.000469073
0.000468032
1.0411e-06
0.000495884
-0.000476549
-1.93348e-05
-0.00075909
-5.02895e-05
-0.000201731
0.00018637
-0.00100017
0.00116383
-0.000350038
0.000449976
0.000774152
-0.000984861
-0.000239266
0.000859931
-0.000933959
2.5275e-05
4.87526e-05
0.000457601
0.000118526
-0.000472605
-0.000103521
-0.000719025
-4.30078e-05
0.000948402
0.000426545
-3.088e-05
-0.000520084
0.000124419
0.00048062
-0.000411639
0.000474235
-0.000543215
-0.000819169
0.000154055
0.00111509
-0.000276465
-0.000387095
0.00127963
-0.000616067
-0.000389031
-0.000435341
0.000105347
0.000118031
0.000312512
-0.000819574
-0.000556806
-4.91732e-05
0.000894369
-0.000288389
8.69082e-05
0.000138263
0.00049788
-0.000723052
-0.000259106
0.000634647
-0.000375541
0.000208541
-0.00100594
0.000362055
0.000601353
0.000418511
-0.000901832
-0.000831865
9.96579e-06
0.00103663
-0.00021473
0.000147182
0.000126457
0.000394591
-0.00066823
0.000571295
-0.00057585
4.55437e-06
0.000210634
-7.95494e-05
0.00070709
-0.000838174
0.000758231
-0.000240285
0.000364356
-0.000882302
0.00139362
-0.000449307
0.00104147
-0.00198578
0.000221987
0.000413987
-0.000171632
-0.000464342
-0.00064505
0.000265607
0.000337267
4.21761e-05
0.000460731
-0.000347245
-9.50029e-06
-0.000103986
-0.00028715
-0.000361989
0.00105621
-0.000407075
-0.000517038
0.000672128
0.000266965
-0.000422055
0.000780026
-4.26446e-05
-0.000256762
-0.00118372
0.000782029
-6.5067e-05
-0.00113002
0.00104234
0.000484297
-0.00039661
0.000720667
-0.000811899
-0.000117298
0.00020853
0.000405208
-0.00073246
-0.000383257
-0.000418509
-0.000383808
0.000217336
0.000584982
-0.000597422
0.000185301
0.000589811
-0.00017769
0.000694185
-0.000659725
-0.000455383
0.000420923
4.2554e-06
-6.13591e-06
-0.000663129
0.00066501
1.55699e-05
-0.000567528
-2.15659e-05
0.000573524
-0.000167946
-0.000994142
0.000156647
-0.000574811
0.000516544
-9.83793e-05
-0.00038214
-0.000161067
-5.42149e-05
-1.20582e-05
0.000957712
1.29326e-05
-0.00229258
0.00161357
0.00116581
-0.000486805
-0.000677341
4.58892e-05
2.42861e-05
0.000607165
-0.000133866
0.00214729
-0.00252982
0.000516397
0.000109588
0.00016895
-0.000379127
0.00010059
-0.00145131
0.000782013
0.000100343
0.000568951
-1.69426e-05
-0.000962054
-0.000137364
0.00111636
-0.000388193
0.00144732
-0.00100282
-5.63109e-05
0.000650871
0.000945332
-0.000874924
-0.000721279
-0.000777846
0.000740715
0.000920135
-0.000883004
0.000308116
0.000430501
-0.000536103
-0.000202515
0.000299475
-0.000201984
-0.000479631
-0.00154472
-6.12959e-05
0.00126098
0.000345039
0.000463312
7.30025e-05
-0.000270707
0.00046579
0.000624383
-0.000576343
-0.00051383
-0.000773929
0.000172478
0.000753812
-0.000152361
9.12577e-05
0.000242473
0.000843663
-0.000893384
0.000882191
8.57418e-05
-7.45485e-05
0.000565418
0.000443976
-0.00039917
-1.58031e-05
-0.000112248
0.000527221
-0.000590727
-0.000117357
0.000333821
-0.00112549
0.000475173
0.000316496
3.49766e-05
0.00061506
-0.000682784
3.27467e-05
-0.000231253
4.47199e-05
-0.000214982
0.000401515
0.000950777
-0.000679649
2.83475e-05
-0.000539373
-0.000421989
0.000567455
0.000393908
0.00203937
-0.00218137
0.000712508
-0.000570504
-0.000400784
0.000497826
0.000200728
-0.00029777
-0.000892215
0.000388101
0.000777537
-0.000273423
-0.000385887
0.000561641
0.000722248
-0.000898002
0.00107681
-0.000416463
-0.000709958
4.96068e-05
1.85578e-05
-0.000258426
0.000628583
-0.000388714
-0.000109151
0.000108258
-0.000830973
0.000780122
0.000252528
-0.000835142
-0.000197508
0.000973586
-0.000801676
-0.000214918
0.000200631
0.000294907
-0.000703362
0.000207823
-0.00041072
-0.000750823
0.000668559
0.000492985
-0.000123102
-0.000319402
-9.6869e-05
0.000401406
-0.000428394
0.000923604
-0.000896616
9.69973e-05
-0.00111416
0.00101717
0.000367786
-0.000483804
0.00031665
0.000210215
0.000123067
0.000172721
-0.000506003
-2.2414e-05
-0.000928907
0.000951321
-0.000520013
6.90133e-05
-0.000168617
0.000619616
-6.1481e-05
0.000704901
-0.000642441
-9.7904e-07
-0.00047845
-0.000252999
0.000276108
0.000455342
-0.000178479
-0.000423074
-0.000392897
-0.000577555
0.000481597
0.000488856
2.12184e-05
-0.000592594
0.000997805
-0.000410414
-5.3196e-05
-0.000534195
0.000544721
-5.31075e-05
-0.000397447
-9.41664e-05
-8.74365e-05
0.000761787
-0.000949693
0.000275342
0.000479236
1.85223e-05
0.000233405
-0.000731164
-1.76998e-05
-0.000395572
0.000190987
0.000222285
-0.0002809
0.000364699
0.000703502
-0.000787301
-0.000990999
-0.000250054
-0.000271165
0.000889006
-0.000847863
2.02751e-05
0.000265136
0.000562451
8.18427e-05
-0.000300954
-0.000535579
0.00075469
-0.000399193
-0.000779235
0.000196606
0.000981823
-0.000349684
-0.000386186
0.000401513
0.000334357
-0.000917942
0.000883772
0.000934902
-0.000900731
-0.000127745
-0.000223149
-0.000672005
0.0010229
-0.000923116
8.6785e-05
0.000938372
-0.000102041
-0.000161115
0.000423067
-0.000261953
-0.000372342
0.000688587
-0.000518401
0.000202156
-1.49282e-05
0.00120656
-0.000449272
-0.000742357
-0.000431838
-0.000208209
0.000865604
-0.000225556
0.000139156
-0.000365028
0.00082833
-0.000602458
3.89265e-05
0.000551825
-9.67259e-05
-2.91381e-06
-0.000881133
0.000880787
3.25987e-06
0.00103294
-0.000182929
-0.00150956
0.000659549
-0.000953728
-9.3034e-05
0.00119021
-0.000143453
-0.000515542
0.000779189
6.40219e-05
-0.000327669
0.00045278
-0.000448374
-4.40605e-06
-0.000537932
5.21009e-05
-0.000464603
0.000950434
-0.000774096
0.0010672
-0.000222674
-7.04255e-05
0.000483666
-0.000202799
-0.000582488
0.000301621
-0.000932903
0.000940348
-7.4449e-06
0.000769485
-0.00111863
9.11539e-05
0.000257995
-0.000871489
-0.000238762
0.00149014
-0.000379885
0.000642583
-2.57725e-05
-0.000135439
-0.000481372
-0.00036716
-0.000622843
0.00139141
-6.53394e-05
-0.000918924
0.000555869
0.00141351
-0.00157657
-0.000149678
0.000312739
0.000395587
0.000188658
-0.000437063
-0.000411178
0.000427569
-1.63907e-05
-0.000164952
0.000923021
-5.86199e-05
-0.000699449
-0.000201364
0.000238738
0.000800875
-0.000838249
0.000523428
0.00122975
-0.000719263
-0.00103392
0.000921924
-0.00110613
0.000351587
-0.000167383
0.000815731
1.16791e-05
-0.00082741
1.53273e-05
0.000793916
-0.000809244
0.000897098
-0.00108523
0.000957622
1.01319e-05
-8.35632e-06
0.000696428
-0.000698203
1.74115e-05
0.00127304
-0.00126764
-2.28156e-05
-0.000108513
-0.000321257
-0.000650586
0.00108035
-0.000397092
-0.000237875
7.94585e-05
0.000754247
-0.0013095
0.000475794
-0.000620172
-0.000162464
0.000664766
0.000117871
-0.000751051
0.000829679
-0.00022163
0.000143002
0.000115245
0.000601283
-0.00020442
-0.000512108
-0.000282767
6.70037e-05
0.000488375
-0.000272612
1.74378e-06
0.000233469
-0.000296928
6.17155e-05
-0.000317127
0.000780991
-0.000452406
-1.14569e-05
0.000232515
-0.000735903
-0.000429515
5.44485e-06
-0.00068558
0.000680135
-0.000261467
-0.00025099
0.000116275
0.000396182
0.000375277
-0.000216363
-0.000158914
0.000960312
-0.000953394
-0.00019494
0.000188022
-8.69356e-05
-0.000568278
0.000524014
0.0001312
-2.42845e-06
3.2545e-06
0.000526237
-0.000527063
0.000263797
-0.000216756
-0.000838638
0.000791596
0.000607202
-1.52421e-05
-0.00059196
-0.000866679
-0.000560849
0.000836217
0.00059131
0.000508963
0.000797249
-0.00137155
0.000482188
-0.000173799
0.000271987
-0.000580376
-0.000193504
0.000193385
-0.00106715
0.00106727
0.000301612
-0.000594058
-0.000577118
0.000869564
-6.05785e-05
-0.00013341
0.000629085
-0.000435097
0.000438021
-0.000538362
0.000195044
-9.47027e-05
0.000251346
-0.000416197
-0.000402017
0.000566868
-0.00078987
0.000889246
-0.000236701
0.000137325
0.000909413
0.00116928
-0.00128929
-0.000789399
-0.000696626
0.000693789
2.8367e-06
-7.91673e-05
0.000823998
-0.001026
0.000281173
3.07851e-05
-5.16013e-05
-0.0007917
0.000812516
0.000759929
3.17966e-05
-0.00087425
8.2525e-05
-0.00034004
-0.000574471
0.000722587
0.000191923
-0.000822451
0.00116557
-0.000412627
6.9505e-05
-0.000323337
-0.000397169
0.000235708
-4.91964e-05
-8.26893e-06
-0.000569086
0.000626551
-0.00185698
7.96901e-06
0.000165505
0.00168351
7.1667e-05
-0.000460298
-0.000239065
0.000627696
0.00116244
-9.55506e-05
-0.00037645
-0.000690436
-0.000199413
-0.000438406
8.07989e-05
0.000557021
0.000333461
-1.16464e-06
-0.000332296
0.000547093
0.00029142
-0.000181452
-0.000657061
0.000422933
-0.000334827
0.000833453
-0.000921559
2.66179e-05
0.000867002
-0.000286683
-0.000606936
0.000210682
0.000300961
0.000650794
-0.000404563
3.09292e-05
0.000373634
-0.000529705
7.60813e-05
0.000139807
8.82386e-05
-0.000728431
0.000500385
-0.000706573
0.00103395
0.000313321
0.0010686
-0.000226704
-0.00115522
-0.000679418
0.000664572
-0.00105328
0.00106813
-9.92655e-05
-0.000497113
0.000174079
0.000422299
-0.000559341
0.00106125
0.00031799
-0.000384304
9.13958e-05
-2.50822e-05
-0.000348581
-0.00111004
0.000347295
0.00111132
0.000728935
-0.000727468
-6.59262e-06
5.12494e-06
0.000586962
-0.000685776
0.000145552
-4.67385e-05
0.000151033
0.000592345
-0.00105507
0.00031169
2.55075e-06
0.000496468
-0.000499018
0.000329737
-0.000844473
0.00066577
-0.000319006
0.000856532
0.000721559
-0.00125909
0.000242337
-0.000247991
-0.00114968
0.00115534
-0.000348334
0.000576385
-0.00115625
0.000928204
-0.000825527
0.000657272
0.000861741
-0.000693486
-0.00050623
0.00069327
-0.00044794
0.0002609
-0.000111716
0.000486455
7.94468e-05
-0.000454185
0.000235865
-0.00034361
0.000354146
-0.000246401
0.000465569
0.000173338
0.000153301
-0.000792208
0.001296
-0.000879183
-5.34687e-05
-0.000363346
-1.71756e-07
-0.00062821
0.000628382
0.000395255
-0.000576789
-0.00176863
0.00195016
-7.89998e-05
-0.000856772
-0.000259542
0.00119531
-5.07088e-05
-0.000384376
0.000435084
0.000119759
0.000568792
-9.04221e-05
-0.000598128
-0.000155474
-0.00056111
0.000452951
0.000263632
0.000454423
-0.000380811
-0.000668494
0.0011315
-0.000880763
0.000255098
0.000269835
-0.000524933
0.00085756
-1.01826e-06
-9.82739e-05
-0.000758268
-0.00016748
-0.000285189
0.000452669
0.000297622
0.000197135
0.00170918
-0.00205616
-0.000725366
0.00107234
0.00025641
0.000546336
-0.000417887
-0.000384858
-0.000597926
0.00114574
0.000760392
-0.00130821
0.000673866
0.000233873
-9.01629e-05
-0.000817576
0.00109101
-0.000727385
0.000469406
-0.000833034
-0.000623309
0.000285116
-0.000780913
0.00111911
-0.00101777
0.00182417
-0.000714742
-9.1661e-05
-2.89869e-05
-0.000423956
-0.000585118
0.00103806
0.000824702
0.000341007
-0.000968164
-0.000197546
0.000442489
-0.00118029
0.000744707
-6.90889e-06
-0.00104173
-3.94745e-05
0.000681266
0.000399936
-0.000208344
0.000540161
0.000235327
-0.000567144
-0.000132611
0.000531068
0.000427502
-0.00082596
-0.00108547
0.000558647
-5.26412e-05
0.000579461
9.5439e-05
-0.000287855
0.000574393
-0.000381977
0.000470383
-0.00023666
0.000167904
-0.000401628
0.00044582
8.49338e-05
4.367e-05
-0.000574424
-0.00064291
0.00069001
0.000255392
-0.000302492
-0.000155664
0.000834989
1.66018e-05
-0.000695927
0.000674884
-0.000396046
-0.000261808
-1.70302e-05
0.00056854
3.80847e-06
-0.000572349
0.000416159
0.000322308
-7.30664e-05
-0.000665401
0.000199372
0.000525181
0.000448265
-0.00117282
-6.81215e-07
-0.000941866
0.000942547
-0.000492669
0.00190449
-0.000277234
-0.00113459
-8.01047e-06
0.000709117
-0.000701107
-4.64352e-05
-0.000500038
8.9756e-05
0.000456717
-0.000927765
0.000471872
0.000360684
9.52091e-05
0.000189325
0.000157552
-0.00108606
0.000739181
0.000541732
0.000855818
-0.000319839
-0.00107771
0.000834587
-0.000286647
-0.000798975
0.000251035
-0.00104132
0.000593909
0.00158718
-0.00113976
-2.76306e-06
0.000408529
-0.000408494
2.72831e-06
-0.000421739
0.000417303
4.43585e-06
-0.00105988
1.61452e-05
0.000445809
0.000118796
0.000256129
0.000701108
-0.00107603
0.000538062
-0.000639187
0.000412977
-0.000311853
-0.0005413
0.000474041
-1.79011e-05
8.51597e-05
-0.000106592
-0.000882133
0.00112606
-0.000137334
-0.000399583
0.000192386
0.00063255
-0.000425354
0.000677003
-0.000261537
9.96403e-05
-0.000515106
-0.000438582
-7.63555e-05
0.000513374
1.56422e-06
-7.90636e-05
-4.21161e-06
0.000751105
-0.00066783
9.23931e-05
-7.85497e-05
0.000733634
-0.000747478
-0.000660352
0.000924099
-0.000968613
0.000704866
4.91893e-06
-0.000830677
0.000825758
-0.000296243
2.55965e-05
0.000747141
-0.000476494
-0.00055671
0.000650838
-0.000887489
0.000793361
-0.000572223
4.40433e-05
0.000171558
-0.000270859
0.000731546
4.0938e-05
-0.000501625
-0.000193122
2.74752e-05
-0.000322716
-0.000288568
-0.00093462
0.000939173
0.000284016
-0.000415405
-4.89879e-05
-0.000104146
0.00056854
-0.00142867
0.000482575
0.000142689
0.000803403
-0.000439201
0.00103463
-0.000520389
-7.50445e-05
0.000306549
0.000120295
-0.000619967
0.00062105
0.000632997
-0.00125405
8.41117e-05
0.00136193
-0.000313951
-0.00113209
-1.77151e-05
-2.48571e-05
-0.000615946
0.000658519
-0.00065592
0.00107992
-0.000434578
1.05793e-05
0.000621847
-0.000392482
-0.000563634
0.000334268
0.000158488
-2.11915e-05
0.000194229
0.000953046
0.000262007
-0.00137409
0.000159038
-0.000661022
-8.56069e-05
0.000216804
0.000529825
0.00024469
-0.000274102
-0.000367757
0.00115189
-0.00077495
0.000602485
-0.000979424
-0.000127827
0.000743166
-0.00128475
0.000669411
0.000446119
-0.000563741
-5.71816e-05
0.000174804
-0.000482545
-0.000167829
-1.6347e-05
0.00066672
-0.000367381
-0.000347452
0.000714832
9.24931e-05
-0.000988961
0.000876822
1.96462e-05
0.00037806
-0.000364665
-0.000380775
-0.000612948
0.000776943
-0.00014868
-1.53153e-05
0.000868483
0.000238026
-0.000934472
-0.000172038
-0.000337056
-0.000494532
-5.64683e-05
0.000888057
0.000574637
-0.000174604
0.000666219
-0.00106625
-0.000625019
-3.53326e-05
-0.000747326
0.000399874
9.42528e-05
-0.000819804
0.000262142
0.000463409
0.000243839
-0.000873335
0.00048027
0.000149226
0.00012944
3.4854e-05
-0.00065258
0.000488286
9.73277e-05
0.000421472
-2.95932e-05
0.000753992
-0.000149081
-0.000575317
-0.000294058
-3.26762e-05
-0.000275591
0.000602324
-0.000175138
-0.000235876
0.000451041
-4.00268e-05
-0.000683783
-8.96935e-06
-0.00115379
0.000413928
0.000607254
0.00164242
-1.35481e-05
0.000224265
-0.00185314
-0.000717386
0.00111539
0.00022594
-0.000623944
-0.000204466
0.000111289
0.000706211
-0.000613034
8.37731e-05
0.000237666
-0.0001839
-0.000137539
-0.00123272
-0.000254193
0.0010663
0.000420607
2.78353e-05
0.000534047
-0.00010746
1.60713e-05
0.000262717
-0.000824503
0.000545715
-0.000499024
-1.74618e-06
0.000183967
0.000316803
-0.000716531
0.000885265
-0.000140899
0.000403156
-0.000363372
-3.97842e-05
-0.000581266
8.3868e-05
-0.00045319
0.000950588
-0.000269326
0.000405074
-0.000312232
0.000176484
-0.000579629
0.000652187
-0.000269434
0.000196875
0.000251544
-4.18122e-05
-0.000586592
0.000376861
-0.000259399
0.00162705
-0.0021901
-0.000225179
-0.000157302
0.000153983
0.000228498
0.000753361
-0.00117718
-5.35084e-05
0.00047733
-0.000311577
0.000232377
0.00040079
-0.000321591
-9.38436e-05
0.000492839
-0.000134994
-0.000264002
-0.00055404
0.000122993
0.000129534
0.000301514
-0.00032264
2.76788e-05
0.000294961
0.000711178
-0.000338649
-0.00036077
-1.17587e-05
5.45821e-05
0.000371348
-0.000563704
0.000137774
-0.000380688
-0.000461129
0.000470291
0.000371526
-0.000202107
0.00051995
-0.000445485
0.000127643
0.000183979
-0.00034842
0.000240024
-7.55829e-05
0.000683129
1.94044e-05
-0.000702533
0.000588627
-0.000725497
0.000359365
-0.000222494
-0.000920619
-2.61431e-05
0.000946762
0.000372386
-0.000308958
7.21004e-05
-0.000135529
-3.09388e-05
0.00065436
-0.000713058
8.96364e-05
-0.000320785
0.000401605
0.000103159
-0.000373226
0.000799787
0.000739013
-0.00061976
0.000614262
5.49866e-06
1.42681e-05
-0.000982693
0.000968425
0.00132818
0.000159344
-0.000282902
-0.00120463
0.000275815
-0.00108173
-0.000132399
0.000938314
0.000205809
0.000242824
0.000139382
-0.000588015
-0.000372103
-0.000372785
5.6921e-06
0.000739195
-0.000177306
0.000243534
-0.00043833
-0.000817495
0.000147773
0.00107294
-0.000403219
-0.00160384
0.00117435
0.000517539
-8.80512e-05
0.000708216
5.83698e-06
-0.000714053
-0.000411289
-0.000553447
0.000357845
0.000606891
-0.000404709
-0.000588029
0.000175243
-0.00057418
0.000312361
0.000359146
0.000236971
-0.000308464
-0.000564974
0.000636467
-0.000389913
2.63686e-07
0.000389649
-0.000931863
0.00037798
0.000384923
0.00016896
0.000229639
-0.000617216
-0.000186603
0.000799632
-0.000253804
-2.00286e-05
-0.0005258
-0.000536135
0.000889367
0.000527893
-0.000881125
-0.000163398
-0.000338729
0.000129554
0.000372573
-0.000220821
-0.000177617
0.000398437
-0.000394313
-0.000828895
-0.000380628
0.000189498
2.42629e-06
0.000382593
-0.000574517
0.000760422
-0.000554182
-0.0008001
0.000593859
-0.000281944
0.000100762
0.000570043
-0.000388861
0.000522655
-0.000367889
-5.19233e-05
-0.000102843
-0.000598827
9.71898e-05
0.000467869
3.37685e-05
-0.000369921
0.000848282
-0.000925152
0.000360782
2.67615e-05
0.000537609
0.000880372
-0.000710231
-0.000550439
0.000380298
-0.00070509
0.000146784
0.00131873
-0.000671004
-0.000442936
0.000721981
0.000391959
-7.88477e-05
0.000698257
-0.000264745
-0.000354664
4.0681e-05
-0.000420409
-0.00027775
0.000657477
0.00079518
-0.000524471
-3.23054e-05
-0.000238403
0.00025149
0.000187616
-0.000616412
-0.00016716
0.000189116
0.000466671
-0.000488627
-0.000142442
0.00073973
-0.000911267
0.000313979
-0.000454603
0.000109608
0.000110065
0.00023493
-0.000972634
0.000988776
-1.61418e-05
0.000665187
-0.000655352
-9.83534e-06
0.000270036
-0.00104288
-0.000400617
0.00117346
0.000238783
0.000454758
0.000106092
-1.11365e-05
0.000387573
-0.000376436
0.000633057
0.00056774
-0.0012008
-0.00069132
0.000421999
0.00029835
-2.9028e-05
-0.0003883
0.000127986
0.000315629
-5.53146e-05
-0.00118705
0.000554242
0.000651332
-1.85197e-05
-0.000375927
-0.000419589
0.000405603
0.000608997
-9.63381e-05
-0.000391861
-0.000120797
-0.000638896
0.000688571
-0.000419597
0.000116076
-0.000736576
-3.66328e-05
0.000657132
-8.48218e-07
-0.00036835
0.000369198
0.00177688
1.21002e-05
0.00019028
-0.00197926
-6.83268e-05
-0.000133924
-0.000985874
0.00118812
0.00030291
-0.000410127
-0.000189387
0.000296604
0.000120266
0.000917399
-0.000371796
-0.000665868
0.000999815
-0.000999855
-1.94439e-06
1.98452e-06
-0.000562231
-0.000507173
0.000792715
0.000276688
0.000327505
0.000249977
-0.000652102
7.46201e-05
4.7783e-06
0.000608137
-0.000621569
8.65341e-06
-0.000836251
0.000268517
0.000677642
-0.000109907
0.000626253
0.00037826
-0.000633786
-0.000370728
1.53626e-05
-0.000572815
0.000289475
-0.000148719
0.000859058
-0.000452525
-5.88976e-05
-7.06122e-05
0.000582035
-0.000776117
4.16754e-05
0.000734441
0.0011324
0.000486908
-0.000366167
-0.00125314
-0.000739155
1.58842e-05
0.000738634
-6.5921e-05
-0.000171301
-0.000438364
0.000675586
-7.99423e-05
-8.87598e-05
-0.000239093
0.000407796
0.000186087
-0.000944204
0.000711908
4.6209e-05
0.000583028
-9.17047e-05
-0.000566873
7.55499e-05
-0.000703471
0.000141398
4.34513e-05
0.000518621
-0.000274245
0.00018193
-0.000382374
0.00047469
0.000158685
0.000103103
-0.000936667
0.000674878
3.30948e-05
-0.000634203
-4.46207e-05
0.000645729
0.000627635
8.23726e-05
-1.09266e-05
-0.000699081
-0.000750569
0.000174772
0.000679335
-0.000538452
-0.000714794
0.00125325
0.00102948
-0.000522436
0.000226141
-0.000733182
8.15097e-05
0.000573765
-0.000352365
-0.000839253
0.000150965
0.000299567
0.000388722
0.00103522
-0.0010729
3.7677e-05
-0.000643005
-0.000218007
0.000449927
0.000411085
-0.000816836
-0.000634301
0.000425356
0.00102578
0.000831226
-0.000868203
-0.000106476
0.000143453
-0.000120147
0.000404064
-0.000318685
3.47684e-05
-0.00106547
0.000347701
0.000244634
0.000473136
-0.00155686
0.00192618
0.000332938
-0.000702264
0.000690692
-0.00150691
-8.60906e-05
0.00090231
-0.0006182
0.000800502
-0.00147339
0.00129109
-0.000644398
0.00140992
0.000144017
-0.000909537
5.76501e-05
0.00068152
-0.000159432
-0.000579738
0.00103616
-0.000777064
-2.61357e-05
-0.00023296
-0.000178084
-0.00017086
0.000261286
8.76578e-05
-0.000479413
-0.00100513
0.000861487
0.000623051
-0.000694583
0.000925053
0.000805689
0.000578369
-0.000425071
-0.000529817
0.000376519
0.000204256
-0.000264338
-0.000116763
0.000176845
0.000451573
-0.000446439
-0.000595972
0.000590838
-0.000183446
0.00052636
-3.81393e-05
-0.000304774
-0.000743729
-0.000118971
0.00092035
-0.000549942
-0.000135171
0.000679847
5.26598e-06
0.000234863
-0.000524739
0.000289876
0.000183526
-0.000243849
0.0009065
-0.000846177
0.000707411
-0.000996235
0.000144753
0.000144071
0.000459783
-0.000494905
3.51224e-05
-0.00071395
1.93671e-05
0.000626984
-0.000239395
-0.000605548
0.00021796
0.000200936
0.000162591
0.000711978
-0.00107551
0.000450418
-0.000488843
3.84248e-05
-5.30271e-06
0.000543006
-0.000613849
7.61451e-05
-0.000784239
-7.57596e-05
0.00104353
-0.000330871
-5.66351e-05
7.6458e-05
0.000311048
4.57123e-05
-0.000378316
0.000279184
5.34198e-05
0.000620026
-0.000593541
-0.000146632
7.25064e-05
0.00104527
-0.000658171
-0.000459601
-0.000358653
0.000752907
-0.000394254
-0.000974633
0.000373314
-0.000228398
0.000829717
0.000768794
-0.000696312
-0.00113795
-0.000382124
-0.000456616
0.00157007
-0.000731334
-0.00109757
0.00069848
0.000995686
-0.000596594
-2.39616e-05
-0.000933787
0.000957749
0.00148518
3.56975e-06
-0.000856027
-0.000632725
0.000860358
-0.000554198
-7.5275e-05
-0.000230885
-0.000626562
0.000442527
-0.000109356
0.00029339
8.3982e-06
-0.000642466
0.000634068
-0.000461612
0.000475098
-1.3486e-05
-0.000342262
-0.000362503
-0.000928497
0.00163326
-0.000874369
0.000190652
-9.76019e-05
0.000781319
0.000207071
0.000335909
0.000894819
-0.000807309
-0.000667977
0.000580467
-0.000248989
-0.000512504
0.000565193
0.0001963
-0.000517429
-0.000263287
0.000781432
-7.15982e-07
0.000168661
-9.70935e-05
-0.000477136
0.000405569
0.000571167
2.51895e-05
-0.000730125
0.000133769
0.00017638
-0.000122643
0.000193085
-0.000232892
0.000231922
-0.000192115
0.00046813
0.000457951
-0.00046794
-0.000458141
0.00022845
0.000533093
-0.000552037
-0.000209506
0.000476834
0.000206752
-0.000377036
0.000603599
-0.000731857
0.000153448
-0.000801054
0.000560328
0.000301117
-6.03907e-05
0.000936467
-0.000312186
-0.000982933
-0.000255872
0.000681893
0.000342773
0.000663581
-0.000323269
-0.000558569
-0.000152319
-9.01662e-05
-0.000893012
0.000834901
7.90267e-05
-2.09156e-05
-5.56555e-05
0.00111419
-0.000116087
-0.000942446
-0.00073025
0.000148889
0.000325488
-0.000114015
-0.000719238
0.000202212
0.000631041
0.000667048
9.27448e-05
-2.71431e-06
-0.000757079
-0.000993059
-8.40173e-06
6.44219e-06
0.000995019
-0.000261576
0.000282939
-0.000467033
0.00044567