/*--------------------------------*- C++ -*----------------------------------*\
  =========                 |
  \\      /  F ield         | OpenFOAM: The Open Source CFD Toolbox
   \\    /   O peration     | Website:  https://openfoam.org
    \\  /    A nd           | Version:  10
     \\/     M anipulation  |
\*---------------------------------------------------------------------------*/
FoamFile
{
    format      ascii;
    class       volScalarField;
    location    "0.6";
    object      p;
}
// * * * * * * * * * * * * * * * * * * * * * * * * * * * * * * * * * * * * * //

dimensions      [0 2 -2 0 0 0 0];

internalField   nonuniform List<scalar> 
111485
(
26.7133
10.19
11.8401
26.3188
12.2553
25.8244
10.3791
9.02226
10.4084
15.366
10.2795
13.2422
10.4726
10.1936
10.5196
10.6947
3.36554
24.6864
10.3818
26.1689
26.0656
26.1464
10.5188
10.5757
12.2088
25.4331
14.7374
5.7708
11.8127
26.9667
20.4118
2.34521
26.4033
27.1011
24.6719
27.7789
20.2035
0.551191
23.6524
10.8354
27.4959
15.3673
10.8237
17.848
22.7769
27.8152
16.8579
10.5411
15.3297
25.3362
25.3544
24.7975
25.3394
18.1977
25.3289
6.52032
10.5191
27.8011
16.8739
10.8169
10.8462
26.7004
8.39679
19.9522
24.9328
7.36812
24.1372
9.61117
8.46607
9.07453
21.8291
7.606
24.9274
8.44643
27.4227
4.3551
26.3656
14.7552
26.1414
24.9272
20.8089
17.3543
26.6266
27.2747
8.33421
11.1606
23.9425
18.2822
21.1744
3.09009
22.7445
11.1854
8.37832
1.20399
15.3883
27.2482
26.7337
18.2465
23.4891
19.0239
26.5758
14.8291
27.5157
14.5402
9.87212
24.9269
27.2495
2.73487
11.4272
22.6834
1.86157
7.55322
11.161
13.7924
25.4268
4.09204
25.5653
27.8175
8.53303
26.1843
25.4212
24.5964
26.6196
27.8104
16.0394
24.7954
24.6265
3.16142
27.5361
23.3899
20.3034
18.2126
27.3799
24.5699
24.667
10.1332
26.4418
4.34108
9.29803
9.38378
15.5718
9.40859
9.38348
11.7031
16.3718
0.384053
26.4275
27.1832
27.4818
9.90427
11.7359
26.085
20.4132
0.0292576
23.0422
9.83388
9.72304
10.4128
23.0277
27.7243
26.3225
9.80399
11.7719
23.0759
23.1065
3.79972
19.55
27.7579
23.1271
23.1116
27.4871
27.1238
12.7602
26.9075
0.694408
0.129885
25.2028
24.9515
25.4777
25.0175
24.9664
26.292
9.91953
9.9438
9.83716
0.0381335
14.772
5.23008
20.1044
26.5325
4.57479
24.9812
26.7906
5.27296
15.3225
19.446
6.97737
0.564317
27.4148
9.96552
11.5865
24.2332
17.285
2.99051
27.6043
5.30489
14.0916
24.9393
19.3506
16.7905
11.6404
5.19007
24.9304
26.8323
5.23255
24.2912
18.2421
26.8576
5.29018
4.5086
15.6183
27.8379
5.88722
19.0595
24.4561
26.8941
27.5128
21.7249
23.0394
24.9029
24.655
4.54913
1.16176
7.58107
24.8907
24.9927
19.9266
27.4947
9.87925
4.52663
4.55957
4.52913
4.55962
27.5583
20.9296
3.58972
27.6487
26.5712
18.2946
7.58674
24.8839
2.25674
3.36838
27.1551
24.5847
17.0888
25.3553
24.7759
24.3862
25.7774
3.95213
4.48332
0.357663
27.8557
3.45539
26.3726
26.679
27.5529
20.0663
14.8153
7.9648
8.07783
13.8144
7.98392
8.15158
20.9309
1.14517
1.18859
25.2624
27.1219
21.1093
2.74693
15.6305
1.4229
26.2369
8.10067
9.96393
7.94389
14.062
21.079
7.90629
8.03934
17.2595
27.8333
14.7036
26.9134
24.7791
24.7338
21.7044
13.8665
10.7302
25.6442
27.7605
6.25263
1.96009
26.0413
26.8787
25.3637
4.46299
1.19964
9.69402
10.1554
11.0261
24.7841
27.296
27.3399
6.26899
24.0908
10.7974
21.2909
19.8394
26.5847
26.6768
26.7277
24.6376
6.7508
12.1289
27.8099
6.66018
24.826
25.3882
18.6376
6.70663
13.6598
6.60998
24.851
24.6528
27.5859
6.68308
0.335958
20.6123
25.3523
23.8374
20.6456
12.3065
5.93404
23.6385
11.0955
26.3224
11.1084
6.82007
21.0802
18.5789
12.4277
27.1909
27.3453
27.3822
26.3353
9.58963
5.77515
13.7538
11.1031
27.0571
12.9828
27.3127
26.7248
11.1002
25.0084
24.3974
27.7709
27.8485
9.84983
27.8204
0.258173
12.8193
26.1552
8.89578
7.03838
24.906
6.89727
13.0824
6.92945
19.4163
0.546565
1.26178
24.8806
27.1659
17.7625
27.6857
13.5168
18.8907
25.0948
27.6536
6.56472
13.3633
1.13178
12.8523
26.3878
20.3894
13.2342
25.7067
17.8466
13.4405
26.8426
26.2431
0.261557
12.2398
27.7054
25.5827
24.2937
26.5645
12.5115
26.8668
26.4917
13.3017
20.3737
16.3773
12.2186
25.8648
24.6263
17.8407
24.7047
17.8415
17.9103
15.1895
24.1476
24.7177
2.17909
22.8525
26.944
18.6228
12.8889
27.8539
23.4476
15.5584
24.6839
13.6591
13.2504
0.611126
25.9705
0.550919
13.9964
0.579701
22.1218
24.6495
22.8723
27.4124
20.4237
0.56716
27.4492
13.6635
16.9972
24.5988
27.829
24.7751
26.061
12.264
0.56645
13.4991
13.5851
19.2816
26.911
13.8725
26.7171
12.246
25.6019
26.7214
27.0907
13.6205
27.2202
26.8268
24.7313
26.747
27.5703
17.0818
27.8298
24.7187
27.3374
26.8715
25.7977
27.3634
26.2292
13.7235
27.364
17.2475
14.0949
22.8317
25.5789
17.2153
27.3505
26.6919
13.6051
13.5075
13.701
21.3159
24.8093
15.7249
15.754
0.835428
1.54123
14.0387
27.0853
0.879641
24.5858
15.9055
26.9891
15.9016
24.6437
1.73157
13.454
24.6774
27.3498
1.59023
25.9587
15.7206
15.8525
27.6176
27.321
24.9125
27.4121
23.0572
15.6804
25.2807
27.7472
12.2988
26.1522
15.7739
26.3143
16.5867
26.7205
15.392
15.7147
6.79868
1.67033
25.4337
0.441762
25.5251
27.0167
14.4597
27.0099
15.4811
24.9258
15.9365
27.0033
14.4501
26.032
24.7204
22.8751
14.5891
15.7159
14.5399
15.784
13.4018
27.465
15.7691
14.5517
26.7862
21.5145
19.845
15.7519
25.2011
24.5493
12.1395
16.184
23.9867
24.5907
14.5413
12.1639
14.7584
14.8153
1.60054
23.8042
24.6905
22.9358
23.9284
26.3823
15.6303
27.7039
24.7592
3.0691
23.8055
23.1146
23.6631
24.7171
14.9134
12.2022
25.5191
24.6212
12.1562
25.6536
26.1094
26.2305
25.4962
14.9194
27.3064
27.6107
15.0299
4.65137
24.4504
12.1784
24.755
4.57932
25.3278
27.5164
15.0101
26.9812
25.6173
24.7549
0.36906
24.2741
15.4201
3.10504
25.5775
22.8656
15.4873
12.6427
19.4078
23.2298
12.372
27.0494
15.3609
12.5994
27.5947
7.1551
17.3206
12.9231
0.390969
12.987
12.9427
27.3676
15.7356
19.362
24.6959
12.9716
15.8028
24.299
3.08695
12.9407
15.8611
13.6705
13.7531
3.10807
25.1152
13.7682
15.538
24.7254
14.6984
14.7331
3.31646
27.0372
0.327309
27.6618
26.4885
27.166
25.5024
12.5883
24.7498
23.1045
26.7919
25.8377
14.7357
14.7997
25.9466
15.8114
26.7019
27.5553
25.3637
16.1732
15.6788
24.74
27.8593
26.9676
27.0937
19.8885
3.33039
24.695
14.4212
22.8438
27.6191
14.4139
16.7986
1.65796
26.0183
26.8669
7.44505
3.26058
24.7257
27.4526
25.1766
5.48257
27.1442
25.5993
26.8116
14.2802
11.2752
26.1706
24.584
24.5783
1.63733
27.7316
25.7315
16.277
19.9602
24.6986
24.2833
23.5032
16.5961
0.09014
25.0026
12.1034
17.0517
27.8326
25.309
26.4759
26.9146
27.3491
26.2501
14.3078
26.685
26.4586
25.2577
14.3476
3.24
25.3605
25.3003
16.6548
3.27203
3.36174
25.7069
26.4985
3.30192
27.2113
14.4648
3.27083
3.3992
25.4056
26.5555
26.5558
27.1609
12.2491
26.5799
26.3224
18.1801
26.5177
5.7696
16.9611
25.1131
3.14311
24.5502
5.76452
15.0208
15.5624
16.4807
23.2479
24.7388
5.72236
16.6942
0.0767623
24.8971
23.2052
24.4238
0.941932
27.2057
17.1894
16.8064
17.1679
24.7873
26.6113
27.8527
3.27973
24.7995
2.24873
24.939
11.007
0.87727
2.33591
3.29509
26.2635
25.4338
24.9242
3.34812
25.618
24.7922
22.4508
27.7365
27.7133
26.5355
26.4951
2.39335
25.0382
26.8519
23.2337
24.7691
27.7616
24.5622
26.7687
17.1639
2.30499
26.1047
12.3555
23.6845
17.2068
23.0638
2.8849
27.3992
15.1519
19.6197
17.2564
27.3163
23.565
2.40338
24.5775
2.24271
21.3448
22.0894
8.97677
1.58877
21.6737
0.398452
2.0656
27.1707
25.4326
1.57098
1.56589
27.5843
1.59479
13.5
2.0327
25.3129
21.9085
27.2145
2.16875
2.07458
25.9355
1.08128
2.00753
21.9931
0.623863
25.2565
9.67869
22.0431
23.3069
21.8822
18.6516
27.0801
27.2109
18.2177
26.4652
13.8555
18.873
24.3857
23.2858
23.2482
23.2394
26.4939
24.5735
4.93626
27.5308
24.8087
18.579
25.5447
25.8217
23.2395
22.9943
26.4771
22.1109
26.8961
26.9681
27.5846
26.7354
25.2482
27.1835
18.793
25.4228
27.4871
27.6141
23.474
18.5479
11.4647
4.89135
26.0034
25.6347
19.4184
26.7276
25.8147
24.4041
19.013
6.40522
26.053
25.7801
25.5297
25.7335
27.4314
25.6555
19.3178
25.6195
22.1114
11.0494
27.0829
26.6223
25.2831
22.0633
25.3001
26.3331
27.1128
22.3155
27.2748
19.282
20.1316
21.8823
26.1989
24.1778
19.3389
10.6469
25.0067
22.1964
15.9987
25.6153
25.0864
24.547
25.7643
4.93185
9.58647
19.8101
22.6026
25.966
4.90391
25.0405
24.6918
24.5553
27.5173
8.67819
26.8058
25.2561
20.5239
6.40485
25.2636
15.5822
24.9594
19.8473
24.956
26.9969
27.3747
26.4735
2.25677
9.49152
23.2589
26.0284
25.212
2.31295
26.4836
24.7863
26.7544
14.2634
22.7318
12.2388
25.6221
20.7536
20.6311
24.879
20.6597
25.5003
17.9489
16.1061
9.31014
20.6432
20.6309
26.6055
26.9232
26.9344
20.6592
27.8403
20.9972
27.6725
23.4176
25.5472
10.7201
11.0525
25.2777
26.3613
25.2344
27.6966
20.9993
25.2213
24.5409
2.30774
20.9738
24.8671
24.7788
24.6927
24.7881
25.5168
26.6481
21.0538
16.1484
26.3018
25.3708
23.0767
26.7494
21.0316
2.31383
25.1304
18.2412
26.519
1.38969
25.3772
11.8656
25.902
22.9957
22.4141
21.6024
18.3228
18.3147
24.1724
25.1102
18.445
25.3315
8.65813
25.8155
27.3082
24.6972
27.3079
27.4198
27.5649
18.3321
18.3453
26.5301
24.4909
25.6184
18.6214
21.9804
26.8687
8.69975
21.922
25.3006
3.0205
2.1032
8.28867
21.7084
26.4699
26.7788
27.1017
26.2799
8.73605
27.3672
18.6851
26.6608
18.8002
11.9175
27.2613
18.7176
27.5735
26.4233
18.8977
19.9496
23.8156
26.6666
25.2109
25.7185
9.02385
24.8669
27.646
25.1401
23.6822
24.6469
22.932
24.7844
25.1187
25.098
2.58826
2.284
13.3944
9.94832
27.6683
18.8785
27.0127
27.5938
2.2188
25.4222
23.0738
18.8106
1.58891
19.0239
23.1187
13.2695
27.452
23.1747
23.2257
16.1991
19.3509
6.63799
24.2675
26.6924
12.7979
25.6798
25.7871
22.9774
15.3363
23.255
27.0173
27.0256
20.4971
25.2899
25.4375
19.1722
25.2461
25.2829
7.73042
19.231
19.6994
7.73837
3.92771
25.5897
26.5751
23.0376
7.68948
26.2288
25.2602
13.6505
25.4952
24.4854
24.679
24.7062
24.2308
24.3136
26.2286
12.9742
25.7102
19.5974
25.8982
24.1234
25.2674
25.3424
27.4773
26.4506
12.0235
26.4788
26.4505
24.749
25.8012
27.4294
26.9784
7.30182
26.5044
6.62981
19.7256
25.3345
13.1376
26.0916
16.5894
22.1067
1.71412
1.75283
25.4204
1.90396
12.062
21.5612
27.5366
20.1534
5.75849
0.857164
24.9478
1.09007
25.2114
27.4393
25.8218
26.188
1.09064
26.8985
25.8588
0.855817
20.1641
0.831632
27.6008
24.3754
13.1559
27.2056
23.1217
25.2914
1.8551
25.3564
25.485
13.0564
25.8932
20.0687
26.7652
25.8975
5.6979
16.9801
4.1709
9.3116
22.2882
7.38701
25.9228
24.9248
11.1931
4.33286
7.22545
20.0882
26.4721
6.68267
26.3749
25.7332
11.3945
20.2547
25.5256
4.4299
27.4576
4.21252
3.86146
24.9871
26.2098
27.157
11.1657
26.8733
26.8767
11.2694
4.19422
19.3314
1.01424
25.9149
27.3544
13.9563
11.3129
25.9449
11.2567
25.1959
11.1996
26.1011
26.0033
11.1939
26.5104
16.129
10.2723
25.5706
26.2209
10.2921
24.4483
12.4578
26.6835
19.5322
26.7428
24.4967
24.5021
10.3657
24.7342
24.6573
9.56835
24.6964
24.0429
24.5488
25.2071
25.6583
21.6479
12.4717
26.8474
27.0258
12.3577
12.411
25.5523
11.3029
26.2745
25.64
14.4052
13.7301
0.0537092
26.0831
27.0321
26.9026
26.4604
25.5352
25.5535
27.072
25.6588
25.7199
26.2264
26.9323
25.6692
26.6446
26.0231
25.7342
24.9592
26.0076
26.2134
26.5607
26.7638
27.5241
12.6497
26.78
26.0292
27.568
8.59981
27.8378
25.6272
23.839
25.2003
25.1314
8.6581
24.7654
25.0138
23.9229
8.71065
26.6496
24.3721
24.4495
25.8048
17.8201
8.76251
8.80268
8.46946
5.16305
25.5784
25.8578
6.46628
6.79768
8.46038
26.3738
7.69022
17.197
8.33632
1.32366
1.50625
8.521
2.64804
8.32771
27.5618
9.4729
7.66921
11.8696
7.71441
27.1864
26.9788
27.4032
26.5309
27.1625
6.73602
7.81062
27.1361
25.7368
25.6321
24.9232
25.8645
25.8044
25.2776
25.6763
7.69783
22.081
7.78101
12.989
25.4035
24.8858
17.6004
22.6345
26.1839
26.4648
12.461
27.6784
26.8154
7.58752
7.76301
7.73905
12.296
17.4653
25.6878
0.079766
9.25983
24.5553
25.694
9.16245
25.6096
25.41
23.7323
23.5201
13.1236
24.9729
27.6646
19.9474
9.40724
0.0999141
6.77668
23.9491
26.5649
18.564
24.7316
27.6764
25.0239
12.306
25.8395
6.71994
0.287179
9.03696
9.34873
27.0879
5.91115
27.2991
25.0222
27.1576
25.5352
2.1496
24.037
26.4905
26.2592
24.6468
6.75852
24.4029
6.05243
6.74983
2.08558
6.76104
24.9155
25.1167
24.648
12.1743
5.06529
23.2125
25.3156
26.6955
24.5525
17.7452
13.0926
26.4793
5.05849
23.778
9.40875
5.03394
26.4118
24.5074
5.07305
6.7275
26.9887
15.308
14.8687
13.1249
6.01007
5.30024
5.4563
24.5245
1.96318
5.46957
4.61966
24.688
9.01553
24.5506
11.9405
5.72448
27.8451
1.37563
5.46914
5.96791
7.1168
24.7627
23.7406
19.6479
24.0147
5.49995
24.7435
1.66546
5.4459
25.4179
26.5746
23.4735
21.6372
7.88356
24.691
13.3668
22.3773
23.2133
20.3765
25.2724
27.649
6.69956
24.9173
6.03163
21.9688
5.45726
1.60743
26.1328
16.2988
6.65314
25.6506
24.4016
4.19401
27.1041
4.21574
3.94613
26.7352
24.774
9.44963
25.881
26.0425
27.8555
1.58623
23.0549
12.2387
27.6324
11.9001
2.88197
25.021
2.86292
3.00757
1.7948
21.8371
26.2708
5.99217
1.11298
2.93384
2.97859
1.87874
21.4123
10.8782
26.6732
0.320025
2.04136
26.4174
2.97299
27.605
26.8278
27.3906
27.7626
26.2201
17.6878
27.3649
2.86792
14.3752
27.6105
13.7819
25.021
2.02934
25.6172
21.2693
24.9726
11.4825
18.3836
22.3275
3.1058
2.02971
11.8671
1.79937
3.15948
24.0338
3.10722
7.59427
3.18141
27.6232
6.72248
21.6982
3.22353
10.6033
21.9735
27.5291
24.6324
25.4439
12.0189
26.1939
24.2846
2.01916
24.6302
14.7683
25.6455
27.5164
26.476
7.44469
12.5514
3.47225
18.8524
1.66037
6.37795
6.02112
7.64515
2.38321
5.99797
6.2631
24.9541
27.3317
27.8507
9.46735
6.58272
25.2041
26.4723
24.4271
6.03728
2.44357
26.0562
6.26271
26.8523
22.9704
12.0605
19.5831
26.3897
26.7301
7.50495
26.5184
16.0724
3.18551
24.8518
8.42417
10.6229
1.29575
25.4953
20.2986
24.6564
15.3882
12.2308
26.4377
27.4517
3.07186
24.3948
27.1914
3.97876
1.47459
26.6536
25.519
24.589
6.08346
24.3016
9.55707
17.7925
15.1053
26.7099
24.4788
17.4084
26.7574
26.941
27.0451
26.1753
24.6512
24.9439
24.8791
25.626
24.9728
24.9467
24.721
24.9013
16.0699
24.8798
24.3964
24.4684
24.7507
24.5325
26.7229
17.744
24.4569
24.9059
18.1941
24.6803
24.7607
24.9526
17.8089
24.7606
17.7287
19.6293
15.1042
24.8191
26.0396
17.6866
22.9732
25.2561
27.6243
9.44761
24.7522
9.39334
24.7287
27.0575
24.6026
9.3775
9.3037
26.945
13.6929
24.9508
24.4649
21.2593
4.81795
17.702
27.6728
9.41057
24.4613
14.797
26.252
25.5413
26.0191
24.403
4.81883
5.87649
27.2476
23.0907
25.5962
25.594
25.5872
26.2198
16.6488
16.6924
6.00215
22.9561
27.8513
12.1145
9.59857
4.41131
16.6671
27.6302
4.72867
16.5768
8.52329
22.9976
8.90934
25.37
11.4213
16.9128
9.50821
16.9917
17.8361
25.4044
18.0042
25.1755
26.7642
7.791
27.2538
12.0185
27.0286
25.2849
24.971
25.5079
27.4429
16.9554
25.434
14.0525
24.7851
27.1312
11.7252
16.2354
6.30506
13.587
27.3666
23.3208
27.2678
14.8546
25.28
11.7219
16.5981
16.8487
14.9798
25.2083
25.2095
25.1832
5.10185
27.1347
25.6648
5.10194
25.3238
25.865
16.7952
25.1984
9.16129
22.9009
24.8141
24.7716
24.7196
6.00391
10.1147
26.1864
0.192027
14.538
24.7788
17.1236
27.1092
5.21842
11.8949
4.47434
26.0678
12.5465
6.53535
17.73
16.4383
13.9081
26.4524
26.6053
21.6935
25.7692
26.2607
26.8953
5.26874
17.1982
6.86584
10.8981
24.6635
12.52
9.53939
10.2372
12.3317
12.524
15.7471
13.7725
26.4613
26.4221
26.4315
13.8151
27.1572
14.6375
24.3709
13.8222
23.107
5.29086
2.5718
25.897
26.9414
13.8614
13.7723
26.7577
26.6137
27.7385
5.70524
13.7675
14.2508
14.384
1.36531
9.53495
25.7614
27.3344
26.6813
1.08989
9.17139
0.14713
10.3959
5.92935
14.4332
25.0266
26.6718
24.4841
25.2946
1.43194
12.2836
26.563
25.3902
24.9387
27.5981
27.7805
24.8932
14.9669
25.993
18.3431
22.9344
25.6821
14.6681
0.422293
5.56229
27.1008
24.9759
14.8961
26.4955
14.9551
23.2898
6.04731
24.867
24.3821
26.3135
25.9769
25.8011
24.8729
23.747
25.4394
15.009
6.85051
26.6849
26.641
15.2975
25.7281
26.8538
8.31567
22.4264
25.6166
25.5987
25.0342
3.08241
26.5346
26.581
23.5328
15.3594
15.3101
26.1177
25.6642
24.6844
15.3596
15.2096
15.3204
10.8249
26.1045
2.54858
0.511254
0.633509
27.6301
27.4311
26.6929
27.5769
26.5384
8.30448
8.51629
6.83436
27.6363
27.0776
26.5056
26.944
24.9313
18.6913
0.930175
0.235414
25.5007
26.4249
27.6333
23.1322
17.4625
20.1294
26.9471
23.3126
24.7507
25.3985
26.5886
8.278
9.20259
25.6624
25.2475
11.3108
26.5985
6.07676
7.55163
23.7787
25.6372
25.3121
6.0965
18.8188
24.8986
23.7946
0.827174
12.1753
26.0117
25.7168
27.5871
26.6615
1.636
4.19648
25.7254
18.8735
16.172
23.1575
26.1937
25.7682
25.6878
25.7246
12.5067
24.6764
26.2257
25.1803
2.76229
14.1859
3.42427
25.1174
27.4694
16.1884
24.8994
26.6224
25.797
26.0071
8.83472
24.993
25.876
25.8917
3.40691
9.21157
25.757
27.2054
25.4894
10.711
24.6512
25.3575
25.5095
27.2842
27.1068
22.766
12.4122
27.8338
9.79793
12.3244
8.58953
27.6831
27.5398
26.4036
27.6024
25.8375
11.7046
26.188
24.4279
24.7925
16.2258
24.6905
16.1354
26.5528
27.1327
19.4445
23.1974
24.7991
16.2854
26.1606
16.2137
24.8454
25.4566
25.6922
24.814
25.6079
18.5266
25.6545
10.3469
27.2809
24.6759
27.1124
25.7693
3.22712
14.8774
26.395
23.857
27.8043
16.6153
18.5331
14.8582
27.8505
22.6798
14.8292
18.7097
12.5721
22.9901
15.0232
24.9252
25.9677
23.1442
5.16794
14.8951
25.3383
24.8525
24.5804
23.8689
27.7228
25.5506
27.2367
27.5786
27.8109
24.609
14.7039
19.7134
6.87399
24.5137
20.8563
27.2369
11.8782
26.703
27.7657
26.7577
24.8954
19.7379
25.0418
27.8244
26.1645
10.1603
26.2639
26.9388
19.3637
24.9369
24.213
24.0984
24.0498
27.5971
24.0875
24.0464
24.0787
24.1801
26.0347
26.0326
10.0836
15.5092
24.7132
24.4206
26.1877
10.2373
24.9253
25.0526
19.5658
25.8293
26.4747
16.5492
19.7227
27.7858
25.6942
21.0296
24.6597
25.3389
22.9544
11.0169
10.7059
25.0738
10.8661
27.4164
6.7213
22.7123
10.808
26.2522
22.7265
10.8533
24.922
23.0981
25.4482
10.1869
24.7827
10.0767
25.1675
18.5171
25.524
25.169
27.2687
23.1831
23.2185
27.4306
11.0935
18.5161
27.8433
26.2221
8.36407
0.408542
22.5345
27.6461
11.4196
11.2443
19.4683
23.0683
27.7974
22.5763
25.9083
21.7738
26.703
23.2561
23.246
25.4679
7.00725
25.2107
19.2379
26.4121
25.4693
25.6255
26.7167
25.7533
26.6666
15.4691
8.43995
21.6612
25.5814
24.456
21.5874
25.6627
27.8493
25.3192
27.6629
25.4713
0.324738
26.25
27.3551
25.9451
0.293382
25.5492
26.5372
24.8707
1.58034
26.7496
1.62359
22.8567
15.1274
1.58803
1.70517
24.9511
25.6584
26.3375
1.59426
3.49014
25.1402
24.5136
1.73588
26.8946
27.4275
21.5534
25.4473
11.2297
25.6074
1.75255
19.2222
25.6334
26.0081
25.6238
27.2538
26.8827
19.2722
25.6624
1.78869
25.2641
26.0562
3.96404
27.3226
11.9198
25.0108
26.9326
15.6437
7.01194
21.7602
27.2437
27.2883
26.3797
6.98483
20.9357
25.2072
26.5332
24.9529
4.33916
25.6344
12.0171
21.7
26.0255
25.8003
4.41125
26.6734
24.852
26.7466
24.9364
27.0132
21.7154
24.4227
25.3498
27.1162
24.4781
25.8255
24.5086
25.3527
25.5489
24.9706
7.03425
24.9595
4.29229
24.8671
25.7322
22.9192
4.34025
25.6419
24.9287
25.7502
4.20749
24.7052
26.2103
25.1061
25.7224
4.74515
25.6281
22.0452
27.7487
14.541
24.7198
17.5178
25.3153
26.8489
13.8147
24.6181
25.6014
3.47086
14.2362
27.56
27.238
15.5825
17.8947
4.26933
4.3032
4.34672
15.6181
4.23834
18.2037
25.1625
22.081
24.489
24.4823
26.123
25.1822
26.8004
4.19698
27.6401
27.8135
27.5608
20.616
18.1169
24.4274
16.4456
27.3537
16.8077
25.2541
19.6496
4.5873
24.4829
14.2511
25.2775
25.4035
26.4182
4.71064
14.63
26.3591
26.8978
4.7607
27.2387
22.3441
26.6962
21.0532
26.6085
26.4082
27.5134
26.3788
3.76499
26.3735
23.2312
27.2798
15.0145
26.1272
25.8499
24.2123
24.1838
25.7548
25.9098
26.6906
27.3957
14.226
22.2602
24.3341
27.1581
14.6085
26.1565
27.1371
23.0463
10.9845
20.447
26.4459
2.59161
15.5372
7.47004
11.6846
26.7385
27.8085
27.8125
27.3033
26.491
26.384
26.3868
25.345
26.4432
26.3882
26.5299
26.3381
21.0617
26.4146
25.7403
24.8371
27.3076
26.1476
23.8608
26.1052
25.915
11.713
21.7866
25.3786
27.7611
26.4883
10.1955
27.7068
26.6756
21.6895
26.8291
25.6502
26.8795
27.1171
19.6144
26.6816
22.5527
27.1351
26.893
25.9505
26.1656
25.826
21.7522
21.8819
5.62005
27.3429
25.0961
27.4362
21.8868
25.6289
21.8399
21.854
26.7818
24.8265
24.446
22.6741
25.4282
24.7202
22.6413
24.508
15.996
27.193
18.5067
24.4924
24.2513
26.5465
14.0481
26.8781
14.167
19.5839
25.466
14.2283
22.2493
26.6331
19.7369
25.8313
25.5285
25.7063
25.4779
25.0391
26.2854
25.62
27.6203
21.8902
24.7458
26.2715
26.8618
25.5171
25.3775
10.2974
23.9816
22.1453
23.1826
25.6624
13.3679
13.4186
26.3863
24.7519
24.948
25.2382
25.2582
25.1682
24.5553
24.6719
16.8382
26.027
27.6645
24.2693
24.405
26.5334
14.0125
25.0604
25.5255
27.2669
20.73
27.5717
26.1347
15.8056
26.7119
27.7667
24.8846
27.7732
15.9216
26.0913
25.9918
25.8523
24.8805
16.9661
20.7241
20.6832
14.0383
17.8913
17.9667
26.9009
24.622
22.6974
17.4591
24.6279
22.6939
27.148
23.2269
25.4563
20.7863
26.2867
25.6304
17.981
23.1267
25.4772
17.4243
26.2302
26.7363
20.7956
19.6944
27.3356
26.2765
25.3021
26.4631
25.8079
24.5828
27.3604
26.7244
17.3562
27.3892
26.5837
26.1658
18.0093
25.6531
24.5764
26.6237
26.3468
24.8769
24.6107
18.0093
25.5328
24.6712
10.4937
27.278
17.4458
17.2191
25.7917
10.8528
26.6297
24.9987
26.9844
24.741
27.3208
27.7137
27.8625
27.7292
10.6869
27.4561
26.9617
27.4602
24.9468
26.2358
24.9062
21.0776
26.5552
27.1805
19.6823
26.3719
26.5311
27.8328
10.557
26.0119
20.6849
24.6311
23.0762
1.23998
26.453
24.6351
10.3627
24.5708
26.4257
22.2916
22.6546
0.0748807
18.9626
23.1896
23.2705
27.457
25.4178
13.0487
21.2399
20.5776
12.6802
22.9955
27.2245
2.31592
13.0594
13.0194
27.8516
12.9868
1.95821
7.42498
12.3372
21.2058
13.534
2.73989
12.0993
0.437028
5.49454
12.3881
24.5925
0.303663
0.0949934
14.092
16.4313
0.657555
12.3371
0.449113
24.5789
21.6058
24.5637
6.59093
13.1019
16.7294
9.80445
24.5873
26.501
12.0992
9.8926
21.3597
20.6665
3.34955
13.1209
24.0927
13.1596
26.5522
23.2593
21.4115
18.8545
7.49772
21.5639
21.9962
15.1266
9.297
9.39983
6.75149
13.2137
0.300648
24.2906
24.3444
13.2481
25.7453
26.5254
12.5292
12.6643
1.01248
25.8838
19.158
19.7329
9.03013
24.2151
26.5486
21.6203
0.275699
21.4545
27.8158
3.25411
26.8747
9.74058
14.949
18.3034
18.4559
25.8376
26.6194
19.9797
12.7219
12.6846
26.6522
10.2266
12.7723
16.489
26.8087
9.18708
0.73522
24.4971
7.48665
23.3546
20.4348
25.3691
19.4598
22.9198
26.6127
15.7904
1.39262
23.7273
16.092
16.0748
2.86813
13.983
16.3124
1.00026
21.5987
20.6763
15.2842
2.56128
13.6011
22.0901
9.82683
16.1722
5.52559
12.3902
22.1006
2.91451
26.7395
16.0847
16.045
20.9747
3.90635
18.7481
25.3784
16.0202
7.46063
26.7977
19.142
0.321271
16.1268
15.5353
1.87171
0.374638
13.8122
15.5543
19.2917
26.7828
26.4984
19.3906
27.5703
19.4415
18.8683
25.0176
1.91345
16.5323
10.2634
27.456
7.45427
8.52079
19.112
21.4722
8.37997
3.60049
10.3774
17.4529
26.5334
25.5132
20.9552
17.4063
19.0807
10.8595
25.5122
17.5591
14.9503
24.9881
10.2893
13.2229
0.981369
22.7581
18.0208
15.0723
3.06795
11.4893
27.5568
16.1141
8.22046
15.3282
22.6399
25.5292
18.1731
25.11
26.3391
8.64012
14.948
9.37743
23.1222
19.8324
23.9156
26.5845
14.9717
14.9879
9.57123
9.56325
25.626
27.8529
27.8063
9.62723
9.59147
22.6211
7.36446
24.9445
25.5777
9.61208
10.6776
18.5707
9.54773
9.53785
11.4787
17.9389
24.1606
26.0333
14.6898
1.03446
25.5606
13.8389
11.4032
22.9139
14.6073
11.4359
19.2924
25.568
9.85472
11.863
27.4995
24.9732
0.617913
0.953651
4.01472
1.64227
11.4579
11.552
2.79115
7.35739
10.5668
1.63852
25.5004
25.4381
0.0652795
1.82561
11.4245
22.1963
11.0842
10.9226
15.204
9.31103
11.0224
26.2468
27.4933
22.0848
25.4551
24.6404
11.9769
7.57866
11.7404
21.6002
24.6814
18.2244
22.2344
24.7799
22.2876
22.4244
11.0032
11.0872
0.724714
12.8257
21.3571
1.86399
26.4158
24.7758
20.3354
3.57091
9.58919
3.68537
19.13
17.2837
21.0302
24.8005
11.7056
2.46485
10.1695
22.2827
18.1728
20.5502
22.4476
11.7678
2.66307
24.7391
16.6948
11.2894
23.7713
24.6238
24.5064
10.1659
24.5872
0.560919
10.123
9.48826
12.8162
19.9601
24.1164
23.8262
24.7748
24.3622
19.3285
26.4144
26.419
23.2445
26.4647
7.39915
9.86757
9.08009
6.92814
7.3421
13.1395
24.3493
3.53076
1.53373
17.1174
12.4305
6.90406
11.6828
26.5309
22.4422
6.76968
15.5061
26.4295
15.7134
12.2219
26.4017
25.6915
19.0046
6.67976
26.9718
13.8016
12.4316
19.0324
27.147
26.3771
1.07289
22.2431
12.9753
26.4685
27.3777
26.4022
14.9483
23.7601
23.8624
4.65823
22.5603
27.7087
4.63677
22.5094
10.5035
1.19014
1.12482
5.02451
23.2216
1.28872
27.8349
5.29318
2.71376
0.399621
8.4353
1.95453
1.89885
2.00636
2.14031
0.474279
19.7223
23.074
11.5504
19.3173
21.4413
22.9381
2.09228
23.0033
2.10272
0.478554
6.10857
3.71257
19.0252
3.68
23.1742
4.34304
24.7997
11.8161
23.9287
8.73251
13.1576
27.5033
16.1759
24.8186
13.7522
24.8547
25.0136
9.06895
16.586
24.5709
3.57379
9.56358
16.53
25.5853
27.2691
19.2493
5.25152
22.1238
8.65983
2.87104
16.15
20.7296
15.3567
16.2573
24.4298
11.7095
26.5923
25.0762
6.52167
4.6952
21.7765
6.25084
4.14088
16.2152
16.8262
25.153
20.9722
4.05675
16.0184
25.0984
27.5349
11.7537
13.7763
24.4202
18.8503
0.345078
14.1729
1.12081
3.36188
8.74912
25.6971
24.0563
6.96039
20.3586
27.844
6.53934
18.8847
14.8799
23.2118
6.95046
23.16
11.7559
19.568
24.2403
20.0191
26.0774
13.6053
16.4481
3.20044
0.169369
24.5695
0.24244
20.4546
15.5717
19.8809
24.4579
26.3875
7.31864
20.1606
15.614
13.4632
18.7051
5.28492
0.99529
10.1171
1.11307
0.767598
18.9582
24.6475
21.9266
15.4018
0.0780088
18.4669
24.6417
25.9309
23.1946
21.6087
24.8459
21.6867
17.1304
24.772
24.2672
24.2077
16.7914
6.8157
23.1227
24.2432
18.7827
7.75122
24.8096
1.62372
24.4198
14.8685
5.3088
27.1244
1.54697
18.5459
18.5429
4.71186
26.1667
22.4772
17.7838
19.8405
18.5086
19.2645
19.7543
16.872
22.6191
17.4005
2.73976
6.92223
25.5035
24.5367
24.3759
24.9364
15.9234
8.04632
7.04088
18.5918
4.03885
7.11164
14.1488
16.5569
15.842
5.13185
17.0273
18.6158
14.9386
3.7724
26.1935
18.4503
18.4291
16.1702
17.153
24.8571
9.52024
9.74533
13.3368
13.3715
10.7011
25.3576
10.5803
10.6483
24.5569
10.7698
15.2776
24.957
10.7665
24.8902
27.8502
9.53761
16.6202
15.3468
10.6483
25.8575
1.6465
17.1751
27.8244
8.62275
10.997
9.01901
15.6978
24.8812
16.6622
16.6002
14.4968
24.9493
7.55315
2.85844
14.8039
6.48531
8.17519
27.3804
25.0641
24.7053
0.522416
24.8038
7.36186
6.12178
1.98753
25.0259
2.23778
24.8582
26.1956
24.87
9.05937
0.233133
22.3736
14.7878
7.91242
24.4946
24.4265
18.7692
18.472
6.0414
21.3832
7.96942
22.5946
26.139
24.2518
24.23
26.2216
24.2459
0.318197
26.4988
7.35973
14.0384
7.95967
1.51476
9.49828
24.5444
6.24358
14.0474
16.4191
19.4515
24.5851
26.025
17.0056
6.21993
22.986
22.9865
21.1296
21.9409
22.6558
22.4822
4.67051
1.04407
4.69881
23.0507
4.59898
14.1162
15.2067
3.09377
4.60325
21.0835
23.1186
22.9732
23.0835
23.1164
3.20511
19.6503
27.7511
23.1002
23.2434
1.72455
1.02269
0.371798
14.1361
10.5959
23.2443
1.11134
21.6564
25.5872
7.40401
10.1409
11.5301
25.6092
8.58103
4.74756
1.18331
10.3833
27.6714
25.3839
15.4249
2.9267
2.79726
0.560173
24.9195
26.7944
26.9497
11.4859
13.7642
2.63055
26.7465
7.5916
25.3411
25.2523
1.1301
0.795779
25.604
2.65953
2.73282
0.548818
27.7992
27.2026
4.8919
14.1332
25.3347
2.4118
2.15199
2.20686
25.2126
25.1961
25.2456
2.20509
2.42016
18.6885
2.14674
27.6751
2.00555
13.3107
18.8535
17.2113
24.9122
25.9896
1.91206
19.9363
19.4097
9.705
24.9719
22.3897
26.5532
3.26289
21.269
13.4567
25.0125
24.6208
20.1717
20.8557
24.5603
24.5984
26.6344
8.7141
24.7568
24.5611
13.9475
13.6446
26.6121
24.497
11.8555
2.04806
2.11556
9.06159
7.60577
24.5171
14.1188
24.4145
24.4162
24.5604
9.57612
15.7029
2.15391
24.4665
24.6371
13.6127
21.1067
14.4328
15.8614
12.4809
10.8323
12.3445
2.06192
24.4527
13.3758
9.88901
2.08947
8.89973
15.7686
24.1723
8.82049
8.8308
8.80087
8.81459
2.98881
24.4078
24.8404
10.2574
24.7967
24.8277
12.3817
24.8396
7.34059
24.7979
24.8353
24.9659
24.6111
9.79088
3.18949
9.84671
24.6731
4.6736
9.33438
13.2764
24.747
26.7347
9.80098
10.4329
21.8949
9.8187
24.7372
0.102875
2.0786
1.66132
25.8921
24.9173
5.78807
4.88631
24.9606
24.8092
18.3024
0.140203
24.7149
20.1848
18.2658
18.3084
10.853
24.8092
12.3575
23.4285
1.05775
0.215815
18.3232
18.1282
16.7449
6.88611
12.6059
24.6175
14.1409
12.6155
21.8232
19.765
18.2972
24.6427
8.64078
12.8801
7.21693
11.0062
12.7278
21.3024
0.827414
19.3712
16.9584
18.3328
5.11152
18.4208
19.3431
12.5478
15.4204
24.8445
22.7292
27.8149
12.4414
12.9792
18.4644
19.3992
17.727
12.6303
12.6483
20.5165
9.78431
3.24329
25.7042
24.4326
19.4004
19.42
15.0174
19.3735
21.6612
20.1974
21.6383
21.5396
24.4724
3.15376
21.5871
23.6048
24.4353
0.324606
24.382
9.61369
12.6475
22.7923
8.55903
27.7846
12.212
21.5605
1.50167
26.4677
21.6119
2.75384
16.5863
21.5085
21.5358
24.4553
26.3482
8.86911
13.3356
7.03158
13.3253
11.988
13.5434
21.8691
24.6021
0.332195
24.5892
13.4229
3.16425
14.3475
27.0753
24.3849
20.181
13.4743
9.70474
14.5374
26.4173
14.3819
14.5463
0.375293
14.5149
23.9272
23.7839
14.3857
26.0968
25.959
8.58462
23.8127
19.9822
27.2546
6.43133
24.5467
22.8999
27.4049
3.9863
19.1401
22.6142
14.4415
15.2211
13.0408
18.3667
22.1638
1.15818
22.6383
8.01163
22.4837
24.9804
4.59922
25.8047
15.2426
15.4429
12.1122
10.7069
15.1363
0.305093
9.47441
15.0962
14.7235
23.2415
17.9164
20.1829
24.5526
15.0719
3.34419
23.0042
3.10215
15.1626
23.0632
4.65057
21.3517
13.4893
23.0718
13.5786
8.1545
15.302
12.3036
25.9603
25.8788
12.991
13.2562
16.7443
26.6712
23.1079
0.934906
12.6072
9.52828
5.98454
10.0276
8.53101
13.2084
0.0378945
7.50034
17.7774
6.29976
11.4658
10.2501
9.39731
17.7511
15.1218
6.23494
23.1833
14.1605
23.2459
5.48841
16.0703
23.1869
7.06143
0.041085
10.0586
13.2326
5.62101
4.64313
25.4683
15.7665
23.184
23.0895
23.7702
15.7965
24.4765
8.65975
15.7714
2.18716
16.9473
25.4832
15.3754
17.9026
0.431872
16.0527
23.2983
17.7315
26.4007
10.3547
1.33143
17.0488
22.2481
23.5128
25.4698
26.5088
23.5147
24.6404
17.7781
25.8047
22.7732
23.34
24.4187
24.5414
1.1879
24.5668
26.5046
17.725
9.98552
27.2965
11.9528
9.04789
12.5373
23.2781
26.5126
20.4355
17.9553
16.9984
23.3512
26.5519
21.6341
17.35
19.5335
26.365
10.1826
17.2393
25.4185
8.92812
26.2299
24.8885
21.7111
17.0625
26.7469
21.6702
21.4278
21.7426
21.3308
14.6744
20.9245
20.787
15.4396
17.7327
27.6328
8.11951
2.86248
6.16075
0.864599
21.2304
2.70988
8.79317
26.7963
25.7384
13.6017
21.27
17.5766
8.28411
17.6065
9.39434
0.948191
26.588
0.0669632
20.9295
2.35204
17.6084
5.52356
26.7906
20.3686
15.45
20.3862
23.5289
26.7084
7.72193
27.707
3.09188
27.5283
17.6431
20.3683
16.7773
12.7551
15.2884
0.762978
16.675
26.7286
17.7015
17.7076
25.1821
25.238
1.10388
15.1523
26.9368
0.0337125
25.261
6.59237
20.3901
25.2886
1.79622