/*--------------------------------*- C++ -*----------------------------------*\
  =========                 |
  \\      /  F ield         | OpenFOAM: The Open Source CFD Toolbox
   \\    /   O peration     | Website:  https://openfoam.org
    \\  /    A nd           | Version:  10
     \\/     M anipulation  |
\*---------------------------------------------------------------------------*/
FoamFile
{
    format      ascii;
    class       surfaceScalarField;
    location    "0.6";
    object      phi;
}
// * * * * * * * * * * * * * * * * * * * * * * * * * * * * * * * * * * * * * //

dimensions      [0 3 -1 0 0 0 0];

internalField   nonuniform List<scalar> 
214403
(
-0.000853309
0.000636555
4.96223e-05
0.000167132
-0.00037821
-0.00131194
0.000109816
0.00158033
-0.00122402
1.38155e-06
-1.05273e-05
0.00123316
0.00109563
-0.000705843
-0.00179796
0.00140817
0.00142063
-0.00178415
0.000430957
-6.74429e-05
-0.000605895
0.000648751
-3.02849e-05
-1.25713e-05
-9.2688e-05
-0.000195405
-0.00107541
0.0013635
-0.00196884
0.00113024
-0.000293671
0.00113227
-0.00271001
0.00194075
0.00194166
-0.0011724
0.00160442
0.00019272
-0.00180885
1.1714e-05
0.000592602
-0.00120018
0.000240018
0.000367558
-0.00117616
0.000363298
0.000608115
0.000204743
6.08118e-05
-0.00137389
0.00166256
-0.000349486
-0.00116339
0.00116465
-1.26608e-06
0.000227924
0.00140489
-0.00182129
0.000188471
-0.00137301
0.00113123
0.000359857
-0.000118073
-0.00138922
0.00134789
4.1335e-05
0.00046498
-1.36838e-05
-0.000120121
-0.000331175
0.00179293
-0.00106507
-0.00239238
0.00166452
-1.6865e-05
-0.000368215
7.03115e-06
0.000378049
0.000778698
-0.000734774
-4.39241e-05
-0.0014289
-0.000502129
0.000494461
0.00143657
-0.000257082
0.00157531
-0.00127429
-4.39445e-05
0.000774556
8.35911e-05
0.00024805
-0.0011062
-0.00118182
-0.000563301
0.00152867
0.000216448
0.00114867
-0.00142028
3.09219e-05
0.000240687
0.000360261
-0.000324664
0.00121274
-0.00124833
0.000923264
0.00116995
-0.00143264
-0.000660578
0.00129366
-0.000799045
-4.78246e-05
-0.000446787
-0.000708475
0.000729398
-2.09231e-05
0.000304857
-0.000606152
0.00152083
-0.00121953
0.00161729
7.77969e-05
-0.000290696
-0.00140439
-0.000682092
-0.000679308
0.000703285
0.000658115
-0.000137088
-0.000769128
0.000653565
0.000252651
0.000477259
-0.000345172
-0.0011848
0.00105271
-0.000174046
0.000952407
-0.000344712
-0.000433649
0.0018305
-2.45031e-05
-0.00180599
-0.00079929
0.0015937
-0.000794409
0.000119655
-0.0016926
0.00100893
0.000564012
0.000276099
-0.000106527
0.000700614
-0.000870187
0.000634674
5.49467e-06
-0.000640168
0.00116023
-2.68487e-05
0.000205554
-0.00133893
-0.00151888
0.000187392
0.00160758
0.000119917
0.000116887
0.000989749
-0.00122655
-0.000398476
-0.00311697
0.0029362
0.000579246
0.000730618
0.00013612
0.000118425
-0.000985162
0.000485639
0.00036903
-0.00119025
0.000335584
0.00152353
0.000905146
-0.00165412
0.000136588
0.00127696
-0.000253324
0.00022039
-0.000830769
-0.000473174
0.00108355
0.000430995
0.00055872
0.000156863
-0.00114658
0.000220732
-0.000168249
-0.000494036
0.000441553
0.000874813
-0.00156988
0.00112606
0.00136225
-0.00128638
-0.000439658
0.000363779
0.00131589
-0.000220685
-0.00102134
0.00135053
-4.50745e-05
-0.00028412
0.00100231
-0.00129866
3.15857e-05
0.000264767
-0.000998371
0.000111282
0.00155837
-0.000671281
-0.00188718
-0.00187293
0.00154721
0.0022129
-0.000934509
0.000941084
0.000181605
-0.00018818
0.000154462
-0.0011955
-0.00107573
-2.0173e-05
0.000533878
0.000562025
-0.00167674
0.000714488
0.00106841
-0.00010616
0.00178156
-0.00140175
5.88433e-05
-0.000438656
8.11307e-05
5.14026e-05
-0.00121683
0.0010843
6.43484e-05
-0.000363852
0.00177167
-0.00147217
-0.0042388
0.000515279
0.000453161
0.00327036
-0.000356452
0.00107356
-0.000332803
-0.000384301
0.00062084
-0.000311328
-0.00127966
0.000970153
0.000151046
0.000942744
-0.00118319
8.93977e-05
-2.06638e-05
0.00102284
0.000361056
-0.00136323
-0.000216407
-4.21653e-05
-0.000441884
0.000700456
-0.00111532
0.00121619
-3.38969e-05
-6.69728e-05
4.96794e-05
-0.00110558
-0.000760158
0.000694364
0.000203723
-0.000137929
-0.00195624
-0.000122079
0.000949144
0.00112918
-0.00058347
-0.000250453
0.000487669
0.000346254
0.000855887
-0.00288274
0.000369883
0.00165697
-0.00048187
0.00092847
-0.000494638
4.80385e-05
0.000634719
-0.000502235
8.59417e-05
-0.000218426
3.17166e-05
-0.00126741
0.0012357
1.43869e-05
0.000977248
-0.000991635
0.000891851
-0.000189492
0.000112418
-0.000814777
-0.00055135
0.000788297
0.000272636
-0.000509583
-0.000388448
0.00166699
-0.000422523
-0.000856019
0.00081476
-0.00141394
-2.83027e-05
0.000627481
0.00093063
0.000889581
-0.00182021
0.00126334
-0.00141437
0.000374803
-0.00022377
7.10794e-05
-0.000239477
0.00176226
-0.00159386
6.05935e-05
-0.000271459
0.00120615
-0.000995282
0.00033108
0.00236485
0.00058508
-0.00328101
-0.00216269
0.00184215
0.00124398
-0.000923437
0.000101816
0.000838465
-0.0011056
0.000165315
0.0010515
0.00117624
-0.000371396
-0.00185635
0.00184188
-0.00112956
-3.31074e-05
-0.000679213
8.40246e-05
-0.000254556
-0.000764606
0.000935138
-0.000800973
-7.69386e-06
0.000808667
0.00115364
4.0116e-05
6.95849e-05
0.00152481
0.000129633
-0.00223273
0.00057829
-0.00119842
0.000235458
0.000211113
0.000751849
-0.000751492
0.00018205
8.59998e-05
0.000483442
0.000133295
0.000160675
-0.0014884
0.00119443
-0.00032211
-0.0018454
0.00117063
0.000996877
0.000731611
-0.000859147
-0.000569444
0.00069698
0.00116679
2.75682e-06
-0.00116326
-6.29046e-06
0.000905841
-0.00127266
-0.000407441
0.000774261
0.00230112
-0.000722771
-0.000388739
-0.00118961
0.00127013
1.85905e-06
-0.00117732
-9.46673e-05
-0.000735994
0.000857425
0.00175685
-0.00187828
0.00159547
-0.000438964
-0.00155008
0.000393574
0.000294113
-0.000431447
0.00175782
-0.00162049
-0.00182979
0.00167779
0.00157336
-0.00142136
8.8168e-05
-0.00156343
0.000597813
0.000877449
0.0019417
-9.07037e-05
-7.18469e-05
-0.00177915
0.00138614
-0.000278228
0.000269961
-0.00137787
-0.00166283
-0.00153447
0.00180582
0.00139147
-0.000290084
0.000867494
0.000238311
-0.000815721
-0.000632231
2.32943e-05
0.00121354
-0.000604598
-0.000143913
0.00162302
-0.00148261
3.51224e-06
-0.00148449
0.00140099
0.000274972
-0.000191475
-3.44522e-05
-0.000829346
0.00201247
0.000242523
-0.000830622
-0.000606404
0.0011945
-0.000650449
8.60203e-06
0.000641847
0.000229067
0.000916877
-0.000859053
-0.00028689
0.00155933
-0.000932933
-0.000226913
-0.000399483
3.82058e-05
-0.000492468
0.000454262
-0.000856439
-0.000241715
0.000327452
0.000770701
9.61382e-05
0.000544026
-0.00119587
0.000555703
0.00203655
-0.000158799
0.00073154
-0.00260929
7.24382e-05
-0.000210642
-0.00217862
0.00231682
0.000156654
-0.000605526
-0.000874465
0.00132334
4.15435e-05
0.00115776
-4.56687e-05
-2.56961e-05
-0.000645845
0.000671541
0.00145324
-0.00057064
-0.000640077
-0.000850513
0.00071445
-0.000720375
0.0015344
-0.00128571
-0.0001557
-9.29848e-05
0.000178351
-0.000772438
0.000347436
0.000246651
-0.00124678
-0.000392601
0.000261875
0.00137751
0.00105262
-0.00170748
0.00115984
-0.000504984
-3.25571e-05
0.00162062
-0.0016185
3.04331e-05
1.50923e-05
0.00177824
-0.00179087
-2.45858e-06
-0.00192372
0.00156077
-0.0012536
0.00161654
0.00162828
-0.00159298
-3.52939e-05
-0.00158247
0.00210141
-0.000368148
-0.00015079
-0.00136695
0.000345084
-9.18369e-05
0.0011137
-0.00224515
0.000158026
0.00144541
0.000641707
0.000401801
-0.000523959
0.000300509
-0.000578584
0.000622535
0.00106405
-0.001108
-0.000567524
-0.000265041
0.000319742
0.000512824
-0.000807036
0.000517647
-0.000996331
0.00128572
0.000218766
4.50848e-05
-0.00184632
-0.000797016
0.000805747
-8.73043e-06
0.00129005
-0.00125595
-3.41039e-05
-0.00132114
-7.43069e-05
-0.000347143
0.00024307
-0.00170725
0.00191322
-0.000449037
0.000735823
0.00132766
-0.00166719
-0.000396298
0.00144316
-0.00157485
4.81384e-05
8.35497e-05
0.000826534
0.000218476
-0.000859921
-0.000185089
-0.00126168
-3.20579e-05
0.00153681
0.000756871
-5.08352e-05
-0.000917754
0.000211719
0.000861794
-0.000681284
0.000796754
-0.000977264
-0.00136683
0.000224674
0.00187798
-0.00049906
-0.000651572
0.00216841
-0.00101778
-0.000619679
-0.000729183
8.7183e-05
0.000123106
0.000610428
-0.00135321
-0.00102306
-8.71853e-05
0.00161771
-0.000507465
0.000134881
0.000286035
0.000827182
-0.0012481
-0.000437837
0.00109975
-0.000661914
0.00018541
-0.00162162
0.000707023
0.000966831
0.000693703
-0.00153743
-0.0014794
2.55092e-05
0.00181289
-0.000358994
0.000227055
0.000238655
0.000693999
-0.00115971
0.00119557
-0.00117586
-1.97143e-05
0.000335804
-0.000170338
0.00130843
-0.0014739
0.00129911
-0.000413208
0.000626525
-0.00151242
0.00248575
-0.000801619
0.00186694
-0.00355107
0.000411849
0.000734638
-0.000298987
-0.0008475
-0.00110095
0.00045014
0.00058753
6.32787e-05
0.000810963
-0.00060557
-3.10904e-05
-0.000174303
-0.000472064
-0.000651732
0.00184691
-0.000723113
-0.000878966
0.00114362
0.000467851
-0.0007325
0.00140075
-7.05046e-05
-0.000468447
-0.00204261
0.00135323
-0.000117658
-0.00190624
0.00180254
0.000792258
-0.000688555
0.00120723
-0.00137245
-0.000180728
0.000345945
0.000708486
-0.00128013
-0.000662563
-0.000749368
-0.000698347
0.00039023
0.00105749
-0.00103963
0.000332358
0.00103872
-0.00033145
0.0013703
-0.00129823
-0.000918477
0.000846407
1.41583e-05
-2.19222e-06
-0.00116089
0.00114892
2.22233e-05
-0.00105714
-3.20565e-05
0.00106697
-0.000299369
-0.00168055
0.000273032
-0.00101572
0.000895534
-0.000152847
-0.000672311
-0.000264878
-0.000102442
-4.16899e-07
0.00157733
2.75049e-05
-0.00390986
0.00275903
0.0019697
-0.000818876
-0.00118993
7.83364e-05
2.9353e-05
0.00108224
-0.000287683
0.00368869
-0.0043837
0.000982697
0.000186984
0.000287651
-0.000650883
0.000176248
-0.00259029
0.0013837
0.000178677
0.00102791
-2.50627e-05
-0.00171668
-0.000260668
0.00200241
-0.000654898
0.00252944
-0.00177083
-0.000103705
0.00111561
0.00165101
-0.00150199
-0.00126463
-0.00134968
0.00127716
0.00157513
-0.00150261
0.00054093
0.000734497
-0.000929457
-0.00034597
0.000542581
-0.000352333
-0.000862559
-0.00261355
-0.000116374
0.0021292
0.000600727
0.000794722
0.000135821
-0.000480404
0.000813171
0.00111239
-0.00101152
-0.000914038
-0.00132283
0.000307696
0.00127059
-0.00025545
0.000131285
0.000449842
0.00152028
-0.00159431
0.00156302
0.000154528
-0.000123234
0.000976929
0.000754216
-0.000683985
-2.07511e-05
-0.000210464
0.0009152
-0.00104141
-0.000220544
0.000637213
-0.00194769
0.00078286
0.000527617
4.94492e-05
0.00102804
-0.00114058
6.30895e-05
-0.000414696
8.54935e-05
-0.000380207
0.00070941
0.0016946
-0.0012045
5.24855e-05
-0.000915895
-0.000750545
0.000989196
0.000677245
0.0033907
-0.00365956
0.00120633
-0.000937467
-0.000711948
0.000886627
0.000348885
-0.000523562
-0.00171055
0.000728657
0.00148806
-0.000506169
-0.000694858
0.000977864
0.00120877
-0.00149178
0.00184919
-0.000741798
-0.00121764
0.000110244
2.76834e-05
-0.000459015
0.00112477
-0.000693434
-0.00019661
0.000122531
-0.00140532
0.0013049
0.000410614
-0.00141585
-0.000299662
0.00181326
-0.00151211
-0.000333203
0.000344089
0.000536474
-0.00122207
0.000341504
-0.000733002
-0.00131605
0.00121755
0.000831505
-0.000212006
-0.000568613
-0.000135276
0.000692501
-0.000735327
0.00158629
-0.00154347
0.000169408
-0.00190956
0.00174015
0.000649532
-0.000869034
0.000563591
0.000376211
0.000225457
0.000301146
-0.000902815
3.21916e-05
-0.001656
0.00162381
-0.000906839
0.000127251
-0.000311778
0.00109137
-0.000110128
0.00133442
-0.00119938
-2.4913e-05
-0.000851544
-0.000457758
0.000497537
0.000811766
-0.000304111
-0.00075944
-0.00068684
-0.00102997
0.000852198
0.000864614
5.78785e-05
-0.00104883
0.0017511
-0.000695893
-0.000108259
-0.00094695
0.00127859
-0.000185137
-0.000918588
-0.000174867
-0.000149139
0.0013072
-0.0016152
0.000457146
0.00082958
5.14569e-05
0.00039964
-0.00128068
-3.357e-05
-0.000718635
0.00035205
0.000400155
-0.000487794
0.000619178
0.00116738
-0.00129876
-0.00166039
-0.000485758
-0.000439633
0.00157492
-0.00158234
3.94912e-05
0.000486917
0.00105594
0.000147625
-0.000536212
-0.000921631
0.00131022
-0.00070625
-0.00139548
0.000352662
0.00174907
-0.000646509
-0.000680474
0.000692624
0.00063436
-0.00155712
0.00149358
0.00156785
-0.00150431
-0.000221076
-0.000395564
-0.00116608
0.00178272
-0.00151718
0.000175948
0.00158663
-0.000245394
-0.000302527
0.000717146
-0.000414619
-0.000671889
0.00126061
-0.000924273
0.000335557
-1.07905e-05
0.00211906
-0.000800116
-0.00130816
-0.000768094
-0.000373924
0.00150883
-0.000366813
0.000246549
-0.000635947
0.00141694
-0.00102754
7.20082e-05
0.000971714
-0.000167128
-3.89599e-07
-0.00155557
0.00155645
-4.94304e-07
0.00182198
-0.000322378
-0.00268364
0.00118404
-0.00170592
-0.000152746
0.00213173
-0.00027306
-0.000899288
0.0013865
9.98012e-05
-0.000587014
0.00108836
-0.00109857
1.02116e-05
-0.000904972
9.62737e-05
-0.000763255
0.00157195
-0.0013356
0.00187001
-0.000386435
-0.000147977
0.000835749
-0.00034119
-0.00102617
0.000531612
-0.00157342
0.00159913
-2.57112e-05
0.00134235
-0.00194998
0.000137369
0.00047026
-0.00149426
-0.000410979
0.00255837
-0.000653129
0.00110562
-6.28344e-05
-0.000230113
-0.000812675
-0.000634375
-0.00105271
0.00237959
-0.000111015
-0.00157846
0.000954148
0.0023901
-0.00273183
-0.000218199
0.000559931
0.000663331
0.000333055
-0.000769331
-0.00115569
0.00115326
2.43057e-06
-0.000280106
0.00159386
-0.000112606
-0.00120115
-0.000337648
0.000398351
0.00134981
-0.00141051
0.000904369
0.00220391
-0.0012671
-0.00184118
0.00164252
-0.00193816
0.000622635
-0.000326993
0.00139541
1.88726e-05
-0.00141428
2.49055e-05
0.00132845
-0.00135336
0.00154565
-0.00186708
0.00166379
3.17406e-05
-3.18001e-05
0.0013593
-0.00135924
-4.33391e-05
0.0024001
-0.00239927
4.25025e-05
-0.00018316
-0.000550704
-0.00111233
0.00184619
-0.00070408
-0.000410153
0.000151675
0.001282
-0.00225887
0.000825199
-0.00114252
-0.000280387
0.00120452
0.000218395
-0.00140353
0.00155042
-0.000418849
0.000271958
0.000218207
0.00106269
-0.000361472
-0.000919429
-0.000465421
0.000101013
0.000866792
-0.000502385
7.89983e-06
0.000406775
-0.000536342
0.000121667
-0.000567853
0.00129968
-0.000721994
-9.83524e-06
0.000384501
-0.00123131
-0.00072661
1.19665e-05
-0.00116402
0.00115206
-0.000474994
-0.000428399
0.00019051
0.000712884
0.000676503
-0.000383073
-0.00029343
0.00164219
-0.00163762
-0.000332631
0.00032806
-0.000136664
-0.00101281
0.000918582
0.000230888
-3.76502e-07
1.22606e-05
0.000908389
-0.000920273
0.00041532
-0.000360119
-0.00143357
0.00137837
0.00108586
-8.4591e-05
-0.00100127
-0.00156232
-0.00101955
0.00151443
0.00106744
0.000887445
0.00137031
-0.00236877
0.000859504
-0.000294804
0.000468798
-0.0010335
-0.000337985
0.000338909
-0.00198488
0.00198396
0.000505477
-0.000994022
-0.000969835
0.00145838
-9.26015e-05
-0.000259126
0.00111546
-0.000763729
0.000754632
-0.000941238
0.000361003
-0.000174397
0.000416571
-0.000723604
-0.000680803
0.000987835
-0.00137629
0.0015443
-0.000408614
0.000240601
0.0016202
0.00212604
-0.0023347
-0.00141154
-0.00123665
0.00124784
-1.11916e-05
-0.000158821
0.00134287
-0.00168613
0.000502083
1.78923e-05
-4.58328e-05
-0.00161854
0.00164648
0.00136571
7.11301e-05
-0.00158725
0.000150414
-0.00060016
-0.00100515
0.00126446
0.000340847
-0.00131283
0.00193259
-0.000790631
0.000170875
-0.000564258
-0.000685709
0.000419346
-8.4266e-05
-1.64668e-05
-0.000945248
0.00104598
-0.00313158
-7.84722e-06
0.000291144
0.00284828
0.000131082
-0.000800221
-0.000429322
0.00109846
0.00199815
-0.000155945
-0.000664428
-0.00117777
-0.000353107
-0.000799415
0.000188382
0.000964139
0.000603974
1.89989e-06
-0.000605873
0.000913577
0.00046991
-0.000299216
-0.00108427
0.000723848
-0.000558259
0.00142233
-0.00158792
4.95245e-05
0.00143372
-0.000468649
-0.0010146
0.000382475
0.00053772
0.00107795
-0.000737477
3.77451e-05
0.000699732
-0.000937471
0.000131498
0.000251433
0.000143299
-0.00129896
0.000904232
-0.00117359
0.00174149
0.000544796
0.0018337
-0.000376841
-0.00200166
-0.00113068
0.0011444
-0.0018155
0.00180178
-0.000171981
-0.000893742
0.00032447
0.000741253
-0.000965564
0.00189619
0.000578656
-0.000677253
0.000168712
-7.01148e-05
-0.00059168
-0.00186727
0.000585665
0.00187328
0.00124742
-0.00121612
-2.19381e-05
-9.36595e-06
0.00101157
-0.00119307
0.000220791
-3.92866e-05
0.000252191
0.000996343
-0.00178434
0.000535802
1.45813e-05
0.000892515
-0.000907096
0.000568849
-0.00143816
0.00112151
-0.000562309
0.00151856
0.00126681
-0.00222306
0.000341794
-0.000414548
-0.00192385
0.00199661
-0.000528827
0.00093626
-0.00192009
0.00151265
-0.00142532
0.0011174
0.00147773
-0.00116981
-0.000866151
0.00118832
-0.000779592
0.000457425
-0.000178416
0.000857085
0.000135803
-0.000814472
0.000403591
-0.000589812
0.00060176
-0.000415539
0.00082069
0.000314142
0.000305703
-0.00144054
0.00218858
-0.00149112
-7.67131e-05
-0.000620747
-7.43466e-06
-0.00107125
0.00107868
0.000642541
-0.000953127
-0.00299661
0.00330719
-0.000142991
-0.00142946
-0.000438601
0.00201105
-9.19788e-05
-0.000680603
0.000772582
0.000225024
0.000967904
-0.000171504
-0.00102142
-0.000280251
-0.00095496
0.000764451
0.000470761
0.000796785
-0.000682167
-0.00119035
0.00190287
-0.00147701
0.000457975
0.000486316
-0.000944291
0.00150658
-1.44514e-05
-0.000187917
-0.00130421
-0.00027386
-0.000506332
0.000780193
0.000489379
0.000353581
0.00295476
-0.00355537
-0.00120528
0.00180589
0.000412436
0.000991477
-0.000726494
-0.000677418
-0.00103645
0.0019943
0.00128652
-0.00224436
0.00122517
0.000424646
-0.000169534
-0.00148028
0.00195503
-0.00133015
0.000800712
-0.00142559
-0.00112354
0.000525338
-0.00150176
0.00209996
-0.0017755
0.00314781
-0.00126081
-0.000111504
-9.43111e-05
-0.000704199
-0.00104762
0.00184613
0.00145058
0.000594175
-0.0016832
-0.000361558
0.000812965
-0.00214629
0.00131667
1.66578e-05
-0.00178595
-7.71623e-05
0.00116448
0.000698634
-0.000389814
0.00100372
0.000440393
-0.0010543
-0.000213407
0.000894559
0.000726362
-0.00140751
-0.00194464
0.000989912
-7.12663e-05
0.00102599
0.000146886
-0.000484974
0.000976542
-0.000638454
0.00081388
-0.000415904
0.000275956
-0.000673932
0.000879356
0.000185878
7.18312e-05
-0.00113706
-0.00104762
0.00118128
0.000428968
-0.000562625
-0.000271508
0.00142997
2.01323e-05
-0.00117859
0.00112299
-0.000642121
-0.000430992
-4.98767e-05
0.00102059
-9.97061e-06
-0.00101062
0.000708306
0.000553083
-0.000115767
-0.00114562
0.000348075
0.000864294
0.000757809
-0.00197018
2.91407e-05
-0.00164396
0.00161482
-0.000850088
0.00336263
-0.000508074
-0.00200447
-2.06577e-05
0.00118986
-0.0011692
-6.94314e-05
-0.000870164
0.000162264
0.000777332
-0.00154846
0.000803658
0.000593527
0.000151271
0.000319167
0.000271991
-0.00184424
0.00125308
0.000977765
0.00152158
-0.000562813
-0.00193653
0.00141932
-0.000486636
-0.00133241
0.000399722
-0.00182375
0.00104168
0.00288658
-0.00210451
2.20317e-05
0.000735823
-0.000750319
-7.53554e-06
-0.000734626
0.000744329
-9.7031e-06
-0.00183503
2.80048e-05
0.000770582
0.000175978
0.000453005
0.00121581
-0.0018448
0.000897923
-0.00109352
0.000747765
-0.000552168
-0.000938276
0.000791017
1.55232e-06
0.000145706
-0.000192737
-0.00150993
0.00196423
-0.000261558
-0.000706412
0.000329862
0.00109958
-0.000723035
0.00117753
-0.000457809
0.000163878
-0.000883604
-0.000771473
-0.000122499
0.000905788
-1.18168e-05
-9.77161e-05
-2.00841e-05
0.00130594
-0.00118814
0.000133164
-0.000119984
0.00120794
-0.00122112
-0.00118563
0.00167263
-0.00179983
0.00131283
-1.09149e-05
-0.00140372
0.00141463
-0.000540029
1.25224e-05
0.00136536
-0.000837857
-0.000950337
0.00111774
-0.00159208
0.00142468
-0.000984891
8.81662e-05
0.000290321
-0.000454227
0.00128872
7.35677e-05
-0.00090806
-0.000315882
3.31806e-05
-0.000567812
-0.000483321
-0.00163863
0.00165174
0.000470209
-0.000741128
-7.16375e-05
-0.00022154
0.00103431
-0.0024216
0.000835691
0.00025129
0.00133462
-0.000799525
0.00183887
-0.000901741
-0.000137602
0.000551779
0.000242262
-0.00110992
0.00107335
0.00108603
-0.00215938
0.000184959
0.00230046
-0.000626467
-0.00185896
-2.32049e-05
-5.32034e-05
-0.00108347
0.00115987
-0.00110216
0.00178598
-0.00072131
3.74913e-05
0.00103882
-0.000662436
-0.00093562
0.000559239
0.000280443
-3.51753e-05
0.00034019
0.00177975
0.000450944
-0.00249035
0.000259662
-0.00132923
-0.00014132
0.00041186
0.00105869
0.000416892
-0.00046574
-0.000636862
0.00192477
-0.00133043
0.00103659
-0.00163092
-0.000208462
0.00126361
-0.0021958
0.00114065
0.000758561
-0.000967272
-9.31611e-05
0.000301872
-0.000873648
-0.000306796
2.23216e-05
0.00115812
-0.000631971
-0.000584842
0.00121681
0.000153053
-0.00163394
0.00144868
3.22106e-05
0.000666579
-0.000634496
-0.000664055
-0.00170789
0.00214846
-0.000396535
-4.40368e-05
0.00156644
0.000436867
-0.00168506
-0.000318245
-0.000872543
-0.00158937
-0.000257973
0.00271989
0.00102066
-0.000328847
0.00118763
-0.00187944
-0.00118291
-2.72268e-06
-0.00126213
0.000677285
0.000158856
-0.00142295
0.000425464
0.000838627
0.000426682
-0.00157169
0.000874149
0.000270861
0.000305831
4.24754e-05
-0.00140162
0.00105331
0.000182022
0.000737908
-4.59967e-05
0.00131517
-0.000269562
-0.000999612
-0.00050238
-3.97532e-05
-0.000497066
0.0010392
-0.000302366
-0.000417992
0.000787399
-6.70413e-05
-0.0011632
-1.86225e-05
-0.00198667
0.00072201
0.00105125
0.00286362
-4.02628e-05
0.000391962
-0.00321532
-0.00138091
0.0020648
0.00043944
-0.00112333
-0.000387439
0.000183738
0.00121979
-0.00101609
0.000150547
0.000410712
-0.000321096
-0.000240162
-0.00213852
-0.000461191
0.00184789
0.000751815
3.65455e-05
0.000944458
-0.000184218
4.57557e-05
0.000454179
-0.00143369
0.000933751
-0.000894477
-4.62632e-06
0.00033794
0.000561163
-0.00125374
0.0015087
-0.000218412
0.000710186
-0.00061612
-9.40661e-05
-0.00104116
9.1018e-05
-0.000800593
0.00175074
-0.000476928
0.000708156
-0.00055115
0.000319921
-0.00104982
0.00116552
-0.000489376
0.000373673
0.000472744
-0.000112123
-0.00102032
0.000659704
-0.000427449
0.00291791
-0.00380329
-0.000368249
-0.000269593
0.000254055
0.000383787
0.00132367
-0.0020928
-6.63726e-05
0.000835505
-0.000529503
0.000388554
0.000715982
-0.000575032
-0.000180852
0.000883062
-0.000260251
-0.000441959
-0.000977535
0.000221534
0.000234088
0.000521913
-0.000573745
3.20129e-05
0.000541732
0.00125598
-0.000592497
-0.000634245
-2.92416e-05
0.000111375
0.000633357
-0.000980879
0.000236147
-0.000658039
-0.000801992
0.000816142
0.000643889
-0.000403594
0.00100181
-0.00084048
0.000242263
0.0003362
-0.000609469
0.000418105
-0.000144837
0.00126433
1.33414e-07
-0.00126446
0.00101746
-0.00124649
0.000600318
-0.000371293
-0.00152333
4.84655e-06
0.00151848
0.000610122
-0.00052694
0.000149138
-0.000232319
-3.1137e-05
0.00127622
-0.00141628
0.0001712
-0.000580263
0.000738713
0.000177751
-0.00068243
0.00135002
0.001265
-0.00109525
0.00107736
1.78919e-05
8.13549e-06
-0.00170482
0.00169668
0.00228521
0.000262179
-0.000486424
-0.00206097
0.000508551
-0.00177205
-0.00026684
0.00153034
0.000322678
0.000435027
0.000246062
-0.00100377
-0.000629168
-0.000615208
3.97698e-07
0.00124398
-0.000300731
0.000409081
-0.000737519
-0.0014059
0.000257621
0.0018464
-0.00069812
-0.00276768
0.00203594
0.000905925
-0.00017418
0.00121581
-1.8681e-05
-0.00119713
-0.000715939
-0.000992012
0.000628238
0.00107971
-0.000701511
-0.00100861
0.000304216
-0.000978062
0.000527905
0.000632179
0.000411599
-0.000538996
-0.000965081
0.00109248
-0.000681378
-5.48358e-06
0.000686862
-0.00154998
0.000645542
0.000632227
0.000272214
0.000409543
-0.00105153
-0.000336074
0.00135702
-0.000420983
-3.19678e-05
-0.000904069
-0.000918168
0.00149986
0.000870464
-0.00145215
-0.000296637
-0.00060364
0.000250017
0.000650259
-0.000374955
-0.000309602
0.000684558
-0.000689973
-0.00142739
-0.000650316
0.000331089
8.92533e-06
0.00063787
-0.000977885
0.00129301
-0.000915296
-0.00134742
0.0009697
-0.00049635
0.000180697
0.000962295
-0.000646642
0.000908229
-0.00064794
-6.31575e-05
-0.000197132
-0.00104199
0.00019126
0.000810029
4.07007e-05
-0.000657142
0.00146867
-0.00162372
0.000637225
5.65647e-05
0.000929926
0.00203646
-0.00143394
-0.00121146
0.000608942
-0.00116527
0.000264662
0.00219362
-0.00114525
-0.000788104
0.00126019
0.00067317
-0.000130051
0.00123302
-0.000467747
-0.000635222
7.7171e-05
-0.000842523
-0.000531778
0.00129713
0.00141334
-0.000924522
-5.43806e-05
-0.000434439
0.000417945
0.000323687
-0.00104236
-0.000298031
0.000346927
0.000802609
-0.000851506
-0.000223356
0.00124519
-0.00156485
0.000543012
-0.000781004
0.000205858
0.000172729
0.000402417
-0.00179884
0.00178926
9.58445e-06
0.00151366
-0.00148951
-2.41492e-05
0.000485534
-0.00188327
-0.000738669
0.00213641
0.000393806
0.000769542
0.000193672
-2.98954e-05
0.000688786
-0.00065889
0.00121092
0.00107305
-0.00228397
-0.00124488
0.000763869
0.00053315
-5.21346e-05
-0.000690954
0.00022964
0.000552716
-9.14027e-05
-0.00203503
0.000935036
0.0011184
-1.84002e-05
-0.000661872
-0.000736403
0.000716896
0.00123829
-0.000209532
-0.000769872
-0.000258886
-0.0011386
0.00123636
-0.000754904
0.000176509
-0.00124084
-5.31104e-05
0.00111744
-6.25855e-06
-0.000642624
0.000648882
0.00286425
0.000125957
0.000252175
-0.00324238
-9.40211e-05
-0.000288317
-0.00172077
0.00210311
0.000524826
-0.000764914
-0.000303533
0.000543622
0.000167366
0.00154217
-0.000594047
-0.00111549
0.00171738
-0.00170927
1.72946e-05
-2.54076e-05
-0.000954545
-0.000869657
0.00135978
0.000464422
0.000559501
0.000413087
-0.00110801
0.000135421
8.68857e-06
0.0010513
-0.00106757
7.58473e-06
-0.00140571
0.000456518
0.00113203
-0.000182845
0.0010779
0.000664162
-0.00110111
-0.000640948
2.85635e-05
-0.00097442
0.000460553
-0.000256448
0.00151328
-0.000801873
-0.000109834
-0.000113526
0.00102523
-0.00147401
2.03659e-05
0.00145365
0.00187689
0.000860776
-0.00061358
-0.00212408
-0.00128222
2.22402e-05
0.00128854
-0.000127766
-0.000294422
-0.000756847
0.00117903
-0.000128824
-0.000164129
-0.000412253
0.000705205
0.000338992
-0.00166236
0.00124183
8.15318e-05
0.00126312
-0.000164691
-0.00124823
0.000149798
-0.00122799
0.000274838
4.104e-05
0.000912108
-0.000486186
0.000338758
-0.000675058
0.000822486
0.000268545
0.000183725
-0.00160175
0.00114948
4.53713e-05
-0.00114852
-6.62132e-05
0.00116936
0.00106352
0.000159711
-3.78333e-05
-0.0011854
-0.00126659
0.000286985
0.0011129
-0.000945434
-0.0012369
0.00218234
0.00183068
-0.000907956
0.000387171
-0.0013099
0.000151892
0.0010023
-0.000629365
-0.00148928
0.000423054
0.000359503
0.000706727
0.0017855
-0.00184203
5.65346e-05
-0.00109699
-0.000379037
0.000788094
0.00068793
-0.0016106
-0.00123444
0.000834425
0.00201062
0.00148669
-0.00151955
-0.000193823
0.000226685
-0.000260394
0.000705708
-0.000530731
8.54173e-05
-0.0018207
0.000578145
0.000433267
0.000809285
-0.00272689
0.00327094
0.000636834
-0.00118089
0.0011824
-0.00272002
7.32425e-05
0.00146438
-0.0010984
0.00138083
-0.00252972
0.0022473
-0.00117213
0.00250655
0.000244058
-0.00157848
7.67508e-05
0.0011645
-0.000276428
-0.000964819
0.0017764
-0.00133767
-2.72888e-05
-0.000411447
-0.000309047
-0.000275663
0.000443523
0.000141188
-0.00081312
-0.00171302
0.00145946
0.00106668
-0.0011867
0.00158
0.0013831
0.00105021
-0.000745981
-0.000990991
0.000686757
0.000345344
-0.000469846
-0.000183712
0.000308214
0.000777863
-0.000793166
-0.00102522
0.00104052
-0.000323361
0.000892858
-6.37325e-05
-0.000505765
-0.00125656
-0.000227846
0.00156116
-0.000987383
-0.000240041
0.0011913
3.61225e-05
0.000407695
-0.000903655
0.00049596
0.000328563
-0.000409318
0.00154019
-0.00145943
0.00132592
-0.00186868
0.000274344
0.000268417
0.000799736
-0.000863105
6.33698e-05
-0.00120105
1.43506e-05
0.00108348
-0.000431806
-0.00104251
0.000390843
0.00035194
0.000273488
0.00121944
-0.00184486
0.000759053
-0.000866456
0.000107404
-1.00525e-05
0.000955003
-0.00108505
0.000140097
-0.00132742
-0.000116034
0.00177202
-0.000569523
-8.68957e-05
0.000131291
0.000525128
8.42917e-05
-0.000628887
0.000492799
5.17968e-05
0.00109667
-0.00109668
-0.000260388
0.000134823
0.00186134
-0.00117187
-0.000824297
-0.000655622
0.00134747
-0.000691847
-0.00172027
0.000624789
-0.000350496
0.00144598
0.00134361
-0.00120499
-0.00195932
-0.000694963
-0.000791592
0.00279967
-0.00131311
-0.00184341
0.00115316
0.00174211
-0.00105186
-1.33915e-05
-0.00168019
0.00169358
0.00252908
-1.54705e-05
-0.0014711
-0.00104251
0.00145747
-0.000928845
-0.000169372
-0.000359257
-0.00104565
0.000702244
-0.000154775
0.000498178
2.00006e-06
-0.00123248
0.00123048
-0.0007999
0.000828938
-2.90372e-05
-0.000596606
-0.000594736
-0.00154083
0.00273218
-0.00146802
0.000312281
-0.000162207
0.00131794
0.000329167
0.000619458
0.00161836
-0.00146723
-0.00120575
0.00105462
-0.000395716
-0.000898923
0.000963968
0.000330671
-0.000865986
-0.000461839
0.00132213
5.69003e-06
0.000330363
-0.000193441
-0.00089239
0.000755468
0.000971569
4.30383e-05
-0.00123327
0.000218659
0.000303817
-0.000198234
0.000339282
-0.000410323
0.000389459
-0.000318418
0.000794442
0.000760919
-0.000788452
-0.000766909
0.000447885
0.00109962
-0.00114059
-0.000406915
0.00085116
0.000361287
-0.000660668
0.00105686
-0.00124415
0.000230331
-0.00143178
0.000982901
0.000566769
-0.000117893
0.00168086
-0.000575695
-0.00176079
-0.000424213
0.00117809
0.000589737
0.00114123
-0.000546211
-0.000970871
-0.00029871
-0.000162196
-0.00153172
0.00142908
0.00012491
-2.22753e-05
-7.76184e-05
0.00195028
-0.000194109
-0.00167855
-0.00125832
0.000271064
0.000563044
-0.000225068
-0.00125215
0.000375044
0.00110217
0.0011404
0.000155689
-6.03672e-07
-0.00129549
-0.00183965
2.14913e-05
-9.29452e-06
0.00182745
-0.000451441
0.000499508
-0.000812091
0.000764024
-0.00117619
0.00147827
-0.000137672
-0.000164403
0.0015345
-0.00141111
-0.00129959
-0.00112969
0.0010233
-0.000329617
0.000436004
0.000908939
-3.12324e-05
-0.00028833
-0.000589377
-0.00178173
0.00172769
0.000824332
-0.000770292
0.000883414
0.000331371
-0.000119098
-0.00109569
0.000275115
0.000730847
-0.000929517
-7.6445e-05
-0.00054109
0.000556454
-1.5364e-05
-0.000327092
-0.00083659
0.000840321
0.00144585
-0.00142775
-1.81024e-05
-0.000709979
-0.000596543
0.000541608
7.13944e-05
-0.00107318
-0.000140818
0.00114261
-8.43771e-05
-0.000783419
0.000674593
0.000193204
0.00112784
-0.00131206
0.000184229
-0.00149559
0.00151476
0.00139277
-0.00141193
-0.00099496
0.000783775