/*--------------------------------*- C++ -*----------------------------------*\
  =========                 |
  \\      /  F ield         | OpenFOAM: The Open Source CFD Toolbox
   \\    /   O peration     | Website:  https://openfoam.org
    \\  /    A nd           | Version:  10
     \\/     M anipulation  |
\*---------------------------------------------------------------------------*/
FoamFile
{
    format      ascii;
    class       volScalarField;
    location    "0.6";
    object      SgRate;
}
// * * * * * * * * * * * * * * * * * * * * * * * * * * * * * * * * * * * * * //

dimensions      [1 -1 -3 -1 0 0 0];

internalField   nonuniform List<scalar> 
111485
(
1.30497e-13
7.17187e-15
1.70334e-14
2.90522e-15
2.4357e-14
4.57442e-14
2.46306e-16
1.65624e-14
9.08074e-16
3.82033e-15
5.49597e-15
7.72683e-15
2.21834e-14
7.21347e-16
6.9156e-15
2.01137e-15
6.41511e-13
8.11931e-14
6.955e-16
6.59123e-13
7.13878e-13
3.53934e-14
2.50968e-15
1.91145e-14
9.30105e-15
4.89077e-14
1.14744e-14
1.99173e-13
2.28385e-14
2.66394e-14
2.0593e-13
2.89406e-12
5.63259e-14
1.0523e-13
4.18081e-14
4.2885e-12
8.88112e-14
1.61214e-13
2.60509e-13
1.34925e-15
4.96033e-13
2.847e-13
4.72647e-15
1.39916e-14
1.12016e-13
1.39454e-05
1.21682e-13
3.76606e-15
3.50701e-14
5.06165e-14
9.28699e-13
1.10611e-13
3.31934e-13
4.07059e-15
8.64392e-13
4.49028e-14
3.74195e-15
5.6064e-13
5.70828e-15
5.91419e-15
8.44226e-15
2.41789e-13
2.8982e-14
3.14465e-14
5.43394e-13
9.68736e-14
6.31718e-14
9.5932e-14
1.91134e-14
5.62314e-14
7.04899e-14
9.24697e-15
2.55732e-13
1.31978e-14
4.04414e-13
2.3584e-14
6.21888e-14
2.85765e-15
1.42964e-13
1.11964e-14
1.20631e-13
2.49414e-13
1.12867e-13
4.91925e-13
8.59234e-15
2.03015e-14
1.22877e-13
5.0814e-14
1.9335e-13
7.95118e-13
6.58042e-14
6.05791e-15
1.30066e-14
7.04679e-14
4.69832e-14
3.60251e-13
5.31676e-14
1.01424e-13
6.23605e-14
1.78507e-13
3.71025e-13
3.64509e-14
4.36187e-14
1.30912e-14
1.46607e-14
5.99983e-14
1.15344e-13
8.28265e-13
4.45095e-15
1.025e-13
2.87545e-13
2.33866e-14
2.84801e-14
4.44812e-16
9.30617e-14
3.62234e-13
3.14836e-14
2.34756e-12
1.78023e-15
3.22799e-13
3.54279e-14
2.60389e-13
7.45133e-16
1.22548e-12
1.5886e-14
3.79277e-13
1.94839e-16
1.98753e-13
3.9525e-07
3.03399e-13
6.06556e-14
3.1549e-14
3.30247e-12
2.87614e-13
1.14623e-14
7.96164e-15
4.8914e-14
2.45022e-14
5.34822e-15
6.33764e-15
4.33966e-14
3.6937e-16
1.02097e-14
2.58918e-15
4.9551e-14
4.31481e-13
7.29345e-14
1.00321e-13
4.50255e-13
1.36315e-15
2.81347e-15
4.53828e-14
3.72262e-14
3.30494e-12
1.79322e-13
4.70277e-14
5.71451e-14
1.07558e-15
5.62974e-14
0.000900882
1.01758e-13
8.38475e-14
1.06959e-15
1.67274e-13
7.44172e-14
1.48494e-13
3.48383e-14
6.53136e-13
1.35557e-14
9.82688e-14
6.4195e-13
2.28284e-13
8.32996e-15
5.2658e-15
2.14458e-13
6.60009e-13
8.55258e-14
1.5457e-15
2.84229e-14
1.45847e-13
5.59803e-14
6.97141e-14
5.95294e-15
7.26313e-15
7.25285e-15
1.59322e-11
7.04424e-15
4.5618e-13
6.0527e-14
2.50159e-13
2.70267e-13
1.74321e-15
1.75528e-13
5.93613e-14
2.89953e-15
3.09772e-14
5.77614e-14
1.034e-13
1.22743e-12
1.41055e-14
2.10202e-14
2.57586e-14
1.09435e-14
2.49651e-13
2.89341e-06
1.6085e-13
1.33277e-14
5.15087e-14
2.60102e-14
3.90144e-15
1.67318e-14
4.42904e-13
1.028e-14
7.51526e-14
3.00379e-13
4.27318e-14
2.33626e-14
2.039e-14
1.95902e-13
1.76805e-13
4.39011e-15
4.1869e-06
2.19186e-13
3.24694e-14
6.94457e-14
2.1179e-14
8.06802e-14
1.82134e-13
2.82589e-14
2.35725e-13
5.32305e-14
7.56736e-15
6.9346e-13
1.76941e-14
1.10345e-13
1.18129e-13
4.07997e-14
1.89819e-09
5.08202e-14
2.9435e-13
2.79511e-13
4.00672e-14
5.33097e-14
4.39066e-13
7.87285e-14
4.25571e-13
4.59653e-12
1.74753e-13
7.56311e-15
1.62749e-14
2.80494e-13
9.04565e-14
4.3281e-13
2.42321e-13
3.08747e-13
1.59628e-14
1.2996e-13
8.88589e-14
1.05314e-14
4.50728e-14
1.26949e-13
5.29497e-13
1.0384e-12
7.61911e-08
1.88416e-13
2.55153e-14
6.09959e-14
5.65762e-08
5.18165e-13
1.72402e-14
9.24227e-14
2.69773e-14
1.00658e-14
4.05622e-14
3.24575e-15
4.76667e-13
3.3998e-13
5.12244e-13
1.53353e-14
1.61062e-13
1.40008e-13
1.15812e-14
4.67908e-14
1.8598e-13
1.87724e-14
3.91278e-14
1.47251e-14
2.665e-15
2.48608e-13
1.99889e-14
1.2484e-14
3.07986e-14
4.32952e-14
8.22871e-13
8.7846e-15
7.97378e-15
1.12581e-14
2.60129e-14
1.56515e-14
4.17171e-14
5.57992e-15
4.56287e-13
5.45931e-13
8.23803e-14
1.3308e-12
1.49605e-13
1.60704e-14
9.39912e-13
2.52355e-13
4.87463e-13
1.31024e-14
2.96212e-14
1.7582e-14
4.98991e-14
1.75785e-13
2.27848e-13
5.85855e-14
3.96811e-14
3.46092e-17
2.32059e-14
3.26927e-13
3.58769e-15
7.10606e-14
1.07904e-13
8.78912e-14
3.28793e-13
1.86118e-14
7.71141e-13
1.31025e-13
7.51371e-13
2.48413e-13
2.39856e-14
4.3878e-14
3.18836e-14
4.03309e-13
8.94387e-14
1.37191e-13
3.46733e-12
2.68027e-13
5.80062e-13
7.22591e-14
6.70204e-14
3.82181e-13
2.69566e-13
2.09544e-14
7.73737e-14
9.45829e-13
4.82946e-14
1.72916e-13
4.21035e-14
1.333e-13
2.19497e-13
2.2611e-14
1.28187e-14
3.45902e-13
5.66006e-13
1.77399e-13
9.68955e-14
4.82918e-14
1.154e-13
4.95688e-15
5.89335e-14
1.57667e-14
7.54262e-14
4.4084e-13
4.77521e-13
1.81781e-14
4.46054e-15
2.38781e-14
0.000238712
1.29215e-13
3.48792e-15
3.84907e-13
7.82309e-14
6.83571e-15
2.9977e-14
3.65765e-15
1.07455e-13
4.90153e-14
2.01374e-13
1.11624e-14
3.58634e-14
2.29984e-13
2.59687e-13
9.27211e-14
2.51124e-13
2.26725e-13
8.67097e-14
1.34975e-12
1.94727e-13
5.14769e-14
2.53289e-14
1.8983e-12
3.4409e-14
1.00668e-16
1.0551e-13
1.32173e-14
1.44687e-14
2.67546e-14
3.60319e-16
8.22747e-14
4.57059e-14
1.18462e-14
3.78372e-14
2.79576e-13
5.55849e-13
6.80626e-15
1.23613e-11
3.22389e-14
1.21369e-13
4.5586e-14
7.81543e-14
3.51583e-14
3.52494e-14
6.21856e-15
2.58515e-13
1.09846e-14
8.39778e-15
1.23697e-14
1.69271e-13
1.64758e-14
8.04802e-14
3.36426e-14
5.11016e-15
3.83051e-14
6.86285e-13
1.85092e-13
3.85309e-14
4.73132e-13
8.91937e-14
4.63344e-14
1.46946e-14
2.33402e-07
3.23547e-13
1.0304e-13
1.00563e-13
1.5329e-14
7.99316e-14
2.76375e-13
4.02485e-14
5.31205e-13
1.85526e-15
6.08263e-13
8.06058e-14
6.86009e-14
4.5507e-13
2.47828e-12
2.21322e-13
2.52947e-13
6.72728e-13
1.04051e-14
1.02202e-14
3.3797e-13
1.53662e-06
2.53758e-13
7.60085e-13
1.57094e-14
4.02696e-14
7.33606e-15
7.69356e-15
1.08834e-13
1.61912e-14
2.90386e-14
4.54765e-13
1.92928e-14
1.10809e-13
1.00712e-13
2.42894e-13
2.13765e-14
2.11257e-13
6.04035e-14
2.12073e-13
1.47682e-13
9.40645e-13
1.98046e-14
2.28173e-12
3.68073e-13
2.54637e-13
4.39582e-14
1.17197e-12
4.25141e-13
8.97774e-14
4.4719e-15
2.9017e-13
1.07077e-14
3.06445e-14
2.50788e-15
1.75991e-13
4.0981e-14
5.57285e-13
5.44844e-14
4.67849e-14
4.27489e-14
1.4081e-14
3.18828e-14
6.19694e-14
5.22315e-14
1.95491e-13
7.73236e-14
1.9663e-13
6.80457e-14
1.10896e-13
1.40477e-13
3.55177e-13
3.81953e-14
1.06954e-14
1.31919e-13
3.06076e-14
1.76092e-12
1.97508e-14
1.84095e-13
7.6528e-13
1.25662e-13
2.15727e-14
1.871e-14
1.02051e-14
3.67305e-12
7.98198e-13
1.48224e-13
1.03906e-13
3.2055e-13
2.33661e-14
5.38939e-14
1.04357e-12
1.00864e-13
2.71762e-14
9.16823e-14
1.14343e-14
1.54763e-13
1.10586e-13
1.78134e-14
3.62726e-14
3.9385e-14
1.31711e-12
1.62251e-14
2.16413e-14
5.35226e-14
3.1009e-14
6.62315e-15
1.29436e-14
5.51347e-14
5.38515e-14
3.18341e-14
1.24574e-13
7.96119e-15
5.53776e-13
2.44644e-13
4.45639e-13
9.80122e-15
5.03992e-14
7.35051e-14
4.69751e-14
4.43823e-15
6.37982e-13
1.11885e-13
5.30097e-14
5.22607e-14
4.45628e-13
5.35636e-14
8.51777e-15
3.39089e-13
4.77065e-14
8.94896e-14
6.1129e-14
3.19037e-12
3.14289e-13
3.61511e-14
1.79551e-14
1.54447e-14
3.93047e-15
1.75848e-15
2.07545e-13
2.40054e-13
5.53283e-13
5.89408e-14
8.37292e-14
5.61021e-14
7.83656e-13
2.72611e-13
1.65063e-13
1.08052e-13
6.3086e-13
5.55415e-14
8.19822e-14
7.48337e-14
1.67799e-14
1.82868e-13
1.86919e-14
1.74782e-15
4.03593e-13
6.16676e-14
6.05374e-15
2.37746e-13
7.51649e-14
2.23717e-13
1.66088e-06
1.61024e-14
6.43727e-14
4.29314e-15
1.29212e-15
8.68215e-14
1.93969e-13
3.75361e-14
4.44926e-12
1.42615e-14
5.84191e-14
2.84957e-13
3.24202e-13
2.98129e-13
2.08078e-13
3.40467e-15
1.32311e-13
7.75466e-14
8.61855e-13
1.92794e-14
3.50226e-14
3.07968e-14
1.72978e-13
3.51254e-15
6.28495e-15
1.28118e-15
1.11032e-14
4.32808e-07
3.42056e-15
1.2084e-13
9.80383e-15
1.19971e-12
2.43388e-14
2.07008e-14
4.03488e-14
1.96094e-14
4.58314e-14
6.05765e-14
7.34806e-14
1.38241e-13
1.65099e-13
6.10285e-14
5.09032e-14
7.31569e-14
1.5048e-14
8.21939e-14
9.91955e-13
5.82245e-13
1.46406e-14
7.89398e-14
8.34135e-14
6.65257e-14
2.32821e-14
6.93561e-13
2.12731e-13
9.03832e-14
0.000217116
5.07822e-14
4.73832e-14
5.2819e-14
1.80393e-14
1.09058e-13
2.33048e-13
3.68212e-13
6.3755e-14
4.4238e-15
4.53202e-14
1.45797e-13
3.10109e-14
1.79868e-13
8.79371e-08
2.06137e-13
5.13497e-14
1.43986e-13
3.72899e-13
5.80021e-07
7.09277e-14
3.70084e-14
5.51249e-14
2.30855e-13
2.99764e-13
2.46554e-15
1.51534e-14
2.06094e-12
1.72821e-14
7.85412e-14
6.35488e-13
3.64853e-14
1.48282e-13
9.36713e-14
1.25466e-12
2.50571e-13
1.03412e-12
2.49868e-13
4.73508e-14
3.10444e-14
2.78824e-13
8.83797e-15
1.59816e-14
1.5086e-14
8.66438e-15
2.50352e-13
2.29587e-13
6.95265e-14
3.20966e-13
7.00242e-13
3.31047e-14
2.17312e-13
2.13082e-14
1.12024e-13
5.07645e-13
9.75974e-14
1.72542e-12
1.25991e-12
2.18261e-14
1.3451e-14
5.72953e-13
1.99767e-13
2.11594e-13
5.29741e-15
4.63366e-13
3.77396e-14
3.09436e-15
6.52765e-14
2.65396e-14
5.46698e-13
6.5359e-16
2.7607e-13
1.76507e-14
1.04999e-13
2.30639e-14
1.31436e-13
1.71662e-13
7.2767e-14
1.06842e-14
1.72725e-13
8.15057e-14
1.05261e-14
7.46023e-13
1.12098e-13
1.79465e-13
2.39661e-14
5.01131e-14
6.10439e-14
1.17579e-14
1.00373e-15
3.18157e-14
1.15687e-13
9.53727e-14
1.86012e-13
5.80753e-14
2.0896e-13
6.80831e-13
2.90549e-13
1.1732e-13
2.82066e-14
1.19622e-14
1.97936e-13
2.59859e-13
3.14481e-13
4.84115e-14
3.96836e-14
4.42366e-13
5.13894e-14
9.88334e-13
1.20239e-13
3.08843e-13
6.66281e-14
3.21595e-14
1.78424e-14
4.35162e-14
1.22214e-13
5.43965e-14
8.2479e-07
3.30479e-13
1.23773e-13
1.15779e-12
7.68977e-14
7.30672e-14
3.53222e-13
4.07499e-13
2.57194e-13
1.97401e-14
1.66014e-13
3.38091e-14
7.40439e-14
1.57457e-14
4.61993e-15
2.2625e-13
1.36679e-12
4.87921e-13
2.85234e-13
7.40399e-15
9.04634e-13
8.47014e-13
5.1977e-14
3.19566e-15
2.06641e-13
1.51868e-12
3.44369e-13
2.4609e-14
9.50371e-14
2.35643e-14
8.58458e-14
4.23315e-14
8.9021e-13
1.35621e-13
2.3721e-13
4.09029e-13
1.69906e-13
4.60848e-15
1.97826e-13
1.42033e-13
1.25682e-12
4.26376e-13
8.42356e-13
3.83278e-14
2.10758e-13
3.47514e-13
7.53113e-14
2.95381e-14
1.09184e-12
7.02505e-14
5.70097e-13
1.60914e-13
3.09309e-13
4.53174e-14
2.15038e-12
2.24331e-12
5.30214e-12
3.21003e-13
9.29734e-15
3.4662e-13
4.33087e-13
1.60504e-13
2.23949e-14
2.31601e-13
1.22916e-14
6.45345e-13
2.30218e-13
2.85536e-13
4.15207e-13
1.1714e-14
1.29452e-13
1.23338e-15
3.30796e-13
9.01421e-14
6.27888e-13
1.75781e-13
2.5378e-14
1.19009e-13
9.4593e-14
1.20785e-14
5.38657e-14
4.72057e-15
1.07911e-13
7.98143e-13
3.37065e-13
6.54545e-13
5.08712e-15
1.29158e-13
5.79607e-13
2.48709e-09
7.348e-13
6.72152e-14
2.49952e-15
1.05214e-13
1.41801e-12
3.06177e-13
5.70241e-15
1.49107e-13
1.18249e-13
4.54275e-14
1.89454e-06
9.70348e-14
5.61414e-13
4.94111e-13
2.33359e-14
1.52665e-13
3.67513e-13
5.12355e-12
3.21596e-13
6.45681e-14
1.45293e-14
1.60142e-12
2.15235e-14
1.58584e-14
8.15675e-14
4.34456e-14
2.45061e-13
3.95095e-14
9.13309e-14
4.48711e-14
7.1375e-14
1.95384e-14
3.95007e-13
1.25525e-14
4.08371e-14
2.57704e-13
2.78468e-13
1.28672e-13
3.06709e-14
2.52977e-15
5.0675e-14
8.41346e-14
9.37556e-14
1.20803e-13
1.41048e-13
2.25543e-14
1.62096e-14
1.44243e-13
7.54604e-13
3.47043e-13
1.56253e-13
9.90754e-16
6.19469e-14
6.28395e-14
1.20948e-13
6.69412e-16
4.17417e-13
1.08557e-14
1.31875e-14
2.66798e-13
1.34493e-14
3.43824e-13
1.50856e-13
6.02793e-13
2.80277e-16
2.63894e-13
1.64514e-13
1.2238e-14
7.26332e-13
5.85949e-13
1.95863e-13
6.82012e-14
4.97492e-14
1.93013e-14
9.40824e-15
5.9227e-14
8.90031e-14
3.76185e-13
9.03838e-14
2.45473e-14
1.26941e-13
6.13013e-14
2.27673e-14
8.22589e-15
1.53563e-13
3.59352e-13
4.23241e-13
3.13244e-14
2.93289e-13
6.06071e-14
6.04226e-14
2.14309e-12
7.68052e-15
4.73093e-13
4.36492e-13
2.53732e-14
4.33136e-14
8.74098e-15
9.71609e-13
1.08051e-13
5.83901e-13
2.06687e-13
3.36549e-13
8.84503e-14
7.50057e-14
8.7904e-14
6.20576e-16
1.39423e-13
1.45087e-13
3.76364e-14
1.66999e-14
9.85657e-15
1.13096e-12
2.5088e-13
1.90728e-14
0.000290771
1.03016e-13
2.2632e-14
6.97868e-15
6.61759e-14
1.48462e-14
2.2902e-14
2.81955e-13
2.53771e-12
1.64819e-13
6.88647e-14
2.72754e-13
9.97811e-14
1.53131e-13
7.21559e-14
4.2977e-13
2.78382e-13
2.31035e-13
6.94049e-13
2.34606e-14
2.36789e-13
3.57677e-13
1.04728e-13
1.17833e-13
3.95649e-13
8.10274e-13
3.52895e-14
3.57351e-13
3.05533e-13
3.92155e-14
3.98885e-14
1.94973e-13
2.06185e-14
3.01324e-14
4.9024e-13
9.05295e-14
9.58937e-14
2.96173e-14
7.12604e-14
1.01374e-13
4.86794e-13
3.34266e-14
2.26179e-14
8.10336e-13
8.6648e-14
8.29379e-14
6.31692e-13
2.99422e-13
1.8105e-13
1.67811e-13
7.46978e-12
3.10558e-14
1.01019e-13
1.92001e-14
3.56269e-13
8.08596e-13
1.71351e-13
4.08139e-13
8.86272e-15
1.60336e-14
1.8229e-13
2.18889e-13
1.22728e-13
4.0359e-14
2.30857e-14
8.83425e-14
3.52627e-14
3.95605e-15
2.5067e-14
1.91865e-14
2.78266e-14
1.03978e-13
8.88901e-15
4.77518e-15
1.49684e-14
2.4487e-14
1.31267e-14
3.57412e-14
4.02364e-13
9.89935e-14
3.3235e-13
3.71979e-13
3.40546e-13
6.17066e-14
4.69522e-14
3.57926e-14
2.43098e-14
8.20671e-14
1.17668e-05
1.09737e-13
9.7731e-13
1.00081e-13
7.17233e-13
6.79795e-14
2.69448e-14
9.9774e-15
1.08484e-12
4.80077e-13
1.68011e-14
9.20086e-15
0.000199762
4.48915e-13
1.46482e-14
2.91923e-14
8.84408e-13
4.58704e-14
7.9823e-13
4.30305e-13
2.29723e-13
1.09839e-13
5.28728e-13
4.35974e-15
3.22837e-13
4.13134e-13
7.42006e-13
2.5508e-13
2.67644e-14
1.33813e-14
6.87055e-14
3.11307e-13
2.74464e-14
1.69605e-13
2.10402e-13
2.0261e-14
2.31024e-14
7.67779e-14
2.19813e-14
9.04396e-15
1.28527e-14
8.36473e-14
3.72833e-13
2.09951e-13
2.91133e-13
1.18753e-14
4.08188e-14
2.94035e-13
2.29881e-13
1.40552e-13
5.48763e-13
1.69161e-13
1.05186e-13
1.19848e-13
1.90652e-13
4.8217e-15
5.95913e-13
3.08922e-14
6.13936e-14
1.18511e-13
1.45471e-14
1.08205e-13
9.02213e-14
4.20895e-13
5.57456e-15
1.11307e-14
1.656e-14
1.02434e-13
2.29784e-14
2.38474e-13
5.28636e-13
1.285e-13
1.21177e-12
3.12614e-14
5.44798e-14
1.42528e-14
8.13252e-14
1.95182e-14
2.10666e-14
1.07204e-12
9.78655e-14
9.49416e-15
2.34649e-14
2.04394e-13
1.53204e-14
9.4309e-15
8.72571e-15
3.04479e-14
2.88382e-14
4.46874e-14
5.43303e-13
6.31057e-13
5.78453e-14
3.18875e-14
1.15887e-14
2.13212e-14
3.39959e-08
1.32576e-13
7.1268e-14
2.27768e-14
7.84589e-14
5.35118e-13
5.69854e-13
9.59689e-13
8.23249e-14
5.18359e-14
4.26621e-13
6.65982e-14
1.6966e-14
7.61389e-13
6.73192e-14
1.13973e-13
7.79215e-13
1.77012e-14
4.47287e-15
3.7936e-14
1.12428e-14
1.41743e-13
1.11563e-13
8.14613e-14
3.71887e-14
2.5884e-15
1.7234e-13
7.53514e-14
4.35793e-13
1.57672e-14
2.24284e-14
1.00171e-14
1.43572e-13
7.66633e-15
6.3678e-14
5.91785e-15
1.3708e-14
4.23385e-13
3.52144e-14
1.33609e-13
2.17518e-14
2.73316e-14
3.21068e-14
1.05448e-14
2.92906e-14
2.26616e-14
1.86791e-14
3.08178e-13
3.31446e-13
4.4043e-13
1.56439e-12
4.10203e-13
3.17206e-13
1.64238e-13
2.73226e-14
3.92486e-14
4.12969e-14
1.74744e-14
7.08462e-14
1.80727e-14
2.80845e-13
2.46048e-14
2.48096e-13
1.76054e-13
3.01225e-14
5.63545e-15
3.60449e-14
1.16412e-13
1.1603e-14
1.06505e-12
8.51648e-15
1.97168e-13
6.20303e-13
3.11112e-15
1.2228e-13
2.51733e-13
1.78931e-14
1.86266e-13
5.32279e-14
1.23201e-14
2.6931e-13
1.2401e-14
1.59195e-13
1.91814e-14
1.85653e-13
6.43004e-14
3.65094e-13
9.16103e-15
3.29859e-13
6.60788e-14
2.07391e-15
1.50068e-13
1.15922e-14
1.57399e-13
2.77746e-13
4.82405e-14
2.51549e-13
7.84217e-15
2.7804e-15
5.53234e-14
5.19553e-14
3.92142e-15
3.14828e-14
1.50576e-14
7.18335e-14
7.36569e-14
6.17362e-15
1.55312e-15
2.33861e-11
1.41483e-13
6.09362e-15
1.17478e-14
4.11542e-14
1.99398e-13
1.08944e-13
1.48353e-13
6.86346e-14
3.08269e-14
4.27046e-14
1.44295e-14
2.23756e-14
5.47922e-13
7.40587e-14
1.89804e-14
1.22272e-14
9.62369e-15
1.03469e-13
3.93299e-15
1.0865e-14
1.96016e-09
1.74249e-15
4.65059e-14
5.25153e-14
5.57977e-13
3.20832e-14
6.52818e-13
1.33054e-13
2.97708e-13
2.17651e-13
3.46663e-15
9.68816e-15
4.42827e-13
5.49971e-14
6.97558e-14
2.22807e-14
1.29505e-14
2.30601e-13
5.82936e-14
8.42101e-13
5.53815e-14
2.25302e-13
1.17395e-14
4.98565e-15
1.55881e-13
3.22117e-13
1.89593e-13
4.43676e-14
8.81914e-14
2.10347e-14
2.88001e-14
9.09513e-15
5.2352e-14
5.619e-15
2.63275e-13
7.21012e-14
4.93369e-15
4.5966e-13
2.26132e-14
2.28622e-08
5.08054e-14
6.60452e-15
8.29722e-14
7.91925e-14
8.60712e-15
2.42529e-14
1.44846e-12
2.17416e-14
2.68096e-14
1.63071e-13
5.11495e-15
4.49169e-14
6.20114e-14
3.56187e-13
1.22063e-14
1.7881e-14
9.98409e-14
2.91867e-14
3.16384e-13
6.98375e-14
8.34483e-14
1.6674e-14
1.96686e-14
5.13737e-14
2.6157e-13
1.1309e-13
6.49668e-14
3.81736e-14
7.69555e-14
9.12977e-15
0.000286797
6.03239e-14
1.41295e-13
1.46493e-14
3.64599e-14
1.71844e-15
1.05855e-13
3.77238e-14
3.91683e-12
4.21164e-14
2.14841e-13
7.10819e-14
1.13219e-14
8.6461e-14
1.02811e-13
1.25662e-13
3.3393e-13
3.30049e-14
4.64232e-13
0.000285113
9.61466e-14
2.85975e-14
5.74812e-12
1.14611e-13
1.00277e-13
7.08825e-14
5.82054e-15
8.85376e-14
0.000237826
2.56513e-13
8.08421e-14
7.94776e-15
1.19778e-13
2.43588e-13
4.78893e-14
2.29074e-14
4.18576e-15
1.03649e-13
1.45938e-12
2.73208e-14
1.54563e-13
5.07793e-14
2.55142e-13
6.62367e-13
2.82702e-14
1.19646e-14
2.97207e-13
1.50775e-13
5.37589e-13
1.60365e-13
5.57973e-13
2.07134e-12
1.7607e-13
8.07904e-14
1.15797e-13
7.93185e-14
2.65566e-15
1.96489e-13
4.84255e-13
5.13623e-14
8.03664e-14
6.0892e-14
2.16522e-14
8.89855e-16
4.9441e-15
5.13334e-14
2.18074e-13
1.98216e-14
2.12911e-14
1.83752e-13
1.02899e-13
1.61511e-13
1.98214e-13
3.56564e-15
9.2026e-14
5.19061e-15
1.34405e-14
1.02496e-13
6.58856e-15
4.86398e-13
1.23979e-13
3.65351e-13
4.65838e-14
1.1673e-13
1.99769e-14
1.47367e-14
3.87757e-13
5.1851e-16
1.47577e-13
2.57809e-07
3.70467e-13
6.33807e-13
7.39355e-14
1.99189e-14
1.03308e-13
2.19968e-14
4.68735e-13
1.3921e-13
8.40168e-14
1.3414e-14
5.29778e-13
4.08108e-13
1.36507e-14
1.53804e-14
1.12684e-13
1.29644e-13
8.23431e-15
3.03077e-14
1.30797e-14
1.7695e-13
3.01443e-13
2.84034e-13
3.7753e-13
0.000105017
4.21098e-14
1.50995e-13
1.10258e-12
3.14297e-13
1.98833e-14
8.67352e-13
2.42728e-13
3.3438e-13
7.35834e-13
3.2452e-14
5.81871e-14
1.10024e-13
1.02875e-13
3.9327e-12
3.42485e-14
1.31383e-13
8.09796e-14
1.30503e-15
1.8923e-13
3.15042e-15
2.11453e-13
8.09935e-13
3.82802e-13
1.8526e-15
7.45758e-06
9.08877e-15
1.48116e-13
4.37662e-14
1.06439e-12
4.06274e-12
1.14606e-12
2.12382e-13
1.02759e-13
1.22627e-14
3.57887e-13
3.01464e-12
1.33564e-12
2.01316e-13
2.02551e-13
1.18325e-15
2.3929e-14
1.305e-13
5.87074e-14
5.93115e-16
7.65226e-14
3.70323e-13
1.3943e-14
2.79032e-13
1.42616e-12
6.0759e-15
2.96361e-15
4.15138e-13
6.32366e-13
5.41727e-14
1.65846e-05
1.76498e-15
1.76161e-13
1.38234e-12
1.67317e-14
5.35249e-14
2.78739e-13
5.60281e-15
7.00343e-14
5.68345e-13
1.23019e-13
5.1429e-13
9.04189e-15
3.68366e-13
2.79058e-13
1.43553e-13
2.40545e-13
2.18401e-13
9.75021e-14
1.05447e-05
1.77191e-13
2.60218e-14
4.29391e-14
1.84878e-15
3.58125e-14
5.06615e-09
1.46726e-13
6.36881e-14
8.9487e-14
9.87724e-14
2.43161e-13
3.94681e-13
2.50977e-13
1.46055e-13
3.52809e-13
6.07095e-10
2.39857e-14
2.3839e-14
3.72255e-14
7.78495e-13
2.23327e-14
2.15651e-13
9.76114e-14
7.11022e-14
8.03407e-15
1.40194e-13
2.01126e-14
1.40832e-13
1.24184e-13
2.94499e-13
2.38681e-07
1.03956e-14
1.61568e-13
6.76021e-13
1.98246e-15
3.37251e-13
1.49179e-13
5.14035e-14
7.14934e-13
1.93091e-13
1.26261e-13
1.47881e-13
4.80792e-14
1.33197e-13
7.52682e-15
8.0961e-15
7.88583e-15
5.48994e-13
1.14276e-14
9.48332e-15
1.13584e-13
7.93674e-14
2.58421e-14
1.80845e-13
7.14268e-14
4.10942e-13
7.59975e-14
9.45863e-14
5.58115e-16
1.79897e-13
2.52744e-12
2.36445e-14
4.75471e-14
2.42666e-13
8.20224e-14
6.47198e-14
1.1096e-13
1.73112e-13
2.03587e-13
2.28818e-14
1.23587e-12
1.40484e-14
2.62684e-14
1.83112e-15
7.48903e-14
1.21434e-13
2.80442e-14
1.12201e-13
3.53563e-14
2.85594e-13
4.40456e-14
3.8723e-14
4.09795e-14
1.25798e-13
3.66242e-14
1.50911e-13
3.4965e-14
7.96945e-14
7.74705e-14
5.18689e-15
8.81989e-14
3.88181e-14
2.28202e-13
1.42898e-13
1.80506e-13
5.01499e-14
2.21293e-14
1.11748e-13
1.21844e-13
8.00476e-15
5.61338e-13
3.95978e-13
3.65784e-14
2.53489e-14
9.24772e-16
8.94727e-14
2.01974e-14
9.18752e-14
6.97134e-14
4.2632e-13
5.03806e-14
1.60711e-14
4.39658e-14
1.51619e-05
3.33684e-14
3.58878e-14
3.97294e-14
2.80452e-13
8.98876e-15
3.44086e-14
8.80015e-15
2.31e-15
4.84093e-14
1.81516e-14
1.56536e-13
1.28314e-13
8.85063e-14
4.56405e-14
1.48746e-14
4.92696e-12
1.16941e-14
2.45357e-13
3.94495e-14
7.88631e-14
1.35678e-13
6.82936e-14
3.37987e-13
8.48012e-14
1.81628e-13
4.87395e-15
5.47141e-13
9.39533e-14
2.70174e-13
7.21722e-13
5.39201e-13
2.78421e-13
5.79573e-14
3.8191e-14
8.68161e-13
6.07848e-08
1.12908e-14
2.70944e-14
1.50183e-13
1.08922e-13
1.82003e-12
5.61042e-13
1.86582e-13
4.27127e-15
2.22294e-13
1.49771e-14
1.90445e-13
4.27628e-14
7.46771e-13
4.43804e-14
9.57137e-14
5.77682e-14
2.17615e-13
3.03686e-14
1.3175e-13
3.39493e-14
6.42065e-15
3.71481e-13
5.35566e-14
1.65252e-14
4.09061e-13
1.13532e-14
8.49591e-14
7.28358e-12
3.09486e-13
4.03793e-13
9.92147e-14
4.16273e-14
1.50506e-13
7.76589e-14
7.341e-15
9.58175e-13
9.70196e-15
1.34482e-13
2.67551e-12
4.08357e-14
1.37776e-13
9.52444e-15
2.00598e-14
2.32521e-14
3.12804e-14
2.24832e-14
6.26319e-13
6.1377e-13
1.13213e-13
7.00086e-14
6.21027e-15
5.35646e-14
1.9349e-13
1.52345e-13
3.33089e-13
3.13067e-14
9.81262e-14
1.81738e-14
6.01309e-14
6.91002e-14
1.31102e-14
6.75144e-14
3.4777e-13
1.53373e-14
4.8783e-14
2.41049e-12
1.73115e-14
2.38046e-14
3.3012e-13
3.67798e-13
2.42283e-13
1.21088e-15
4.49595e-13
3.04546e-13
1.74932e-14
4.04844e-14
6.33597e-14
2.56538e-14
3.03779e-14
8.99795e-14
4.19263e-14
3.42798e-14
6.05936e-14
5.56743e-14
1.83792e-14
9.15861e-14
4.32086e-14
9.39423e-14
2.04388e-14
6.00461e-14
2.34644e-15
3.10751e-14
1.90829e-15
1.3496e-14
8.11925e-15
6.91751e-15
2.42011e-14
4.10033e-14
4.4721e-15
4.88344e-15
4.35427e-14
5.65494e-14
6.25887e-14
1.60728e-13
4.7112e-14
6.95349e-13
6.30952e-14
3.30322e-14
3.81712e-14
1.61138e-13
1.46304e-14
2.38805e-14
1.87001e-13
1.49936e-13
0.000310668
2.76677e-13
1.73322e-14
4.32228e-14
1.01802e-13
2.38827e-13
3.14614e-14
3.84187e-13
4.66822e-12
2.31661e-13
4.87569e-14
1.23229e-14
6.55277e-14
3.48298e-15
2.20844e-14
6.33309e-14
5.7994e-14
3.0378e-14
1.01855e-13
4.10008e-13
2.09219e-13
6.33417e-15
1.00026e-13
3.79714e-13
2.39978e-13
3.81208e-07
5.49703e-05
5.0476e-13
1.99949e-14
2.22437e-13
1.02065e-14
4.429e-15
4.26232e-14
8.04957e-15
5.75802e-14
1.168e-13
1.00262e-13
8.0273e-14
5.31052e-14
1.19942e-13
4.93875e-15
2.2591e-13
3.84536e-14
6.94212e-14
1.07689e-13
7.18576e-14
4.46762e-13
1.14957e-13
1.1419e-13
3.51054e-15
5.39361e-14
1.19243e-14
6.91464e-14
1.34054e-13
6.80097e-14
8.783e-15
5.79789e-14
3.97153e-14
5.99944e-14
6.6653e-14
3.24938e-13
6.88218e-13
1.29901e-14
7.77994e-13
1.13576e-13
3.93252e-14
6.88218e-14
9.31896e-15
2.16019e-14
3.28453e-14
2.24186e-13
5.18806e-14
7.35115e-14
1.02158e-13
1.57421e-13
1.63232e-14
2.29227e-14
1.13926e-12
5.98374e-14
2.7939e-14
6.17272e-13
2.73084e-13
3.36839e-14
3.71204e-07
8.20208e-14
2.3272e-14
3.4678e-14
1.55655e-13
1.61613e-05
2.28611e-13
2.58867e-15
2.53857e-14
1.71519e-13
2.64634e-14
3.6125e-13
3.60244e-12
1.19567e-13
1.38975e-13
1.1369e-05
8.74832e-14
4.59857e-14
4.105e-14
9.49068e-14
9.04434e-14
6.39944e-15
2.54621e-13
1.13163e-13
7.08196e-14
5.9941e-15
4.2538e-14
1.54307e-12
3.37105e-14
2.45412e-14
1.80589e-14
5.3523e-14
6.6376e-13
5.16831e-14
1.56503e-13
5.95764e-14
7.51246e-14
2.03232e-13
1.25689e-13
1.3992e-13
1.67999e-14
4.82956e-14
1.16862e-12
2.77173e-07
2.13823e-13
2.30836e-13
3.50402e-13
1.26241e-12
9.45908e-15
6.02799e-14
1.08201e-13
4.24468e-14
2.50144e-14
5.94228e-14
2.60382e-14
1.10262e-15
2.91148e-13
4.99296e-13
1.95956e-13
2.65574e-12
1.36293e-13
8.66682e-14
2.51617e-14
8.82857e-12
4.01489e-15
1.21228e-14
2.70377e-14
8.54146e-14
6.83973e-13
2.41974e-14
2.61454e-13
6.69364e-14
1.16418e-13
1.00434e-12
1.23006e-14
2.82712e-13
1.48654e-13
2.09403e-14
5.71713e-15
9.37748e-15
3.1224e-14
2.96799e-14
2.5549e-13
3.51354e-13
1.45954e-13
4.28611e-15
2.40727e-07
2.09227e-15
2.12363e-15
1.43603e-14
9.80744e-05
5.52052e-08
2.3073e-13
8.21212e-07
4.83379e-14
2.37654e-14
9.50874e-13
4.06205e-13
6.51592e-14
1.97372e-14
6.64141e-13
8.45226e-14
1.04443e-13
3.17011e-14
5.93411e-14
7.21213e-13
3.61368e-13
7.01008e-15
2.57288e-13
1.33431e-13
7.23458e-14
1.54656e-13
8.07355e-14
9.05256e-14
1.6266e-13
2.92668e-13
1.53647e-13
6.27409e-15
1.05168e-13
1.71131e-13
7.56325e-14
2.53071e-13
8.61368e-14
1.97404e-14
5.0173e-14
3.5361e-14
1.26669e-12
8.02159e-15
2.4106e-14
1.56229e-13
4.68294e-13
1.52619e-13
2.24917e-14
1.44393e-13
4.25813e-15
4.51902e-14
2.4405e-13
9.30512e-14
3.41989e-14
6.19103e-13
5.08372e-14
4.35774e-14
2.15552e-13
3.23411e-13
6.62784e-14
4.56012e-14
0.000275978
3.3161e-14
7.7089e-14
1.52546e-06
1.46332e-06
2.59108e-13
7.21168e-15
9.58784e-14
1.37355e-13
4.53301e-13
4.76633e-15
4.95816e-14
3.79499e-14
3.01428e-13
6.33911e-05
5.4733e-13
5.51979e-14
9.83766e-14
9.74898e-15
3.96797e-12
4.91457e-13
9.02845e-15
2.15053e-12
8.94959e-14
2.15124e-13
1.45967e-13
6.31655e-13
8.78715e-15
9.74685e-13
3.37845e-06
5.98475e-13
7.08425e-13
6.548e-13
2.22116e-14
1.17668e-13
5.51618e-15
3.88006e-16
8.51727e-14
1.98513e-14
4.31853e-14
3.92114e-14
6.44123e-14
1.95055e-14
1.11759e-13
5.41048e-14
1.21299e-13
1.8552e-13
3.17986e-14
1.03598e-13
1.38815e-05
1.8862e-14
1.45319e-13
9.76244e-14
8.35588e-14
2.56729e-13
6.33384e-15
1.19874e-14
4.96602e-13
1.28636e-14
2.9566e-12
5.45785e-13
7.11604e-14
3.45255e-14
1.76853e-13
1.59882e-13
8.48838e-15
4.28851e-14
5.8986e-13
4.83245e-14
6.17013e-15
1.72288e-13
1.00689e-16
6.57457e-14
7.45251e-14
3.58816e-14
1.35978e-13
2.28002e-14
3.39804e-13
4.77665e-13
2.19672e-12
3.90085e-15
1.81116e-14
6.08081e-07
5.58539e-13
7.77645e-14
1.29417e-13
7.70377e-14
5.81376e-05
8.57313e-15
4.7995e-16
3.11506e-13
1.20728e-12
5.4301e-06
2.4214e-15
2.53705e-13
1.89229e-13
4.56448e-14
2.61814e-13
3.21935e-13
3.08645e-14
1.85071e-14
1.22536e-13
2.59007e-13
3.66525e-14
1.56359e-14
3.62773e-13
4.64128e-14
8.74535e-14
3.74217e-13
1.86676e-14
2.80389e-14
2.58908e-13
4.44991e-13
3.0214e-13
9.00798e-14
2.34e-13
8.66977e-08
2.40505e-13
0.000240504
4.62829e-13
4.062e-13
2.44549e-14
1.46221e-13
8.11178e-15
1.22805e-13
3.11374e-13
4.26725e-15
2.0171e-13
5.49823e-13
1.26892e-13
1.03795e-13
3.67411e-13
1.00366e-13
1.40759e-12
1.59276e-12
2.49489e-14
1.3488e-13
8.81357e-13
1.17567e-12
3.01492e-14
4.83453e-14
1.16708e-12
1.37939e-12
1.13643e-13
4.52815e-13
3.81011e-14
1.47739e-13
5.01197e-15
3.03404e-13
1.112e-13
4.33021e-14
8.56983e-14
1.50143e-14
8.85489e-14
1.72838e-14
1.46537e-14
5.58475e-15
5.69332e-14
1.67625e-12
1.10274e-13
9.41176e-14
3.42049e-13
3.15188e-13
1.31307e-13
1.00689e-14
6.65249e-14
3.59931e-15
9.5316e-15
2.66176e-14
1.51014e-12
1.08014e-13
1.50021e-13
4.49983e-14
1.72412e-14
1.03666e-13
1.27913e-13
3.82523e-13
3.11692e-12
6.66856e-13
8.22363e-14
1.03362e-13
3.0833e-13
2.22429e-14
3.83082e-13
2.5998e-13
2.71914e-13
2.67967e-14
1.98957e-13
2.1576e-14
2.15385e-13
3.58086e-13
4.00598e-13
1.75335e-14
1.31713e-14
4.999e-14
1.65405e-13
2.99393e-13
1.8919e-13
7.18009e-13
1.14238e-14
2.25409e-13
2.01207e-13
3.41388e-13
2.4628e-13
6.962e-13
1.06294e-13
1.99493e-13
1.11105e-13
9.14516e-14
1.82838e-13
1.40477e-13
4.48937e-13
4.9172e-14
4.42475e-14
2.46704e-13
2.79027e-14
2.25726e-14
0.000772845
3.24036e-14
1.46414e-14
3.67576e-14
4.64283e-13
4.87676e-13
4.90266e-15
5.40604e-14
3.93955e-14
8.22045e-15
1.53266e-14
1.67918e-08
6.57638e-14
1.21614e-14
1.23888e-14
3.24188e-13
3.71653e-13
1.31929e-13
2.99268e-14
3.08748e-13
2.53139e-13
1.27677e-13
6.01143e-15
6.20781e-15
3.86243e-14
1.20506e-13
6.4411e-13
3.79659e-13
1.63959e-13
6.6522e-05
2.76513e-06
1.35572e-07
2.08292e-13
4.97008e-14
1.60865e-13
2.8194e-14
3.7591e-13
7.87798e-14
8.15836e-14
9.84211e-14
2.14727e-13
2.38799e-14
8.74646e-15
9.48028e-14
5.96966e-13
1.84635e-15
6.78499e-14
5.50955e-14
5.69124e-14
9.68075e-14
5.87565e-14
4.73603e-13
2.12752e-13
3.21645e-14
1.08756e-13
3.56752e-13
4.8204e-14
1.24708e-09
6.39987e-14
1.37784e-13
8.88716e-15
9.47133e-14
3.63101e-13
6.77788e-15
2.51276e-13
5.44181e-14
5.21994e-15
2.74599e-13
1.90175e-13
2.34152e-13
1.09937e-13
1.8643e-12
2.66765e-14
3.76608e-14
8.33223e-14
1.32543e-13
8.72708e-14
7.94085e-14
2.44034e-14
2.88105e-13
4.44027e-15
3.29279e-14
1.56565e-14
1.40309e-13
7.52165e-14
1.1391e-14
1.32502e-14
4.25154e-13
4.51061e-06
2.85295e-06
6.79811e-14
3.21167e-15
6.40086e-14
1.86257e-14
4.12483e-13
8.85802e-14
5.02304e-14
2.72922e-14
5.57945e-14
1.92353e-14
2.71502e-14
1.5224e-13
9.86026e-14
3.15617e-13
8.47584e-13
1.45725e-13
2.48273e-14
1.70351e-14
6.64731e-14
2.52368e-15
1.3939e-13
7.83914e-05
2.11503e-14
7.18543e-15
7.80056e-13
1.87497e-13
5.40368e-14
3.96404e-15
4.06304e-13
9.93971e-14
1.81794e-13
2.41885e-14
7.13016e-14
1.71675e-14
5.46087e-14
1.55746e-14
1.10116e-13
2.27814e-13
7.29726e-14
3.68363e-14
6.06753e-14
3.81576e-13
4.82121e-14
1.20725e-13
5.90832e-12
1.11535e-13
4.60566e-13
7.72191e-15
2.2096e-14
1.65703e-14
4.81184e-14
4.30491e-14
1.09339e-13
1.29344e-13
3.22256e-15
2.60479e-14
1.90224e-13
7.66142e-15
1.27561e-13
6.44319e-14
1.10952e-13
9.64931e-15
7.69185e-14
8.2139e-14
3.24586e-14
3.6901e-14
7.81217e-14
4.23397e-13
3.27561e-14
1.49595e-13
9.38185e-14
2.83668e-13
9.41717e-14
8.52722e-15
4.94206e-13
7.24746e-14
1.17169e-13
1.14122e-14
2.13115e-13
1.43004e-05
2.42981e-13
2.36134e-14
4.83938e-13
9.60008e-15
1.68758e-14
5.59275e-15
3.21069e-16
9.0903e-13
6.45273e-14
1.88351e-14
3.06713e-14
8.06552e-14
2.02809e-14
6.13299e-17
1.38082e-13
2.86505e-14
2.52526e-14
1.15945e-13
1.10288e-13
3.34228e-14
6.07699e-14
1.28889e-14
8.0803e-13
0.000101779
1.46632e-13
7.26842e-13
3.02604e-13
1.21437e-15
9.99085e-14
2.37241e-13
4.25878e-13
1.03623e-13
3.94652e-07
1.36963e-14
4.42636e-13
5.49737e-14
1.25654e-11
2.30548e-14
0.000253087
1.50227e-13
1.71921e-13
2.53537e-13