/*--------------------------------*- C++ -*----------------------------------*\
  =========                 |
  \\      /  F ield         | OpenFOAM: The Open Source CFD Toolbox
   \\    /   O peration     | Website:  https://openfoam.org
    \\  /    A nd           | Version:  10
     \\/     M anipulation  |
\*---------------------------------------------------------------------------*/
FoamFile
{
    format      ascii;
    class       volVectorField;
    location    "0.6";
    object      U;
}
// * * * * * * * * * * * * * * * * * * * * * * * * * * * * * * * * * * * * * //

dimensions      [0 1 -1 0 0 0 0];

internalField   nonuniform List<vector> 
111485
(
(0.369148 -0.360651 0.0145373)
(0.973993 -0.00796119 -0.0201225)
(0.987325 0.0162977 0.00840825)
(0.338727 -0.360836 0.0122385)
(0.991801 -0.00814013 -0.000886521)
(0.355696 0.34472 0.00526976)
(0.98031 0.00632988 -0.0213719)
(1.01423 0.00443782 -0.00170424)
(0.976407 0.000589925 0.00604376)
(0.987908 0.00651718 0.0178562)
(1.01967 -0.0102795 0.0129326)
(0.99622 -0.00344459 -0.00125556)
(1.00055 0.00832647 0.0239162)
(0.963425 -0.0246493 -0.0118509)
(1.00095 -0.00621838 0.0127983)
(0.979531 0.0104551 -0.0173634)
(0.991113 0.0297459 0.0347143)
(0.357888 -0.0128643 0.0628121)
(1.00182 0.00915724 0.00387607)
(0.345444 -0.335852 0.0028172)
(0.357337 -0.347829 0.0300174)
(0.34522 0.353463 0.0196365)
(0.9904 0.00639631 -0.00304438)
(0.984719 -0.0113594 -0.000781482)
(0.985581 -0.00936679 -0.0147718)
(0.329996 -0.365513 -0.0131229)
(1.00494 0.00929031 0.00655654)
(1.00008 -0.00595762 -0.0323275)
(1.00202 -0.00424085 0.0155612)
(0.347001 -0.363172 0.0297486)
(0.980428 0.00496758 -0.0201681)
(0.980618 0.00426572 0.016099)
(0.352129 -0.350674 0.00294315)
(0.370443 0.337777 0.0240946)
(0.375962 0.155048 0.0666273)
(0.338856 0.358922 -0.0215717)
(1.00475 -0.0153364 -0.00120469)
(0.997361 0.00844229 -0.009964)
(1.01324 0.313398 0.020297)
(0.991289 -0.0029763 0.0164703)
(0.332769 0.337674 -0.0461977)
(0.993567 0.0127322 -0.0243128)
(1.00608 0.0116026 0.00476358)
(0.97975 0.0194391 -0.00204783)
(1.01343 -0.00947229 -0.014562)
(0.358217 -0.373596 -0.0399646)
(0.996496 -0.00789026 0.0104894)
(0.99732 -0.00295945 0.00274809)
(0.983977 -0.0183603 -0.0287005)
(0.340577 -0.336202 -0.0122826)
(0.374995 -0.38604 -0.00707041)
(0.406363 0.331814 0.0132328)
(0.372336 -0.380638 0.00784955)
(1.0044 0.0226855 0.00506665)
(0.358066 -0.354712 0.00141517)
(0.997441 0.00642171 -0.0211415)
(0.989074 0.000453331 0.011736)
(0.320946 0.39102 0.0243624)
(1.00355 -0.01791 -0.00305886)
(0.983237 -0.0017218 -0.00595403)
(0.990136 0.000889513 -0.0106442)
(0.360611 -0.375335 -0.0106449)
(1.00789 -0.0215947 -0.0165156)
(0.986267 0.00391573 -0.00733974)
(0.372763 0.329687 -0.00881029)
(0.990008 -0.00554496 0.00413717)
(0.715019 -0.0894737 0.00116832)
(0.973367 0.0234042 0.0027281)
(0.981304 -0.00611551 -0.00972867)
(1.0008 -0.0103704 -0.00755314)
(1.01292 0.00460089 0.00695804)
(0.975853 -0.00632014 0.020049)
(0.3711 -0.357419 0.00653785)
(0.996215 -0.0271848 -0.023413)
(0.339102 -0.361029 -0.0112749)
(1.00833 0.000468314 0.0196557)
(0.336865 0.327941 -0.0138125)
(0.993334 -0.0037612 -0.0117762)
(0.337823 0.367053 0.00597825)
(0.321202 0.291516 0.00455308)
(0.992518 0.00479804 0.0113355)
(0.989422 0.00375297 0.000967548)
(0.345733 0.362092 -0.0184942)
(0.363034 -0.350204 -0.00910681)
(1.00654 -0.00798932 0.0040499)
(1.01029 0.0174004 -0.000276632)
(0.826515 0.503717 -0.152716)
(1.00004 -0.00219059 -0.00705261)
(1.00331 0.0214727 -0.0174708)
(0.991659 -0.0309168 -0.00414197)
(0.97618 -0.00205437 0.0016137)
(0.981339 0.0089423 -0.010582)
(1.00972 -0.0102344 -0.0264355)
(0.997749 0.0153308 0.0133517)
(0.977604 -0.0120167 0.0169197)
(0.351826 -0.336361 -0.00284271)
(0.355348 -0.329386 0.00134609)
(0.993594 -0.000184405 -0.0149585)
(1.05944 -0.185236 0.0086432)
(1.00512 0.00958854 -0.0101848)
(0.353183 -0.349488 0.0178802)
(1.00125 0.0193979 -0.0321548)
(0.361264 0.38286 -0.00107951)
(1.00708 0.00576576 -0.00327555)
(0.994966 0.0274898 0.0109227)
(0.344489 0.29549 -0.0195464)
(0.35616 0.346712 -0.00544909)
(0.974771 -0.0109991 0.000958438)
(1.02708 -0.00289532 -0.0118507)
(0.990483 -0.00641387 0.0211283)
(0.992262 0.00904764 0.0144874)
(0.985024 0.0037956 0.00217338)
(0.998022 -0.0192377 -9.38267e-05)
(0.978381 0.010068 0.0191658)
(0.35983 -0.372992 0.00360865)
(1.00501 0.00392441 -0.00257276)
(0.353716 -0.355933 -0.013588)
(0.348303 0.35792 0.0159147)
(0.991899 -0.00426625 -0.00404832)
(0.367784 -0.369797 -0.0129597)
(0.333043 -0.359702 -0.000571416)
(0.471093 0.363992 0.0179441)
(0.299865 0.318671 -0.00520933)
(0.360083 0.344032 0.000872494)
(0.993073 0.0159421 0.00375498)
(0.273093 -0.251744 -0.0715854)
(0.459449 0.379494 0.000951142)
(0.990172 -0.00126212 -0.0116358)
(0.377526 -0.352315 -0.0276019)
(1.01556 0.0514813 -0.0174043)
(0.976921 -0.000820518 -0.0294196)
(0.994966 -0.0209712 0.000310287)
(0.328252 -0.289005 -0.00432956)
(0.451149 0.410468 0.0590664)
(0.426584 0.385642 0.0106773)
(1.00294 0.0131919 -0.00716476)
(0.385734 0.348943 -0.0188855)
(0.983957 0.00815693 -0.0177814)
(1.00008 0.00500486 -0.00424966)
(0.996949 -0.00374212 -0.0286057)
(0.98302 0.0127204 0.00996073)
(1.0038 -0.0107368 0.00222045)
(0.987723 0.00868585 -0.000589951)
(0.985799 -0.0211346 0.0121633)
(0.992092 0.0241451 0.0165532)
(0.982924 -0.00395048 -0.00858048)
(0.343112 0.325601 -0.000763368)
(0.353632 -0.366032 0.00995812)
(0.341689 0.3433 0.00465507)
(0.998932 0.00475341 0.00887801)
(0.984193 -0.0244032 0.00920914)
(0.347581 -0.341154 -0.00702292)
(0.967057 0.0563012 0.000242047)
(0.98142 -0.0258479 -0.00675019)
(1.0413 -0.0118275 0.0219527)
(1.00094 0.0151439 -0.00564172)
(0.982199 -0.0177057 0.0151035)
(0.973394 0.00571601 0.0143104)
(1.02049 -0.0334482 -0.0229581)
(0.35788 -0.351493 0.0136462)
(0.352301 -0.349682 -0.00964518)
(0.979608 0.0104925 -0.00711621)
(0.957652 -0.0208924 -0.0010822)
(1.01935 -0.00271123 -0.00407036)
(1.05245 -0.000112969 0.0125036)
(0.977381 -0.0340689 -0.00603669)
(0.995288 -0.00175452 0.0115554)
(0.343866 0.337735 -0.00277526)
(1.03287 0.0105334 -0.000822072)
(1.01499 -0.00463398 0.0187316)
(0.354082 0.331376 0.025101)
(0.352396 -0.339997 0.0068642)
(0.964425 0.00609426 0.0118497)
(0.361907 0.355191 0.0194224)
(0.992824 -0.0130078 -0.00770825)
(1.01055 -0.0042971 -0.00212468)
(0.352545 0.342107 -0.0100875)
(0.369778 -0.345167 0.00847304)
(0.345378 -0.367759 -0.000887275)
(0.348479 0.330058 -0.00396993)
(0.373601 -0.329866 0.0309632)
(0.350948 -0.367533 0.000466904)
(1.01294 -0.00664771 -0.00454834)
(0.984601 0.0083463 0.00281711)
(0.978032 0.0105237 0.00886491)
(0.993025 0.0210292 -0.0264034)
(0.998372 -0.00435455 0.00618936)
(0.983899 0.00861692 -0.0102206)
(1.00119 -0.00470978 0.00241761)
(0.345698 -0.362716 -0.00875629)
(0.983429 -0.0236468 -0.00117303)
(0.382092 -0.336061 0.00653377)
(0.337422 -0.342084 0.0159354)
(0.973481 0.00259126 0.00403111)
(0.9842 -0.000988125 0.0135946)
(1.00586 0.0140369 -0.00436192)
(0.986277 0.0107743 -0.0178108)
(0.976652 0.0299621 0.0120727)
(0.338107 -0.321834 0.0142736)
(1.00147 -0.0033371 0.0224675)
(0.99249 -0.00776826 0.0195035)
(0.674073 0.188009 0.0363812)
(0.993344 0.0182963 0.00876761)
(0.998518 0.00526354 0.0134961)
(0.344364 -0.37272 -0.0145574)
(0.994794 -0.00931719 -0.00574614)
(0.988866 0.0231703 -0.0154058)
(0.373976 -0.343784 -0.0124733)
(1.002 -0.0107564 -0.00544374)
(1.00271 0.00503439 -0.0219642)
(0.985693 -0.0200825 0.0157185)
(0.985193 0.00466124 -0.0189376)
(0.385204 -0.354083 0.0174069)
(0.337571 -0.344212 -0.0173132)
(0.983713 -0.00731117 0.000781908)
(0.630857 0.373887 -0.0210369)
(0.9837 0.0117333 0.00738502)
(0.346903 0.346835 -0.0052612)
(0.993923 0.00132167 -0.00653726)
(0.96582 0.000967991 -0.019073)
(0.995191 0.023455 -0.00541848)
(0.356535 -0.332951 0.0200382)
(0.993365 -0.000820602 -0.00997781)
(1.00035 -0.0311562 -0.00653711)
(0.51207 0.36142 -0.0392123)
(0.359437 0.344359 -0.00553818)
(0.352229 0.344197 0.0242973)
(0.996504 0.00930609 -0.00199109)
(0.980908 -0.045658 0.0226163)
(0.33473 0.324417 -0.0158122)
(0.434226 -0.351367 0.00466494)
(0.956677 -0.012018 -0.019696)
(0.993257 -0.0141482 0.00239136)
(1.00229 0.00316678 0.00899863)
(0.369288 0.298331 0.00133057)
(0.377482 -0.350429 -0.0121418)
(0.991985 -0.0119427 0.0374434)
(0.349509 -0.349982 0.00900351)
(1.01412 0.000971728 0.00258776)
(0.996254 0.00212025 0.00550108)
(0.982966 -0.00108065 -0.00900509)
(0.996231 -0.0012614 0.00456252)
(0.993964 -0.0079009 0.00824642)
(0.354011 0.351279 0.0243071)
(0.982746 0.0257319 0.00809947)
(0.999205 0.0114303 0.00210341)
(0.353753 0.354363 -0.0316876)
(0.34207 0.363839 -0.0214718)
(0.995928 -0.0032376 0.00276711)
(0.96809 0.00406139 0.00514198)
(0.335493 0.311702 -0.0187672)
(0.996817 -0.014047 0.0102965)
(0.983483 0.00882357 0.00436441)
(0.349321 -0.354295 -0.00369287)
(0.433937 0.427204 -0.00775536)
(0.989386 0.0089612 -0.00914085)
(0.349258 -0.353065 -0.0211453)
(0.364908 -0.281157 -0.0614963)
(0.508472 -0.209475 -0.00965819)
(0.36266 -0.357806 -0.0148768)
(1.00633 -0.00578513 -0.00267049)
(0.950948 -0.000958491 -0.0108203)
(0.992163 0.000353421 -0.010389)
(0.360311 -0.351069 -0.0108367)
(1.00888 -0.0222503 0.019158)
(0.366365 -0.364874 -0.0207783)
(0.358757 -0.361638 0.012401)
(0.354659 -0.351522 0.00669738)
(0.969091 -0.00216143 -0.0155658)
(0.981692 -0.0113523 -0.0147702)
(0.984502 0.0161224 0.0100661)
(0.991568 0.00314256 -0.00566071)
(0.997194 0.00533626 -0.0250719)
(0.997958 0.0105292 -0.0120049)
(1.00502 0.00366043 -0.00759439)
(1.00143 0.00332292 0.0151365)
(0.973484 0.0112532 -0.0152257)
(1.00501 -0.0129397 -0.00128581)
(0.356769 0.354308 0.014665)
(0.325737 -0.359112 0.015258)
(0.970927 0.00678205 0.00128394)
(1.00428 0.00369464 0.0125473)
(0.997166 0.01163 0.0193043)
(0.999066 -0.0107574 -0.00754153)
(0.338578 -0.34642 0.0314575)
(0.978955 0.0156757 -0.00665003)
(0.968884 0.0142198 -0.0112057)
(0.997558 0.00457615 0.000822246)
(0.969009 0.00727879 0.00724608)
(0.996152 -0.00516363 -0.00487902)
(0.989664 0.00607205 0.000879792)
(0.998815 0.00883787 0.000640328)
(0.993085 -0.00358294 0.00516677)
(0.340604 0.348644 0.0355074)
(0.999897 -0.00210582 0.00821879)
(0.347569 0.35294 0.00777661)
(0.298665 0.212461 -0.0481278)
(0.403007 -0.267281 0.0025434)
(1.00648 0.0233103 -0.0101004)
(0.998612 -0.00145999 -0.0133294)
(0.98008 -0.00204947 -0.0125198)
(0.335475 -0.357099 -0.0150153)
(0.350998 0.337699 -0.032518)
(0.986975 -0.000567463 -0.00331011)
(0.96384 -0.00942113 -0.00926903)
(0.359402 -0.356182 -0.0105816)
(0.345831 -0.359167 0.0244641)
(0.348038 -0.331835 -0.00594451)
(1.01111 0.00261563 -0.000834983)
(1.00757 0.00617247 -0.00155684)
(0.997638 0.00165505 -0.000956122)
(1.0073 0.0145095 0.00155274)
(0.99318 0.0172157 -0.00920956)
(0.410095 0.342352 -0.0263386)
(0.35831 0.349279 0.00308023)
(0.352658 -0.350417 0.0032417)
(1.00358 -0.00440188 0.00906176)
(0.717442 -0.580033 -0.0496657)
(0.975784 0.00223454 0.0122022)
(0.985541 0.00311761 -0.000638201)
(0.991838 -0.00633276 0.0256974)
(0.341279 0.38318 0.0139804)
(0.355045 -0.351563 -0.00148443)
(0.311938 -0.31189 -0.00934892)
(0.429988 0.366069 0.0366989)
(0.966118 -0.0208381 -0.00381258)
(1.00431 -0.00788105 -0.000345707)
(0.350428 0.364931 -0.00618852)
(1.00051 -0.000636819 -0.0408937)
(0.359605 0.267622 -0.00460615)
(0.348315 -0.327737 0.0331973)
(0.986265 0.00293364 -0.000657743)
(0.989436 -0.00518005 -0.00336594)
(0.983213 -0.0160019 0.0130829)
(0.997469 0.00950145 -0.050338)
(0.373188 0.31047 0.0230975)
(0.43798 0.374641 0.0456135)
(0.372758 0.342508 -0.00242396)
(0.977935 -0.00583897 0.00880918)
(1.00803 0.0147525 0.0207334)
(1.0146 0.0114915 0.00345294)
(0.374508 0.324481 0.00523956)
(0.687321 0.664196 -0.192446)
(0.988139 0.0046603 0.0173173)
(0.991373 0.00195121 -0.015721)
(0.985902 0.0196103 0.00750891)
(0.938071 0.0491125 0.0172303)
(0.980686 0.0146694 -0.00250182)
(0.367352 0.355306 0.0140434)
(0.995655 -0.00711747 0.0149495)
(1.00304 0.0121173 -0.00785783)
(1.00539 0.00625504 -0.0109191)
(0.980672 -0.00205399 0.00267314)
(0.998691 -0.00395807 -0.0032303)
(0.347131 0.369558 0.0233261)
(0.343972 -0.353262 0.00204532)
(0.350069 0.320892 0.0126863)
(0.369788 -0.352115 -0.0138695)
(0.995124 -0.0129123 0.00558094)
(0.99721 0.000159201 0.00402096)
(0.992583 -0.0148085 -0.0151861)
(0.994956 -0.0158728 0.000635105)
(0.34476 0.364192 0.00807995)
(0.985061 -0.00855576 0.00937194)
(0.336618 0.338019 0.0264876)
(0.359217 -0.378009 -0.00911641)
(0.995289 -0.0077402 -0.00956728)
(0.352597 -0.320311 0.00466179)
(0.58564 -0.116741 -0.0186299)
(0.336674 -0.340626 -0.02236)
(0.316913 0.357216 0.0181224)
(1.01709 0.00328502 -0.0027484)
(0.341313 0.327277 0.00228867)
(1.00429 0.00104861 0.000138229)
(0.997874 0.0109858 -0.00104801)
(0.366751 0.366531 -0.0028944)
(1.00584 -0.00105202 -0.00726801)
(0.977746 0.00939828 -0.0207255)
(0.368157 0.305227 -0.00837021)
(0.996116 0.00153512 0.01458)
(0.986876 -0.0143897 -0.0130963)
(0.981708 -0.0161925 0.0105742)
(0.978021 -0.0188856 0.00241989)
(0.995742 -0.0013532 0.0102418)
(0.978674 -0.00218962 0.0220054)
(0.339889 0.288079 0.00351118)
(0.379833 -0.324857 -0.0164898)
(0.986124 0.00382198 0.00257139)
(0.358038 0.309653 0.00747477)
(0.980042 0.02584 0.0118154)
(0.999525 -0.00576127 0.0194374)
(0.361163 0.327228 -0.0015492)
(0.340664 0.361241 -0.00795194)
(0.964557 0.00411236 0.0106997)
(0.986527 -0.0339591 0.0321998)
(0.997663 0.0138728 -0.0041743)
(0.992623 0.0192759 -0.00674276)
(0.351338 0.349667 0.0148005)
(0.999378 0.0185448 -0.00868221)
(1.00116 0.0126925 -0.0146012)
(0.368758 0.367873 -0.00782711)
(0.998236 0.0425972 0.0249309)
(1.00778 -0.000193496 0.0017556)
(0.374527 -0.333091 -0.0131223)
(0.374006 -0.33517 -0.0341622)
(0.996941 0.00291834 -0.00258189)
(0.993591 0.00557758 -0.0194758)
(0.369053 0.34887 -0.00663626)
(0.342028 -0.373195 -0.0145087)
(0.584625 -0.342774 0.0752958)
(0.348169 -0.356395 -0.00565941)
(0.999365 0.0140551 -0.00601137)
(0.367301 0.348283 -0.0111673)
(0.313066 -0.356264 0.0157539)
(0.998946 0.00440384 -0.0102983)
(1.0037 -0.0154106 0.0122652)
(0.993184 0.000928922 -0.0121553)
(0.991332 -0.0409061 -0.00578169)
(0.376492 0.349564 0.00693947)
(0.442788 0.332025 0.000106718)
(0.986847 0.0047831 0.0102271)
(0.423117 0.365394 0.00985177)
(0.997946 -0.0133225 0.00795935)
(0.962045 0.0461827 -0.00581518)
(0.996434 -0.02402 -0.0151052)
(0.723168 0.027066 0.0220576)
(0.417473 0.377464 0.0229602)
(1.00586 -0.000332113 -0.0258998)
(0.995469 -0.0130074 0.00410161)
(0.361551 -0.348867 0.00101205)
(0.960718 0.0206292 -0.0126633)
(0.984571 0.000316858 0.00430218)
(0.362339 -0.344516 0.0103726)
(1.04936 0.0756347 -0.024744)
(1.00269 0.00962206 -0.0103732)
(0.421976 0.334251 0.0140098)
(0.995189 -0.013117 -0.00723275)
(1.01348 0.00540671 0.000760412)
(0.985498 0.00259526 -0.00370974)
(0.372205 0.306304 0.00203628)
(0.987862 -0.00903223 -0.0160089)
(0.979571 0.00978996 -0.0160373)
(0.982816 0.009336 0.00603976)
(1.00148 -0.0008566 -0.0205945)
(0.462553 0.414424 -0.0239346)
(0.974793 -0.0100949 -1.39082e-05)
(0.359074 -0.367123 0.0224292)
(0.971391 -0.0276914 0.00661746)
(0.965723 -0.00312796 -0.0240769)
(0.362961 0.357271 0.00987938)
(0.989292 0.0194782 -0.02373)
(0.98853 -0.0213063 -0.0113365)
(0.490532 0.395172 0.00578479)
(0.34607 -0.351803 -0.0022547)
(0.389412 -0.34424 0.0161654)
(0.349776 -0.34986 0.00290826)
(0.968069 0.0204878 -0.0270697)
(0.994483 -0.014216 -0.0127815)
(1.00455 -0.00192616 0.0103132)
(1.00572 -0.0137369 0.0093645)
(1.01343 0.00592614 -0.00846956)
(0.349494 0.339386 0.00294026)
(0.995906 0.00379354 0.0195375)
(0.345103 -0.336024 0.00621654)
(0.972344 -0.0167782 0.00400895)
(0.352339 0.354041 0.0151097)
(0.329828 -0.355895 0.00760319)
(0.34562 -0.325572 -0.0115363)
(0.986807 0.0184579 -0.000855285)
(0.342409 -0.375362 0.000363466)
(0.35949 -0.36918 0.00132439)
(0.386104 0.199659 -0.0300384)
(0.367288 -0.351839 0.00798003)
(0.310737 0.322654 -0.0142406)
(1.0069 -0.00434613 -0.00912854)
(0.329965 0.332202 -0.0245719)
(0.410713 0.30604 -0.0198884)
(0.366301 0.337249 0.000145821)
(0.349288 -0.36416 -0.0107428)
(0.364736 0.331046 -0.0249058)
(0.351796 -0.332882 0.00193894)
(0.350098 0.361793 0.00380508)
(1.00042 0.00430625 0.0101012)
(0.353744 0.364705 -0.0121801)
(0.975347 -0.00524999 -0.00269489)
(1.00767 0.00448404 0.00847742)
(0.956942 0.00737306 0.010444)
(0.30619 0.33809 -0.00623052)
(1.00027 0.00698872 -0.0131657)
(0.371816 0.361763 -0.00560132)
(0.363967 -0.320222 -0.0101451)
(1.00591 -0.00660189 -0.00871145)
(0.997867 0.000174024 -0.00495666)
(0.981628 -0.00825843 0.00337131)
(0.987394 -0.00741512 0.0398724)
(0.393779 0.322626 0.000176077)
(0.984474 -0.00105452 0.000193455)
(0.988458 -0.00502445 -0.00629444)
(0.998533 -0.0172234 0.00676467)
(1.00243 0.0136098 -0.025586)
(0.973046 -0.00360279 0.0265088)
(0.357845 -0.367867 -0.00033706)
(0.984323 0.00338503 0.0101399)
(0.448572 0.41289 0.0112745)
(1.00351 0.00510059 -0.00499351)
(0.355593 0.340878 -0.00780172)
(0.978771 0.000152198 0.0204518)
(0.430197 0.379732 -0.000691384)
(0.989993 -0.00202483 0.0136986)
(0.989321 0.00642332 -0.00288362)
(0.415791 -0.210814 0.00339766)
(0.332146 0.345165 -0.0173364)
(0.992425 0.00712509 -0.013569)
(0.335018 -0.350286 -0.00856108)
(0.998352 -0.00825077 -0.00371582)
(0.989758 0.00203556 0.00634466)
(0.3173 0.360463 -0.0111432)
(0.337158 0.370435 -0.0114075)
(0.342643 0.293434 -0.0162263)
(0.343986 0.359909 -0.0151931)
(0.928378 -0.0154012 0.036258)
(0.996906 -0.0079153 0.0265429)
(0.354376 0.348722 -0.00482195)
(0.335377 0.345883 -0.00882091)
(0.985643 0.00424297 -0.00750369)
(0.336269 0.368163 -0.0179865)
(0.987001 0.0110513 0.00229003)
(0.34112 0.367564 0.0257531)
(1.00349 0.00518313 -0.00800696)
(0.341077 -0.353787 9.20527e-05)
(0.988319 -0.0390521 0.0204708)
(1.00959 0.0137145 0.00200718)
(0.989271 -0.0239612 0.00545846)
(0.978474 0.0104698 0.00739167)
(0.346513 0.353699 0.0260194)
(1.00847 0.0103469 0.00171458)
(0.370053 0.365461 0.005607)
(0.357773 0.339399 -0.00459142)
(1.00262 0.0025023 0.0239884)
(0.375304 0.361504 0.000147827)
(0.982186 -0.00383844 0.00341059)
(0.35884 0.317409 0.000394008)
(0.992514 0.000751365 0.00476775)
(0.349896 -0.337251 -0.00345241)
(0.992985 0.0586365 0.0418914)
(0.343925 -0.336375 -0.0374633)
(0.449862 0.371862 -0.00774731)
(0.987266 0.000483422 0.00586015)
(0.988689 -0.00953649 0.00720944)
(1.00636 -0.00841447 -0.0220136)
(0.99381 -0.00310977 -0.0056909)
(1.00031 0.000501003 -0.00283484)
(0.990071 0.0158897 -0.0035439)
(0.352673 0.375333 -0.00860333)
(0.988321 0.00825377 0.00647053)
(0.985469 -0.000566768 0.0104613)
(0.351411 0.356208 0.00109836)
(0.968046 -0.028476 -0.0143191)
(1.00459 -0.00270598 0.00707513)
(0.981593 -0.0079502 -0.00319451)
(0.343106 0.335256 -0.00771623)
(0.407127 0.069332 -0.0760187)
(0.993027 0.016658 -0.00399378)
(0.983811 -0.0329328 0.00770308)
(0.797144 0.189696 -0.0317377)
(0.467102 -0.244743 -0.0242676)
(1.00181 -0.0116886 -0.0117458)
(1.00785 -0.0217133 0.0140061)
(0.973172 0.00129183 -0.0161681)
(0.998921 0.0111999 -0.0400066)
(0.985094 0.0126512 -0.012232)
(0.888103 0.106118 -0.0255875)
(0.463545 0.349644 -0.0144595)
(0.955294 0.043058 0.00855997)
(0.876969 -0.0544884 0.0144239)
(0.344562 -0.352482 -0.00975874)
(1.00886 -0.00754539 -0.00769929)
(0.349147 0.363583 -0.030113)
(0.384392 0.369215 -0.00268556)
(0.992828 0.0221247 7.41511e-05)
(0.90097 0.104827 0.0105126)
(1.06668 -0.00061545 -0.0122247)
(0.971781 -0.171195 0.000330671)
(0.430855 0.40913 -0.0550886)
(0.958472 -0.00493884 -0.0550201)
(0.992818 0.00878475 0.00437667)
(0.34175 0.34536 -0.00976395)
(0.451703 0.224343 -0.018191)
(1.00134 -0.00281098 0.011138)
(0.365608 -0.37344 -0.00699363)
(0.319245 0.300987 -0.00306914)
(0.344704 0.366382 0.00413132)
(0.34267 0.341414 -0.000541601)
(0.96981 -0.0296071 0.025157)
(0.337193 0.338664 -0.0112251)
(0.344974 -0.350965 -0.0111739)
(0.993794 0.023052 -0.00129765)
(0.986326 0.00872667 0.00735588)
(0.513623 -0.440234 -0.0112458)
(0.961382 -0.00289322 0.0140612)
(0.424966 0.324672 0.00632397)
(0.991858 -0.00593089 -0.0113283)
(0.321345 -0.372858 -0.0318428)
(0.353523 0.349072 -0.020293)
(0.980451 0.00510832 -0.0222348)
(0.335592 0.347041 0.0215014)
(0.333047 0.335885 -0.00631416)
(0.386737 0.420735 0.0117348)
(0.980016 -0.00617079 0.00506996)
(0.594524 0.480482 -0.0539139)
(0.995923 0.0152351 -0.0101171)
(1.00835 0.00304158 -0.00907987)
(0.352888 -0.339113 0.00592888)
(1.00724 0.00878783 -0.00642841)
(0.986311 0.0237548 -0.0225808)
(0.979818 -0.00812103 -0.0205645)
(0.977613 -0.0338096 0.0097272)
(0.975714 0.0104548 0.000229939)
(0.969519 -0.0179765 0.0151395)
(0.347626 0.359533 0.0188222)
(0.975955 -0.00168227 0.00461911)
(0.996564 0.00243428 0.0136016)
(0.349335 -0.35169 -0.0239513)
(0.991149 0.00477784 -0.000836004)
(0.984174 0.0014989 0.0213501)
(0.993593 -0.0108549 -0.0274387)
(1.00407 0.013438 2.65911e-05)
(1.00209 0.0170812 -0.00715852)
(0.980197 0.0175132 -0.0154185)
(0.336425 -0.346574 0.0153166)
(0.992221 0.00405478 -0.00131767)
(0.990255 -0.00695703 0.0175955)
(0.41713 0.378071 0.0108655)
(1.00931 -0.0149271 -0.0171204)
(1.00247 -0.0199363 -0.0183472)
(0.59254 0.480213 -0.0783469)
(1.00216 -0.000422942 -0.0010273)
(1.01941 -0.0111368 -0.0116227)
(0.987313 -0.00488524 -0.0221634)
(1.00804 0.0197293 -0.0209808)
(1.00196 -0.00461106 -0.000909444)
(0.998642 0.00233078 -0.0287357)
(0.337443 0.323472 -0.00819198)
(1.00469 0.0172616 0.0129607)
(0.995777 -0.00702565 0.0167455)
(0.415623 -0.232065 0.00524038)
(0.974168 0.0123282 -0.00409122)
(0.997671 -0.000931327 0.00149091)
(0.981054 -0.00122207 0.00243345)
(0.342406 0.328982 -0.00144373)
(1.00441 -0.000168044 -0.00583848)
(0.371267 -0.351691 0.0125993)
(0.350207 0.330351 -0.0226482)
(0.337772 0.361411 0.00398225)
(0.354009 0.354241 0.0146912)
(0.991095 -0.00403295 0.00796603)
(0.444129 0.362412 0.0289622)
(0.96184 0.0303087 0.0116191)
(0.317861 -0.363182 -0.0102523)
(0.330281 0.373551 -0.00769105)
(1.00712 -0.0101718 0.0127774)
(1.00144 -0.00206815 -0.00705584)
(0.342366 -0.346764 0.0064387)
(0.9885 -0.00466622 -0.000444704)
(0.36344 -0.352729 0.0126193)
(0.34567 -0.352447 0.00768376)
(0.353063 -0.369193 -0.0158254)
(0.986632 -0.00055563 -0.0146774)
(0.98686 0.0150226 -0.00095952)
(0.435875 0.34915 -0.041338)
(0.351378 -0.347056 -0.00575554)
(0.341635 0.353496 -0.00976475)
(0.365621 0.360697 -0.00321798)
(0.980839 0.0267385 -0.0195453)
(0.982983 0.0154068 -0.00322285)
(0.399131 0.399512 0.0247122)
(1.00224 -0.00746376 -0.000731914)
(1.005 -0.00432762 -0.018992)
(0.342358 0.341185 0.0367876)
(0.998476 -0.00126568 -0.0127841)
(0.977934 -0.00748222 0.000170568)
(0.995744 0.00937827 0.0136518)
(0.318282 0.34546 0.016333)
(0.350051 0.340865 0.0113024)
(0.997492 -0.013845 -0.00570304)
(1.0006 -0.0039631 -0.0162401)
(0.430103 0.367516 -0.00950626)
(0.368414 0.352495 -0.00172028)
(0.339802 0.34368 -0.0141844)
(0.976773 -0.0312967 -0.0054961)
(0.363077 -0.365739 -0.0013045)
(0.337568 -0.361489 -0.0132033)
(0.331321 0.354936 0.0211797)
(1.00097 0.00774522 -0.00614311)
(0.989849 -0.0177533 -0.0114317)
(0.336597 0.334448 0.0136828)
(0.405484 0.150323 0.0490315)
(0.438953 -0.0422799 -0.000800226)
(0.986801 0.0350022 -0.00446945)
(0.372088 0.383283 0.00389719)
(0.352411 0.343135 0.0027486)
(0.979632 -0.00434781 -0.00663485)
(1.00001 -0.0207258 0.000515525)
(0.435635 0.378258 0.017818)
(0.627553 0.206504 -0.00656717)
(0.972376 0.0187311 0.0287215)
(0.990266 0.0153374 0.00582798)
(0.992125 -0.00824589 0.0118945)
(0.367225 0.331798 0.0310869)
(0.988224 0.0114189 -0.00101048)
(0.997821 0.00392084 0.00435275)
(0.339652 0.334812 -0.00592067)
(0.314148 -0.359236 -0.00385437)
(0.361647 0.352194 -0.00607635)
(0.351503 0.344684 -0.00330737)
(0.347692 0.352624 0.00161364)
(0.364983 0.325662 -0.0198737)
(1.00821 0.00317248 0.0183963)
(0.332407 -0.364958 0.0390026)
(0.341974 0.349573 0.0127406)
(0.328823 0.357619 0.0310458)
(1.00937 -0.00166449 0.0118632)
(0.995741 -0.00583698 -0.000824833)
(0.364017 -0.345541 0.0242573)
(0.348395 -0.328883 -0.00807644)
(0.977579 0.0231103 0.0213758)
(0.961897 0.00436922 -0.00440117)
(0.966341 0.0123617 0.00184516)
(0.335904 -0.329995 0.0264582)
(0.340003 0.387415 -0.011105)
(0.974318 0.00915535 -0.00749631)
(0.359333 -0.345293 0.011423)
(0.980952 0.00573598 0.00275345)
(0.988703 0.00542646 0.015286)
(0.984535 0.0195175 0.010806)
(0.340884 -0.354376 -0.0267735)
(0.353791 -0.369267 0.0166929)
(0.360135 -0.358287 -0.0153498)
(0.36078 0.38642 0.00946604)
(1.00654 -0.00146897 0.00621888)
(0.362535 0.351989 0.0262447)
(0.347707 0.350551 0.00496761)
(0.993249 -0.00456668 0.00263887)
(0.350101 -0.344473 0.00590995)
(0.995087 0.0191601 -0.0064684)
(0.98713 0.00982069 0.00466206)
(0.354625 0.345926 0.00293637)
(0.996782 -0.00577757 -0.000480775)
(0.476602 0.0465793 -0.0066713)
(0.992553 0.017793 -0.0225933)
(0.972886 0.00241876 -0.0110904)
(0.99556 0.0101659 -0.00868748)
(0.992554 -0.0132849 -0.01119)
(0.886047 -0.0248922 -0.020463)
(0.422327 0.33175 0.0216588)
(0.993336 0.0202117 -0.0192481)
(0.982504 -0.00627919 -0.00690085)
(1.00667 0.00931604 0.00185313)
(0.341651 0.316704 -0.0232655)
(0.78174 0.00866602 0.00539299)
(0.553214 -0.071485 0.0126022)
(1.0034 -0.00695893 -0.0219836)
(0.366334 0.34853 -0.00139162)
(0.996181 -0.00492736 -0.00173569)
(1.00772 -0.0222589 0.00678386)
(0.995579 0.0140056 -0.00605445)
(0.37515 -0.284434 0.00614882)
(0.355473 -0.366182 0.00641963)
(0.341108 -0.357857 -0.0172842)
(0.997673 0.00463427 0.00568496)
(0.375151 0.325859 0.00140595)
(1.0104 0.0124713 -0.00209335)
(0.350741 0.329939 -0.0238027)
(0.987366 -0.00418713 0.0240473)
(0.990723 0.0242717 0.00477889)
(0.987612 0.0111889 0.00350786)
(1.02094 -0.00623743 -0.0338225)
(0.33171 0.349383 -0.00433149)
(0.349614 0.341289 0.0041331)
(0.401558 -0.339913 -0.0253137)
(0.991399 -0.00959846 -0.000543468)
(0.365182 0.36538 -0.00466542)
(0.404906 0.354327 -0.037781)
(1.01091 0.00511514 0.00506137)
(0.350991 0.33222 -0.0218547)
(0.320466 0.303677 0.0359304)
(0.361986 -0.354353 -0.00317221)
(0.350142 0.358043 0.0279638)
(0.989746 0.0111545 0.00757184)
(0.365432 0.318118 -0.0136495)
(0.360602 0.350678 -0.00798362)
(0.906551 0.0889734 -0.0265806)
(0.402399 0.332898 0.0101611)
(0.322629 0.345799 0.0316098)
(0.480955 -0.297056 0.0191874)
(0.359231 0.346577 0.0096443)
(0.988219 -0.00206752 0.0213787)
(0.989765 0.0218833 0.00977198)
(0.35837 -0.328093 -0.00817451)
(0.998173 -0.0089379 0.00656031)
(0.949564 0.138277 -0.0187237)
(1.00373 -0.00194214 0.0170611)
(1.01289 -0.00496093 0.00560613)
(1.0015 -0.00452433 -0.00759299)
(0.376806 0.364461 -0.0225935)
(1.00695 0.0124842 -0.019429)
(0.99394 -0.000154837 -0.00721745)
(0.99127 0.00703091 0.0195195)
(0.357486 -0.323476 -0.0271045)
(1.04585 0.28572 0.0764256)
(1.00323 0.0173217 -0.0170399)
(0.482904 0.379651 -0.0271398)
(0.990061 -0.0269007 -0.00605652)
(0.980425 -0.0033838 0.00189314)
(0.999471 -0.00514675 -0.00838399)
(0.990352 0.0106919 -0.0159525)
(1.00209 0.0109154 0.0140719)
(0.990204 -0.0199324 -0.0335853)
(1.00661 -0.0125846 -0.0146634)
(0.99176 -7.83051e-05 -0.00398361)
(0.340592 0.327268 0.00529861)
(0.366356 0.326136 0.00319924)
(0.991505 -0.00586464 -0.00731481)
(0.990334 -0.0216628 0.0276902)
(0.361367 0.345438 -0.0329742)
(0.982035 0.00296986 -0.00343827)
(0.987135 0.0051377 0.0354633)
(0.984156 0.00376204 -0.00267682)
(0.35718 0.358744 -0.001681)
(0.968774 0.015869 -0.0103956)
(0.363413 0.353961 -0.0113194)
(0.97599 -0.00590387 0.0303199)
(0.986551 0.00571786 0.00562745)
(0.350598 0.352272 -0.0178099)
(0.992817 0.0284897 -0.0181477)
(0.963653 0.00847547 0.0344581)
(0.995617 -0.0176826 0.00792122)
(1.00917 -0.00977356 0.0303464)
(0.375957 0.365673 -0.000433784)
(0.994726 0.0225485 0.00602176)
(0.99401 0.000503067 -0.00124506)
(1.01113 -0.00391006 -0.0117302)
(0.996043 0.00600835 0.0117349)
(0.990534 -0.00325174 -0.00453286)
(0.351763 0.369821 0.00621086)
(0.353868 0.350404 0.0311068)
(0.995176 -0.00475007 -0.00959303)
(0.359056 0.351463 -0.00707611)
(0.987809 0.00366423 -0.0147856)
(0.986439 0.013233 -0.0250025)
(0.587022 0.0759103 -0.00320995)
(1.04424 -0.0378977 0.0167273)
(1.00031 -0.00389033 0.00818333)
(1.03232 -0.00827676 -0.0276447)
(0.349273 0.370073 -0.000863502)
(0.441838 0.380039 0.00322023)
(1.00735 -0.000900545 -0.0468984)
(0.341963 -0.339173 -0.0249214)
(0.200528 -0.148356 0.0601241)
(0.969127 0.0127983 -0.0154409)
(0.35309 0.348465 -0.00816441)
(0.35243 0.336551 -0.00327234)
(0.943804 0.00410383 0.0183941)
(0.966464 0.0193269 0.0460222)
(0.33056 0.34681 0.0198952)
(0.993459 -0.00833121 -0.00912025)
(0.343093 0.340322 0.0227166)
(0.343021 0.361639 -0.00834446)
(0.350039 -0.393378 0.0110266)
(0.347586 -0.35201 -0.0046274)
(0.341404 -0.360868 -0.0255267)
(0.366582 -0.353602 -0.00854489)
(0.995855 -0.00753758 -0.00782067)
(0.338921 0.338963 0.0163815)
(0.36304 0.350456 -0.000166998)
(0.363425 0.356559 0.00206988)
(0.866733 -0.180965 -0.0411257)
(1.00521 -0.00534783 -0.0231933)
(0.987301 0.0162659 -0.00283529)
(1.00572 -0.0322441 -0.0239642)
(0.344945 0.341775 7.40433e-05)
(0.389676 0.343913 -0.0216439)
(0.961299 -0.0118757 -0.00633862)
(0.349542 0.341678 -0.00803264)
(0.363222 0.330021 -0.0255802)
(0.591062 0.309545 0.0159009)
(0.985 -0.00430782 -0.000192475)
(0.98475 0.0195217 -0.00192351)
(0.351574 0.343045 -6.46044e-05)
(0.36706 0.331396 0.00093814)
(0.353665 0.346279 0.00708774)
(0.371193 0.354347 0.0046314)
(0.376203 0.344245 0.0232271)
(0.341674 0.363232 -0.0120406)
(0.993691 -0.0174298 0.00287322)
(0.363891 0.336218 -0.000545529)
(0.978299 0.00593065 -0.0238246)
(0.996212 0.00192165 0.0130466)
(0.364637 0.363039 0.000870575)
(0.354519 -0.356047 0.015497)
(0.338522 -0.347503 0.000261522)
(0.992143 0.0131312 0.00156608)
(0.346969 -0.365292 -0.0168869)
(0.351192 -0.353121 -0.0265569)
(0.355547 0.363858 0.000718202)
(0.980556 0.0149041 -0.00979739)
(0.344393 0.366202 -0.00950703)
(1.00327 0.00910278 0.0047874)
(1.00257 0.00967913 -0.00348653)
(1.00239 -0.0237561 0.00838889)
(0.334162 0.34862 -0.00317425)
(0.677056 -0.180922 -0.00389717)
(1.00988 -0.00790004 0.0122367)
(0.994506 -0.00282616 -0.0148073)
(0.360599 -0.331854 -0.00586745)