/*--------------------------------*- C++ -*----------------------------------*\
  =========                 |
  \\      /  F ield         | OpenFOAM: The Open Source CFD Toolbox
   \\    /   O peration     | Website:  https://openfoam.org
    \\  /    A nd           | Version:  10
     \\/     M anipulation  |
\*---------------------------------------------------------------------------*/
FoamFile
{
    format      ascii;
    class       volScalarField;
    location    "4.4";
    object      p;
}
// * * * * * * * * * * * * * * * * * * * * * * * * * * * * * * * * * * * * * //

dimensions      [0 2 -2 0 0 0 0];

internalField   nonuniform List<scalar> 
111485
(
32.2917
2.18431
2.55929
32.2203
2.63155
31.5611
2.23678
1.9753
2.25153
3.23766
2.20684
2.815
2.26525
2.12888
2.26901
2.35349
0.802982
35.1395
2.25843
32.1934
32.1767
31.6476
2.25763
2.3322
2.60108
31.9646
3.12931
1.38142
2.55518
32.3414
4.01792
0.557938
32.2477
31.8506
34.5012
31.8748
4.06265
0.308517
4.75786
2.3483
32.0982
3.22327
2.35174
3.66035
3.88382
32.5495
3.47923
2.31602
3.2235
32.1826
32.1718
30.4879
32.2011
3.69657
32.2203
1.45393
2.28211
32.0395
3.25958
2.33684
2.34508
32.2922
1.84243
3.95636
31.5238
1.63357
22.4873
2.08303
1.80651
1.97604
4.1169
1.67965
31.4473
1.79441
32.4463
1.00906
31.6966
3.10416
31.6409
32.8748
4.00824
3.54012
31.754
32.4064
1.83534
2.39891
11.2296
3.70049
4.10346
0.732075
4.06767
2.41413
1.84589
0.406346
3.21503
32.4017
32.2947
3.73836
2.26238
4.23395
32.2654
3.15344
31.9116
3.03446
2.11319
32.3846
31.9095
0.650145
2.4548
3.6203
0.485878
1.6957
2.42047
2.91471
31.9583
0.978282
32.0345
32.0172
1.80488
32.1993
31.9612
28.0615
31.7576
32.043
3.36814
35.6661
27.9365
0.745546
32.4574
6.32443
3.9272
3.72925
32.4434
27.537
28.5385
2.19068
31.7138
1.02223
1.99046
2.06828
3.15746
2.0273
2.03596
2.52966
3.376
0.19649
31.7111
32.3866
31.9834
2.12277
2.52877
32.1704
4.0676
0.0398563
2.66815
2.12715
2.10146
2.22809
3.14912
32.5106
32.2233
2.11843
2.49468
3.28754
2.89471
0.871614
3.90115
32.119
3.42195
3.53807
31.9676
32.3735
2.70872
31.825
0.253033
0.0783424
31.6207
31.3761
32.0301
32.0689
31.2843
32.2162
2.14206
2.15798
2.13534
0.241356
3.11231
1.20457
4.09765
32.2605
1.01804
31.3684
32.2679
1.23082
3.20651
3.92715
1.57982
0.192039
32.4494
2.17392
2.5308
23.2877
3.57483
0.718943
32.4493
1.23047
2.96288
31.3554
3.8904
3.47137
2.49918
1.16901
31.2531
32.3146
1.20195
22.1986
3.72801
31.814
1.22365
1.05996
3.28649
32.5019
1.31205
3.80891
25.74
31.8221
31.9739
4.1968
2.91544
31.758
29.9262
1.08481
0.349146
1.30692
31.7434
31.7447
3.96219
32.4533
2.1006
1.05415
1.07425
1.02745
1.06634
31.9867
4.04697
0.811509
32.0214
31.7432
3.68211
1.69477
31.9362
0.552982
0.813438
32.3818
27.0191
3.52314
32.0884
32.4503
29.5584
32.1217
0.933004
1.00131
0.0575563
32.5205
0.828476
32.2297
32.2793
32.4727
3.98744
3.10166
1.76
1.79067
2.90801
1.75635
1.78051
4.1324
0.316588
0.347017
31.3034
32.3727
4.17043
0.651745
2.95536
0.379648
32.2088
1.80421
2.15771
1.76818
3.01739
4.07251
1.73764
1.75927
3.55078
32.0324
3.04776
31.8275
35.1248
32.6818
4.1561
2.90122
2.29535
32.0699
32.2345
1.42347
0.493301
32.1623
32.3169
32.2404
1.01
0.373702
2.11904
2.21798
2.36891
30.0279
31.9327
32.4202
1.40196
15.8878
2.26507
4.09917
3.89436
31.7478
32.2821
32.2955
28.516
1.4988
2.6126
32.0041
1.48714
31.9149
32.0075
3.81868
1.49987
2.89576
1.47951
32.6185
28.3989
31.9653
1.48463
0.122996
4.04379
31.5974
6.80469
3.80847
2.65138
1.3644
9.41131
2.3886
31.679
2.39469
1.52375
4.09304
3.78382
2.6436
31.881
32.4258
31.9358
32.2322
2.09185
1.30482
2.85498
2.40011
31.9129
2.76927
31.927
32.3195
2.39523
32.8882
28.8107
32.6446
31.8762
2.14212
32.0399
0.119654
2.75276
31.6451
1.90484
1.57448
32.1809
1.53075
2.79151
1.57657
3.91999
0.245324
0.346739
32.6563
32.3868
3.67433
32.0684
2.88164
3.82106
31.5893
32.0009
1.46342
2.79112
0.236431
2.78887
31.703
4.00885
2.78602
31.5329
3.65088
2.78594
32.3133
32.2045
0.133387
2.60581
31.9428
32.046
24.9428
32.2606
2.68107
31.8155
32.2516
2.81421
3.96309
3.41882
2.64163
31.5782
28.5724
3.72425
28.9221
3.64791
3.77596
3.22425
23.0919
29.1827
-1.17319
3.77676
32.3281
3.75435
2.76068
32.4987
3.30616
3.27556
29.0511
2.89843
2.79625
0.258571
31.6097
1.01645
2.94108
0.282535
4.191
27.8705
2.68061
32.4214
4.1268
-0.452026
31.9628
2.88478
3.55765
27.2411
32.5127
30.5467
32.171
2.6306
0.381972
2.86854
2.91113
3.88262
31.827
2.79417
32.3341
2.66564
31.4773
32.3231
32.4206
2.88688
32.3982
32.3119
33.799
32.2933
32.014
3.53824
32.0386
30.6499
31.9153
32.2783
31.54
32.4465
31.6664
2.90365
31.913
3.57049
2.96612
4.5241
31.5394
3.57619
31.9432
32.2863
2.9013
2.92276
3.02723
4.07701
30.3546
3.29572
3.28778
0.254771
0.284491
2.9682
32.3702
0.173761
27.2782
3.42841
31.8372
3.3468
28.0514
0.446005
2.88768
33.3699
32.1387
0.238378
32.147
3.28508
3.27612
32.0151
31.9779
32.4145
31.9467
1.41879
3.27197
31.4373
32.0398
2.62269
31.6502
3.26865
31.6837
3.45407
32.2926
3.2706
3.3453
1.60897
0.42257
31.4126
-0.360162
31.4841
31.8492
3.01326
31.851
3.27473
32.4406
3.37818
32.3522
3.13242
32.1678
29.0924
4.4243
2.9791
3.25193
3.08865
3.21225
2.81091
31.9758
3.23385
3.04316
31.7973
4.31067
3.95764
3.29551
31.6648
32.6312
2.68002
3.28751
17.7171
31.391
3.01043
2.63541
3.12684
3.12853
0.861993
13.7268
28.7699
2.34287
15.7325
32.2323
3.32322
32.0727
29.201
0.762426
13.5657
2.29902
9.74881
28.7615
3.10772
2.62317
31.553
30.7037
2.62245
32.1144
31.6395
31.6687
31.5159
3.14828
31.921
32.313
3.19393
1.06646
25.4749
2.50265
30.2954
1.04449
32.1947
31.9804
3.14098
31.8361
31.5471
29.0855
0.225613
21.1214
3.15556
0.758941
32.1291
4.02991
3.04489
2.68899
4.05423
5.80609
2.62161
31.8608
3.2101
2.69285
32.475
1.58355
3.57579
2.76602
0.203069
2.75834
2.75897
32.4672
3.30654
3.89835
29.003
2.75603
3.37108
21.8025
0.75496
2.76507
3.35751
2.9624
2.94578
0.747967
31.9064
2.94443
3.26887
33.1614
3.09834
3.07207
0.805264
31.8611
0.232408
32.5404
31.7257
31.9207
31.5115
2.70819
29.3977
1.16964
32.2978
31.3564
3.12331
3.10785
32.1411
3.28892
32.285
32.4574
32.2091
3.32366
3.33268
29.1857
32.3299
31.8422
31.8657
3.971
0.784345
28.5591
3.04481
3.44556
32.0046
3.06804
3.48231
0.639881
31.6165
31.814
1.65754
0.80034
28.961
31.9615
31.4035
1.21444
32.3897
32.0765
31.8062
3.01669
2.45091
31.6523
34.0961
33.1584
0.848982
32.029
31.5482
3.38116
3.96587
28.8994
25.5061
8.76438
3.45489
0.0276173
31.3054
2.51887
3.58144
32.033
32.1899
31.7192
31.8263
31.9389
31.6683
3.06479
32.2846
31.7193
31.65
3.05666
0.781013
32.0542
32.2396
3.43966
0.791911
0.841716
32.0933
31.731
0.808357
32.3939
3.02128
0.77733
0.854165
31.9692
32.2644
32.2632
31.884
2.68753
31.745
31.676
3.72709
32.2559
1.31506
3.60416
31.492
0.790552
31.9623
1.29189
3.16873
3.21172
3.42139
0.66956
30.0228
1.27529
3.4538
0.0360357
31.9506
-2.20065
29.5105
0.274289
31.9091
3.53315
3.49435
3.51654
32.6501
32.2748
32.5152
0.782637
30.2948
0.407279
30.797
2.39967
0.293716
0.528692
0.802683
31.6761
31.5594
31.5178
0.828679
31.5347
30.0205
4.18676
32.0206
32.0388
32.2659
31.7263
0.545077
31.3476
31.8138
-0.274279
30.2288
32.0937
29.1365
31.7921
3.4935
0.523943
32.1757
2.64844
8.54221
3.51368
3.61162
0.698695
31.955
3.16576
4.0356
3.51897
32.4123
-3.78179
0.566213
27.4024
0.438931
4.09483
4.30686
1.91923
0.430111
4.09167
0.200232
0.506857
31.8205
31.5329
0.372781
0.333097
31.9941
0.384936
2.86609
0.505022
31.4546
4.20786
31.8925
0.509441
0.473906
31.5986
-0.0222858
0.519461
4.09715
0.05384
31.2967
2.11512
4.12775
4.5872
4.07661
3.78995
31.8296
31.926
3.77042
31.7187
3.01185
3.72606
28.1231
3.17583
1.96466
3.79041
31.7271
27.1038
1.12901
32.4545
37.405
3.7705
31.4906
31.5693
2.32332
1.804
31.7223
4.24193
31.8238
31.8355
32.4696
32.2925
32.2982
32.3878
3.87216
31.4985
31.9688
32.0203
-0.166918
3.96852
2.44769
1.11324
31.6637
31.5248
3.9405
31.7824
31.578
25.1123
3.84155
1.42765
31.6251
31.5416
31.55
31.5501
31.7654
31.5273
3.84448
31.542
3.96148
2.38222
31.8675
32.313
32.2252
4.21739
32.1976
32.2261
31.9285
3.95126
31.9033
3.85278
4.00772
3.98834
31.6515
23.029
3.94799
2.28856
31.2387
3.99735
3.3271
32.1161
31.3231
28.5467
31.5452
1.12544
2.07486
3.95897
3.54868
31.6085
1.11836
31.2075
28.6542
28.3969
31.9736
1.9216
31.8033
32.2571
4.10817
1.4204
32.2486
3.28277
30.3577
3.89881
32.6132
31.8442
31.8367
32.2499
0.582387
2.08077
6.21577
31.6241
31.6071
0.53366
31.7216
29.4837
32.2988
2.99926
3.52396
2.73447
32.0506
4.12533
4.1405
33.4895
4.15969
31.526
3.65008
3.32392
1.98442
4.05753
3.78219
31.7514
31.8295
31.8299
4.11365
32.2715
4.04612
32.4879
7.34697
32.0691
2.32686
2.40781
32.2656
31.6969
32.3155
32.0424
4.03048
32.3376
28.5755
0.514515
4.05208
32.3707
29.3703
31.6198
29.443
31.5052
31.7621
4.086
3.43548
32.218
32.0155
2.64405
32.3207
4.08463
0.572441
31.7039
3.7392
32.2569
0.339365
31.5004
2.55301
31.5873
2.92683
3.64633
4.0527
3.7335
3.72154
21.2066
31.1723
3.78715
32.1829
1.90351
32.1176
32.0137
31.0635
31.9525
32.0575
31.9893
3.68332
3.64383
32.2594
27.6958
32.1069
3.74664
4.21467
32.3129
1.93149
4.10558
32.2261
0.727714
0.51185
1.81409
4.06965
31.7191
31.7915
31.9645
31.6798
1.91079
31.6937
3.82884
31.7688
3.83926
2.57203
31.9135
3.77928
31.9446
31.7081
3.83113
3.91759
12.2544
31.7716
32.2918
31.5234
1.96831
30.9892
32.6488
31.1085
8.06637
28.2956
3.08868
29.3485
30.9841
31.6243
0.611257
0.492573
2.87287
2.15678
32.4263
3.84083
31.8524
31.9906
0.531333
31.4051
2.74441
3.82959
0.449067
3.87167
1.47716
2.785
31.9546
-0.158021
-5.09786
3.38894
3.9608
1.48421
24.1176
32.2751
2.71879
32.1099
31.5613
4.04445
3.18313
1.20615
31.7962
31.2766
4.06292
32.2235
31.4906
3.86093
32.2844
32.252
1.98834
3.88203
3.83822
1.80379
0.920987
31.5353
31.7445
3.87851
1.71287
31.6676
32.2655
2.99204
31.5392
27.5445
28.4132
28.5525
20.1655
27.6885
31.6719
2.7974
31.5076
3.87238
31.5942
16.9859
31.6445
31.5489
31.9616
31.7198
2.6429
31.7242
31.719
28.9671
31.5511
31.9537
31.8283
1.62414
31.7876
1.47226
3.88205
31.5577
2.92595
31.6377
3.40804
4.01702
0.426559
0.457415
31.9598
0.477347
2.63142
4.0373
32.4592
3.89424
1.30064
0.265384
30.4074
0.288594
31.6805
31.9489
31.5874
31.6542
0.297393
31.8238
31.5464
0.243092
3.81156
0.20014
32.0221
23.821
2.86978
31.9074
3.65991
32.215
0.434041
31.4556
31.4931
2.76113
31.5777
4.16649
32.3128
31.593
1.29546
3.4613
0.968672
2.04124
4.2223
1.62377
31.5998
32.7423
2.43401
0.994388
1.62443
3.92158
31.723
1.48414
31.6996
31.8492
2.38799
4.04029
31.5471
1.01098
31.9105
0.978135
0.912668
31.4156
31.6591
31.8842
2.41655
31.8157
31.8199
2.43061
0.9752
3.92799
0.29355
31.6653
31.962
3.05819
2.48752
31.6204
2.40481
31.7321
2.38841
31.642
31.6153
2.33331
31.7282
3.33916
2.26425
31.5408
31.6618
2.19472
27.3626
2.72883
32.2847
3.91877
32.3352
27.7861
27.012
2.29135
29.1195
28.8392
2.06101
28.7152
19.4886
26.9454
31.6368
32.1119
3.94163
2.70693
31.9443
31.8445
2.59398
2.66903
31.5491
2.45116
31.6723
32.1258
3.05648
2.91811
0.468825
31.6308
31.858
31.8246
31.7188
31.4908
31.505
31.8377
31.5184
31.5462
31.6562
31.8266
32.1161
31.768
31.6182
31.5572
31.9634
31.6154
31.6615
31.7406
31.8784
32.2627
2.74143
31.796
31.6199
32.0098
1.90359
32.0542
32.1226
15.0697
31.398
31.0721
1.8965
33.4508
31.2237
16.8828
1.89114
31.7666
28.1117
29.853
31.5662
3.6558
1.89042
1.90471
1.80618
1.18176
32.1861
31.5579
1.42992
1.51138
1.79222
31.6867
1.68989
3.57679
1.84985
0.347661
0.397091
1.81103
0.656534
1.82089
32.4974
2.07459
1.73905
2.5518
1.71021
31.8847
31.8346
31.9365
32.2587
31.8711
1.49884
1.72273
31.8758
31.552
31.5287
32.0671
31.586
32.1281
31.4715
32.1169
1.69977
4.18886
1.71942
2.85938
31.394
31.4183
3.60296
3.8865
31.6538
31.7209
2.65702
32.5211
31.801
1.81976
1.65315
1.69483
2.70527
3.59042
32.1946
0.080679
2.03525
28.5827
32.1153
1.97614
32.1664
31.5231
13.1728
9.2788
2.8125
31.8956
32.3923
4.05498
2.0584
0.130036
1.5084
16.5591
32.2621
3.86658
33.1735
32.4828
31.2029
2.60933
31.5773
1.50221
0.0857651
1.95089
2.03639
32.389
1.32365
32.4154
30.8524
32.3822
32.0443
0.530005
20.3743
31.7237
32.2088
33.6175
1.51475
28.435
1.34753
1.49618
0.509886
1.50188
32.0867
31.9745
27.967
2.60773
1.18587
1.63136
32.1888
32.2869
28.2917
3.67697
2.70058
31.7173
1.02075
13.5027
2.05541
1.14428
32.2338
27.6615
1.14767
1.49712
31.8453
3.25883
3.15492
2.76222
1.25679
1.18835
1.27485
28.5912
0.523812
1.22454
1.05603
32.5203
1.96583
28.888
2.57897
1.27899
32.5143
0.366579
1.21037
1.30225
1.60912
35.1317
12.1669
3.96654
19.6381
1.21339
31.1522
0.426588
1.22025
32.07
31.7425
3.58927
4.16802
1.77984
34.9715
2.85438
3.99856
1.01928
3.95311
32.048
32.5419
1.48814
33.5806
1.36007
3.89567
1.22813
0.450449
32.183
3.43041
1.47696
32.088
28.8716
0.983396
32.4198
0.979178
0.936709
32.3001
35.095
2.06134
32.1348
31.6213
32.0416
0.428963
4.93438
2.62601
32.6569
2.54708
0.705819
31.5918
0.690887
0.765322
0.473811
4.11272
31.6768
1.3234
0.434272
0.777813
0.703462
0.476564
3.97433
2.38237
32.2836
-0.0880491
0.502875
32.237
0.766274
32
31.8088
32.4316
32.0524
32.2084
3.73075
31.9334
0.697001
2.97302
32.4758
2.97355
32.0365
0.505291
32.1075
3.90649
31.2309
2.46314
3.87707
4.06084
0.811647
0.500076
2.55072
0.46887
0.85204
14.2695
0.785779
1.6258
0.857178
32.4684
1.53906
4.14437
0.818675
2.28522
4.0563
32.4573
28.4395
32.0654
2.59033
32.1909
26.0818
0.504299
33.7335
3.18391
32.0602
32.3344
31.7229
1.64584
2.8105
0.839276
3.83427
0.452591
1.39578
1.38528
1.66339
0.554738
1.36343
1.39925
32.2851
31.7672
32.4876
2.05969
1.50554
31.561
31.7206
26.4947
1.43723
0.574759
32.1689
1.39935
32.3141
3.4295
2.61261
3.90764
32.2353
32.2932
1.62132
32.2566
3.35999
0.770952
30.812
1.84925
2.29453
0.358866
32.0579
3.89191
29.1696
3.16247
2.62045
32.2471
32.4775
0.746231
24.1568
32.4899
0.979102
0.421866
32.2824
32.0058
28.988
1.33844
26.4694
2.05484
3.60546
3.19858
32.291
29.0331
3.5553
32.2919
31.8474
32.3615
32.203
29.3993
31.4443
30.9077
32.0895
32.012
30.3053
33.7344
31.1547
3.38975
31.1821
28.0958
26.7911
35.5014
28.5339
32.2937
3.61866
30.3033
31.387
3.71281
33.0842
34.3491
31.9101
3.61692
33.6388
3.64113
3.86874
3.22151
29.8214
32.1753
3.66055
3.43298
31.893
32.4431
2.05298
29.5384
2.0325
29.2826
31.7897
31.6509
2.03846
2.03599
32.3326
2.8924
32.3464
30.2941
3.83086
1.16646
3.62779
31.9885
2.04011
29.7317
3.0641
31.6725
32.0676
31.616
28.9166
1.13753
1.34318
32.4036
2.15902
32.1127
32.1624
32.109
32.2025
3.42892
3.38963
1.35447
4.75881
32.3737
2.59965
2.09215
1.06931
3.40893
32.1528
1.09458
3.49868
1.79118
3.53822
1.95593
32.2111
2.37956
3.47926
2.05089
3.51049
3.59841
32.1505
3.65679
31.6639
32.3163
1.7224
32.4202
2.62479
32.3444
32.255
31.163
32.0893
32.4336
3.42418
32.068
2.90332
29.9226
31.8889
2.50553
3.42936
1.43644
2.81391
32.4808
7.31422
32.4057
3.09568
32.259
2.49402
3.39306
3.5023
3.14812
32.3449
32.3693
32.0324
1.17477
31.925
32.0711
1.16939
31.4314
31.5809
3.54438
32.3414
1.92342
3.51273
29.7554
30.6416
30.4279
1.31905
2.18998
32.1926
0.0571066
3.0045
29.2174
3.55432
32.3659
1.17705
2.57096
1.08286
32.1787
2.69653
1.43853
3.64499
3.44745
2.96558
32.2492
32.2692
4.21666
32.0972
31.6684
32.3208
1.16789
3.56442
1.5288
2.19426
28.7783
2.6587
2.06049
2.20299
2.40425
2.71162
3.2784
2.93777
31.7202
31.7112
31.7109
3.00214
31.8803
2.97333
23.2064
2.91218
2.89054
1.16048
0.606922
31.5863
32.3374
2.92328
2.90408
32.3528
31.7335
32.4931
1.27765
2.89287
3.0129
3.04041
0.373085
2.05617
32.1174
32.4142
32.287
0.393159
1.96358
0.0505003
2.26955
1.34598
3.06084
31.8888
32.2836
26.938
31.6003
0.397472
2.66985
32.2466
32.1566
32.2354
32.4736
32.3699
31.4097
3.13402
32.1647
3.71156
4.41948
31.5665
3.08514
0.174792
1.22229
32.524
31.5839
3.11701
32.2531
3.12914
0.828254
1.34109
31.2383
25.2854
31.6842
32.169
32.1051
31.0188
12.1254
32.1035
3.21085
1.52995
32.2987
32.2803
3.20056
32.1287
31.813
1.81036
4.01339
32.0482
32.0418
31.3021
0.744458
32.2593
32.2652
8.88465
3.15859
3.21262
32.1795
31.56
29.6197
3.19541
3.17534
3.18833
2.30853
31.636
0.680573
0.150157
0.174606
31.805
32.418
32.2851
32.2928
32.2603
1.81492
1.86289
1.50147
32.534
32.3638
32.2528
32.3277
31.6166
3.81424
0.570005
0.111913
31.5093
32.2407
32.6595
1.50943
3.54319
4.01741
31.8267
-2.00305
33.2569
31.9307
32.267
1.82134
2.04621
32.1007
32.1334
2.43446
32.2761
1.33196
1.6894
14.272
32.0818
31.626
1.36318
3.77022
32.0819
13.6151
0.360082
2.677
32.1643
32.1184
32.4949
32.3172
0.43336
0.982185
32.1223
3.81384
3.35853
5.57244
32.1954
32.1125
32.0997
32.123
2.71027
33.7049
32.2023
31.6549
0.669566
2.94628
0.825884
31.9025
32.4332
3.38193
31.1014
32.2788
32.1295
32.1644
1.93431
31.3632
31.5457
31.5965
0.825278
2.02411
32.1006
32.3931
32.0035
2.31503
32.8983
32.0567
32.0132
32.4082
32.3733
4.08404
2.68812
32.6544
2.14032
2.67156
1.87423
32.5013
32.4593
32.2464
32.3256
31.5765
2.50268
32.1992
30.2516
30.392
3.36703
31.16
3.32427
32.2623
31.8818
4.02296
5.87973
29.3741
3.41122
32.1944
3.39373
33.0969
32.1237
32.2768
36.1816
32.1098
3.79334
32.0757
2.22258
31.9163
29.0107
32.3926
32.0944
0.756921
3.25352
31.7025
13.9996
32.0189
3.24278
3.77086
3.16981
32.0445
3.53669
3.05735
3.7759
2.72856
2.79647
3.08776
31.303
31.6067
2.41725
1.16519
3.13137
32.1502
31.0191
27.0777
16.1475
32.4926
31.5295
32.4003
32.4668
32.5146
33.4271
3.16576
3.90843
1.5173
28.7914
4.07878
32.3994
2.54493
32.2876
32.5209
31.7925
31.3908
3.80448
31.3425
32.0133
32.192
2.20149
32.2012
32.3367
3.91856
32.1083
24.6943
21.8864
20.743
32.4746
21.4953
20.9245
21.32
23.7121
31.6197
31.621
2.17251
3.22955
29.0961
29.4274
31.6527
2.18012
33.0542
31.7417
3.78042
32.1359
32.2497
3.37204
3.89744
32.3764
31.5471
4.31729
29.014
31.4375
3.51717
2.35375
2.40834
31.7775
2.37731
32.4345
1.47014
3.38963
2.33835
32.2087
3.40234
2.36843
32.2844
1.20933
32.0284
2.2131
30.7559
2.25548
31.7622
3.74662
32.0726
31.2901
31.9076
-0.320551
-0.289268
32.4765
2.39571
3.94103
32.6721
32.2013
1.75404
0.178451
4.32512
32.4988
2.49391
2.43578
3.94656
1.88274
32.5121
4.17089
31.6276
4.06916
32.2893
-1.15431
-2.09072
31.9915
1.56493
31.6506
3.90465
31.7049
32.0062
32.1341
32.3582
32.0373
32.2388
3.22695
1.87469
4.03233
32.1099
26.6298
4.05762
32.1207
32.36
32.1412
32.4541
32.1745
0.135643
32.2073
32.4224
31.6025
0.111101
32.0278
31.7396
30.8059
0.452817
31.7879
0.352001
2.15199
3.01711
0.439728
0.29178
33.159
32.111
32.2189
0.551139
0.847144
31.1787
26.503
0.41206
32.3296
32.4395
4.08068
32.0215
2.41907
32.0929
0.329007
3.8653
32.1185
31.6131
32.0921
32.4051
32.3168
3.98579
32.0893
0.422094
32.2662
32.1766
0.906741
31.8967
2.53903
31.6353
32.3339
3.26317
1.5711
4.18032
32.4017
32.4103
32.232
1.58045
4.10447
32.2769
31.7336
31.1777
0.995207
32.0681
2.58594
4.11893
32.1633
32.1065
0.9747
32.2635
31.163
31.7871
32.2573
31.8472
4.05863
26.19
31.5527
32.3733
26.7636
32.1114
27.5307
31.945
32.0549
31.767
1.55426
31.9735
0.957359
31.9071
32.088
4.60323
1.01076
32.0532
32.0952
32.1165
0.97956
28.2385
32.1995
31.4995
32.1004
1.06916
32.0586
4.03684
32.4955
3.03572
28.9534
3.6068
32.0876
32.3129
2.9309
27.6558
32.1066
0.837263
2.98971
32.5245
32.4019
3.23166
3.60395
1.00264
0.940416
0.940168
3.26968
1.00402
3.71651
32.2605
4.00487
26.6631
26.279
32.1848
32.0003
32.3042
0.980163
32.477
32.4854
32.463
3.92522
3.68375
25.5986
3.34422
32.4266
3.49633
31.4357
3.9757
1.10349
26.911
3.01965
32.0006
31.95
31.7104
1.11879
3.05322
32.2281
31.8206
1.07997
32.3975
4.24938
32.4395
4.15533
32.272
31.7082
32.3766
31.6986
0.893274
31.6985
5.88675
31.9159
3.15407
32.1809
32.1177
19.9986
18.8983
32.1787
32.1319
32.2872
32.4259
3.00779
4.19965
23.0828
32.3923
3.08006
31.6443
31.9062
3.33101
2.37048
4.07891
31.7196
0.613117
3.21529
1.6575
2.50014
32.2979
32.5117
32.5267
32.4177
31.7272
31.7007
31.7023
31.9278
31.7197
31.7027
32.2579
31.691
4.08165
31.7078
32.1101
34.7389
32.4133
32.188
14.307
31.6386
32.1416
2.46154
4.28213
31.9617
32.4195
32.2543
2.21527
32.1213
32.2449
4.19563
31.8079
32.0941
32.3145
32.3781
3.9811
31.7687
4.16987
32.3886
32.2775
32.147
32.1883
32.1156
4.2274
4.1281
1.2582
32.4197
31.4935
32.56
4.19901
32.0852
4.11873
4.33021
31.7849
32.1179
25.5739
3.3339
31.9864
29.2924
3.37488
25.8686
3.35158
31.9972
3.76901
25.7469
24.1272
32.2605
2.97394
31.8196
2.95791
3.93917
32.0878
3.00554
3.70859
32.2704
3.92555
31.5844
32.0132
32.079
31.9894
31.9574
31.6827
32.0851
32.4647
4.09465
29.6034
32.211
32.3133
32.061
32.0525
2.2209
18.8736
4.22315
3.90053
32.0912
2.88663
2.84904
32.2324
29.2301
31.9672
31.9811
32.1084
32.3062
27.2727
29.7801
3.44936
32.175
32.4922
25.826
27.6567
31.7372
2.93429
32.0107
31.554
32.4044
4.05352
32.4716
31.6439
3.28297
31.7811
31.8885
31.8688
32.6623
3.30842
32.1811
32.1565
32.1284
32.1372
3.49762
4.11372
4.1283
2.95591
3.67662
3.65771
31.8236
27.6665
4.21818
3.58799
27.6319
4.22271
32.365
1.09565
31.5588
4.05985
32.2188
31.5475
3.68941
-0.0438871
32.0735
3.57936
32.2128
32.309
4.04113
3.97435
32.4115
31.6776
32.1786
31.7194
32.112
28.4129
32.4193
32.2937
3.55671
32.4249
32.254
32.1838
3.72012
32.1338
28.5514
31.7577
31.6684
30.2931
28.945
3.71796
31.5203
28.9925
2.22574
32.3793
3.53845
3.57405
32.1255
2.29093
32.2723
30.8421
32.5648
28.5262
31.9286
32.4105
32.4878
32.4966
2.31616
32.4435
32.343
32.4312
31.7837
32.2012
31.9467
4.05529
32.2629
32.3986
3.92049
32.2314
31.7403
32.0353
2.34415
32.167
3.77082
28.2141
3.51284
0.325761
31.7077
27.6506
2.23116
26.7253
31.7124
4.01607
3.44862
0.0134027
3.80032
3.9307
0.780978
32.0324
31.4996
2.78586
4.13618
4.04473
2.72493
3.549
31.8909
0.555952
2.73615
2.76068
32.0471
2.7673
0.482761
1.64764
2.63571
4.04896
2.79313
0.73198
2.5475
0.0970414
1.24076
2.65143
28.6041
0.390079
0.048969
2.958
3.39457
0.211211
2.64456
0.141121
29.1606
4.15318
28.9802
1.51847
2.79963
3.36887
2.10592
28.9414
31.7219
2.58908
2.13266
4.04437
4.1246
0.790335
2.76506
21.5065
2.81263
32.2628
4.85791
4.13317
3.81369
1.67201
4.06551
4.02781
3.18431
1.98627
1.89446
1.53871
2.78591
0.556115
26.1361
23.3465
2.7907
32.1227
32.2584
2.65447
2.75188
0.291755
32.1408
3.79856
3.97279
1.96475
24.1181
32.2571
3.84302
0.0785053
4.11838
32.5136
0.790804
32.3224
2.09455
3.14511
3.70347
3.7426
32.1237
32.2816
4.08411
2.73716
2.78526
32.2595
2.20331
2.75872
3.38222
31.8116
1.99728
0.243177
28.9322
1.65515
-0.0615445
3.94758
31.3598
3.90387
4.45597
32.2748
3.33936
0.365841
9.88202
3.32889
3.41299
0.678298
3.02598
3.32144
0.229702
3.77281
3.94207
3.20799
0.616763
2.81403
4.06467
2.14114
3.38723
1.3093
2.66372
4.11365
0.747358
32.2967
3.38686
3.34326
4.04811
0.927655
3.82277
31.5656
3.36241
1.6568
32.2911
3.76328
0.0282929
3.37512
3.2753
0.462401
-0.0779389
2.96318
3.22864
3.88176
32.3039
32.2531
3.93232
31.9862
3.95316
3.97964
31.4009
0.474421
3.43764
2.03683
32.4307
1.66447
1.86153
3.82078
4.04472
1.81442
0.847056
2.22287
3.63831
32.2589
32.0062
4.09404
3.55851
3.77553
2.35835
32.0055
3.59654
3.21865
31.3917
2.17635
2.80743
-0.0791006
4.04833
3.70547
3.05648
0.778591
2.52832
32.0113
3.41369
1.74788
3.22344
4.09254
32.0117
3.76265
32.4718
32.2261
1.86953
3.11578
2.02497
5.31723
3.79351
9.84895
31.7582
3.06277
3.26906
2.30491
2.05844
32.1114
32.0446
32.0008
2.06444
2.08575
4.00832
1.63759
31.1366
32.0321
2.03358
2.28166
3.77316
2.08108
2.05191
2.55917
3.6392
19.8337
31.6216
3.10226
0.281237
32.0258
2.85903
2.46632
4.59153
3.11506
2.40909
3.94106
32.0292
2.13161
2.51547
31.9647
31.1977
0.259392
0.459842
0.9066
0.41311
2.46754
2.54129
0.734758
1.66254
2.32952
0.395172
32.0039
31.9704
0.0479606
0.495119
2.41613
4.34675
2.41276
2.3041
3.20401
2.03462
2.38951
31.6774
31.9917
4.29145
31.9901
28.4235
2.57057
1.6535
2.46301
4.22655
29.7763
3.73866
4.42251
30.2542
4.36019
4.01188
2.39635
2.41789
0.227754
2.78184
4.00246
0.460895
32.2382
30.0615
4.00641
0.843484
2.04716
0.856457
3.67626
3.52934
4.06068
30.1514
2.56825
0.730537
2.19829
4.28061
3.7085
3.99888
4.018
2.50413
0.643913
29.7726
3.49408
2.47593
14.5968
28.5051
26.6123
2.27531
27.9653
0.164648
2.2236
2.0483
2.78739
3.84338
22.2969
15.4273
32.8409
28.008
3.91833
31.7063
31.7062
0.658365
32.2375
1.65922
2.12265
1.92296
1.53928
1.62964
2.79194
26.6322
0.819171
0.392386
3.49027
2.63279
1.55478
2.50783
31.736
4.01958
1.53596
2.93433
31.7129
3.30555
2.57141
31.7079
32.0698
3.74651
1.50583
32.4747
2.94226
2.67256
3.73758
32.3797
31.6999
0.302275
3.97962
2.79678
31.7196
31.8805
31.7073
3.16638
13.694
12.8439
0.994616
3.45591
32.5136
1.06944
3.52963
2.2894
0.344352
0.26882
1.13788
3.26134
0.359641
32.2005
1.11389
0.703528
0.14335
1.85946
0.476018
0.516879
0.454843
0.507771
0.200019
3.94633
3.60051
2.50598
3.79158
4.06209
3.33839
0.473083
3.64136
0.532535
0.176507
1.38439
0.914463
3.83496
0.88568
3.6644
0.976112
30.8537
2.53464
18.0709
1.89531
2.75113
31.9709
3.35933
30.8599
2.87461
30.9606
32.0765
2.10759
3.40724
28.6729
0.815952
2.10682
3.42888
32.0373
32.405
4.11976
1.13887
4.12451
1.88321
0.715069
3.333
4.14482
3.21298
3.3828
27.1945
2.51135
31.7473
32.0704
1.47699
1.08751
4.25669
1.44518
0.968501
3.40902
3.48424
31.6859
4.04688
0.949941
3.35143
31.7186
32.4788
2.51111
2.90331
25.9871
3.84433
0.179312
2.99449
-0.222019
0.820069
1.92861
32.0751
20.6483
1.5569
4.0389
32.2603
1.50522
3.82607
3.10023
4.52965
1.5198
4.41009
2.50869
4.00094
21.7538
4.06558
32.1757
2.87236
3.41274
0.784709
0.0871527
27.7557
0.101955
4.02741
3.26855
3.81104
30.4998
31.7035
1.64201
4.01711
3.29024
2.85389
3.81553
1.16975
0.247172
2.17636
0.380097
0.234918
3.83182
29.3249
4.13571
3.18278
0.0309564
3.75639
29.9897
31.5975
-3.07076
4.15996
33.1867
4.08658
3.52773
30.1977
22.3229
23.5963
3.4025
1.51452
5.45105
24.9515
3.69972
1.73478
31.0473
1.14675
28.5299
3.08253
1.20466
31.9792
0.220693
3.82501
3.81171
1.09628
31.6489
3.84539
3.61263
3.934
3.83993
4.00624
4.04032
3.52039
4.19212
3.59211
0.639874
1.53124
32.0624
27.3169
27.3922
31.4485
3.26647
1.77993
1.58287
3.70942
0.918147
1.59984
2.98704
3.43321
3.29072
1.1685
3.54998
3.64585
3.15212
0.887575
32.199
3.74945
3.6794
3.3656
3.60334
31.0365
2.04268
2.06885
2.94675
2.83444
2.29936
31.5316
2.31414
2.28805
28.47
2.34884
3.18942
31.4429
2.26054
31.3897
32.0297
2.0262
3.30611
3.21516
2.28671
31.5883
0.459654
3.49478
32.0389
1.94564
2.37265
1.97642
3.27245
31.5304
3.41613
3.41194
3.09688
31.6432
1.74438
0.685004
3.1211
1.45081
1.76638
32.521
30.8586
29.4402
0.20753
29.9068
1.65161
1.35301
0.492251
32.1386
0.541403
31.495
32.1981
32.0129
1.97741
-0.00875878
4.02487
3.13935
1.78584
30.7203
28.5256
3.81395
3.72945
1.41122
3.94146
1.76399
3.42049
32.1929
24.5941
25.0469
31.6603
25.2841
0.12813
32.2532
1.69145
2.94372
1.79446
0.36729
2.06441
26.8721
1.31302
2.96638
3.43007
3.95257
27.0216
32.1696
3.49181
1.36847
3.87085
3.04551
4.09027
4.07001
3.82422
4.0613
1.15975
0.252924
1.13588
2.03151
1.06446
2.98359
3.17751
0.778083
1.0596
4.0476
2.80884
3.07074
1.49568
0.429671
0.763084
3.95016
32.0321
1.129
-2.13618
0.466676
0.301719
0.0999791
2.98632
2.35987
-2.78912
0.322174
4.18042
32.2107
1.67344
2.27254
2.44057
32.1092
1.80326
1.04846
0.339091
2.22631
32.5004
32.1883
3.21091
0.718239
0.6586
0.144713
31.8475
32.3054
31.8379
2.47959
2.97852
0.613843
32.3059
1.65265
32.1938
32.2638
0.35394
0.255254
31.5199
0.628017
0.652737
0.0396182
32.0023
32.3889
1.11235
2.98461
32.2237
0.557492
0.658508
0.302717
32.3972
32.4193
32.3111
0.288442
0.55767
3.8326
0.660039
31.9562
0.498371
2.79259
3.84115
3.56441
31.2934
32.1536
0.655212
3.99689
3.89834
2.11327
31.2959
4.04412
31.7443
0.772783
4.11407
2.81594
31.4774
29.4026
3.99822
4.22405
28.9123
29.0607
31.7606
1.98434
30.8545
27.842
2.92518
2.87277
31.7567
28.5148
2.52826
0.665375
0.604835
1.98229
1.682
28.9314
3.00934
26.8993
26.3306
32.1248
2.06542
3.33351
0.566975
26.4715
33.9781
2.93018
4.11488
3.11995
3.33702
2.64671
2.34486
2.60867
0.717688
26.0483
2.80827
2.05248
0.70572
1.97697
3.27184
20.0326
1.90317
1.91627
1.91893
1.91232
0.712576
25.3584
29.6886
2.22108
29.874
30.2165
2.66993
29.9434
1.65715
29.3405
29.6527
31.5589
28.6303
2.12117
0.748393
2.11879
29.2649
1.07168
2.01535
2.72592
29.6851
32.2951
2.15299
2.25201
4.05336
2.15105
28.5176
0.0564835
0.601685
0.434594
31.5875
31.7284
1.31394
1.0799
31.8324
29.7869
3.71125
0.0566861
29.2156
4.0464
3.66167
3.69953
2.34648
29.5014
2.62045
8.35863
0.359223
0.377008
3.78767
3.64282
3.46581
1.47573
2.72791
28.914
3.01535
2.72148
4.02488
3.93774
3.71828
29.6074
1.83424
2.76716
1.59791
2.31401
2.72245
3.96649
0.638027
3.81828
3.51135
3.75559
1.1691
3.76538
3.98095
2.67594
3.27313
32.2746
3.31914
32.4965
2.64129
2.76883
3.75445
3.87689
3.73433
2.66746
2.68771
3.96285
2.12292
0.792648
31.5337
25.0357
3.89602
3.91977
3.15745
3.96383
4.15344
3.93034
4.17584
4.47131
25.9396
0.746637
4.54668
-1.53099
26.8271
0.191275
25.1723
2.063
2.64693
3.66022
1.92336
32.0342
2.61398
3.99166
-0.716884
31.7178
4.09444
0.668245
3.49793
4.08798
4.12719
25.4156
31.6916
1.93731
2.83952
1.56616
2.83993
2.56279
2.83848
4.25852
27.7044
0.304068
26.855
2.98256
0.672208
3.04859
32.3679
23.3785
3.93628
2.87544
2.10086
3.03116
31.7115
3.06576
3.05851
0.289587
3.05018
14.5039
9.31467
3.13842
32.199
31.6248
1.89302
14.1608
3.87347
32.4025
1.44513
32.0809
1.74134
31.9536
0.932643
3.84744
3.54187
3.02962
3.20202
2.76362
3.61941
4.04009
0.323002
3.63719
1.77267
3.61754
30.8266
1.07055
31.5554
3.2316
3.26234
2.57988
2.32175
3.1774
0.507952
2.04426
3.09408
3.11037
3.67833
3.64537
4.05676
32.5753
3.11355
0.797818
2.09576
0.730074
3.1563
1.8762
1.07039
4.17955
2.85424
2.27091
2.8575
1.81907
3.23373
2.61979
31.6107
31.5891
2.74108
2.84577
3.4849
31.7724
1.03171
0.327126
2.73141
2.06387
1.33591
2.18733
1.85279
2.85678
0.0689611
1.6838
3.63055
1.41341
2.43982
2.22435
2.03123
3.65924
3.19525
1.40101
4.0753
3.00398
3.14412
1.20055
3.32796
2.24728
1.60544
0.642902
2.15595
2.80934
1.35703
1.078
31.4799
3.28904
2.82069
3.11778
13.8257
3.29753
26.9807
1.92176
3.21333
0.498987
3.48286
31.9998
3.20734
3.55707
-0.574807
3.37812
1.66316
3.60497
31.7036
2.24193
0.491544
3.5952
3.98417
2.75651
31.4393
31.7284
7.25785
29.8371
3.64303
32.1106
3.99101
7.30595
29.8214
30.0347
0.420854
30.4682
32.2599
3.61596
2.1559
32.5396
2.58719
1.9034
2.62321
-0.976226
32.2598
4.04041
3.61026
3.5113
5.23751
32.2586
4.22583
3.56079
3.88744
31.6939
2.20966
3.54964
32.0016
1.91074
32.2064
32.2783
4.03365
3.52356
32.3344
4.57692
4.15749
4.20098
4.11901
3.11591
4.08306
4.02429
3.23126
3.63683
32.4836
1.8542
0.686529
1.2488
0.21277
4.16067
0.655041
1.91968
32.3078
32.119
2.86249
4.08162
3.71077