/*--------------------------------*- C++ -*----------------------------------*\
  =========                 |
  \\      /  F ield         | OpenFOAM: The Open Source CFD Toolbox
   \\    /   O peration     | Website:  https://openfoam.org
    \\  /    A nd           | Version:  10
     \\/     M anipulation  |
\*---------------------------------------------------------------------------*/
FoamFile
{
    format      ascii;
    class       volScalarField;
    location    "4.4";
    object      SgRate;
}
// * * * * * * * * * * * * * * * * * * * * * * * * * * * * * * * * * * * * * //

dimensions      [1 -1 -3 -1 0 0 0];

internalField   nonuniform List<scalar> 
111485
(
3.86665e-17
1.02056e-05
2.68985e-05
1.83104e-17
5.69882e-05
8.61442e-19
5.22517e-05
7.24148e-06
2.20215e-05
1.30047e-06
5.20697e-05
1.12066e-05
5.27821e-06
7.69542e-07
7.29691e-06
3.72087e-05
2.25676e-06
0.00297705
1.22439e-05
2.91943e-16
4.69579e-17
8.53375e-19
3.02474e-05
4.17592e-05
1.03679e-05
5.64448e-18
4.85823e-05
2.21651e-06
1.96529e-05
6.7993e-19
5.35495e-05
2.05301e-05
1.96925e-16
5.75034e-19
9.64221e-06
4.65004e-17
1.2881e-05
4.49003e-06
5.98121e-11
2.66203e-05
6.14203e-19
8.50847e-05
1.85748e-05
1.52534e-06
5.63184e-08
6.87316e-18
3.75859e-05
8.55852e-07
5.68772e-05
6.32633e-18
2.68749e-17
1.13373e-16
5.19502e-18
5.67817e-05
2.32797e-17
5.21753e-05
4.13521e-06
3.53094e-18
2.7917e-08
5.68129e-06
1.90767e-05
4.61025e-18
4.98088e-06
0.000110915
3.60332e-17
4.19195e-06
0.000372328
0.000114542
1.12538e-06
6.79427e-06
1.08225e-08
7.09263e-06
2.02413e-17
3.03491e-06
2.16458e-16
8.96303e-07
1.7712e-18
4.98677e-05
1.35015e-18
1.58008e-16
1.47249e-08
3.97408e-05
1.06627e-19
9.25337e-17
1.02107e-05
5.04884e-06
5.2006e-13
2.85899e-05
6.28965e-08
7.94686e-06
5.41004e-07
4.85672e-05
1.28734e-05
8.94926e-08
6.51044e-05
2.29823e-17
2.6187e-17
1.92868e-06
2.10459e-11
1.56869e-06
3.98517e-17
2.30615e-05
3.68203e-19
2.37104e-05
5.53454e-06
3.19489e-17
2.44451e-19
9.36324e-06
4.39775e-06
1.07354e-10
1.04359e-05
5.99961e-06
4.08455e-06
3.52788e-06
1.3072e-16
4.01634e-08
1.50045e-17
3.95552e-17
1.39758e-05
1.33785e-16
7.11712e-18
9.97296e-17
4.04067e-19
4.31842e-18
2.18233e-06
3.15975e-09
7.48961e-18
1.98277e-06
3.7054e-18
8.38963e-08
1.41723e-06
3.64009e-05
1.03498e-17
4.19185e-16
4.79272e-17
5.91962e-05
3.10233e-18
4.96827e-05
2.82839e-05
2.91851e-06
2.4766e-07
2.35492e-06
2.60322e-05
3.54058e-06
4.52369e-06
1.45273e-05
1.45388e-18
4.09993e-17
6.75218e-18
3.22359e-05
2.12498e-06
2.96019e-17
2.05696e-10
6.12076e-06
5.8779e-10
1.26784e-05
1.94217e-05
1.23975e-05
1.10311e-10
7.63965e-18
1.83698e-17
6.32951e-05
2.88674e-05
3.16666e-09
3.71295e-10
5.86087e-06
4.41167e-06
4.19206e-18
7.45652e-09
6.41174e-08
4.47816e-19
3.41246e-17
1.67877e-07
4.37521e-19
8.50071e-06
2.71979e-06
2.64496e-18
1.84278e-17
5.40775e-18
1.20333e-16
6.84928e-18
3.29074e-18
1.64291e-06
8.11793e-06
3.45208e-05
5.25021e-06
8.43598e-06
4.07922e-06
1.04815e-07
7.78383e-18
4.71423e-06
6.30413e-18
5.8151e-18
6.88692e-06
1.27072e-05
3.06098e-05
1.33871e-05
4.54212e-06
3.44767e-17
7.63605e-06
7.04923e-07
5.41052e-08
1.51613e-05
2.74805e-06
5.51581e-17
4.10765e-06
3.1917e-05
2.13299e-17
2.34729e-07
8.83729e-06
2.72284e-06
3.99044e-07
1.04073e-17
1.51094e-16
8.34346e-06
8.87314e-15
0.000144892
5.65895e-18
7.04054e-06
2.26976e-05
0.000144719
3.09567e-18
3.1499e-06
1.6108e-05
3.12178e-16
5.32932e-19
4.36159e-19
0.00019068
4.39976e-10
6.00496e-17
2.13324e-18
1.03085e-05
1.08842e-05
1.86165e-05
3.27833e-17
2.31139e-17
1.30888e-08
8.36534e-18
2.97608e-06
1.0125e-05
1.77674e-05
1.2267e-05
1.11151e-05
3.14141e-18
3.50156e-10
6.86751e-07
1.5157e-18
6.18515e-18
3.64987e-05
2.57643e-05
1.30112e-17
6.72049e-06
1.17171e-05
8.59508e-18
2.83797e-16
1.71159e-07
6.9282e-19
1.07004e-17
4.74465e-08
2.3318e-17
1.79742e-05
1.32815e-05
4.16886e-06
1.0442e-17
1.29791e-05
3.28899e-18
2.22341e-17
4.56184e-17
3.07434e-11
2.71806e-05
6.61452e-06
6.03667e-06
4.47633e-05
1.35462e-05
1.89881e-06
7.07493e-07
4.12513e-05
1.14726e-05
9.59176e-18
7.37721e-17
3.50075e-10
2.62121e-05
2.84551e-05
1.47321e-05
8.33066e-18
7.98021e-06
2.53544e-06
3.39624e-06
4.61432e-09
4.63786e-09
1.55717e-05
2.46362e-06
2.23271e-06
8.91502e-18
9.12353e-07
1.94199e-18
1.98951e-10
2.31677e-16
0.000307349
8.25942e-05
1.54363e-05
2.34052e-17
4.27253e-18
1.02096e-05
2.3692e-06
3.95325e-17
1.6029e-17
7.15009e-17
4.54264e-07
7.73451e-05
4.39505e-06
1.76577e-05
2.29437e-05
4.44745e-17
1.62892e-18
2.58286e-17
4.22274e-06
1.43471e-15
1.24694e-06
0.000226438
5.23821e-10
1.15638e-18
3.38741e-17
2.29676e-17
4.46188e-16
7.06257e-05
1.46808e-05
2.89477e-18
6.15532e-06
1.50185e-16
5.54009e-18
8.07307e-05
6.81969e-06
1.33123e-05
1.03653e-05
2.26964e-16
2.27252e-16
3.24089e-18
1.08619e-05
2.00444e-05
5.73823e-06
2.22724e-18
2.25523e-13
2.27546e-07
2.21318e-06
9.15469e-06
5.52174e-08
3.42905e-05
1.09045e-18
4.50705e-05
3.97516e-06
9.16673e-06
2.86834e-05
1.6621e-05
7.70466e-19
2.52267e-16
9.04372e-19
2.68741e-17
3.82883e-05
1.09465e-05
4.28843e-05
8.10409e-05
1.827e-18
2.33235e-05
1.07692e-18
9.79083e-17
1.91489e-05
1.71276e-17
6.77695e-05
7.05525e-18
3.32699e-18
2.78442e-05
1.83137e-18
1.78732e-05
4.06887e-07
2.98596e-20
1.27899e-06
1.87927e-05
2.1923e-17
9.57179e-06
1.22345e-05
9.14757e-06
6.61886e-07
3.85637e-06
8.69208e-06
2.90161e-16
1.80342e-17
1.88639e-06
1.30739e-17
6.71398e-06
0.000137295
2.64072e-17
8.76054e-18
3.17742e-05
1.35895e-07
8.8604e-06
2.62744e-05
1.03058e-18
5.06576e-05
2.33911e-05
1.53633e-18
9.15076e-07
3.18573e-06
1.00769e-16
2.5494e-17
1.54189e-05
5.97086e-06
6.46646e-19
9.77066e-19
2.36447e-11
2.94922e-17
1.379e-05
5.3536e-18
6.98647e-17
2.08539e-05
2.41014e-09
1.58304e-05
3.38281e-05
1.7923e-18
8.30829e-17
1.495e-06
3.32387e-17
1.57443e-07
1.50291e-05
0.000145414
0.00106023
4.36212e-18
3.17221e-06
4.37166e-07
1.86198e-16
4.43633e-05
3.93047e-05
2.55111e-18
1.09311e-11
1.20501e-07
1.22368e-16
2.98562e-05
3.06992e-05
1.60591e-05
7.60311e-19
6.98569e-07
2.28213e-05
2.6491e-05
9.93516e-10
1.06407e-16
6.16413e-13
1.46627e-17
1.83008e-08
3.89984e-05
3.92961e-18
1.09203e-05
1.00182e-07
1.21817e-16
1.05319e-18
2.42873e-17
7.49557e-17
4.82066e-06
1.16904e-05
7.95775e-06
2.81157e-06
3.71726e-06
2.61777e-19
2.67692e-06
8.87262e-17
4.5936e-05
4.36936e-18
3.06127e-17
9.73097e-18
4.1085e-05
3.00734e-17
1.76238e-18
2.98672e-10
2.96971e-17
3.07854e-19
1.16388e-06
1.11992e-17
1.27926e-16
7.20177e-18
1.36086e-17
1.06108e-16
5.29108e-17
6.31674e-19
9.24664e-06
5.68643e-18
5.2888e-07
2.16476e-06
1.49517e-06
1.00681e-17
8.71601e-07
3.21263e-18
1.9307e-17
3.36622e-06
2.24998e-06
3.37167e-05
2.82026e-05
1.42773e-17
2.39623e-06
9.20331e-05
1.06194e-05
1.35762e-06
3.96872e-06
1.88111e-16
2.78129e-05
1.88064e-16
5.42368e-06
3.03328e-18
8.69352e-05
1.58424e-16
2.64687e-05
3.09421e-07
2.36545e-10
2.7699e-18
2.75988e-06
1.70448e-17
9.56621e-05
5.61163e-05
1.51463e-18
1.24984e-18
1.07513e-16
7.16829e-19
1.55262e-12
6.59113e-05
3.89299e-18
5.73596e-18
3.34278e-06
1.72307e-18
3.83293e-05
2.45206e-18
4.07146e-07
3.14815e-17
6.40269e-07
1.11045e-09
1.33942e-06
1.53881e-05
5.34356e-18
3.53609e-07
1.83845e-17
9.20784e-19
1.86833e-05
1.2021e-17
4.04904e-08
4.74469e-17
1.81569e-06
8.91332e-17
7.80629e-05
1.28121e-17
7.6439e-17
1.85834e-05
4.17863e-06
1.94028e-06
4.85497e-06
7.52428e-06
2.53339e-05
1.21883e-19
2.71907e-05
7.86661e-06
1.96003e-19
9.57995e-11
4.38491e-05
1.63895e-05
1.31907e-16
5.50097e-06
7.3413e-06
1.80454e-06
1.46473e-06
2.581e-13
1.64779e-05
1.24118e-06
1.92299e-07
3.05228e-05
1.73234e-05
9.5807e-07
2.75958e-17
3.65614e-12
0.000762066
7.01618e-17
4.8858e-07
1.25705e-18
2.63657e-16
8.75134e-06
3.81006e-06
2.17123e-10
1.40204e-08
4.257e-16
2.09022e-05
1.3035e-05
3.14486e-18
9.79458e-14
2.42099e-06
8.76551e-18
3.94979e-18
1.08435e-18
3.07717e-17
1.75012e-05
1.84611e-18
7.90606e-17
1.12771e-05
3.05897e-06
1.20131e-16
1.20566e-05
4.9428e-17
9.96497e-06
1.2111e-17
2.37968e-18
6.63832e-05
7.38029e-19
2.99586e-17
4.41352e-16
6.04479e-06
2.09419e-16
3.75436e-05
7.9066e-06
4.5318e-18
9.47662e-05
3.10627e-06
3.28091e-05
3.1558e-05
9.30571e-07
1.02852e-07
3.90352e-18
6.62901e-05
5.19121e-05
1.25502e-17
3.85412e-07
4.80501e-05
8.48924e-06
1.80795e-06
3.2352e-05
3.05703e-05
3.33724e-17
1.26678e-05
5.92783e-09
3.8464e-17
3.97333e-05
3.27249e-07
1.30709e-16
1.29579e-05
4.68972e-05
1.74124e-06
2.38896e-05
2.19195e-05
9.16582e-06
2.5509e-16
1.15129e-05
4.11052e-07
1.96704e-14
1.89238e-05
1.94482e-05
4.22562e-05
1.77576e-18
2.66364e-06
1.59637e-17
6.02434e-19
8.60963e-18
4.55132e-18
1.87718e-08
1.45837e-16
2.00892e-13
6.30887e-17
2.00502e-18
7.84712e-08
4.96798e-05
1.63155e-17
4.1767e-05
5.8989e-17
6.22924e-17
2.77803e-17
4.76455e-05
5.53422e-07
1.69005e-16
3.68757e-18
2.90776e-19
3.53662e-19
0.000269474
8.39458e-05
1.19313e-16
2.228e-06
3.59473e-09
8.0267e-18
4.33773e-05
8.90024e-06
1.6245e-05
9.93057e-19
9.31162e-19
4.44598e-07
1.28764e-06
1.51521e-16
1.43782e-17
6.93341e-17
7.98143e-06
8.18396e-18
1.8274e-16
2.44885e-18
4.8211e-05
2.23215e-06
7.20875e-19
0.0048987
0.000280517
1.36016e-05
8.39579e-19
3.01442e-17
6.78216e-05
4.24359e-07
6.72576e-17
7.83873e-09
0.000167909
3.2622e-06
1.43689e-05
1.87262e-16
6.69527e-05
2.05547e-06
4.7547e-18
5.01111e-18
7.19444e-19
5.6453e-19
2.09821e-18
7.59841e-19
2.48675e-05
3.78727e-17
1.78935e-18
8.42421e-17
1.40577e-05
2.82667e-05
2.623e-17
9.57049e-18
0.000126908
1.59929e-05
1.07357e-05
2.50292e-16
2.6859e-18
4.1981e-05
4.63196e-18
2.36267e-06
2.83998e-06
4.32859e-06
2.06044e-17
3.78663e-17
6.05824e-17
2.63938e-19
1.83197e-05
8.72923e-20
3.98812e-18
1.08402e-06
1.29071e-17
2.63963e-05
1.97362e-06
7.7061e-17
4.35529e-05
0.000586156
2.8581e-06
3.55072e-05
2.07084e-07
5.52732e-05
1.73559e-13
3.73943e-16
2.6812e-05
8.69294e-05
7.91251e-06
3.27893e-17
1.13077e-12
0.000795862
1.2723e-05
7.22548e-19
3.41829e-06
3.41159e-06
1.5795e-06
4.22705e-17
7.16515e-18
1.26082e-17
1.5296e-05
7.63341e-17
3.17168e-06
4.22584e-17
1.5318e-06
1.45577e-06
4.15414e-05
6.60022e-07
2.16617e-18
8.48261e-18
1.13842e-17
2.37713e-05
1.05016e-17
4.34629e-18
6.34494e-08
6.45391e-18
1.56969e-18
5.1706e-18
3.21773e-19
1.09793e-05
3.67396e-17
4.71052e-19
6.36911e-13
6.80206e-17
7.59989e-18
4.32065e-17
3.26318e-18
3.88431e-09
1.97521e-06
6.98585e-17
4.47258e-06
9.93525e-09
3.81809e-10
8.16929e-08
4.97652e-06
3.52704e-18
1.13711e-08
1.15713e-05
4.62746e-07
5.9212e-17
6.52827e-12
9.60134e-07
3.6663e-17
1.13531e-05
2.60865e-07
2.19961e-09
2.882e-05
1.07773e-05
2.67624e-06
8.11041e-06
2.6327e-06
9.01067e-18
6.46027e-18
3.43593e-05
3.03491e-05
9.31901e-18
8.55528e-06
6.55398e-05
3.61104e-05
9.85755e-17
1.70017e-06
3.06414e-18
1.3574e-05
1.74229e-05
2.15317e-17
1.56401e-06
6.59393e-07
1.57096e-09
5.04739e-06
1.892e-17
5.7835e-05
1.97585e-08
2.03543e-06
4.29032e-08
1.62858e-08
2.65774e-19
8.74958e-19
9.23112e-06
5.62068e-20
1.30419e-07
3.45649e-07
1.70597e-07
6.26078e-11
9.02916e-11
1.2706e-09
1.25539e-18
2.05642e-16
2.65839e-05
5.94161e-17
6.187e-07
2.59748e-06
5.66039e-17
1.27941e-17
6.2482e-10
8.84419e-13
6.53683e-19
4.91121e-09
5.28456e-18
6.59077e-18
9.32025e-18
5.13618e-17
4.3883e-18
4.86089e-17
3.76377e-07
2.47101e-17
4.6745e-18
5.2877e-18
7.45932e-09
6.89071e-08
2.17591e-06
1.09819e-05
9.08157e-19
6.50916e-18
2.33742e-07
2.33474e-19
5.77613e-18
1.07124e-16
2.27314e-05
4.99263e-05
6.42348e-18
4.77657e-18
3.03901e-17
5.73873e-18
3.76464e-19
4.09414e-18
9.17659e-06
3.77208e-18
4.68927e-11
3.19121e-05
4.4805e-19
5.83588e-17
9.4666e-18
2.5212e-08
2.44463e-17
1.96324e-17
2.57682e-18
9.03377e-09
2.1196e-18
5.74295e-06
1.27304e-09
5.39866e-12
3.07792e-18
6.94964e-08
2.83075e-06
5.3066e-05
9.34506e-17
7.56551e-09
7.33649e-06
4.12074e-18
5.62499e-18
1.74105e-17
1.68972e-17
9.7375e-06
2.32877e-06
4.32309e-06
2.1007e-10
1.32973e-18
2.71312e-05
2.53669e-17
4.85341e-17
3.24322e-18
2.2939e-19
3.11643e-05
6.75804e-18
4.14825e-18
2.4553e-09
6.23906e-05
4.0452e-18
3.17201e-06
1.17593e-16
1.18548e-06
2.11364e-16
3.41564e-19
1.24102e-17
1.11241e-16
3.26892e-06
7.80958e-07
0.000403277
3.33115e-18
6.5634e-17
2.5149e-06
7.05619e-19
1.74143e-16
6.43305e-17
4.7323e-05
8.59779e-09
3.53767e-05
6.02153e-17
1.01495e-08
4.65489e-08
3.29866e-16
1.13535e-07
2.26635e-17
1.74903e-06
3.15136e-05
2.43014e-05
1.66556e-06
3.2382e-07
1.81618e-18
2.10002e-18
2.58504e-18
2.12333e-08
2.79683e-18
7.70116e-06
2.2858e-17
0.000212898
4.33896e-18
5.0308e-05
3.83893e-06
6.84217e-17
2.39048e-18
2.45865e-17
1.65246e-17
4.3558e-05
1.68511e-17
4.80622e-18
1.58626e-05
7.38206e-06
1.51971e-16
2.06625e-16
1.56798e-16
1.50305e-16
4.49742e-17
3.21065e-19
2.77717e-05
5.43126e-07
2.4194e-17
5.40298e-18
4.8667e-10
2.74042e-17
1.76272e-06
1.08043e-07
2.52742e-17
3.65965e-06
1.31729e-17
3.72401e-07
3.59295e-18
1.12083e-06
2.24906e-17
1.18058e-10
2.42932e-09
8.75873e-07
1.95266e-05
3.69604e-05
1.27684e-09
6.70959e-18
5.2161e-07
2.01022e-17
5.38137e-06
1.30288e-17
7.72817e-19
7.14712e-17
5.65738e-18
1.09421e-17
1.21407e-17
7.73054e-06
8.50497e-06
4.96549e-17
3.19101e-17
6.74272e-18
7.6525e-07
1.78949e-08
3.51434e-17
2.20821e-05
2.39331e-07
4.47182e-18
2.93181e-05
1.05841e-05
4.08165e-06
1.498e-05
1.18415e-18
1.62027e-17
3.29594e-18
2.64043e-19
4.38676e-05
1.32658e-17
0.000130067
2.60959e-20
3.08206e-07
8.69215e-07
6.32487e-19
9.5629e-07
3.50783e-18
4.4156e-19
3.15468e-06
3.05078e-11
8.88085e-06
1.10354e-18
9.29071e-18
1.57979e-18
8.66577e-07
6.96599e-18
2.12617e-17
6.21211e-17
4.39917e-10
1.11076e-16
1.07403e-08
2.95003e-17
2.83333e-17
6.07665e-18
2.25925e-05
1.45265e-05
2.15738e-05
4.18694e-05
4.39396e-17
1.42723e-08
3.55181e-19
2.32036e-18
1.31038e-05
1.43682e-17
3.04463e-09
3.57618e-07
8.01829e-06
3.65419e-07
1.08424e-12
2.61491e-06
2.48357e-18
1.08323e-12
8.49559e-13
1.28872e-07
1.14576e-06
1.73574e-05
8.09396e-11
1.54907e-16
3.67718e-05
9.81766e-18
1.66416e-17
2.34577e-08
8.85671e-05
8.75605e-11
1.70617e-18
4.9958e-19
4.50325e-10
1.4487e-17
1.00442e-18
1.67688e-08
1.15671e-17
2.71648e-17
4.91794e-05
2.14452e-07
1.65694e-07
2.77809e-05
8.77725e-06
9.7169e-18
6.50474e-19
1.12087e-08
5.02263e-06
3.75737e-19
4.97728e-18
1.25562e-05
3.59137e-17
6.83336e-18
1.59589e-16
1.76997e-16
4.2243e-16
0.00309165
7.59943e-19
2.41003e-07
3.9709e-18
2.19791e-05
2.51296e-18
1.55918e-15
1.56377e-16
5.89898e-17
3.47905e-18
3.10272e-18
3.87695e-06
6.29909e-19
5.27909e-18
1.06465e-16
3.21992e-18
1.1249e-18
6.05325e-18
1.19767e-05
9.17706e-19
1.34492e-05
3.23816e-06
3.56795e-18
1.90621e-06
2.80846e-18
5.21794e-07
2.12751e-09
5.48251e-06
1.84735e-05
9.81714e-18
1.11821e-07
1.02531e-05
8.19744e-09
7.91978e-17
2.10279e-09
2.1562e-05
4.19697e-06
1.14047e-16
2.93522e-05
8.1841e-17
6.32446e-19
8.24824e-18
8.17616e-19
8.80993e-06
3.06101e-18
5.1366e-18
9.09874e-06
1.68143e-10
2.18818e-06
3.40188e-19
6.68287e-17
7.76446e-07
1.01374e-18
1.17205e-07
5.51819e-18
2.78658e-05
9.22922e-18
9.49402e-18
6.46749e-08
2.09222e-17
1.42833e-07
9.68705e-17
5.11547e-18
6.69939e-06
4.90299e-07
6.20888e-06
1.99674e-05
0.000263006
2.40492e-05
2.00424e-18
4.43657e-16
3.03608e-06
7.96962e-06
4.33216e-05
1.44003e-05
9.33049e-19
1.42271e-05
9.59052e-19
1.56428e-17
9.88189e-06
1.21358e-05
2.10969e-17
1.56755e-05
2.48046e-18
3.70784e-06
9.92234e-06
4.10413e-17
6.72893e-20
1.80222e-18
3.06944e-06
4.49034e-19
2.38224e-18
4.56931e-06
2.5257e-05
4.70922e-09
9.79378e-06
2.62477e-18
1.0352e-18
8.71684e-08
8.85879e-07
8.3066e-18
1.13079e-05
2.87261e-16
2.83699e-06
9.76624e-18
1.74872e-17
1.3714e-05
4.49782e-18
4.97417e-08
3.85019e-06
3.49487e-18
2.21983e-19
4.66238e-06
3.42736e-14
6.39084e-05
1.40532e-16
0.000323476
2.24278e-17
5.50483e-17
5.64713e-18
8.1418e-06
1.12101e-16
2.41652e-17
6.28426e-06
5.91506e-17
2.55736e-07
1.45923e-16
3.46955e-17
1.5035e-17
1.61395e-10
8.79578e-07
1.90353e-20
3.22887e-18
4.26808e-05
1.07034e-06
1.14464e-17
5.72194e-07
9.36306e-19
1.33027e-17
1.65547e-09
3.56996e-06
1.22814e-06
8.01582e-18
2.93132e-19
1.08729e-18
6.46989e-19
1.27129e-17
1.81364e-17
4.05801e-18
1.42416e-18
9.0413e-18
1.82657e-18
1.48521e-19
4.22169e-17
1.20675e-18
4.503e-18
1.43855e-18
3.34545e-18
4.27578e-19
1.59718e-18
5.73838e-18
3.04561e-19
5.30956e-18
2.17867e-05
1.06737e-18
1.10735e-18
2.37297e-18
7.61329e-06
1.69485e-17
1.21821e-17
0.000285008
8.33387e-17
6.44089e-18
2.66163e-05
5.92107e-16
3.87119e-18
7.06147e-06
2.85886e-05
2.43949e-18
2.17966e-06
3.58982e-06
6.4795e-17
1.46103e-05
4.63061e-05
2.00645e-05
3.55384e-06
1.17473e-05
8.03311e-17
2.47176e-17
3.52786e-06
1.27482e-05
3.36869e-06
2.66177e-18
7.08132e-06
1.90023e-06
2.33694e-05
1.31983e-05
5.22803e-07
1.68395e-05
1.89156e-06
1.10186e-05
2.2646e-17
3.09631e-05
9.43185e-06
2.13544e-06
1.51614e-06
3.62435e-18
3.84816e-19
4.68765e-19
3.92802e-17
4.60202e-18
1.10313e-05
1.52461e-05
7.79556e-20
3.01289e-18
1.08228e-16
3.09234e-18
8.18033e-18
2.75065e-17
1.33785e-17
6.58403e-17
5.29079e-06
1.51956e-07
2.43548e-05
7.22387e-08
4.95855e-18
1.94598e-16
3.82027e-05
5.88269e-09
6.7575e-18
6.04693e-18
8.4261e-06
4.96675e-18
2.30682e-18
2.81132e-09
8.68614e-06
1.53448e-05
3.69136e-05
3.63225e-05
3.67049e-18
1.69034e-05
3.83215e-07
1.09447e-17
1.73885e-17
1.29279e-05
2.29342e-17
1.18381e-17
2.51188e-05
0.00122037
1.93016e-07
1.36327e-16
5.96168e-18
1.83638e-05
2.60295e-05
2.01751e-05
6.68338e-06
3.434e-06
2.9137e-17
1.06819e-09
2.94223e-12
1.25215e-17
4.78977e-17
2.01978e-05
1.28506e-18
2.33742e-06
3.072e-05
1.91134e-05
1.31008e-05
1.14805e-16
5.87725e-06
1.88213e-18
2.00492e-17
3.85795e-17
1.70574e-18
3.03943e-06
0.000952423
2.61948e-19
1.6444e-18
4.01016e-09
2.76117e-05
8.73019e-07
7.54704e-06
3.81073e-05
4.05565e-06
2.35197e-05
2.35776e-17
2.96819e-18
4.25987e-17
3.60455e-05
6.06017e-06
2.89618e-11
1.06024e-18
2.13948e-17
6.7082e-18
2.47013e-05
3.16501e-06
1.30356e-18
5.14406e-06
6.18405e-05
8.91623e-06
6.75497e-06
2.0105e-17
5.72416e-19
7.50163e-06
2.64593e-05
6.42938e-19
3.40094e-07
1.58636e-05
1.09897e-06
1.09881e-05
5.10179e-06
8.8737e-06
2.77932e-17
3.95846e-06
2.3813e-05
4.44765e-05
9.57277e-13
2.72358e-05
3.20183e-17
1.90893e-05
1.26056e-07
8.24023e-19
2.42646e-06
7.34364e-06
3.83162e-07
1.33053e-05
9.15383e-10
1.86192e-07
2.0841e-08
3.66597e-05
3.81102e-06
2.58731e-17
4.22631e-05
1.10646e-06
2.41406e-18
3.45832e-19
4.12735e-11
9.3668e-09
1.23463e-06
0.00125623
3.98384e-05
1.12124e-05
2.67322e-10
4.76175e-05
2.95005e-18
3.52987e-17
4.70899e-06
2.75841e-18
2.84115e-06
5.90863e-06
2.09974e-06
5.58503e-06
1.50781e-17
2.47923e-07
0.000123889
1.06158e-17
3.7003e-05
8.02969e-06
3.17603e-17
3.76023e-06
4.71788e-07
5.1375e-17
5.03791e-12
9.83364e-08
8.8851e-17
1.8723e-19
1.28611e-17
3.69701e-06
4.7828e-06
1.63175e-05
3.9335e-17
6.05277e-06
3.49202e-05
5.16968e-17
8.22619e-06
1.26991e-05
2.73391e-05
1.66274e-06
6.04496e-18
7.62744e-07
1.23716e-05
1.06224e-05
8.96002e-06
4.29645e-05
0.000181165
3.85264e-06
8.28688e-17
4.67501e-09
6.18492e-05
3.1667e-17
4.09871e-07
2.27866e-18
2.18924e-18
7.6217e-17
2.15869e-18
8.60043e-18
3.62392e-06
1.03973e-18
6.77001e-06
1.56329e-06
4.35482e-17
4.8575e-06
1.85919e-16
1.6678e-05
5.86226e-18
1.75021e-08
2.10667e-16
2.46502e-05
1.54563e-07
2.12571e-09
3.88522e-06
3.06496e-05
1.96685e-05
4.2818e-06
2.58877e-05
5.76208e-15
2.21015e-05
6.17258e-05
9.60181e-06
7.77105e-17
1.38416e-06
3.51022e-07
5.86521e-06
1.33042e-05
7.44461e-07
1.46585e-16
1.4704e-16
4.18759e-18
4.49091e-06
9.82585e-17
1.02539e-07
1.89977e-07
9.75302e-07
3.10336e-07
3.34134e-17
9.1897e-17
5.32671e-19
9.01071e-06
2.41622e-05
1.65905e-06
8.83971e-09
2.11283e-06
7.54629e-06
2.52457e-06
9.26386e-07
7.74044e-06
6.88509e-06
2.87147e-06
3.6393e-17
9.72789e-19
7.01031e-18
1.57811e-05
1.20338e-05
1.43606e-16
3.35717e-18
1.98918e-17
9.27319e-06
2.26623e-05
8.45021e-18
2.35577e-06
4.45873e-17
6.30663e-10
5.91305e-06
9.48979e-05
3.11452e-17
6.85773e-18
4.27094e-06
4.53605e-18
8.30617e-08
1.31517e-05
1.21665e-17
1.17777e-05
3.78973e-05
1.95486e-05
4.21404e-18
1.15441e-06
1.59221e-17
8.75677e-08
5.56733e-05
1.476e-16
4.44867e-17
1.28175e-05
4.48386e-16
4.86471e-17
4.14891e-08
1.45465e-06
9.67372e-18
1.59926e-17
5.07079e-18
7.45841e-08
1.56884e-06
3.87977e-06
2.64302e-05
1.06432e-05
6.35328e-17
6.38058e-10
6.54617e-07
3.79244e-18
1.58752e-19
6.0413e-18
5.4734e-17
1.44157e-17
1.38898e-17
1.09499e-16
6.82071e-18
1.64795e-17
9.7533e-17
2.52593e-12
2.21377e-18
4.2939e-07
1.58291e-17
1.71253e-07
1.1052e-17
6.98527e-08
2.34391e-17
3.22451e-18
2.89806e-05
1.03356e-05
3.26552e-17
0.000102958
4.58551e-12
1.70111e-13
7.13121e-19
1.36416e-06
5.04085e-16
2.83186e-06
6.21576e-09
1.11233e-06
4.48013e-17
2.74467e-17
8.81736e-07
4.3954e-11
3.29422e-18
4.44674e-17
4.44987e-05
1.18956e-16
4.19994e-05
1.46845e-17
6.57811e-19
7.37344e-10
3.19987e-05
9.53928e-06
9.08495e-18
3.85205e-07
1.53644e-16
2.09049e-06
1.76161e-08
1.9781e-06
9.01848e-07
1.37385e-18
2.31149e-05
1.16416e-06
5.7458e-06
2.2674e-18
1.56676e-17
1.17255e-18
1.15205e-05
3.90903e-06
5.43084e-05
8.43159e-18
4.03876e-10
6.65478e-18
2.83533e-18
1.1842e-17
3.71175e-18
3.25762e-06
2.07424e-06
2.78518e-06
0.000350392
1.35685e-17
3.26247e-05
4.01159e-05
1.87953e-05
1.62133e-06
3.7522e-18
6.89547e-06
4.47827e-06
5.54526e-06
6.05318e-10
1.1299e-05
2.62537e-17
1.9511e-06
1.22065e-06
3.72069e-05
1.09051e-09
3.36189e-06
2.27059e-17
2.01216e-05
4.70949e-17
4.37511e-18
1.79215e-06
2.87674e-17
7.789e-06
3.78316e-17
2.21629e-17
1.21924e-16
3.0086e-18
3.02256e-17
7.88384e-07
3.34765e-17
6.9902e-07
3.95636e-17
3.19447e-18
2.16625e-05
6.36106e-06
9.24372e-06
9.19602e-06
2.14717e-17
0.000643394
3.0173e-18
7.90793e-05
8.52858e-18
2.12503e-05
2.42214e-05
2.41339e-06
6.4266e-05
2.40108e-17
1.20821e-18
1.0002e-18
2.44298e-06
2.4155e-19
1.49107e-17
1.93862e-05
3.37593e-17
5.74013e-18
5.46096e-06
4.59445e-18
1.40007e-05
9.24107e-11
3.46861e-18
1.41985e-17
9.38522e-18
1.82461e-06
7.1526e-06
3.51472e-17
2.45789e-05
3.35319e-07
4.74745e-17
0.000114865
5.8573e-17
1.73919e-05
2.01909e-05
3.80881e-06
5.85804e-17
2.01424e-05
1.06532e-05
8.52715e-07
5.44823e-06
1.38117e-05
1.19511e-17
4.08893e-17
1.85276e-09
3.88714e-17
5.06163e-19
2.24869e-17
2.17436e-05
4.87444e-05
5.00015e-06
2.14191e-06
3.39841e-17
5.27743e-05
5.19014e-05
4.70598e-06
3.04844e-06
9.33258e-06
2.36769e-05
2.73396e-06
5.86576e-19
4.77481e-18
1.07e-18
7.03289e-06
8.91257e-18
2.93326e-05
1.41779e-16
8.33042e-07
4.71981e-10
2.81915e-06
2.82067e-05
2.93479e-18
8.0273e-17
2.63781e-06
3.87836e-07
4.14422e-17
4.56199e-18
1.03614e-17
4.51543e-08
3.08169e-07
1.43536e-07
8.23155e-07
9.82594e-06
9.99354e-05
1.50095e-17
1.2467e-16
1.38641e-16
4.14581e-06
2.18313e-05
2.16398e-05
3.76084e-05
2.38151e-06
2.92992e-06
9.0201e-18
2.62968e-17
2.41209e-16
1.64e-17
9.47301e-06
2.42792e-05
1.84585e-17
2.09274e-17
2.75065e-17
3.0709e-17
4.2743e-18
2.26915e-17
1.43068e-05
1.86749e-16
1.27815e-06
0.000417976
1.15555e-17
1.79811e-08
2.42449e-05
4.96935e-07
5.17944e-19
6.36084e-18
5.1047e-06
1.02847e-17
1.52741e-05
1.29683e-09
2.70156e-05
5.67395e-17
1.72496e-15
5.39612e-19
7.17433e-18
3.28936e-17
3.0373e-17
0.000223372
5.0903e-18
6.00728e-06
1.36638e-06
3.3854e-17
3.21261e-16
2.12438e-06
3.42128e-17
1.42746e-18
1.62713e-05
9.36183e-08
4.1318e-17
1.07058e-16
2.55913e-19
1.75262e-05
8.84954e-17
2.10732e-17
3.98352e-07
2.68219e-06
3.19565e-06
2.25549e-18
2.57544e-17
1.56317e-17
3.88291e-06
1.8855e-06
1.34034e-05
3.81523e-06
2.03566e-18
7.21344e-07
1.50916e-05
7.19402e-06
1.21694e-18
1.47399e-16
3.01381e-17
1.35474e-17
8.98275e-17
3.38704e-05
8.1444e-06
5.75544e-06
7.53367e-18
1.83398e-17
4.53314e-17
1.76257e-17
4.05955e-18
9.35084e-10
3.8662e-07
2.37092e-06
5.15897e-18
1.51691e-16
9.98049e-18
3.53798e-12
3.65958e-05
0.000123931
1.84988e-18
1.79701e-12
2.31269e-15
1.39564e-17
1.06831e-16
3.84381e-06
7.73799e-06
1.48891e-17
5.18699e-17
3.18218e-06
3.63893e-17
8.5896e-07
1.2048e-06
0.00245302
7.48709e-18
2.46452e-17
1.51286e-05
5.24505e-07
1.2478e-18
0.000776768
5.58964e-07
7.83328e-06
3.07189e-18
2.2131e-17
9.95186e-17
4.17228e-17
7.41686e-06
1.16696e-07
8.14479e-17
2.72154e-05
2.04662e-05
0.00100954
1.3147e-17
2.26424e-18
4.26521e-17
5.67186e-18
6.87198e-06
6.52058e-11
8.77393e-17
2.64105e-17
1.94875e-05
1.08844e-06
6.16132e-06
7.4625e-18
1.33637e-17
3.20998e-05
5.54175e-18
7.62939e-18
9.37689e-18
2.99058e-17
2.60034e-05
7.28647e-17
9.55977e-18
4.9141e-18
2.74405e-05
1.49212e-05
2.13498e-17
2.3275e-17
7.89537e-18
1.72518e-05
1.46826e-10
5.81524e-18
6.55888e-18
7.07025e-17
1.83543e-17
2.6648e-06
1.14335e-05
8.92454e-19
2.39977e-06
1.09365e-06
5.07648e-06
1.40084e-16
4.92737e-17
4.30767e-18
3.33459e-17
1.96078e-18
2.44462e-05
3.99974e-16
1.77932e-05
8.36208e-18
1.57896e-06
3.37228e-17
2.39e-06
1.65705e-17
2.4964e-19
1.21137e-05
0.000225406
1.71503e-16
3.59065e-06
3.56799e-17
3.85503e-07
1.64034e-18
5.03971e-18
3.08176e-17
3.85148e-10
2.0052e-17
4.1198e-07
3.15038e-17
4.01913e-05
6.64875e-19
1.11536e-16
1.49755e-17
2.18804e-17
7.86848e-09
1.44443e-07
7.70481e-19
5.44149e-06
3.8694e-19
3.68398e-06
2.24245e-05
1.2675e-06
6.5038e-18
4.5242e-09
4.37887e-07
2.04308e-09
5.62285e-06
4.36383e-10
1.64858e-06
1.22537e-16
1.4431e-18
4.49677e-10
5.61559e-06
2.43396e-07
3.29841e-18
2.3296e-18
3.25297e-17
0.000590466
1.88744e-18
7.04443e-18
4.21524e-17
4.13176e-17
3.35978e-19
7.77558e-08
1.8081e-07
1.10076e-06
5.61595e-08
2.26763e-16
1.44501e-06
2.98613e-17
7.04587e-06
1.80811e-16
4.16677e-19
2.49964e-18
6.94512e-18
2.13604e-08
1.58523e-17
2.8633e-17
6.83234e-17
1.71338e-05
1.92175e-16
1.49348e-17
1.21957e-05
5.72141e-17
6.22666e-05
0.000112164
0.000559508
2.55614e-17
0.000237696
0.00142901
0.00170045
0.000784456
3.93084e-18
4.03298e-20
5.56262e-06
5.65515e-06
1.2763e-17
6.27325e-06
1.11714e-18
3.62043e-05
2.2487e-17
2.86295e-17
6.80168e-07
6.96928e-17
9.48478e-17
1.03777e-08
3.84611e-08
6.49714e-19
3.2841e-18
2.28039e-09
2.28626e-17
1.51447e-17
2.47636e-08
9.08901e-06
1.49653e-06
2.38779e-17
8.0339e-06
3.25075e-17
3.68061e-06
4.84848e-10
7.54028e-06
5.07853e-17
6.93192e-12
5.93923e-06
9.18256e-18
1.45841e-12
7.15003e-19
3.71629e-05
5.63857e-18
1.14926e-05
2.02753e-17
1.62079e-10
3.94111e-18
2.38837e-17
3.65192e-18
4.73002e-13
2.78119e-13
4.10478e-19
1.39141e-05
9.00363e-06
6.55673e-18
6.50422e-17
3.81872e-05
2.21269e-05
0.000208856
4.10361e-17
7.04373e-08
2.83524e-05
5.36601e-05
5.91218e-11
6.76352e-19
6.6783e-05
5.92495e-18
0.000256867
6.87764e-17
3.90614e-11
4.02686e-11
7.77299e-18
7.04672e-08
9.16395e-17
2.3151e-05
9.32477e-19
3.28095e-17
7.89358e-18
1.13217e-17
7.40639e-17
3.55877e-17
3.38242e-07
1.96315e-06
0.000157085
4.91343e-18
1.33392e-17
4.7174e-05
2.58119e-17
2.43853e-20
2.00407e-19
1.13146e-16
6.42576e-18
5.65783e-06
3.66841e-18
7.78696e-17
3.25254e-20
3.16819e-06
8.71757e-17
1.36425e-18
1.41124e-17
3.20366e-06
7.37529e-19
5.57743e-06
0.000251556
5.25398e-06
6.09934e-06
2.54934e-05
2.71995e-17
8.82918e-18
6.42878e-18
3.44854e-06
2.10571e-06
6.69468e-18
6.49906e-16
5.56641e-07
2.30548e-16
6.72786e-17
0.000373493
1.05996e-17
2.50746e-05
3.79444e-18
2.45758e-06
4.04176e-06
1.48078e-17
9.83822e-19
1.87881e-18
4.61317e-19
6.27372e-18
2.22916e-05
2.42577e-17
4.30008e-06
7.80774e-18
3.33099e-17
6.92526e-06
4.21033e-18
1.53671e-05
1.82741e-17
2.71725e-18
2.53366e-06
9.15225e-08
0.000154021
4.39226e-17
3.09717e-19
3.21034e-17
4.33041e-06
0.000197932
1.36672e-17
2.9121e-18
2.05355e-16
1.23742e-06
6.53429e-17
2.35486e-05
3.18941e-05
1.88477e-16
8.63386e-19
6.66018e-06
1.09676e-16
8.86568e-17
5.09155e-19
2.88533e-17
3.24746e-18
7.3634e-05
2.13951e-17
1.52117e-16
2.03125e-17
6.52393e-18
7.60247e-18
6.20641e-18
1.8837e-17
1.09075e-18
1.36322e-16
9.22135e-06
4.2186e-17
8.17031e-06
4.00052e-17
3.80458e-18
0.000657234
2.83501e-06
4.56569e-18
2.62829e-17
1.63215e-17
2.3062e-06
6.83977e-17
7.73018e-17
5.94998e-17
3.6447e-17
6.72389e-06
2.78914e-18
4.05504e-06
1.11565e-17
1.15576e-05
2.77933e-17
6.47437e-05
4.14312e-17
7.72217e-18
2.17459e-05
3.32494e-17
1.76449e-17
3.14864e-05
3.35168e-07
1.86611e-17
2.49531e-17
4.35361e-05
1.24365e-05
6.74771e-06
6.76955e-07
1.58867e-06
1.89742e-05
8.41621e-07
6.03583e-06
2.09885e-17
2.9025e-05
5.30102e-17
2.13904e-17
9.68014e-18
2.17636e-17
5.68731e-17
9.72916e-06
1.71445e-16
9.61964e-19
7.042e-18
1.92067e-09
1.27049e-08
2.47177e-16
2.9405e-06
1.42275e-16
4.49586e-06
7.39055e-18
1.08848e-09
5.21758e-06
3.76244e-16
4.83332e-05
3.31273e-18
1.14719e-17
1.88433e-18
2.95065e-06
1.55305e-06
4.77737e-17
1.86737e-18
2.37895e-06
3.14147e-17
0.0007346
3.96631e-17
0.000104627
2.78198e-17
2.08279e-18
7.17481e-17
1.76061e-18
1.08748e-05
3.22441e-18
5.12676e-08
1.363e-18
1.05694e-05
4.96878e-17
4.50741e-18
6.74383e-15
6.984e-16
6.31675e-17
1.25814e-16
3.97028e-17
8.82518e-18
4.88385e-06
0.000231627
2.37551e-17
1.85914e-17
4.58672e-07
4.25567e-19
1.64714e-18
1.9369e-09
1.95117e-05
1.81636e-07
1.83334e-17
4.8452e-07
4.08293e-06
5.52761e-06
9.61823e-06
5.14251e-17
1.36025e-18
3.39411e-18
3.35795e-18
2.66509e-18
1.30457e-18
2.04231e-17
5.32901e-18
9.03172e-18
3.05838e-18
2.68256e-17
1.70353e-18
8.38834e-05
1.60099e-18
8.37829e-18
1.77663e-12
2.22247e-17
1.23555e-17
0.00124521
2.00806e-18
3.67696e-18
1.91939e-06
1.90023e-12
9.59058e-18
3.66705e-18
3.42055e-18
2.47812e-05
7.94377e-18
1.03882e-16
4.54755e-11
2.5235e-19
3.87952e-17
5.79384e-18
5.01914e-17
0.000125118
4.82125e-19
2.26116e-07
1.49807e-17
1.4815e-17
1.26493e-17
5.44507e-18
7.03119e-19
2.97392e-11
5.14637e-11
1.64334e-07
3.69147e-17
2.79774e-17
4.06002e-17
1.19231e-10
1.0985e-17
3.05695e-10
1.89788e-11
4.32885e-18
3.40664e-17
3.05909e-17
1.27429e-11
7.61787e-18
3.84952e-17
1.93277e-12
2.75508e-16
3.61163e-05
1.77284e-18
7.18972e-06
1.07517e-16
2.38157e-09
7.7084e-18
1.74863e-06
3.23802e-19
4.87129e-06
2.58211e-05
9.69325e-18
2.9243e-06
1.27531e-08
5.40173e-17
1.07245e-05
8.22354e-18
8.30026e-18
9.87561e-17
1.3977e-17
4.98441e-18
1.28483e-18
1.81404e-17
5.35726e-17
0.000301606
1.66419e-17
2.23296e-17
1.77064e-17
3.47898e-18
9.23325e-19
3.60332e-05
0.000941716
3.09598e-09
1.56234e-08
5.43786e-18
2.09058e-06
1.43475e-06
9.47082e-17
1.12095e-16
2.43459e-16
6.74223e-18
5.69677e-18
4.8614e-17
2.92937e-17
2.02631e-17
4.75967e-07
1.48029e-16
3.90966e-18
1.70283e-07
2.70677e-09
4.09385e-18
3.08787e-05
6.72268e-18
5.25342e-17
7.3096e-17
0.000192982
4.48053e-16
1.5323e-19
2.74369e-05
1.85328e-18
1.43167e-17
2.1088e-17
1.86398e-18
5.97918e-05
1.51521e-17
2.35642e-17
1.30809e-17