/*--------------------------------*- C++ -*----------------------------------*\
  =========                 |
  \\      /  F ield         | OpenFOAM: The Open Source CFD Toolbox
   \\    /   O peration     | Website:  https://openfoam.org
    \\  /    A nd           | Version:  10
     \\/     M anipulation  |
\*---------------------------------------------------------------------------*/
FoamFile
{
    format      ascii;
    class       volScalarField;
    location    "4.4";
    object      T;
}
// * * * * * * * * * * * * * * * * * * * * * * * * * * * * * * * * * * * * * //

dimensions      [0 0 0 1 0 0 0];

internalField   nonuniform List<scalar> 
111485
(
303.15
285.15
301.104
303.15
298.619
283.15
299.147
293.412
296.554
286.311
300.677
296.316
300.368
284.601
300.158
286.778
299.036
299.196
294.341
303.15
303.15
283.15
297.491
288.733
301.56
303.15
293.316
300.571
289.08
303.15
300.79
293.966
303.15
283.15
283.472
283.15
302.316
298.152
283.149
296.811
283.15
289.798
297.222
302.902
303.187
303.15
287.527
288.59
289.837
303.15
303.15
283.15
303.15
299.128
303.15
293.906
287.948
283.15
283.329
295.687
296.09
303.15
302.154
300.406
283.15
284.64
300.795
291.62
302.194
302.56
303.169
301.975
303.15
302.2
303.15
295.137
283.15
293.663
283.15
283.15
283.246
293.473
283.15
303.15
300.479
284.282
283.15
301.647
303.131
299.513
283.407
289.758
301.007
300.165
290.03
303.15
303.15
301.647
303.149
283.434
303.15
286.775
283.15
285.287
285.752
283.15
283.15
292.693
301.521
283.146
299.017
288.336
301.395
301.768
303.15
302.077
303.15
283.15
300.331
303.15
303.15
283.15
283.15
283.15
283.416
303.153
283.15
301.944
303.15
283.181
303.08
302.041
303.15
283.15
283.15
292.785
283.15
294.707
299.014
301.246
303.139
297.061
299.19
284.843
302.316
298.345
283.15
303.15
283.15
297.391
285.022
303.15
303.145
287.756
283.156
294.005
295.91
302.538
283.154
303.15
303.15
292.471
286.33
283.153
283.157
301.423
283.712
283.15
283.153
283.153
283.15
303.15
283.212
283.15
291.201
287.284
283.15
303.15
303.15
283.15
303.15
303.15
297.882
293.78
296.062
290.36
301.477
300.675
283.192
303.15
301.632
303.15
303.15
300.429
286.338
301.52
301.306
296.137
303.15
300.922
284.653
283.161
300.893
296.817
303.15
300.669
288.427
303.15
283.236
300.266
284.886
300.937
303.15
303.15
300.948
283.15
293.068
283.15
300.858
299.033
290.528
303.15
301.801
300.625
283.15
283.15
283.15
289.658
283.158
283.15
303.15
298.976
292.001
290.218
283.15
303.15
303.11
303.15
284.378
300.368
299.572
299.834
299.711
283.15
283.143
299.27
283.15
283.15
288.85
288.641
283.15
301.246
299.301
303.15
283.15
301.056
303.15
303.15
303.123
303.15
288.202
285.806
291.452
303.15
298.776
303.15
303.15
303.15
283.148
298.229
301.142
299.643
291.278
299.695
296.524
283.216
290.843
292.247
283.15
303.15
283.149
292.202
298.86
286.455
303.15
298.261
297.479
299.122
302.971
283.165
297.387
299.58
302.031
283.15
283.648
283.15
283.149
303.15
283.969
290.333
286.449
303.15
283.15
297.934
285.542
303.15
303.15
303.15
284.778
290.834
301.191
284.482
293.249
283.15
283.15
303.15
298.682
303.15
283.869
289.797
283.152
283.15
303.15
303.15
283.15
294.718
290.017
283.15
296.063
283.15
303.15
301.181
297.63
294.065
296.165
283.15
283.15
283.15
296.953
291.674
302.396
283.15
283.15
283.149
290.154
297.31
283.223
290.705
283.15
293.019
299.785
284.238
298.858
285.299
283.15
303.15
283.15
303.15
290.69
296.477
288.15
292.22
283.15
286.415
283.15
303.15
294.05
303.15
301.98
303.15
283.15
292.2
283.15
289.385
284.694
283.15
284.011
298.293
283.15
300.388
284.766
299.123
303.035
291.704
285.938
283.15
303.15
303.146
283.15
301.101
300.963
283.15
283.15
294.614
284.406
298.69
296.853
283.15
295.372
296.252
283.15
302.114
283.924
303.15
303.15
288.788
298.804
283.15
303.15
303.15
303.15
300.78
283.15
303.15
294.032
283.171
287.056
300.101
283.15
283.15
302.659
283.15
302.512
301.533
298.084
289.717
283.15
294.484
303.387
303.15
298.838
292.403
303.15
283.15
283.314
283.15
290.229
286.239
292.289
283.15
293.496
296.673
293.675
303.147
283.15
303.15
303.15
283.169
293.372
283.15
284.378
303.135
283.15
303.15
303.15
303.15
301.831
291.122
286.097
284.244
284.362
283.15
285.802
303.15
300.836
283.15
303.15
303.15
300.763
303.15
303.15
283.151
303.15
283.15
300.803
283.15
283.15
283.15
303.15
283.15
303.15
283.15
283.693
283.15
303.131
301.873
283.783
283.15
303.091
283.15
303.15
284.745
284.71
286.213
297.783
283.15
297.715
297.819
292.902
287.236
285.303
303.15
292.363
283.15
300.025
283.15
297.019
283.15
292.678
298.72
303.15
283.15
287.214
303.15
295.751
299.271
283.15
283.15
283.15
283.15
303.15
293.907
283.15
283.15
283.247
283.15
299.983
283.15
284.87
303.15
283.445
303.123
284.743
292.504
283.15
301.642
283.15
283.15
285.783
283.15
283.263
283.15
299.839
303.15
290.913
303.15
283.15
302.436
284.504
300.24
285.712
300.238
289.531
283.15
300.763
284.589
283.15
283.139
300.508
301.684
283.15
282.364
301.167
303.069
283.117
303.15
287.628
302.244
284.438
285.462
288.707
282.468
283.15
303.15
300.929
303.15
283.576
283.15
283.15
292.274
282.65
303.15
303.122
283.15
286.371
299.741
283.15
283.15
299.75
303.15
283.15
283.15
283.15
286.241
283.15
303.15
284.882
284.318
303.15
299.841
283.15
289.05
303.15
283.15
286.251
283.15
283.15
283.15
285.672
283.15
285.534
292.451
303.15
300.512
283.46
298.902
301.023
283.376
283.472
283.15
289.17
298.642
303.15
302.256
296.133
297.077
284.697
297.64
297.367
303.15
300.327
303.138
283.15
297.361
284.916
283.15
292.874
295.964
284.931
298.956
300.759
292.849
283.15
299.08
283.479
303.15
300.712
302.039
294.618
283.15
286.924
303.15
283.15
283.15
283.15
283.312
283.15
303.15
303.15
283.15
300.52
299.447
303.15
285.713
303.15
303.15
303.15
290.127
283.435
283.15
303.15
283.15
283.15
287.025
292.881
283.15
295.391
283.134
283.15
295.562
302.279
288.254
283.15
283.15
300.473
292.63
283.15
283.15
283.15
294.143
303.15
303.15
283.15
296.476
302.415
283.15
282.597
302.009
286.936
283.15
283.15
287.527
302.99
283.15
283.16
287.693
283.794
289.093
283.15
285.802
300.419
283.15
303.15
283.15
283.15
283.15
283.15
295.92
303.15
283.15
283.15
295.532
292.341
303.15
303.15
290.036
298.808
298.696
303.15
283.15
298.377
303.15
283.881
299.25
298.771
303.15
303.15
303.15
283.15
286.123
283.15
283.15
302.725
303.15
298.103
302.325
283.15
294.59
283.263
296.785
292.068
283.441
289.991
283.15
283.15
297.217
288.274
290.557
283.15
283.15
298.443
295.412
283.15
283.944
284.667
283.487
303.15
303.15
303.15
290.488
283.15
300.369
283.15
284.404
297.575
298.846
292.801
283.15
283.15
303.15
295.887
283.15
283.15
303.106
283.15
283.15
303.15
283.15
299.621
283.15
283.15
283.15
283.15
283.15
303.15
283.15
283.173
298.661
303.15
302.553
283.129
283.409
283.092
285.693
283.15
284.486
290.67
283.41
303.15
283.149
300.068
283.15
300.561
283.163
283.143
286.277
297.925
283.223
291.381
297.63
283.15
283.15
299.423
300.074
283.15
297.714
291.364
297.164
283.15
283.249
283.15
297.518
296.594
283.15
300.471
297.255
283.149
300.184
283.15
295.744
283.144
303.118
283.162
283.16
283.15
283.15
284.497
283.15
302.981
283.617
283.085
303.148
303.149
303.147
283.15
283.15
294.257
303.15
303.134
283.898
283.15
283.15
303.155
303.15
283.15
303.164
283.15
283.15
303.15
303.15
303.15
303.15
283.377
283.15
283.15
283.15
303.159
283.314
283.916
293.915
283.15
283.15
283.347
283.15
283.15
283.15
287.33
293.953
283.15
283.15
283.15
283.15
283.15
283.15
284.041
283.15
303.151
291.723
283.15
303.15
303.15
303.153
303.15
303.15
283.15
303.168
283.15
283.729
283.144
303.152
283.15
303.067
284.478
292.36
303.15
303.13
284.523
303.15
283.15
303.15
283.15
294.507
293.646
284.727
303.148
283.15
293.706
283.15
283.15
303.15
283.15
295.142
283.15
303.15
283.163
298.171
303.15
284.456
283.15
283.611
283.15
283.15
283.15
303.15
286.199
283.489
284.547
283.15
283.15
285.973
283.15
283.15
303.15
284.414
303.163
298.731
303.15
303.13
303.131
283.15
303.134
283.15
283.465
289.335
300.995
283.85
283.168
283.15
283.15
283.15
303.18
283.15
302.932
303.15
293.306
303.15
288.735
283.853
303.15
283.15
303.15
283.15
301.892
303.15
303.15
286.793
300.711
283.15
283.15
283.15
283.15
283.15
283.15
300.962
283.598
303.15
303.15
303.156
303.15
300.359
284.429
283.15
302.18
303.15
301.744
283.15
302.618
283.15
283.148
303.152
283.325
302.194
300.39
283.147
283.15
289.463
303.15
293.689
303.15
283.15
303.15
283.15
283.15
283.15
300.948
302.124
303.15
303.15
303.15
302.925
283.149
303.15
293.199
283.081
303.15
297.237
297.959
296.781
283.389
283.15
283.15
283.15
283.15
294.928
283.15
295.115
283.15
303.069
289.887
283.15
302.886
283.15
283.15
302.779
283.148
302.921
283.15
303.15
283.15
302.456
283.15
303.15
283.15
283.147
283.15
283.173
283.15
283.15
303.15
292.625
300.989
296.297
297.248
303.15
303.121
283.15
283.15
286.036
283.15
283.158
302.874
298.509
302.963
303.15
283.378
283.15
303.15
283.15
303.005
283.346
298.208
283.15
303.15
288.201
303.15
283.15
283.121
295.28
283.147
283.15
283.15
283.148
303.15
283.15
303.143
303.15
303.15
290.237
303.002
303.019
289.299
293.777
283.15
283.15
303.101
289.373
283.15
303.15
284.817
283.15
303.15
283.15
283.15
283.15
297.977
283.15
302.953
283.15
300.66
283.15
283.15
283.15
283.15
283.15
283.15
285.135
283.15
283.15
283.15
283.15
283.15
283.15
292.352
283.15
298.275
302.964
283.15
302.341
283.15
302.567
303.145
291.855
288.549
303.15
291.734
284.875
303.115
303.15
303.139
294.919
288.56
283.15
287.84
283.15
283.15
283.15
283.15
287.556
283.15
283.15
291.2
303.137
285.236
283.15
283.15
302.537
283.15
283.19
303.15
299.679
283.15
283.15
302.835
283.15
303.178
303.15
283.15
289.067
298.033
292.454
285.832
292.825
294.218
283.15
283.15
302.348
290.379
293.129
284.484
283.15
294.272
283.15
303.15
300.859
298.834
283.15
297.226
283.15
292.572
297.679
303.15
283.15
283.15
301.867
283.15
283.15
300.646
295.93
283.198
290.894
283.15
283.15
302.823
300.663
283.15
300.784
283.15
300.646
283.15
283.15
300.94
283.15
283.23
301.707
283.15
283.15
302.498
283.15
287.982
303.15
290.661
303.15
303.15
303.15
301.072
283.15
283.15
299.728
283.15
302.996
283.15
283.15
303.15
283.151
288.265
283.15
283.15
288.123
288.304
283.15
283.718
283.15
303.15
302.475
283.768
301.747
283.15
283.15
283.15
283.15
283.15
283.15
283.15
283.15
283.15
283.15
283.15
303.15
283.15
283.15
283.15
283.15
283.15
283.15
283.15
283.15
303.15
287.019
283.15
283.15
283.15
295.005
283.15
303.15
303.028
283.15
283.15
295.014
283.15
283.15
302.019
295.482
283.15
303.558
303.568
283.15
301.599
294.264
297.789
301.599
298.518
303.15
283.15
296.262
292.135
301.547
283.15
302.235
302.447
301.026
287.889
287.073
301.205
301.748
301.893
303.15
285.975
297.84
285.651
297.551
283.15
283.15
283.15
303.15
283.15
292.362
298.197
283.15
283.15
283.15
283.15
283.15
303.15
283.15
303.15
292.111
303.136
299.278
302.853
283.15
283.15
285.467
283.168
283.15
283.15
301.712
303.15
283.15
298.437
299.751
297.816
298.826
300.939
303.15
290.665
302.62
303.15
303.15
300.471
303.15
283.15
282.903
295.775
302.961
283.15
303.15
289.844
286.282
296.679
292.561
302.515
303.15
303.138
303.15
303.15
283.15
298.968
283.15
292.169
290.535
299.898
284.796
303.15
302.058
303.15
283.15
303.15
303.15
291.388
300.051
283.15
303.15
303.136
292.145
303.05
299.648
293.209
288.134
293.294
283.15
303.15
283.15
291.528
298.669
303.151
303.15
303.15
303.15
297.671
302.573
283.15
300.287
301.253
284.995
299.844
303.15
303.15
299.036
293.345
283.15
302.921
299.882
302.627
292.367
297.709
298.583
303.15
286.848
298.019
291.742
283.15
289.335
303.15
288.44
301.244
303.15
288.577
301.439
300.201
293.537
283.147
283.16
283.245
301.875
301.108
303.15
288.514
301.615
303.15
283.15
303.15
303.207
298.987
291.434
296.884
303.243
283.149
297.822
303.15
303.15
293.185
303.15
300.284
283.318
301.476
291.1
303.15
283.681
293.618
303.15
283.022
299.066
303.15
300.972
286.259
303.15
303.15
284.016
303.15
283.15
283.15
285.747
299.551
291.465
303.15
285.329
297.926
283.15
299.287
299.313
288.764
303.119
283.15
301.457
299.164
299.284
300.415
288.404
291.032
302.496
303.15
301.705
288.629
303.15
299.293
283.15
283.15
303.15
283.15
303.15
297.567
283.15
300.841
283.671
303.15
283.843
283.15
289.641
303.15
303.146
303.15
294.309
303.006
303.123
300.139
290.084
289.503
290.204
298.828
303.15
299.725
292.511
299.278
303.15
283.885
283.478
299.603
287.283
283.533
303.15
283.15
303.15
285.439
303.15
303.286
284.662
303.278
302.966
303.15
303.15
283.15
300.727
300.66
285.791
303.094
286.774
296.056
301.856
292.844
288.614
302.071
296.486
283.15
283.15
303.15
285.886
289.694
283.15
283.15
303.15
301.982
289.16
303.15
296.768
303.15
283.156
285.295
301.121
303.15
303.15
292.628
303.15
283.315
290.318
283.15
297.425
294.732
295.632
303.15
302.747
283.15
302.706
293.704
303.15
303.15
288.548
283.15
303.15
301.936
284.583
303.15
303.15
283.15
302.38
303.39
289.73
299.879
298.082
303.15
303.158
302.641
303.15
283.15
303.15
303.15
303.15
303.15
303.15
303.15
303.15
283.15
303.15
303.15
283.359
303.15
303.301
303.15
303.161
303.15
303.15
301.07
303.671
303.15
292.259
303.15
303.15
283.15
302.603
303.15
302.192
303.118
283.299
283.15
303.15
302.946
283.149
303.15
303.15
291.648
283.15
292.876
283.15
283.15
283.152
291.499
284.87
303.15
296.769
283.15
303.624
303.135
284.321
302.637
283.15
292.453
303.086
301.748
283.15
303.15
283.15
303.928
284.819
296.788
303.15
303.15
303.15
303.15
303.15
303.15
302.415
302.839
297.679
292.362
303.15
287.336
292.917
284.997
303.204
283.15
286.899
302.787
284.799
283.147
287.486
303.15
283.401
302.94
292.817
302.872
301.98
303.15
302.259
303.15
303.15
298.225
303.15
284.562
303.15
303.15
283.15
303.15
303.15
302.872
303.15
283.306
283.15
283.15
285.973
284.965
300.854
286.253
303.15
295.248
303.15
290.588
303.15
287.347
300.817
301.587
293.539
303.15
303.15
303.15
289.641
283.15
303.15
289.396
283.15
283.15
301.912
303.15
286.197
283.148
283.15
303.15
303.15
300.665
298.424
303.15
294.064
303.047
283.15
298.65
303.15
286.313
288.293
302.148
303.15
296.473
296.665
302.968
301.965
301.711
303.15
303.15
303.147
303.15
283.15
303.15
289.416
300.108
294.359
302.199
283.15
300.512
291.675
298.448
283.633
298.556
289.861
302.229
283.15
283.15
283.15
302.272
283.15
290.645
283.15
301.371
303.16
289.575
297.803
283.15
303.15
301.359
301.337
303.15
283.15
303.15
286.324
301.55
302.993
302.402
297.931
288.435
303.15
303.15
303.15
294.873
286.125
290.276
296.137
283.975
302.975
303.15
303.15
283.15
283.15
285.303
299.747
303.15
303.15
283.15
303.15
303.15
303.15
300.42
303.15
285.468
293.11
283.15
283.254
293.512
285.628
303.15
303.15
301.976
303.15
299.403
283.146
297.624
303.15
303.15
283.15
303.15
303.15
303.15
305.461
303.15
301.928
301.099
303.15
303.15
301.716
303.15
283.15
287.31
303.122
303.15
303.15
303.15
298.41
303.15
303.15
302.589
302.54
301.872
303.15
283.15
303.15
302.119
302.561
301.625
302.591
283.15
300.994
287.941
297.337
283.15
303.15
303.15
303.15
303.15
294.543
287.582
299.61
303.15
303.15
303.15
303.15
283.15
303.149
285.031
285.111
283.15
303.15
303.15
283.147
299.75
295.256
283.15
303.15
303.15
303.15
303.15
289.598
289.852
303.15
303.15
302.414
303.15
301.402
283.977
292.096
303.15
283.15
301.111
303.128
303.15
303.36
301.506
287.037
303.15
303.15
303.15
303.15
293.026
284.276
303.15
302.731
298.311
290.201
303.15
303.15
303.15
303.15
299.704
303.151
303.15
303.15
298.726
302.601
288.75
303.15
303.15
298.006
303.15
303.15
303.15
303.15
288.891
303.15
283.15
283.15
296.46
291.266
303.15
303.15
303.15
297.21
303.147
303.15
303.15
303.15
303.15
303.452
301.011
303.15
287.446
302.687
299.611
303.15
303.15
303.15
303.15
283.15
285.818
303.15
302.832
283.15
302.246
303.15
303.138
303.15
283.15
301.959
286.158
283.15
302.859
303.15
302.47
283.15
303.15
303.15
303.151
303.15
283.28
303.15
290.912
283.15
283.15
303.15
303.15
299.271
302.427
283.15
302.498
283.15
284.173
288.178
302.732
283.15
303.154
303
303.136
284.483
283.156
302.999
283.15
283.15
283.156
302.209
302.355
303.15
283.15
283.15
296.12
303.15
283.15
303.15
303.15
303.15
303.103
303.057
302.956
302.501
303.15
302.935
303.15
284.904
303.15
303.15
283.15
303.15
303.113
303.15
283.15
303.15
288.347
303.15
303.15
303.188
283.15
303.179
302.489
297.539
303.15
290.392
295.833
284.139
290.923
283.15
283.15
287.234
284.393
283.15
303.69
283.15
286.433
303.15
283.15
303.155
303.15
303.15
303.023
303.155
303.15
283.15
303.14
303.15
283.15
283.102
298.924
302.736
303.15
301.914
303.15
285.666
303.151
301.283
303.15
303.15
301.143
303.15
303.15
303.15
287.736
303.15
285.188
303.15
303.147
303.15
283.15
283.15
303.15
303.15
303.15
288.817
302.595
303.15
303.15
288.837
286.549
291.692
303.15
302.733
287.72
287.638
303.15
303.15
288.102
283.15
292.211
303.15
303.152
303.149
303.15
300.721
283.15
302.34
283.15
303.15
303.15
303.15
303.15
303.15
284.399
302.28
291.364
303.15
303.15
290.889
303.15
303.15
303.15
303.15
303.15
300.498
303.15
303.15
283.15
299.862
303.15
283.15
303.15
301.531
283.15
300.285
290.816
302.71
300.342
299.821
303.15
303.15
303.15
301.17
288.9
283.15
303.15
300.595
303.15
303.15
292.309
303.15
287.602
303.15
298.297
284.399
303.15
283.15
303.15
303.15
303.15
285.384
303.15
300.736
303.15
303.15
300.007
283.15
284.83
303.15
303.15
288.326
301.518
296.723
303.15
303.15
303.15
301.534
292.488
303.15
283.15
303.15
300.937
303.15
284.853
296.61
303.15
303.15
301.336
303.15
303.15
283.15
303.15
283.15
294.936
303.15
283.15
303.15
303.15
303.15
303.15
303.15
303.15
283.15
301.481
283.15
302.166
303.15
303.15
296.285
300.714
303.15
283.15
303.15
301.1
283.15
303.15
303.15
303.15
300.738
303.15
297.936
303.15
285.986
283.15
286.817
303.15
303.15
298.68
283.15
303.15
288.261
283.251
303.15
303.15
285.185
283.901
301.037
301.861
301.369
293.265
301.855
283.884
303.15
298.008
283.15
283.15
303.15
303.15
303.15
301.417
303.15
303.15
303.15
303.132
283.171
283.15
283.585
303.15
302.073
283.15
303.144
296.459
283.15
294.776
303.15
303.15
283.15
300.128
283.962
303.15
283.15
300.166
303.15
297.897
303.15
295.532
303.15
283.15
303.15
283.15
299.472
283.15
283.236
283.15
286.268
303.15
303.15
283.15
283.15
303.15
303.15
303.15
303.15
284.921
284.928
283.15
303.15
283.237
283.15
283.15
303.155
290.136
283.562
283.15
301.677
284.969
300.473
288.41
303.15
303.15
303.15
303.15
283.15
283.15
283.15
303.15
283.15
283.15
303.15
283.15
297.411
283.15
303.15
283.15
303.15
303.15
283.519
283.15
303.15
302.027
303.149
303.15
303.15
303.15
288.766
283.15
303.15
303.149
283.15
303.15
303.15
303.15
295.364
283.15
283.191
303.15
303.15
303.15
303.15
303.15
303.15
303.147
284.167
303.15
283.15
303.15
303.15
303.15
303.148
303.149
283.15
283.15
283.15
303.15
303.15
283.15
303.15
283.15
287.782
283.15
301.893
283.15
303.154
303.15
284.646
283.15
284.49
297.608
303.15
284.729
303.171
303.15
297.62
283.15
303.15
303.15
303.15
303.15
283.15
303.15
303.15
299.342
283.15
303.15
303.15
303.15
303.15
292.359
291.195
303.169
283.168
303.15
301.901
302.38
303.15
283.15
283.15
303.15
303.15
303.15
283.15
283.15
283.841
303.15
303.15
303.191
303.151
283.15
289.09
303.15
283.15
303.15
288.26
303.15
283.15
302.175
283.15
283.15
283.15
303.15
299.804
303.15
303.15
303.15
283.15
284.547
293.801
295.481
289.802
303.126
303.03
283.15
283.15
301.157
283.712
283.15
303.149
303.15
303.15
283.15
294.774
303.15
283.15
302.994
303.15
303.15
283.824
303.15
303.15
288.606
289.814
303.15
283.15
303.15
283.15
303.15
303.15
303.15
303.15
283.972
303.15
303.15
303.15
302.948
303.15
303.15
283.15
283.15
283.15
283.15
302.96
283.15
283.15
301.073
303.15
284.816
284.978
303.15
301.241
303.15
283.15
303.15
283.15
283.15
303.15
303.15
303.15
302.71
303.15
303.15
303.15
283.15
303.15
283.15
286.474
303.15
303.15
291.797
303.15
283.15
283.15
302.476
303.15
303.148
283.15
303.2
286.807
283.15
283.15
299.368
283.15
283.15
303.058
303.16
293.104
303.166
303.151
303.152
283.15
283.15
302.679
283.48
285.983
300.98
283.16
283.15
290.776
301.663
301.578
283.15
300.358
290.305
300.143
302.277
302.818
284.776
296.041
299.404
286.107
293.755
300.25
303.15
297.509
298.136
302.811
283.694
292.985
301.265
287.174
303.15
301.175
303.15
300.717
301.591
283.662
285.079
303.15
283.15
302.297
301.769
283.145
303.171
288.333
302.715
301.972
300.948
303.15
303.218
301.261
295.323
300.409
289.291
302.943
301.661
302.194
302.351
284.279
302.545
301.737
283.179
303.15
302.915
303.15
303.15
302.155
302.18
294.754
303.15
284.759
292.463
292.357
301.245
303.15
284.08
285.216
284.432
303.15
299.217
303.15
296.383
295.543
300.865
303.144
303.15
303.15
302.034
301.371
302.81
303.15
292.68
302.778
290.236
283.15
298.358
293.899
303.15
300.489
283.15
283.206
283.15
302.625
303.11
303.15
302.99
298.739
283.148
300.62
302.284
295.096
283.561
296.054
297.314
283.488
303.135
284.842
295.901
283.328
297.15
300.615
300.395
300.599
302.05
290.301
301.732
303.15
302.756
302.692
302.681
296.167
302.903
283.15
302.09
293.406
303.15
283.447
286.577
301.304
302.629
290.312
284.8
287.82
302.656
296.564
303.15
303.15
295.182
283.15
292.835
283.445
303.15
290.223
290.428
283.937
303.15
297.328
298.478
284.291
301.372
294.183
289.909
300.569
303.113
303.15
303.15
283.582
302.658
283.359
285.931
303.15
303.027
303.047
303.15
285.462
300.826
298.379
283.261
299.7
302.421
300.618
287.089
283.15
303.109
301.865
283.783
283.146
303.15
303.083
303.15
303.15
284.241
302.58
296.364
283.051
283.152
303.15
283.15
302.969
303.053
302.563
301.531
303.15
283.15
283.15
301.92
301.975
283.23
295.813
303.15
303.15
301.73
285.636
283.266
301.789
301.884
301.818
284.447
303.15
283.15
298.515
297.793
303.15
302.735
302.145
284.988
285.078
302.182
303.057
303.15
298.373
284.469
283.15
303.15
300.394
301.474
302.121
289.717
302.141
285.799
300.517
300.226
290.378
298.052
303.15
303.15
301.149
284.62
302.155
283.151
300.65
301.79
283.656
288.3
302.466
283.15
283.15
283.027
303.15
303.15
300.111
298.947
302.332
283.147
283.15
283.994
283.15
283.15
283.152
303.084
301.049
299.349
296.393
283.385
303.106
300.426
303.15
283.15
302.607
289.072
300.95
292.412
283.528
303.067
283.148
283.15
302.854
301.443
302.646
283.157
291.524
284.958
303.15
284.323
301.068
283.15
283.316
285.055
284.458
283.15
283.15
301.745
283.15
289.726
302.577
302.732
301.818
283.5
299.047
290.618
283.15
303.302
292.267
283.15
283.15
283.15
303.15
301.194
302.47
299.241
301.561
299.904
289.082
283.155
290.735
289.816
303.066
291.354
300.255
292.135
283.15
286.387
301.183
301.628
283.15
284.045
299.8
283.15
303.15
283.192
301.36
303.15
284.049
302.284
303.031
303.15
283.15
292.647
303.153
301.785
283.15
283.15
283.15
302.248
297.827
303.142
302.213
303.165
303.15
288.773
303.165
290.48
300.441
300.411
297.021
283.158
301.836
283.15
290.539
301.617
289.886
290.511
299.277
301.025
301.765
287.055
290.732
285.136
283.176
302.272
286.202
283.149
283.145
300.391
283.076
300.556
287.338
295.977
299.78
289.445
299.64
283.121
298.891
283.15
290.187
289.94
298.741
283.345
283.15
300.69
283.15
302.817
283.15
303.15
286.487
286.561
283.15
299.361
298.572
287.187
303.15
303.15
301.814
289.635
303.037
283.765
301.736
287.297
303.147
284.257
288.366
303.15
301.532
283.15
283.15
287.582
287.376
283.145
285.37
301.66
286.372
301.217
303.15
285.279
301.882
291.323
303.15
303.15
301.718
302.115
303.15
293.182
293.931
283.718
296.986
287.195
290.181
303.15
302.923
297.358
285.143
283.15
287.737
292.011
299.8
283.167
283.795
282.908
302.033
303.13
283.15
303.136
303.15
300.638
293.265
299.256
294.318
283.15
291.538
296.248
285.683
283.214
292.726
283.15
300.216
303.164
292.804
284.145
303.145
291.746
298.926
288.449
300.141
290.883
287.512
283.15
303.142
285.395
290.397
293.681
283.15
283.15
283.15
303.142
283.15
283.136
286.544
303.15
283.15
303.164
283.174
291.01
289.618
303.377
302.931
290.063
303.15
297.534
303.171
302.083
287.484
283.15
293.537
303.146
303.099
286.499
283.15
283.15
283.487
286.184
303.063
303.145
287.619
289.597
283.515
283.163
289.71
293.182
303.15
283.15
303.107
303.15
302.389
285.033
302.335
303.098
284.122
283.823
284.104
302.866
302.238
297.255
294.092
303.079
291.47
290.769
303.15
303.102
302.634
285.542
283.398
303.15
286.018
283.4
302.951
301.691
302.244
283.15
300.496
301.945
303.15
302.217
285.457
303.15
298.111
303.15
283.15
300.854
302.711
286.44
302.547
283.15
285.355
303.021
283.15
302.346
285.396
294.986
284.382
303.15
303.026
302.885
286.57
283.15
287.206
284.333
289.922
285.945
302.329
303.15
283.15
283.15
292.706
283.15
301.046
302.258
290.027
283.15
293.75
283.15
303.15
283.15
300.046
299.072
283.151
285.367
301.726
303.102
303.156
292.177
294.492
301.367
283.235
301.797
283.145
303.15
303.149
299.636
283.15
301.791
295.328
303.15
300.943
287.391
301.941
284.842
288.425
283.15
302.312
287.843
298.597
303.081
283.15
303.15
291.766
302.258
283.075
283.147
286.965
298.553
303.15
284.653
301.197
301.161
301.4
303.152
300.16
287.765
284.99
301.775
300.132
283.768
283.095
303.158
303.149
303.15
297.828
283.162
283.15
303.15
303.149
289.89
298.698
300.098
287.889
302.82
303.15
286.232
301.612
303.15
300.954
283.821
301.562
303.15
284.636
301.308
295.062
302.775
303.15
303.15
285.264
295.583
296.889
287.739
303.15
303.15
283.15
287.31
302.446
296.669
303.15
285.669
303.15
303.15
300.188
288.644
283.15
296.034
296.384
298.743
283.15
303.15
292.521
287.303
303.15
298.421
300.85
300.756
303.15
303.15
303.15
300.581
298.786
302.823
300.26
283.15
292.489
287.805
290.884
300.706
303.15
303.15
301.072
303.104
286.707
296.347
303.15
303.148
283.15
286.419
299.128
285.659
303.15
303.15
283.358
303.127
303.15
303.15
283.15
290.516
303.15
303.15
284.666
299.34
283.15
303.15
284.656
301.537
300.446
287.075
294.889
303.15
283.516
303.15
303.15
283.301
300.688
290.482
300.651
303.15
303.134
302.219
293.025
299.915
301.439
284.483
283.481
300.859
298.844
303.15
302.783
284.201
300.138
301.499
287.874
303.15
297.454
301.524
301.606
301.647
292.549
303.15
283.15
299.268
283.15
283.15
287.792
283.15
284.028
283.15
283.15
283.15
283.15
302.776
287.852
302.729
283.15
296.127
290.932
284.803
283.15
303.15
302.706
301.773
303.182
302.665
283.15
295.343
300.551
289.91
283.15
283.15
299.902
285.824
283.15
283.15
303.149
290.575
283.15
287.274
303.15
303.152
284.34
283.15
288.416
293.275
300.596
294.074
302.969
285.75
302.546
295.29
286.354
283.15
283.561
291.78
303.094
289.326
302.683
283.15
292.358
287.797
301.01
301.255
285.002
303.116
285.135
297.275
302.992
303.148
285.066
303.146
303.015
293.425
302.686
283.15
303.15
303.15
294.926
291.235
283.155
301.207
284.72
284.181
284.677
303.145
288.377
300.72
283.15
283.15
302.542
303.151
294.71
302.918
303.18
299.966
303.215
302.907
283.15
301.527
302.902
283.15
303.15
301.223
303.15
284.381
298.94
283.166
291.785
283.15
287.621
303.028
300.138
283.15
303.036
290.564
301.284
303.133
303.082
283.15
283.15
301.931
302.065
283.819
302.84
302.457
302.429
303.141
283.15
294.331
283.15
302.817
287.819
302.998
303.15
283.15
302.854
285.225
291.472
302.116
283.15
302.617
302.063
301.71
302.524
303.055
303.2
303.02
303.15
283.15
301.532
298.003
303.092
303.15
290.256
285.167
303.15
283.15
285.491
303.183
303.163
302.932
301.225
284.325
303.102
290.787
293.845
303.148
289.15
303.162
283.15
290.231
283.15
300.098
298.335
284.854
288.305
299.738
296.179
295.343
299.308
293.892
303.152
293.914
296.592
283.157
299.512
293.57
303.15
299.319
299.281
303.15
291.641
303.171
301.735
303.15
286.976
286.034
302.818
289.698
283.15
283.15
300.438
301.146
283.761
283.15
303.15
300.325
302.369
300.771
300.098
302.805
292.573
289.677
286.648
292.44
284.337
290.732
283.313
295.7
290.414
294.024
287.266
284.292
303.162
283.279
303.147
285.815
300.813
283.151
300.309
297.96
288.754
302.122
285.426
299.241
283.15
302.965
283.156
283.11
288.021
299.778
303.15
300.34
303.029
299.91
302.783
303.15
301.353
284.994
295.531
302.103
303.149
283.722
283.15
290.548
285.117
285.805
303.148
303.149
283.15
283.15
283.178
303.15
293.522
303.15
303.155
295.118
303.434
303.15
300.186
303.15
303.15
293.721
290.642
303.15
289.855
302.124
289.586
303.15
303.15
286.129
283.345
290.421
303.217
303.15
303.146
285.523
283.27
283.15
289.08
287.726
303.15
284.33
303.15
303.15
303.133
287.383
303.15
303.147
283.288
303.152
302.689
287.951
283.151
283.637
297.363
290.866
303.15
285.962
284.594
301.444
287.08
302.259
290.24
293.939
303.15
303.15
284.035
303.152
302.964
295.816
302.96
302.761
287.145
283.15
285.509
283.223
297.623
302.627
285.587
303.15
283.84
286.751
303.128
283.177
303.15
286.562
283.15
299.838
303.15
299.847
300.067
283.316
283.375
302.356
291.478
301.352
303.15
301.472
301.813
303.15
303.15
298.446
293.666
283.15
289.038
303.15
295.076
283.375
303.15
296.971
298.867
289.036
303.15
302.779
294.735
295.578
284.492
303.161
299.126
296.346
283.997
303.128
302.82
287.506
298.632
289.49
290.594
289.758
283.15
302.967
303.151
303.15
303.169
293.346
296.528
302.983
301.365
303.15
284.435
303.15
303.052
302.873
303.15
293.775
296.265
303.15
285.462
303.1
303.15
303.098
303.156
286.163
293.559
291.15
288.43
292.947
303.15
301.435
291.687
295.489
293.503
303.141
303.15
300.622
303.185
284.331
303.186
303.15
303.15
303.143
303.15
285.023
303.15
284.289
303.147
303.15
290.394
303.145
292.673
295.621
303.135
295.587
285.872
283.443
303.128
302.944
284.751
283.15
297.079
303.15
285.582
302.927
302.115
303.024
298.459
287.171
303.15
298.503
289.931
299.463
283.15
283.645
303.15
303.145
303.188
293.722
303.15
292.523
289.389
303.193
303.15
284.887
299.186
293.456
299.928
302.516
301.564
300.614
303.15
284.737
296.919
302.387
285.707
298.13
292.253
284.531
291.912
303.15
286.842
292.168
289.798
299.688
303.15
286.443
284.067
303.15
302.484
288.174
302.081
283.15
303.15
299.987
301.797
289.512
302.079
301.926
301.942
303.15
289.57
285.178
302.043
302.302
297.343
303.15
283.203
303.15
302.078
303.15
302.848
303.15
291.867
303.15
296.743
283.15
289.722
303.15
283.15
291.636
301.6
300.598
289.254
300.68
303.15
302.525
303.15
302.354
285.421
303.15
300.583
290.391
303.15
300.967
303.15
303.15
293.016
283.15
285.617
293.271
301.076
303.15
291.709
294.206
288.345
289.622
288.093
299.25
300.229
300.95
287.421
287.138