/*--------------------------------*- C++ -*----------------------------------*\
  =========                 |
  \\      /  F ield         | OpenFOAM: The Open Source CFD Toolbox
   \\    /   O peration     | Website:  https://openfoam.org
    \\  /    A nd           | Version:  10
     \\/     M anipulation  |
\*---------------------------------------------------------------------------*/
FoamFile
{
    format      ascii;
    class       volVectorField;
    location    "4.4";
    object      U;
}
// * * * * * * * * * * * * * * * * * * * * * * * * * * * * * * * * * * * * * //

dimensions      [0 1 -1 0 0 0 0];

internalField   nonuniform List<vector> 
111485
(
(2.73848 -2.73833 0.00140847)
(7.90216 -0.0180909 -0.0388015)
(7.79904 0.0185225 0.0241739)
(2.73898 -2.74017 0.000117684)
(8.09389 0.0333642 -0.00189613)
(2.81582 2.81298 0.00115073)
(7.95797 0.0200017 0.00453113)
(8.15928 -0.0186935 0.0128882)
(7.97217 -0.00542162 0.00470865)
(8.13886 -0.0827998 -0.0355303)
(7.84493 0.0170438 0.0210475)
(8.19938 -0.0175997 0.0365743)
(7.73764 0.00489466 0.0178558)
(7.79094 -0.0169662 -0.0502443)
(7.90988 0.0277859 0.0170049)
(8.05795 -0.0501591 -0.0392137)
(7.96441 0.00203534 0.00637862)
(2.8102 -0.249689 0.440095)
(8.10984 0.0205581 -0.0171936)
(2.71934 -2.71554 -0.00138615)
(2.72342 -2.72337 -0.00284559)
(2.8217 2.821 0.000359086)
(8.02538 0.0209426 -0.00376532)
(8.13761 -0.0501113 -0.0152345)
(7.99327 0.0354765 -0.0106285)
(2.75981 -2.74831 -0.00201545)
(8.23704 -0.0355421 0.0430152)
(7.83388 -0.00456747 -0.00202389)
(8.13235 0.00924503 -0.0189086)
(2.73004 -2.72981 0.000513845)
(8.21653 0.140298 -0.0384475)
(8.08445 -0.0096293 0.00271928)
(2.71725 -2.72275 0.00400862)
(2.81876 2.82385 -0.00646415)
(2.83635 1.15481 0.458601)
(2.83563 2.85439 -0.0419432)
(8.1752 0.137708 -0.0572118)
(7.87115 0.0254296 0.0645287)
(8.11825 2.45915 0.138941)
(8.10001 0.0382822 0.00494696)
(2.78314 2.80839 -0.0212871)
(8.19605 0.00964138 -0.0469255)
(8.09278 0.0412456 0.0148045)
(7.82603 -0.0457574 -0.00119365)
(8.18801 -0.146572 -0.0744013)
(2.75041 -2.7293 0.0132656)
(8.19841 -0.0384652 0.0386739)
(8.12654 -0.0462358 -0.0143512)
(8.19603 0.00305874 -0.0371999)
(2.72372 -2.69307 0.0137188)
(2.71015 -2.68393 0.017889)
(3.20979 2.69496 0.0463359)
(2.70121 -2.69067 0.0092471)
(8.19033 0.0364759 -0.0670146)
(2.69514 -2.68304 0.00263976)
(8.07894 0.0178369 -0.00802224)
(8.08159 -0.0315135 -0.0150555)
(2.82056 2.81642 0.00191103)
(7.39605 -0.0186527 -0.126675)
(8.12416 0.0330559 -0.00407045)
(8.12263 0.0362858 -0.00305753)
(2.73031 -2.73561 0.00322126)
(7.53814 0.0104755 0.0467526)
(8.23429 -0.0189633 0.0622412)
(2.91033 2.63438 0.00394285)
(7.47195 0.0138097 -0.0121322)
(5.72338 -0.482799 0.206179)
(8.14267 -0.0233437 0.0114413)
(7.37672 0.00202734 0.0246054)
(7.04102 -0.0141364 0.00138537)
(7.88132 0.0521672 -0.0436426)
(7.31954 -0.0161091 0.0239521)
(2.95288 -2.66191 -0.0605922)
(7.46128 0.0132732 0.0531889)
(2.73568 -2.73501 -0.000303982)
(8.10328 -0.0116976 0.00769661)
(2.82129 2.82073 -0.00124372)
(8.19048 -0.0180447 0.042116)
(2.81966 2.81875 -0.000101687)
(2.53633 2.47078 -0.08617)
(7.89772 -0.120707 0.0813154)
(8.14939 0.032995 0.00449565)
(2.81039 2.80443 -0.000444057)
(2.73605 -2.73594 0.00157662)
(7.69295 -0.00381781 0.0141414)
(7.40641 0.0207732 -0.029372)
(6.3084 4.0861 -1.10335)
(8.08391 0.0949132 0.00894414)
(7.78957 0.202483 0.173359)
(7.86979 0.0135332 0.0109218)
(8.33283 0.162139 -0.106259)
(8.10332 -0.0139694 0.0127404)
(7.60541 -0.0140738 0.0188755)
(7.77337 -0.00129756 0.00201634)
(8.20696 0.0230747 -0.047365)
(2.73634 -2.73527 -0.000629712)
(2.73024 -2.73042 0.00139484)
(8.08042 0.0897991 0.0276332)
(8.34939 -1.6625 0.115363)
(7.5877 0.0270204 0.0476014)
(2.73657 -2.73643 0.00148097)
(8.11572 -0.0421566 0.00462838)
(2.83286 2.83803 0.015313)
(8.05189 -0.000373489 -0.0057122)
(7.96682 -0.0338046 -0.0428353)
(2.76649 2.46901 -0.0592867)
(2.82078 2.81934 -0.000738271)
(8.08779 -0.0132251 -0.00110163)
(7.53166 -0.0405142 0.00796532)
(7.19927 -0.214176 -0.226172)
(7.71681 0.00166671 0.00545425)
(8.04911 0.00997316 -0.0035999)
(7.53612 -0.0063163 0.028251)
(7.43248 -0.0383179 0.0145443)
(2.76249 -2.74788 0.0025338)
(7.20468 -0.00650415 0.0138855)
(2.74656 -2.73854 -0.00393282)
(2.83305 2.82104 0.0118615)
(7.91796 0.0256621 0.019634)
(2.7392 -2.73764 0.000882721)
(2.76059 -2.7472 -0.000886809)
(3.72172 2.92077 0.175967)
(2.78853 2.80295 -0.00474877)
(2.82644 2.81958 -0.00675562)
(7.75186 -0.0191364 0.0356804)
(2.19265 -1.55724 -0.398887)
(3.54633 3.04642 0.108003)
(7.26175 -0.0039415 0.0253784)
(2.73636 -2.73493 -0.00146026)
(8.15235 0.599761 -0.221505)
(8.15048 0.159727 -0.0860176)
(8.06589 0.091821 0.0267993)
(2.7235 -2.71515 -0.0133691)
(3.64231 3.16472 0.329965)
(3.39648 3.02892 0.143727)
(8.12888 0.0215615 -0.0154024)
(2.82285 2.82295 -0.00122086)
(8.05459 0.0135895 0.000959191)
(8.01741 0.0342537 0.0207966)
(7.88643 0.0317439 0.0320224)
(6.24631 0.000511785 0.0239181)
(8.07951 0.0391224 0.00907392)
(8.01215 0.0385448 0.0242245)
(7.66794 0.0070701 -0.028298)
(8.00673 -0.0143398 0.00554522)
(7.88206 -0.0108868 0.0109398)
(2.82272 2.82389 -0.000724203)
(2.73632 -2.73779 0.000503519)
(2.81544 2.81704 0.00589311)
(8.08726 0.0357386 0.00522662)
(7.67343 0.0123747 -0.0257302)
(2.72511 -2.7244 0.000502989)
(5.29756 -0.0290044 0.0520237)
(7.91055 0.030053 0.0221866)
(8.64851 0.337863 0.151915)
(8.12868 0.0213376 -0.0155776)
(8.09366 0.0237535 -0.00619038)
(7.54997 0.00608877 -0.0135825)
(8.71974 0.417418 0.102891)
(2.7211 -2.74652 0.0108927)
(2.73413 -2.73708 0.00264469)
(8.11635 0.0197422 -0.0160373)
(7.95731 -0.0256855 -0.026707)
(8.77647 0.472743 0.112288)
(8.65437 0.41369 0.155131)
(7.52806 0.0040913 0.0321395)
(8.10901 0.096975 -0.0359272)
(2.78527 2.80857 0.000706988)
(8.88229 0.584168 0.138208)
(8.47179 0.416516 0.127064)
(2.81887 2.81962 0.00144637)
(2.73049 -2.72998 0.000193057)
(6.55777 0.00842961 -0.0536765)
(2.82209 2.82332 0.000587361)
(8.03837 -0.0116315 -0.000205912)
(7.78759 0.00458903 -0.0115791)
(2.82026 2.75188 -0.0158884)
(2.95673 -2.71698 0.0299154)
(2.72926 -2.71408 -0.00468138)
(2.7802 2.62253 -0.0280568)
(2.9701 -2.73987 0.0464681)
(2.73266 -2.73596 0.00278556)
(8.07093 0.0250986 0.0047403)
(8.08424 0.017206 -0.014533)
(8.056 0.0198706 -0.0104436)
(7.94247 -0.0374112 0.0311343)
(7.68361 -0.019588 0.00720107)
(7.69252 0.00717812 0.0204764)
(6.86931 0.0821454 -0.00112685)
(2.73203 -2.72119 0.000919854)
(7.46465 -0.00308517 0.00705871)
(2.95029 -2.73748 0.0288803)
(2.75582 -2.76019 -0.000876109)
(7.75147 0.00757449 0.022846)
(8.14251 -0.0926015 -0.0325267)
(8.08318 0.0154034 -0.0360853)
(7.79247 -0.00310697 0.00400775)
(7.89563 0.00147969 0.00533138)
(2.73065 -2.72617 0.00745606)
(7.77433 -0.0296305 0.00916208)
(7.7303 -0.0078083 -0.0441486)
(5.3982 1.70044 0.222021)
(7.92189 -0.0635353 0.00545319)
(8.0314 -0.00608074 0.00567118)
(2.74384 -2.72956 -0.00487154)
(7.71889 0.0118283 0.0229791)
(8.11108 0.0191214 -0.00176567)
(2.99899 -2.70433 0.0102654)
(7.79246 0.0183316 0.0291228)
(8.1769 -0.00658252 0.0367072)
(7.66784 0.00744962 -0.0293427)
(7.69548 0.0156074 0.0308375)
(2.96795 -2.74886 0.0378472)
(2.72846 -2.72941 -0.00142864)
(7.69298 0.016265 0.0347768)
(5.04023 3.15406 -0.312826)
(8.26463 0.0344171 -0.0784837)
(2.82016 2.82056 -0.00136195)
(7.73993 0.0117916 0.0286603)
(7.75544 0.00381946 0.00149147)
(8.21622 -0.024506 0.0495949)
(2.73826 -2.73662 0.00158459)
(7.32045 -0.00330366 0.0117137)
(8.12675 0.117265 0.0622241)
(4.45051 2.97844 -0.326865)
(2.82224 2.82208 -0.00136578)
(2.81876 2.81956 0.00114704)
(8.30476 -0.0439804 0.0829402)
(7.76017 0.178021 -0.0226495)
(2.96688 2.50084 -0.059292)
(3.38521 -2.62874 0.106183)
(7.78272 0.00444216 0.00968415)
(8.01633 0.013367 0.000247703)
(8.09646 0.0153394 0.00918008)
(2.9237 2.53904 -0.0743193)
(2.8845 -2.6573 -0.0106587)
(7.82465 0.0953482 -0.113459)
(2.7353 -2.73549 0.0018866)
(7.44772 0.00522774 -0.0425861)
(7.69324 0.00211209 0.0269728)
(7.77472 -0.00109505 0.0168624)
(7.77949 0.0130798 0.0161822)
(7.80922 0.00738374 0.023357)
(2.81108 2.81166 0.00944456)
(5.93605 -0.0156964 -0.22498)
(7.89272 0.0206903 0.0195683)
(2.80647 2.8128 -0.00402893)
(2.82127 2.82244 -8.93723e-05)
(8.24186 -0.0968469 -0.00621702)
(8.04513 0.0349033 -0.00996556)
(2.88914 2.45735 -0.0786174)
(7.43715 -0.00663934 0.00439627)
(7.87502 0.0141012 0.0171103)
(2.73727 -2.73667 -0.00079653)
(3.57387 3.36761 -0.0225112)
(8.1199 0.0787592 -0.0349276)
(2.748 -2.71339 8.26665e-05)
(3.03557 -2.16675 -0.0522319)
(4.15747 -1.4653 -0.144055)
(2.74023 -2.7334 -0.00140401)
(7.93045 -0.00969466 -0.0107544)
(7.72397 -0.00945671 -0.0104426)
(8.02089 0.00666986 -0.0192064)
(2.73422 -2.73449 -0.000539015)
(7.92324 0.0188885 0.0162267)
(2.73943 -2.74018 -0.000444865)
(2.73812 -2.74038 0.00162558)
(2.73079 -2.72043 0.0045995)
(5.50294 0.0197656 -0.0794661)
(8.17432 -0.0360103 0.0442506)
(7.77574 0.026511 0.0336459)
(7.91293 0.0253538 0.0199806)
(8.19534 -0.0433261 -0.000958227)
(7.88798 0.0178718 0.0191889)
(8.07361 0.0273999 0.0102159)
(8.15451 0.135013 -0.0122234)
(7.97048 0.00908737 -0.00417958)
(8.0265 0.0109009 0.0018174)
(2.87052 2.82454 -0.00148083)
(2.72703 -2.72728 -0.00359839)
(5.04372 0.0318325 -0.123148)
(8.06583 -0.0111707 0.00438668)
(8.15391 0.0625109 0.0677427)
(7.72786 -0.00786956 -0.00734821)
(2.73917 -2.73775 0.00166733)
(8.03186 0.0244016 0.0120376)
(8.06844 0.0396864 0.0181819)
(7.90918 0.0122671 0.0110131)
(7.0182 -0.0049368 -0.0381287)
(7.31459 -0.0838483 -0.179883)
(8.026 0.0236237 0.00517547)
(7.89328 0.0164246 0.0181797)
(8.06016 0.0653869 -0.0413392)
(2.82063 2.82186 0.00217848)
(7.42685 0.0390073 -0.00161726)
(2.81998 2.82056 -0.000879738)
(2.28324 1.72541 -0.370141)
(3.07674 -1.98529 -0.198476)
(8.36858 -0.0764082 0.108568)
(8.1979 -0.0430286 -0.000779086)
(8.00345 -0.00440028 0.00139475)
(2.73974 -2.73331 -0.00130126)
(2.80852 2.82481 0.0226834)
(8.01134 0.0243125 0.0153412)
(7.74638 0.00746725 -0.00651186)
(2.7275 -2.72651 -9.92442e-05)
(2.7389 -2.73667 0.00273111)
(2.67487 -2.69075 0.0189158)
(7.68442 0.00532548 0.000330638)
(8.00342 0.00289884 -0.00712697)
(7.65463 0.000900143 0.0243677)
(7.41597 0.0106091 -0.0268039)
(8.15047 0.0224963 -0.018689)
(3.23333 2.77464 0.0760459)
(2.81504 2.82166 0.00491448)
(2.73575 -2.73212 -0.000846382)
(7.98674 0.0232165 0.0155711)
(5.2172 -4.42347 -0.313994)
(7.6475 -0.00800965 0.0110342)
(8.31244 -0.0577618 0.181789)
(6.72584 0.00543988 -0.135395)
(2.82121 2.82302 0.000156784)
(2.73459 -2.73692 0.00195848)
(2.73737 -2.73849 -0.000994436)
(3.56343 2.98378 0.186195)
(8.09026 0.019355 -0.0028728)
(8.16507 -0.0432364 0.00985338)
(2.8256 2.83301 0.00095273)
(8.04147 0.017363 -0.0027783)
(2.98059 2.40728 0.172805)
(2.74184 -2.70744 -0.00253199)
(8.25683 -0.026205 0.0656811)
(8.01579 0.0243006 0.0124773)
(8.20077 -0.00816978 0.0193611)
(8.04278 0.01936 -0.00387987)
(2.70998 2.39586 0.148607)
(3.52722 3.03123 0.196211)
(2.81456 2.81734 -0.00420145)
(8.03028 0.0232236 0.00910926)
(8.01927 0.0186154 0.00141598)
(8.19089 0.15105 -0.0526563)
(2.78876 2.78131 0.00491868)
(5.60075 4.95318 -1.1924)
(7.68298 0.0751637 0.0672876)
(8.17232 -0.0351678 0.0191731)
(8.03 0.0261538 0.0165621)
(7.65672 0.782111 -0.0639696)
(8.14948 0.0175053 -0.0199953)
(2.81104 2.8097 0.00154865)
(8.14907 0.0201422 -0.0160305)
(7.84124 0.00800782 0.0144716)
(8.25694 -0.189644 -0.00104394)
(8.28172 -0.0493249 0.100503)
(7.98414 -0.060655 -0.0553746)
(2.80721 2.82121 -0.00991427)
(2.73108 -2.7349 -0.00441065)
(2.82607 2.80863 0.0111158)
(2.71518 -2.72288 -0.000785352)
(8.14756 -0.0342275 0.00226522)
(8.07758 -0.00504542 0.00119225)
(8.09683 0.0349924 -0.0304131)
(8.1476 0.0186369 -0.0231899)
(2.79682 2.80029 -0.0117987)
(8.06339 -0.0558666 -0.0194743)
(2.81796 2.81814 0.0021928)
(2.72682 -2.73422 -0.000275177)
(8.14647 0.0223739 -0.018087)
(2.52028 -2.52301 0.035882)
(4.50341 -0.834397 -0.0556884)
(2.70398 -2.69392 0.00171868)
(2.8438 2.80663 0.0226039)
(8.07563 0.0125396 -0.00976721)
(2.81913 2.81762 0.00107626)
(7.97455 0.0132879 -0.00707538)
(7.6155 0.00407987 -0.0316478)
(2.82525 2.82537 -0.000614946)
(7.34692 -0.00324951 -0.0328898)
(7.93771 0.0112486 0.0097034)
(2.84201 2.48958 -0.0933697)
(7.89446 0.0342742 0.039277)
(7.51998 0.0364324 -0.00302614)
(7.94728 0.031912 0.0113013)
(7.4283 0.0280635 0.0941296)
(8.011 0.0157615 0.00444429)
(7.69298 0.00342074 -0.00752056)
(2.78755 2.378 -0.0119298)
(2.72672 -2.72109 0.0159364)
(6.89102 0.0111835 0.160346)
(2.80096 2.80972 -0.0157178)
(7.94349 0.0352664 0.0389412)
(8.26418 -0.040515 0.0809413)
(2.83334 2.70661 0.0233912)
(2.81369 2.82573 -0.00201547)
(8.12352 -0.00979469 0.00486738)
(7.84033 -0.0357057 -0.0749066)
(7.84686 0.034203 0.000623309)
(8.14943 0.0230014 -0.00973475)
(2.82102 2.81747 4.63607e-05)
(8.2987 -0.0206404 0.132356)
(8.16922 -0.0256363 0.0366694)
(2.82945 2.82449 -0.000114755)
(8.00007 0.124818 0.102811)
(7.64658 -0.0294679 -0.0789165)
(2.73184 -2.7318 -8.11368e-05)
(2.72809 -2.72785 -0.000387255)
(7.95793 0.0157918 -0.00846632)
(8.01942 0.00630994 -0.0113208)
(2.83147 2.8314 -0.00376067)
(2.7343 -2.72875 -0.00421055)
(4.80012 -2.59441 0.588168)
(2.73796 -2.73985 0.00062873)
(8.02553 -0.00149613 0.0124824)
(2.80156 2.81157 0.00614994)
(2.73859 -2.73993 0.000419868)
(8.20317 -0.00711493 0.0262574)
(7.45314 -0.0865436 -0.212606)
(8.11642 -0.0446958 0.00965877)
(7.85654 -0.00309441 0.0142925)
(2.82734 2.8248 0.000529823)
(3.66588 2.8213 0.14344)
(7.85265 0.103564 0.152942)
(3.43309 3.0261 0.161283)
(7.82993 0.0338293 0.0596834)
(7.79436 -0.0609092 0.00673906)
(8.13272 -0.0250455 -0.0214814)
(5.66481 0.153337 0.216502)
(3.36884 2.90167 0.147506)
(8.09287 0.00670823 -0.0779425)
(8.24435 0.258161 -0.0793378)
(2.7343 -2.73879 0.00531412)
(8.20622 0.0206005 -0.0790339)
(8.20451 -0.0352401 0.0296186)
(2.73906 -2.73817 0.00315438)
(7.91662 0.439518 -0.236736)
(6.95992 -0.00116825 -0.0908339)
(3.56637 2.79923 0.120097)
(8.17487 -0.015077 0.0302151)
(8.0783 0.0113916 -0.00951613)
(8.01091 0.014911 -0.00732247)
(2.82117 2.81711 -0.000590003)
(7.97155 -0.0195718 0.0543081)
(8.20955 -0.000776211 0.025033)
(7.94079 0.0704245 -0.00901566)
(5.01495 -0.0703425 0.0820878)
(3.4347 3.23703 -0.0667832)
(4.72832 -0.120453 0.160154)
(2.73353 -2.73748 0.00221002)
(7.38848 -0.251442 -0.239616)
(7.97481 -0.0211821 -0.0532613)
(2.8216 2.81944 0.00382217)
(7.63182 0.015943 -0.053383)
(6.30404 -0.0159197 0.113097)
(3.66285 3.2373 -0.0335095)
(2.73576 -2.7341 0.000527785)
(3.20098 -2.72142 0.0875535)
(2.73803 -2.73729 0.000152074)
(7.94959 0.0511206 -0.00651035)
(8.00449 0.0361334 -0.0124982)
(7.95548 -0.0205993 -0.0200891)
(7.49475 0.0179186 -0.0350278)
(8.13955 -0.159481 -0.0331564)
(2.81871 2.80678 -0.00519374)
(7.90852 -0.00130648 -0.013569)
(2.74452 -2.7233 -2.2791e-05)
(7.82353 0.0270875 0.019366)
(2.82912 2.83006 -0.00027707)
(2.73678 -2.73431 -3.35581e-05)
(2.70779 -2.71466 -0.00375675)
(7.70574 -0.0463549 0.0102786)
(2.72511 -2.72758 -0.00190942)
(2.73759 -2.73818 0.00137771)
(2.7864 1.84037 -0.11749)
(2.73875 -2.74014 0.000985135)
(2.78959 2.82837 0.0263854)
(7.88404 -0.0303432 -0.0122251)
(2.82095 2.81698 0.000241478)
(3.34636 2.46838 0.00284279)
(2.82244 2.82316 0.00358659)
(2.72759 -2.71807 -0.000935848)
(2.82146 2.81094 -0.00479465)
(2.72648 -2.7123 -0.0134694)
(2.80406 2.80649 -0.000157458)
(7.20754 -0.00676837 -0.0520963)
(2.82534 2.81165 0.0114477)
(7.36129 0.105222 0.148258)
(8.05269 0.0149304 -0.00408795)
(8.29351 -0.331659 -0.0547835)
(2.82599 2.81511 -0.000494785)
(7.01799 0.0191143 0.112996)
(2.82552 2.81623 0.00278684)
(2.73855 -2.73975 -0.00140834)
(7.9136 -0.0725885 -0.0787413)
(7.9298 -0.0589131 -0.070591)
(7.95827 -0.0155286 -0.019732)
(8.32348 0.0196193 -0.13845)
(3.24792 2.72722 -0.0896145)
(8.14651 0.00855161 -0.0420246)
(8.14262 0.0126524 -0.0368971)
(8.02398 0.00810906 -0.00104095)
(7.9288 0.0049133 0.00401907)
(8.04379 -0.0769854 -0.0523081)
(2.72688 -2.72766 -0.000688613)
(8.03375 0.00588094 -0.00148319)
(3.70122 3.2211 -0.0251531)
(8.03006 0.0198027 -0.0110713)
(2.81717 2.81414 -0.00221021)
(8.17291 0.0254753 -0.0367932)
(3.65807 3.03443 0.0275775)
(8.04215 -0.000330403 -0.0110195)
(8.08961 -0.0364748 0.0292276)
(3.15356 -1.60669 -0.0161871)
(2.82139 2.82356 0.031005)
(7.93682 0.00941493 0.0177032)
(2.73548 -2.73427 7.36188e-05)
(8.2061 0.0314881 -0.0524552)
(8.1468 0.0314593 -0.0327144)
(2.81851 2.8108 -0.0225922)
(2.8123 2.81222 0.00645602)
(2.75912 2.46995 -0.0550954)
(2.81877 2.82147 0.00106919)
(5.68769 -0.307105 0.159868)
(8.21001 0.0277716 -0.0490055)
(2.86181 2.79335 -0.0030943)
(2.8154 2.81879 0.00233383)
(7.0727 0.00926866 -0.0156311)
(2.82275 2.82354 -0.000758176)
(8.0869 0.0224251 -0.0272341)
(2.82077 2.82034 0.0013989)
(8.00348 -0.045608 -0.0337537)
(2.73878 -2.73887 0.00101133)
(7.52078 -0.0378476 -0.108449)
(6.26722 -0.0239595 0.0037739)
(7.58116 0.0188352 -0.0136239)
(8.044 0.00170526 -0.0127516)
(2.8323 2.81034 -0.00857615)
(7.3786 0.0105653 -0.0110073)
(2.82684 2.81649 0.00278483)
(2.82207 2.82283 -0.0080061)
(7.9732 -0.0196424 -0.00857675)
(2.81929 2.81499 -0.00247377)
(6.83124 -0.00646135 -0.0723501)
(2.72097 2.5022 -0.0828394)
(8.09666 0.0211996 -0.0241459)
(2.72905 -2.72962 6.65267e-05)
(8.16214 0.0154429 -0.0184969)
(2.74047 -2.73807 -0.000415586)
(3.35569 2.96514 0.0870376)
(8.2723 0.299769 -0.0235228)
(7.92363 -0.0667189 -0.0804395)
(8.0545 0.0328409 0.000388227)
(8.10485 -0.0858036 -0.056128)
(8.02006 0.0141771 -0.00829325)
(8.18808 -0.0512473 -0.00517508)
(2.80134 2.82339 -0.0131328)
(8.04798 0.0461278 0.0260437)
(7.9557 -0.0779914 -0.0765583)
(2.82114 2.82144 -0.00137745)
(6.79036 -0.101301 -0.253936)
(8.23769 -0.0604499 -0.0412054)
(7.90786 0.0323342 0.0306042)
(2.78866 2.75111 -0.0160745)
(3.47785 0.668017 -0.562143)
(7.7429 0.0190239 0.0254547)
(6.36655 -0.0262449 0.0630248)
(6.55413 1.67134 -0.0113596)
(3.53758 -1.81272 -0.143967)
(8.17147 -0.0892812 -0.0187371)
(7.68458 0.0277501 0.0554097)
(7.91643 -0.0721449 -0.0787528)
(8.07351 -0.0431571 -0.016934)
(7.93908 0.041576 0.0211762)
(7.04692 0.897574 -0.040636)
(3.49433 2.95906 0.0243272)
(7.18133 -0.277859 0.0693311)
(6.9446 -0.618525 0.139293)
(2.73273 -2.73529 0.00165832)
(7.12064 0.0473589 -0.0212585)
(2.83442 2.78113 -0.0144939)
(3.31331 3.01072 0.0287213)
(8.011 0.0106598 -0.00246541)
(7.09992 1.18553 -0.0392966)
(8.56882 -0.737635 -0.136771)
(7.73338 -1.3471 0.0276558)
(3.30556 3.13967 -0.235475)
(8.14101 -0.047621 -0.0155652)
(8.03711 0.0448912 0.0364846)
(2.81569 2.80701 -0.000522598)
(3.64094 2.00926 -0.0850601)
(8.03594 0.0583345 0.0384939)
(2.73691 -2.72701 0.00233547)
(2.81954 2.81824 -0.000453971)
(2.81167 2.81093 8.96499e-05)
(2.82488 2.80872 0.00303522)
(8.1357 -0.0810843 -0.0351228)
(2.82109 2.8202 0.00152213)
(2.74564 -2.74523 0.0140812)
(7.99556 -0.0471976 -0.037361)
(7.44006 -0.000803145 -0.0151044)
(4.01118 -3.51585 -0.184806)
(8.03595 0.0548466 0.0375108)
(3.28924 2.65164 0.0607302)
(8.05224 -0.0238641 -0.0134323)
(2.68271 -2.68132 -0.0116984)
(2.81452 2.82012 -0.00254091)
(8.12113 -0.04948 -0.0147315)
(2.81972 2.80371 -0.0106157)
(2.82136 2.81473 0.00179131)
(3.23603 3.09607 0.0896938)
(7.69591 -0.00841975 0.00260836)
(4.66114 3.8997 -0.520383)
(8.00598 -0.0318224 -0.0144054)
(8.00786 0.0104643 -0.00322175)
(2.71186 -2.69389 -0.0221735)
(8.32453 -0.0246931 0.263323)
(7.6174 -0.0447651 -0.110412)
(7.9791 2.59062e-05 -0.00460947)
(8.08246 0.145935 0.015429)
(8.11734 0.0760779 -0.174648)
(7.03112 0.00143557 -0.0616162)
(2.81498 2.81282 0.00148026)
(8.13678 0.00606798 0.0243526)
(8.07182 0.0334649 -0.00677997)
(2.70975 -2.74532 0.0047377)
(7.57275 -0.000836071 -0.00682251)
(8.14665 0.0521568 -0.0106112)
(8.14413 0.0358521 -0.0126964)
(7.45673 -0.0322714 -0.0663277)
(8.14171 0.0344584 -0.0143365)
(8.14528 0.04259 -0.00421753)
(2.74063 -2.70463 0.0168304)
(8.15359 -0.0139686 0.0388437)
(6.76237 -0.0423041 -0.0142653)
(3.403 2.95334 0.18873)
(8.14087 0.0285038 -0.0194605)
(7.78712 0.0078747 -0.0181588)
(4.54012 3.69031 -0.56121)
(8.00914 0.00836081 -0.00202486)
(8.14533 0.0229922 -0.0248697)
(7.78987 0.00251625 -0.0315153)
(8.08049 0.0355307 0.00281094)
(7.98833 0.0837786 0.0391244)
(8.01854 0.00409335 0.00116011)
(2.75857 2.69533 0.00363152)
(8.08057 0.0414045 0.00116814)
(7.59489 -0.048767 -0.0987235)
(3.06005 -1.85171 0.0700577)
(8.04177 0.0743275 0.0461175)
(7.94145 0.0716931 0.0703656)
(8.03922 0.010214 -0.00151721)
(2.81647 2.80951 0.00258543)
(7.82653 0.0395303 -0.0690289)
(2.73644 -2.7241 0.00746081)
(2.81991 2.8213 -0.00113248)
(2.8051 2.78592 -0.0012353)
(2.82644 2.81011 0.00146742)
(6.84299 0.00386125 -0.0280052)
(3.36716 2.89365 0.11921)
(6.07515 -0.437538 0.502092)
(2.72096 -2.72335 -0.000650281)
(2.81411 2.85299 -0.00485785)
(8.05236 0.0800481 0.0444171)
(8.10165 0.0191307 -0.0360527)
(2.73794 -2.7379 0.000543385)
(8.11212 -0.0487454 -0.00537912)
(2.73653 -2.73432 0.00822426)
(2.73802 -2.73606 -0.000745634)
(2.69243 -2.69403 0.00845042)
(8.22352 -0.0624989 -0.00860558)
(6.91385 0.0393085 -0.0190131)
(3.33202 2.99863 0.0360374)
(2.76336 -2.73277 0.0070938)
(2.8171 2.82652 -0.00368971)
(2.81926 2.82277 -0.00181305)
(8.28111 0.0168601 -0.0915543)
(8.02604 0.00963842 0.000947708)
(3.35629 3.15473 0.146444)
(8.18721 0.0230937 -0.0431573)
(7.62783 -0.107739 -0.315803)
(2.81483 2.81693 -0.000317256)
(8.16667 0.020049 -0.0380024)
(7.50264 0.00453163 0.0395348)
(7.94135 0.0365603 -0.0448582)
(2.82459 2.82376 3.02552e-05)
(2.81707 2.81407 2.08507e-05)
(7.89183 0.033256 0.043046)
(8.05177 0.0127084 -0.00265933)
(3.33928 3.03401 0.0475346)
(2.80921 2.80988 -0.000250335)
(2.85301 2.76429 -0.00927298)
(8.01935 -0.0179706 0.00550935)
(2.73439 -2.73424 -0.00325231)
(2.72866 -2.71914 0.00209118)
(2.80493 2.80451 0.00283531)
(8.1644 0.0229182 -0.0338063)
(7.19632 -0.0352557 0.0111618)
(2.82383 2.82406 7.88705e-05)
(3.14704 0.60228 0.56887)
(3.45623 -0.399442 -0.129865)
(7.89827 0.0368524 0.00151121)
(2.81584 2.82146 -0.00145924)
(2.82125 2.81632 -0.00206307)
(8.18328 -0.0984839 -0.0147923)
(7.85695 0.133315 0.121665)
(3.38648 3.02223 0.144309)
(4.94275 1.5906 0.114721)
(7.74857 0.159073 0.22837)
(7.43077 0.0206734 -0.0499462)
(7.89295 0.00397403 -0.00118303)
(2.91692 2.73681 -0.00660891)
(7.83885 0.0218485 -0.00449738)
(8.12067 -0.0531286 0.0563149)
(2.82535 2.81824 -0.00345472)
(2.71672 -2.66836 0.00420042)
(2.80562 2.80698 0.000122491)
(2.81537 2.81521 -0.000378144)
(2.82052 2.82543 -0.00300312)
(2.82497 2.82508 -0.000500357)
(8.18067 0.0217623 -0.0352007)
(2.73562 -2.73521 0.00234985)
(2.81361 2.8138 0.000834438)
(2.80487 2.76844 -0.0028455)
(8.18738 0.0239989 -0.0436213)
(8.04932 0.0111966 -0.00164056)
(2.74773 -2.71137 -0.000966807)
(2.70369 -2.67405 0.00549998)
(8.24892 -0.0371165 0.0696291)
(7.83868 -0.000606749 0.00975912)
(7.82664 0.00459661 0.0127207)
(2.73572 -2.72882 -0.00162494)
(2.81106 2.81315 0.00175979)
(7.8348 0.00233161 0.0116536)
(2.73776 -2.73534 0.00035853)
(7.75858 0.0199146 0.0023096)
(7.89344 0.0158223 0.0236653)
(7.91527 0.0164028 0.0140134)
(2.74679 -2.72609 0.00697648)
(2.7371 -2.73888 0.000870276)
(2.73702 -2.73899 0.000148396)
(2.8214 2.8226 0.000962331)
(8.01841 -0.0351951 -0.0198906)
(2.81866 2.82296 0.00283188)
(2.81354 2.8095 0.000492384)
(8.00178 0.0243098 -0.0337402)
(2.7375 -2.73866 0.00124752)
(7.86995 -0.00119785 0.00883005)
(7.20513 -0.0627778 0.0226892)
(2.83776 2.7409 0.0149814)
(8.03255 0.00943327 -0.00585892)
(3.7885 0.5545 -0.090531)
(7.94654 0.00637458 0.00138689)
(8.2096 -0.0243814 0.01755)
(7.29212 0.0270444 0.00950363)
(8.219 -0.00384983 0.0522167)
(5.95538 0.119524 -0.232012)
(3.36291 2.68606 0.056457)
(7.92913 0.00302151 0.00190505)
(8.24833 0.0620841 0.0113242)
(8.02492 -0.0137674 -0.00508822)
(2.88982 2.5099 -0.0860699)
(3.64639 0.352359 -0.191622)
(4.30822 -0.333393 0.152062)
(7.93769 0.00361454 -5.59988e-05)
(2.81205 2.81576 0.00360348)
(7.79457 -0.0183411 -0.0553359)
(7.96202 -0.00830192 -0.0143141)
(7.7248 -0.0647935 -0.120651)
(2.98496 -2.1214 -0.157885)
(2.73813 -2.73948 0.00119959)
(2.73476 -2.73511 -0.00031442)
(8.06522 -0.0179964 0.0015154)
(3.29166 2.72353 -0.0364254)
(7.68514 0.0177632 0.0101636)
(3.06124 2.79005 0.0379311)
(7.64864 -0.016246 -0.0510245)
(7.89084 -0.012818 0.00404218)
(7.77405 -0.00104518 0.0100307)
(8.05013 0.0139869 -0.00423698)
(2.81204 2.81232 -0.000616529)
(2.79995 2.79281 -0.00494996)
(2.9222 -2.66606 0.0133171)
(8.02531 0.0102906 -0.00320511)
(2.82484 2.81729 -0.00118361)
(3.26165 2.80077 -0.126505)
(8.24264 0.15746 -0.133201)
(2.8296 2.82588 -0.0022142)
(2.80712 2.82005 0.00866081)
(2.72163 -2.71331 -0.005237)
(2.82315 2.82389 0.00130241)
(7.70545 -0.00137666 0.0138177)
(2.87821 2.73227 0.00415153)
(2.82192 2.81907 0.000928521)
(6.53901 0.920464 -0.653982)
(3.30605 2.66933 -0.0362857)
(2.80773 2.80983 -0.0234111)
(3.92741 -2.32298 0.14234)
(2.82025 2.81687 -0.00339272)
(6.35995 0.0231132 -0.052814)
(7.88509 -0.00871845 0.00925819)
(2.72593 -2.72632 -0.000911352)
(7.73569 0.00993155 -0.0228479)
(7.77904 1.24862 -0.1695)
(7.66842 -0.0723456 -0.121441)
(8.42576 0.3065 0.00383999)
(7.63323 0.00396701 -0.00608243)
(2.81825 2.79947 0.00816451)
(7.94654 -0.0717448 -0.0816001)
(8.23803 -0.0225209 0.0155726)
(7.66446 -0.0730413 -0.121532)
(2.73542 -2.73491 -0.00106731)
(8.34443 2.1805 0.586793)
(7.67983 0.00507707 0.0153161)
(3.76614 2.99814 -0.17944)
(7.63388 -0.00184971 0.00510582)
(8.31785 0.101195 -0.0787805)
(7.95211 0.158892 0.00796926)
(7.87717 -0.0204472 -0.0277388)
(7.86393 0.0231263 -0.00309939)
(8.38464 0.120327 -0.0447533)
(8.05213 -0.00728663 -0.0113079)
(8.00864 -0.00280329 0.0045834)
(2.79712 2.80712 0.0107571)
(2.80774 2.79356 0.00850556)
(7.72959 0.0168171 0.0039153)
(7.61574 0.00690605 0.00539511)
(2.81426 2.82119 -0.00159385)
(7.83157 0.00429416 -0.00239061)
(8.20278 -0.0308084 0.00823484)
(8.01942 -0.00970742 0.00424268)
(2.81964 2.79014 -0.00142242)
(7.92324 0.16009 0.0355014)
(2.81334 2.81012 -0.00031675)
(8.01192 -0.00338167 0.00420729)
(8.02709 -0.00255981 0.00321155)
(2.8195 2.81799 -0.000691772)
(7.65829 0.0327311 -0.0366521)
(8.00836 0.00185974 -0.000832067)
(7.89268 0.147269 0.0123786)
(7.73507 -0.0014283 0.0258904)
(2.87898 2.82346 -0.00439873)
(8.09921 -0.0185478 0.0225631)
(7.91789 0.181127 0.00173953)
(8.35299 -0.200715 0.0546245)
(7.04525 0.0886562 0.0234038)
(6.32013 0.0200766 -0.0866223)
(2.82139 2.79254 -0.00496143)
(2.81207 2.80955 0.00297988)
(7.79159 0.10334 0.0128237)
(2.82294 2.82413 -0.00128841)
(6.84806 -0.0185755 -0.0233469)
(7.81529 -0.037063 -0.0561803)
(4.75419 0.648258 -0.177031)
(8.6733 -0.560534 0.208349)
(7.6492 -0.347447 0.0996596)
(8.5158 -0.310568 0.0842194)
(2.82205 2.82292 -0.000306261)
(3.8345 3.25357 0.0283198)
(8.06655 0.0145606 -0.00858643)
(2.72371 -2.73389 -0.00971432)
(1.52207 -1.07075 0.435337)
(7.99135 -0.148651 -0.11544)
(2.80996 2.80232 -0.00506354)
(2.82508 2.82083 1.032e-05)
(7.15538 -0.142109 -0.00588941)
(5.83218 -0.378807 0.0838235)
(2.82294 2.82399 0.000153318)
(7.23442 -0.13516 0.0236855)
(2.81105 2.80811 0.00220912)
(2.8198 2.82446 -0.00507156)
(2.73476 -2.73579 0.000154529)
(2.73847 -2.73237 0.00541957)
(2.68461 -2.66135 0.00763712)
(2.73288 -2.72647 -0.00030813)
(7.24843 0.0579741 -0.026508)
(2.79753 2.77942 -0.0020569)
(2.81868 2.81943 0.00110014)
(2.80226 2.81746 0.00419507)
(6.7363 -1.49425 -0.392095)
(7.61686 -0.0626046 -0.137265)
(7.39607 -0.000728731 -0.0677521)
(8.06764 0.0127884 -0.00746822)
(2.80428 2.78594 -0.000362377)
(2.83188 2.8208 -8.55968e-05)
(7.74561 -0.130948 -0.158447)
(2.81997 2.82186 -0.00317657)
(2.81959 2.816 6.75791e-05)
(4.5121 2.57852 0.0918145)
(8.24108 -0.109139 -0.00231036)
(8.05741 0.0162163 -0.00571276)
(2.81784 2.8164 -0.000501873)
(2.81619 2.81043 0.00477436)
(2.80559 2.79619 -0.00390939)
(2.80994 2.80364 -0.000231549)
(2.82235 2.82044 -0.0026851)
(2.82874 2.82197 0.00130262)
(8.06458 -0.184572 -0.115296)
(2.82572 2.81732 -0.000405927)
(5.60045 0.0800686 0.189175)
(8.13844 -0.0178079 0.0221851)
(2.81908 2.82392 -0.0010749)
(2.71572 -2.72782 -0.00723778)
(2.69839 -2.66992 0.0022592)
(6.83283 0.0821367 0.372262)
(2.67826 -2.67559 -0.0101625)
(2.73341 -2.73619 0.00225428)
(2.80354 2.80758 -0.0178398)
(7.31955 -0.113687 0.00619455)
(2.81012 2.80941 -0.000676681)
(8.02533 -0.102158 -0.0642297)
(6.44765 0.0956956 -0.035872)
(5.26948 0.00564693 0.213346)
(2.81054 2.81259 0.000947901)
(5.51441 -1.42885 0.11619)
(8.09037 -0.0149532 0.00481023)
(8.13649 0.0180783 -0.0185955)
(2.9361 -2.80394 -0.0323637)
(7.84061 -0.12714 -0.0203892)
(7.9955 -0.0147357 -0.00815797)
(2.73905 -2.71898 0.00226096)
(2.91796 2.76451 0.0119508)
(3.84926 -2.97146 -0.247752)
(2.80235 2.80326 9.03e-05)
(8.06794 0.0104168 -0.00299982)
(8.07911 -0.00728158 0.010423)
(8.21659 -0.0985649 0.0406464)
(5.39712 -0.00568424 0.298133)
(2.8245 2.82299 -0.000586861)
(8.07005 0.0107105 -0.0036128)
(2.89661 2.75279 -0.00724126)
(3.53241 2.98327 -0.0129866)
(3.67027 -2.86112 -0.11689)
(2.81971 2.81936 0.00105807)
(8.09804 0.0200619 -0.00392771)
(2.80904 2.8035 0.00177555)
(2.70629 -2.65717 0.00120773)
(7.40737 -0.0999927 -0.184336)
(7.95588 -0.0154077 0.00443764)
(2.70802 -2.66337 -0.00647038)
(7.97723 0.0126471 -0.00429945)
(3.00493 2.93837 -0.0179939)
(8.09955 -0.0680656 -0.0343249)
(2.6485 2.52799 0.0265658)
(2.82174 2.82262 -0.000581363)
(2.83413 2.82458 0.00961592)
(2.73836 -2.73975 0.00101197)
(7.85638 0.00615616 -0.00833947)
(7.08766 0.0135618 -0.0295375)
(8.12598 -0.0315811 0.175894)
(2.8078 2.81078 0.00121316)
(2.8017 2.75018 0.01901)
(7.82831 0.00698528 -0.00716085)
(2.82302 2.82316 -0.00116935)
(3.28451 2.96751 0.0394013)
(2.73615 -2.73437 0.000884149)
(7.77318 0.0471659 -0.00519088)
(8.2713 -0.203861 -0.0597011)
(8.08448 0.0186217 -0.00760654)
(2.73089 -2.7264 0.00674676)
(6.41365 -0.0105641 0.178996)
(6.69546 0.00668641 0.173441)
(2.5367 2.23089 0.0162761)
(7.23698 0.0944118 0.147361)
(2.82437 2.80885 0.00383479)
(7.65631 0.0685214 -0.00728587)
(8.19793 -0.0134316 0.0475305)
(7.95186 0.00857344 -0.0151792)
(8.21043 -0.101347 0.0115859)
(7.54322 -0.16656 -0.229496)
(2.82256 2.81917 0.000702534)
(2.82192 2.82222 0.00022234)
(2.81536 2.81905 -0.00159288)