/*--------------------------------*- C++ -*----------------------------------*\
  =========                 |
  \\      /  F ield         | OpenFOAM: The Open Source CFD Toolbox
   \\    /   O peration     | Website:  https://openfoam.org
    \\  /    A nd           | Version:  10
     \\/     M anipulation  |
\*---------------------------------------------------------------------------*/
FoamFile
{
    format      ascii;
    class       volScalarField;
    location    "21.5";
    object      p;
}
// * * * * * * * * * * * * * * * * * * * * * * * * * * * * * * * * * * * * * //

dimensions      [0 2 -2 0 0 0 0];

internalField   nonuniform List<scalar> 
111485
(
7.87129
0.026486
0.01663
7.87247
0.00968077
7.61068
0.0100207
0.0185312
0.0105012
-0.00351334
0.00941932
0.00610161
0.0137001
-0.00116648
0.0117286
0.0376979
0.0256589
8.79324
0.0150657
7.87318
7.8734
7.61352
0.00799047
0.026673
0.00454926
7.84712
0.0129394
0.0452147
0.0149731
7.87222
-0.0854916
0.0158471
7.87501
7.60882
8.57304
7.56908
-0.0621465
0.0517459
-0.119115
0.0208741
7.65593
-0.00258939
0.0215903
-0.0332519
-0.261312
7.88544
-0.0170125
0.0225716
-0.00786947
7.91525
7.91339
7.36261
7.92187
-0.0486567
7.92685
0.0240149
0.0157471
7.61725
-0.0968875
0.0182431
0.0194398
7.87174
0.0181336
-0.0754035
7.65824
0.0236417
5.09963
0.0167835
0.0041181
0.0152589
-0.143936
0.0302373
7.72537
0.00460731
7.87732
0.0296722
7.61315
-0.006147
7.61198
8.05744
-0.115254
-0.035584
7.61286
7.87369
0.0231898
0.0087571
1.74598
-0.054683
-0.107757
0.0379697
-0.215457
0.0106096
0.0220232
0.0457723
-0.00256932
7.87339
7.87178
-0.0377301
-0.744486
0.065672
7.87169
0.00427263
7.59814
-0.0103123
0.0105946
7.91345
7.61588
0.0146908
0.00814175
-0.350931
0.0206345
0.0320278
0.0161265
0.00514981
7.84373
0.0309232
7.86017
7.60949
0.0110335
7.87408
7.84612
6.66438
7.6136
7.61744
-0.00399657
8.95664
6.62684
0.0183087
7.87415
0.384816
-0.10638
-0.0388315
7.87783
6.5115
6.80013
0.0100702
7.61298
0.0313502
0.0076646
0.0270638
-0.0398512
0.00797854
0.0171833
0.0179943
-0.0242076
0.0327448
7.61293
7.87289
7.62223
0.0164615
0.0137113
7.87106
-0.0747514
0.00925517
-0.667557
0.0183525
0.013935
0.00889704
-0.525219
7.87878
7.87276
0.0155799
0.0070154
-0.485089
-0.605168
0.0245749
-0.066827
7.64446
-0.447265
-0.413075
7.61694
7.87241
0.00541789
7.61445
0.0290334
0.0172092
7.66861
7.70369
7.86292
7.81249
7.67475
7.87182
0.0231616
0.0184487
0.0256158
0.0700596
0.000192222
0.0269017
-0.0519171
7.87245
0.0146497
7.69879
7.86005
0.0348737
-0.0101637
-0.05096
0.0308361
0.015816
7.87816
0.0223022
0.0174793
5.29786
-0.0242055
0.02462
7.86832
0.0307073
-0.0109888
7.69757
-0.0563712
-0.0164739
0.0128005
0.0134357
7.66749
7.87128
0.0272074
4.95661
-0.039243
7.61419
0.0297208
0.0330312
-0.00524449
7.87045
0.0190565
-0.0651962
5.98882
7.61417
7.61706
-0.119867
-0.594039
7.72641
7.29549
0.0311092
0.0224679
-0.0830056
7.72445
7.80526
-0.0735409
7.87502
0.00679886
0.0283932
0.0286928
0.0162588
0.0277315
7.61824
-0.108312
0.0171943
7.6211
7.61291
-0.0534898
0.0310765
7.78423
0.0299697
0.0295594
7.87307
6.35436
-0.0292689
7.88735
8.02319
7.18599
7.87317
0.0245599
0.0172336
-0.0105928
7.87477
0.0278367
7.8723
7.87048
7.87778
-0.0810657
-0.0126726
0.0249416
0.0156897
-0.000290183
0.0186208
0.0158513
-0.0836741
0.00962871
0.0201829
7.57269
7.8728
-0.0867973
0.0189825
-0.0948836
0.0252493
7.87364
0.0252602
0.0121679
0.0187815
0.0160094
-0.11635
0.0138305
0.0172562
-0.0263985
7.61378
-0.0143686
7.61454
8.738
8.08994
-0.124779
-0.0124543
0.00906335
7.86639
7.67791
0.0263096
0.0257809
7.87077
7.86907
7.93038
0.0171318
0.0291547
0.0195457
0.0161708
0.0121839
7.22665
7.62013
7.87418
0.0283816
3.24727
-0.00562677
-0.116381
-0.0903224
7.6136
7.87098
7.87172
6.79359
0.0231641
0.0165989
7.60621
0.026096
7.78031
7.86314
-0.036162
0.0236962
0.0014054
0.0262251
7.98522
6.7577
7.60937
0.0234818
0.0197845
-0.0872709
7.6514
0.447692
-0.154326
0.0170134
0.0282189
1.26627
0.0107966
7.61147
0.00595481
0.0293454
-0.105421
-0.0424547
0.00658308
7.6115
7.87554
7.61452
7.8757
0.0255027
0.0236706
-0.0156172
0.0153631
7.62945
0.0107763
7.61694
7.87881
0.0118893
8.1388
6.94943
7.91467
7.5644
0.0170135
7.61589
0.0172859
0.0157363
7.61175
0.00454611
0.0252634
7.85445
0.0248976
0.0105121
0.0309719
-0.052475
0.0406239
0.0296873
7.9941
7.87365
-0.0218158
7.63396
0.00375127
-0.0494331
7.66702
7.61646
0.0253997
0.00992821
-0.00110993
0.0223922
7.61286
-0.0844698
0.0022777
7.6087
-0.0356555
-0.0126677
7.87031
7.87202
0.0247984
0.00470157
7.59451
7.86408
5.85671
7.87104
0.0103369
7.61434
7.87196
-0.00191129
-0.0996622
-0.0104472
0.0177923
7.6118
6.8116
-0.00840688
6.90912
-0.031296
-0.00453959
0.00312294
5.27413
6.98257
-0.490118
-0.289266
7.86973
-0.0531364
0.00952842
7.86854
-0.514742
-0.00370178
6.9478
0.00347446
0.00546268
0.0384808
7.61299
0.268367
0.00216726
0.0488809
-0.139744
6.60257
-0.604887
7.8708
-0.0458596
-0.169154
7.61755
-0.00752972
-0.0120269
6.42051
7.87371
7.47034
7.87237
0.0104863
0.078133
0.00936234
0.00898446
-0.0588467
7.61446
-0.0469852
7.88361
0.022559
7.59984
7.88097
7.88813
-0.000340563
7.87437
7.87129
8.34525
7.87018
7.62551
-0.0210972
7.61527
7.41795
7.6114
7.85882
7.60541
7.88043
7.61384
-0.0026867
7.60991
-0.0237679
-1.45786e-05
-0.0916099
7.6202
-0.0213443
7.61904
7.87102
-0.00711175
-0.00941808
0.0401626
-0.127658
7.32236
-0.0139236
-0.0235962
0.0227624
-0.0149702
-0.00412948
7.87353
-0.00458388
6.43167
0.00231801
7.61395
-0.0215403
6.65591
0.0220372
0.0139242
8.29098
7.67854
-0.0330992
7.8711
-0.0141586
-0.0216957
7.62425
7.63145
7.92202
7.61636
-0.980147
-0.01474
7.60911
7.62159
0.00746672
7.61349
-0.0166463
7.61242
-0.0207075
7.87122
0.00626206
0.00515071
0.050488
0.0209636
7.59217
-0.128583
7.60711
7.6139
0.00194913
7.61506
-0.00348629
7.92827
-0.0353565
7.8728
0.0217454
7.87343
6.95574
-0.114258
-0.0491256
-0.018022
0.00614225
-0.0298383
-0.00615252
7.62127
-0.0253532
-0.029245
7.61363
-0.0553482
-0.0667683
-0.0104509
7.68258
8.03309
0.0305393
-0.041369
3.67548
7.71928
-0.00178636
0.0189307
0.00282227
-0.000317523
0.15546
2.52271
6.86208
-0.702794
3.13664
7.87264
0.00730843
7.63321
6.98641
0.0294396
2.46753
-0.722701
1.419
6.85974
-0.0150097
0.014181
7.62828
7.44444
0.021293
7.87883
7.61351
7.61421
7.61856
-0.00287248
7.61551
7.8289
0.00369248
0.0249988
6.01364
-0.0311367
7.30953
0.0259498
7.92073
7.61919
-0.00800324
7.61319
7.61855
6.95321
0.0458328
4.63662
-0.026798
0.0369465
7.88705
-0.229002
-0.0703002
0.00308168
-0.0175127
0.24907
-0.001042
7.61637
-0.00938154
0.00589729
7.87589
0.0196302
-0.0228728
0.0119509
0.0359109
0.0119352
0.0109813
7.88576
-0.00213344
-0.0579477
6.93328
0.0126804
0.0114639
4.83616
0.0381525
0.0131392
0.00236098
0.00583317
0.0144247
0.0324331
7.75835
0.00817711
-0.00323081
8.22985
-0.00666612
-0.0207996
0.0352396
7.61593
0.0493548
7.89043
7.61335
7.62597
7.61663
0.0154737
7.04616
-1.04977
7.86824
7.55412
0.00266216
-0.00287791
7.86999
-0.0124127
7.86951
7.87288
7.92308
-0.00917281
0.00502328
6.98297
7.81976
7.61537
7.61562
-0.0677982
0.019508
6.80118
0.000683941
-0.417145
7.61983
0.00820383
-0.0185875
0.0823993
7.61275
7.61372
0.0212415
0.0302386
6.91705
7.6176
7.6049
0.0146976
7.87585
7.86975
7.61547
0.00489325
0.019451
7.61284
8.48011
8.21258
0.148508
7.619
7.61243
-0.0239063
-0.0773297
6.90161
5.94473
1.1354
-0.0137548
0.00223783
7.59155
-0.0212372
-0.00623109
7.61226
7.92046
7.61248
7.61452
7.61799
7.61215
0.0217787
7.87061
7.6132
7.67316
0.0126839
0.0148518
7.87735
7.93376
-0.0259031
0.024465
0.0341137
7.86903
7.61381
0.0247172
7.87347
-0.009464
0.0176028
0.0415165
7.85008
7.87177
7.87162
7.61473
0.0342441
7.61378
7.61301
-0.0349035
7.87173
0.033355
0.00454689
7.637
0.0341099
7.8403
0.0229685
-0.00881742
-0.0256446
-0.0188634
-1.27657
7.23005
0.0210096
-0.0204827
0.000906941
7.78728
-2.11423
7.14555
0.0234408
7.61747
-0.030113
-0.0148386
-0.033529
8.07922
7.87181
7.87387
0.0283796
7.30613
-0.0269218
7.44345
0.0235926
0.0338787
0.00911554
0.0231505
7.61179
7.63966
7.74708
0.0258153
7.61579
7.22715
-0.160354
7.61624
7.62316
7.87329
7.61293
0.00962599
7.60232
7.61474
-1.5783
7.28849
7.63577
7.06553
7.6148
-0.0385295
0.0129001
7.87094
0.01538
1.00333
-0.0385126
-0.389643
0.0232905
7.61963
-0.00969295
-0.0334316
-0.0376244
7.87307
-2.64938
0.00971011
6.46805
-0.00434515
-0.120018
-0.106066
0.00267207
0.0265832
-0.142775
0.0384972
0.0273192
7.5932
7.62974
0.010814
-0.00076348
7.6184
0.0133838
0.0045324
0.0216284
7.61151
-0.123971
7.61321
0.019226
0.0131415
7.61292
-0.0666108
0.0269486
-0.162315
-0.0220359
7.57004
0.0151791
-0.156616
-0.0758018
-0.160041
-0.0414744
7.60384
7.62384
-0.0246896
7.61292
0.0275383
-0.0799761
6.7198
-0.473668
-0.827437
-0.304176
7.61283
6.38066
0.0245911
7.87341
9.46259
-0.0490443
7.60834
7.61192
-0.726323
-0.864093
7.61305
-0.125545
7.61453
7.61309
7.87513
7.87028
7.95474
7.87253
-0.027542
7.61755
7.61731
7.62375
-1.4429
0.0127287
0.000183952
0.0256057
7.62714
7.61202
-0.0513069
7.6141
7.61573
5.81188
-0.0558041
0.023755
7.61287
7.60788
7.62465
7.61216
7.55954
7.61116
-0.0744651
7.61762
-0.206045
0.012338
7.61526
7.88217
7.93039
-0.127567
7.92257
7.87318
7.63087
-0.214742
7.61222
-0.0674652
-0.0722332
-0.183436
7.6104
5.28866
-0.0428857
0.00708413
7.66393
-0.202194
-0.0152628
7.88132
7.58917
6.89897
7.60864
0.0230073
0.0132731
-0.0661607
-0.350639
7.61376
0.0258308
7.56682
6.82748
6.85589
7.61718
0.0193915
7.61409
7.94097
-0.067919
0.028705
7.93807
-0.00440295
7.31311
-0.0863498
7.97855
7.61378
7.58544
7.87205
0.0250059
0.0213632
0.355128
7.61471
7.66407
0.0149979
7.61317
7.07147
7.87132
-0.00451478
-0.338342
0.0444006
7.86271
-0.0754729
-0.0632123
8.24205
-0.0629647
7.62149
-0.0421859
-0.0267231
0.0068675
-0.0900587
-0.180979
7.61358
7.6145
7.61414
-0.0750574
7.68478
-0.111929
7.87529
0.735543
7.87178
0.0184866
0.0197361
7.94266
7.61264
7.95998
7.62359
-0.113771
7.96811
6.90701
0.00444555
-0.106908
7.9118
7.03746
7.70569
7.05792
7.61452
7.61332
-0.105475
0.00536759
7.87251
7.86568
-0.628648
7.87777
-0.105134
0.0229426
7.69787
-0.0358237
7.87198
0.0175824
7.62264
0.0151623
7.61275
-0.589525
-0.310152
-0.149967
-0.0414304
-0.0457682
4.68418
7.54334
-0.0320734
7.91701
0.0133456
7.87052
7.64333
7.62324
7.62468
7.6487
7.6184
-0.0560851
-0.067479
7.87225
6.65333
7.87846
-0.0550967
-0.126946
7.86849
0.025015
-0.153007
7.93083
0.0259007
0.0259805
0.0163963
-0.149805
7.61316
7.61264
7.6423
7.61349
0.0195857
7.5434
-0.0361624
7.61367
-0.0458232
0.019839
7.6165
-0.0539218
7.6046
7.61292
-0.0468602
-0.0853368
2.13251
7.6143
7.95414
7.60597
0.0209485
7.50511
7.9225
7.52319
0.860376
6.72646
-0.532686
7.02859
7.48662
7.76851
0.0192233
0.00420006
0.0114818
0.0193072
7.85755
-0.0309554
7.61555
7.61673
0.0164927
7.59025
-0.648441
-0.0419935
0.0322012
-0.0477138
-0.962295
-0.00315322
7.61586
-1.41823
-2.97444
-0.00957255
-0.0375476
0.0224144
5.54754
7.86714
0.00107883
7.87625
7.61173
-0.24775
-0.00286684
-1.12076
7.598
7.44158
-0.0769392
7.93045
7.61452
-0.0532835
7.9493
7.93826
0.111443
-0.0538851
-0.0949351
0.0470178
0.0259893
7.61735
7.61317
-0.275522
0.0252787
7.61418
7.94352
0.0321428
7.62515
6.61069
6.76082
6.79745
4.35999
6.62589
7.6157
0.0200285
7.60075
-0.0801624
7.61419
3.42818
7.67274
7.63794
7.61622
7.61385
0.028811
7.61361
7.61333
6.91709
7.60957
7.61689
7.61031
0.023918
7.63098
0.0206685
-0.0848127
7.6403
0.0409761
7.61382
-0.0283046
-0.21292
0.0173329
0.0260495
7.84593
0.0228757
0.024535
-0.152903
7.87451
-0.109996
0.0244308
0.0263363
7.32885
0.0177203
7.68513
7.61458
7.61632
7.61282
0.0233876
7.61425
7.60341
0.0200423
-0.137538
0.00855057
7.62566
5.42811
0.0298006
7.61903
-0.373088
7.92763
0.012731
7.61044
7.61286
-0.00554468
7.61018
-0.0223184
7.87493
7.61376
0.0269894
-0.0398629
0.0235845
0.01941
-0.140586
0.0177371
7.61409
8.02041
0.0138158
0.0281907
0.029764
-0.0967537
7.61311
0.0213807
7.61299
7.79861
0.00411587
-0.0728341
7.62583
0.0226448
7.60206
0.0181989
0.0306744
7.71198
7.61267
7.61484
0.0129684
7.61564
7.61423
0.0162507
0.0186115
-0.0441661
0.0227349
7.6351
7.62554
0.0108087
0.0286444
7.61884
0.0110814
7.70178
0.00717495
7.61387
7.6135
-0.0074317
7.6126
-0.0243849
0.030737
7.61981
7.61203
0.00455164
6.47217
0.0311861
7.87138
-0.0618726
7.88184
6.67912
6.45642
0.0275825
6.96509
6.89101
0.0114913
6.84834
4.25545
6.33436
7.67528
7.87713
-0.181821
0.0248451
7.65409
7.61233
0.00134717
0.012765
7.62427
0.0135756
7.61176
7.88225
0.00382694
-0.00612741
0.126022
7.61271
7.61533
7.6142
7.61307
7.60806
7.61125
7.60736
7.60851
7.61233
7.61105
7.61311
7.87851
7.61656
7.61205
7.61468
7.78674
7.61255
7.61272
7.61319
7.64131
7.81711
0.0192766
7.61495
7.61283
7.62551
0.0268626
7.61764
7.88216
2.94571
7.60272
7.51032
0.0181981
8.24394
7.56632
3.47987
0.0137404
7.61429
6.75886
7.25909
7.61197
-0.0305335
0.0152224
0.0134146
0.00371607
0.0317873
7.90214
7.60686
0.0168937
0.0236613
0.00281432
7.61067
0.0220614
-0.0166745
0.0268212
0.0214804
0.0224946
0.00406391
0.0257251
0.0157731
7.88576
0.0224155
0.0258742
0.0129585
0.0187273
7.61299
7.61258
7.61303
7.87208
7.6106
0.0252189
0.0243872
7.61612
7.61227
7.61287
7.81996
7.61453
7.87401
7.61954
7.87868
0.0294996
-0.228699
0.0250808
0.0309657
7.58904
7.63003
-0.0337354
-0.266929
7.61277
7.61368
0.00806677
7.8845
7.61324
0.0642931
-0.00215402
0.0150661
0.0320246
-0.0303631
7.89848
0.0144485
0.0215863
6.90877
7.87587
0.0111521
7.89529
7.62628
2.38103
1.27054
-0.00963606
7.7671
7.8491
-0.0457351
0.0220645
0.0327776
0.0243483
3.39099
7.87166
-0.0191753
8.23613
7.8733
7.56027
-0.00209025
7.61404
0.0268983
0.00963868
0.0121723
0.0137183
7.87911
0.0357775
7.875
7.45462
7.8731
7.86539
0.0215813
4.48753
7.61325
7.87252
8.35834
0.0271486
6.85605
0.0105422
0.019863
0.0211985
0.0224564
7.82513
7.8677
6.63013
0.0131686
0.0261512
-0.923119
7.91992
7.87139
6.82433
-0.0245652
-0.0253023
7.61185
-0.0339779
2.48737
0.0150936
0.019573
7.87195
6.64335
0.0117764
0.0248459
7.61459
0.00507936
0.00369063
-0.00327291
-0.00538043
0.0199535
0.0372821
6.91136
0.0310675
0.0236301
0.0285219
7.9699
0.0175865
6.99774
0.0330567
0.0202253
7.87363
0.0208945
0.0158481
0.01103
0.0248177
8.73932
2.0734
-0.0542578
4.27701
0.0177432
7.64721
0.0220537
0.0176174
7.87943
7.61341
-0.368147
-0.118944
0.0200417
8.73059
0.00637407
-0.209571
-1.17111
-0.0856143
7.88046
7.89177
0.0228508
8.34583
0.0242516
-0.220576
0.0170847
0.03274
7.87204
-0.00233683
0.0243032
7.87121
6.93073
0.0353045
7.8866
0.0274089
0.0317755
7.87275
8.7886
0.0226533
7.8722
7.61243
7.6141
0.0290896
0.0344881
0.0129953
7.92591
0.009928
0.0283684
7.67424
0.0312193
0.0187221
0.0244205
-0.132776
7.61348
0.0184253
0.0536918
0.0308709
0.0193363
0.026247
-0.161336
0.0294825
7.87112
-0.049662
0.0221051
7.8716
0.0262571
7.62011
7.6145
7.87459
7.62422
7.87378
0.00204867
7.61483
0.0263208
-0.0187041
7.87525
0.0139378
7.80559
0.0170653
7.87873
-0.169885
7.65287
0.00757587
0.00237541
-0.190094
0.0446028
0.0235382
0.0177593
0.028502
0.0378999
2.78149
0.0368706
0.00519139
0.0392372
7.87263
0.0404726
-0.127139
0.0330248
0.0141952
-0.170966
7.87485
6.77073
7.87646
0.0135337
7.87137
6.16624
0.0245744
8.38893
0.00856093
7.86363
7.83994
7.6133
0.0178636
0.0444167
0.022513
-0.0466605
0.0245954
0.0226176
0.0322794
0.00898908
0.0152035
0.0303827
0.0209447
7.88093
7.56769
7.86533
0.0179471
0.0284252
7.65029
7.61317
6.30583
0.0449803
0.0180905
7.87187
0.0228716
7.86934
-0.438299
0.0174012
-0.0688718
7.87284
7.87097
0.010656
7.87162
-0.00869916
0.0296316
7.45513
0.0203769
0.0165022
0.0271175
7.8713
-0.113811
6.98179
-0.0267452
0.00993675
7.87437
7.88368
0.026925
5.52635
7.90296
0.0347704
0.031254
7.87191
7.85479
6.93761
0.0130182
6.28329
0.0162903
-0.0357597
-0.00168608
7.87137
7.03357
-0.0374113
7.87009
7.61985
7.87348
7.8753
7.1458
7.72506
7.57161
7.87268
7.8902
7.29824
8.39783
7.64048
0.000883521
7.64997
6.75375
6.39137
8.9066
6.89636
7.87148
-0.0351459
7.38901
7.70952
-0.0355572
8.20827
8.57313
7.77266
-0.0442313
8.36752
-0.0329442
-0.0877112
0.0110897
7.16651
7.87486
-0.024708
-0.461703
7.83528
7.86488
0.0209988
7.08741
0.0207103
7.01202
7.59602
7.72975
0.019288
0.0229885
7.87015
0.00438115
7.89866
7.38817
-0.190918
0.0427615
-0.0327715
7.61075
0.022138
7.22926
-0.0236175
7.61404
7.87177
7.61272
6.98669
0.0405713
0.0309773
7.87366
-0.769863
7.88129
7.89436
7.88097
7.87296
-0.02651
-0.040916
0.032681
-0.0215434
7.83233
0.0111774
0.0128877
0.0362164
-0.032549
7.66354
0.0268601
-0.00146578
-0.00457458
-0.435147
0.0224436
7.92355
-0.0137514
-0.0255695
0.0230182
-0.0251775
-0.0488093
7.90234
-0.0417496
7.77816
7.87566
0.0203399
7.87899
0.0257208
7.86914
7.93865
7.55244
7.87923
7.87274
-0.0486369
7.8779
-0.0160111
7.19707
7.61779
0.0188879
-0.00399329
0.0295302
-0.017472
7.88959
0.695218
7.87379
-0.020922
7.9398
0.0132745
-0.0285628
-0.017939
-0.00556562
7.97029
7.97724
7.87964
0.0278881
7.62875
7.8654
0.0234779
7.60551
7.61226
6.66496e-05
7.96998
0.00871976
-0.441369
7.14747
7.49901
7.43741
0.0110459
0.0127283
7.87206
0.00741216
-0.0126683
6.99001
-0.023179
7.87003
0.0198954
0.0224687
0.0389128
7.87424
0.0113516
0.0196059
-0.0297062
-0.00424352
0.00704822
7.87352
7.87178
-0.109679
7.86766
7.61112
7.86964
0.0134188
-0.0200558
0.0182588
-0.0361634
6.87093
-0.00398702
0.0162849
0.0120595
-0.060242
0.0183673
-0.0193117
0.0125087
7.61298
7.61339
7.61316
0.0306125
7.6146
-0.0338376
5.24457
0.00241595
-0.558831
0.00720147
0.0129734
7.6119
7.87242
0.00340412
0.00261478
7.8865
7.60715
7.87322
0.0102851
0.00510421
0.000940295
0.00739117
0.0292588
0.0147517
7.87289
7.87277
7.87124
0.0395679
0.00601085
0.00247207
0.0157607
0.0322726
0.00300726
7.84846
7.87148
6.34272
7.65688
0.0241488
0.0270375
7.86708
7.90578
7.86824
7.87489
7.83587
7.71628
-0.00688224
7.87417
-0.0514145
-0.119709
7.62046
-0.00137475
0.0268633
0.0209587
7.9172
7.76251
-0.00603419
7.87221
-0.00782048
-1.23372
0.0184987
7.66635
5.9524
7.61282
7.87638
7.86804
7.60422
2.10517
7.88592
0.00789292
-0.00414091
7.87456
7.87207
-0.00999363
7.87844
7.61439
0.0123046
-0.205947
7.86146
7.86207
7.67474
0.0420213
7.87177
7.87149
1.16361
-0.025194
-0.0109992
7.87179
7.61983
7.20756
-0.0155068
-0.0107248
-0.0129451
0.0059436
7.61333
0.054328
0.012706
-0.000895005
7.55816
7.86863
7.87131
7.82453
7.87193
0.0236272
0.0199219
0.000430528
7.88919
7.87194
7.87152
7.86903
7.68744
-0.0409755
0.109917
0.0194644
7.61703
7.87235
7.92615
-1.01369
-0.0430035
-0.0724335
7.61216
-1.95128
8.25655
7.83867
7.87081
0.0226897
0.0346551
7.87452
7.90672
0.0116663
7.87284
0.0132182
0.0286341
2.73326
7.87031
7.66325
0.0224699
-0.0624215
7.91066
2.54137
0.0539259
0.031524
7.87355
7.87644
7.88158
7.88055
0.0259106
0.0258543
7.87667
-0.0526507
-0.0146109
0.20332
7.87227
7.87157
7.87299
7.87694
0.00842001
8.38355
7.8735
7.76776
0.0239088
-0.00944004
0.0288652
7.84517
7.87141
-0.0207493
7.62447
7.87228
7.87455
7.87372
0.0200146
7.69545
7.59831
7.61595
0.0193055
0.0264539
7.86894
7.87359
7.85523
0.0154655
8.15123
7.87789
7.85726
7.87362
7.87314
-0.202509
0.0227416
7.91393
0.0209591
0.0149693
0.0202322
7.87782
7.87436
7.87358
7.83314
7.61325
0.0268157
7.87319
7.37914
7.33388
-0.0179205
7.65119
-0.0257505
7.87171
7.61603
-0.0194936
0.289991
7.0344
-0.00667363
7.87453
-0.0108662
8.12615
7.89125
7.92226
9.10683
7.8798
-0.0389203
7.87027
0.00975244
7.61566
6.93687
7.87886
7.8676
0.0142002
0.0324209
7.61299
2.64404
7.61096
-0.0746097
-0.0418265
0.010044
7.6156
-0.353178
-0.0243125
-0.0510961
0.0227055
-0.628826
-0.0304672
7.59377
7.61329
-0.752995
0.0212552
-0.00262024
7.90945
7.51592
6.37338
3.25313
7.87375
7.61855
7.87407
7.87443
7.87519
8.30266
0.0341074
-0.0755338
0.0293664
6.96811
-0.0957279
7.87365
0.00964097
7.87118
7.87994
7.61423
7.71208
-0.107795
7.69259
7.6076
7.87196
0.0168754
7.8705
7.8718
-0.0560992
7.82903
5.75062
4.92644
4.58837
7.87597
4.8076
4.64551
4.75529
5.45908
7.61299
7.61334
0.0110675
-0.0145783
6.95826
7.13856
7.60911
0.00593433
8.19075
7.71355
-0.103554
7.87461
7.87222
-0.0383277
-0.0906813
7.83752
7.61452
-0.0347583
7.033
7.60657
-0.408575
0.00697199
0.0513337
7.8117
0.0218033
7.87406
0.0148239
-0.396551
0.0164437
7.87248
-0.390065
0.0210667
7.96721
-1.03943
7.86433
0.0200053
7.53052
0.0271015
7.80416
-0.0492419
7.87357
7.57335
7.61491
-1.46607
-1.47396
7.88509
0.00963945
0.0106253
7.9185
7.8721
-0.00553931
0.0205043
-0.126857
7.87959
0.0150267
0.00950177
-0.0491653
-0.848146
7.87533
-0.174303
7.62215
-0.153893
7.87123
-1.732
-2.00856
7.85273
0.0216238
7.67619
-0.0477533
7.61219
7.85693
7.88537
7.88986
7.85077
7.85845
-0.00314696
0.0282155
-0.157601
7.88191
6.3471
-0.14543
7.88019
7.82856
7.90536
7.86596
7.90387
0.0228076
7.87256
7.87377
7.61313
0.0158716
7.8579
7.6135
7.54094
0.0364313
7.61395
0.0083346
-0.78747
-0.0528192
0.0340151
-0.0155813
8.22079
7.87754
7.87091
0.0692227
0.0301807
7.54369
6.31037
0.0101244
7.87203
7.87492
-0.135215
7.86349
0.0159936
7.87472
-0.0126931
-0.0573043
7.8809
7.61264
7.87426
7.87434
7.86979
-0.0265643
7.87094
0.0113783
7.94331
7.8749
0.0237192
7.60736
0.0074088
7.77449
7.87172
-0.0134171
0.0306333
-0.12118
7.87335
7.87373
7.87242
0.0291855
-0.0889339
7.95075
7.61232
7.64226
0.0124708
7.86589
0.014157
-0.136814
7.8716
7.86814
0.0210605
7.86591
7.6446
7.61408
7.95925
7.61416
-0.155057
6.21933
7.63855
7.8727
6.38216
7.8678
6.60326
7.84688
7.86684
7.73023
0.0174363
7.78983
0.0105854
7.86016
7.86707
-0.0552829
0.00488951
7.86241
7.82675
7.87425
0.0256915
6.7025
7.87377
7.73313
7.87042
0.0182779
7.86364
-0.182793
7.8736
-0.010417
6.91871
-0.0277818
7.88923
7.86978
0.00488133
6.54597
7.87977
0.0283434
-0.00826047
7.8919
7.8744
-0.0188261
-0.0571312
0.0197311
0.0163825
0.00620212
-0.00875165
0.0215293
-0.0399634
7.94837
-0.19265
6.25773
6.14343
7.87328
7.87118
7.87014
0.0346326
7.87413
7.86723
7.87434
-0.124044
-0.0435441
5.94898
-0.0394075
7.87512
-0.0190963
7.6118
-0.0619779
0.0222099
6.33131
0.00201079
7.86615
7.84583
7.61372
0.0408315
-0.012513
7.8726
7.61381
0.030411
7.87316
-0.134261
7.91404
-0.0834542
7.87146
7.61423
7.852
7.61308
0.0245315
7.61331
0.272062
7.61581
-0.00571083
7.87243
7.86882
4.31174
3.98686
7.89067
7.86924
7.87181
7.8724
-0.00786549
-0.145261
5.21192
7.87621
0.000174355
7.61164
7.62352
-0.428317
0.0126113
-0.0696677
7.61432
0.0254401
-0.0217437
0.025479
0.0140415
7.87205
7.87471
7.87894
7.87534
7.6141
7.61302
7.61377
7.84039
7.61466
7.61396
7.87174
7.61368
-0.109013
7.61296
7.87247
8.61644
7.87369
7.87275
2.70461
7.61311
7.87164
-0.00539321
-0.0925163
7.8485
7.85093
7.87237
0.0184489
7.64831
7.85971
-0.111246
7.61461
7.87311
7.86804
7.87598
-0.0463034
7.61301
-0.175893
7.87598
7.85675
7.87124
7.872
7.86983
-0.104132
-0.148285
0.0205731
7.87395
7.63724
7.90865
-0.125211
7.87216
-0.149459
-0.0784948
7.61155
7.84476
5.93936
-0.405718
7.85532
7.01646
-0.393028
6.01901
-0.0117355
7.64615
-0.0405064
5.98588
5.61291
7.87151
-0.00105232
7.61455
-0.014087
-0.0553513
7.88129
-0.00217781
-0.285774
7.86965
-0.0698252
7.61589
7.85648
7.86537
7.85236
7.86736
7.61158
7.87202
7.87132
-0.15422
7.10656
7.87227
7.86943
7.87099
7.87506
0.0191879
4.03931
-0.134207
-0.308235
7.87138
0.0138957
0.00309307
7.87222
6.9945
7.78872
7.86222
7.89937
7.96165
6.43238
7.16523
-0.0353797
7.87399
7.8772
6.09724
6.63772
7.61287
-0.00690555
7.88034
7.62762
7.87374
-0.0814849
7.87575
7.61308
-0.0162839
7.61362
7.57434
7.76495
7.91951
-0.0165416
7.87329
7.87177
7.87171
7.84434
-0.0158663
-0.0676525
-0.0585155
-0.00328736
-0.0310405
-0.0395409
7.6143
6.54432
-0.165581
-0.0331717
6.5341
-0.152908
7.86775
-1.08595
7.63551
-0.0910148
7.87431
7.61818
-0.0318494
-1.39131
7.87692
-0.0334321
7.87554
7.87553
-0.0974179
-0.0578902
7.87183
7.61352
7.91721
7.61299
7.8692
6.86057
7.87311
7.87123
-0.0337307
7.87266
7.86787
7.87077
-0.0247112
7.88415
6.90233
7.61387
7.61313
7.29949
6.92126
-0.0262744
7.6176
6.93006
0.00501091
7.86564
-0.0429958
-0.0259484
7.8741
0.000191003
7.87071
7.4554
7.93419
6.78501
7.61593
7.85078
7.86473
7.87523
0.0202953
7.87421
7.87259
7.87085
7.73516
7.87161
7.78617
-0.122149
7.87168
7.87656
-0.0715381
7.87275
7.61403
7.6132
0.0318159
7.87418
-0.164598
6.70323
-0.38125
0.0153761
7.61021
6.53879
0.00769767
6.26836
7.6143
-0.198827
-0.380253
-0.00271863
-0.0578961
-0.257759
-1.16747
7.63815
7.61895
0.00805169
-0.103519
-0.085514
0.0165139
-0.400712
7.61191
0.0192438
-0.00176204
0.00467754
7.61656
0.00730766
0.0219034
0.0229277
0.00395527
-0.124545
0.0146638
0.0418061
-0.00477148
0.0136801
0.0256483
0.0102322
6.91596
0.0916077
0.00621651
-0.00236074
-0.0255971
0.0233886
0.0121039
0.0151786
7.07661
-0.116536
7.02541
0.0342648
0.0103175
-0.0508633
0.00239401
7.0139
7.61149
0.0122704
0.0148937
-0.129566
-0.0656971
0.0239214
-0.00116782
4.82682
0.00854975
7.87167
0.00069968
-0.114555
-0.0497112
0.0302912
-0.143039
-0.178714
-0.00400225
0.00622541
-0.00346253
0.0309949
0.00107642
0.123478
6.13772
5.40122
0.00129726
7.87614
7.87235
0.000819727
0.021383
0.0230589
7.87339
-0.0739577
-0.0578856
0.017741
5.58247
7.87115
-0.212688
0.00805355
-0.121986
7.87489
0.028484
7.87145
0.0083928
-0.00567707
-0.0472492
-0.0467844
7.87195
7.87362
-0.0392381
0.0119375
0.0269358
7.86507
0.00811089
0.0268741
-0.0269992
7.61836
0.0331478
0.0485836
7.00568
0.0224694
-1.50594
-0.107457
7.58155
-0.0643541
-0.102431
7.87158
0.00251191
0.0175399
1.39122
-0.0143249
0.00802554
0.022404
0.0209255
-0.0352199
-0.0233137
-0.231785
-0.11224
0.0316199
0.0218081
-0.0152794
-0.173
0.0204996
-0.0208062
0.0593627
0.0143676
-0.162784
0.0397393
7.87164
-0.00328878
-0.0132872
-0.107659
0.0379832
-0.0419921
7.64073
-0.00554752
0.0240715
7.86703
-0.0758847
-0.0104458
-0.00557211
0.00165878
0.0222644
-0.044471
0.011985
-0.0177388
-0.0548367
7.87125
7.87189
-0.0509121
7.61785
-0.0477612
-0.00564739
7.70555
0.0220253
-0.0210793
0.040033
7.87089
0.0257088
0.0110032
-0.0640829
-0.145913
0.020525
0.0443667
0.00866636
-0.010378
7.87184
7.85504
-0.0980723
-0.0330429
-0.0599511
0.0207322
7.85472
-0.0338993
0.0150806
7.70592
0.000724345
0.0103924
-0.0838319
-0.21897
-0.0315481
-0.0391305
0.0385133
-0.00700636
7.62281
0.00268288
0.0030345
-0.00072972
-0.204534
7.85593
-0.0226573
8.01333
7.87273
0.0122469
-0.0128733
0.00550033
0.12329
-0.119525
1.48957
7.61587
-0.0319011
0.0252064
0.0653396
0.00902744
7.87927
7.61541
7.60492
-0.00170319
0.00304729
-0.230599
0.0247416
7.62657
7.85926
-0.00963771
0.00550905
-0.0443116
0.0133181
0.00824011
0.0295236
-0.0524522
4.37734
7.61289
-0.00496225
0.0229365
7.85874
-0.0047878
0.024908
-0.0774116
0.0101959
0.00971234
-0.0433702
7.85889
0.0256891
0.00613245
7.61624
7.64309
0.028668
0.0792903
0.0148666
0.0207241
0.0182595
0.0133852
0.0323811
0.0296168
0.0249928
0.0137745
7.85469
7.84714
0.00996495
0.0305983
0.0172504
-0.101435
0.0209653
-0.00297774
-0.00232496
0.0240161
0.0172456
7.616
7.62402
-0.116067
7.85342
6.8626
0.0129464
0.0196347
0.000816068
-0.0977744
7.16294
-0.0357051
-0.0826863
7.294
-0.104251
-0.210523
0.0204337
0.0225985
0.0198857
0.0273892
-0.146588
0.0205244
7.87221
7.23697
-0.0818942
0.0292939
0.00489452
0.0258682
-0.109558
-0.0336288
-0.111924
7.26311
0.0253414
0.0529659
0.0142912
-0.125261
-0.0377206
-0.096712
-0.205037
0.00284563
0.022212
7.15526
-0.00486198
0.0272904
2.7857
6.79204
6.2416
0.0379252
6.63704
0.0135623
0.0234743
0.00547597
0.0226075
-0.109389
5.04324
3.04185
8.06099
6.72871
-0.048763
7.61294
7.61266
-1.28206
7.86983
0.0282644
0.0120079
0.022429
0.0220813
0.022924
0.00545654
6.2685
0.0225489
0.0252542
-0.0318358
0.0145962
0.0343658
0.0136135
7.61306
-0.207318
0.0293854
-0.0965957
7.61307
-0.0093216
-0.00560709
7.61296
7.8641
-0.081766
0.0187597
7.90766
0.0119368
0.0168905
-0.0845628
7.87286
7.61301
0.0204195
-0.211103
0.022642
7.61307
7.59824
7.61308
-0.000354913
2.54773
2.32069
-0.00246368
-0.370841
7.88065
0.02596
-0.348094
0.0188532
0.0234274
0.00702644
0.0197117
-0.50512
0.0281351
7.66322
0.0100666
0.039459
0.0179097
0.020319
0.0138669
0.0349548
0.0169387
0.0095206
0.0299725
-0.0638997
-0.389379
0.012022
-0.0864062
-0.134922
-0.46083
0.00976444
-0.373868
0.0193768
0.0302741
0.0216708
0.0389236
-0.0550245
0.0342935
-0.380375
0.0220368
7.47064
0.0100761
3.81523
0.0138341
-0.00645483
7.61694
-0.0170436
7.47018
-0.00451072
7.49821
7.90412
0.0433236
-0.0267768
6.84669
0.023662
0.0196354
-0.0246844
7.86009
7.87343
0.0132268
0.000110251
-0.182469
0.0161145
0.031843
-0.025131
-0.0664562
-0.00877404
-0.0178205
6.50889
0.00972562
7.61264
7.80764
0.0304963
0.0290501
-0.0990549
0.0296012
0.0314132
-0.0102406
-0.023324
7.78112
-0.113666
0.0219211
-0.0127862
7.79333
7.87944
0.00975648
-0.00192193
6.16142
-0.0439468
0.0290293
0.000254318
-0.135741
0.0321936
0.0228331
7.86344
4.57278
0.0214843
-0.0761874
7.68079
0.0395413
-0.0502
-0.0136942
-0.123007
0.0166088
-0.152772
0.00951527
-0.0402396
4.83288
-0.0505474
7.87334
-0.00055486
-0.0208626
0.0301989
0.00966935
6.57329
0.0144693
-0.0824919
-0.0145902
-0.111123
7.42217
7.6132
0.0293227
-0.0755548
-0.00481416
0.00395574
-0.0436061
0.0207484
-0.00261233
0.00840882
0.0413357
0.0261965
-0.051528
7.03252
-0.134584
-0.0238446
-0.000815893
-0.0403275
7.22814
7.61279
-2.38674
-0.117918
8.15474
-0.144472
-0.0254609
7.36953
4.99914
5.45616
-0.0454773
0.0234577
0.17313
5.83964
-0.0781107
0.0309277
7.61651
0.226732
6.88567
-0.0138508
0.0212296
7.64663
-0.0289634
-0.0273155
-0.0311314
0.0263345
7.61255
-0.271435
-0.0421402
-0.0775797
-0.0215811
-0.0218309
-0.0428899
-0.010432
-0.1764
-0.0236464
0.0213489
0.0229753
7.87229
6.446
6.55553
7.72653
-0.0315675
0.0252953
0.030857
-0.0652694
0.0200876
0.0289287
-0.00664679
-0.020903
-0.0170321
0.0223121
-0.0155207
-0.0873075
0.00240293
0.0246323
7.8725
-0.0436551
-0.0624516
-0.0178484
-0.0110184
7.60942
0.0016046
0.00395118
0.0351563
0.00231911
0.0128704
7.63245
0.0235976
0.0129117
6.87821
0.0240549
-0.00918593
7.72057
-0.00114795
7.71202
7.6112
0.00270989
-0.0626007
-0.00707353
0.0144689
7.61588
0.0343585
-0.0394434
7.61557
0.0309433
0.0124385
0.0183696
-0.0136125
7.75167
-0.0333522
-0.0279754
0.00896519
7.69604
0.0456966
0.0199774
-0.00288821
0.0267656
0.0126674
7.90074
7.45409
7.06044
0.0265469
7.1897
0.0286733
0.0152553
0.0246845
7.83573
0.0210498
7.65642
7.87309
7.80926
0.0102
-0.0127054
-0.211854
0.00249047
0.0341681
7.51588
6.88315
-0.0425852
-0.0470669
0.0358647
-0.168398
0.0239976
-0.404637