/*--------------------------------*- C++ -*----------------------------------*\
  =========                 |
  \\      /  F ield         | OpenFOAM: The Open Source CFD Toolbox
   \\    /   O peration     | Website:  https://openfoam.org
    \\  /    A nd           | Version:  10
     \\/     M anipulation  |
\*---------------------------------------------------------------------------*/
FoamFile
{
    format      ascii;
    class       volScalarField;
    location    "21.5";
    object      SgRate;
}
// * * * * * * * * * * * * * * * * * * * * * * * * * * * * * * * * * * * * * //

dimensions      [1 -1 -3 -1 0 0 0];

internalField   nonuniform List<scalar> 
111485
(
8.96905e-10
0.00786062
0.0243016
5.47839e-11
0.0490622
3.19848e-08
0.046466
0.00616597
0.0190621
0.00124945
0.0468675
0.00946583
0.00482366
0.296138
0.00651397
0.0302873
0.210431
2.624
0.0103366
4.80508e-08
0.0372268
3.49018e-09
0.0268966
0.0345747
0.00874975
3.45028e-08
0.0393632
0.00179467
0.0153114
0.0481626
0.0446245
0.0195652
2.18027e-07
1.47231e-06
0.00711282
9.17131e-05
0.147226
0.209953
0.00245015
0.0242345
0.0435259
0.0708914
0.0158365
0.00166832
8.23438e-05
1.58751e-06
0.0294972
0.000712191
0.0474807
4.29501e-07
1.09538e-06
1.73046e-05
4.6349e-07
0.05141
1.51013e-06
0.0437592
0.00304679
4.43076e-08
7.07772e-05
0.00479493
0.0160527
2.65228e-07
0.00489353
0.0981969
6.453e-06
0.00314021
0.316043
0.0944115
0.00118668
0.0062975
6.74313e-05
0.00673807
1.12612e-05
0.00300415
4.65498e-08
0.000718403
1.54411e-08
0.0411486
2.78001e-08
3.12855e-05
0.280884
0.560183
4.24542e-08
5.23677e-09
0.0093917
0.00385495
0.143636
0.0253833
0.000307695
0.00744583
0.000260921
0.0403341
0.0119946
5.82639e-05
0.0521741
6.68806e-09
0.0270741
0.00183024
0.00153103
0.00170233
1.40673e-09
0.017711
1.96551e-06
0.0180046
0.00459147
1.64535e-05
5.85684e-09
0.00758556
0.00419869
0.000729457
0.00554978
0.00474112
0.00381122
0.00333376
1.02917e-07
3.42644e-05
3.0818e-08
6.5516e-06
0.0128917
4.28261e-09
9.07147e-08
0.000189886
0.0752554
2.26801e-06
0.00159023
0.027957
0.000107111
0.00173048
2.93563e-10
0.000346563
0.0016523
0.0328177
0.0472206
0.000175217
7.81806e-05
0.0482745
1.0414e-09
0.0425245
0.0254357
0.0027404
0.000322955
0.0020022
0.202833
0.0027244
0.00409836
0.0130654
1.7698e-09
9.00064e-10
4.76086e-08
0.0281261
0.00156672
0.0285581
0.115628
0.00470856
3.57311e-05
0.0108869
0.0162054
0.0109681
0.000823419
5.43861e-06
9.64269e-10
0.0522682
0.0225913
7.58444e-05
6.37348e-05
0.00589151
0.00340526
0.0270705
0.00156909
0.000170646
1.57735e-09
1.5232e-08
0.198079
1.10667e-10
0.00548691
0.00206984
5.26136e-07
9.56144e-06
3.65345e-08
5.80432e-06
9.91154e-06
3.71351e-08
0.00151687
0.00677921
0.0298982
0.00414493
0.00769952
0.00409204
0.000464259
1.78655e-07
0.00490997
5.73814e-06
7.13874e-06
0.00658901
0.0103844
0.0286904
0.0114543
0.00503822
8.46382e-07
0.00678957
0.000504158
0.00169103
0.0145043
0.002336
1.8297e-06
0.00384169
0.0250318
1.17829e-05
0.00017742
0.00791401
0.00200664
0.000379214
8.70638e-06
7.80112e-09
0.00841058
0.000312055
0.11937
7.42258e-09
0.0067043
0.020599
0.119137
8.33688e-08
0.00330875
0.0138191
0.000277908
6.90928e-09
4.28538e-10
0.150363
0.00417954
2.36019e-05
9.37372e-05
0.00946538
0.00781325
0.160996
3.88201e-05
2.0309e-05
0.160915
4.67127e-08
0.00243573
0.00958516
0.0166768
0.0116799
0.00966245
3.8965e-06
0.00195181
0.000634526
7.83985e-06
1.18316e-08
0.0309612
0.15711
1.83482e-05
0.00656042
0.0107997
7.85318e-10
0.00019315
0.000113468
2.78486e-07
6.58149e-05
0.0997616
1.85847e-08
0.0147859
0.010705
0.00368175
3.3667e-09
0.0118491
6.93747e-11
6.0895e-08
5.10275e-07
0.165028
0.0230173
0.00620774
0.00550378
0.213664
0.0123974
0.00156495
0.000820469
0.0322698
0.00874013
4.52034e-07
5.36265e-09
0.111587
0.0226911
0.0245425
0.0118283
1.79161e-09
0.22472
0.267947
0.00303139
0.000322055
3.53483e-05
0.0138489
0.00219206
0.00198561
2.0221e-08
0.000653047
2.93027e-09
0.000359963
0.000277122
0.234732
0.0678685
0.358495
1.77004e-08
0.0859739
0.00898106
0.00172525
3.10969e-09
1.15073e-07
0.0246366
0.000300551
0.0569154
0.00401805
0.0134839
0.0192178
3.04539e-05
3.06219e-08
3.53932e-08
0.00377674
0.00440312
0.251148
0.18438
0.00079181
1.7486e-09
8.68461e-09
1.40576e-08
8.47361e-05
0.0601124
0.0118327
2.17239e-06
0.00528186
7.14273e-05
0.0608286
0.0670999
0.00597747
0.0114517
0.00932689
0.0482745
5.00079e-05
7.37347e-07
0.00949131
0.0187423
0.00487915
7.0612e-08
0.151236
0.000329041
0.00229112
0.00805434
0.000335718
0.028489
0.0390916
0.037515
0.00358546
0.0077414
0.0257016
0.0132053
9.10303e-06
1.98954e-07
5.4569e-07
7.13555e-07
0.0311602
0.371938
0.0326936
0.0673388
0.0529548
0.0183436
1.74116e-08
4.08208e-07
0.0167232
0.046938
0.0812894
0.0459165
0.0496287
0.0228303
2.49387e-08
0.0135216
0.000288776
4.08836e-10
0.000983844
0.0166154
1.57483e-05
0.00896135
0.00915846
0.00818351
0.00140739
0.00267557
0.0054802
4.31785e-05
1.1619e-06
0.00267544
3.89302e-07
0.00632033
0.11783
0.0303446
1.17394e-07
0.0276556
0.154848
0.00830208
0.326885
6.63336e-08
0.0476778
0.0188657
7.62788e-09
0.000842847
0.00241242
3.77852e-09
0.0320534
0.0109246
0.00520167
4.50231e-07
2.63353e-08
0.000757785
3.77085e-09
0.012471
3.62361e-06
4.37117e-10
0.0167338
4.03868e-05
0.259041
0.0300557
1.96821e-09
7.95347e-05
0.00163232
9.93897e-05
0.000203572
0.0151759
0.121768
0.831935
5.60806e-05
0.207572
0.000752847
4.5787e-08
0.0389536
0.0309419
2.03868e-07
0.00141976
0.000308977
8.31421e-05
0.023759
0.0239704
0.013881
3.69746e-08
0.352151
0.0167695
0.0228596
0.00439154
9.16259e-05
0.00126974
3.56732e-08
0.253473
0.363553
2.6181e-08
0.00823044
0.000363876
0.000103511
4.05894e-09
3.01006e-05
3.55947e-09
0.28865
0.00963985
0.00633435
0.00214827
0.00260973
1.88792e-07
0.00195075
4.99995e-07
0.041209
1.54534e-07
5.98594e-07
0.0524218
0.0374938
4.03739e-08
1.56717e-09
0.000383116
8.46572e-08
1.60293e-06
0.00107113
2.74612e-08
6.16723e-05
6.73052e-08
0.0741831
6.96484e-08
1.66012e-06
3.68237e-08
0.00706123
4.29829e-07
0.22455
0.00199295
0.237703
1.21972e-08
0.000968005
2.58641e-06
2.67202e-09
0.372423
0.144931
0.0268327
0.0250474
3.06538e-05
0.00203567
0.0822078
0.00850395
0.00105599
0.292996
2.59703e-08
0.0232698
0.000108443
0.00503924
0.0590392
0.0762638
0.000114989
0.0211365
0.000247651
0.000781923
0.0819355
0.00203668
2.14793e-08
0.0798919
0.0488619
3.55196e-06
1.1437e-06
1.96024e-05
1.75912e-09
0.00170002
0.0546738
3.49771e-07
1.78776e-07
0.00251674
4.29637e-09
0.0339486
3.04521e-08
0.000322214
2.01656e-09
0.116713
0.11468
0.0010044
0.0127363
0.0652302
0.0817682
4.79375e-08
2.59547e-07
0.0147757
4.53461e-08
0.000202177
1.77976e-05
0.00164802
0.0426669
0.0644563
2.41552e-09
4.68741e-05
0.0176822
0.00327231
0.00173911
0.00387188
0.00687362
0.0206909
9.73639e-07
0.0254028
0.00599409
2.64192e-09
0.126539
0.0412565
0.0154563
1.34397e-06
0.00476563
0.00692681
0.00226058
0.00399809
0.000386299
0.0136926
0.0013178
0.00013181
0.0229619
0.128761
0.00078697
7.44007e-05
0.0035887
0.727349
3.16124e-08
0.000411717
4.58985e-06
4.06952e-05
0.00731695
0.00317106
0.00274631
0.000452663
0.000167231
0.0160004
0.0110603
5.44182e-08
0.000198829
0.00131168
2.88291e-08
5.53918e-10
5.46136e-08
3.21146e-08
0.0126937
1.85417e-09
0.0347652
0.00850026
0.00193658
0.0988893
0.329906
6.03942e-05
0.00847485
0.0371632
5.52291e-08
0.0518474
1.87539e-07
1.93275e-08
4.7779e-05
0.00422172
0.12143
0.0281534
0.00624535
2.69377e-06
0.0899534
0.146136
0.028686
0.0281782
0.000490833
0.196949
0.0415477
0.0538712
0.0466601
5.96356e-06
0.00032147
0.0404862
0.00803882
0.00142023
0.027567
0.0260705
1.14088e-06
0.0109212
0.000666029
3.24909e-05
0.0348238
0.00025468
0.000660126
0.0108824
0.0407213
0.0013309
0.0215205
0.0196626
0.00721031
3.27683e-06
0.0104269
0.000334558
0.000197972
0.0171598
0.0179879
0.0357509
4.63676e-07
0.00188472
4.45547e-06
4.12522e-09
0.0777643
1.62374e-08
0.136792
5.87658e-05
0.0117938
8.03456e-08
0.0294932
8.32798e-05
0.0427796
1.33488e-09
0.0305404
3.00921e-07
1.6535e-08
8.17087e-07
0.321397
0.000523811
2.95595e-05
0.0412008
1.06996e-07
2.64469e-09
0.206014
0.0696875
8.36337e-05
0.00200112
0.000130309
6.47764e-08
0.0373867
0.00868128
0.179763
6.52454e-10
4.74217e-09
0.000415044
0.00107004
0.000132771
4.56139e-07
0.0631153
0.00723254
2.65342e-08
1.23085e-07
0.0455955
0.0421239
0.00226539
5.97487e-10
3.85078
0.367849
0.19196
1.61419e-08
1.89137e-08
0.0550901
0.000451445
3.9566e-05
0.000590464
0.109853
0.00264266
0.0112259
0.0635664
0.0521567
0.00191214
6.88636e-08
1.20268e-06
1.35214e-08
9.32201e-09
7.70346e-08
9.17467e-10
0.0223934
7.10759e-08
1.95138e-08
3.23152e-07
0.0113312
0.0235895
1.07541e-07
5.851e-07
0.105567
0.0143426
0.00990924
2.69111e-08
7.39612e-09
0.0371871
7.91101e-10
0.00178279
0.00264357
0.00397032
1.22808e-07
1.26683e-10
9.58277e-10
1.59644e-09
0.0146447
1.81565e-08
6.59325e-08
0.00107923
4.80418e-09
0.0232435
0.00200133
2.35766e-06
0.0368738
0.342451
0.00253681
0.281289
0.000251044
0.0435034
0.209888
8.25912e-05
0.0236668
0.067739
0.00599215
2.04992e-05
0.089039
0.783474
0.0100063
4.04835e-08
0.00243244
0.00249941
0.00123107
9.20051e-05
1.85211e-09
1.56429e-10
0.0134663
3.86452e-05
0.00272445
3.91889e-06
0.0014001
0.00142969
0.0367223
0.000570999
1.53179e-08
0.0335608
8.14711e-06
0.0204997
2.78829e-08
4.98572e-05
0.000205303
1.7852e-06
3.47143e-07
0.0407233
1.60891e-09
0.010161
0.063967
9.83184e-09
0.0726345
4.3041e-05
0.0371944
0.000609554
9.74145e-08
2.78068e-05
0.00163553
0.0458878
0.0040975
0.00132885
0.161815
0.000203521
0.00397357
9.99313e-07
1.06511e-05
0.497115
0.162565
4.31155e-08
0.242058
0.000869275
0.000162647
0.00995508
0.000209259
0.00121439
0.0230307
0.00944856
0.00224704
0.00484636
0.00197849
0.0457895
8.18161e-08
0.0330288
0.0264827
9.78314e-08
0.00842972
0.271616
0.0283937
2.95491e-07
0.00189676
1.54824e-08
0.0101837
0.226548
2.3472e-08
0.179674
0.343285
0.0013534
0.00497389
1.09834e-06
0.0486187
7.79414e-05
0.00164139
0.00123144
0.000330079
4.29762e-06
0.0455076
0.00696211
9.00686e-10
0.000428104
0.000541811
0.000914677
0.000467297
0.000864372
0.000171704
1.04079e-09
6.88233e-05
0.0226244
4.12437e-07
0.00189043
0.351928
1.75138e-07
3.25113e-08
0.00324415
0.00330142
3.1803e-09
0.000610798
8.67564e-08
1.57702e-08
1.25085e-08
4.49663e-07
5.06601e-06
1.65601e-07
0.000349144
0.0520331
1.46747e-09
5.40138e-07
0.0045188
0.11619
0.00176825
0.00917686
0.0326918
1.06468e-08
0.000290558
4.06499e-09
2.29913e-09
0.000574091
0.14855
0.042078
5.90291e-09
6.71787e-08
0.0358372
1.81736e-08
0.0232254
4.70767e-08
0.00676491
7.03006e-09
0.00196113
0.0263499
2.83433e-09
7.57261e-07
5.59994e-07
0.0014375
6.26718e-07
2.36272e-08
2.09068e-06
0.00445512
0.0543064
0.00423116
0.00061465
0.00107006
4.30532e-08
0.0014067
0.00189321
0.0439667
3.46777e-06
0.000224585
0.00538629
1.17213e-07
9.5447e-06
0.000151019
1.00754e-07
0.00818435
0.00162712
0.00317985
0.0734088
1.23174e-09
0.0229856
0.0611042
0.000121884
7.76142e-05
5.4353e-09
0.0264243
1.65973e-08
1.13718e-06
2.90509e-05
0.0520448
5.54205e-07
0.0023564
2.76471e-05
0.000854633
1.68956e-05
7.15146e-09
3.83082e-06
1.68604e-09
0.0024696
0.000649369
0.302852
3.13985e-08
5.08266e-07
0.00208922
1.84758e-10
4.79922e-05
4.46978e-07
0.0360231
0.000851905
0.032002
1.50542e-08
0.00140657
0.000170964
6.33181e-05
0.00029269
4.69417e-08
0.0013482
0.0245498
0.137695
0.00116963
0.000319535
6.31721e-08
6.6041e-10
2.27924e-08
0.186892
0.0750758
0.00765534
6.77097e-10
0.174137
2.99486e-08
0.214675
0.00310626
7.63675e-07
9.2212e-08
3.41253e-06
6.17587e-07
0.0419327
2.12735e-06
0.000123371
0.325064
0.00685759
7.22458e-05
3.35833e-05
6.96621e-05
5.19473e-05
3.25976e-08
3.52138e-10
0.0259302
0.000430134
8.189e-09
2.02305e-07
0.000610947
4.59557e-07
0.00154158
0.423797
1.76863e-06
0.00361145
4.06657e-10
0.000390392
2.6494e-07
0.332959
2.78357e-09
0.119386
0.00554564
0.000746432
0.0184229
0.0345259
0.000948674
2.57656e-06
0.000574779
2.30417e-06
0.00465437
6.21734e-08
1.86974e-06
8.59583e-05
2.40213e-06
0.0709505
2.76501e-07
0.00730209
0.00854584
2.08267e-09
0.000385068
8.57181e-08
0.000842693
0.000843594
6.86578e-08
0.0180045
0.000238684
5.54185e-07
0.0234682
0.190698
0.00371438
0.0110217
3.63521e-10
0.0468032
9.00749e-06
1.9112e-07
0.0369766
4.95205e-06
0.114675
9.5517e-09
0.15274
0.000728835
2.08821e-09
0.00111425
4.05078e-07
2.7577e-09
0.00315092
0.00102111
0.010568
8.15496e-09
1.1192e-06
4.64698e-08
0.000892953
5.07699e-05
0.0343607
6.27041e-06
0.000934754
6.78828e-05
0.00118261
3.09327e-05
3.53862e-06
1.09003e-06
0.0183283
0.00982504
0.0182535
0.0359085
0.0440922
0.000268787
0.0481707
1.26797e-09
0.00956393
1.19637e-07
6.28552e-05
0.000465306
0.00673693
0.000428836
0.000540397
0.00200838
8.22827e-10
0.00721105
0.0084192
0.00021663
0.00080757
0.0152714
0.000868431
1.68765e-06
0.0300467
1.38716e-07
5.90808e-09
0.000265546
0.074868
0.00100127
6.65774e-07
0.047663
0.000672359
7.23091e-07
1.38351e-07
0.000601473
2.91969e-06
0.0557713
0.321782
0.000371749
0.000425024
0.0223486
0.00721578
2.16581e-08
1.36304e-08
8.83375e-05
0.00404584
0.0350918
0.0551924
0.00961826
3.19917e-08
0.000323965
0.0418882
2.76788e-05
0.00115904
2.56974
0.044324
0.122534
0.0515593
0.0218268
1.16617e-09
0.00204124
6.6597e-07
1.63852e-07
1.94824e-07
7.44576e-09
0.00282768
4.03215e-09
2.16021e-09
9.21652e-05
4.94418e-08
6.69609e-09
9.56854e-07
0.00970008
0.0602415
0.0109087
0.00318808
0.0777745
0.264977
5.94593e-09
0.189209
0.000158971
0.396106
0.0128965
1.09253e-07
9.2952e-05
0.00758106
0.263314
1.74237e-09
0.00118919
0.0192085
0.00466549
1.63761e-05
0.0257517
1.08148e-06
2.41773e-07
0.0791688
9.94608e-09
0.00807827
1.21195e-07
9.21971e-07
0.00829629
0.000461164
0.0027608
1.1651e-06
0.000391299
0.0006687
4.24241e-07
0.000203203
7.51634e-07
0.0234549
1.43606e-07
1.34635e-07
0.255676
0.0447014
0.000540355
3.33041e-07
6.66305e-09
0.00467517
0.195826
0.00468236
0.0151201
0.217811
0.0202718
2.52189e-09
0.0364826
0.003139
0.00671236
0.0368708
0.0103024
7.92433e-09
0.193576
1.13557e-09
0.0406071
0.00933698
0.0111581
1.58964e-08
0.0133037
1.33383e-06
0.00272795
0.00899088
5.09469e-06
2.89859e-10
4.67898e-09
0.00296076
0.0821134
2.44994e-09
0.0042659
0.0215874
0.000102092
0.00734018
0.0493029
2.33991e-06
0.00014122
0.000845925
6.10471e-08
0.0102966
1.98297e-06
0.00256802
2.91208e-08
2.76159e-08
0.0122747
6.14563e-09
0.000220634
0.00371811
3.17273e-08
8.3184e-08
0.00459254
0.000549747
0.358799
1.18155e-07
0.249308
1.84729e-06
0.00037157
0.0001719
0.00756725
8.35243e-05
0.0807098
0.00559409
5.51809e-05
0.00109216
0.0681646
7.13057e-07
5.03796e-08
0.000426973
0.000787264
0.0424429
1.91285e-07
0.0347189
0.00094878
1.4614e-08
0.232573
9.76254e-09
1.70248e-07
2.37652e-06
0.00290376
0.312094
0.0585997
4.92137e-07
2.44677e-08
1.72392e-09
1.11708e-07
1.09811e-07
6.61685e-07
1.21094e-07
6.45748e-09
6.40068e-08
1.17443e-08
1.84147e-07
0.0642664
0.0381102
2.82376e-09
1.38342e-05
8.20737e-09
7.91821e-08
1.31651e-08
0.0373561
0.0824663
0.016991
4.28201e-08
1.22778e-08
8.3746e-07
0.00663094
4.08749e-06
1.36875e-07
0.297719
2.706e-07
3.12602e-06
0.0228641
0.000189357
5.36187e-06
0.00880121
0.0244084
3.10686e-08
0.00339833
0.00475215
1.79987e-08
0.0134911
0.0391356
0.0177475
0.00341647
0.0106456
3.75524e-06
1.12531e-07
0.335493
0.0104943
0.00326039
0.0642949
0.00690882
0.00180414
0.0214304
0.00996171
0.000701456
0.0156011
0.00107195
0.0103422
3.37742e-06
0.0241391
0.00842822
0.00162865
0.00142686
5.52235e-09
6.30546e-08
4.67441e-08
6.72384e-10
1.78386e-07
0.00912672
0.0134941
1.96731e-08
3.17361e-09
1.83888e-07
1.73298e-05
4.41724e-09
9.93206e-09
8.23284e-07
1.12697e-06
0.00466528
0.000295734
0.0216831
0.248109
1.16417e-07
1.16276e-05
0.0298911
1.17426e-05
4.1155e-09
1.80632e-08
0.232333
5.62454e-07
5.65334e-09
4.74785e-06
0.234123
0.0135061
0.0334167
0.034424
1.10066e-06
0.0138998
0.000353473
0.000388239
1.94862e-08
0.0119105
4.97075e-06
1.91614e-07
0.0158373
1.0392
0.197414
6.79337e-06
1.37801e-06
0.0172941
0.0196852
0.0178275
0.00555516
0.00700854
1.19637e-08
0.000640527
0.000416363
0.0611258
1.0046e-05
0.276119
3.13233e-08
0.00197308
0.0246534
0.0174846
0.0110998
3.26854e-06
0.00606368
3.60591e-08
9.82739e-06
1.11969e-09
2.02608e-08
0.00245039
0.883122
1.01047e-07
5.24346e-09
0.000425233
0.0229221
0.00175938
0.00681732
0.0321735
0.0046828
0.0203254
2.009e-05
4.53992e-06
0.000205792
0.0289887
0.00554472
0.00331548
1.22379e-06
7.25545e-09
0.000157896
0.0217235
0.0026486
4.89306e-09
0.149236
0.0575524
0.00630317
0.00609245
7.40663e-09
0.00019665
0.00676425
0.0222641
8.5318e-10
0.00041432
0.0147721
0.00104271
0.205768
0.00461947
0.00776107
0.000247151
0.00320869
0.0205187
0.0350781
8.38456e-05
0.0220208
0.000120405
0.200103
0.000165572
5.4433e-10
0.00247628
0.00747703
0.000422473
0.0113166
0.000461388
0.000997097
0.000499842
0.0424426
0.00361845
5.28816e-05
0.0370659
0.00128464
1.21621e-07
1.09658e-08
0.102306
0.000520166
0.00103755
1.05974
0.0344834
0.0120376
0.000435146
0.0443327
2.26437e-06
3.23266e-06
0.00378823
4.22619e-05
0.00199348
0.00394289
0.00216699
0.0045035
6.43947e-09
0.00021429
0.104183
2.0147e-08
0.0139317
0.0073591
8.05137e-06
0.00391016
0.00013506
4.06165e-08
0.000600558
0.139042
4.7935e-08
5.45036e-09
2.11695e-08
0.149042
0.252101
0.0135752
0.0533579
0.00457957
0.0317618
8.00719e-06
0.00777385
0.0120208
0.0229917
0.00150053
0.118228
0.341196
0.40183
0.0100903
0.00880272
0.0354716
0.156278
0.364791
1.40554e-08
0.175468
0.0476459
1.10034e-08
0.000406029
5.91168e-07
2.88138e-08
3.7525e-08
2.29486e-07
1.75726e-08
0.140368
4.48546e-08
0.00692172
0.00128637
2.29864e-08
0.00362071
7.34515e-06
0.0133024
6.55606e-08
0.000614193
6.46096e-06
0.020723
0.000222425
6.66718e-06
0.00411507
0.027154
0.0158184
0.0037517
0.0260879
0.00333164
0.0222739
0.0519608
0.00941185
8.35431e-07
0.00104683
0.000334367
0.00541179
0.00971443
0.000591401
1.15401e-06
5.79631e-05
1.37841e-07
0.00335044
0.0412333
0.000768448
0.329347
0.00247174
0.000361312
1.6247e-08
0.061575
1.15805e-09
0.00841148
0.0202799
0.00113028
9.66976e-05
0.001771
0.00661287
0.00178426
0.000792914
0.00627561
0.00596391
0.00258837
2.25414e-05
0.078948
3.56233e-07
0.012288
0.0103167
8.03533e-07
7.75035e-10
0.000261674
0.00820266
0.0173528
1.40647e-08
0.00215088
0.0444117
0.000212795
0.0043978
0.0859095
1.69491e-09
8.23692e-11
0.00346775
4.2063e-09
0.000104491
0.0114287
2.17703e-05
0.0103382
0.0310388
0.0181849
3.03738e-08
0.00151494
9.04876e-05
0.00013304
0.0460957
2.89916e-08
9.82509e-07
0.0101204
0.00053666
1.01197e-06
0.162095
0.000923929
2.92289e-08
4.15813e-08
0.000230923
8.39506e-05
0.00233711
0.00299502
0.0245098
0.242547
4.02559e-10
0.000334565
0.000712779
0.0425473
1.76405e-06
0.0475169
0.0831088
0.000119835
7.51569e-06
2.01862e-05
1.12746e-08
1.59809e-05
2.71024e-05
0.000378367
1.91985e-05
0.000319903
2.61567e-05
0.000678546
0.000346151
0.000610269
0.000130594
1.68433e-08
0.0272249
0.00941116
6.3356e-06
0.081518
0.000249916
0.000214417
1.38379e-05
0.00115593
0.00026615
0.00262201
0.000386696
0.00104089
1.95114e-05
2.49806e-08
0.00118618
0.000418582
0.0668951
2.13459e-06
0.0365596
4.9361e-05
0.0350697
8.53136e-05
8.38732e-07
0.000399222
0.0263613
0.00742834
2.5244e-08
0.000300338
1.1091e-05
0.0043138
0.00122417
0.340699
4.64372e-05
2.04571e-06
0.0191766
0.00156094
0.00496111
0.0338124
0.070449
4.06845e-10
0.0203351
0.00365363
0.04977
5.66666e-09
0.0011482
5.70524e-07
0.0427656
4.98714e-08
4.88608e-09
0.00321505
0.0021077
0.00290427
0.298414
0.0395637
0.0251683
0.0338565
0.0160328
0.220832
0.0432004
0.00487566
0.00467957
0.00571903
0.000580024
0.0094742
0.03742
0.00143804
0.00141607
0.0308059
1.93325e-06
0.00329264
5.2053e-07
0.0174156
2.36137e-06
7.69892e-07
0.00156766
4.15398e-06
0.00572029
2.46523e-08
3.69111e-07
0.0805304
9.73915e-09
7.74126e-08
0.00083647
6.33036e-08
0.000687322
3.56071e-05
0.0658268
0.0165116
0.266266
0.00751316
0.00688116
0.0399333
0.549065
2.52781e-10
0.0642508
0.0279929
0.0163277
0.0229632
0.00226319
0.052636
7.0416e-06
7.4696e-06
8.4904e-07
0.129563
1.09497e-06
1.02957e-07
0.0165859
6.68625e-07
1.50599e-08
0.00528361
2.47577e-06
0.285856
8.15547e-05
3.53572e-05
4.63652e-05
5.86469e-05
0.00144882
0.00637885
1.28429e-10
0.0217288
0.000410935
2.15135e-05
0.0949319
6.92456e-08
0.0145862
0.0169572
0.00358872
3.21833e-08
0.0169553
0.00960003
0.000885171
0.00515779
0.0116865
2.91843e-08
2.26464e-08
0.00166735
2.23444e-08
1.38757e-09
2.87693e-09
0.0185194
0.355128
0.00429628
0.00220035
6.90845e-05
0.0475234
0.0431923
0.00398774
0.00238598
0.00886693
0.0196994
0.00265688
4.05295e-09
2.68922e-09
4.15885e-09
0.00697662
1.11103e-07
0.352304
0.000526814
0.000766648
0.00184169
0.00247597
0.0207491
2.56351e-09
0.0592986
0.0024485
0.000373671
1.55253e-06
4.11487e-07
1.61783e-07
0.481245
0.000309716
0.000581676
0.000868427
0.00969153
0.204207
3.17059e-07
3.20481e-07
4.99621e-07
0.00361731
0.0165459
0.0189618
0.0331346
0.00165529
0.00342042
3.5989e-06
5.75208e-10
0.000190157
3.81694e-07
0.16556
0.0212248
2.40896e-07
1.25016e-06
1.89511e-05
0.0606623
0.0297598
1.84577e-05
0.0132971
0.0905839
0.000898119
0.40541
0.0473011
2.53749e-05
0.0217041
0.173887
0.0186488
1.05734e-05
0.00492968
1.53594e-08
0.0139326
0.0017228
0.0234093
1.14885e-05
0.000380185
1.26207e-09
0.023131
1.03795e-08
2.87171e-05
0.382674
1.22524e-07
0.00586541
0.00120169
3.74544e-07
3.90149e-08
0.00202472
4.17879e-07
1.15063e-07
0.0107028
0.000149712
1.39876e-08
0.0232858
0.0440687
0.0162581
2.62034e-10
1.91311e-09
0.000594423
0.00262042
0.00308819
3.35661e-09
9.903e-08
0.000132776
0.00381019
0.00188686
0.0126044
0.366987
1.41675e-09
0.141534
0.0111036
0.00623426
0.0561734
1.08607e-06
2.10901e-08
0.0228133
7.39049e-10
0.0296709
0.00489327
0.00574232
1.10214e-06
9.26708e-09
3.9535e-09
1.61705e-08
2.0387e-05
0.13396
0.212441
0.00212692
2.5469e-06
1.70589e-10
0.0557616
0.225412
0.0341018
0.111821
1.39002e-07
0.000966794
0.000246744
2.40011e-07
1.32436e-08
0.00367659
0.00618009
3.70605e-08
1.10707e-05
0.00284159
0.0599665
0.204968
0.00105552
2.00949
9.98131e-09
3.74657e-07
0.0113914
0.000709321
3.37126e-05
0.639239
0.000589843
0.00600448
6.55101e-09
8.8323e-08
1.26601e-05
0.0582607
0.00819035
0.177809
1.99587e-08
0.0244493
0.0184445
0.826502
1.06874e-08
1.28468e-09
1.10271e-07
3.52937e-08
0.00655433
0.000327577
1.01894e-08
0.037319
0.0179721
0.159966
0.00458803
3.01354e-06
1.65287e-06
0.027666
1.33166e-05
3.07283e-08
2.41552e-08
1.33033e-08
0.020424
9.61566e-06
0.0581734
0.0563125
0.0247263
0.0114818
5.96262e-09
2.41173e-09
2.51162e-08
0.0146696
0.00025024
2.01628e-07
3.66479e-08
3.57727e-09
0.0219386
0.00234532
0.0108843
0.0403774
0.00191344
0.311768
0.0047488
4.39731e-07
4.26337e-10
2.593e-07
0.0534614
9.54015e-10
0.0182867
2.24952e-08
0.014421
4.50165e-05
0.00159617
0.000145699
0.00241483
4.05659e-09
1.57692e-08
0.368765
0.153725
3.51237e-05
0.00377789
4.22232e-07
0.000462967
9.64672e-05
3.00183e-06
3.29969e-06
0.000305135
8.18331e-08
0.00100776
0.0391558
0.0337813
2.06562e-07
8.3262e-05
9.06599e-07
0.0340792
0.182062
0.000153029
9.30209e-10
0.00963321
3.42844e-07
0.00265321
0.017375
0.00139754
1.12219e-08
0.000882065
0.000530472
0.0001344
0.0040894
0.000123524
0.0016907
5.38324e-06
7.51788e-10
0.000155709
0.00556573
0.00029762
6.64092e-07
9.65472e-06
0.000121712
0.561781
9.44404e-09
1.86637e-08
3.489e-08
3.46484e-10
1.27384e-07
0.0216492
0.000586002
0.00112161
0.000107243
0.000206048
0.00150088
2.79404e-10
0.00521483
7.08989e-09
5.39019e-07
7.71536e-09
2.62087e-05
0.00205314
1.547e-05
1.11514e-07
1.33022e-08
0.0136823
1.22515e-07
6.9351e-09
0.156383
9.22681e-06
0.0761207
0.12225
0.54533
9.01457e-09
0.193754
1.08076
1.05907
0.609151
2.85218e-09
4.07581e-10
0.00457025
0.00431251
6.82933e-05
0.010332
0.0424334
0.0300689
3.28967e-05
4.47882e-06
0.00125444
3.40546e-08
1.23426e-09
0.000124733
0.000410644
0.0260969
6.45307e-09
0.117876
0.000126836
3.38512e-07
0.000111651
0.00780227
0.00155782
2.28131e-06
0.00762302
6.73969e-09
0.00328823
0.00217022
0.00705682
5.82591e-08
0.00175854
0.00548654
1.06463e-05
0.00321279
8.74005e-08
0.0298883
5.71024e-05
0.00894459
8.57887e-07
0.193066
5.64517e-08
8.51286e-07
2.72578e-08
0.118011
0.120912
2.06873e-06
0.011146
0.00882298
0.0550744
3.32738e-08
0.0301638
0.0158943
0.170815
1.28046e-06
0.195355
0.0232268
0.0426063
0.00364221
1.60678e-07
0.0527391
1.72959e-06
0.211745
1.84316e-09
0.00240691
0.00397444
1.09007e-07
5.65829e-05
1.27277e-06
0.0193418
7.58615e-09
0.0398083
2.89573e-07
1.00046e-05
1.09975e-06
5.30763e-07
0.000260839
0.0018855
0.124753
5.0775e-06
0.000247081
0.0380516
1.35102e-06
0.0430086
7.73782e-07
3.38072e-06
2.50709e-06
0.00550752
1.91803e-10
5.04478e-09
6.92184e-10
0.00304934
5.62064e-08
0.0676141
2.22679e-05
0.00306312
3.96172e-09
0.00568035
0.335937
0.00516698
0.00523552
0.0246971
1.25973e-05
2.01455e-07
7.8775e-08
0.00297745
0.00160469
2.71077e-06
0.000545552
0.000573917
4.67298e-08
2.99446e-08
0.310082
7.83369e-08
0.0199011
4.1339e-08
0.00218302
0.00296194
1.91719e-07
7.93368e-10
0.0457124
7.1212e-09
2.71717e-09
0.0164957
0.056465
0.0043598
2.24668e-06
1.40016e-08
0.00641749
5.3565e-06
0.0115558
6.0779e-06
7.41091e-09
0.00215026
6.74312e-05
0.129347
4.07999e-09
4.97568e-09
4.39872e-09
0.00312956
0.162892
9.66617e-07
1.63138e-08
7.59028e-06
0.00142954
1.88988e-08
0.0177167
0.0284884
5.25471e-08
4.44186e-09
0.00670016
2.40008e-07
2.06002e-05
1.53865e-09
2.56163e-05
1.00522e-08
0.0630988
0.000350947
1.35085e-07
5.50783e-09
0.0688101
2.98229e-08
0.056585
2.43013e-07
4.66873e-08
9.48364e-06
0.00691885
0.0469543
0.00799509
0.0499389
0.0606715
0.53182
0.00253996
0.0403811
1.08662e-05
1.66575e-08
0.00227578
0.141016
0.0370196
0.0422181
1.19001e-08
0.00683429
1.51833e-08
0.00433459
9.90174e-07
0.00872502
0.000171361
0.051859
5.30256e-07
1.67523e-08
0.0199075
0.000294758
2.39693e-08
0.0243635
0.000285039
1.97758e-06
9.79434e-10
0.0326631
0.00912002
0.00598736
0.000789723
0.0016892
0.0159182
0.00095258
0.00445198
8.69204e-06
0.0265787
0.000125976
0.000457896
4.05064e-09
6.33632e-07
2.79236e-08
0.00963089
9.06491e-08
2.3136e-06
1.02711e-10
0.000401201
0.391715
0.0889603
0.00223297
5.17693e-09
0.00396448
0.0552474
0.102863
0.00291803
0.000271618
0.0414669
5.56249e-07
1.20715e-07
2.90914e-09
0.00273523
0.00118301
3.86516e-08
4.35092e-09
0.00229941
1.6579e-07
0.785374
0.0539307
0.0930525
5.26663e-09
1.14306e-08
0.0420911
4.72768e-09
0.00917582
9.48302e-09
0.000647947
2.28452e-08
0.00893486
5.14148e-08
6.08831e-09
0.00108187
0.154825
0.0646561
1.45075e-08
0.0690021
4.2446e-08
0.0038302
0.17147
0.11795
2.40048e-07
0.000488272
3.87871e-09
1.97331e-06
0.000278919
0.0156565
0.000301382
1.00093e-08
0.000634347
0.00300771
0.00492229
0.00756268
3.66779e-07
3.32686e-07
3.38628e-06
6.1065e-07
9.92196e-09
3.38603e-09
0.0752785
0.0371795
1.41724e-08
0.084402
3.26145e-10
2.10614e-08
0.0685525
4.70383e-09
4.80971e-09
0.0401734
1.82004e-08
7.41546e-10
1.00989
2.01446e-09
1.29815e-09
0.00193272
0.0929183
1.31911e-07
0.037145
8.45805e-09
0.0209732
0.0503143
6.28131e-06
0.000864138
5.94108e-10
7.27581e-08
1.04576e-06
1.80125e-07
0.31951
0.0455889
0.000258179
3.25285e-08
0.0463087
1.04122e-09
2.07139e-08
1.80436e-09
0.102913
0.00178629
0.000110638
1.28975e-09
1.2971e-06
0.0481627
0.00091456
3.64722e-07
0.000251412
0.108994
0.0861557
3.52363e-05
0.0852786
0.000925406
0.0426921
4.20708e-05
0.0657654
0.000345092
0.0288777
1.47816e-06
0.00670561
0.000458432
0.000932589
6.96707e-10
0.00130771
7.2212e-08
0.00379428
0.0243785
9.99571e-07
0.00234487
0.000311532
1.7467e-07
0.0102159
9.07729e-08
2.69593e-08
2.74084e-08
4.53798e-08
5.0727e-06
4.45692e-08
4.86791e-08
7.45463e-08
0.267659
4.3259e-05
1.51526e-10
1.80512e-09
5.47492e-08
1.00043e-07
0.0299662
0.767986
0.00210134
0.000140412
9.30439e-09
0.00201527
0.00139108
0.0463741
3.20331e-05
1.29325e-05
5.65542e-07
1.1081e-06
2.46559e-06
0.000222915
0.000117034
0.179774
0.0672061
8.23939e-08
0.00106244
0.000299928
1.40241e-08
0.0242346
4.61059e-06
3.75875e-08
1.7315e-06
0.161368
0.0621848
1.21574e-09
0.0250545
1.42126e-08
0.0487429
5.12985e-05
0.0355209
0.053116
5.06053e-09
6.7324e-09
2.31893e-08
2.5069e-05
0.00565973
0.225365
0.0279
0.0417273
0.00446962
0.00053988
8.71317e-10
0.00011707
0.138317
0.00128248
9.53874e-05
0.00296133
4.05323e-06
0.0991367
5.01591e-08
0.205525
0.0383761
1.36627e-08
0.000487835
0.00716452
4.01615e-08
0.00967525
1.41089e-08
1.86064e-07
0.197354
0.0299498
5.32971e-08
8.2578e-09
6.99711e-07
2.57131e-09
6.09292e-09
0.000126634
2.45578e-08
5.58648e-10
0.00309961
7.71054e-09
9.76193e-08
2.70259e-07
0.000229316
2.1957e-07
0.000169159
1.09462e-07
4.69193e-08
2.26174e-05
6.6131e-05
0.00357158
0.0431764
8.07538e-05
0.00502716
2.30089e-06
0.320205
0.315481
1.25045e-07
0.00343665
1.78779e-08
0.0458383
0.0380444
0.000405574
0.09034
0.0685279
7.16585e-06
1.10409e-09
0.0024571
1.13147e-08
1.22527e-09
3.97754e-07
1.59907e-05
7.07925e-09
1.73883e-05
0.0355654
5.14782e-09
2.40495e-08
0.337246
1.52943e-09
0.0172646
8.28697e-06
0.00132698
9.78027e-09
0.000442063
0.000145755
0.23968
0.00795048
0.0239581
0.000182863
0.0403281
0.000271173
0.0753549
0.000153409
0.000226698
0.00983377
0.0580737
0.00032432
0.00127234
4.31729e-06
1.7828e-07
0.00111198
0.000225055
0.0158394
0.0120799
0.000148695
1.90492e-06
0.00549014
0.00520757
0.018496
2.18525e-09
0.0122744
0.0166505
0.00275955
0.00149412
0.00130897
0.00328239
0.0189904
0.0408006
0.00715821
0.0110477
0.00799936
9.06349e-05
0.00290794
0.00363622
0.00108051
0.002616
0.0141906
0.0137729
0.019386
0.00012202
0.0114369
0.000422845
0.00509123
0.00285398
0.000356787
0.00235437
0.000204042
0.0757396
0.00398586
0.00123105
0.00014213
0.00072873
0.0158761
0.00245803
0.215202
0.0035409
6.86074e-10
0.231725
0.0459596
0.0217289
0.00713255
0.0202829
0.000406086
0.00865817
0.463258
0.00213481
0.00138178
0.00250672
0.175034
0.00117781
0.0744205
7.59444e-05
7.75088e-08
1.31184e-08
0.00223139
0.00618208
0.011834
0.0709695
0.00680092
0.0613304
0.0549998
0.0711663
2.90399e-08
0.00705577
0.00264162
0.0250759
1.05893e-06
0.00635003
9.22214e-08
0.225449
0.0116282
0.00752942
0.221337
5.19255e-09
8.99452e-08
0.00221566
0.000111156
0.000765347
1.55939e-07
0.00657
0.000972548
0.0782188
8.93856e-07
0.0222962
0.00309298
0.000351184
0.000126667
0.002384
0.00131571
2.41308e-07
0.00187501
5.34042e-05
9.76538e-09
0.269234
0.0037964