/*--------------------------------*- C++ -*----------------------------------*\
  =========                 |
  \\      /  F ield         | OpenFOAM: The Open Source CFD Toolbox
   \\    /   O peration     | Website:  https://openfoam.org
    \\  /    A nd           | Version:  10
     \\/     M anipulation  |
\*---------------------------------------------------------------------------*/
FoamFile
{
    format      ascii;
    class       surfaceScalarField;
    location    "5.8";
    object      phi;
}
// * * * * * * * * * * * * * * * * * * * * * * * * * * * * * * * * * * * * * //

dimensions      [0 3 -1 0 0 0 0];

internalField   nonuniform List<scalar> 
214403
(
-0.00668202
0.00512366
0.000283273
0.00127509
-0.00329503
-0.0110798
0.000941019
0.0134338
-0.010119
6.72651e-05
-0.000137602
0.0101894
0.00879467
-0.00591297
-0.0147414
0.0118597
0.0121345
-0.0153427
0.00365422
-0.000446105
-0.00530238
0.00552284
-5.377e-05
-0.00016669
-0.000844468
-0.00160074
-0.00910866
0.0115539
-0.0167913
0.00955586
-0.00252341
0.00975881
-0.0230143
0.0162471
0.0163955
-0.00962832
0.0140212
0.00166391
-0.0156708
-1.42387e-05
0.00497551
-0.00985585
0.00202747
0.00285287
-0.0102141
0.00321184
0.00529399
0.00170828
0.000470261
-0.011306
0.0136173
-0.00278157
-0.00982444
0.00988555
-6.1111e-05
0.00189283
0.011786
-0.0151067
0.0014278
-0.0118979
0.00994894
0.00301284
-0.00106389
-0.0119788
0.0116863
0.000292477
0.0038829
-2.25059e-05
-0.000964224
-0.00289617
0.0154897
-0.00927021
-0.0205958
0.0143763
-7.5183e-05
-0.00307959
9.038e-05
0.00306439
0.0063515
-0.00620271
-0.000148794
-0.012172
-0.00421078
0.00418681
0.0121959
-0.00224984
0.0134734
-0.0108676
-0.000355966
0.00664462
0.000697436
0.00231767
-0.00965972
-0.010122
-0.00486429
0.0131032
0.00188304
0.00912421
-0.0115559
6.86201e-05
0.00236307
0.0031879
-0.00278996
0.0104462
-0.0108442
0.00755087
0.00987657
-0.0118977
-0.00552972
0.011041
-0.00692464
-0.000314247
-0.00380206
-0.00581759
0.00592981
-0.000112219
0.00240861
-0.00501617
0.0133829
-0.0107754
0.013958
0.000661396
-0.00243503
-0.0121844
-0.00557997
-0.00572658
0.00586451
0.00544204
-0.00118239
-0.00666906
0.00590778
0.00194367
0.00435956
-0.00299228
-0.00928988
0.0079226
-0.00168759
0.00841897
-0.00304155
-0.00368983
0.015847
-0.000389751
-0.0154572
-0.00681643
0.0132931
-0.00647663
0.00122376
-0.0145848
0.00845037
0.00491069
0.00242772
-0.000976264
0.00593965
-0.00739111
0.00562831
-5.93535e-05
-0.00556895
0.0101229
-0.000218072
0.00179436
-0.0116992
-0.0128406
0.00161322
0.0136551
0.00085379
0.000873709
0.00852532
-0.0102528
-0.00407213
-0.0265847
0.0257855
0.00487135
0.0056626
0.00102239
0.0012802
-0.00796519
0.00419071
0.00316891
-0.0102365
0.00287689
0.0132029
0.00791204
-0.0144703
0.00119508
0.0112041
-0.00227623
0.00180531
-0.00676055
-0.00398149
0.00893673
0.00307784
0.00472915
0.00140668
-0.00921367
0.00182803
-0.00137335
-0.00422504
0.00377036
0.00681445
-0.0123341
0.00859747
0.0117667
-0.0110787
-0.0037997
0.00311165
0.0105497
-0.0019299
-0.00849532
0.0115173
-0.000488811
-0.00253312
0.00874759
-0.0111865
0.000129135
0.00230979
-0.00817612
0.000540588
0.0130653
-0.00542974
-0.0151566
-0.0142504
0.0119639
0.0174431
-0.00810105
0.00815159
0.00160304
-0.00165357
0.00127804
-0.0103554
-0.00850389
-0.000177067
0.00442055
0.0042604
-0.0132659
0.00569601
0.00858263
-0.0010127
0.0155605
-0.0125365
0.000802767
-0.00382673
0.00071421
0.000261324
-0.0102211
0.0092456
0.00051471
-0.00282351
0.0139627
-0.0116539
-0.0344984
0.0036064
0.00385134
0.0270406
-0.00317655
0.00935481
-0.0029628
-0.00321546
0.00460147
-0.0024219
-0.00981817
0.0076386
0.00110401
0.00687022
-0.00873196
0.000757727
-0.000169698
0.00841105
0.00292484
-0.0111662
-0.00167089
-0.000264921
-0.00348102
0.00541684
-0.0089358
0.00976518
-0.000369513
-0.000459867
0.00031282
-0.00897728
-0.00631272
0.00559156
0.00169712
-0.000975952
-0.0167214
-0.00105629
0.00815952
0.00961818
-0.00505037
-0.00215186
0.00429638
0.00290584
0.00743932
-0.024946
0.00345756
0.0140491
-0.00387936
0.00780694
-0.00426406
0.000336481
0.00556471
-0.00432093
0.000550055
-0.00179383
0.000127136
-0.0104881
0.010361
3.44326e-05
0.00851258
-0.00854701
0.00749203
-0.00146484
0.00099241
-0.0070196
-0.00450968
0.00643434
0.00213256
-0.00405722
-0.00317284
0.0135185
-0.00325003
-0.00709561
0.00638835
-0.0108886
-0.000413003
0.00491325
0.00729212
0.00770606
-0.0149982
0.0107668
-0.0121002
0.00310049
-0.00176708
0.00104767
-0.00194216
0.0140545
-0.01316
0.000405635
-0.0022696
0.0101252
-0.00826123
0.00240586
0.0211737
0.00609908
-0.0296786
-0.0185207
0.0162927
0.0105637
-0.00833567
0.000850511
0.0065298
-0.00877907
0.00139876
0.00864341
0.00960744
-0.00314509
-0.0151058
0.016056
-0.00975413
-0.000319236
-0.00598264
0.000703656
-0.00206235
-0.00647626
0.00783496
-0.00655427
3.72422e-05
0.00651703
0.00975686
0.000336874
0.000673066
0.0121307
0.00102423
-0.0184567
0.00530177
-0.00972837
0.00214597
0.00172947
0.00585293
-0.00618482
0.00153357
0.000760267
0.00389098
0.0015115
0.00108125
-0.0128238
0.0102311
-0.00262379
-0.0152698
0.00973534
0.00815824
0.00613297
-0.00725535
-0.00472775
0.00585012
0.00991067
-0.000106207
-0.00991075
0.000106282
0.00757369
-0.0107041
-0.00371145
0.00684186
0.0196034
-0.00593196
-0.00305454
-0.0106169
0.011137
-1.93763e-05
-0.0102419
-0.000875745
-0.00562064
0.00661782
0.0137908
-0.0147879
0.0120442
-0.00422863
-0.0115836
0.003768
0.00221997
-0.00324028
0.0141032
-0.0130829
-0.0159038
0.0144948
0.0137409
-0.0123319
0.000716763
-0.012395
0.0047832
0.006895
0.0155152
-0.000818116
-0.000317872
-0.0143792
0.010964
-0.00213646
0.00212007
-0.0109476
-0.0126979
-0.0115492
0.0136683
0.0105787
-0.0024112
0.006917
0.00187485
-0.00638065
-0.00540437
0.000294634
0.0104747
-0.00536494
-0.00120757
0.0136148
-0.0126722
0.00026497
-0.0117732
0.0109335
0.00212826
-0.00128858
-0.00039563
-0.00686918
0.016389
0.00216524
-0.00720811
-0.00527147
0.0103143
-0.00571952
7.48898e-05
0.00564463
0.00175371
0.00797458
-0.00737684
-0.00235146
0.0127512
-0.00735262
-0.00195474
-0.00344384
9.58142e-05
-0.00378622
0.0036904
-0.00717389
-0.00193449
0.002697
0.00641138
0.000742241
0.00408522
-0.00916563
0.00433817
0.0156535
-0.00141379
0.00611774
-0.0203574
0.00111878
-0.00138894
-0.0189038
0.019174
0.00121832
-0.00541531
-0.0071533
0.0113503
0.000457623
0.00984871
-0.000549478
3.95843e-05
-0.00580976
0.00577017
0.011969
-0.00444129
-0.0053625
-0.00725665
0.00605833
-0.00597556
0.013234
-0.0110139
-0.00133534
-0.000884805
0.00132307
-0.00625659
0.00273552
0.002198
-0.010797
-0.00327083
0.00219525
0.0118726
0.00899021
-0.0146081
0.00962502
-0.0040071
-0.000401788
0.0131964
-0.0132138
0.000419168
-4.09222e-05
0.0120377
-0.011927
-6.98446e-05
-0.0167883
0.0133977
-0.010754
0.0141446
0.014003
-0.0135517
-0.000451266
-0.0128473
0.0172039
-0.00314203
-0.00121457
-0.0114757
0.00276075
-0.000866024
0.00958093
-0.0189076
0.00145571
0.0121566
0.00529533
0.0033503
-0.00457531
0.00254808
-0.0046455
0.0052818
0.00849684
-0.00913314
-0.0050157
-0.00225094
0.00287025
0.00439639
-0.00681492
0.00445518
-0.00860139
0.0109611
0.00204712
0.000166423
-0.0150608
-0.00673168
0.00671732
1.43537e-05
0.0073349
-0.00705197
-0.000282927
-0.0110813
-0.000724495
-0.00294887
0.00272996
-0.0145847
0.0169813
-0.00512664
0.00656737
0.0113001
-0.0143712
-0.00349626
0.0125462
-0.0136269
0.000365521
0.000715183
0.00669578
0.00173861
-0.00691972
-0.00151467
-0.0105658
-0.000586804
0.0138825
0.00609911
-0.000440858
-0.00743507
0.00177682
0.00687173
-0.00588462
0.00677888
-0.00776599
-0.0119468
0.00224489
0.0162693
-0.00403747
-0.00565864
0.0186929
-0.00899681
-0.00575712
-0.00634525
0.00153661
0.00171331
0.00455833
-0.0120288
-0.00815211
-0.000719934
0.0131011
-0.00422908
0.00127074
0.00200718
0.00727856
-0.0105565
-0.00387028
0.00947343
-0.00560314
0.00306792
-0.0147424
0.0053292
0.00878363
0.00613532
-0.0132056
-0.0123914
0.000149512
0.0154407
-0.00319881
0.00210804
0.00180606
0.00564243
-0.00955653
0.00837848
-0.00844245
6.39696e-05
0.00313689
-0.00118456
0.01053
-0.0124823
0.0110585
-0.00350515
0.00531683
-0.0128702
0.0203609
-0.00655858
0.0151965
-0.0289988
0.00331734
0.00617391
-0.00256483
-0.00692643
-0.00922973
0.00379714
0.00483733
0.000595262
0.00661291
-0.00498181
-0.000136577
-0.00149453
-0.00426544
-0.0054042
0.0157427
-0.00607307
-0.00740845
0.00961792
0.00383514
-0.00604461
0.0111566
-0.000610069
-0.00367484
-0.01728
0.0114255
-0.000960401
-0.0164782
0.0152042
0.00706147
-0.00578741
0.0105134
-0.0118482
-0.0017108
0.00304567
0.00592987
-0.0107153
-0.00561227
-0.00611802
-0.00561269
0.00317236
0.00855835
-0.0087327
0.00271158
0.00862134
-0.00260021
0.0101031
-0.00961381
-0.00662388
0.00613462
6.26835e-05
-8.85183e-05
-0.00949601
0.00952185
0.000228988
-0.00831953
-0.00031569
0.00840623
-0.0024028
-0.0142354
0.00223655
-0.00823122
0.00740378
-0.00140911
-0.00558457
-0.00235238
-0.000795751
-0.000185389
0.0140105
0.000196117
-0.0334668
0.0235423
0.0170182
-0.00709366
-0.0098974
0.000673906
0.000359979
0.00886352
-0.00196866
0.0313362
-0.0368731
0.0075056
0.00156847
0.00241927
-0.00542894
0.00144121
-0.0211819
0.0114127
0.00147596
0.00829325
-0.000249811
-0.0140589
-0.00200268
0.0163114
-0.00582067
0.0211701
-0.0146728
-0.00067659
0.00950699
0.0138213
-0.0127756
-0.0105528
-0.0113454
0.010806
0.0134197
-0.0128804
0.00441283
0.00616615
-0.00768045
-0.00289854
0.00437936
-0.00295272
-0.00701121
-0.0225447
-0.000886036
0.0184191
0.00501162
0.00663645
0.00101788
-0.00385719
0.006801
0.00910404
-0.0084063
-0.00749875
-0.0112575
0.00250805
0.0109812
-0.00223171
0.00133587
0.00353952
0.0123285
-0.013067
0.0129014
0.00125135
-0.00108579
0.00809913
0.00635611
-0.00572619
-0.000226384
-0.00161159
0.00756417
-0.00863631
-0.0017191
0.00480262
-0.0166184
0.00707016
0.00474557
0.000506152
0.00898258
-0.00996606
0.000477323
-0.00344953
0.000667468
-0.00320719
0.00598926
0.0139003
-0.0099356
0.000414695
-0.00787489
-0.00616048
0.008287
0.00574838
0.0297544
-0.0318309
0.010398
-0.00832152
-0.00573126
0.00712139
0.00286861
-0.00425874
-0.0130819
0.00568384
0.0114037
-0.00400567
-0.00565989
0.0082168
0.01057
-0.0131269
0.0158499
-0.0061218
-0.0104894
0.000761254
0.000275244
-0.00384819
0.00936068
-0.00578773
-0.00162702
0.00161288
-0.0123772
0.0114002
0.00370121
-0.0122041
-0.00289735
0.0143213
-0.0117495
-0.00315868
0.00299888
0.00443296
-0.010496
0.00306419
-0.00590688
-0.0108148
0.00961284
0.00710882
-0.00179676
-0.00466448
-0.00141365
0.00584854
-0.00624671
0.013461
-0.0130628
0.00141663
-0.0163007
0.0148841
0.00552873
-0.00723825
0.00470841
0.00302296
0.00174365
0.00247913
-0.00724574
-0.000307897
-0.0135888
0.0138967
-0.00743876
0.000988236
-0.00241404
0.00886456
-0.000891811
0.0103024
-0.00938793
-2.26887e-05
-0.00698817
-0.00369972
0.00403574
0.00665215
-0.00260458
-0.00618036
-0.00573797
-0.00843442
0.00703501
0.00713739
0.000310624
-0.00865318
0.0148728
-0.00611505
-0.000791861
-0.00796586
0.0079294
-0.000759636
-0.0057841
-0.00138567
-0.00128551
0.0111391
-0.0138803
0.00402673
0.00716986
0.000275734
0.00349039
-0.010936
-0.000262924
-0.00589389
0.00284793
0.00330888
-0.00409546
0.00532789
0.0102939
-0.0115264
-0.0144871
-0.00374236
-0.00404185
0.0133129
-0.0124218
0.000293973
0.00388832
0.00823955
0.00119893
-0.00439906
-0.00781992
0.0110201
-0.00570373
-0.0111341
0.00280956
0.0140283
-0.00517563
-0.00573968
0.00597245
0.00494286
-0.0134176
0.0129147
0.0136334
-0.0131305
-0.00182449
-0.00318638
-0.0095983
0.0146092
-0.013145
0.00132622
0.0133777
-0.0015589
-0.00228881
0.00612177
-0.00383296
-0.00532297
0.0098393
-0.00740682
0.00289048
-0.000227136
0.0176062
-0.00654025
-0.0108389
-0.00630895
-0.00304703
0.0126503
-0.00329436
0.00203093
-0.00532878
0.0120923
-0.00879444
0.000556083
0.00788548
-0.00138146
-4.5109e-05
-0.0128769
0.0128698
5.22126e-05
0.0147516
-0.00261272
-0.0215609
0.0094221
-0.0136237
-0.00133494
0.0170102
-0.00205161
-0.00739356
0.0111704
0.000916924
-0.00469373
0.0065761
-0.00649989
-7.62135e-05
-0.00784973
0.000759387
-0.00677247
0.0138628
-0.0113263
0.0156099
-0.00325503
-0.00102865
0.0070586
-0.00295994
-0.0085116
0.00441294
-0.0136386
0.0137582
-0.000119589
0.0112401
-0.0163448
0.00132131
0.00378345
-0.0127302
-0.00348487
0.0217695
-0.00555444
0.00939843
-0.000393135
-0.00197379
-0.0070315
-0.00535458
-0.00908281
0.0202859
-0.000954137
-0.0134004
0.00810779
0.0210357
-0.0234643
-0.00223024
0.00465885
0.00566787
0.00270158
-0.00626141
-0.0059431
0.00619214
-0.000249042
-0.00240909
0.0134649
-0.000855523
-0.0102003
-0.00293478
0.0034812
0.0117036
-0.01225
0.00764843
0.0179614
-0.0105045
-0.0151054
0.013169
-0.0158002
0.00502357
-0.00239238
0.011926
0.000166715
-0.0120927
0.000220664
0.0116077
-0.0118284
0.0130883
-0.015843
0.0139947
0.000140937
-0.000119192
0.0102074
-0.0102291
0.000255394
0.0185716
-0.0185004
-0.000326642
-0.00158582
-0.00468771
-0.00948956
0.0157631
-0.00580694
-0.00347929
0.00116562
0.0109927
-0.0191232
0.00696486
-0.00924558
-0.00242436
0.00991274
0.0017572
-0.0109595
0.0121007
-0.00323257
0.00209134
0.00172063
0.00896193
-0.00304915
-0.00763341
-0.00433349
0.00106999
0.00736305
-0.00409955
-1.32033e-05
0.00334814
-0.00420607
0.000871132
-0.00466433
0.0114097
-0.00657867
-0.000166659
0.00340916
-0.0107632
-0.0062845
7.60932e-05
-0.0100343
0.00995825
-0.00374027
-0.00358907
0.00166433
0.00566502
0.00559415
-0.00322727
-0.00236689
0.0140313
-0.0139323
-0.00284591
0.00274689
-0.00127677
-0.00830448
0.00765851
0.00192274
-3.51117e-05
4.73905e-05
0.00755045
-0.00756273
0.00376717
-0.00309615
-0.0119858
0.0113148
0.00869615
-0.000221623
-0.00847453
-0.012679
-0.00821092
0.0122352
0.0086548
0.00742423
0.0116299
-0.0200083
0.00705099
-0.00253831
0.0039717
-0.00848438
-0.00282709
0.00280474
-0.0155643
0.0155866
0.00439841
-0.00866455
-0.00842905
0.0126952
-0.000887458
-0.00198714
0.00936249
-0.00648789
0.00652553
-0.00801979
0.00290604
-0.00141178
0.00359406
-0.0059577
-0.00575883
0.00812248
-0.011545
0.0129973
-0.0034588
0.00200653
0.0131734
0.016935
-0.0186498
-0.0114586
-0.0101754
0.0101315
4.39643e-05
-0.0011422
0.0120185
-0.0150082
0.00413196
0.000464426
-0.000759597
-0.0115579
0.0118531
0.0113202
0.00047529
-0.013026
0.00123045
-0.00486255
-0.0082194
0.0103362
0.00274579
-0.0117497
0.0166478
-0.00589487
0.00099681
-0.00481378
-0.00589029
0.00349596
-0.00071736
-0.000122221
-0.00830995
0.00914953
-0.027148
0.00010804
0.00243138
0.0246085
0.00107166
-0.00688535
-0.00356386
0.00937755
0.0169568
-0.00139425
-0.00548883
-0.0100737
-0.00300697
-0.00651253
0.00125852
0.00826098
0.00478345
-1.73925e-05
-0.00476606
0.00797077
0.0042455
-0.00264449
-0.00957178
0.00617042
-0.00488541
0.0121698
-0.0134548
0.0003978
0.0126626
-0.00418387
-0.00887653
0.00307317
0.00438773
0.00949587
-0.00604929
0.000435637
0.00561365
-0.00786418
0.00111591
0.00208484
0.00131815
-0.0108701
0.00746715
-0.0103102
0.0150864
0.00456932
0.0155768
-0.00329833
-0.0168478
-0.00990859
0.00972491
-0.0153915
0.0155752
-0.00148244
-0.00743458
0.00260038
0.00631664
-0.00821249
0.0155046
0.00461223
-0.00536804
0.00120185
-0.000446039
-0.00508561
-0.0162109
0.0050751
0.0162214
0.010651
-0.0106284
-9.74598e-05
7.49297e-05
0.00861201
-0.0100568
0.00214
-0.000695195
0.00221083
0.0086471
-0.0154058
0.00454787
3.75249e-05
0.00741024
-0.00744777
0.00481729
-0.0123442
0.00973771
-0.00465932
0.0125082
0.0105379
-0.0183867
0.00355201
-0.003621
-0.0168302
0.0168992
-0.00507439
0.00840672
-0.016865
0.0135326
-0.0120817
0.00961962
0.0126117
-0.0101496
-0.00755431
0.0103495
-0.00668742
0.00389223
-0.00160111
0.00697577
0.0011353
-0.00650996
0.00351724
-0.00512862
0.00528883
-0.00367745
0.00667079
0.0024821
0.00219422
-0.0113471
0.0189301
-0.0128507
-0.000775841
-0.00530355
-8.53301e-06
-0.00918005
0.00918859
0.00575187
-0.00841055
-0.0257907
0.0284494
-0.00115611
-0.0125001
-0.00378758
0.0174438
-0.000757887
-0.00573864
0.00649652
0.00175213
0.00830824
-0.00131473
-0.00874564
-0.00231499
-0.00835687
0.00674386
0.003928
0.00649839
-0.0054428
-0.00955947
0.0165188
-0.0128576
0.00365025
0.00386669
-0.00751694
0.0124824
-0.000260515
-0.00149174
-0.0107302
-0.00240334
-0.00408797
0.00649131
0.00444857
0.00295599
0.0249366
-0.0299952
-0.0105881
0.0156467
0.00382128
0.00814043
-0.00622619
-0.00573553
-0.00873016
0.016712
0.0111031
-0.0190849
0.00984637
0.00341804
-0.00131689
-0.0119475
0.0162412
-0.0108299
0.00698842
-0.0123996
-0.00912948
0.00417481
-0.0114481
0.0164028
-0.0148519
0.0266156
-0.0104313
-0.00133233
-0.00039607
-0.00633951
-0.00873856
0.0154741
0.0120568
0.004984
-0.0141481
-0.00289266
0.00646177
-0.0172232
0.0108689
-0.000107432
-0.0152139
-0.00057678
0.00995365
0.00583703
-0.00305166
0.00789229
0.0034327
-0.00827334
-0.00193294
0.00775245
0.00623703
-0.0120565
-0.0158644
0.00815948
-0.000769083
0.00847399
0.00144571
-0.00430777
0.0085638
-0.00570174
0.00674259
-0.00339182
0.00240675
-0.00575752
0.00651129
0.00125217
0.00064123
-0.00840469
-0.00959988
0.0102979
0.00381753
-0.00451557
-0.00227775
0.012194
0.000246241
-0.0101625
0.00983973
-0.00577692
-0.00381488
-0.000247937
0.0084877
6.42739e-05
-0.00855198
0.00620548
0.00480396
-0.00109021
-0.00991923
0.00290675
0.00766793
0.00655695
-0.0171316
-1.2492e-05
-0.0137831
0.0137956
-0.00718486
0.0278328
-0.00406669
-0.0165813
-0.000128752
0.0103728
-0.0102441
-0.000691385
-0.00745678
0.00133889
0.00680927
-0.0135412
0.00689841
0.00524135
0.00140146
0.00276309
0.00229736
-0.0158302
0.0107697
0.00806295
0.0127393
-0.0047608
-0.0160415
0.012181
-0.00417371
-0.0116597
0.0036524
-0.01522
0.00868065
0.0232104
-0.0166711
-3.93216e-05
0.00584436
-0.00584452
3.94784e-05
-0.00604565
0.00598269
6.29552e-05
-0.0154808
0.000239123
0.00651148
0.00173073
0.00373751
0.0102347
-0.0157029
0.0080579
-0.00958417
0.00618176
-0.00465548
-0.00775003
0.00678751
-0.000257501
0.00122002
-0.00161377
-0.0127554
0.0163123
-0.00194321
-0.00570825
0.00274882
0.00903738
-0.00607795
0.00987406
-0.00380645
0.00145552
-0.00752314
-0.00654158
-0.00114051
0.0076577
2.43914e-05
-0.00112945
-6.06358e-05
0.0107278
-0.00953775
0.00136078
-0.00114631
0.0107154
-0.0109298
-0.009641
0.0134769
-0.0141243
0.0102884
6.31674e-05
-0.0121476
0.0120844
-0.00432754
0.000378639
0.0109103
-0.00696141
-0.00828439
0.00968502
-0.0132088
0.0118081
-0.00849615
0.000644876
0.0025798
-0.00394208
0.0106784
0.00059554
-0.0073319
-0.00284525
0.000394961
-0.00480637
-0.00420338
-0.013654
0.0137164
0.00414099
-0.0060808
-0.000711111
-0.0015292
0.00832111
-0.0208413
0.00704166
0.00205793
0.0117417
-0.00657867
0.0151121
-0.00752054
-0.00101292
0.00459353
0.00180477
-0.00924354
0.00907409
0.00925282
-0.0183269
0.00123197
0.0198995
-0.00460401
-0.0165275
-0.000253765
-0.000354377
-0.00880726
0.00941541
-0.00956205
0.0157482
-0.00634814
0.000162044
0.00907142
-0.00572782
-0.00822231
0.00487872
0.00227051
-0.000304501
0.00277933
0.0139463
0.0038902
-0.0201628
0.00232633
-0.00966956
-0.00125709
0.00316924
0.00775741
0.00364851
-0.00405339
-0.00548541
0.0168011
-0.0113048
0.00878782
-0.0142841
-0.00185974
0.0108464
-0.0187579
0.00977127
0.00651387
-0.00823292
-0.000834081
0.00255314
-0.00719252
-0.00250366
-0.000243368
0.00993955
-0.00537219
-0.00507924
0.0104514
0.00135025
-0.0144259
0.012793
0.000282714
0.00552798
-0.00533133
-0.00556884
-0.0090035
0.0114273
-0.00217999
-0.000243794
0.0128826
0.00354328
-0.0138768
-0.00254909
-0.00498298
-0.00727289
-0.000833993
0.0130899
0.00821641
-0.00249989
0.00952763
-0.0152442
-0.00913033
-0.000510665
-0.0109273
0.00584801
0.00140442
-0.012221
0.00391037
0.00690621
0.00356258
-0.0127567
0.00702413
0.00216999
0.00190651
0.000500358
-0.00956402
0.00715715
0.0014586
0.00624841
-0.000424042
0.0107762
-0.00212912
-0.008223
-0.00422489
-0.00043737
-0.0039518
0.00861405
-0.00250198
-0.00336997
0.00644356
-0.000571608
-0.00998201
-0.00013999
-0.0168655
0.00605545
0.00887712
0.023985
-0.000199951
0.00327338
-0.0270585
-0.0105021
0.0163138
0.00330939
-0.00912116
-0.00299191
0.00163946
0.0103237
-0.00897129
0.00124869
0.00354482
-0.00274224
-0.00205127
-0.0180416
-0.00373618
0.0155691
0.00620865
0.000395691
0.00763471
-0.00153201
0.000233922
0.00383706
-0.0120395
0.00796855
-0.00743385
-2.61639e-05
0.00274054
0.00471947
-0.0102373
0.0126514
-0.00201844
0.00577673
-0.00520899
-0.000567735
-0.00850694
0.00122388
-0.00661062
0.0138937
-0.00385153
0.00579601
-0.00446746
0.00252298
-0.00829161
0.00933794
-0.0038582
0.00281187
0.00371719
-0.000612572
-0.00880092
0.0056963
-0.00370802
0.0232446
-0.0312864
-0.00336251
-0.00234672
0.00229784
0.00341138
0.0110163
-0.0171999
-0.000778431
0.00696207
-0.00464381
0.00346519
0.00597232
-0.0047937
-0.00138115
0.0073391
-0.00202209
-0.00393586
-0.00825548
0.0018316
0.00192973
0.00449415
-0.00462157
0.000397116
0.00422446
0.0106178
-0.00505606
-0.00538708
-0.000174607
0.000781506
0.00532305
-0.0080797
0.00197515
-0.00568468
-0.00689055
0.00702668
0.00554855
-0.0029517
0.00761291
-0.00652678
0.00186557
0.00274612
-0.00519823
0.00358263
-0.00113052
0.00997586
0.000270338
-0.0102462
0.00859139
-0.0105801
0.00523668
-0.00324793
-0.0134835
-0.000389511
0.013873
0.00554209
-0.00459686
0.00107221
-0.00201745
-0.000437985
0.0095622
-0.010437
0.0013128
-0.00478475
0.00599013
0.00154073
-0.0053324
0.0114243
0.0105559
-0.00906533
0.00898383
8.1498e-05
0.000245734
-0.0143266
0.0140808
0.0193633
0.00233413
-0.00412175
-0.0175757
0.0040467
-0.0157831
-0.00195541
0.0136918
0.00306795
0.00362403
0.00204563
-0.00873761
-0.00542739
-0.00543409
7.3118e-05
0.0107884
-0.00259066
0.003559
-0.00639573
-0.0119336
0.00215598
0.0156655
-0.0058879
-0.0234338
0.017161
0.00755464
-0.0012818
0.0103621
8.44338e-05
-0.0104465
-0.00590043
-0.00794077
0.0051343
0.0087069
-0.0059122
-0.00858344
0.00256202
-0.00850512
0.00462013
0.00534359
0.00345752
-0.00449719
-0.00825485
0.00929452
-0.00581467
3.65676e-06
0.00581101
-0.0135805
0.00552018
0.00560812
0.00245221
0.00342277
-0.00915996
-0.00276792
0.0116657
-0.00370114
-0.000293722
-0.00767084
-0.00783345
0.0129799
0.0077033
-0.0128498
-0.00230918
-0.00484295
0.00179381
0.00535832
-0.00329941
-0.00265379
0.0059532
-0.0057617
-0.0121124
-0.00555971
0.00271288
3.53389e-05
0.00547415
-0.00822236
0.0110942
-0.00807968
-0.0116845
0.00866991
-0.0041173
0.00146757
0.00831759
-0.00566785
0.00779225
-0.00548539
-0.000772501
-0.00153436
-0.00893502
0.0014507
0.00697919
0.000505132
-0.00553412
0.0127117
-0.0137791
0.00537227
0.000398213
0.0080086
0.0129448
-0.0103453
-0.00814584
0.00554635
-0.0102999
0.00214324
0.0192509
-0.0099897
-0.00658742
0.0107519
0.00582521
-0.00116705
0.0104051
-0.00394779
-0.00529026
0.000593271
-0.0061468
-0.00405335
0.00960688
0.0118462
-0.00781512
-0.000480612
-0.00355048
0.00366622
0.00273901
-0.00899588
-0.00249083
0.00281962
0.00695292
-0.0072817
-0.00206966
0.0108104
-0.0133239
0.00458313
-0.00649972
0.00156814
0.00157251
0.00335908
-0.0142192
0.0144622
-0.000243
0.00980077
-0.00966175
-0.000139025
0.00394494
-0.0152305
-0.00584828
0.0171338
0.00348699
0.00663104
0.00154767
-0.000166661
0.00578956
-0.0056229
0.00930647
0.00834171
-0.0176482
-0.0103061
0.00629166
0.00444703
-0.00043263
-0.00578786
0.00190731
0.0047056
-0.000825047
-0.0173358
0.00809174
0.00951035
-0.00026632
-0.00560896
-0.0062541
0.00604839
0.00891007
-0.00140549
-0.00573801
-0.00176658
-0.00955701
0.0103218
-0.00629886
0.00169193
-0.0107377
-0.00054957
0.00959531
-1.25799e-05
-0.00528165
0.00529423
0.0259183
0.000200394
0.00276243
-0.0288811
-0.000974801
-0.00191175
-0.0140797
0.0169662
0.00449087
-0.00608045
-0.00283193
0.0044215
0.00174749
0.0134111
-0.00542061
-0.00973798
0.0146178
-0.0146254
-3.21968e-05
3.98653e-05
-0.00820365
-0.00740288
0.0115702
0.00403638
0.00478862
0.00366221
-0.0095414
0.00109057
6.66838e-05
0.00887922
-0.00907315
0.000127249
-0.0122175
0.00391449
0.00990143
-0.00159838
0.0093708
0.005665
-0.00948677
-0.00554903
0.000221727
-0.00835869
0.00424286
-0.00217679
0.0125517
-0.00674816
-0.000878476
-0.00105277
0.0086794
-0.011282
0.000590081
0.0106919
0.0165184
0.00713523
-0.0053507
-0.018303
-0.010788
0.000232488
0.0107773
-0.000985316
-0.00256542
-0.00655119
0.0101019
-0.00128598
-0.00129873
-0.00348117
0.00606588
0.00271835
-0.0137925
0.0103993
0.00067492
0.00856812
-0.00133657
-0.00833751
0.00110596
-0.0105911
0.00221308
0.000854176
0.00752386
-0.004035
0.0026447
-0.0054669
0.0068572
0.00231987
0.00147031
-0.01366
0.00986978
0.000477119
-0.00926332
-0.000644475
0.00943067
0.0091848
0.0012041
-0.000157846
-0.010231
-0.0109626
0.00255404
0.00992008
-0.00786889
-0.010448
0.0183169
0.0151864
-0.007726
0.00327177
-0.0107322
0.00119399
0.00852016
-0.00522328
-0.0122877
0.00225822
0.00435794
0.00567152
0.0151641
-0.0156233
0.000459171
-0.0091936
-0.00312155
0.00643554
0.00587961
-0.0119186
-0.00925718
0.00620694
0.0149688
0.0123778
-0.0129272
-0.00158213
0.00213152
-0.00179936
0.00601058
-0.00473784
0.000526617
-0.015527
0.00505971
0.0035692
0.00689809
-0.0228391
0.0284364
0.00471863
-0.010316
0.010205
-0.0221222
-0.00113846
0.0130557
-0.00907902
0.0115498
-0.0213975
0.0189267
-0.00951565
0.0209586
0.00208318
-0.0135262
0.000837912
0.00995454
-0.00232364
-0.00846881
0.0151377
-0.0113542
-0.000381779
-0.00340168
-0.00265388
-0.00254841
0.00389503
0.00130725
-0.00715436
-0.0148835
0.0127029
0.00933497
-0.0101534
0.0135245
0.0117666
0.0082706
-0.00607989
-0.0075774
0.00538669
0.0030454
-0.00394111
-0.0017402
0.00263591
0.00673809
-0.00666463
-0.00887824
0.00880479
-0.00273254
0.00783954
-0.000567263
-0.00453974
-0.0108749
-0.00173626
0.013449
-0.00819134
-0.0020141
0.0101268
7.86165e-05
0.0033638
-0.00751502
0.00415122
0.00267669
-0.00355499
0.013244
-0.0123658
0.010357
-0.0145654
0.0021105
0.0020979
0.00660395
-0.00712516
0.000521216
-0.0104308
0.000277468
0.00931532
-0.0035503
-0.00899004
0.00322502
0.00293077
0.00237548
0.0104172
-0.0157234
0.00644913
-0.0070022
0.000553068
-7.98017e-05
0.00809614
-0.00915244
0.0011361
-0.0114572
-0.00110425
0.0152381
-0.00493649
-0.000843623
0.00114043
0.00463969
0.000681904
-0.00563527
0.00415749
0.000795884
0.00923542
-0.00883958
-0.0021952
0.00106316
0.0152892
-0.00963083
-0.0067215
-0.00525575
0.0111077
-0.00585198
-0.0142347
0.00545118
-0.00333844
0.0121219
0.011212
-0.0101604
-0.0165786
-0.00546696
-0.00654063
0.0224803
-0.0104727
-0.0160183
0.0102034
0.0145459
-0.00873107
-0.000354908
-0.0136652
0.0140201
0.0216826
4.38613e-05
-0.0124947
-0.00923179
0.0125702
-0.00809599
-0.00111638
-0.0033578
-0.0091682
0.00650888
-0.00164261
0.00430192
0.000124114
-0.00942308
0.00929896
-0.00687969
0.00708115
-0.00020146
-0.0050005
-0.00528866
-0.0135465
0.0238357
-0.0127576
0.0027824
-0.00142612
0.0114013
0.00296498
0.00481165
0.0131112
-0.0118306
-0.00978343
0.00850282
-0.00363513
-0.00749517
0.00826509
0.00286522
-0.00755186
-0.00384029
0.0114034
-1.1207e-05
0.00247423
-0.00142423
-0.00699872
0.00594872
0.00833573
0.000370102
-0.0106555
0.00194965
0.00257158
-0.0017877
0.00276615
-0.0033372
0.00332477
-0.00275372
0.0068181
0.00667532
-0.00681736
-0.00667606
0.00335248
0.00783071
-0.00810318
-0.00308001
0.00709638
0.00307576
-0.0055786
0.00880705
-0.0106783
0.00224134
-0.0117091
0.00818621
0.0044074
-0.000884463
0.0138961
-0.00460292
-0.0145489
-0.00369291
0.00992321
0.00498171
0.00968337
-0.00471661
-0.00815915
-0.00222431
-0.00132568
-0.013017
0.0121815
0.00114416
-0.000308665
-0.000810725
0.016273
-0.00168625
-0.013776
-0.0105576
0.00214714
0.00471759
-0.00170088
-0.0107361
0.00301716
0.00941985
0.00972444
0.00134916
-2.66549e-05
-0.0110469
-0.0145196
-0.000120031
9.79787e-05
0.0145417
-0.00374396
0.00409478
-0.00666346
0.00631264
-0.0100005
0.0126473
-0.00130732
-0.00133944
0.0131382
-0.0122705
-0.0108683
-0.009718
0.00876511
-0.00278082
0.00373371
0.00783413
-0.000353038
-0.00246407
-0.00501703
-0.0147002
0.0141745
0.00694871
-0.00642297
0.00698913
0.00266194
-0.000887523
-0.00876355
0.002511
0.00636314
-0.00795903
-0.000915107
-0.00470991
0.00473775
-2.78436e-05
-0.002757
-0.0070385
0.00706296
0.0106642
-0.0105734
-9.07967e-05
-0.00599701
-0.00477996
0.00469652
-0.000631836
-0.00719316
-0.000790561
0.00861556
-0.000818102
-0.00629863
0.0056303
0.00148643
0.00986787
-0.0112159
0.00134801
-0.0126178
0.0129555
0.0118537
-0.0121914
-0.00850358
0.00656876
-0.0044739
0.00640872
-0.00340883
0.00145679
0.00308683
-0.00113479
-0.000358457
0.0153531
-0.000134723
-0.0148599
-0.00778155
0.00377256
0.00383192
0.00445159
0.00566562
-0.00988435
-0.000232849
0.000428459
-0.0122808
-0.000481688
-0.0110969
0.011096
8.99936e-07
-0.00746244
0.00375764
-0.00821379
0.00252123
-0.00557902
0.000225856
0.00488188
0.00211978
0.00732935
0.000142793
-0.00626787
-0.00120427
0.00613572
-0.0153092
0.0122743
-0.00310078
0.00254379
-0.00346727
0.0128974
-0.0119739
0.015807
0.00465642
-0.00243301
-0.0180304
-0.00401748
-0.00658097
-0.00213471
0.0127332
0.00478362
0.0199378
-0.0180019
-0.00671947
0.00229741
0.0144464
-0.0139453
-0.00279854
-0.00496093
0.000655616
0.0101675
-0.00586217
-0.00174649
0.0141837
-0.00765361
0.0102582
-0.00810068
-0.00316001
0.00100247
0.00335887
0.00878943
-0.0121483
0.00820659
0.00182123
-0.00109319
-0.00893462
-0.00754575
0.00603037
0.000606668
0.000908712
-0.000735054
-0.0107023
0.000625095
0.0108123
-0.00785423
-0.000996888
-0.000328384
0.0091795
0.00451433
-0.010009
9.95001e-05
0.00393469
0.00597484
8.45477e-05
0.00649872
-0.00658327
0.000806226
0.0114341
-0.0292154
0.0169751
0.00323426
-0.00815046
0.00774369
-0.00282749
0.00464182
0.00529886
-0.00366978
-0.0062709
4.71182e-05
-0.00583301
0.00578589
-0.00316654
-0.00224819
0.0128279
-0.00741312
-0.00392182
0.0130983
-0.0113049
0.00212843
0.0142823
-0.00992367
-0.00958421
0.0052256
-0.00586699
0.00398407
0.00182127
6.16545e-05
-0.000808474
0.00452643
-0.00242172
-0.00129623
0.0153811
-0.0120222
0.00713686
-0.000825023
-0.0116823
0.0053705
-0.00325839
0.00304701
0.00365077
-0.00343939
0.000183462
0.0147107
-9.04163e-05
-0.0148037
-0.0107384
-0.00353726
0.0145568
-0.000281139
-0.00304771
-0.00130806
0.00335061
0.00433285
-0.0063754
0.00868551
0.0061217
-0.0129962
-0.00181101
-0.00267445
-0.00174456
-0.0116397
0.0160588
0.0153175
-0.0121116
-0.0213466
0.0181407
-0.00594071
-4.55052e-05
0.00598621
-0.00723028
-0.00381206