/*--------------------------------*- C++ -*----------------------------------*\
  =========                 |
  \\      /  F ield         | OpenFOAM: The Open Source CFD Toolbox
   \\    /   O peration     | Website:  https://openfoam.org
    \\  /    A nd           | Version:  10
     \\/     M anipulation  |
\*---------------------------------------------------------------------------*/
FoamFile
{
    format      ascii;
    class       volScalarField;
    location    "5.8";
    object      SgT;
}
// * * * * * * * * * * * * * * * * * * * * * * * * * * * * * * * * * * * * * //

dimensions      [1 -1 -3 -1 0 0 0];

internalField   nonuniform List<scalar> 
111485
(
2.78845e-18
9.84479e-06
2.77533e-05
2.24073e-19
5.83667e-05
5.66829e-19
5.40482e-05
7.20602e-06
2.24574e-05
1.40017e-06
5.4432e-05
1.11737e-05
5.53698e-06
9.88928e-07
7.69086e-06
3.69267e-05
1.64565e-06
0.0030671
1.23841e-05
4.61845e-17
3.14358e-18
7.10405e-19
3.07382e-05
4.18327e-05
1.04792e-05
5.98739e-18
4.79562e-05
2.15331e-06
1.88903e-05
1.23942e-18
5.45044e-05
2.23551e-05
4.82341e-17
2.62197e-19
8.78989e-06
3.88066e-18
1.30511e-05
4.9277e-06
5.3818e-11
2.74711e-05
1.04299e-17
8.5066e-05
1.88589e-05
1.6315e-06
6.43949e-08
2.48071e-17
3.68388e-05
8.57387e-07
5.6782e-05
3.01694e-18
2.58846e-18
5.79108e-17
1.57975e-17
5.93283e-05
1.02731e-17
5.18968e-05
3.89397e-06
6.0599e-19
2.70707e-08
5.70058e-06
1.92148e-05
4.52999e-18
5.42078e-06
0.000114592
2.39793e-17
3.9828e-06
0.000376541
0.000113798
1.24888e-06
6.92647e-06
1.35384e-08
7.41113e-06
1.93036e-18
3.28825e-06
7.69359e-18
8.24683e-07
1.58707e-17
5.00707e-05
1.40334e-17
2.68057e-17
6.51855e-09
4.01071e-05
3.39917e-18
2.83196e-17
1.06597e-05
4.87134e-06
5.11186e-13
2.96837e-05
6.74978e-08
8.59892e-06
4.18625e-07
4.90248e-05
1.35775e-05
7.17189e-08
6.39146e-05
2.08924e-17
3.67447e-18
2.02732e-06
2.6308e-11
1.4644e-06
3.54091e-18
2.22047e-05
9.43584e-18
2.26561e-05
5.62528e-06
1.42306e-17
7.07695e-18
9.0658e-06
4.59927e-06
8.85737e-11
6.8097e-06
5.77201e-06
4.26432e-06
3.65404e-06
7.9454e-18
3.90881e-08
2.79476e-18
1.0043e-18
1.4836e-05
1.09457e-18
2.20887e-18
4.3865e-17
1.44168e-18
2.05549e-19
2.06727e-06
3.39691e-09
1.97865e-19
1.93202e-06
9.95343e-19
5.53063e-08
1.57742e-06
3.78325e-05
7.08792e-18
9.17263e-17
1.63594e-18
5.85494e-05
1.18674e-18
5.04629e-05
2.96978e-05
3.24099e-06
2.661e-07
2.39621e-06
2.66496e-05
3.37248e-06
4.6781e-06
1.53393e-05
4.26056e-18
2.37951e-17
3.04408e-18
3.30893e-05
1.97921e-06
2.17685e-18
2.35413e-10
5.89034e-06
5.48058e-10
1.26581e-05
1.97982e-05
1.25192e-05
8.87947e-11
3.95899e-18
3.07362e-18
6.27602e-05
2.84037e-05
2.54056e-09
4.00166e-10
6.73738e-06
4.27324e-06
1.48811e-19
6.21567e-09
5.76207e-08
5.22717e-19
3.44172e-18
1.62763e-07
8.76989e-19
6.94123e-06
2.57868e-06
7.368e-19
4.04132e-17
7.22374e-19
2.44588e-17
2.20275e-17
4.04967e-18
1.71191e-06
8.15052e-06
3.49941e-05
5.03228e-06
8.70352e-06
4.64111e-06
9.85937e-08
3.08477e-20
5.5262e-06
3.92533e-18
2.58387e-18
7.57851e-06
1.26803e-05
3.21484e-05
1.31166e-05
5.81473e-06
1.25778e-17
7.75333e-06
6.32311e-07
5.32074e-08
1.59458e-05
2.77604e-06
1.47968e-18
4.33212e-06
3.13376e-05
4.69418e-17
2.14069e-07
9.1135e-06
2.53356e-06
4.12683e-07
9.19238e-18
3.89127e-18
9.51734e-06
1.07995e-14
0.000145184
2.50326e-18
7.73714e-06
2.39444e-05
0.00014473
7.81545e-18
3.63013e-06
1.63061e-05
2.18476e-16
4.76492e-19
7.11983e-19
0.000185628
3.72723e-10
2.28475e-17
3.66411e-18
1.13869e-05
9.37768e-06
1.81362e-05
4.9485e-19
2.80588e-17
1.47934e-08
1.02775e-18
3.02694e-06
1.0759e-05
1.87834e-05
1.36814e-05
1.16824e-05
3.70627e-18
3.24255e-10
7.30524e-07
1.26701e-17
6.79512e-18
3.65764e-05
2.49939e-05
1.63679e-17
7.33578e-06
1.24873e-05
5.67274e-18
7.92622e-17
1.67032e-07
1.19062e-18
1.18339e-17
5.0263e-08
9.64393e-18
1.81507e-05
1.32691e-05
4.47879e-06
9.64286e-18
1.38508e-05
4.60482e-19
4.9501e-18
6.18656e-18
2.68557e-11
2.74106e-05
7.21964e-06
6.16163e-06
4.41552e-05
1.42896e-05
1.953e-06
6.8669e-07
3.96702e-05
1.08391e-05
1.53745e-18
7.84576e-18
3.22306e-10
2.68084e-05
2.88864e-05
1.4674e-05
4.9248e-20
8.27199e-06
2.52529e-06
3.53426e-06
4.4058e-09
4.37422e-09
1.59294e-05
2.6345e-06
2.31304e-06
4.8417e-18
8.40511e-07
5.59969e-18
1.23387e-10
4.41636e-16
0.000297996
8.1715e-05
1.47947e-05
9.07154e-19
1.24357e-19
1.06483e-05
2.02524e-06
1.31059e-17
1.74088e-18
1.88425e-17
3.82928e-07
7.10956e-05
4.5586e-06
1.70123e-05
2.29164e-05
1.05062e-17
9.98338e-18
3.65388e-18
4.52719e-06
1.63543e-15
1.20016e-06
0.000223507
4.29989e-10
3.09211e-18
1.6107e-18
1.57599e-18
6.90413e-17
7.09344e-05
1.44677e-05
1.48848e-19
6.1423e-06
6.50116e-17
2.12882e-17
8.20218e-05
6.85627e-06
1.33276e-05
1.09837e-05
2.85225e-17
8.59089e-17
1.01111e-17
1.10562e-05
2.2455e-05
6.01092e-06
1.0961e-18
3.6146e-13
2.06572e-07
2.48137e-06
9.46739e-06
4.81491e-08
3.39758e-05
3.64874e-18
4.48177e-05
4.12205e-06
9.24387e-06
2.94184e-05
1.65214e-05
1.32239e-17
1.22033e-17
4.63771e-17
3.06622e-18
3.79065e-05
1.13872e-05
4.11637e-05
8.06226e-05
7.25425e-18
2.2884e-05
4.05785e-18
4.79279e-18
1.94289e-05
3.99446e-18
7.93858e-05
7.43098e-18
1.98751e-19
2.78922e-05
3.76267e-19
1.65348e-05
3.60285e-07
8.85629e-19
1.24842e-06
1.9253e-05
1.58667e-17
1.0378e-05
1.15933e-05
9.53891e-06
7.15375e-07
3.29008e-06
6.95645e-06
5.83504e-17
3.48345e-18
2.0528e-06
1.43623e-18
7.034e-06
0.000139934
9.03186e-19
9.68833e-19
3.2125e-05
1.37922e-07
9.6759e-06
2.60175e-05
6.1984e-18
5.25796e-05
2.32072e-05
1.30842e-18
9.59744e-07
3.04529e-06
1.36064e-18
5.80717e-18
1.34714e-05
6.24963e-06
3.41635e-17
4.4619e-18
3.23542e-11
2.63264e-18
1.40805e-05
3.72814e-18
1.66695e-18
2.06208e-05
2.18854e-09
1.51119e-05
3.46691e-05
9.54232e-19
4.49356e-17
1.63438e-06
3.71189e-18
1.66542e-07
1.58761e-05
0.000146749
0.00103596
5.08856e-18
3.262e-06
5.24122e-07
1.00417e-17
4.57888e-05
3.8463e-05
1.27145e-17
9.70111e-12
1.14762e-07
4.02349e-17
2.93806e-05
2.97696e-05
1.73213e-05
6.34134e-18
7.983e-07
2.22651e-05
2.75294e-05
9.89564e-10
2.38373e-17
6.98941e-13
2.8484e-18
1.67503e-08
3.76049e-05
5.11411e-18
1.04989e-05
1.06057e-07
3.75376e-17
6.89322e-19
1.60524e-17
1.70605e-17
4.79118e-06
1.16126e-05
7.92533e-06
2.63113e-06
3.43957e-06
2.28767e-17
2.48121e-06
7.37312e-18
4.71295e-05
6.59003e-19
3.55482e-18
2.28123e-18
4.24057e-05
7.88091e-18
4.52115e-18
2.57641e-10
1.07666e-18
3.6034e-17
1.20539e-06
1.87884e-18
9.1677e-17
3.14451e-18
5.25568e-18
6.34471e-18
2.52819e-18
5.79402e-19
8.80038e-06
1.03105e-17
5.86252e-07
2.22526e-06
1.25499e-06
6.33358e-18
9.41173e-07
3.05756e-18
5.63003e-19
3.38939e-06
2.21833e-06
3.33282e-05
2.92163e-05
4.166e-18
2.44881e-06
9.53309e-05
1.02264e-05
1.25112e-06
3.98047e-06
2.18447e-18
2.79522e-05
5.68828e-17
5.73741e-06
1.26558e-17
8.93311e-05
2.35703e-17
2.58463e-05
2.85499e-07
3.2635e-10
6.13909e-18
2.45844e-06
2.15989e-18
9.57258e-05
5.75716e-05
1.71916e-17
2.63085e-17
5.0805e-17
5.36508e-18
1.67468e-12
6.5537e-05
3.4446e-18
6.92039e-19
3.11196e-06
8.13511e-19
3.94496e-05
6.37838e-19
3.90989e-07
6.68546e-19
6.10136e-07
1.20138e-09
1.25888e-06
1.56603e-05
3.06965e-17
4.71557e-07
5.44977e-18
9.50089e-19
1.84769e-05
1.90526e-18
3.84072e-08
1.46852e-17
1.88394e-06
1.36388e-17
7.79999e-05
7.46525e-18
4.01916e-17
2.01413e-05
4.11786e-06
2.03496e-06
4.7989e-06
7.91767e-06
2.50036e-05
5.75732e-18
2.85962e-05
7.63426e-06
9.26928e-19
9.53799e-11
4.59897e-05
1.73007e-05
4.29953e-17
5.22457e-06
7.61587e-06
1.92621e-06
1.35782e-06
2.74015e-13
1.63615e-05
1.36973e-06
1.73042e-07
2.94544e-05
1.65481e-05
8.3207e-07
2.30168e-17
3.81752e-12
0.000772682
1.53148e-18
4.47626e-07
1.81301e-18
8.65546e-17
8.81286e-06
3.59051e-06
2.39774e-10
1.637e-08
4.37354e-17
2.03008e-05
1.32596e-05
4.52626e-19
1.1978e-13
2.49266e-06
1.6638e-17
7.82355e-19
3.79938e-18
1.68372e-18
1.64867e-05
1.00769e-17
3.44809e-18
1.08456e-05
2.453e-06
8.74512e-17
1.24725e-05
3.70141e-17
1.02194e-05
4.19175e-18
2.33162e-17
6.47768e-05
1.10626e-18
2.02282e-18
1.37996e-16
5.42879e-06
1.06892e-17
3.5978e-05
7.51727e-06
1.74552e-18
0.000100241
3.01678e-06
3.35123e-05
3.28225e-05
6.99927e-07
9.83096e-08
1.07238e-17
6.58184e-05
5.41529e-05
1.80037e-17
3.76991e-07
4.79179e-05
8.88195e-06
1.7652e-06
3.27263e-05
3.09357e-05
5.8485e-18
1.27635e-05
5.90281e-09
1.024e-17
4.06504e-05
3.18437e-07
3.188e-17
1.31125e-05
4.76738e-05
1.67803e-06
2.48159e-05
2.28121e-05
8.45709e-06
7.39492e-17
1.19757e-05
3.99182e-07
2.27672e-14
1.9816e-05
2.04978e-05
4.28961e-05
2.26112e-18
2.31069e-06
5.46252e-19
1.67212e-18
7.17749e-18
6.88389e-18
1.7668e-08
3.40685e-17
2.75883e-13
1.06831e-17
9.58522e-19
8.40224e-08
5.11165e-05
1.37051e-17
3.96525e-05
1.64825e-18
1.47137e-18
1.54645e-17
4.70247e-05
5.13038e-07
7.54537e-17
1.88171e-17
8.69769e-18
1.06137e-18
0.00025969
8.2762e-05
6.5333e-17
2.28808e-06
2.94116e-09
2.6307e-18
4.41101e-05
9.42596e-06
1.48648e-05
5.98236e-19
4.2197e-18
4.90976e-07
1.28985e-06
7.0162e-17
1.76686e-18
5.25261e-17
8.64492e-06
2.60466e-18
1.86827e-17
4.83105e-18
4.91487e-05
2.30856e-06
8.85252e-19
0.00476293
0.000336353
1.2399e-05
2.51686e-18
1.92195e-17
6.66589e-05
4.57106e-07
3.92571e-18
8.25869e-09
0.000151272
3.09299e-06
1.37513e-05
6.50835e-17
6.51764e-05
2.14687e-06
6.7325e-19
6.54986e-18
3.83162e-18
5.85362e-19
5.80799e-18
1.5724e-18
2.56332e-05
4.77e-18
2.01033e-18
8.30794e-18
1.40238e-05
2.8002e-05
1.33816e-18
1.28688e-18
0.000126985
1.68613e-05
1.1282e-05
2.72237e-17
3.81797e-18
4.37378e-05
4.5153e-18
2.21074e-06
3.07832e-06
4.53394e-06
6.9704e-19
1.58568e-18
7.90635e-19
9.7615e-19
1.81815e-05
2.07349e-18
9.4352e-18
1.15438e-06
1.98566e-18
2.69227e-05
2.0921e-06
1.71225e-17
4.42623e-05
0.00050514
2.97662e-06
3.5036e-05
1.85155e-07
5.41396e-05
1.55003e-13
1.86914e-16
2.76604e-05
8.49517e-05
7.31832e-06
2.45156e-18
9.44635e-13
0.000847691
1.20275e-05
1.63235e-18
3.14134e-06
3.24578e-06
1.49598e-06
1.02778e-17
4.13873e-18
9.67056e-18
1.56783e-05
7.27659e-17
3.02558e-06
2.88014e-17
1.54025e-06
1.63447e-06
4.31182e-05
6.74468e-07
1.76302e-18
3.90832e-18
1.28373e-17
2.44661e-05
9.35153e-19
1.11565e-17
7.23044e-08
6.67176e-18
1.14729e-18
6.01868e-19
1.20619e-18
1.15281e-05
1.71774e-17
1.27016e-17
5.63111e-13
1.79795e-17
2.03453e-18
4.08372e-17
5.83345e-18
3.60973e-09
1.90606e-06
6.95412e-19
4.59015e-06
9.03797e-09
3.71195e-10
7.52701e-08
4.98552e-06
6.86768e-18
1.12258e-08
1.16365e-05
4.67393e-07
6.61591e-18
2.47686e-12
9.70269e-07
1.81956e-17
1.13465e-05
2.35489e-07
2.06862e-09
2.86951e-05
1.09587e-05
2.69128e-06
6.16193e-06
2.39486e-06
1.72987e-18
3.12526e-18
3.83332e-05
3.07427e-05
2.11341e-17
9.77913e-06
6.46758e-05
3.38201e-05
2.96426e-17
1.60648e-06
2.0239e-18
1.23121e-05
1.65232e-05
3.85109e-18
1.8321e-06
5.53772e-07
1.49471e-09
5.72621e-06
5.18636e-18
5.80659e-05
1.85583e-08
1.89365e-06
4.01254e-08
1.51093e-08
8.50519e-19
2.64277e-17
8.78404e-06
2.12526e-18
1.35625e-07
3.21218e-07
2.67132e-07
5.89963e-11
8.70948e-11
7.85638e-10
6.34473e-19
1.04918e-16
2.74776e-05
1.20073e-17
2.3806e-07
2.50392e-06
7.2685e-17
3.0766e-18
6.76691e-10
1.03821e-12
2.11952e-18
5.39774e-09
1.95215e-17
2.14164e-18
2.72426e-18
2.29924e-18
4.40504e-17
4.08988e-18
3.50824e-07
1.09718e-17
6.7847e-18
3.7613e-17
7.58792e-09
6.551e-08
2.17334e-06
1.10944e-05
1.36811e-18
2.6332e-18
2.14893e-07
9.57873e-18
2.42215e-18
3.71345e-17
2.24517e-05
5.04835e-05
4.8747e-18
4.42319e-18
8.41586e-18
1.26008e-17
1.26907e-19
3.20498e-18
8.68954e-06
5.00458e-18
5.39906e-11
3.20274e-05
6.387e-18
5.36104e-18
1.308e-18
2.89214e-08
6.37276e-18
4.70353e-18
6.21568e-18
1.00122e-08
1.51522e-17
5.44137e-06
1.18934e-09
6.25952e-12
1.41944e-18
7.90531e-08
2.57101e-06
5.29669e-05
2.0384e-17
8.51209e-09
6.99471e-06
1.27419e-17
1.41251e-18
1.94743e-16
1.25345e-18
9.87888e-06
2.07153e-06
4.08788e-06
2.0544e-10
1.1809e-19
2.67101e-05
1.95835e-17
2.5676e-17
3.67546e-17
4.04706e-18
3.11652e-05
8.6599e-18
1.97461e-17
2.2364e-09
6.06324e-05
1.90982e-17
3.00364e-06
2.78755e-17
1.07471e-06
8.11924e-18
3.4135e-18
1.00856e-17
1.41237e-18
3.00133e-06
7.49748e-07
0.00037889
1.60871e-19
5.6335e-18
2.50028e-06
3.69405e-18
9.39282e-17
3.00212e-18
4.5369e-05
9.8709e-09
3.73666e-05
7.84125e-18
1.1224e-08
5.23992e-08
5.1764e-17
1.29987e-07
1.47075e-18
1.57902e-06
3.08953e-05
2.41507e-05
1.5324e-06
2.99749e-07
5.18285e-18
1.42956e-18
5.44869e-18
2.36681e-08
8.8561e-19
8.2539e-06
1.92977e-18
0.000211678
9.84756e-19
4.95034e-05
3.80828e-06
3.79644e-18
1.27169e-18
8.77053e-18
5.79137e-18
4.62879e-05
3.60681e-18
8.70871e-17
1.44969e-05
7.81252e-06
4.82267e-17
1.05645e-16
7.36467e-17
6.22469e-17
9.32878e-18
7.07276e-19
2.93257e-05
5.183e-07
4.61989e-18
4.52899e-19
5.50377e-10
1.0014e-18
1.86715e-06
1.32758e-07
8.9882e-18
3.91183e-06
3.18865e-18
4.32052e-07
3.33567e-18
1.23608e-06
4.44854e-18
1.01105e-10
2.49033e-09
8.09582e-07
2.05012e-05
3.87105e-05
1.36741e-09
1.65496e-18
5.64915e-07
4.37693e-18
5.35863e-06
2.51842e-18
2.83025e-18
2.99158e-17
2.17301e-18
1.57623e-18
1.66327e-17
8.15681e-06
9.08278e-06
9.45501e-19
2.91887e-18
3.43421e-17
8.31706e-07
1.67264e-08
9.61881e-18
2.18701e-05
2.26089e-07
7.00287e-18
2.76535e-05
9.75019e-06
4.1581e-06
1.43132e-05
3.00209e-18
1.34697e-18
1.9356e-17
8.85722e-19
4.3875e-05
9.18923e-18
0.000133416
1.38435e-18
3.42604e-07
8.71143e-07
5.31991e-18
1.04476e-06
5.85693e-19
6.9017e-18
3.41119e-06
2.81699e-11
1.01563e-05
1.20591e-17
5.46774e-18
4.54939e-19
9.40703e-07
1.70424e-17
2.1049e-19
7.68577e-18
3.90948e-10
2.6097e-17
9.34799e-09
1.48598e-17
5.71746e-18
1.00391e-17
2.17006e-05
1.17139e-05
2.1768e-05
4.26453e-05
2.42681e-18
1.68122e-08
1.89353e-18
1.19085e-18
1.20496e-05
5.16811e-18
2.75605e-09
3.93703e-07
7.82139e-06
3.92889e-07
1.20695e-12
2.41673e-06
2.23949e-18
1.31311e-12
6.42727e-13
1.38352e-07
1.03107e-06
1.74244e-05
8.10859e-11
4.75501e-18
3.65808e-05
9.7667e-18
2.47766e-18
1.95254e-08
8.93766e-05
7.71979e-11
9.60301e-18
1.20057e-17
4.07301e-10
3.08716e-18
5.06901e-18
1.86926e-08
3.03986e-17
1.55963e-17
4.81649e-05
2.37967e-07
1.85323e-07
2.71767e-05
8.68299e-06
1.77998e-18
2.2439e-18
1.56778e-08
4.91841e-06
7.67026e-19
3.68302e-17
1.19911e-05
1.16858e-18
9.36703e-18
2.052e-17
3.94286e-17
3.38883e-16
0.00308702
8.64215e-18
2.48345e-07
6.40819e-18
2.3553e-05
7.66974e-19
2.01478e-15
3.82481e-17
1.40796e-17
8.10428e-18
2.5018e-18
3.58795e-06
1.34921e-18
1.873e-18
9.11952e-18
2.49585e-18
1.91708e-17
1.95044e-17
1.17102e-05
2.56678e-18
1.31796e-05
3.42543e-06
2.24548e-18
1.92396e-06
6.43192e-18
5.61166e-07
2.26207e-09
4.66831e-06
1.61616e-05
4.5054e-18
1.09144e-07
9.70694e-06
9.44306e-09
2.87212e-18
2.43194e-09
2.20365e-05
5.64458e-06
2.79659e-17
3.13242e-05
1.38565e-17
1.40875e-17
1.4537e-17
7.69539e-19
9.78344e-06
2.63668e-17
1.83098e-18
9.82535e-06
2.45036e-10
3.2095e-06
6.05525e-18
1.2893e-16
7.87026e-07
2.18321e-18
9.641e-08
6.74959e-18
2.73221e-05
2.60201e-18
1.25154e-18
6.59147e-08
3.63803e-18
1.53588e-07
9.16691e-18
9.63732e-19
5.91318e-06
4.99103e-07
5.76565e-06
1.90163e-05
0.000263686
2.41537e-05
2.10278e-18
1.45129e-16
3.33647e-06
8.05683e-06
4.32516e-05
1.3571e-05
4.97423e-18
1.43475e-05
4.14835e-18
3.99753e-18
1.0395e-05
1.27656e-05
8.75435e-18
1.5516e-05
7.3402e-18
3.2919e-06
1.04078e-05
7.28322e-18
1.38716e-19
2.78788e-18
3.19925e-06
3.07535e-17
1.31225e-17
4.78146e-06
2.49701e-05
4.49118e-09
8.99138e-06
2.86174e-18
8.55208e-18
9.16894e-08
8.84272e-07
5.60317e-19
1.20083e-05
7.97124e-17
3.05656e-06
4.32668e-18
1.13184e-18
1.42955e-05
1.48874e-19
4.79509e-08
4.09686e-06
1.54142e-18
3.4294e-18
4.99323e-06
5.87421e-14
6.32197e-05
4.90624e-19
0.000314607
3.40949e-18
2.11877e-17
9.7321e-18
8.57192e-06
4.88568e-17
8.1504e-19
6.47331e-06
2.39807e-17
2.76543e-07
1.10866e-16
1.2829e-17
2.89758e-18
1.40965e-10
9.07253e-07
6.56072e-18
2.34803e-18
4.22899e-05
1.10093e-06
7.08102e-18
5.38856e-07
1.83954e-17
1.04384e-17
1.81349e-09
3.3107e-06
1.49707e-06
4.6387e-18
4.97518e-19
2.15441e-18
3.38977e-20
4.32778e-17
7.50358e-18
7.21242e-18
2.6368e-18
1.73529e-18
3.08651e-17
6.7653e-18
2.24464e-18
6.28523e-17
5.26399e-18
2.38523e-19
8.61494e-19
3.97839e-18
8.60706e-18
2.96005e-18
2.08993e-18
5.11014e-19
2.12336e-05
8.65986e-18
1.79831e-18
1.03639e-17
7.67592e-06
1.05777e-18
1.17733e-17
0.000316281
2.65483e-17
4.7409e-19
2.72086e-05
3.05054e-16
4.98562e-18
8.09784e-06
2.87446e-05
3.35632e-18
2.70544e-06
4.20519e-06
2.02424e-17
1.52466e-05
4.65986e-05
2.07516e-05
3.83827e-06
1.25535e-05
3.82053e-17
1.78775e-18
3.46147e-06
1.25448e-05
3.63753e-06
6.31202e-18
7.46311e-06
1.99999e-06
2.45289e-05
1.23904e-05
7.97221e-07
1.78854e-05
1.26311e-06
1.15557e-05
5.17432e-18
3.02987e-05
9.81759e-06
2.02135e-06
1.52209e-06
1.79461e-18
3.90977e-18
1.64923e-17
2.78288e-18
1.36852e-17
1.09935e-05
1.58814e-05
3.14934e-18
6.22208e-19
1.377e-17
7.21312e-19
5.70411e-18
3.42501e-18
3.37025e-18
4.80653e-17
5.3369e-06
1.83924e-07
2.52442e-05
7.55954e-08
2.17066e-18
5.96265e-17
3.73333e-05
6.92839e-09
4.57239e-18
8.55603e-18
8.50466e-06
1.57258e-18
6.42036e-18
4.73455e-09
9.15065e-06
1.58654e-05
3.85538e-05
3.83845e-05
1.62374e-17
1.67455e-05
3.7471e-07
2.03495e-17
1.82107e-18
1.34854e-05
1.2041e-17
5.94358e-18
2.22019e-05
0.00123191
1.98754e-07
3.06521e-17
7.29506e-19
1.95908e-05
2.47589e-05
2.04267e-05
6.65404e-06
4.18495e-06
2.95499e-18
1.20477e-09
3.07394e-12
2.45905e-18
1.31715e-17
2.02647e-05
1.36706e-18
2.34669e-06
3.00409e-05
2.00051e-05
1.3737e-05
2.13898e-18
6.84335e-06
2.63923e-18
1.32914e-17
1.32761e-17
2.47234e-18
2.92487e-06
0.00100076
2.68639e-18
4.34775e-18
4.56195e-09
2.73434e-05
1.1067e-06
7.97723e-06
3.85275e-05
5.54556e-06
2.32932e-05
7.34266e-18
2.53849e-17
1.82345e-17
3.58734e-05
6.55588e-06
2.97273e-11
1.03261e-18
1.17205e-18
1.16729e-16
2.55048e-05
3.22678e-06
6.53798e-19
5.57077e-06
6.55082e-05
8.11649e-06
7.04177e-06
1.40128e-18
5.19718e-17
7.97376e-06
2.65263e-05
8.89206e-18
3.67155e-07
1.65248e-05
1.13612e-06
1.07762e-05
5.32799e-06
9.28922e-06
5.64907e-17
3.9638e-06
2.3776e-05
4.28979e-05
5.85762e-13
2.66525e-05
1.08176e-16
1.91317e-05
1.73363e-07
2.12884e-18
2.96946e-06
8.4195e-06
4.19008e-07
1.30843e-05
2.22344e-09
1.68249e-07
1.88423e-08
4.25628e-05
4.09188e-06
1.50229e-17
4.50543e-05
1.42276e-06
2.35293e-18
7.13487e-19
4.56075e-11
1.04069e-08
1.17744e-06
0.00127177
4.01982e-05
1.27527e-05
2.51151e-10
4.9883e-05
5.95321e-18
9.83413e-18
4.65245e-06
3.2828e-18
2.44887e-06
5.31947e-06
2.40482e-06
5.36503e-06
8.74826e-18
2.42032e-07
0.000124785
8.35115e-18
2.88941e-05
8.43456e-06
1.69812e-18
4.45421e-06
1.93102e-07
4.13524e-18
7.21235e-12
1.08062e-07
6.79944e-18
7.93277e-19
6.58262e-20
5.05883e-06
5.19565e-06
1.62833e-05
2.7113e-19
5.83726e-06
3.74704e-05
9.55295e-18
8.98624e-06
1.39041e-05
2.82738e-05
1.71411e-06
5.01837e-18
6.76326e-07
1.07772e-05
1.17323e-05
1.00427e-05
4.34156e-05
0.000186591
3.83772e-06
1.11319e-17
7.83022e-09
5.87309e-05
1.88322e-18
4.66966e-07
2.97987e-19
1.84717e-18
1.58662e-18
7.43442e-19
3.15496e-19
3.64759e-06
7.01773e-18
7.91253e-06
1.42281e-06
4.104e-18
4.58704e-06
7.58266e-17
1.63292e-05
1.95987e-18
2.11639e-08
5.58512e-18
2.49518e-05
1.68697e-07
2.43123e-09
4.59866e-06
3.30129e-05
1.93641e-05
4.42332e-06
3.02792e-05
5.42936e-15
2.50342e-05
6.16934e-05
1.0403e-05
4.41258e-18
1.31882e-06
3.20025e-07
6.23836e-06
1.23426e-05
7.17411e-07
1.08605e-18
5.48558e-17
1.98491e-18
4.24977e-06
1.32009e-18
1.86783e-07
2.5356e-07
1.34902e-06
3.16878e-07
3.78281e-19
5.33139e-18
6.40959e-18
9.614e-06
2.43669e-05
1.45398e-06
9.86993e-09
2.15895e-06
7.69625e-06
2.2345e-06
9.4559e-07
7.91827e-06
6.64224e-06
2.90957e-06
7.62494e-18
9.45774e-19
1.3566e-17
1.53957e-05
1.22897e-05
3.53277e-17
1.13709e-17
1.45575e-16
9.2329e-06
2.1723e-05
4.67583e-18
2.38864e-06
2.63766e-18
6.57161e-10
5.57024e-06
9.85257e-05
1.75049e-18
6.17533e-19
4.23433e-06
2.74875e-18
7.3959e-08
1.34569e-05
1.37841e-17
1.20721e-05
3.7299e-05
2.06276e-05
1.73289e-18
1.35936e-06
1.48497e-17
9.06087e-08
5.54083e-05
7.82781e-18
1.15091e-17
1.24822e-05
2.66591e-16
1.57423e-17
4.65317e-08
1.14803e-06
1.84606e-18
6.27784e-18
4.50322e-18
6.62007e-08
1.43918e-06
3.6322e-06
2.78447e-05
1.04992e-05
1.59627e-19
7.48222e-10
7.0212e-07
1.3919e-19
3.49044e-18
3.99013e-19
2.97537e-18
1.72083e-18
5.63797e-18
3.57137e-18
2.58135e-18
1.77711e-17
1.9641e-17
2.85097e-12
2.72664e-17
4.06137e-07
6.14407e-17
2.1646e-07
1.59175e-17
6.41849e-08
6.71884e-17
1.48057e-18
3.06428e-05
1.03193e-05
2.88606e-18
0.000101673
6.016e-12
2.26313e-13
1.16326e-19
1.44162e-06
5.77665e-15
2.97569e-06
6.70582e-09
1.02675e-06
7.13498e-18
2.56e-18
9.50771e-07
3.46419e-11
1.23067e-17
4.17598e-18
4.39602e-05
3.85446e-17
4.1809e-05
7.73891e-19
4.58801e-18
1.7146e-09
3.1585e-05
9.3076e-06
1.05855e-18
3.718e-07
5.02029e-17
2.8738e-06
1.91979e-08
2.08203e-06
9.82276e-07
4.71202e-18
2.29194e-05
1.25576e-06
5.79725e-06
1.19295e-18
8.57962e-19
7.34505e-19
1.62918e-05
4.51611e-06
5.74517e-05
4.11445e-17
4.58721e-10
1.70031e-18
2.05172e-18
2.19537e-17
9.47425e-19
3.4618e-06
2.29115e-06
3.22178e-06
0.00035499
2.24259e-17
3.15645e-05
4.0069e-05
1.9849e-05
1.79329e-06
4.41051e-18
6.11319e-06
4.78119e-06
5.55231e-06
4.7577e-10
1.14686e-05
1.6956e-18
1.81397e-06
1.31827e-06
3.67388e-05
1.1978e-09
3.55424e-06
3.35303e-18
2.07484e-05
8.72196e-18
6.7207e-18
1.8461e-06
1.05814e-17
7.2789e-06
3.83633e-18
3.9673e-18
3.75196e-17
3.9632e-18
5.99026e-18
8.52323e-07
8.4501e-18
6.52032e-07
7.09322e-18
9.05294e-18
2.07807e-05
6.21766e-06
8.73513e-06
8.75711e-06
4.46608e-18
0.000657901
5.21021e-19
7.88465e-05
9.24652e-18
2.05199e-05
2.54834e-05
2.55286e-06
6.41668e-05
2.71572e-17
5.67573e-17
7.14905e-19
2.45193e-06
1.80949e-17
6.6093e-18
1.99864e-05
1.01207e-17
4.18857e-19
5.75431e-06
8.50956e-18
1.44787e-05
8.18418e-11
3.10788e-19
9.78002e-18
1.25832e-17
1.80277e-06
7.47563e-06
3.39735e-18
2.5641e-05
3.61755e-07
1.1874e-17
0.000115958
1.7312e-19
1.79453e-05
2.03192e-05
3.8287e-06
5.12921e-18
2.01217e-05
1.0773e-05
9.14195e-07
5.73662e-06
1.40192e-05
1.40925e-18
7.08812e-19
1.95445e-09
1.11027e-18
5.60901e-19
7.85889e-19
2.21265e-05
4.96178e-05
4.96016e-06
2.32297e-06
4.46941e-18
5.50437e-05
5.16233e-05
4.7857e-06
2.86497e-06
1.02578e-05
2.36483e-05
2.88346e-06
3.53851e-18
8.48712e-18
7.25142e-18
7.44504e-06
3.8251e-18
2.84343e-05
7.60855e-18
8.41396e-07
5.49491e-10
2.90884e-06
2.50052e-05
2.761e-18
8.47106e-18
2.72085e-06
4.00173e-07
3.0719e-18
1.02545e-17
8.59233e-18
3.61112e-08
3.34403e-07
1.54612e-07
8.89449e-07
1.11381e-05
9.90983e-05
1.49213e-17
1.31153e-17
1.59329e-18
4.28223e-06
2.09471e-05
2.2703e-05
3.9015e-05
2.11587e-06
3.13567e-06
6.44923e-18
4.96069e-19
1.76026e-16
6.2744e-18
1.08527e-05
2.51826e-05
5.17928e-18
9.90459e-18
1.52979e-17
5.96836e-18
9.86295e-18
1.05147e-17
1.50266e-05
6.45351e-17
1.17811e-06
0.000442321
4.52361e-18
1.6819e-08
2.56916e-05
8.07307e-07
1.30722e-18
1.56109e-17
5.35178e-06
5.55904e-19
1.57676e-05
1.2417e-09
2.73126e-05
6.57864e-18
2.59078e-15
9.81871e-19
4.11797e-18
3.90158e-18
5.30542e-17
0.000219937
7.3998e-18
6.3818e-06
1.35958e-06
7.75842e-19
3.24227e-18
2.14877e-06
8.14286e-18
8.70272e-18
1.54314e-05
1.1721e-07
9.92663e-19
2.42284e-17
7.93817e-18
1.87748e-05
2.89425e-18
4.3118e-18
4.32796e-07
2.83749e-06
3.34143e-06
9.08051e-18
3.43247e-18
8.48602e-18
4.1344e-06
2.00592e-06
1.42502e-05
4.05269e-06
5.45629e-18
8.83314e-07
1.40002e-05
7.26254e-06
4.19749e-18
1.36444e-17
3.85501e-19
5.91888e-19
3.18704e-18
3.50849e-05
6.20692e-06
6.03343e-06
2.98958e-18
5.71256e-19
3.08941e-18
4.219e-18
1.86165e-18
1.02169e-09
2.85268e-07
2.61204e-06
2.25595e-18
8.06121e-18
1.53977e-18
3.05665e-12
3.83253e-05
0.000127764
1.53307e-18
1.80494e-12
9.46239e-15
1.46221e-18
2.56893e-18
4.34355e-06
7.69212e-06
4.66995e-18
1.68875e-17
3.23653e-06
5.68668e-18
7.96053e-07
1.28046e-06
0.00243027
7.77284e-18
7.4716e-18
1.38865e-05
5.62905e-07
5.97071e-19
0.000766081
6.55932e-07
7.57e-06
5.51949e-18
1.94053e-17
5.6571e-18
4.119e-19
8.95758e-06
1.11265e-07
1.65259e-17
2.82807e-05
2.13023e-05
0.0010052
1.124e-17
2.92211e-18
3.49866e-18
1.40508e-18
7.20668e-06
6.98342e-11
9.75725e-18
2.1196e-17
2.11785e-05
1.0841e-06
5.75692e-06
1.88048e-18
2.38833e-17
3.26611e-05
1.9883e-17
1.84843e-18
3.55439e-18
9.34914e-18
2.54892e-05
2.19599e-17
2.52828e-18
7.35704e-18
2.88678e-05
1.42767e-05
2.56728e-18
7.00566e-19
5.19422e-18
1.74807e-05
1.81712e-10
2.24079e-17
3.94676e-18
3.57922e-18
2.57523e-18
2.70276e-06
1.2052e-05
1.82294e-18
2.37119e-06
1.19869e-06
5.21176e-06
3.98677e-17
5.99019e-19
1.37654e-18
3.22379e-19
1.9517e-19
2.33522e-05
4.43113e-17
1.71586e-05
2.17613e-18
1.66125e-06
2.5727e-17
2.54804e-06
6.57199e-18
1.14432e-17
1.2278e-05
0.000205057
9.80377e-17
3.83108e-06
1.12748e-17
4.14873e-07
1.33804e-17
1.88948e-17
1.4692e-17
3.34956e-10
2.62162e-18
3.79461e-07
1.37803e-18
4.04248e-05
2.87692e-18
6.94892e-17
1.41154e-18
9.64008e-18
8.87531e-09
1.48869e-07
5.42998e-18
5.92318e-06
1.38666e-18
3.39519e-06
2.17949e-05
1.35168e-06
3.65078e-19
4.93894e-09
4.67515e-07
2.22187e-09
5.19588e-06
3.90541e-10
1.77345e-06
2.93107e-17
3.77032e-19
4.58596e-10
6.25245e-06
2.53819e-07
4.3508e-17
2.43771e-18
2.17197e-17
0.000628405
7.41204e-18
8.62121e-18
1.65421e-17
6.31485e-18
3.21664e-18
4.98212e-08
1.89908e-07
1.10057e-06
7.19229e-08
5.89674e-16
1.5675e-06
1.2092e-19
6.63354e-06
1.58441e-18
5.0243e-19
4.41991e-18
1.60771e-17
2.26229e-08
1.38347e-17
1.19142e-18
9.51689e-18
1.67414e-05
7.75266e-18
1.4183e-18
1.24206e-05
2.2047e-17
7.19424e-05
0.000127864
0.000602203
2.32364e-18
0.000233142
0.00138066
0.00151018
0.000764436
9.61491e-18
4.79503e-19
5.54402e-06
5.42689e-06
9.84574e-18
8.37206e-06
2.92709e-18
3.65725e-05
3.25314e-18
5.3198e-18
7.36069e-07
7.37368e-18
3.22051e-18
1.09335e-08
4.19899e-08
3.00128e-19
1.82651e-18
2.66511e-09
1.83667e-17
2.40362e-17
2.33848e-08
9.22947e-06
1.60398e-06
4.78777e-17
8.38473e-06
4.4109e-18
3.96848e-06
4.54486e-10
7.8793e-06
1.28846e-18
1.32401e-11
6.12151e-06
2.33072e-17
1.68486e-12
2.17485e-18
3.67283e-05
1.88571e-18
1.12089e-05
2.05677e-18
1.92123e-10
1.61609e-18
7.9069e-18
1.10173e-17
6.2946e-13
3.70997e-13
1.00111e-17
1.37657e-05
9.59814e-06
8.30044e-18
1.73095e-18
3.72947e-05
2.01041e-05
0.000208542
2.02501e-18
7.21955e-08
2.82147e-05
5.22023e-05
6.38182e-11
7.68551e-18
6.46976e-05
2.67975e-18
0.000255716
2.75275e-18
4.04599e-11
4.15673e-11
3.01424e-18
5.70558e-08
3.22113e-17
2.37022e-05
7.0883e-18
6.81684e-18
1.2383e-17
1.01435e-18
7.72504e-18
4.96353e-19
3.37221e-07
2.03897e-06
0.000153581
2.92974e-17
1.58688e-17
4.63161e-05
2.83899e-18
2.82811e-19
4.19658e-18
4.07762e-18
2.03801e-17
6.33747e-06
4.39906e-19
1.13982e-17
1.72468e-19
3.52999e-06
2.20888e-17
1.37817e-17
3.27801e-18
3.4665e-06
4.60792e-18
6.53922e-06
0.000254495
5.52074e-06
5.82728e-06
2.87925e-05
5.57797e-18
2.14156e-17
2.40041e-18
3.30891e-06
1.99344e-06
8.12687e-19
2.20509e-16
6.2512e-07
6.49964e-18
7.96654e-18
0.000371501
2.96452e-18
2.47262e-05
1.13015e-17
2.56935e-06
3.82981e-06
7.83792e-18
1.10982e-18
6.39202e-18
3.84788e-19
5.14651e-18
2.13183e-05
2.82619e-17
4.93331e-06
6.4678e-18
2.84946e-18
7.29211e-06
2.1971e-17
1.4606e-05
4.32047e-17
3.79711e-19
2.6121e-06
8.57598e-08
0.000155025
5.1299e-17
1.21719e-17
2.40986e-18
4.0296e-06
0.000199059
4.32979e-18
3.84106e-18
3.20029e-17
1.59845e-06
2.57301e-18
2.24434e-05
3.36432e-05
4.81925e-17
4.9726e-19
7.6307e-06
4.94047e-18
3.66267e-17
2.68164e-18
2.28279e-17
4.07618e-18
7.441e-05
3.70422e-17
2.81738e-17
3.30158e-19
3.46679e-17
2.18241e-18
1.23536e-17
1.25912e-17
1.91393e-18
3.59132e-17
8.56954e-06
2.31781e-17
8.81499e-06
4.3341e-17
5.38878e-18
0.000647215
2.85864e-06
1.38639e-17
6.40592e-18
3.31094e-18
2.51927e-06
2.31744e-17
1.01453e-18
3.32416e-17
3.479e-18
7.60535e-06
3.62256e-19
4.9413e-06
1.26289e-17
1.10077e-05
1.43083e-18
6.35515e-05
2.22692e-17
1.99645e-18
2.25746e-05
1.43919e-17
9.37312e-19
3.01337e-05
3.15868e-07
1.72942e-18
5.92537e-18
4.1703e-05
1.16489e-05
6.79537e-06
8.61029e-07
1.88677e-06
1.88755e-05
1.02279e-06
5.65411e-06
4.23728e-18
3.03954e-05
1.04876e-17
8.94371e-18
1.76369e-18
4.41837e-17
2.9967e-18
1.08281e-05
2.15611e-18
2.08232e-18
6.17443e-19
2.2471e-09
1.12357e-08
7.00113e-17
2.70703e-06
1.3507e-17
4.61018e-06
1.56079e-17
1.1834e-09
4.03483e-06
3.04203e-16
4.91355e-05
2.26664e-18
3.10201e-17
1.81832e-17
3.11079e-06
1.48704e-06
4.86457e-19
3.16166e-18
2.63377e-06
8.79369e-18
0.000728483
2.36511e-19
0.000110099
1.00942e-18
2.00661e-18
1.25445e-19
1.08888e-18
1.06428e-05
2.41455e-18
4.61855e-08
8.98395e-18
1.07442e-05
1.33833e-18
4.23866e-18
7.83165e-15
1.60787e-17
9.8547e-18
4.7804e-17
6.7756e-18
2.46661e-18
4.80924e-06
0.000219128
1.50535e-17
3.15012e-18
4.24786e-07
1.38824e-18
7.42008e-18
1.50025e-09
1.9072e-05
1.71341e-07
1.38542e-17
7.07127e-07
3.83938e-06
5.54392e-06
9.39059e-06
8.39074e-18
8.30505e-18
3.27599e-17
9.73881e-20
1.83267e-18
3.45727e-18
1.02676e-18
8.8356e-18
4.02046e-18
3.81601e-18
1.32023e-18
2.25995e-18
8.33155e-05
3.82863e-18
5.68453e-19
7.46578e-13
1.93266e-17
8.15617e-18
0.00122786
4.42628e-19
2.15626e-18
2.04359e-06
1.7403e-12
4.23033e-18
4.58378e-18
1.30543e-18
2.49718e-05
7.50084e-18
8.29333e-19
5.28823e-11
2.24482e-19
1.07229e-17
7.99328e-20
7.14434e-19
0.000125965
1.59804e-18
2.03444e-07
3.14524e-18
3.57229e-18
1.32457e-18
3.29055e-17
1.26364e-18
2.54936e-11
4.69018e-11
1.32251e-07
3.62852e-18
8.13563e-18
8.86042e-18
1.11312e-10
5.00228e-18
3.2144e-10
1.54002e-11
3.20821e-17
4.26365e-18
8.3012e-18
7.41797e-12
4.34645e-18
1.33235e-17
2.31306e-12
1.1696e-16
3.54287e-05
1.06302e-17
7.51107e-06
6.3835e-17
2.53453e-09
2.90618e-18
1.68755e-06
1.08256e-17
4.8038e-06
2.71312e-05
2.14062e-17
2.90178e-06
1.40238e-08
2.41291e-18
1.13201e-05
4.36555e-18
1.12052e-18
1.12862e-17
1.18166e-18
2.08431e-17
8.0051e-19
1.35635e-18
2.18517e-18
0.000311381
8.46348e-19
2.38445e-18
2.12194e-19
2.16285e-18
5.49714e-19
3.56753e-05
0.000930091
3.29815e-09
1.38698e-08
3.38331e-18
2.20841e-06
1.5048e-06
5.21323e-19
3.57606e-17
4.56277e-17
1.55024e-18
2.44871e-18
1.3982e-17
2.01913e-18
1.17378e-17
4.56628e-07
2.74069e-17
2.05919e-18
2.14185e-07
3.33719e-09
2.18287e-17
3.0204e-05
1.68174e-17
1.94156e-17
7.49932e-18
0.000196526
3.06265e-18
5.27978e-19
2.83253e-05
1.14394e-17
3.52183e-18
4.62066e-18
1.67271e-17
6.12509e-05
3.42347e-18
5.37501e-18
3.63189e-18
4.34958e-18
7.04522e-06
0.000271558
3.3022e-05