/*--------------------------------*- C++ -*----------------------------------*\
  =========                 |
  \\      /  F ield         | OpenFOAM: The Open Source CFD Toolbox
   \\    /   O peration     | Website:  https://openfoam.org
    \\  /    A nd           | Version:  10
     \\/     M anipulation  |
\*---------------------------------------------------------------------------*/
FoamFile
{
    format      ascii;
    class       volScalarField;
    location    "119";
    object      SgRate;
}
// * * * * * * * * * * * * * * * * * * * * * * * * * * * * * * * * * * * * * //

dimensions      [1 -1 -3 -1 0 0 0];

internalField   nonuniform List<scalar> 
59698
(
0.0162501
0.00198788
0.00252397
0.0027161
0.0302718
0.00145199
0.00462728
3.02919e-05
1.98554e-09
3.93714e-09
0.000586478
0.000299178
1.57671e-09
0.0022924
0.000352714
4.27767e-07
7.02247e-06
0.000145866
4.51166e-05
0.000265784
0.00173472
0.0139488
0.000499572
8.81906e-08
0.0422627
6.75006e-05
0.000342557
0.0100106
0.00913483
0.00743771
0.00478216
0.000600625
6.68437e-08
0.016453
0.00240954
0.000163823
0.019164
0.0205449
3.0846e-05
0.0250456
0.00865997
2.30476e-07
0.00373705
0.000644379
0.000402107
0.0321644
7.42835e-05
0.000729758
0.00315481
0.00017372
0.0015173
0.000119584
0.00206655
0.00273458
0.011388
7.6955e-05
0.0013268
0.000212546
0.000806548
0.00277981
0.00523334
0.000500743
0.12223
7.04534e-05
0.0125644
0.00160732
1.75179e-09
0.000399788
5.57885e-05
6.77296e-09
6.24831e-07
0.000253565
0.000363306
0.0406271
0.000411943
0.0390406
0.000117168
0.00925603
0.000356553
0.0061635
0.008896
0.000475042
4.02771e-09
1.59379e-05
0.00856206
0.000550804
3.61025e-06
4.21808e-05
0.0637363
0.000129127
4.50451e-09
0.0020595
0.0148821
9.83365e-06
7.34371e-05
0.00375148
0.00540566
6.11023e-05
0.000269129
8.59662e-10
0.0771235
0.00182441
0.0162895
0.0155604
0.00012136
0.000564778
4.358e-05
3.67144e-05
2.70359e-09
4.3958e-10
0.000249987
7.25727e-06
0.0381413
1.56279e-07
2.62337e-05
4.51326e-05
4.00669e-05
0.00353823
2.3632e-05
1.15641e-08
3.64232e-05
0.000707543
1.14587e-06
6.16522e-06
2.12631e-05
3.35054e-05
0.0108127
7.21084e-09
2.77043e-05
2.97412e-05
0.0446022
3.73326e-05
1.10274e-09
0.100192
0.00424875
0.0044083
2.11343e-06
2.62107e-10
0.000255325
0.000131078
0.000109452
0.00231878
0.00269685
0.00265045
9.98894e-06
0.000694883
6.39209e-06
2.20846e-05
0.00448993
0.0293296
0.000299441
0.000434379
0.00152956
7.58898e-06
0.000163111
0.000342525
4.79312e-05
0.00162924
0.0124215
6.0107e-10
0.000858204
5.13167e-05
0.0164311
0.00164357
0.00336521
0.0344916
0.000237802
0.0720403
0.00203075
0.000413548
0.0119848
1.5185e-06
0.010806
0.0146757
0.0793852
0.00194753
4.39884e-09
0.00144608
0.000326012
0.00920274
0.0094152
0.0180154
0.0147093
1.98239e-05
0.0461131
0.000237807
0.0114411
0.00247842
6.47109e-06
0.00118209
0.000404616
6.7029e-05
0.00268108
0.0387972
0.00400954
0.00417138
0.00981923
0.0580213
2.67216e-05
0.00771927
0.000227086
0.0061969
0.0211697
6.64504e-05
0.0103562
0.00276566
0.00612881
0.00286954
0.00783385
0.0113595
0.0025611
2.36546e-05
0.0027934
1.56772e-08
0.00408957
0.0033676
3.73033e-05
3.62839e-05
0.0127497
0.00658352
0.00564427
0.00268798
2.97747e-05
0.0660496
0.000810596
0.0263944
0.00735361
0.00324411
0.00685114
0.160022
7.56722e-09
0.00474976
0.00291102
0.00324236
1.38465e-05
0.00969397
0.0829027
1.91595e-05
8.68798e-07
0.000443616
0.00262487
0.00146923
0.0135473
0.000664542
0.00613666
0.000120416
0.00380724
0.231262
0.00122241
0.000426967
0.000701711
0.00163184
0.000629006
0.000233555
0.000618188
0.00238931
0.0060148
0.00128465
0.00364433
4.10431e-05
1.42352e-05
1.81837e-09
0.000394401
0.00592743
0.00473092
0.0475328
2.32407e-05
1.0649e-07
0.000164933
1.63281e-05
0.000141727
0.0440333
0.000222821
1.85134e-05
0.017968
0.000206354
0.00146596
0.000510646
0.00207297
1.22919e-09
0.00057413
0.000193617
0.000211977
0.104529
0.0489046
0.020194
0.000134957
0.000647037
0.0730012
0.000444099
0.0918101
0.00234046
0.000188153
0.000164568
0.000321623
0.00273561
0.000356551
0.000803464
0.0042497
1.17611e-05
0.00272337
2.28056e-09
6.86692e-08
0.000823602
6.4662e-05
5.26853e-05
0.0520871
0.00101379
2.01918e-06
0.000267374
0.00197967
7.08532e-05
3.83495e-05
2.37959e-08
0.00193975
0.00514287
0.000403389
0.000392582
0.000829309
0.000806703
0.000342389
0.323624
0.000321059
2.98669e-09
0.0487697
0.0105183
0.000328106
0.000353461
0.000441717
0.000361923
0.00940377
0.00416426
0.0202902
0.206723
0.000430951
1.9291e-05
1.0032e-05
0.000664643
0.00909693
0.00448778
0.0102159
0.00206576
0.00253489
0.00147876
9.68472e-05
6.74678e-06
0.000100135
0.0395054
4.77701e-05
0.00204906
0.00798076
9.16298e-05
0.0399011
7.94948e-10
0.243205
0.0021743
0.014009
0.000126184
3.78882e-05
1.82163e-09
2.76293e-05
8.76256e-06
1.10689e-07
0.000888799
1.30163e-10
1.04124e-07
0.00281324
0.00203109
0.000156594
0.00163917
0.00190919
0.000533989
0.0036739
0.000651119
0.00618865
2.97639e-09
0.000153458
2.4522e-05
0.000460521
2.49165e-09
0.000347123
0.000103053
5.63345e-05
0.000528538
0.000140129
1.9915e-05
0.000212016
0.000544826
8.75894e-10
0.000143801
8.77421e-05
0.000457519
0.00456526
0.00263575
0.00134587
0.00228209
0.0485854
0.00184026
0.00272064
0.000145559
0.00284904
0.00238688
0.00258651
3.98571e-05
0.00148698
0.00420618
0.0850996
0.0281022
2.28281e-05
0.00537578
0.0314084
0.0004043
0.00178392
0.000434528
4.69272e-08
0.0595349
2.72519e-06
0.010408
0.00240989
0.0018376
0.00303725
0.00218731
0.00252709
0.31098
3.76725e-05
1.315e-05
7.90619e-09
0.000219045
0.00143136
5.50304e-10
0.000266316
0.00214791
0.016314
0.00302999
0.00211036
1.4085e-08
1.39352e-08
0.212941
0.00012361
0.00317578
1.92324e-07
0.00325733
5.06058e-09
2.19287e-05
4.03627e-05
0.00238295
0.0699901
4.52044e-10
6.44481e-05
0.0090896
0.00256143
0.000124671
5.88854e-05
0.0329741
0.000284052
9.72928e-05
0.10845
1.42859e-09
0.00973918
2.88574e-05
0.0541689
8.69444e-06
0.0159257
0.0133422
2.19102e-09
0.000976177
0.000447634
0.00849483
3.31983e-05
0.00807754
0.00292931
4.42864e-09
2.01869e-10
6.84399e-09
0.000385594
0.000817252
0.00113288
0.0689606
0.006217
0.0022021
3.50733e-05
0.00049767
3.97446e-05
1.93515e-08
0.0053958
4.57841e-05
5.55397e-05
9.37387e-05
0.0657742
0.00178814
0.0230166
0.065506
0.00113595
0.000163476
0.0589183
6.18488e-05
5.61109e-07
0.00237021
0.00953422
0.000365618
9.71408e-10
0.0639522
0.0071555
0.00460544
1.71074e-08
1.11819e-09
3.84019e-05
2.14679e-09
1.24564e-05
0.00316453
0.000581283
0.0747805
0.00720055
5.4192e-08
0.00914069
5.58187e-05
6.8841e-09
3.8556e-05
7.03573e-08
2.48111e-08
0.00547334
0.00377858
1.17061e-05
3.86692e-09
2.18553e-09
0.00127414
0.00948061
1.03088e-05
0.0107034
0.00390472
3.88584e-05
0.0424432
1.82785e-08
2.22927e-05
0.001452
3.5639e-10
1.35536e-08
0.00185651
0.000138833
0.000384876
0.00971296
0.000357406
0.000148188
0.0679297
0.00817733
0.0135128
0.0100655
0.000173476
0.0116869
7.86111e-06
4.19506e-05
2.28785e-09
3.92743e-05
1.91681e-09
0.000283008
3.01017e-06
1.9103e-08
0.00116534
0.00689711
0.000443806
0.000768499
1.7406e-09
3.30839e-05
9.36968e-05
5.56718e-05
1.81346e-09
0.0739029
5.27184e-05
0.00553481
0.000539255
0.00287625
6.41241e-05
2.0523e-07
0.00259468
0.00287556
0.00338004
6.80016e-05
0.00399269
0.00211548
2.30894e-09
0.000732636
7.56164e-05
0.00515272
5.43504e-05
0.0040867
0.000313364
0.00242671
1.7841e-05
0.00415253
0.00269177
0.00215909
0.00332515
0.000372141
0.000167705
8.51522e-10
1.90275e-05
9.26908e-07
0.00432718
0.000349775
7.15242e-09
0.00517236
3.36633e-05
2.87965e-09
0.00340516
0.00147051
0.0021647
0.000164881
0.00108735
0.00393223
6.6278e-07
8.10474e-06
0.000547184
1.0145e-05
0.00434076
0.00142293
0.00279206
2.20974e-05
0.224737
1.87782
2.06272e-05
5.04024e-09
0.000595675
0.00213453
0.00090629
0.00247876
4.83937e-05
0.0071388
0.00247039
0.00317986
0.00155704
0.0027686
0.000211178
9.20046e-05
0.00113898
0.000107691
0.00134102
0.000236973
2.43477e-05
0.00156781
0.109692
0.000238191
5.07173e-06
0.000607886
1.45133e-09
0.00243071
0.00382573
4.14829e-05
0.00244206
0.000120872
1.75714e-09
0.000439476
0.000176743
0.00829744
0.000800125
0.000585217
0.000113993
4.06656e-05
7.96122e-06
0.000327323
0.00202966
0.000307481
0.000815886
0.000895628
0.0198794
0.091363
0.00136094
3.36879e-05
0.00233343
0.0031976
0.0415663
3.86793e-09
2.15699e-05
0.000460612
0.00354651
0.000143941
0.00167194
0.000428463
0.0107979
0.0473398
0.000145208
0.000422819
8.02581e-05
3.53425e-07
0.0003781
0.00140692
1.56611e-05
0.00215055
0.000194982
0.000191411
0.0114545
0.00440052
0.0394524
0.000807311
0.00138572
0.00211567
0.00244236
0.000243314
0.0011826
0.000650655
0.000158862
2.36348e-10
1.01511e-09
0.00660543
0.000821628
4.47127e-05
1.48377e-09
0.00642445
2.88403e-05
4.42838e-06
2.72084e-09
0.00343082
4.18327e-08
0.000505161
0.000362136
2.82595e-05
0.00198341
0.00917811
3.43056e-05
1.35919e-09
0.00064694
0.0617067
0.00323561
3.83852e-05
0.000951738
0.00144972
0.0257783
0.00882602
1.35796e-09
0.0553598
5.18557e-05
0.0025837
0.000344565
0.00942345
6.64544e-05
1.48162e-07
0.0112447
0.00449342
0.000532165
0.00307551
0.060848
0.000584475
6.96599e-05
0.245928
0.00232625
0.000734356
0.00240275
0.00190775
0.00173888
5.20076e-06
0.0152395
1.91153e-05
0.0600835
0.00317071
0.024724
6.8614e-10
0.000212149
0.105164
0.235708
0.000599772
6.86628e-05
0.0497404
0.000383645
0.00224438
0.00521023
0.00194309
0.00833058
0.00411728
5.959e-05
0.000401556
0.00197023
0.0141734
0.000373922
3.51548e-10
0.00269262
2.54971e-09
0.00435184
3.83667e-05
0.000223995
0.0060958
0.00522699
1.22939
3.75432e-09
0.0245217
0.00969418
0.0210656
0.00106631
0.00474114
0.000326088
0.000963499
0.00163996
0.00140185
0.00670031
0.0111303
0.106719
0.00218973
0.00551585
0.000541382
6.91005e-09
0.000383145
0.000368488
0.000233855
1.52988e-09
0.00320266
2.15163e-06
0.00944283
0.00021562
0.000721155
0.00158244
1.69863e-07
0.00689895
3.56051e-09
0.00100438
6.11218e-05
0.00130405
0.00011349
0.0136964
0.000651795
0.00179574
0.0201693
0.209853
8.067e-05
0.00876474
0.000128891
0.000704673
0.000444781
0.000428764
0.00379463
0.000844449
0.00743102
0.000561236
0.00627509
0.00227906
2.04126e-06
0.000401152
7.35015e-05
8.31366e-05
3.33957e-05
0.000503636
0.000275355
0.000319871
7.69569e-09
5.09826e-09
1.91966e-09
0.000487275
2.03753e-09
0.0055781
0.00492908
0.00153803
0.000499698
0.00406108
1.65636e-05
2.9316e-09
0.0155726
0.000469636
0.000152897
1.29413e-09
0.0359299
0.00489324
0.000879509
9.00018e-06
2.45674e-05
0.0106028
2.63814e-07
0.00981187
0.000131668
0.000532566
0.000485504
0.0001284
3.32196e-05
2.4751e-09
0.00134188
1.48103e-09
0.00880277
8.98218e-08
0.00209568
0.00010882
6.99563e-05
0.00163721
0.00165157
0.000598154
0.00192489
5.97597e-06
0.00202612
0.000307137
1.24606e-09
0.00206032
6.31272e-05
3.31176e-05
0.00423798
3.05402e-09
0.000268215
0.00373023
0.0183075
0.000319936
0.00105918
0.00299745
9.16891e-05
0.00460398
0.000633462
0.000584042
0.00449444
0.000149043
0.000379941
0.00255433
0.00162899
8.57737e-09
0.0026089
0.000106056
1.22316e-05
0.0651882
0.000412234
0.00145648
0.00262429
1.49202e-07
2.04082e-09
0.00272523
0.00403404
0.00521601
0.0202399
0.00398018
7.00142e-07
0.0409196
9.53937e-05
0.00132457
0.115263
0.000230941
0.00458994
0.00450318
0.0327913
0.0584145
7.36818e-09
0.00254338
1.61697e-09
0.0246897
0.000270343
0.000346831
0.00141422
3.85934e-10
0.000761137
0.00245462
0.000578233
0.0019532
0.0067985
0.00283692
0.00316837
8.33365e-05
0.0250027
0.000732352
0.000141749
4.71457e-05
0.000826024
5.70847e-05
0.00238149
0.00106969
2.05274e-05
4.80413e-05
0.0053313
0.000294949
0.000163869
0.000106851
0.00539305
1.44037e-09
0.000141469
0.00958276
0.0035752
0.000293997
0.00041492
0.000265358
0.000126137
0.000425019
2.36481e-08
7.52248e-09
0.000429222
0.00234017
0.000466221
0.000397745
0.0141616
0.0189861
0.0178132
7.67117e-06
0.00184145
0.00292466
0.0027115
0.00484216
0.00598932
0.000399295
4.63421e-05
0.00255931
4.41314e-05
0.0110242
0.0565035
0.00197655
0.000443682
7.09099e-07
0.00053842
0.000102287
0.00114468
0.00226508
0.00234582
0.000608738
6.88545e-09
0.000123046
0.00237494
0.00235736
0.00232071
0.00365564
0.0472292
0.000395621
0.00190295
0.00135656
0.0227648
5.67323e-10
0.00039736
1.43141e-05
0.00460529
0.000454032
0.00160101
0.00468217
3.41938e-05
0.00347787
0.00356415
0.00366876
0.00549926
0.00948829
0.0100879
0.00818043
0.00522917
0.00578092
1.52363e-07
0.00014693
0.00047522
0.00599712
0.00473817
0.00222662
5.34665e-10
0.00174216
0.00390997
0.000245618
0.00161682
6.35965e-05
0.0145868
0.000127037
0.0405555
0.00314964
0.739294
7.66437e-06
1.5652e-08
0.00211449
0.00317203
1.78288e-07
0.000760262
0.003993
0.00700631
0.00430279
0.00063422
0.00684711
0.000542244
1.0472e-09
0.0197338
0.000765798
0.000926124
0.00115805
0.00267861
0.000322959
0.00112728
3.11697e-09
0.000534599
0.00823865
0.00271189
0.092451
9.38046e-09
0.00240986
0.0820488
2.57945e-10
0.00884617
0.00277049
0.0252259
0.00130959
0.00362717
3.48839e-05
6.78547e-06
0.00132778
1.54797e-08
0.00124215
4.22507e-05
0.000118337
0.000125832
9.16013e-06
0.0017175
0.00322494
0.00970986
2.92887e-08
0.00241162
0.000527173
0.000161462
0.036068
0.0545716
0.00506803
0.000371214
0.00427553
0.455066
0.0241209
0.0263069
0.000460106
0.00044909
0.102391
0.000136945
2.28811e-07
1.4973e-06
0.016523
0.000214057
0.00170502
0.000329169
0.00174614
2.99128e-08
0.00461941
0.00900484
0.00288401
0.000646382
0.000737229
0.000477735
2.25217e-09
0.000130954
0.00365329
2.48702e-10
0.00114406
0.000584403
0.0077811
0.000354329
0.118028
4.47594e-05
0.00118495
3.41246e-07
0.00564261
9.28657e-05
0.00109956
0.00257364
0.000380629
0.00242491
1.24004e-05
0.00013735
0.0028596
3.82602e-05
0.0187165
0.0121453
1.04373e-05
0.00150378
0.0835805
0.0029869
0.00400924
0.000114167
1.82472e-05
0.00375306
0.0362554
0.00879573
0.00264266
0.000182142
0.00193411
0.00336487
0.00300546
0.00372269
0.00537594
7.54149e-09
0.116671
0.0512707
0.000493348
1.05048e-06
3.04196e-05
0.00313155
0.0024497
0.0262432
0.00113151
7.33512e-07
0.00230249
0.000371614
2.89646e-09
0.00355225
4.2214e-09
0.0026853
2.66431e-05
0.00147781
0.00375273
9.25679e-05
0.0197761
0.000151218
0.00043443
0.00364493
0.00413478
0.00204492
0.00209894
0.0119292
0.000579701
0.00034517
0.000376112
0.000264911
9.38381e-06
2.27617e-09
0.000190462
7.29892e-05
9.7285e-05
0.000781453
0.000646987
0.000853794
5.19317e-06
1.83912e-05
1.86446e-05
0.000309677
0.00267074
0.000496398
4.35251e-05
0.000238788
2.93242e-05
0.00031544
0.000232063
0.000223591
0.00392381
0.103631
5.28374e-05
0.00477707
0.00166036
0.00412624
4.88182e-09
3.55795e-06
4.39892e-05
0.00845321
0.0196657
0.00478459
0.00232803
2.24615e-08
8.48087e-05
0.000377619
0.00474293
0.00958468
1.0488e-08
0.0051609
0.00280872
0.00107505
0.00352985
0.00263932
0.0145572
0.00185165
0.00384187
9.2486e-05
4.65006e-10
1.39095e-09
5.30476e-05
0.00560582
8.38622e-06
6.2224e-10
3.50084e-05
0.00502377
0.000210584
0.0010091
0.00101739
6.00943e-05
0.00191167
4.81611e-05
0.00388721
9.74337e-05
0.00208626
0.0284714
0.00210828
0.00121278
6.09637e-05
2.25155e-07
0.00101673
0.000983774
0.0146081
3.20913e-10
1.22105e-07
0.00127355
1.22673e-07
0.00086584
0.000217141
1.49259e-07
6.88408e-09
0.000215089
0.000283633
0.000584267
0.0021968
0.00208091
0.000277274
0.000576416
2.52186e-05
1.07265e-08
0.00542735
0.00020528
6.50313e-10
0.04707
6.57721e-05
3.26762e-05
0.000283689
6.1095e-08
1.63235e-05
0.000547246
8.78517e-05
0.000563698
9.60603e-06
0.000947796
0.000340003
0.00276329
0.00428883
0.00129618
1.55613e-05
0.0632395
0.00238292
2.18462e-07
0.00606915
0.00288949
0.00667996
1.21158e-05
2.20045e-07
0.351107
1.67899e-06
2.50375e-08
3.48184e-05
0.0255793
0.00306224
0.000635586
0.000492207
2.07061e-05
0.00322277
0.0360548
0.00482179
0.0087136
0.0142719
5.58939e-08
0.000340247
1.66529e-09
3.61962e-05
0.0083145
0.000746754
0.074759
4.15945e-10
0.000486819
6.34914e-10
0.000532958
0.000313603
0.000377213
0.0105225
0.0181483
0.000544714
0.00183383
0.0045011
6.37713e-09
0.000235777
0.000993242
0.0020382
0.000399184
0.000791111
0.0075087
0.0107009
0.000592185
0.00171298
0.00267024
3.71316e-05
6.41865e-09
0.000432448
0.0138048
0.0116282
0.00504387
0.047569
0.00272564
0.000171838
0.00524037
0.000184816
0.000681624
0.00106775
0.0222591
0.000286436
0.02035
0.0114963
0.0345234
1.82145e-09
0.102299
0.00875861
0.00173355
0.0046188
0.0641632
0.000400197
0.0028179
0.00239126
0.00228828
0.00808938
0.00112513
3.14049e-05
1.79652e-06
0.00203068
0.0249217
0.297362
0.000156714
0.00908296
0.000291773
0.00125551
0.000444876
0.188015
0.000620566
0.286371
0.780665
0.000103965
2.23456e-09
7.60555e-06
0.00136243
0.010624
0.0056801
0.010202
0.0634462
0.034201
0.0018387
0.00163825
0.0104559
0.0113593
1.20883e-08
0.000527146
0.000427674
0.000355986
0.000419771
0.000637651
0.139
0.000273188
0.00289641
0.000398953
0.00307738
0.00201971
0.00221777
4.54694e-10
0.478516
0.0315017
0.184474
0.147409
0.00216041
2.02002e-09
0.00651452
0.00125151
2.84042e-05
0.000761567
0.0855723
9.10756e-10
0.00178767
6.98746e-05
0.000207827
0.0166686
4.76475e-05
0.00854029
5.34271e-05
6.49053e-05
0.00164975
0.000625401
0.00114001
0.0129673
2.9374e-05
0.00244013
0.00138424
0.018035
4.94579e-09
0.000502803
0.00149893
0.0152412
0.00164912
0.000166138
0.00226555
0.0313497
0.000499579
0.000196702
3.08343e-05
0.00148122
0.00177413
0.00303344
1.46944e-08
2.94501e-05
2.45963e-05
0.000298093
0.00380858
0.00135492
8.21827e-08
0.00269344
8.45715e-10
0.0107245
0.00108923
0.000804579
0.00191835
0.00175529
0.00954115
0.000579388
0.0137747
0.000305873
0.000423308
1.16981e-09
0.000378709
0.000405407
0.000581335
0.00196192
5.01607e-07
0.00163194
0.0094737
0.00173767
0.000460547
0.0189029
0.00225163
0.00130985
0.0145285
0.00750993
0.0122518
0.0131054
0.00624568
1.64017e-07
0.324351
0.0622337
0.000812074
0.000573403
0.014756
0.000911545
0.0242239
0.000102123
0.000403272
0.0143277
5.66892e-06
0.00678414
0.00061468
0.000131994
0.00757154
1.66151e-05
0.0312544
0.356876
0.00114859
0.0576543
8.43319e-10
0.000256105
0.00435181
1.67052e-06
0.10298
0.0024421
0.00166378
0.000461788
2.47067e-09
0.00340035
0.00279616
5.07135e-10
0.000489113
0.0260798
0.000618778
5.76821e-05
0.0617902
5.11473e-07
0.00273738
7.66829e-11
0.000345784
0.00239947
0.000153136
1.19185e-09
0.00218515
1.11121e-08
0.00250989
0.000523971
1.87701e-09
7.87678e-08
0.0043877
0.00209943
0.00279714
5.44743e-10
0.00221523
0.000629279
0.00279785
5.06359e-05
0.0316408
4.58868e-08
5.71621e-05
2.75211e-09
0.00162686
0.0372237
5.05101e-09
2.80354e-07
0.000274718
0.00254569
0.000453089
0.00197294
0.296671
2.56822e-09
0.000231939
0.00232257
8.82828e-10
3.74603e-09
3.97926e-08
0.000176059
0.00050253
0.000849088
0.000529724
0.00010598
0.000197528
5.87046e-11
0.0114005
0.000221072
0.000394062
0.00148059
0.00394829
0.00385553
0.0445403
3.00388e-10
0.000172782
0.000123056
8.52925e-05
0.000107079
0.0027783
0.00062005
0.000514079
0.000120282
0.000348289
0.000381681
1.1135e-05
4.26977e-08
8.39651e-05
0.0226539
1.89128e-08
0.00848865
0.00012352
0.0155
0.00113901
0.000118653
4.68786e-05
0.0043242
2.81784e-05
0.00409229
0.0192921
0.00222067
6.13385e-05
2.55194e-05
0.000149612
0.000861862
0.000348912
0.00386233
0.0164335
7.17631e-05
0.0103911
4.64584e-06
0.878963
0.441283
0.00010892
0.0414543
9.76244e-05
0.000391313
0.00939452
1.03345e-05
0.601126
0.0441649
0.00754888
0.000623141
0.0283262
0.393645
0.00291617
0.0249912
0.00436542
0.00222444
0.126445
0.0438399
0.000577419
0.000949899
0.0260197
0.0486566
0.00413744
0.000309483
0.0329316
0.000205894
0.0141211
1.09361e-08
1.1156e-05
0.00661038
0.000213973
0.00421595
0.00392799
0.000125288
0.000130061
0.000295546
1.08789e-09
0.00781388
0.00606175
2.83043e-09
0.000442559
0.00171325
0.00222389
0.00404535
0.000384425
0.0115737
0.0631213
4.5955e-07
0.0332121
0.000139815
0.00431248
0.000144078
0.00223954
0.0302863
0.00413548
0.000222459
0.0272087
0.000305787
7.62147e-05
0.000365951
0.000259138
0.000626648
0.00756277
0.0257972
0.0147332
0.00738519
0.00548238
0.00105242
0.000132963
8.06862e-05
0.00013642
0.00413614
2.82972e-06
0.00482147
3.5076e-07
3.56504e-06
0.00159404
0.00144804
0.00175697
5.68164e-05
0.0103908
0.00187364
2.21138e-06
0.00340388
0.000276056
0.00180009
0.000459345
0.00680128
0.00231248
0.00508758
0.000439901
0.00635425
0.00228999
4.34857e-05
0.00238882
0.00312707
0.00180938
0.00153613
4.41916e-09
4.71861e-05
8.89056e-05
0.0346483
0.00179681
0.00703128
0.00183974
0.000176736
0.00334494
0.0083814
0.00228107
0.00250676
0.00361989
1.24358e-06
0.00165489
0.00189313
0.000365501
4.19308e-05
0.00300259
0.00262027
0.00798762
0.0288824
0.00167206
8.11896e-05
0.00300736
0.000330031
0.00425404
7.56058e-05
0.00615884
0.000348386
0.00278404
2.84794e-05
0.00073266
0.000930148
0.00721395
6.16148e-05
0.0199506
0.00615352
0.000237837
0.00138997
0.00158917
0.000252626
2.91596e-05
0.00248574
0.0218936
3.37273e-06
0.0377896
0.00208469
7.22093e-08
0.000109063
0.0018856
1.01868e-05
0.000870018
0.013782
0.0230795
0.00208747
0.0117846
0.00155159
7.64373e-05
0.0044003
0.0145523
0.000447278
0.00157784
2.48682e-05
0.0829373
0.0419083
0.000104688
0.00240768
0.00149692
7.77752e-06
0.000113686
0.033758
0.00857434
0.0158648
3.87494e-05
0.00100552
2.859e-05
0.0192796
2.49144e-09
0.00338176
2.54026e-05
0.00104657
0.0202102
7.42566e-05
0.000399098
0.00433181
0.001475
0.00257612
0.0015554
0.0234356
0.000228405
0.00201342
0.0199801
2.0536e-05
0.000410057
0.000434446
0.000365734
0.00236942
0.0134348
0.000465851
2.30298e-08
5.24046e-05
0.00141091
1.45999e-06
5.66638e-06
2.08928e-05
2.55191e-09
2.63882e-05
3.65758e-05
0.0116992
0.00500146
0.000370646
0.00046046
0.000295605
0.0622773
3.79196e-05
5.00418e-09
0.0180732
0.00279692
0.0018603
0.0033166
0.000518469
1.493e-07
0.018441
0.00216678
0.0229647
0.00077463
0.0496112
0.0141813
0.000125516
0.0257184
0.00326294
0.0895428
0.00748642
5.62303e-09
3.5616e-05
0.256114
0.00673282
0.000995791
0.00309974
0.000162005
0.00331705
0.0308674
0.0108653
0.00292437
0.144345
0.00634952
1.35943e-09
0.0178341
0.063933
0.0347403
0.00132725
0.00256379
0.000211216
0.00282861
0.000673068
0.0189811
0.019723
0.000894214
0.0522076
0.0229757
0.00062355
0.00253888
0.0136683
0.00324664
0.000702155
0.0504158
0.00261319
0.000110894
0.0108503
0.0108149
0.0217849
0.00258702
0.000270629
0.00280727
0.0163087
0.000358091
9.40508e-05
0.1732
0.00333891
0.00122815
0.00159605
4.64916e-05
0.00435105
2.641e-09
0.0185903
0.00253516
0.014083
3.28613e-05
0.00553631
1.12412e-08
0.0164585
0.000301428
0.000118538
0.00867584
0.00244252
0.00664895
0.00772376
0.00207111
0.0158272
0.000134352
0.0156244
0.00667958
0.00925101
0.0563608
0.00557458
0.0290637
0.0344768
0.0170121
0.00114064
0.00453339
0.00265296
0.00098619
0.000917774
0.00397792
0.00222348
0.00064606
8.96391e-06
3.3146e-05
0.00237297
0.00133953
0.00127988
0.0535774
0.00325112
0.0026989
0.000110323
2.3677e-05
0.000451701
8.87687e-06
0.00258695
0.0298121
0.0025399
0.00192672
5.23981e-05
0.0170484
0.0025511
3.28776e-05
1.90587e-06
0.00021662
0.034752
0.00668613
0.000516307
0.00230368
0.00447468
0.000219511
8.82358e-05
0.00487903
0.000429641
1.54642e-05
8.4758e-05
2.55548e-05
0.00187293
0.00221629
0.00104374
0.00862597
0.102753
0.000244808
1.8175e-05
0.00356754
0.000327818
0.0111088
0.0024112
5.34997e-05
5.16339e-05
0.00319882
4.84788e-05
0.0101082
0.072475
0.0453507
0.000172117
0.00052443
8.87848e-06
0.000115238
0.00263445
0.00392912
0.000450984
0.00273392
0.0142812
0.00194371
0.00027698
0.00230974
0.000431227
0.0297953
9.26679e-07
3.69983e-08
0.0109925
0.0023437
0.00056513
0.00463964
0.000613552
0.00010621
0.000513469
0.00247769
0.0226947
4.00566e-05
0.000114396
0.000300527
0.00702303
7.85319e-05
0.000696749
0.000108665
0.00128452
0.00964061
3.65058e-05
0.0285811
1.03001e-09
5.10443e-05
0.00237121
7.53789e-05
0.000338633
0.00345657
0.00119082
0.00237159
9.32232e-06
0.00181095
3.64812e-05
7.58211e-05
0.00226728
0.00330825
0.00329093
0.301033
0.00173053
0.000952651
0.00223773
0.00295715
0.000284008
0.000246688
0.00372386
0.00215483
0.00309181
7.0489e-05
0.000904558
0.0139913
0.00279154
0.111963
0.000864914
0.0101557
0.0102791
0.0124349
0.00126124
3.17986e-05
8.02182e-05
9.51153e-05
0.000101414
5.0813e-09
0.000257532
0.0116736
3.14813e-11
3.35486e-09
0.00375476
2.30201e-05
3.23123e-05
0.0149223
0.0019244
0.00290905
0.00190825
0.00227818
5.0685e-05
0.0015923
4.24243e-05
0.0242004
0.0134451
0.010153
0.00191534
0.000139856
0.00158517
0.000292815
5.83469e-06
4.18077e-05
1.41465e-07
0.00168954
0.0110622
0.00695375
0.00145642
0.0017917
0.00219807
0.0023246
0.0017668
0.000342248
0.00412136
8.4096e-06
4.07695e-05
7.608e-09
5.03422e-05
0.0027685
6.73741e-05
0.000334422
0.00227712
5.32463e-05
9.99533e-05
7.14501e-06
3.1551e-06
0.0532608
0.00048882
0.000677468
3.62523e-05
0.00284264
0.00221227
0.00185484
0.0034371
3.8769e-05
7.5267e-07
0.00105424
2.76304e-05
0.0194757
0.00321237
0.0241907
0.0015926
0.0511981
0.000105079
0.00110642
0.00023631
4.18238e-08
0.003737
7.59258e-05
0.00133678
0.000103873
0.00221769
0.0193045
0.00166096
0.00232909
0.00879702
0.00239371
0.0108224
0.00359194
0.00163504
0.000932871
0.00503344
0.0296521
0.000303095
5.10387e-10
0.0632891
0.00891654
0.00650896
4.23915e-05
0.0651982
0.00193558
0.0151025
3.2349e-05
0.0172277
0.00325413
0.00136152
0.00237176
0.00235335
5.4961e-06
0.0404023
0.0144668
0.0145804
0.00303731
0.00232156
0.00159467
0.00321601
0.000926111
0.000103796
0.00160695
0.00303411
3.75968e-07
0.000130614
0.00169066
0.0362747
0.00308269
0.000347501
9.57708e-08
0.000406818
0.00169297
0.000456674
0.00151512
0.000732313
1.45852e-06
0.0140906
0.00025199
0.000667472
0.00205972
0.00125283
0.000129816
7.50813e-05
0.000176204
0.00205077
0.00284489
1.34941e-05
0.000108593
0.000672266
0.000103258
1.17908e-06
0.0167175
0.000217677
0.00328893
0.00152992
0.00150489
0.00211215
0.00695162
0.00425396
0.000591709
0.00398121
7.16048e-05
0.00228171
0.00434604
9.4832e-06
0.00747806
0.000392004
0.0029658
0.00187016
0.0999815
5.44924e-05
0.00019343
0.000518553
3.77747e-05
0.00137833
0.00287016
0.000199395
1.63009e-05
0.00137747
0.00539564
0.000582711
0.00287226
1.10472e-06
0.000466294
0.00953181
0.00241578
0.000140949
0.00214472
2.48116e-05
0.00419861
0.00338214
2.16745e-05
0.000292396
0.00352903
0.000101443
8.52319e-07
0.000344637
0.000199323
0.120294
7.00214e-06
0.000564742
0.00323551
0.000105701
0.0118047
8.4246e-06
0.00274239
0.0001212
7.96281e-05
0.000524173
1.85575e-05
0.000206315
0.00295154
3.8674e-06
0.000108807
0.000122773
0.0184898
0.00060195
0.000357441
0.000357117
0.00217768
4.4825e-05
0.00311718
0.00454927
3.06994e-05
0.000360669
3.0029e-06
0.00116743
1.47646e-05
0.0124864
0.000291174
0.00152613
0.00218912
0.000127096
0.084547
0.000379056
0.00306163
0.00110991
4.82691e-08
0.00236883
0.00498811
0.0267203
0.0112329
0.000410462
3.07946e-05
0.0378256
0.0398736
0.000563893
0.0179737
0.00843044
0.000393535
0.000129973
0.000636476
0.000341711
0.000317588
0.000460462
0.00432231
1.50914e-05
0.000162708
2.69243e-05
5.76878e-05
0.00603435
7.73984e-05
0.00247016
3.92101e-05
1.38504e-08
0.00019309
1.21993e-07
1.66196e-09
1.00273
0.00018415
0.0193981
0.00305765
1.10718e-05
0.00029709
0.0177005
0.00188658
1.99321e-05
0.00238244
0.00566491
3.70339e-08
5.41139e-06
0.000396622
1.69734e-05
0.00222866
0.000555038
0.00247818
0.00486898
6.05133e-06
7.04252e-05
0.0197293
0.00283529
0.00306162
0.000394486
0.0035564
9.62517e-05
9.47799e-05
0.00237166
0.00931404
0.0126439
0.00603737
0.000757224
0.000178342
0.00252825
0.00190874
0.00202363
0.0026691
0.00022904
0.000310675
0.00366789
0.00169073
0.00333001
0.00270886
0.000751784
0.004644
1.07993e-09
1.47197e-09
0.0227261
1.10963e-05
0.000907969
0.00209607
0.00329925
0.00981654
0.00385227
8.86811e-05
0.00711725
0.00316014
0.000125204
0.00326509
4.38288e-06
1.27105e-05
1.75461e-05
0.00361203
0.0129631
4.63661e-08
0.00604103
0.00159141
0.151088
0.000168279
0.00373275
3.06434e-05
0.0121108
1.14573e-05
8.48847e-05
2.58362e-05
0.0221592
1.20282e-05
0.00275017
0.00260808
0.00311649
0.00673911
0.00215737
0.00220268
0.0168449
0.006876
5.47825e-05
3.78662e-05
0.0123004
0.000135977
4.45225e-05
0.00189905
0.00359497
0.00188983
2.10426e-05
0.000111635
0.00467295
0.00326782
0.00206841
2.78744e-05
0.00320012
0.00189306
0.000624959
7.5693e-05
2.52651e-06
0.0026973
0.0186601
0.00284615
0.0015571
0.00707764
0.000490931
0.0313839
0.00131862
0.00746265
0.000251005
1.0443e-05
0.000236059
2.75285e-05
0.000446986
5.95002e-06
2.70259e-08
0.00365555
0.000153725
0.0373465
0.000767347
0.00784625
0.0021405
0.00742058
0.00331314
0.0149141
0.0174523
0.00141256
0.00973904
1.05416e-05
0.000373808
0.00130014
0.00182435
0.000217968
0.00404259
6.18482e-05
0.00307686
0.000101433
0.00264051
2.10839e-05
0.00265545
0.00133714
0.000427402
0.0266253
0.000161573
0.0013057
3.3925e-05
3.10848e-05
0.000138673
0.00542098
0.00245772
0.00202129
3.44385e-05
0.00159701
0.00312674
0.000252612
0.0156461
0.0132184
6.20835e-09
0.000208764
0.00174099
0.000100167
0.000287146
0.000471775
0.000451117
2.38228e-05
0.00320159
0.000451528
0.00529913
0.000526666
0.00115885
0.000542571
0.00837884
0.00526355
0.00878518
2.06957e-05
0.053982
0.02195
0.0970022
0.00186407
0.000146065
3.69997e-05
0.00030003
0.00673993
0.0101001
0.0302173
0.0246782
9.19748e-06
1.5729e-05
0.00775844
0.000401168
0.0174327
0.301329
0.0176203
0.000345956
0.000448378
0.0159491
0.00162614
0.000243112
0.00072479
0.163111
1.37244
6.94395e-05
1.05945e-06
6.38752e-05
0.00484825
0.00104689
0.00185396
0.00269129
0.00197183
0.00439057
0.000882236
0.00222052
3.10985e-05
0.00255974
0.00263988
0.00256384
0.000442316
2.80441e-05
9.08223e-07
0.00470088
0.0145955
0.00403337
0.0024935
1.09073e-05
0.00159757
0.00132268
6.59984e-05
3.00556e-05
0.00872888
5.20569e-09
0.0313096
0.00010643
0.0486532
0.014968
0.000248533
0.00495597
1.00759e-05
0.00237401
0.000137218
0.000871456
0.0836873
1.12639e-05
3.10998e-08
8.27148e-06
0.00388112
0.00341666
0.00151372
0.00100339
0.000976864
0.00126183
0.00104017
0.00182124
6.38341e-05
0.0680724
0.0265381
0.00284979
0.0015049
0.00287788
0.0668549
0.01203
0.00410721
0.000287051
0.00726195
0.00268368
8.18594e-05
5.18957e-05
0.00481879
0.00681536
0.0172563
0.00522019
5.8725e-05
0.00455942
0.0374319
0.0243468
0.00323966
7.66185e-05
2.90377e-05
0.0397681
0.00156765
0.0102422
0.000417407