/*--------------------------------*- C++ -*----------------------------------*\
  =========                 |
  \\      /  F ield         | OpenFOAM: The Open Source CFD Toolbox
   \\    /   O peration     | Website:  https://openfoam.org
    \\  /    A nd           | Version:  10
     \\/     M anipulation  |
\*---------------------------------------------------------------------------*/
FoamFile
{
    format      ascii;
    class       surfaceScalarField;
    location    "6.1";
    object      phi;
}
// * * * * * * * * * * * * * * * * * * * * * * * * * * * * * * * * * * * * * //

dimensions      [0 3 -1 0 0 0 0];

internalField   nonuniform List<scalar> 
214403
(
-0.00671024
0.00514518
0.000284569
0.00128049
-0.00331258
-0.0111362
0.000946352
0.0135025
-0.0101706
6.76301e-05
-0.000138316
0.0102413
0.00883144
-0.00593785
-0.014803
0.0119095
0.0121972
-0.0154221
0.00367331
-0.000448373
-0.0053337
0.00555538
-5.4008e-05
-0.000167665
-0.000847482
-0.00160903
-0.00915647
0.011613
-0.01688
0.00960632
-0.0025363
0.00980993
-0.0231319
0.0163286
0.0164794
-0.00967613
0.0140949
0.00167321
-0.0157523
-1.58684e-05
0.00500069
-0.00990613
0.00203761
0.00286783
-0.0102672
0.00322904
0.00532112
0.00171709
0.000472779
-0.0113634
0.0136853
-0.00279464
-0.00987495
0.00993779
-6.28382e-05
0.0019041
0.0118464
-0.015185
0.00143456
-0.0119674
0.0100055
0.00303086
-0.001069
-0.0120411
0.0117474
0.000293719
0.00390266
-1.9236e-05
-0.000975148
-0.00290828
0.0155716
-0.00931922
-0.0207048
0.0144524
-7.5486e-05
-0.00309255
9.07632e-05
0.00307727
0.00637821
-0.00622891
-0.000149307
-0.0122438
-0.00423565
0.00421159
0.0122679
-0.00226618
0.0135436
-0.0109198
-0.000357682
0.00667965
0.000701321
0.00233001
-0.00971098
-0.0101743
-0.00488836
0.0131706
0.001892
0.00916214
-0.0116044
6.89325e-05
0.00237329
0.00320474
-0.00280505
0.0105009
-0.0109006
0.00758893
0.00992689
-0.0119576
-0.00555817
0.0110988
-0.00696119
-0.00031581
-0.00382177
-0.00584201
0.00595469
-0.000112677
0.00242172
-0.00504265
0.0134505
-0.0108296
0.0140327
0.000665285
-0.00244829
-0.0122497
-0.00560345
-0.00575067
0.0058892
0.00546493
-0.00118942
-0.00670846
0.00594271
0.00195517
0.00438397
-0.00301571
-0.00934358
0.00797532
-0.00169762
0.00846877
-0.00305953
-0.00371162
0.0159271
-0.0003906
-0.0155365
-0.00685273
0.0133632
-0.00651046
0.00123244
-0.0146608
0.00849186
0.00493649
0.00244003
-0.000980599
0.00597103
-0.00743046
0.00566167
-5.97514e-05
-0.00560192
0.0101755
-0.000219376
0.00180371
-0.0117598
-0.0129083
0.00162185
0.0137264
0.000857707
0.000878313
0.00856898
-0.010305
-0.0040916
-0.0267174
0.0259136
0.00489544
0.00568565
0.00102654
0.00128534
-0.00799753
0.00421249
0.00318543
-0.0102892
0.00289131
0.0132733
0.00795411
-0.0145477
0.0012011
0.0112624
-0.00228799
0.00181274
-0.0067891
-0.00399634
0.0089727
0.00309002
0.00474979
0.00141483
-0.00925464
0.00183879
-0.00138103
-0.00425001
0.00379224
0.00684182
-0.0123839
0.00863207
0.011827
-0.0111354
-0.00381974
0.0031281
0.0105935
-0.00193896
-0.00854
0.011578
-0.000491351
-0.00254662
0.00879398
-0.0112453
0.000129655
0.00232163
-0.0082244
0.000543712
0.0131424
-0.00546173
-0.0152325
-0.0143194
0.0120234
0.0175285
-0.00814351
0.00819453
0.00161119
-0.00166221
0.00128552
-0.0104096
-0.0085395
-0.000177819
0.00443909
0.00427824
-0.0133322
0.00572465
0.0086256
-0.00101809
0.0156413
-0.0125971
0.000801665
-0.00384585
0.000718105
0.000262565
-0.0102814
0.00930071
0.000517199
-0.0028364
0.0140271
-0.0117079
-0.0346568
0.00361981
0.00386376
0.0271732
-0.00319396
0.00940382
-0.00297783
-0.00323204
0.00462373
-0.00243391
-0.00986562
0.0076758
0.00110916
0.00690077
-0.0087711
0.00076117
-0.000170944
0.00845321
0.00294002
-0.0112223
-0.00167897
-0.000266243
-0.0034971
0.00544232
-0.00897347
0.00980671
-0.000371384
-0.000461859
0.000313827
-0.00902226
-0.00633921
0.00561497
0.0017043
-0.000980051
-0.0168103
-0.00106173
0.00820301
0.00966904
-0.00508023
-0.00216453
0.00432178
0.00292299
0.00747747
-0.0250749
0.00347591
0.0141216
-0.00390217
0.00785304
-0.0042891
0.000338231
0.00559868
-0.00434697
0.000553654
-0.00180536
0.000128709
-0.0105431
0.0104144
3.36405e-05
0.00855695
-0.00859059
0.00753632
-0.00147373
0.000998409
-0.007061
-0.00452868
0.0064614
0.00214154
-0.00407427
-0.00318866
0.0135853
-0.00326599
-0.00713067
0.00641862
-0.0109389
-0.000415858
0.00493613
0.00733104
0.00774775
-0.0150788
0.0108219
-0.012162
0.00311604
-0.00177595
0.00105199
-0.00195202
0.0141273
-0.0132273
0.00040937
-0.00228427
0.0101733
-0.00829837
0.00241485
0.0212841
0.00613285
-0.0298319
-0.0186165
0.0163776
0.0106185
-0.00837965
0.000854826
0.0065611
-0.00882164
0.00140571
0.00868458
0.00965503
-0.00316084
-0.0151788
0.0161396
-0.00980372
-0.000322069
-0.0060138
0.000706627
-0.00207101
-0.00650346
0.00786784
-0.00658185
3.73683e-05
0.00654448
0.00980661
0.000338728
0.000676557
0.0121916
0.00102934
-0.0185448
0.00532383
-0.00977515
0.00215729
0.00173769
0.00588017
-0.00621074
0.00154002
0.000763517
0.0039072
0.00151938
0.00108677
-0.0128906
0.0102844
-0.00263921
-0.01536
0.00979285
0.00820636
0.00616523
-0.00729342
-0.00475267
0.00588086
0.00996313
-0.000106836
-0.00996319
0.000106894
0.00761872
-0.0107678
-0.00373428
0.00688335
0.0197194
-0.00596695
-0.00307279
-0.0106796
0.0111966
-1.91333e-05
-0.0102969
-0.000880616
-0.00564735
0.00664981
0.0138577
-0.0148602
0.0121046
-0.00425016
-0.0116414
0.00378699
0.00223092
-0.0032558
0.0141715
-0.0131467
-0.015988
0.0145718
0.0138136
-0.0123973
0.000720377
-0.0124565
0.00480711
0.00692901
0.0155913
-0.000822258
-0.000319488
-0.0144495
0.01101
-0.00214551
0.0021289
-0.0109934
-0.0127536
-0.0115993
0.0137281
0.0106248
-0.00242119
0.00694608
0.0018825
-0.0064074
-0.0054363
0.000296355
0.0105366
-0.00539663
-0.00121417
0.0136842
-0.0127367
0.000266677
-0.0118225
0.0109795
0.00213708
-0.00129408
-0.000397139
-0.00689813
0.0164574
0.00217728
-0.00725004
-0.0053013
0.0103741
-0.0057535
7.54398e-05
0.00567806
0.00176404
0.00802168
-0.00742038
-0.00236533
0.0128162
-0.00739019
-0.00196445
-0.00346159
9.05227e-05
-0.00378892
0.00369839
-0.00721512
-0.0019453
0.00271192
0.0064485
0.000745379
0.00410333
-0.00920613
0.00435742
0.0157188
-0.00141978
0.00614325
-0.0204423
0.00112496
-0.00139211
-0.0190027
0.0192699
0.00122495
-0.00544135
-0.00719075
0.0114071
0.000460183
0.00989895
-0.000552527
3.97775e-05
-0.00583421
0.00579443
0.0120375
-0.00446602
-0.00539421
-0.0072976
0.00609373
-0.00601125
0.0133036
-0.011072
-0.00134217
-0.000889392
0.00133084
-0.0062935
0.00275167
0.002211
-0.0108549
-0.00328811
0.00220695
0.011936
0.00903726
-0.0146854
0.00967504
-0.00402686
-0.000404223
0.0132645
-0.013282
0.000421743
-4.14543e-05
0.0120937
-0.0119824
-6.98208e-05
-0.016876
0.013468
-0.0108107
0.0142187
0.0140814
-0.0136276
-0.000453785
-0.0129101
0.0172889
-0.00315822
-0.00122059
-0.0115337
0.0027745
-0.000870215
0.00962937
-0.0190067
0.00146381
0.0122201
0.00532278
0.00337012
-0.00460247
0.00256318
-0.00466478
0.0053039
0.00853214
-0.00917126
-0.00504535
-0.00226428
0.00288726
0.00442237
-0.00685091
0.00447838
-0.00864589
0.0110184
0.00205797
0.000166759
-0.0151348
-0.00675998
0.00674568
1.42964e-05
0.00737019
-0.00708637
-0.000283828
-0.0111366
-0.000728253
-0.0029642
0.00274561
-0.0146589
0.0170687
-0.0051554
0.00660184
0.0113597
-0.0144469
-0.00351463
0.0126123
-0.0136985
0.00036732
0.000718865
0.00672794
0.00174726
-0.00695311
-0.0015221
-0.0106189
-0.000589584
0.0139541
0.00612466
-0.00044274
-0.00746625
0.00178432
0.0069006
-0.00590925
0.00680724
-0.00779859
-0.0120085
0.00225578
0.0163546
-0.00405775
-0.00568859
0.0187896
-0.00904325
-0.00578835
-0.00637685
0.0015463
0.00172375
0.00458
-0.0120921
-0.00819255
-0.000723346
0.0131652
-0.00424926
0.00127695
0.00201624
0.00731724
-0.0106104
-0.0038931
0.00952939
-0.00563629
0.00308801
-0.0148203
0.00535543
0.00882919
0.00616768
-0.0132731
-0.012465
0.000150451
0.0155321
-0.00321761
0.00211695
0.0018136
0.00566617
-0.00959672
0.00841357
-0.00847801
6.44367e-05
0.00315542
-0.00119145
0.0105919
-0.0125559
0.0111184
-0.00352514
0.00534617
-0.0129395
0.0204601
-0.00658876
0.0152701
-0.0291414
0.00333718
0.00621047
-0.00257995
-0.0069677
-0.00926837
0.00381381
0.00485823
0.000596325
0.00664103
-0.00500301
-0.000137134
-0.00150089
-0.00429023
-0.00543707
0.0158365
-0.00610922
-0.00744028
0.00965877
0.0038511
-0.0060696
0.0112034
-0.000612583
-0.00369023
-0.0173702
0.0114852
-0.000965969
-0.0165637
0.0152825
0.00709838
-0.00581727
0.0105685
-0.0119103
-0.00172007
0.00306189
0.00596168
-0.0107725
-0.00564235
-0.00614883
-0.00564131
0.00318854
0.0086016
-0.00877707
0.00272525
0.00866444
-0.00261262
0.0101524
-0.00965727
-0.00665148
0.00615637
6.29864e-05
-8.88119e-05
-0.00953595
0.00956177
0.000230022
-0.00835951
-0.000317228
0.00844672
-0.00241219
-0.0142965
0.00224591
-0.00826573
0.00743486
-0.00141504
-0.00561293
-0.0023645
-0.000799639
-0.000186736
0.0140836
0.000198065
-0.0336379
0.0236626
0.0171033
-0.00712801
-0.00994655
0.000677189
0.000361899
0.00890746
-0.0019727
0.0315084
-0.0370845
0.00754882
0.00157504
0.00242942
-0.00545172
0.00144726
-0.0212872
0.0114696
0.00148306
0.00833458
-0.000251362
-0.0141298
-0.00201224
0.0163934
-0.0058696
0.0212837
-0.0147241
-0.000690001
0.00955591
0.0138921
-0.0128407
-0.0106073
-0.011404
0.0108617
0.0134895
-0.0129472
0.00443134
0.00619205
-0.00771269
-0.0029107
0.00440157
-0.00296795
-0.00704655
-0.0226563
-0.000882467
0.0185068
0.00503195
0.00666542
0.00102125
-0.00387286
0.00683683
0.00915241
-0.00845062
-0.00753862
-0.0113147
0.00252062
0.0110372
-0.0022431
0.00134343
0.00355646
0.012389
-0.013133
0.0129669
0.00125756
-0.00109148
0.00813449
0.00638252
-0.00575035
-0.000227446
-0.00161833
0.00759613
-0.00868025
-0.00172751
0.00482774
-0.0167121
0.00710964
0.00477471
0.00050908
0.00902887
-0.0100179
0.000479994
-0.00346983
0.000671301
-0.00322612
0.00602465
0.0139711
-0.00998622
0.000416725
-0.00791465
-0.0061915
0.00832874
0.00577741
0.0299076
-0.0319944
0.010452
-0.0083652
-0.0057553
0.00715129
0.00288066
-0.00427665
-0.0131406
0.00571009
0.0114548
-0.0040243
-0.00568899
0.00825887
0.010624
-0.0131939
0.015938
-0.00615814
-0.0105481
0.000768272
0.000276847
-0.00387074
0.00941604
-0.00582215
-0.00163654
0.00162235
-0.0124508
0.0114583
0.00372174
-0.0122666
-0.00291345
0.0143937
-0.0118081
-0.00317522
0.00301692
0.00446006
-0.0105579
0.00308095
-0.00592975
-0.0108601
0.00965068
0.00713917
-0.00180576
-0.00468798
-0.00142091
0.00587802
-0.00627928
0.0135318
-0.0131305
0.00142405
-0.0163874
0.0149633
0.00556256
-0.00728114
0.0047355
0.00303579
0.00175077
0.00248958
-0.00727614
-0.000309284
-0.0136572
0.0139665
-0.00747025
0.000992426
-0.00242409
0.00890192
-0.000895594
0.0103502
-0.00943213
-2.24479e-05
-0.00702328
-0.0037179
0.00405575
0.00668543
-0.00261804
-0.006211
-0.0057672
-0.00847719
0.0070707
0.00717368
0.000311765
-0.008697
0.0149608
-0.00615133
-0.000796574
-0.0080129
0.00796519
-0.000762813
-0.00581076
-0.00139162
-0.00129164
0.0111977
-0.0139537
0.0040476
0.00721219
0.000277366
0.00351101
-0.0110006
-0.000264511
-0.00592872
0.00286445
0.00332878
-0.00411631
0.00535527
0.0103475
-0.0115864
-0.014564
-0.00376482
-0.00406557
0.0133929
-0.0124748
0.00029364
0.00390727
0.00827385
0.00120445
-0.00442106
-0.00786051
0.0110771
-0.00572757
-0.0111809
0.00282139
0.0140871
-0.00520246
-0.00577321
0.00600253
0.00497314
-0.013486
0.0129814
0.0137012
-0.0131965
-0.00183243
-0.0032015
-0.00963839
0.0146723
-0.0131959
0.00133392
0.0134308
-0.00156882
-0.00229926
0.00615104
-0.00385178
-0.00534519
0.00988024
-0.00743788
0.00290283
-0.000228263
0.0176985
-0.00657483
-0.0108954
-0.00634025
-0.00306185
0.0127142
-0.00331206
0.00204233
-0.00535668
0.0121564
-0.008842
0.000558414
0.00791858
-0.00138726
-4.59958e-05
-0.0129444
0.012938
5.24206e-05
0.0148132
-0.00262353
-0.0216513
0.00946157
-0.0136804
-0.0013406
0.0170811
-0.00206012
-0.00742459
0.0112172
0.000920807
-0.0047134
0.00661114
-0.00653052
-8.06114e-05
-0.00788987
0.0007628
-0.00680762
0.0139347
-0.0113841
0.0156894
-0.00327203
-0.00103325
0.00709484
-0.0029753
-0.00855514
0.00443559
-0.013709
0.0138294
-0.000120346
0.0112981
-0.0164288
0.00132809
0.00380259
-0.012797
-0.00350338
0.0218843
-0.00558393
0.00944617
-0.000395096
-0.00198378
-0.00706729
-0.00538237
-0.00913018
0.0203906
-0.000959206
-0.013471
0.00815089
0.0211591
-0.0236028
-0.00224239
0.00468614
0.00569176
0.00271293
-0.00628774
-0.00596427
0.00621778
-0.000253506
-0.00242218
0.0135349
-0.000860245
-0.0102525
-0.00294959
0.00349877
0.0117638
-0.012313
0.00768627
0.0180484
-0.0105566
-0.0151781
0.013224
-0.0158661
0.0050444
-0.00240225
0.0119885
0.000167519
-0.012156
0.00022193
0.0116687
-0.0118906
0.0131558
-0.0159248
0.0140672
0.000141787
-0.000120063
0.0102543
-0.010276
0.000267396
0.0186586
-0.0185931
-0.000332895
-0.00159361
-0.00471222
-0.00953943
0.0158453
-0.00583655
-0.00349743
0.00117154
0.0110479
-0.0192202
0.00700081
-0.00930021
-0.00243864
0.00997126
0.00176758
-0.0110117
0.0121588
-0.00324778
0.00210071
0.0017308
0.00901493
-0.00306708
-0.00767865
-0.00436217
0.00107983
0.00740979
-0.00412745
-1.25542e-05
0.00336392
-0.00422463
0.000873266
-0.00468753
0.0114697
-0.00661295
-0.000169252
0.00342619
-0.0108174
-0.00631782
7.64229e-05
-0.010087
0.0100106
-0.00375602
-0.00360417
0.00167133
0.00568886
0.00562718
-0.00324631
-0.00238087
0.014106
-0.014007
-0.00286025
0.00276122
-0.00128273
-0.00834491
0.00769592
0.00193172
-3.52419e-05
4.74282e-05
0.00758275
-0.00759494
0.00378293
-0.00310909
-0.0120361
0.0113622
0.00873055
-0.000219533
-0.00851102
-0.012741
-0.00825076
0.0122949
0.00869685
0.00746272
0.0116912
-0.0201131
0.00708648
-0.00255123
0.00399181
-0.00852707
-0.00284003
0.00281774
-0.0156353
0.0156576
0.00442308
-0.00871125
-0.00847179
0.01276
-0.000892324
-0.00199801
0.00941528
-0.00652495
0.00656404
-0.00806719
0.00292325
-0.0014201
0.00360922
-0.0059828
-0.00578299
0.00815657
-0.0116055
0.0130662
-0.00347761
0.00201693
0.0132347
0.0170196
-0.0187461
-0.0115082
-0.0102261
0.0101819
4.4199e-05
-0.00114603
0.0120789
-0.0150862
0.00415328
0.000467785
-0.000764641
-0.0116145
0.0119114
0.0113852
0.000478417
-0.0131019
0.00123829
-0.00488285
-0.00825385
0.0103794
0.00275727
-0.0117994
0.0167177
-0.00591942
0.00100115
-0.00484193
-0.0059238
0.00351568
-0.00072102
-0.000123105
-0.00835402
0.00919814
-0.0272907
0.000107005
0.00244234
0.0247414
0.00107792
-0.00692602
-0.00358486
0.00943295
0.0170459
-0.00140108
-0.00551802
-0.0101268
-0.00302615
-0.0065504
0.00126782
0.00830873
0.00480346
-1.74164e-05
-0.00478605
0.00801142
0.00426769
-0.00265796
-0.00962115
0.00620227
-0.00491161
0.0122339
-0.0135246
0.000400161
0.0127274
-0.004205
-0.0089226
0.00308961
0.00441073
0.00954557
-0.00608572
0.000437295
0.00564842
-0.00790896
0.00112173
0.00209716
0.00132593
-0.0109344
0.00751128
-0.0103643
0.0151655
0.0045944
0.0156643
-0.00331823
-0.0169405
-0.00995796
0.00977476
-0.0154698
0.015653
-0.00149141
-0.0074789
0.00261605
0.00635425
-0.00825817
0.0155892
0.00463513
-0.00539528
0.00120812
-0.000447966
-0.00511207
-0.0162962
0.00510176
0.0163065
0.010707
-0.0106853
-9.69589e-05
7.52412e-05
0.00865349
-0.010107
0.00215393
-0.000700447
0.00222171
0.00869201
-0.0154865
0.00457276
3.76884e-05
0.00745416
-0.00749184
0.00484008
-0.0124059
0.00978748
-0.00468311
0.0125727
0.0105902
-0.0184798
0.00357189
-0.00363931
-0.0169182
0.0169857
-0.00510065
0.00844987
-0.0169512
0.013602
-0.0121451
0.00967031
0.0126785
-0.0102037
-0.00759929
0.0104108
-0.0067265
0.00391495
-0.00160787
0.00700516
0.00114
-0.00653729
0.0035381
-0.00515892
0.0053201
-0.00369928
0.00669875
0.0024925
0.00220342
-0.0113947
0.0190291
-0.0129187
-0.000779464
-0.00533091
-8.75351e-06
-0.00922878
0.00923754
0.00578155
-0.00845427
-0.025924
0.0285967
-0.00116048
-0.0125654
-0.0038086
0.0175344
-0.000762356
-0.0057726
0.00653496
0.00176155
0.00835174
-0.00132092
-0.00879236
-0.00232879
-0.00840618
0.00678384
0.00395114
0.00652565
-0.00546555
-0.0095996
0.0166039
-0.0129243
0.00366529
0.00388292
-0.00754821
0.0125434
-0.000277236
-0.00149954
-0.0107667
-0.00241347
-0.00410511
0.00651858
0.00447486
0.00297341
0.0250681
-0.0301509
-0.0106478
0.0157306
0.00384374
0.00818883
-0.00626309
-0.00576947
-0.00877715
0.0167976
0.0111628
-0.0191833
0.00989489
0.00343473
-0.00132374
-0.0120059
0.0163371
-0.0108937
0.00702971
-0.0124731
-0.00917234
0.0041945
-0.0115006
0.0164784
-0.0149291
0.0267531
-0.0104852
-0.00133884
-0.000397847
-0.00637768
-0.00879133
0.0155669
0.0121196
0.00500937
-0.0142223
-0.00290669
0.00649249
-0.0173068
0.0109225
-0.000108252
-0.015292
-0.000580775
0.0100053
0.0058675
-0.003067
0.00793233
0.00344948
-0.00831481
-0.00194338
0.00779424
0.00627052
-0.0121214
-0.0159411
0.00819926
-0.000773834
0.00851573
0.00145499
-0.00433369
0.00861441
-0.00573571
0.00677091
-0.00340605
0.00241682
-0.00578168
0.00654397
0.00125858
0.000644442
-0.00844699
-0.00965671
0.0103587
0.00384003
-0.00454202
-0.00228958
0.0122566
0.000247806
-0.0102148
0.00988967
-0.00580637
-0.00383418
-0.000249114
0.00853793
6.44265e-05
-0.00860235
0.00624132
0.00483233
-0.00109597
-0.00997768
0.0029218
0.00770847
0.00659233
-0.0172226
-1.35659e-05
-0.0138542
0.0138678
-0.00722177
0.0279781
-0.00408783
-0.0166685
-0.000130167
0.0104273
-0.0102971
-0.000695612
-0.00750062
0.00134682
0.00684941
-0.0136094
0.00693378
0.00526795
0.00140763
0.00277901
0.00230972
-0.0159107
0.0108219
0.00811055
0.0128142
-0.00478878
-0.016136
0.0122429
-0.00419478
-0.011719
0.00367086
-0.0152991
0.00872527
0.0233274
-0.0167536
-3.94725e-05
0.00586888
-0.00586897
3.95652e-05
-0.00607104
0.00600781
6.32312e-05
-0.0155626
0.00024004
0.0065454
0.00173943
0.00375719
0.0102873
-0.015784
0.00810558
-0.00964084
0.00621824
-0.00468298
-0.00778264
0.006816
-0.000258531
0.00122517
-0.00162372
-0.0128118
0.0163918
-0.00195625
-0.00573216
0.00276041
0.00907529
-0.00610354
0.00992364
-0.00382525
0.00146324
-0.00756163
-0.00658032
-0.00114733
0.00770309
2.45589e-05
-0.00113425
-6.08719e-05
0.0107728
-0.00957764
0.00136858
-0.00115259
0.0107719
-0.0109879
-0.00969033
0.0135459
-0.0141961
0.0103405
6.38421e-05
-0.0122109
0.012147
-0.0043496
0.000380715
0.0109656
-0.00699672
-0.00833346
0.00974243
-0.0132867
0.0118778
-0.0085449
0.000648269
0.00259533
-0.00396206
0.010733
0.000597963
-0.00736886
-0.00285866
0.000397709
-0.00483665
-0.00422479
-0.0137236
0.0137863
0.00416211
-0.00611198
-0.000715225
-0.00153653
0.00836373
-0.0209487
0.00707842
0.00206806
0.0118022
-0.00661738
0.0151889
-0.00755643
-0.00101506
0.00462013
0.0018141
-0.00929289
0.00912214
0.00930261
-0.0184248
0.00123686
0.0199998
-0.00462729
-0.0166093
-0.000254824
-0.0003559
-0.00884415
0.00945488
-0.00960993
0.015829
-0.00638122
0.000162148
0.00911991
-0.00575757
-0.0082661
0.00490377
0.00228005
-0.000305774
0.002791
0.0140156
0.0039102
-0.0202657
0.00233997
-0.00971519
-0.00126412
0.00318465
0.00779466
0.00366958
-0.00407598
-0.0055174
0.0168884
-0.0113625
0.00883098
-0.0143569
-0.00186893
0.0109031
-0.018856
0.00982186
0.00654907
-0.00827709
-0.000838597
0.00256662
-0.00723488
-0.00251843
-0.000244869
0.00999818
-0.00540094
-0.00510691
0.0105078
0.00135812
-0.0144995
0.0128576
0.000283819
0.005558
-0.00535982
-0.00559912
-0.00905621
0.0114936
-0.00219156
-0.000245876
0.0129558
0.0035655
-0.0139583
-0.00256302
-0.00501134
-0.00731914
-0.000839518
0.01317
0.0082508
-0.00251037
0.00956751
-0.0153079
-0.00917639
-0.000513943
-0.0109863
0.00587935
0.00141268
-0.0122931
0.0039334
0.00694705
0.00358019
-0.0128198
0.00705955
0.00218008
0.00191582
0.000502973
-0.00961173
0.00719294
0.00146779
0.00628558
-0.000425821
0.0108215
-0.00213814
-0.00825752
-0.00424422
-0.000437451
-0.00396894
0.00865061
-0.00251239
-0.00338412
0.00647054
-0.000574027
-0.0100333
-0.000141023
-0.0169559
0.00608761
0.0089249
0.0241077
-0.000199862
0.00328863
-0.0271964
-0.0105524
0.0163937
0.00332489
-0.00916622
-0.00300731
0.0016477
0.0103778
-0.00901814
0.00125609
0.00356575
-0.00275853
-0.00206332
-0.0181335
-0.00374928
0.0156515
0.00623129
0.000397368
0.00766669
-0.0015384
0.000234921
0.00385647
-0.0121008
0.00800939
-0.00747766
-2.64086e-05
0.00275691
0.00474717
-0.0102801
0.0127044
-0.00202698
0.00580103
-0.00523093
-0.000570102
-0.00854961
0.00123046
-0.00664307
0.0139622
-0.0038678
0.00582038
-0.00448623
0.00253365
-0.00832631
0.00937731
-0.00387427
0.00282328
0.00374081
-0.000615371
-0.00885645
0.00573101
-0.00372372
0.0233417
-0.0314174
-0.00338242
-0.00236063
0.00231145
0.00343161
0.011073
-0.0172879
-0.000783071
0.00699797
-0.0046713
0.00348573
0.00600762
-0.00482205
-0.0013884
0.00738158
-0.00203413
-0.00395905
-0.0083043
0.00184242
0.00194109
0.0045208
-0.00464102
0.000398816
0.00424221
0.0106806
-0.00508597
-0.00541894
-0.000175696
0.000784714
0.00534539
-0.00811359
0.00198349
-0.00571824
-0.00693136
0.00706824
0.00558137
-0.00296503
0.00764886
-0.00655823
0.0018744
0.00276223
-0.00522897
0.00360389
-0.00113715
0.0100263
0.000271857
-0.0102981
0.0086352
-0.0106336
0.00526287
-0.00326443
-0.0135521
-0.000390824
0.0139429
0.00557504
-0.00462384
0.001078
-0.0020292
-0.000440311
0.00961043
-0.0104896
0.0013195
-0.00481299
0.00602542
0.0015498
-0.00535469
0.0114722
0.0106002
-0.0091124
0.00903134
8.1057e-05
0.000247702
-0.0144024
0.0141547
0.0194644
0.00234807
-0.0041481
-0.0176643
0.00406731
-0.0158629
-0.00196527
0.0137609
0.00308593
0.00364608
0.00205608
-0.00878809
-0.0054564
-0.00546217
7.38779e-05
0.0108447
-0.00260285
0.00357727
-0.00643082
-0.0119977
0.00216726
0.0157498
-0.00591932
-0.0235562
0.0172509
0.00759379
-0.00128852
0.0104156
8.52893e-05
-0.0105009
-0.00592522
-0.00797414
0.00515593
0.00874343
-0.00594365
-0.00862982
0.00257573
-0.00855291
0.00464608
0.00537462
0.00347547
-0.00451972
-0.00829692
0.00934116
-0.00584919
3.86718e-06
0.00584533
-0.0136519
0.00554882
0.00563786
0.00246525
0.0034438
-0.00921366
-0.00278304
0.0117275
-0.0037205
-0.000295563
-0.00771148
-0.00787359
0.0130468
0.00774292
-0.0129162
-0.0023185
-0.00486303
0.00179781
0.00538371
-0.00331895
-0.0026695
0.00598845
-0.00579206
-0.0121754
-0.00558872
0.00272449
3.52178e-05
0.00549742
-0.00825712
0.0111521
-0.0081219
-0.0117446
0.00871439
-0.00413794
0.00147523
0.00836011
-0.0056974
0.00783826
-0.00551778
-0.000777198
-0.00154329
-0.00898789
0.0014592
0.00702053
0.000508164
-0.0055676
0.0127885
-0.0138606
0.00540398
0.000400646
0.00805593
0.0130163
-0.0104011
-0.00819056
0.00557532
-0.0103529
0.00215441
0.0193506
-0.010049
-0.00662563
0.0108151
0.00585958
-0.00117395
0.0104667
-0.00397096
-0.00532178
0.000596026
-0.00617376
-0.00407196
0.0096497
0.0119161
-0.0078612
-0.000483489
-0.00357144
0.00368607
0.00275343
-0.00904235
-0.00250543
0.00283623
0.00699404
-0.00732485
-0.0020811
0.0108655
-0.0133918
0.00460744
-0.00652709
0.00157475
0.00157914
0.0033732
-0.0142909
0.0145354
-0.000244438
0.00984593
-0.00970585
-0.000140086
0.00396304
-0.0153016
-0.00587565
0.0172142
0.00350569
0.00666647
0.00155538
-0.000167749
0.0058239
-0.00565615
0.00934773
0.00837911
-0.0177268
-0.0103672
0.00632909
0.00447337
-0.000435287
-0.00582202
0.00191862
0.00473332
-0.000829925
-0.0174252
0.00813362
0.00955956
-0.000268025
-0.00564226
-0.00629113
0.00608419
0.00895145
-0.00141191
-0.00576578
-0.00177376
-0.00961413
0.0103835
-0.006337
0.00170083
-0.0107924
-0.000552707
0.00964432
-1.27035e-05
-0.00530385
0.00531656
0.0260522
0.000202952
0.00277608
-0.0290313
-0.000979496
-0.00191966
-0.0141386
0.0170377
0.0045166
-0.00611522
-0.00284877
0.00444739
0.00175723
0.0134791
-0.00544952
-0.00978685
0.0146941
-0.014702
-3.28761e-05
4.07889e-05
-0.00824569
-0.00744094
0.0116296
0.00405703
0.00481363
0.00368191
-0.00959189
0.00109635
6.79001e-05
0.00892431
-0.00911962
0.000127402
-0.0122814
0.00393496
0.00995307
-0.00160666
0.00942617
0.00569851
-0.00954281
-0.00558186
0.000223342
-0.00840114
0.0042654
-0.00218771
0.0126164
-0.00678788
-0.000883661
-0.00105909
0.00873063
-0.0113377
0.000593884
0.0107439
0.0166037
0.00717292
-0.00538069
-0.018396
-0.010843
0.000233528
0.0108328
-0.000991175
-0.00258075
-0.00659016
0.0101621
-0.00129644
-0.00130066
-0.00349694
0.00609404
0.00273207
-0.0138623
0.0104518
0.000678392
0.00860987
-0.00134334
-0.00837793
0.0011114
-0.0106486
0.00222652
0.000859212
0.00756286
-0.00405436
0.00265758
-0.00548991
0.00688669
0.00233204
0.00147823
-0.0137332
0.00992294
0.000479602
-0.00931015
-0.000647953
0.0094785
0.00923304
0.00120982
-0.000158006
-0.0102849
-0.0110197
0.00256712
0.00997196
-0.00791074
-0.0105036
0.0184143
0.015268
-0.00777294
0.00328795
-0.010783
0.00120018
0.00856956
-0.00525314
-0.0123492
0.00227059
0.00437805
0.00570055
0.0152401
-0.0157005
0.000460359
-0.00923223
-0.0031346
0.00646253
0.0059043
-0.011973
-0.00930006
0.00623532
0.0150377
0.0124508
-0.0130035
-0.00159138
0.00214411
-0.00181
0.0060453
-0.00476526
0.000529958
-0.0156049
0.00508484
0.00358406
0.00693601
-0.0229737
0.0285844
0.00474422
-0.0103549
0.0102527
-0.0222308
-0.00114263
0.0131208
-0.00912324
0.0116044
-0.0214996
0.0190184
-0.00956983
0.0210791
0.00209514
-0.0136044
0.000842298
0.0100065
-0.00233598
-0.00851283
0.0152163
-0.0114131
-0.000383758
-0.00341939
-0.00266955
-0.0025635
0.00391797
0.00131508
-0.00719692
-0.0149708
0.012773
0.00939464
-0.0102061
0.0135949
0.0118274
0.00830508
-0.0061056
-0.00760851
0.00540904
0.00306341
-0.00396407
-0.00175058
0.00265124
0.00677808
-0.00670369
-0.00893155
0.00885717
-0.00274882
0.00788597
-0.000570548
-0.0045666
-0.0109327
-0.0017448
0.0135198
-0.00823985
-0.00202603
0.0101868
7.91065e-05
0.00337788
-0.00754654
0.00416865
0.00269094
-0.00357342
0.0133124
-0.0124299
0.0104043
-0.0146302
0.00211888
0.00210703
0.00663413
-0.00715733
0.000523207
-0.010485
0.000278965
0.00937012
-0.00357043
-0.00904223
0.00324253
0.00294597
0.00238867
0.0104738
-0.0158084
0.00647513
-0.00703066
0.000555531
-8.02404e-05
0.0081438
-0.00920638
0.00114281
-0.0115169
-0.00110985
0.0153177
-0.00496576
-0.000848634
0.00114715
0.00466724
0.000685856
-0.00566873
0.00418217
0.000800707
0.00928865
-0.00889063
-0.00220801
0.00106801
0.0153642
-0.00967746
-0.0067548
-0.00528423
0.011169
-0.00588476
-0.0143072
0.00547909
-0.00335585
0.012184
0.0112736
-0.0102142
-0.0166643
-0.00548956
-0.0065683
0.0225747
-0.0105168
-0.0160974
0.0102547
0.0146171
-0.00877437
-0.000357641
-0.0137346
0.0140923
0.0217943
4.41353e-05
-0.0125588
-0.00927972
0.0126343
-0.00813737
-0.0011225
-0.00337438
-0.009216
0.00654135
-0.00165104
0.00432569
0.000124854
-0.00946575
0.00934089
-0.00692053
0.00712327
-0.000202739
-0.00502616
-0.0053154
-0.0136168
0.0239583
-0.0128235
0.00279689
-0.00143362
0.0114603
0.00297742
0.00483181
0.0131742
-0.0118875
-0.00983064
0.00854392
-0.00365369
-0.00753421
0.00830939
0.00287851
-0.00759106
-0.00386029
0.0114626
-1.12775e-05
0.00248562
-0.00143118
-0.00703045
0.00597601
0.00837905
0.000371841
-0.0107108
0.00195986
0.00258497
-0.00179699
0.00277779
-0.00335123
0.00333876
-0.00276532
0.00685254
0.00670949
-0.00685195
-0.00671009
0.00336892
0.00786807
-0.00814167
-0.00309532
0.00713697
0.00309393
-0.00561078
0.00885265
-0.0107338
0.00225304
-0.0117676
0.00822711
0.00442924
-0.000888734
0.0139733
-0.00462811
-0.0146294
-0.00371192
0.00997666
0.00500888
0.00973359
-0.00474123
-0.0082
-0.00223512
-0.00133249
-0.0130841
0.0122441
0.00115035
-0.000310349
-0.000814899
0.0163568
-0.00169577
-0.0138461
-0.0106184
0.00216256
0.00474388
-0.00171069
-0.0108001
0.003035
0.00947577
0.00977485
0.00135639
-2.75118e-05
-0.0111037
-0.0145929
-0.000121558
9.9133e-05
0.0146153
-0.0037605
0.00411419
-0.0066918
0.00633811
-0.0100519
0.0127122
-0.00131335
-0.00134701
0.0132059
-0.0123329
-0.0109249
-0.00976934
0.00881076
-0.00279584
0.00375442
0.00788032
-0.00035509
-0.00247862
-0.00504662
-0.0147763
0.0142485
0.00698398
-0.00645614
0.00701835
0.00267309
-0.000891235
-0.00880021
0.00252606
0.00640072
-0.00800639
-0.000920392
-0.00473782
0.00476579
-2.79704e-05
-0.00277318
-0.00708011
0.00710447
0.0107098
-0.0106184
-9.1436e-05
-0.00603231
-0.00480634
0.00472343
-0.00063386
-0.0072334
-0.000794184
0.00866145
-0.000821555
-0.00632521
0.00565412
0.00149265
0.00992626
-0.0112823
0.001356
-0.0126838
0.0130236
0.0119136
-0.0122535
-0.0085474
0.0066027
-0.00449725
0.00644195
-0.00342325
0.00146307
0.00309958
-0.00113939
-0.000361471
0.0154309
-0.000135748
-0.0149337
-0.00781414
0.00378836
0.00384797
0.00447037
0.00568931
-0.00992592
-0.000233757
0.000430514
-0.0123303
-0.000484055
-0.0111555
0.0111535
1.94474e-06
-0.00749592
0.0037744
-0.00825149
0.00253588
-0.00561126
0.000226612
0.00490234
0.00212868
0.00737267
0.000143632
-0.00630491
-0.00121139
0.00617202
-0.0153996
0.0123468
-0.00311916
0.00255687
-0.00348566
0.0129638
-0.012035
0.0158915
0.00467981
-0.00244635
-0.0181249
-0.00404033
-0.00661924
-0.00214694
0.0128065
0.00480851
0.0200409
-0.0180953
-0.00675408
0.00230909
0.0145197
-0.0140161
-0.00281271
-0.00499018
0.000658692
0.0102279
-0.00589641
-0.00175528
0.014257
-0.00769321
0.0103106
-0.00814131
-0.00317644
0.00100717
0.00337667
0.0088362
-0.0122129
0.00825537
0.00183182
-0.00109969
-0.00898749
-0.0075905
0.00606605
0.000610286
0.000914165
-0.000740597
-0.0107549
0.000626461
0.010869
-0.00789536
-0.00100202
-0.000329349
0.00922673
0.00454085
-0.010068
0.000100064
0.00395781
0.00601012
8.47646e-05
0.0065374
-0.00662216
0.000810258
0.0114934
-0.0293662
0.0170625
0.00324795
-0.00818455
0.0077761
-0.0028395
0.0046613
0.00532119
-0.00368527
-0.00629722
4.75395e-05
-0.00586719
0.00581965
-0.00318325
-0.00225961
0.0128942
-0.00745135
-0.00393999
0.0131586
-0.0113571
0.00213854
0.0143668
-0.00998226
-0.00964116
0.00525661
-0.0059053
0.00400652
0.00183199
6.68001e-05
-0.000805826
0.00454463
-0.00243594
-0.00130286
0.0154627
-0.0120861
0.00717909
-0.000829853
-0.0117515
0.00540225
-0.00327777
0.00306503
0.00367235
-0.00345961
0.000185652
0.0147872
-9.1679e-05
-0.0148811
-0.0107938
-0.00355486
0.0146313
-0.0002826
-0.00306385
-0.00131232
0.00336429
0.00436053
-0.00641251
0.00872955
0.00615288
-0.013059
-0.00182342
-0.00268705
-0.00175399
-0.0116923
0.0161333
0.0153944
-0.0121727
-0.0214536
0.0182319
-0.00597589
-4.54819e-05
0.00602137
-0.00726567