/*--------------------------------*- C++ -*----------------------------------*\
  =========                 |
  \\      /  F ield         | OpenFOAM: The Open Source CFD Toolbox
   \\    /   O peration     | Website:  https://openfoam.org
    \\  /    A nd           | Version:  10
     \\/     M anipulation  |
\*---------------------------------------------------------------------------*/
FoamFile
{
    format      ascii;
    class       volVectorField;
    location    "6.1";
    object      U;
}
// * * * * * * * * * * * * * * * * * * * * * * * * * * * * * * * * * * * * * //

dimensions      [0 1 -1 0 0 0 0];

internalField   nonuniform List<vector> 
111485
(
(2.87463 -2.87432 0.00167204)
(8.36328 -0.0207979 -0.046658)
(8.24419 0.0195233 0.0258117)
(2.87507 -2.87581 0.000191522)
(8.56412 0.0373486 -0.00282049)
(2.99263 2.99092 0.000187301)
(8.41755 0.0240778 0.00245842)
(8.64334 -0.0230593 0.0125248)
(8.42251 -0.00574104 0.00597833)
(8.61636 -0.0918673 -0.0396921)
(8.29354 0.0199345 0.0247223)
(8.67591 -0.0202598 0.0399422)
(8.1735 0.00648597 0.0186533)
(8.2491 -0.0168325 -0.0591621)
(8.36669 0.0329403 0.0182779)
(8.53737 -0.0576155 -0.0450326)
(8.41171 -0.0079217 0.0119619)
(2.95856 -0.236471 0.447218)
(8.58524 0.0241627 -0.0186813)
(2.85437 -2.85047 -0.00155878)
(2.85919 -2.85923 -0.00323033)
(3.00012 2.99932 -0.000108592)
(8.49185 0.0277093 -0.00785617)
(8.62246 -0.0558557 -0.0168813)
(8.4531 0.0345929 -0.0103196)
(2.89744 -2.88457 -0.00295751)
(8.71538 -0.0408618 0.0453721)
(8.25603 -0.0120948 0.00294893)
(8.61089 0.0144235 -0.0199048)
(2.86472 -2.8663 0.000145335)
(8.68246 0.143715 -0.0381695)
(8.57063 -0.0179816 0.00240569)
(2.85258 -2.8587 0.00423093)
(2.99671 3.00264 -0.00720611)
(3.00847 1.24653 0.485009)
(3.01521 3.03531 -0.0441914)
(8.64133 0.142386 -0.0578754)
(8.35316 0.0313755 0.0735361)
(8.60007 2.59813 0.145694)
(8.57549 0.0424045 0.00417605)
(2.95964 2.98654 -0.0210827)
(8.67188 0.00986178 -0.0493148)
(8.56757 0.0444971 0.0156078)
(8.26786 -0.0499367 0.00041151)
(8.64805 -0.153109 -0.078504)
(2.88359 -2.86213 0.0148391)
(8.67131 -0.0407076 0.0416888)
(8.61011 -0.0518044 -0.0160015)
(8.67209 0.00374559 -0.0375111)
(2.85789 -2.82266 0.0171089)
(2.8434 -2.81638 0.0182169)
(3.40929 2.8658 0.0498463)
(2.83439 -2.82314 0.00947421)
(8.65962 0.0389422 -0.0721924)
(2.82706 -2.8157 0.000967533)
(8.55658 0.0223684 -0.0079926)
(8.55952 -0.0355019 -0.0170861)
(2.99986 2.99435 0.00174192)
(7.81048 -0.0179375 -0.136502)
(8.60017 0.0360489 -0.00452149)
(8.59849 0.0397715 -0.00316177)
(2.86567 -2.87124 0.00358951)
(7.975 0.0091545 0.0526542)
(8.70301 -0.0212354 0.0665571)
(3.09381 2.80326 0.00463097)
(7.859 0.0170955 -0.0149177)
(6.03902 -0.48913 0.21451)
(8.62637 -0.0319023 0.0115925)
(7.78589 0.0031607 0.0231658)
(7.3746 -0.0145335 0.00339233)
(8.3266 0.0512904 -0.0432146)
(7.72923 -0.00846805 0.0256346)
(3.1019 -2.79392 -0.0643276)
(7.88942 0.0144198 0.0610802)
(2.87162 -2.87076 -0.000125582)
(8.58332 -0.019106 0.00905081)
(2.99968 2.99945 -0.000869007)
(8.6626 -0.0191181 0.0455703)
(2.99844 2.99679 -0.000392696)
(2.69889 2.63252 -0.0901674)
(8.34922 -0.128052 0.0865853)
(8.62125 0.0340381 0.00608762)
(2.98838 2.98122 -0.00031993)
(2.87211 -2.87211 0.00165502)
(8.12169 -0.00262457 0.0159532)
(7.79379 0.0215738 -0.0313333)
(6.67947 4.3331 -1.16557)
(8.54542 0.101067 0.00979745)
(8.23257 0.212779 0.182317)
(8.33431 0.00909285 0.0229933)
(8.81295 0.175489 -0.112296)
(8.57274 -0.0148854 0.0142794)
(8.02205 -0.0134031 0.0306556)
(8.16119 -0.00913765 0.00754078)
(8.68268 0.0252709 -0.0534453)
(2.87201 -2.87134 -0.000800585)
(2.86656 -2.86652 0.00173798)
(8.54213 0.0944391 0.0297588)
(8.80838 -1.7441 0.121946)
(8.00507 0.0293911 0.0514747)
(2.87223 -2.87238 0.001116)
(8.58681 -0.0459765 0.00508315)
(3.01222 3.0173 0.0164818)
(8.51709 0.00046232 -0.00494398)
(8.43866 -0.0429733 -0.0532534)
(2.94216 2.62993 -0.0623732)
(2.999 2.998 -0.000624814)
(8.57641 -0.0220866 -0.00245443)
(7.93507 -0.0437256 0.00966421)
(7.60298 -0.225798 -0.240259)
(8.12444 -0.00739301 0.0179726)
(8.52263 0.0122246 -0.0045422)
(7.95524 -0.00567548 0.0316682)
(7.83399 -0.0403993 0.0163643)
(2.89965 -2.88422 0.00251292)
(7.54417 -0.00670821 0.0221851)
(2.88327 -2.8742 -0.00368714)
(3.01254 2.99972 0.0124765)
(8.38155 0.0318068 0.0246365)
(2.8745 -2.87254 0.000870136)
(2.89863 -2.88366 -0.00115671)
(3.94837 3.104 0.185112)
(2.9675 2.97991 -0.00503281)
(3.00544 2.99824 -0.00713935)
(8.19136 -0.0202246 0.039113)
(2.29358 -1.61372 -0.433129)
(3.76329 3.23583 0.114388)
(7.61803 -0.00218428 0.0357822)
(2.87182 -2.87069 -0.00117999)
(8.62182 0.645748 -0.232174)
(8.61348 0.169277 -0.0862868)
(8.5264 0.0968429 0.0292303)
(2.85912 -2.85171 -0.0139835)
(3.86553 3.36058 0.347791)
(3.60653 3.21742 0.152188)
(8.60735 0.0253686 -0.0159252)
(3.00144 3.00121 -0.000788801)
(8.53934 0.0196089 0.00179719)
(8.48857 0.0397892 0.0232262)
(8.34589 0.0366473 0.0359952)
(6.551 0.00073 0.0264906)
(8.55537 0.0446887 0.0107299)
(8.48372 0.0436191 0.0276418)
(8.09248 0.00772136 -0.0325928)
(8.459 -0.0157753 0.00732517)
(8.35947 -0.00470588 0.0199671)
(3.00198 3.00236 -0.000693329)
(2.87199 -2.87336 0.000296475)
(2.9936 2.99534 0.00619457)
(8.56173 0.0382939 0.00526136)
(8.09714 0.0132512 -0.0296611)
(2.8615 -2.86013 0.00148498)
(5.58459 -0.0325339 0.0555495)
(8.34816 0.0396282 0.0190665)
(9.14333 0.365312 0.160617)
(8.60657 0.0251085 -0.0163863)
(8.56788 0.0276265 -0.00600237)
(7.9518 0.00343392 -0.0162596)
(9.22554 0.447946 0.110482)
(2.85609 -2.88298 0.0111943)
(2.86987 -2.87248 0.0029961)
(8.59207 0.0243601 -0.0165163)
(8.41799 -0.029236 -0.0301398)
(9.28584 0.505527 0.120556)
(9.15812 0.442523 0.166108)
(7.97293 0.010615 0.0417856)
(8.5743 0.105581 -0.0385971)
(2.96198 2.98648 0.000743227)
(9.39601 0.625623 0.148828)
(8.96245 0.448263 0.137377)
(2.99714 2.99867 0.000983279)
(2.86654 -2.86594 -6.97949e-05)
(6.86022 0.0071854 -0.0561578)
(3.0003 3.00179 0.000384008)
(8.52625 -0.0182198 -0.00352352)
(8.21429 0.0032108 -0.0167555)
(2.99921 2.92705 -0.0168205)
(3.1051 -2.85135 0.0312987)
(2.86556 -2.85078 -0.00470396)
(2.9562 2.79087 -0.0292176)
(3.12037 -2.87547 0.0491124)
(2.86974 -2.87079 0.00269684)
(8.54335 0.0310992 0.00511603)
(8.55473 0.0196288 -0.0160161)
(8.52624 0.0242483 -0.0102524)
(8.41211 -0.0258489 0.0304755)
(8.11317 -0.0207691 0.00682037)
(8.14178 0.0132656 0.0248807)
(7.23259 0.0934523 0.00996388)
(2.86708 -2.85784 -0.00103382)
(7.88721 0.000986299 0.00965451)
(3.09758 -2.87383 0.0310169)
(2.89291 -2.89787 -0.00136384)
(8.20825 0.0150843 0.0285024)
(8.62019 -0.102573 -0.0370304)
(8.54275 0.0159777 -0.0391434)
(8.20821 -0.00860487 0.0108298)
(8.35183 -0.00145601 0.0103055)
(2.86652 -2.86181 0.00719735)
(8.19695 -0.0344823 0.00907916)
(8.1672 -0.00814962 -0.0498573)
(5.71729 1.8197 0.234105)
(8.37205 -0.0680471 0.00538449)
(8.49041 -0.0130993 0.00738237)
(2.8803 -2.86437 -0.00470591)
(8.17378 0.0198499 0.0284758)
(8.57883 0.0203603 -0.00873984)
(3.15052 -2.83959 0.0132245)
(8.23494 0.0207097 0.0309102)
(8.64411 -0.00658622 0.0437311)
(8.09221 0.00847611 -0.0337429)
(8.15001 0.0221074 0.0381024)
(3.11755 -2.88468 0.0401336)
(2.86483 -2.86524 -0.000817211)
(8.14764 0.0235196 0.0412452)
(5.34003 3.34973 -0.331079)
(8.74126 0.0378363 -0.084969)
(2.99894 2.9997 -0.0021216)
(8.19859 0.0162331 0.032631)
(8.20624 0.00528165 0.00434921)
(8.69232 -0.0270276 0.054337)
(2.87409 -2.8727 0.00123269)
(7.66737 -0.00345715 0.0194067)
(8.59148 0.124896 0.0654025)
(4.71872 3.16749 -0.346315)
(3.00047 3.00078 -0.00209921)
(2.99713 2.99866 0.000862199)
(8.7823 -0.0536806 0.0839721)
(8.20044 0.192483 -0.0242189)
(3.15409 2.66223 -0.0619494)
(3.56028 -2.75999 0.112174)
(8.2312 0.00779473 0.0143017)
(8.49485 0.0137546 -0.00088063)
(8.57736 0.018835 0.00817089)
(3.10787 2.70348 -0.0795675)
(3.03085 -2.78908 -0.0103301)
(8.26668 0.100049 -0.118896)
(2.87135 -2.8712 0.00179225)
(7.84485 0.00996037 -0.048951)
(8.13997 0.0050028 0.0336159)
(8.22788 0.00349886 0.0182654)
(8.23779 0.016516 0.0209962)
(8.27064 0.00894719 0.0278917)
(2.989 2.98962 0.00940508)
(6.23876 -0.0173603 -0.238925)
(8.37096 0.028233 0.026258)
(2.98434 2.98958 -0.0039246)
(2.99946 3.00026 -0.000126741)
(8.72081 -0.104083 -0.00941215)
(8.51888 0.0387137 -0.0124845)
(3.0713 2.61539 -0.08214)
(7.77669 -0.00514695 0.0218743)
(8.34828 0.0183398 0.0221074)
(2.87354 -2.87223 -0.000874736)
(3.78587 3.58439 -0.0226323)
(8.5838 0.0803982 -0.0353019)
(2.88445 -2.84788 0.0021972)
(3.19033 -2.26647 -0.0540581)
(4.38135 -1.53546 -0.153471)
(2.87654 -2.86852 -0.00154101)
(8.39879 -0.0133071 -0.0172784)
(8.17035 -0.0144729 -0.0145607)
(8.50125 0.0137971 -0.0218957)
(2.87003 -2.87041 -0.000292187)
(8.40651 0.0262788 0.0199225)
(2.87511 -2.87574 4.28528e-05)
(2.87431 -2.87536 0.000786659)
(2.86645 -2.85532 0.00474291)
(5.76521 0.0220678 -0.0890065)
(8.6476 -0.0411068 0.0479661)
(8.22909 0.0308513 0.0427928)
(8.38571 0.0278848 0.0135259)
(8.67512 -0.0490065 -0.00134447)
(8.34704 0.0127251 0.013891)
(8.55323 0.0308882 0.01091)
(8.61931 0.145685 -0.0140324)
(8.43298 0.0120573 -0.00356224)
(8.50373 0.014354 -0.00444465)
(3.05123 3.00237 -0.00169385)
(2.86289 -2.86285 -0.00364515)
(5.27104 0.0343108 -0.128916)
(8.5516 -0.0184696 0.002381)
(8.62498 0.0660027 0.0707064)
(8.14877 -0.0115012 -0.01317)
(2.87477 -2.87296 0.00105433)
(8.50882 0.027221 0.0156898)
(8.5445 0.0436464 0.0205603)
(8.37308 0.0185334 0.010892)
(7.37562 -0.00707871 -0.03992)
(7.72234 -0.0888922 -0.192239)
(8.49577 0.0261156 0.0098183)
(8.36243 0.0234527 0.0150829)
(8.51903 0.0671418 -0.0424824)
(2.99931 2.9999 0.000839502)
(7.82209 0.0426576 -0.00225371)
(2.99819 2.99854 -0.00114634)
(2.43246 1.84754 -0.388567)
(3.23592 -2.0761 -0.210217)
(8.84975 -0.0788812 0.119508)
(8.67775 -0.0490818 -0.00126652)
(8.47102 -0.00343643 0.00131764)
(2.87646 -2.86902 -0.0011068)
(2.98637 3.00381 0.0246232)
(8.49479 0.0292919 0.0156223)
(8.14422 0.0173852 -0.0112647)
(2.86326 -2.86244 0.000465566)
(2.87478 -2.87263 0.00247329)
(2.80665 -2.82597 0.0198571)
(8.07979 0.0107722 -0.00390991)
(8.46644 0.00866583 -0.00867775)
(8.08359 0.00117442 0.0281728)
(7.83317 0.0125417 -0.0422426)
(8.62956 0.0225311 -0.0198498)
(3.43444 2.95067 0.0803744)
(2.99292 3.00018 0.00537476)
(2.87144 -2.86784 -0.00120752)
(8.46417 0.030553 0.0216991)
(5.49985 -4.66038 -0.333027)
(8.06875 -0.00878775 0.0122929)
(8.78843 -0.0609338 0.193133)
(7.08461 0.00544718 -0.145945)
(3.00036 3.0008 -0.000125011)
(2.86996 -2.87284 0.0021663)
(2.87439 -2.87557 -0.00142892)
(3.78193 3.17081 0.195509)
(8.57095 0.0254809 -0.00319106)
(8.64351 -0.0490972 0.00956894)
(3.00462 3.01234 0.00100675)
(8.51579 0.023208 -0.00193294)
(3.16829 2.56567 0.181363)
(2.87827 -2.84324 -0.00429821)
(8.72942 -0.028776 0.0709234)
(8.49275 0.0310942 0.0156406)
(8.67949 -0.0107123 0.0196429)
(8.5192 0.0239016 -0.000507975)
(2.88345 2.55434 0.156295)
(3.74353 3.22066 0.206451)
(2.99253 2.99613 -0.00438323)
(8.50554 0.0297883 0.0113544)
(8.49308 0.0242091 -0.000605019)
(8.65522 0.155126 -0.0538165)
(2.96528 2.95828 0.00554656)
(5.93241 5.25079 -1.2587)
(8.11483 0.080482 0.0734327)
(8.65186 -0.0399226 0.0212952)
(8.51351 0.0314326 0.0195526)
(8.10137 0.83741 -0.0670519)
(8.62953 0.0208458 -0.0240222)
(2.98835 2.98743 0.00144921)
(8.63015 0.0220807 -0.0168582)
(8.29591 0.0117991 0.0169018)
(8.73242 -0.204155 -0.00130568)
(8.75607 -0.0523036 0.107095)
(8.45588 -0.0670948 -0.0612041)
(2.98584 2.99931 -0.0109207)
(2.86799 -2.87129 -0.00525002)
(3.00478 2.98702 0.0115028)
(2.85009 -2.85827 -0.000558965)
(8.63194 -0.0395473 0.000607021)
(8.55558 -0.0116623 0.00299659)
(8.56144 0.0398779 -0.0322388)
(8.625 0.0234087 -0.0264284)
(2.97454 2.97779 -0.0128206)
(8.5368 -0.062141 -0.0224095)
(2.99604 2.99688 0.00141265)
(2.86158 -2.8697 5.26957e-05)
(8.62536 0.0251144 -0.018515)
(2.64357 -2.64642 0.0380439)
(4.74628 -0.857516 -0.0636169)
(2.83843 -2.82784 0.00227006)
(3.02429 2.9842 0.0239509)
(8.54513 0.0143845 -0.0117234)
(2.99827 2.99644 0.00118541)
(8.43767 0.0238297 -0.00243146)
(8.0342 0.00446212 -0.0361038)
(3.00374 3.00389 -0.000658653)
(7.73892 -0.00360412 -0.0365592)
(8.40077 0.0151863 0.0105372)
(3.02156 2.65025 -0.0979279)
(8.36302 0.0373132 0.0415421)
(7.92043 0.0413124 -0.00341657)
(8.41767 0.0376084 0.0127667)
(7.84671 0.0292908 0.0993977)
(8.48986 0.0240413 0.00400575)
(8.12086 0.0022635 -0.0141632)
(2.96581 2.53411 -0.0127216)
(2.86216 -2.85673 0.0170975)
(7.27284 0.0113687 0.170694)
(2.9782 2.98825 -0.0169198)
(8.40378 0.0454701 0.0408548)
(8.73589 -0.0437 0.0870174)
(3.01243 2.87957 0.0242591)
(2.99186 3.00453 -0.00101424)
(8.60834 -0.0160696 0.0066478)
(8.29603 -0.0385548 -0.0836852)
(8.32459 0.041376 0.00470953)
(8.62561 0.0222268 -0.00831669)
(2.99903 2.99495 -0.00141147)
(8.77347 -0.0233983 0.141785)
(8.63997 -0.0292159 0.0423368)
(3.00794 3.00319 5.59647e-05)
(8.45854 0.132014 0.107973)
(8.07553 -0.0323005 -0.0860766)
(2.86777 -2.86773 -0.000694151)
(2.86391 -2.86381 0.000781051)
(8.4274 0.0268907 -0.0102682)
(8.48203 0.00710331 -0.0124078)
(3.01094 3.01098 -0.00384422)
(2.86982 -2.86392 -0.00465749)
(5.061 -2.7259 0.621301)
(2.8738 -2.87584 0.000521426)
(8.48308 -0.00274496 0.0151169)
(2.97891 2.9899 0.00670973)
(2.87466 -2.87567 0.000102084)
(8.68467 -0.0101771 0.0280325)
(7.87321 -0.0913075 -0.226298)
(8.58878 -0.0499505 0.0112042)
(8.30139 -0.00166292 0.0161588)
(3.00587 3.00349 0.000266836)
(3.89112 2.99932 0.150521)
(8.30011 0.110693 0.160731)
(3.64595 3.21457 0.170821)
(8.27449 0.0355024 0.0642394)
(8.23663 -0.0685083 0.00660472)
(8.60099 -0.0261398 -0.0225978)
(5.98569 0.182188 0.224724)
(3.57851 3.0839 0.155523)
(8.5841 0.0137885 -0.0815406)
(8.70621 0.270915 -0.0854604)
(2.86972 -2.87485 0.00540407)
(8.67642 0.0221139 -0.0852851)
(8.68436 -0.0364081 0.0325751)
(2.87509 -2.87442 0.00302401)
(8.36662 0.477394 -0.256242)
(7.32693 0.000262566 -0.0988804)
(3.78563 2.97699 0.125761)
(8.64961 -0.0181299 0.0361766)
(8.54574 0.0133012 -0.00984886)
(8.49384 0.0227772 -0.00642558)
(2.9987 2.99603 -0.000739524)
(8.45602 -0.0130069 0.058554)
(8.68412 -0.0027751 0.0280836)
(8.42472 0.0822678 -0.0083844)
(5.30686 -0.0729831 0.0882433)
(3.64608 3.43942 -0.0717902)
(5.00817 -0.128108 0.169083)
(2.86907 -2.87303 0.00215059)
(7.80148 -0.264685 -0.256367)
(8.45779 -0.0146161 -0.0558056)
(2.99987 2.99789 0.00458616)
(8.05583 0.0199882 -0.060591)
(6.63685 -0.0173323 0.121096)
(3.88739 3.43869 -0.0365658)
(2.8718 -2.86988 0.00023728)
(3.36393 -2.85604 0.0923138)
(2.8741 -2.87297 -0.000138612)
(8.4059 0.0497719 -0.006366)
(8.48214 0.0452756 -0.0145175)
(8.41211 -0.0240427 -0.0233193)
(7.90719 0.0207348 -0.0426103)
(8.61212 -0.174099 -0.0361631)
(2.99713 2.9843 -0.00564716)
(8.35732 -0.00148083 -0.0183418)
(2.88052 -2.85915 0.000406925)
(8.27099 0.0302385 0.020229)
(3.00906 3.00965 -0.00100243)
(2.87197 -2.86937 8.28793e-05)
(2.84258 -2.85046 -0.0040342)
(8.1306 -0.0533068 0.0105977)
(2.86124 -2.86267 -0.00239608)
(2.87362 -2.87363 0.00155194)
(2.95925 1.96774 -0.122058)
(2.87413 -2.87587 0.00110432)
(2.96693 3.00805 0.0282235)
(8.33023 -0.0315803 -0.0129595)
(3.00024 2.99599 0.000839891)
(3.55551 2.62609 0.00445465)
(3.00083 3.00233 0.00364116)
(2.86297 -2.85328 -0.00101377)
(2.99987 2.98885 -0.00437492)
(2.862 -2.84742 -0.0145195)
(2.98205 2.98436 0.000121718)
(7.58962 0.00125058 -0.0634342)
(3.00439 2.98853 0.0119945)
(7.77718 0.114559 0.157825)
(8.51257 0.0125204 -0.00413433)
(8.77396 -0.356799 -0.0613257)
(3.00575 2.99316 -0.000875827)
(7.40881 0.0214344 0.123068)
(3.00446 2.99402 0.00290498)
(2.87462 -2.87573 -0.00129777)
(8.38074 -0.07934 -0.0851384)
(8.39329 -0.0641378 -0.0767173)
(8.4164 -0.0203148 -0.0215131)
(8.79461 0.0209379 -0.147814)
(3.44811 2.9008 -0.0953795)
(8.61672 0.00938247 -0.0460675)
(8.61202 0.014621 -0.0438226)
(8.50595 0.0149162 -0.000264839)
(8.37173 0.00933008 0.00299094)
(8.51947 -0.0842558 -0.0584239)
(2.86202 -2.8628 -0.000968119)
(8.51352 0.0113948 8.16946e-05)
(3.92548 3.41911 -0.0250007)
(8.48897 0.0218327 -0.0111424)
(2.99537 2.99226 -0.0011332)
(8.64417 0.0274096 -0.0395294)
(3.88305 3.22476 0.0299126)
(8.52249 0.00695086 -0.0126361)
(8.55369 -0.04041 0.0311935)
(3.31558 -1.67436 -0.0187786)
(3.00056 3.00276 0.0332881)
(8.38303 0.014736 0.0153082)
(2.8712 -2.86999 0.000432552)
(8.68097 0.0350202 -0.0564059)
(8.61715 0.0336458 -0.0363358)
(2.99749 2.98858 -0.023808)
(2.99098 2.99001 0.00729511)
(2.93403 2.63043 -0.0587289)
(2.99732 2.99963 0.00143673)
(6.01824 -0.323326 0.166891)
(8.68573 0.0308199 -0.0539307)
(3.04243 2.9705 -0.00202935)
(2.9938 2.99776 0.00287172)
(7.42531 0.00957445 -0.017195)
(3.00205 3.00209 -0.000163422)
(8.55223 0.0239277 -0.0306614)
(3.00003 2.99918 0.000715355)
(8.46653 -0.0498741 -0.0357784)
(2.87473 -2.87533 0.000949152)
(7.94443 -0.0398007 -0.119106)
(6.57219 -0.0262383 0.00591855)
(7.97043 0.0238307 -0.0168484)
(8.52524 0.00919342 -0.0136127)
(3.01137 2.98879 -0.00974388)
(7.74824 0.00764686 -0.00176334)
(3.00545 2.99449 0.00280207)
(3.00068 3.00147 -0.0081926)
(8.4317 -0.0211871 -0.0111145)
(2.99679 2.99332 -0.0013311)
(7.18618 0.00138708 -0.0714795)
(2.89308 2.66233 -0.088422)
(8.56249 0.0228103 -0.0266275)
(2.8652 -2.86663 7.96128e-05)
(8.63426 0.019436 -0.0189583)
(2.87613 -2.87364 0.000234736)
(3.56212 3.15074 0.092033)
(8.73807 0.317156 -0.0237144)
(8.38574 -0.0715238 -0.0889484)
(8.51636 0.0359534 -3.57767e-05)
(8.58269 -0.0957696 -0.0624801)
(8.47845 0.0164382 -0.00855421)
(8.66801 -0.0592637 -0.00544099)
(2.97856 3.00151 -0.0134582)
(8.51084 0.0485592 0.0259947)
(8.42038 -0.0839449 -0.0853853)
(2.99929 3.00086 -0.00183652)
(7.15669 -0.104908 -0.276136)
(8.70556 -0.0642992 -0.0437622)
(8.3595 0.0357301 0.0324415)
(2.9664 2.92636 -0.0168346)
(3.69169 0.729831 -0.588152)
(8.1805 0.0202941 0.0270465)
(6.69511 -0.0267204 0.0677279)
(6.93575 1.78208 -0.0134013)
(3.71999 -1.89304 -0.15345)
(8.65199 -0.0980204 -0.0222369)
(8.12319 0.0306281 0.0601148)
(8.37922 -0.0783097 -0.0859304)
(8.5423 -0.047459 -0.0178571)
(8.39968 0.0489935 0.0208622)
(7.45953 0.963489 -0.0439815)
(3.70907 3.14567 0.026297)
(7.58797 -0.291259 0.0698259)
(7.33179 -0.642953 0.152258)
(2.86874 -2.87028 0.00141878)
(7.48908 0.0517842 -0.0220812)
(3.01499 2.95849 -0.0157145)
(3.51927 3.1995 0.0305076)
(8.47201 0.0211331 -0.00268416)
(7.50675 1.2674 -0.0422829)
(9.04511 -0.77563 -0.143199)
(8.15891 -1.41394 0.0283132)
(3.51009 3.3353 -0.246692)
(8.61568 -0.0527347 -0.0166807)
(8.50458 0.0495824 0.0387938)
(2.99287 2.98432 -0.00144036)
(3.86262 2.14475 -0.0886474)
(8.50424 0.0640386 0.0403066)
(2.87229 -2.86155 0.00310176)
(2.99876 2.99758 -0.00054154)
(2.98982 2.98885 -6.07424e-05)
(3.00291 2.98703 0.0036294)
(8.61246 -0.0879018 -0.0399039)
(2.99975 2.99901 0.00175358)
(2.88196 -2.88175 0.0151383)
(8.46002 -0.0514944 -0.0416595)
(7.79956 -0.00269362 -0.0232805)
(4.22155 -3.69677 -0.194685)
(8.50474 0.0625804 0.0388644)
(3.49211 2.82132 0.0636942)
(8.54405 -0.0328842 -0.0184218)
(2.81597 -2.81431 -0.0129257)
(2.99257 2.99839 -0.00230173)
(8.59219 -0.0540547 -0.015544)
(2.99864 2.98169 -0.0116252)
(3.00025 2.9932 0.00127258)
(3.43722 3.28921 0.0953022)
(8.08958 -0.00397724 -0.00405176)
(4.94122 4.13737 -0.549258)
(8.46854 -0.0348472 -0.0163848)
(8.47124 0.020166 -0.0050091)
(2.84686 -2.82823 -0.0227162)
(8.79206 -0.0265757 0.278282)
(8.05104 -0.0488396 -0.119479)
(8.43774 0.000681259 -0.00410908)
(8.54387 0.155301 0.0158023)
(8.58454 0.0842662 -0.183734)
(7.3924 0.00320604 -0.0682299)
(2.99427 2.99131 0.00184829)
(8.60521 0.0084886 0.0245447)
(8.53939 0.0367025 -0.0072145)
(2.84423 -2.88183 0.00558026)
(7.95618 -0.00422885 -0.0033394)
(8.6182 0.0523343 -0.013625)
(8.61735 0.0394461 -0.0139059)
(7.84068 -0.0348195 -0.0765478)
(8.61487 0.037801 -0.0152772)
(8.619 0.0454214 -0.00480179)
(2.8774 -2.83928 0.0175724)
(8.62101 -0.0166162 0.0420096)
(7.13034 -0.0445704 -0.0142079)
(3.61304 3.13839 0.197914)
(8.61336 0.0322092 -0.0206798)
(8.22344 0.00943206 -0.0192303)
(4.81027 3.91586 -0.592139)
(8.47978 0.0125623 -0.00222666)
(8.61734 0.0260492 -0.0259163)
(8.22625 0.00256591 -0.0342047)
(8.54854 0.0380825 0.00480337)
(8.45129 0.0858104 0.0385359)
(8.50405 -0.00334574 0.0152636)
(2.93374 2.867 0.00442941)
(8.54781 0.0442388 0.00434623)
(8.02287 -0.0523293 -0.10796)
(3.21544 -1.9345 0.0746101)
(8.50683 0.0736186 0.0461557)
(8.39891 0.0694194 0.069749)
(8.52076 0.0238236 -0.000412555)
(2.9947 2.98759 0.00263827)
(8.26119 0.0473211 -0.0782604)
(2.87184 -2.85929 0.00727716)
(2.99986 2.99984 -0.00218365)
(2.98371 2.96338 -0.00126397)
(3.00492 2.9873 0.000871287)
(7.17336 0.00376716 -0.0303797)
(3.57425 3.07607 0.125109)
(6.44019 -0.458165 0.531417)
(2.85701 -2.85829 -0.00035286)
(2.99288 3.03329 -0.00469492)
(8.5168 0.084481 0.0441016)
(8.56763 0.0213319 -0.038892)
(2.87395 -2.87385 -2.75743e-05)
(8.5747 -0.0530096 -0.00507652)
(2.87207 -2.87013 0.00836098)
(2.87394 -2.87212 -0.00113251)
(2.82579 -2.8264 0.0086951)
(8.70259 -0.0687517 -0.00943238)
(7.26325 0.0410635 -0.0200509)
(3.53774 3.18639 0.0393732)
(2.9008 -2.86862 0.00767388)
(2.99578 3.00536 -0.00375029)
(2.99707 2.99884 -0.000737385)
(8.75821 0.017609 -0.0967735)
(8.49934 0.0157751 0.00310315)
(3.5641 3.35096 0.154732)
(8.6622 0.0265483 -0.0470203)
(8.06002 -0.112979 -0.334519)
(2.99346 2.99492 -0.00124171)
(8.63944 0.0228536 -0.0409896)
(7.9219 0.00550455 0.0424427)
(8.40433 0.0442572 -0.0502885)
(3.00404 3.00277 -0.000226931)
(2.9954 2.99285 0.000248835)
(8.34966 0.0486837 0.0510112)
(8.52749 0.0197178 -0.0015418)
(3.54534 3.22394 0.0503822)
(2.98591 2.98708 0.000216073)
(3.03585 2.94291 -0.0111465)
(8.47916 -0.0167084 0.00691086)
(2.86964 -2.8696 -0.00330822)
(2.86496 -2.8543 0.00209685)
(2.98191 2.98241 0.000118911)
(8.63715 0.0259504 -0.0362511)
(7.56089 -0.037565 0.0146216)
(3.00276 3.00313 0.000184614)
(3.33884 0.66291 0.592335)
(3.64046 -0.39539 -0.14132)
(8.35013 0.044877 -0.00218391)
(2.99382 2.99904 -0.00139873)
(2.99982 2.99447 -0.00221219)
(8.66285 -0.107967 -0.0159612)
(8.30309 0.140903 0.133226)
(3.59512 3.21134 0.152565)
(5.23496 1.70038 0.122072)
(8.18682 0.178738 0.240161)
(7.83671 0.0237996 -0.053737)
(8.33161 0.00487775 -0.00590249)
(3.10079 2.91062 -0.00720569)
(8.28061 0.0237823 -0.00462131)
(8.58298 -0.0575071 0.060949)
(3.0046 2.99715 -0.00333136)
(2.8508 -2.80177 0.0046221)
(2.98376 2.98512 0.000397296)
(2.99388 2.99346 -0.000606756)
(2.99941 3.00439 -0.00331579)
(3.00366 3.00441 -0.000421448)
(8.65448 0.0245892 -0.0380392)
(2.87174 -2.87122 0.00199903)
(2.99177 2.99221 0.000521113)
(2.98235 2.94327 -0.00377914)
(8.66197 0.0267066 -0.0480002)
(8.52083 0.0190628 0.00219229)
(2.8841 -2.84589 -0.00125365)
(2.83748 -2.80756 0.00409623)
(8.72917 -0.0411959 0.0751262)
(8.29522 0.00352352 0.0132384)
(8.28252 0.00834221 0.015514)
(2.87271 -2.86508 -0.00154845)
(2.98968 2.99039 0.00198174)
(8.28963 0.00589703 0.0151527)
(2.8738 -2.87142 0.000426903)
(8.19179 0.0224399 0.00211516)
(8.3764 0.0146622 0.0301523)
(8.39266 0.029535 0.0143269)
(2.88111 -2.85982 0.00780594)
(2.87325 -2.87475 0.00061495)
(2.87274 -2.87473 8.02848e-05)
(2.99977 3.00073 0.000938252)
(8.48836 -0.0398924 -0.0229958)
(2.99646 3.0005 0.00181079)
(2.99112 2.9882 -0.000109326)
(8.45554 0.0241017 -0.0349564)
(2.87339 -2.8745 0.00110959)
(8.32718 0.00234746 0.00985269)
(7.59886 -0.066541 0.0253389)
(3.01731 2.91499 0.0156835)
(8.51059 0.0238248 -0.0109769)
(4.01206 0.603935 -0.101287)
(8.40639 0.00854331 0.00421956)
(8.68952 -0.0289718 0.0216751)
(7.67763 0.0306453 0.00999883)
(8.69249 -0.00239629 0.0570138)
(6.28118 0.134743 -0.239996)
(3.57054 2.85601 0.0588459)
(8.38781 0.00508691 0.00302439)
(8.72591 0.0672772 0.0109791)
(8.51521 -0.0198877 -0.00812927)
(3.07197 2.67194 -0.0903095)
(3.82676 0.375612 -0.195957)
(4.5468 -0.326848 0.1555)
(8.39802 0.0112877 0.00532127)
(2.99128 2.99558 0.00401488)
(8.23604 -0.0187906 -0.0597691)
(8.41337 -0.00769853 -0.0176703)
(8.16507 -0.0707278 -0.130672)
(3.1368 -2.22161 -0.167226)
(2.87385 -2.87523 0.00128658)
(2.87079 -2.8709 -0.000117385)
(8.55448 -0.026632 -0.00230388)
(3.49758 2.89802 -0.0377966)
(8.12983 0.0280745 0.0111932)
(3.25324 2.96466 0.0412989)
(8.08285 -0.0172697 -0.0577642)
(8.31613 -0.0189539 0.00900139)
(8.22733 -0.00991278 0.0283185)
(8.52619 0.0203567 -0.00286339)
(2.9909 2.99091 -0.00101774)
(2.97767 2.96938 -0.00545926)
(3.06818 -2.79628 0.0141627)
(8.51369 0.0257531 0.00110889)
(3.00347 2.99498 -0.000797409)
(3.46348 2.978 -0.132405)
(8.70609 0.164481 -0.138261)
(3.00874 3.00498 -0.00191012)
(2.98535 2.99959 0.00884599)
(2.85736 -2.84809 -0.00483124)
(3.00141 3.00234 0.00101817)
(8.13968 -0.00336873 0.026)
(3.06089 2.90661 0.00581708)
(3.00034 2.99717 0.00106922)
(6.90601 0.971955 -0.707138)
(3.51075 2.83972 -0.0387934)
(2.98566 2.9872 -0.0247438)
(4.13462 -2.43796 0.151081)
(2.99802 2.99433 -0.00328427)
(6.66079 0.0258913 -0.0577394)
(8.30093 -0.013715 0.0206355)
(2.86217 -2.8625 -0.000229296)
(8.15969 0.00903251 -0.0225154)
(8.23308 1.33342 -0.184317)
(8.10544 -0.0777802 -0.130376)
(8.91427 0.330803 0.00625868)
(8.02876 0.00647583 -0.012438)
(2.99693 2.97641 0.00934082)
(8.41081 -0.0794797 -0.0895293)
(8.71361 -0.0296447 0.022192)
(8.10264 -0.0783634 -0.130362)
(2.87127 -2.87157 -0.000607972)
(8.8299 2.31629 0.618593)
(8.12093 0.0122033 0.011228)
(3.9942 3.18768 -0.189342)
(8.06476 0.00444499 0.00865812)
(8.79642 0.10982 -0.0841525)
(8.39935 0.169594 0.00878569)
(8.33018 -0.0238041 -0.0320997)
(8.33268 0.0277231 0.000754001)
(8.86831 0.130009 -0.0483007)
(8.54502 -0.0138137 -0.013383)
(8.46651 -0.0110365 0.0083631)
(2.9741 2.98514 0.0112162)
(2.98496 2.97003 0.00913179)
(8.17673 0.0217409 0.0109082)
(8.04253 0.00860249 0.0103208)
(2.99265 2.99972 -0.00129847)
(8.29012 0.00825708 4.36434e-05)
(8.68119 -0.0390889 0.00623122)
(8.48655 -0.0195474 0.00715299)
(2.99812 2.96711 -0.00117529)
(8.37033 0.168867 0.0370005)
(2.9906 2.98803 0.000297958)
(8.47082 -0.010822 0.00727824)
(8.49613 -0.0120526 0.00548378)
(2.99797 2.99643 -0.000473286)
(8.12103 0.0398162 -0.031481)
(8.47386 -0.0082377 0.00121398)
(8.33586 0.15802 0.0136925)
(8.20172 0.00145423 0.0330894)
(3.05938 3.00157 -0.00469901)
(8.56763 -0.0228702 0.0246249)
(8.36224 0.193029 0.00171712)
(8.81878 -0.206632 0.0571067)
(7.42588 0.0962164 0.0250238)
(6.63605 0.0208748 -0.0930618)
(2.99976 2.96894 -0.00530925)
(2.98988 2.98716 0.00235579)
(8.2257 0.112443 0.0147074)
(3.00171 3.00212 -0.000810102)
(7.18982 -0.0201651 -0.0211708)
(8.25954 -0.0435081 -0.0634129)
(5.03639 0.70144 -0.183616)
(9.15462 -0.588052 0.22114)
(8.07694 -0.363166 0.106696)
(8.99076 -0.322654 0.0889681)
(3.00093 3.00141 -0.000717203)
(4.07213 3.45773 0.0291966)
(8.54626 0.0206741 -0.00702559)
(2.85923 -2.87056 -0.00980382)
(1.58575 -1.11054 0.466033)
(8.45668 -0.160211 -0.12494)
(2.98783 2.98034 -0.00591638)
(3.00333 2.99947 0.000264635)
(7.5568 -0.147628 -0.0043503)
(6.17148 -0.400587 0.085875)
(3.00213 3.0029 -0.000159101)
(7.64528 -0.142793 0.0250785)
(2.98915 2.98648 0.00156599)
(2.99779 3.00271 -0.00509773)
(2.8705 -2.87093 -0.000424697)
(2.87422 -2.86791 0.00578815)
(2.81658 -2.79246 0.00943502)
(2.8684 -2.86266 -0.000326181)
(7.64007 0.0629407 -0.0286898)
(2.97666 2.95649 -0.00369709)
(2.99676 2.99817 0.000992023)
(2.98056 2.9961 0.00503389)
(7.11319 -1.57192 -0.410225)
(8.05148 -0.0665058 -0.146459)
(7.79933 0.00011062 -0.079607)
(8.54711 0.0189698 -0.00754647)
(2.98248 2.96318 -8.91334e-05)
(3.01022 2.99908 0.000134507)
(8.19023 -0.139641 -0.169859)
(3.00021 3.00101 -0.00363118)
(2.99774 2.99447 0.000699005)
(4.7774 2.74571 0.100787)
(8.7184 -0.117767 -0.00384992)
(8.53027 0.0198695 -0.00510986)
(2.99636 2.99536 -0.000302851)
(2.994 2.98881 0.00439471)
(2.98282 2.97398 -0.00392561)
(2.9878 2.98123 -0.000281972)
(3.00085 2.99942 -0.00317438)
(3.00749 3.00002 0.00149314)
(8.53586 -0.197952 -0.124466)
(3.00452 2.99554 -0.00010586)
(5.92176 0.0852214 0.200102)
(8.61124 -0.0199345 0.0229571)
(2.9975 3.00193 -0.000763626)
(2.85104 -2.86275 -0.00778661)
(2.8315 -2.80294 0.00353989)
(7.22081 0.085857 0.392268)
(2.81122 -2.80844 -0.0112278)
(2.8693 -2.87163 0.002813)
(2.98085 2.98575 -0.0186655)
(7.7351 -0.120888 0.00701804)
(2.98807 2.98706 4.29776e-05)
(8.48709 -0.110244 -0.0694439)
(6.77611 0.110302 -0.0345626)
(5.57081 0.00670599 0.224366)
(2.9891 2.99143 0.000848411)
(5.81517 -1.4936 0.120244)
(8.55428 -0.0157049 0.00311007)
(8.61556 0.0215615 -0.0218309)
(3.08374 -2.94451 -0.0338659)
(8.28423 -0.134359 -0.022285)
(8.45566 -0.0158932 -0.00946092)
(2.87441 -2.85414 0.0027594)
(3.09917 2.93944 0.013886)
(4.05373 -3.12408 -0.262445)
(2.98155 2.98097 0.000939348)
(8.5502 0.0162536 -0.00233683)
(8.54641 -0.0105162 0.0100349)
(8.69045 -0.105076 0.0435338)
(5.71179 -0.00669706 0.314619)
(3.00319 3.00156 -0.000410211)
(8.55281 0.0163922 -0.00362813)
(3.07826 2.92869 -0.00752651)
(3.74957 3.17104 -0.013055)
(3.86094 -3.00458 -0.125325)
(2.99757 2.99774 0.00115472)
(8.5743 0.0248325 -0.00519371)
(2.9879 2.98139 0.00179186)
(2.83999 -2.78918 0.00128695)
(7.82218 -0.107102 -0.195454)
(8.39905 -0.0199414 0.00881632)
(2.84239 -2.79556 -0.00732524)
(8.4333 0.0146321 -0.00484498)
(3.19398 3.12327 -0.0185854)
(8.56446 -0.0727539 -0.037507)
(2.8189 2.69585 0.0272196)
(3.00056 3.00214 -0.00109215)
(3.01325 3.00295 0.00988313)
(2.87464 -2.87544 0.000811274)
(8.29003 0.0124867 -0.0131351)
(7.43532 0.015492 -0.0330732)
(8.59062 -0.0290615 0.181779)
(2.9852 2.98794 0.00176984)
(2.98033 2.92626 0.0202601)
(8.24609 0.014992 -0.0138899)
(3.00134 3.0014 -0.00118154)
(3.48551 3.15423 0.0438663)
(2.87175 -2.86997 0.000329757)
(8.20574 0.051597 -0.00578381)
(8.73574 -0.215917 -0.0637091)
(8.55357 0.0208813 -0.00861602)
(2.86713 -2.86203 0.00661725)
(6.77254 -0.010651 0.188892)
(7.07088 0.00658642 0.181765)
(2.69476 2.37849 0.0167511)
(7.64574 0.0981097 0.154297)
(3.00237 2.98638 0.00291798)
(8.07967 0.0749534 -0.00771322)
(8.67229 -0.0146997 0.0510257)
(8.40421 0.00678296 -0.0151428)
(8.68229 -0.109187 0.0136416)
(7.97617 -0.174788 -0.245825)
(3.00065 2.99747 0.000721154)
(3.00063 3.00066 -5.44217e-05)
(2.99375 2.99777 -0.00039415)
(6.99388 0.0684239 0.251997)
(2.9719 2.94559 0.00334138)
(8.48904 0.0353386 -0.0148547)
(2.87048 -2.87024 -0.000329778)