/*--------------------------------*- C++ -*----------------------------------*\
  =========                 |
  \\      /  F ield         | OpenFOAM: The Open Source CFD Toolbox
   \\    /   O peration     | Website:  https://openfoam.org
    \\  /    A nd           | Version:  10
     \\/     M anipulation  |
\*---------------------------------------------------------------------------*/
FoamFile
{
    format      ascii;
    class       volScalarField;
    location    "47";
    object      SgP;
}
// * * * * * * * * * * * * * * * * * * * * * * * * * * * * * * * * * * * * * //

dimensions      [1 -1 -3 -1 0 0 0];

internalField   nonuniform List<scalar> 
111485
(
1.38437e-09
1.70201e-06
5.54933e-07
5.68471e-12
1.40874e-07
2.5069e-09
2.69301e-07
1.06117e-08
2.58412e-07
2.44719e-08
5.08093e-07
2.07599e-08
1.31578e-07
0.00517137
1.32934e-07
2.70885e-07
0.00367627
1.60599e-05
1.6717e-08
2.52038e-08
0.000692771
2.32682e-10
5.03615e-08
1.76402e-07
9.07827e-07
2.17409e-09
2.07373e-08
3.15282e-07
4.87803e-08
0.000902602
6.49056e-08
3.15328e-09
6.32275e-09
2.55536e-08
1.34872e-05
1.80201e-06
0.00241817
0.00362997
4.26365e-05
7.00369e-08
0.000722328
1.63057e-08
5.33815e-08
2.02716e-06
2.92891e-07
3.90991e-08
1.22907e-07
1.51498e-08
1.29288e-07
1.45418e-08
2.91042e-08
3.57155e-07
1.03744e-08
1.77427e-07
3.48859e-08
1.17023e-09
2.8136e-08
4.18567e-10
8.7015e-07
8.50757e-09
1.85027e-08
5.82181e-09
1.87176e-06
1.10326e-07
1.50031e-07
5.30454e-07
6.82166e-06
2.397e-08
1.42307e-06
3.03403e-06
9.47473e-07
2.01971e-06
2.14912e-07
1.76264e-06
5.78044e-09
2.63165e-09
1.10977e-09
1.46865e-08
1.98257e-09
5.2856e-07
0.00496743
0.00922152
9.2582e-10
2.18108e-09
3.3158e-07
7.52967e-07
0.00249485
1.40277e-07
4.39192e-06
1.4367e-07
2.88636e-08
1.25215e-07
9.04364e-07
7.60679e-09
3.9919e-08
4.24023e-10
0.000505063
2.71553e-07
2.88584e-05
8.30219e-06
5.732e-10
5.61726e-08
3.54574e-08
2.27759e-07
1.30215e-07
2.58612e-07
1.91536e-10
3.78671e-09
2.55834e-07
1.17405e-05
8.68574e-07
2.11243e-08
2.45832e-07
1.36248e-06
5.62486e-09
6.34992e-09
1.55463e-09
1.64877e-07
4.67894e-07
1.56427e-10
1.14717e-09
3.36012e-06
0.00124904
4.51686e-08
8.30724e-07
0.00053091
1.97703e-06
3.07772e-07
1.75404e-11
5.55451e-06
2.83607e-06
3.67363e-07
0.000884791
3.17136e-06
1.47742e-06
3.6344e-09
1.99941e-10
1.19788e-08
2.25156e-07
4.15267e-07
1.36907e-06
2.84864e-09
0.00316996
1.74207e-06
5.94226e-07
5.0981e-08
2.31938e-10
8.22582e-10
2.22167e-09
1.95516e-08
6.0223e-07
0.000530749
0.00197861
2.63285e-07
1.18355e-06
1.51606e-09
7.46276e-08
3.00117e-06
1.61733e-05
1.09077e-07
6.82319e-11
5.18911e-09
7.22406e-07
1.11859e-06
1.34663e-06
9.54836e-07
1.1952e-07
0.000451772
2.74852e-05
2.20709e-06
4.09111e-11
2.10836e-09
0.00347449
2.67547e-11
6.3293e-09
6.60659e-08
7.98581e-09
1.61555e-07
4.07454e-09
9.78217e-08
1.49922e-07
4.99917e-09
2.63828e-08
7.36194e-09
5.02245e-08
4.05378e-07
1.95949e-07
8.24172e-07
6.4427e-06
5.53959e-09
1.12654e-06
9.02884e-08
1.31592e-07
3.8992e-07
1.10792e-07
2.33782e-07
5.45405e-08
2.78583e-08
2.00856e-08
1.54677e-07
3.50597e-08
2.79334e-05
1.44783e-06
1.05838e-08
3.05502e-08
1.01579e-07
2.17864e-07
1.98428e-07
2.90219e-07
6.62243e-08
8.2858e-08
1.45431e-07
1.42127e-07
1.22137e-10
1.5798e-06
5.05622e-06
6.99084e-09
2.94678e-10
2.23069e-07
3.61278e-07
1.80529e-08
1.35316e-09
3.18935e-07
2.66244e-07
5.06253e-06
1.16534e-10
2.22119e-11
6.61981e-07
7.37765e-05
4.09141e-07
1.73034e-06
2.86087e-07
2.37812e-08
0.00255587
6.52387e-07
2.53882e-07
0.00284542
1.38286e-09
1.03609e-06
4.86796e-07
4.57784e-07
5.89559e-07
1.10385e-07
7.49335e-08
3.30203e-05
6.60539e-09
1.44423e-07
1.48106e-09
1.06274e-07
0.00240156
3.58153e-07
3.37949e-07
3.83359e-07
2.5106e-11
3.63667e-06
1.51806e-08
5.70446e-09
1.20238e-06
0.00180418
1.55973e-09
1.10161e-07
1.06916e-06
1.98226e-08
6.55626e-11
1.13302e-07
1.61359e-11
9.67945e-10
1.2452e-08
0.00297159
6.62256e-08
5.68862e-07
1.89442e-08
0.00311025
3.69639e-07
1.71005e-08
4.2475e-06
7.42878e-08
2.77393e-08
9.42438e-09
1.83474e-09
0.00203557
1.02912e-08
7.75465e-07
4.33009e-07
2.68478e-11
0.00382543
0.00466932
3.5124e-08
6.15944e-06
5.94353e-07
5.86372e-08
1.49413e-07
2.44171e-07
1.64565e-10
1.32186e-07
3.22309e-10
6.30532e-06
4.93545e-06
2.86846e-07
3.6149e-08
0.0060606
6.04124e-09
0.00144089
1.44414e-08
1.28055e-07
2.31894e-10
2.2018e-09
0.000461981
6.42427e-08
3.22451e-08
1.30237e-07
2.96089e-06
7.69342e-09
4.57453e-07
7.73368e-10
3.91482e-09
8.70628e-08
7.63056e-05
0.0044125
5.8777e-08
1.38581e-05
1.76436e-10
1.02266e-09
4.48318e-10
1.49254e-06
2.7434e-08
1.504e-08
5.71653e-08
1.32837e-08
1.3208e-06
0.00112863
9.7212e-08
1.00072e-08
5.62179e-08
3.27024e-08
0.000795762
9.2659e-07
1.07582e-08
1.62036e-08
1.71825e-08
2.35614e-07
2.70541e-09
0.00264777
4.36119e-06
8.53443e-09
6.64616e-08
4.85739e-06
1.19435e-08
0.000652054
2.62822e-09
2.12607e-07
1.05842e-07
8.87788e-09
3.61414e-07
1.75632e-07
6.85893e-09
9.12802e-09
2.1781e-08
5.58705e-08
0.00634442
5.44275e-07
1.38144e-09
0.000882313
3.29611e-07
4.19945e-10
8.77501e-09
2.11295e-09
0.000880215
1.23662e-05
0.000856222
0.000824261
6.26152e-09
2.16556e-10
2.97923e-08
5.10275e-08
3.4573e-11
1.84146e-07
4.71043e-08
2.82918e-07
5.06867e-07
2.54418e-06
8.47043e-08
1.25868e-05
2.61135e-08
9.11352e-08
8.79703e-07
1.23039e-08
1.25693e-05
5.51639e-09
2.34956e-07
5.85455e-08
0.0005038
1.99466e-09
1.29946e-09
0.00272042
1.21772e-07
0.00538815
7.80738e-09
1.13607e-07
6.17727e-08
1.32933e-10
9.75568e-08
8.28461e-07
1.68744e-09
0.000596786
8.05598e-08
4.9472e-08
1.66368e-08
3.20183e-10
1.31537e-05
3.44543e-10
1.61636e-07
6.6881e-08
1.46505e-12
1.60782e-08
9.10577e-07
0.00433045
2.59846e-06
3.90166e-11
1.44126e-06
1.7546e-06
1.76292e-06
6.61162e-07
1.17669e-05
4.49143e-08
1.95313e-05
9.38528e-07
0.00359003
4.17594e-06
3.80651e-09
1.3478e-07
2.58436e-08
1.94482e-09
2.43365e-05
3.89481e-06
1.38905e-06
2.95463e-08
3.10986e-08
2.34653e-07
3.65189e-09
0.00614943
3.81342e-08
6.03658e-07
8.44714e-05
1.69372e-06
2.47109e-05
1.23025e-09
0.00449312
0.00581331
4.12544e-10
6.51734e-07
5.25447e-06
1.99391e-06
6.19461e-11
4.72273e-07
4.32285e-10
0.00501136
1.34772e-06
3.70847e-07
2.0812e-06
5.39711e-07
4.64596e-09
8.49867e-08
1.35134e-08
1.33571e-06
2.9313e-09
1.7945e-08
0.000977568
1.74097e-06
1.79137e-09
2.07693e-09
7.28399e-06
1.54093e-09
3.14537e-08
7.99756e-08
6.74822e-11
1.06201e-06
1.66797e-09
0.00138476
8.49058e-09
4.47079e-08
3.12661e-09
4.26437e-06
8.8744e-09
0.00396979
3.93132e-07
0.00416007
5.36221e-10
1.14432e-06
4.68536e-08
6.07772e-11
0.00646755
0.00251512
5.32038e-07
7.02719e-08
5.64924e-07
1.49896e-08
2.54913e-07
6.11431e-09
6.94998e-07
0.00507386
1.05618e-09
2.06663e-08
1.95301e-06
3.25399e-07
0.000986903
1.04586e-07
2.01824e-06
3.06398e-08
2.78987e-08
1.31963e-05
0.00136538
2.38057e-07
9.68753e-09
2.21297e-08
7.68249e-08
6.03232e-08
2.3111e-08
4.01948e-07
2.10291e-11
3.04963e-05
2.08493e-09
6.53167e-09
4.78966e-09
1.78417e-06
4.99519e-10
1.48205e-07
4.12014e-09
1.6418e-07
1.32592e-09
0.00205238
0.00198847
4.46359e-07
6.92552e-09
0.00108549
0.00142055
5.72469e-09
4.1669e-09
2.69994e-07
3.84792e-09
2.69896e-06
2.85635e-07
2.30898e-07
0.000795454
3.85633e-08
9.22757e-11
8.26746e-07
7.38068e-07
1.13157e-06
2.17619e-08
3.41111e-07
2.60556e-07
2.54321e-08
1.87758e-08
4.11728e-07
6.29389e-07
1.5478e-10
0.00225868
1.30997e-06
8.71281e-07
3.44381e-08
2.07401e-05
6.32366e-07
8.70562e-06
4.06362e-05
6.15125e-06
4.60488e-08
1.69844e-06
2.27845e-07
4.2831e-07
0.00201691
3.53231e-06
1.31332e-06
6.5494e-05
0.00135808
5.95843e-09
1.14809e-06
8.13619e-08
6.16796e-07
1.09811e-08
8.78735e-06
4.86265e-05
9.31559e-06
2.94444e-06
4.6602e-07
1.95581e-08
6.48807e-09
3.41762e-06
2.90016e-08
1.45107e-09
5.37577e-11
9.06005e-09
7.70561e-10
3.96145e-07
2.99481e-11
0.000651099
2.7514e-07
6.17576e-07
0.0018097
0.00561972
1.01688e-06
3.20922e-08
0.000691469
6.9167e-10
3.93526e-07
3.29868e-09
9.96104e-09
8.02559e-07
4.57329e-07
0.00208411
5.17171e-07
4.01621e-09
6.43744e-08
5.94663e-07
0.00253008
1.40816e-07
5.37463e-07
1.04059e-06
0.00345444
0.000696069
5.43219e-08
3.39124e-07
1.31935e-07
4.3783e-08
1.54063e-07
1.61523e-08
6.61874e-07
7.26877e-08
3.51073e-08
2.1524e-08
7.61111e-08
1.27744e-05
5.42976e-07
6.48004e-08
7.46973e-08
1.22776e-05
4.95678e-09
8.93584e-09
2.93768e-07
8.33336e-08
3.00296e-07
2.18526e-08
6.92459e-08
6.86799e-08
5.44104e-07
3.15351e-06
2.87452e-07
5.7634e-07
3.11222e-08
9.51121e-09
8.00357e-07
9.93211e-08
2.15654e-09
0.00129589
6.39125e-10
0.00241366
1.00561e-06
0.000238841
1.30671e-08
0.000492524
8.22943e-08
2.20755e-07
3.26448e-10
1.86456e-07
6.00084e-09
4.1409e-10
2.01069e-08
0.0049797
2.1717e-06
5.64659e-07
0.000762504
2.28005e-09
4.16863e-10
1.12872e-07
2.96428e-08
1.489e-06
9.77764e-09
2.40117e-06
6.48506e-10
1.32479e-07
2.30924e-06
0.00294916
9.20596e-12
3.68683e-09
2.79775e-08
3.67064e-10
2.27501e-06
9.10508e-09
0.00104532
1.33514e-08
1.12968e-09
4.48098e-09
0.000759289
9.05999e-08
2.85314e-06
1.87046e-11
8.43447e-05
1.55908e-05
0.0031882
2.53244e-10
2.56357e-09
8.34957e-08
4.7466e-07
7.51536e-07
9.57523e-06
6.47766e-06
4.5917e-06
1.08139e-07
0.00105399
5.30525e-07
1.99442e-08
1.45571e-09
2.46618e-08
4.94959e-09
3.78895e-09
1.14109e-09
2.6332e-11
3.42697e-08
1.36233e-09
8.44047e-09
1.95971e-08
3.04451e-09
9.41037e-09
4.709e-09
1.48683e-08
4.36324e-09
3.11154e-07
3.03961e-07
8.78247e-09
7.23194e-10
4.26011e-07
2.14413e-11
1.55282e-06
3.24847e-08
7.95698e-08
2.94465e-09
8.54785e-11
2.23596e-10
4.53666e-11
3.21899e-07
2.07297e-09
1.18418e-08
3.86723e-07
2.21045e-10
2.80884e-07
1.41951e-06
6.95272e-08
1.4704e-08
9.50812e-06
5.66204e-08
0.00443737
2.00057e-06
2.06225e-07
0.00376551
1.47781e-06
1.56819e-07
5.34994e-07
1.04369e-08
3.44798e-07
0.00169271
1.23392e-05
1.37373e-08
3.91552e-09
2.46068e-07
1.53584e-06
1.77289e-06
1.36632e-06
7.57959e-11
4.74191e-13
1.26762e-08
6.7255e-07
7.16942e-08
6.9585e-08
3.23446e-06
4.65217e-08
5.97455e-07
1.56988e-10
2.8591e-09
0.000558347
1.99865e-07
4.78433e-09
2.09396e-09
8.88152e-07
2.26913e-06
3.38362e-08
8.19116e-09
0.000759995
3.61274e-11
5.51556e-07
0.00106067
6.47133e-10
0.00125278
7.65074e-07
0.000617688
8.84977e-06
5.5372e-09
5.17497e-07
3.36612e-07
0.000852482
9.91286e-07
2.26377e-05
0.00285744
2.06134e-06
2.65023e-07
2.11222e-08
1.13556e-08
0.00855766
0.00286184
3.18643e-09
0.00418716
2.80788e-07
2.95989e-06
6.38843e-07
3.71033e-07
2.07849e-05
7.04605e-07
2.44026e-07
1.28522e-07
1.32976e-08
2.36907e-08
0.000765769
3.70309e-09
1.02356e-06
6.08247e-07
9.86688e-10
7.59914e-08
0.00383103
9.07737e-08
6.20795e-09
1.06523e-05
8.16116e-10
1.95613e-08
0.00372348
7.82449e-09
0.00312999
0.00598936
2.28684e-05
3.76181e-07
1.87209e-08
6.26159e-08
1.0497e-06
4.62388e-06
2.04244e-05
5.37961e-06
7.88603e-08
0.000762802
1.99286e-06
6.0614e-10
6.37125e-06
5.20156e-06
1.15494e-05
8.36275e-06
1.60279e-05
3.06875e-06
1.03328e-10
1.30638e-06
7.13854e-09
1.3805e-08
2.66296e-05
0.00614162
4.3458e-09
5.61186e-09
5.71981e-05
6.2814e-05
4.22565e-11
1.12236e-05
9.90202e-09
2.28861e-10
3.46056e-10
7.70124e-09
1.06239e-07
8.23841e-09
1.37287e-06
0.000856337
5.60394e-11
1.36588e-08
7.9076e-05
0.0020564
1.44496e-06
1.26097e-09
0.000544609
6.98059e-11
2.46546e-06
5.2795e-10
8.49339e-10
1.07768e-05
0.00229195
3.37925e-08
2.00233e-09
3.2694e-09
0.000593827
8.50343e-09
0.000388429
4.64656e-09
2.16029e-06
1.37929e-10
3.8539e-05
4.36475e-08
4.31656e-11
1.79274e-08
9.80894e-09
2.73081e-05
1.61766e-08
3.50822e-09
3.52936e-08
8.49963e-05
0.000907107
1.33076e-06
1.04793e-05
2.04347e-05
4.01371e-09
2.25288e-05
1.8091e-07
3.57594e-09
4.96941e-08
4.27936e-06
3.79222e-07
4.6127e-09
1.56665e-07
2.78719e-06
4.13834e-09
1.17168e-08
1.63755e-08
3.24522e-07
0.00125652
9.57276e-11
1.52589e-09
0.00101243
2.11832e-06
1.35913e-06
2.92054e-10
2.3705e-08
2.85963e-09
1.95947e-08
4.45971e-07
1.04404e-06
1.77935e-08
4.72911e-07
4.4234e-07
1.46835e-06
3.97181e-07
9.29225e-11
6.24094e-08
8.01324e-11
1.32439e-08
1.62582e-06
3.01974e-06
3.6359e-09
8.65296e-09
1.74065e-08
8.05597e-11
7.79635e-07
9.30449e-09
1.2589e-06
1.53333e-05
1.44621e-06
4.79711e-09
2.68812e-05
2.09907e-06
1.31465e-06
2.78891e-06
8.90377e-10
2.69657e-06
6.31499e-08
0.00206704
6.18139e-07
1.79967e-06
8.95174e-09
1.29788e-11
1.27985e-09
0.0032851
0.00125597
9.89968e-07
8.16829e-12
2.40521e-06
6.45407e-10
0.00304156
3.38969e-06
1.51948e-08
2.53256e-09
4.84427e-08
1.55982e-08
1.68754e-06
4.40789e-08
2.09688e-06
0.0054915
9.18671e-08
1.28962e-06
5.24992e-07
1.33702e-06
9.23638e-07
7.85424e-09
1.17072e-11
8.02697e-08
5.73597e-07
4.74653e-09
3.75566e-09
1.06495e-05
6.8432e-09
5.74662e-08
0.00738021
2.72616e-08
1.21204e-06
1.22478e-11
8.30784e-08
3.79216e-09
0.00584159
3.90006e-10
0.00214937
0.00010572
2.32388e-06
3.31648e-07
3.01933e-07
1.78111e-05
4.60108e-08
8.89032e-08
4.83015e-08
8.72927e-09
1.29218e-08
3.82991e-08
1.52558e-06
5.64417e-08
0.00118882
4.63508e-09
9.7223e-08
5.78297e-06
9.26973e-11
7.3192e-06
4.58339e-09
8.51908e-07
1.40997e-05
2.35005e-09
4.18313e-09
1.17046e-06
9.79819e-09
1.67925e-07
0.00321133
9.45026e-09
1.82557e-07
1.30891e-10
0.000778553
1.59096e-07
1.22216e-08
1.13338e-08
8.1008e-08
1.32744e-07
1.4148e-09
0.00270467
2.04412e-08
5.05487e-11
2.28494e-06
8.18859e-09
1.35745e-10
8.21487e-07
1.59003e-05
1.45982e-05
4.40404e-10
3.40578e-08
8.41203e-10
9.82896e-07
8.68388e-07
0.000643251
1.06228e-07
1.45173e-05
1.25369e-06
2.06156e-05
5.24882e-07
5.38652e-08
2.20309e-08
1.29478e-08
1.31124e-06
3.97913e-08
1.42323e-07
0.000820171
5.23529e-06
0.000801463
4.27024e-11
1.7939e-07
1.79962e-09
1.40679e-06
1.68382e-06
1.13146e-07
8.85954e-07
8.34688e-06
2.69795e-06
1.54363e-11
0.000116177
0.000144173
1.87036e-06
7.71651e-07
1.94762e-08
1.55657e-05
3.69377e-08
7.28019e-08
7.13196e-09
1.18329e-09
4.37805e-06
1.53433e-07
1.64564e-05
1.51723e-08
0.000792904
1.13315e-05
1.60515e-08
1.97296e-08
1.11776e-05
5.88224e-08
0.00104032
0.00493555
2.31334e-06
4.2371e-06
1.11884e-07
6.17464e-10
5.38488e-10
2.90511e-09
1.26659e-06
8.53751e-08
0.000582785
0.00102664
5.66394e-07
5.61707e-09
5.67325e-06
0.000704168
4.6078e-07
2.11177e-05
4.41554e-05
0.00073921
0.00215085
0.000859549
2.62046e-06
1.58103e-10
3.59004e-05
3.18831e-08
3.35527e-09
4.58645e-09
5.52243e-09
5.20683e-07
1.29796e-09
3.29825e-09
1.5881e-06
2.33731e-09
2.47108e-10
1.71512e-08
3.36239e-09
0.00100099
1.1624e-07
6.17794e-07
0.00129168
0.00464949
1.99508e-09
0.00333596
3.19757e-06
0.00688115
1.22895e-07
1.37167e-09
1.89734e-09
8.08589e-07
0.00464632
3.77112e-11
2.29423e-05
3.07717e-09
8.71629e-08
2.90071e-07
2.33211e-07
2.68406e-08
5.83673e-09
0.00131169
2.59046e-09
1.40859e-07
4.75654e-09
9.23066e-09
9.92162e-09
8.88059e-06
2.18858e-06
1.98463e-08
6.55524e-06
3.94913e-07
9.8985e-09
2.31572e-06
2.20534e-08
6.5289e-07
3.7713e-09
2.31561e-09
0.00450909
0.000743948
7.84337e-06
6.0117e-09
6.77021e-10
2.99493e-08
0.00344444
6.56694e-09
2.06938e-07
1.48995e-08
4.23839e-08
5.34446e-10
0.000596832
2.40079e-06
3.20191e-09
2.01023e-08
3.20837e-07
3.17057e-09
0.00318088
3.65149e-10
0.000756227
1.47292e-06
9.52635e-08
3.21119e-10
3.90308e-08
2.49542e-08
1.89038e-09
4.7708e-08
7.48632e-08
2.24702e-11
1.21895e-10
1.77593e-06
0.00136757
2.60129e-10
6.74688e-07
9.44691e-08
1.81594e-06
2.77861e-09
0.000821964
3.21233e-08
1.10532e-06
1.06394e-06
7.66516e-09
1.09699e-06
4.86135e-08
3.12694e-07
3.46346e-09
6.45344e-09
2.64075e-07
1.39461e-09
3.28464e-06
8.96688e-07
1.25041e-09
5.76699e-09
2.49708e-06
9.51306e-06
0.00545054
2.49773e-09
1.11949e-07
3.95412e-08
6.64159e-06
3.65932e-06
5.24201e-07
1.55244e-06
0.00135967
7.08639e-08
9.53366e-07
1.39487e-05
0.00115441
1.52408e-08
9.33001e-10
7.35659e-06
2.10234e-08
0.000707508
4.90257e-09
2.08054e-07
2.3054e-08
4.34499e-09
0.0041003
1.18204e-09
1.08727e-08
1.5005e-08
4.67579e-07
0.00540865
0.000971275
8.77441e-09
2.43229e-09
7.5707e-11
1.11182e-08
1.06783e-08
1.74641e-08
2.98766e-09
1.34349e-10
3.90708e-09
1.9285e-10
5.3933e-09
0.001066
0.000635181
2.09853e-10
2.61852e-07
4.08715e-09
8.41086e-09
2.09642e-09
0.000622969
0.0015455
1.98227e-07
4.37048e-09
1.38165e-09
1.65514e-08
3.40557e-08
8.82732e-08
5.81967e-09
6.44447e-06
4.99571e-09
5.41066e-08
9.09246e-08
3.19837e-06
9.95285e-08
1.36756e-05
4.25299e-08
4.8756e-09
8.35354e-06
7.94967e-06
6.12318e-09
4.87875e-07
6.34632e-08
2.37416e-07
8.17974e-07
1.74893e-07
7.39152e-08
3.46478e-09
0.00583232
2.2146e-08
9.71249e-07
0.00106923
2.39102e-06
2.68491e-07
3.3498e-07
6.02594e-08
1.38114e-08
5.11744e-07
1.52848e-06
1.38807e-06
8.03862e-08
7.92964e-07
6.97747e-08
3.65224e-08
1.41709e-08
1.48958e-10
7.88515e-09
5.61367e-10
9.95872e-12
2.75787e-09
1.66104e-08
1.12724e-07
2.37092e-09
3.49968e-11
8.11403e-09
3.1074e-07
6.46244e-09
2.12371e-10
1.46908e-08
4.15418e-08
2.35317e-09
1.85954e-06
1.29708e-07
0.00437925
2.2501e-09
2.04634e-07
3.66952e-07
7.92371e-08
4.04112e-10
1.04458e-08
0.00396436
9.40796e-09
2.91495e-10
6.48008e-08
0.00398097
1.53075e-08
1.13174e-06
1.1182e-06
2.99153e-08
1.7572e-07
2.12567e-07
6.91131e-06
2.67271e-10
8.27198e-07
1.05568e-07
3.59833e-09
5.23383e-06
7.25337e-06
0.0034689
1.36051e-07
3.03671e-08
1.91903e-07
6.98886e-07
3.56418e-07
1.22931e-08
4.39026e-05
3.95946e-09
1.29e-05
6.88324e-06
0.00113131
1.42842e-07
0.00456702
4.87648e-09
1.90958e-08
1.02288e-07
3.95702e-07
9.96696e-07
7.15812e-08
2.54576e-06
9.62597e-10
1.66103e-07
4.16775e-10
2.1729e-10
2.57654e-08
7.70218e-06
5.47487e-09
3.6243e-10
8.06143e-06
5.44527e-09
9.65409e-06
4.61472e-08
1.51326e-08
3.02612e-08
2.87876e-09
3.66105e-07
9.83076e-08
3.7466e-06
9.16978e-09
1.26569e-07
6.33955e-05
3.10983e-08
3.14079e-10
2.69205e-06
6.54553e-08
6.00475e-07
9.09861e-10
0.00253825
2.28834e-06
9.71796e-07
3.66725e-08
6.15335e-09
3.78451e-06
1.00342e-07
2.75437e-09
7.92185e-11
1.25861e-06
1.41453e-06
1.50419e-06
0.00343215
8.51017e-08
1.46879e-07
4.71129e-06
1.45256e-07
1.08865e-07
4.13752e-08
1.23759e-06
4.81737e-08
2.26341e-06
0.00324699
2.73748e-07
3.16719e-13
5.5356e-08
1.08574e-06
2.66905e-07
4.83523e-09
1.13018e-05
1.51966e-05
8.57312e-06
1.73728e-05
3.57655e-07
9.01565e-07
2.34252e-07
3.844e-07
6.38602e-09
4.24579e-10
0.00186857
9.46739e-06
3.95417e-08
2.56739e-05
1.09003e-07
5.26314e-07
8.92826e-06
8.64454e-08
4.97759e-08
5.96386e-08
6.59268e-10
7.81905e-07
5.99604e-07
2.28434e-06
7.24881e-07
6.25313e-09
8.51035e-09
4.19128e-07
1.79865e-08
5.49809e-10
5.98211e-06
8.98228e-08
1.82477e-07
8.22118e-07
6.67004e-08
2.81399e-09
9.77917e-06
0.00242986
1.34528e-08
4.15322e-10
1.02647e-10
0.00253896
0.00438333
7.35292e-09
0.00100116
1.64968e-07
4.18614e-07
1.4609e-07
1.62907e-07
2.49096e-07
3.08553e-07
6.00034e-07
0.00195957
0.00599037
0.00691055
2.16199e-07
5.95655e-07
2.36201e-07
1.45212e-07
0.0063537
6.27344e-10
0.00306229
4.43021e-07
5.90234e-10
6.99357e-09
1.01512e-08
7.31593e-09
1.44837e-09
3.7306e-09
1.19129e-09
0.00242423
1.229e-09
7.10211e-07
3.64854e-06
4.29682e-10
8.72007e-08
1.24798e-07
1.05532e-07
2.05179e-09
1.08646e-05
1.00919e-07
2.41836e-08
1.48859e-06
1.04097e-07
6.36296e-07
1.22338e-07
2.07069e-08
3.35782e-09
3.80889e-07
5.44051e-05
9.27828e-07
9.05377e-09
3.17416e-07
1.96551e-08
4.88698e-07
2.39233e-06
2.47689e-07
9.87461e-08
8.86909e-08
2.22884e-08
1.05971e-06
8.79796e-09
2.26292e-07
0.000764446
7.35994e-06
0.0057729
1.29749e-05
1.84111e-06
2.67981e-10
0.00114893
7.87649e-10
1.13477e-06
1.274e-07
2.30315e-07
1.62465e-06
1.32415e-08
5.798e-09
7.52236e-07
1.86966e-08
1.66153e-09
4.78341e-07
1.011e-08
4.57312e-07
0.00131566
4.52961e-09
6.93091e-07
2.53404e-08
2.19672e-08
3.00525e-10
4.28576e-06
1.76865e-06
8.57399e-08
7.09503e-09
2.22547e-08
0.000831516
3.94378e-06
2.19997e-07
3.10835e-07
6.45028e-11
3.81871e-12
1.30079e-08
3.09928e-10
8.65669e-07
5.61851e-09
3.94285e-07
3.22423e-08
5.98448e-09
9.75991e-08
6.45845e-10
1.09844e-06
1.5309e-06
8.3249e-07
8.64206e-09
2.08489e-09
1.99024e-08
3.2621e-08
9.92756e-06
2.89009e-08
0.00283362
5.01459e-07
3.99042e-09
6.22921e-09
4.12543e-06
2.77534e-07
1.98993e-05
3.20067e-08
1.91931e-06
0.00412953
2.59822e-10
5.75784e-06
3.57938e-07
0.000796126
2.88463e-08
0.000886361
0.00154926
2.18196e-06
1.37025e-07
3.26802e-07
8.05918e-10
2.80962e-07
4.66095e-07
6.42324e-06
3.25967e-07
9.00569e-08
4.46325e-07
7.05145e-06
6.26485e-06
8.21674e-06
2.74818e-06
1.86073e-09
1.73636e-06
1.47943e-05
1.03956e-07
6.18526e-08
4.21914e-06
3.58516e-06
2.85602e-07
3.15795e-07
4.52278e-06
2.78969e-07
7.00114e-06
4.53002e-06
3.85727e-07
6.55905e-10
6.43284e-07
8.06935e-06
0.00123979
4.74001e-08
2.12927e-08
7.95789e-07
2.68923e-08
1.41762e-06
1.51298e-08
6.84102e-06
9.40118e-09
1.62332e-06
4.50431e-09
3.64246e-09
2.38696e-07
1.64603e-05
2.29707e-05
0.00594397
2.44747e-07
2.95631e-08
2.0155e-09
7.70057e-06
4.23767e-07
0.000562508
0.00131328
1.85311e-11
1.40033e-05
1.28787e-06
8.82237e-08
1.0444e-08
2.25739e-05
2.02492e-08
0.000799703
4.04948e-09
2.71591e-10
5.27609e-07
2.03061e-08
3.40017e-08
6.89341e-07
0.00073695
3.58045e-07
1.59597e-08
1.65402e-06
0.00388368
0.000719259
1.04105e-07
5.33728e-06
4.59438e-07
1.00725e-05
8.97062e-08
0.000698378
8.66522e-07
3.5064e-06
3.12122e-09
8.41498e-09
8.66665e-08
1.39177e-08
3.82772e-07
3.30979e-08
1.22142e-08
4.4532e-08
8.35962e-08
1.80077e-06
5.50702e-10
1.20186e-08
0.00134083
1.64832e-10
1.6347e-09
8.08162e-07
8.36918e-09
4.44834e-06
6.24538e-07
0.00110274
3.75397e-07
0.0045888
2.85428e-07
3.63585e-07
0.000745019
3.05903e-06
9.3035e-12
1.62358e-08
0.000523464
2.34313e-07
1.56919e-06
3.27983e-07
1.28352e-09
1.32117e-07
1.49535e-07
1.9885e-08
0.00223865
3.55873e-08
2.29279e-08
4.48017e-08
1.23147e-08
1.09151e-09
1.72256e-06
5.92582e-08
0.00480395
1.63125e-06
6.40959e-07
7.87411e-07
1.002e-06
3.73519e-07
5.72994e-08
1.10596e-10
7.18407e-09
1.7476e-06
3.8188e-07
7.31478e-08
5.63034e-09
2.50436e-07
1.88912e-08
9.32598e-07
6.23608e-09
1.3127e-08
2.88131e-08
5.84582e-07
4.25168e-07
6.23625e-07
4.7952e-09
5.14178e-09
3.24249e-05
7.01715e-09
1.48852e-09
1.57417e-10
1.97421e-08
0.00544423
5.33082e-09
3.24178e-06
1.28904e-06
4.47644e-07
3.22858e-09
1.69334e-08
3.83024e-06
1.45247e-07
4.89986e-09
8.03227e-07
2.18418e-09
1.67833e-09
5.78757e-10
1.5836e-06
4.88601e-09
0.00576638
9.30396e-06
6.94345e-07
3.44168e-05
5.40925e-09
3.07879e-07
9.6641e-10
0.00110659
1.57057e-07
1.11784e-07
3.35461e-08
2.09808e-08
1.25705e-09
0.00839485
3.58024e-07
9.06657e-06
1.25388e-06
2.22742e-08
0.00214823
1.57227e-08
6.42507e-09
1.05876e-08
1.03071e-08
8.32397e-07
1.03287e-08
4.71058e-07
5.44846e-07
1.00693e-05
5.56988e-08
3.24546e-10
3.21041e-06
9.60426e-09
0.00274634
5.1453e-08
5.86416e-09
2.7801e-08
3.5822e-07
0.00114294
0.000558916
3.45817e-07
9.53944e-07
0.00167385
6.05466e-08
5.63179e-07
0.000784298
2.22024e-07
1.0783e-07
0.00303493
0.000348768
1.71136e-07
6.39212e-07
1.6858e-09
7.38812e-07
3.018e-05
1.8799e-07
1.79782e-07
6.48558e-06
3.37891e-10
0.000430889
2.56367e-09
4.96272e-07
0.00343985
2.5983e-09
2.22489e-07
1.08083e-07
9.00839e-09
1.00151e-08
9.94865e-07
1.22257e-08
2.79962e-09
6.19303e-07
2.14413e-07
8.78355e-10
0.000432118
0.000820501
1.82882e-07
6.99838e-12
1.36933e-10
2.6396e-06
2.89677e-07
9.36517e-08
5.21652e-09
1.00442e-08
2.49065e-06
1.39004e-06
8.80433e-07
1.65118e-06
0.00638669
1.21821e-10
0.00246815
3.40147e-07
9.40118e-08
0.000939761
2.8596e-08
9.8702e-10
0.000426421
7.48523e-11
1.25715e-07
1.07355e-07
5.48767e-08
1.72486e-08
6.46302e-09
1.79595e-10
6.26434e-10
3.69118e-07
0.00231328
0.00373132
7.50051e-07
6.75068e-08
4.95914e-12
0.00104275
0.00397841
5.7926e-06
2.45628e-08
6.38598e-09
2.20919e-05
4.03508e-06
3.625e-09
5.84134e-10
1.75171e-08
1.34478e-07
2.39182e-09
1.75637e-07
1.36255e-06
0.00111282
0.00359472
1.00455e-06
1.39789e-05
2.26474e-10
1.18293e-08
5.31327e-07
2.42831e-06
5.28631e-07
7.47633e-06
1.64534e-07
2.57746e-07
2.05666e-09
9.66535e-09
2.76933e-07
0.00108574
6.16994e-09
0.00313142
7.82565e-10
2.05003e-07
4.50361e-08
3.44826e-07
5.83179e-10
3.30157e-11
1.09939e-08
1.17022e-09
4.73639e-08
6.02789e-06
6.60138e-09
0.000690435
3.20793e-07
0.00280921
2.64575e-08
4.61718e-08
3.04814e-08
3.83093e-08
2.01469e-07
2.3484e-10
1.0153e-09
8.54156e-10
6.87665e-08
1.52652e-07
0.000963347
0.000937467
9.83106e-08
1.90272e-08
1.06132e-10
5.38908e-11
4.3534e-10
1.95597e-08
3.62265e-06
7.72157e-09
3.04545e-10
1.05087e-10
0.000407943
7.63232e-07
9.06647e-07
0.000756395
1.44605e-08
0.00547056
1.43102e-07
1.44548e-08
1.79588e-11
4.83805e-09
0.00100054
1.55813e-11
4.66606e-07
9.01515e-10
1.13573e-05
7.72728e-07
1.62424e-06
2.41768e-06
4.96747e-07
6.76295e-10
4.47139e-10
0.00633575
6.9307e-07
6.09159e-07
4.40029e-06
1.6281e-08
1.63098e-06
1.58581e-06
5.14403e-08
9.24107e-08
5.74198e-06
6.28011e-09
1.1973e-05
0.000728447
3.58253e-08
6.96068e-09
1.45673e-06
1.4653e-08
0.000635795
0.00319941
4.42203e-07
7.58687e-10
6.81344e-05
5.82855e-09
2.47558e-07
3.5117e-08
2.24726e-06
4.85197e-11
1.73096e-05
1.62647e-06
2.53181e-06
4.51204e-07
2.12551e-06
5.11529e-07
1.17756e-07
2.68266e-11
3.20689e-06
1.14775e-06
1.1003e-06
2.07854e-08
1.71661e-07
2.10707e-06
7.81835e-06
1.93303e-10
4.32694e-10
1.62099e-09
1.90959e-11
2.18037e-09
0.000395363
8.25115e-06
2.52327e-06
9.65421e-07
3.76102e-06
1.64935e-06
6.38354e-12
3.37606e-07
3.71255e-10
9.48066e-09
1.47064e-09
4.26923e-07
3.81666e-05
4.11802e-07
2.38976e-09
4.74497e-09
2.94787e-08
7.51545e-09
2.5918e-09
0.00259591
1.94601e-07
1.16583e-05
1.77338e-05
1.29949e-05
1.3083e-09
1.00287e-05
1.22075e-05
2.25903e-05
1.23961e-05
6.40466e-10
4.23953e-11
3.05752e-08
2.14619e-07
1.18906e-06
6.33333e-06
0.000705774
4.1331e-07
5.62044e-07
7.31048e-08
1.02211e-05
3.92952e-09
9.91135e-11
2.1333e-06
7.0312e-06
0.000488565
2.10772e-10
0.00207784
2.08151e-06
1.43921e-08
1.5078e-06
1.09843e-07
2.03278e-06
4.93896e-08
1.94794e-06
5.78349e-09
1.47874e-07
3.96643e-05
7.4497e-07
1.4767e-08
3.22607e-05
9.02344e-07
1.81668e-07
5.84844e-05
1.35464e-09
1.97614e-07
9.39619e-07
1.69487e-06
1.2612e-08
0.00338155
2.70157e-09
2.88834e-08
4.13437e-09
0.0020973
0.00206736
4.50689e-08
4.625e-08
3.07103e-06
0.00102865
1.08458e-08
1.73688e-07
5.66372e-07
2.0522e-07
2.62812e-08
0.00340122
1.95629e-07
3.58552e-07
7.79921e-05
1.50094e-09
1.15958e-07
3.409e-08
4.41768e-08
5.14643e-10
4.57887e-05
6.57979e-05
1.66559e-09
1.63498e-08
3.18302e-08
1.75637e-06
3.51615e-10
0.000737167
1.08858e-08
2.26059e-07
1.46247e-08
1.37186e-08
4.57999e-08
7.01565e-07
2.96581e-08
9.28658e-08
4.23679e-06
2.30772e-08
2.60808e-08
0.000800092
2.17035e-08
5.55336e-08
5.90361e-08
5.03299e-07
3.26558e-11
4.57572e-10
4.46588e-11
1.98095e-07
1.17659e-08
0.00112138
3.59205e-07
3.83852e-07
8.86155e-10
5.53692e-07
0.00206859
1.66672e-06
2.32219e-07
1.01439e-06
2.05222e-07
6.26389e-09
7.03119e-09
3.35209e-07
3.77114e-08
4.73213e-08
8.79113e-06
2.15485e-07
2.09249e-09
5.79978e-09
3.00722e-08
1.33091e-08
1.2403e-07
9.53723e-10
1.44351e-07
2.80158e-07
5.06327e-09
2.62642e-11
0.000852917
1.42982e-10
1.05577e-10
4.79228e-07
0.00105457
5.59169e-07
3.95809e-08
6.24101e-10
2.38847e-07
1.02623e-07
5.16444e-07
9.31051e-08
1.90267e-09
3.26615e-08
1.53835e-08
1.04078e-07
1.1061e-09
6.6879e-10
8.18472e-09
6.7916e-08
3.5113e-07
2.56383e-08
3.60381e-09
1.28287e-07
1.08093e-06
2.59613e-09
5.70451e-07
1.03941e-08
1.71204e-08
5.69191e-10
9.49234e-07
2.9496e-09
3.65067e-07
5.34249e-11
4.54737e-07
5.29447e-10
2.9379e-08
6.08638e-06
2.37912e-09
1.09681e-09
0.00126509
9.71768e-10
0.00104118
9.99477e-09
1.17295e-08
2.01962e-07
4.21151e-07
0.00077456
1.53399e-06
0.000922699
0.00112103
1.80589e-06
1.77239e-07
0.000752147
1.9176e-07
5.06338e-10
6.03587e-07
0.00236724
0.000688217
0.000781325
5.62149e-10
1.72884e-07
1.52016e-10
1.197e-07
1.79494e-08
1.22366e-07
3.13437e-06
1.5397e-07
1.97549e-08
3.90601e-09
8.0992e-08
5.39904e-06
1.18804e-09
2.134e-07
6.25404e-07
3.95826e-08
1.26169e-11
1.19835e-06
6.27363e-07
5.55736e-07
4.50805e-07
4.0829e-07
9.41271e-08
2.45206e-07
2.81554e-06
1.57015e-07
1.16177e-07
2.23012e-06
8.30683e-06
1.38031e-10
1.76696e-08
3.86911e-09
3.59072e-07
1.86423e-09
4.95834e-08
6.2765e-12
7.42007e-06
0.00693084
0.00150822
2.55989e-06
3.86951e-10
2.0721e-07
0.000918462
0.0017921
2.55443e-08
4.88595e-06
4.90815e-08
1.07596e-08
7.61636e-09
2.40077e-09
2.68875e-07
7.67315e-07
8.64953e-09
8.52929e-10
2.91955e-07
1.0549e-08
0.00311355
0.00100849
2.27565e-07
2.29291e-10
3.05783e-09
0.000786964
4.77922e-10
4.97858e-07
1.01336e-08
1.1033e-05
3.2588e-10
1.29053e-07
8.13143e-09
3.85189e-09
2.00028e-05
0.00268427
0.0012055
2.67362e-08
0.00127924
7.0119e-10
2.56029e-07
2.97894e-08
0.00200998
7.81566e-09
3.06293e-06
4.30057e-10
5.40559e-08
4.92964e-06
2.41127e-08
2.73019e-06
4.82574e-09
2.50385e-07
6.05814e-07
2.94877e-07
6.39292e-08
1.08793e-08
7.12517e-09
6.05366e-08
2.41307e-08
4.17256e-09
2.48828e-09
0.00125138
0.000691113
2.815e-09
0.00139196
1.79769e-10
5.59959e-09
7.44062e-07
1.18509e-08
1.03301e-10
0.000647862
2.37263e-09
6.92513e-11
1.07572e-05
1.59021e-10
3.01648e-11
1.02979e-06
0.00156464
3.73606e-09
0.000694135
7.80385e-10
3.79707e-08
0.00083276
1.24155e-07
1.66903e-05
2.07415e-11
3.02043e-09
2.30389e-08
3.89498e-09
0.00369599
0.000756754
1.9549e-06
8.65084e-10
0.000864172
1.6402e-10
6.52074e-09
8.52948e-10
0.0017452
3.46929e-05
2.1685e-07
2.5025e-11
1.7201e-08
0.000899341
1.86749e-05
7.59024e-09
4.55875e-06
0.00185221
0.00143098
6.49146e-07
0.0014491
1.81078e-05
0.000795314
7.25696e-07
0.00113994
6.00491e-06
7.76129e-08
3.51841e-08
4.32952e-08
7.83117e-06
1.63971e-05
1.16408e-10
1.0583e-07
1.85214e-09
7.51764e-07
1.58033e-07
2.78363e-08
1.64131e-07
5.41185e-06
4.61304e-09
1.76897e-07
6.87929e-09
4.76614e-10
1.87407e-09
8.90294e-10
8.9319e-08
1.9961e-09
1.33174e-08
2.06023e-09
2.67993e-07
7.63278e-07
7.57132e-11
4.78089e-11
1.06941e-09
2.17939e-09
2.28718e-08
2.10442e-05
4.0075e-05
1.91388e-06
1.34787e-10
5.71651e-07
1.46145e-07
0.000861667
5.27704e-07
3.00023e-07
9.41439e-09
1.67611e-08
5.0092e-08
3.92059e-06
2.00798e-06
0.00315658
0.00124968
1.46563e-09
1.42424e-05
5.53329e-06
8.635e-10
4.56979e-08
9.06849e-08
1.93733e-09
3.88434e-08
7.90387e-08
0.00115007
2.69783e-11
1.56262e-06
3.06505e-09
0.000814037
9.77045e-07
0.000664158
6.25537e-07
8.51696e-10
1.16252e-09
8.86291e-09
4.84715e-07
3.44018e-07
7.31556e-08
1.66467e-07
1.88902e-08
1.4458e-05
5.34977e-06
2.57691e-10
2.01569e-06
9.55809e-07
8.42542e-07
1.70498e-06
5.70841e-05
8.09698e-08
0.00170019