/*--------------------------------*- C++ -*----------------------------------*\
  =========                 |
  \\      /  F ield         | OpenFOAM: The Open Source CFD Toolbox
   \\    /   O peration     | Website:  https://openfoam.org
    \\  /    A nd           | Version:  10
     \\/     M anipulation  |
\*---------------------------------------------------------------------------*/
FoamFile
{
    format      ascii;
    class       volScalarField;
    location    "47";
    object      SgT;
}
// * * * * * * * * * * * * * * * * * * * * * * * * * * * * * * * * * * * * * //

dimensions      [1 -1 -3 -1 0 0 0];

internalField   nonuniform List<scalar> 
111485
(
3.48316e-16
0.0090241
0.0210407
1.87584e-18
0.0449864
1.85578e-16
0.0416754
0.00587204
0.0183876
0.00113115
0.0418659
0.00915837
0.00424926
0.000835352
0.00592887
0.0316622
0.00129341
1.99767
0.0100254
3.4142e-16
5.02411e-16
3.36027e-17
0.0234447
0.0355344
0.00848011
4.18016e-17
0.0400995
0.00174759
0.015936
1.15882e-17
0.043507
0.017361
6.66924e-16
9.7909e-18
0.00966986
4.61694e-19
0.0105283
0.00388735
6.45852e-08
0.0215897
1.32847e-17
0.0720056
0.0144305
0.000997244
3.6687e-05
5.53731e-18
0.032837
0.000721335
0.0475657
2.70111e-16
1.90682e-15
3.16381e-16
1.78034e-15
0.0444882
2.30958e-15
0.0430365
0.00355492
6.88624e-19
2.70505e-05
0.00449201
0.014933
5.68422e-17
0.00401791
0.0884338
2.18112e-16
0.00359236
0.30101
0.097251
0.000921058
0.00512788
6.60602e-06
0.00547736
1.19765e-14
0.00244539
1.66517e-18
0.000638413
2.20068e-17
0.0425215
1.71453e-16
1.58158e-15
5.19404e-05
0.0316013
6.22136e-17
1.10682e-17
0.00813299
0.00442581
5.79944e-10
0.0225475
4.64947e-05
0.00678452
0.000866035
0.0410878
0.0103473
6.14173e-05
0.0559773
1.1281e-16
7.27723e-17
0.0014535
8.47899e-09
0.00147975
1.6418e-15
0.0195162
2.95882e-18
0.0214707
0.00482883
4.43289e-15
3.13579e-19
0.00748116
0.00318591
1.49974e-07
0.00563164
0.00507096
0.00313807
0.00264317
9.87656e-17
3.04867e-05
5.23668e-16
3.82935e-18
0.0113585
3.17991e-16
2.40608e-16
2.81799e-16
5.09564e-17
4.77511e-19
0.00233845
2.33299e-06
7.03503e-16
0.00149822
1.35955e-18
0.000173379
0.000988672
0.028079
2.10824e-17
1.55767e-15
6.59295e-16
0.0491708
2.33701e-17
0.0409718
0.0225509
0.00255172
0.000171871
0.00186908
0.0204607
0.00310513
0.0037974
0.012202
1.61948e-16
2.34087e-17
2.04273e-18
0.0262392
0.00182983
3.46128e-17
1.3317e-07
0.00502845
4.80315e-07
0.010624
0.0154734
0.00942831
1.68689e-07
4.36583e-18
2.40663e-17
0.0526864
0.0252301
5.15946e-06
2.31692e-07
0.0051877
0.00368933
2.87869e-19
9.96812e-06
6.58967e-05
6.17567e-19
2.59507e-17
0.000148379
9.6146e-19
0.00613759
0.00226962
2.47291e-16
3.40431e-15
2.4885e-15
1.29252e-15
5.007e-16
1.49843e-17
0.00134089
0.00671545
0.0277183
0.00415793
0.00641877
0.00356577
9.49276e-05
3.18091e-18
0.00425197
1.24842e-15
2.95794e-17
0.00581913
0.0110796
0.0228078
0.0103133
0.00463039
1.02648e-17
0.00604792
0.000572823
4.5213e-05
0.0111813
0.00230472
3.06078e-17
0.00325969
0.0275318
7.8675e-16
0.000230215
0.00652028
0.00227911
0.000309841
9.44039e-15
5.88989e-17
0.00728296
7.37243e-12
0.12387
1.91325e-17
0.00601151
0.0190246
0.121863
4.74172e-18
0.00267126
0.0120034
1.93448e-13
8.34217e-18
4.54793e-18
0.166642
4.19458e-07
4.1174e-16
7.46405e-16
0.0091459
0.00847422
0.0160001
5.05824e-16
4.98278e-15
9.38813e-06
1.7256e-17
0.00272555
0.00832903
0.0149832
0.0107773
0.00917416
1.34254e-18
3.23001e-07
0.000565457
1.02242e-18
5.53573e-17
0.0307226
0.0214566
1.0854e-16
0.00559689
0.00978837
6.64682e-18
4.17599e-15
0.000153268
2.9703e-16
5.28887e-15
3.92269e-05
3.21787e-16
0.0156164
0.0117295
0.00336154
2.5896e-17
0.0109601
9.0295e-18
1.79238e-18
1.40905e-18
3.71836e-08
0.0225648
0.00552975
0.00466659
0.0369488
0.0109741
0.00149658
0.000590635
0.0340404
0.0094133
1.62385e-17
3.09831e-17
3.37236e-07
0.0220542
0.0215161
0.0128304
6.35508e-17
0.00632775
0.00195068
0.00276611
6.21833e-06
4.404e-06
0.012211
0.00211857
0.00186357
8.75852e-19
0.000778948
1.33021e-18
5.27832e-07
2.3225e-13
0.266644
0.0682778
0.0138362
1.26898e-15
2.23125e-18
0.00831046
0.00190231
2.06946e-16
2.40014e-17
1.02078e-14
0.00041573
0.0622673
0.00334142
0.0154461
0.0182855
6.75676e-16
1.66457e-18
5.32345e-18
0.00351235
7.53867e-13
0.00132566
0.187069
5.82386e-07
1.17873e-17
1.94478e-17
1.95424e-17
2.37623e-16
0.0574208
0.0123237
1.6574e-18
0.00486118
1.82809e-16
2.22926e-15
0.0672145
0.00538614
0.0107222
0.00854981
2.41128e-15
7.93751e-16
1.66027e-18
0.00872241
0.0189691
0.0046905
6.96094e-17
1.90615e-10
0.000225241
0.00177618
0.00734229
6.34642e-05
0.0284726
2.21153e-17
0.0370383
0.00315853
0.00785783
0.0230737
0.0147306
4.74131e-17
1.41762e-16
6.66916e-18
2.38398e-17
0.0321005
0.00856868
0.0370863
0.0669734
1.42024e-17
0.020148
9.45431e-19
3.56467e-16
0.0161344
5.2669e-15
0.0398428
8.82673e-18
2.92169e-19
0.0237407
5.01875e-19
0.0140983
0.000335064
1.69281e-16
0.00112362
0.0150637
6.93591e-16
0.00798023
0.0106747
0.00738937
0.000434365
0.00291775
0.00613962
3.9666e-16
2.62216e-18
0.00136383
4.65365e-19
0.00500666
0.11209
5.29441e-16
5.1127e-18
0.0256136
0.000127356
0.00759099
0.0224549
1.17635e-17
0.0390047
0.0197478
4.85229e-17
0.00069673
0.00281868
2.01233e-17
1.14453e-16
0.011806
0.00487425
2.93934e-20
9.94779e-16
1.07678e-08
5.23944e-17
0.0105722
6.8464e-18
1.82605e-17
0.0177309
2.47455e-06
0.0146324
0.0266819
1.92191e-17
9.33543e-16
0.00108288
2.87355e-16
0.000107762
0.0108181
0.121696
0.905648
1.46039e-16
0.00260297
0.000234469
3.79588e-18
0.0350355
0.0331131
3.67278e-18
1.14214e-08
0.000108593
5.64095e-16
0.0256994
0.0268935
0.0127569
1.95715e-16
0.000590617
0.0206085
0.0212204
6.04618e-07
4.19592e-16
9.5224e-11
6.82422e-18
2.0754e-05
0.0318443
1.4498e-18
0.00957814
6.80981e-05
4.1622e-15
3.31608e-18
5.10793e-15
1.91801e-16
0.00428956
0.00951391
0.00711154
0.0024415
0.00338643
1.19956e-16
0.00228295
6.92605e-17
0.0356524
2.46938e-16
8.78072e-17
3.21537e-17
0.0317915
1.32346e-17
7.03277e-17
3.37109e-07
1.13426e-17
3.53681e-18
0.00087544
8.72133e-19
6.04999e-15
6.56247e-18
1.03521e-17
5.93762e-17
3.63315e-17
4.51465e-17
0.0081569
1.53975e-17
0.00039271
0.0016627
0.00266385
1.61271e-16
0.000624526
1.72196e-17
1.75322e-17
0.00310795
0.00205195
0.0293965
0.0222459
8.49742e-17
0.00186962
0.0726808
0.00842349
0.00110949
0.0036582
2.85197e-17
0.0223911
9.44909e-16
0.0042803
1.54761e-17
0.0691309
2.45443e-16
0.021068
0.000322831
7.99537e-08
3.79601e-17
0.00233385
7.35446e-17
0.0759241
0.0443268
1.43227e-18
2.64077e-18
2.40578e-15
2.44383e-18
1.94952e-10
0.0545959
5.16878e-17
2.7801e-18
0.00287952
4.50587e-17
0.0304247
2.22325e-17
0.000350877
2.61839e-16
0.000586188
7.47154e-07
0.00112139
0.0124585
1.09098e-15
0.000365947
4.90603e-17
3.86591e-18
0.0162826
2.83711e-17
3.57176e-05
3.20135e-15
0.00147623
5.79958e-17
0.0661511
1.18334e-16
7.03766e-17
0.0121341
0.00387895
0.00150491
0.0043084
0.005909
0.0208866
4.24869e-18
0.0207421
0.0070845
2.87823e-18
5.69513e-08
0.0314812
0.0125498
5.33778e-16
0.00550209
0.005438
0.00127801
0.00139344
1.47145e-10
0.0137933
0.000982142
0.000166708
0.0267731
0.0141813
0.00109357
3.69428e-16
2.95998e-09
0.619774
1.24436e-16
0.000417969
9.89637e-19
2.21759e-15
0.00729871
0.00363716
1.24509e-07
8.40984e-06
5.46862e-17
0.0185095
0.00994079
2.49616e-16
9.22285e-12
0.00204043
1.52761e-16
2.94712e-17
3.57567e-18
2.24915e-16
0.0152502
6.75599e-18
1.98179e-18
0.00987418
0.00233869
1.70551e-14
0.00937361
1.04896e-15
0.00859835
1.5038e-15
3.27146e-18
0.0571371
2.63263e-17
9.35805e-17
2.08318e-16
0.00490231
6.78576e-15
0.0328276
0.00638709
4.13742e-16
0.0728258
0.00283251
0.0261335
0.0235774
0.000929409
9.17199e-05
9.43656e-19
0.0569102
0.0415977
6.2014e-17
0.000308577
0.0361817
0.00708465
0.00155641
0.0244318
0.0237706
4.66844e-17
0.0104629
3.67625e-06
7.55962e-16
0.0320008
0.000299406
3.15983e-14
0.0109171
0.0388216
0.00158809
0.018532
0.0168454
0.00706376
6.12927e-16
0.00915794
0.000400379
8.52828e-12
0.0144624
0.014899
0.0347925
3.17624e-17
0.00211329
3.45778e-19
5.77804e-18
3.78822e-17
7.96352e-16
1.68457e-05
3.65829e-16
1.41787e-10
7.66659e-17
9.31512e-17
5.13461e-05
0.0396444
5.05406e-16
0.0366055
1.39589e-16
7.92485e-17
1.51719e-15
0.0396349
0.000496173
8.86197e-16
3.35945e-18
1.32683e-17
3.28105e-18
0.238876
0.0684303
2.73264e-16
0.00176869
4.67701e-06
1.75577e-18
0.0348919
0.00649633
0.0129302
2.00791e-17
1.04107e-16
0.000392785
0.00106951
1.07027e-15
6.82393e-18
4.88677e-16
0.00706553
1.33671e-17
1.02694e-16
6.70875e-17
0.0384919
0.00161206
4.26463e-17
4.1214
0.142646
0.0109003
9.08106e-20
1.09955e-16
0.0567248
0.00030475
7.14247e-16
7.59527e-06
0.170038
0.00291167
0.0119158
3.33631e-16
0.0577949
0.00152062
2.86759e-19
3.38066e-16
2.00107e-17
1.33222e-17
3.2094e-18
3.91498e-17
0.0193287
6.63675e-17
4.21528e-17
1.21404e-15
0.0119177
0.0234246
1.45886e-15
4.33773e-16
0.105668
0.0133314
0.00878194
8.99144e-16
9.221e-17
0.0345923
1.09081e-17
0.00227533
0.00240256
0.00353451
1.98932e-15
3.98452e-17
8.7548e-17
5.88475e-18
0.0158518
1.67303e-17
6.36586e-17
0.000817052
3.51729e-16
0.0211508
0.00140636
1.12772e-15
0.0358218
0.601424
0.00232119
0.0294235
0.000200078
0.0480029
2.3144e-10
4.98662e-16
0.0218661
0.0766283
0.00620069
8.73607e-16
1.33481e-09
0.517796
0.00989109
9.34518e-18
0.00291488
0.00313551
0.00143422
1.92908e-15
3.06555e-17
4.76331e-18
0.0126389
4.35658e-17
0.00233077
3.56585e-16
0.00145596
0.00127627
0.0343186
0.000534814
1.55302e-16
2.07497e-16
1.31388e-15
0.0197196
1.27613e-16
7.58741e-18
4.26853e-05
3.25804e-18
1.18249e-18
7.33696e-19
1.02648e-17
0.00897166
4.20236e-16
2.18142e-17
7.29239e-10
3.32743e-16
6.36772e-19
4.39023e-15
3.94468e-17
3.26374e-06
0.00151589
1.44178e-15
0.00333696
1.23054e-05
2.77734e-07
8.52967e-05
0.00439086
9.76104e-18
1.005e-05
0.00923676
0.00037259
1.63117e-17
1.08878e-08
0.000752409
2.82097e-16
0.00888537
0.000299849
2.01268e-06
0.025298
0.00867116
0.00215843
0.00553505
0.00197623
2.80186e-17
1.67248e-16
0.0301225
0.0243871
1.23966e-18
0.00775537
0.0536833
0.0277395
3.18544e-16
0.001661
8.09862e-18
0.010278
0.0134833
8.48623e-16
0.00144092
0.000475745
1.50138e-06
0.00451151
2.68488e-17
0.0471482
1.93695e-05
0.00186024
4.01901e-05
1.37692e-05
7.64366e-18
2.5587e-17
0.0083291
7.26598e-18
8.95164e-05
0.000328744
1.07588e-05
6.47222e-08
6.16165e-08
1.2323e-06
6.32145e-18
1.46265e-15
0.0216327
4.06396e-17
0.00115816
0.00235034
2.74865e-17
2.17969e-16
6.4036e-07
1.5543e-10
2.54795e-17
3.33822e-06
5.95411e-17
7.83666e-18
1.68052e-18
2.8898e-17
1.29195e-14
1.99348e-17
0.000330577
9.49619e-17
1.07755e-17
1.52794e-17
4.73001e-06
7.05442e-05
0.00204275
0.00916484
2.88191e-16
9.28143e-17
0.000232692
5.01704e-17
7.81259e-17
1.03109e-13
0.0194581
0.0407543
3.89535e-16
1.0417e-16
6.23186e-16
1.38387e-16
2.54928e-19
9.09018e-17
0.00845281
1.52904e-16
7.9279e-08
0.026934
7.46874e-18
1.98365e-17
3.65933e-15
1.52257e-05
3.0216e-15
2.5978e-17
3.16116e-18
5.88427e-06
4.33302e-18
0.00530206
1.06891e-06
4.35843e-09
4.80626e-17
4.6872e-05
0.00260132
0.0434683
5.5876e-16
5.54209e-06
0.00722089
1.73342e-15
2.44978e-17
3.55467e-14
8.2062e-16
0.00787347
0.00174669
0.00396194
1.59744e-07
1.98028e-17
0.022295
4.80244e-16
3.44055e-16
1.45414e-13
4.32995e-18
0.0253106
8.87564e-17
6.49692e-15
2.63391e-06
0.0487946
5.89038e-16
0.00300156
2.61722e-17
0.00112401
9.23657e-16
6.05954e-18
1.05462e-17
1.20866e-16
0.00264482
0.000682937
0.338879
3.23346e-17
6.25054e-17
0.00205003
4.75659e-17
3.07854e-15
9.26151e-18
0.0422348
5.61716e-06
0.0286744
1.28685e-16
6.47612e-06
2.96559e-05
5.02556e-14
6.93682e-05
4.22011e-16
0.00182507
0.0276335
0.0200047
0.00164613
0.000326494
6.96494e-17
1.13276e-17
1.73776e-17
1.40019e-05
1.99308e-18
0.00544495
6.73522e-18
0.175828
8.64347e-17
0.0417233
0.00354378
3.83052e-15
1.97858e-17
1.51433e-15
2.17952e-18
0.0313385
1.77104e-14
3.15556e-13
0.0129896
0.00536362
2.94021e-16
3.61764e-15
3.92933e-15
5.15796e-15
1.23829e-15
3.91921e-19
0.0204053
0.000519646
1.10223e-16
1.51497e-16
2.78039e-07
1.91869e-17
0.00132894
0.000115945
1.80842e-16
0.00271303
1.26032e-17
0.00033177
1.23625e-16
0.000889183
1.23549e-16
1.27588e-07
1.78957e-06
0.000876843
0.0144009
0.0274212
1.01251e-06
8.91477e-17
0.000449405
5.03482e-16
0.00436914
2.10544e-16
1.17758e-17
1.95956e-13
6.56768e-18
3.74338e-18
5.10298e-18
0.00569603
0.00627799
1.2579e-17
2.03885e-15
3.86591e-15
0.000535627
1.76163e-05
1.82428e-19
0.0184354
0.000212916
4.60196e-16
0.0224784
0.00812119
0.00332473
0.0134641
6.23353e-17
1.0225e-17
1.30793e-17
2.66025e-17
0.0362751
5.54761e-18
0.10384
8.1075e-18
0.00021683
0.000728927
5.26005e-18
0.000670229
2.04281e-18
1.06687e-17
0.00226962
2.58549e-08
0.00589959
4.41864e-17
1.21858e-15
1.21557e-16
0.000694321
2.71417e-16
3.15966e-18
1.06977e-16
5.10748e-07
3.9173e-16
1.19075e-05
2.83194e-15
2.00971e-16
2.6868e-16
0.0178286
0.00959256
0.0176864
0.0343021
2.42338e-17
9.66919e-06
2.26003e-17
1.41909e-19
0.0107381
3.81696e-17
3.11183e-06
0.000255306
0.00628873
0.000240353
9.66359e-11
0.00242438
2.06732e-18
1.74787e-10
9.84118e-10
9.32481e-05
0.00123575
0.0134777
6.58736e-08
2.66197e-16
0.0311697
5.01218e-16
1.34024e-16
2.96504e-05
0.0745117
1.01558e-07
1.80623e-17
3.69202e-17
6.05003e-07
6.37292e-16
2.78188e-15
1.01549e-05
5.09784e-15
4.78723e-15
0.0419766
0.000141326
0.000105859
0.0234472
0.00717124
9.94603e-17
1.83785e-17
3.66706e-06
0.00420039
5.88236e-18
3.5929e-15
0.0112377
3.54815e-16
6.14496e-14
1.68679e-16
9.0333e-17
4.83328e-13
2.5219
6.42768e-17
0.000184265
1.13779e-17
0.0153289
1.03014e-16
3.28867e-12
6.09235e-16
6.61757e-17
6.42567e-18
1.24467e-17
0.00336458
1.53345e-17
6.78666e-17
4.31357e-16
2.96888e-16
4.93668e-19
4.4228e-17
0.00996444
1.01424e-16
0.0110367
0.00233689
2.74254e-16
0.00172406
1.50893e-16
0.000399386
1.50008e-06
0.00406578
0.0141734
2.92677e-16
8.95794e-05
0.00934172
4.49551e-06
4.20594e-18
1.07936e-06
0.0169657
0.00476232
8.42165e-17
0.0267147
4.99712e-16
3.2867e-18
7.52616e-16
2.18299e-17
0.00827296
2.50022e-17
2.4427e-17
0.00805298
1.09503e-07
0.00278704
3.14999e-18
6.61035e-14
0.000675786
9.73048e-18
0.000147312
2.46346e-15
0.021753
3.94779e-16
4.85108e-18
5.53246e-05
6.69166e-17
0.000101557
1.89317e-17
5.5127e-17
0.00534276
0.000391347
0.00489077
0.0174757
0.217584
0.0197365
1.27212e-16
3.3209e-15
0.0023697
0.00669257
0.0351807
0.0133406
1.07385e-16
0.0112851
1.53175e-17
2.05482e-16
0.00763324
0.00960316
3.64277e-16
0.0124347
3.54135e-18
0.00284188
0.00827158
1.66626e-16
1.78753e-18
1.10505e-17
0.00232312
5.18168e-17
4.19847e-18
0.00354694
0.0199379
3.99583e-06
0.00767552
5.10124e-16
4.73977e-18
5.48485e-05
0.000656234
6.61674e-16
0.00924075
1.22657e-15
0.0024378
2.75502e-18
1.6608e-17
0.0111196
1.11331e-17
4.50428e-05
0.00296691
1.11124e-15
9.11795e-17
0.00365203
2.56777e-11
0.0539228
1.45253e-16
0.285205
7.77139e-17
3.26816e-14
6.8035e-14
0.00642975
1.56392e-15
1.46034e-16
0.00501639
3.06713e-16
0.000161734
1.03132e-15
6.67257e-16
1.87124e-15
1.5705e-07
0.000775045
3.51807e-17
1.62879e-17
0.0359645
0.000941951
1.83945e-16
0.000596151
2.43752e-16
7.01613e-17
1.21073e-06
0.00368981
0.0011722
6.3328e-17
3.46838e-17
1.72322e-18
9.47404e-18
3.26264e-15
7.04016e-16
1.55276e-18
1.72081e-17
2.08941e-16
5.28141e-16
5.59101e-17
2.58228e-16
1.07177e-16
1.90703e-16
2.48944e-17
9.70986e-16
1.5028e-16
3.0172e-16
1.12418e-16
4.04919e-18
1.98779e-17
0.0183541
9.9345e-17
4.1945e-16
2.05313e-18
0.00619569
4.84677e-19
2.16201e-16
0.194598
1.68723e-16
1.13192e-16
0.0219024
3.4428e-12
2.04189e-16
0.00437702
0.0232956
2.65607e-17
0.00127474
0.00216457
1.05211e-15
0.0111023
0.0374006
0.0165198
0.00287497
0.00975878
4.27005e-17
1.49184e-16
0.00275284
0.0101732
0.00268333
1.59787e-16
0.00559846
0.00135222
0.0186408
0.0107014
0.000640936
0.0135875
0.00106998
0.00844472
6.32877e-18
0.026576
0.00755866
0.00181926
0.00117232
2.30652e-17
1.25276e-17
1.42864e-18
4.53118e-18
2.10565e-17
0.00874032
0.012196
1.20325e-17
4.91038e-17
2.42144e-16
1.73332e-16
1.1926e-16
2.26486e-15
3.47693e-16
3.57252e-17
0.00409348
8.67724e-05
0.0194761
4.91398e-05
2.18097e-16
2.39551e-15
0.0331527
2.85873e-06
1.39371e-17
1.64565e-17
0.0070072
2.30135e-17
1.18791e-18
3.6445e-06
0.00701263
0.0122334
0.0293489
0.0270166
4.47052e-16
0.0139828
0.0002611
3.50057e-14
6.32637e-16
0.010184
2.6656e-16
2.8255e-17
0.0277042
0.994029
0.000149418
1.0322e-15
4.77055e-19
0.0161307
0.0222127
0.0162182
0.0057677
0.00198904
1.79328e-17
6.81088e-07
2.27877e-09
4.1126e-17
1.27348e-15
0.0169733
6.22844e-17
0.00193873
0.0258739
0.0155014
0.0119788
4.12481e-18
0.00523102
2.45201e-17
6.95373e-17
2.34339e-17
1.35956e-16
0.00250922
0.710177
2.60515e-17
1.73518e-17
4.16044e-06
0.022473
0.000465227
0.00617053
0.0312058
0.00456266
0.0197096
9.87868e-17
1.15509e-16
3.42412e-16
0.0306324
0.0051061
2.71087e-08
2.71003e-15
1.08326e-17
6.07583e-14
0.0186983
0.00268742
3.02314e-17
0.00431987
0.0450139
0.00817595
0.00544488
4.15456e-16
7.77919e-14
0.00613274
0.021494
5.74061e-18
0.000238089
0.0120326
0.000857082
0.0088484
0.00411485
0.00747658
3.93009e-14
0.00346444
0.018691
0.0364771
1.27546e-09
0.02301
3.7316e-15
0.0159174
0.000146596
1.40947e-19
0.00249371
0.00634856
0.000312163
0.0106713
2.17547e-07
0.000192054
1.73012e-05
0.0245906
0.00311711
6.36825e-15
0.037744
0.00105689
3.72257e-16
5.33966e-19
2.55637e-08
4.94652e-06
0.000900372
1.01332
0.0325111
0.00775559
2.5659e-07
0.0371287
8.07129e-16
4.61636e-17
0.00383165
1.95064e-15
0.00230411
0.0061547
0.0018081
0.00445344
1.69111e-17
0.000238315
0.102143
3.91135e-17
0.0596117
0.00653312
9.10986e-18
0.00341957
0.000180634
1.57297e-17
2.12355e-09
9.47777e-05
5.87278e-16
9.32581e-17
2.67117e-18
0.00427088
0.00449541
0.0132473
1.41403e-17
0.00560966
0.0296841
1.46985e-16
0.00701904
0.0108716
0.0240625
0.00130347
5.11982e-17
0.000617109
0.00894783
0.00917216
0.00780061
0.0368944
0.14643
0.0032483
2.95048e-17
5.93432e-06
0.0502718
1.47597e-17
0.000374951
1.34457e-17
5.67423e-18
1.64803e-18
1.8959e-19
9.95857e-17
0.00265832
1.97718e-18
0.00612662
0.00144138
4.96755e-19
0.00408442
4.69674e-15
0.0139156
3.72776e-16
6.96043e-06
1.94744e-15
0.0206368
0.000111159
1.26029e-06
0.00356886
0.0277588
0.0165643
0.0036395
0.0239604
2.26531e-12
0.019668
0.0497121
0.00818587
8.68551e-19
0.00118924
0.000357872
0.00479065
0.0113125
0.000755437
3.26117e-17
7.88348e-16
4.30519e-16
0.00404716
1.20093e-16
4.75134e-05
0.000227674
0.000532045
0.000271826
7.65226e-16
2.13945e-17
8.33549e-17
0.0073834
0.0199789
0.00127557
7.3169e-06
0.00185359
0.00613149
0.00196905
0.000720189
0.00628314
0.0053068
0.00231831
9.62733e-17
1.20693e-18
8.28531e-18
0.0137977
0.010251
1.3582e-16
1.22014e-16
1.53111e-13
0.00708169
0.0185987
5.33827e-16
0.00189074
5.54917e-18
3.78491e-07
0.00525066
0.0741563
2.88771e-17
1.05434e-18
0.00342041
7.80353e-17
8.47851e-05
0.0109791
9.71563e-16
0.00938741
0.0313615
0.0160277
1.7058e-16
0.000660545
1.66501e-16
5.70369e-05
0.0454481
2.4512e-16
2.01858e-17
0.0107302
3.93448e-13
2.88618e-17
3.51196e-05
0.00107328
1.20158e-17
5.41818e-17
1.52481e-14
4.67868e-05
0.00125254
0.00305476
0.0201878
0.00945823
1.61358e-16
3.26252e-07
0.000421164
7.21141e-17
8.6027e-19
1.56413e-17
9.72607e-17
1.15373e-15
5.96332e-15
1.51402e-15
2.86975e-16
7.12983e-15
2.97372e-17
1.38411e-09
7.28856e-15
0.000410342
2.91658e-15
8.64713e-05
1.22229e-14
6.33483e-05
1.18917e-13
2.14821e-16
0.0219988
0.0080426
1.40212e-15
0.0866973
1.50185e-09
3.51413e-11
3.21713e-16
0.0010454
7.05956e-14
0.00218855
4.75852e-06
0.000972802
5.35159e-16
1.11257e-15
0.000633797
5.82723e-08
2.0782e-16
1.07373e-17
0.0368789
1.29041e-15
0.0339055
2.40507e-16
8.31172e-18
1.10289e-06
0.0266673
0.00843763
4.35469e-17
0.000397925
4.56999e-16
0.00102955
1.22013e-05
0.0018668
0.000645576
6.71276e-19
0.0190177
0.000758358
0.00481006
4.72201e-17
8.1422e-16
4.80792e-17
0.00523741
0.00398583
0.0440526
2.11618e-18
2.35391e-07
4.02106e-17
2.26462e-16
2.73473e-15
2.7031e-17
0.00237683
0.00156176
0.00236374
0.279326
1.19708e-17
0.0286995
0.0329505
0.0174949
0.00122243
9.95016e-19
0.00544385
0.00326088
0.00476801
8.41046e-07
0.00961165
1.22785e-15
0.00172273
0.000890091
0.0303862
8.00767e-07
0.00241099
1.97172e-15
0.016622
6.6968e-16
1.61224e-17
0.00142623
1.11945e-17
0.00695313
1.1136e-17
5.80421e-16
9.72302e-16
8.55409e-17
3.34282e-18
0.000590954
4.28932e-15
0.000599378
1.26937e-16
1.08009e-17
0.0187887
0.00593307
0.00720471
0.00808591
8.39483e-18
0.554912
2.36408e-18
0.0666703
3.03248e-15
0.0185513
0.0180585
0.00183448
0.0533908
6.89099e-15
4.87203e-14
9.84171e-16
0.00205728
1.79342e-17
2.15309e-16
0.016761
6.66089e-17
1.87511e-17
0.00404211
9.6052e-16
0.0125715
1.10903e-07
1.46298e-15
1.89273e-15
5.95063e-15
0.00142997
0.00575015
2.09184e-17
0.0207059
0.000242244
6.60284e-16
0.0942538
1.30784e-16
0.0153844
0.0170143
0.00295813
1.64562e-16
0.0154921
0.00824313
0.000598543
0.00410325
0.0111038
1.26791e-16
3.16933e-16
1.49622e-06
8.27957e-16
8.71716e-18
2.61872e-17
0.0182909
0.0359058
0.00400654
0.00175273
1.55839e-16
0.0416383
0.0429899
0.00365684
0.00300142
0.00796319
0.0200945
0.00204106
3.69828e-17
1.0478e-16
1.53389e-17
0.00504803
4.65674e-18
0.0241641
4.58657e-15
0.000630761
2.9406e-07
0.00238625
0.020868
1.47319e-17
1.13208e-17
0.00197944
0.00027854
2.71186e-17
1.76784e-17
7.15875e-19
2.71203e-05
0.000257884
0.000105957
0.00063472
0.00876809
0.0836461
1.20033e-15
3.29334e-17
6.51695e-16
0.00354513
0.0188267
0.0186832
0.0310062
0.00191393
0.00211255
1.17909e-16
1.75927e-16
3.00934e-13
4.43595e-16
0.00934504
0.0190615
1.12052e-16
1.73781e-15
7.58275e-17
2.40503e-17
7.14266e-18
5.81522e-15
0.0109358
4.08929e-16
0.00108577
0.291751
1.53464e-16
1.55251e-05
0.0208912
0.000617881
1.51921e-18
4.17978e-15
0.00367912
6.99877e-17
0.0115975
1.46115e-06
0.0218098
7.26038e-15
1.49663e-12
1.34285e-17
5.35151e-17
9.27077e-16
1.00642e-14
0.173677
3.1987e-16
0.00440949
0.0010588
4.83839e-17
1.30658e-16
0.00146233
3.03481e-16
2.90372e-17
0.0141851
5.02609e-05
1.14132e-15
2.64656e-16
4.70562e-16
0.0148028
1.87467e-17
1.31425e-16
0.00024382
0.00196799
0.00224707
2.56177e-16
9.0629e-17
3.91394e-16
0.00295173
0.00140584
0.0103587
0.00295193
2.49879e-16
0.000684668
0.0123615
0.00582255
3.63544e-19
4.40483e-18
7.37791e-18
4.11117e-18
1.88057e-17
0.0282359
0.00717476
0.00426166
2.25657e-18
3.78225e-18
9.22754e-19
2.919e-18
2.4873e-17
6.34042e-07
0.000291433
0.00230089
3.65759e-16
1.23593e-16
8.32617e-19
3.88379e-09
0.0275206
0.0947482
6.48172e-19
6.03725e-11
2.67269e-13
6.95496e-16
9.83741e-17
0.00326665
0.00675896
3.77535e-16
1.12642e-15
0.00243457
1.85608e-16
0.000681781
0.00115177
2.00885
9.5387e-17
2.11722e-16
0.0119783
0.000361479
2.64721e-16
0.634448
0.000510007
0.00672585
1.52473e-15
3.80058e-16
5.38153e-18
1.64916e-16
0.00696265
9.02912e-05
1.12604e-15
0.0217344
0.0159703
0.838296
1.26581e-16
5.08577e-17
2.96656e-16
1.39785e-16
0.00536148
2.81597e-08
1.38618e-16
4.04826e-15
0.0167571
0.00105687
0.00481199
2.83975e-16
7.00857e-18
0.0256047
1.87056e-15
1.39178e-16
6.93568e-17
5.36184e-16
0.0227377
1.78817e-15
2.42066e-17
2.7225e-16
0.0228847
0.0126127
1.23958e-16
3.15638e-17
1.57676e-16
0.0133849
7.42419e-08
1.823e-15
2.78363e-16
1.42935e-17
2.3103e-17
0.00217722
0.00864798
3.7406e-19
0.00205542
0.000863364
0.0039252
4.6403e-17
1.11752e-17
3.19687e-16
1.06394e-18
5.93946e-17
0.0213964
6.17535e-16
0.0155208
3.96475e-16
0.00115236
3.0801e-14
0.00169962
8.83139e-17
1.4555e-18
0.0101955
0.26137
1.87427e-15
0.00259149
2.28892e-16
0.000285494
8.45006e-15
2.84721e-16
2.92745e-16
1.66304e-07
3.82396e-16
0.000358584
8.57979e-17
0.0334905
2.42745e-17
1.22254e-15
2.11103e-17
4.10879e-16
7.14723e-06
0.000110931
4.42682e-17
0.00376426
5.75105e-19
0.00351765
0.0195624
0.000888955
6.77797e-19
2.97495e-06
0.000305343
1.37637e-06
0.00490561
4.95364e-07
0.0011944
1.43945e-15
1.37933e-16
3.26524e-07
0.00471888
0.000169023
1.56773e-15
2.13769e-15
3.05985e-16
0.43101
2.08008e-17
1.81661e-16
2.21466e-17
5.01567e-17
1.43064e-17
8.54211e-05
0.000121416
0.000752795
5.20532e-05
8.7187e-13
0.000912354
1.06477e-17
0.00632774
3.05688e-16
1.75339e-18
1.14687e-17
1.1045e-15
2.39053e-05
3.93373e-16
1.70535e-18
1.67944e-15
0.0145179
1.53009e-15
1.41214e-17
0.0106111
6.55673e-16
0.0364723
0.0655375
0.384889
3.77472e-16
0.204664
1.27516
1.8053
0.668708
1.27501e-16
3.50382e-17
0.0047344
0.00523537
2.98438e-16
0.0029422
9.85087e-18
0.0310565
1.3646e-15
7.79967e-16
0.000470233
8.7212e-16
1.37094e-16
6.80863e-06
2.7922e-05
1.26397e-17
2.26372e-17
1.33757e-06
3.9015e-14
2.30926e-16
2.01347e-05
0.0073935
0.0011304
5.6301e-16
0.00605214
2.15634e-17
0.00337707
3.83961e-07
0.00512255
2.21645e-16
1.18752e-09
0.00465296
2.7954e-14
2.16133e-10
1.69424e-16
0.0317616
5.84775e-15
0.0101955
1.14011e-15
9.61025e-08
5.33994e-16
4.23816e-16
3.71679e-19
8.0347e-11
7.7821e-10
6.99866e-17
0.011945
0.00671608
1.5423e-17
2.60166e-16
0.0327216
0.0177097
0.173801
2.18678e-17
4.71168e-05
0.0240896
0.0455733
2.92872e-09
9.89523e-19
0.0647486
3.41438e-16
0.213496
1.16782e-16
1.07323e-08
6.6818e-09
1.29416e-16
3.70114e-05
2.10159e-16
0.0198277
4.17404e-18
3.81168e-16
4.78646e-16
2.99686e-17
1.15916e-16
3.3721e-16
0.000365932
0.00147655
0.137727
1.83786e-15
2.01842e-14
0.0407656
1.07976e-15
9.40662e-19
3.28859e-16
1.13252e-17
3.3405e-15
0.00497327
3.68825e-17
7.75276e-18
6.19608e-18
0.00278234
1.67533e-16
8.08667e-17
3.20925e-15
0.00270556
1.03998e-17
0.00512807
0.195977
0.00380518
0.00449769
0.022653
2.91625e-15
4.31255e-16
2.52846e-16
0.0025596
0.00167116
4.28633e-17
2.09454e-14
0.000484792
9.61464e-17
6.34325e-17
0.311756
4.39015e-16
0.0215493
6.93791e-16
0.00205728
0.00365731
4.30379e-15
9.18267e-17
1.79924e-16
7.41555e-17
1.53135e-17
0.0200177
1.83578e-15
0.00382303
2.80263e-16
1.88254e-16
0.00568982
1.71563e-17
0.0137804
1.03596e-15
2.03455e-17
0.00220422
7.7727e-05
0.123587
8.73334e-17
6.14235e-18
2.81172e-15
0.00357488
0.170875
9.85198e-16
5.21559e-17
3.55925e-15
0.00124826
1.81706e-15
0.021286
0.0233036
5.18941e-16
3.0544e-17
0.0058364
3.46032e-17
5.61183e-15
6.90721e-18
1.4092e-15
6.94673e-18
0.0601479
4.3214e-13
1.10783e-16
2.16486e-18
6.70778e-15
9.18296e-16
9.95487e-15
3.67382e-16
1.10973e-15
1.82576e-16
0.00754228
9.98548e-17
0.00674579
7.87479e-15
3.18401e-16
0.542297
0.00216212
4.33171e-16
1.26918e-15
8.92824e-17
0.00193583
1.58617e-17
4.0882e-17
1.08207e-15
5.40727e-16
0.00574052
5.88834e-16
0.00291804
1.48956e-18
0.0100155
5.94985e-16
0.0551622
5.69229e-16
1.26366e-16
0.0170821
8.46639e-16
2.02006e-16
0.0259842
0.000268946
1.51181e-19
1.36124e-17
0.0385728
0.011846
0.00526896
0.000651389
0.00145345
0.0156257
0.000768677
0.00543683
8.35728e-16
0.0199248
6.10755e-15
2.95687e-15
8.14128e-17
7.0342e-15
4.93902e-16
0.00827638
9.78838e-18
5.81638e-18
4.9943e-18
5.10325e-07
1.41885e-05
2.4969e-15
0.00280766
5.54529e-17
0.00408128
6.89167e-17
6.99942e-07
0.00310818
1.86436e-13
0.0398967
6.558e-16
7.02686e-16
7.41042e-17
0.00235997
0.00142193
8.68613e-17
1.22232e-17
0.00201606
2.0271e-18
0.622264
6.4964e-18
0.0801069
1.78011e-17
2.41885e-17
2.71031e-18
1.19433e-17
0.00835618
4.32519e-17
6.05897e-05
9.00687e-18
0.00933548
4.59071e-16
3.30881e-17
7.27601e-12
3.90453e-13
5.85825e-16
3.21367e-16
1.77602e-16
1.61377e-18
0.0043546
0.227553
2.50025e-14
9.87145e-18
0.000395612
7.09634e-17
2.29812e-17
1.84198e-06
0.0165625
0.000170428
1.16319e-16
0.00054557
0.00367687
0.00442519
0.00842567
1.2282e-16
8.6094e-18
1.03486e-18
1.28669e-16
8.78742e-18
2.46658e-17
5.34385e-17
5.32348e-15
6.33491e-17
5.05296e-17
3.19272e-17
3.75354e-17
0.0707771
4.96969e-17
6.52228e-17
3.91777e-09
7.86455e-18
1.76701e-16
1.05466
7.79722e-17
4.0271e-17
0.00139554
2.3251e-10
5.0774e-16
3.60543e-17
1.08624e-17
0.0207031
1.25281e-18
1.69113e-16
3.48185e-08
1.10711e-18
2.9757e-16
4.76139e-17
4.63797e-17
0.101343
4.21969e-17
0.000248792
3.35507e-17
7.72498e-17
2.5202e-16
1.05e-16
8.16474e-17
4.40634e-08
6.33935e-08
0.000126667
2.14096e-18
8.51475e-17
1.0372e-16
1.11879e-07
1.99173e-16
2.45025e-07
3.1666e-08
1.77098e-16
3.12996e-15
5.38829e-15
1.32541e-08
9.03089e-16
5.23952e-17
1.15453e-09
9.15473e-16
0.030258
1.06299e-17
0.00545851
2.63789e-16
1.74954e-06
1.12348e-16
0.00156166
2.53581e-17
0.0044845
0.0193295
3.74775e-16
0.00264304
8.99465e-06
2.0527e-16
0.00819116
6.39077e-17
1.81928e-16
1.16826e-15
8.77066e-16
2.19322e-15
1.13131e-18
1.18898e-15
2.98248e-17
0.239438
2.39064e-16
3.42064e-17
1.81774e-17
2.60501e-16
8.67566e-17
0.0293166
0.77925
1.93577e-06
1.66419e-05
2.23782e-16
0.00156621
0.00104561
9.16654e-18
1.3433e-16
8.2022e-16
8.77924e-16
2.45945e-16
1.41098e-16
2.62135e-15
1.03086e-15
0.000411929
2.37141e-16
3.30493e-18
9.51274e-05
1.53667e-06
5.42808e-16
0.0263815
3.45032e-15
1.41231e-16
5.46507e-17
0.165366
1.81879e-16
1.32805e-17
0.021555
2.08454e-17
5.51301e-18
5.83886e-16
6.63696e-19
0.0481912
1.42651e-16
5.05185e-16
1.00244e-16
8.577e-17
0.00645349
0.230583
0.0268479
0.0452038
0.00265901
0.000154029
1.9585e-17
1.55855e-16
0.105803
0.00156869
6.83798e-18
4.7263e-08
4.15579e-18
1.57579e-09
7.88887e-16
0.210732
2.9945e-16
2.88536e-16
0.000165425
5.70014e-11
1.11825e-15
0.0116462
1.35999e-17
3.16377e-17
0.202128
0.0280871
9.2738e-18
4.48441e-17
7.75154e-16
1.24883e-17
2.41915e-17
8.6749e-14
2.19217e-17
1.85166e-17
0.00344124
4.04204e-18
1.59862e-17
1.12436e-16
1.01471e-05
4.57156e-17
2.90801e-14
6.99698e-17
6.42386e-18
1.32939e-15
2.57533e-16
0.00242047
6.27188e-17
7.25941e-17
0.00419269
1.84541e-16
0.000416119
0.00510149
3.23523e-16
0.00277122
3.31689e-17
1.49273e-16
9.47704e-18
1.72609e-16
2.05962e-17
3.15847e-17
2.33432e-17
4.58076e-18
0.00183609
1.12946e-16
2.16261e-17
4.65014e-18
4.10333e-16
5.17453e-16
1.54831e-16
0.0402371
1.609e-17
9.25742e-18
0.325772
7.5094e-18
4.30303e-18
2.46654e-18
0.000956002
1.81868e-16
3.15425e-06
1.24899e-16
5.07172e-05
0.00854409
3.79548e-18
8.24478e-17
0.037561
4.69654e-15
6.67267e-17
8.71929e-05
3.725e-07
0.00970874
1.30289e-06
3.83885e-07
7.66078e-08
6.30567e-18
6.57054e-16
0.000742671
0.000217562
0.0206152
0.0106451
3.5463e-05
1.54892e-17
0.00536769
0.00412304
0.0159484
6.29875e-18
0.0108046
0.0157496
0.00239566
0.00111563
0.000409517
0.00451986
0.0180398
0.0356767
0.00748406
0.0109631
0.00716622
1.21215e-14
0.00254692
0.00341386
0.000571582
0.00309758
0.0135411
0.0121397
0.0204286
2.41272e-14
0.00732148
4.87593e-14
0.00442998