/*--------------------------------*- C++ -*----------------------------------*\
  =========                 |
  \\      /  F ield         | OpenFOAM: The Open Source CFD Toolbox
   \\    /   O peration     | Website:  https://openfoam.org
    \\  /    A nd           | Version:  10
     \\/     M anipulation  |
\*---------------------------------------------------------------------------*/
FoamFile
{
    format      ascii;
    class       volVectorField;
    location    "47";
    object      U;
}
// * * * * * * * * * * * * * * * * * * * * * * * * * * * * * * * * * * * * * //

dimensions      [0 1 -1 0 0 0 0];

internalField   nonuniform List<vector> 
111485
(
(0.200089 -0.200202 0.000333954)
(0.567966 -0.00141749 -0.0037458)
(0.561678 0.00129972 0.00175172)
(0.200482 -0.200533 7.7829e-06)
(0.584 0.00262064 -0.000174294)
(0.199422 0.19938 3.95189e-05)
(0.573819 0.00144675 0.000315663)
(0.588465 -0.00139909 0.000858612)
(0.574406 -0.000343722 0.000384566)
(0.586128 -0.00599925 -0.00250248)
(0.565138 0.00137061 0.00162498)
(0.591918 -0.00115191 0.002832)
(0.556685 0.000198576 0.00119385)
(0.561144 -0.00147115 -0.00378819)
(0.57026 0.00217778 0.00118248)
(0.580579 -0.0034435 -0.0021857)
(0.572359 -0.000555304 0.000667166)
(0.205447 -0.024051 0.0333348)
(0.585418 0.001539 -0.00133888)
(0.197959 -0.197628 -4.38212e-05)
(0.198484 -0.198474 -0.000280286)
(0.2001 0.200029 9.56236e-06)
(0.578818 0.00143462 -0.000301507)
(0.586906 -0.0038454 -0.00111589)
(0.576125 0.00280549 -0.000988558)
(0.201851 -0.201067 -0.000297557)
(0.594148 -0.00249379 0.00316343)
(0.562569 -0.00095122 1.5447e-05)
(0.586637 0.00078771 -0.00151315)
(0.199436 -0.199497 2.62042e-06)
(0.591262 0.0108698 -0.00300307)
(0.583868 -0.00106759 0.000180663)
(0.198127 -0.198603 0.000328096)
(0.199753 0.200124 -0.000504664)
(0.200772 0.0820079 0.0345228)
(0.200691 0.201823 -0.00281333)
(0.588848 0.0106484 -0.00438506)
(0.569597 0.000830282 0.00506203)
(0.581535 0.174233 0.0113006)
(0.584004 0.00302475 0.000409317)
(0.196574 0.198197 -0.00139515)
(0.590896 0.000547101 -0.00360515)
(0.583171 0.00318676 0.00114772)
(0.562564 -0.00437278 -0.000870041)
(0.589484 -0.010779 -0.0052827)
(0.199677 -0.198553 0.00122412)
(0.590741 -0.00258468 0.00286183)
(0.586078 -0.00353258 -0.00102036)
(0.590824 0.000110646 -0.00275568)
(0.199138 -0.19693 0.00120017)
(0.197755 -0.195891 0.0012637)
(0.228036 0.191107 0.00311988)
(0.197019 -0.196415 0.000673903)
(0.590698 0.00263788 -0.0053724)
(0.196666 -0.195746 0.000169354)
(0.583413 0.00149944 -0.000610935)
(0.583098 -0.00256829 -0.0010488)
(0.200069 0.199793 4.24318e-05)
(0.53124 -0.00120669 -0.00940986)
(0.586218 0.00240603 -0.000330933)
(0.585955 0.00271372 -0.000225999)
(0.199653 -0.199984 0.000246963)
(0.542333 0.000576983 0.00362548)
(0.593638 -0.00120888 0.00456585)
(0.206087 0.18629 0.000179964)
(0.535868 0.00100607 -0.00135444)
(0.411037 -0.0374465 0.0142101)
(0.588006 -0.00179562 0.000825136)
(0.528894 0.000331469 0.00179845)
(0.499534 -0.00111896 0.000242051)
(0.56574 0.00453334 -0.00367225)
(0.523851 -0.001036 0.00190206)
(0.214874 -0.194281 -0.00422114)
(0.536256 0.00105399 0.004237)
(0.199885 -0.199761 7.58175e-05)
(0.585179 -0.00117409 0.000583231)
(0.200003 0.200066 -5.5323e-05)
(0.591031 -0.00122725 0.00315208)
(0.199865 0.19978 -4.90072e-05)
(0.178114 0.173619 -0.00660822)
(0.56849 -0.00881591 0.00591721)
(0.585731 0.00212772 0.00048725)
(0.198946 0.198547 -2.37332e-06)
(0.199828 -0.199791 9.2601e-05)
(0.552879 -0.000130332 0.00103447)
(0.530868 0.00144051 -0.00227192)
(0.45321 0.288766 -0.0804138)
(0.582545 0.00727398 0.000638219)
(0.560365 0.0149864 0.0136305)
(0.567353 0.000870431 0.00166193)
(0.598996 0.0110091 -0.00729493)
(0.584811 -0.00097273 0.00104244)
(0.545891 -0.000984369 0.00195628)
(0.554953 -0.000560038 0.000553747)
(0.591869 0.00171182 -0.00376146)
(0.199881 -0.199861 1.9379e-05)
(0.199191 -0.199063 0.000154618)
(0.582342 0.00678483 0.00203059)
(0.609329 -0.126526 0.00363155)
(0.549747 0.0053422 -0.00164198)
(0.199802 -0.199826 0.000110765)
(0.585176 -0.00319442 0.00049606)
(0.200924 0.201225 0.00109942)
(0.580101 2.22318e-05 -0.000310702)
(0.57366 -0.00258297 -0.00326234)
(0.196376 0.174319 -0.00434614)
(0.200199 0.200099 -6.88654e-05)
(0.584129 -0.0013181 -5.80959e-05)
(0.540205 -0.00303193 0.000416979)
(0.518135 -0.0152987 -0.016555)
(0.553266 -0.000413557 0.00122504)
(0.57996 0.000848405 -0.000240971)
(0.5415 -0.000421484 0.00197199)
(0.532317 -0.00326889 0.000936593)
(0.201794 -0.200743 3.58212e-05)
(0.510893 -0.000472572 0.00148876)
(0.200954 -0.20036 -0.000262725)
(0.20082 0.199604 0.00116241)
(0.570684 0.00216035 0.00165138)
(0.200389 -0.200259 6.05887e-05)
(0.202001 -0.201011 -0.000105778)
(0.264557 0.207207 0.0129295)
(0.197212 0.198144 -0.000383314)
(0.199959 0.199459 -0.000716833)
(0.557947 -0.00135168 0.00239906)
(0.160376 -0.11451 -0.0293068)
(0.252355 0.215881 0.00846223)
(0.516086 -0.000178555 0.00248005)
(0.200135 -0.20004 -8.21329e-05)
(0.585475 0.0419517 -0.0153948)
(0.587186 0.0126887 -0.00676032)
(0.581331 0.00697272 0.0020039)
(0.198972 -0.198498 -0.00113842)
(0.258841 0.224541 0.0235746)
(0.241188 0.214624 0.0107654)
(0.586543 0.00167485 -0.00144061)
(0.200324 0.200263 -8.79968e-05)
(0.58176 0.00135985 3.3322e-05)
(0.578005 0.0026657 0.00170835)
(0.568101 0.00259479 0.00257585)
(0.442462 -5.68487e-07 0.00185619)
(0.582325 0.00324522 0.000719516)
(0.577406 0.00298338 0.00194463)
(0.551138 0.000547769 -0.00227121)
(0.577621 -0.000948889 -0.000555708)
(0.569313 -0.000537423 0.00143233)
(0.200424 0.200444 -3.15102e-05)
(0.200036 -0.200069 1.32301e-05)
(0.199729 0.199949 0.000471365)
(0.583603 0.0026854 0.000495194)
(0.551673 0.00092193 -0.00200036)
(0.198528 -0.198479 0.000114746)
(0.375712 -0.00219806 0.00378219)
(0.569212 0.00287315 0.00179858)
(0.624209 0.0245255 0.0105851)
(0.586554 0.00167472 -0.0012565)
(0.584125 0.00183418 -0.000572056)
(0.5408 0.000124623 -0.00130318)
(0.626017 0.0339647 0.00584338)
(0.198831 -0.200839 0.00104356)
(0.199924 -0.200087 0.000238548)
(0.585822 0.00158645 -0.00129003)
(0.573366 -0.00189057 -0.00189513)
(0.63024 0.0343597 0.00645954)
(0.620958 0.0311837 0.00841473)
(0.54151 0.000385908 0.00280575)
(0.5841 0.00688016 -0.00266024)
(0.196875 0.198965 -0.000242826)
(0.638768 0.0419592 0.00903049)
(0.608839 0.0311513 0.00881815)
(0.200026 0.200158 5.20251e-05)
(0.199609 -0.199665 9.44451e-06)
(0.465948 0.000487339 -0.00383303)
(0.200296 0.200389 2.77757e-05)
(0.581558 -0.00105471 -0.000205523)
(0.559979 0.00033975 -0.000984899)
(0.199886 0.194945 -0.00119704)
(0.215546 -0.198755 0.00199841)
(0.198868 -0.19787 -0.000444311)
(0.197127 0.185799 -0.00197913)
(0.216578 -0.200224 0.00320431)
(0.199822 -0.199953 0.000199242)
(0.582039 0.00213323 0.000679804)
(0.583555 0.00145287 -0.0012069)
(0.581295 0.00161488 -0.000757902)
(0.572325 -0.00220886 0.00230248)
(0.552076 -0.00172744 0.000293704)
(0.554228 0.000874373 0.0018055)
(0.494714 0.00635409 0.000777228)
(0.199304 -0.198537 4.99225e-05)
(0.535646 7.93561e-05 0.000780771)
(0.21504 -0.200301 0.00193705)
(0.201308 -0.201491 -3.89692e-05)
(0.558827 0.000915428 0.00188957)
(0.586377 -0.0067394 -0.00238027)
(0.582361 0.000964481 -0.00292779)
(0.559267 -0.000667297 0.000496432)
(0.569345 0.000182336 0.000300193)
(0.199355 -0.199036 0.000483618)
(0.558794 -0.00264891 0.000707315)
(0.556173 -0.000468122 -0.00309883)
(0.385013 0.119431 0.015292)
(0.57012 -0.0048617 5.19121e-05)
(0.579147 -0.000854781 0.000480948)
(0.200418 -0.199165 -0.000505392)
(0.556286 0.0012644 0.00201462)
(0.584711 0.00128077 -5.22094e-05)
(0.218553 -0.198464 0.000669061)
(0.561458 0.00114403 0.00259891)
(0.589753 -0.000503548 0.00316577)
(0.551088 0.000631049 -0.00230844)
(0.55449 0.00141687 0.00255764)
(0.21636 -0.200789 0.00253142)
(0.198888 -0.198963 -2.35065e-05)
(0.554255 0.00149852 0.00284958)
(0.360272 0.224031 -0.0210433)
(0.595753 0.00247446 -0.00615809)
(0.199882 0.199931 -0.00015119)
(0.557968 0.00110798 0.0023344)
(0.559307 0.000285088 0.000309854)
(0.592659 -0.00196474 0.00384077)
(0.200119 -0.200078 3.04837e-05)
(0.520612 -0.000413491 0.00133546)
(0.585161 0.00898204 0.00439869)
(0.319116 0.21375 -0.0244544)
(0.200293 0.200356 -0.000146864)
(0.200005 0.200154 5.77913e-05)
(0.597534 -0.00291594 0.0059478)
(0.555383 0.0121872 -0.00332105)
(0.21046 0.176884 -0.00428397)
(0.246101 -0.19189 0.0080611)
(0.560844 0.000507778 0.0010172)
(0.579781 0.000833874 -9.56928e-05)
(0.583178 0.00122727 0.00052034)
(0.206976 0.179392 -0.00551887)
(0.209686 -0.194309 -0.00101065)
(0.562481 0.00717401 -0.00852529)
(0.199869 -0.199806 8.6906e-05)
(0.534244 0.000640823 -0.00288209)
(0.554313 0.000391043 0.00233854)
(0.560665 0.00020091 0.00135379)
(0.561249 0.00109359 0.00143257)
(0.563565 0.000534427 0.00188861)
(0.199301 0.199404 0.000611689)
(0.426343 -0.000877649 -0.0161268)
(0.569483 0.00181764 0.00172964)
(0.198214 0.198815 -3.41117e-05)
(0.200134 0.200215 4.98816e-05)
(0.592895 -0.00690196 -0.000353299)
(0.579613 0.00271339 -0.000656617)
(0.204726 0.173251 -0.00562697)
(0.528358 -0.000499261 0.0011515)
(0.568649 0.00161098 0.00147415)
(0.200285 -0.200183 -5.17943e-05)
(0.253932 0.240356 -0.00124819)
(0.584802 0.00622651 -0.00277388)
(0.201122 -0.198606 0.00017225)
(0.221758 -0.159471 -0.00380425)
(0.300896 -0.107265 -0.0106852)
(0.2005 -0.199849 -0.000125253)
(0.572812 -0.000880908 -0.000967459)
(0.556227 -0.00102051 -0.00084215)
(0.579306 0.00083185 -0.00151125)
(0.199978 -0.200056 -3.99979e-05)
(0.572463 0.0016288 0.00138463)
(0.20046 -0.200511 1.53834e-06)
(0.200322 -0.200469 0.000137385)
(0.199169 -0.198303 0.000395222)
(0.395927 0.00179527 -0.00535185)
(0.589876 -0.00260671 0.00321243)
(0.560035 0.00209596 0.00249883)
(0.570817 0.00191304 0.0013165)
(0.590099 -0.00299896 7.35509e-05)
(0.568548 0.000910344 0.00170884)
(0.582359 0.00220559 0.000793489)
(0.586558 0.0106305 -0.000991357)
(0.575585 0.000515772 -0.000252737)
(0.580095 0.000924696 -0.000315486)
(0.203841 0.20048 -0.000117492)
(0.19901 -0.199082 -0.000272077)
(0.362795 0.00257234 -0.00765625)
(0.582834 -0.00116032 0.000494174)
(0.587073 0.00479532 0.00499032)
(0.555398 -0.000857541 -0.000827046)
(0.200427 -0.200295 4.68789e-05)
(0.578944 0.00190239 0.00117726)
(0.581433 0.00308837 0.0014797)
(0.570593 0.00125265 0.000755939)
(0.500976 -0.000597333 -0.00234805)
(0.527043 -0.00580885 -0.0133929)
(0.579334 0.00175052 0.000516416)
(0.56933 0.00146028 0.00141324)
(0.580699 0.00539442 -0.00334053)
(0.200001 0.200097 1.01449e-05)
(0.533695 0.00296829 -6.46648e-06)
(0.199884 0.199996 -7.22143e-05)
(0.161182 0.119856 -0.026879)
(0.226265 -0.145954 -0.0120217)
(0.602007 -0.00582478 0.0111341)
(0.590245 -0.00298817 9.96656e-05)
(0.575697 -0.000295207 0.000226463)
(0.200289 -0.199769 -8.01137e-05)
(0.199229 0.20034 0.0017271)
(0.578354 0.00205036 0.00122849)
(0.554245 0.000828642 -0.000703811)
(0.198665 -0.198631 5.56199e-05)
(0.200233 -0.200112 0.000231958)
(0.19541 -0.19655 0.0012667)
(0.549395 0.000656177 -6.41055e-05)
(0.577417 0.000553063 -0.000638229)
(0.550158 -0.000107508 0.00205166)
(0.530517 0.00111256 -0.00211873)
(0.588012 0.00193329 -0.00137554)
(0.229533 0.196903 0.00582727)
(0.199712 0.200194 0.000382844)
(0.19959 -0.199413 -8.39092e-05)
(0.576184 0.00214363 0.00159962)
(0.377308 -0.317792 -0.0170033)
(0.549611 -0.00055256 0.000799214)
(0.598643 -0.00377138 0.0137515)
(0.48291 0.00101944 -0.00973325)
(0.200157 0.200138 -7.89828e-07)
(0.199803 -0.200002 0.000164893)
(0.200386 -0.200496 -8.73382e-05)
(0.253531 0.21195 0.0133859)
(0.583894 0.0018967 -0.000130432)
(0.58841 -0.00294937 0.000562558)
(0.199754 0.200765 5.35241e-05)
(0.580642 0.00150248 -0.000174131)
(0.211851 0.170173 0.0125329)
(0.199682 -0.197291 -0.000302758)
(0.595454 -0.00185489 0.0049796)
(0.578782 0.00198933 0.0010648)
(0.591108 -0.000314888 0.0013983)
(0.580852 0.0015599 -0.000105496)
(0.191865 0.168974 0.0107198)
(0.251024 0.215299 0.0145601)
(0.199381 0.199641 -0.000382743)
(0.579878 0.00194807 0.00076567)
(0.579008 0.00174701 -9.14806e-05)
(0.589897 0.0115046 -0.00436987)
(0.197104 0.196602 0.000380089)
(0.403865 0.353705 -0.0872503)
(0.551159 0.0020623 0.00480038)
(0.589489 -0.00263439 0.00144445)
(0.579607 0.00203906 0.0013466)
(0.549425 0.0557978 -0.0039335)
(0.58805 0.00127043 -0.00174762)
(0.19897 0.198964 0.000117538)
(0.587749 0.00152371 -0.00138868)
(0.565414 0.000715519 0.00120494)
(0.593869 -0.0135086 5.89796e-05)
(0.597346 -0.00357116 0.00754132)
(0.574644 -0.00486002 -0.00419371)
(0.198775 0.199821 -0.000651718)
(0.19923 -0.199677 -0.00043937)
(0.200197 0.198871 0.000770331)
(0.198141 -0.198683 -5.57157e-05)
(0.587812 -0.00248914 0.000305958)
(0.582194 -0.000467945 7.50153e-05)
(0.584008 0.00266826 -0.00245844)
(0.587994 0.00156119 -0.0018002)
(0.198062 0.198239 -0.0008519)
(0.581041 -0.00376425 -0.00170044)
(0.200003 0.200023 6.12524e-05)
(0.199399 -0.199847 6.38276e-06)
(0.587775 0.00188209 -0.00133613)
(0.184394 -0.184466 0.00273012)
(0.325734 -0.0635309 -0.00357532)
(0.197001 -0.196225 -0.000205976)
(0.200341 0.19666 0.00116487)
(0.58255 0.000639838 -0.000558631)
(0.200041 0.199901 2.1837e-05)
(0.575103 0.00161136 -0.000175756)
(0.547119 0.000419334 -0.00225676)
(0.200588 0.200596 -5.46774e-05)
(0.525687 -0.000208459 -0.00250883)
(0.57286 0.000923094 0.00103387)
(0.201683 0.176193 -0.00653564)
(0.569213 0.00251635 0.00301467)
(0.540918 0.00228465 -0.000566988)
(0.573386 0.00271901 0.000973873)
(0.533647 0.00107527 0.00737045)
(0.578477 0.00156232 0.000478727)
(0.553025 0.000259024 -0.000938254)
(0.197779 0.16796 -0.000871252)
(0.198827 -0.198487 0.00123276)
(0.494702 0.000902925 0.0121992)
(0.198285 0.198926 -0.0011758)
(0.572421 0.00293739 0.00295494)
(0.596134 -0.00328216 0.0058753)
(0.20069 0.191469 0.00175022)
(0.199498 0.200387 -3.28865e-05)
(0.586207 -0.000847331 0.000437689)
(0.563573 -0.00256414 -0.0051827)
(0.566374 0.00292249 0.000295518)
(0.586962 0.00197181 -0.000771979)
(0.199968 0.199611 -7.81088e-05)
(0.597677 -0.000965432 0.0100395)
(0.589328 -0.00202116 0.0030238)
(0.200885 0.200571 1.95551e-06)
(0.576256 0.00953267 0.0078463)
(0.549795 -0.00229042 -0.00628552)
(0.199617 -0.199688 -1.33491e-05)
(0.198923 -0.198939 7.43431e-05)
(0.573971 0.00163951 -0.000530272)
(0.578215 0.000386768 -0.000918983)
(0.200122 0.200048 -0.000310845)
(0.199614 -0.199198 -0.000299635)
(0.345036 -0.189186 0.041767)
(0.20034 -0.200471 8.18178e-05)
(0.578524 -0.00115159 -0.000196391)
(0.198569 0.199285 0.000422178)
(0.200431 -0.200514 1.15094e-05)
(0.591186 -0.000195602 0.00185516)
(0.536845 -0.00647557 -0.0153617)
(0.584115 -0.0037306 0.000849389)
(0.565435 -0.000207025 0.00100365)
(0.200765 0.200632 2.81988e-05)
(0.260995 0.200058 0.0100546)
(0.56528 0.00786417 0.011899)
(0.244167 0.214382 0.0122323)
(0.563751 0.0025175 0.00476923)
(0.56024 -0.00491242 0.000161987)
(0.586212 -0.00219141 -0.00174911)
(0.404247 0.00713039 0.0154903)
(0.239729 0.205349 0.0107323)
(0.584102 0.000856574 -0.00560801)
(0.592479 0.018985 -0.00579475)
(0.199878 -0.200203 0.000262239)
(0.591704 0.00144477 -0.00625976)
(0.592159 -0.00245577 0.00227033)
(0.200044 -0.199982 0.000182668)
(0.574784 0.0326848 -0.0193056)
(0.498402 0.000171493 -0.00644342)
(0.253567 0.198729 0.00802706)
(0.589821 -0.00114926 0.00238291)
(0.582341 0.000785602 -0.000778897)
(0.578466 0.00156295 -0.000405304)
(0.200002 0.199891 -5.60758e-05)
(0.575235 -0.000958651 0.00410929)
(0.59209 5.34785e-05 0.00193956)
(0.573085 0.00567141 -0.000583488)
(0.358798 -0.00563027 0.00659822)
(0.244425 0.229863 -0.00508819)
(0.339023 -0.0109189 0.0123585)
(0.199753 -0.200051 0.000188614)
(0.531205 -0.0187074 -0.0178563)
(0.575361 -0.00106871 -0.00370192)
(0.200075 0.19998 0.000280858)
(0.548728 0.00129002 -0.00389725)
(0.450078 -0.00104346 0.00885972)
(0.261085 0.229633 -0.00243877)
(0.200057 -0.199932 -3.53119e-05)
(0.233031 -0.19934 0.00631721)
(0.200323 -0.200261 -2.96141e-05)
(0.572683 0.00345686 -0.000421332)
(0.577269 0.00328945 -0.00103161)
(0.573259 -0.00167463 -0.00163438)
(0.538216 0.00114974 -0.00299298)
(0.585872 -0.0114888 -0.00232945)
(0.199811 0.198905 -0.000387792)
(0.568177 -0.000588599 -0.00120839)
(0.200774 -0.199049 -5.48429e-05)
(0.563557 0.00204535 0.00139934)
(0.200792 0.200854 -1.87708e-05)
(0.200165 -0.2 -2.88456e-05)
(0.1974 -0.197984 -0.000313852)
(0.553627 -0.00392788 0.000451427)
(0.199103 -0.199302 -0.000210921)
(0.199921 -0.199978 2.08618e-05)
(0.196988 0.128816 -0.00858458)
(0.200334 -0.20048 9.37978e-05)
(0.197567 0.200157 0.00186554)
(0.567142 -0.00227876 -0.00124028)
(0.200049 0.199861 -3.13641e-06)
(0.237843 0.174879 0.00041072)
(0.200145 0.200264 0.000285186)
(0.199054 -0.198378 1.00821e-05)
(0.199914 0.199073 -0.000339874)
(0.198845 -0.197787 -0.0010502)
(0.198432 0.198609 1.28508e-05)
(0.515828 -4.76293e-05 -0.00401852)
(0.200191 0.19904 0.000861803)
(0.530309 0.00805661 0.0113199)
(0.580433 0.00139021 -0.000817495)
(0.596508 -0.0240318 -0.00380355)
(0.200803 0.19988 -3.82466e-05)
(0.504213 0.0015518 0.0092518)
(0.200261 0.199503 0.000110321)
(0.200405 -0.200502 -8.64688e-05)
(0.569563 -0.00479973 -0.00578853)
(0.570844 -0.00416405 -0.00543584)
(0.574379 -0.00169109 -0.000816965)
(0.600049 0.00110017 -0.0111361)
(0.230744 0.193579 -0.00637513)
(0.587452 0.000684715 -0.00352019)
(0.586979 0.000724856 -0.00318828)
(0.579648 0.00116314 3.52976e-05)
(0.570024 0.000685371 0.000248754)
(0.578785 -0.00588929 -0.00458021)
(0.198628 -0.198703 -0.000127889)
(0.580091 0.00102205 1.1224e-05)
(0.263444 0.228032 -0.00115641)
(0.578571 0.00140717 -0.000733369)
(0.199683 0.199432 -7.05191e-05)
(0.58936 0.00179689 -0.00329831)
(0.260509 0.215668 0.00267284)
(0.581086 0.00035942 -0.000750808)
(0.583252 -0.00300442 0.00198446)
(0.229957 -0.119341 -0.000874768)
(0.199676 0.199854 0.00230165)
(0.570648 0.0010763 0.00112661)
(0.19972 -0.199706 4.48206e-05)
(0.591679 0.00222093 -0.00407943)
(0.587483 0.00239043 -0.00264463)
(0.199863 0.199229 -0.00165247)
(0.199296 0.199312 0.000463847)
(0.195805 0.174177 -0.00406927)
(0.200066 0.200204 7.60625e-05)
(0.409878 -0.0231211 0.00867402)
(0.591961 0.00202014 -0.0039015)
(0.203276 0.198349 -0.000155101)
(0.199551 0.199992 0.000363331)
(0.506086 0.000719012 -0.00110198)
(0.200344 0.200363 2.7329e-05)
(0.58297 0.00167651 -0.00239332)
(0.200204 0.200126 1.49975e-05)
(0.576901 -0.00348367 -0.00162669)
(0.200234 -0.200302 -8.17352e-05)
(0.540606 -0.00248195 -0.0078742)
(0.443985 -0.00195391 0.000494472)
(0.543464 0.00177953 -0.00103939)
(0.581374 0.000662046 -0.000793762)
(0.200418 0.199018 -0.000641237)
(0.524791 0.000692743 -5.41261e-06)
(0.20037 0.199649 0.00019798)
(0.200174 0.200178 -0.000540769)
(0.574338 -0.00129011 -0.00068933)
(0.199809 0.199519 -7.90955e-05)
(0.488887 -2.19613e-05 -0.00485035)
(0.192335 0.176346 -0.00615248)
(0.583955 0.00173638 -0.00202063)
(0.198884 -0.199026 5.71408e-06)
(0.588671 0.000729899 -0.00129872)
(0.200563 -0.200361 2.0206e-05)
(0.239377 0.210808 0.00667755)
(0.595277 0.0219819 -0.00211502)
(0.570211 -0.00486449 -0.00589057)
(0.580498 0.0023715 -1.48823e-05)
(0.583685 -0.00619922 -0.0040405)
(0.577715 0.00128592 -0.000576654)
(0.589879 -0.003467 -0.000305425)
(0.197822 0.199279 -0.00090213)
(0.580336 0.00333353 0.00173583)
(0.573027 -0.00549974 -0.00556634)
(0.19999 0.200069 -9.82704e-05)
(0.488623 -0.00628116 -0.0198701)
(0.593455 -0.00528207 -0.00336866)
(0.569882 0.00259445 0.00223581)
(0.197327 0.194595 -0.001154)
(0.246637 0.0443015 -0.0398572)
(0.557172 0.00141394 0.0018276)
(0.453069 -0.00202171 0.00488421)
(0.467639 0.108949 -0.00448531)
(0.255967 -0.133871 -0.00991762)
(0.588018 -0.00576394 -0.00103888)
(0.553266 0.00226072 0.00435358)
(0.569625 -0.00528822 -0.00575016)
(0.581797 -0.00311148 -0.00107915)
(0.571635 0.00321293 0.00140862)
(0.504174 0.0629837 -0.00176589)
(0.248777 0.210338 0.00183863)
(0.513736 -0.0221966 0.00587119)
(0.499449 -0.0463718 0.0103668)
(0.199757 -0.19981 0.000134412)
(0.510923 0.00359656 -0.0014871)
(0.201318 0.19744 -0.00105071)
(0.235343 0.21335 0.00205167)
(0.578449 0.000977085 -0.000203605)
(0.50897 0.0832146 -0.00156337)
(0.613068 -0.0578944 -0.00787167)
(0.556007 -0.104644 0.000517744)
(0.235029 0.222558 -0.0155028)
(0.586948 -0.00357349 -0.000990844)
(0.579325 0.0032211 0.00262181)
(0.199567 0.199028 -4.22514e-05)
(0.259571 0.142177 -0.00542223)
(0.578848 0.00454426 0.00288485)
(0.200014 -0.19925 0.000169681)
(0.2 0.199891 -4.81318e-05)
(0.199238 0.199149 1.81052e-05)
(0.200462 0.19937 0.000220193)
(0.586328 -0.00571187 -0.0024545)
(0.200172 0.200144 0.000117471)
(0.200312 -0.200516 0.00101268)
(0.576111 -0.0035842 -0.00262023)
(0.53105 0.000259082 -0.00137268)
(0.29031 -0.254934 -0.013794)
(0.578962 0.00441108 0.00273032)
(0.234265 0.188246 0.00447842)
(0.581379 -0.00201152 -0.0011035)
(0.195643 -0.195349 -0.000637376)
(0.1996 0.20002 -7.12069e-05)
(0.585377 -0.00365719 -0.000845431)
(0.199871 0.198703 -0.000797571)
(0.200292 0.199768 8.39359e-05)
(0.229833 0.219377 0.00664779)
(0.550239 -0.000347111 -0.000439012)
(0.332777 0.277695 -0.0370703)
(0.57681 -0.00230197 -0.00099215)
(0.578147 0.000917822 -0.000218238)
(0.197851 -0.196611 -0.00155195)
(0.599008 -0.00106064 0.0191902)
(0.547279 -0.00316247 -0.00809897)
(0.574988 -4.90452e-05 -0.000477757)
(0.582292 0.0111547 0.00125852)
(0.583475 0.00426291 -0.0120672)
(0.501779 0.000247171 -0.00455101)
(0.199816 0.199502 8.50956e-05)
(0.586575 0.000600565 0.00176158)
(0.582251 0.00239711 -0.000393317)
(0.197849 -0.200443 0.000289645)
(0.540531 -0.000405416 -0.000300732)
(0.586201 0.00364635 -0.000898847)
(0.587537 0.00275977 -0.000992617)
(0.532041 -0.00237675 -0.00520589)
(0.587233 0.00264473 -0.00110137)
(0.587605 0.00324447 -0.000286806)
(0.199878 -0.197237 0.00130757)
(0.58887 -0.00103772 0.00260048)
(0.483834 -0.00362549 -0.00113313)
(0.241704 0.209173 0.0132559)
(0.587323 0.00213104 -0.0015412)
(0.559956 0.000904368 -0.00129381)
(0.323291 0.262322 -0.0402598)
(0.578611 0.000922621 -0.000228198)
(0.587523 0.00188113 -0.00182888)
(0.560245 0.000542549 -0.00215459)
(0.583331 0.00241744 -0.000228933)
(0.575282 0.00638424 0.00259536)
(0.579352 0.000892608 -0.000128523)
(0.195482 0.190823 0.000283497)
(0.58296 0.00274326 -0.000360166)
(0.546081 -0.00345701 -0.00746481)
(0.223435 -0.13731 0.00510572)
(0.580153 0.00538643 0.00356045)
(0.572305 0.00514328 0.00526074)
(0.581039 0.00149452 -4.96255e-05)
(0.19936 0.198898 0.000182912)
(0.562019 0.0034506 -0.00543128)
(0.199859 -0.198719 0.00062256)
(0.200035 0.200029 -0.000200316)
(0.198786 0.197431 -0.000116789)
(0.200597 0.199345 4.07556e-05)
(0.487708 0.000261798 -0.00196584)
(0.238976 0.205824 0.00875213)
(0.449655 -0.0281289 0.0301596)
(0.198505 -0.198726 -5.53274e-05)
(0.199423 0.202054 -0.000407936)
(0.579806 0.0061769 0.0032187)
(0.584661 0.00124826 -0.00254081)
(0.199989 -0.199978 1.74836e-05)
(0.584203 -0.00377728 -0.000163955)
(0.200015 -0.199816 0.000662453)
(0.200254 -0.200102 -4.25247e-05)
(0.196508 -0.196624 0.000584268)
(0.592017 -0.00428711 -0.00049003)
(0.495658 0.00318165 -0.00120631)
(0.237864 0.212479 0.00354998)
(0.199643 -0.197802 0.000817299)
(0.199759 0.200451 -0.000297424)
(0.19956 0.199777 2.73604e-05)
(0.5964 0.00103986 -0.00683715)
(0.579892 0.00102835 -0.000244197)
(0.238011 0.223656 0.0104697)
(0.590552 0.00178819 -0.00335274)
(0.549689 -0.00949788 -0.0227312)
(0.199669 0.199819 -7.20498e-05)
(0.58909 0.00124845 -0.0029978)
(0.538646 0.00024317 0.00291028)
(0.571816 0.00299469 -0.00355909)
(0.200627 0.200555 2.15055e-06)
(0.199339 0.199269 9.69085e-05)
(0.569167 0.00253023 0.00328025)
(0.581782 0.00120602 -0.000295468)
(0.237627 0.215131 0.0034841)
(0.199142 0.199062 6.29616e-05)
(0.201993 0.195453 -0.000577912)
(0.578667 -0.00130107 0.000535962)
(0.199896 -0.199858 -0.00028181)
(0.199022 -0.198293 0.000171125)
(0.198669 0.198632 -3.92251e-05)
(0.588665 0.00171497 -0.00271184)
(0.513891 -0.00267102 0.000604673)
(0.200528 0.200545 2.29343e-05)
(0.224165 0.0368221 0.042442)
(0.249134 -0.0329128 -0.00949245)
(0.567808 0.00311748 7.55619e-05)
(0.19971 0.199998 -7.95924e-05)
(0.200071 0.199727 -0.000169735)
(0.589679 -0.00684387 -0.000969649)
(0.56527 0.0103043 0.00947769)
(0.240874 0.214874 0.0110141)
(0.352745 0.111063 0.00703792)
(0.555869 0.010431 0.0171292)
(0.533418 0.00170819 -0.00357881)
(0.568642 0.000395489 -0.000372464)
(0.206266 0.193453 -0.000425352)
(0.563898 0.00132139 -0.000405197)
(0.585684 -0.00388512 0.00414837)
(0.200372 0.199754 -0.000232758)
(0.198267 -0.194918 0.000301873)
(0.198557 0.198664 3.53729e-05)
(0.19926 0.199204 -4.8058e-05)
(0.200134 0.200525 -0.000279155)
(0.200578 0.200645 -2.56256e-05)
(0.590073 0.00196139 -0.00299605)
(0.200108 -0.200013 0.000106146)
(0.199003 0.199022 2.75917e-05)
(0.198925 0.196219 -0.00022547)
(0.590632 0.00189194 -0.00335406)
(0.581612 0.00122343 -0.000273118)
(0.200797 -0.198172 -4.14557e-05)
(0.197316 -0.195229 0.000440556)
(0.5951 -0.00283828 0.00530939)
(0.565356 5.7469e-05 0.000806786)
(0.564416 0.000249115 0.000882185)
(0.199895 -0.199439 -9.34327e-05)
(0.198986 0.198957 0.000115886)
(0.5649 0.000160932 0.000805148)
(0.200306 -0.200129 2.03121e-05)
(0.559252 0.00145415 0.000215736)
(0.570057 0.00123582 0.00188739)
(0.571801 0.00164849 0.00107823)
(0.19997 -0.198504 0.000479951)
(0.200285 -0.200384 3.85504e-05)
(0.200204 -0.200379 -3.69593e-05)
(0.200239 0.200278 6.30064e-05)
(0.57784 -0.00288516 -0.00149724)
(0.199927 0.200135 6.89405e-05)
(0.198422 0.198646 6.39236e-05)
(0.576705 0.00199497 -0.00297588)
(0.200291 -0.200343 0.000108402)
(0.567677 0.000356699 0.000736468)
(0.513551 -0.00562494 0.00121317)
(0.200974 0.193873 0.00110397)
(0.580636 0.00138353 -0.00022367)
(0.269932 0.0382819 -0.00538604)
(0.573376 0.00042293 0.000457151)
(0.591255 -0.00142505 0.00133626)
(0.522959 0.00204516 0.00104699)
(0.592335 -3.79791e-05 0.00426127)
(0.429924 0.0113913 -0.0160454)
(0.239144 0.189995 0.00401075)
(0.572047 1.79112e-06 0.000446664)
(0.594968 0.00422623 -2.55524e-05)
(0.580548 -0.00132137 -0.0004859)
(0.204912 0.177536 -0.00622146)
(0.268174 0.0179162 -0.00802847)
(0.309087 -0.0303872 0.0116846)
(0.57288 0.000521529 0.00022846)
(0.198831 0.199207 0.000245701)
(0.560542 -0.00104728 -0.00384089)
(0.572509 -0.000179246 -0.00102967)
(0.555599 -0.00473553 -0.0088469)
(0.214672 -0.156883 -0.0117586)
(0.200341 -0.20047 8.64539e-05)
(0.2 -0.200002 -4.92e-06)
(0.582986 -0.00168632 7.51554e-05)
(0.234431 0.193628 -0.0025131)
(0.553535 0.00200969 0.000895733)
(0.21757 0.198067 0.00274632)
(0.549933 -0.00107234 -0.00392043)
(0.567345 -0.00134292 0.000536057)
(0.56049 -0.000833858 0.00149708)
(0.581665 0.00133072 -0.000398276)
(0.199021 0.199009 -5.07355e-05)
(0.198031 0.197417 -0.000448199)
(0.213133 -0.194673 0.000902638)
(0.580299 0.00151624 0.000121226)
(0.200389 0.199794 -1.78902e-05)
(0.231934 0.198625 -0.00904902)
(0.593775 0.0121999 -0.0102512)
(0.200118 0.199809 -0.000160044)
(0.198785 0.199721 0.000701728)
(0.198465 -0.197816 -0.000324471)
(0.200418 0.200475 4.99977e-05)
(0.55423 -0.00016354 0.0015634)
(0.203463 0.193113 0.000325782)
(0.200133 0.199972 8.48953e-05)
(0.46409 0.0618085 -0.0456454)
(0.235515 0.189591 -0.00230184)
(0.197836 0.19823 -0.00186981)
(0.28407 -0.171704 0.0114111)
(0.199861 0.199632 -0.000258703)
(0.45505 0.00225466 -0.00301112)
(0.565768 -0.001031 0.00103609)
(0.198521 -0.198563 7.62363e-07)
(0.555892 0.00072865 -0.00174502)
(0.553497 0.0889449 -0.00797746)
(0.55154 -0.00529102 -0.00886308)
(0.60604 0.0231682 0.00027119)
(0.54697 0.000418193 -0.000776341)
(0.19991 0.198204 0.000832643)
(0.571852 -0.00532813 -0.0059947)
(0.592575 -0.00135558 0.00123158)
(0.55128 -0.00536253 -0.00885086)
(0.199999 -0.200214 1.09185e-05)
(0.598288 0.152869 0.0385773)
(0.552608 0.00104635 0.00108341)
(0.267547 0.213231 -0.0132291)
(0.548923 -3.72967e-06 0.000644322)
(0.598661 0.00710339 -0.00549749)
(0.57215 0.0115982 0.000437719)
(0.567272 -0.00156105 -0.00197695)
(0.567967 0.00179077 0.000162287)
(0.603295 0.0088012 -0.00298651)
(0.582233 -0.000838648 -0.000763249)
(0.576419 -0.000571756 0.000482112)
(0.198235 0.198999 0.000710157)
(0.198969 0.197885 0.000564435)
(0.55682 0.00150108 0.000935662)
(0.547224 0.000863398 0.000741163)
(0.199533 0.20008 -1.67321e-06)
(0.565097 0.000503102 0.000105714)
(0.590948 -0.00183507 0.000570708)
(0.577311 -0.0011417 0.00041792)
(0.199412 0.19729 -8.42671e-05)
(0.569923 0.0114979 0.00235955)
(0.199226 0.199082 -1.07886e-05)
(0.576802 -0.000601519 0.000434797)
(0.577988 -0.000609619 0.000298283)
(0.199898 0.199798 -3.0142e-05)
(0.552275 0.00307121 -0.00175232)
(0.576396 -0.000348031 -4.76018e-05)
(0.567855 0.0104878 0.000564009)
(0.557719 0.000207441 0.00204242)
(0.204428 0.200448 -0.000329435)
(0.584645 -0.00173791 0.00174552)
(0.5697 0.0130439 -5.47492e-05)
(0.602352 -0.0159542 0.00346771)
(0.508086 0.0069229 0.00110898)
(0.453001 0.00143622 -0.00583834)
(0.199833 0.197661 -0.000274562)
(0.199466 0.1993 6.5951e-05)
(0.559861 0.00790796 0.00104832)
(0.200428 0.200426 -9.02554e-05)
(0.487471 -0.00135806 -0.00143413)
(0.562598 -0.00285249 -0.00408884)
(0.339803 0.0441095 -0.0134506)
(0.625497 -0.0423135 0.016725)
(0.552508 -0.0249671 0.00788956)
(0.614302 -0.023498 0.00581596)
(0.200349 0.200366 -5.81507e-05)
(0.273575 0.232365 0.00156244)
(0.582684 0.00153222 -0.000346402)
(0.199286 -0.200195 -0.000805103)
(0.114282 -0.0814858 0.0313249)
(0.574688 -0.0107344 -0.00809856)
(0.198568 0.198157 -0.000468155)
(0.200459 0.20021 2.37098e-05)
(0.517111 -0.009831 -0.000140514)
(0.418207 -0.029342 0.00148344)
(0.200472 0.200502 -3.13377e-05)
(0.517944 -0.0105123 0.00203284)
(0.198522 0.198275 8.51139e-06)
(0.200031 0.200393 -0.000333502)
(0.200059 -0.200037 -5.10202e-05)
(0.200137 -0.199662 0.000477381)
(0.19596 -0.194323 0.000600019)
(0.199488 -0.199077 -4.2372e-06)
(0.520492 0.00478128 -0.00171237)
(0.197569 0.196047 -0.000148087)
(0.199999 0.200131 8.1175e-05)
(0.198319 0.1995 0.000473248)
(0.484872 -0.108427 -0.0278847)
(0.548574 -0.00492942 -0.0107426)
(0.530494 -2.31476e-05 -0.00490552)
(0.582699 0.00147138 -0.000396156)
(0.198599 0.197391 5.55752e-05)
(0.201083 0.200335 2.05352e-05)
(0.558205 -0.00955498 -0.0116358)