/*--------------------------------*- C++ -*----------------------------------*\
  =========                 |
  \\      /  F ield         | OpenFOAM: The Open Source CFD Toolbox
   \\    /   O peration     | Website:  https://openfoam.org
    \\  /    A nd           | Version:  10
     \\/     M anipulation  |
\*---------------------------------------------------------------------------*/
FoamFile
{
    format      ascii;
    class       volScalarField;
    location    "60";
    object      SgT;
}
// * * * * * * * * * * * * * * * * * * * * * * * * * * * * * * * * * * * * * //

dimensions      [1 -1 -3 -1 0 0 0];

internalField   nonuniform List<scalar> 
111485
(
3.59605e-16
0.00901866
0.0210445
1.47049e-17
0.0449888
4.18657e-16
0.0416989
0.00587992
0.0184014
0.00113136
0.0418596
0.0091599
0.00424797
0.000835347
0.00593161
0.0316472
0.00129314
1.99795
0.0100311
1.49139e-16
1.23571e-15
9.16131e-17
0.0234689
0.0355117
0.00847019
8.7276e-17
0.0401136
0.0017361
0.015939
2.41737e-17
0.0435861
0.0173531
6.0399e-16
2.4951e-17
0.00967002
1.5663e-18
0.0105306
0.00388776
6.44449e-08
0.0215911
2.33671e-18
0.0720065
0.0144307
0.000996822
3.66041e-05
4.01692e-17
0.0328279
0.000720306
0.0475727
2.57512e-16
1.19253e-15
2.89321e-15
1.89631e-15
0.0444607
2.90739e-15
0.0430291
0.00355235
2.14555e-19
2.70512e-05
0.00449328
0.0149358
3.47418e-18
0.00402062
0.0883703
6.04091e-16
0.00359231
0.30096
0.0973655
0.000922732
0.00512496
6.61755e-06
0.00547347
1.89624e-14
0.00244703
1.63289e-18
0.000637931
7.86753e-17
0.0425239
1.96856e-16
2.41559e-15
5.15739e-05
0.031607
2.63323e-16
4.14884e-18
0.0081267
0.00442631
5.84375e-10
0.0225328
4.64681e-05
0.00678422
0.000867872
0.0411024
0.0103425
6.13969e-05
0.0559796
2.22834e-16
6.49464e-18
0.00145223
8.48583e-09
0.0014791
1.25429e-15
0.0195141
3.91146e-19
0.0214639
0.00482857
2.52617e-15
1.952e-18
0.00747652
0.00318643
1.50007e-07
0.00563354
0.00507141
0.00313954
0.00264445
7.82132e-17
3.04444e-05
3.14782e-16
2.82584e-18
0.0113623
2.92117e-16
8.77259e-17
7.78802e-16
1.19509e-17
5.15899e-19
0.00233685
2.33021e-06
2.48847e-16
0.00149883
1.38728e-18
0.000173033
0.000989753
0.0280604
9.43344e-18
4.99529e-16
5.58379e-15
0.0491624
4.37773e-17
0.0409716
0.022532
0.00255122
0.000171914
0.00186938
0.0204526
0.0031055
0.00380359
0.0122026
6.04806e-17
1.83134e-17
1.15612e-17
0.026244
0.00182997
7.34127e-17
1.33036e-07
0.00502885
4.80178e-07
0.0106202
0.0154971
0.00942582
1.68868e-07
1.17598e-17
3.12184e-17
0.0526828
0.0252364
5.16206e-06
2.31836e-07
0.00518755
0.00369303
5.4516e-19
9.96588e-06
6.58734e-05
4.73309e-19
9.15385e-18
0.000148399
5.84088e-18
0.00613749
0.00226969
1.65937e-16
8.80519e-16
2.99991e-15
9.55511e-16
1.6321e-16
4.141e-17
0.00134065
0.00671851
0.0277173
0.00416069
0.00641909
0.00356825
9.48482e-05
3.18467e-17
0.00425174
4.07289e-16
1.10165e-17
0.00582425
0.0110818
0.0227937
0.0103174
0.00462956
2.689e-17
0.00604655
0.000572965
4.51961e-05
0.0111842
0.00230499
2.92156e-17
0.00325944
0.0275324
2.44882e-15
0.000230318
0.00651365
0.00227992
0.000309634
1.00334e-14
1.14933e-16
0.00728631
7.30357e-12
0.123816
9.76976e-17
0.00600943
0.0190218
0.121846
2.00668e-17
0.00267526
0.0120124
2.10089e-13
3.14399e-18
6.91751e-19
0.166595
4.18741e-07
7.39085e-16
1.7514e-16
0.00914395
0.00847025
0.0160007
2.63538e-16
3.06487e-14
9.32689e-06
2.66855e-17
0.00272507
0.00832859
0.0149814
0.010786
0.00917497
8.67194e-19
3.22158e-07
0.000565372
2.77687e-18
2.01207e-16
0.0307245
0.0214568
1.97584e-15
0.00559844
0.00978858
7.19205e-18
5.67618e-17
0.000153089
4.5315e-16
3.02402e-15
3.91899e-05
3.25358e-16
0.015619
0.011728
0.00335727
9.77254e-17
0.0109662
6.62904e-18
2.22237e-17
2.52252e-19
3.72065e-08
0.0225728
0.00553008
0.00467024
0.0369772
0.0109727
0.00149619
0.000591101
0.0340463
0.0094165
9.99981e-17
1.30397e-17
3.36668e-07
0.0220516
0.0215171
0.0128315
1.71385e-16
0.00633048
0.00194911
0.00276203
6.14442e-06
4.40295e-06
0.0122028
0.00211712
0.00186233
6.83115e-18
0.000778642
8.2998e-17
5.2887e-07
2.26282e-13
0.266575
0.0682849
0.013837
1.30874e-15
7.01971e-19
0.00831035
0.00190266
3.34665e-16
1.55827e-17
9.84384e-15
0.000416294
0.0622542
0.00334177
0.0154418
0.0182881
1.64376e-15
1.64468e-17
4.59561e-18
0.00351051
3.47945e-13
0.00132653
0.187093
5.82492e-07
1.88075e-17
4.34874e-17
2.46458e-17
1.66152e-16
0.0574351
0.0123235
7.04564e-19
0.00486353
5.41396e-16
4.06115e-15
0.0671745
0.00538547
0.0107298
0.00854889
8.32254e-16
2.81567e-15
9.59432e-19
0.00872567
0.0189322
0.00470017
3.02785e-16
1.90944e-10
0.000225232
0.00178013
0.00734339
6.3416e-05
0.0284732
8.61319e-17
0.0370379
0.0031576
0.00788184
0.0230667
0.0147278
1.76045e-17
1.36023e-16
6.62201e-18
3.4632e-16
0.0320884
0.00856883
0.0370915
0.0669752
1.89203e-17
0.020149
5.05017e-18
8.26478e-17
0.0161298
5.29611e-15
0.039998
1.46928e-17
1.30416e-18
0.0237382
1.00525e-19
0.0141063
0.000335095
4.6286e-17
0.00112399
0.0150779
7.04452e-16
0.00797918
0.0106718
0.0073899
0.000434561
0.00291797
0.0061396
3.57159e-15
2.19725e-17
0.00136501
5.9016e-18
0.00500645
0.112139
7.65066e-17
6.70016e-18
0.02561
0.00012757
0.00759178
0.0224708
1.42371e-16
0.0389849
0.0197436
1.86737e-17
0.000695758
0.00281806
3.95225e-17
5.76626e-17
0.0118128
0.00487479
3.83843e-19
2.45941e-15
1.0805e-08
5.28784e-17
0.0105708
1.31732e-16
1.89182e-17
0.0177294
2.47407e-06
0.0146302
0.0266833
8.32089e-17
3.58789e-16
0.00108356
1.47028e-15
0.000107666
0.0108187
0.121688
0.905569
1.15337e-15
0.0026027
0.000234387
2.1398e-17
0.0350419
0.0331073
4.03026e-18
1.13891e-08
0.000108594
2.719e-16
0.025695
0.0268926
0.0127306
2.63721e-17
0.000589894
0.0206431
0.0212148
6.03831e-07
1.6451e-15
9.49955e-11
7.34147e-18
2.0771e-05
0.0318522
1.15881e-17
0.00957724
6.81236e-05
6.10392e-15
5.05493e-18
1.11431e-14
1.44125e-16
0.0042928
0.00951569
0.00710953
0.00244116
0.00338865
1.43539e-16
0.00228556
5.69139e-17
0.0356487
1.51062e-16
3.27417e-17
6.35754e-18
0.0318015
5.64753e-18
8.5038e-17
3.37039e-07
2.78171e-17
4.88449e-18
0.0008756
1.10085e-18
2.03752e-15
1.73755e-17
1.90907e-17
3.41811e-17
3.89611e-17
3.74102e-16
0.00815668
6.09549e-17
0.000392328
0.00165775
0.00267531
3.76153e-16
0.000624044
1.56249e-17
2.36205e-17
0.00310434
0.00204655
0.0293932
0.0222453
7.13868e-17
0.00186972
0.0726556
0.00842511
0.0011097
0.00365793
1.12636e-16
0.0223921
6.45022e-16
0.00428075
8.42796e-17
0.0691202
6.94678e-16
0.0210631
0.000322456
7.48568e-08
3.88199e-17
0.00233525
1.36101e-16
0.0759214
0.0443179
3.87715e-18
1.7975e-18
1.05529e-15
3.70725e-19
1.9401e-10
0.0545957
4.05437e-16
7.25785e-18
0.00287984
3.85118e-17
0.0304137
3.76363e-17
0.000350882
1.60674e-16
0.000586233
7.45493e-07
0.0011212
0.012456
2.57427e-16
0.000366083
9.69891e-16
1.01754e-17
0.0162812
9.31857e-18
3.57113e-05
1.82398e-15
0.00147684
1.02665e-16
0.0661528
3.25445e-18
5.0657e-15
0.0121163
0.00387787
0.00150457
0.00430682
0.00590922
0.020895
2.21856e-18
0.0207404
0.00708293
6.76406e-17
5.69221e-08
0.0314773
0.0125508
1.43198e-15
0.0055025
0.00543864
0.00127804
0.00139334
1.4698e-10
0.0137893
0.000982782
0.000166729
0.026767
0.0141802
0.00109353
3.1759e-15
3.0085e-09
0.619527
1.68203e-16
0.000417975
7.87786e-19
1.93117e-15
0.00729655
0.00363816
1.25161e-07
8.42326e-06
1.80867e-15
0.0185088
0.00994147
2.87291e-16
1.03116e-11
0.00204138
3.52678e-16
2.60973e-16
1.13529e-16
6.05429e-16
0.0152543
5.42311e-18
1.17085e-17
0.00987435
0.00233952
3.70985e-14
0.00936998
1.15271e-16
0.00860274
1.38869e-15
1.0786e-17
0.0571363
8.43757e-19
1.8447e-16
4.64115e-15
0.00490341
2.09542e-14
0.0328288
0.00638721
4.36213e-16
0.0727948
0.00283275
0.0261278
0.0235718
0.000929275
9.17433e-05
6.27584e-18
0.056908
0.041585
5.14846e-17
0.0003086
0.0361903
0.00708778
0.00155691
0.0244277
0.0237684
1.10098e-16
0.0104623
3.66925e-06
6.68533e-16
0.0320009
0.000299438
2.48582e-14
0.0109149
0.0388253
0.00158793
0.0185268
0.0168397
0.00706436
1.26216e-15
0.00915537
0.000400307
8.49011e-12
0.0144705
0.0149098
0.034789
4.1462e-17
0.00211324
1.17787e-18
6.84323e-17
7.50033e-17
2.55169e-16
1.68483e-05
4.74427e-15
1.32106e-10
6.96885e-17
4.0558e-16
5.16159e-05
0.0396537
3.91031e-16
0.0366005
1.01392e-16
8.17737e-17
1.30494e-15
0.0396382
0.000496213
7.18256e-16
3.80394e-18
1.93944e-17
2.74723e-17
0.238406
0.0684386
2.79636e-15
0.00177131
4.67628e-06
1.44958e-18
0.0349118
0.00649241
0.0129307
6.96545e-17
1.92414e-17
0.000392609
0.00106937
9.65615e-15
5.39911e-18
6.98619e-16
0.00706618
3.12097e-18
2.24387e-16
8.37211e-17
0.0385102
0.00161327
9.71516e-18
4.12149
0.142954
0.0109007
1.99063e-19
7.51292e-16
0.0567488
0.00030444
6.37772e-15
7.58618e-06
0.170133
0.00291092
0.0119159
2.04386e-15
0.057801
0.00152058
7.40045e-19
7.89755e-16
8.01625e-17
1.15568e-17
4.61639e-18
6.02832e-17
0.019343
1.25705e-16
4.23454e-17
1.49512e-15
0.0119143
0.0234254
1.38774e-15
7.39967e-16
0.10565
0.0133269
0.00877804
6.61292e-16
6.88907e-18
0.0345849
9.16032e-18
0.00227514
0.00240266
0.00353704
2.40621e-15
7.82521e-18
3.50438e-17
1.05709e-17
0.0158574
1.09881e-16
5.15829e-16
0.000817312
2.1932e-16
0.0211518
0.00140573
2.58406e-16
0.0358196
0.600215
0.0023235
0.0294367
0.000200157
0.0480092
2.35599e-10
6.3233e-15
0.021866
0.0766323
0.00620341
1.43521e-16
1.32935e-09
0.517831
0.00988983
2.59328e-18
0.00291451
0.00313554
0.00143417
2.339e-15
7.10217e-17
5.55393e-18
0.0126397
7.61444e-16
0.00232868
7.91855e-17
0.00145584
0.00127637
0.034325
0.00053499
1.25333e-16
6.98527e-17
3.9188e-15
0.0197164
7.31389e-17
8.02543e-17
4.2811e-05
3.90347e-18
2.65854e-19
9.17623e-18
3.49929e-18
0.00897409
1.02169e-15
2.33935e-17
7.23528e-10
2.09539e-16
5.22412e-19
1.21217e-14
1.15493e-16
3.26437e-06
0.00151608
1.42105e-15
0.00333344
1.22778e-05
2.78533e-07
8.52712e-05
0.0043911
3.12307e-18
1.00388e-05
0.00927491
0.000372244
1.05035e-17
1.09106e-08
0.000752832
9.24792e-16
0.00888266
0.000299947
2.01077e-06
0.0253107
0.00866965
0.00215969
0.00553696
0.00197618
8.60182e-17
9.59094e-17
0.0301275
0.0243834
5.82012e-18
0.00775925
0.0536832
0.0277361
6.73208e-16
0.00166118
6.90303e-18
0.0102786
0.0134818
1.49882e-15
0.00144137
0.000475535
1.50074e-06
0.00451087
7.09068e-16
0.0471596
1.93317e-05
0.00186068
4.02265e-05
1.37603e-05
1.81708e-18
3.73188e-17
0.00833835
3.1187e-17
8.9788e-05
0.000328686
1.06106e-05
6.49189e-08
6.17829e-08
1.2324e-06
1.19492e-18
6.62972e-16
0.0216322
2.34006e-17
0.00115754
0.0023521
2.8363e-16
2.67171e-16
6.41808e-07
1.63341e-10
6.44385e-17
3.33674e-06
1.96424e-17
4.25786e-17
8.26567e-19
2.31469e-17
8.47784e-15
8.7422e-18
0.000330493
3.98468e-16
8.64997e-18
1.34488e-17
4.72785e-06
7.05741e-05
0.00204236
0.00916501
1.06198e-17
2.1865e-16
0.000232613
1.6326e-17
2.10989e-16
9.75652e-14
0.0194382
0.0407384
8.84078e-18
9.20773e-17
5.06298e-16
1.49854e-16
1.49971e-18
2.60653e-16
0.00845686
1.13006e-16
7.93583e-08
0.0269289
7.15509e-18
2.16695e-16
1.58293e-15
1.51904e-05
4.24569e-15
5.26745e-17
7.75788e-18
5.87956e-06
2.551e-17
0.00530278
1.06907e-06
4.34007e-09
1.36734e-16
4.67442e-05
0.00260451
0.0434673
1.56128e-15
5.53378e-06
0.00722024
1.33302e-15
2.64574e-16
9.73583e-14
2.52414e-16
0.00787551
0.00174763
0.00396344
1.59528e-07
3.52049e-17
0.0222822
4.23605e-15
3.34717e-15
8.91358e-14
4.0935e-18
0.0253027
1.88646e-17
5.41215e-15
2.63428e-06
0.0487961
9.74768e-18
0.00300309
4.22811e-16
0.00112306
8.12692e-16
6.78558e-18
5.14211e-17
4.42692e-17
0.00264489
0.000682989
0.338765
1.98833e-16
3.42254e-16
0.00204966
6.01047e-17
1.38144e-15
5.70823e-17
0.0422416
5.5938e-06
0.0286677
2.72158e-16
6.48446e-06
2.97056e-05
7.95619e-14
6.9418e-05
1.0238e-15
0.00182566
0.0276309
0.020005
0.00164658
0.000326398
7.91305e-17
2.34389e-17
1.03269e-16
1.40188e-05
1.87798e-18
0.00543733
1.55708e-17
0.175798
4.51623e-17
0.0417059
0.00354239
4.22065e-15
1.40586e-17
1.42281e-15
7.65329e-18
0.0312947
1.16096e-14
1.16594e-13
0.0129916
0.00535651
4.13995e-15
1.0221e-14
2.93926e-15
5.95558e-15
3.47855e-16
6.75692e-19
0.020385
0.000519903
4.29733e-16
8.27185e-17
2.79462e-07
6.1947e-17
0.0013296
0.000115957
3.94548e-16
0.00271089
1.5645e-17
0.000331746
8.39677e-16
0.000890177
2.14516e-16
1.27484e-07
1.78979e-06
0.000876508
0.0143945
0.0274137
1.0122e-06
6.76149e-17
0.000448408
1.68873e-16
0.00437025
4.85319e-16
2.72938e-18
7.13547e-14
4.70899e-18
2.14615e-17
5.69626e-19
0.00569675
0.00627459
7.77432e-19
1.37001e-14
2.98437e-15
0.000535297
1.76333e-05
8.39715e-18
0.0184319
0.000213088
1.05239e-15
0.0224817
0.0081221
0.00332739
0.0134648
2.10402e-17
1.06934e-17
3.98264e-18
1.06375e-16
0.036269
6.23242e-17
0.103834
1.4347e-17
0.000217029
0.000729036
9.90238e-19
0.000670717
8.93398e-19
2.92029e-17
0.00227245
2.58755e-08
0.00589898
8.43082e-17
2.65723e-15
1.35319e-16
0.000694718
8.3834e-16
7.49588e-18
4.97395e-16
5.09557e-07
2.55033e-15
1.19098e-05
6.53369e-15
9.28767e-16
4.26222e-16
0.0178236
0.00959307
0.0176879
0.0342877
3.04139e-17
9.68763e-06
9.22207e-18
1.43703e-18
0.0107392
9.34801e-17
3.11224e-06
0.000255689
0.00629048
0.000240707
9.50197e-11
0.00242408
1.07077e-17
1.77289e-10
9.79488e-10
9.3296e-05
0.00123891
0.0134865
6.58661e-08
7.08123e-16
0.0311671
5.96121e-16
3.16639e-16
2.9626e-05
0.0745019
1.01548e-07
2.30428e-17
4.01665e-17
6.04567e-07
1.14301e-15
6.95555e-16
1.01723e-05
4.58432e-15
7.48491e-15
0.0419761
0.000141416
0.000105652
0.0234481
0.00717151
2.08155e-18
3.18154e-17
3.70022e-06
0.00419933
6.91141e-17
3.24693e-15
0.0112382
5.05899e-16
3.50568e-14
2.49104e-15
1.95189e-16
5.80797e-13
2.52199
4.99891e-18
0.000184271
1.63835e-16
0.0153394
2.74882e-16
3.38508e-12
3.21854e-16
1.69354e-17
1.45272e-17
1.76428e-16
0.00336462
3.37092e-17
3.84501e-17
2.06212e-15
3.52316e-16
1.30672e-18
1.5001e-17
0.00996398
2.55047e-17
0.0110342
0.0023342
1.73986e-16
0.00172717
3.57438e-16
0.000398823
1.49572e-06
0.00406791
0.0141753
3.67839e-16
8.95821e-05
0.00934183
4.49468e-06
2.06743e-18
1.08236e-06
0.016966
0.004762
1.79786e-16
0.0267128
6.9426e-16
6.59114e-18
4.54178e-16
1.55904e-17
0.00827216
3.00769e-17
5.16635e-17
0.00805412
1.08446e-07
0.0027856
1.33573e-18
6.43996e-14
0.000675711
6.20307e-18
0.000147235
2.12978e-15
0.0217497
2.38932e-16
1.14388e-16
5.53888e-05
9.33538e-17
0.000101571
9.96842e-17
7.324e-17
0.00534639
0.000391918
0.00489081
0.0174785
0.217451
0.0197334
9.22956e-17
6.12622e-15
0.00236953
0.00669323
0.0351934
0.013333
1.31978e-16
0.011284
2.43305e-17
4.48392e-16
0.00763454
0.0095916
1.1854e-16
0.0124319
1.03459e-18
0.0028416
0.00827263
2.28537e-16
8.19132e-17
1.76974e-18
0.00232428
7.557e-17
2.19535e-17
0.00354826
0.0199326
3.99191e-06
0.00767482
2.65018e-16
8.50985e-18
5.49061e-05
0.000656254
8.19428e-17
0.00924258
2.70856e-15
0.00243657
2.85147e-17
4.34183e-17
0.0111203
1.02505e-17
4.50476e-05
0.00296673
1.97815e-15
5.78755e-17
0.00365122
2.55806e-11
0.0539139
1.81009e-16
0.285282
3.54361e-17
5.12571e-14
3.10778e-14
0.00642683
6.45493e-15
2.88127e-16
0.00501183
1.11556e-15
0.000161811
5.14593e-16
2.7222e-16
9.1392e-16
1.56445e-07
0.000774465
1.59376e-16
2.51245e-17
0.0359662
0.000941204
8.03629e-16
0.000596236
2.49516e-16
6.42285e-17
1.19932e-06
0.00369057
0.00117284
2.79969e-16
1.12256e-18
9.92637e-17
1.12461e-17
6.55605e-16
3.51643e-16
5.2874e-18
1.11342e-16
5.33224e-18
9.90453e-17
2.47125e-17
2.70991e-16
8.35301e-17
7.39753e-17
5.93918e-17
3.98142e-16
5.91694e-16
1.19868e-16
1.1478e-16
6.47566e-17
8.66657e-18
0.0183514
7.36962e-17
1.60247e-16
3.12808e-18
0.00619307
1.50016e-18
6.98994e-17
0.194712
2.81971e-16
2.06348e-16
0.0219005
3.1572e-12
2.52178e-16
0.00437535
0.0232786
8.01882e-18
0.00127485
0.00216986
3.67269e-16
0.0111054
0.0373784
0.0165135
0.00287679
0.00975446
3.69143e-17
4.99117e-17
0.00275277
0.0101748
0.00268504
1.25938e-16
0.00559435
0.00135205
0.0186432
0.010701
0.000640618
0.0135939
0.00107007
0.00844124
3.58868e-18
0.0265771
0.00756192
0.00181914
0.00117524
4.30707e-17
2.31965e-17
1.52761e-17
7.83273e-18
3.01689e-17
0.00874004
0.0121987
4.81736e-18
4.52126e-17
1.65252e-15
2.57323e-16
2.53792e-16
1.84116e-15
1.85954e-16
4.21643e-17
0.00410559
8.65544e-05
0.019478
4.91693e-05
7.44415e-18
1.8564e-15
0.0331061
2.86178e-06
1.61503e-17
1.37394e-16
0.00700231
2.41529e-17
3.94696e-17
3.62552e-06
0.00701621
0.01223
0.0293425
0.0270231
2.34347e-16
0.0139838
0.000261487
2.37388e-14
4.62061e-16
0.0102076
3.67691e-16
1.61097e-16
0.0276966
0.993686
0.000149446
3.11021e-15
7.51147e-19
0.0153914
0.0222138
0.016214
0.00576798
0.00198814
7.81054e-18
6.81757e-07
2.27968e-09
7.76779e-18
9.90513e-15
0.0169708
3.73556e-16
0.00194002
0.0258696
0.0155139
0.0119726
4.21368e-18
0.00522981
4.10642e-18
3.91088e-16
1.45369e-17
8.33314e-17
0.00250929
0.710189
6.4866e-17
2.96759e-16
4.4651e-06
0.0224797
0.000464903
0.00617124
0.0312051
0.0045627
0.0197187
2.61152e-16
9.36796e-16
4.11204e-15
0.0306372
0.00510737
2.72239e-08
3.17345e-15
1.76459e-17
8.19315e-14
0.0186978
0.00268881
6.67581e-17
0.00431841
0.0449945
0.00817751
0.00544207
1.72332e-16
1.03961e-13
0.00613091
0.0215006
1.34116e-17
0.000238202
0.012032
0.00085676
0.00885006
0.00411634
0.00747628
2.89066e-14
0.00346443
0.0186937
0.0364815
1.2809e-09
0.0230119
7.25643e-15
0.0159248
0.000146431
2.07091e-19
0.00249404
0.00635105
0.000312829
0.0106782
2.17694e-07
0.000192044
1.7282e-05
0.0245708
0.00311824
1.55068e-15
0.0377496
0.00105711
5.17065e-16
6.56275e-17
2.55227e-08
4.9652e-06
0.000898276
1.01319
0.0325366
0.00776165
2.56745e-07
0.0371412
1.87297e-15
7.93198e-18
0.0038329
1.04652e-15
0.00231279
0.00615358
0.00180758
0.00445519
7.11035e-17
0.000238357
0.10213
5.18337e-17
0.0596176
0.00653064
3.22991e-17
0.00341966
0.000181069
1.82504e-17
2.13327e-09
9.47676e-05
3.27167e-16
7.19652e-16
4.38507e-19
0.00427138
0.00450616
0.0132451
1.18583e-17
0.00560872
0.0296806
5.36345e-16
0.00701895
0.0108703
0.0240689
0.00130365
5.64701e-17
0.000616666
0.00894535
0.00916846
0.00780248
0.0369
0.146407
0.0032472
5.23234e-17
5.94166e-06
0.050288
2.31255e-17
0.00037487
4.56665e-17
2.57967e-17
1.9408e-18
6.44863e-19
5.35787e-17
0.00265781
1.41628e-17
0.00612602
0.00144148
1.41557e-18
0.00408432
2.42401e-15
0.0139158
2.77988e-16
6.96816e-06
1.02737e-15
0.0206389
0.000111163
1.25526e-06
0.00357206
0.0277661
0.0165613
0.00363967
0.0239596
2.46373e-12
0.0196815
0.0497158
0.00819556
7.37987e-19
0.00118903
0.000357775
0.00479116
0.0113073
0.00075574
2.0639e-17
7.02602e-16
5.92976e-16
0.00404675
9.1589e-17
4.78139e-05
0.000227693
0.00053337
0.00027221
7.89642e-16
1.85688e-16
1.01128e-16
0.00737761
0.0199875
0.00127541
7.3308e-06
0.00185316
0.00613167
0.00196558
0.000720069
0.00628056
0.00530065
0.00231835
1.27602e-15
2.23779e-18
2.05314e-17
0.0138025
0.0102475
3.39978e-16
1.97176e-17
1.86435e-13
0.00707616
0.0185974
2.74062e-16
0.00189069
7.81587e-18
3.78327e-07
0.00525018
0.0741116
5.50599e-17
1.91921e-18
0.0034195
3.8098e-17
8.47183e-05
0.0109754
1.8966e-15
0.00938807
0.031332
0.0160362
6.71921e-17
0.000661223
1.43507e-15
5.70786e-05
0.0454426
1.08861e-16
5.14842e-17
0.0107295
4.0996e-13
1.47535e-17
3.51288e-05
0.00107364
1.02175e-17
7.32867e-17
2.65624e-14
4.68217e-05
0.00124435
0.00305459
0.0201859
0.00947795
1.16147e-16
3.25861e-07
0.0004212
4.34065e-17
7.23766e-18
2.27884e-17
1.24703e-16
3.25206e-15
7.06494e-16
9.29449e-16
3.39229e-16
8.68333e-15
4.46769e-16
1.37608e-09
1.55961e-15
0.000410251
6.86395e-15
8.66321e-05
5.75562e-14
6.33169e-05
2.11298e-14
7.55777e-17
0.0220111
0.00804324
9.70683e-15
0.0866827
1.40253e-09
3.53556e-11
1.12396e-16
0.00104498
3.765e-14
0.00218837
4.75212e-06
0.000972757
2.68545e-15
9.43745e-16
0.000634508
5.83307e-08
4.86833e-16
7.45825e-18
0.0368924
7.48248e-16
0.0339092
2.01912e-15
7.44892e-18
1.09599e-06
0.0266723
0.00843947
9.4374e-17
0.000398982
2.55337e-15
0.00103138
1.21989e-05
0.00186642
0.000646327
2.35056e-18
0.0190178
0.000761073
0.00480764
1.13608e-16
4.2762e-16
2.45947e-16
0.00524313
0.00398551
0.0440329
1.79965e-17
2.36812e-07
2.16794e-17
7.85313e-17
2.50477e-15
1.92938e-16
0.00237564
0.00156155
0.00236641
0.279382
4.42784e-17
0.028702
0.0329615
0.017492
0.00122186
1.21391e-17
0.0054424
0.00326054
0.00476791
8.41717e-07
0.0096069
1.55463e-15
0.00172296
0.000889274
0.0303814
8.00253e-07
0.00241126
2.4255e-15
0.0166174
2.7401e-16
8.65372e-18
0.00142523
3.00257e-18
0.00695298
1.38604e-17
7.82933e-16
4.35077e-15
1.633e-16
4.96414e-18
0.000590603
2.40653e-15
0.000599441
1.00567e-16
4.78805e-18
0.0187855
0.00592864
0.00732555
0.00808748
9.46267e-19
0.555081
1.03993e-17
0.0666383
2.76555e-15
0.0185472
0.0180481
0.00183342
0.0533979
7.88533e-15
3.28007e-14
5.35537e-16
0.00205737
1.97087e-17
4.66562e-17
0.0167615
8.70945e-16
5.7573e-16
0.00404018
1.5141e-15
0.0125706
1.1101e-07
8.7947e-15
1.44069e-15
5.10971e-15
0.0014336
0.00574958
9.60908e-17
0.020708
0.000242312
1.65936e-15
0.0940129
7.50107e-17
0.015383
0.0170227
0.00295782
6.55338e-17
0.015488
0.00824264
0.000598725
0.00410188
0.0110912
1.04785e-16
7.46523e-16
1.49475e-06
1.30544e-15
1.02459e-16
1.91038e-17
0.0182916
0.0358568
0.0040062
0.00175306
8.43057e-16
0.041624
0.0430044
0.00365662
0.00300195
0.00795948
0.0200952
0.00204063
1.59887e-16
9.74257e-17
1.69952e-16
0.00504864
9.18283e-18
0.024157
4.83605e-15
0.000631703
2.95919e-07
0.00238556
0.0208705
4.6582e-16
1.82654e-17
0.00197996
0.000278668
2.76017e-17
2.66764e-16
2.03111e-18
2.69892e-05
0.000257439
0.000105815
0.000634865
0.00876647
0.0836542
2.20669e-15
2.76049e-17
9.76254e-16
0.00354677
0.0188271
0.0186756
0.0310402
0.0019143
0.00211227
7.37197e-17
1.38478e-16
2.91056e-13
7.46083e-17
0.00934467
0.0190566
8.71805e-17
2.23487e-15
2.33183e-15
4.40539e-17
4.12372e-18
8.37628e-15
0.0109379
8.71039e-16
0.00108463
0.291732
6.41295e-16
1.55229e-05
0.0208882
0.000617423
5.32129e-18
2.42008e-15
0.00368084
7.52429e-17
0.0115952
1.46282e-06
0.0218181
9.82366e-15
1.50084e-12
4.34772e-16
3.43239e-17
6.2656e-16
8.09881e-15
0.173372
3.33864e-16
0.00441081
0.00105922
2.00726e-16
3.24091e-16
0.00146176
7.32166e-17
1.4058e-16
0.0141922
5.0539e-05
1.87732e-15
6.75867e-16
1.84063e-15
0.014803
1.28684e-17
2.79104e-17
0.000244827
0.00196765
0.00224641
5.9171e-16
1.00426e-16
2.68093e-16
0.00295133
0.00140545
0.0103522
0.00295254
1.33851e-17
0.000684384
0.0123634
0.00582405
1.90368e-18
5.90912e-18
4.53674e-17
2.05585e-18
4.52423e-18
0.0282141
0.00716978
0.00426084
5.89539e-18
1.83712e-17
5.33441e-19
7.50598e-18
5.14487e-16
6.3368e-07
0.000291459
0.00230069
3.0081e-16
8.34716e-17
3.04932e-19
3.84886e-09
0.0275203
0.0947736
1.06919e-17
6.12355e-11
2.44962e-13
6.12838e-16
4.31938e-17
0.0032682
0.00676363
7.55562e-17
2.91984e-17
0.00243343
5.58214e-17
0.000683756
0.00115107
2.0089
6.0464e-17
8.61944e-16
0.0119969
0.000361668
6.31509e-16
0.634222
0.000509884
0.00672548
1.78044e-15
2.56172e-16
1.20702e-17
1.5596e-16
0.00696137
9.0294e-05
9.502e-16
0.0217411
0.0159705
0.838317
2.59615e-16
3.05229e-17
3.87225e-16
4.32773e-16
0.00536173
2.82894e-08
3.1437e-16
2.8899e-15
0.016753
0.00106233
0.00481313
1.3949e-15
2.36076e-18
0.025619
2.26826e-15
1.43213e-16
1.7013e-16
4.17629e-16
0.0227189
8.83598e-16
2.91362e-16
4.49122e-16
0.0228843
0.0126192
7.84396e-17
3.0947e-17
1.19865e-16
0.0133849
7.42078e-08
1.80709e-15
4.11666e-16
1.75077e-17
4.17612e-17
0.0021776
0.008647
8.02644e-19
0.00205604
0.000863692
0.00392954
4.64608e-17
2.02805e-17
2.3995e-16
3.56246e-18
5.92632e-18
0.0213971
2.16167e-15
0.0155215
1.32019e-15
0.00115273
3.82853e-14
0.00169972
1.89113e-16
1.75899e-17
0.0101941
0.261299
1.20236e-15
0.00259223
5.223e-17
0.000285653
2.29753e-14
1.91639e-16
6.91902e-16
1.66173e-07
3.96699e-16
0.000358589
1.8569e-16
0.0335071
2.70543e-17
1.62853e-15
1.94207e-17
1.22095e-16
7.13505e-06
0.000110994
1.89485e-17
0.00376222
1.03821e-19
0.00351865
0.0195743
0.0008893
1.36385e-19
2.97188e-06
0.000305412
1.37495e-06
0.0049073
4.96157e-07
0.00119525
1.04957e-15
3.07966e-16
3.2615e-07
0.00471629
0.000169026
9.20645e-16
1.7491e-16
2.73272e-16
0.43118
1.9987e-17
1.72498e-16
2.00219e-17
1.03138e-17
1.30081e-17
8.54132e-05
0.000121514
0.000752314
5.21885e-05
6.65594e-13
0.000912089
1.06519e-17
0.00632624
6.56667e-16
9.0039e-18
4.21459e-17
4.64018e-15
2.40469e-05
8.61967e-17
3.32702e-18
1.34125e-15
0.0145136
1.71979e-15
3.03719e-17
0.0106116
1.05893e-15
0.0363852
0.0654276
0.384459
9.21947e-17
0.204709
1.27509
1.80648
0.66906
9.61919e-16
1.16913e-16
0.00473436
0.00523667
2.79221e-16
0.00294273
1.90741e-17
0.031054
1.14066e-15
2.47901e-16
0.000469485
1.11285e-15
9.70777e-17
6.80728e-06
2.78967e-05
9.86366e-18
7.42176e-18
1.33184e-06
2.91355e-14
5.00126e-16
2.0124e-05
0.00738012
0.00113033
2.68446e-15
0.00605343
1.62061e-17
0.00337699
3.86602e-07
0.0051166
6.66389e-17
1.19697e-09
0.00465514
4.47594e-14
2.12399e-10
3.22405e-16
0.0317578
5.33493e-16
0.0101919
8.72523e-16
9.56814e-08
6.6006e-16
8.72908e-16
7.76747e-18
8.72335e-11
7.69451e-10
5.29581e-17
0.0119429
0.00671468
2.58801e-17
1.80826e-15
0.032721
0.0177109
0.173791
2.03657e-17
4.71822e-05
0.0240884
0.0455781
3.0085e-09
1.04699e-18
0.0647246
5.15435e-17
0.21339
3.63804e-17
1.07475e-08
6.6087e-09
7.34304e-17
3.72517e-05
2.02105e-16
0.0198583
1.03173e-16
4.58093e-16
2.97217e-16
2.67246e-17
1.38859e-16
2.42343e-16
0.000365799
0.00147733
0.137653
1.34941e-15
4.67899e-14
0.0407854
6.91649e-16
6.55624e-19
5.75122e-16
6.9699e-18
6.01362e-16
0.00497279
1.16136e-16
1.73786e-18
9.22238e-18
0.00278172
5.11917e-16
1.77227e-16
1.26942e-15
0.00270433
2.27296e-17
0.00513032
0.196046
0.00380726
0.00448949
0.0226592
9.6246e-16
3.54153e-16
3.57047e-16
0.00255523
0.00167116
1.56394e-16
3.75739e-14
0.000484684
2.93882e-16
2.87702e-17
0.311786
9.59096e-16
0.021559
1.00437e-15
0.00205835
0.00365709
4.36113e-15
6.62253e-17
1.93245e-17
3.46039e-17
2.07074e-17
0.0200236
1.76662e-15
0.00382201
6.27252e-16
3.95554e-16
0.00568856
4.1332e-17
0.0137775
2.96267e-15
7.58537e-18
0.00220319
7.76707e-05
0.123578
2.44342e-16
4.94282e-17
1.26758e-15
0.00357132
0.171045
7.94466e-16
5.7727e-17
2.59322e-15
0.0012488
1.87999e-15
0.0212827
0.0233359
4.20684e-16
2.28491e-16
0.00583181
4.58647e-17
4.6566e-15
4.12828e-18
1.57778e-15
1.78851e-16
0.0601717
3.93965e-13
1.05374e-15
2.08737e-18
1.71397e-14
2.19784e-15
3.27419e-14
6.47961e-16
8.99435e-16
2.09035e-15
0.00753556
4.40722e-15
0.00674711
7.61411e-15
4.76826e-16
0.542414
0.00216171
2.50837e-16
1.57306e-15
2.95985e-16
0.00193517
6.74902e-16
2.79209e-17
8.77173e-16
4.78852e-16
0.00574042
9.39488e-16
0.00293003
2.55933e-18
0.010012
6.34858e-15
0.0550771
6.59874e-16
5.50947e-17
0.0170789
2.11746e-15
1.66556e-16
0.0259853
0.000268908
9.36091e-19
1.89453e-18
0.0385843
0.0118432
0.00526847
0.000651036
0.00145253
0.0156316
0.000769718
0.00543651
1.14095e-16
0.0199353
3.18008e-15
3.37734e-15
4.39435e-17
4.79188e-15
2.29382e-16
0.00827623
7.77764e-17
5.90955e-18
4.78396e-18
5.12383e-07
1.41916e-05
6.94867e-15
0.00280712
8.78546e-17
0.00408006
1.65515e-15
6.98661e-07
0.00310638
2.04258e-13
0.0398932
7.89485e-16
7.9423e-16
3.28586e-17
0.00235998
0.00142175
6.93703e-17
4.4803e-17
0.00201633
2.13065e-18
0.622496
1.17966e-17
0.0800504
1.33257e-16
1.16912e-16
3.21347e-18
1.34477e-16
0.00835324
1.86007e-17
6.05971e-05
8.65125e-18
0.00933039
9.70561e-16
2.03629e-16
7.32532e-12
4.81823e-13
1.60665e-16
2.35355e-16
1.97239e-16
2.36942e-18
0.00435582
0.227769
1.18389e-14
1.35184e-17
0.000395561
1.74837e-16
4.33937e-17
1.84129e-06
0.0165663
0.000170226
2.31549e-17
0.000546154
0.00367763
0.00442448
0.00842061
5.94166e-17
1.18381e-17
1.88584e-18
3.01862e-17
6.34639e-17
1.20819e-16
8.96716e-17
3.95761e-15
1.74019e-16
8.02278e-17
1.21466e-16
1.14466e-17
0.0705885
1.30399e-16
3.00771e-17
3.91469e-09
5.44776e-17
8.54983e-17
1.05503
1.78917e-17
2.67283e-17
0.00139581
2.29331e-10
1.23177e-15
2.91797e-17
4.29295e-18
0.0206995
2.90041e-18
2.71082e-16
3.48327e-08
3.94648e-18
3.35604e-16
1.58621e-17
4.14567e-17
0.101327
3.4453e-18
0.000249639
3.07799e-17
1.12616e-17
2.25723e-16
4.57946e-16
1.31595e-16
4.39234e-08
6.36515e-08
0.00012673
3.78584e-18
1.83389e-16
1.59392e-16
1.11755e-07
7.07618e-17
2.44895e-07
3.13444e-08
1.51781e-17
3.90637e-15
1.63052e-15
1.31736e-08
1.70053e-15
2.14416e-16
1.16615e-09
2.34619e-15
0.0302481
1.75103e-17
0.00545991
1.24674e-15
1.74835e-06
8.37939e-17
0.00156165
1.02143e-16
0.00448438
0.0193183
4.76296e-16
0.00264323
8.98566e-06
1.43071e-16
0.00817572
1.46712e-16
2.04757e-16
1.122e-15
7.66018e-16
1.09968e-14
4.33521e-17
1.05384e-15
3.1492e-17
0.239464
2.72862e-16
4.28426e-16
5.57033e-18
1.35629e-16
1.76192e-16
0.0293065
0.779392
1.93326e-06
1.66374e-05
1.58792e-16
0.00156602
0.00104589
1.02863e-16
1.29051e-16
4.40452e-16
1.08183e-15
2.69839e-16
4.88347e-16
3.36842e-15
6.14286e-15
0.000411965
3.92109e-16
4.56869e-18
9.49699e-05
1.53257e-06
1.30672e-16
0.0263837
2.72415e-15
2.66078e-16
7.58729e-17
0.165348
1.01063e-16
1.89381e-17
0.02157
4.61053e-17
4.20285e-18
5.93398e-16
4.43066e-18
0.0481549
1.50894e-17
3.74322e-16
1.21822e-16
2.02576e-16
0.00645142
0.230613
0.0268626
0.0452053
0.00265943
0.00015408
3.37336e-17
2.56475e-15
0.105655
0.00156816
3.14539e-16
4.73962e-08
9.24986e-18
1.55379e-09
1.57256e-16
0.21083
9.43494e-17
4.04673e-16
0.000165469
5.74704e-11
8.71227e-16
0.0116463
1.3057e-17
2.88818e-17
0.202098
0.0277363
8.57948e-18
6.60683e-17
1.51756e-15
4.46886e-17
4.09971e-16
4.67861e-14
1.31937e-17
2.2134e-17
0.00343945
1.69191e-18
5.41107e-17
1.27088e-17
1.01104e-05
1.17539e-16
3.11087e-14
1.30218e-16
1.78895e-17
7.17219e-16
4.83505e-16
0.00242046
1.11836e-16
1.36125e-16
0.0041915
9.83837e-17
0.000415732
0.00509775
3.45315e-16
0.00277016
1.7042e-16
6.91717e-16
6.37982e-18
2.11564e-16
2.03888e-17
5.10353e-18
4.42112e-17
7.53924e-18
0.00183649
6.42653e-17
2.16483e-17
2.28914e-18
4.69988e-16
1.38005e-16
2.79025e-16
0.040257
1.83677e-17
3.26527e-18
0.326897
6.16266e-17
5.81464e-18
1.81761e-18
0.000956176
3.95833e-16
3.15427e-06
4.27591e-17
5.07241e-05
0.00854555
4.73978e-17
3.86465e-15
0.0375662
1.84758e-16
1.85066e-17
8.75924e-05
3.71362e-07
0.00970882
1.30185e-06
3.83739e-07
7.68178e-08
4.5818e-17
6.63301e-16
0.000743361
0.000217606
0.0206121
0.0106403
3.54553e-05
1.38829e-17
0.00536719
0.00412191
0.0159443
2.0728e-18
0.010803
0.0157526
0.00239457
0.0011159
0.00040962
0.00452065
0.0180412
0.0356759
0.00748382
0.0109617
0.00716225
4.07422e-14
0.00254615
0.00341442
0.00057222
0.00309635
0.01355
0.0121347
0.0204329
1.18528e-14
0.0073261
4.43098e-15
0.00443198