/*--------------------------------*- C++ -*----------------------------------*\
  =========                 |
  \\      /  F ield         | OpenFOAM: The Open Source CFD Toolbox
   \\    /   O peration     | Website:  https://openfoam.org
    \\  /    A nd           | Version:  10
     \\/     M anipulation  |
\*---------------------------------------------------------------------------*/
FoamFile
{
    format      ascii;
    class       volVectorField;
    location    "60";
    object      U;
}
// * * * * * * * * * * * * * * * * * * * * * * * * * * * * * * * * * * * * * //

dimensions      [0 1 -1 0 0 0 0];

internalField   nonuniform List<vector> 
111485
(
(0.200068 -0.200218 0.000387595)
(0.567963 -0.00141604 -0.00374225)
(0.561678 0.00129905 0.00175717)
(0.200481 -0.200534 9.33756e-06)
(0.584 0.00262344 -0.000173711)
(0.199421 0.19938 3.97627e-05)
(0.573824 0.00143269 0.000312065)
(0.588508 -0.00139479 0.000869687)
(0.574404 -0.000364625 0.000383605)
(0.586129 -0.00600039 -0.00250856)
(0.565141 0.00134258 0.00162279)
(0.591914 -0.00116312 0.0028366)
(0.556674 0.000192632 0.00119783)
(0.561136 -0.00146982 -0.00378691)
(0.57025 0.00217819 0.00118767)
(0.580566 -0.00345397 -0.00218565)
(0.57235 -0.000558004 0.000669406)
(0.205456 -0.0240482 0.0333423)
(0.585414 0.00153884 -0.00133794)
(0.197959 -0.197628 -4.41114e-05)
(0.198484 -0.198474 -0.00027989)
(0.2001 0.200029 9.51772e-06)
(0.578818 0.00143091 -0.000299179)
(0.586898 -0.00384822 -0.00112049)
(0.576143 0.00279524 -0.000987921)
(0.201853 -0.201064 -0.000299319)
(0.594154 -0.00250857 0.00316508)
(0.562559 -0.000955296 1.72725e-05)
(0.586634 0.000785288 -0.00151639)
(0.199437 -0.199497 2.45892e-06)
(0.591248 0.0108924 -0.0030082)
(0.583865 -0.00106664 0.000180788)
(0.198127 -0.198603 0.000328285)
(0.199753 0.200124 -0.000504689)
(0.200783 0.0820255 0.0345246)
(0.200691 0.201823 -0.00281335)
(0.588819 0.0106407 -0.00439068)
(0.569592 0.000830172 0.00506178)
(0.581517 0.174253 0.0113046)
(0.58401 0.00302706 0.00041159)
(0.196574 0.198198 -0.00139468)
(0.590894 0.00054621 -0.00360554)
(0.583175 0.00318699 0.00114855)
(0.56254 -0.00437708 -0.00086896)
(0.589489 -0.0107654 -0.0052833)
(0.199677 -0.198553 0.00122415)
(0.59074 -0.00258237 0.0028638)
(0.586074 -0.00353627 -0.00102621)
(0.590822 0.000109457 -0.00275572)
(0.199137 -0.196932 0.00120002)
(0.197754 -0.195892 0.00126393)
(0.228028 0.191091 0.00312756)
(0.197019 -0.196416 0.000675075)
(0.590698 0.00263356 -0.00537139)
(0.196667 -0.195747 0.000169662)
(0.583411 0.0015006 -0.000608427)
(0.583095 -0.00256735 -0.00105547)
(0.200069 0.199793 4.24262e-05)
(0.531238 -0.00120641 -0.00940749)
(0.586222 0.00241104 -0.000329523)
(0.585962 0.00271605 -0.00022343)
(0.199653 -0.199984 0.000247066)
(0.542327 0.000573656 0.00362038)
(0.593661 -0.00118884 0.00454723)
(0.206085 0.186289 0.000182444)
(0.535869 0.00100613 -0.00135302)
(0.411011 -0.037427 0.0141887)
(0.587655 -0.00193672 0.00091451)
(0.528898 0.0003326 0.00180005)
(0.499526 -0.00111886 0.000255885)
(0.565592 0.0045444 -0.00360718)
(0.52383 -0.00104646 0.00189591)
(0.214909 -0.194249 -0.00422278)
(0.536254 0.0010551 0.00423541)
(0.199885 -0.199761 7.58273e-05)
(0.585179 -0.00117388 0.000584706)
(0.200003 0.200067 -5.48088e-05)
(0.591028 -0.00123165 0.0031473)
(0.199865 0.19978 -4.90776e-05)
(0.178188 0.173571 -0.00653587)
(0.568495 -0.00881595 0.00591601)
(0.585731 0.00212635 0.000486119)
(0.198946 0.198547 -2.60181e-06)
(0.199828 -0.199791 9.26708e-05)
(0.552894 -0.000134084 0.00103302)
(0.53087 0.00144308 -0.00227189)
(0.453213 0.288764 -0.080403)
(0.582543 0.00727081 0.000635655)
(0.56039 0.0149779 0.0136303)
(0.567348 0.000869524 0.00165897)
(0.598996 0.0109988 -0.00730097)
(0.584784 -0.000984422 0.00104124)
(0.545904 -0.000986481 0.00196102)
(0.554945 -0.00055877 0.000553622)
(0.591866 0.00171281 -0.00376359)
(0.199881 -0.199861 1.95635e-05)
(0.199203 -0.199045 0.000128501)
(0.582344 0.00677944 0.00202951)
(0.60982 -0.12661 0.00369067)
(0.549746 0.00534506 -0.001643)
(0.199801 -0.199835 0.000132236)
(0.585177 -0.00319359 0.000495149)
(0.200924 0.201225 0.00109941)
(0.580096 2.14822e-05 -0.000309645)
(0.573658 -0.00258196 -0.00326059)
(0.196499 0.174384 -0.00440574)
(0.200198 0.200099 -6.92312e-05)
(0.584124 -0.00131968 -5.88694e-05)
(0.540248 -0.00302471 0.000413345)
(0.51813 -0.0152984 -0.0165566)
(0.553264 -0.000410716 0.00122446)
(0.579961 0.000846884 -0.000241314)
(0.541511 -0.000440619 0.00197748)
(0.532341 -0.0032587 0.000935985)
(0.201792 -0.200743 3.3794e-05)
(0.510892 -0.000471578 0.00148693)
(0.200954 -0.20036 -0.000262759)
(0.20082 0.199604 0.00116241)
(0.570678 0.00218794 0.00165149)
(0.200388 -0.200259 6.00059e-05)
(0.202 -0.201009 -0.000106889)
(0.264552 0.207214 0.0129317)
(0.197212 0.198144 -0.000383331)
(0.199959 0.199459 -0.000716834)
(0.557958 -0.00133832 0.0023713)
(0.160348 -0.114504 -0.0293349)
(0.252354 0.215887 0.00846703)
(0.516089 -0.000178158 0.00248343)
(0.200135 -0.20004 -8.20517e-05)
(0.585469 0.0419781 -0.0153927)
(0.587167 0.0126911 -0.00677491)
(0.581333 0.00696909 0.00200798)
(0.198972 -0.198498 -0.00113908)
(0.258839 0.224543 0.0235742)
(0.2412 0.214621 0.0107623)
(0.586546 0.00167425 -0.00143895)
(0.200325 0.200264 -8.76706e-05)
(0.581762 0.00135974 3.37261e-05)
(0.577953 0.00267803 0.00176692)
(0.568097 0.00265857 0.00262579)
(0.442452 -2.79774e-06 0.00188816)
(0.582323 0.00322214 0.000708278)
(0.577208 0.00296442 0.00182988)
(0.551144 0.000543875 -0.00227456)
(0.577537 -0.000942754 -0.000448617)
(0.569311 -0.000538532 0.00142805)
(0.200424 0.200444 -3.20829e-05)
(0.200035 -0.200069 1.24376e-05)
(0.199729 0.199949 0.000471334)
(0.583601 0.00268414 0.000491332)
(0.551674 0.000919682 -0.0020003)
(0.19853 -0.19848 0.000115748)
(0.375702 -0.00219758 0.00373549)
(0.569201 0.00288241 0.00180536)
(0.624213 0.0245275 0.0105858)
(0.586556 0.00167254 -0.00125015)
(0.584118 0.00182601 -0.000565977)
(0.540773 0.000122577 -0.00129783)
(0.62602 0.0339538 0.00585192)
(0.198831 -0.200839 0.00104357)
(0.199935 -0.200085 0.00025151)
(0.585818 0.001577 -0.00128508)
(0.573365 -0.00190581 -0.00190354)
(0.630244 0.0343604 0.0064641)
(0.620964 0.0311905 0.00841324)
(0.541513 0.000382049 0.00280869)
(0.584113 0.00688579 -0.00265448)
(0.196875 0.198965 -0.000242832)
(0.63877 0.0419505 0.00903409)
(0.608857 0.0311626 0.00882099)
(0.200026 0.200158 5.20031e-05)
(0.199609 -0.199665 9.67593e-06)
(0.465947 0.000487932 -0.00383369)
(0.200296 0.200388 2.76509e-05)
(0.581556 -0.00105398 -0.000204234)
(0.55998 0.000339035 -0.000977587)
(0.19989 0.194942 -0.00120433)
(0.215552 -0.198769 0.00201007)
(0.198868 -0.19787 -0.000444294)
(0.197202 0.18584 -0.00193693)
(0.216576 -0.200232 0.0031915)
(0.199821 -0.199943 0.000205139)
(0.582041 0.00212968 0.000679991)
(0.583549 0.00143575 -0.00120033)
(0.581291 0.00160142 -0.000751051)
(0.572326 -0.00221654 0.00230567)
(0.552088 -0.00172884 0.000299265)
(0.55423 0.000874092 0.00180649)
(0.494715 0.00634583 0.000787476)
(0.1993 -0.198529 5.1416e-05)
(0.53564 7.85136e-05 0.000782779)
(0.215031 -0.200325 0.00193088)
(0.201309 -0.201491 -3.88784e-05)
(0.558831 0.000915691 0.00189068)
(0.586383 -0.00673394 -0.00237529)
(0.582357 0.000974689 -0.00293277)
(0.559248 -0.000668612 0.000497965)
(0.569311 0.000203094 0.000279398)
(0.199355 -0.199036 0.000483644)
(0.558791 -0.00264843 0.000699097)
(0.55618 -0.000467473 -0.00309764)
(0.385037 0.119433 0.0152957)
(0.570129 -0.00486194 6.00886e-05)
(0.579148 -0.000849564 0.000488353)
(0.200418 -0.199165 -0.000505392)
(0.556289 0.00126598 0.00201579)
(0.58471 0.00128005 -5.27494e-05)
(0.218553 -0.198445 0.000659754)
(0.56146 0.00114683 0.00259798)
(0.589606 -0.00049032 0.0032532)
(0.551094 0.000628142 -0.00230813)
(0.554492 0.00141813 0.00255991)
(0.216372 -0.200794 0.00251569)
(0.198885 -0.19896 -2.25342e-05)
(0.554258 0.00149949 0.00285116)
(0.360273 0.224021 -0.0210519)
(0.595752 0.00246936 -0.00615694)
(0.199878 0.199934 -0.000137835)
(0.557971 0.00110904 0.00233567)
(0.559299 0.000283529 0.000310713)
(0.592649 -0.00196525 0.00385938)
(0.200119 -0.200078 3.04927e-05)
(0.52061 -0.000414998 0.0013424)
(0.585158 0.00898633 0.00440253)
(0.319119 0.213775 -0.024495)
(0.200293 0.200356 -0.00014691)
(0.200005 0.200154 5.77642e-05)
(0.597532 -0.00290892 0.00595323)
(0.555387 0.0121844 -0.00331386)
(0.210461 0.176884 -0.00428757)
(0.246129 -0.191885 0.00807176)
(0.560839 0.000508269 0.00101754)
(0.579796 0.000785608 -5.29378e-05)
(0.583178 0.0012258 0.000519913)
(0.206976 0.179391 -0.0055194)
(0.209626 -0.194778 -0.0012301)
(0.562517 0.00715952 -0.00850619)
(0.19987 -0.199806 8.759e-05)
(0.534235 0.000637908 -0.00287884)
(0.554306 0.000387323 0.0023381)
(0.560661 0.000197807 0.00134633)
(0.561249 0.00109337 0.00143206)
(0.563566 0.000539132 0.00188396)
(0.199301 0.199404 0.000611687)
(0.426206 -0.000953167 -0.0159429)
(0.569479 0.00181839 0.00173065)
(0.198214 0.198815 -3.41264e-05)
(0.200134 0.200215 4.98929e-05)
(0.593208 -0.00672506 -0.000531691)
(0.579614 0.00271165 -0.000656388)
(0.204723 0.173259 -0.00562739)
(0.52832 -0.00045426 0.00117403)
(0.568647 0.00161063 0.00147375)
(0.200285 -0.200183 -5.19161e-05)
(0.253942 0.240341 -0.00127256)
(0.584793 0.00621495 -0.00276541)
(0.201122 -0.198606 0.000172487)
(0.221716 -0.159448 -0.00381505)
(0.300897 -0.107215 -0.010742)
(0.2005 -0.199849 -0.000125168)
(0.572813 -0.000881803 -0.000967764)
(0.556224 -0.00101902 -0.00084251)
(0.579298 0.00083598 -0.00150567)
(0.199978 -0.200056 -3.9993e-05)
(0.572457 0.0016288 0.00138505)
(0.200458 -0.200511 5.34013e-06)
(0.200322 -0.200468 0.000137597)
(0.199169 -0.198303 0.000395225)
(0.395919 0.00179237 -0.00533385)
(0.589869 -0.00261122 0.0031999)
(0.56002 0.00210008 0.00250141)
(0.570822 0.0019167 0.0013128)
(0.590103 -0.0029888 7.2478e-05)
(0.568545 0.000910047 0.00171248)
(0.582354 0.00221325 0.000793404)
(0.586572 0.010658 -0.000997859)
(0.575699 0.000486012 -0.000187782)
(0.580116 0.000927528 -0.000290286)
(0.203843 0.200482 -0.000117791)
(0.199011 -0.199083 -0.000271662)
(0.362783 0.00243511 -0.00764091)
(0.582832 -0.00116148 0.000492751)
(0.58707 0.00479944 0.00499235)
(0.555398 -0.000850732 -0.000829561)
(0.200426 -0.200295 4.77649e-05)
(0.578964 0.00191083 0.00117771)
(0.581436 0.00309302 0.00148138)
(0.570588 0.00125194 0.000763525)
(0.501002 -0.000598452 -0.00233594)
(0.527081 -0.00600556 -0.0133265)
(0.579337 0.00174935 0.000514044)
(0.569349 0.00146814 0.00141521)
(0.580694 0.00538903 -0.00333478)
(0.200001 0.200097 1.01414e-05)
(0.533695 0.00296719 -6.72682e-06)
(0.199881 0.200003 -8.33705e-05)
(0.161183 0.11987 -0.0269136)
(0.226179 -0.145991 -0.0120741)
(0.602007 -0.00582738 0.0111356)
(0.590249 -0.00297863 9.93536e-05)
(0.5757 -0.000298425 0.000228705)
(0.200289 -0.199768 -8.0015e-05)
(0.199229 0.20034 0.00172709)
(0.578343 0.00205074 0.00123042)
(0.554249 0.000829862 -0.000703547)
(0.198663 -0.198628 5.6996e-05)
(0.200233 -0.200112 0.000232144)
(0.19541 -0.196552 0.00126573)
(0.549401 0.000655501 -6.10503e-05)
(0.577422 0.000565434 -0.000627154)
(0.550151 -0.0001068 0.00204141)
(0.530514 0.00111265 -0.00211713)
(0.587997 0.00194401 -0.00137769)
(0.229521 0.196893 0.00583704)
(0.199712 0.200194 0.000382863)
(0.19959 -0.199413 -8.37254e-05)
(0.576168 0.00214394 0.00160093)
(0.377197 -0.317722 -0.0169658)
(0.549614 -0.000553281 0.000800778)
(0.598634 -0.00376471 0.0137477)
(0.482918 0.00101453 -0.00972787)
(0.200157 0.200138 -6.5338e-07)
(0.199805 -0.200001 0.000165712)
(0.200386 -0.200496 -8.74501e-05)
(0.253533 0.211953 0.0133907)
(0.5839 0.00189513 -0.000130381)
(0.588412 -0.00294035 0.000556995)
(0.199754 0.200765 5.35177e-05)
(0.580636 0.00150357 -0.000173194)
(0.211858 0.170178 0.0125272)
(0.199683 -0.197291 -0.000303332)
(0.595456 -0.00184313 0.0049866)
(0.578774 0.0019889 0.00106523)
(0.591109 -0.00030323 0.00139949)
(0.580844 0.00156158 -0.000104178)
(0.191863 0.168973 0.010721)
(0.251031 0.215307 0.0145675)
(0.199381 0.199641 -0.000382757)
(0.579872 0.00194727 0.000765765)
(0.579017 0.0017471 -8.89882e-05)
(0.589891 0.0115213 -0.00436201)
(0.197099 0.196601 0.0003793)
(0.403875 0.353702 -0.0872618)
(0.551161 0.00206578 0.00480288)
(0.589494 -0.00262932 0.00145154)
(0.579601 0.00203996 0.00134841)
(0.549432 0.0558133 -0.00394226)
(0.588045 0.00127184 -0.00174421)
(0.19897 0.198964 0.000117537)
(0.587751 0.00151351 -0.00139631)
(0.565414 0.000715767 0.0012072)
(0.593869 -0.0135171 6.26638e-05)
(0.597336 -0.00356625 0.0075454)
(0.574636 -0.00485942 -0.00419026)
(0.198775 0.199821 -0.000651694)
(0.199229 -0.199677 -0.000439228)
(0.200197 0.198871 0.000770405)
(0.198127 -0.198697 -3.34417e-05)
(0.587757 -0.00239805 0.00025928)
(0.582191 -0.000472058 7.6011e-05)
(0.584006 0.00266781 -0.00245637)
(0.587993 0.00155547 -0.00180536)
(0.198062 0.198239 -0.000852053)
(0.581044 -0.0037571 -0.00170362)
(0.200003 0.200023 6.13311e-05)
(0.199399 -0.199848 6.49258e-06)
(0.587788 0.001845 -0.00133732)
(0.184395 -0.184466 0.00273054)
(0.325904 -0.0635114 -0.0035113)
(0.197001 -0.196225 -0.000205977)
(0.200341 0.19666 0.00116487)
(0.582546 0.000654295 -0.000563784)
(0.200041 0.199901 2.18339e-05)
(0.575188 0.00162093 -0.000176987)
(0.547116 0.00041799 -0.00225614)
(0.200588 0.200596 -5.45994e-05)
(0.525678 -0.000214462 -0.00250896)
(0.572848 0.000922979 0.00103197)
(0.201644 0.176184 -0.00653991)
(0.569202 0.00251779 0.00301765)
(0.540918 0.00228651 -0.000565362)
(0.573381 0.00272177 0.000979321)
(0.533648 0.00107881 0.00737852)
(0.578478 0.00155832 0.000490487)
(0.553019 0.000264452 -0.000938872)
(0.198019 0.167953 -0.000840215)
(0.198827 -0.198487 0.0012325)
(0.494684 0.000894458 0.0121971)
(0.198285 0.198926 -0.00117581)
(0.572418 0.00293648 0.0029536)
(0.596133 -0.00327439 0.00588692)
(0.200682 0.191481 0.00175174)
(0.199498 0.200387 -3.29023e-05)
(0.586204 -0.000847239 0.000438414)
(0.563558 -0.00257394 -0.00521286)
(0.566369 0.00292092 0.000297212)
(0.586955 0.00197357 -0.000771698)
(0.199968 0.199611 -7.80739e-05)
(0.597657 -0.000969291 0.0100463)
(0.589336 -0.00202313 0.00301698)
(0.200885 0.200572 2.16424e-06)
(0.576254 0.00953537 0.00784529)
(0.549783 -0.002287 -0.00628546)
(0.199617 -0.199689 -1.32812e-05)
(0.198926 -0.198945 8.4284e-05)
(0.573981 0.00164943 -0.000519001)
(0.578215 0.000388705 -0.000919089)
(0.200122 0.200048 -0.000310855)
(0.199614 -0.199198 -0.000299702)
(0.345005 -0.189177 0.0417802)
(0.20034 -0.200472 8.18951e-05)
(0.578521 -0.00116325 -0.000190346)
(0.198569 0.199285 0.000422172)
(0.200432 -0.200513 8.31271e-06)
(0.591194 -0.000202109 0.00186625)
(0.536856 -0.00646869 -0.0153572)
(0.584118 -0.00370845 0.000837932)
(0.565435 -0.000203531 0.00100408)
(0.200765 0.200632 2.82533e-05)
(0.26099 0.200058 0.0100567)
(0.565276 0.00786943 0.0118966)
(0.244185 0.214364 0.0122353)
(0.563769 0.00253475 0.00478595)
(0.560259 -0.00491495 0.000153398)
(0.586218 -0.00219142 -0.00175561)
(0.404236 0.00712482 0.0154783)
(0.239724 0.205362 0.0107227)
(0.584104 0.000856012 -0.00560859)
(0.592456 0.0189916 -0.00574209)
(0.199876 -0.200205 0.000263261)
(0.591703 0.00144647 -0.0062627)
(0.592165 -0.00246187 0.00228064)
(0.200044 -0.199982 0.000182671)
(0.574784 0.0326824 -0.0193054)
(0.4984 0.000171266 -0.00644381)
(0.253579 0.198731 0.00802326)
(0.589824 -0.00114835 0.00238618)
(0.582342 0.000784823 -0.000778997)
(0.578465 0.00156409 -0.000404864)
(0.200001 0.199891 -5.59257e-05)
(0.575235 -0.00095491 0.00410978)
(0.592091 5.1227e-05 0.00194499)
(0.573085 0.00567562 -0.000581931)
(0.358787 -0.00568601 0.00660438)
(0.244404 0.229863 -0.00505021)
(0.338974 -0.0108733 0.0124386)
(0.199753 -0.200051 0.000188641)
(0.531208 -0.0187061 -0.0178583)
(0.575362 -0.00106239 -0.00370219)
(0.200075 0.199981 0.000280898)
(0.548727 0.00129094 -0.00389466)
(0.450062 -0.00104528 0.00884956)
(0.261078 0.229598 -0.00242268)
(0.200057 -0.199932 -3.5299e-05)
(0.23303 -0.199309 0.00631323)
(0.200323 -0.200258 -2.92919e-05)
(0.572703 0.00345274 -0.000415928)
(0.577273 0.00330026 -0.00101736)
(0.573257 -0.00167487 -0.0016321)
(0.538215 0.00114986 -0.00299352)
(0.585867 -0.0114851 -0.0023324)
(0.199812 0.198906 -0.000389009)
(0.568179 -0.000588456 -0.00120524)
(0.200774 -0.199049 -5.47126e-05)
(0.563563 0.00204903 0.00140059)
(0.200792 0.200854 -1.88682e-05)
(0.200165 -0.199999 -2.88539e-05)
(0.1974 -0.197984 -0.000313777)
(0.553693 -0.0039201 0.000441324)
(0.199103 -0.199302 -0.000210688)
(0.199922 -0.199988 3.37085e-05)
(0.197027 0.128792 -0.00860763)
(0.200334 -0.20048 9.38458e-05)
(0.197567 0.200157 0.00186553)
(0.567146 -0.00228325 -0.00123869)
(0.200049 0.199861 -3.14036e-06)
(0.237846 0.174874 0.000398828)
(0.200145 0.200264 0.000285011)
(0.199051 -0.198386 1.20826e-05)
(0.199914 0.199072 -0.000339449)
(0.198845 -0.197787 -0.00105017)
(0.198432 0.198609 1.28337e-05)
(0.515829 -4.76245e-05 -0.00401506)
(0.200191 0.199039 0.000861804)
(0.530292 0.00805335 0.0113153)
(0.580417 0.00137317 -0.000824915)
(0.596555 -0.0230011 -0.0033603)
(0.200818 0.199854 -1.26577e-05)
(0.504184 0.00154995 0.00924275)
(0.200261 0.199503 0.00011033)
(0.200405 -0.200502 -8.64903e-05)
(0.56956 -0.00480041 -0.00576085)
(0.570816 -0.00407676 -0.00541149)
(0.57438 -0.001689 -0.000814216)
(0.600041 0.00110004 -0.0111432)
(0.230746 0.193581 -0.00637547)
(0.58745 0.000685647 -0.00352059)
(0.586977 0.000727634 -0.00318917)
(0.579643 0.00115721 4.85655e-05)
(0.570027 0.000685875 0.000249331)
(0.578796 -0.00588804 -0.00457885)
(0.198628 -0.198703 -0.000127813)
(0.580093 0.00102745 2.54482e-05)
(0.263388 0.227928 -0.0011416)
(0.578572 0.00140953 -0.000737165)
(0.199683 0.199432 -7.13053e-05)
(0.58936 0.00179559 -0.00330006)
(0.260516 0.215787 0.00269847)
(0.581089 0.000359753 -0.000751447)
(0.583267 -0.00299927 0.00197704)
(0.230312 -0.119367 -0.000733749)
(0.199676 0.199855 0.00230154)
(0.57065 0.00107682 0.00112685)
(0.199721 -0.199706 4.48245e-05)
(0.591686 0.00221853 -0.00407987)
(0.587489 0.00239384 -0.00264575)
(0.199863 0.199229 -0.00165248)
(0.199296 0.199312 0.000463778)
(0.195824 0.174124 -0.00406898)
(0.200066 0.200204 7.60211e-05)
(0.409684 -0.0231126 0.00867231)
(0.591965 0.00201582 -0.00390284)
(0.203278 0.198348 -0.000154921)
(0.199551 0.199992 0.000363315)
(0.506084 0.000719082 -0.001102)
(0.200344 0.200364 2.73357e-05)
(0.582969 0.00167938 -0.00239358)
(0.200204 0.200126 1.4958e-05)
(0.576901 -0.00348448 -0.00162545)
(0.200257 -0.200289 -4.60562e-05)
(0.540604 -0.00248235 -0.0078741)
(0.443973 -0.00196299 0.000500301)
(0.543463 0.0017789 -0.00103914)
(0.581377 0.000661708 -0.000793878)
(0.200418 0.199019 -0.000641226)
(0.524792 0.000693374 -2.97857e-06)
(0.200365 0.199647 0.000202821)
(0.200174 0.200177 -0.000540515)
(0.574338 -0.00128944 -0.00068994)
(0.199809 0.199519 -7.93551e-05)
(0.488885 -2.24552e-05 -0.00485072)
(0.192347 0.176381 -0.00617687)
(0.583955 0.00173813 -0.00202073)
(0.198884 -0.199025 6.32718e-06)
(0.588669 0.000729611 -0.00129822)
(0.200561 -0.20036 2.06951e-05)
(0.239381 0.210764 0.0066832)
(0.595337 0.0219011 -0.00214759)
(0.570209 -0.00486389 -0.00588794)
(0.580497 0.00237325 -1.26411e-05)
(0.58369 -0.00619591 -0.00403886)
(0.577714 0.0012862 -0.000573969)
(0.589877 -0.00345871 -0.000302542)
(0.197822 0.199279 -0.000902349)
(0.580333 0.00333511 0.00173595)
(0.573026 -0.00549992 -0.00556479)
(0.199988 0.200076 -9.79525e-05)
(0.488632 -0.00628947 -0.0198782)
(0.593388 -0.00529744 -0.0033717)
(0.569884 0.00259724 0.00223692)
(0.197326 0.194596 -0.00115433)
(0.246642 0.0443197 -0.039847)
(0.55718 0.00141557 0.0018289)
(0.453083 -0.00202237 0.00487475)
(0.467633 0.108986 -0.00446709)
(0.255947 -0.133886 -0.00991693)
(0.588015 -0.00575822 -0.00103695)
(0.553278 0.00225064 0.00435449)
(0.569623 -0.00529205 -0.00574981)
(0.581799 -0.00310768 -0.00108248)
(0.571636 0.00321278 0.0014084)
(0.504172 0.0630188 -0.00178779)
(0.248787 0.210322 0.00186024)
(0.513762 -0.0222664 0.00556233)
(0.499491 -0.0463908 0.0103475)
(0.199753 -0.19981 0.000125836)
(0.510919 0.00359653 -0.00148725)
(0.201318 0.19744 -0.00105072)
(0.235324 0.213341 0.00204844)
(0.57845 0.000977426 -0.000203479)
(0.508945 0.0831901 -0.00156681)
(0.61301 -0.0579537 -0.0077906)
(0.556146 -0.104583 0.000206154)
(0.235177 0.222431 -0.0151844)
(0.586955 -0.00358281 -0.000975473)
(0.579322 0.0032244 0.00262392)
(0.199579 0.199011 -4.5944e-05)
(0.259579 0.142128 -0.00545474)
(0.578846 0.00454773 0.00288698)
(0.200014 -0.199251 0.000169489)
(0.2 0.199891 -4.79805e-05)
(0.199236 0.199147 2.12621e-05)
(0.200463 0.19937 0.000219439)
(0.586348 -0.00570984 -0.00244877)
(0.200172 0.200144 0.000117374)
(0.200312 -0.200516 0.00101267)
(0.576114 -0.00358389 -0.00262081)
(0.531051 0.000261826 -0.00137065)
(0.290279 -0.254912 -0.0137989)
(0.57896 0.00441349 0.00273182)
(0.234257 0.188247 0.00447469)
(0.58138 -0.0020118 -0.0011025)
(0.195644 -0.19535 -0.000636674)
(0.1996 0.20002 -7.12211e-05)
(0.585382 -0.00365888 -0.000848771)
(0.199873 0.198705 -0.000796348)
(0.200298 0.199765 8.45088e-05)
(0.229829 0.219373 0.00664265)
(0.550244 -0.000345225 -0.000439316)
(0.332765 0.277696 -0.0370405)
(0.57681 -0.00230154 -0.000990751)
(0.578148 0.000918015 -0.000218292)
(0.197851 -0.196611 -0.00155204)
(0.598998 -0.00110997 0.0191516)
(0.547275 -0.00316263 -0.00809818)
(0.574988 -4.55607e-05 -0.000481334)
(0.582292 0.0111554 0.00125929)
(0.583475 0.00427021 -0.0120673)
(0.501778 0.000246695 -0.00455136)
(0.199816 0.199503 8.77547e-05)
(0.586573 0.000597219 0.00175739)
(0.58225 0.00239887 -0.000394248)
(0.197849 -0.200443 0.000289644)
(0.540516 -0.000406099 -0.000300294)
(0.586201 0.00364573 -0.000898319)
(0.587535 0.00276 -0.000995032)
(0.532039 -0.00237652 -0.00520116)
(0.587239 0.00264435 -0.00110267)
(0.587604 0.00324132 -0.00028942)
(0.199878 -0.197237 0.0013076)
(0.588886 -0.00104403 0.00262778)
(0.483812 -0.0036232 -0.00113851)
(0.241698 0.209187 0.0132266)
(0.587325 0.00213115 -0.00154373)
(0.559954 0.000904803 -0.00129331)
(0.323284 0.262327 -0.0402998)
(0.578612 0.000923201 -0.000227965)
(0.587528 0.00188047 -0.00183406)
(0.560242 0.000543086 -0.00215377)
(0.583332 0.00241224 -0.000227825)
(0.575279 0.00638192 0.00259369)
(0.579352 0.000893081 -0.00012892)
(0.195499 0.190845 0.000282062)
(0.582961 0.00274207 -0.000357877)
(0.546079 -0.00345723 -0.00746465)
(0.223448 -0.137311 0.00509453)
(0.580155 0.00539153 0.00356236)
(0.572299 0.00514711 0.00525501)
(0.581038 0.00149383 -4.90608e-05)
(0.19936 0.198897 0.000183045)
(0.562034 0.00345708 -0.00543417)
(0.199859 -0.198719 0.000622571)
(0.200035 0.200031 -0.000196329)
(0.198786 0.197431 -0.000116757)
(0.200596 0.199344 4.04116e-05)
(0.487706 0.000261766 -0.00196609)
(0.23903 0.205852 0.00872958)
(0.450865 -0.028493 0.0299639)
(0.198505 -0.198726 -5.64835e-05)
(0.199423 0.202054 -0.000407911)
(0.579809 0.00623162 0.00323453)
(0.584667 0.0012512 -0.00254206)
(0.199991 -0.19998 1.69284e-05)
(0.584199 -0.00377973 -0.000161583)
(0.200016 -0.199816 0.000662564)
(0.200254 -0.200102 -4.25284e-05)
(0.196508 -0.196625 0.000585101)
(0.592002 -0.00427096 -0.000463027)
(0.495655 0.00318158 -0.00120656)
(0.237846 0.212434 0.00355497)
(0.199643 -0.197802 0.000817308)
(0.199757 0.20045 -0.000297569)
(0.19956 0.199777 2.72576e-05)
(0.596391 0.00103659 -0.00683539)
(0.579892 0.00102835 -0.000244752)
(0.238021 0.223654 0.0104689)
(0.590553 0.00178719 -0.00335302)
(0.549682 -0.00949439 -0.0227275)
(0.199669 0.199819 -7.20649e-05)
(0.589092 0.00124748 -0.002998)
(0.538636 0.000250507 0.00289414)
(0.571818 0.00299582 -0.00355917)
(0.200627 0.200555 2.16316e-06)
(0.199339 0.199269 9.70915e-05)
(0.569155 0.00248926 0.0032723)
(0.581781 0.00120645 -0.000295052)
(0.23763 0.215121 0.00350739)
(0.199141 0.199062 6.37668e-05)
(0.201994 0.195427 -0.000565938)
(0.578662 -0.00130553 0.000536303)
(0.199896 -0.199858 -0.000281541)
(0.199022 -0.198294 0.000171084)
(0.19867 0.19863 -4.21366e-05)
(0.588667 0.00171238 -0.00271178)
(0.513923 -0.00267386 0.000580157)
(0.200528 0.200545 2.31303e-05)
(0.224176 0.0368324 0.0424228)
(0.249167 -0.0328969 -0.00946581)
(0.56781 0.00311821 7.52413e-05)
(0.19971 0.199998 -7.96058e-05)
(0.200071 0.199727 -0.000169353)
(0.589712 -0.00684726 -0.00095297)
(0.56527 0.0102936 0.00947381)
(0.240891 0.214874 0.0110092)
(0.352744 0.111067 0.007033)
(0.555961 0.0103824 0.0170781)
(0.533417 0.00170778 -0.00357796)
(0.56867 0.000375342 -0.000346804)
(0.206265 0.193453 -0.000425622)
(0.563897 0.00132279 -0.00040504)
(0.585699 -0.00387688 0.00415591)
(0.200372 0.199754 -0.000232763)
(0.198267 -0.194919 0.000302649)
(0.198557 0.198664 3.54381e-05)
(0.199262 0.199205 -4.81716e-05)
(0.200134 0.200525 -0.00027916)
(0.200578 0.200645 -2.56307e-05)
(0.590073 0.00196074 -0.00299637)
(0.200108 -0.200013 0.000106218)
(0.199003 0.199022 2.76465e-05)
(0.198923 0.196231 -0.000236203)
(0.590632 0.00189078 -0.00335403)
(0.581611 0.00122293 -0.000272663)
(0.200802 -0.198161 -5.92252e-05)
(0.197314 -0.195232 0.000441787)
(0.595097 -0.00281024 0.00529987)
(0.565358 5.93681e-05 0.000807194)
(0.564419 0.000250816 0.000881957)
(0.199895 -0.199439 -9.37233e-05)
(0.198987 0.198957 0.000116047)
(0.564903 0.000162571 0.000804951)
(0.200306 -0.200129 2.03454e-05)
(0.559252 0.00145245 0.000216508)
(0.570052 0.00123419 0.00188483)
(0.571794 0.00164701 0.00107806)
(0.199972 -0.198504 0.00048186)
(0.200286 -0.200385 3.83621e-05)
(0.200203 -0.200379 -3.68116e-05)
(0.200239 0.200278 6.30072e-05)
(0.577832 -0.00288536 -0.00148883)
(0.199928 0.200135 6.90769e-05)
(0.198423 0.198646 6.37903e-05)
(0.576704 0.0019992 -0.00297005)
(0.200291 -0.200344 0.000108877)
(0.567693 0.000359426 0.000733692)
(0.513553 -0.00561875 0.00121071)
(0.200976 0.193876 0.00110525)
(0.580634 0.00138275 -0.000222226)
(0.269944 0.0382795 -0.00538916)
(0.573383 0.000424503 0.000454764)
(0.591239 -0.00137578 0.00135563)
(0.522957 0.00204483 0.00104733)
(0.592343 -3.63968e-05 0.00426657)
(0.429938 0.0113899 -0.0160421)
(0.239147 0.189992 0.00401149)
(0.572057 1.79492e-06 0.000443441)
(0.594967 0.00422117 -2.54567e-05)
(0.580547 -0.00132111 -0.000487406)
(0.204912 0.177546 -0.00621245)
(0.268179 0.017912 -0.00802858)
(0.309106 -0.0303716 0.0116864)
(0.572853 0.000575388 0.000236919)
(0.198831 0.199207 0.000245581)
(0.560542 -0.00104735 -0.00383825)
(0.572507 -0.00018046 -0.0010287)
(0.555598 -0.00473424 -0.00884421)
(0.21468 -0.156867 -0.0117438)
(0.200341 -0.20047 8.72492e-05)
(0.2 -0.200002 -4.91505e-06)
(0.582988 -0.0016867 7.42885e-05)
(0.234434 0.193625 -0.00251084)
(0.553532 0.00200995 0.000888276)
(0.217576 0.19807 0.00275823)
(0.549954 -0.00104867 -0.00391161)
(0.567342 -0.0013325 0.000529022)
(0.560488 -0.000819198 0.00151206)
(0.581665 0.00133 -0.000397672)
(0.199021 0.199009 -5.07884e-05)
(0.198034 0.197417 -0.000447751)
(0.213144 -0.194664 0.000911127)
(0.580296 0.00151571 0.000122587)
(0.200388 0.199796 -1.69474e-05)
(0.231936 0.198632 -0.00904775)
(0.593777 0.012192 -0.0102347)
(0.200118 0.199809 -0.000160045)
(0.198785 0.199721 0.000701722)
(0.198462 -0.197816 -0.000325624)
(0.200418 0.200476 4.97641e-05)
(0.554237 -0.000158783 0.00157335)
(0.203463 0.193113 0.000325565)
(0.200133 0.199973 8.48636e-05)
(0.464093 0.0618092 -0.0456506)
(0.235518 0.189591 -0.00230118)
(0.197836 0.19823 -0.00186982)
(0.28407 -0.171708 0.0114014)
(0.199861 0.199632 -0.000258654)
(0.455049 0.00225466 -0.00301015)
(0.565769 -0.00103579 0.00103623)
(0.198521 -0.198565 -3.31992e-07)
(0.555865 0.000721098 -0.00173959)
(0.553525 0.088937 -0.00798244)
(0.551539 -0.0052892 -0.0088601)
(0.606037 0.0231668 0.000268315)
(0.546966 0.000422285 -0.000784583)
(0.19991 0.198204 0.000832632)
(0.571851 -0.00533087 -0.00599458)
(0.592464 -0.00132807 0.00112574)
(0.551279 -0.00536076 -0.00884794)
(0.199999 -0.200214 1.10935e-05)
(0.598292 0.152871 0.0385748)
(0.552617 0.00104771 0.00107519)
(0.267573 0.213176 -0.013088)
(0.548914 -1.86432e-06 0.00063507)
(0.598654 0.00710011 -0.00549771)
(0.572154 0.0115989 0.000437056)
(0.56728 -0.00156919 -0.00197135)
(0.567967 0.00178984 0.000162915)
(0.603295 0.00880959 -0.00298356)
(0.582232 -0.000839047 -0.000763057)
(0.576428 -0.000572602 0.000482569)
(0.198235 0.198999 0.00071016)
(0.198969 0.197885 0.000565368)
(0.556814 0.00150002 0.000936614)
(0.547218 0.000861675 0.00074158)
(0.199533 0.20008 -1.69093e-06)
(0.565094 0.000501366 0.000106847)
(0.590949 -0.00181158 0.000572842)
(0.577314 -0.00114462 0.000419319)
(0.199417 0.197296 -8.43911e-05)
(0.569924 0.0114993 0.00236371)
(0.199226 0.199082 -1.09237e-05)
(0.576809 -0.000601342 0.000436529)
(0.577989 -0.000612142 0.000299643)
(0.199898 0.199798 -2.99613e-05)
(0.55227 0.00307105 -0.00175099)
(0.576399 -0.000350881 -4.65395e-05)
(0.567859 0.0104867 0.000557572)
(0.55771 0.000209001 0.00204215)
(0.204429 0.200448 -0.000328002)
(0.584644 -0.00174838 0.00173707)
(0.5697 0.0130403 -5.84024e-05)
(0.602344 -0.0159555 0.00346654)
(0.508086 0.00692094 0.0011098)
(0.453006 0.00143161 -0.00583546)
(0.199833 0.197661 -0.00027448)
(0.199466 0.1993 6.58788e-05)
(0.559875 0.00789015 0.0010333)
(0.200429 0.200426 -9.06499e-05)
(0.487495 -0.00135865 -0.00143061)
(0.562595 -0.00285496 -0.00409112)
(0.339804 0.0440935 -0.0134469)
(0.625528 -0.0423112 0.0166685)
(0.552558 -0.0249371 0.007915)
(0.614276 -0.0234836 0.00579781)
(0.200348 0.200365 -5.88164e-05)
(0.273499 0.232356 0.00152463)
(0.582686 0.00153212 -0.000348088)
(0.199286 -0.200195 -0.000805135)
(0.114282 -0.0814852 0.0313295)
(0.574684 -0.010735 -0.00810269)
(0.198568 0.198158 -0.000468059)
(0.200459 0.20021 2.44103e-05)
(0.517116 -0.00984357 -0.000149321)
(0.418307 -0.0296566 0.00100351)
(0.200472 0.200502 -3.13801e-05)
(0.517954 -0.0105035 0.00202592)
(0.198521 0.198276 9.00183e-06)
(0.200031 0.200393 -0.000333497)
(0.200059 -0.200037 -5.10185e-05)
(0.200137 -0.199662 0.000477516)
(0.19596 -0.194325 0.000602384)
(0.199488 -0.199077 -4.27414e-06)
(0.520474 0.00476863 -0.00177046)
(0.197573 0.196054 -0.000149904)
(0.199999 0.200131 8.11427e-05)
(0.198319 0.1995 0.000473303)
(0.484869 -0.108433 -0.027893)
(0.548571 -0.00492908 -0.0107411)
(0.530496 -2.3629e-05 -0.00490354)
(0.582701 0.00147119 -0.000397809)
(0.198599 0.197391 5.55865e-05)
(0.201083 0.200335 2.02016e-05)