/*--------------------------------*- C++ -*----------------------------------*\
  =========                 |
  \\      /  F ield         | OpenFOAM: The Open Source CFD Toolbox
   \\    /   O peration     | Website:  https://openfoam.org
    \\  /    A nd           | Version:  10
     \\/     M anipulation  |
\*---------------------------------------------------------------------------*/
FoamFile
{
    format      ascii;
    class       volScalarField;
    location    "10";
    object      p;
}
// * * * * * * * * * * * * * * * * * * * * * * * * * * * * * * * * * * * * * //

dimensions      [0 2 -2 0 0 0 0];

internalField   nonuniform List<scalar> 
111485
(
31.529
0.235993
0.27019
31.5282
0.25548
30.5466
0.221223
0.23471
0.220333
0.251205
0.214749
0.242411
0.23673
0.152658
0.230526
0.307381
0.162061
35.1608
0.243037
31.5271
31.5298
30.5651
0.213943
0.295003
0.227452
31.4137
0.274965
0.281119
0.259057
31.5343
-0.000223175
0.114909
31.5414
30.5639
34.3081
30.4203
0.101473
0.23719
-0.0534021
0.263382
30.7574
0.240872
0.269025
0.170452
-0.658193
31.5957
0.219138
0.281338
0.257976
31.6864
31.6749
29.5474
31.709
0.125129
31.7308
0.204418
0.237587
30.6095
-0.0906426
0.253941
0.261064
31.5316
0.22677
0.0317178
30.7239
0.218908
20.584
0.233821
0.138786
0.215774
-0.20078
0.186664
30.9254
0.159139
31.5622
0.178009
30.5685
0.235622
30.5582
32.2935
-0.0994449
0.143606
30.5709
31.5461
0.223858
0.23039
7.32983
0.110993
-0.0670705
0.181182
-0.47545
0.237287
0.237655
0.200176
0.244409
31.5465
31.5286
0.163257
-2.57743
0.585146
31.528
0.268317
30.5303
0.209877
0.208875
31.7298
30.5945
0.13534
0.235028
-0.999467
0.123122
0.247343
0.266845
0.254057
31.4059
0.190905
31.4692
30.5795
0.168947
31.5332
31.4125
26.7759
30.5743
30.6112
0.254109
35.7898
26.6186
0.134921
31.5517
1.94258
-0.074439
0.162921
31.5664
26.1714
27.3139
0.227799
30.5686
0.193635
0.201719
0.27351
0.108609
0.220882
0.248369
0.27505
0.185926
0.139035
30.5683
31.5423
30.625
0.223955
0.260559
31.5172
0.0615805
0.0363451
-2.24774
0.236945
0.223628
0.194948
-1.68212
31.5736
31.5282
0.228014
0.219931
-1.52933
-2.0009
0.149245
0.0681071
30.716
-1.38465
-1.24058
30.603
31.5394
0.229802
30.5829
0.115694
0.0677945
30.7614
30.8399
31.4779
31.3356
30.7319
31.5237
0.250919
0.239744
0.268628
0.264732
0.25719
0.203426
0.137232
31.5315
0.143743
30.825
31.4851
0.232668
0.224889
0.124961
0.263632
0.0709888
31.5666
0.267888
0.297326
21.3266
0.204452
0.160836
31.5294
0.219939
0.211464
30.8156
0.104962
0.187691
0.25036
0.166587
30.7013
31.5312
0.196821
20.0219
0.159268
30.5808
0.215652
0.201211
0.250051
31.541
0.181976
0.0658072
24.1038
30.5818
30.604
-0.0946524
-1.95395
31.0034
29.2273
0.217366
0.120381
-0.211018
30.991
31.2552
0.0522462
31.5544
0.197902
0.189669
0.205911
0.155848
0.198447
30.609
-0.0701384
0.167072
30.6235
30.571
0.0902636
0.239631
31.2205
0.193065
0.160229
31.543
25.5531
0.193064
31.5747
32.1049
28.7919
31.5245
0.200697
0.138272
-0.0226405
31.5577
0.0985205
31.5281
31.5249
31.5656
0.0263919
0.217821
0.244602
0.144626
0.23834
0.208737
0.195089
0.0241412
0.0919667
0.149259
30.3848
31.54
0.0222091
0.101676
-0.135776
0.123392
31.5316
0.239732
0.229242
0.226584
0.307487
-0.0840216
0.233712
0.134572
0.185527
30.5957
0.187389
30.5832
34.9824
32.3704
-0.1354
0.213312
0.221631
31.4933
30.851
0.192586
0.129542
31.5169
31.5244
31.7541
0.152973
0.169967
0.24426
0.251078
0.216791
29.0057
30.6121
31.548
0.218126
13.1656
0.170931
-0.0856009
-0.0190143
30.574
31.5268
31.5311
27.2923
0.201894
0.263474
30.5661
0.204698
31.2064
31.475
0.174734
0.206963
0.24253
0.215072
32.0185
27.1501
30.5751
0.197756
0.0759545
0.00639344
30.7022
2.19814
-0.259434
0.27464
0.217826
5.42311
0.220676
30.5608
0.207743
0.218277
-0.0586577
0.149794
0.227708
30.5763
31.5535
30.5915
31.5387
0.243368
0.202365
0.190924
0.258373
30.6476
0.256945
30.6004
31.5593
0.232211
32.5674
27.8883
31.7166
30.4044
0.238504
30.6044
0.073413
0.275298
30.5591
0.169115
0.226427
31.4988
0.194786
0.263012
0.260639
0.127643
0.162191
0.130538
32.0572
31.5458
0.211244
30.676
0.253889
0.125658
30.7593
30.604
0.203852
0.189752
0.109662
0.307771
30.5673
0.00844797
0.230774
30.5391
0.166419
0.170957
31.5251
31.5258
0.096097
0.232418
30.5186
31.4779
23.5186
31.5252
0.251472
30.5814
31.5288
0.22618
-0.0499714
0.232976
0.276096
30.5539
27.3644
0.264374
27.7463
0.18217
0.292592
0.272187
21.2661
28.0418
-1.87296
-0.877491
31.5238
0.108299
0.271606
31.5339
-1.63939
0.25055
27.903
0.239251
0.2281
0.166324
30.5622
1.06484
0.237627
0.200554
-0.169197
26.5318
-2.03229
31.5355
0.156028
-0.655271
30.6061
0.21224
0.247071
25.8102
31.5533
29.9169
31.5246
0.250172
0.318663
0.261112
0.276513
0.096966
30.5858
0.0907669
31.5773
0.299937
30.501
31.5661
31.5989
0.238866
31.548
31.5293
33.4389
31.5252
30.6379
0.21229
30.6019
29.7646
30.5796
31.4812
30.5244
31.5736
30.5672
0.23645
30.573
0.196898
0.226401
0.0486155
30.5775
0.216018
30.6091
31.5279
0.258544
0.317058
0.406285
-0.126941
29.3922
0.240367
0.230211
0.127468
-0.0255975
0.240917
31.5434
0.0213776
25.856
0.349435
30.5826
0.270701
26.7445
0.120194
0.284397
33.1727
30.8422
-0.0894623
31.5189
0.226556
0.193449
30.6295
30.658
31.7702
30.5993
-3.50713
0.221068
30.5331
30.6247
0.243264
30.5651
0.201366
30.5652
0.205537
31.5293
0.306324
0.293674
0.325058
0.108818
30.4678
-0.478125
30.5284
30.5819
0.199429
30.5873
0.25613
31.7966
0.284871
31.5333
0.331501
31.5281
27.9382
-0.079438
0.127401
0.194192
0.281197
0.13237
0.213071
30.6207
0.163079
0.210997
30.5754
0.11501
0.0706636
0.237345
30.817
32.1728
0.338596
0.116415
14.9635
30.9064
0.178266
0.284756
0.261283
0.24846
0.65214
10.3966
27.5701
-2.42494
12.8005
31.5306
0.295591
30.6716
28.0566
0.209314
10.2315
-2.4929
5.99692
27.5539
0.198387
0.267796
30.6139
29.8639
0.280759
31.5424
30.5643
30.5681
30.5739
0.249697
30.5945
31.3728
0.281864
0.183473
24.1391
0.102584
29.3375
0.169488
31.7042
30.6138
0.227939
30.5769
30.5763
27.9243
0.197464
18.7617
0.15569
0.142606
31.5734
-0.533538
-0.0128863
0.232668
0.274479
1.39909
0.218548
30.5879
0.225618
0.236805
31.5585
0.203213
0.167836
0.265136
0.154897
0.245323
0.252275
31.595
0.242849
0.109395
27.844
0.247627
0.316499
19.5515
0.131868
0.265738
0.284026
0.272768
0.284611
0.0832962
31.123
0.26448
0.250501
32.9223
0.234637
0.180791
0.217135
30.5921
0.194393
31.6196
30.5708
30.6263
30.5687
0.28237
28.2875
-3.7819
31.5198
30.2998
0.275471
0.238898
31.5138
0.232962
31.524
31.5466
31.7132
0.160589
0.288605
28.0447
31.3423
30.5874
30.5902
0.0678055
0.142333
27.323
0.249089
-1.25942
30.6169
0.27727
0.212419
0.352288
30.5602
30.5795
0.276865
0.203551
27.7843
30.605
30.51
0.163855
31.5532
31.5087
30.5876
0.252066
0.274887
30.5633
33.918
32.8688
0.601087
30.6151
30.5528
0.208456
0.0307577
27.72
23.9373
4.82011
0.22971
0.0100696
30.4535
0.141961
0.275874
30.5933
31.7016
30.5662
30.583
30.6053
30.562
0.313003
31.5263
30.5702
30.7875
0.291477
0.202417
31.5357
31.758
0.182021
0.170766
0.197546
31.5052
30.574
0.171255
31.5441
0.219106
0.144069
0.19685
31.4362
31.5295
31.5289
30.5879
0.334892
30.5745
30.5559
0.174551
31.5287
0.2238
0.313526
30.6415
0.243218
31.4231
0.192589
0.257755
0.169997
0.20878
-4.64903
29.0241
0.180005
0.205795
0.0114594
31.2319
-7.95856
28.6731
0.108754
30.5992
0.177363
0.229366
0.160551
32.3319
31.5301
31.5534
0.173515
29.3239
-0.052905
29.8708
0.277136
0.154446
0.0680398
0.191471
30.5675
30.6412
31.0111
0.175224
30.5644
29.008
-0.245185
30.6053
30.6328
31.5367
30.5695
0.0799958
30.4922
30.5829
-5.74351
29.2542
30.6831
28.3289
30.5826
0.144114
0.0625238
31.5197
0.266116
4.37236
0.144454
-1.14281
0.164215
30.6122
0.214714
0.207666
0.143066
31.5438
-10.0012
0.0590768
26.0051
0.0173895
-0.108545
-0.0367477
0.172894
0.14136
-0.191561
0.154506
0.132774
30.5105
30.613
0.0671832
0.0167818
30.6114
0.0826725
0.271876
0.120887
30.5458
-0.109938
30.5844
0.102556
0.0846947
30.5595
-0.288999
0.145151
-0.260326
-0.0605642
30.3777
0.251913
-0.237911
0.0760408
-0.254929
0.143455
30.5432
30.6259
0.219648
30.5694
0.341701
0.00669069
26.9944
-1.5224
-2.9046
-0.822541
30.5696
25.6547
0.185017
31.5486
37.7754
0.128019
30.5324
30.5531
-2.50228
-3.04114
30.5696
-0.110516
30.5835
30.5789
31.5561
31.5273
31.8373
31.5415
0.211199
30.569
30.6043
30.6292
-5.34452
0.378176
0.22444
0.17439
30.6186
30.5487
0.126262
30.5771
30.5668
23.3991
0.104041
0.198034
30.5598
30.535
30.5965
30.5531
30.3772
30.547
0.0343205
30.5717
-0.432905
0.240203
30.5887
31.572
31.7433
-0.125122
31.7113
31.5307
30.652
-0.476718
30.5807
0.0607242
0.0571593
-0.353125
30.554
21.2929
0.16056
0.223108
30.6731
-0.410459
0.211709
31.5516
30.4496
27.6613
30.5392
0.180894
0.22404
0.072931
-0.997664
30.5626
0.17712
30.3238
27.4334
27.4888
30.6046
0.255936
30.5828
31.7843
0.0889069
0.180567
31.7733
0.264382
29.3567
-0.00444528
31.9831
30.5817
30.4779
31.5295
0.148572
0.254827
1.8796
30.5667
30.75
0.108735
30.5696
28.3809
31.5302
0.225998
-1.04644
0.386333
31.4763
0.0534467
0.103284
33.0325
0.105567
30.5845
0.141399
0.178945
0.175461
0.00039073
-0.344618
30.5726
30.5836
30.5809
0.0523138
30.8783
-0.090525
31.558
3.20325
31.5149
0.260626
0.265786
31.7923
30.5698
31.8597
30.6356
-0.106193
31.8891
27.6902
0.0836234
-0.0851861
31.7271
28.251
30.9025
28.3333
30.5577
30.5739
-0.0611421
0.316689
31.5275
31.4879
-2.10912
31.5561
-0.0628731
0.148936
30.881
0.172811
31.5293
0.064305
30.5848
0.264177
30.5576
-1.93183
-0.849992
-0.224115
0.147968
0.135326
18.9399
30.2692
0.179711
31.6953
0.246019
31.5132
30.7035
30.5203
30.6307
30.7274
30.6105
0.0871967
0.0380401
31.5304
26.6818
31.5413
0.0962675
-0.119777
31.5231
0.258412
-0.228209
31.7439
0.164017
0.127817
0.237759
-0.220647
30.5696
30.5729
30.6977
30.5686
0.223112
30.31
0.176484
30.5781
0.146662
0.285583
30.5975
0.114749
30.5577
30.5678
0.129654
-0.00353763
8.82488
30.5797
31.837
30.5264
0.227999
30.1171
31.7457
30.189
3.82211
27.0307
-1.70584
28.2217
30.0463
31.0953
0.118052
0.0545076
0.280182
0.242695
31.4889
0.153131
30.5881
30.6042
0.0909293
30.4588
-2.16525
0.144109
0.173672
0.137543
-3.43476
0.213329
30.5983
-5.25203
-11.3525
0.234006
0.183357
0.212136
22.1713
31.5137
0.236018
31.5339
30.5536
-0.589936
0.228577
-4.03172
30.5201
29.9005
0.0414059
31.7432
30.5572
0.107733
31.8195
31.7758
0.537902
0.117634
-0.0374989
0.328153
0.171478
30.5687
30.571
-0.71335
0.235261
30.567
31.7968
0.366409
30.5992
26.5146
27.1574
27.312
17.6657
26.5894
30.5728
0.289995
30.5064
0.0226681
30.5636
13.9834
30.7787
30.6485
30.6004
30.5723
0.329643
30.5714
30.5695
27.7855
30.5407
30.6016
30.5677
0.21765
30.6394
0.203958
0.00604112
30.6593
0.399125
30.5648
0.177748
-0.376911
0.107772
0.128403
31.4123
0.124169
0.311962
-0.237488
31.553
-0.0791112
0.201496
0.122875
29.4157
0.0849109
30.8343
30.5936
30.5743
30.562
0.108574
30.5838
30.5182
0.103003
-0.177743
0.0282026
30.6396
21.8873
0.340928
30.6057
-1.09425
31.7317
0.0752347
30.5386
30.5507
0.214593
30.5456
0.256423
31.5444
30.5635
0.118587
0.111691
0.174244
0.241204
-0.166385
0.199612
30.5632
32.1358
0.250268
0.178975
0.240798
-0.0421829
30.5701
0.195639
30.5663
31.2262
0.220745
0.0642049
30.6029
0.159458
30.5446
0.175318
0.160861
30.873
30.5627
30.5887
0.252399
30.5822
30.5825
0.255755
0.175634
0.160102
0.109328
30.6427
30.6329
0.293356
0.306795
30.5823
0.23365
30.8993
0.227595
30.5662
30.565
0.15584
30.5672
0.198803
0.291919
30.5784
30.5633
0.194933
26.0183
0.321513
31.5289
0.0918505
31.5725
26.7844
25.899
0.289674
27.9703
27.672
0.211755
27.5073
17.2119
25.4757
30.7953
31.5362
-0.354806
0.293168
30.7412
30.5765
0.19027
0.256761
30.5979
0.24844
30.5607
31.5564
0.265567
0.263824
0.484206
30.5611
30.5887
30.58
30.5692
30.5336
30.5451
30.5562
30.534
30.5524
30.5555
30.578
31.5428
30.5832
30.5597
30.562
31.231
30.5597
30.5658
30.5718
30.6789
31.3339
0.306298
30.5804
30.5605
30.6343
0.250303
30.6148
31.5553
12.0521
30.5062
30.1423
0.221727
33.0266
30.3556
14.1583
0.204752
30.5767
27.1217
29.102
30.5539
0.181719
0.200233
0.211829
0.139301
0.19798
31.6388
30.5297
0.182364
0.205546
0.145328
30.5554
0.216374
0.227032
0.234236
0.0947138
0.141892
0.143336
0.151064
0.213177
31.5916
0.251872
0.256992
0.258819
0.219265
30.5825
30.5769
30.5863
31.5295
30.5727
0.206868
0.2253
30.5936
30.5535
30.5526
31.3624
30.5625
31.5284
30.5769
31.5439
0.21068
-0.162863
0.233738
0.354346
30.4555
30.6124
0.164889
-0.664681
30.5627
30.5711
0.235724
31.595
30.5768
0.336869
0.161812
0.200126
0.338889
0.183415
31.6253
0.0744325
0.248305
27.7
31.5325
0.197861
31.6093
30.6012
9.81964
5.40914
0.265737
31.1507
31.4505
0.161234
0.246162
0.130436
0.207048
13.7887
31.5255
0.249087
32.9368
31.5518
30.3269
0.235925
30.5595
0.213409
0.0443929
0.195556
0.225357
31.5628
0.259271
31.5517
29.9165
31.5427
31.4897
0.129727
18.1529
30.5708
31.5271
33.4394
0.217517
27.4996
0.151794
0.1955
0.116894
0.20353
31.385
31.4891
26.6431
0.25854
0.207687
-3.28163
31.7021
31.528
27.3643
0.224122
0.136507
30.5643
0.0206354
10.2421
0.239184
0.171972
31.5235
26.6408
0.16271
0.207586
30.5847
0.285081
0.273653
0.211493
0.092833
0.17147
0.242998
27.7049
0.167515
0.179977
0.193155
31.9383
0.220267
28.0411
0.294293
0.186802
31.5525
0.105184
0.167007
0.134388
0.246871
34.9907
8.61616
0.12168
17.3187
0.169409
30.6152
0.110701
0.18305
31.5425
30.573
-1.08731
-0.0983569
0.270134
34.9198
0.262665
-0.442358
-4.21082
-0.057016
31.5464
31.6235
0.199958
33.38
0.216262
-0.497299
0.180898
0.161538
31.5241
0.259748
0.201014
31.5139
27.8364
0.190053
31.5953
0.176613
0.195078
31.5342
35.1325
0.254855
31.5183
30.5602
30.5978
0.145891
0.526198
0.256639
31.7587
0.243623
0.172308
30.7855
0.16032
0.115244
0.122849
-0.205202
30.5691
0.173
0.236088
0.158169
0.126539
0.135525
-0.265157
0.290931
31.5281
-0.168696
0.11814
31.527
0.150194
30.6176
30.5797
31.5512
30.6362
31.5366
0.290242
30.5928
0.148983
0.172839
31.5572
0.314703
31.2978
0.09992
31.5421
-0.31312
30.6553
0.236211
0.317365
-0.369697
0.242118
0.123773
0.256614
0.144306
0.254074
11.3341
0.204813
0.152843
0.248106
31.5472
0.284697
-0.124118
0.207483
0.242163
-0.303342
31.5534
27.2045
31.5285
0.276377
31.5209
24.7749
0.124659
33.5636
0.323119
31.4831
31.4166
30.5706
0.225591
0.409109
0.18782
0.143197
0.135114
0.180847
0.231807
0.184991
0.104819
0.220927
0.189584
31.606
30.406
31.5208
0.230841
0.256073
30.6977
30.57
25.3048
0.291228
0.11624
31.5241
0.187949
31.5219
-1.33436
0.286274
0.076653
31.5306
31.5283
0.167513
31.5286
0.229765
0.179561
29.9141
0.230186
0.242453
0.12932
31.5123
-0.108159
28.0417
0.160276
0.246957
31.536
31.5896
0.162527
22.2748
31.6579
0.220858
0.153683
31.5312
31.447
27.8613
0.156236
25.2407
0.206636
0.161359
0.263683
31.5274
28.196
0.149419
31.5256
30.6001
31.5417
31.535
28.6256
30.9221
30.3161
31.5197
31.5663
29.296
33.5895
30.5919
0.26449
30.6277
27.1011
25.6397
35.5955
27.6368
31.5278
0.162522
29.6113
30.8626
0.159473
32.8404
34.2821
31.1743
0.132975
33.4693
0.178207
0.00887348
0.304152
28.77
31.5338
0.210223
-1.31971
31.3643
31.5169
0.230821
28.4519
0.223108
28.1595
30.5029
30.9932
0.229631
0.243891
31.5268
0.243418
31.6764
29.6036
-0.400181
0.260889
0.169318
30.5825
0.224652
28.9803
0.181501
30.5636
31.5136
30.5597
28.029
0.229224
0.225326
31.5506
-2.66893
31.5512
31.6097
31.5495
31.5283
0.181376
0.12439
0.201202
0.281642
31.3918
0.272475
0.238644
0.212729
0.157883
30.7888
0.190997
0.283444
0.123217
-1.20706
0.232736
31.7145
0.143712
0.177904
0.227339
0.210794
0.107875
31.6358
0.146457
31.1243
31.5477
0.225346
31.5662
0.294724
31.5257
31.7782
30.2961
31.5432
31.5447
0.107747
31.5383
0.192634
28.8929
30.6028
0.235073
0.270099
0.221483
0.161314
31.6118
3.16025
31.5462
0.212555
31.7833
0.216596
0.169272
0.217246
0.235048
31.9
31.9277
31.5429
0.202024
30.6439
31.4892
0.190028
30.5181
30.5565
0.288688
31.8995
0.110303
-1.19429
28.6928
30.0273
29.7867
0.16119
0.214298
31.5256
0.0371224
0.200655
28.0693
0.207553
31.5335
0.173414
0.276853
0.250085
31.5331
0.266731
0.171949
0.182803
0.250826
0.276945
31.5339
31.527
-0.0473818
31.5004
30.5592
31.525
0.157577
0.207479
0.214234
0.0765541
27.5927
0.208852
0.223933
0.220712
-0.0459696
0.285189
0.203012
0.281232
30.571
30.5707
30.5684
0.355522
30.5877
0.124122
21.1663
0.244441
-1.83038
0.135361
0.118456
30.5538
31.5369
0.2502
0.237315
31.5903
30.5486
31.551
0.152246
0.238273
0.227538
0.276083
0.126406
0.21228
31.5221
31.5436
31.5296
0.19666
0.184889
0.0379072
0.2449
0.224442
0.263716
31.4124
31.5265
25.4983
30.7222
0.140739
0.301206
31.5075
31.6464
31.5486
31.5568
31.4022
30.8915
0.226837
31.5302
0.111753
-0.0941066
30.5832
0.250719
0.114529
0.163923
31.7149
31.0693
0.228051
31.5294
0.223647
-4.47688
0.168014
30.6923
23.9069
30.5653
31.535
31.5022
30.4435
8.70122
31.5783
0.297171
0.226189
31.5422
31.5322
0.22263
31.5444
30.5834
0.196549
-0.439563
31.4756
31.4693
30.7363
0.162621
31.5284
31.5266
4.98773
0.164652
0.228507
31.5224
30.5797
28.8678
0.204796
0.216343
0.206168
0.217655
30.5627
0.240169
0.0863593
0.0731063
30.3755
31.5281
31.5277
31.3553
31.5296
0.207553
0.221023
0.177335
31.6178
31.5375
31.5275
31.5228
30.8322
0.157369
0.453387
0.0922439
30.5651
31.5292
31.761
-3.61402
0.126256
0.072603
30.5735
-7.35511
33.0344
31.3841
31.5263
0.228388
0.296274
31.5249
31.6486
0.249418
31.5342
0.165401
0.230002
11.1684
31.5097
30.7478
0.201727
0.0753678
31.6601
10.4016
0.247439
0.348329
31.5298
31.5363
31.5839
31.5662
0.133018
0.18208
31.5378
0.119831
0.204228
1.18766
31.5265
31.5172
31.518
31.5387
0.262947
33.5359
31.5279
31.113
0.147509
0.17796
0.181413
31.4079
31.538
0.233705
30.5296
31.5328
31.5305
31.5294
0.240038
30.8083
30.5117
30.571
0.13684
0.2722
31.5071
31.545
31.4502
0.246044
32.6136
31.5354
31.4572
31.5462
31.5426
-0.42852
0.303025
31.7137
0.254917
0.273948
0.218567
31.5687
31.5525
31.5401
31.3889
30.559
0.240622
31.5302
29.5766
29.439
0.214856
30.6383
0.174392
31.5286
30.5935
0.234961
1.53758
28.2462
0.252869
31.5313
0.240271
32.582
31.5946
31.7181
36.3804
31.5479
0.163602
31.5026
0.220754
30.595
27.8612
31.5629
31.499
0.112913
0.393378
30.5664
10.8308
30.585
-0.00529607
0.145915
0.295473
30.6031
-1.0212
0.158246
0.113956
0.307781
-2.09254
0.139825
30.4665
30.5607
-2.58833
0.174686
0.236555
31.6548
30.1557
25.6264
13.2788
31.5526
30.5734
31.5471
31.5533
31.5596
33.214
0.392564
0.0379884
0.239841
27.9271
-0.0258307
31.5456
0.246414
31.5283
31.5784
30.5807
30.8738
-0.0856105
30.7786
30.5724
31.5273
0.243779
31.5176
31.5337
0.132977
31.4049
23.1372
19.8805
18.5441
31.5597
19.42
18.7965
19.2208
21.9911
30.5592
30.5628
0.222312
0.209982
27.9473
28.6204
30.5609
0.211352
32.7709
30.9443
-0.0778449
31.5315
31.53
0.134468
0.027574
31.4095
30.561
0.225531
28.1734
30.5196
-1.22082
0.21663
0.378716
31.2678
0.279105
31.5509
0.168636
-1.19784
0.25234
31.5282
-1.18014
0.276682
31.8875
-3.74329
31.485
0.25122
30.1543
0.315959
31.2396
0.115446
31.5214
30.3906
30.5884
-5.43471
-5.46301
31.5941
0.22669
0.350914
31.7327
31.5255
0.121855
0.027506
-0.114178
31.5756
0.26411
0.256279
0.139417
-2.98274
31.5599
-0.301015
30.6012
-0.232402
31.5285
-6.49565
-7.57898
31.4406
0.209084
30.8043
0.14616
30.5646
31.4453
31.5693
31.6033
31.435
31.4781
0.255902
0.250108
-0.249911
31.552
25.4651
-0.207969
31.5492
31.3774
31.6461
31.5222
31.6438
0.0970391
31.5276
31.5477
30.5603
0.0780707
31.4643
30.5741
30.1967
0.171842
30.5767
0.036611
-2.71401
0.0462499
0.157113
-0.0473969
32.8888
31.5373
31.5211
0.287392
0.192779
30.2684
25.3127
0.0795139
31.5346
31.5529
-0.170647
31.48
0.257446
31.5266
-0.016168
0.101144
31.5524
30.559
31.5243
31.5488
31.5256
0.229066
31.5145
0.0859179
31.7955
31.5272
0.140596
30.5621
0.23405
31.1207
31.5322
0.216104
0.233259
-0.0983146
31.5472
31.547
31.5301
0.258258
-0.00655165
31.8228
30.5686
30.6056
0.167011
31.4908
0.26923
-0.167587
31.5224
31.5032
0.160729
31.506
30.6092
30.5778
31.8511
30.5838
-0.234511
24.9571
30.6525
31.54
25.6134
31.503
26.4921
31.4116
31.498
31.0019
0.200184
31.2444
0.121663
31.4631
31.4948
0.109253
0.180355
31.4749
31.3922
31.5266
0.123153
26.9389
31.5307
30.955
31.5115
0.164744
31.4839
-0.338442
31.5529
0.206569
27.7841
0.186985
31.5813
31.5265
0.249062
26.2908
31.5442
0.182683
0.212712
31.623
31.5493
0.193404
0.0937712
0.166861
0.116689
0.111671
0.237041
0.191655
0.157799
31.8153
-0.382782
25.1702
24.7194
31.529
31.5092
31.526
0.180451
31.5531
31.5271
31.5526
-0.148857
0.138977
23.9527
0.129357
31.5524
0.226169
30.5427
0.133983
0.217576
25.4607
0.275829
31.4886
31.4066
30.571
0.211233
0.209354
31.5296
30.58
0.188433
31.5435
-0.144449
31.6992
0.0264507
31.5287
30.5705
31.4643
30.5666
0.181546
30.5669
1.47081
30.595
0.231174
31.5223
31.5066
17.4769
16.1923
31.5965
31.5112
31.5279
31.5433
0.251256
-0.191108
21.0386
31.5541
0.253339
30.5575
30.6207
-1.32237
0.253037
0.0717896
30.5729
0.144887
0.181544
0.215932
0.234502
31.5322
31.5577
31.5746
31.553
30.5732
30.5649
30.5717
31.3929
30.5747
30.5735
31.5285
30.5695
-0.062686
30.564
31.5194
34.507
31.5467
31.5278
11.0997
30.5632
31.5192
0.180319
0.00549357
31.424
31.463
31.5304
0.250573
30.7311
31.4828
-0.0693847
30.582
31.5204
31.5192
31.5467
0.143394
30.5733
-0.31295
31.5557
31.477
31.5193
31.5239
31.5104
-0.0441801
-0.200999
0.179902
31.548
30.6455
31.6881
-0.118209
31.5144
-0.196284
0.0524163
30.5672
31.4548
23.912
-1.24693
31.4455
28.1746
-1.19369
24.2281
0.245523
30.7124
0.149508
24.0929
22.5752
31.5277
0.254383
30.5837
0.201451
0.102687
31.5481
0.250685
-0.749538
31.5217
0.0546914
30.5677
31.4526
31.491
31.4356
31.4886
30.567
31.5144
31.5412
-0.259391
28.5311
31.5271
31.5237
31.5121
31.5267
0.233053
16.3937
-0.142879
-0.831448
31.5152
0.301321
0.24782
31.5278
28.0895
31.2346
31.4719
31.6208
31.8659
25.8599
28.7648
0.130784
31.535
31.5659
24.4941
26.6247
30.5702
0.213676
31.5439
30.6155
31.546
-0.0205238
31.5592
30.5634
0.200234
30.5777
30.4398
31.1419
31.7359
0.203457
31.5279
31.5227
31.5167
31.4561
0.238149
0.0476773
0.0830971
0.228725
0.187839
0.147856
30.5817
26.3019
-0.269817
0.176475
26.2588
-0.232061
31.5237
-3.92246
30.6342
-0.0338552
31.5339
30.5729
0.178854
-5.16385
31.5334
0.172332
31.5391
31.5439
-0.0520851
0.117827
31.539
30.5678
31.6914
30.569
31.5085
27.4948
31.5453
31.529
0.162447
31.5437
31.5133
31.5185
0.206414
31.5649
27.6592
30.5737
30.5553
29.301
27.7999
0.201607
30.5708
27.834
0.197045
31.5164
0.126012
0.204524
31.5252
0.198074
31.525
29.9156
31.7817
27.2665
30.5953
31.4624
31.5196
31.5576
0.25813
31.5514
31.5391
31.5376
31.0286
31.524
31.2268
-0.120228
31.5285
31.5573
0.0593567
31.5303
30.5719
30.5957
0.313918
31.5309
-0.339325
26.9372
-1.13306
0.0847105
30.5607
26.279
0.208628
25.2156
30.5747
-0.407917
-1.12279
-0.00840853
0.0876765
-0.640083
-4.25919
30.6875
30.573
0.25195
-0.0429639
0.00414421
0.276201
-1.19213
30.5799
0.114515
0.198754
0.224688
30.6066
0.247292
0.119926
0.203822
0.240428
-0.134668
0.117882
0.219349
0.192265
0.00828163
0.190772
0.248562
27.7145
0.363712
0.0339967
0.228824
0.183163
0.106826
0.252871
0.0672869
28.3545
-0.0881425
28.1557
0.265724
0.270091
0.0891921
0.179042
28.1001
30.5613
0.240895
0.222492
-0.173316
0.0743799
0.152969
0.220131
19.488
0.272308
31.5287
0.392102
-0.0904106
0.12363
0.232301
-0.19353
-0.332043
0.248118
0.190778
0.0874015
0.234477
0.228053
0.51524
24.6897
21.721
0.21671
31.5353
31.5293
0.219237
0.305217
0.116172
31.5258
0.0381627
0.10776
0.217889
22.4886
31.5223
-0.482887
0.0381387
-0.115311
31.5589
0.193477
31.5306
0.216081
0.242765
0.125435
0.130397
31.5158
31.5369
0.178327
0.274136
0.326523
31.5048
0.230014
0.327456
0.180811
30.5985
0.221656
0.0838558
28.0836
0.201987
-5.57708
-0.0788905
30.4218
0.0827954
-0.0337656
31.5288
0.275938
0.0952154
5.90089
0.191966
0.300406
0.140858
0.323771
0.142495
-0.075246
-0.575955
-0.136352
0.389381
0.132715
0.178437
-0.306618
0.243754
0.23496
0.295629
0.266787
-0.262317
0.217698
31.5303
0.260562
0.218935
-0.0852227
0.212582
0.155015
30.6602
0.249165
0.218201
31.5116
0.0230312
-0.015085
0.238185
0.274403
0.123828
-0.168036
0.27651
0.19488
0.105431
31.5292
31.5295
0.140357
30.6059
0.152161
0.294844
30.8537
0.122302
0.203561
0.015768
31.5374
0.228732
0.220267
0.0731658
-0.1965
0.211052
0.235458
0.215573
0.245939
31.529
31.4481
-0.0287017
0.156782
0.0895284
0.271431
31.4454
0.168859
0.321191
30.8517
0.167665
0.249811
-0.298812
-0.49207
0.184084
0.10352
0.209292
0.266507
30.6288
0.296005
0.156535
0.259298
-0.423684
31.4501
0.221951
32.0681
31.5276
0.200269
0.196127
0.20436
0.863548
-0.132612
6.23081
30.5828
0.117844
0.360363
0.4655
0.202669
31.5445
30.6024
30.5621
0.177675
0.198984
-0.525116
0.221356
30.5566
31.4636
0.140007
0.21697
0.140321
0.222696
0.198402
0.322858
0.131808
17.6854
30.5621
0.253397
0.081744
31.4596
0.2117
0.300828
0.0848572
0.267634
0.223232
0.172962
31.462
0.260147
0.218522
30.6005
30.6185
0.141787
0.319245
0.139776
0.113525
0.270171
0.340373
0.1812
0.245648
0.289468
0.0818324
31.447
31.4184
0.0461535
0.142004
0.27349
-0.0226388
0.273773
0.195493
0.251637
0.240681
0.261847
30.5741
30.6326
-0.0525651
31.4428
27.4995
0.247587
0.203051
0.176476
-0.0178984
28.7564
0.175966
0.0546155
29.281
-0.0348605
-0.447099
0.26595
0.281197
0.0907158
0.308863
-0.218405
0.125856
31.5287
29.0563
0.0207545
0.160118
0.181237
0.152852
-0.107078
0.157611
-0.0868419
29.1572
0.309068
0.258168
0.227406
-0.123923
0.162951
-0.0394604
-0.430677
0.225864
0.141004
28.7285
0.268132
0.293593
11.4507
27.286
25.1132
0.325334
26.6696
0.0675851
0.271875
0.205465
0.313379
-0.0952167
20.3505
12.447
32.3012
27.0008
0.139628
30.5659
30.5664
-4.6683
31.5183
0.235656
0.220069
0.11913
0.217276
0.217923
0.245991
25.2173
0.143089
0.108945
0.150748
0.223039
0.229316
0.248454
30.571
-0.451688
0.236684
-0.127897
30.5682
0.238081
0.191908
30.5678
31.482
0.00562477
0.197319
31.6766
0.283512
0.273437
-0.0116822
31.5415
30.5672
0.113054
-0.444304
0.297904
30.5696
30.5283
30.5689
0.264038
10.467
9.56331
0.0827844
-1.09486
31.5805
0.187582
-1.00527
0.259329
0.110967
0.0383491
0.172824
-1.6034
0.14316
30.7925
0.150745
0.21264
0.0767377
0.23585
0.092009
0.176519
0.0982368
0.118453
0.130314
0.0835526
-1.15507
0.248147
-0.0212169
-0.164596
-1.4331
-0.00387444
-1.08323
0.0903196
0.14756
0.211456
0.237494
0.10502
0.210981
-1.1062
0.155035
29.9765
0.236968
15.4835
0.207273
0.194718
30.6033
0.212548
29.9762
0.208448
30.0863
31.6317
0.356568
0.167353
27.501
0.164098
0.259283
0.191271
31.4678
31.5449
0.386373
0.101836
-0.246984
0.218174
0.17659
0.183759
0.0836246
0.231767
0.213498
26.1136
0.245786
30.5702
31.322
0.231544
0.196207
-0.0183185
0.225548
0.182609
0.24643
0.203709
31.152
-0.0879868
0.163286
0.23359
31.1911
31.575
0.239933
0.230367
24.7275
0.15112
0.133396
0.250064
-0.510548
0.2029
0.242402
31.4861
18.4826
0.229015
0.0467554
30.8619
0.260244
0.126554
0.203246
-0.10122
0.178447
-0.222405
0.235736
0.172264
19.5321
0.150668
31.5276
0.229511
0.207691
0.194288
0.0717822
26.4184
0.0591939
0.0140116
0.226907
-0.098651
29.7648
30.571
0.235433
0.067485
0.249829
0.248128
0.154425
0.183308
0.00312969
0.212106
0.184986
0.100718
0.120022
28.2367
-0.194879
0.174641
0.0218155
0.147978
29.0167
30.5586
-9.02303
-0.0967639
32.6871
-0.194008
0.192494
29.5153
20.1838
21.9543
0.109268
0.203972
1.0542
23.4846
0.00621726
0.250424
30.4889
0.953573
27.612
0.201048
0.161501
30.7104
-0.0911393
0.20679
0.191784
0.197523
30.5618
-0.686135
0.14158
0.0285421
0.231171
0.251711
0.171791
0.253733
-0.298594
0.198225
0.140099
0.199699
31.5176
25.9204
26.3093
30.927
0.157331
0.228089
0.257745
0.0595321
0.154131
0.239105
0.225091
0.203819
0.205151
0.183132
0.225618
-0.0237951
0.261275
0.187227
31.5269
0.14185
0.0596122
0.213836
0.257502
30.4642
0.165548
0.182483
0.390725
0.241149
0.23449
30.6267
0.274311
0.222586
27.559
0.269702
0.225008
30.9065
0.174188
30.8707
30.5869
0.169273
0.0342721
0.234375
0.237479
30.5678
0.175184
0.138067
30.603
0.283191
0.228373
0.230637
0.209457
31.0308
0.162945
0.172748
0.284222
30.8627
0.235318
0.140478
0.242189
0.206637
0.191438
31.6545
29.9143
28.3512
0.125139
28.8716
0.233458
0.151924
0.127608
31.4135
0.12254
30.7112
31.5264
31.3141
0.250228
-0.0508764
-0.453205
0.268036
0.267902
30.1045
27.6076
0.159643
0.122275
0.262238
-0.298233
0.23155
-1.18891
31.5324
23.0703
23.5328
30.5598
23.83
0.0781172
31.53
0.268215
0.216912
0.26497
0.0754098
0.222771
25.3924
0.123468
0.258932
0.232503
0.143861
25.5582
31.5333
0.178783
0.177511
-0.801123
-1.78779
-0.0781908
-0.284321
-0.672479
-0.416912
0.247783
0.0497849
0.208414
-2.80965
0.196173
0.263975
0.211459
0.207669
0.177977
-0.109396
-2.07852
-1.61766
-3.42999
-4.62816
0.195876
0.102146
30.6159
-3.81949
-7.57655
0.157047
0.115116
0.0427297
0.266846
0.327687
-8.25906
0.11699
-0.0649114
31.6615
0.244485
0.16732
0.207931
31.5456
0.132518
0.122561
0.133172
0.200974
31.572
31.6827
0.222766
0.12873
0.165447
0.0646395
31.387
31.5281
30.5829
0.254885
0.236148
0.105502
31.5385
0.173979
31.6995
31.7955
0.149271
0.122408
30.5509
0.122671
0.150084
-0.0676308
30.5655
31.5407
0.173744
0.264092
31.7335
0.113685
0.262453
-0.156394
31.9599
31.988
31.8561
-0.165443
0.118517
0.188521
0.271139
30.543
0.130724
0.214711
0.163149
0.205669
30.7536
31.5198
0.33758
0.0928673
0.0929938
0.235458
30.7449
-0.390844
30.5755
0.138801
-0.0737595
0.210728
30.9424
28.6311
0.0291682
0.146386
28.0785
28.2527
30.5713
0.298794
30.2721
26.8447
0.216221
0.223804
30.5765
27.6174
0.23391
0.303564
0.17129
0.218909
0.21634
28.0924
0.270775
25.7715
25.122
31.619
0.20672
0.274386
0.107117
25.2685
33.8521
0.297549
-0.068996
0.313374
0.249681
0.226713
0.254243
0.215343
0.362942
24.7972
0.197942
0.115176
0.341063
0.264953
0.192101
17.9284
0.211802
0.205466
0.222048
0.211051
0.154196
24.0022
28.6027
0.236589
28.8377
29.2235
0.255087
28.8989
0.237796
28.2091
28.5617
30.7565
27.4345
0.231792
0.154683
0.178695
28.1567
0.19584
0.221802
0.137953
28.6251
31.5297
0.239505
0.24413
-0.245188
0.240367
27.2552
0.0451786
0.209591
0.124777
30.5576
30.9702
0.241888
0.156558
31.0795
28.7254
0.129554
0.0186794
28.0826
0.0903177
0.0784563
0.118051
0.26298
28.3947
0.231312
4.34687
0.197466
0.392566
0.207616
0.0798755
0.19941
0.200807
0.2946
27.7671
0.245136
0.282066
-0.296371
0.0549274
0.13861
28.558
0.164579
0.275431
0.203434
0.182901
0.258302
-0.246926
0.519739
0.0200044
0.196433
0.170465
0.199511
0.16013
0.210234
0.242542
0.280124
31.6277
-1.27026
31.5388
0.241512
0.253747
0.145319