/*--------------------------------*- C++ -*----------------------------------*\
  =========                 |
  \\      /  F ield         | OpenFOAM: The Open Source CFD Toolbox
   \\    /   O peration     | Website:  https://openfoam.org
    \\  /    A nd           | Version:  10
     \\/     M anipulation  |
\*---------------------------------------------------------------------------*/
FoamFile
{
    format      ascii;
    class       surfaceScalarField;
    location    "49";
    object      phi;
}
// * * * * * * * * * * * * * * * * * * * * * * * * * * * * * * * * * * * * * //

dimensions      [0 3 -1 0 0 0 0];

internalField   nonuniform List<scalar> 
109758
(
-3.15941e-06
0.00121983
-0.00121667
-0.00125266
0.00128851
-3.58546e-05
0.000104115
-0.00114988
0.00104577
-0.00144
8.78778e-05
0.00135213
0.00146238
-0.000168347
-0.00125786
-3.61747e-05
-0.000405292
0.000396325
8.96753e-06
-0.00110845
-6.47407e-06
0.00111492
0.00202386
-0.000255937
-0.000384879
-0.00138304
-2.37263e-05
0.000849315
1.44635e-05
-0.000840052
0.000466483
-7.22201e-05
0.00059652
-0.000990782
-3.94144e-06
0.000586479
-0.000582537
0.00187437
-0.00152689
-0.00143888
0.0010914
0.000320907
0.00125913
-0.0014378
-0.000142233
0.00118866
-0.00121938
3.0721e-05
-0.000974043
0.0011082
0.00132822
0.000691393
-0.000946128
-0.000684464
0.000939199
0.000819587
-0.00157363
0.00140327
-0.000649229
0.00148429
0.000242371
-0.00110138
-0.000625282
0.00150008
0.000227942
-0.00121147
-0.000516546
-0.00144002
0.000171261
-0.000108865
0.00137763
0.000215636
-0.000290298
7.46615e-05
-2.63462e-05
-0.00119643
0.000285627
0.000937147
-0.000275572
0.000846551
-0.000570978
0.000251248
-0.000301532
0.00102946
0.00116213
0.000420165
-0.000405489
-0.00117681
1.76962e-05
0.000563471
0.000903121
0.00124141
0.00151639
-0.00194187
-0.000815927
-0.00109123
0.00108145
9.78286e-06
3.43738e-05
0.00112776
0.00149193
-0.00102645
0.000795227
-0.00126071
-0.00146095
0.00152969
-8.42976e-05
1.55597e-05
-4.98762e-05
0.000604474
-0.000554598
-1.44876e-05
0.000898715
-3.48241e-05
-0.000849403
-0.000827258
0.000824117
3.14054e-06
-0.000123956
-0.00131739
0.0011048
0.000336545
-0.00115981
0.00212099
-0.000718812
0.000577999
0.000169923
-0.000747921
0.000198045
0.00103991
-0.00147429
0.000236328
-0.000252302
-0.00111682
8.18405e-06
0.00136093
0.00114046
5.08049e-06
-0.00114554
0.00167381
-0.00110245
0.000734927
-0.00130629
-0.000392233
-0.000504918
0.000676484
0.000220667
-3.41743e-05
3.33508e-05
0.00167464
-0.00144721
0.00142462
1.32364e-05
9.35246e-06
0.000796995
-0.00079802
1.02548e-06
0.000330621
-0.00214983
-0.000329146
0.00214835
0.000997938
-0.000282628
-0.000251212
-0.000464097
-0.00111256
0.00138816
-0.000195409
-8.01933e-05
1.65566e-05
0.00102434
-0.0010409
-0.00224761
0.000142314
0.000187788
0.00191751
0.00107967
-0.000522349
0.000520003
-0.00107733
0.000398917
0.000616717
1.43401e-05
0.00140047
-0.00141481
-0.00105836
0.0010619
-3.5399e-06
-0.00121991
0.00125428
-0.000329725
-0.00175408
-0.000430743
0.00251455
-0.00228279
0.00318364
-0.000667434
-0.000233407
-0.00111415
0.000983027
0.00117049
-0.00103937
-0.00180371
0.000708467
-5.92444e-05
0.00115449
-0.000718817
0.000264221
0.000645946
-0.00019135
-0.00149364
0.00142215
7.14876e-05
-0.0032342
0.000189507
0.00163169
0.001413
-0.000314026
0.00130125
-0.00124944
0.00026221
0.00156927
0.00151343
-0.00189091
-0.00113792
0.0015154
-0.00190106
0.000921715
0.000514726
0.00046462
0.00139261
-0.00153986
-0.000857908
0.00100516
-0.00147635
9.85729e-05
0.000349151
0.00102863
-0.00112268
-0.000798884
0.000445218
0.00107497
-7.6498e-05
-9.3721e-05
-0.000904747
0.00100521
-0.000590433
0.000372951
-0.00078773
0.00141975
5.18427e-05
0.000602383
-0.00207398
-0.000520631
0.000192143
0.000328488
-0.00211861
0.00134762
0.00158322
-0.000812233
0.000803012
-0.000759563
-4.34487e-05
-0.000626983
0.000199851
-0.00169148
0.00010649
-0.000881214
-0.00028364
-0.000270513
5.60144e-05
-0.000860666
0.00107516
0.00174248
-0.00158309
-0.000333494
0.000174105
-0.00170475
0.00153664
-0.0010518
0.00119818
-0.000810899
-0.00100334
0.000616056
-0.00065073
0.00269958
-0.00135003
-0.000698827
-0.000152307
8.22917e-05
0.00152946
-0.00145944
3.64049e-05
0.00216823
0.000227606
-0.00243224
0.00086626
-0.00157244
-0.000132695
0.00083888
0.00123806
-0.000233153
-0.000898415
0.000128783
0.000991269
-0.00135853
0.000238473
0.00054342
0.00204821
0.000129541
-0.00272117
0.000961867
-0.0011339
0.000180241
-8.20516e-06
0.000655164
0.000735476
-0.00276359
0.00137295
0.000933332
-0.000103678
6.16147e-05
-0.000891268
0.00199178
-0.00149349
-0.00296906
0.00247077
0.00169097
-0.00190373
0.000844336
-0.000631577
2.05936e-05
-0.00159272
0.00146396
0.000108165
0.00164641
-0.00115282
-0.000363101
-0.000130492
0.000889521
2.08682e-05
-0.000910389
-0.00170037
0.000293868
0.00118731
0.000219196
0.00111501
0.000743647
0.000571256
-0.00242991
0.000918809
-0.00165732
0.00114788
0.00249095
-0.00144436
-0.00219448
0.000917339
1.46997e-06
-0.000367572
0.00119345
0.00119919
-0.00202506
0.00105162
0.000300452
-0.000149028
-0.00120304
8.13561e-05
0.000922117
-0.00100347
0.00141392
-0.000116766
5.53481e-05
-0.0013525
-0.000577879
-1.89619e-06
0.000579775
-0.0013241
0.00102148
-0.000798757
-0.000237718
0.00179642
-0.00188909
0.000330394
0.000431869
-0.000362754
-0.00145275
0.00138364
0.000287592
-0.000293293
-0.000681617
0.000687318
-0.000368724
-0.000989322
0.00123684
0.000121211
0.000448006
-0.0012195
0.00126885
-0.000497362
0.000927702
0.000283505
-9.27739e-06
-0.00054947
-9.87645e-05
0.000657512
0.000179641
0.000352874
-0.00203721
0.00150469
-0.00131186
0.000166431
0.00134814
-0.000202709
0.000973517
0.000158277
9.90144e-05
-0.00123081
0.000204955
0.000768563
0.00143147
0.000288326
-0.00156152
-0.000766614
-0.000873129
0.00130309
0.000336657
0.00135795
0.000183619
0.000199545
-0.00174112
-0.00146801
0.00125522
-0.000411806
0.000624601
0.00134609
0.000290334
-0.001046
0.00117836
-0.0010876
0.000955251
0.0014632
-0.000211203
-0.00028643
-0.000965568
4.0164e-05
-0.00160651
0.00174192
-0.000175569
-0.00152888
-3.74365e-05
-0.000422265
0.00198858
0.000938755
0.000505932
-0.00148564
4.09539e-05
-0.00101889
9.45048e-05
0.000894804
2.95857e-05
0.000184196
5.68931e-05
-0.00188291
0.00164182
-0.000930548
-6.17723e-06
0.000936725
0.000193145
0.00133202
-0.00134097
-0.00106141
0.00142124
-0.000773872
0.000414041
-0.00121299
-0.000778012
0.00157798
0.000413023
0.00127431
0.000244365
-0.000722724
-0.000795948
-0.00201022
-2.81314e-05
-0.000282954
0.0023213
-0.00129453
-0.000777548
0.000565834
0.00150625
0.00177658
-0.00174071
-0.000112051
7.61821e-05
-0.000263769
-0.000789102
-0.000701212
0.00146082
0.00108165
0.000271139
-0.00281361
0.00211354
0.000267143
-0.00234428
0.000214728
0.00110499
-0.00131972
3.51832e-05
-0.00108864
0.00105345
-0.00103479
-0.000214747
0.000197583
0.00105195
9.21774e-05
0.00134671
-0.0012848
-0.000154095
-0.00221982
-0.000254855
0.000576584
0.00189809
0.00122522
-0.00129639
0.00110863
-0.00103746
0.000159158
0.000143147
0.000922918
-0.000874162
0.000847574
2.65887e-05
-0.000919651
3.02385e-05
0.00133306
-0.000443652
0.000264679
-0.000672158
-0.000492971
0.000900451
0.00067446
-0.000702072
2.76123e-05
-0.000961829
0.000910022
-0.000218705
-5.08543e-05
-0.00101127
-1.05892e-05
0.00107271
0.00171111
-0.000192221
-0.00108595
-0.000432934
-0.000408182
-0.00186734
0.00250691
-0.000231385
-0.00162342
0.000562181
-0.00135663
0.00151473
-0.000158102
-0.000731692
0.000659205
-0.00102721
0.0010997
0.000547791
-0.000670694
-0.000497616
0.000620519
-0.000920514
-0.00126231
0.0010016
0.00118122
5.03294e-05
0.00141132
-0.000139945
-0.0013217
-0.00035859
0.0017098
-0.000286489
-0.00106472
-0.00159264
0.00134674
-9.64329e-05
0.000342336
-0.00117008
0.000933263
-0.00100755
0.00124437
0.00121553
6.60051e-06
-0.00122213
-0.00180189
0.000389456
0.00176159
-0.000344965
0.00142163
-0.00107667
8.78186e-05
0.00143509
-0.00152291
0.000197941
0.00123674
-0.00189563
0.000460953
-0.000951375
-0.000989147
0.00106164
0.000878882
0.000693858
-0.000200099
0.000511453
-0.0014202
0.00148328
-3.80187e-05
-2.506e-05
-0.00141772
1.4172e-05
-1.66465e-05
0.00075214
-0.000450984
0.00184965
-0.0021508
-6.86227e-05
0.00180464
-0.00173601
-0.00118324
0.000849679
-6.59146e-06
0.000340157
-0.000902748
-0.00109786
0.00200061
-0.000674699
-0.00025329
0.000927988
0.00100462
1.25964e-05
-0.00101721
-0.00159632
-2.57027e-05
0.00131318
0.000308838
-0.000461703
0.000638625
0.000839066
-0.00101599
-0.00176767
0.000484164
0.000821803
0.00172081
-0.00271139
0.000575322
0.000415258
-0.0014493
0.0014627
-3.97636e-05
2.6359e-05
0.00193045
-0.00192979
-1.54175e-05
1.47617e-05
-0.00109049
1.53799e-05
0.000268956
0.000806151
7.65569e-05
-0.00113687
0.00106031
-0.00123415
-0.00175214
0.00118832
0.00179797
0.000148989
0.00161166
-0.000746247
-0.0010144
2.03126e-05
-0.00155705
-2.3301e-05
0.00156004
0.000256089
0.00139849
0.000329897
-0.00198448
0.000203734
0.00139802
-0.0014729
-0.000128851
-7.47684e-05
-0.00109354
0.00137205
-0.000894757
-0.000757658
0.000384937
0.00126748
0.00084157
4.83666e-05
-0.000889937
0.00135859
0.00130358
-0.00157398
-0.0010882
1.71794e-05
-0.00108209
0.00106491
0.000302737
0.000131766
5.96516e-05
-0.000494154
-0.00142044
-2.28021e-05
0.000469947
0.000973299
-0.00104627
-0.000536672
0.00158294
0.000845633
-0.0011103
0.000393668
-0.000129001
-0.00146894
0.000185127
0.00134018
-5.63621e-05
-0.00147995
0.00179844
-0.00141288
0.0010944
-5.93796e-06
-0.000888819
-0.00114273
0.00111069
3.20359e-05
-0.00147876
-0.000770761
0.000146079
0.00210344
-0.000136589
0.00130041
-0.00116382
0.00103752
-0.000815797
-0.000221718
0.000925053
-0.000930991
-0.00111198
-1.75377e-07
0.00111215
0.000508604
0.00138602
-1.33922e-05
-0.00188123
-0.00113549
0.000172972
0.000962516
-0.0012633
-0.00044459
0.00131581
0.000392084
-0.00190956
0.000262459
0.00186421
-0.000217109
0.000944278
-0.000916856
-2.74226e-05
-0.00072626
-0.00101907
0.00390906
-0.00216373
-0.00148232
0.00054302
-0.000373409
0.00131271
-0.000750852
-0.000179471
-0.00117522
0.00210555
-4.24797e-06
2.67997e-06
0.00130692
-0.00130535
0.000708371
-0.00209694
0.00285852
-0.00146996
-0.00121626
0.00121201
0.00155708
0.000401068
-0.00190736
-5.07929e-05
0.00108533
0.000148434
-0.00136325
0.000129485
0.000950327
0.000445356
-0.00159414
0.000198459
0.00090366
0.000181672
-0.000541818
0.00169139
-8.9238e-05
-0.00106033
0.000326684
-0.00148648
0.00190081
-0.000741023
-0.00167246
0.000121747
-4.68909e-07
0.00155119
0.000972694
0.00374334
-0.000593405
-0.00412263
0.000450128
0.000343067
-0.000596689
-0.000196507
0.000310163
0.00112358
-0.000508279
-0.00092546
-0.000905594
0.000884284
-0.000520508
-5.07824e-06
0.00169149
4.97241e-06
0.00133531
-0.00135022
0.000213979
-0.000199068
0.000316157
-0.000105577
0.000806844
-0.00101742
-0.00130103
0.00126667
0.000182793
0.000392569
-0.000768663
-0.000879961
0.00125605
0.000542035
0.00150817
-0.00150678
0.00112912
-0.00147853
0.0001997
0.000149713
0.00111284
2.20432e-07
-0.00111306
0.00242812
-0.00249729
0.00202064
-0.00195146
0.000370266
-0.000955462
-0.00047658
0.00106178
0.000384902
0.000204412
-0.00163408
0.000973979
-0.000580721
0.00124083
-0.00200266
0.000452116
0.00168515
-0.000134607
-0.00156216
-0.000861862
0.0031324
-0.000159313
0.00191851
-0.000633419
-0.00112577
0.000924591
-0.000466555
0.00171247
-0.00217051
0.000184421
-0.000870261
0.000741013
-5.51728e-05
-0.000382722
-0.00125564
0.0014425
0.000195862
0.00108112
-0.000611847
-0.000439663
-2.96058e-05
0.000548066
0.000229708
0.000290566
-0.00106834
-0.00077621
0.000995614
-0.000219405
0.000889419
-0.000828527
0.000123529
3.05048e-05
-0.0013578
0.00132729
0.00104324
-0.00121553
-0.000210423
0.000264637
0.00118147
-0.000265075
-0.00118103
-3.98994e-06
-0.000963855
0.000967845
0.000524884
0.00161282
-0.000883466
-0.00125423
-8.52297e-05
-0.000631232
-0.00042376
0.00114022
-0.000294716
-0.00162194
1.08158e-05
0.00190584
-0.00102994
0.000416977
0.00125932
-0.000646361
7.62035e-05
0.000967033
-0.000857703
0.000933907
0.000926201
0.000247612
9.97478e-05
-0.00127356
-0.000489265
0.00218875
-0.000142406
-8.91112e-05
-0.000621711
0.000566732
0.000144091
-0.000206148
0.00243518
-0.000115496
0.0019759
-0.00102621
-0.000424803
0.00225372
-0.000275453
-0.0012093
0.00180756
-0.000322804
-0.0022807
0.00191509
0.000937861
-0.000572257
5.76905e-05
0.00104787
0.000870331
-0.00100408
-0.00131895
0.00139248
-0.000716488
-0.000988293
0.00190979
-0.000205009
0.000740319
0.000843233
-0.00158355
2.62011e-05
0.000168854
0.00222426
-0.00241932
-0.00117464
0.000992989
0.00144021
-0.00125856
0.00135765
-0.00214586
0.00172481
-0.000936605
0.000449864
-2.28553e-05
-0.000427008
-0.000923952
-0.000517189
0.000171948
0.00126919
-0.000473731
-0.000679157
8.94464e-05
0.00117075
-0.000969036
-0.000291162
0.000984402
-0.00102505
4.06485e-05
0.000109457
-0.00130639
0.00137854
-0.000181599
0.00114614
-0.00282831
0.00139765
0.000284521
0.000655303
-0.000874091
0.000218789
0.000867569
-0.000110798
-0.000859808
0.000103037
-0.000174088
-0.00286961
0.00259048
0.000453219
-0.00113285
0.000194957
0.00132011
-0.000382221
-0.0011863
3.8211e-05
0.00114809
0.00118295
0.000200051
0.000785223
-0.000590194
-4.9023e-05
0.00152864
0.000102748
-0.0016815
0.00140466
-6.401e-05
0.00116673
-0.00110272
-0.000816966
0.000505905
0.00135507
-0.00104401
-0.000185977
0.00155265
-4.38348e-05
-0.00132283
-0.000187221
0.00144229
-0.000975353
-0.000279718
-0.00100246
-2.22532e-05
0.00118139
-0.000156668
0.000832419
-0.0017401
0.000949973
-4.2294e-05
-0.000891561
0.000696976
-0.000716466
0.000911051
0.000863738
3.4137e-05
-0.00010088
0.000132399
-0.00125902
-0.000303374
0.00143
-0.000258143
-0.00138334
0.00061835
0.00102313
0.000493546
-2.11942e-05
0.00113424
0.000275191
-0.00138823
0.000581744
-0.000410097
0.00117228
-0.00134393
-0.0007514
0.000930917
0.00124243
-0.00142195
0.0020344
0.0005107
-0.00205156
1.49255e-07
-0.00121031
0.00121016
7.51678e-06
-0.00122632
0.00127529
-5.64826e-05
2.40002e-05
0.00131073
-0.00117877
-0.000155952
0.000394341
-0.00198937
-6.4957e-05
0.00165999
-0.00110097
0.00132103
-0.00022006
0.000202246
-9.24116e-05
0.00132589
-0.00143573
-0.00102586
0.000227836
-0.000709005
0.00107355
-0.00143077
0.00106622
-0.000327224
-8.10727e-05
0.000408297
0.00324054
-0.00158162
-0.000703457
-0.000955455
0.00130479
0.00334328
-0.00140753
0.002161
-0.00199884
0.000188993
0.00110084
-0.000852254
0.00121912
-0.00038654
1.96758e-05
-0.000253583
4.75784e-05
0.00178923
-0.00125102
0.000470939
0.000960689
-0.000180605
-0.00105227
0.00174108
0.000130784
0.00122123
-0.00139806
0.000708614
-0.000531782
0.000181396
0.00245659
-0.00243574
0.000735105
6.38768e-07
-0.000735744
-3.93149e-07
-0.000956631
0.000957024
0.00170507
0.000137892
-0.000381596
-0.00146137
0.00221028
-0.000712144
-0.000935338
-0.000562795
-0.000139789
-0.00280309
0.000845943
-8.61507e-06
-0.000679285
0.0006879
0.00147048
-0.00134926
-0.00133356
0.00121234
0.00106482
0.000444024
-0.00125276
0.000864079
-0.000532501
-0.00131813
0.000986551
-0.00104282
-9.41601e-06
-0.00080349
0.00185572
-0.00159306
-6.8113e-06
0.00159987
0.000993011
9.37468e-05
-0.00105662
-3.01355e-05
-0.00127232
-2.08227e-05
0.00129314
6.42941e-05
0.00107033
-0.00113463
-0.00078263
0.00173422
-0.000125973
-0.000825621
-0.00187848
0.0022624
0.00142707
-0.001811
0.000901186
0.00076932
-0.000208431
0.00133807
-0.000865014
-0.000264625
-0.000229689
-7.78847e-05
-0.00115526
0.00146284
0.00130451
-0.00114736
0.000912641
-0.00106979
-0.00123774
0.00128823
-5.04844e-05
-0.00151432
0.000253317
0.00130058
-3.95775e-05
-0.00264258
0.000528652
0.00201031
0.000103611
0.000260816
-0.000334793
-0.00130879
0.00138276
0.00190152
0.000181185
-0.00109222
-0.000990485
0.00103416
-0.000786138
-0.00104155
0.000793535
0.00119113
1.1969e-05
-0.0012031
0.000109676
-0.002026
0.00148266
0.000433668
0.000752759
0.000448886
-0.000300459
0.000273712
-0.000881816
0.00128576
-0.000677656
-0.000545329
0.000529507
-0.000121953
0.000137775
-0.00362617
0.00437319
0.0014103
-0.00215732
0.00181968
-1.1851e-05
-0.00181889
1.10589e-05
9.12802e-06
0.00146342
-0.00157281
0.000100262
-0.00219282
0.00192113
-0.000510935
0.000974446
0.00121972
-0.00110396
-0.00109021
-0.000967718
-6.94973e-05
-0.000105247
0.00114246
0.00101053
5.27186e-05
-0.00106324
0.00128827
-7.10603e-05
-0.00121721
-0.00227759
0.00214627
8.44903e-05
4.68273e-05
7.06265e-05
0.00146805
-7.2067e-05
-0.00146661
0.000909408
0.000458531
-0.00297751
0.00160957
-0.000630634
0.000630644
-1.074e-08
0.000924169
2.12979e-06
-0.000926298
-4.69517e-07
-0.000556875
0.000557345
-0.000530788
0.00108033
0.000725877
-0.00127542
3.53767e-06
-0.00114346
0.000897119
0.000242804
-0.00128318
-0.000526047
-0.000468362
3.27616e-06
-0.000888462
-0.000132235
0.00101742
-0.000687378
1.28532e-05
0.000674525
0.000235013
0.000729257
-0.000237598
-0.000726673
0.000502841
-0.000895074
0.000392234
-0.000243038
-0.000833084
-0.000310435
0.00138656
0.000709536
0.000940523
0.000138627
-0.00178869
0.00185642
-0.00067519
-0.000601585
-0.000579649
-6.80594e-05
-0.00153316
0.00178691
-0.000185686
0.000735719
0.000387651
0.000212564
-0.00133593
0.00232031
0.00103341
-0.00217626
-0.00117746
-2.84186e-06
0.000587579
-0.000584738
-0.00137321
4.09662e-05
0.000317713
0.00101453
-0.00134583
-0.000149408
0.00153109
-3.58593e-05
0.000374564
-0.000468922
0.00191404
-0.000476421
0.000629233
-0.000152813
0.000937426
2.69478e-05
-0.000964374
0.000194456
0.000122403
-0.00123674
0.000919884
0.00131845
-0.000129961
-0.00122647
3.79804e-05
-0.00111338
-7.70993e-07
0.000237615
0.000321944
-0.00146069
0.000901126
-0.00135679
9.7844e-05
0.00125895
-5.32575e-05
-0.000949206
-0.000123763
0.00208952
0.000147239
-0.00211299
0.0011165
-0.00118253
6.60336e-05
-0.00119417
0.00118139
1.27836e-05
0.000959587
-0.00108335
0.000262527
0.000876326
0.00108911
-0.00222796
-0.00117266
-0.000640116
0.00181278
-9.09538e-06
0.000836236
-0.00082714
-1.94798e-05
-0.00090968
0.00092916
0.00111463
-0.00110767
-6.95308e-06
-0.00123528
4.7397e-05
0.00124196
-5.40713e-05
0.000302177
-0.00139087
0.00106235
0.000693738
0.000583309
-0.00233836
0.00106131
0.000721232
4.94448e-06
-0.000726176
4.73508e-05
0.00136519
-0.00141254
0.000672029
2.43128e-06
-0.00153973
0.00137064
0.00129902
-0.00112993
-0.000969658
0.000123014
0.00124333
-0.000396687
0.00169637
-0.00244421
0.000590924
0.000156913
-0.00218919
0.000487238
-0.00104599
0.00115616
-0.000110171
2.54414e-05
-0.00115981
0.00113437
-0.00100322
-1.98204e-05
0.00102304
-0.00117457
6.33595e-06
0.00116823
0.00112361
-0.00123202
0.000108413
1.41225e-05
0.00173495
-0.00174907
-0.000256869
-0.000234246
0.00124387
0.00123787
-0.00129285
-0.000884002
0.000938978
-0.000698738
0.000127449
0.0013565
-0.000785214
0.000667021
-0.00156855
-0.00010169
-7.28995e-05
0.00153345
-0.00146055
0.000454905
0.000424172
-0.000580051
-0.000299025
-0.000706416
0.00115822
-0.00139179
0.000939987
-0.00112447
-0.000426986
0.00155145
0.00227599
-0.00140306
-0.000872925
-0.000432103
0.00163506
0.00107133
-0.00227429
-0.00118643
0.00143894
-0.00143577
0.00118326
0.00050886
-0.000382331
-0.000584567
0.000458038
2.12531e-05
-1.36387e-05
-0.00127993
0.00127231
-0.000121291
-0.00180029
0.00192158
0.000404996
5.33014e-05
-0.00152678
0.00106848
-0.00150305
0.0011664
0.000336651
-0.000702811
-0.000351915
0.00101383
4.08971e-05
-0.000991018
0.000985972
5.04524e-06
0.000963443
-0.000814837
0.00120905
-1.03653e-05
-0.00157777
0.00158068
7.45276e-06
0.0030472
-0.000787977
-0.00152941
-0.000729815
-0.000471352
0.00166309
8.00391e-06
-0.00119974
-0.000550148
0.000819066
0.000457389
-0.000726307
-0.00132476
0.000778043
0.00137623
-0.000829507
0.000727344
-0.000868488
-0.000339352
0.00150739
3.97656e-05
-0.0012078
0.00090633
-0.000999661
0.00010359
-0.00213751
2.41014e-05
-2.11487e-05
0.00213455
-0.000297333
-8.37816e-05
-0.000799617
0.00118073
-0.00108436
0.00139479
-0.00110852
0.000798084
-0.00247901
-0.000334649
0.00260752
-0.00160743
2.26679e-05
0.0016091
-2.43411e-05
0.00100649
0.000162807
-0.000678797
-0.0004905
-0.000317233
-0.00123368
0.00065537
0.000895547
0.00106775
-0.000418652
-0.00140734
0.000758246
-0.00138744
-0.000357711
-3.08842e-05
0.00177603
0.00111012
-0.000136213
-0.00101856
4.46575e-05
0.000940138
-0.000944009
3.87036e-06
-0.000745548
0.0024268
-0.00201604
0.000334785
0.000156312
0.00143146
-0.00230352
0.000715748
-0.000945328
-0.000307787
0.000993431
0.000259685
0.0003301
-0.000316876
-0.000958552
0.000822375
3.31634e-05
0.00016105
-0.00101659
-8.81008e-05
0.000615851
-0.00266526
-0.00138855
2.84953e-05
0.00178201
-0.000421955
-0.000995173
0.00116128
-0.000166103
0.00048979
-0.00045934
-0.00064909
0.000618641
-0.00070063
-0.00128678
0.000808957
0.00117846
-0.00057719
0.00179593
-0.00066147
-0.000557271
-0.00148025
1.02855e-05
-0.00129569
0.0016155
-3.91716e-05
3.45613e-05
-0.00128147
0.00128608
0.00123733
0.00132708
-0.00141035
-0.00115406
0.000982104
-0.001013
3.08965e-05
0.00125367
-7.85683e-06
-0.00124582
0.00106974
-0.00124167
0.00035132
-0.000179386
-0.000312049
-0.000915178
0.00222066
-0.00164465
0.00141174
-0.000212796
0.000445708
0.000547156
-0.000744643
0.00176761
-0.00157012
-0.0015761
-0.00114992
0.00187379
0.000852224
-8.45312e-05
-0.00173661
0.000176483
0.000274846
-0.00144882
-1.18728e-05
0.00118585
0.001335
0.000351587
0.0018088
-0.00158399
-0.000594427
0.000369616
-0.00133912
0.00132918
0.00108383
-0.00107388
0.00101485
0.000503216
-0.00115208
-0.00036599
0.000508231
-0.00111705
0.000928129
-0.000319308
0.00139175
-0.00114096
-0.00181293
0.00156214
0.00145934
-0.00162442
8.05471e-05
-0.000901077
0.000905031
-3.95426e-06
0.000112624
-0.000102105
0.0015107
-0.00180489
0.00170266
-0.00140847
0.00111973
-0.00100711
0.00113739
-0.00122989
-3.76024e-05
0.000130107
-2.44466e-05
-0.000519487
0.000543934
-0.00012357
-0.00103693
0.00124388
-8.33738e-05
0.00191014
-0.00171909
0.000135739
-0.000326794
0.000204322
-0.00226691
0.000184108
0.00169606
-0.001736
-0.000187503
0.000227443
0.000371551
0.000279054
0.000461246
-0.00111185
-0.000101
0.000948675
0.000923885
-0.00177156
-8.04582e-05
-0.00117144
-0.000325274
0.00157718
-0.000570283
0.00170888
-0.000464652
-0.000673943
-0.00106837
0.000453103
0.001685
0.00104576
-0.00211859
0.000232248
0.000840587
-0.000305331
7.13931e-05
0.00192999
0.000313032
0.00142701
-0.000488563
-0.00125148
-5.18401e-05
5.40343e-05
-0.00123883
0.00123664
0.00185861
0.00010445
-1.30836e-05
-0.00194998
0.00103639
0.000454097
-0.000412049
-0.00107844
-0.00112277
-0.000479897
0.000534302
9.19293e-05
0.000648199
-0.000657838
-8.22898e-05
0.000189483
1.63823e-05
-0.00144754
0.00100858
-0.000527318
-0.00013694
-0.000344326
0.000148167
0.000701588
-9.81245e-05
-0.000751631
-0.00112205
0.000962885
0.00120493
0.000743295
-0.00323126
0.000629976
0.00185799
0.000176829
-2.97976e-05
3.30019e-05
0.00127207
-0.00127528
0.00220461
-0.00070803
-0.000732174
-0.00076441
-0.00107607
1.36546e-05
0.00147792
-0.000415505
-0.000136292
-0.00103831
0.00125229
-7.76897e-05
0.00104301
-0.00142212
-0.000694698
0.0010738
-0.000986744
0.000958575
2.81698e-05
-2.94984e-05
0.000952357
-0.000922859
-0.000466106
-0.00109046
-0.000402433
0.001959
-0.000810253
0.000907531
-9.72781e-05
-0.000152964
-0.00132768
-0.0003346
0.00181524
-0.00234319
0.000863862
-0.00127881
0.00275814
-0.00160393
3.7136e-05
0.00156679
0.000757879
0.000839144
-0.000810992
-0.000786032
0.000976152
-0.00055923
-0.000184669
-0.000232253
0.00130381
2.84093e-05
-0.00133222
0.00124573
-0.00372524
0.000136325
0.000845562
-3.13744e-05
-0.000814187
-0.0014444
-0.000572977
0.00194079
7.65839e-05
-0.000876748
0.00452861
-0.00277261
-0.000879253
-0.00263803
0.00317643
-0.000465202
-7.31959e-05
0.0015764
-0.000908484
0.00219061
-0.000771844
-0.00168097
0.0024829
-3.00879e-05
-4.83597e-06
-0.000121822
-0.000680347
0.000807004
0.00148773
0.00190619
-0.00216827
-0.00122565
-0.00152917
0.00180795
0.000495907
-0.000774681
0.00169577
-0.000310944
-0.000663189
-0.000721632
0.000144723
-0.00108553
-0.000188193
0.001129
-0.00322224
9.97148e-05
0.00164922
0.00147331
-0.000591312
0.00225046
-0.000872471
-0.000786674
0.000382067
-0.000937488
0.00178658
-0.00123116
-0.00019315
-0.000553035
0.00104585
-0.000299661
-0.000918779
0.000977632
-6.24454e-05
3.59207e-06
0.0016006
-0.00180675
-8.66874e-05
0.000292831
-4.87285e-05
-0.0015958
0.0016084
3.61312e-05
0.000130413
-0.000116284
-0.00152643
0.0015123
0.00220871
-0.000362557
9.40508e-05
-0.00194021
-0.00145324
-0.000305387
0.000372922
0.0013857
0.000491613
-0.000491626
1.28687e-08
0.00108931
-0.000741139
0.000726795
0.000226303
0.00208684
-0.000124789
-0.00218836
-0.000333394
0.000222778
0.000278915
-0.0001683
-0.00162888
-0.00202539
0.00292801
-0.00115806
0.00132611
0.00126298
-0.00143103
-6.4891e-05
0.00129202
-0.00162999
0.00040286
-0.00123958
-0.00129808
-8.23581e-05
-0.000334377
0.00171482
-7.02277e-06
-0.000660541
0.000667563
-7.60252e-06
-0.00095222
0.00221978
-0.00125996
0.000650565
0.00091613
0.00163395
-0.000818314
7.6589e-05
-0.00089222
0.000717864
-0.000199439
-0.00119857
0.000680141
0.000901561
4.28868e-05
-0.00137382
0.000429372
-0.000648994
0.000537521
0.00203442
-0.00192295
0.00174315
0.00124576
0.000163147
-0.00315205
-0.00155845
-9.83758e-05
0.000315742
0.00134108
-0.00130656
0.00139166
-8.51058e-05
-9.11245e-05
0.000865389
-0.000129783
-0.000644482
-0.00026796
0.00055118
-0.00028322
0.00109024
0.00154935
-0.000695643
-0.00194395
0.000933233
-0.000934224
9.90836e-07
-0.00264366
0.000617065
0.00147718
0.000549424
0.000107171
-4.7227e-05
0.00128425
-0.0013442
0.000822283
3.402e-06
-0.000825685
0.0016888
-0.00187529
-0.00120429
0.00139077
-0.0014867
-0.00287189
0.00171493
-0.000290437
0.000187575
0.00119571
-0.00109285
-0.00051231
0.00155843
-0.000164334
-0.000881785
0.000320292
-0.000846604
0.00124418
0.000973909
4.672e-05
-0.00102063
0.00289242
-0.000699385
0.000171914
-0.00236495
0.00109293
0.000312785
0.000699757
-0.00167179
0.000803469
0.000168562
-0.00175987
4.97594e-05
0.00131956
0.000390548
-0.000328107
-0.000724048
0.000767061
0.000285095
0.00103128
-0.00132824
0.000296956
-0.000365139
-0.000709916
0.00107506
0.000910562
-0.000589654
-0.00103369
0.000712778
-0.000390017
-0.000217005
0.00156008
-0.000953057
-0.000766327
-0.00122495
0.000947752
0.00104353
-0.00150508
0.00137441
-2.52333e-05
0.000155904
-8.74259e-06
-0.000928746
-0.000225009
-0.000820704
0.00103525
1.04669e-05
0.00157
-0.00147643
0.000428707
-0.000522275
0.00238295
-0.00237117
0.00108115
-0.000415446
0.000456052
-4.06061e-05
-0.000870993
0.000859692
1.13011e-05
-7.87603e-05
0.00109052
0.000372573
-0.00138434
-0.000691353
-0.00108927
-0.000429761
0.00221038
-0.000645515
-0.000496051
0.00224165
-0.00110009
0.00110993
0.000297639
-0.00148633
-0.000214392
0.00165446
-0.000752226
-0.000687844
0.000235175
-0.00109262
-0.000478885
0.00133633
-0.000304482
0.000187173
-0.00152329
0.0016406
0.0015176
-0.00109902
-0.000839951
-0.000626572
-0.000186847
0.00165337
0.000452929
-0.000229149
-0.000226994
3.21328e-06
-0.00177954
0.00207601
-0.000211463
-8.50076e-05
0.000581182
0.000641816
-0.000610878
-0.00061212
-0.000244577
0.0012686
2.66701e-05
-0.00105069
0.00141763
6.04546e-05
-0.00126685
-0.000211233
-0.000174807
-0.00174072
-0.000431471
0.002347
-0.000150269
0.00125955
-0.00110929
0.00152479
0.00129506
-0.00173594
-0.00108391
0.00101108
7.6156e-07
-0.00101184
0.000111317
-0.00133188
-0.000333243
0.00155381
0.00238337
-0.000340063
-0.00112024
-0.000923068
3.39347e-05
0.00239627
-4.68343e-05
0.00117146
-0.00111948
-5.19769e-05
-0.000421787
-0.00082155
0.00124334
0.00217768
-0.000581125
-0.00136861
-0.00101852
-0.000995942
0.0016744
9.48158e-05
0.000402997
-0.00157214
0.00107433
5.65044e-05
-0.00135669
0.000848711
0.000451473
-6.62911e-06
0.0011825
6.8576e-06
-0.00118273
-0.000230298
-3.16442e-05
-0.00111785
-0.000294173
0.00141202
-1.89154e-05
-0.0009702
0.000989115
0.00207597
0.000157801
-0.00013319
-0.00210058
0.000869577
-0.00161068
0.0003882
0.000352898
0.000548513
1.34033e-06
-0.000549853
-0.00158318
0.000258324
-6.3938e-05
0.00138879
0.000566899
4.19096e-05
0.00123644
-0.00184525
-0.000582827
0.000629063
-0.00174774
0.00170151
0.000174483
-0.000229335
-0.00163484
0.00168969
0.00116262
-0.00108606
-0.00249661
0.000284743
0.000736537
-0.000751335
-0.000762018
0.000776816
-0.000672315
0.000675193
-2.87841e-06
-0.00159849
-0.000564542
0.00239531
-0.00034317
-0.0014876
-0.000931588
-0.000283283
0.00126393
-4.90542e-05
0.000268458
0.00151826
-0.000581402
-0.00120532
-0.0030091
-0.0025283
0.000197018
0.00242331
-9.20274e-05
0.000179987
0.000129688
-0.00104284
0.000733167
0.00166676
-0.00153988
-0.00171994
0.0012151
0.000348059
-0.00156316
0.00173149
-0.000320215
-0.00123892
-0.000172356
-0.00103542
-5.73682e-05
-0.000699101
0.00179189
0.00170075
-0.0014386
-0.000506302
0.00024415
7.47542e-05
0.000527567
-0.00162512
0.0010228
5.37143e-06
0.000884855
0.000135806
-0.00102603
-0.000824972
0.00105042
0.000296721
-0.00052217
1.23276e-05
0.00145332
-1.14869e-05
-0.00145416
-0.00109798
0.0011103
-0.00102338
-2.2873e-06
0.00102567
-0.00167023
-0.000154179
0.000417768
0.00140664
0.00117466
-0.00114862
0.000687407
-0.000713444
0.000289875
0.00102037
-0.00110173
-0.000208512
-0.00141382
0.00206932
-0.000238206
-0.000417298
0.000823449
-0.000786854
-3.65954e-05
1.60577e-05
0.000652593
0.0017143
-0.00138146
0.00117765
0.000507084
-0.000303279
-0.000340574
0.00075888
-0.000418306
-3.5448e-05
0.00118655
-0.00115111
-0.00185959
0.000705287
0.000361785
0.000792515
-0.00334001
0.00243424
0.00092183
0.00247912
-0.000296433
-0.000424101
-0.00175859
0.000991684
0.00012164
0.000634621
-2.94361e-05
-0.000665033
5.98476e-05
0.000686739
-0.000538572
2.68032e-05
-0.00159544
0.00156864
-0.00275503
0.00196988
-0.000875206
0.00211123
-0.00142883
0.00019281
0.00144122
-0.00194935
0.000602942
0.0011079
-0.00202366
0.000390128
0.000525631
-0.00102912
0.00123611
-0.000206995
0.0021474
0.000449585
-5.29076e-06
-0.0025917
-0.00103163
0.00104045
-8.8201e-06
0.00280676
-0.0025156
0.000324692
0.00166339
-5.42765e-05
-0.00160911
0.00119367
-0.00121683
2.31607e-05
-0.00119337
0.000134075
0.00105929
-0.000459957
-0.0011292
0.000395795