/*--------------------------------*- C++ -*----------------------------------*\
  =========                 |
  \\      /  F ield         | OpenFOAM: The Open Source CFD Toolbox
   \\    /   O peration     | Website:  https://openfoam.org
    \\  /    A nd           | Version:  10
     \\/     M anipulation  |
\*---------------------------------------------------------------------------*/
FoamFile
{
    format      ascii;
    class       volScalarField;
    location    "49";
    object      T;
}
// * * * * * * * * * * * * * * * * * * * * * * * * * * * * * * * * * * * * * //

dimensions      [0 0 0 1 0 0 0];

internalField   nonuniform List<scalar> 
59698
(
286.628
283.15
283.152
283.15
299.928
283.15
292.526
283.15
303.15
303.15
303.15
283.158
283.15
287.014
300.11
303.15
294.065
283.154
283.154
293.801
303.282
302.122
303.148
303.15
295.674
283.153
287.695
298.343
295.69
295.351
300.292
303.15
303.15
298.835
302.36
283.154
283.383
283.468
283.15
297.581
296.234
283.15
296.574
293.849
283.15
296.603
283.154
295.262
294.645
283.175
293.059
283.153
283.934
294.536
294.377
283.154
294.284
302.177
294.243
282.977
291.249
294.303
299.616
283.153
286.781
294.462
303.15
283.155
283.156
303.15
283.15
293.783
283.136
298.567
283.15
297.779
294.536
287.693
291.644
294.14
299.954
292.582
303.15
283.157
303.704
294.503
294.18
283.15
298.889
293.305
303.15
294.737
298.993
283.788
284.003
284.199
299.067
283.15
298.916
283.15
299.118
283.128
285.893
284.495
283.15
283.15
283.154
283.15
303.15
283.15
283.15
283.15
298.871
283.15
283.15
283.15
283.15
283.15
283.15
303.15
283.15
292.838
283.15
283.15
283.15
283.15
295.474
303.15
283.15
283.15
287.532
283.15
303.15
292.771
290.245
291.653
283.15
303.15
283.154
293.464
283.158
284.058
290.851
292.131
283.15
293.581
283.15
283.15
283.15
301.181
283.138
303.15
288.079
283.15
294.056
293.366
283.153
283.15
296.947
283.15
289.667
283.15
290.781
299.548
297.795
296.672
283.154
280.919
299.359
292.197
300.377
283.151
300.942
301.004
285.535
292.807
303.15
283.238
303.15
298.917
302.761
300.404
298.621
283.15
298.733
300.854
300.76
293.638
283.15
294.717
294.357
286.304
296.607
297.473
299.382
283.15
293.945
296.56
303.155
299.378
283.15
284.147
292.418
289.655
299.287
290.949
297.318
295.415
293.577
298.019
286.49
293.708
299.138
303.15
294.872
283.15
283.15
294.061
297.837
296.009
282.051
296.316
283.15
299.274
295.289
299.327
295.839
291.35
295.615
285.008
283.15
296.169
295.178
295.842
283.15
294.821
295.973
291.709
283.15
295.001
283.15
293.99
289.931
303.15
294.644
283.15
282.928
285.626
293.632
283.154
293.827
294.935
295.142
303.15
283.154
294.743
294.11
295.301
283.151
283.15
303.12
283.15
294.461
294.314
294.819
295.319
283.15
303.15
283.157
283.15
283.153
286.652
303.101
283.15
287.34
293.709
283.15
293.633
293.992
303.15
303.15
283.15
283.155
289.106
295.115
290.685
292.954
303.15
286.049
294.606
301.421
291.281
283.156
283.153
294.886
283.15
292.71
293.625
295.098
283.15
291.44
283.15
283.15
289.377
283.156
283.157
287.812
293.656
294.626
283.157
283.15
283.15
283.15
283.15
287.864
292.669
283.15
293.725
283.15
293.588
293.872
293.4
293.999
303.15
298.349
286.251
294.106
293.712
292.427
283.15
300.18
290.666
298.882
281.565
303.15
293.798
286.473
292.551
298.462
293.836
295.121
295.54
283.15
294.979
298.953
283.15
295.6
301.435
285.958
289.168
292.832
283.15
301.349
303.15
284.231
300.745
302.078
283.15
283.205
303.15
283.15
293.512
303.15
295.003
283.15
283.15
283.152
290.472
283.151
282.757
292.684
283.15
283.15
283.15
296.43
303.15
283.151
283.15
283.15
303.15
283.15
283.15
283.151
293.517
283.151
283.148
292.435
283.15
283.15
283.152
293.467
303.15
294.606
290.764
303.133
301.992
301.766
283.15
283.15
283.15
288.51
295.721
283.15
283.15
283.15
283.15
295.92
293.246
295.684
302.249
297.867
303.15
295.281
303.15
283.15
289.841
283.15
283.574
302.294
302.829
294.384
283.15
290.793
282.006
283.15
283.15
303.15
294.393
283.15
283.15
295.497
302.787
285.303
291.843
287.581
303.15
303.15
298.647
283.15
291.944
283.15
291.335
303.15
283.158
283.15
302.913
294.866
283.15
283.154
299.211
283.15
283.155
294.104
286.326
294.008
283.156
290.628
303.15
284.301
283.15
290.049
283.15
283.96
293.927
303.15
293.569
293.407
291.887
294.112
294.987
295.111
283.15
283.15
283.15
294.05
293.142
302.757
292.107
293.712
294.019
283.15
293.598
283.353
283.15
300.932
283.382
283.362
283.339
291.943
292.868
299.033
290.48
291.368
283.409
292.113
283.378
283.15
283.374
289.574
283.15
283.15
295.188
299.058
294.683
283.15
303.15
283.15
303.15
283.15
290.27
294.709
290.685
283.154
283.15
291.628
283.15
283.15
283.15
283.15
283.15
289.545
293.963
283.15
283.15
283.15
302.995
294.941
283.152
289.839
288.75
283.15
301.505
303.15
283.225
283.15
283.15
283.15
286.366
283.228
303.15
290.004
283.202
283.15
281.264
289.38
291.835
282.226
283.132
290.845
283.147
283.15
303.15
283.15
303.15
283.15
283.15
283.15
295.583
291.516
291.83
283.15
303.15
283.15
283.123
283.15
303.15
286.389
283.15
291.207
303.15
292.071
283.155
283.15
291.899
290.957
293.524
283.15
292.285
295.529
303.15
283.15
283.15
285.277
283.153
292.361
283.15
292.431
283.153
289.744
291.641
291.954
296.415
283.154
283.153
283.15
283.15
303.15
282.782
283.15
283.15
290.927
290.972
283.15
283.15
291.043
291.621
283.153
283.15
291.075
283.15
283.15
292.537
283.15
292.111
291.111
291.144
283.15
297.845
285.641
283.15
283.15
291.152
291.921
302.963
295.263
293.692
290.912
292.229
292.022
292.08
295.601
283.15
283.155
291.363
283.155
292.144
292.078
283.15
283.15
286.928
293.318
285.579
283.15
303.15
292.041
294.048
283.15
293.444
283.157
283.15
283.15
283.156
288.555
291.778
292
283.153
283.15
303.147
293.593
292.389
293.419
293.39
291
283.793
301.827
291.631
285.03
285.008
291.803
288.934
283.15
289.632
283.153
289.314
283.153
291.682
283.15
295.312
293.235
283.154
292.43
289.287
283.15
283.15
291.898
283.15
291.902
283.155
291.993
295.742
290.798
297.169
293.962
291.73
290.813
290.026
290.123
292.589
283.15
283.156
283.15
283.15
292.548
291.773
283.158
303.15
296.533
283.15
292.083
283.15
293.664
283.15
293.739
283.15
283.15
297.641
289.346
283.15
303.15
283.15
297.856
297.947
283.15
292.059
295.612
297.229
295.534
283.15
296.234
283.15
282.859
283.15
290.544
300.335
283.15
291.082
292.198
303.15
297.637
287.949
283.151
289.86
283.27
297.044
294.591
294.531
283.597
283.452
290.531
286.009
283.15
296.885
293.737
298.101
283.15
290.911
290.237
295.065
303.15
283.15
296.907
283.15
298.218
295.936
286.353
293.839
296.739
283.15
283.15
294.934
294.573
283.15
283.15
285.509
283.15
289.447
283.15
284.823
294.536
294.553
297.404
283.15
293.7
290.471
294.88
295.291
295.321
283.15
284.364
298.82
283.15
288.636
297.674
301.098
293.491
302.769
283.15
283.15
283.15
283.522
283.414
283.15
283.159
283.15
298.045
283.164
292.526
291.714
283.15
282.345
283.15
283.15
283.157
283.15
303.102
298.503
303.15
283.155
284.568
288.614
283.154
282.175
283.15
283.229
283.15
283.15
291.276
294.719
296.698
283.15
295.799
283.15
283.15
283.15
283.15
283.15
283.162
283.15
283.133
283.174
303.15
283.15
283.15
283.15
283.15
291.184
283.15
291.043
283.15
294.639
283.15
283.15
285.42
283.15
283.15
283.15
299.437
295.185
291.976
283.153
283.15
295.909
303.15
295.893
283.15
283.15
292.6
283.149
283.153
283.15
292.045
283.15
284.109
283.15
290.382
283.15
283.158
291.776
294.916
292.69
291.905
283.15
292.103
283.15
283.15
283.15
283.154
283.15
283.234
283.15
294.321
296.327
296.011
283.15
294.114
295.076
283.15
296.744
303.15
283.15
295.888
292.363
283.15
283.15
293.417
283.15
295.884
283.15
283.15
293.588
283.15
283.15
283.15
283.15
303.15
283.15
283.15
283.15
295.914
297.652
293.995
296.724
290.217
294.983
295.624
283.153
291.432
290.744
286.594
292.083
283.15
289.765
283.15
296.55
295.76
291.922
290.3
283.15
283.15
297.548
291.28
290.058
296.151
296.763
283.15
295.389
285.342
293.99
283.154
283.15
283.15
293.005
283.296
293.24
283.15
283.156
283.15
303.15
283.153
283.283
294.477
303.15
283.228
296.668
294.214
293.516
293.857
294.464
295.691
292.89
303.15
303.15
283.15
295.559
283.15
293.567
291.45
302.711
298.558
283.619
295.02
302.157
297.86
294.946
295.859
293.73
283.15
295.697
293.88
290.654
287.741
294.088
283.15
283.15
303.15
283.168
294.723
300.383
294.708
303.15
303.15
283.312
293.391
294.908
292.726
283.15
292.589
283.15
293.74
283.15
298.36
283.15
294.562
295.255
302.801
289.849
293.702
302.796
283.15
283.15
302.805
283.15
294.545
295.195
296.444
295.365
295.982
295.225
283.15
292.697
303.15
295.486
296.533
293.256
283.15
293.204
297.702
283.152
293.625
283.15
295.326
283.153
287.747
294.506
290.886
283.152
303.15
293.567
288.101
283.15
303.15
294.035
294.208
295.978
294.321
289.321
303.15
303.15
293.091
283.15
295.016
294.439
294.31
294.422
293.948
303.15
303.15
284.103
294.309
295.12
303.15
294.086
296.12
303.15
282.444
292.91
283.572
291.987
294.354
283.155
283.15
294.105
303.15
293.779
291.732
283.15
283.155
283.15
283.15
294.39
301.06
303.15
297.283
302.919
284.744
301.671
287.089
291.085
295.274
297.732
297.186
289.455
289.161
283.154
283.15
288.099
286.727
303.15
283.154
300.97
283.155
294.507
294.323
294.939
283.15
302.393
289.607
294.812
294.647
292.51
283.15
303.15
283.155
286.772
283.15
292.929
292.964
294.664
283.156
304.962
283.156
295.045
283.15
295.302
283.158
287.084
294.943
303.15
283.15
283.15
283.15
290.196
283.15
300.813
301.114
283.15
295.895
299.131
302.606
293.685
283.154
283.15
302.578
287.726
300.258
291.915
292.125
295.941
295.796
295.402
293.309
295.26
303.15
286.06
298.853
295.797
283.387
283.421
297.244
283.34
299.008
293.77
283.15
293.665
293.567
303.15
293.364
303.15
292.584
283.153
294.035
292.086
283.152
285.386
283.152
303.15
294.484
291.95
288.949
292.443
293.374
303.15
303.15
293.553
293.425
283.15
303.15
283.153
286.504
294.14
283.15
303.15
292.82
283.15
283.15
283.15
285.256
283.15
283.15
284.972
303.15
283.15
283.15
303.143
303.15
297.274
290.574
283.154
297.372
296.692
292.336
303.15
283.15
283.15
296.917
282.326
296.645
283.15
303.15
283.15
303.15
296.769
284.584
283.15
291.177
297.596
293.491
302.76
297.488
295.751
297.453
291.404
297.62
283.15
283.15
297.487
297.421
294.319
303.15
283.15
291.917
293.736
293.662
294.081
294.362
294.159
283.153
291.255
283.15
300.612
285.586
297.03
303.023
283.153
303.15
294.742
283.15
299.954
303.15
303.15
293.479
283.15
300.653
283.158
283.15
303.15
292.055
283.156
303.15
293.493
291.789
283.156
293.147
302.959
303.15
297.507
293.754
283.15
289.055
292.017
283.15
283.096
303.15
283.15
303.15
283.15
303.15
283.15
297.886
297.78
296.977
297.557
294.285
283.15
286.798
283.319
283.15
292.032
298.052
294.821
296.655
283.15
301.146
283.15
303.15
283.15
297.023
296.295
303.15
303.15
283.15
288.936
287.358
294.297
289.22
289.616
303.15
303.15
283.15
292.111
287.788
303.15
299.762
303.15
287.571
303.15
303.15
303.15
291.703
290.775
299.277
303.15
292.594
292.933
303.15
291.925
287.301
282.678
293.723
283.733
295.848
291.689
292.134
283.31
293.658
292.229
303.15
303.15
285.185
288.643
292.719
283.574
283.276
283.15
289.879
283.957
283.15
295.279
291.709
294.636
287.713
285.221
293.959
303.15
292.224
284.066
290.957
293.985
300.941
291.983
292.385
283.159
283.154
298.112
292.207
283.15
283.15
283.904
286.788
283.766
286.25
284.853
292.868
284.218
303.15
294.064
290.561
288.494
292.632
303.113
303.15
283.15
284.405
294.764
300.636
284.975
285.117
298.439
294.549
284.949
282.309
294.006
303.15
287.37
283.15
283.128
285.157
303.15
297.631
283.151
283.15
303.15
284.931
300.027
303.15
283.15
289.245
295.15
296.514
297.851
283.516
303.15
285.254
291.856
283.15
283.15
293.949
283.15
303.125
283.15
303.15
294.352
283.15
292.604
283.15
283.15
283.15
300.137
298.993
285.918
283.138
299.312
283.15
299.45
303.15
283.15
283.15
296.277
285.773
292.93
283.207
288.103
293.756
293.483
283.15
283.15
283.15
296.747
303.15
293.676
283.15
303.15
288.562
283.15
283.15
288.2
303.15
296.12
283.15
303.15
296.847
302.678
290.213
292.505
286.922
288.123
303.15
283.15
303.15
283.15
283.15
294.162
283.15
283.14
291.898
283.209
303.15
288.296
288.775
287.963
294.289
288.254
294.9
289.063
286.223
303.15
287.441
291.786
292.992
303.15
300.568
292.905
289.595
303.228
303.15
299.158
283.15
290.46
303.15
283.15
290.51
283.15
297.732
297.158
290.165
295.062
303.15
303.15
290.267
290.293
283.944
295.158
283.153
283.579
303.15
283.805
290.223
303.15
283.15
283.005
283.15
290.349
299.837
303.15
290.321
303.15
303.15
283.685
288.937
283.15
283.149
303.15
293.253
292.424
303.15
303.15
291.365
283.127
290.959
303.15
283.139
293.026
290.99
290.991
300.696
283.15
290.993
303.15
294.74
294.252
303.15
303.15
303.15
292.524
283.15
291.124
291.864
303.15
283.14
291.299
303.15
303.15
303.15
292.417
283.15
293.579
283.15
293.786
291.629
283.15
296.135
303.15
283.15
291.548
291.429
291.41
294.098
283.15
293.286
291.776
291.821
293.653
283.14
283.15
303.15
283.15
283.15
283.15
283.15
303.15
293.448
294.227
303.15
285.312
293.508
293.2
283.15
292.946
283.18
297.188
283.15
296.722
295.931
292.522
293.397
283.15
292.183
292.277
293.371
292.17
298.966
293.489
287.269
283.15
304.96
284.044
290.322
300.342
283.134
290.733
291.721
303.15
294.4
296.515
295.247
291.154
301.438
296.253
290.883
298.927
293.1
302.822
297.683
300.378
290.964
285.252
294.228
289.337
294.341
295.909
297.467
290.771
296.663
283.15
283.15
294.75
287.132
283.143
299.546
283.15
288.099
286.21
283.15
297.868
293.714
283.15
293.488
292.491
283.15
295.049
283.15
293.104
298.43
283.21
300.327
292.884
294.442
283.241
293.622
298.438
291.679
283.957
284.616
293.491
283.599
293.362
283.15
303.15
292.49
297.136
298.05
301.576
283.455
292.502
283.15
283.151
283.455
283.411
303.151
291.676
283.15
283.167
283.139
283.153
283.155
283.15
301.985
293.686
283.15
303.187
293.704
283.15
283.15
299.006
283.15
302.101
302.825
294.636
283.15
283.15
292.054
283.15
283.15
293.537
283.15
283.15
283.15
295.16
302.942
293.043
288.177
283.15
298.902
293.009
283.158
283.15
292.334
284.985
283.15
295.254
283.15
302.926
293.266
283.15
291.265
298.241
302.943
283.15
292.701
292.741
298.515
294.064
294.318
288.182
289.741
283.15
294.456
289.074
294.121
283.15
289.324
302.812
283.15
293.351
289.445
293.305
283.15
294.013
299.703
283.15
294.599
292.221
283.15
283.15
293.129
283.15
295.055
287.19
298.579
299.516
289.316
283.15
283.15
294.789
295.985
288.628
283.15
283.15
298.707
285.528
283.15
283.15
283.15
283.15
283.15
296.206
287.999
296.569
283.15
292.864
283.15
299.567
303.15
293.418
283.15
292.91
296.964
283.15
299.686
283.15
283.15
283.15
283.15
299.647
293.536
283.15
301.3
292.08
283.15
293.161
294.342
292.006
289.343
293.415
303.15
294.295
301.44
283.15
283.15
283.15
283.15
283.15
301.37
287.257
290.35
292.988
283.15
283.23
295.983
283.15
283.15
298.92
291.968
290.405
290.572
283.15
303.15
298.54
293.425
294.381
295.703
295.028
301.376
293.333
301.183
295.294
293.009
292.087
303.15
289.448
300.079
295.463
295.698
291.919
302.833
286.648
295.639
293.874
292.398
296.233
295.417
283.15
291.137
292.625
295.761
294.102
283.15
293.196
283.15
296.435
296.083
295.195
296.197
294.306
295.765
294.785
283.15
291.996
295.617
295.821
296.787
300.261
297.334
297.454
297.953
301.217
283.15
303.146
283.147
290.48
283.15
283.212
301.787
303.555
295.264
303.009
303.129
291.144
283.15
292.111
283.15
290.837
283.15
300.594
283.15
291.102
303.15
283.15
293.489
283.15
301.075
295.243
283.15
302.013
294.053
289.237
302.28
286.675
295.423
291.738
292.613
294.609
300.546
302.96
293.23
289.824
289.037
294.07
295.288
294.645
295.881
283.15
283.15
283.157
294.209
294.249
295.792
291.133
283.15
283.15
293.768
289.122
283.15
290.948
294.073
292.898
292.18
283.15
293.404
294.698
283.15
283.15
293.55
286.559
302.176
291.949
299.93
296.657
294.699
283.15
295.966
303.15
283.15
283.15
283.15
295.296
296.77
295.478
294.326
298.698
288.437
283.15
283.143
283.15
291.359
291.603
283.15
283.15
292.674
283.15
296.161
297.888
300.893
295.606
294.841
283.15
283.15
293.595
295.386
293.746
295.513
294.7
289.673
293.414
295.689
300.952
296.707
283.15
303.15
292.573
295.694
293.366
294.7
283.15
289.73
284.59
283.22
290.623
283.15
289.641
289.437
292.93
284.303
295.196
283.15
295.384
290.854
292.429
293.616
283.15
289.575
292.27
293.736
289.135
295.103
295.187
283.15
283.15
295.48
283.15
283.15
296.648
296.175
283.15
297.949
283.15
293.907
283.15
293.694
293.67
292.313
296.018
293.077
296.426
295.43
294.96
299.987
292.904
296.163
295.106
296.787
295.655
293.661
292.867
283.15
283.15
283.15
286.853
303.15
294.002
289.353
283.15
283.15
292.505
283.15
283.15
299.279
283.15
283.15
293.55
283.508
283.15
292.616
283.15
300.845
286.338
287.374
293.277
293.894
293.731
283.15
294.221
283.15
283.15
283.15
291.735
295.924
283.15
283.15
283.15
284.191
288.499
292.32
294.619
283.15
283.15
303.15
283.15
293.614
293.773
293.253
292.015
283.15
283.15
283.15
303.15
287.17
291.354
293.437
283.15
283.15
292.017
283.15
291.374
290.496
283.15
283.15
294.585
293.412
291.667
294.163
293.514
291.613
283.15
283.15
283.15
303.15
283.41
283.151
283.15
290.629
283.151
295.851
291.479
292.065
285.19
292.973
289.283
295.583
291.022
293.912
302.017
294.392
293.606
283.15
294.264
293.183
296.892
293.814
300.481
291.953
301.235
292.644
297.609
283.151
294.607
283.15
285.886
283.15
293.931
295.037
292.916
283.15
293.365
283.153
283.15
292.184
283.15
283.15
283.15
283.15
283.265
292.069
299.343
293.967
293.883
283.15
283.15
291.124
292.775
294.352
294.573
294.045
291.626
292.19
293.621
292.322
294.092
289.771
285.51
292.18
292.135
283.15
283.15
293.605
290.946
283.231
302.666
290.51
291.392
296.798
283.167
285.563
293.403
298.649
303.388
296.196
284.205
283.151
283.898
298.424
285.456
290.087
289.788
293.939
286.385
285.989
283.15
283.228
283.151
283.15
294.028
283.15
283.513
283.296
293.553
293.045
294.724
294.95
283.15
291.71
292.247
293.066
284.135
283.162
283.15
286.159
284.531
283.15
283.31
283.15
283.15
303.15
303.15
284.332
292.012
295.688
293.269
283.177
283.315
297.015
283.613
291.97
283.262
283.251
291.248
290.807
284.294
290.871
284.561
283.248
289.337
295.407
295.467
283.38
294.526
294.509
283.272
284.416
303.244
283.15
303.15
283.15
291.764
284.42
296.101
284.361
283.15
284.292
292.343
291.131
294.381
294.512
283.15
303.15
282.892
289.486
301.986
284.042
303.15
283.15
300.872
294.279
283.15
291.751
293.046
292.884
283.15
303.15
303.15
290.337
283.15
296.675
283.15
295.561
294.344
294.942
293.905
289.029
296.77
283.15
283.15
300.78
303.15
303.15
297.764
293.861
294.849
294.727
283.15
283.15
300.952
292.102
283.15
291.235
291.785
303.15
283.15
284.654
283.15
291.013
289.13
300.841
288.993
292.181
292.2
294.43
292.198
292.156
283.15
292.165
293.716
292.255
296.699
301.945
302.712
293.571
295.797
292.611
293.21
291.447
292.105
300.581
293.036
283.15
291.818
290.467
290.342
290.515
291.8
290.476
283.15
303.15
297.135
283.15
292.494
295.101
291.548
297.931
283.146
283.15
283.666
283.15
293.463
283.15
283.15
283.15
283.15
292.182
294.935
303.15
295.682
284.942
292.876
297.803
298.037
293.767
292.092
283.15
298.078
283.15
296.166
283.15
292.44
298.676
292.778
294.565
298.118
294.138
296.551
293.856
283.15
283.15
296.996
283.15
283.15
291.939
292.563
293.078
286.561
283.15
291.934
291.521
291.253
283.202
295.864
292.068
283.15
292.533
283.15
291.862
299.681
291.873
294.094
286.318
291.134
290.745
292.065
293.858
292.49
283.15
292.373
283.15
292.742
283.15
283.15
290.828
283.15
296.839
292.612
296.331
294.099
295.958
297.502
295.575
287.433
297.248
293.992
295.382
284.725
294.173
297.505
283.17
292.608
283.15
285.408
290.561
294.811
283.15
293.839
283.164
283.15
290.095
292.471
283.162
283.15
283.338
283.168
292.303
283.15
283.159
283.15
295.596
298.738
283.167
302.762
301.087
303.15
293.52
294.231
293.188
295.417
293.445
295.139
293.419
293.677
292.103
302.515
283.15
298.128
290.009
294.438
292.761
300.336
283.15
288.345
300.868
287.182
290.682
290.295
283.15
283.118
291.996
289.974
282.397
293.564
283.15
284.332
296.774
292.32
284.916
291.386
302.411
292.655
292.302
297.373
303.181
283.15
291.65
294.855
290.949
292.716
283.15
283.15
284.309
293.245
294.569
293.099
293.177
291.424
293.448
293.462
283.15
283.151
283.15
300.292
292.95
283.15
283.15
294.659
300.42
290.234
283.15
283.15
298.931
283.15
286.327
283.15
283.222
283.15
297.241
292.98
285.049
297.046
283.144
291.991
292.084
298.616
283.151
292.452
290.661
283.156
283.15
283.149
292.38
293.231
282.637
291.914
292.101
292.432
303.151
293.612
283.15
293.68
285.988
293.089
292.386
292.094
297.349
286.011
283.741
293.363
284.419
283.285
286.9
283.179
293.811
292.32
284.351
293.843
283.15
289.466
297.399
287.137
291.301
291.97
283.18
295.7
283.15
296.35
293.145
283.15
293.341
296.78
292.733
303.15
287.468
294.996
285.609
293.844
285.806
292.047
296.628
287.995
293.067
303.15
286.253
292.079
288.227
285.275
285.176
290.772
285.461
288.537
291.903
294.527
295.594
283.168
289.249
294.606
293.997
293.043
294.634
293.006
293.063
293.93
288.533
299.558
288.964
288.39
287.416
292.955
286.461
302.411
291.908
295.18
292.963
283.15
294.844
291.02
291.258
283.179
283.15
295.856
283.15
292.505
291.779
290.236
283.15
283.15
302.58
296.429
286.88
293.381
293.615
294.452
293.619
303.105
283.15
292.347
283.15
294.41
292.454
292.759
283.15
292.135
284.08
299.056
291.816
293.533
291.557
293.928
290.924
293.922
300.084
292.617
299.593
291.836
299.152
299.215
302.341
302.082
299.499
299.684
299.541
289.065
293.379
292.459
291.829
292.881
288.853
293.556
294.175
290.625
292.552
285.591
292.301
291.36
291.584
290.018
293.516
291.232
301.038
293.604
299.974
301.467
289.117
283.15
285.866
291.983
290.324
299.061
290.776
292.416
293.638
292.128
283.15
292.032
292.102
293.186
293.828
283.15
292.124
290.844
292.776
290.851
292.173
293.879
293.1
292.83
292.121
297.39
293.438
291.735
283.15
283.151
292.181
295.947
283.15
292.865
283.208
292.127
283.16
290.959
283.15
292.734
293.009
301.894
302.259
294.629
293.479
301.084
304.627
287.817
302.207
302.152
283.15
291.765
283.15
285
302.345
294.183
283.15
283.15
302.343
283.15
283.15
285.003
284.722
283.15
294.118
283.15
303.081
283.15
296.165
283.616
283.404
283.429
283.445
293.104
283.449
290.518
283.425
293.149
283.15
283.15
294.123
293.046
299.275
283.15
283.15
283.15
287.067
301.446
283.15
301.1
291.159
300.531
283.15
301.543
283.15
298.682
283.15
290.921
290.432
296.684
298.669
297.843
294.222
283.15
293.575
300.212
283.15
291.797
298.937
283.15
283.151
283.15
284.223
299.031
287.931
299.048
291.656
293.1
293.783
295.783
285.371
283.155
283.15
296.74
289.172
295.223
283.15
297.344
283.15
283.15
298.138
297.082
291.277
291.78
297.143
290.29
287.469
297.551
298.816
303.15
292.11
285.562
293.557
304.3
291.277
287.631
296.086
283.15
296.475
283.15
291.654
294.776
297.501
283.15
292.289
292.812
292.146
292.223
293.891
294.095
301.826
283.15
296.493
286.164
297.306
283.15
294.451
283.15
301.913
294.084
295.007
294.913
288.694
295.611
300.136
283.15
283.15
283.15
293.612
299.379
296.648
283.162
283.167
290.751
283.15
294.536
294.23
303.144
295.587
295.697
290.639
299.186
290.291
293.489
303.15
293.349
283.15
283.15
283.15
286.961
294.929
292.377
293.184
290.261
291.099
283.15
293.514
287.948
292.703
294.366
291.283
292.814
289.709
283.15
298.274
295.802
300.583
291.787
283.15
293.019
294.066
284.594
296.424
297.117
292.21
296.635
293.733
296.619
297.11
300.251
295.158
294.38
290.557
283.15
283.15
303.107
303.15
283.15
295.387
290.318
283.15
283.15
303.15
303.15
293.942
294.79
283.15
295.101
295.233
287.268
295.089
294.703
295.179
295.235
295.843
289.765
291.715
292.532
298.628
293.48
293.971
293.043
283.15
302.519
290.59
293.618
283.165
294.03
283.15
283.15
283.151
292.349
283.15
293.986
291.638
283.15
302.713
283.15
283.15
298.259
295.645
303.15
288.092
297.62
300.902
283.153
288.561
295.838
295.994
293.486
294.073
291.35
294.739
292.652
283.15
291.694
296.367
292.358
293.712
297.257
293.394
297.039
293.499
292.402
283.15
283.15
283.15
294.054
295.569
295.034
293.495
300.815
295.224
292.118
292.245
283.15
293.375
293.271
293.094
292.351
289.485
292.487
291.998
303.15
283.15
293.549
294.244
294.709
283.15
283.15
302.45
295.143
297.429
289.863
289.794
283.15
283.15
289.691
292.313
294.151
290.41
283.15
293.292
293.343
292.916
293.006
283.15
293.354
283.15
294.251
295.601
285.174
291.73
291.995
294.495
294.382
283.15
295.974
295.666
295.903
295.666
295
295.664
293.421
295.393
295.333
290.223
292.138
291.501
295.211
283.15
294.781
283.15
302.968
294.686
295.688
296.886
285.49
295.171
290.263
285.424
283.15
290.269
293.733
292.036
282.851
283.15
295.032
284.697
292.89
300.069
297.319
283.146
297.866
284.266
300.964
290.3
293.522
283.15
293.576
301.329
296.123
293.603
291.778
295.25
293.153
283.15
294.644
292.586
293.592
293.079
295.617
292.577
283.15
292.311
283.15
293.671
291.952
295.037
292.805
290.915
283.15
283.15
291.121
283.249
290.419
289.474
292.984
296.967
283.156
297.63
286.658
283.15
299.374
290.195
283.15
303.201
283.15
283.15
283.15
294.596
283.15
283.15
289.773
283.15
293.139
294.367
292.632
290.821
291.367
287.301
290.106
297.476
295.796
289.217
297.287
283.598
292.147
288.658
303.15
297.6
293.007
292.287
292.771
294.26
293.112
294.307
288.824
298.149
290.127
303.15
290.129
289.598
287.551
289.975
289.548
291.985
286.347
303.15
292.119
289.723
286.575
285.391
283.15
292.433
293.042
289.995
296.714
291.114
283.15
292.82
288.302
288.425
301.587
283.202
288.657
283.15
293.504
296.617
292.532
294.979
290.445
300.9
283.481
292.685
294.082
283.185
293.871
286.225
295.416
293.769
295.887
283.15
293.825
283.15
302.444
283.15
283.155
295.442
303.114
283.15
294.445
283.15
293.809
296.742
289.412
283.15
291.568
283.15
295.695
283.15
293.878
295.699
294.573
296.637
283.15
293.73
283.15
283.15
303.15
283.591
283.15
283.166
289.386
293.726
283.577
283.15
292.456
287.504
283.184
283.22
293.9
283.15
293.679
290.307
294.442
283.151
293.455
283.15
283.15
283.15
283.15
283.15
283.15
284.206
294.286
283.15
283.15
293.123
294.407
292.379
298.848
290.599
283.629
296.542
283.15
283.583
296.894
297.08
296.911
283.15
288.627
291.797
292.286
283.15
283.15
297.218
287.572
301.633
283.643
292.284
293.773
293.104
284.45
291.731
291.55
283.15
291.699
290.202
293.574
287.026
294.358
288.449
295.19
283.15
292.002
283.639
283.15
283.15
283.15
283.15
292.846
290.048
296.737
283.15
283.15
283.15
292.992
283.15
290.952
296.125
293.561
291.744
283.15
293.703
293.59
291.63
291.004
286.695
287.82
288.537
291.265
291.319
297.693
294.158
294.191
294.445
300.988
285.034
295.932
294.458
285.064
284.945
293.019
293.201
290.684
291.434
296.452
287.325
283.15
291.204
293.437
297.507
285.031
283.15
291.136
295.808
296.924
289.213
292.233
293.93
300.243
293.377
301.68
294.029
292.721
292.562
293.825
283.15
294.117
291.094
283.16
284.085
291.121
293.647
292.666
294.002
283.15
283.15
293.294
283.15
283.154
292.343
293.037
283.707
292.133
293.154
293.939
283.206
284.783
292.072
283.15
283.15
293.382
294.176
294.108
283.15
283.15
293.755
293.204
283.99
301.231
283.577
289.337
288.409
283.15
283.15
288.454
283.15
283.15
293.875
283.15
283.15
283.15
283.15
283.15
293.904
283.159
283.15
283.15
293.815
286.961
293.963
283.15
293.373
283.15
283.15
293.969
283.158
294.098
283.15
283.15
283.15
283.15
293.223
294.243
293.19
293.874
293.721
287.007
293.672
283.15
294.578
294.163
294.021
294.107
294.465
293.232
290.614
294.085
293.624
292.171
294.144
293.774
294.205
283.15
302.493
294.506
295.231
297.193
283.15
295.384
283.15
283.761
283.15
293.666
292.02
295.69
283.15
291.75
296.673
283.152
290.916
298.88
292.078
291.803
290.552
290.809
294.235
283.15
283.151
283.15
283.15
283.15
283.15
283.153
283.153
283.152
283.265
283.15
283.4
283.959
283.15
293.659
289.802
283.15
283.15
293.154
290.505
292.816
283.15
292.425
292.446
283.15
283.15
283.15
295.006
283.15
283.152
294.629
294.113
284.172
294.376
283.151
283.822
283.929
283.905
283.15
284.884
283.948
288.155
283.15
283.15
283.723
283.15
293.321
283.216
284.916
283.15
293.399
293.45
283.745
293.166
293.122
283.15
284.997
290.099
283.15
283.15
292.737
293.801
294.095
294.195
294.096
294.113
294.162
283.15
283.15
283.15
285.301
283.15
289.569
285.505
285.345
290.979
293.993
293.648
283.15
294.095
294.046
294.446
283.15
290.28
283.15
293.586
283.15
291.618
294.14
293.395
283.15
294.29
293.889
283.15
283.15
294.035
283.15
291.417
283.15
288.176
293.835
294.353
292.004
293.59
283.15
291.607
283.15
283.15
283.15
290.626
293.97
288.523
289.989
283.15
283.15
283.15
283.15
288.737
291.641
289.234
301.694
295.524
289.027
283.15
283.15
296.053
283.15
292.966
290.259
283.15
289.024
283.15
291.68
293.279
296.344
288.943
303.15
283.337
283.15
294.047
288.742
295.599
291.086
284.85
290.807
290.98
300.436
283.21
290.838
295.202
283.276
284.819
283.414
290.61
294.361
283.822
293.092
285.107
291.431
289.885
289.678
291.999
293.986
283.15
284.907
289.158
291.543
288.624
291.373
283.15
283.15
283.151
283.15
285.765
287.986
290.456
293.691
290.067
294.259
303.15
283.151
293.653
296.829
303.15
288.267
289.578
294.015
283.15
290.405
291.729
283.15
288.983
294.024
283.15
285.253
295.332
283.15
284.908
293.24
284.968
289.895
293.537
294.196
288.572
293.761
289.095
293.877
299.042
292.597
292.027
292.152
294.899
291.2
283.15
286.517
291.478
294.088
291.093
303.15
293.407
284.778
283.195
291.24
283.15
293.452
291.236
283.15
283.15
283.15
293.766
283.15
294.737
283.15
292.66
291.903
293.305
291.785
283.15
293.562
284.763
283.15
294.369
283.15
293.958
283.15
294.051
293.951
294.061
292.258
283.15
293.211
292.325
293.728
283.15
288.342
298.867
293.879
293.98
283.15
293.802
283.15
283.15
291.907
295.295
293.839
293.203
294.07
294.107
292.744
283.152
283.15
283.15
283.15
289.488
283.15
292.814
293.073
283.15
283.15
283.151
293.225
294.029
293.524
302.579
293.947
293.725
293.367
294.637
293.856
294.055
283.15
293.845
294.24
294.119
294.098
283.171
294.35
283.175
283.15
283.155
293.868
283.15
288.384
294.55
293.643
293.604
283.15
294.758
293.874
283.15
283.15
290.496
290.558
294.354
283.15
293.247
290.917
293.863
283.15
283.15
296.237
283.15
292.074
294.478
283.15