/*--------------------------------*- C++ -*----------------------------------*\
  =========                 |
  \\      /  F ield         | OpenFOAM: The Open Source CFD Toolbox
   \\    /   O peration     | Website:  https://openfoam.org
    \\  /    A nd           | Version:  10
     \\/     M anipulation  |
\*---------------------------------------------------------------------------*/
FoamFile
{
    format      ascii;
    class       volScalarField;
    location    "9.1";
    object      p;
}
// * * * * * * * * * * * * * * * * * * * * * * * * * * * * * * * * * * * * * //

dimensions      [0 2 -2 0 0 0 0];

internalField   nonuniform List<scalar> 
111485
(
31.5316
0.24967
0.284578
31.5316
0.27259
30.5639
0.234453
0.246151
0.234959
0.27677
0.226735
0.263048
0.249214
0.158023
0.243433
0.319669
0.160811
35.1573
0.256896
31.5303
31.5328
30.5836
0.227466
0.304568
0.243789
31.4159
0.294689
0.287076
0.274044
31.5389
0.0341759
0.116133
31.5449
30.5858
34.3197
30.445
0.129459
0.237356
0.00450858
0.275773
30.7802
0.263308
0.281693
0.193571
-0.620289
31.6007
0.222419
0.291036
0.28007
31.6859
31.6771
29.5649
31.7106
0.15402
31.7322
0.210014
0.248074
30.6338
-0.0657965
0.266226
0.273039
31.5354
0.236283
0.0657282
30.7376
0.227061
20.5995
0.256287
0.150158
0.228111
-0.164337
0.190795
30.9283
0.169604
31.5667
0.179084
30.5878
0.256373
30.5768
32.3103
-0.0629763
0.169088
30.5911
31.5506
0.232713
0.244491
7.37565
0.137875
-0.0336608
0.179363
-0.43533
0.251072
0.247072
0.201985
0.266111
31.5509
31.5328
0.189782
-2.53976
0.612333
31.5317
0.289584
30.5538
0.230385
0.219954
31.7409
30.6169
0.134354
0.249727
-0.956331
0.115594
0.256249
0.280349
0.272514
31.4081
0.187575
31.4718
30.6039
0.179271
31.5364
31.4147
26.796
30.5946
30.6356
0.278457
35.7842
26.6386
0.132671
31.5564
1.96486
-0.0421239
0.189838
31.5709
26.1923
27.3312
0.239658
30.5882
0.194722
0.205864
0.278752
0.131735
0.223562
0.242599
0.290218
0.211156
0.139358
30.5878
31.5466
30.648
0.231204
0.276162
31.5203
0.0938703
0.0361032
-2.19921
0.247747
0.233148
0.206979
-1.6367
31.5785
31.5315
0.238828
0.234581
-1.48279
-1.95249
0.147543
0.0978485
30.7398
-1.33676
-1.19378
30.6262
31.5438
0.24677
30.6041
0.116747
0.0679317
30.7763
30.8431
31.4802
31.3497
30.7348
31.527
0.261513
0.251511
0.27895
0.263883
0.277799
0.207989
0.168301
31.535
0.143258
30.8282
31.4891
0.237215
0.249754
0.156284
0.272091
0.0719203
31.5708
0.278343
0.312849
21.3971
0.235245
0.158189
31.5342
0.224418
0.230709
30.8192
0.13449
0.221325
0.265017
0.170825
30.7048
31.5353
0.201357
20.053
0.182127
30.6018
0.220072
0.201564
0.273521
31.5461
0.189934
0.0932814
24.1272
30.6031
30.6272
-0.0618906
-1.9091
31.0132
29.2308
0.218564
0.116377
-0.201135
30.9993
31.254
0.082875
31.5591
0.209862
0.189318
0.206457
0.156325
0.199006
30.6324
-0.051438
0.165059
30.6472
30.5908
0.117289
0.248576
31.229
0.193876
0.164927
31.5473
25.5625
0.220592
31.5769
32.1062
28.794
31.5272
0.20072
0.139897
-0.0216528
31.5628
0.103137
31.5317
31.5287
31.5704
0.0577957
0.239565
0.251755
0.151288
0.256962
0.217214
0.203236
0.056604
0.0891139
0.145786
30.4004
31.5443
0.0472479
0.101628
-0.112048
0.122955
31.5349
0.248049
0.241186
0.235075
0.326591
-0.0303092
0.242142
0.143103
0.211891
30.6201
0.208172
30.6045
34.9831
32.3721
-0.0921554
0.231796
0.237096
31.4959
30.8745
0.199374
0.128612
31.52
31.5285
31.7441
0.154885
0.166423
0.254439
0.264419
0.228094
29.0254
30.6345
31.5525
0.224651
13.2862
0.179984
-0.0502157
0.0124475
30.594
31.5306
31.5349
27.3119
0.209938
0.275452
30.5905
0.213474
31.2191
31.4777
0.201585
0.214868
0.260775
0.221036
32.0282
27.1697
30.5987
0.205492
0.0782909
0.0399744
30.7179
2.25501
-0.226031
0.290401
0.224327
5.46465
0.228929
30.58
0.217639
0.227267
-0.0237901
0.176977
0.244492
30.5985
31.5581
30.6143
31.5422
0.247051
0.208633
0.208084
0.264455
30.6691
0.273943
30.6229
31.5631
0.240702
32.5671
27.8953
31.7215
30.4293
0.249393
30.6288
0.0709075
0.292168
30.5777
0.180948
0.23593
31.5082
0.204013
0.280766
0.269497
0.157802
0.16329
0.130314
32.0687
31.5502
0.23566
30.6997
0.271627
0.154698
30.7736
30.6277
0.211353
0.208044
0.109015
0.324842
30.5868
0.039126
0.248279
30.5561
0.193107
0.189203
31.5292
31.5292
0.0969571
0.249431
30.5428
31.4805
23.5316
31.5289
0.268289
30.6025
31.5324
0.244763
-0.0177813
0.258107
0.292707
30.5715
27.3826
0.289948
27.7647
0.207547
0.315967
0.294084
21.2758
28.063
-1.86953
-0.829618
31.5277
0.136009
0.288262
31.539
-1.59108
0.273325
27.9219
0.257996
0.245774
0.167437
30.5802
1.0641
0.256635
0.201373
-0.13233
26.5534
-1.98859
31.54
0.187194
-0.652785
30.6291
0.2307
0.279822
25.8297
31.5583
29.9214
31.5277
0.266466
0.31959
0.278896
0.29469
0.126358
30.6068
0.110823
31.5811
0.316668
30.5177
31.57
31.6033
0.256988
31.5524
31.5327
33.4464
31.529
30.6613
0.242364
30.6263
29.7794
30.6022
31.4852
30.5418
31.578
30.5859
0.254878
30.5958
0.229198
0.245331
0.0902034
30.5937
0.250935
30.6318
31.5317
0.276773
0.335007
0.423749
-0.0930321
29.4076
0.262482
0.251485
0.128777
-0.0325349
0.260261
31.5475
0.0224528
25.883
0.374672
30.6041
0.296289
26.767
0.118021
0.301959
33.1726
30.8641
-0.094784
31.5219
0.249925
0.219259
30.653
30.6805
31.7797
30.6223
-3.46688
0.243762
30.5483
30.6487
0.259596
30.5836
0.22391
30.5843
0.245694
31.5337
0.328984
0.317026
0.332419
0.10633
30.4842
-0.476973
30.5446
30.6035
0.219595
30.6089
0.278346
31.8059
0.307825
31.5375
0.351537
31.5311
27.9557
-0.0335094
0.148808
0.217408
0.303352
0.152995
0.230253
30.6437
0.185726
0.231929
30.5962
0.149425
0.0984695
0.260813
30.8319
32.1872
0.354595
0.141194
14.989
30.9078
0.208037
0.301351
0.282561
0.269797
0.646328
10.4296
27.5888
-2.37995
12.8264
31.5342
0.318625
30.6953
28.0744
0.219986
10.2077
-2.45445
6.02296
27.5728
0.220058
0.28486
30.63
29.8765
0.297128
31.545
30.5828
30.587
30.5901
0.270938
30.617
31.3777
0.304212
0.18553
24.1698
0.121196
29.3527
0.171086
31.7058
30.6371
0.250899
30.5989
30.593
27.9423
0.199269
18.793
0.178565
0.169213
31.5763
-0.483652
0.0105837
0.247776
0.30493
1.42502
0.235011
30.6096
0.248199
0.260766
31.5633
0.211884
0.19371
0.284001
0.154071
0.26166
0.269122
31.5995
0.268938
0.139196
27.8631
0.264191
0.339979
19.5821
0.142436
0.284066
0.307741
0.290181
0.303607
0.105477
31.1377
0.285333
0.273604
32.9211
0.255064
0.200875
0.203171
30.6137
0.195799
31.6244
30.5905
30.6483
30.5849
0.298778
28.3059
-3.73251
31.5238
30.3179
0.297054
0.259619
31.5169
0.254882
31.5277
31.5513
31.7149
0.181278
0.311809
28.0606
31.3475
30.6091
30.612
0.0987238
0.149695
27.3413
0.269295
-1.21334
30.6404
0.297279
0.243411
0.346947
30.5783
30.6006
0.296696
0.196577
27.802
30.628
30.519
0.168743
31.5577
31.5113
30.6084
0.271785
0.289202
30.582
33.9148
32.868
0.594883
30.6391
30.57
0.233
0.0627889
27.7384
23.9523
4.87554
0.258136
0.0105415
30.4677
0.159142
0.302189
30.6178
31.7039
30.5859
30.6042
30.628
30.581
0.332741
31.5302
30.5899
30.8029
0.31145
0.179765
31.5377
31.7596
0.206649
0.17435
0.19922
31.5079
30.5939
0.176997
31.5484
0.239373
0.145029
0.205857
31.4386
31.5331
31.5325
30.61
0.350848
30.5944
30.5752
0.199869
31.5323
0.229476
0.342939
30.656
0.230096
31.4283
0.198208
0.274894
0.193407
0.23381
-4.58489
29.0408
0.185761
0.231055
0.0115689
31.2413
-7.89176
28.6786
0.109428
30.6213
0.201303
0.241188
0.184919
32.3319
31.534
31.5584
0.173891
29.3393
-0.0507457
29.8856
0.292252
0.153009
0.0699482
0.182672
30.5858
30.657
31.014
0.17497
30.5809
29.024
-0.206556
30.6293
30.6567
31.5403
30.5893
0.0824545
30.5065
30.604
-5.68087
29.2697
30.707
28.334
30.6033
0.169896
0.0906401
31.523
0.282604
4.42606
0.169751
-1.09596
0.164133
30.635
0.240105
0.240119
0.16839
31.5483
-9.92146
0.0644754
26.0258
0.0237382
-0.0733986
0.000247975
0.185539
0.140727
-0.156191
0.154706
0.13372
30.5328
30.6288
0.0674549
0.0171629
30.6349
0.0826748
0.287947
0.12191
30.5607
-0.0741372
30.6067
0.104525
0.0862232
30.5772
-0.289059
0.146113
-0.223257
-0.0601164
30.3931
0.261194
-0.200612
0.114091
-0.218338
0.171209
30.5651
30.648
0.24618
30.5891
0.360443
0.0355071
27.0054
-1.48214
-2.86524
-0.782973
30.5894
25.6864
0.18767
31.5534
37.7682
0.155796
30.549
30.5705
-2.46089
-3.00168
30.5895
-0.0729287
30.6049
30.6003
31.5608
31.5311
31.8391
31.546
0.239185
30.5847
30.6275
30.6528
-5.30104
0.404909
0.239623
0.176665
30.6365
30.5654
0.156778
30.5977
30.5841
23.432
0.134925
0.202989
30.578
30.5522
30.6128
30.57
30.4008
30.5638
0.0638316
30.5883
-0.395553
0.253271
30.6106
31.5756
31.7447
-0.0883374
31.7128
31.534
30.6737
-0.438532
30.6032
0.0907349
0.0884722
-0.317512
30.5727
21.3093
0.190803
0.232371
30.6768
-0.37279
0.236154
31.5544
30.4642
27.664
30.5563
0.183414
0.234435
0.102431
-0.957788
30.5805
0.179472
30.3387
27.4518
27.4941
30.6278
0.266529
30.6036
31.7857
0.120311
0.187026
31.7747
0.287359
29.3728
0.0267152
31.9964
30.6033
30.501
31.5331
0.147773
0.265602
1.92174
30.5848
30.7644
0.108957
30.5893
28.4001
31.534
0.245586
-1.00563
0.403437
31.4789
0.0865071
0.135991
33.0427
0.138515
30.6007
0.16775
0.20228
0.18681
0.0323534
-0.31266
30.5927
30.6049
30.6022
0.0853842
30.902
-0.0560698
31.5629
3.25472
31.5174
0.273223
0.280358
31.7935
30.589
31.8612
30.6594
-0.072744
31.8912
27.6882
0.0839628
-0.0514282
31.7391
28.269
30.9165
28.3528
30.574
30.5941
-0.0273417
0.342364
31.5308
31.49
-2.07194
31.5599
-0.0290575
0.150431
30.8955
0.199215
31.5329
0.0631449
30.6005
0.279755
30.5752
-1.88618
-0.810269
-0.188361
0.174561
0.161496
18.9638
30.2842
0.20743
31.6885
0.25678
31.5158
30.7258
30.524
30.6532
30.75
30.6339
0.11352
0.0644087
31.534
26.687
31.544
0.12436
-0.0833017
31.5271
0.268506
-0.191971
31.7456
0.162325
0.129934
0.247401
-0.186226
30.5893
30.5937
30.7193
30.5876
0.232712
30.3335
0.20381
30.5984
0.175881
0.303404
30.6199
0.143378
30.5812
30.5874
0.158382
0.0277608
8.8532
30.6
31.8386
30.5435
0.241493
30.131
31.7505
30.2041
3.86519
27.0507
-1.66104
28.2399
30.062
31.0977
0.118768
0.0531686
0.297851
0.253916
31.4938
0.181664
30.6099
30.6277
0.0908982
30.4748
-2.11633
0.173139
0.174009
0.166903
-3.39533
0.23099
30.6213
-5.21653
-11.279
0.258555
0.212933
0.218794
22.314
31.5175
0.253537
31.5367
30.5709
-0.547465
0.252975
-3.96608
30.5417
29.924
0.0735121
31.7449
30.5733
0.136599
31.8212
31.7772
0.546567
0.147547
-0.00767303
0.337085
0.171402
30.5852
30.591
-0.670092
0.244326
30.5858
31.7985
0.383704
30.6152
26.5175
27.1758
27.3304
17.6987
26.5948
30.5917
0.307251
30.5234
0.0549433
30.5812
14.0211
30.794
30.6641
30.6236
30.592
0.344994
30.5912
30.5892
27.8042
30.5579
30.6246
30.5893
0.226695
30.6591
0.210163
0.0371862
30.6748
0.416603
30.5831
0.20608
-0.327173
0.108317
0.128501
31.4146
0.124729
0.327437
-0.19943
31.5577
-0.0474222
0.208534
0.123598
29.4318
0.0851504
30.8496
30.6166
30.5917
30.5808
0.109205
30.6051
30.5357
0.103365
-0.145663
0.0301059
30.6631
21.9146
0.357878
30.6279
-1.04649
31.7334
0.077831
30.5545
30.5668
0.232524
30.5632
0.287303
31.5481
30.5812
0.201455
0.136499
0.17464
0.252268
-0.126871
0.208137
30.5809
32.1647
0.263986
0.179647
0.249881
-0.0114307
30.5898
0.202982
30.5857
31.2292
0.234928
0.0996731
30.6192
0.160456
30.5678
0.175541
0.161217
30.8759
30.5815
30.6108
0.266186
30.6034
30.6036
0.26955
0.176369
0.189071
0.109908
30.6602
30.6556
0.311592
0.320413
30.6001
0.247543
30.9147
0.240733
30.5846
30.583
0.169206
30.5871
0.223476
0.302805
30.5949
30.5819
0.204606
26.0341
0.338065
31.5326
0.12277
31.5763
26.7917
25.9087
0.301693
27.9872
27.6877
0.222688
27.525
17.2179
25.4978
30.8102
31.5389
-0.318765
0.309879
30.7618
30.5981
0.206735
0.273393
30.6142
0.262138
30.5798
31.5591
0.285737
0.281962
0.482605
30.5795
30.6104
30.6012
30.5891
30.5501
30.5616
30.5781
30.5509
30.5694
30.5744
30.5994
31.5456
30.6034
30.5779
30.579
31.242
30.5778
30.5843
30.5917
30.6994
31.3387
0.324337
30.6012
30.5786
30.6577
0.259827
30.6392
31.5581
12.0725
30.5213
30.1575
0.231392
33.0335
30.3691
14.1777
0.214222
30.5971
27.1302
29.1065
30.5713
0.205143
0.209436
0.216046
0.150041
0.201508
31.6416
30.5473
0.188977
0.213592
0.155724
30.5748
0.214613
0.254187
0.244454
0.0949531
0.141189
0.15488
0.149442
0.223105
31.5963
0.262123
0.265486
0.273738
0.2277
30.6046
30.5984
30.6092
31.5331
30.5948
0.214457
0.233449
30.6155
30.5706
30.5694
31.3724
30.58
31.5313
30.5921
31.5467
0.218816
-0.126345
0.241524
0.372125
30.4713
30.6213
0.190331
-0.625023
30.5814
30.5907
0.252678
31.5998
30.5978
0.346244
0.170137
0.208727
0.356274
0.211721
31.628
0.0744645
0.257695
27.6999
31.5354
0.210802
31.6121
30.6171
9.84748
5.44463
0.282828
31.1617
31.4554
0.192153
0.256576
0.130326
0.214861
13.811
31.5291
0.276303
32.9358
31.5566
30.3397
0.251936
30.577
0.221103
0.0452864
0.206996
0.233549
31.567
0.265485
31.5562
29.9318
31.547
31.4922
0.129601
18.1676
30.5906
31.5304
33.4378
0.225431
27.5061
0.158309
0.203376
0.116688
0.211518
31.3953
31.491
26.6626
0.274311
0.210466
-3.24364
31.7039
31.5317
27.3679
0.249802
0.154776
30.584
0.0239761
10.2678
0.250001
0.174757
31.527
26.6523
0.165596
0.215155
30.6062
0.306977
0.294591
0.229252
0.0979742
0.175349
0.247744
27.7085
0.167477
0.185399
0.194875
31.9679
0.230111
28.0461
0.315038
0.192603
31.5576
0.105258
0.173448
0.141099
0.255812
34.9953
8.61358
0.151758
17.3351
0.175749
30.6184
0.110877
0.188107
31.5444
30.5925
-1.04769
-0.0628943
0.278574
34.9185
0.280014
-0.40297
-4.16313
-0.030144
31.5484
31.6283
0.206876
33.379
0.208915
-0.461892
0.185945
0.161461
31.5272
0.285521
0.207125
31.5165
27.8452
0.188407
31.5997
0.175906
0.195113
31.538
35.1283
0.264998
31.5212
30.5784
30.6224
0.145544
0.550421
0.272433
31.7634
0.258469
0.170772
30.7992
0.158178
0.112104
0.122811
-0.169406
30.588
0.178513
0.235298
0.155696
0.124833
0.135655
-0.236356
0.304869
31.5319
-0.168074
0.118719
31.5305
0.146991
30.6412
30.6007
31.5558
30.6603
31.5398
0.315933
30.6156
0.147167
0.192894
31.562
0.332782
31.3117
0.100058
31.5448
-0.277187
30.6585
0.250636
0.344152
-0.329725
0.240797
0.12423
0.274233
0.143999
0.251479
11.4086
0.203547
0.162053
0.246414
31.552
0.291966
-0.0859585
0.206571
0.253265
-0.267104
31.5581
27.2235
31.5308
0.291776
31.5242
24.7858
0.124888
33.563
0.343189
31.4856
31.4214
30.5903
0.2367
0.425869
0.187076
0.171075
0.135257
0.18712
0.23639
0.194177
0.105345
0.225451
0.197131
31.6184
30.4291
31.5259
0.239874
0.264571
30.7126
30.5897
25.3129
0.295749
0.115983
31.5273
0.195582
31.5257
-1.28886
0.301707
0.109816
31.5341
31.5321
0.176827
31.5321
0.254222
0.179593
29.9286
0.240205
0.254497
0.128999
31.5148
-0.0761771
28.059
0.182688
0.262275
31.5395
31.5942
0.162505
22.3026
31.6621
0.219873
0.153921
31.5351
31.4494
27.8773
0.162311
25.2511
0.216658
0.186459
0.285519
31.5301
28.2019
0.17628
31.5293
30.6214
31.546
31.5382
28.6326
30.925
30.3215
31.5224
31.5665
29.3124
33.5871
30.5962
0.288997
30.6314
27.1092
25.6559
35.5909
27.643
31.532
0.18686
29.6128
30.8656
0.185329
32.84
34.2795
31.1849
0.160536
33.4676
0.207418
0.0398925
0.325772
28.7872
31.5368
0.238245
-1.27764
31.3668
31.5217
0.239627
28.4703
0.231036
28.1772
30.5248
31.003
0.240177
0.254657
31.5313
0.261364
31.6893
29.601
-0.364805
0.263493
0.195532
30.6064
0.232707
28.9851
0.201646
30.5826
31.517
30.5777
28.0383
0.230963
0.231116
31.5544
-2.63084
31.5541
31.6122
31.5524
31.5317
0.211339
0.15503
0.206994
0.318931
31.3969
0.288911
0.251205
0.213845
0.185833
30.812
0.193116
0.310805
0.133522
-1.16557
0.245838
31.7163
0.158694
0.209639
0.236712
0.240217
0.131334
31.6378
0.17093
31.127
31.5515
0.233762
31.5706
0.311636
31.5299
31.7795
30.3102
31.5467
31.5494
0.135634
31.5406
0.21178
28.9095
30.6247
0.25029
0.294935
0.228075
0.180127
31.6163
3.20089
31.5507
0.233513
31.7837
0.232034
0.195222
0.251391
0.25694
31.9014
31.9291
31.5448
0.205437
30.6658
31.4919
0.193767
30.5333
30.5741
0.319102
31.9014
0.126682
-1.15182
28.7111
30.0321
29.7915
0.154416
0.227248
31.5289
0.0361655
0.220951
28.0872
0.234363
31.5378
0.176374
0.294694
0.252156
31.5362
0.283198
0.178876
0.205792
0.278246
0.296156
31.5375
31.5307
-0.00995741
31.503
30.5783
31.529
0.160662
0.233828
0.221857
0.089858
27.6096
0.235581
0.233481
0.233391
-0.0294149
0.301882
0.222016
0.299352
30.5906
30.5903
30.5879
0.373965
30.6097
0.144797
21.194
0.263087
-1.79271
0.138055
0.118721
30.5715
31.541
0.268929
0.255499
31.5941
30.5689
31.5559
0.163134
0.257295
0.247215
0.295871
0.125685
0.219588
31.5249
31.5482
31.5334
0.195488
0.19643
0.0381007
0.259705
0.230138
0.283922
31.4145
31.5305
25.5217
30.7375
0.140724
0.316818
31.5111
31.6485
31.5614
31.5616
31.4072
30.8942
0.248308
31.5334
0.139355
-0.0463397
30.6
0.2712
0.1149
0.168689
31.719
31.0722
0.249932
31.533
0.245351
-4.42914
0.173698
30.6956
23.9202
30.5845
31.538
31.5049
30.4478
8.7451
31.5804
0.318651
0.212546
31.5459
31.5358
0.244634
31.5472
30.6044
0.205707
-0.399935
31.4781
31.4719
30.7411
0.161616
31.5323
31.5302
5.01287
0.186968
0.250324
31.5253
30.5965
28.874
0.226977
0.238088
0.227745
0.23127
30.5811
0.240053
0.0882797
0.0747168
30.3998
31.5327
31.5314
31.3602
31.5332
0.216965
0.231311
0.185365
31.6225
31.5418
31.5312
31.5267
30.8456
0.185061
0.462273
0.0922361
30.5811
31.5328
31.7657
-3.56673
0.149379
0.105216
30.5952
-7.31102
33.0334
31.3864
31.53
0.23838
0.306868
31.5277
31.6502
0.263504
31.5379
0.169537
0.23864
11.205
31.5123
30.7632
0.204082
0.105538
31.6618
10.4494
0.247009
0.36447
31.533
31.5392
31.5886
31.5698
0.133311
0.184145
31.5408
0.14716
0.232713
1.22471
31.5297
31.52
31.521
31.5414
0.298521
33.5338
31.5312
31.1166
0.146294
0.196093
0.180814
31.4103
31.5426
0.259263
30.5339
31.5366
31.5333
31.5325
0.250302
30.8116
30.5294
30.5887
0.143827
0.281799
31.5098
31.5494
31.4526
0.259562
32.6125
31.5374
31.4595
31.5507
31.5469
-0.387454
0.3197
31.7186
0.267408
0.291031
0.231195
31.5736
31.5572
31.5436
31.3938
30.5765
0.255968
31.5334
29.5769
29.454
0.240506
30.6353
0.198771
31.5322
30.6154
0.262337
1.57479
28.2642
0.278158
31.5345
0.263762
32.5928
31.5987
31.7208
36.3744
31.5505
0.191843
31.5053
0.231563
30.6175
27.8795
31.5671
31.5019
0.110902
0.414167
30.5859
10.8568
30.6094
0.0173899
0.173504
0.316295
30.6276
-0.981712
0.179328
0.142053
0.323958
-2.04481
0.161499
30.4799
30.5788
-2.53986
0.180131
0.258755
31.6581
30.17
25.648
13.2973
31.5575
30.5898
31.5515
31.5581
31.5646
33.2118
0.412902
0.0691204
0.247646
27.9326
0.00761767
31.55
0.261426
31.5321
31.5833
30.6014
30.8765
-0.0543142
30.7812
30.5969
31.5304
0.253245
31.521
31.5379
0.160922
31.415
23.1559
19.9064
18.5764
31.5645
19.4473
18.8119
19.2452
22.016
30.5774
30.581
0.232559
0.233139
27.9651
28.6244
30.5796
0.219413
32.7702
30.958
-0.0467381
31.5344
31.5335
0.161136
0.0591882
31.4146
30.5779
0.259562
28.1832
30.5354
-1.17451
0.230167
0.392714
31.2701
0.292061
31.5555
0.17605
-1.1573
0.26521
31.5316
-1.14085
0.28944
31.8886
-3.69491
31.4872
0.260253
30.1589
0.328758
31.242
0.142569
31.5241
30.4059
30.6108
-5.40122
-5.42635
31.5986
0.240895
0.377856
31.7376
31.5288
0.131961
0.0280674
-0.0755553
31.5805
0.278206
0.270025
0.169722
-2.95746
31.5649
-0.26169
30.6187
-0.197813
31.5324
-6.45146
-7.535
31.443
0.218284
30.8193
0.175432
30.5841
31.4478
31.5721
31.607
31.4378
31.4819
0.278702
0.260282
-0.215749
31.5549
25.4733
-0.173951
31.5519
31.3826
31.6481
31.527
31.652
0.0972059
31.5309
31.5523
30.5782
0.077716
31.4668
30.594
30.2013
0.170818
30.5975
0.0379586
-2.67261
0.0675628
0.156296
-0.046238
32.8876
31.54
31.5245
0.285596
0.192053
30.2833
25.3346
0.0758864
31.5388
31.5575
-0.136978
31.4824
0.2706
31.5293
-0.0169339
0.131158
31.555
30.577
31.5272
31.5532
31.5295
0.258725
31.5171
0.0834253
31.7972
31.5303
0.139669
30.5848
0.249229
31.1235
31.5364
0.23952
0.239948
-0.0644828
31.5516
31.5515
31.5335
0.264783
0.0332132
31.8246
30.5885
30.6088
0.166661
31.4935
0.284638
-0.132691
31.5256
31.5059
0.160585
31.5098
30.6117
30.5985
31.8521
30.6053
-0.200122
24.9668
30.6681
31.5444
25.624
31.5055
26.4983
31.414
31.5005
31.0129
0.2089
31.2549
0.121761
31.4652
31.4975
0.134223
0.179939
31.4775
31.4019
31.5294
0.122702
26.9585
31.5339
30.9548
31.5142
0.166928
31.4865
-0.299983
31.5578
0.227027
27.7999
0.212765
31.5829
31.5303
0.268101
26.3112
31.5469
0.181774
0.232363
31.6277
31.5537
0.21692
0.120307
0.166566
0.1164
0.111463
0.26482
0.190899
0.185302
31.8171
-0.344146
25.191
24.7413
31.5322
31.511
31.53
0.179772
31.558
31.5321
31.5573
-0.116228
0.166959
23.9744
0.155024
31.5569
0.252504
30.5582
0.163189
0.218907
25.4811
0.294814
31.4908
31.4087
30.5906
0.209127
0.230313
31.533
30.6011
0.186334
31.5478
-0.101569
31.7029
0.0651375
31.5323
30.5899
31.469
30.586
0.181307
30.5862
1.50828
30.6174
0.25246
31.5257
31.5094
17.5095
16.227
31.5992
31.5141
31.5318
31.5479
0.270848
-0.152184
21.0668
31.5583
0.273783
30.5761
30.6426
-1.27747
0.232489
0.1041
30.5925
0.147785
0.204715
0.22424
0.250176
31.536
31.5628
31.5797
31.5575
30.5929
30.5844
30.5911
31.395
30.5943
30.5928
31.5322
30.5888
-0.0261233
30.5836
31.5222
34.5142
31.5512
31.5311
11.1272
30.5816
31.5221
0.195895
0.0257364
31.4259
31.468
31.534
0.260347
30.7548
31.4866
-0.0362743
30.603
31.5231
31.5233
31.5509
0.178624
30.5938
-0.270686
31.5588
31.481
31.5222
31.5271
31.5132
-0.0250894
-0.157093
0.184161
31.5526
30.66
31.6925
-0.087297
31.517
-0.128824
0.0695232
30.588
31.4573
23.9343
-1.20858
31.4484
28.1919
-1.15695
24.2499
0.272783
30.7343
0.176141
24.1171
22.5823
31.5313
0.273071
30.6048
0.22096
0.133601
31.5546
0.270123
-0.71066
31.5253
0.0849996
30.5851
31.455
31.4936
31.4378
31.4904
30.5861
31.517
31.546
-0.219278
28.5479
31.5304
31.5277
31.5146
31.5287
0.24445
16.412
-0.105535
-0.785827
31.518
0.31837
0.264917
31.5313
28.1079
31.248
31.4741
31.6225
31.8661
25.8814
28.7793
0.148686
31.5381
31.5707
24.5066
26.6329
30.5901
0.232821
31.5457
30.6317
31.5502
0.012261
31.564
30.5818
0.225006
30.5983
30.4644
31.1525
31.7408
0.230348
31.5311
31.5258
31.5198
31.4645
0.263741
0.0823727
0.118774
0.247913
0.210842
0.172734
30.6029
26.3224
-0.228656
0.202432
26.2786
-0.194684
31.528
-3.88477
30.6501
0.00097539
31.5373
30.5896
0.20359
-5.08853
31.5359
0.198181
31.5424
31.5477
-0.0189051
0.148509
31.544
30.5868
31.6932
30.5886
31.5112
27.5003
31.5498
31.5329
0.187927
31.5483
31.5169
31.5217
0.231881
31.5675
27.6634
30.5939
30.5743
29.3169
27.8165
0.226681
30.587
27.8516
0.209324
31.5205
0.151778
0.229875
31.5282
0.211227
31.5287
29.9306
31.7857
27.2867
30.6179
31.4673
31.5246
31.5625
0.272262
31.556
31.5433
31.5422
31.0387
31.5273
31.236
-0.0858815
31.5322
31.5618
0.0900003
31.5337
30.5918
30.6202
0.324717
31.5339
-0.305979
26.956
-1.09267
0.0847609
30.5803
26.2969
0.221264
25.2247
30.5942
-0.368948
-1.08261
-0.00809312
0.116013
-0.604883
-4.21892
30.7104
30.589
0.269016
-0.00835755
0.0366319
0.290865
-1.14556
30.6022
0.115657
0.215724
0.241582
30.6311
0.263774
0.120482
0.212227
0.257763
-0.0990814
0.139216
0.216928
0.207206
0.00809062
0.195808
0.267497
27.7175
0.364282
0.0341521
0.248143
0.208596
0.108819
0.270973
0.0677011
28.3594
-0.050955
28.1555
0.272293
0.287104
0.115333
0.189391
28.1056
30.5811
0.25723
0.228511
-0.138542
0.107253
0.152885
0.237355
19.5001
0.289044
31.5323
0.429506
-0.0531186
0.152302
0.240539
-0.156712
-0.29478
0.270514
0.201965
0.0976625
0.241888
0.245076
0.515014
24.7021
21.7502
0.233511
31.5381
31.533
0.236337
0.322271
0.115909
31.5289
0.0676579
0.138377
0.229161
22.5007
31.5259
-0.431474
0.0386852
-0.0798538
31.5639
0.19342
31.5348
0.22334
0.263535
0.151475
0.157437
31.5187
31.5405
0.214001
0.290692
0.343122
31.5085
0.240607
0.3443
0.205534
30.6194
0.233196
0.0851096
28.0901
0.210484
-5.51902
-0.0470091
30.4382
0.112284
0.0113711
31.5324
0.300543
0.0933539
5.9499
0.220253
0.329908
0.139212
0.342413
0.16634
-0.0713942
-0.513953
-0.103464
0.410807
0.133906
0.196695
-0.271236
0.254901
0.272867
0.301021
0.284656
-0.225924
0.215444
31.5341
0.28486
0.243659
-0.0518811
0.212343
0.182214
30.6759
0.283794
0.22761
31.5154
0.0524976
-0.0130474
0.265475
0.297184
0.12307
-0.167938
0.2947
0.217619
0.135031
31.533
31.5331
0.170419
30.6293
0.182283
0.323077
30.8571
0.122613
0.229128
0.0291018
31.5421
0.237131
0.229996
0.102933
-0.16158
0.220573
0.234861
0.226902
0.280719
31.5326
31.4504
0.0056474
0.188612
0.118537
0.285873
31.4478
0.192733
0.342302
30.854
0.182005
0.266951
-0.298289
-0.451175
0.209007
0.124174
0.206635
0.282267
30.6523
0.320593
0.166387
0.280497
-0.37925
31.4525
0.24731
32.0689
31.531
0.210699
0.217772
0.2124
0.894787
-0.101059
6.22495
30.6029
0.13968
0.381503
0.471896
0.214927
31.5473
30.6269
30.5866
0.185408
0.207559
-0.482273
0.229712
30.5609
31.4661
0.150478
0.225496
0.167782
0.234422
0.210062
0.338188
0.163687
17.6952
30.5803
0.272848
0.0814215
31.4621
0.230803
0.315651
0.133259
0.287928
0.238518
0.201499
31.4645
0.272683
0.233834
30.6238
30.6228
0.142167
0.318838
0.138744
0.113305
0.285335
0.355473
0.179795
0.254011
0.300507
0.0803064
31.4494
31.4206
0.0448337
0.139792
0.288433
0.015281
0.286927
0.208739
0.273695
0.242449
0.275392
30.593
30.6557
-0.0178233
31.445
27.5098
0.265381
0.211355
0.191808
0.0171156
28.7711
0.203128
0.0936016
29.296
0.00574764
-0.406169
0.278916
0.294307
0.0914826
0.325561
-0.181747
0.125969
31.5321
29.0721
0.0529729
0.160306
0.192898
0.152338
-0.0768051
0.188051
-0.0537889
29.173
0.323863
0.259987
0.239417
-0.0826666
0.188861
-0.00664359
-0.392522
0.240778
0.138128
28.7457
0.29441
0.307304
11.4789
27.304
25.1358
0.337148
26.6888
0.0705324
0.286005
0.216013
0.330501
-0.0634134
20.3761
12.4651
32.3175
27.0099
0.169537
30.5854
30.586
-4.60834
31.5218
0.243923
0.203855
0.130947
0.225646
0.226341
0.26319
25.2276
0.143163
0.108945
0.179913
0.239581
0.238501
0.263577
30.5909
-0.406785
0.244697
-0.104421
30.5878
0.261624
0.209779
30.5873
31.4846
0.0340034
0.204975
31.6808
0.301667
0.290428
0.0169502
31.5458
30.5866
0.113338
-0.406458
0.314711
30.5893
30.5513
30.5883
0.284786
10.4912
9.58786
0.0954913
-1.05677
31.5854
0.189099
-0.967742
0.270477
0.1103
0.0379253
0.175319
-1.55152
0.142651
30.8165
0.154883
0.211682
0.078765
0.244906
0.098562
0.176092
0.0936776
0.117963
0.130592
0.113541
-1.10864
0.262903
0.0103223
-0.129511
-1.387
0.00348599
-1.03469
0.0930111
0.153152
0.217743
0.235328
0.135015
0.208706
-1.0598
0.156397
29.9907
0.252081
15.5149
0.217425
0.212461
30.6265
0.237423
29.9906
0.226829
30.1007
31.6339
0.381705
0.189027
27.5182
0.162598
0.271611
0.223235
31.4703
31.5494
0.414959
0.106188
-0.210707
0.228457
0.175052
0.208505
0.116112
0.2542
0.239957
26.1179
0.26035
30.5904
31.3365
0.238791
0.197898
0.0183619
0.23193
0.181898
0.271205
0.226714
31.1556
-0.0535172
0.162533
0.265285
31.1938
31.5797
0.254272
0.24871
24.7415
0.179312
0.133229
0.268587
-0.510419
0.202366
0.253088
31.4889
18.4957
0.238297
0.0790936
30.8857
0.26728
0.153228
0.22447
-0.0596464
0.186275
-0.179267
0.251026
0.202328
19.5652
0.181078
31.5307
0.247529
0.233947
0.194586
0.071313
26.4385
0.0593439
0.0470228
0.250157
-0.0674252
29.773
30.5907
0.243787
0.0968273
0.272923
0.266302
0.182752
0.18482
0.00481851
0.226789
0.183695
0.101319
0.149563
28.2528
-0.153502
0.197192
0.0218894
0.174694
29.0289
30.5765
-8.95791
-0.0597405
32.6975
-0.158
0.219402
29.5209
20.2207
21.9699
0.133743
0.211792
1.09097
23.4987
0.0334715
0.258663
30.4924
0.949853
27.6187
0.222783
0.163672
30.7321
-0.0935935
0.234358
0.219214
0.199405
30.5804
-0.646373
0.168528
0.0566552
0.2583
0.283603
0.194963
0.277984
-0.260103
0.224448
0.140616
0.207636
31.52
25.9398
26.3175
30.93
0.180482
0.236654
0.26581
0.0872264
0.154759
0.247174
0.244751
0.230165
0.228875
0.187376
0.250788
0.00420929
0.283222
0.187085
31.5301
0.168686
0.0869626
0.238694
0.283293
30.4685
0.176142
0.193442
0.408167
0.258897
0.247815
30.6423
0.286988
0.237875
27.5663
0.282894
0.243704
30.9096
0.186833
30.874
30.6114
0.181083
0.0616612
0.25797
0.252086
30.5853
0.172994
0.168449
30.6274
0.293275
0.24271
0.242117
0.232894
31.0335
0.189816
0.198891
0.304459
30.8731
0.248357
0.139948
0.264654
0.213703
0.201185
31.659
29.9296
28.3689
0.125518
28.8873
0.241765
0.158266
0.12799
31.4289
0.124311
30.7229
31.5296
31.3225
0.260589
-0.0509377
-0.413999
0.289277
0.275296
30.1016
27.614
0.187395
0.150805
0.270169
-0.2622
0.238909
-1.14737
31.5356
23.0835
23.5488
30.5787
23.8447
0.0788407
31.5336
0.276594
0.236422
0.271889
0.0751794
0.233685
25.4135
0.132737
0.278239
0.261217
0.174889
25.5792
31.5359
0.204139
0.185395
-0.752203
-1.74052
-0.0437406
-0.241719
-0.63651
-0.373836
0.241817
0.0495152
0.201713
-2.77692
0.196056
0.282331
0.23395
0.205744
0.176906
-0.0749791
-2.03468
-1.57424
-3.39105
-4.58218
0.183903
0.132348
30.64
-3.7697
-7.53776
0.156893
0.114621
0.0428533
0.285185
0.340128
-8.2193
0.117629
-0.0296624
31.6646
0.252742
0.179863
0.222906
31.5483
0.142952
0.138367
0.132949
0.212899
31.5768
31.6846
0.245776
0.122371
0.163407
0.0614482
31.3893
31.532
30.6042
0.269878
0.254206
0.104573
31.5423
0.182473
31.7014
31.7982
0.151771
0.123118
30.5677
0.121096
0.147705
-0.0697511
30.5899
31.5451
0.17616
0.281575
31.7364
0.117998
0.26228
-0.155538
31.9625
31.9894
31.8568
-0.164502
0.121065
0.217321
0.270692
30.567
0.131048
0.232481
0.192207
0.234811
30.7572
31.5227
0.33714
0.12337
0.123393
0.245717
30.7481
-0.352883
30.5955
0.138952
-0.0402734
0.228769
30.9453
28.6324
0.0610789
0.179988
28.0724
28.2507
30.5919
0.309833
30.2762
26.8539
0.235258
0.242599
30.5967
27.6219
0.248961
0.302018
0.168669
0.231764
0.226491
28.0968
0.290067
25.7771
25.1279
31.6225
0.218941
0.30043
0.107786
25.2855
33.849
0.315697
-0.0349965
0.333354
0.274133
0.24326
0.267163
0.231751
0.361175
24.8153
0.215116
0.1259
0.339033
0.274123
0.216076
17.9384
0.222433
0.217854
0.233599
0.223029
0.154347
24.0143
28.6202
0.24821
28.8549
29.2397
0.271752
28.9156
0.246504
28.2267
28.5792
30.7679
27.452
0.242783
0.15463
0.188563
28.1732
0.197298
0.23314
0.155858
28.6414
31.5341
0.249641
0.257902
-0.207959
0.251197
27.2758
0.0455171
0.203741
0.125032
30.5753
30.9795
0.247893
0.159087
31.0898
28.7413
0.155645
0.0189818
28.1029
0.120275
0.104279
0.144009
0.275993
28.4122
0.247791
4.39015
0.195763
0.392191
0.233743
0.107265
0.229829
0.208657
0.311491
27.7839
0.264387
0.298816
-0.26043
0.0868523
0.164978
28.5733
0.175764
0.291923
0.212159
0.182475
0.274974
-0.211354
0.52627
0.0504183
0.226156
0.19666
0.202179
0.186939
0.2393
0.259333
0.30116
31.633
-1.23041
31.5438
0.258463
0.271515
0.17271
0.102887
0.309681
0.234187
0.254294
-0.0474939