/*--------------------------------*- C++ -*----------------------------------*\
  =========                 |
  \\      /  F ield         | OpenFOAM: The Open Source CFD Toolbox
   \\    /   O peration     | Website:  https://openfoam.org
    \\  /    A nd           | Version:  10
     \\/     M anipulation  |
\*---------------------------------------------------------------------------*/
FoamFile
{
    format      ascii;
    class       volScalarField;
    location    "9.1";
    object      SgT;
}
// * * * * * * * * * * * * * * * * * * * * * * * * * * * * * * * * * * * * * //

dimensions      [1 -1 -3 -1 0 0 0];

internalField   nonuniform List<scalar> 
111485
(
3.85919e-17
9.48438e-06
2.87623e-05
3.33536e-18
5.89568e-05
1.03561e-18
5.53974e-05
7.23834e-06
2.30237e-05
1.44693e-06
5.59206e-05
1.12394e-05
5.76173e-06
1.05513e-06
7.85895e-06
3.63538e-05
1.69086e-06
0.00312912
1.24943e-05
1.74038e-16
7.23411e-17
2.74543e-18
3.16406e-05
4.14095e-05
1.06595e-05
6.52184e-18
4.76672e-05
2.18483e-06
1.79746e-05
2.79589e-18
5.50052e-05
2.27759e-05
3.273e-17
2.08227e-18
7.94751e-06
8.11008e-18
1.32333e-05
5.01115e-06
4.73233e-11
2.83556e-05
1.90094e-18
8.50642e-05
1.89666e-05
1.74579e-06
7.39259e-08
2.31233e-16
3.60693e-05
8.53842e-07
5.6676e-05
3.16742e-18
1.20433e-17
1.19836e-17
1.83715e-17
6.15025e-05
7.35894e-17
5.25425e-05
3.75447e-06
6.80361e-19
2.56028e-08
5.71861e-06
1.92127e-05
1.77188e-17
5.70837e-06
0.000117429
7.61856e-18
3.79102e-06
0.00037926
0.000112997
1.32608e-06
7.22105e-06
1.83441e-08
7.75321e-06
1.31249e-17
3.46092e-06
1.60618e-17
8.47177e-07
2.71813e-18
5.01119e-05
5.96447e-18
3.1622e-17
3.23015e-09
4.00227e-05
5.07545e-19
1.73291e-17
1.10814e-05
4.66695e-06
4.51623e-13
3.05403e-05
7.17231e-08
8.79392e-06
3.28303e-07
4.925e-05
1.41542e-05
7.16234e-08
6.28591e-05
1.27265e-17
8.98386e-18
2.13258e-06
3.2215e-11
1.36527e-06
4.25262e-17
2.15821e-05
3.22034e-19
2.18395e-05
5.55452e-06
7.76768e-18
3.55705e-18
9.04512e-06
4.86054e-06
7.4795e-11
6.66747e-06
5.79808e-06
4.47279e-06
3.79975e-06
1.96244e-17
4.03325e-08
6.76928e-18
1.11739e-18
1.54119e-05
7.43743e-17
3.86233e-18
3.55383e-17
4.12921e-18
1.7625e-19
1.95877e-06
3.65051e-09
6.4262e-18
1.99421e-06
2.59498e-18
3.8253e-08
1.73788e-06
3.91824e-05
6.26139e-17
1.8317e-17
3.07174e-18
5.81728e-05
1.90041e-17
5.06088e-05
3.03019e-05
3.35467e-06
2.87474e-07
2.39628e-06
2.68136e-05
3.20941e-06
4.82675e-06
1.55196e-05
6.76175e-18
7.67798e-18
1.00679e-17
3.35507e-05
1.85359e-06
7.34281e-18
2.68872e-10
5.68794e-06
5.25369e-10
1.31144e-05
1.94552e-05
1.29037e-05
7.7299e-11
8.80404e-18
1.07043e-17
6.28852e-05
2.77208e-05
2.18849e-09
3.86266e-10
7.02316e-06
4.08735e-06
1.48431e-18
5.34159e-09
5.42247e-08
1.16834e-18
4.81724e-18
1.58136e-07
2.72533e-19
6.66632e-06
2.50618e-06
3.74723e-18
7.83223e-18
3.85118e-17
2.07199e-17
2.1595e-18
5.71788e-18
1.77465e-06
8.14918e-06
3.56505e-05
4.96343e-06
9.06474e-06
4.85017e-06
9.23043e-08
1.08777e-17
5.80714e-06
8.00779e-18
6.40103e-17
7.81613e-06
1.24979e-05
3.40179e-05
1.34926e-05
6.0079e-06
1.0582e-17
7.98352e-06
5.81291e-07
5.1465e-08
1.68423e-05
2.78953e-06
4.26402e-18
4.49769e-06
3.09119e-05
2.39362e-17
1.93699e-07
9.3346e-06
2.38661e-06
4.29324e-07
1.48725e-17
3.1119e-17
9.97847e-06
1.30534e-14
0.000144882
1.50894e-18
8.01534e-06
2.45423e-05
0.000144113
6.73875e-17
3.83857e-06
1.66312e-05
3.78801e-16
1.59884e-18
2.85176e-18
0.000181043
3.15565e-10
1.55734e-17
5.10466e-18
1.16705e-05
9.29003e-06
1.83009e-05
2.74704e-17
6.88431e-17
1.68761e-08
1.30493e-17
2.9522e-06
1.11118e-05
1.92718e-05
1.40657e-05
1.19066e-05
2.6936e-18
3.03116e-10
7.46733e-07
8.18919e-18
2.08878e-18
3.65713e-05
2.47814e-05
1.34678e-17
7.64032e-06
1.28208e-05
4.2368e-18
1.09369e-16
1.6177e-07
1.51708e-17
1.87156e-18
5.29665e-08
2.21421e-17
1.78486e-05
1.29794e-05
4.4463e-06
1.08275e-17
1.39868e-05
2.02935e-18
3.9123e-18
6.74307e-18
2.3852e-11
2.76442e-05
7.48075e-06
6.43343e-06
4.37823e-05
1.48076e-05
1.8946e-06
6.63971e-07
3.88989e-05
1.05927e-05
7.09824e-18
1.77562e-18
3.01147e-10
2.68936e-05
2.92499e-05
1.43106e-05
5.28836e-18
8.36823e-06
2.48045e-06
3.63676e-06
4.20427e-09
4.22831e-09
1.62721e-05
2.69637e-06
2.38223e-06
6.07556e-19
7.72273e-07
1.48834e-18
2.09498e-10
6.32241e-16
0.000286965
8.11529e-05
1.43448e-05
3.35434e-17
1.34814e-20
1.0712e-05
1.95307e-06
3.34314e-17
1.11444e-18
1.46211e-16
3.68459e-07
6.97721e-05
4.71809e-06
1.63036e-05
2.27487e-05
4.4896e-18
9.99476e-19
4.66142e-18
4.56688e-06
2.63921e-15
1.21048e-06
0.000221072
3.66782e-10
1.05191e-18
7.53337e-18
3.35572e-19
6.46426e-18
7.16755e-05
1.43168e-05
4.36783e-20
6.26641e-06
2.17026e-18
3.39435e-17
8.29849e-05
7.01953e-06
1.3401e-05
1.11973e-05
6.30323e-17
1.84383e-18
2.85925e-18
1.12676e-05
2.21994e-05
6.16332e-06
4.17478e-17
3.74627e-13
1.88598e-07
2.60201e-06
9.56602e-06
4.11725e-08
3.39448e-05
1.80158e-18
4.46757e-05
4.24048e-06
9.34869e-06
3.00774e-05
1.61993e-05
3.90942e-18
1.88907e-17
7.99045e-19
7.93608e-18
3.74704e-05
1.16159e-05
3.95242e-05
8.04748e-05
3.61498e-18
2.23429e-05
8.47861e-19
5.48446e-17
2.00219e-05
1.31518e-19
9.21806e-05
3.80883e-17
1.15118e-19
2.77053e-05
2.88631e-21
1.6267e-05
3.27908e-07
5.10563e-18
1.2025e-06
1.96766e-05
1.66775e-18
1.07265e-05
1.09927e-05
9.76786e-06
7.94511e-07
3.22036e-06
6.64789e-06
2.59545e-17
3.11653e-17
2.24736e-06
5.93408e-19
7.4183e-06
0.000142067
4.55321e-18
2.53984e-18
3.24186e-05
1.36905e-07
9.89613e-06
2.56424e-05
1.02845e-18
5.46813e-05
2.29342e-05
6.65309e-18
9.95016e-07
2.90837e-06
6.9587e-18
2.78319e-17
1.32114e-05
6.29636e-06
1.79952e-18
1.69283e-17
4.20145e-11
2.76535e-17
1.44811e-05
3.8886e-18
2.16255e-17
2.03971e-05
2.01356e-09
1.44155e-05
3.60674e-05
6.93219e-18
2.38298e-17
1.7896e-06
2.54163e-18
1.79433e-07
1.69826e-05
0.000147103
0.00101191
1.39347e-17
3.29974e-06
6.15133e-07
7.54813e-17
4.69679e-05
3.78519e-05
4.05429e-17
8.49801e-12
1.08495e-07
6.77236e-18
2.91718e-05
2.89487e-05
1.68053e-05
2.59222e-17
7.96268e-07
2.16309e-05
2.73676e-05
9.88194e-10
3.25757e-17
7.57948e-13
7.62156e-18
1.54981e-08
3.73084e-05
3.3176e-19
1.00816e-05
1.13991e-07
8.77582e-17
2.09329e-17
1.34448e-17
3.31027e-17
4.78698e-06
1.14798e-05
7.85513e-06
2.48199e-06
3.22126e-06
7.81438e-18
2.32494e-06
6.35001e-17
4.91035e-05
8.82329e-19
1.06496e-17
7.77032e-19
4.38216e-05
8.4476e-18
5.37783e-18
2.01572e-10
4.8754e-18
9.66887e-19
1.26093e-06
9.34171e-20
3.16595e-17
1.89321e-18
2.70901e-17
2.21295e-17
4.96658e-18
1.35394e-17
8.41164e-06
1.64859e-17
6.45568e-07
2.29137e-06
1.08321e-06
1.33765e-17
1.02616e-06
6.11255e-18
4.43688e-18
3.36379e-06
2.16426e-06
3.27626e-05
3.0103e-05
1.0608e-17
2.45763e-06
9.8567e-05
1.02228e-05
1.21808e-06
3.94093e-06
1.03296e-17
2.77535e-05
3.20352e-17
6.01722e-06
3.04487e-18
9.15962e-05
1.92715e-17
2.57534e-05
2.94789e-07
6.18768e-10
3.69844e-18
2.44543e-06
7.38125e-18
9.57144e-05
5.88173e-05
1.7086e-18
2.36623e-19
1.8718e-17
5.77096e-20
1.66254e-12
6.50393e-05
1.08657e-17
4.49766e-19
2.90764e-06
8.94268e-18
4.05695e-05
3.47792e-19
3.7396e-07
4.38882e-17
5.83159e-07
1.30911e-09
1.19105e-06
1.56526e-05
6.28295e-17
4.99625e-07
3.74973e-17
3.69015e-18
1.80522e-05
5.76642e-18
3.61983e-08
6.71633e-18
1.9302e-06
6.53171e-19
7.77651e-05
1.87828e-17
1.73339e-17
2.13691e-05
4.00667e-06
2.11186e-06
4.72219e-06
8.25829e-06
2.48162e-05
1.3249e-18
3.00774e-05
7.36759e-06
1.53152e-18
9.54309e-11
4.82448e-05
1.82232e-05
7.0108e-17
4.62453e-06
8.02297e-06
2.07388e-06
1.24153e-06
2.75689e-13
1.6258e-05
1.47341e-06
1.55564e-07
2.84596e-05
1.635e-05
7.36798e-07
1.06774e-17
3.88672e-12
0.000780638
1.51718e-17
4.15043e-07
7.84369e-20
8.32785e-17
8.81524e-06
3.36866e-06
2.6858e-10
1.87043e-08
6.56371e-17
1.96849e-05
1.32705e-05
5.49892e-18
1.8214e-13
2.30558e-06
3.52346e-17
4.69507e-18
1.34023e-18
5.03024e-18
1.56552e-05
1.22886e-17
2.92492e-17
1.04717e-05
2.31851e-06
8.04145e-17
1.27169e-05
9.3801e-18
1.01176e-05
1.6712e-17
1.2912e-17
6.33171e-05
7.2047e-18
2.04271e-17
1.65063e-17
5.23462e-06
3.871e-17
3.4629e-05
7.48525e-06
2.20981e-17
0.000105901
2.91634e-06
3.42695e-05
3.37437e-05
5.46646e-07
9.32971e-08
1.75631e-17
6.49868e-05
5.58828e-05
7.97827e-17
3.87294e-07
4.77489e-05
9.39918e-06
1.69733e-06
3.28471e-05
3.11424e-05
1.71328e-18
1.29261e-05
6.6306e-09
6.90377e-18
4.14707e-05
3.10662e-07
3.88956e-17
1.30046e-05
4.85613e-05
1.61785e-06
2.55819e-05
2.35946e-05
8.37784e-06
5.62221e-17
1.23559e-05
3.84161e-07
4.82806e-15
2.05494e-05
2.14149e-05
4.30717e-05
1.33164e-18
2.24494e-06
2.08765e-19
7.79236e-18
3.71035e-18
5.29022e-18
1.66683e-08
3.16116e-18
3.95869e-13
3.76072e-17
1.5667e-18
9.32239e-08
5.19851e-05
4.04018e-17
3.78094e-05
8.73495e-17
3.92881e-17
4.53287e-17
4.65681e-05
4.80174e-07
5.0563e-17
7.51282e-17
6.74886e-18
2.49954e-18
0.000249874
8.28789e-05
6.50304e-18
2.37274e-06
2.48441e-09
7.33131e-19
4.46783e-05
1.00402e-05
1.44386e-05
5.86931e-18
8.56471e-18
5.12243e-07
1.30351e-06
4.74017e-17
1.97576e-18
6.99828e-17
8.74365e-06
9.11575e-18
5.10319e-18
2.17896e-17
5.00645e-05
2.43562e-06
3.68188e-18
0.00463456
0.000403234
1.20905e-05
1.90901e-18
9.05677e-18
6.58067e-05
4.98205e-07
6.76085e-18
6.44996e-09
0.000137233
2.9258e-06
1.34186e-05
2.26927e-18
6.33166e-05
2.23691e-06
2.1872e-19
5.41144e-18
1.52788e-17
7.85263e-19
4.95012e-18
8.55136e-19
2.64216e-05
2.34693e-17
1.30926e-18
3.86599e-17
1.37053e-05
2.76506e-05
1.28233e-17
6.17452e-18
0.000127041
1.72159e-05
1.1438e-05
4.65575e-17
4.86921e-19
4.4594e-05
2.24528e-18
2.08912e-06
3.1054e-06
4.59077e-06
3.63135e-17
3.19952e-18
1.54022e-18
2.93831e-18
1.78804e-05
9.26242e-18
8.82847e-19
1.21716e-06
4.14452e-17
2.75555e-05
2.23911e-06
1.5084e-17
4.43228e-05
0.00043185
3.04076e-06
3.4726e-05
1.69483e-07
5.30236e-05
1.0659e-13
1.37169e-17
2.8222e-05
8.27053e-05
7.2431e-06
1.78127e-17
7.25475e-13
0.000898835
1.20779e-05
3.11422e-18
2.95059e-06
3.05739e-06
1.40403e-06
2.7756e-17
7.99618e-18
3.88795e-17
1.58349e-05
4.29485e-17
3.09983e-06
4.81058e-18
1.5154e-06
1.6883e-06
4.39795e-05
6.52988e-07
2.46204e-18
3.48541e-18
5.61744e-18
2.46732e-05
1.94183e-18
2.66492e-18
8.34225e-08
1.72158e-18
6.2443e-19
1.90761e-17
2.34657e-18
1.20626e-05
7.85036e-18
4.68485e-18
5.33811e-13
5.58782e-18
3.00793e-18
1.06301e-16
2.60217e-18
3.35763e-09
1.92144e-06
3.58604e-17
4.76328e-06
7.85631e-09
3.44278e-10
7.22811e-08
4.8406e-06
9.44922e-19
1.12984e-08
1.18154e-05
4.75254e-07
1.95762e-18
3.12689e-12
1.01968e-06
2.31912e-18
1.16738e-05
2.17332e-07
1.95095e-09
2.80489e-05
1.11842e-05
2.6963e-06
5.94664e-06
2.40196e-06
2.3975e-18
3.14813e-18
3.9514e-05
3.1383e-05
2.73931e-18
1.00078e-05
6.42825e-05
3.40133e-05
4.84336e-17
1.51453e-06
5.69747e-18
1.23536e-05
1.66185e-05
6.70243e-17
1.89098e-06
5.51708e-07
1.41995e-09
5.90586e-06
3.76759e-18
5.84329e-05
1.76773e-08
1.78279e-06
3.78972e-08
1.39337e-08
9.40826e-18
1.55516e-17
8.32725e-06
2.63623e-18
1.42534e-07
2.9854e-07
3.33778e-07
6.51552e-11
8.43113e-11
3.40759e-10
1.86616e-18
3.17317e-17
2.77263e-05
3.24908e-17
1.40192e-07
2.42053e-06
2.0883e-17
1.40646e-17
7.57621e-10
1.06394e-12
2.98684e-18
5.99656e-09
5.60689e-19
6.05704e-18
2.66838e-17
2.59994e-17
2.75774e-17
1.10707e-17
3.28174e-07
4.33884e-17
1.42205e-18
1.26148e-17
7.63525e-09
6.22704e-08
2.1474e-06
1.12253e-05
2.52451e-19
7.95041e-18
2.00675e-07
1.19085e-17
8.31154e-18
7.32053e-17
2.21211e-05
5.05791e-05
1.39862e-17
3.46866e-18
9.96303e-18
2.63245e-17
1.07307e-18
1.4938e-17
8.29136e-06
2.31759e-18
6.34906e-11
3.19674e-05
3.3086e-18
1.52989e-17
1.94456e-17
3.32323e-08
2.36402e-17
4.35845e-18
3.44138e-18
1.11363e-08
4.29432e-18
5.18564e-06
1.10841e-09
6.79328e-12
1.82074e-17
8.97252e-08
2.35489e-06
5.26447e-05
5.54489e-18
1.01791e-08
6.68571e-06
3.74015e-17
7.21998e-18
1.49238e-17
2.49839e-17
1.00756e-05
1.94826e-06
3.88931e-06
2.10094e-10
9.41405e-19
2.60647e-05
1.74878e-17
4.33267e-17
5.51223e-17
4.24929e-18
3.15875e-05
1.5196e-18
1.8499e-17
2.04312e-09
6.14269e-05
2.44824e-18
2.84859e-06
2.22806e-17
9.83045e-07
2.17987e-17
6.82447e-18
6.50689e-18
2.08317e-17
2.9105e-06
7.11947e-07
0.000361366
6.98586e-19
4.88484e-17
2.36801e-06
2.82541e-19
8.97632e-18
9.01973e-17
4.36911e-05
1.13673e-08
3.8667e-05
1.85514e-17
1.25955e-08
5.89016e-08
5.65847e-17
1.50092e-07
1.00381e-17
1.42735e-06
3.01897e-05
2.44319e-05
1.43585e-06
2.8109e-07
2.11984e-17
5.52709e-18
5.06193e-18
2.6205e-08
5.61709e-19
8.93151e-06
2.60596e-17
0.000210603
4.03335e-18
4.91047e-05
3.71857e-06
1.83064e-17
2.37785e-18
7.73306e-17
1.34293e-18
4.94251e-05
5.24402e-17
1.92947e-17
1.41329e-05
8.19152e-06
6.5694e-17
1.02755e-17
1.13178e-17
1.98934e-17
7.45608e-17
4.37675e-18
3.08586e-05
4.94455e-07
1.09914e-17
2.88406e-18
6.35268e-10
1.21473e-19
1.89623e-06
1.27765e-07
1.27774e-17
4.20085e-06
1.15534e-17
4.55015e-07
2.71875e-19
1.32523e-06
2.27447e-17
8.70821e-11
2.54639e-09
7.4938e-07
2.16585e-05
4.06966e-05
1.40401e-09
1.55426e-17
6.11821e-07
2.29158e-17
5.47964e-06
5.28842e-18
3.98011e-18
2.1151e-17
2.40556e-18
1.94881e-18
1.0088e-17
8.60678e-06
9.73412e-06
1.6406e-17
5.91465e-17
1.86003e-16
9.12644e-07
1.58358e-08
5.97324e-18
2.16838e-05
2.14272e-07
2.97108e-18
2.79262e-05
9.82144e-06
4.30917e-06
1.36778e-05
4.96088e-18
1.40618e-18
8.61073e-18
2.48041e-18
4.41039e-05
7.6188e-18
0.000136621
4.31579e-18
3.82024e-07
8.69892e-07
2.74331e-19
1.14928e-06
6.74547e-19
5.14585e-18
3.68275e-06
2.61918e-11
1.14332e-05
3.80149e-18
1.19179e-17
5.69862e-18
9.97358e-07
3.07003e-18
3.03239e-18
2.1463e-17
3.35309e-10
2.70781e-18
7.98135e-09
1.13043e-16
1.21438e-17
3.06988e-19
2.16902e-05
1.18601e-05
2.19025e-05
4.31641e-05
3.96303e-17
1.9624e-08
2.03436e-18
2.76439e-18
1.17341e-05
1.29947e-18
2.59383e-09
4.33731e-07
7.91489e-06
4.31361e-07
1.29102e-12
2.25761e-06
1.18551e-18
1.45908e-12
4.81959e-13
1.49884e-07
9.35613e-07
1.77305e-05
7.5531e-11
6.05646e-17
3.63085e-05
1.45208e-17
3.78596e-18
1.65008e-08
8.98219e-05
6.62199e-11
2.85127e-18
9.31338e-19
3.61572e-10
1.02539e-17
4.47667e-18
2.15587e-08
1.2351e-17
1.13776e-17
4.85257e-05
2.69879e-07
2.13519e-07
2.71196e-05
8.68703e-06
1.76312e-17
1.77107e-18
2.20739e-08
4.8236e-06
9.90305e-18
7.81928e-18
1.14936e-05
2.83387e-17
1.06516e-17
3.22114e-17
4.30165e-17
2.0842e-16
0.00308494
1.49134e-18
2.59162e-07
7.33142e-18
2.53388e-05
3.14601e-18
8.89378e-16
4.27355e-17
4.11256e-18
4.50714e-18
1.11444e-17
3.34083e-06
1.05016e-17
1.44728e-17
4.30213e-17
2.72942e-17
9.52213e-18
2.74058e-18
1.17042e-05
6.16676e-18
1.32639e-05
3.6929e-06
1.28074e-18
1.94033e-06
2.97194e-18
5.92869e-07
2.38429e-09
4.55848e-06
1.56319e-05
2.22005e-17
1.09007e-07
9.27484e-06
1.11939e-08
3.02187e-17
3.12975e-09
2.22715e-05
5.64648e-06
2.10768e-17
3.10376e-05
2.91544e-17
3.7854e-18
1.50762e-18
1.83181e-17
9.74545e-06
9.54167e-18
2.0473e-18
9.83968e-06
3.8941e-10
3.22485e-06
4.39668e-19
1.41391e-16
8.02081e-07
4.02811e-18
8.13184e-08
2.14805e-17
2.78399e-05
1.1172e-17
2.9893e-18
6.70369e-08
5.84016e-18
1.64895e-07
3.38033e-17
6.24134e-18
5.64469e-06
5.0941e-07
5.66701e-06
1.84655e-05
0.00026373
2.4337e-05
2.0854e-18
4.00457e-17
3.5694e-06
8.00694e-06
4.36278e-05
1.28095e-05
3.35325e-18
1.45125e-05
1.82217e-17
1.86557e-17
1.08984e-05
1.30964e-05
9.88503e-18
1.57061e-05
3.37612e-18
3.25786e-06
1.04264e-05
2.8165e-17
3.19386e-19
3.12974e-18
3.3551e-06
4.12434e-18
8.84666e-18
4.99754e-06
2.53246e-05
4.24243e-09
8.85525e-06
7.37495e-18
8.05498e-18
9.9526e-08
9.06338e-07
8.49436e-17
1.24223e-05
8.10669e-17
3.16598e-06
5.20495e-19
3.63555e-18
1.47286e-05
1.59237e-17
4.55605e-08
4.33922e-06
7.55459e-18
1.79356e-18
5.28818e-06
6.37417e-14
6.22751e-05
5.29105e-17
0.000306797
1.2818e-17
1.07268e-16
2.94235e-18
8.96484e-06
1.7175e-17
5.64337e-18
6.65117e-06
4.15528e-17
2.90783e-07
3.88737e-17
1.11557e-17
8.94893e-18
1.2259e-10
9.17628e-07
1.61779e-18
4.88282e-18
4.16837e-05
1.11256e-06
4.50684e-18
5.1549e-07
1.09231e-18
8.76425e-18
1.97933e-09
3.1021e-06
1.56829e-06
8.34147e-18
1.7283e-17
2.76374e-18
1.19268e-18
9.91305e-18
2.93852e-17
5.78278e-18
6.44161e-18
1.21784e-17
1.51884e-18
2.1984e-18
7.87843e-18
3.24878e-17
9.20379e-18
1.61012e-18
9.14785e-18
6.53757e-19
5.45695e-18
1.74745e-18
3.02742e-18
2.1727e-18
2.07052e-05
2.81949e-18
7.06896e-18
9.85074e-19
7.87096e-06
9.37902e-19
2.01346e-17
0.000345218
1.10058e-18
5.5154e-18
2.75062e-05
4.50036e-15
1.42859e-17
9.12976e-06
2.91389e-05
9.20873e-19
3.27554e-06
4.8802e-06
3.41773e-17
1.58285e-05
4.68841e-05
2.12267e-05
4.01587e-06
1.27357e-05
5.79016e-17
3.03175e-17
3.49215e-06
1.22439e-05
3.8208e-06
1.14369e-17
7.81772e-06
2.09657e-06
2.54282e-05
1.20833e-05
8.26035e-07
1.85868e-05
1.25133e-06
1.20887e-05
2.23342e-17
2.92972e-05
1.00177e-05
1.9448e-06
1.63353e-06
1.56609e-19
9.61955e-18
4.15146e-19
2.67011e-17
7.22061e-18
1.06703e-05
1.61311e-05
1.61374e-19
1.72095e-18
9.6349e-17
2.63049e-18
5.51658e-18
3.38638e-17
8.81729e-18
7.69066e-17
5.39772e-06
2.19053e-07
2.57988e-05
7.99504e-08
9.75831e-18
5.47637e-17
3.63499e-05
8.39194e-09
1.19159e-18
3.71428e-18
8.60677e-06
3.50363e-17
1.13226e-17
3.74483e-09
9.30374e-06
1.59554e-05
3.99858e-05
4.06051e-05
5.40911e-18
1.65978e-05
3.95363e-07
6.80077e-18
9.90116e-18
1.40283e-05
1.98491e-17
6.5924e-18
1.94584e-05
0.00123967
2.06899e-07
9.02925e-17
2.11421e-17
2.15376e-05
2.37419e-05
2.07319e-05
6.82564e-06
4.97911e-06
7.14777e-18
1.26716e-09
3.16602e-12
2.70772e-17
4.00486e-17
2.04171e-05
3.07763e-18
2.36496e-06
2.9597e-05
2.07582e-05
1.36252e-05
3.10366e-17
7.17809e-06
1.74441e-17
8.61266e-18
3.45557e-17
6.01878e-18
2.88043e-06
0.00104014
9.94188e-19
1.49274e-17
4.25175e-09
2.71322e-05
1.35573e-06
8.14074e-06
3.85219e-05
5.64331e-06
2.43252e-05
1.40791e-17
3.62688e-18
1.69144e-17
3.51381e-05
6.66606e-06
3.19608e-11
1.53077e-17
3.42376e-17
5.17519e-18
2.61263e-05
3.29066e-06
9.64144e-18
5.75357e-06
6.85165e-05
7.81504e-06
7.20415e-06
2.7838e-17
2.40433e-17
8.11546e-06
2.6375e-05
6.3467e-18
3.98364e-07
1.72232e-05
1.17723e-06
1.06603e-05
5.45106e-06
9.42783e-06
4.93155e-17
3.86866e-06
2.41712e-05
4.24056e-05
5.52215e-13
2.65403e-05
3.48638e-16
1.9071e-05
1.86142e-07
5.88033e-18
2.99907e-06
8.83288e-06
4.45941e-07
1.33443e-05
2.03443e-10
1.51411e-07
1.68998e-08
4.81995e-05
4.26249e-06
1.13938e-17
4.46511e-05
1.51734e-06
1.16115e-17
6.93611e-18
4.82372e-11
1.25336e-08
1.20587e-06
0.00128007
4.0609e-05
1.40271e-05
2.39512e-10
5.20267e-05
3.08414e-17
2.64129e-17
4.53062e-06
1.87551e-17
2.46472e-06
4.8456e-06
2.52838e-06
5.33155e-06
2.7046e-18
2.35638e-07
0.000124964
1.86419e-17
2.16509e-05
8.68372e-06
2.75599e-18
4.66758e-06
1.53161e-07
1.16595e-17
7.58702e-12
1.0584e-07
5.925e-17
2.05979e-17
3.82984e-20
5.06212e-06
5.63809e-06
1.63376e-05
3.43772e-18
5.72256e-06
3.81625e-05
6.29589e-18
9.25288e-06
1.42937e-05
2.78339e-05
1.77565e-06
2.72986e-18
6.73214e-07
1.08425e-05
1.20281e-05
1.04226e-05
4.28061e-05
0.000188128
3.87984e-06
1.12249e-17
8.71542e-09
5.75989e-05
2.04184e-17
4.90367e-07
5.95314e-20
7.2523e-20
9.68381e-18
8.95524e-19
2.81492e-18
3.68996e-06
2.14102e-18
8.26405e-06
1.31167e-06
1.0051e-17
4.3281e-06
1.59378e-17
1.60528e-05
9.10219e-18
2.60156e-08
3.59036e-17
2.51544e-05
1.82109e-07
2.9113e-09
4.84195e-06
3.27252e-05
1.91385e-05
4.42037e-06
3.10433e-05
6.25602e-15
2.59684e-05
6.17463e-05
1.08242e-05
2.03923e-17
1.26112e-06
2.95628e-07
6.41905e-06
1.1684e-05
6.88649e-07
2.42061e-17
5.58446e-18
1.60712e-18
4.0816e-06
3.74167e-17
3.44965e-07
2.48881e-07
1.86404e-06
3.22853e-07
7.87676e-18
1.54697e-17
1.70737e-18
9.98847e-06
2.46315e-05
1.3736e-06
1.1015e-08
2.14094e-06
7.84005e-06
2.23988e-06
8.94334e-07
7.56781e-06
6.86653e-06
3.01528e-06
2.0021e-17
2.41282e-18
5.24828e-17
1.49253e-05
1.2199e-05
4.31426e-17
6.7499e-19
1.50782e-16
9.51253e-06
2.11951e-05
4.1912e-17
2.48257e-06
2.43116e-17
6.97823e-10
5.30843e-06
0.000101577
8.82734e-19
7.81431e-19
4.07993e-06
2.26615e-17
6.71394e-08
1.33684e-05
1.64595e-17
1.22453e-05
3.70751e-05
2.1028e-05
1.3935e-17
1.55184e-06
7.43506e-18
9.76314e-08
5.54141e-05
2.1396e-17
3.76834e-17
1.22361e-05
3.98901e-16
1.14109e-17
5.07007e-08
1.08752e-06
3.65973e-17
1.20665e-17
1.65642e-17
6.99683e-08
1.38865e-06
3.47322e-06
2.92879e-05
1.04073e-05
9.44823e-18
8.07967e-10
7.51496e-07
9.29231e-19
3.10666e-18
1.00234e-17
2.01893e-17
8.41616e-18
7.07151e-18
2.5224e-17
9.66051e-18
9.95908e-18
1.35316e-17
2.72097e-12
1.73334e-17
3.83014e-07
2.03215e-17
2.70477e-07
7.04103e-17
6.9018e-08
3.4615e-17
7.55824e-18
3.22862e-05
1.01946e-05
2.54401e-17
0.000100417
1.2408e-11
4.15679e-13
5.08068e-18
1.49141e-06
9.55095e-15
3.08484e-06
7.42084e-09
9.54034e-07
6.01043e-19
1.9236e-17
1.03531e-06
2.67681e-11
5.6061e-18
4.59395e-18
4.38255e-05
1.20581e-17
4.15434e-05
3.89463e-17
3.17976e-20
1.9952e-09
3.17198e-05
8.98876e-06
1.26419e-17
3.59423e-07
3.33526e-17
3.59873e-06
2.07186e-08
2.02376e-06
1.07695e-06
5.02507e-19
2.29352e-05
1.34554e-06
5.84474e-06
1.96002e-17
1.73707e-17
9.36779e-18
2.1859e-05
4.42371e-06
5.8583e-05
3.74198e-18
5.30563e-10
2.06927e-18
1.2046e-17
1.23507e-16
1.07942e-17
3.70196e-06
2.51286e-06
3.37569e-06
0.000359279
9.54494e-17
3.06322e-05
4.01805e-05
1.94988e-05
1.9681e-06
1.00703e-19
5.88527e-06
5.14221e-06
6.91925e-06
3.64036e-10
1.13828e-05
1.82954e-17
1.70177e-06
1.4307e-06
3.67157e-05
1.31926e-09
3.78554e-06
2.22518e-17
2.12225e-05
6.7317e-18
3.73896e-17
1.85348e-06
1.3887e-18
6.86529e-06
6.11973e-18
2.91094e-17
4.87941e-18
9.36628e-18
4.93965e-17
9.12475e-07
3.90674e-17
6.10984e-07
1.75961e-17
1.84761e-17
2.0023e-05
6.07361e-06
8.93404e-06
8.3347e-06
1.49465e-17
0.000660655
2.48665e-18
7.83721e-05
1.31637e-17
1.98909e-05
2.69351e-05
2.69087e-06
6.38209e-05
3.30714e-17
6.80456e-17
9.65249e-19
2.42798e-06
8.48742e-19
9.76549e-18
1.9834e-05
7.84403e-18
1.12307e-17
6.09292e-06
1.39064e-17
1.42946e-05
7.71476e-11
8.81084e-18
2.48939e-18
6.35426e-18
1.82134e-06
7.64405e-06
1.37678e-17
2.56201e-05
3.88964e-07
3.02607e-18
0.000116713
2.37294e-17
1.76488e-05
2.02662e-05
4.03219e-06
2.20573e-17
2.00417e-05
1.10008e-05
9.71845e-07
6.06575e-06
1.42906e-05
7.43688e-17
1.52761e-17
2.03912e-09
9.2032e-18
7.20672e-18
2.24009e-18
2.20447e-05
5.11772e-05
5.01226e-06
2.47624e-06
3.55528e-18
5.6785e-05
5.18481e-05
4.7808e-06
2.73536e-06
1.05879e-05
2.36358e-05
3.06597e-06
9.10119e-18
2.11653e-18
1.86722e-18
7.92751e-06
4.74596e-18
2.79173e-05
5.05262e-17
8.45614e-07
6.52092e-10
2.92539e-06
2.51062e-05
2.07435e-17
2.10963e-17
2.83073e-06
4.16131e-07
2.734e-17
7.24461e-18
4.639e-17
3.81355e-08
3.65363e-07
1.68138e-07
9.45372e-07
1.14749e-05
9.80885e-05
6.51475e-17
3.01574e-17
4.90048e-18
4.23216e-06
2.00863e-05
2.26629e-05
3.99171e-05
1.98708e-06
3.38117e-06
5.38685e-18
2.52884e-17
9.14934e-17
2.28255e-17
1.07079e-05
2.552e-05
2.81581e-17
2.65478e-17
4.39779e-18
1.08855e-17
1.09651e-16
5.09265e-17
1.57604e-05
1.89258e-16
1.09494e-06
0.000466447
8.51236e-18
1.57945e-08
2.60732e-05
8.65156e-07
1.34962e-18
8.05336e-18
5.64799e-06
1.93678e-17
1.62669e-05
1.14859e-09
2.77891e-05
3.91327e-18
2.31602e-15
9.1215e-19
9.38054e-18
7.06327e-18
1.12249e-17
0.000228374
1.4593e-17
6.82513e-06
1.37599e-06
2.6545e-17
2.44422e-17
2.22315e-06
4.40564e-17
1.76235e-18
1.29443e-05
1.50875e-07
2.57557e-17
1.38009e-17
3.66456e-18
1.92308e-05
2.49292e-17
2.71036e-17
4.78948e-07
3.02146e-06
3.53791e-06
9.99914e-18
3.83601e-18
6.74477e-18
4.39605e-06
2.13485e-06
1.49942e-05
4.29227e-06
3.08234e-18
9.19679e-07
1.35448e-05
7.40883e-06
2.32792e-18
1.61784e-17
5.18841e-18
9.19002e-18
3.30389e-17
3.57375e-05
6.00167e-06
6.37961e-06
4.62035e-17
6.94023e-18
2.03046e-17
1.44165e-18
1.07006e-18
1.13255e-09
2.78039e-07
2.56965e-06
4.84629e-18
3.91676e-17
7.05549e-17
2.66802e-12
3.99495e-05
0.000131111
3.01656e-19
8.30709e-13
2.27802e-14
4.6088e-17
1.1808e-17
4.40211e-06
7.53863e-06
5.48155e-18
3.40473e-17
3.3356e-06
5.73812e-17
8.1015e-07
1.256e-06
0.00241485
1.18452e-17
7.99367e-18
1.39725e-05
6.14544e-07
1.43397e-18
0.000769738
6.89149e-07
7.25089e-06
2.07393e-17
7.67409e-17
3.71372e-17
2.88523e-17
9.28535e-06
1.0512e-07
1.24336e-16
2.91973e-05
2.20619e-05
0.000994578
1.95285e-17
1.18165e-17
1.66084e-18
1.03774e-17
7.55388e-06
7.96741e-11
3.39314e-17
1.01543e-17
2.15902e-05
1.0762e-06
5.55337e-06
3.75826e-17
1.39132e-17
3.3106e-05
1.09579e-17
2.92714e-17
2.13059e-17
2.20075e-17
2.48597e-05
1.53509e-17
1.24278e-17
1.70977e-17
2.89545e-05
1.38541e-05
5.98104e-18
1.10361e-18
6.98675e-18
1.75562e-05
2.12278e-10
4.83075e-18
1.1414e-17
1.0531e-17
3.24399e-17
2.76746e-06
1.26662e-05
4.64587e-18
2.32686e-06
1.28387e-06
5.51594e-06
7.21318e-17
5.78618e-18
6.68606e-18
3.41892e-18
2.09058e-18
2.2397e-05
3.36032e-16
1.65655e-05
6.77724e-18
1.76118e-06
1.45777e-18
2.7454e-06
1.46398e-17
1.39771e-18
1.23806e-05
0.000189713
5.30057e-17
4.12276e-06
3.79789e-17
4.47497e-07
4.04901e-17
1.92712e-17
2.35024e-17
1.47819e-10
1.61208e-17
3.51249e-07
8.65954e-19
4.02697e-05
2.58118e-18
4.01154e-18
5.84664e-20
1.13781e-17
8.95888e-09
1.53542e-07
7.36836e-18
6.4731e-06
4.62708e-19
3.16193e-06
2.12339e-05
1.45135e-06
1.61853e-20
5.36542e-09
5.03157e-07
2.48377e-09
4.79495e-06
3.61852e-10
1.92083e-06
5.07352e-17
8.57674e-18
4.90799e-10
6.53659e-06
2.72321e-07
2.8268e-17
1.92635e-17
8.72967e-18
0.000660519
4.73978e-17
8.35574e-18
1.99304e-18
3.95468e-17
1.60441e-16
3.30185e-08
2.03327e-07
1.17285e-06
7.85072e-08
1.05408e-15
1.7078e-06
1.37152e-18
6.31999e-06
8.27403e-17
3.36594e-18
7.60768e-18
2.31257e-18
2.12297e-08
1.92186e-19
3.48879e-19
3.79906e-17
1.64416e-05
1.08946e-16
4.49231e-19
1.25542e-05
2.2967e-17
8.43581e-05
0.000143417
0.000644345
2.36179e-18
0.000228974
0.00131409
0.00132681
0.000739386
1.23624e-17
3.33224e-18
5.46658e-06
5.23381e-06
6.92604e-18
1.07616e-05
2.83015e-18
3.61472e-05
2.6978e-17
5.91652e-18
8.02889e-07
3.19022e-17
2.34013e-17
1.16364e-08
4.55966e-08
2.61182e-17
9.63946e-19
3.20876e-09
1.33085e-17
3.57195e-18
2.22317e-08
9.38068e-06
1.71115e-06
1.71286e-17
8.80745e-06
6.04029e-17
3.97816e-06
4.58546e-10
8.24533e-06
2.93346e-17
1.81344e-11
6.36929e-06
2.37238e-17
1.77373e-12
6.22066e-18
3.6032e-05
6.0913e-18
1.08391e-05
3.81854e-18
2.68809e-10
4.67423e-18
5.19966e-18
5.57081e-19
9.27776e-13
5.55042e-13
4.2139e-17
1.36089e-05
1.02963e-05
9.19662e-17
6.16788e-17
3.66335e-05
1.92885e-05
0.000204082
2.50685e-17
7.62381e-08
2.78317e-05
5.11935e-05
6.82718e-11
5.01773e-17
6.35217e-05
4.87473e-17
0.000253416
1.15176e-17
4.24078e-11
4.02249e-11
8.88153e-18
5.76937e-08
7.48442e-17
2.40852e-05
6.42846e-18
9.44527e-18
4.06969e-17
1.17024e-16
1.51554e-17
1.69415e-17
3.41067e-07
2.13643e-06
0.000150148
8.88492e-17
1.18111e-17
4.56483e-05
2.9927e-17
1.6603e-18
1.52331e-17
8.26503e-18
8.20022e-17
6.5413e-06
1.58659e-17
1.11186e-17
2.91877e-18
3.65907e-06
8.8737e-18
2.32301e-18
2.97736e-18
3.59071e-06
1.07623e-17
6.81862e-06
0.000258151
5.80883e-06
5.95245e-06
2.9602e-05
4.45159e-19
2.24303e-17
7.76911e-18
3.37904e-06
1.93481e-06
1.25076e-18
1.65161e-17
6.57798e-07
7.97508e-17
2.37031e-17
0.000371037
2.31949e-17
2.43186e-05
6.43965e-17
2.59757e-06
3.66488e-06
4.1663e-17
9.49665e-18
9.35709e-18
1.05413e-17
2.18444e-17
2.06197e-05
4.69645e-17
5.13663e-06
2.10165e-18
1.78382e-17
7.51055e-06
3.22063e-18
1.40864e-05
8.32192e-19
3.96522e-18
2.67814e-06
8.56657e-08
0.000155119
1.6782e-17
3.35079e-19
1.87602e-17
4.05183e-06
0.000196692
5.02449e-18
7.83869e-18
2.35759e-17
1.69169e-06
5.22331e-17
2.17076e-05
3.4237e-05
1.41158e-16
2.9159e-18
7.9781e-06
2.5611e-17
1.90743e-17
1.02486e-18
6.72784e-18
3.97287e-18
7.53946e-05
1.86901e-16
1.40749e-17
1.16828e-18
9.84018e-18
1.48283e-17
1.2542e-17
3.20932e-17
3.05299e-17
1.13769e-16
8.58354e-06
1.31148e-17
9.22309e-06
6.23288e-17
4.38188e-18
0.000637414
2.95022e-06
7.87909e-18
1.61188e-17
1.32704e-17
2.63173e-06
5.20187e-18
3.08478e-17
1.54362e-17
1.05436e-17
7.88138e-06
5.61456e-18
5.26949e-06
3.82343e-17
1.05201e-05
1.93581e-18
6.24832e-05
1.08476e-17
1.78364e-17
2.33731e-05
8.91672e-18
2.96742e-18
2.93576e-05
2.97708e-07
8.04389e-18
1.64233e-18
4.01647e-05
1.1022e-05
7.00436e-06
9.21557e-07
1.98023e-06
1.88487e-05
1.06919e-06
5.33705e-06
1.82853e-17
3.16809e-05
8.17793e-18
1.10085e-18
1.42572e-17
5.73364e-17
6.42312e-17
1.13006e-05
7.11143e-17
3.82337e-17
7.75618e-18
3.26938e-09
1.00025e-08
6.88501e-17
2.5102e-06
3.73319e-17
4.71581e-06
4.40242e-18
1.36526e-09
3.95793e-06
3.5237e-16
4.98944e-05
1.4887e-17
7.79304e-17
5.00671e-18
3.22496e-06
1.42524e-06
4.78509e-18
1.06542e-17
2.73911e-06
1.00448e-17
0.000725277
7.8907e-18
0.000112135
1.52149e-17
1.32045e-17
9.74619e-20
3.91383e-18
1.08721e-05
2.63568e-18
4.3055e-08
2.96535e-18
1.06879e-05
7.45758e-17
4.14768e-18
6.28673e-15
3.01366e-16
7.75543e-17
1.71984e-16
4.35245e-17
2.07791e-17
4.69476e-06
0.000209472
6.70474e-17
1.13292e-18
3.95721e-07
1.03693e-17
6.4119e-18
1.24153e-09
1.8824e-05
1.61275e-07
5.50448e-18
7.5877e-07
3.61284e-06
5.70462e-06
9.16432e-06
4.56227e-17
1.51039e-16
1.96291e-16
5.01678e-17
3.82799e-19
5.68446e-18
4.46826e-18
8.04023e-17
7.84113e-18
7.12703e-18
2.29303e-17
1.71107e-17
8.2468e-05
7.06728e-18
5.78634e-18
7.04469e-14
8.78089e-19
2.97399e-18
0.0012133
2.22915e-18
3.07839e-18
2.17128e-06
2.01822e-12
5.67708e-18
4.20599e-17
1.27301e-17
2.49428e-05
3.0486e-19
6.0063e-17
5.61942e-11
2.30215e-18
2.98869e-17
9.60592e-18
1.07025e-16
0.000126989
2.29458e-18
1.85651e-07
3.07373e-17
3.44891e-17
4.02003e-18
7.31323e-18
1.09081e-17
2.0532e-11
4.18989e-11
1.23808e-07
5.58944e-18
1.33686e-18
6.27879e-17
1.1297e-10
3.97224e-18
3.38431e-10
1.16921e-11
4.2269e-18
6.6431e-18
1.38721e-17
5.28997e-12
1.79972e-17
1.32873e-17
2.60259e-12
4.29839e-17
3.49106e-05
1.05416e-17
7.80296e-06
1.94508e-17
2.54079e-09
5.17498e-18
1.62905e-06
5.1153e-18
4.68598e-06
2.88483e-05
1.29753e-17
2.86062e-06
1.59718e-08
1.92713e-18
1.21239e-05
1.08787e-18
1.12637e-18
3.59656e-17
1.56022e-17
2.95652e-17
7.12863e-19
5.18446e-18
1.87176e-17
0.000320529
8.01534e-18
1.36805e-17
2.89251e-17
7.12035e-18
9.19051e-19
3.56007e-05
0.000920016
3.50121e-09
1.26379e-08
1.71964e-17
2.33492e-06
1.59665e-06
2.98609e-18
4.56032e-18
1.77874e-17
4.08842e-18
5.21004e-18
3.49456e-18
3.50531e-18
1.7294e-17
4.52645e-07
4.7679e-17
1.05452e-17
2.51385e-07
4.06812e-09
9.19373e-18
2.93661e-05
2.90375e-18
1.72307e-17
8.58573e-18
0.000197199
4.77158e-17
6.41125e-19
2.92439e-05
2.17607e-18
6.3603e-19
2.21666e-18
1.36086e-16
6.27478e-05
2.34665e-18