/*--------------------------------*- C++ -*----------------------------------*\
  =========                 |
  \\      /  F ield         | OpenFOAM: The Open Source CFD Toolbox
   \\    /   O peration     | Website:  https://openfoam.org
    \\  /    A nd           | Version:  10
     \\/     M anipulation  |
\*---------------------------------------------------------------------------*/
FoamFile
{
    format      ascii;
    class       volVectorField;
    location    "9.1";
    object      U;
}
// * * * * * * * * * * * * * * * * * * * * * * * * * * * * * * * * * * * * * //

dimensions      [0 1 -1 0 0 0 0];

internalField   nonuniform List<vector> 
111485
(
(2.90883 -2.90929 0.00320941)
(8.50829 -0.0225035 -0.0493008)
(8.3827 0.020115 0.0260186)
(2.90961 -2.91038 0.000238138)
(8.70931 0.0383205 -0.00338625)
(3.05573 3.0541 0.000258395)
(8.56067 0.02512 0.00213552)
(8.79343 -0.0254482 0.0124523)
(8.565 -0.0048713 0.00613545)
(8.76555 -0.0953682 -0.0409348)
(8.43313 0.0207846 0.0250665)
(8.82303 -0.0217615 0.0407949)
(8.31055 0.00713423 0.01866)
(8.39377 -0.0174259 -0.060958)
(8.50818 0.033623 0.0178386)
(8.68792 -0.0598017 -0.0479226)
(8.55176 -0.00954937 0.0128311)
(3.00103 -0.216569 0.444566)
(8.7326 0.0251685 -0.0194296)
(2.88885 -2.88497 -0.00146571)
(2.89408 -2.89361 -0.00337287)
(3.06336 3.06236 -0.000260161)
(8.63698 0.0295145 -0.0089525)
(8.77249 -0.0589738 -0.017571)
(8.59264 0.0331113 -0.00988053)
(2.93261 -2.91951 -0.0033971)
(8.86415 -0.0437988 0.0458515)
(8.38766 -0.0126904 0.00356434)
(8.75852 0.0153113 -0.0198574)
(2.8992 -2.90033 -7.86836e-05)
(8.82662 0.143447 -0.0373375)
(8.72046 -0.0193371 0.00250873)
(2.88694 -2.89319 0.00427252)
(3.05969 3.06598 -0.00752304)
(3.06699 1.2846 0.489111)
(3.07883 3.09942 -0.0450002)
(8.78401 0.143381 -0.0574817)
(8.49833 0.0311008 0.0744438)
(8.755 2.6492 0.147457)
(8.72298 0.0422442 0.00322526)
(3.02219 3.04965 -0.0212988)
(8.81949 0.010134 -0.0509985)
(8.71361 0.0440286 0.0150925)
(8.4068 -0.0507657 0.0016131)
(8.78939 -0.154076 -0.0789332)
(2.91699 -2.89546 0.0152761)
(8.81859 -0.0404445 0.0411445)
(8.75991 -0.054561 -0.0165493)
(8.82005 0.00402825 -0.0383024)
(2.8924 -2.85715 0.0175862)
(2.87666 -2.85026 0.0182107)
(3.47795 2.92711 0.0505916)
(2.86829 -2.85697 0.00933086)
(8.80515 0.0400943 -0.0759159)
(2.8609 -2.84938 0.000880466)
(8.70431 0.0233168 -0.00795229)
(8.70706 -0.0372791 -0.0177177)
(3.06334 3.0574 0.00174104)
(7.94048 -0.0177788 -0.140073)
(8.74755 0.0355985 -0.00528998)
(8.74604 0.0395494 -0.00378072)
(2.90002 -2.90574 0.00373946)
(8.10798 0.00880221 0.0534084)
(8.84764 -0.0226379 0.0691948)
(3.15844 2.86327 0.00466891)
(7.97808 0.0183565 -0.015403)
(6.13458 -0.485468 0.216855)
(8.77628 -0.029732 0.0121547)
(7.91304 0.00383823 0.0232694)
(7.48366 -0.0146935 0.00373319)
(8.46474 0.0509812 -0.0427476)
(7.85236 -0.00813132 0.0264986)
(3.14124 -2.82733 -0.065304)
(8.02025 0.0151406 0.0626552)
(2.90626 -2.90523 -4.99848e-05)
(8.73263 -0.0204344 0.00970388)
(3.06246 3.06253 -0.000531839)
(8.80961 -0.018785 0.0466592)
(3.0616 3.05971 -0.000404124)
(2.75756 2.69086 -0.091303)
(8.49003 -0.131117 0.0889307)
(8.76793 0.0342742 0.00763991)
(3.05116 3.04392 -0.000149277)
(2.90669 -2.90684 0.00163748)
(8.25715 -0.00152676 0.0159117)
(7.91257 0.0216654 -0.0327082)
(6.80031 4.41675 -1.18506)
(8.68759 0.102376 0.00925489)
(8.36914 0.215453 0.184548)
(8.47508 0.0107882 0.0256585)
(8.96512 0.17946 -0.114208)
(8.71819 -0.0150877 0.0138951)
(8.15439 -0.0127125 0.0320782)
(8.28989 -0.00962206 0.00923329)
(8.82994 0.0267488 -0.0555125)
(2.90658 -2.90624 -0.000691375)
(2.90149 -2.90069 0.00161979)
(8.68408 0.0955965 0.0298857)
(8.9475 -1.76664 0.12678)
(8.13452 0.0300164 0.0532677)
(2.9066 -2.9071 0.00135036)
(8.73419 -0.0475791 0.00470176)
(3.07569 3.08082 0.0168799)
(8.66231 0.000632304 -0.00472346)
(8.58634 -0.0446652 -0.0552467)
(3.00474 2.68833 -0.0632785)
(3.06232 3.06125 -0.000572387)
(8.72776 -0.0237909 -0.0023214)
(8.06391 -0.0443202 0.0101393)
(7.72773 -0.229811 -0.245093)
(8.25281 -0.00649705 0.0150833)
(8.67102 0.0122332 -0.00478399)
(8.08676 -0.0049232 0.0327175)
(7.96153 -0.0416397 0.0177765)
(2.93463 -2.9188 0.00232876)
(7.65503 -0.00738776 0.0230754)
(2.91796 -2.90857 -0.00358402)
(3.07609 3.06302 0.0127055)
(8.5221 0.0328055 0.0250972)
(2.9088 -2.90676 0.00105152)
(2.93401 -2.91857 -0.00141216)
(4.02491 3.16865 0.187991)
(3.0308 3.04321 -0.00586031)
(3.06885 3.06153 -0.00727526)
(8.32932 -0.0209134 0.0406798)
(2.31507 -1.63045 -0.433125)
(3.83797 3.30203 0.116298)
(7.73119 -0.00212856 0.0378055)
(2.90624 -2.90509 -0.00102309)
(8.77211 0.659199 -0.238347)
(8.7555 0.169262 -0.0866906)
(8.66805 0.097972 0.0290226)
(2.89346 -2.8862 -0.0142841)
(3.94218 3.42902 0.353214)
(3.67899 3.2835 0.15485)
(8.75535 0.0262623 -0.0162852)
(3.06464 3.06435 -0.000947729)
(8.69027 0.0205698 0.00112139)
(8.63318 0.0399652 0.0234458)
(8.48649 0.0385159 0.0363602)
(6.65055 0.000718273 0.0278512)
(8.70242 0.0449727 0.0105581)
(8.62859 0.0445113 0.0281767)
(8.22415 0.00869041 -0.0343902)
(8.59716 -0.0165069 0.00885014)
(8.50235 -0.00448046 0.0214044)
(3.06533 3.06559 -0.000631916)
(2.90655 -2.9078 0.000266012)
(3.0568 3.05847 0.00639204)
(8.70684 0.0384806 0.00677932)
(8.22804 0.0144801 -0.031119)
(2.89608 -2.89461 0.00182692)
(5.68474 -0.0333807 0.0572184)
(8.48958 0.0408451 0.0192666)
(9.29968 0.375658 0.163323)
(8.75409 0.0259006 -0.0170575)
(8.71433 0.0268838 -0.00675274)
(8.07382 0.00248536 -0.0156244)
(9.38677 0.459662 0.112762)
(2.89043 -2.91769 0.0112499)
(2.90455 -2.90719 0.00281526)
(8.73912 0.0250708 -0.0167558)
(8.56136 -0.0306617 -0.0316607)
(9.44905 0.517935 0.122735)
(9.32 0.453367 0.168891)
(8.1024 0.0119502 0.0415321)
(8.72007 0.108882 -0.0394114)
(3.0243 3.04957 0.000507893)
(9.55998 0.640717 0.151972)
(9.12072 0.461208 0.140389)
(3.06027 3.0621 0.000854557)
(2.90121 -2.90059 0.000219902)
(6.95063 0.00856202 -0.0539938)
(3.06356 3.06494 0.000371547)
(8.67483 -0.0188155 -0.00358711)
(8.34616 0.00451452 -0.0191645)
(3.06282 2.98955 -0.0168051)
(3.14386 -2.88439 0.0310448)
(2.9006 -2.88568 -0.00522857)
(3.01874 2.85137 -0.029519)
(3.15969 -2.90876 0.050806)
(2.90421 -2.90606 0.00265941)
(8.68548 0.0336125 0.00899713)
(8.70098 0.0208679 -0.016467)
(8.66971 0.026643 -0.00903415)
(8.55975 -0.0254147 0.0306362)
(8.24908 -0.0202771 0.00672245)
(8.2776 0.014031 0.0261217)
(7.34092 0.0955305 0.0102047)
(2.90152 -2.89141 -1.28748e-05)
(8.01581 0.00132528 0.0103608)
(3.1361 -2.90838 0.0317946)
(2.92774 -2.93283 -0.0014765)
(8.3474 0.0159148 0.0297505)
(8.76976 -0.106703 -0.0386762)
(8.68465 0.0177238 -0.0399011)
(8.33774 -0.00962815 0.0110372)
(8.49148 -0.00595524 0.00971674)
(2.90108 -2.89644 0.00720745)
(8.32808 -0.0379088 0.00605605)
(8.30485 -0.00878692 -0.052428)
(5.81842 1.86534 0.244317)
(8.51374 -0.0689422 0.00544566)
(8.63412 -0.0143886 0.00810636)
(2.91503 -2.89862 -0.00468929)
(8.31144 0.0205393 0.0296004)
(8.72513 0.0207729 -0.00718961)
(3.1903 -2.87518 0.0145152)
(8.37251 0.0212115 0.0319686)
(8.78865 -0.00644015 0.0448508)
(8.22395 0.00928714 -0.0357959)
(8.287 0.021767 0.0389405)
(3.15656 -2.91794 0.041265)
(2.89957 -2.89974 -0.000807013)
(8.28472 0.0221974 0.0418133)
(5.43936 3.41749 -0.336831)
(8.88969 0.0386431 -0.0878933)
(3.06206 3.06313 -0.00188172)
(8.33638 0.0165847 0.0347656)
(8.34296 0.00667394 0.0050485)
(8.84022 -0.0281869 0.0552658)
(2.90866 -2.90735 0.00113097)
(7.78237 -0.00229231 0.0213101)
(8.7337 0.125669 0.065581)
(4.80826 3.23332 -0.352053)
(3.06364 3.06417 -0.00226605)
(3.06032 3.06199 0.000842899)
(8.9311 -0.0584742 0.0845983)
(8.33941 0.198456 -0.0239748)
(3.21776 2.71971 -0.0624928)
(3.60591 -2.79243 0.113974)
(8.36743 0.00848662 0.0152771)
(8.64161 0.0151363 -0.000893261)
(8.72711 0.019177 0.00819198)
(3.17163 2.7632 -0.0811578)
(3.06742 -2.82363 -0.0107866)
(8.40244 0.10014 -0.119214)
(2.9059 -2.90571 0.00173555)
(7.96681 0.0105688 -0.0509977)
(8.27444 0.00564226 0.0345574)
(8.36428 0.00432395 0.0187305)
(8.37532 0.0171016 0.0215421)
(8.40895 0.00949415 0.028799)
(3.052 3.05262 0.00946048)
(6.3307 -0.0191043 -0.246676)
(8.50959 0.0185401 0.0327937)
(3.04729 3.05251 -0.00368183)
(3.06215 3.06408 0.000392362)
(8.86928 -0.10801 -0.0105307)
(8.66719 0.0390371 -0.0130467)
(3.13512 2.67333 -0.0833615)
(7.88956 -0.00325563 0.0241934)
(8.49267 0.0241383 0.0224952)
(2.90821 -2.90678 -0.000875768)
(3.85078 3.66226 -0.0185992)
(8.72585 0.0799475 -0.035039)
(2.91936 -2.88139 0.00152412)
(3.23125 -2.29007 -0.0547774)
(4.44669 -1.54995 -0.157318)
(2.91135 -2.90305 -0.00147218)
(8.5429 -0.0152939 -0.0165349)
(8.30482 -0.0132739 -0.0164503)
(8.64965 0.0138038 -0.021947)
(2.90459 -2.90505 -0.000210689)
(8.56075 0.0239338 0.0200824)
(2.90958 -2.91034 0.000217185)
(2.90888 -2.90987 0.000727266)
(2.90099 -2.88968 0.00478411)
(5.83872 0.0224843 -0.0906674)
(8.79264 -0.0425363 0.0496597)
(8.36835 0.0310957 0.0432732)
(8.52786 0.0286096 0.0138104)
(8.8245 -0.0511342 -0.00206593)
(8.48804 0.0127396 0.0149238)
(8.70082 0.0315773 0.0109385)
(8.76397 0.149302 -0.0143469)
(8.57735 0.0103777 -0.0040793)
(8.65134 0.015227 -0.00423136)
(3.11511 3.06552 -0.00186828)
(2.89722 -2.89737 -0.00380898)
(5.3348 0.0339334 -0.129309)
(8.7002 -0.0197263 0.0022455)
(8.76963 0.0665544 0.0712578)
(8.2791 -0.0106138 -0.0136046)
(2.90924 -2.90753 0.000775689)
(8.65447 0.0275586 0.016024)
(8.69061 0.0442476 0.0213193)
(8.51488 0.0196905 0.0108343)
(7.48563 -0.0077769 -0.040063)
(7.84785 -0.0894999 -0.196924)
(8.64075 0.0270214 0.00997607)
(8.50401 0.0240931 0.0153491)
(8.65884 0.066771 -0.0422685)
(3.06266 3.06289 0.000377991)
(7.94314 0.0445539 -0.00267006)
(3.06159 3.06197 -0.000937123)
(2.48724 1.89529 -0.393223)
(3.2779 -2.09508 -0.214081)
(9.00139 -0.0822298 0.118969)
(8.82708 -0.0512011 -0.0017404)
(8.61776 -0.0037629 0.00201127)
(2.91108 -2.90366 -0.00084753)
(3.04933 3.06721 0.0252523)
(8.6443 0.0291142 0.014308)
(8.27442 0.0183055 -0.0115769)
(2.89779 -2.89698 0.000829634)
(2.90932 -2.90717 0.00239311)
(2.84153 -2.86186 0.0186907)
(8.20977 0.0113006 -0.00442942)
(8.61215 0.00963128 -0.00903362)
(8.21814 0.00183003 0.0308684)
(7.94901 0.0137943 -0.0426293)
(8.77946 0.0199753 -0.0209565)
(3.50646 3.01068 0.0838404)
(3.0561 3.06344 0.0055709)
(2.906 -2.90239 -0.00135845)
(8.60796 0.0334092 0.0231413)
(5.57746 -4.72258 -0.338203)
(8.2011 -0.00983479 0.012572)
(8.93617 -0.062483 0.196842)
(7.19438 0.00543227 -0.149634)
(3.06385 3.06328 -0.000409469)
(2.90432 -2.90754 0.00203495)
(2.90915 -2.9103 -0.00143527)
(3.85658 3.23708 0.198273)
(8.72005 0.0264119 -0.00335669)
(8.79471 -0.050749 0.00944844)
(3.06792 3.07579 0.000995094)
(8.66214 0.0241886 -0.00154424)
(3.23368 2.62252 0.184401)
(2.91141 -2.87828 -0.00700779)
(8.87435 -0.0305898 0.0728099)
(8.63926 0.0322077 0.0159324)
(8.82868 -0.0121841 0.0210614)
(8.66542 0.0247657 0.000487788)
(2.94447 2.61133 0.158158)
(3.81766 3.28732 0.209055)
(3.05557 3.05947 -0.0043789)
(8.65193 0.0303813 0.0115073)
(8.64011 0.0251647 -0.0019745)
(8.79842 0.156229 -0.0519677)
(3.02797 3.02105 0.00552232)
(6.04051 5.34971 -1.27928)
(8.2496 0.0825568 0.075302)
(8.80148 -0.0418684 0.0213607)
(8.66168 0.0313462 0.0195684)
(8.24546 0.857474 -0.0672993)
(8.77899 0.0194512 -0.0249924)
(3.05056 3.05056 0.00134218)
(8.78073 0.0213002 -0.0133946)
(8.4354 0.0120399 0.0176995)
(8.88116 -0.209997 -0.00209633)
(8.9025 -0.0535117 0.109011)
(8.60424 -0.0696058 -0.0635092)
(3.04903 3.06243 -0.0114355)
(2.90278 -2.90599 -0.00548381)
(3.06812 3.05022 0.0116555)
(2.88434 -2.89267 -0.000569209)
(8.7832 -0.0418401 0.00205668)
(8.70318 -0.0128457 0.00332671)
(8.70585 0.0419056 -0.0327576)
(8.77307 0.0246541 -0.027493)
(3.03747 3.04057 -0.0131662)
(8.68501 -0.0641427 -0.0235397)
(3.05913 3.06001 0.00110301)
(2.89583 -2.90413 0.000138018)
(8.77416 0.0250526 -0.0180405)
(2.67391 -2.67691 0.0386205)
(4.81938 -0.852112 -0.0678741)
(2.87264 -2.86191 0.0024161)
(3.08817 3.04712 0.0244126)
(8.69105 0.0157109 -0.0121729)
(3.06158 3.05988 0.00111508)
(8.58571 0.0238477 -0.00583385)
(8.16394 0.00473375 -0.0378661)
(3.06695 3.06707 -0.000690325)
(7.86075 -0.00346783 -0.0374098)
(8.54356 0.0152814 0.0123429)
(3.0857 2.70853 -0.0992763)
(8.50591 0.0382356 0.0426414)
(8.0419 0.0430312 -0.00382168)
(8.56065 0.0406255 0.0120941)
(7.97759 0.030969 0.101003)
(8.63878 0.0250194 0.00426801)
(8.25056 0.00214669 -0.0161845)
(3.02838 2.59107 -0.0130824)
(2.89658 -2.8912 0.0173716)
(7.39134 0.0116415 0.173579)
(3.04081 3.05139 -0.0173386)
(8.54542 0.0465822 0.0409223)
(8.88078 -0.0450945 0.0889939)
(3.07558 2.9412 0.0245537)
(3.05499 3.06791 -0.000869382)
(8.75774 -0.0176137 0.00670638)
(8.44067 -0.039811 -0.0869904)
(8.46254 0.0452029 0.00136649)
(8.77193 0.0203838 -0.00771517)
(3.0622 3.05775 -0.00149183)
(8.91924 -0.0256714 0.144097)
(8.78564 -0.0299965 0.0443715)
(3.07134 3.06612 -1.38117e-05)
(8.59829 0.13367 0.109089)
(8.21051 -0.0334687 -0.0887684)
(2.90203 -2.90152 -0.000707784)
(2.89863 -2.89858 0.000921009)
(8.57349 0.0260349 -0.00934558)
(8.62568 0.00760123 -0.0130156)
(3.0745 3.07461 -0.00389104)
(2.90457 -2.89856 -0.00450867)
(5.137 -2.75809 0.629933)
(2.90839 -2.91035 0.000611973)
(8.62306 -0.00325894 0.0157787)
(3.04171 3.05322 0.0070512)
(2.90937 -2.91026 0.000226144)
(8.83305 -0.0127703 0.0286314)
(8.00359 -0.0934551 -0.231458)
(8.7367 -0.0521401 0.0117834)
(8.44085 -0.000839643 0.0161691)
(3.06899 3.06685 0.000191112)
(3.96797 3.06204 0.153227)
(8.43819 0.112941 0.161139)
(3.71935 3.28232 0.173448)
(8.41212 0.035902 0.0660388)
(8.37903 -0.071696 0.00704932)
(8.74692 -0.025393 -0.0233565)
(6.08765 0.19928 0.226158)
(3.64988 3.14769 0.157319)
(8.7353 0.0140821 -0.0827392)
(8.84848 0.274666 -0.0882587)
(2.90426 -2.90952 0.00535929)
(8.8218 0.0230837 -0.0872859)
(8.83376 -0.0393917 0.0325655)
(2.9097 -2.90909 0.00298403)
(8.51254 0.489039 -0.261394)
(7.44109 8.67223e-05 -0.102303)
(3.8601 3.03952 0.127656)
(8.79857 -0.0220213 0.0361976)
(8.69171 0.013714 -0.00990748)
(8.64373 0.0236096 -0.00620109)
(3.06166 3.05901 -0.000870902)
(8.60542 -0.0128424 0.059667)
(8.83078 -0.00360275 0.0283801)
(8.57355 0.0840649 -0.00850739)
(5.40957 -0.0731178 0.0906288)
(3.7175 3.51071 -0.0717599)
(5.10447 -0.130427 0.171135)
(2.90354 -2.90747 0.0021339)
(7.93308 -0.2689 -0.262575)
(8.60731 -0.0144481 -0.0566828)
(3.06307 3.06082 0.00484622)
(8.18814 0.0206143 -0.0628089)
(6.74401 -0.0175136 0.123443)
(3.96558 3.51104 -0.0379806)
(2.90645 -2.9045 0.000186025)
(3.40774 -2.8909 0.0940868)
(2.9087 -2.90754 -0.000351205)
(8.54369 0.0476 -0.00600626)
(8.63144 0.046471 -0.0147821)
(8.55455 -0.0245022 -0.0249293)
(8.03476 0.0221671 -0.0450205)
(8.75931 -0.178968 -0.036937)
(3.06054 3.04754 -0.00616324)
(8.49779 0.000321978 -0.0213882)
(2.91504 -2.89368 0.00036988)
(8.41038 0.0315184 0.0202935)
(3.07243 3.0728 -0.00132221)
(2.90651 -2.90394 1.41496e-05)
(2.87683 -2.88497 -0.00387512)
(8.26514 -0.0555653 0.0120021)
(2.89595 -2.89707 -0.00245214)
(2.90803 -2.9083 0.00125531)
(3.02164 2.01634 -0.123647)
(2.9086 -2.91042 0.00101039)
(3.02972 3.07167 0.0288797)
(8.47092 -0.0313736 -0.0132996)
(3.06365 3.0594 0.00112624)
(3.62838 2.68205 0.00524097)
(3.06402 3.06587 0.00367205)
(2.89757 -2.88773 -0.00107448)
(3.06305 3.05198 -0.00423522)
(2.89645 -2.88178 -0.0147511)
(3.04498 3.04728 3.30056e-05)
(7.70762 0.00214967 -0.0661512)
(3.0677 3.05147 0.01221)
(7.90444 0.117341 0.160176)
(8.65271 0.0116027 -0.00355472)
(8.92147 -0.366667 -0.0625298)
(3.07025 3.0549 -0.000654722)
(7.52929 0.0216399 0.125299)
(3.06774 3.05702 0.00295524)
(2.90923 -2.91041 -0.00127926)
(8.52754 -0.081197 -0.0875637)
(8.53968 -0.0658745 -0.0792001)
(8.55864 -0.0185918 -0.023621)
(8.94204 0.0229986 -0.152296)
(3.51723 2.96229 -0.0974413)
(8.76164 0.0105886 -0.0457068)
(8.758 0.0160124 -0.0419492)
(8.65536 0.0157243 4.16368e-05)
(8.51464 0.00958856 0.00278968)
(8.66924 -0.0883467 -0.0608292)
(2.89596 -2.89749 -0.000808209)
(8.66341 0.0121049 0.000324258)
(4.0019 3.4869 -0.0260644)
(8.6317 0.022606 -0.0113152)
(3.05882 3.05543 -0.00110297)
(8.79015 0.0287136 -0.0389153)
(3.95945 3.29176 0.0306557)
(8.67175 0.00764316 -0.0126716)
(8.69752 -0.041499 0.0317907)
(3.35859 -1.68552 -0.0205953)
(3.06401 3.06617 0.0341284)
(8.5268 0.015261 0.0149816)
(2.90564 -2.90452 0.000633263)
(8.82793 0.0364827 -0.0574)
(8.76284 0.0340667 -0.0373072)
(3.06082 3.0517 -0.0243919)
(3.05422 3.05304 0.00753491)
(2.99644 2.68878 -0.0598343)
(3.06058 3.06285 0.00147437)
(6.1281 -0.32807 0.16646)
(8.83293 0.0304709 -0.0550523)
(3.10631 3.03323 -0.0022228)
(3.05674 3.06103 0.00302074)
(7.53187 0.00994709 -0.0177802)
(3.06547 3.06508 0.000170364)
(8.69624 0.0244422 -0.031555)
(3.06325 3.06254 0.00029235)
(8.61275 -0.0501916 -0.0375206)
(2.90944 -2.90972 0.000507497)
(8.07839 -0.0409371 -0.122843)
(6.67126 -0.0268928 0.00729121)
(8.0927 0.0255872 -0.0174712)
(8.67477 0.00986529 -0.0137145)
(3.07468 3.05212 -0.0100195)
(7.86352 0.00806561 -0.00113186)
(3.06849 3.05763 0.00275293)
(3.06396 3.06481 -0.00831545)
(8.57476 -0.0230969 -0.0137946)
(3.06003 3.05641 -0.00140018)
(7.29416 0.00117496 -0.0743655)
(2.95475 2.72055 -0.0900532)
(8.70725 0.0222571 -0.0278493)
(2.89911 -2.90218 0.000281863)
(8.78158 0.0217954 -0.0193112)
(2.91074 -2.90804 0.000405377)
(3.63277 3.21688 0.0930275)
(8.88261 0.317324 -0.0222151)
(8.53142 -0.0729211 -0.0918858)
(8.66016 0.0363618 0.00032428)
(8.73199 -0.0989554 -0.0647736)
(8.62134 0.0169267 -0.00874191)
(8.81797 -0.0625507 -0.00615936)
(3.04133 3.06464 -0.0136237)
(8.65543 0.0492285 0.0264877)
(8.56635 -0.0858258 -0.0887386)
(3.06245 3.06428 -0.00168045)
(7.26824 -0.106419 -0.281387)
(8.8507 -0.0643885 -0.0442016)
(8.49875 0.0364024 0.0321051)
(3.02992 2.98863 -0.0170948)
(3.76299 0.758876 -0.594582)
(8.31769 0.0211228 0.0274085)
(6.803 -0.0268865 0.0689456)
(7.05791 1.82237 -0.0145231)
(3.77143 -1.91131 -0.157239)
(8.80118 -0.101184 -0.0229112)
(8.25864 0.0317755 0.0612953)
(8.52588 -0.0807087 -0.0887402)
(8.68958 -0.0489075 -0.0184409)
(8.54659 0.0500726 0.0211387)
(7.59223 0.986952 -0.0447952)
(3.78266 3.21147 0.0264628)
(7.71641 -0.291292 0.0670319)
(7.45014 -0.646832 0.156957)
(2.90324 -2.9047 0.00157075)
(7.6004 0.053351 -0.0224786)
(3.07846 3.02064 -0.0158215)
(3.59031 3.26569 0.0306125)
(8.6166 0.01948 -0.00375022)
(7.64704 1.30085 -0.0454794)
(9.19571 -0.781681 -0.141685)
(8.28632 -1.42696 0.0308586)
(3.58088 3.40352 -0.250374)
(8.76511 -0.0544157 -0.0171636)
(8.64794 0.0504589 0.0391082)
(3.05597 3.04741 -0.00148866)
(3.93813 2.19521 -0.0903237)
(8.64767 0.0650232 0.0405004)
(2.90679 -2.89588 0.00303905)
(3.06234 3.06103 -0.000637548)
(3.05284 3.05169 -0.000276214)
(3.06611 3.05014 0.00355938)
(8.76221 -0.0906713 -0.0415281)
(3.06322 3.06244 0.00192612)
(2.91665 -2.91649 0.0154137)
(8.60549 -0.0528744 -0.043389)
(7.91362 -0.00327564 -0.0242362)
(4.28013 -3.74687 -0.198263)
(8.64819 0.0634966 0.0390555)
(3.56234 2.88193 0.0646058)
(8.69525 -0.0357977 -0.0198185)
(2.84992 -2.84777 -0.0133725)
(3.05564 3.06174 -0.00226702)
(8.7403 -0.0557185 -0.0161128)
(3.06273 3.0447 -0.0116222)
(3.06376 3.05668 0.00170499)
(3.50715 3.35674 0.096675)
(8.21739 -0.00655606 -0.00543342)
(5.03502 4.21752 -0.558751)
(8.6125 -0.0361277 -0.0174637)
(8.61529 0.018794 -0.00536082)
(2.88105 -2.86229 -0.0229634)
(8.93804 -0.0243619 0.2844)
(8.18801 -0.050226 -0.122998)
(8.58076 0.00160374 -0.00431498)
(8.68539 0.156951 0.0155262)
(8.73118 0.0858127 -0.187256)
(7.50486 0.00382299 -0.0707303)
(3.05727 3.05399 0.00174341)
(8.75078 0.00953238 0.0240609)
(8.68442 0.0370648 -0.007607)
(2.87845 -2.91654 0.00574888)
(8.07652 -0.00590122 -0.00218242)
(8.76539 0.0482561 -0.0176202)
(8.764 0.040262 -0.0145764)
(7.95834 -0.0345411 -0.0790008)
(8.76096 0.0384045 -0.0160578)
(8.76557 0.0459199 -0.00508596)
(2.91218 -2.87354 0.0177248)
(8.7641 -0.018305 0.0445002)
(7.25062 -0.045331 -0.013776)
(3.68624 3.20309 0.203131)
(8.75996 0.0328222 -0.021426)
(8.35908 0.00958467 -0.0198845)
(4.90062 3.99248 -0.601877)
(8.62351 0.0110849 -0.00176422)
(8.76412 0.027617 -0.0267293)
(8.36228 0.00275592 -0.0350267)
(8.6928 0.0400587 0.00352021)
(8.59278 0.0857906 0.0381451)
(8.64497 -0.00208365 0.0121767)
(2.99616 2.92843 0.00443921)
(8.6914 0.0457913 0.00557733)
(8.15812 -0.0538884 -0.110622)
(3.25664 -1.95165 0.0763336)
(8.64988 0.074687 0.0458546)
(8.53856 0.0709874 0.0696945)
(8.66691 0.0261625 0.00202231)
(3.05771 3.0505 0.00270393)
(8.40157 0.0485873 -0.0799225)
(2.90628 -2.89368 0.00722552)
(3.06322 3.06345 -0.00208304)
(3.04701 3.02602 -0.00124942)
(3.06791 3.05023 0.000642193)
(7.2726 0.00445299 -0.0333029)
(3.64556 3.14113 0.126472)
(6.56266 -0.462224 0.542938)
(2.89161 -2.89277 -0.000231639)
(3.05623 3.09718 -0.00462128)
(8.65888 0.0864008 0.0444042)
(8.71257 0.0226764 -0.0404556)
(2.90842 -2.90864 6.07683e-05)
(8.72172 -0.0530648 -0.00597897)
(2.90656 -2.90459 0.00847486)
(2.90856 -2.90654 -0.00111786)
(2.85985 -2.8602 0.00855364)
(8.85175 -0.0720508 -0.00978089)
(7.36859 0.0422468 -0.0201681)
(3.60859 3.25262 0.0404999)
(2.93575 -2.90319 0.00781616)
(3.05813 3.06808 -0.00415468)
(3.06014 3.06204 -0.000726798)
(8.90789 0.0178297 -0.097968)
(8.64661 0.0178797 0.000693607)
(3.63601 3.41945 0.157156)
(8.80964 0.0279732 -0.0481972)
(8.19388 -0.114495 -0.340873)
(3.05667 3.05806 -0.00156207)
(8.78666 0.024266 -0.0419158)
(8.05467 0.00644893 0.0427374)
(8.55131 0.0452888 -0.0516215)
(3.06768 3.06606 -0.000222708)
(3.0586 3.05605 0.000348031)
(8.48933 0.0510457 0.0517869)
(8.67643 0.020836 -0.00277517)
(3.61633 3.29079 0.0513918)
(3.04866 3.04968 0.000265891)
(3.10035 3.00644 -0.0119986)
(8.62389 -0.0163553 0.00726987)
(2.90406 -2.90401 -0.00321195)
(2.8998 -2.88866 0.00223762)
(3.04483 3.04536 0.000144353)
(8.78386 0.0271059 -0.0368161)
(7.67796 -0.0383759 0.0136379)
(3.06602 3.06632 7.58075e-05)
(3.398 0.692238 0.597239)
(3.69034 -0.387132 -0.145357)
(8.49507 0.0458708 -0.00263733)
(3.05698 3.062 -0.00137238)
(3.063 3.05748 -0.00235646)
(8.81206 -0.11105 -0.0172823)
(8.44094 0.143388 0.13559)
(3.66729 3.27848 0.154454)
(5.3307 1.74161 0.124733)
(8.3198 0.191894 0.239089)
(7.96308 0.0242569 -0.055964)
(8.46818 0.00563003 -0.00713504)
(3.16488 2.97245 -0.00757645)
(8.41869 0.0252049 -0.00349292)
(8.72616 -0.0588592 0.0627587)
(3.06803 3.06051 -0.00327774)
(2.885 -2.83529 0.00497941)
(3.04663 3.04834 0.000424901)
(3.05702 3.05675 -0.0006215)
(3.0627 3.06758 -0.00361124)
(3.06679 3.0679 -0.000629988)
(8.80133 0.0258457 -0.0390199)
(2.90639 -2.9057 0.00188922)
(3.05495 3.05559 0.0004644)
(3.04527 3.00534 -0.00405301)
(8.80935 0.027851 -0.0493976)
(8.66973 0.019862 0.000453982)
(2.91921 -2.87935 -0.000884134)
(2.87163 -2.84116 0.003974)
(8.8786 -0.0428642 0.0768138)
(8.43564 0.00279737 0.00863763)
(8.42329 0.00645177 0.0127598)
(2.90752 -2.89979 -0.00161777)
(3.05299 3.05312 0.0020803)
(8.42983 0.00441912 0.0120583)
(2.90839 -2.90596 0.000386839)
(8.32749 0.0232707 0.00233794)
(8.51865 0.0143558 0.0300033)
(8.54109 0.0291806 0.0101587)
(2.91581 -2.89412 0.00828374)
(2.90773 -2.90922 0.000562594)
(2.90724 -2.90919 0.000196571)
(3.06327 3.06359 0.000874628)
(8.63568 -0.0414493 -0.0240439)
(3.05974 3.06279 0.00128531)
(3.05418 3.05145 -0.000120456)
(8.59398 0.023241 -0.0341987)
(2.90795 -2.90891 0.00123973)
(8.46786 0.00131342 0.0099438)
(7.72665 -0.0674083 0.0264094)
(3.08071 2.97692 0.0159537)
(8.65976 0.025206 -0.00841427)
(4.08496 0.626104 -0.107886)
(8.54973 0.00906166 0.00457774)
(8.839 -0.0302262 0.0210011)
(7.79621 0.0320454 0.0110831)
(8.83964 -0.00154447 0.0577617)
(6.38125 0.139361 -0.242065)
(3.64224 2.91633 0.0588109)
(8.53039 0.00524423 0.00323999)
(8.87435 0.0700599 0.0109383)
(8.66448 -0.0208211 -0.00890728)
(3.13615 2.73008 -0.0915501)
(3.87796 0.384816 -0.197221)
(4.61953 -0.313314 0.154591)
(8.54018 0.0121901 0.00644746)
(3.05435 3.05887 0.00406911)
(8.37429 -0.0195367 -0.061766)
(8.55511 -0.0080342 -0.0187542)
(8.30347 -0.0738707 -0.134107)
(3.1772 -2.24369 -0.170193)
(2.90849 -2.90963 0.0014272)
(2.90543 -2.90546 -4.73354e-05)
(8.70524 -0.0284163 -0.00323951)
(3.56879 2.95978 -0.0383715)
(8.26256 0.0287938 0.0135363)
(3.32107 3.02551 0.0421458)
(8.21871 -0.0162522 -0.0589807)
(8.45195 -0.0175749 0.00855903)
(8.36385 -0.0104724 0.0298382)
(8.67413 0.0217378 -0.00410725)
(3.05405 3.05403 -0.00101365)
(3.04079 3.03135 -0.00568522)
(3.10554 -2.82928 0.0144512)
(8.66047 0.0271759 0.00478691)
(3.06673 3.05797 -0.000613371)
(3.53323 3.04069 -0.134145)
(8.84853 0.165334 -0.139282)
(3.07219 3.06841 -0.00180347)
(3.04819 3.06323 0.00924262)
(2.89191 -2.883 -0.0047411)
(3.06476 3.06558 0.000899729)
(8.27294 -0.00328129 0.0282842)
(3.12485 2.96834 0.00604456)
(3.06355 3.06039 0.00100642)
(7.02793 0.997465 -0.73011)
(3.5815 2.90058 -0.0398107)
(3.04874 3.05033 -0.0253703)
(4.1912 -2.46595 0.155376)
(3.06108 3.0575 -0.00331716)
(6.74949 0.026875 -0.0597615)
(8.43491 -0.0144923 0.0233584)
(2.89681 -2.89718 -0.000189881)
(8.2894 0.00860545 -0.0220813)
(8.37687 1.36373 -0.186612)
(8.24302 -0.0802616 -0.132761)
(9.06912 0.341787 0.00824805)
(8.15121 0.00709547 -0.0132587)
(3.06017 3.03915 0.00968016)
(8.55775 -0.0800101 -0.091125)
(8.86376 -0.0312644 0.0212364)
(8.24074 -0.0807826 -0.133205)
(2.90571 -2.90662 -0.000227169)
(8.98671 2.36342 0.629585)
(8.25315 0.0121509 0.0127137)
(4.07228 3.25371 -0.192333)
(8.1962 0.00333055 0.00923169)
(8.94767 0.112983 -0.0850143)
(8.53813 0.173411 0.00951753)
(8.47039 -0.0255758 -0.0335863)
(8.47396 0.0284391 0.00106097)
(9.01881 0.133056 -0.0499488)
(8.69617 -0.0152564 -0.0140434)
(8.60999 -0.0121142 0.00899581)
(3.0367 3.04833 0.0114601)
(3.04779 3.03283 0.00943534)
(8.3119 0.022641 0.0117449)
(8.1719 0.0105461 0.0105189)
(3.05581 3.06307 -0.00130989)
(8.42894 0.00812897 0.000303715)
(8.82957 -0.042012 0.00547511)
(8.63277 -0.0210558 0.00763885)
(3.06131 3.02998 -0.00114665)
(8.50859 0.173284 0.0383583)
(3.05357 3.05109 0.000172175)
(8.61445 -0.0119366 0.00777133)
(8.64284 -0.0135333 0.0057773)
(3.06104 3.05976 -0.000297818)
(8.25892 0.0448276 -0.0212981)
(8.61981 -0.0097831 0.00129704)
(8.47381 0.161635 0.0146092)
(8.33817 0.00206729 0.0340471)
(3.12317 3.06469 -0.0046728)
(8.71385 -0.0231281 0.0260184)
(8.49983 0.197339 0.00251487)
(8.96093 -0.206643 0.0583108)
(7.542 0.0989847 0.0260735)
(6.73039 0.0213005 -0.0952664)
(3.06297 3.03151 -0.00549186)
(3.05288 3.05009 0.0022174)
(8.35905 0.115602 0.0150619)
(3.06494 3.06512 -0.00100758)
(7.29553 -0.0207328 -0.0181527)
(8.39885 -0.0450034 -0.0658618)
(5.12641 0.725589 -0.185838)
(9.29959 -0.594743 0.227298)
(8.20712 -0.365771 0.110495)
(9.13619 -0.324431 0.0915992)
(3.06431 3.06451 -0.000932631)
(4.15245 3.52742 0.0287343)
(8.69463 0.0214668 -0.00667759)
(2.89374 -2.9054 -0.00986702)
(1.59305 -1.11153 0.476689)
(8.60299 -0.16529 -0.128835)
(3.05086 3.0434 -0.00605631)
(3.06633 3.06278 0.000306053)
(7.68047 -0.148307 -0.00254204)
(6.28088 -0.407114 0.0836307)
(3.06546 3.06578 -0.000397754)
(7.7766 -0.144776 0.0255548)
(3.05226 3.0497 0.00127989)
(3.06102 3.06587 -0.00505172)
(2.90506 -2.90532 -0.000563955)
(2.90878 -2.90232 0.00593655)
(2.85076 -2.82607 0.00955812)
(2.90282 -2.89712 -0.000350118)
(7.75985 0.0646417 -0.0293594)
(3.03988 3.01961 -0.0036315)
(3.06004 3.06139 0.00104878)
(3.04375 3.05986 0.00544758)
(7.22766 -1.59273 -0.414375)
(8.18786 -0.0679302 -0.150026)
(7.9259 0.00012816 -0.0829594)
(8.69533 0.0202432 -0.00744807)
(3.04562 3.02596 -3.73602e-05)
(3.07367 3.06244 0.000166692)
(8.32931 -0.143098 -0.174535)
(3.06329 3.06428 -0.00355518)
(3.06067 3.05761 0.000893703)
(4.86565 2.80503 0.102932)
(8.86755 -0.12096 -0.00747833)
(8.67827 0.0202249 -0.00767094)
(3.05935 3.05864 -0.000302324)
(3.05731 3.05197 0.0044804)
(3.04572 3.0375 -0.00392968)
(3.05063 3.04428 -0.00041878)
(3.06405 3.06282 -0.00334581)
(3.07104 3.06227 0.00185906)
(8.68372 -0.203318 -0.128429)
(3.06785 3.05899 -6.19012e-05)
(6.0249 0.0866997 0.202559)
(8.75685 -0.0200117 0.022859)
(3.06079 3.06516 -0.000843789)
(2.88543 -2.89706 -0.00789165)
(2.86569 -2.83614 0.00331039)
(7.34057 0.0864084 0.397686)
(2.84511 -2.84186 -0.0116648)
(2.90377 -2.90616 0.0031141)
(3.04363 3.04877 -0.0191358)
(7.8672 -0.123156 0.00791512)
(3.05116 3.05012 0.000275333)
(8.6316 -0.113442 -0.0714824)
(6.87342 0.112928 -0.0352185)
(5.671 0.00725541 0.226911)
(3.05237 3.05465 0.000882441)
(5.90374 -1.50717 0.120053)
(8.69911 -0.0159882 0.00278313)
(8.76316 0.0221754 -0.0225575)
(3.1221 -2.98025 -0.0341102)
(8.42426 -0.136375 -0.0221107)
(8.59971 -0.0164876 -0.00923219)
(2.909 -2.88855 0.00282365)
(3.16311 3.00152 0.0147601)
(4.11024 -3.16392 -0.266138)
(3.04472 3.04373 0.00104297)
(8.69906 0.017059 -0.00221286)
(8.6914 -0.0111582 0.0102876)
(8.83913 -0.106951 0.0445153)
(5.8154 -0.00656953 0.318314)
(3.0666 3.06486 -0.000330586)
(8.702 0.0172209 -0.00380758)
(3.14219 2.99111 -0.00750564)
(3.82394 3.23686 -0.0133157)
(3.91257 -3.04211 -0.125892)
(3.06065 3.06114 0.00120074)
(8.7218 0.0263292 -0.00557679)
(3.05136 3.04435 0.00196199)
(2.87502 -2.82305 0.00140003)
(7.95098 -0.10947 -0.199606)
(8.53648 -0.0189814 0.0102392)
(2.87693 -2.82918 -0.00808285)
(8.57561 0.0153402 -0.0037153)
(3.26003 3.18835 -0.0189829)
(8.71004 -0.0745972 -0.0387414)
(2.87979 2.75559 0.0273253)
(3.06393 3.06587 -0.00138651)
(3.07662 3.06623 0.0100247)
(2.9093 -2.90986 0.000789038)
(8.43042 0.0133935 -0.0134208)
(7.54208 0.0162203 -0.0346843)
(8.74035 -0.0259779 0.182005)
(3.0481 3.05086 0.00199713)
(3.04349 2.98892 0.0205979)
(8.38266 0.0163371 -0.014715)
(3.06435 3.0645 -0.00112192)
(3.55582 3.21987 0.0443944)
(2.90632 -2.90437 0.00021068)
(8.34046 0.0537777 -0.00541911)
(8.88092 -0.219093 -0.0646661)
(8.69876 0.0217921 -0.0092512)
(2.90213 -2.89626 0.00673375)
(6.88635 -0.0106142 0.191922)
(7.18873 0.00669762 0.18455)
(2.75328 2.43304 0.0169364)
(7.77339 0.0995022 0.156223)
(3.06523 3.04937 0.00300146)
(8.21056 0.0772787 -0.00763216)
(8.81971 -0.0149571 0.0511342)
(8.54174 0.00570239 -0.01472)
(8.83052 -0.112074 0.0135282)
(8.11205 -0.178835 -0.252066)
(3.06366 3.06035 0.000758146)
(3.06427 3.06402 -0.000189204)
(3.05703 3.06113 -0.000632518)
(7.11025 0.0700514 0.256157)
(3.03472 3.0077 0.00333041)
(8.62943 0.0363272 -0.0157457)
(2.90506 -2.90473 -0.000226479)