/*--------------------------------*- C++ -*----------------------------------*\
  =========                 |
  \\      /  F ield         | OpenFOAM: The Open Source CFD Toolbox
   \\    /   O peration     | Website:  https://openfoam.org
    \\  /    A nd           | Version:  10
     \\/     M anipulation  |
\*---------------------------------------------------------------------------*/
FoamFile
{
    format      ascii;
    class       surfaceScalarField;
    location    "6.5";
    object      phi;
}
// * * * * * * * * * * * * * * * * * * * * * * * * * * * * * * * * * * * * * //

dimensions      [0 3 -1 0 0 0 0];

internalField   nonuniform List<scalar> 
214403
(
-0.00673666
0.00516612
0.00028485
0.00128569
-0.00332996
-0.0111951
0.000952109
0.0135729
-0.0102226
6.80265e-05
-0.000139093
0.0102936
0.00886745
-0.00596227
-0.0148632
0.011958
0.0122602
-0.015502
0.00369244
-0.000450653
-0.00536598
0.00558895
-5.4253e-05
-0.000168718
-0.000851161
-0.0016174
-0.00920461
0.0116732
-0.0169704
0.00965707
-0.00254956
0.00986289
-0.0232503
0.0164114
0.0165643
-0.00972537
0.0141706
0.00168201
-0.0158352
-1.74006e-05
0.00502664
-0.00995715
0.00204849
0.00288203
-0.0103207
0.00324679
0.00534824
0.00172567
0.000475053
-0.0114208
0.0137547
-0.00280892
-0.00992665
0.00999152
-6.48674e-05
0.00191506
0.0119074
-0.0152637
0.00144117
-0.0120284
0.0100565
0.00304733
-0.00107545
-0.0121032
0.0118085
0.000294731
0.00392203
-1.58922e-05
-0.000986846
-0.00291929
0.0156538
-0.00936843
-0.0208138
0.0145285
-7.57785e-05
-0.00310515
9.10804e-05
0.00308985
0.00640454
-0.00625432
-0.000150219
-0.0123179
-0.00426129
0.00423714
0.012342
-0.00228086
0.0136141
-0.0109735
-0.000359727
0.00671442
0.000705892
0.00234238
-0.00976269
-0.0102264
-0.00491238
0.0132379
0.00190094
0.00919962
-0.0116518
6.94891e-05
0.00238266
0.00322195
-0.00282027
0.0105556
-0.0109573
0.00762635
0.00997582
-0.0120166
-0.00558559
0.0111568
-0.00699785
-0.000317384
-0.00384155
-0.00586588
0.00597903
-0.000113149
0.00243573
-0.00506889
0.0135173
-0.0108842
0.0141081
0.000668763
-0.00246168
-0.0123151
-0.00562639
-0.00577415
0.00591327
0.00548726
-0.0011966
-0.00674905
0.00597872
0.00196694
0.00441228
-0.00304337
-0.00939874
0.00802982
-0.0017079
0.00852006
-0.00307807
-0.00373409
0.0160067
-0.000392221
-0.0156144
-0.00688842
0.0134352
-0.00654674
0.00123952
-0.0147426
0.00853887
0.00496423
0.00245251
-0.00098579
0.00600236
-0.00746908
0.00569596
-6.01498e-05
-0.00563581
0.0102287
-0.00022033
0.00181279
-0.0118212
-0.0129754
0.00163007
0.0137978
0.000861575
0.000882964
0.00861274
-0.0103573
-0.00411047
-0.0268518
0.0260418
0.0049205
0.00570816
0.00103059
0.00129036
-0.00802912
0.0042345
0.00320209
-0.0103426
0.00290605
0.0133429
0.00799668
-0.0146251
0.00120729
0.0113212
-0.00229971
0.00182164
-0.00681758
-0.00401451
0.00901045
0.00310287
0.00476855
0.00141871
-0.00929014
0.00184914
-0.00138875
-0.00427593
0.00381555
0.00686966
-0.0124341
0.00866728
0.0118871
-0.0111922
-0.00383899
0.00314406
0.0106372
-0.00194594
-0.00858484
0.0116394
-0.000494254
-0.00256028
0.00883996
-0.0113037
0.000130322
0.00233344
-0.00827409
0.000546847
0.0132219
-0.00549469
-0.0153104
-0.0143907
0.0120845
0.0176166
-0.0081866
0.00823696
0.00162016
-0.00167052
0.00129175
-0.0104641
-0.00857419
-0.000178541
0.00445713
0.0042956
-0.0133993
0.0057526
0.00866943
-0.00102272
0.0157189
-0.0126644
0.000812381
-0.00386687
0.000722096
0.000263675
-0.0103433
0.00935749
0.000519728
-0.00284966
0.0140917
-0.0117618
-0.0348157
0.0036286
0.00388065
0.0273065
-0.0032082
0.00945372
-0.00299756
-0.00324795
0.00464709
-0.00244624
-0.0099136
0.00771274
0.00111445
0.00693196
-0.008811
0.000764593
-0.000172445
0.00849628
0.00295543
-0.0112793
-0.0016863
-0.000267815
-0.00351352
0.00546764
-0.00901008
0.00984741
-0.000373258
-0.000464078
0.000315696
-0.00906791
-0.00636498
0.00563769
0.00171125
-0.000983961
-0.0168998
-0.00106734
0.0082471
0.00972003
-0.00511081
-0.00217752
0.00434785
0.00294048
0.00751583
-0.0252047
0.00349412
0.0141947
-0.00392569
0.00790048
-0.00431485
0.000340058
0.005634
-0.00437407
0.00055735
-0.00181728
0.000129006
-0.0105966
0.0104676
3.28289e-05
0.00860231
-0.00863514
0.00758177
-0.00148277
0.00100471
-0.00710371
-0.00454723
0.00648783
0.00215028
-0.00409088
-0.00320547
0.0136541
-0.00328208
-0.00716653
0.00644887
-0.0109896
-0.00041828
0.00495902
0.00737007
0.00779267
-0.0151627
0.0108768
-0.0122237
0.00313198
-0.00178505
0.00105716
-0.0019623
0.0142
-0.0132949
0.000409762
-0.00229527
0.010226
-0.00834052
0.00242881
0.0213962
0.00616301
-0.029988
-0.018713
0.0164621
0.0106742
-0.00842326
0.00085936
0.00659368
-0.00886583
0.00141279
0.00872668
0.00970252
-0.00317663
-0.0152526
0.0162238
-0.00985362
-0.000325123
-0.00604502
0.000709485
-0.00207936
-0.00653003
0.00789991
-0.00660848
3.75088e-05
0.00657097
0.00985658
0.000340326
0.000679883
0.0122518
0.00103345
-0.0186311
0.00534583
-0.00982314
0.00216843
0.00174577
0.00590894
-0.00623651
0.00154643
0.00076676
0.00392332
0.00152769
0.00109235
-0.012958
0.0103379
-0.00265518
-0.0154528
0.00985203
0.00825599
0.00619743
-0.00733176
-0.00477751
0.00591185
0.0100157
-0.000107934
-0.0100156
0.00010791
0.00766565
-0.0108336
-0.00375861
0.00692651
0.0198388
-0.00600302
-0.00309148
-0.0107443
0.0112568
-1.92051e-05
-0.0103526
-0.000885009
-0.00567446
0.00668235
0.0139257
-0.0149336
0.0121647
-0.00427226
-0.0116992
0.00380672
0.00224143
-0.00327135
0.0142399
-0.0132099
-0.0160729
0.0146492
0.0138869
-0.0124632
0.000723973
-0.0125189
0.00483122
0.00696366
0.0156684
-0.000826436
-0.000320633
-0.0145213
0.0110546
-0.00215444
0.00213764
-0.0110378
-0.01281
-0.01165
0.0137881
0.0106719
-0.00243116
0.0069743
0.00189019
-0.00643332
-0.00546917
0.000298141
0.0106003
-0.0054293
-0.00122052
0.0137539
-0.0128009
0.000267485
-0.0118704
0.011024
0.00214598
-0.00129963
-0.000398681
-0.00692641
0.0165247
0.00218948
-0.00729271
-0.00533116
0.0104344
-0.00578851
7.59896e-05
0.00571252
0.00177474
0.00807022
-0.00746529
-0.00237966
0.0128822
-0.00742804
-0.00197426
-0.00347988
8.90445e-05
-0.00380021
0.00371117
-0.00725704
-0.00195623
0.00272704
0.00648622
0.000748709
0.0041214
-0.00924711
0.004377
0.0157825
-0.00142522
0.00616845
-0.0205257
0.00113089
-0.00139854
-0.0191069
0.0193746
0.00123129
-0.00546811
-0.00722764
0.0114645
0.000462232
0.00994932
-0.00055497
3.99914e-05
-0.00585804
0.00581805
0.0121066
-0.00449105
-0.00542612
-0.00734103
0.0061297
-0.00604571
0.0133737
-0.0111304
-0.00134866
-0.000894577
0.00133887
-0.00633153
0.00276822
0.00222444
-0.0109149
-0.00330496
0.00221857
0.0120013
0.00908744
-0.0147618
0.0097256
-0.00405127
-0.000404717
0.0133316
-0.0133496
0.000422623
-4.20554e-05
0.0121501
-0.0120382
-6.97708e-05
-0.0169648
0.0135388
-0.0108673
0.0142933
0.0141586
-0.0137025
-0.000456033
-0.0129735
0.0173751
-0.00317509
-0.00122644
-0.0115916
0.00278808
-0.000874089
0.00967759
-0.019106
0.00147212
0.0122841
0.00534981
0.00339057
-0.0046303
0.0025786
-0.00468371
0.00532535
0.00856679
-0.00920844
-0.00507589
-0.00227804
0.00290481
0.00444912
-0.00687916
0.00450115
-0.00869454
0.0110726
0.00206937
0.000167276
-0.0152102
-0.0067873
0.00677291
1.4385e-05
0.00740991
-0.00712388
-0.000286034
-0.0111943
-0.000731744
-0.00297945
0.00275975
-0.0147333
0.0171571
-0.00518357
0.00663629
0.0114189
-0.0145221
-0.00353313
0.012677
-0.0137698
0.00037036
0.000722453
0.00675974
0.00175597
-0.00698637
-0.00152934
-0.0106748
-0.000593952
0.0140285
0.00614961
-0.000444562
-0.00749664
0.00179159
0.00692882
-0.00593296
0.0068347
-0.00783056
-0.0120703
0.00226723
0.0164394
-0.00407786
-0.0057194
0.0188873
-0.00909006
-0.00581859
-0.00641193
0.00155573
0.00173385
0.00460418
-0.0121566
-0.0082328
-0.000727269
0.0132288
-0.00426877
0.00128329
0.0020258
0.00735547
-0.0106646
-0.00391631
0.00958663
-0.00567032
0.0031049
-0.0148979
0.00538103
0.00887815
0.00620008
-0.0133444
-0.0125404
0.000151259
0.0156262
-0.00323705
0.00212564
0.00182092
0.00568934
-0.00963591
0.00844957
-0.00851474
6.51713e-05
0.00317444
-0.00119848
0.0106558
-0.0126318
0.0111771
-0.00354328
0.00537415
-0.013008
0.0205587
-0.00661902
0.0153436
-0.0292832
0.00335764
0.00624804
-0.00259547
-0.00701021
-0.00930536
0.00382894
0.00487884
0.000597583
0.00666844
-0.00502362
-0.00013771
-0.00150711
-0.00431595
-0.00547078
0.0159335
-0.00614674
-0.00747143
0.0096971
0.00386728
-0.00609295
0.011249
-0.000614908
-0.00370523
-0.0174609
0.0115399
-0.000958098
-0.0166504
0.015362
0.00713432
-0.00584599
0.0106213
-0.0119696
-0.00172714
0.00307549
0.00599403
-0.0108301
-0.00567315
-0.00618012
-0.00567014
0.00320477
0.0086455
-0.00882166
0.00273903
0.00870799
-0.00262536
0.0101996
-0.00970274
-0.00668191
0.00618503
6.3674e-05
-8.91546e-05
-0.00957508
0.00960056
0.000230814
-0.00839957
-0.00031883
0.00848759
-0.00242219
-0.0143546
0.00225501
-0.00829945
0.00746531
-0.00142086
-0.00564148
-0.00237655
-0.000803629
-0.000189885
0.0141606
0.000199853
-0.0338101
0.0237833
0.0171889
-0.00716209
-0.00999555
0.000680429
0.000363753
0.00895137
-0.00198519
0.0316694
-0.0372711
0.00758695
0.00158148
0.0024393
-0.00547392
0.00145315
-0.0213928
0.0115264
0.00149029
0.00837615
-0.000253065
-0.0142019
-0.00202156
0.0164765
-0.00589316
0.0213967
-0.0148392
-0.000664337
0.00960476
0.0139636
-0.0129065
-0.0106618
-0.0114635
0.0109178
0.01356
-0.0130143
0.00444936
0.00621728
-0.00774411
-0.00292254
0.00442405
-0.00298332
-0.00708221
-0.0227748
-0.000891416
0.0186035
0.00506264
0.00669317
0.00102415
-0.00388838
0.00687128
0.00919882
-0.0084935
-0.0075766
-0.0113721
0.00253328
0.0110934
-0.00225461
0.00135183
0.00357299
0.0124502
-0.0131996
0.0130333
0.0012638
-0.00109753
0.00816749
0.00640845
-0.00577387
-0.000228451
-0.00162484
0.00762716
-0.00872471
-0.00173582
0.00485415
-0.0168077
0.00714812
0.00480544
0.000511714
0.00907532
-0.0100694
0.000482324
-0.00349074
0.000675257
-0.0032456
0.00606108
0.0140425
-0.0100371
0.000418613
-0.00795435
-0.0062228
0.00837091
0.00580625
0.0300632
-0.0321604
0.0105054
-0.00840818
-0.00577873
0.00718042
0.00289241
-0.0042941
-0.0131999
0.00573637
0.0115073
-0.00404383
-0.00571861
0.0083017
0.0106782
-0.0132613
0.0160271
-0.00619417
-0.0106081
0.000775197
0.0002786
-0.00389401
0.00947285
-0.00585744
-0.00164644
0.00163232
-0.0125263
0.0115168
0.00374117
-0.0123289
-0.00292912
0.014465
-0.0118665
-0.00319245
0.00303633
0.00448821
-0.0106202
0.00309567
-0.00595284
-0.0109077
0.00969142
0.00716917
-0.00181478
-0.0047111
-0.00142847
0.00590849
-0.00631255
0.0136032
-0.0131991
0.00143154
-0.0164747
0.0150432
0.00559869
-0.00732461
0.00476225
0.00304759
0.00175918
0.00249979
-0.00730656
-0.000309544
-0.0137268
0.0140364
-0.00750046
0.00099648
-0.0024339
0.00893788
-0.000899385
0.0103987
-0.00947687
-2.24743e-05
-0.00705805
-0.00373621
0.00407565
0.00671861
-0.00263124
-0.00624159
-0.00579599
-0.00852027
0.00710618
0.00721008
0.000313343
-0.00874058
0.0150512
-0.00618854
-0.000801315
-0.0080613
0.00800113
-0.000765752
-0.00583722
-0.00139816
-0.00129626
0.0112563
-0.0140257
0.0040657
0.00725581
0.000279072
0.00353223
-0.0110671
-0.000266029
-0.00596425
0.00288204
0.00334825
-0.00413706
0.00538234
0.0104018
-0.0116471
-0.0146414
-0.00378851
-0.00408973
0.0134769
-0.0125302
0.00029445
0.00392557
0.00831016
0.00120836
-0.00444246
-0.00790266
0.0111368
-0.0057509
-0.0112265
0.00283279
0.0141446
-0.0052351
-0.00580535
0.00603958
0.00500087
-0.0135551
0.0130473
0.0137707
-0.0132629
-0.00183998
-0.00321376
-0.00967486
0.0147286
-0.013248
0.00134187
0.0134839
-0.00157776
-0.00230629
0.00617876
-0.00387247
-0.00536686
0.00992045
-0.00746821
0.00291462
-0.000230341
0.0177911
-0.00660747
-0.0109532
-0.00636781
-0.00307692
0.0127777
-0.00333297
0.00205364
-0.00538536
0.0122214
-0.00888971
0.000560689
0.00795084
-0.00139292
-4.67299e-05
-0.0130136
0.0130096
5.06881e-05
0.0148735
-0.00263397
-0.0217395
0.00949998
-0.013736
-0.001346
0.0171505
-0.00206856
-0.00745485
0.0112629
0.000924586
-0.00473259
0.00663844
-0.00655702
-8.14217e-05
-0.00793026
0.000766098
-0.00684279
0.0140069
-0.0114422
0.0157686
-0.00328758
-0.00103885
0.00713152
-0.00299084
-0.00859923
0.00445855
-0.0137808
0.013902
-0.000121221
0.0113562
-0.0165134
0.0013352
0.00382195
-0.0128646
-0.00352173
0.0220001
-0.00561376
0.00949388
-0.000396223
-0.00199414
-0.00710352
-0.00541095
-0.00917775
0.0204972
-0.00096449
-0.0135423
0.00819424
0.0212868
-0.0237461
-0.00225498
0.00471429
0.00571505
0.002724
-0.0063134
-0.00598668
0.00624106
-0.000254378
-0.00243517
0.0136069
-0.000864692
-0.010307
-0.00296438
0.00351633
0.0118237
-0.0123757
0.00772469
0.0181354
-0.0106088
-0.0152512
0.0132774
-0.0159302
0.00506454
-0.00241179
0.0120516
0.000168377
-0.0122199
0.000223537
0.0117293
-0.0119528
0.0132241
-0.0160073
0.0141394
0.000143132
-0.000121067
0.0103007
-0.0103227
0.00026896
0.0187515
-0.018685
-0.000335406
-0.00160212
-0.00473706
-0.00958864
0.0159278
-0.00586615
-0.00351568
0.00117784
0.0111027
-0.0193175
0.00703694
-0.00935656
-0.00245343
0.0100317
0.00177831
-0.0110637
0.0122168
-0.00326332
0.00211019
0.00174121
0.00906983
-0.00308561
-0.00772542
-0.00439245
0.00108813
0.00745834
-0.00415402
-1.26362e-05
0.00337923
-0.00424151
0.000874914
-0.00471232
0.0115301
-0.00664856
-0.000169256
0.00344465
-0.0108721
-0.0063533
7.66269e-05
-0.0101405
0.0100639
-0.00377136
-0.0036187
0.00167808
0.00571198
0.00566118
-0.00326594
-0.00239524
0.0141832
-0.0140837
-0.00287496
0.00277552
-0.00128882
-0.00838549
0.00773326
0.00194105
-3.53174e-05
4.75956e-05
0.00761374
-0.00762602
0.00379826
-0.00312175
-0.012085
0.0114085
0.00876633
-0.000223201
-0.00854313
-0.0128039
-0.008291
0.0123555
0.00873945
0.00750146
0.0117532
-0.0202192
0.00712352
-0.00256404
0.0040115
-0.00857097
-0.00285416
0.00283185
-0.0157081
0.0157304
0.00444533
-0.00875619
-0.00851849
0.0128293
-0.000897184
-0.0020104
0.00947343
-0.00656584
0.00660365
-0.00811597
0.00294098
-0.00142866
0.00362402
-0.00600723
-0.00580644
0.00818965
-0.0116658
0.0131347
-0.00349715
0.00202833
0.0132962
0.0170941
-0.0188257
-0.0115646
-0.0102769
0.0102326
4.42914e-05
-0.00114867
0.0121401
-0.0151648
0.00417343
0.000470473
-0.000769338
-0.0116695
0.0119684
0.0114534
0.000481405
-0.0131813
0.00124649
-0.00490267
-0.00828747
0.0104217
0.00276845
-0.0118475
0.0167858
-0.00594345
0.00100512
-0.00487147
-0.00595744
0.0035362
-0.000725123
-0.000123459
-0.00839846
0.00924704
-0.0274353
0.000108558
0.00245738
0.0248694
0.00108431
-0.00696773
-0.00360632
0.00948973
0.0171355
-0.00140858
-0.00554695
-0.01018
-0.00304566
-0.00658858
0.00127561
0.00835864
0.00482285
-1.72248e-05
-0.00480562
0.00805163
0.00428958
-0.00267095
-0.00967025
0.00623529
-0.00493818
0.0122996
-0.0135967
0.000402914
0.0127945
-0.00422764
-0.00896976
0.00310568
0.00443385
0.00959595
-0.00612179
0.000435861
0.00568593
-0.0079555
0.0011278
0.00210981
0.001334
-0.0110005
0.00755672
-0.0104192
0.0152459
0.00461947
0.0157475
-0.00333616
-0.0170308
-0.010008
0.00982479
-0.0155484
0.0157315
-0.00150044
-0.00752434
0.00263211
0.00639268
-0.00830294
0.015673
0.00465809
-0.00542273
0.00121503
-0.000450391
-0.00513795
-0.0163829
0.00512861
0.0163923
0.0107639
-0.0107424
-9.71728e-05
7.57249e-05
0.00870305
-0.0101621
0.0021642
-0.000705148
0.00223428
0.00873845
-0.0155678
0.00459505
3.80516e-05
0.00749939
-0.00753744
0.00486912
-0.0124752
0.00984033
-0.00470616
0.0126366
0.0106433
-0.0185737
0.00359042
-0.00365697
-0.0170069
0.0170735
-0.00512684
0.00849358
-0.0170379
0.0136711
-0.0122095
0.00972161
0.0127463
-0.0102584
-0.00764537
0.0104741
-0.00676739
0.00393864
-0.00161444
0.00703376
0.00114462
-0.00656394
0.00355955
-0.0051901
0.00535229
-0.00372174
0.00672602
0.00250268
0.00221235
-0.0114411
0.0191292
-0.0129872
-0.000783045
-0.005359
-9.10624e-06
-0.00927747
0.00928657
0.00581185
-0.00849805
-0.0260594
0.0287456
-0.00116768
-0.0126309
-0.00382836
0.017627
-0.000766916
-0.00580759
0.00657451
0.0017708
0.0083958
-0.00132699
-0.0088396
-0.00234296
-0.00845697
0.0068249
0.00397503
0.00655218
-0.00548769
-0.00963868
0.0166939
-0.0129924
0.0036799
0.00389817
-0.00757807
0.0126045
-0.00029176
-0.00150923
-0.0108035
-0.00242332
-0.00412183
0.00654515
0.00450199
0.00299141
0.0251978
-0.0303069
-0.0107037
0.0158128
0.00386683
0.00823864
-0.00630108
-0.00580439
-0.00882402
0.0168876
0.0112229
-0.0192865
0.00994431
0.00345178
-0.00133074
-0.0120654
0.016436
-0.0109596
0.00707224
-0.0125486
-0.00921713
0.00421478
-0.0115554
0.0165577
-0.0150069
0.0268925
-0.0105399
-0.00134569
-0.000399035
-0.00641742
-0.00884629
0.0156627
0.0121836
0.00503369
-0.0142967
-0.00292061
0.00652302
-0.0173896
0.0109757
-0.000109128
-0.0153694
-0.000585889
0.0100565
0.00589879
-0.00308258
0.00797378
0.0034669
-0.0083581
-0.00195402
0.00783637
0.00630439
-0.0121867
-0.0160182
0.00823925
-0.000778651
0.00855756
0.00146495
-0.00436063
0.00866685
-0.00577117
0.00679853
-0.00341993
0.00242665
-0.00580524
0.00657689
0.00126496
0.000647487
-0.00848934
-0.00971311
0.0104217
0.00386005
-0.00456863
-0.00230135
0.0123195
0.0002492
-0.0102674
0.00993996
-0.00583588
-0.00385392
-0.00025017
0.00858952
6.58564e-05
-0.00865538
0.00627909
0.00486174
-0.00110256
-0.0100383
0.00293673
0.00774902
0.00662827
-0.017314
-1.47874e-05
-0.0139268
0.0139416
-0.00727268
0.0281291
-0.00409927
-0.0167571
-0.000131448
0.0104819
-0.0103504
-0.00069993
-0.00754586
0.00135505
0.00689073
-0.0136792
0.00696922
0.00529512
0.0014149
0.00279363
0.00232159
-0.0159938
0.0108786
0.00815968
0.0128911
-0.00481759
-0.0162332
0.012305
-0.00421632
-0.0117779
0.0036893
-0.0153798
0.00877117
0.0234474
-0.0168388
-3.96417e-05
0.00589279
-0.00589282
3.96733e-05
-0.00609636
0.0060329
6.34603e-05
-0.0156451
0.000241595
0.00657948
0.00174807
0.00377689
0.0103405
-0.0158654
0.00815469
-0.00969922
0.00625582
-0.00471129
-0.00781456
0.0068439
-0.000259455
0.00123012
-0.00163321
-0.0128682
0.0164668
-0.00196544
-0.00575543
0.00277156
0.00911236
-0.00612849
0.00997372
-0.0038445
0.00147082
-0.00760005
-0.00662019
-0.00115433
0.00774979
2.4735e-05
-0.00113891
-6.10692e-05
0.0108166
-0.00961663
0.00137695
-0.00115825
0.0108274
-0.0110461
-0.00973963
0.0136139
-0.0142664
0.0103921
6.48034e-05
-0.0122751
0.0122103
-0.00437189
0.000382939
0.0110213
-0.00703239
-0.00838381
0.00980144
-0.013367
0.0119494
-0.00859473
0.000651866
0.0026117
-0.00398184
0.0107879
0.000600306
-0.00740639
-0.00287777
0.000399919
-0.00486319
-0.0042462
-0.013793
0.013856
0.00418314
-0.00614336
-0.000719808
-0.00154346
0.00840662
-0.021057
0.00711544
0.00207835
0.0118632
-0.00665694
0.015267
-0.00759217
-0.00101791
0.00464789
0.0018258
-0.00935145
0.00917181
0.00935286
-0.0185247
0.00123532
0.0201171
-0.00465549
-0.016697
-0.000255852
-0.000357344
-0.00888017
0.00949337
-0.00965901
0.0159094
-0.00641335
0.000162998
0.0091675
-0.0057887
-0.00830883
0.00493002
0.00228933
-0.000307011
0.00280236
0.0140868
0.00393575
-0.0203766
0.00235405
-0.00976223
-0.00127166
0.00320038
0.00783351
0.00369229
-0.00409855
-0.00555118
0.0169748
-0.0114186
0.00887526
-0.0144315
-0.00187799
0.0109601
-0.0189552
0.00987307
0.00658453
-0.00832157
-0.000843185
0.00258022
-0.00727828
-0.00253347
-0.000246417
0.0100582
-0.00543005
-0.00513466
0.0105647
0.00136499
-0.0145739
0.0129246
0.000284397
0.00558817
-0.0053887
-0.00562952
-0.00910589
0.0115559
-0.00220312
-0.000246866
0.0130322
0.00358445
-0.0140391
-0.00257749
-0.00503942
-0.00736314
-0.000844813
0.0132474
0.00828433
-0.00252059
0.00960639
-0.0153701
-0.0092224
-0.000517238
-0.0110457
0.005911
0.00142129
-0.0123675
0.00395713
0.00698903
0.00359808
-0.0128843
0.00709553
0.00219069
0.00192532
0.000505577
-0.00965881
0.00722792
0.0014778
0.00631927
-0.000427555
0.0108657
-0.00214694
-0.00829118
-0.0042623
-0.000438244
-0.00398552
0.00868607
-0.00252253
-0.00339791
0.00649679
-0.000576343
-0.0100842
-0.000142196
-0.017047
0.00611999
0.00897303
0.0242332
-0.000198834
0.00330433
-0.0273387
-0.0106046
0.0164754
0.00334081
-0.00921166
-0.00302215
0.00165663
0.0104315
-0.00906599
0.00126373
0.00358731
-0.00277525
-0.00207579
-0.0182273
-0.00376171
0.0157298
0.00625916
0.000398939
0.00769783
-0.00154459
0.000235804
0.0038762
-0.0121626
0.00805065
-0.00752276
-2.66414e-05
0.00277373
0.00477567
-0.0103223
0.0127564
-0.00203519
0.00582472
-0.00525232
-0.000572398
-0.0085928
0.00123709
-0.00667593
0.0140316
-0.00388368
0.00584417
-0.00450454
0.00254404
-0.00836024
0.00941443
-0.00389056
0.00283637
0.00376508
-0.00061974
-0.00891714
0.0057718
-0.00373885
0.0234366
-0.0315452
-0.00340292
-0.00237493
0.00232543
0.00345242
0.0111305
-0.0173769
-0.000787503
0.0070339
-0.00469959
0.00350696
0.00604387
-0.00485124
-0.00139538
0.00742552
-0.00204678
-0.00398336
-0.00835456
0.00185355
0.0019528
0.00454821
-0.00465999
0.000400442
0.00425955
0.0107452
-0.00511671
-0.00545178
-0.000176746
0.000787873
0.00536718
-0.00814666
0.0019916
-0.00575279
-0.00697351
0.00711114
0.00561515
-0.00297887
0.00768604
-0.0065909
0.00188372
0.00277891
-0.00526059
0.00362579
-0.0011441
0.0100778
0.000273
-0.0103508
0.00867913
-0.010687
0.00528907
-0.00328123
-0.0136208
-0.000397006
0.0140179
0.00560877
-0.00465372
0.00108579
-0.00204084
-0.000442191
0.00965838
-0.0105426
0.0013264
-0.00484203
0.0060618
0.00155913
-0.00537644
0.0115189
0.0106433
-0.00916078
0.00907991
8.08683e-05
0.000250398
-0.0144797
0.0142293
0.019565
0.00236353
-0.00417273
-0.0177558
0.00408754
-0.0159432
-0.00197605
0.0138318
0.0031047
0.00366859
0.00206662
-0.00883991
-0.00548438
-0.00549045
7.44391e-05
0.0109004
-0.00261712
0.00359487
-0.00646213
-0.0120622
0.00217862
0.0158345
-0.00595091
-0.023679
0.0173411
0.00763334
-0.00129539
0.0104708
8.70132e-05
-0.0105579
-0.00594921
-0.00800649
0.00517655
0.00877916
-0.00597538
-0.00867651
0.00258965
-0.00859993
0.00466989
0.00540784
0.00349318
-0.00454346
-0.0083391
0.00938937
-0.00588467
3.86177e-06
0.00588081
-0.0137231
0.00557916
0.00566603
0.00247794
0.00346548
-0.00926703
-0.00279838
0.0117905
-0.00374023
-0.00029731
-0.00775294
-0.00791344
0.0131133
0.00778258
-0.0129825
-0.00232721
-0.00488286
0.00180174
0.00540833
-0.00333908
-0.00268567
0.00602475
-0.00582258
-0.0122387
-0.00561779
0.00273564
3.55855e-05
0.00551967
-0.00829089
0.011209
-0.00816307
-0.0118052
0.00875922
-0.00415908
0.00148275
0.00840292
-0.00572659
0.00788564
-0.00555149
-0.000781728
-0.00155243
-0.00904233
0.00146799
0.00706305
0.000511291
-0.00560193
0.0128685
-0.0139442
0.00543655
0.000403199
0.00810446
0.0130869
-0.0104571
-0.00823415
0.00560432
-0.0104066
0.00216522
0.0194504
-0.0101099
-0.00666501
0.0108801
0.00589489
-0.00118107
0.0105301
-0.00399482
-0.00535423
0.000598739
-0.00620088
-0.00408953
0.00969167
0.0119882
-0.00790868
-0.000486462
-0.00359301
0.0037046
0.00276714
-0.00908886
-0.00252039
0.00285331
0.00703628
-0.0073692
-0.00209182
0.0109225
-0.013462
0.00463131
-0.00655295
0.00158051
0.00158566
0.00338678
-0.014364
0.0146106
-0.000246508
0.00989115
-0.00975004
-0.000141106
0.00398093
-0.0153724
-0.00590307
0.0172946
0.00352449
0.00670258
0.00156341
-0.000168822
0.00585922
-0.0056904
0.00938961
0.00841696
-0.0178066
-0.0104297
0.00636719
0.0045004
-0.000437909
-0.00585722
0.00193023
0.0047619
-0.000834915
-0.0175155
0.00817533
0.00960859
-0.000268407
-0.0056765
-0.00632923
0.00612106
0.00899349
-0.0014172
-0.00579443
-0.00178186
-0.00967352
0.0104481
-0.00637647
0.00170959
-0.0108478
-0.000556112
0.00969434
-1.26535e-05
-0.00532564
0.0053383
0.0261881
0.000205074
0.00278946
-0.0291827
-0.000983941
-0.00192723
-0.0141959
0.0171071
0.00454294
-0.00615099
-0.00286552
0.00447358
0.00176307
0.0135486
-0.00547441
-0.00983725
0.0147719
-0.0147802
-3.37715e-05
4.20847e-05
-0.00828819
-0.00747902
0.0116892
0.00407805
0.00483873
0.00370194
-0.00964283
0.00110217
6.7446e-05
0.00897017
-0.00916617
0.000128551
-0.0123455
0.00395465
0.0100053
-0.00161437
0.00948314
0.00573301
-0.00960049
-0.00561566
0.000224072
-0.00844481
0.00428936
-0.00219931
0.0126819
-0.00682877
-0.000889075
-0.00106558
0.00878343
-0.0113941
0.000597441
0.0107966
0.0166884
0.00721068
-0.00540891
-0.0184902
-0.0108986
0.000234411
0.0108882
-0.000997303
-0.00259645
-0.00663029
0.010224
-0.00130529
-0.0013093
-0.00351201
0.00612661
0.00274609
-0.0139328
0.0105049
0.000681824
0.00865153
-0.00134982
-0.00841851
0.0011168
-0.0107091
0.00224049
0.000868156
0.00760047
-0.00407612
0.00267056
-0.00551126
0.00691682
0.00234494
0.00148675
-0.0138084
0.0099767
0.000482169
-0.0093573
-0.00065138
0.00952651
0.00928241
0.00121586
-0.000158219
-0.01034
-0.0110774
0.00258078
0.0100244
-0.00795303
-0.0105594
0.0185124
0.0153497
-0.00781539
0.00330488
-0.0108392
0.00120652
0.00861992
-0.0052835
-0.0124123
0.0022827
0.00439979
0.00572978
0.0153179
-0.0157771
0.000459147
-0.00926997
-0.00314719
0.00648866
0.00592849
-0.0120273
-0.00934295
0.00626354
0.0151068
0.0125259
-0.013082
-0.00160092
0.00215704
-0.00182103
0.00608093
-0.00479297
0.000533072
-0.0156885
0.00511518
0.00360288
0.00697048
-0.0230839
0.0287472
0.00476424
-0.0104276
0.0103043
-0.0223408
-0.00114776
0.0131843
-0.00916882
0.0116583
-0.0216054
0.019116
-0.00962391
0.0212016
0.00210671
-0.0136844
0.000846725
0.010059
-0.00234752
-0.0085582
0.0152951
-0.0114722
-0.000385772
-0.00343712
-0.00268556
-0.00257921
0.00394166
0.00132311
-0.00723999
-0.0150601
0.0128433
0.00945676
-0.0102588
0.0136654
0.0118885
0.00833889
-0.00613021
-0.00763966
0.00543097
0.00308192
-0.00398803
-0.00176128
0.00266738
0.00681898
-0.00674373
-0.00898617
0.00891092
-0.0027655
0.00793381
-0.000573992
-0.00459431
-0.0109916
-0.00175295
0.0135913
-0.00828981
-0.00203833
0.0102485
7.96469e-05
0.00339164
-0.0075773
0.00418566
0.00270441
-0.00359216
0.0133826
-0.0124948
0.0104508
-0.014695
0.00212783
0.00211641
0.00666354
-0.00718938
0.000525838
-0.0105393
0.000280461
0.00942632
-0.00359103
-0.00909585
0.00326056
0.00296143
0.00240177
0.0105303
-0.0158935
0.00650124
-0.00705911
0.000557876
-8.05151e-05
0.00819297
-0.00926229
0.00114984
-0.0115776
-0.00111624
0.0153983
-0.00499589
-0.00085384
0.00115416
0.00469558
0.000690112
-0.00570357
0.00420733
0.000806128
0.00934325
-0.00894294
-0.00222134
0.00107319
0.0154392
-0.00972468
-0.00678766
-0.00531399
0.0112324
-0.00591843
-0.0143812
0.00550738
-0.00337354
0.0122474
0.0113272
-0.0102638
-0.016752
-0.00551157
-0.00659513
0.0226667
-0.01056
-0.0161858
0.0103061
0.0146952
-0.00881552
-0.000360671
-0.0138061
0.0141668
0.0219071
4.41357e-05
-0.0126231
-0.00932812
0.0126987
-0.0081789
-0.00112901
-0.00339082
-0.0092634
0.00657461
-0.00166024
0.00434904
0.000125854
-0.00951045
0.00938459
-0.00696243
0.00716637
-0.000203949
-0.00505234
-0.00534221
-0.0136874
0.0240819
-0.0128899
0.00281153
-0.00144131
0.0115196
0.00298956
0.00485143
0.0132361
-0.0119436
-0.00987698
0.00858449
-0.00367359
-0.00757288
0.00835435
0.00289212
-0.0076305
-0.00388043
0.0115222
-1.12252e-05
0.00249661
-0.00143716
-0.00706227
0.00600282
0.0084226
0.000373617
-0.0107662
0.00197
0.00259827
-0.00180617
0.00278912
-0.00336493
0.00335241
-0.00277661
0.00688706
0.00674401
-0.00688678
-0.00674429
0.00338626
0.00790824
-0.00818316
-0.00311134
0.00717912
0.00311215
-0.00564338
0.00889854
-0.0107897
0.00226481
-0.0118271
0.00826875
0.00445142
-0.000893087
0.0140525
-0.00465364
-0.0147128
-0.0037478
0.0100348
0.00504021
0.0097841
-0.004766
-0.00824164
-0.00224598
-0.00133945
-0.0131514
0.0123072
0.0011561
-0.000311862
-0.000818859
0.0164404
-0.00170419
-0.0139173
-0.0107102
0.00218213
0.00478029
-0.0017209
-0.010866
0.0030536
0.00953333
0.00982478
0.00136304
-2.69947e-05
-0.0111608
-0.0146677
-0.000123028
0.000100525
0.0146902
-0.00377662
0.00413345
-0.00671895
0.00636212
-0.0101029
0.0127769
-0.00131964
-0.00135437
0.0132741
-0.0123959
-0.010981
-0.00982107
0.00885698
-0.00281174
0.00377583
0.00792786
-0.000357202
-0.00249362
-0.00507703
-0.0148524
0.0143225
0.00701953
-0.00648955
0.00704687
0.00268396
-0.000894852
-0.00883597
0.00254151
0.0064395
-0.00805486
-0.000926146
-0.00476654
0.00479465
-2.81121e-05
-0.00278983
-0.00712298
0.00714731
0.0107561
-0.0106638
-9.22897e-05
-0.00606821
-0.00483392
0.00475114
-0.00063658
-0.0072718
-0.000795924
0.0087043
-0.000824936
-0.00635113
0.00567732
0.00149874
0.0099863
-0.0113505
0.00136424
-0.0127492
0.0130902
0.011974
-0.012315
-0.00859145
0.00663674
-0.00452078
0.00647549
-0.00343711
0.00146894
0.00311222
-0.00114405
-0.000363344
0.0155133
-0.000134709
-0.0150152
-0.00784586
0.00380376
0.00386355
0.0044885
0.00571233
-0.00996644
-0.000234391
0.000432587
-0.0123813
-0.000485403
-0.0112138
0.0112113
2.49187e-06
-0.00752935
0.00379121
-0.0082892
0.00255044
-0.00564411
0.000228149
0.00492233
0.00213735
0.00741715
0.000144505
-0.0063428
-0.00121885
0.00620938
-0.0154928
0.0124214
-0.00313803
0.00257045
-0.00350347
0.013031
-0.0120979
0.0159709
0.00470839
-0.00245746
-0.0182218
-0.00406353
-0.00665869
-0.00215909
0.0128813
0.00483332
0.0201449
-0.0181895
-0.00678866
0.00232141
0.0145924
-0.0140867
-0.00282718
-0.00502048
0.000662617
0.0102899
-0.00593199
-0.00176417
0.0143308
-0.00773328
0.0103634
-0.0081828
-0.00319322
0.00101262
0.00339466
0.00888306
-0.0122777
0.00830551
0.00184262
-0.00110632
-0.00904181
-0.00763655
0.00610278
0.000614019
0.000919751
-0.00074562
-0.0108102
0.000629326
0.0109265
-0.00793737
-0.00100781
-0.000332002
0.00927718
0.00456784
-0.0101287
0.00010069
0.00398164
0.00604639
8.5174e-05
0.00657783
-0.006663
0.000814595
0.0115527
-0.0295188
0.0171516
0.00326118
-0.00821774
0.00780758
-0.00285102
0.00468037
0.00534299
-0.00370042
-0.00632294
4.80145e-05
-0.00590235
0.00585433
-0.00320022
-0.00227118
0.012961
-0.00748965
-0.00395802
0.0132197
-0.0114103
0.00214861
0.0144536
-0.0100427
-0.00969922
0.00528827
-0.00593754
0.00402501
0.00184168
7.08393e-05
-0.000805073
0.00456224
-0.00244714
-0.00131003
0.0155444
-0.0121498
0.00722258
-0.000834839
-0.0118227
0.00543496
-0.00329768
0.00308361
0.00369454
-0.00348046
0.000187301
0.0148652
-9.24044e-05
-0.0149601
-0.0108489
-0.00357331
0.0147065
-0.000284249
-0.003082
-0.00131802
0.003383
0.0043838
-0.00644879
0.00877575
0.00618322
-0.0131245
-0.00183443
-0.00270132
-0.00176245
-0.0117477
0.0162115
0.0154717
-0.012234
-0.0215624
0.0183247
-0.006012