/*--------------------------------*- C++ -*----------------------------------*\
  =========                 |
  \\      /  F ield         | OpenFOAM: The Open Source CFD Toolbox
   \\    /   O peration     | Website:  https://openfoam.org
    \\  /    A nd           | Version:  10
     \\/     M anipulation  |
\*---------------------------------------------------------------------------*/
FoamFile
{
    format      ascii;
    class       volScalarField;
    location    "6.5";
    object      T;
}
// * * * * * * * * * * * * * * * * * * * * * * * * * * * * * * * * * * * * * //

dimensions      [0 0 0 1 0 0 0];

internalField   nonuniform List<scalar> 
111485
(
303.15
285.126
301.01
303.15
298.463
283.15
298.971
293.409
296.392
286.27
300.554
296.23
300.251
284.585
300.015
286.777
299.312
298.251
294.113
303.15
303.15
283.15
297.296
288.719
301.547
303.15
293.226
300.629
288.911
303.15
300.744
294.328
303.15
283.15
283.456
283.15
302.29
297.651
283.149
296.633
283.15
289.647
297.05
302.888
303.19
303.15
287.415
288.577
289.686
303.15
303.15
283.15
303.15
298.976
303.15
293.563
287.921
283.15
283.324
295.488
295.89
303.15
302.075
300.302
283.15
284.575
300.411
291.563
302.126
302.539
303.163
301.917
303.15
302.125
303.15
295.376
283.15
293.51
283.15
283.15
283.241
293.406
283.15
303.15
300.351
284.228
283.15
301.573
303.121
299.131
283.355
289.627
300.896
300.386
289.841
303.15
303.15
301.573
303.149
283.42
303.15
286.688
283.15
285.201
285.761
283.15
283.15
293.073
301.472
283.146
298.94
288.103
301.318
301.719
303.15
301.996
303.15
283.15
300.162
303.15
303.15
283.15
283.15
283.15
283.403
303.152
283.15
301.832
303.15
283.178
303.085
301.967
303.15
283.15
283.15
292.555
283.15
294.267
298.823
301.116
303.137
296.85
299.001
284.79
302.286
297.848
283.15
303.15
283.15
297.177
284.952
303.15
303.144
287.368
283.156
293.768
295.676
302.528
283.154
303.15
303.15
292.238
286.269
283.153
283.157
301.209
283.693
283.15
283.152
283.152
283.15
303.15
283.207
283.15
291.555
287.21
283.15
303.15
303.15
283.15
303.15
303.15
297.681
293.558
295.841
289.816
301.404
300.456
283.19
303.15
301.47
303.15
303.15
300.192
286.298
301.433
301.332
295.802
303.15
300.894
284.611
283.161
300.806
297.072
303.15
300.449
288.258
303.15
283.228
300.194
284.826
300.716
303.15
303.15
300.73
283.15
292.844
283.15
300.635
298.753
290.401
303.15
301.767
300.549
283.15
283.15
283.15
289.534
283.157
283.15
303.15
298.69
291.433
289.953
283.15
303.15
303.108
303.15
284.344
300.117
299.299
299.547
299.417
283.15
283.144
298.891
283.15
283.15
288.776
288.406
283.15
301.204
298.913
303.15
283.15
301.021
303.15
303.15
303.122
303.15
288.292
285.876
290.84
303.15
298.371
303.15
303.15
303.15
283.148
298.119
301
299.453
291.22
299.512
296.266
283.212
290.391
291.64
283.15
303.15
283.149
292.466
298.754
286.486
303.15
298.021
297.284
298.925
302.963
283.166
297.138
299.392
302.004
283.15
283.617
283.15
283.149
303.15
283.909
290.283
286.334
303.15
283.15
297.62
285.276
303.15
303.15
303.15
284.608
290.295
301.087
284.42
293.054
283.15
283.15
303.15
298.381
303.15
283.83
289.57
283.152
283.15
303.15
303.15
283.15
294.386
289.981
283.15
295.757
283.15
303.15
301.091
297.335
293.991
295.864
283.15
283.15
283.15
296.65
291.064
302.37
283.15
283.15
283.15
290.105
296.975
283.215
290.517
283.15
292.824
299.589
284.208
298.716
285.273
283.15
303.15
283.15
303.15
290.686
296.637
287.993
291.999
283.15
286.375
283.15
303.15
293.848
303.15
301.818
303.15
283.15
292.01
283.15
288.831
284.641
283.15
283.993
298.067
283.15
300.175
284.692
298.876
303.027
291.108
286.022
283.15
303.15
303.144
283.15
301.01
300.872
283.15
283.15
294.702
284.377
298.23
296.82
283.15
295.176
296.141
283.15
302.065
283.904
303.15
303.15
288.298
298.628
283.15
303.15
303.15
303.15
300.741
283.15
303.15
293.959
283.171
286.978
300
283.15
283.15
302.622
283.15
302.472
301.462
297.909
289.045
283.15
293.961
303.382
303.15
298.683
292.327
303.15
283.15
283.308
283.15
290.072
286.132
291.704
283.15
292.922
296.595
293.115
303.147
283.15
303.15
303.15
283.169
292.781
283.15
284.332
303.134
283.15
303.15
303.15
303.15
301.821
290.571
286.021
284.203
284.325
283.15
285.723
303.15
300.765
283.15
303.15
303.15
300.693
303.15
303.15
283.151
303.15
283.15
300.703
283.15
283.15
283.15
303.15
283.15
303.15
283.15
283.672
283.15
303.127
301.85
283.751
283.15
303.086
283.15
303.15
284.721
284.683
286.143
297.579
283.15
297.538
297.648
292.352
286.853
285.28
303.15
291.812
283.15
299.898
283.15
296.838
283.15
292.139
298.611
303.151
283.15
286.834
303.15
295.555
299.124
283.15
283.15
283.15
283.15
303.15
293.726
283.15
283.15
283.24
283.15
299.851
283.15
284.813
303.15
283.437
303.122
284.66
291.961
283.15
301.478
283.15
283.15
285.713
283.15
283.257
283.15
299.705
303.15
290.722
303.15
283.15
302.392
284.479
300.118
285.672
300.118
289.485
283.15
300.656
284.56
283.15
283.14
300.379
301.61
283.15
282.43
301.088
303.065
283.117
303.15
287.588
302.185
284.414
285.408
288.248
282.532
283.15
303.15
300.667
303.15
283.554
283.15
283.15
291.824
282.669
303.15
303.118
283.15
286.3
299.609
283.15
283.15
299.621
303.15
283.15
283.15
283.15
286.179
283.15
303.15
284.838
284.24
303.15
299.712
283.15
289.259
303.15
283.15
286.177
283.15
283.15
283.15
285.403
283.15
285.465
292.019
303.15
300.389
283.451
298.749
300.956
283.33
283.461
283.15
289.009
298.478
303.15
302.264
296.06
296.909
284.732
297.474
297.216
303.15
300.257
303.136
283.15
297.183
284.848
283.15
292.428
295.769
284.867
298.805
300.651
292.386
283.15
298.938
283.472
303.15
300.611
301.98
294.14
283.15
286.53
303.15
283.15
283.15
283.15
283.304
283.15
303.15
303.15
283.15
300.428
299.29
303.15
285.641
303.15
303.15
303.15
290.041
283.422
283.15
303.15
283.15
283.15
286.856
292.436
283.15
295.19
283.136
283.15
295.366
302.235
287.82
283.15
283.15
300.274
292.139
283.15
283.15
283.15
294.03
303.15
303.15
283.15
296.288
302.388
283.15
282.427
301.828
286.567
283.15
283.15
287.469
302.972
283.15
283.16
287.362
283.764
288.83
283.15
285.716
300.325
283.15
303.15
283.15
283.15
283.15
283.15
295.721
303.15
283.15
283.15
295.336
291.864
303.15
303.15
289.89
298.463
298.36
303.15
283.15
298.035
303.15
283.841
298.859
298.383
303.15
303.15
303.15
283.15
286.076
283.15
283.15
302.707
303.15
297.858
302.288
283.15
294.103
283.257
296.482
291.987
283.424
289.826
283.15
283.15
296.929
288.103
290.853
283.15
283.15
297.975
295.026
283.15
283.917
284.607
283.48
303.15
303.15
303.15
290.755
283.15
300.085
283.15
284.383
297.617
298.551
292.314
283.15
283.15
303.15
295.421
283.15
283.15
303.1
283.15
283.15
303.15
283.15
299.358
283.15
283.15
283.15
283.15
283.15
303.15
283.15
283.172
298.782
303.15
302.536
283.13
283.402
283.095
285.547
283.15
284.461
290.552
283.402
303.15
283.149
299.771
283.15
300.282
283.15
283.143
286.224
297.534
283.21
291.881
297.984
283.15
283.15
299.097
299.83
283.15
297.397
291.291
297.548
283.15
283.245
283.15
297.863
296.983
283.15
300.1
297.631
283.149
299.805
283.15
295.669
283.144
303.122
283.162
283.16
283.15
283.15
284.441
283.15
302.973
283.594
283.066
303.148
303.149
303.147
283.15
283.15
293.845
303.15
303.168
283.878
283.15
283.15
303.154
303.149
283.15
303.165
283.15
283.15
303.15
303.15
303.15
303.15
283.366
283.15
283.15
283.15
303.158
283.307
283.896
293.498
283.15
283.15
283.338
283.15
283.15
283.15
287.26
293.65
283.15
283.15
283.15
283.15
283.15
283.15
284.016
283.15
303.15
291.604
283.15
303.15
303.15
303.153
303.15
303.15
283.15
303.17
283.15
283.704
283.144
303.152
283.15
303.064
284.414
292.133
303.15
303.129
284.466
303.15
283.15
303.15
283.15
294.088
293.518
284.66
303.148
283.15
293.294
283.15
283.15
303.15
283.15
294.889
283.15
303.15
283.163
298.178
303.15
284.397
283.15
283.585
283.15
283.15
283.15
303.15
285.882
283.475
284.321
283.15
283.15
285.668
283.15
283.15
303.15
284.348
303.164
298.601
303.15
303.128
303.129
283.15
303.131
283.15
283.448
289.189
301.008
283.813
283.167
283.15
283.15
283.15
303.182
283.15
302.911
303.15
292.862
303.15
288.737
283.833
303.15
283.15
303.15
283.15
301.818
303.15
303.15
286.446
300.595
283.15
283.15
283.15
283.15
283.15
283.15
300.85
283.584
303.15
303.15
303.157
303.15
300.232
284.433
283.15
302.131
303.15
301.649
283.15
302.581
283.15
283.148
303.152
283.315
302.133
300.271
283.147
283.15
289.376
303.15
293.437
303.15
283.15
303.15
283.15
283.15
283.15
300.846
302.072
303.15
303.15
303.15
302.907
283.15
303.15
292.947
283.083
303.15
297.527
298.304
296.531
283.379
283.15
283.15
283.15
283.15
294.671
283.15
294.925
283.15
303.061
289.86
283.15
302.866
283.15
283.15
302.75
283.148
302.924
283.15
303.15
283.15
302.405
283.15
303.15
283.15
283.148
283.15
283.172
283.15
283.15
303.15
292.997
301.102
296.166
297.072
303.15
303.117
283.15
283.15
285.725
283.15
283.158
302.852
298.788
302.949
303.15
283.364
283.15
303.15
283.15
302.997
283.325
298.293
283.15
303.15
288.125
303.15
283.15
283.124
295.136
283.147
283.15
283.15
283.149
303.15
283.15
303.142
303.15
303.15
289.981
302.992
303
289.053
293.311
283.15
283.15
303.092
289.124
283.15
303.15
284.749
283.15
303.15
283.15
283.15
283.15
297.596
283.15
302.944
283.15
300.542
283.15
283.15
283.15
283.15
283.15
283.15
285.042
283.15
283.15
283.15
283.15
283.15
283.15
292.051
283.15
298.36
302.943
283.15
302.327
283.15
302.53
303.145
292.311
288.81
303.15
292.176
284.803
303.111
303.15
303.139
295.059
288.702
283.15
287.923
283.15
283.15
283.15
283.15
287.554
283.15
283.15
291.661
303.136
285.333
283.15
283.15
302.523
283.15
283.185
303.15
299.901
283.15
283.15
302.825
283.15
303.178
303.15
283.15
289.088
297.969
292.72
285.694
292.62
294.165
283.15
283.15
302.304
290.611
292.824
284.426
283.15
294.374
283.15
303.15
300.77
298.741
283.15
297.42
283.15
292.784
297.257
303.15
283.15
283.15
301.8
283.15
283.15
300.541
296.145
283.196
291.246
283.15
283.15
302.806
300.559
283.15
300.677
283.15
300.533
283.15
283.15
300.836
283.15
283.228
301.621
283.15
283.15
302.445
283.15
287.939
303.15
290.469
303.15
303.15
303.15
300.981
283.15
283.15
299.581
283.15
302.994
283.15
283.15
303.15
283.151
288.227
283.15
283.15
288.089
288.268
283.15
283.686
283.15
303.15
302.432
283.736
301.594
283.15
283.15
283.15
283.15
283.15
283.15
283.15
283.15
283.15
283.15
283.15
303.15
283.15
283.15
283.15
283.15
283.15
283.15
283.15
283.15
303.15
286.979
283.15
283.15
283.15
294.761
283.15
303.15
302.938
283.15
283.15
294.769
283.15
283.15
301.874
295.245
283.15
303.628
303.59
283.15
301.53
294.016
297.6
301.498
298.172
303.15
283.15
296.37
291.816
301.442
283.15
302.164
302.421
300.901
288.067
287.335
301.086
301.789
301.805
303.15
285.894
297.582
285.557
297.287
283.15
283.15
283.15
303.15
283.15
292.036
297.947
283.15
283.15
283.15
283.15
283.15
303.15
283.15
303.15
292.144
303.121
299.057
302.844
283.15
283.15
285.427
283.167
283.15
283.15
301.7
303.15
283.15
298.185
299.541
297.556
298.699
300.835
303.15
291.062
302.596
303.15
303.15
300.36
303.15
283.15
282.962
295.607
302.952
283.15
303.15
289.658
286.19
297.14
292.235
302.431
303.15
303.137
303.15
303.15
283.15
298.944
283.15
291.847
290.5
299.73
284.781
303.15
301.945
303.15
283.15
303.15
303.15
291.532
299.683
283.15
303.15
303.133
291.826
303.036
299.382
292.873
288.348
292.968
283.15
303.15
283.15
291.312
298.347
303.151
303.15
303.15
303.15
297.524
302.561
283.15
300
301.161
284.887
299.55
303.15
303.15
298.726
293.017
283.15
302.908
299.775
302.612
292.018
297.348
298.297
303.15
287.006
298.17
291.405
283.15
289.118
303.15
288.415
301.092
303.15
288.74
301.309
300.157
293.224
283.15
283.159
283.24
301.705
300.954
303.15
288.837
301.509
303.15
283.15
303.15
303.209
298.804
290.947
296.802
303.251
283.149
297.604
303.15
303.15
292.85
303.15
300.32
283.308
301.347
291.545
303.15
283.667
293.274
303.15
283.044
298.724
303.15
300.726
286.28
303.15
303.15
284.004
303.15
283.15
283.15
285.929
299.311
291.248
303.15
285.247
297.536
283.15
298.886
298.92
289
303.103
283.15
301.507
299.624
298.886
300.12
288.679
290.845
302.485
303.15
301.579
288.744
303.15
298.897
283.15
283.15
303.15
283.15
303.15
297.468
283.15
300.558
283.642
303.15
283.805
283.15
289.873
303.15
303.145
303.15
294.199
302.997
303.119
299.913
290.433
289.467
290.607
298.486
303.15
299.448
292.217
298.986
303.15
283.882
283.458
299.307
287.202
283.517
303.15
283.15
303.15
285.354
303.15
303.316
284.705
303.334
302.958
303.15
303.15
283.15
300.586
300.637
285.525
303.088
287.019
295.724
301.883
292.553
288.209
302.088
296.149
283.15
283.15
303.15
285.838
289.729
283.15
283.15
303.15
301.997
288.734
303.15
296.434
303.15
283.156
285.214
301.093
303.15
303.15
292.333
303.15
283.305
290.636
283.15
297.189
294.664
296.093
303.15
302.72
283.15
302.675
293.486
303.15
303.15
288.812
283.15
303.15
301.825
284.462
303.15
303.15
283.15
302.36
303.451
289.54
299.746
298.041
303.15
303.158
302.615
303.15
283.15
303.15
303.15
303.15
303.15
303.15
303.15
303.15
283.15
303.15
303.15
283.345
303.15
303.328
303.15
303.16
303.15
303.15
300.976
303.68
303.15
292.08
303.15
303.15
283.15
302.569
303.15
302.145
303.116
283.292
283.15
303.15
302.93
283.149
303.15
303.15
291.422
283.15
292.644
283.15
283.15
283.153
291.271
284.856
303.15
296.686
283.15
303.709
303.134
284.329
302.605
283.15
292.221
303.084
301.698
283.15
303.15
283.15
304.053
284.838
296.895
303.15
303.15
303.15
303.15
303.15
303.15
302.364
302.815
297.658
292.103
303.15
287.186
292.693
284.997
303.206
283.15
286.941
302.761
284.79
283.148
287.498
303.15
283.387
302.924
292.586
302.852
301.924
303.15
302.233
303.15
303.15
297.975
303.15
284.494
303.15
303.15
283.15
303.15
303.15
302.851
303.15
283.3
283.15
283.15
285.85
284.92
300.91
286.134
303.15
294.846
303.15
290.491
303.15
287.194
300.72
301.511
293.398
303.15
303.15
303.15
289.824
283.15
303.15
289.578
283.15
283.15
301.848
303.15
286.208
283.148
283.15
303.15
303.15
300.671
298.239
303.15
293.495
303.041
283.15
298.584
303.15
286.43
288.259
302.156
303.15
296.327
296.75
302.957
301.904
301.673
303.15
303.15
303.147
303.15
283.15
303.15
289.582
300.068
294.367
302.15
283.15
300.4
291.452
298.263
283.61
298.38
289.669
302.182
283.15
283.15
283.15
302.228
283.15
290.516
283.15
301.296
303.161
289.736
298.066
283.15
303.15
301.284
301.262
303.15
283.15
303.15
286.442
301.473
302.982
302.354
298.042
288.457
303.15
303.15
303.15
294.307
286.004
289.862
295.943
283.969
302.96
303.15
303.15
283.15
283.15
285.439
299.619
303.15
303.15
283.15
303.15
303.15
303.15
300.301
303.15
285.386
292.645
283.15
283.25
293.424
285.711
303.15
303.15
301.911
303.15
299.279
283.146
297.608
303.15
303.15
283.15
303.15
303.15
303.15
305.282
303.15
301.864
301.126
303.15
303.15
301.646
303.15
283.15
287.276
303.109
303.15
303.15
303.15
297.984
303.15
303.15
302.506
302.502
301.804
303.15
283.15
303.15
302.065
302.523
301.553
302.545
283.15
300.69
287.554
297.482
283.15
303.15
303.15
303.15
303.15
294.425
287.587
299.66
303.15
303.15
303.15
303.15
283.15
303.148
284.801
285.168
283.15
303.15
303.15
283.148
299.632
295.023
283.15
303.15
303.15
303.15
303.15
289.631
289.725
303.15
303.15
302.402
303.15
301.45
283.961
291.938
303.15
283.15
301.17
303.125
303.15
303.155
301.35
286.88
303.15
303.15
303.15
303.15
293.323
284.166
303.15
302.704
298.131
289.622
303.15
303.15
303.15
303.15
299.576
303.151
303.15
303.15
298.316
302.589
288.405
303.15
303.15
297.818
303.15
303.15
303.15
303.15
288.847
303.15
283.15
283.15
295.999
291.15
303.15
303.15
303.15
297.033
303.146
303.15
303.15
303.15
303.15
303.42
300.914
303.15
287.373
302.655
299.435
303.15
303.15
303.15
303.15
283.15
285.697
303.15
302.84
283.15
302.197
303.15
303.135
303.15
283.15
301.929
285.819
283.15
302.835
303.15
302.434
283.15
303.15
303.15
303.151
303.15
283.272
303.15
290.879
283.15
283.15
303.15
303.15
298.88
302.394
283.15
302.439
283.15
284.115
288.039
302.713
283.15
303.155
302.991
303.135
284.416
283.156
302.988
283.15
283.15
283.156
302.099
302.31
303.15
283.15
283.15
295.555
303.15
283.15
303.15
303.15
303.15
303.107
303.049
302.936
302.463
303.15
302.912
303.15
284.84
303.15
303.15
283.15
303.15
303.111
303.15
283.15
303.15
288.34
303.15
303.15
303.173
283.15
302.948
302.199
296.912
303.15
289.593
294.879
283.884
290.209
283.15
283.15
287.233
284.339
283.15
303.778
283.15
286.433
303.15
283.15
303.156
303.15
303.15
303.016
303.155
303.15
283.15
303.139
303.15
283.15
283.104
298.794
302.712
303.15
301.867
303.15
285.721
303.152
301.213
303.15
303.15
301.076
303.15
303.15
303.15
287.719
303.15
285.165
303.15
303.147
303.15
283.15
283.15
303.15
303.15
303.15
288.747
302.564
303.15
303.15
288.65
286.542
291.334
303.15
302.711
287.697
287.563
303.15
303.15
287.787
283.15
291.974
303.15
303.152
303.149
303.15
300.564
283.15
302.312
283.15
303.15
303.15
303.15
303.15
303.15
284.349
302.262
291.12
303.15
303.15
290.651
303.15
303.15
303.15
303.15
303.15
300.195
303.15
303.15
283.15
299.506
303.15
283.15
303.15
301.4
283.15
300.004
290.802
302.692
300.066
299.487
303.15
303.15
303.15
300.868
288.538
283.15
303.15
300.358
303.15
303.15
292.051
303.15
287.519
303.15
297.885
284.337
303.15
283.15
303.15
303.15
303.15
285.283
303.15
300.525
303.15
303.15
299.748
283.15
284.769
303.15
303.15
288.163
301.541
296.483
303.15
303.15
303.15
301.559
292.316
303.15
283.15
303.15
300.708
303.15
284.792
296.365
303.15
303.15
301.17
303.15
303.15
283.15
303.15
283.15
294.646
303.15
283.15
303.15
303.15
303.15
303.15
303.15
303.15
283.15
301.507
283.15
302.098
303.15
303.15
296.124
300.516
303.15
283.15
303.15
300.917
283.15
303.15
303.15
303.15
300.752
303.15
297.733
303.15
285.869
283.15
286.757
303.15
303.15
298.539
283.15
303.15
287.905
283.247
303.15
303.15
285.104
283.86
300.886
301.756
301.216
293.176
301.76
283.856
303.15
297.78
283.15
283.15
303.15
303.15
303.15
301.239
303.15
303.15
303.15
303.131
283.17
283.15
283.564
303.15
302.03
283.15
303.143
296.165
283.15
294.629
303.15
303.15
283.15
299.93
283.936
303.15
283.15
299.957
303.15
297.701
303.15
295.353
303.15
283.15
303.15
283.15
299.451
283.15
283.228
283.15
286.222
303.15
303.15
283.15
283.15
303.15
303.15
303.15
303.15
284.892
284.785
283.15
303.15
283.234
283.15
283.15
303.154
289.93
283.543
283.15
301.526
284.896
300.478
288.231
303.15
303.15
303.15
303.15
283.15
283.15
283.15
303.15
283.15
283.15
303.15
283.15
297.304
283.15
303.15
283.15
303.15
303.15
283.364
283.15
303.15
301.966
303.149
303.15
303.15
303.15
288.746
283.15
303.15
303.149
283.15
303.15
303.15
303.15
295.26
283.15
283.183
303.15
303.15
303.15
303.15
303.15
303.149
303.147
284.117
303.15
283.15
303.15
303.149
303.15
303.148
303.149
283.15
283.15
283.15
303.15
303.15
283.15
303.149
283.15
287.725
283.15
301.832
283.15
303.154
303.15
284.62
283.15
284.462
297.438
303.15
284.704
303.172
303.15
297.447
283.15
303.15
303.15
303.15
303.15
283.15
303.15
303.15
299.198
283.15
303.15
303.15
303.15
303.15
292.339
290.574
303.17
283.165
303.15
301.836
302.332
303.15
283.15
283.15
303.15
303.15
303.15
283.15
283.15
283.826
303.15
303.15
303.196
303.151
283.15
288.915
303.15
283.15
303.15
288.114
303.15
283.15
302.132
283.15
283.15
283.15
303.15
299.707
303.15
303.15
303.15
283.15
284.514
293.635
295.277
289.609
303.122
303.022
283.15
283.15
301.052
283.697
283.15
303.149
303.15
303.15
283.15
294.594
303.15
283.15
302.983
303.15
303.15
283.801
303.15
303.15
288.451
289.613
303.15
283.15
303.15
283.15
303.15
303.15
303.15
303.15
283.953
303.15
303.15
303.15
302.934
303.15
303.15
283.15
283.15
283.15
283.15
302.947
283.15
283.15
300.994
303.15
284.782
284.943
303.15
301.153
303.15
283.15
303.15
283.15
283.15
303.15
303.15
303.15
302.673
303.15
303.15
303.15
283.15
303.15
283.15
286.395
303.15
303.15
291.668
303.15
283.15
283.15
302.431
303.15
303.148
283.15
303.194
286.696
283.15
283.15
299.245
283.15
283.15
303.05
303.161
293.358
303.166
303.151
303.152
283.15
283.15
302.653
283.459
285.867
300.873
283.158
283.15
291.069
301.591
301.488
283.15
300.247
290.712
300.154
302.221
302.76
284.705
295.537
299.254
286.273
293.368
300.134
303.15
297.959
297.623
302.794
283.668
292.42
301.169
287.351
303.15
301.082
303.15
300.731
301.52
283.64
285.002
303.15
283.15
302.283
301.708
283.145
303.172
288.569
302.687
301.873
300.857
303.15
303.228
301.155
295.131
300.432
289.037
302.919
301.635
302.191
302.288
284.228
302.514
301.615
283.181
303.15
302.9
303.15
303.15
302.112
302.02
294.336
303.15
284.69
292.354
292.354
301
303.15
284.027
285.213
284.4
303.15
298.824
303.15
296.379
295.415
300.776
303.143
303.15
303.15
301.966
301.287
302.791
303.15
292.639
302.753
290.025
283.15
298.356
294.035
303.15
300.513
283.15
283.204
283.15
302.585
303.101
303.15
302.983
298.434
283.148
300.526
302.236
295.347
283.542
295.902
297.118
283.467
303.134
284.76
296.324
283.321
296.93
300.533
300.288
300.391
302.014
289.927
301.598
303.15
302.727
302.659
302.657
296.495
302.887
283.15
302.033
293.445
303.15
283.437
286.854
301.22
302.606
290.555
284.838
287.737
302.631
296.426
303.15
303.15
295.055
283.15
292.721
283.434
303.15
290.583
290.331
283.92
303.15
297.316
298.495
284.242
301.27
294.19
290.192
300.547
303.108
303.15
303.15
283.545
302.624
283.351
285.827
303.15
303.02
303.04
303.15
285.432
300.798
297.9
283.249
299.595
302.385
300.538
286.948
283.15
303.107
301.834
283.748
283.14
303.15
303.075
303.15
303.15
284.194
302.542
296.377
283.036
283.153
303.15
283.15
302.955
303.046
302.515
301.435
303.15
283.15
283.15
301.839
301.895
283.217
295.874
303.15
303.15
301.641
285.526
283.26
301.703
301.801
301.749
284.417
303.15
283.15
298.469
297.794
303.15
302.712
302.098
284.777
284.994
302.129
303.055
303.15
298.178
284.444
283.15
303.15
300.591
301.246
302.034
289.665
302.091
285.691
300.182
300.272
290.36
297.589
303.15
303.15
300.965
284.484
302.109
283.151
300.543
301.73
283.631
288.317
302.433
283.15
283.15
283.029
303.15
303.15
299.977
298.959
302.3
283.147
283.15
283.948
283.151
283.15
283.152
303.078
300.961
299.222
295.947
283.372
303.099
300.176
303.15
283.15
302.57
289.256
300.813
292.715
283.51
303.062
283.148
283.15
302.841
301.237
302.623
283.156
291.344
284.894
303.15
284.273
301.06
283.15
283.311
284.966
284.237
283.15
283.15
301.66
283.15
289.439
302.54
302.712
301.788
283.485
298.502
290.178
283.15
303.329
292.137
283.15
283.15
283.15
303.15
301.209
302.429
299.196
301.491
299.929
288.912
283.155
291.012
290.181
303.061
291.158
300.028
292.092
283.15
286.311
301.11
301.561
283.15
283.993
299.673
283.15
303.15
283.189
301.303
303.15
284.028
302.265
303.023
303.15
283.15
292.842
303.153
301.718
283.15
283.15
283.15
302.21
297.637
303.142
302.206
303.166
303.15
288.436
303.166
290.463
300.263
300.223
296.642
283.157
301.724
283.15
290.625
301.44
289.524
290.51
299.027
300.731
301.623
287.201
291.164
285.049
283.173
302.232
286.15
283.149
283.144
300.243
283.078
300.338
287.049
296.071
299.483
289.27
299.325
283.121
299.138
283.15
290.041
289.294
298.695
283.333
283.15
300.602
283.15
302.805
283.15
303.15
286.503
286.508
283.15
299.043
298.569
287.083
303.15
303.15
301.751
289.807
303.009
283.736
301.603
287.143
303.147
284.21
288.244
303.15
301.454
283.15
283.15
287.591
287.075
283.145
285.279
301.524
286.277
301.183
303.15
285.159
301.77
291.225
303.15
303.15
301.644
302.066
303.15
293.072
294.308
283.69
296.455
286.839
290.073
303.15
302.82
297.069
285.049
283.15
287.752
291.94
299.691
283.164
283.76
282.935
301.97
303.121
283.151
303.134
303.15
300.588
293.119
298.868
293.915
283.15
291.964
296.058
285.619
283.211
291.918
283.15
300.267
303.164
292.617
284.11
303.144
291.884
298.663
288.297
300.363
291.349
287.376
283.15
303.142
285.363
289.963
293.534
283.15
283.15
283.15
303.141
283.15
283.136
286.462
303.15
283.15
303.166
283.172
291.12
289.148
303.482
302.918
289.926
303.15
297.036
303.175
302.023
287.316
283.15
292.985
303.145
303.096
286.231
283.15
283.15
283.478
286.064
303.057
303.144
287.539
289.51
283.488
283.162
289.889
293.236
303.15
283.15
303.099
303.15
302.347
285.031
302.343
303.095
284.073
283.783
284.053
302.855
302.196
297.409
294.008
303.073
291.329
291.052
303.15
303.099
302.597
285.464
283.383
303.15
285.968
283.389
302.937
301.671
302.192
283.15
300.368
301.871
303.15
302.171
285.425
303.15
297.952
303.15
283.15
300.712
302.691
286.363
302.502
283.15
285.199
303.013
283.15
302.32
285.387
294.917
284.351
303.15
303.02
302.876
286.528
283.15
287.156
284.27
289.822
285.767
302.268
303.15
283.15
283.15
293.148
283.15
301.056
302.18
290.383
283.15
294.05
283.15
303.15
283.15
300.059
298.612
283.151
285.298
301.727
303.083
303.156
291.933
294.277
301.233
283.214
301.802
283.145
303.15
303.143
299.229
283.15
301.138
294.834
303.15
300.955
287.335
301.951
284.914
288.243
283.15
302.238
287.763
298.455
303.077
283.15
303.15
291.671
302.179
283.076
283.147
286.802
298.388
303.149
284.529
301.057
301.026
301.279
303.153
299.93
287.678
284.941
301.607
299.931
283.736
283.102
303.159
303.149
303.15
297.397
283.163
283.15
303.15
303.149
289.949
298.921
300.287
287.809
302.806
303.15
286.444
301.568
303.15
300.964
283.804
301.481
303.15
284.562
301.386
295.514
302.768
303.15
303.15
285.193
295.117
296.42
287.435
303.15
303.15
283.15
287.238
302.413
296.21
303.15
285.582
303.15
303.15
300.454
288.747
283.15
295.596
295.922
299.072
283.15
303.15
292.69
287.243
303.15
297.992
300.53
300.437
303.15
303.15
303.15
300.246
298.363
302.804
299.916
283.15
292.888
287.702
290.66
300.6
303.15
303.15
300.779
303.099
286.59
296.148
303.15
303.147
283.15
286.458
298.966
285.598
303.15
303.15
283.345
303.123
303.15
303.15
283.15
290.527
303.15
303.15
284.595
299.286
283.15
303.15
284.629
301.345
300.194
287.012
294.93
303.15
283.499
303.15
303.15
283.308
300.556
290.406
300.421
303.15
303.13
302.187
292.735
299.817
301.371
284.458
283.459
300.836
298.422
303.15
302.757
284.144
299.759
301.395
287.726
303.15
297.425
301.423
301.509
301.548
292.888
303.15
283.15
299.199
283.15
283.15
287.76
283.15
284.013
283.15
283.15
283.15
283.15
302.76
288.14
302.708
283.15
295.72
290.939
284.746
283.15
303.15
302.683
301.744
303.168
302.642
283.15
294.852
300.288
290.179
283.15
283.15
299.835
285.938
283.15
283.15
303.149
290.601
283.15
287.166
303.149
303.152
284.319
283.15
288.24
292.652
300.794
294.585
302.96
285.647
302.509
295.263
286.285
283.15
283.541
291.646
303.079
289.16
302.661
283.15
292.367
287.757
301.023
301.249
284.91
303.108
284.924
297.095
302.985
303.147
285.137
303.145
303.006
293.32
302.675
283.15
303.15
303.15
294.787
291.071
283.155
301.117
284.687
284.156
284.625
303.145
288.356
300.481
283.15
283.15
302.512
303.15
294.58
302.903
303.182
299.837
303.22
302.887
283.15
301.306
302.883
283.15
303.15
301.316
303.15
284.321
298.797
283.164
291.539
283.15
287.586
303.016
299.774
283.15
303.026
290.903
301.206
303.128
303.079
283.15
283.15
301.93
302.011
283.804
302.816
302.423
302.383
303.141
283.15
293.747
283.15
302.793
287.879
302.99
303.15
283.15
302.827
285.135
291.473
302.056
283.15
302.59
302.005
301.579
302.491
303.049
303.208
303.012
303.15
283.15
301.516
297.839
303.088
303.15
289.946
284.962
303.15
283.15
285.328
303.184
303.164
302.921
301.15
284.273
303.098
290.667
294.212
303.148
289.065
303.163
283.15
289.856
283.15
299.983
298.164
284.787
288.194
299.632
296.639
295.288
299.189
293.772
303.153
293.817
296.411
283.159
299.398
293.843
303.15
298.926
299.158
303.15
291.216
303.172
301.684
303.15
286.927
285.996
302.803
289.663
283.15
283.15
300.364
301.123
283.726
283.15
303.15
300.237
302.327
300.631
299.886
302.789
292.569
289.632
286.65
292.475
284.309
290.412
283.306
295.679
290.419
293.922
287.116
284.288
303.163
283.273
303.147
285.611
300.728
283.151
300.37
298.368
288.735
302.097
285.41
299.093
283.15
302.954
283.155
283.115
287.742
299.672
303.15
300.338
303.021
299.927
302.764
303.15
301.273
284.958
294.944
302.055
303.149
283.71
283.15
290.33
285.244
285.758
303.135
303.149
283.15
283.15
283.176
303.15
293.444
303.15
303.151
294.49
303.436
303.15
300.411
303.15
303.15
293.648
290.604
303.15
289.825
302.066
289.551
303.15
303.15
285.978
283.336
290.321
303.223
303.15
303.146
285.477
283.251
283.15
288.99
287.61
303.15
284.309
303.15
303.15
303.132
287.331
303.15
303.147
283.279
303.152
302.667
287.911
283.152
283.605
297.307
290.736
303.15
285.921
284.442
301.338
287.122
302.218
290.572
293.863
303.15
303.15
284.013
303.149
302.949
295.84
302.945
302.744
287.183
283.15
285.335
283.219
297.144
302.593
285.388
303.15
283.802
286.714
303.126
283.176
303.15
286.412
283.15
300.103
303.15
299.735
299.916
283.307
283.362
302.327
290.869
301.32
303.15
301.405
301.754
303.15
303.15
298.346
293.456
283.15
288.802
303.15
295.184
283.361
303.15
296.909
298.72
288.983
303.15
302.761
294.234
295.384
284.468
303.161
298.695
296.148
283.986
303.124
302.804
287.389
298.456
289.812
290.804
289.73
283.15
302.949
303.152
303.15
303.173
293.12
296.332
302.977
301.3
303.15
284.451
303.15
303.043
302.861
303.15
293.578
296.215
303.15
285.388
303.096
303.15
303.091
303.157
286.075
293.341
291.114
288.397
293.383
303.15
301.221
291.463
295.358
293.435
303.141
303.15
300.563
303.188
284.251
303.189
303.15
303.15
303.143
303.15
284.952
303.15
284.234
303.146
303.15
290.239
303.144
292.47
295.515
303.134
295.339
285.987
283.448
303.126
302.936
284.688
283.15
297.111
303.15
285.515
302.915
302.047
303.019
298.394
287.069
303.15
298.681
289.894
299.354
283.15
283.619
303.15
303.145
303.19
294.048
303.15
292.429
289.341
303.194
303.15
284.806
298.774
293.234
299.597
302.48
301.579
300.393
303.15
284.721
296.915
302.366
285.607
298.313
292.287
284.476
291.669
303.15
286.679
291.83
290.113
299.448
303.15
286.446
284.092
303.15
302.435
288.136
302.099
283.15
303.15
299.843
301.703
289.02
301.992
301.903
301.821
303.15
289.351
285.136
301.968
302.242
297.158
303.15
283.201
303.15
301.993
303.15
302.809
303.15
291.682
303.15
296.531
283.15
289.496
303.15
283.15
292.17
301.452
300.423
289.195
300.502
303.15
302.497
303.15
302.366
285.222
303.15
300.41
290.406
303.15
300.812
303.15
303.15
293.163
283.15
285.55
293.243
300.929
303.15
291.19
293.883
288.188
289.643
288.102
299.206
300.238
300.802
287.389
287.099
301.264
283.15
303.15
303.15