/*--------------------------------*- C++ -*----------------------------------*\
  =========                 |
  \\      /  F ield         | OpenFOAM: The Open Source CFD Toolbox
   \\    /   O peration     | Website:  https://openfoam.org
    \\  /    A nd           | Version:  10
     \\/     M anipulation  |
\*---------------------------------------------------------------------------*/
FoamFile
{
    format      ascii;
    class       volScalarField;
    location    "5.6";
    object      SgT;
}
// * * * * * * * * * * * * * * * * * * * * * * * * * * * * * * * * * * * * * //

dimensions      [1 -1 -3 -1 0 0 0];

internalField   nonuniform List<scalar> 
111485
(
1.24409e-18
9.87472e-06
2.76954e-05
3.25201e-19
5.81709e-05
2.62097e-18
5.38241e-05
7.2103e-06
2.25577e-05
1.39849e-06
5.41831e-05
1.1195e-05
5.51831e-06
9.94288e-07
7.68948e-06
3.70195e-05
1.64002e-06
0.00305895
1.24645e-05
5.14848e-17
6.43542e-18
6.16111e-20
3.05531e-05
4.19482e-05
1.04326e-05
6.74326e-18
4.79374e-05
2.14669e-06
1.89034e-05
7.40919e-19
5.424e-05
2.23373e-05
7.31266e-18
1.83685e-18
8.8742e-06
2.43725e-18
1.30133e-05
4.90756e-06
5.45083e-11
2.74624e-05
2.67906e-18
8.49521e-05
1.88488e-05
1.62061e-06
6.38028e-08
4.72522e-18
3.69155e-05
8.60785e-07
5.6746e-05
1.61495e-18
2.16005e-18
4.4807e-17
9.24053e-18
5.8996e-05
1.67193e-17
5.18975e-05
3.89761e-06
1.49856e-18
2.72566e-08
5.6993e-06
1.92263e-05
5.25932e-18
5.39081e-06
0.000113958
1.88756e-17
4.00457e-06
0.000376043
0.000113863
1.24119e-06
6.89853e-06
1.31821e-08
7.37446e-06
6.34253e-18
3.27016e-06
1.76827e-17
8.25261e-07
3.13824e-18
5.0059e-05
9.43309e-18
1.39493e-17
7.23594e-09
3.99277e-05
4.48949e-18
9.93732e-18
1.06161e-05
4.8895e-06
5.2645e-13
2.96121e-05
6.69311e-08
8.58703e-06
4.25275e-07
4.91058e-05
1.35192e-05
7.18196e-08
6.40357e-05
7.19465e-18
3.91679e-18
2.01344e-06
2.57317e-11
1.47737e-06
4.24046e-18
2.22503e-05
2.80833e-18
2.28134e-05
5.64246e-06
2.39895e-18
1.00797e-18
9.0774e-06
4.58119e-06
9.04132e-11
6.87328e-06
5.76824e-06
4.25188e-06
3.63699e-06
3.34642e-17
3.89743e-08
7.57925e-18
1.64955e-18
1.47751e-05
9.22607e-18
2.65344e-18
2.96294e-17
1.89929e-19
1.87272e-19
2.07504e-06
3.38068e-09
3.1772e-18
1.92849e-06
4.14266e-19
5.99261e-08
1.55499e-06
3.77287e-05
4.47967e-19
1.17224e-16
1.21813e-17
5.86559e-05
6.21089e-18
5.04225e-05
2.95535e-05
3.20869e-06
2.6364e-07
2.38862e-06
2.65728e-05
3.38613e-06
4.66229e-06
1.5308e-05
2.20201e-18
4.70162e-19
4.42925e-18
3.30169e-05
1.98637e-06
1.14306e-17
2.31288e-10
5.91041e-06
5.52111e-10
1.26332e-05
1.98411e-05
1.24664e-05
9.07437e-11
9.23244e-19
1.71085e-18
6.27515e-05
2.84942e-05
2.59945e-09
3.9233e-10
6.69463e-06
4.28562e-06
1.15004e-18
6.32999e-09
5.8558e-08
2.82219e-18
4.126e-19
1.63879e-07
3.40732e-19
6.91918e-06
2.58708e-06
7.96312e-19
1.23546e-17
6.52229e-18
2.28666e-17
7.59046e-18
3.75784e-18
1.70959e-06
8.16659e-06
3.49758e-05
5.04582e-06
8.67291e-06
4.6179e-06
9.92681e-08
9.20178e-18
5.4925e-06
1.6237e-18
5.7353e-18
7.56325e-06
1.27213e-05
3.19835e-05
1.30743e-05
5.77839e-06
4.46631e-18
7.73654e-06
6.33277e-07
5.32504e-08
1.58483e-05
2.77453e-06
1.36749e-17
4.31437e-06
3.14678e-05
3.50577e-17
2.15964e-07
9.07187e-06
2.53976e-06
4.09769e-07
9.21867e-18
1.21803e-17
9.46703e-06
1.03665e-14
0.000145377
3.67402e-19
7.71781e-06
2.38483e-05
0.000144741
2.4776e-18
3.60616e-06
1.63289e-05
2.40868e-16
9.1609e-19
1.78259e-18
0.000186182
3.77328e-10
2.37685e-18
2.36606e-18
1.13128e-05
9.41391e-06
1.80797e-05
2.33914e-18
9.25783e-18
1.45328e-08
2.2449e-19
3.03418e-06
1.07133e-05
1.86859e-05
1.36257e-05
1.16464e-05
2.09828e-18
3.2846e-10
7.29051e-07
6.82122e-18
7.28028e-18
3.66238e-05
2.50079e-05
1.40445e-18
7.27377e-06
1.24507e-05
1.58966e-18
1.5733e-16
1.67705e-07
3.49051e-18
7.59023e-18
4.94723e-08
7.12048e-18
1.81724e-05
1.32997e-05
4.48312e-06
9.8785e-19
1.38282e-05
4.40926e-20
2.95527e-18
6.35103e-18
2.7357e-11
2.73487e-05
7.19589e-06
6.13469e-06
4.41871e-05
1.42387e-05
1.95857e-06
6.88689e-07
3.97414e-05
1.08549e-05
1.306e-18
1.24632e-18
3.25607e-10
2.67939e-05
2.89031e-05
1.4703e-05
2.42205e-18
8.26186e-06
2.53458e-06
3.52371e-06
4.2739e-09
4.37843e-09
1.58853e-05
2.62761e-06
2.30299e-06
2.32331e-18
8.47094e-07
8.29516e-18
1.19105e-10
2.45349e-16
0.000299217
8.18234e-05
1.48279e-05
2.71175e-18
7.73331e-19
1.06186e-05
2.03657e-06
8.02851e-18
1.55161e-18
1.52136e-17
3.84599e-07
7.13323e-05
4.54679e-06
1.70821e-05
2.28722e-05
8.35118e-18
5.69441e-18
3.29108e-18
4.5067e-06
1.71344e-15
1.18917e-06
0.00022404
4.3979e-10
6.41274e-19
4.65305e-18
1.08795e-18
8.90837e-17
7.09115e-05
1.44817e-05
5.23883e-19
6.13562e-06
4.87253e-17
2.65666e-17
8.18797e-05
6.84802e-06
1.33057e-05
1.09437e-05
4.73616e-17
6.21269e-17
3.51482e-18
1.10402e-05
2.24447e-05
5.96166e-06
2.00313e-18
3.28208e-13
2.0983e-07
2.51627e-06
9.43768e-06
4.90163e-08
3.39901e-05
1.54647e-18
4.48393e-05
4.10732e-06
9.27668e-06
2.93639e-05
1.66111e-05
1.25912e-18
1.56176e-17
2.69619e-18
4.62776e-18
3.79603e-05
1.13575e-05
4.13349e-05
8.06199e-05
5.34912e-19
2.29795e-05
1.71489e-18
1.80343e-17
1.93981e-05
7.9778e-18
7.7882e-05
1.99514e-18
7.46952e-20
2.79118e-05
5.88208e-20
1.65837e-05
3.62177e-07
4.35693e-18
1.25293e-06
1.92137e-05
4.29652e-18
1.03192e-05
1.16546e-05
9.50885e-06
7.07504e-07
3.30232e-06
6.99141e-06
2.46717e-17
1.32602e-18
2.0328e-06
2.3539e-18
6.99184e-06
0.000139664
5.2688e-18
4.36793e-19
3.21013e-05
1.39101e-07
9.6294e-06
2.59624e-05
3.08152e-18
5.23806e-05
2.31221e-05
5.47683e-19
9.62548e-07
3.05687e-06
2.81619e-18
4.51269e-18
1.35264e-05
6.21914e-06
1.58728e-17
1.22745e-19
3.18134e-11
4.43796e-18
1.40271e-05
4.05003e-19
7.70597e-18
2.06019e-05
2.21394e-09
1.52751e-05
3.45328e-05
4.63806e-19
3.67793e-17
1.61864e-06
7.19686e-18
1.65462e-07
1.57777e-05
0.000146628
0.00103862
4.14499e-18
3.25041e-06
5.14296e-07
3.58601e-17
4.56218e-05
3.84398e-05
7.20771e-19
9.84964e-12
1.1555e-07
2.11019e-17
2.97925e-05
2.98643e-05
1.73815e-05
4.27254e-18
7.97213e-07
2.22718e-05
2.75539e-05
9.87756e-10
2.8381e-17
6.77519e-13
8.64385e-19
1.69612e-08
3.76695e-05
7.57767e-19
1.05348e-05
1.05507e-07
1.30352e-16
4.09903e-19
8.93289e-19
1.77415e-17
4.7592e-06
1.16283e-05
7.97197e-06
2.64939e-06
3.46412e-06
8.8066e-18
2.47871e-06
2.39531e-17
4.69705e-05
2.0112e-18
3.73718e-18
1.82767e-18
4.22451e-05
4.59337e-18
4.26274e-19
2.66902e-10
1.29825e-18
8.39096e-18
1.20107e-06
9.02009e-19
1.27214e-17
6.3888e-19
4.38065e-18
1.47164e-17
3.16946e-18
1.46317e-18
8.85485e-06
1.1735e-17
5.79733e-07
2.21522e-06
1.30775e-06
3.51166e-18
9.3342e-07
2.14434e-18
9.17255e-19
3.42037e-06
2.23185e-06
3.33309e-05
2.90424e-05
1.06529e-17
2.45426e-06
9.48139e-05
1.02414e-05
1.257e-06
4.00746e-06
1.90366e-18
2.79658e-05
7.07883e-17
5.69395e-06
2.52922e-18
8.89721e-05
8.12267e-18
2.59264e-05
2.84342e-07
3.07402e-10
3.34282e-18
2.47051e-06
2.26824e-18
9.59164e-05
5.73926e-05
1.53175e-17
7.09942e-18
2.29211e-17
4.953e-19
1.65699e-12
6.56083e-05
1.35153e-18
2.85647e-18
3.12529e-06
4.98152e-19
3.92507e-05
3.21706e-19
3.92602e-07
3.55944e-18
6.1415e-07
1.18897e-09
1.26511e-06
1.56901e-05
1.58246e-17
4.67669e-07
2.92355e-18
5.33244e-18
1.85239e-05
1.46322e-18
3.86673e-08
6.60392e-18
1.87712e-06
4.26776e-18
7.80361e-05
1.26439e-17
3.77998e-17
1.99648e-05
4.14325e-06
2.02369e-06
4.81402e-06
7.86714e-06
2.50487e-05
8.7872e-19
2.8365e-05
7.67777e-06
1.46448e-18
9.52066e-11
4.57452e-05
1.71828e-05
1.68633e-17
5.12651e-06
7.59298e-06
1.90855e-06
1.37283e-06
2.713e-13
1.63998e-05
1.35869e-06
1.75033e-07
2.95346e-05
1.65997e-05
8.44148e-07
3.06564e-17
3.72326e-12
0.000770804
1.22655e-17
4.5247e-07
9.77573e-19
6.25606e-17
8.80926e-06
3.6184e-06
2.37684e-10
1.60698e-08
3.3316e-17
2.03601e-05
1.32099e-05
4.57235e-19
1.12825e-13
2.45884e-06
3.21362e-17
1.91515e-18
1.16573e-18
8.43607e-18
1.65772e-05
4.0699e-18
1.77511e-17
1.08817e-05
2.46476e-06
9.56917e-17
1.2422e-05
2.02593e-17
1.02293e-05
3.29925e-18
3.7747e-18
6.49016e-05
3.66897e-18
1.9705e-19
7.51907e-17
5.45291e-06
1.99511e-17
3.60994e-05
7.51666e-06
5.17156e-18
0.000100176
3.02829e-06
3.34582e-05
3.26464e-05
7.34393e-07
9.8706e-08
2.26226e-17
6.59288e-05
5.397e-05
1.1409e-17
3.75681e-07
4.79053e-05
8.80873e-06
1.77378e-06
3.27685e-05
3.09583e-05
3.98171e-18
1.27497e-05
5.89165e-09
1.19207e-17
4.05726e-05
3.1925e-07
2.66597e-17
1.31268e-05
4.75298e-05
1.68545e-06
2.47189e-05
2.26923e-05
8.48383e-06
3.73046e-17
1.19345e-05
4.01617e-07
2.5177e-14
1.96967e-05
2.03532e-05
4.28618e-05
6.09104e-18
2.32057e-06
2.60336e-19
7.34493e-18
5.20553e-18
1.8284e-17
1.78082e-08
3.5931e-17
2.87883e-13
1.97323e-17
1.08916e-18
8.28848e-08
5.09036e-05
2.32128e-17
3.98346e-05
3.73067e-18
1.79607e-18
3.15015e-17
4.70453e-05
5.1775e-07
5.20509e-17
2.31089e-18
5.75164e-18
1.46275e-18
0.000260474
8.27428e-05
3.31824e-17
2.28517e-06
2.997e-09
2.90436e-18
4.4013e-05
9.37727e-06
1.49531e-05
3.67022e-19
5.36619e-18
4.8836e-07
1.28721e-06
6.60938e-17
7.01783e-18
1.18697e-17
8.62528e-06
2.80593e-18
1.84238e-17
7.4157e-18
4.90185e-05
2.29922e-06
3.10166e-19
0.0047738
0.000330813
1.24734e-05
1.55133e-18
2.19511e-17
6.6775e-05
4.53562e-07
1.24942e-17
8.45319e-09
0.000153013
3.1085e-06
1.37697e-05
4.69851e-17
6.52955e-05
2.13764e-06
9.5983e-20
1.38428e-17
3.04882e-18
4.37466e-18
1.67664e-18
9.49766e-19
2.55316e-05
1.0666e-17
3.03784e-18
1.85712e-18
1.40111e-05
2.80643e-05
1.90289e-18
4.36277e-18
0.000126989
1.68287e-05
1.12817e-05
3.32299e-17
3.92223e-18
4.36392e-05
3.62643e-19
2.23252e-06
3.07291e-06
4.52534e-06
6.3093e-19
4.31324e-18
1.33816e-18
1.3389e-18
1.82389e-05
8.90705e-19
1.29728e-17
1.14697e-06
1.11268e-17
2.68517e-05
2.07869e-06
1.48352e-17
4.42583e-05
0.000516779
2.97117e-06
3.50797e-05
1.87701e-07
5.42194e-05
1.52007e-13
1.06349e-16
2.75982e-05
8.51299e-05
7.31265e-06
4.32416e-20
9.74233e-13
0.000843122
1.20442e-05
2.372e-18
3.16161e-06
3.2668e-06
1.50699e-06
1.31946e-17
1.60137e-17
2.58295e-18
1.56505e-05
3.0878e-17
3.02386e-06
1.20077e-17
1.55243e-06
1.62398e-06
4.30147e-05
6.7959e-07
2.33555e-18
8.80114e-18
3.63377e-18
2.44433e-05
1.3773e-18
2.81921e-18
7.055e-08
2.27931e-18
1.32651e-18
1.33696e-18
1.50064e-18
1.14384e-05
6.78928e-18
4.94287e-18
5.89554e-13
2.57345e-17
3.54973e-18
7.48767e-17
8.46233e-18
3.63004e-09
1.90398e-06
3.65677e-18
4.56498e-06
9.16298e-09
3.74751e-10
7.63267e-08
5.00052e-06
6.56684e-19
1.12406e-08
1.16565e-05
4.68402e-07
1.10419e-17
1.29024e-12
9.63313e-07
3.66428e-17
1.1305e-05
2.3822e-07
2.07023e-09
2.87671e-05
1.09323e-05
2.69164e-06
6.16712e-06
2.3921e-06
5.01392e-18
9.16753e-18
3.81483e-05
3.06796e-05
5.55648e-18
9.72055e-06
6.47197e-05
3.37783e-05
2.87225e-17
1.61984e-06
9.2163e-18
1.23006e-05
1.65016e-05
1.80141e-18
1.82056e-06
5.53171e-07
1.50571e-09
5.70291e-06
1.34135e-18
5.80046e-05
1.87146e-08
1.92692e-06
4.02993e-08
1.52628e-08
1.97461e-18
1.34272e-17
8.8335e-06
3.4106e-18
1.34525e-07
3.24474e-07
2.54802e-07
5.8619e-11
9.11205e-11
9.48341e-10
2.12527e-18
3.95422e-17
2.74233e-05
5.96942e-18
2.66206e-07
2.5155e-06
8.087e-18
2.76144e-18
6.62225e-10
9.67618e-13
1.82235e-18
5.32253e-09
1.07247e-17
1.84896e-18
1.79466e-18
3.39887e-18
2.67662e-17
6.85892e-18
3.53723e-07
3.08923e-18
5.91982e-18
6.61221e-18
7.65599e-09
6.60088e-08
2.18541e-06
1.10611e-05
4.72552e-18
1.19889e-18
2.16976e-07
4.35574e-18
1.37985e-18
2.98251e-17
2.24882e-05
5.04018e-05
1.04729e-17
5.66185e-18
9.05273e-18
9.68146e-18
2.99045e-19
1.3342e-18
8.74329e-06
4.29824e-18
5.22299e-11
3.20779e-05
7.67947e-19
1.24802e-17
2.20667e-19
2.83565e-08
9.3588e-19
3.92134e-18
2.80936e-18
9.86688e-09
4.59236e-18
5.47307e-06
1.20224e-09
6.18334e-12
4.92608e-18
7.85919e-08
2.59766e-06
5.29318e-05
5.42699e-17
8.31687e-09
7.03149e-06
1.24207e-17
1.21205e-18
7.44898e-17
4.25109e-18
9.83743e-06
2.07201e-06
4.12029e-06
2.0557e-10
3.11269e-19
2.68566e-05
1.00143e-17
2.99933e-17
1.10623e-16
1.61488e-18
3.11513e-05
7.1505e-18
2.16795e-17
2.26233e-09
6.05011e-05
2.22012e-17
3.01891e-06
2.61461e-17
1.08671e-06
2.34382e-17
5.26676e-18
8.07971e-18
6.83186e-18
3.01468e-06
7.53477e-07
0.000381949
5.51628e-19
4.85223e-18
2.52075e-06
8.01849e-18
6.63063e-17
1.20828e-17
4.55905e-05
9.72618e-09
3.72109e-05
1.81099e-17
1.10548e-08
5.14923e-08
2.8278e-17
1.27546e-07
3.73983e-18
1.60001e-06
3.09486e-05
2.40736e-05
1.54839e-06
3.02782e-07
9.95647e-19
1.93579e-18
3.83131e-18
2.33113e-08
2.1746e-19
8.17095e-06
1.20617e-18
0.000211742
4.37404e-18
4.95722e-05
3.8301e-06
1.03256e-17
1.4517e-18
1.20853e-17
2.84265e-18
4.59051e-05
3.25583e-17
1.04267e-16
1.45509e-05
7.74941e-06
2.23261e-17
5.57025e-17
3.95238e-17
3.97477e-17
6.61105e-18
1.83803e-19
2.91012e-05
5.21176e-07
1.00745e-17
8.68399e-19
5.45877e-10
2.61783e-17
1.84596e-06
1.32961e-07
4.78999e-18
3.88403e-06
1.34837e-17
4.28927e-07
4.91801e-19
1.22705e-06
1.95908e-18
1.03082e-10
2.47761e-09
8.17355e-07
2.03764e-05
3.84913e-05
1.36305e-09
1.00849e-18
5.6335e-07
3.55705e-18
5.37078e-06
1.26671e-17
6.27121e-18
4.0612e-17
8.38741e-19
1.88787e-19
8.10933e-18
8.09912e-06
9.01346e-06
6.14266e-18
1.16231e-17
2.59399e-17
8.21729e-07
1.67937e-08
1.76056e-19
2.18828e-05
2.26881e-07
1.08544e-17
2.76316e-05
9.73872e-06
4.13691e-06
1.43711e-05
4.45372e-18
4.0628e-18
6.49983e-18
5.94794e-19
4.39158e-05
1.42372e-17
0.000132998
2.09554e-18
3.38401e-07
8.72515e-07
1.57243e-18
1.0329e-06
2.26097e-19
6.03621e-18
3.37434e-06
2.83939e-11
9.95329e-06
5.91054e-18
5.90599e-18
3.75773e-18
9.34912e-07
1.18496e-17
1.10741e-18
7.53982e-18
3.98129e-10
2.73331e-17
9.49403e-09
5.5331e-18
4.49112e-18
3.04616e-18
2.17209e-05
1.17146e-05
2.17233e-05
4.25764e-05
5.10422e-18
1.65156e-08
5.0276e-18
5.82847e-20
1.2096e-05
1.76252e-18
2.79844e-09
3.89722e-07
7.8233e-06
3.88358e-07
1.18223e-12
2.43467e-06
1.16923e-18
1.29814e-12
7.01704e-13
1.3689e-07
1.03882e-06
1.73955e-05
8.15999e-11
1.24971e-18
3.65878e-05
1.29516e-17
1.79562e-18
1.98214e-08
8.92925e-05
7.87567e-11
7.1797e-18
5.45778e-18
4.1533e-10
5.5061e-18
2.74556e-17
1.83848e-08
2.66887e-17
2.02797e-17
4.80203e-05
2.3468e-07
1.82781e-07
2.71246e-05
8.68764e-06
1.59284e-18
2.48587e-19
1.51491e-08
4.9229e-06
7.35377e-19
1.96777e-17
1.20468e-05
4.61273e-18
3.56555e-17
2.9127e-17
6.04663e-17
3.30864e-16
0.00308636
3.56848e-18
2.4618e-07
2.46337e-18
2.33754e-05
1.01908e-18
1.94733e-15
2.29413e-17
2.05458e-17
1.18167e-17
8.44757e-18
3.60467e-06
4.24448e-18
1.32236e-18
1.84323e-17
4.17502e-18
2.29928e-17
9.61265e-18
1.17089e-05
6.66166e-18
1.31366e-05
3.40385e-06
3.70538e-18
1.90831e-06
3.83872e-18
5.56754e-07
2.24189e-09
4.67969e-06
1.61982e-05
7.17083e-18
1.09314e-07
9.76455e-06
9.26575e-09
1.76261e-18
2.37645e-09
2.20008e-05
5.62839e-06
1.8176e-17
3.13179e-05
4.86682e-18
1.93981e-18
2.04743e-17
3.81787e-19
9.7673e-06
1.3818e-17
2.24823e-18
9.82816e-06
2.35692e-10
3.20427e-06
1.18888e-18
9.92662e-17
7.81587e-07
2.45968e-18
9.7827e-08
1.21657e-17
2.73004e-05
1.10462e-18
1.3813e-18
6.54347e-08
3.251e-18
1.52402e-07
1.34676e-17
6.29461e-19
5.9611e-06
4.98143e-07
5.77181e-06
1.91097e-05
0.000263564
2.4121e-05
2.1474e-18
8.18928e-17
3.32152e-06
8.07026e-06
4.32606e-05
1.36554e-05
6.90414e-18
1.43393e-05
3.16888e-18
1.47115e-18
1.03654e-05
1.26999e-05
7.18133e-18
1.54978e-05
9.13469e-18
3.29659e-06
1.03806e-05
6.62995e-19
6.02386e-19
4.40034e-18
3.18973e-06
3.79893e-18
5.78595e-18
4.76747e-06
2.49339e-05
4.52299e-09
8.99645e-06
4.60795e-18
4.4829e-18
9.09563e-08
8.85108e-07
1.22635e-18
1.19554e-05
3.29039e-17
3.03949e-06
3.98845e-18
1.78365e-19
1.42586e-05
4.3167e-18
4.82929e-08
4.07896e-06
1.78821e-18
3.78076e-18
4.97036e-06
5.47373e-14
6.33354e-05
9.32802e-18
0.000315619
5.97149e-19
8.21872e-18
2.92395e-17
8.54244e-06
4.4017e-17
2.91363e-18
6.45832e-06
3.12446e-17
2.75181e-07
9.33486e-17
4.47691e-18
1.46601e-17
1.40606e-10
9.14457e-07
8.07379e-18
6.92555e-19
4.23732e-05
1.10981e-06
4.16084e-18
5.41121e-07
1.7263e-17
1.80757e-17
1.80239e-09
3.33756e-06
1.48788e-06
4.29881e-18
2.92187e-18
4.93202e-19
4.52976e-19
1.25e-17
5.448e-18
3.26738e-18
3.04614e-18
6.5028e-19
3.32255e-17
6.23994e-18
1.05238e-17
3.01458e-17
4.66918e-18
7.01061e-19
6.92553e-19
1.27583e-17
3.57032e-18
8.53384e-18
1.23507e-19
5.14919e-19
2.12404e-05
4.83195e-18
1.05205e-17
8.20211e-18
7.67203e-06
2.98425e-18
4.65575e-18
0.000313446
1.8951e-17
1.1843e-18
2.71807e-05
3.6145e-16
1.99779e-18
8.01336e-06
2.87431e-05
1.7381e-18
2.61863e-06
4.09708e-06
2.30973e-18
1.51835e-05
4.65335e-05
2.07258e-05
3.81958e-06
1.25515e-05
2.42041e-17
4.05214e-19
3.4563e-06
1.25682e-05
3.61721e-06
8.34607e-18
7.42415e-06
1.9914e-06
2.44384e-05
1.24166e-05
7.94e-07
1.78116e-05
1.26771e-06
1.15011e-05
1.60908e-17
3.03769e-05
9.80197e-06
2.02859e-06
1.51221e-06
2.08247e-18
1.00573e-17
4.16537e-18
1.31696e-17
3.06266e-18
1.09964e-05
1.58656e-05
3.18989e-18
7.17396e-19
2.24401e-16
2.56514e-21
3.09355e-18
1.68938e-18
8.17218e-18
1.16128e-17
5.33732e-06
1.80561e-07
2.51969e-05
7.52224e-08
1.6778e-19
2.1245e-17
3.7452e-05
6.88031e-09
2.61823e-18
7.49534e-20
8.47121e-06
2.39314e-18
4.82785e-18
4.78232e-09
9.14347e-06
1.58457e-05
3.84098e-05
3.81509e-05
2.08453e-17
1.67466e-05
3.72409e-07
3.49412e-17
5.74186e-19
1.34454e-05
9.53753e-18
9.80591e-19
2.25701e-05
0.00122799
1.96838e-07
3.05295e-17
3.27898e-18
1.97456e-05
2.48401e-05
2.03933e-05
6.65375e-06
4.11473e-06
1.19189e-18
1.19005e-09
3.02915e-12
6.00858e-18
5.60604e-18
2.01878e-05
1.10658e-18
2.35014e-06
3.00791e-05
1.99365e-05
1.37745e-05
2.11337e-17
6.80753e-06
9.47075e-19
6.17237e-18
8.84366e-18
6.25498e-19
2.93175e-06
0.000996884
1.45636e-18
8.85178e-19
5.41615e-09
2.73832e-05
1.06834e-06
7.95336e-06
3.84894e-05
5.52862e-06
2.33537e-05
6.1863e-18
2.02904e-17
1.87935e-17
3.58736e-05
6.55409e-06
2.98372e-11
1.04897e-17
4.36387e-18
1.30985e-16
2.54587e-05
3.20332e-06
2.49844e-18
5.56112e-06
6.4958e-05
8.17914e-06
7.01858e-06
7.40074e-18
3.13591e-17
7.96437e-06
2.65363e-05
1.70706e-18
3.63722e-07
1.64629e-05
1.12822e-06
1.0817e-05
5.30963e-06
9.27992e-06
4.60581e-17
3.97117e-06
2.37294e-05
4.29467e-05
6.09053e-13
2.67247e-05
2.74818e-17
1.91738e-05
1.72207e-07
1.78074e-19
2.96321e-06
8.3515e-06
4.16434e-07
1.31141e-05
1.84995e-09
1.70864e-07
1.90147e-08
4.20932e-05
4.07806e-06
1.00943e-17
4.50826e-05
1.4059e-06
4.30122e-18
5.59224e-19
4.52398e-11
1.01383e-08
1.17484e-06
0.00127046
4.0078e-05
1.25364e-05
2.53201e-10
4.96206e-05
2.77232e-18
2.63636e-19
4.65333e-06
5.41798e-18
2.44132e-06
5.36821e-06
2.39076e-06
5.37081e-06
8.23435e-18
2.42878e-07
0.000124699
1.48957e-18
2.97485e-05
8.40102e-06
3.48314e-19
4.4213e-06
1.98774e-07
3.01493e-19
6.91562e-12
1.09215e-07
1.77365e-17
7.10504e-18
1.14667e-18
5.05348e-06
5.12509e-06
1.6268e-05
4.40502e-18
5.87319e-06
3.73987e-05
1.18463e-17
8.95455e-06
1.38716e-05
2.83034e-05
1.70669e-06
4.78927e-18
6.74308e-07
1.07656e-05
1.17068e-05
9.99735e-06
4.34508e-05
0.00018532
3.81861e-06
5.50755e-18
7.68242e-09
5.87609e-05
6.82902e-19
4.64276e-07
1.77241e-18
7.36314e-19
6.39328e-18
1.36896e-18
2.39182e-19
3.65353e-06
3.90897e-18
7.8595e-06
1.4357e-06
1.15835e-18
4.61414e-06
2.5501e-17
1.63662e-05
5.81515e-18
2.07979e-08
1.03079e-17
2.49603e-05
1.67024e-07
2.37948e-09
4.55931e-06
3.30247e-05
1.93634e-05
4.42982e-06
3.01927e-05
5.30903e-15
2.48889e-05
6.17095e-05
1.03293e-05
1.19898e-17
1.32567e-06
3.23413e-07
6.21088e-06
1.23751e-05
7.24593e-07
1.37966e-17
4.685e-17
5.78822e-18
4.27713e-06
1.36867e-17
1.7044e-07
2.54144e-07
1.36052e-06
3.14191e-07
4.89011e-18
1.48193e-17
7.3626e-18
9.57204e-06
2.42754e-05
1.46677e-06
9.71772e-09
2.15947e-06
7.68235e-06
2.22927e-06
9.51732e-07
7.9554e-06
6.62628e-06
2.9074e-06
9.26093e-18
1.78886e-18
3.0576e-18
1.54384e-05
1.23068e-05
2.21593e-17
1.04215e-17
5.95035e-17
9.20656e-06
2.17628e-05
1.83481e-17
2.39313e-06
3.60648e-18
6.55243e-10
5.60469e-06
9.78527e-05
2.59893e-18
5.13056e-20
4.26269e-06
2.13831e-18
7.50787e-08
1.35057e-05
4.39865e-18
1.20659e-05
3.73381e-05
2.06125e-05
2.62369e-18
1.33628e-06
2.64702e-17
9.00712e-08
5.53746e-05
1.32518e-17
1.34949e-17
1.25131e-05
2.79386e-16
3.93797e-19
4.60883e-08
1.1568e-06
5.92588e-18
4.1255e-19
6.25995e-18
6.61658e-08
1.45864e-06
3.65656e-06
2.76932e-05
1.04693e-05
2.4388e-18
7.39726e-10
6.96805e-07
1.16283e-18
7.60233e-19
4.08174e-18
7.5622e-18
8.59878e-18
2.41937e-18
7.30385e-18
6.89824e-18
1.67652e-17
8.39339e-18
2.67248e-12
1.24913e-17
4.09072e-07
6.67617e-17
2.10922e-07
3.61665e-17
6.48054e-08
4.43251e-17
2.71317e-19
3.04578e-05
1.03301e-05
2.10695e-17
0.000101759
5.56088e-12
2.08588e-13
7.80265e-20
1.43984e-06
6.23647e-15
2.96901e-06
6.61034e-09
1.03487e-06
4.94603e-18
6.08727e-18
9.42228e-07
3.56149e-11
3.45242e-18
7.32158e-18
4.40107e-05
2.98798e-17
4.17825e-05
1.8824e-17
1.61224e-18
1.66323e-09
3.1651e-05
9.33412e-06
3.93456e-18
3.70175e-07
2.57983e-17
2.66459e-06
1.90181e-08
2.08639e-06
9.72366e-07
4.88375e-18
2.29405e-05
1.24593e-06
5.77226e-06
2.4845e-18
3.07907e-18
1.1379e-19
1.55495e-05
4.51505e-06
5.73426e-05
1.04552e-18
4.52536e-10
3.16618e-18
1.41215e-17
9.26791e-18
9.09e-18
3.44031e-06
2.26772e-06
3.20904e-06
0.000354059
3.57784e-18
3.16653e-05
4.01079e-05
1.98755e-05
1.77491e-06
7.59583e-18
6.15425e-06
4.74742e-06
5.54825e-06
4.89792e-10
1.14801e-05
2.39349e-18
1.82326e-06
1.30781e-06
3.68037e-05
1.19168e-09
3.53517e-06
8.70216e-18
2.06784e-05
2.80278e-17
2.13239e-18
1.84456e-06
6.20822e-18
7.31304e-06
1.78506e-18
5.88547e-18
1.05279e-17
2.3183e-18
5.1162e-19
8.43838e-07
6.10972e-18
6.57593e-07
8.28267e-18
6.36548e-18
2.08492e-05
6.21672e-06
8.7314e-06
8.78088e-06
1.28554e-18
0.000654398
3.25098e-19
7.90271e-05
5.49205e-18
2.05862e-05
2.53679e-05
2.53926e-06
6.41506e-05
4.21126e-17
1.00416e-16
5.39957e-19
2.4558e-06
1.87367e-18
5.40894e-18
2.00029e-05
3.81207e-18
1.23463e-19
5.72419e-06
4.29945e-17
1.45076e-05
8.2995e-11
2.13528e-18
3.28374e-18
9.2584e-18
1.79527e-06
7.44689e-06
6.00656e-18
2.5635e-05
3.59073e-07
9.35408e-18
0.000115804
1.81743e-19
1.7974e-05
2.03817e-05
3.8069e-06
1.30863e-17
2.01518e-05
1.07526e-05
9.07961e-07
5.70814e-06
1.39421e-05
2.58987e-17
6.90333e-18
1.93964e-09
1.31254e-19
2.7899e-19
3.92339e-19
2.21486e-05
4.93904e-05
4.95915e-06
2.31308e-06
8.98359e-18
5.48476e-05
5.16181e-05
4.80004e-06
2.88464e-06
1.02242e-05
2.3631e-05
2.8645e-06
5.2122e-18
1.80935e-18
4.90664e-18
7.39738e-06
1.92386e-18
2.85261e-05
7.10426e-18
8.41494e-07
5.42048e-10
2.90877e-06
2.4995e-05
6.83995e-19
3.52765e-18
2.7111e-06
3.98734e-07
4.53699e-18
6.08118e-18
8.39316e-19
3.67219e-08
3.31325e-07
1.53181e-07
8.77782e-07
1.10962e-05
9.92483e-05
2.64976e-17
2.25861e-18
1.13508e-17
4.26806e-06
2.1026e-05
2.26976e-05
3.89157e-05
2.1295e-06
3.10933e-06
2.86179e-18
6.22855e-18
1.74266e-16
3.36327e-18
1.08588e-05
2.50579e-05
1.1804e-17
9.09091e-18
1.02954e-17
1.34141e-17
4.32337e-18
1.10096e-17
1.49439e-05
7.79734e-17
1.18496e-06
0.000440137
6.88304e-18
1.69609e-08
2.56436e-05
7.92806e-07
2.3524e-19
4.3267e-18
5.32288e-06
2.99098e-18
1.57268e-05
1.26705e-09
2.72564e-05
6.30214e-18
2.7166e-15
5.53852e-18
5.12477e-18
2.04176e-18
1.4642e-16
0.000222375
6.34531e-18
6.33177e-06
1.3535e-06
8.62376e-18
1.05705e-17
2.1415e-06
1.13705e-17
2.49647e-18
1.55159e-05
1.14999e-07
1.32787e-18
3.94468e-17
1.09988e-17
1.87461e-05
1.70862e-18
2.71468e-17
4.29607e-07
2.81543e-06
3.31863e-06
1.29455e-17
9.32156e-18
1.41101e-18
4.09738e-06
1.99058e-06
1.41557e-05
4.03668e-06
5.93772e-18
8.78944e-07
1.40584e-05
7.2536e-06
1.30294e-19
1.03174e-17
6.11208e-19
1.65828e-17
9.25358e-18
3.49867e-05
6.27597e-06
6.03869e-06
4.69208e-18
8.72743e-19
1.851e-17
6.65049e-19
3.45647e-18
1.01386e-09
2.86538e-07
2.61527e-06
4.72862e-18
1.49891e-17
1.04694e-18
2.97224e-12
3.81616e-05
0.000127455
1.20508e-18
1.88637e-12
7.23553e-15
1.38322e-17
3.45463e-18
4.33231e-06
7.7041e-06
9.82497e-18
1.73879e-17
3.21932e-06
1.83471e-17
7.91845e-07
1.28439e-06
0.00244074
1.51678e-18
6.00159e-18
1.38626e-05
5.57387e-07
9.30475e-19
0.000771281
6.51289e-07
7.5847e-06
5.28741e-18
3.5714e-17
6.58589e-18
1.30099e-18
8.93653e-06
1.11996e-07
2.38547e-17
2.81647e-05
2.12149e-05
0.00100576
9.14322e-18
2.10736e-18
7.25253e-18
6.96711e-18
7.16514e-06
6.93501e-11
7.73862e-18
2.91646e-17
2.11356e-05
1.07375e-06
5.78688e-06
8.14565e-20
5.25962e-18
3.25998e-05
1.19147e-17
3.49647e-18
1.6845e-18
1.27224e-17
2.55301e-05
2.6765e-17
2.87945e-18
7.4077e-18
2.88329e-05
1.4309e-05
2.05263e-18
1.43481e-18
7.14221e-18
1.74857e-05
1.7805e-10
1.58197e-17
5.35284e-18
2.05793e-18
2.39911e-17
2.70688e-06
1.20109e-05
4.56971e-19
2.37489e-06
1.18988e-06
5.18864e-06
1.77613e-17
5.75209e-18
1.24526e-19
7.05748e-18
8.98406e-20
2.34465e-05
1.30694e-16
1.72212e-05
4.50015e-18
1.65101e-06
3.00039e-16
2.52401e-06
6.14327e-19
3.34782e-19
1.22393e-05
0.000207893
3.80702e-17
3.79695e-06
8.03461e-18
4.11185e-07
6.37242e-18
3.5653e-18
2.15496e-17
3.95197e-10
1.42665e-17
3.83005e-07
1.39196e-17
4.04704e-05
2.56834e-18
3.22827e-17
1.18712e-18
8.52331e-18
8.91457e-09
1.48427e-07
2.30675e-18
5.86168e-06
1.22308e-18
3.41862e-06
2.18544e-05
1.34149e-06
1.70938e-19
4.89967e-09
4.63682e-07
2.19673e-09
5.22924e-06
3.98721e-10
1.75707e-06
6.13004e-17
1.52833e-18
4.59131e-10
6.22111e-06
2.52621e-07
1.57592e-17
2.34891e-18
3.25279e-17
0.000624962
3.82687e-19
1.41171e-17
2.4836e-18
2.455e-18
4.05736e-18
5.26072e-08
1.88417e-07
1.09409e-06
7.12454e-08
7.5382e-16
1.5702e-06
1.95567e-18
6.67917e-06
1.45317e-17
1.42674e-18
6.05436e-18
2.23765e-17
2.26175e-08
1.50803e-19
2.64712e-19
1.14212e-17
1.67669e-05
8.17708e-18
3.05758e-19
1.23851e-05
1.03699e-17
7.10239e-05
0.000126507
0.000596621
5.63987e-18
0.000233628
0.0013849
0.00153168
0.000767656
1.43397e-17
1.9682e-19
5.55738e-06
5.44153e-06
3.56497e-18
7.97447e-06
2.00662e-18
3.6659e-05
7.34058e-18
2.4817e-18
7.30854e-07
1.66417e-17
8.63595e-18
1.08629e-08
4.16781e-08
5.41989e-19
8.65811e-19
2.60485e-09
7.42939e-18
6.56342e-18
2.35499e-08
9.21678e-06
1.59663e-06
1.91153e-17
8.35689e-06
5.09629e-18
3.97537e-06
4.57261e-10
7.85792e-06
1.15541e-17
1.26257e-11
6.10399e-06
4.45064e-19
1.6645e-12
2.93813e-18
3.68071e-05
1.03246e-18
1.1239e-05
1.25578e-17
1.87967e-10
2.25535e-18
5.46516e-18
7.63322e-19
5.78824e-13
3.30157e-13
9.67559e-19
1.37814e-05
9.51453e-06
5.58243e-18
8.01975e-18
3.73516e-05
2.02063e-05
0.000207346
6.1301e-19
7.19881e-08
2.82812e-05
5.23058e-05
6.20354e-11
1.02712e-18
6.4428e-05
6.3259e-19
0.000254961
9.90016e-19
4.10221e-11
4.21331e-11
3.43015e-18
5.7209e-08
1.97179e-17
2.36297e-05
2.52862e-18
1.91445e-18
1.44679e-17
1.60468e-17
4.5727e-17
6.27911e-18
3.34529e-07
2.02987e-06
0.000153913
3.91982e-17
1.69916e-17
4.63949e-05
1.50042e-17
5.92795e-20
6.51984e-18
1.81686e-18
8.75967e-18
6.31215e-06
5.30769e-18
1.90012e-18
7.95791e-21
3.51462e-06
3.6531e-17
6.77187e-18
1.95691e-18
3.45032e-06
8.67582e-19
6.4997e-06
0.000255224
5.49446e-06
5.83084e-06
2.86373e-05
5.62641e-18
1.19553e-17
1.03799e-17
3.30958e-06
2.00166e-06
1.81551e-19
4.33774e-17
6.20857e-07
1.52103e-17
7.44198e-18
0.000371011
7.09752e-18
2.47608e-05
5.97772e-18
2.56153e-06
3.85321e-06
1.08139e-17
2.99144e-18
1.76894e-17
6.74244e-19
1.30063e-17
2.1433e-05
1.38509e-17
4.90984e-06
3.64683e-18
9.38371e-18
7.26186e-06
5.30825e-18
1.46985e-05
6.63045e-18
2.56456e-19
2.60655e-06
8.54448e-08
0.000154703
1.10767e-17
4.68352e-19
3.93827e-18
4.01952e-06
0.000197317
2.60796e-18
1.39323e-18
4.353e-17
1.58226e-06
1.12066e-17
2.25835e-05
3.34172e-05
6.0323e-17
1.54596e-18
7.57876e-06
8.29059e-18
1.91537e-17
2.26799e-18
2.12208e-18
9.26002e-18
7.39736e-05
3.30725e-17
2.09991e-17
9.95343e-20
2.75161e-17
2.04308e-18
1.14317e-17
9.13973e-18
9.8009e-18
2.27225e-17
8.54724e-06
9.77084e-18
8.77384e-06
4.14351e-17
1.082e-17
0.000646933
2.84574e-06
2.12552e-17
4.77146e-18
2.27894e-18
2.5049e-06
3.90274e-17
3.01962e-17
3.0392e-17
1.48883e-17
7.56967e-06
1.02464e-18
5.01985e-06
4.4926e-19
1.10636e-05
1.35713e-17
6.37072e-05
6.55865e-17
7.93593e-18
2.2496e-05
1.88152e-17
5.15149e-18
3.02388e-05
3.18332e-07
3.54009e-18
5.59791e-18
4.18684e-05
1.17195e-05
6.77224e-06
8.53715e-07
1.87458e-06
1.88847e-05
1.01801e-06
5.68993e-06
9.66799e-18
3.05102e-05
6.52353e-18
4.95606e-18
9.29737e-18
2.19716e-17
3.76659e-18
1.07697e-05
1.45652e-17
2.7203e-18
6.31277e-19
2.20245e-09
1.14364e-08
7.88709e-17
2.72922e-06
7.88292e-18
4.5942e-06
8.67533e-18
1.1683e-09
4.08987e-06
3.40782e-16
4.9048e-05
1.79109e-18
1.62915e-17
1.11391e-17
3.10094e-06
1.49664e-06
1.79881e-18
7.75781e-18
2.62156e-06
3.94774e-18
0.000729409
5.94516e-18
0.000108773
3.49795e-18
1.19677e-18
4.25836e-18
7.93636e-19
1.06249e-05
3.24087e-18
4.6389e-08
6.12555e-18
1.07966e-05
8.45645e-18
1.86563e-18
7.7616e-15
3.75928e-17
1.92053e-18
6.12531e-17
1.00731e-17
4.25143e-18
4.82969e-06
0.000220656
1.93496e-17
5.74524e-19
4.28226e-07
2.02955e-18
3.11444e-18
1.58656e-09
1.90941e-05
1.73116e-07
4.95676e-18
6.99842e-07
3.86811e-06
5.52629e-06
9.40759e-06
1.74457e-17
7.47306e-18
1.50307e-18
1.87734e-19
2.04486e-18
4.10697e-18
9.42411e-18
5.84451e-18
9.91907e-18
1.72978e-17
1.17059e-18
9.79918e-19
8.32854e-05
2.75157e-18
1.16246e-18
8.26456e-13
2.6052e-18
3.95084e-18
0.00123076
2.03509e-19
2.81631e-18
2.03641e-06
1.71715e-12
6.89927e-18
2.71878e-18
1.60874e-18
2.50386e-05
1.47713e-18
1.42039e-17
5.23982e-11
1.48816e-19
4.84471e-18
1.96718e-18
3.77703e-18
0.000125682
4.16061e-18
2.05475e-07
3.0048e-18
5.41532e-18
5.34169e-19
1.17073e-17
2.33913e-18
2.65119e-11
4.81483e-11
1.33274e-07
1.35361e-18
8.67667e-18
3.82617e-18
1.11942e-10
3.14216e-18
3.19544e-10
1.64348e-11
1.90958e-17
9.42503e-19
1.63908e-17
7.82929e-12
4.23002e-18
1.61324e-17
2.29225e-12
9.89944e-17
3.54578e-05
5.14542e-18
7.47815e-06
4.44396e-17
2.52795e-09
3.00839e-18
1.70412e-06
1.95129e-18
4.84322e-06
2.71762e-05
4.91476e-18
2.916e-06
1.37961e-08
1.44949e-18
1.13456e-05
2.74369e-18
1.78316e-18
3.52986e-17
6.71068e-18
1.52956e-17
2.96978e-19
3.90861e-18
3.73021e-18
0.000311037
4.74962e-18
5.73917e-18
6.56827e-18
5.13955e-19
4.62507e-18
3.57049e-05
0.000930718
3.27076e-09
1.41409e-08
9.08861e-19
2.19281e-06
1.49516e-06
3.94894e-18
1.85891e-17
3.93827e-17
2.17432e-18
8.49697e-19
1.78651e-17
9.20594e-18
9.73777e-19
4.57097e-07
6.51744e-17
1.05991e-18
2.09163e-07
3.22923e-09
2.88919e-17
3.02627e-05
1.63918e-18
1.84082e-17
1.78505e-18
0.000193969
1.91317e-17
5.15347e-19
2.82334e-05
6.08375e-19
2.36399e-18
3.19604e-18
4.56066e-18
6.10934e-05
2.99935e-18
2.22077e-18
8.88287e-18