/*--------------------------------*- C++ -*----------------------------------*\
  =========                 |
  \\      /  F ield         | OpenFOAM: The Open Source CFD Toolbox
   \\    /   O peration     | Website:  https://openfoam.org
    \\  /    A nd           | Version:  10
     \\/     M anipulation  |
\*---------------------------------------------------------------------------*/
FoamFile
{
    format      ascii;
    class       volScalarField;
    location    "5.6";
    object      T;
}
// * * * * * * * * * * * * * * * * * * * * * * * * * * * * * * * * * * * * * //

dimensions      [0 0 0 1 0 0 0];

internalField   nonuniform List<scalar> 
111485
(
303.15
285.143
301.039
303.15
298.506
283.15
299.015
293.449
296.441
286.29
300.586
296.267
300.285
284.598
300.053
286.8
299.333
298.551
294.178
303.15
303.15
283.15
297.348
288.75
301.559
303.15
293.266
300.647
288.959
303.15
300.761
294.36
303.15
283.15
283.461
283.15
302.299
297.712
283.149
296.676
283.15
289.693
297.091
302.893
303.189
303.15
287.45
288.607
289.733
303.15
303.15
283.15
303.15
299.028
303.15
293.621
287.949
283.15
283.326
295.537
295.939
303.15
302.092
300.333
283.15
284.594
300.537
291.605
302.142
302.548
303.165
301.933
303.15
302.141
303.15
295.41
283.15
293.562
283.15
283.15
283.242
293.423
283.15
303.15
300.383
284.244
283.15
301.598
303.125
299.182
283.372
289.676
300.923
300.402
289.901
303.15
303.15
301.598
303.149
283.425
303.15
286.718
283.15
285.227
285.779
283.15
283.15
293.109
301.491
283.146
298.974
288.142
301.341
301.736
303.15
302.011
303.15
283.15
300.199
303.15
303.15
283.15
283.15
283.15
283.408
303.152
283.15
301.85
303.15
283.179
303.084
301.993
303.15
283.15
283.15
292.609
283.15
294.324
298.866
301.143
303.138
296.895
299.042
284.808
302.296
297.909
283.15
303.15
283.15
297.226
284.974
303.15
303.144
287.415
283.156
293.823
295.729
302.536
283.154
303.15
303.15
292.297
286.294
283.153
283.157
301.238
283.7
283.15
283.153
283.152
283.15
303.15
283.209
283.15
291.587
287.245
283.15
303.15
303.15
283.15
303.15
303.15
297.729
293.617
295.903
289.877
301.431
300.49
283.191
303.15
301.494
303.15
303.15
300.229
286.317
301.465
301.348
295.859
303.15
300.915
284.627
283.161
300.839
297.101
303.15
300.483
288.313
303.15
283.231
300.218
284.846
300.749
303.15
303.15
300.763
283.15
292.918
283.15
300.668
298.799
290.444
303.15
301.782
300.569
283.15
283.15
283.15
289.573
283.158
283.15
303.15
298.736
291.5
289.996
283.15
303.15
303.109
303.15
284.356
300.154
299.341
299.589
299.459
283.15
283.143
298.941
283.15
283.15
288.802
288.449
283.15
301.226
298.965
303.15
283.15
301.033
303.15
303.15
303.123
303.15
288.323
285.894
290.906
303.15
298.422
303.15
303.15
303.15
283.148
298.158
301.03
299.495
291.252
299.553
296.314
283.213
290.451
291.708
283.15
303.15
283.149
292.503
298.783
286.513
303.15
298.066
297.327
298.97
302.966
283.166
297.189
299.434
302.013
283.15
283.627
283.15
283.149
303.15
283.928
290.311
286.362
303.15
283.15
297.669
285.306
303.15
303.15
303.15
284.628
290.356
301.115
284.44
293.102
283.15
283.15
303.15
298.428
303.15
283.84
289.636
283.152
283.15
303.15
303.15
283.15
294.436
290.013
283.15
295.813
283.15
303.15
301.119
297.386
294.026
295.92
283.15
283.15
283.15
296.704
291.13
302.379
283.15
283.15
283.15
290.136
297.024
283.218
290.565
283.15
292.872
299.628
284.218
298.76
285.29
283.15
303.15
283.15
303.15
290.721
296.669
288.042
292.059
283.15
286.397
283.15
303.15
293.899
303.15
301.878
303.15
283.15
292.069
283.15
288.888
284.658
283.15
284.002
298.114
283.15
300.212
284.715
298.921
303.031
291.172
286.044
283.15
303.15
303.145
283.15
301.038
300.901
283.15
283.15
294.74
284.389
298.288
296.843
283.15
295.236
296.185
283.15
302.079
283.912
303.15
303.15
288.352
298.673
283.15
303.15
303.15
303.15
300.76
283.15
303.15
293.994
283.171
287
300.038
283.15
283.15
302.635
283.15
302.486
301.49
297.97
289.249
283.15
294.023
303.383
303.15
298.737
292.363
303.15
283.15
283.31
283.15
290.136
286.163
291.771
283.15
292.991
296.629
293.183
303.147
283.15
303.15
303.15
283.169
292.85
283.15
284.347
303.134
283.15
303.15
303.15
303.15
301.831
290.634
286.047
284.217
284.338
283.15
285.751
303.15
300.796
283.15
303.15
303.15
300.718
303.15
303.15
283.151
303.15
283.15
300.74
283.15
283.15
283.15
303.15
283.15
303.15
283.15
283.679
283.15
303.128
301.861
283.761
283.15
303.088
283.15
303.15
284.734
284.696
286.166
297.654
283.15
297.599
297.708
292.422
286.895
285.294
303.15
291.879
283.15
299.943
283.15
296.899
283.15
292.204
298.65
303.151
283.15
286.875
303.15
295.618
299.173
283.15
283.15
283.15
283.15
303.15
293.783
283.15
283.15
283.242
283.15
299.895
283.15
284.831
303.15
283.44
303.122
284.68
292.026
283.15
301.502
283.15
283.15
285.737
283.15
283.258
283.15
299.751
303.15
290.786
303.15
283.15
302.406
284.49
300.16
285.69
300.161
289.516
283.15
300.693
284.573
283.15
283.14
300.432
301.636
283.15
282.408
301.115
303.067
283.117
303.15
287.612
302.202
284.425
285.429
288.298
282.512
283.15
303.15
300.76
303.15
283.561
283.15
283.15
291.884
282.663
303.15
303.12
283.15
286.327
299.645
283.15
283.15
299.656
303.15
283.15
283.15
283.15
286.203
283.15
303.15
284.855
284.256
303.15
299.745
283.15
289.288
303.15
283.15
286.203
283.15
283.15
283.15
285.435
283.15
285.488
292.079
303.15
300.427
283.455
298.795
300.974
283.345
283.465
283.15
289.061
298.525
303.15
302.274
296.08
296.955
284.748
297.52
297.256
303.15
300.283
303.137
283.15
297.233
284.87
283.15
292.489
295.825
284.888
298.851
300.683
292.447
283.15
298.981
283.475
303.15
300.642
301.998
294.205
283.15
286.571
303.15
283.15
283.15
283.15
283.306
283.15
303.15
303.15
283.15
300.453
299.343
303.15
285.665
303.15
303.15
303.15
290.073
283.426
283.15
303.15
283.15
283.15
286.909
292.498
283.15
295.254
283.135
283.15
295.429
302.251
287.867
283.15
283.15
300.309
292.202
283.15
283.15
283.15
294.078
303.15
303.15
283.15
296.346
302.399
283.15
282.471
301.9
286.605
283.15
283.15
287.492
302.979
283.15
283.16
287.466
283.772
288.879
283.15
285.744
300.356
283.15
303.15
283.15
283.15
283.15
283.15
295.783
303.15
283.15
283.15
295.396
291.926
303.15
303.15
289.936
298.511
298.408
303.15
283.15
298.082
303.15
283.854
298.909
298.434
303.15
303.15
303.15
283.15
286.098
283.15
283.15
302.712
303.15
297.904
302.302
283.15
294.167
283.257
296.535
292.024
283.429
289.878
283.15
283.15
296.981
288.16
290.887
283.15
283.15
298.116
295.086
283.15
283.927
284.626
283.485
303.15
303.15
303.15
290.791
283.15
300.125
283.15
284.394
297.65
298.603
292.377
283.15
283.15
303.15
295.484
283.15
283.15
303.103
283.15
283.15
303.15
283.15
299.401
283.15
283.15
283.15
283.15
283.15
303.15
283.15
283.172
298.808
303.15
302.544
283.13
283.404
283.094
285.576
283.15
284.472
290.593
283.404
303.15
283.149
299.812
283.15
300.318
283.155
283.143
286.251
297.59
283.214
291.91
298.008
283.15
283.15
299.143
299.867
283.15
297.448
291.329
297.573
283.15
283.246
283.15
297.887
297.009
283.15
300.146
297.655
283.149
299.852
283.15
295.716
283.144
303.119
283.162
283.16
283.15
283.15
284.459
283.15
302.976
283.601
283.074
303.148
303.149
303.147
283.15
283.15
293.903
303.15
303.152
283.884
283.15
283.15
303.155
303.15
283.15
303.164
283.15
283.15
303.15
303.15
303.15
303.15
283.37
283.15
283.15
283.15
303.158
283.309
283.903
293.556
283.15
283.15
283.341
283.15
283.15
283.15
287.284
293.709
283.15
283.15
283.15
283.15
283.15
283.15
284.025
283.15
303.15
291.654
283.15
303.15
303.15
303.153
303.15
303.15
283.15
303.169
283.15
283.711
283.144
303.152
283.15
303.065
284.434
292.192
303.15
303.129
284.485
303.15
283.15
303.15
283.15
294.145
293.57
284.681
303.148
283.15
293.349
283.15
283.15
303.15
283.15
294.944
283.15
303.15
283.163
298.211
303.15
284.416
283.15
283.593
283.15
283.15
283.15
303.15
285.915
283.48
284.39
283.15
283.15
285.7
283.15
283.15
303.15
284.368
303.164
298.65
303.15
303.129
303.13
283.15
303.132
283.15
283.454
289.237
301.023
283.824
283.167
283.15
283.15
283.15
303.182
283.15
302.919
303.15
292.995
303.15
288.769
283.841
303.15
283.15
303.15
283.15
301.847
303.15
303.15
286.484
300.641
283.15
283.15
283.15
283.15
283.15
283.15
300.893
283.589
303.15
303.15
303.157
303.15
300.28
284.447
283.15
302.15
303.15
301.669
283.15
302.592
283.15
283.148
303.152
283.319
302.154
300.314
283.147
283.15
289.406
303.15
293.496
303.15
283.15
303.15
283.15
283.15
283.15
300.885
302.092
303.15
303.15
303.15
302.912
283.15
303.15
293.007
283.083
303.15
297.554
298.328
296.583
283.382
283.15
283.15
283.15
283.15
294.724
283.15
294.986
283.15
303.064
289.892
283.15
302.872
283.15
283.15
302.761
283.148
302.924
283.15
303.15
283.15
302.418
283.15
303.15
283.15
283.147
283.15
283.172
283.15
283.15
303.15
293.03
301.118
296.213
297.121
303.15
303.118
283.15
283.15
285.757
283.15
283.158
302.859
298.809
302.955
303.15
283.368
283.15
303.15
283.15
303
283.332
298.324
283.15
303.15
288.153
303.15
283.15
283.123
295.184
283.147
283.15
283.15
283.149
303.15
283.15
303.143
303.15
303.15
290.025
302.997
303.005
289.097
293.373
283.15
283.15
303.095
289.169
283.15
303.15
284.769
283.15
303.15
283.15
283.15
283.15
297.712
283.15
302.947
283.15
300.584
283.15
283.15
283.15
283.15
283.15
283.15
285.069
283.15
283.15
283.15
283.15
283.15
283.15
292.105
283.15
298.391
302.951
283.15
302.335
283.15
302.541
303.145
292.341
288.837
303.15
292.207
284.824
303.112
303.15
303.139
295.094
288.733
283.15
287.953
283.15
283.15
283.15
283.15
287.588
283.15
283.15
291.691
303.137
285.352
283.15
283.15
302.53
283.15
283.187
303.15
299.918
283.15
283.15
302.83
283.15
303.178
303.15
283.15
289.127
297.991
292.755
285.725
292.679
294.211
283.15
283.15
302.317
290.643
292.876
284.444
283.15
294.412
283.15
303.15
300.797
298.773
283.15
297.449
283.15
292.819
297.311
303.15
283.15
283.15
301.819
283.15
283.15
300.573
296.177
283.197
291.277
283.15
283.15
302.813
300.591
283.15
300.708
283.15
300.566
283.15
283.15
300.867
283.15
283.229
301.644
283.15
283.15
302.458
283.15
287.967
303.15
290.526
303.15
303.15
303.15
301.008
283.15
283.15
299.618
283.15
302.995
283.15
283.15
303.15
283.151
288.255
283.15
283.15
288.116
288.297
283.15
283.695
283.15
303.15
302.445
283.745
301.618
283.15
283.15
283.15
283.15
283.15
283.15
283.15
283.15
283.15
283.15
283.15
303.15
283.15
283.15
283.15
283.15
283.15
283.15
283.15
283.15
303.15
287.004
283.15
283.15
283.15
294.818
283.15
303.15
302.971
283.15
283.15
294.827
283.15
283.15
301.921
295.303
283.15
303.602
303.582
283.15
301.554
294.074
297.649
301.521
298.22
303.15
283.15
296.404
291.865
301.466
283.15
302.18
302.43
300.929
288.092
287.357
301.113
301.801
301.825
303.15
285.924
297.63
285.584
297.337
283.15
283.15
283.15
303.15
283.15
292.088
297.992
283.15
283.15
283.15
283.15
283.15
303.15
283.15
303.15
292.183
303.126
299.101
302.848
283.15
283.15
285.442
283.167
283.15
283.15
301.711
303.15
283.15
298.229
299.581
297.602
298.747
300.871
303.15
291.092
302.604
303.15
303.15
300.391
303.15
283.15
282.94
295.666
302.955
283.15
303.15
289.716
286.222
297.165
292.287
302.463
303.15
303.137
303.15
303.15
283.15
298.965
283.15
291.896
290.543
299.774
284.796
303.15
301.964
303.15
283.15
303.15
303.15
291.569
299.794
283.15
303.15
303.134
291.875
303.041
299.424
292.932
288.374
293.024
283.15
303.15
283.15
291.376
298.395
303.151
303.15
303.15
303.15
297.567
302.567
283.15
300.041
301.194
284.911
299.593
303.15
303.15
298.772
293.071
283.15
302.913
299.812
302.618
292.069
297.398
298.344
303.15
287.029
298.198
291.462
283.15
289.171
303.15
288.444
301.118
303.15
288.77
301.333
300.182
293.277
283.151
283.159
283.242
301.76
300.981
303.15
288.863
301.528
303.15
283.15
303.15
303.209
298.848
291.08
296.838
303.248
283.149
297.669
303.15
303.15
292.908
303.15
300.341
283.311
301.37
291.574
303.15
283.673
293.333
303.15
283.038
298.772
303.15
300.76
286.305
303.15
303.15
284.013
303.15
283.15
283.15
285.946
299.392
291.312
303.15
285.271
297.588
283.15
298.936
298.97
289.028
303.107
283.15
301.522
299.641
298.937
300.159
288.704
290.902
302.493
303.15
301.601
288.771
303.15
298.947
283.15
283.15
303.15
283.15
303.15
297.495
283.15
300.595
283.651
303.15
283.816
283.15
289.906
303.15
303.145
303.15
294.246
303
303.121
299.95
290.463
289.499
290.636
298.538
303.15
299.491
292.269
299.03
303.15
283.892
283.464
299.352
287.235
283.522
303.15
283.15
303.15
285.379
303.15
303.309
284.72
303.317
302.961
303.15
303.15
283.15
300.617
300.652
285.553
303.09
287.042
295.778
301.895
292.606
288.26
302.099
296.202
283.15
283.15
303.15
285.862
289.767
283.15
283.15
303.15
302.008
288.787
303.15
296.483
303.15
283.156
285.238
301.101
303.15
303.15
292.387
303.15
283.308
290.665
283.15
297.236
294.707
296.12
303.15
302.729
283.15
302.685
293.547
303.15
303.15
288.843
283.15
303.15
301.844
284.481
303.15
303.15
283.15
302.37
303.435
289.582
299.794
298.064
303.15
303.158
302.624
303.15
283.15
303.15
303.15
303.15
303.15
303.15
303.15
303.15
283.15
303.15
303.15
283.35
303.15
303.318
303.15
303.16
303.15
303.15
301.013
303.678
303.15
292.134
303.15
303.15
283.15
302.58
303.15
302.158
303.116
283.294
283.15
303.15
302.936
283.149
303.15
303.15
291.472
283.15
292.694
283.15
283.15
283.153
291.322
284.872
303.15
296.722
283.15
303.676
303.134
284.342
302.617
283.15
292.271
303.085
301.716
283.15
303.15
283.15
304.006
284.854
296.929
303.15
303.15
303.15
303.15
303.15
303.15
302.381
302.823
297.693
292.184
303.15
287.23
292.742
285.015
303.205
283.15
286.967
302.769
284.806
283.148
287.524
303.15
283.391
302.929
292.636
302.859
301.942
303.15
302.241
303.15
303.15
298.02
303.15
284.512
303.15
303.15
283.15
303.15
303.15
302.858
303.15
283.302
283.15
283.15
285.883
284.932
300.926
286.172
303.15
294.97
303.15
290.53
303.15
287.237
300.755
301.538
293.445
303.15
303.15
303.15
289.854
283.15
303.15
289.607
283.15
283.15
301.871
303.15
286.23
283.148
283.15
303.15
303.15
300.691
298.287
303.15
293.565
303.043
283.15
298.607
303.15
286.451
288.288
302.167
303.15
296.365
296.784
302.96
301.926
301.688
303.15
303.15
303.147
303.15
283.15
303.15
289.613
300.08
294.41
302.164
283.15
300.433
291.501
298.306
283.617
298.427
289.731
302.198
283.15
283.15
283.15
302.242
283.15
290.556
283.15
301.322
303.161
289.766
298.091
283.15
303.15
301.309
301.288
303.15
283.15
303.15
286.462
301.5
302.986
302.37
298.069
288.486
303.15
303.15
303.15
294.375
286.038
289.92
295.996
283.979
302.965
303.15
303.15
283.15
283.15
285.456
299.653
303.15
303.15
283.15
303.15
303.15
303.15
300.343
303.15
285.41
292.787
283.15
283.251
293.475
285.728
303.15
303.15
301.934
303.15
299.323
283.146
297.644
303.15
303.15
283.15
303.15
303.15
303.15
305.346
303.15
301.886
301.143
303.15
303.15
301.671
303.15
283.15
287.308
303.114
303.15
303.15
303.15
298.039
303.15
303.15
302.533
302.516
301.828
303.15
283.15
303.15
302.084
302.535
301.579
302.557
283.15
300.729
287.602
297.511
283.15
303.15
303.15
303.15
303.15
294.476
287.616
299.684
303.15
303.15
303.15
303.15
283.15
303.148
284.826
285.186
283.15
303.15
303.15
283.147
299.672
295.094
283.15
303.15
303.15
303.15
303.15
289.665
289.775
303.15
303.15
302.411
303.15
301.465
283.971
291.999
303.15
283.15
301.186
303.126
303.15
303.237
301.375
286.925
303.15
303.15
303.15
303.15
293.357
284.182
303.15
302.713
298.195
289.803
303.15
303.15
303.15
303.15
299.609
303.151
303.15
303.15
298.37
302.595
288.455
303.15
303.15
297.884
303.15
303.15
303.15
303.15
288.882
303.15
283.15
283.15
296.058
291.201
303.15
303.15
303.15
297.075
303.146
303.15
303.15
303.15
303.15
303.431
300.942
303.15
287.407
302.664
299.478
303.15
303.15
303.15
303.15
283.15
285.729
303.15
302.837
283.15
302.215
303.15
303.136
303.15
283.15
301.94
285.936
283.15
302.843
303.15
302.448
283.15
303.15
303.15
303.151
303.15
283.275
303.15
290.913
283.15
283.15
303.15
303.15
298.93
302.406
283.15
302.46
283.15
284.133
288.08
302.72
283.15
303.155
302.995
303.136
284.436
283.156
302.992
283.15
283.15
283.156
302.117
302.326
303.15
283.15
283.15
295.728
303.15
283.15
303.15
303.15
303.15
303.106
303.052
302.942
302.473
303.15
302.919
303.15
284.858
303.15
303.15
283.15
303.15
303.112
303.15
283.15
303.15
288.37
303.15
303.15
303.178
283.15
303.04
302.299
297.139
303.15
289.888
295.22
283.978
290.474
283.15
283.15
287.258
284.356
283.15
303.743
283.15
286.455
303.15
283.15
303.157
303.15
303.15
303.018
303.155
303.15
283.15
303.139
303.15
283.15
283.104
298.835
302.72
303.15
301.884
303.15
285.74
303.152
301.236
303.15
303.15
301.1
303.15
303.15
303.15
287.748
303.15
285.182
303.15
303.147
303.15
283.15
283.15
303.15
303.15
303.15
288.78
302.576
303.15
303.15
288.699
286.571
291.43
303.15
302.719
287.725
287.592
303.15
303.15
287.879
283.15
292.051
303.15
303.152
303.149
303.15
300.596
283.15
302.321
283.15
303.15
303.15
303.15
303.15
303.15
284.365
302.273
291.2
303.15
303.15
290.729
303.15
303.15
303.15
303.15
303.15
300.234
303.15
303.15
283.15
299.551
303.15
283.15
303.15
301.424
283.15
300.044
290.79
302.699
300.105
299.533
303.15
303.15
303.15
300.907
288.588
283.15
303.15
300.392
303.15
303.15
292.134
303.15
287.551
303.15
297.94
284.357
303.15
283.15
303.15
303.15
303.15
285.316
303.15
300.555
303.15
303.15
299.787
283.15
284.787
303.15
303.15
288.215
301.556
296.558
303.15
303.15
303.15
301.573
292.361
303.15
283.15
303.15
300.74
303.15
284.81
296.442
303.15
303.15
301.195
303.15
303.15
283.15
303.15
283.15
294.74
303.15
283.15
303.15
303.15
303.15
303.15
303.15
303.15
283.15
301.522
283.15
302.112
303.15
303.15
296.181
300.547
303.15
283.15
303.15
300.945
283.15
303.15
303.15
303.15
300.771
303.15
297.803
303.15
285.905
283.15
286.777
303.15
303.15
298.58
283.15
303.15
287.95
283.248
303.15
303.15
285.131
283.872
300.912
301.774
301.24
293.214
301.778
283.864
303.15
297.863
283.15
283.15
303.15
303.15
303.15
301.265
303.15
303.15
303.15
303.131
283.17
283.15
283.571
303.15
302.044
283.15
303.143
296.219
283.15
294.68
303.15
303.15
283.15
299.965
283.945
303.15
283.15
299.992
303.15
297.763
303.15
295.4
303.15
283.15
303.15
283.15
299.478
283.15
283.231
283.15
286.243
303.15
303.15
283.15
283.15
303.15
303.15
303.15
303.15
284.906
284.833
283.15
303.15
283.235
283.15
283.15
303.154
289.987
283.551
283.15
301.549
284.92
300.5
288.281
303.15
303.15
303.15
303.15
283.15
283.15
283.15
303.15
283.15
283.15
303.15
283.15
297.33
283.15
303.15
283.15
303.15
303.15
283.417
283.15
303.15
301.984
303.149
303.15
303.15
303.15
288.776
283.15
303.15
303.149
283.15
303.15
303.15
303.15
295.298
283.15
283.186
303.15
303.15
303.15
303.15
303.15
303.149
303.147
284.13
303.15
283.15
303.15
303.15
303.15
303.148
303.149
283.15
283.15
283.15
303.15
303.15
283.15
303.149
283.15
287.75
283.15
301.851
283.15
303.154
303.15
284.632
283.15
284.474
297.492
303.15
284.716
303.172
303.15
297.501
283.15
303.15
303.15
303.15
303.15
283.15
303.15
303.15
299.238
283.15
303.15
303.15
303.15
303.15
292.374
290.758
303.169
283.166
303.15
301.856
302.346
303.15
283.15
283.15
303.15
303.15
303.15
283.15
283.15
283.831
303.15
303.15
303.195
303.151
283.15
288.97
303.15
283.15
303.15
288.152
303.15
283.15
302.147
283.15
283.15
283.15
303.15
299.741
303.15
303.15
303.15
283.15
284.526
293.682
295.339
289.669
303.124
303.025
283.15
283.15
301.086
283.701
283.15
303.149
303.15
303.15
283.15
294.646
303.15
283.15
302.988
303.15
303.15
283.806
303.15
303.15
288.497
289.675
303.15
283.15
303.15
283.15
303.15
303.15
303.15
303.15
283.959
303.15
303.15
303.15
302.94
303.15
303.15
283.15
283.15
283.15
283.15
302.952
283.15
283.15
301.019
303.15
284.794
284.956
303.15
301.179
303.15
283.15
303.15
283.15
283.15
303.15
303.15
303.15
302.682
303.15
303.15
303.15
283.15
303.15
283.15
286.419
303.15
303.15
291.705
303.15
283.15
283.15
302.444
303.15
303.148
283.15
303.197
286.73
283.15
283.15
299.283
283.15
283.15
303.053
303.16
293.392
303.166
303.151
303.152
283.15
283.15
302.661
283.465
285.901
300.902
283.159
283.15
291.103
301.613
301.513
283.15
300.278
290.74
300.177
302.237
302.779
284.726
295.599
299.297
286.293
293.427
300.166
303.15
297.982
297.685
302.8
283.676
292.49
301.195
287.375
303.15
301.113
303.15
300.751
301.543
283.647
285.027
303.15
283.15
302.292
301.727
283.145
303.172
288.597
302.695
301.906
300.887
303.15
303.226
301.185
295.191
300.452
289.122
302.929
301.647
302.202
302.303
284.243
302.524
301.637
283.182
303.15
302.905
303.15
303.15
302.128
302.037
294.405
303.15
284.714
292.383
292.392
301.08
303.15
284.043
285.233
284.411
303.15
298.877
303.15
296.411
295.46
300.804
303.143
303.15
303.15
301.992
301.312
302.798
303.15
292.678
302.76
290.091
283.15
298.387
294.072
303.15
300.533
283.15
283.205
283.15
302.598
303.104
303.15
302.985
298.481
283.148
300.554
302.251
295.379
283.548
295.955
297.164
283.473
303.134
284.785
296.353
283.324
296.992
300.561
300.329
300.425
302.027
290.037
301.619
303.15
302.737
302.67
302.664
296.525
302.892
283.15
302.054
293.484
303.15
283.44
286.875
301.247
302.614
290.587
284.855
287.764
302.641
296.467
303.15
303.15
295.091
283.15
292.752
283.438
303.15
290.613
290.358
283.929
303.15
297.351
298.523
284.26
301.307
294.228
290.222
300.57
303.11
303.15
303.15
283.558
302.635
283.354
285.858
303.15
303.022
303.042
303.15
285.451
300.815
297.959
283.252
299.626
302.398
300.563
286.992
283.15
303.108
301.849
283.76
283.142
303.15
303.078
303.15
303.15
284.208
302.554
296.408
283.041
283.153
303.15
283.15
302.959
303.049
302.527
301.459
303.15
283.15
283.15
301.86
301.916
283.221
295.91
303.15
303.15
301.664
285.556
283.262
301.725
301.822
301.769
284.427
303.15
283.15
298.491
297.826
303.15
302.72
302.113
284.842
285.021
302.145
303.056
303.15
298.222
284.456
283.15
303.15
300.606
301.276
302.05
289.709
302.106
285.721
300.224
300.294
290.394
297.648
303.15
303.15
300.992
284.504
302.124
283.151
300.575
301.749
283.639
288.345
302.444
283.15
283.15
283.028
303.15
303.15
300.014
298.984
302.311
283.147
283.15
283.962
283.151
283.15
283.152
303.08
300.988
299.261
296.01
283.376
303.102
300.212
303.15
283.15
302.582
289.305
300.845
292.748
283.517
303.064
283.148
283.15
302.846
301.265
302.632
283.156
291.393
284.92
303.15
284.288
301.079
283.15
283.313
284.99
284.304
283.15
283.15
301.683
283.15
289.49
302.551
302.72
301.801
283.49
298.671
290.31
283.15
303.315
292.174
283.15
283.15
283.15
303.15
301.226
302.44
299.229
301.51
299.952
288.962
283.155
291.045
290.209
303.063
291.225
300.066
292.126
283.15
286.334
301.132
301.579
283.15
284.01
299.707
283.15
303.15
283.19
301.323
303.15
284.036
302.274
303.026
303.15
283.15
292.879
303.153
301.739
283.15
283.15
283.15
302.224
297.699
303.142
302.217
303.165
303.15
288.483
303.165
290.496
300.295
300.256
296.692
283.157
301.743
283.15
290.664
301.465
289.579
290.547
299.069
300.769
301.645
287.225
291.193
285.076
283.174
302.245
286.17
283.149
283.145
300.275
283.077
300.371
287.091
296.107
299.526
289.332
299.369
283.121
299.161
283.15
290.083
289.522
298.729
283.337
283.15
300.633
283.15
302.81
283.15
303.15
286.527
286.529
283.15
299.089
298.597
287.116
303.15
303.15
301.772
289.838
303.017
283.745
301.624
287.193
303.147
284.225
288.282
303.15
301.478
283.15
283.15
287.622
287.113
283.145
285.304
301.546
286.309
301.195
303.15
285.198
301.789
291.262
303.15
303.15
301.667
302.083
303.15
293.1
294.339
283.699
296.52
286.88
290.12
303.15
302.853
297.12
285.077
283.15
287.783
291.953
299.729
283.165
283.769
282.927
301.988
303.125
283.151
303.135
303.15
300.608
293.167
298.92
293.979
283.15
291.995
296.117
285.644
283.212
292.225
283.15
300.289
303.164
292.682
284.122
303.145
291.917
298.706
288.345
300.378
291.378
287.424
283.15
303.142
285.377
290.023
293.578
283.15
283.15
283.15
303.141
283.15
283.136
286.489
303.15
283.15
303.166
283.173
291.157
289.291
303.442
302.923
289.975
303.15
297.097
303.173
302.042
287.356
283.15
293.05
303.146
303.097
286.264
283.15
283.15
283.481
286.101
303.06
303.145
287.567
289.544
283.496
283.162
289.922
293.276
303.15
283.15
303.102
303.15
302.362
285.048
302.353
303.096
284.086
283.793
284.069
302.858
302.211
297.439
294.04
303.075
291.377
291.085
303.15
303.101
302.61
285.49
283.388
303.15
285.993
283.393
302.941
301.682
302.207
283.15
300.402
301.891
303.15
302.186
285.44
303.15
297.999
303.15
283.15
300.746
302.698
286.39
302.514
283.15
285.224
303.016
283.15
302.331
285.403
294.964
284.363
303.15
303.022
302.879
286.549
283.15
287.187
284.285
289.86
285.797
302.282
303.15
283.15
283.15
293.179
283.15
301.074
302.195
290.412
283.15
294.083
283.15
303.15
283.15
300.078
298.668
283.151
285.321
301.74
303.09
303.156
292.017
294.354
301.257
283.22
301.815
283.145
303.15
303.144
299.364
283.15
301.381
294.902
303.15
300.973
287.364
301.963
284.931
288.284
283.15
302.253
287.799
298.498
303.079
283.15
303.15
291.707
302.194
283.075
283.147
286.855
298.434
303.149
284.568
301.081
301.051
301.301
303.152
299.967
287.715
284.959
301.63
299.966
283.746
283.1
303.159
303.149
303.15
297.455
283.163
283.15
303.15
303.149
289.985
298.941
300.304
287.845
302.811
303.15
286.465
301.58
303.15
300.983
283.812
301.506
303.15
284.582
301.4
295.542
302.774
303.15
303.15
285.216
295.179
296.48
287.478
303.15
303.15
283.15
287.269
302.425
296.27
303.15
285.61
303.15
303.15
300.467
288.779
283.15
295.656
295.982
299.091
283.15
303.15
292.726
287.272
303.15
298.047
300.57
300.477
303.15
303.15
303.15
300.288
298.418
302.811
299.959
283.15
292.921
287.738
290.735
300.638
303.15
303.15
300.817
303.101
286.625
296.204
303.15
303.148
283.15
286.485
299.016
285.619
303.15
303.15
283.349
303.125
303.15
303.15
283.15
290.564
303.15
303.15
284.617
299.311
283.15
303.15
284.642
301.372
300.229
287.045
294.966
303.15
283.504
303.15
303.15
283.303
300.591
290.439
300.453
303.15
303.132
302.199
292.84
299.851
301.396
284.469
283.465
300.851
298.476
303.15
302.765
284.159
299.806
301.419
287.773
303.15
297.456
301.447
301.532
301.572
292.922
303.15
283.15
299.23
283.15
283.15
287.788
283.15
284.024
283.15
283.15
283.15
283.15
302.766
288.165
302.715
283.15
295.775
290.974
284.765
283.15
303.15
302.691
301.76
303.172
302.65
283.15
294.923
300.324
290.209
283.15
283.15
299.862
285.956
283.15
283.15
303.149
290.644
283.15
287.202
303.15
303.152
284.33
283.15
288.291
292.848
300.808
294.614
302.963
285.678
302.521
295.305
286.31
283.15
283.547
291.699
303.084
289.213
302.67
283.15
292.405
287.784
301.041
301.262
284.937
303.11
284.95
297.146
302.987
303.147
285.153
303.146
303.01
293.364
302.68
283.15
303.15
303.15
294.838
291.136
283.155
301.148
284.699
284.166
284.642
303.145
288.385
300.515
283.15
283.15
302.524
303.151
294.624
302.908
303.181
299.882
303.218
302.895
283.15
301.334
302.89
283.15
303.15
301.33
303.15
284.338
298.843
283.164
291.584
283.15
287.612
303.021
299.82
283.15
303.03
290.934
301.229
303.13
303.08
283.15
283.15
301.942
302.028
283.813
302.824
302.435
302.396
303.141
283.15
293.817
283.15
302.801
287.907
302.993
303.15
283.15
302.838
285.163
291.508
302.076
283.15
302.6
302.025
301.601
302.503
303.052
303.206
303.015
303.15
283.15
301.532
297.898
303.089
303.15
289.993
285.023
303.15
283.15
285.355
303.183
303.164
302.926
301.178
284.288
303.1
290.71
294.243
303.148
289.108
303.163
283.15
289.903
283.15
300.025
298.224
284.807
288.237
299.669
296.665
295.333
299.232
293.817
303.153
293.85
296.468
283.158
299.438
293.878
303.15
298.978
299.202
303.15
291.274
303.171
301.703
303.15
286.954
286.02
302.808
289.694
283.15
283.15
300.39
301.136
283.738
283.15
303.15
300.265
302.341
300.67
299.923
302.795
292.608
289.663
286.679
292.515
284.319
290.458
283.308
295.713
290.454
293.947
287.163
284.3
303.162
283.275
303.147
285.637
300.758
283.151
300.392
298.389
288.766
302.108
285.432
299.129
283.15
302.958
283.155
283.113
287.829
299.71
303.15
300.359
303.024
299.952
302.772
303.15
301.303
284.971
295.013
302.073
303.149
283.714
283.15
290.386
285.26
285.776
303.14
303.149
283.15
283.15
283.177
303.15
293.46
303.15
303.152
294.69
303.434
303.15
300.426
303.15
303.15
293.662
290.641
303.15
289.856
302.082
289.582
303.15
303.15
286.023
283.339
290.358
303.221
303.15
303.146
285.493
283.257
283.15
289.03
287.646
303.15
284.321
303.15
303.15
303.132
287.352
303.15
303.147
283.282
303.152
302.675
287.936
283.152
283.614
297.334
290.772
303.15
285.944
284.461
301.36
287.152
302.229
290.602
293.912
303.15
303.15
284.022
303.15
302.954
295.874
302.95
302.75
287.213
283.15
285.363
283.22
297.202
302.606
285.413
303.15
283.814
286.734
303.127
283.176
303.15
286.449
283.15
300.12
303.15
299.773
299.962
283.31
283.366
302.338
290.936
301.331
303.15
301.432
301.777
303.15
303.15
298.384
293.525
283.15
288.849
303.15
295.221
283.365
303.15
296.95
298.76
289.011
303.15
302.768
294.299
295.436
284.479
303.161
298.749
296.217
283.997
303.126
302.811
287.427
298.516
289.842
290.84
289.761
283.15
302.955
303.152
303.15
303.171
293.195
296.4
302.98
301.322
303.15
284.463
303.15
303.047
302.866
303.15
293.636
296.253
303.15
285.412
303.098
303.15
303.094
303.157
286.102
293.39
291.154
288.426
293.413
303.15
301.249
291.537
295.404
293.449
303.141
303.15
300.587
303.188
284.266
303.188
303.15
303.15
303.143
303.15
284.975
303.15
284.251
303.146
303.15
290.292
303.144
292.515
295.565
303.134
295.395
286.005
283.451
303.127
302.939
284.707
283.15
297.145
303.15
285.539
302.919
302.065
303.021
298.416
287.101
303.15
298.703
289.926
299.392
283.15
283.627
303.15
303.145
303.189
294.08
303.15
292.469
289.378
303.194
303.15
284.83
298.827
293.284
299.642
302.495
301.593
300.426
303.15
284.735
296.943
302.375
285.638
298.339
292.328
284.493
291.726
303.15
286.728
291.881
290.137
299.487
303.15
286.467
284.103
303.15
302.447
288.163
302.109
283.15
303.15
299.88
301.722
289.075
302.009
301.913
301.841
303.15
289.403
285.155
301.984
302.255
297.203
303.15
283.202
303.15
302.009
303.15
302.826
303.15
291.731
303.15
296.604
283.15
289.576
303.15
283.15
292.199
301.478
300.456
289.228
300.535
303.15
302.507
303.15
302.375
285.247
303.15
300.442
290.449
303.15
300.842
303.15
303.15
293.2
283.15
285.57
293.289
300.956
303.15
291.249
293.941
288.226
289.678
288.13
299.234
300.256
300.83
287.423
287.126
301.29
283.15