/*--------------------------------*- C++ -*----------------------------------*\
  =========                 |
  \\      /  F ield         | OpenFOAM: The Open Source CFD Toolbox
   \\    /   O peration     | Website:  https://openfoam.org
    \\  /    A nd           | Version:  10
     \\/     M anipulation  |
\*---------------------------------------------------------------------------*/
FoamFile
{
    format      ascii;
    class       surfaceScalarField;
    location    "120";
    object      phi;
}
// * * * * * * * * * * * * * * * * * * * * * * * * * * * * * * * * * * * * * //

dimensions      [0 3 -1 0 0 0 0];

internalField   nonuniform List<scalar> 
109758
(
-3.20343e-06
0.00121987
-0.00121667
-0.00125268
0.00128852
-3.58421e-05
0.000104112
-0.00114987
0.00104576
-0.00144001
8.78642e-05
0.00135215
0.00146239
-0.000168349
-0.00125786
-3.61803e-05
-0.000405295
0.000396328
8.96718e-06
-0.00110845
-6.47502e-06
0.00111492
0.00202382
-0.000255909
-0.000384883
-0.00138303
-2.3728e-05
0.000849319
1.44621e-05
-0.000840053
0.000466405
-7.21938e-05
0.00059655
-0.000990761
-3.94305e-06
0.000586479
-0.000582536
0.00187435
-0.00152687
-0.00143887
0.00109139
0.000320907
0.00125913
-0.0014378
-0.000142232
0.00118865
-0.00121936
3.07193e-05
-0.000974045
0.00110821
0.00132822
0.000691345
-0.000946076
-0.000684579
0.00093931
0.000819588
-0.00157363
0.00140327
-0.00064923
0.00148429
0.000242357
-0.00110138
-0.000625268
0.00150006
0.000227951
-0.00121147
-0.000516544
-0.00144003
0.000171261
-0.000108862
0.00137763
0.000216003
-0.000290461
7.44587e-05
-2.63497e-05
-0.00119642
0.000285631
0.000937143
-0.00027551
0.00084704
-0.00057153
0.000251248
-0.000301532
0.00102946
0.00116211
0.000420196
-0.000405288
-0.00117701
1.77029e-05
0.000563455
0.00090313
0.0012414
0.00151639
-0.00194186
-0.000815927
-0.00109122
0.00108144
9.78722e-06
3.41952e-05
0.00112791
0.00149194
-0.00102645
0.000795226
-0.00126071
-0.00146095
0.00152969
-8.42986e-05
1.55588e-05
-4.9909e-05
0.000604446
-0.000554537
-1.46001e-05
0.000898709
-3.47017e-05
-0.000849407
-0.000827262
0.000824117
3.14424e-06
-0.000123933
-0.00131745
0.00110483
0.000336559
-0.00115982
0.00212098
-0.000718803
0.000577975
0.000169915
-0.00074789
0.000198056
0.00103985
-0.00147426
0.000236356
-0.000252273
-0.00111668
8.16724e-06
0.00136079
0.00114046
5.08424e-06
-0.00114555
0.00167383
-0.00110247
0.000734929
-0.00130629
-0.000392233
-0.000504919
0.000676483
0.000220669
-3.41685e-05
3.33224e-05
0.00167468
-0.0014472
0.00142462
1.32334e-05
9.3485e-06
0.000796995
-0.000798021
1.02582e-06
0.000330624
-0.00214983
-0.000329151
0.00214836
0.000997932
-0.000282624
-0.000251216
-0.000464092
-0.00111256
0.00138816
-0.000195405
-8.01936e-05
1.65639e-05
0.00102434
-0.00104091
-0.0022476
0.000142302
0.000187792
0.00191751
0.00107968
-0.000522355
0.000520005
-0.00107733
0.000398916
0.000616719
1.43432e-05
0.00140048
-0.00141482
-0.00105837
0.0010619
-3.53132e-06
-0.00122007
0.00125427
-0.000329719
-0.00175406
-0.000430747
0.00251453
-0.00228279
0.00318357
-0.000667399
-0.000233384
-0.00111415
0.000983025
0.00117049
-0.00103936
-0.00180372
0.000708464
-5.92505e-05
0.0011545
-0.000718845
0.000264203
0.000645927
-0.000191285
-0.00149364
0.00142215
7.14866e-05
-0.00323414
0.000189563
0.00163169
0.0014129
-0.00031405
0.00130129
-0.0012495
0.000262263
0.00156926
0.00151345
-0.00189093
-0.00113794
0.00151541
-0.00190101
0.000921683
0.000514709
0.000464618
0.0013926
-0.00153986
-0.000857906
0.00100516
-0.00147634
9.85633e-05
0.000349153
0.00102862
-0.00112267
-0.000798871
0.000445201
0.00107496
-7.64957e-05
-9.37202e-05
-0.000904746
0.00100521
-0.000590406
0.000372935
-0.000787743
0.00141974
5.18824e-05
0.000602368
-0.00207399
-0.000520649
0.000192169
0.00032848
-0.00211825
0.00134974
0.00158324
-0.000814729
0.000803011
-0.000759549
-4.34618e-05
-0.000625455
0.000196751
-0.00168955
0.000106497
-0.000881222
-0.000283649
-0.000270515
5.60126e-05
-0.000860665
0.00107517
0.00174248
-0.00158309
-0.000333494
0.000174104
-0.00170485
0.0015367
-0.00105192
0.00119818
-0.000810919
-0.00100333
0.000616072
-0.000650732
0.00269958
-0.00135003
-0.000698821
-0.000152336
8.23662e-05
0.00152942
-0.00145945
3.6404e-05
0.00216824
0.000227602
-0.00243225
0.000866403
-0.00157332
-0.00013221
0.000839124
0.00123807
-0.000233155
-0.00089842
0.000128784
0.000991269
-0.00135853
0.000238472
0.00054338
0.00204821
0.00012955
-0.00272114
0.000961847
-0.00113393
0.000180256
-8.17652e-06
0.000655156
0.000735468
-0.00276354
0.00137292
0.000933334
-0.00010368
6.16149e-05
-0.000891269
0.00199178
-0.00149349
-0.00296906
0.00247077
0.00169111
-0.00190429
0.000844698
-0.000631512
2.06286e-05
-0.00159275
0.00146395
0.000108177
0.00164639
-0.00115281
-0.0003631
-0.000130485
0.000889512
2.0868e-05
-0.00091038
-0.00170029
0.000294083
0.00118704
0.000219164
0.001115
0.000743627
0.000571252
-0.00242988
0.000918881
-0.00165732
0.00114788
0.00249095
-0.00144436
-0.00219448
0.0009173
1.58152e-06
-0.000367421
0.00119336
0.00119918
-0.00202512
0.00105161
0.000300448
-0.000149027
-0.00120303
8.1227e-05
0.000922343
-0.00100357
0.00141389
-0.000116736
5.53189e-05
-0.00135248
-0.000577879
-1.89511e-06
0.000579774
-0.00132411
0.0010215
-0.000798766
-0.000237711
0.00179641
-0.00188908
0.000330383
0.00043185
-0.000362732
-0.00145274
0.00138362
0.000287593
-0.000293294
-0.000681616
0.000687317
-0.000368703
-0.000989316
0.00123682
0.000121202
0.000447899
-0.00121937
0.00126882
-0.000497352
0.000927783
0.0002836
-9.27809e-06
-0.00054947
-9.87633e-05
0.000657511
0.000179576
0.000352953
-0.00203724
0.00150471
-0.00131194
0.000166439
0.00134822
-0.000202721
0.000973614
0.000158179
9.9039e-05
-0.00123083
0.00020501
0.000768605
0.00143164
0.000288437
-0.0015619
-0.00076663
-0.000873113
0.00130308
0.000336666
0.00135803
0.000183634
0.000199571
-0.00174124
-0.001468
0.00125526
-0.0004118
0.00062454
0.00134626
0.000290392
-0.00104609
0.00117848
-0.00108771
0.000955316
0.00146318
-0.000211193
-0.000286441
-0.000965546
4.01873e-05
-0.0016066
0.001742
-0.000175586
-0.00152933
-3.75957e-05
-0.000422822
0.00198974
0.000938753
0.000505945
-0.00148563
4.09273e-05
-0.00101894
9.45187e-05
0.00089484
2.95843e-05
0.000184212
5.68985e-05
-0.00188305
0.00164194
-0.000930551
-6.17727e-06
0.000936729
0.00019316
0.0013321
-0.00134105
-0.00106142
0.00142123
-0.000773864
0.000414046
-0.00121261
-0.00077797
0.00157844
0.000412143
0.00127432
0.000244326
-0.000722685
-0.00079596
-0.00201021
-2.8133e-05
-0.000282954
0.0023213
-0.00129462
-0.000777599
0.000565875
0.00150635
0.00177653
-0.00174077
-0.000112075
7.63149e-05
-0.00026376
-0.000789093
-0.000701208
0.00146083
0.00108165
0.000271135
-0.00281361
0.00211354
0.000267156
-0.00234429
0.000214721
0.00110498
-0.00131971
3.51889e-05
-0.00108863
0.00105344
-0.00103479
-0.000214748
0.000197584
0.00105195
9.21864e-05
0.00134678
-0.00128485
-0.000154109
-0.00221981
-0.000254856
0.000576583
0.00189809
0.00122521
-0.00129639
0.00110861
-0.00103743
0.000159163
0.000143143
0.000922906
-0.000874119
0.000847543
2.65757e-05
-0.000919832
3.02551e-05
0.00133317
-0.000443596
0.000264771
-0.00067218
-0.000493032
0.000900441
0.000674457
-0.000702072
2.76142e-05
-0.000961831
0.000910024
-0.000218708
-5.08478e-05
-0.00101116
-1.05843e-05
0.0010726
0.00171107
-0.000192178
-0.00108591
-0.000432986
-0.000408187
-0.00186734
0.00250693
-0.000231411
-0.00162342
0.000562164
-0.00135661
0.00151467
-0.00015806
-0.000731687
0.000659198
-0.00102721
0.0010997
0.000547791
-0.000670678
-0.00049763
0.000620518
-0.000920519
-0.00126231
0.0010016
0.00118123
5.0325e-05
0.00141134
-0.000139969
-0.0013217
-0.000358589
0.0017098
-0.000286494
-0.00106472
-0.00159265
0.00134675
-9.64305e-05
0.000342335
-0.00117007
0.000933254
-0.00100754
0.00124436
0.00121552
6.60981e-06
-0.00122213
-0.00180188
0.000389466
0.00176157
-0.00034503
0.00142177
-0.00107674
8.78236e-05
0.00143509
-0.00152291
0.000197939
0.00123674
-0.00189563
0.000460949
-0.000951366
-0.000989124
0.00106162
0.000878871
0.000693956
-0.000200247
0.000511505
-0.00142017
0.00148325
-3.80132e-05
-2.50644e-05
-0.00141771
1.41705e-05
-1.66333e-05
0.000752336
-0.000451163
0.0018497
-0.00215088
-6.86219e-05
0.00180464
-0.00173602
-0.00118324
0.000849672
-6.59321e-06
0.000340157
-0.000902627
-0.00109785
0.00200047
-0.000674701
-0.000253286
0.000927987
0.00100463
1.26058e-05
-0.00101724
-0.00159619
-2.57431e-05
0.00131309
0.000308847
-0.000461714
0.000638635
0.000839061
-0.00101598
-0.00176766
0.000484132
0.000821812
0.00172075
-0.00271127
0.000575301
0.000415226
-0.0014493
0.00146271
-3.97695e-05
2.63643e-05
0.00193043
-0.00192962
-1.56766e-05
1.4868e-05
-0.0010905
1.5398e-05
0.00026894
0.000806158
7.65492e-05
-0.00113686
0.00106031
-0.00123426
-0.00175227
0.00118841
0.00179812
0.000148974
0.00161166
-0.000746229
-0.00101441
2.03113e-05
-0.00155706
-2.33014e-05
0.00156005
0.000256085
0.00139847
0.000329896
-0.00198446
0.000203733
0.00139802
-0.0014729
-0.000128855
-7.4779e-05
-0.00109353
0.00137205
-0.000894754
-0.000757656
0.000384937
0.00126747
0.000841591
4.83364e-05
-0.000889928
0.00135926
0.00130384
-0.00157487
-0.00108824
1.71713e-05
-0.00108208
0.00106491
0.000302763
0.000132151
5.9236e-05
-0.00049415
-0.00142044
-2.27989e-05
0.000469938
0.000973299
-0.00104631
-0.000536665
0.00158297
0.00084561
-0.00111027
0.000393667
-0.000129009
-0.00146897
0.000185143
0.00134017
-5.63472e-05
-0.00147999
0.00179845
-0.0014129
0.00109443
-5.93688e-06
-0.000888817
-0.00114272
0.00111068
3.20378e-05
-0.00147875
-0.000770759
0.000146075
0.00210343
-0.000136588
0.00130041
-0.00116382
0.00103751
-0.000815798
-0.000221716
0.000925051
-0.000930988
-0.00111198
-1.75185e-07
0.00111216
0.000508603
0.00138602
-1.33942e-05
-0.00188123
-0.00113549
0.000172977
0.000962515
-0.0012633
-0.000444589
0.00131581
0.000392082
-0.00190957
0.000262469
0.00186422
-0.000217112
0.000944204
-0.000916802
-2.74021e-05
-0.000726224
-0.00101909
0.00390906
-0.00216374
-0.00148232
0.000543016
-0.000373406
0.00131271
-0.000750847
-0.000179473
-0.00117522
0.00210554
-4.26199e-06
2.68946e-06
0.00130692
-0.00130535
0.000708244
-0.00209691
0.00285863
-0.00146997
-0.00121627
0.00121201
0.00155709
0.000401069
-0.00190737
-5.07931e-05
0.00108532
0.000148441
-0.00136323
0.000129474
0.000950327
0.000445362
-0.00159415
0.000198463
0.000903641
0.000181676
-0.000541824
0.0016914
-8.92376e-05
-0.00106034
0.00032668
-0.00148647
0.00190081
-0.000741023
-0.00167248
0.000121763
-4.59543e-07
0.00155118
0.000971366
0.0037449
-0.000593804
-0.00412246
0.000450124
0.000343069
-0.000596686
-0.000196508
0.000310167
0.00112358
-0.000508285
-0.000925464
-0.000905601
0.000884286
-0.000520509
-5.07815e-06
0.0016915
4.97363e-06
0.0013353
-0.00135023
0.000213991
-0.000199061
0.000316152
-0.000105574
0.000806843
-0.00101742
-0.00130101
0.00126667
0.000182783
0.000392567
-0.000768657
-0.000879948
0.00125604
0.000542004
0.00150816
-0.00150678
0.00112912
-0.00147853
0.000199699
0.000149714
0.00111297
2.05739e-07
-0.00111317
0.00242812
-0.00249729
0.00202064
-0.00195147
0.000370266
-0.000955467
-0.000476582
0.00106178
0.000384902
0.000204411
-0.0016341
0.000974
-0.000580745
0.00124084
-0.00200267
0.000452149
0.00168512
-0.000134597
-0.00156255
-0.000862006
0.0031328
-0.000159022
0.00191776
-0.000634048
-0.00112469
0.000924594
-0.000466555
0.00171247
-0.00217051
0.000184431
-0.000870262
0.000741008
-5.51771e-05
-0.000382691
-0.00125564
0.00144249
0.000195844
0.0010811
-0.000611816
-0.000439672
-2.96148e-05
0.00054807
0.000229713
0.000290555
-0.00106834
-0.00077621
0.000995615
-0.000219406
0.000889415
-0.000828526
0.000123541
3.04967e-05
-0.0013578
0.00132731
0.00104324
-0.00121554
-0.000210395
0.000264633
0.00118148
-0.000265093
-0.00118102
-3.99941e-06
-0.000963847
0.000967846
0.000524868
0.00161286
-0.000883497
-0.00125423
-8.56716e-05
-0.000627772
-0.00042347
0.00113691
-0.000294724
-0.00162191
1.08266e-05
0.00190581
-0.00102994
0.000416981
0.00125933
-0.000646368
7.62268e-05
0.000967014
-0.000857678
0.000933905
0.000926253
0.000247617
9.9653e-05
-0.00127352
-0.00048927
0.00218877
-0.000142404
-8.90972e-05
-0.000621727
0.000566742
0.000144082
-0.000206144
0.0024352
-0.000115513
0.00197588
-0.00102621
-0.000424803
0.00225369
-0.000275439
-0.00120931
0.00180753
-0.000322782
-0.00228072
0.00191549
0.000937087
-0.00057185
5.7721e-05
0.00104783
0.000870326
-0.00100408
-0.00131896
0.00139249
-0.000716492
-0.000988294
0.00190979
-0.000205007
0.000740358
0.00084327
-0.00158363
2.62054e-05
0.000168851
0.00222426
-0.00241932
-0.00117464
0.00099299
0.00144021
-0.00125856
0.00135766
-0.00214586
0.00172481
-0.000936604
0.000449864
-2.286e-05
-0.000427004
-0.000923924
-0.000517182
0.000171924
0.00126918
-0.000473725
-0.000679161
8.94613e-05
0.00117077
-0.000969046
-0.000291182
0.0009844
-0.001025
4.05984e-05
0.000109472
-0.00130639
0.00137853
-0.000181606
0.00114615
-0.00282831
0.00139764
0.000284522
0.000655326
-0.000874169
0.000218844
0.000867575
-0.000110757
-0.000859786
0.000102968
-0.000174034
-0.00286966
0.00259049
0.000453199
-0.00113327
0.000194835
0.00132075
-0.000382318
-0.0011863
3.82108e-05
0.00114809
0.00118296
0.000200055
0.000785234
-0.000590194
-4.90265e-05
0.00152864
0.000102824
-0.0016815
0.00140464
-6.40113e-05
0.00116672
-0.00110271
-0.000816972
0.000505905
0.00135507
-0.00104401
-0.00018601
0.00155271
-4.38698e-05
-0.00132283
-0.000187234
0.00144232
-0.000975393
-0.000279694
-0.00100245
-2.22217e-05
0.00118133
-0.00015666
0.000832419
-0.0017401
0.000949972
-4.22936e-05
-0.000891562
0.000696969
-0.000716466
0.000911059
0.000863738
3.41361e-05
-0.000100879
0.000132406
-0.00125903
-0.000303374
0.00143
-0.000258132
-0.00138333
0.000618345
0.00102311
0.000493547
-2.11761e-05
0.00113424
0.000275169
-0.00138823
0.000581742
-0.0004101
0.00117228
-0.00134392
-0.00075142
0.00093093
0.00124242
-0.00142193
0.00203439
0.000510701
-0.00205154
1.3961e-07
-0.00121046
0.00121032
7.48963e-06
-0.00122641
0.00127536
-5.64403e-05
2.39032e-05
0.00131062
-0.00117888
-0.000155643
0.00039434
-0.00198937
-6.49568e-05
0.00165999
-0.00110096
0.00132102
-0.000220058
0.000202259
-9.24136e-05
0.0013259
-0.00143575
-0.00102586
0.000227835
-0.000709005
0.00107355
-0.00143077
0.00106623
-0.000327226
-8.10684e-05
0.000408294
0.00324053
-0.00158162
-0.00070346
-0.000955453
0.00130479
0.00334327
-0.00140753
0.00216209
-0.00199884
0.000188993
0.00110084
-0.000852277
0.00121915
-0.000386502
1.96302e-05
-0.000251003
4.70271e-05
0.00178722
-0.00125103
0.000470937
0.00096069
-0.000180594
-0.00105227
0.00174107
0.000130784
0.00122123
-0.00139806
0.000708613
-0.000531782
0.000181381
0.0024566
-0.00243572
0.000735105
6.38656e-07
-0.000735744
-3.80478e-07
-0.000956636
0.000957017
0.00170507
0.00013789
-0.000381595
-0.00146137
0.00221027
-0.00071215
-0.000935318
-0.0005628
-0.000139702
-0.00280302
0.000845816
-8.61037e-06
-0.000679292
0.000687902
0.00147048
-0.00134928
-0.00133355
0.00121234
0.00106481
0.000444016
-0.00125274
0.000864078
-0.000532502
-0.00131812
0.000986548
-0.00104281
-9.41304e-06
-0.00080349
0.00185571
-0.00159305
-6.82319e-06
0.00159987
0.000993014
9.37465e-05
-0.00105662
-3.01369e-05
-0.00127232
-2.08214e-05
0.00129314
6.4294e-05
0.00107032
-0.00113462
-0.000782628
0.00173422
-0.000125973
-0.000825624
-0.00187847
0.00226239
0.00142707
-0.00181099
0.000901205
0.000769375
-0.000208424
0.00133807
-0.000865024
-0.000264622
-0.000229694
-7.78833e-05
-0.00115527
0.00146284
0.00130449
-0.00114735
0.000912634
-0.00106978
-0.00123774
0.00128822
-5.04864e-05
-0.00151432
0.00025332
0.00130058
-3.95795e-05
-0.00264269
0.000528656
0.00201046
0.000103572
0.000260693
-0.000334682
-0.00130884
0.00138283
0.00190152
0.000181185
-0.00109222
-0.000990484
0.00103434
-0.000786466
-0.00104146
0.000793589
0.00119116
1.19473e-05
-0.0012031
0.000109705
-0.00202603
0.0014826
0.000433725
0.00075276
0.000448908
-0.000300463
0.000273716
-0.00088192
0.00128587
-0.000677669
-0.000545331
0.000529511
-0.000121953
0.000137773
-0.00362618
0.00437318
0.00141029
-0.00215729
0.00181966
-1.18518e-05
-0.00181886
1.10569e-05
9.10978e-06
0.00146344
-0.00157279
0.000100248
-0.00219283
0.00192113
-0.000510928
0.000974498
0.00121969
-0.00110396
-0.00109023
-0.000967717
-6.94982e-05
-0.000105246
0.00114246
0.00101053
5.27169e-05
-0.00106325
0.00128827
-7.10587e-05
-0.00121721
-0.00227761
0.0021463
8.44983e-05
4.68126e-05
7.06695e-05
0.00146803
-7.19952e-05
-0.0014667
0.000909411
0.000458528
-0.00297752
0.00160958
-0.000630636
0.000630642
-5.8839e-09
0.000924177
2.11709e-06
-0.000926294
-4.73702e-07
-0.000556875
0.000557349
-0.00053072
0.00108029
0.000725869
-0.00127544
3.53855e-06
-0.00114344
0.000897095
0.000242811
-0.00128321
-0.000526049
-0.000468351
3.25612e-06
-0.000888553
-0.000132239
0.00101753
-0.000687378
1.2853e-05
0.000674525
0.00023501
0.000729255
-0.000237593
-0.000726672
0.000502839
-0.000895073
0.000392234
-0.00024304
-0.000833083
-0.000310435
0.00138656
0.000709498
0.000940603
0.000138601
-0.0017887
0.00185642
-0.000675191
-0.000601585
-0.000579649
-6.80702e-05
-0.00153316
0.0017869
-0.000185671
0.000735753
0.00038755
0.000212514
-0.00133582
0.0023203
0.00103339
-0.00217624
-0.00117745
-2.84178e-06
0.000587579
-0.000584738
-0.00137318
4.09335e-05
0.000317669
0.00101457
-0.00134582
-0.000149412
0.0015311
-3.58625e-05
0.000374556
-0.00046891
0.00191401
-0.000476426
0.000629242
-0.000152816
0.00093743
2.69447e-05
-0.000964374
0.000194458
0.000122394
-0.00123675
0.000919899
0.00131794
-0.000129638
-0.00122634
3.80347e-05
-0.00111337
-7.80809e-07
0.000237745
0.000322011
-0.00146119
0.00090143
-0.00135678
9.78291e-05
0.00125895
-5.32456e-05
-0.000949204
-0.00012377
0.00208953
0.000147246
-0.00211301
0.0011165
-0.00118253
6.60313e-05
-0.00119418
0.0011814
1.27848e-05
0.000959586
-0.00108336
0.000262538
0.000876307
0.0010891
-0.00222794
-0.00117263
-0.000640141
0.00181277
-9.07387e-06
0.000836219
-0.000827145
-1.94874e-05
-0.000909681
0.000929168
0.00111462
-0.00110768
-6.94071e-06
-0.00123528
4.73953e-05
0.00124194
-5.40583e-05
0.000302179
-0.00139087
0.00106234
0.000693737
0.000583316
-0.00233837
0.00106131
0.00072123
4.94163e-06
-0.000726172
4.73482e-05
0.00136518
-0.00141253
0.000672029
2.42849e-06
-0.00153956
0.00137049
0.0012989
-0.00112983
-0.000969623
0.000123023
0.00124331
-0.000396705
0.00169647
-0.00244433
0.000590929
0.000156932
-0.00218984
0.000487579
-0.00104589
0.00115604
-0.000110155
2.54243e-05
-0.00115981
0.00113438
-0.00100317
-1.98618e-05
0.00102303
-0.00117457
6.31496e-06
0.00116826
0.00112362
-0.00123202
0.000108408
1.45734e-05
0.00173409
-0.00174866
-0.000256877
-0.00023423
0.00124387
0.00123783
-0.0012928
-0.00088398
0.000938947
-0.000698717
0.000127372
0.00135654
-0.00078519
0.000666982
-0.00156863
-0.000101527
-7.29112e-05
0.00153348
-0.00146057
0.000454906
0.000424167
-0.000580046
-0.000299026
-0.000706416
0.00115821
-0.00139179
0.000939988
-0.00112435
-0.000427243
0.00155159
0.00227587
-0.00140313
-0.000872736
-0.000432103
0.00163506
0.00107133
-0.00227429
-0.00118642
0.00143893
-0.00143576
0.00118325
0.000508893
-0.000382329
-0.000584559
0.000457995
2.12512e-05
-1.3632e-05
-0.00127994
0.00127232
-0.000120679
-0.00179886
0.00191954
0.000404991
5.3316e-05
-0.00152678
0.00106847
-0.00150305
0.0011664
0.000336647
-0.000702811
-0.000351916
0.00101383
4.08984e-05
-0.000991039
0.000985986
5.05316e-06
0.000963453
-0.00081484
0.00120904
-1.03663e-05
-0.00157774
0.00158066
7.45484e-06
0.00304722
-0.000787984
-0.00152944
-0.000729788
-0.000471394
0.00166307
7.9214e-06
-0.00119959
-0.000550154
0.00081908
0.000457391
-0.000726317
-0.00132476
0.000778043
0.00137622
-0.000829506
0.000727331
-0.000868483
-0.000339349
0.00150739
3.97616e-05
-0.0012078
0.00090634
-0.000999643
0.000103556
-0.00213753
2.41804e-05
-2.11253e-05
0.00213448
-0.000297287
-8.3793e-05
-0.000799625
0.0011807
-0.00108442
0.00139488
-0.00110862
0.000798159
-0.00247905
-0.000334647
0.00260755
-0.00160745
2.26736e-05
0.00160913
-2.43555e-05
0.00100648
0.000162803
-0.0006788
-0.000490483
-0.000317219
-0.00123365
0.000655367
0.000895506
0.00106764
-0.000418623
-0.0014072
0.00075818
-0.00138744
-0.000357712
-3.08898e-05
0.00177604
0.00111012
-0.000136198
-0.00101856
4.4634e-05
0.000940108
-0.000944051
3.94211e-06
-0.000745518
0.00242682
-0.00201603
0.000334729
0.000156327
0.00143143
-0.00230351
0.000715753
-0.000945304
-0.000307811
0.000993451
0.000259663
0.000330116
-0.000316909
-0.00095851
0.000822374
3.31631e-05
0.00016105
-0.00101659
-8.80494e-05
0.000615713
-0.0026652
-0.00138856
2.84946e-05
0.00178202
-0.000421957
-0.000995177
0.00116128
-0.000166103
0.000489788
-0.000459338
-0.000649093
0.000618643
-0.000700636
-0.0012868
0.000808961
0.00117847
-0.000577184
0.00179592
-0.000661464
-0.000557273
-0.00148028
1.02892e-05
-0.00129566
0.00161549
-3.91637e-05
3.45585e-05
-0.00128145
0.00128606
0.00123732
0.00132707
-0.00141034
-0.00115405
0.000982112
-0.001013
3.08925e-05
0.00125367
-7.85607e-06
-0.00124581
0.00106974
-0.00124164
0.000351282
-0.000179378
-0.000312096
-0.000915178
0.00222073
-0.00164465
0.00141175
-0.000212798
0.000445704
0.000547218
-0.000744658
0.00176754
-0.0015701
-0.00157609
-0.00114997
0.00187386
0.000852204
-8.45273e-05
-0.00173661
0.000176481
0.000274841
-0.00144883
-1.18755e-05
0.00118586
0.001335
0.00035159
0.00180879
-0.00158398
-0.000594433
0.000369621
-0.00133912
0.00132917
0.00108382
-0.00107386
0.00101466
0.00050333
-0.00115191
-0.00036608
0.000508164
-0.0011171
0.000928182
-0.000319244
0.00139177
-0.00114099
-0.00181294
0.00156216
0.00145935
-0.00162443
8.05531e-05
-0.000901078
0.000905033
-3.95419e-06
0.000112622
-0.0001021
0.00151072
-0.00180489
0.00170269
-0.00140851
0.00111974
-0.00100711
0.0011374
-0.0012299
-3.76024e-05
0.00013011
-2.44462e-05
-0.000519487
0.000543933
-0.000123574
-0.00103693
0.00124388
-8.33725e-05
0.00191014
-0.00171908
0.000135739
-0.000326799
0.000204316
-0.0022669
0.000184112
0.00169606
-0.001736
-0.000187503
0.000227443
0.000371552
0.000279054
0.000461247
-0.00111185
-0.000100995
0.000948678
0.000923879
-0.00177156
-8.04588e-05
-0.00117135
-0.000325273
0.00157708
-0.000570277
0.00170889
-0.000464644
-0.000673969
-0.00106834
0.000453083
0.00168499
0.00104577
-0.0021186
0.00023225
0.000840587
-0.000305331
7.13939e-05
0.00193
0.000313036
0.00142701
-0.000488564
-0.00125148
-5.20184e-05
5.41074e-05
-0.00123904
0.00123695
0.00185861
0.00010445
-1.30837e-05
-0.00194998
0.00103639
0.000454097
-0.000412049
-0.00107844
-0.00112278
-0.000479895
0.00053434
9.19227e-05
0.000648199
-0.000657838
-8.22837e-05
0.000189501
1.63504e-05
-0.00144749
0.00100858
-0.000527313
-0.000136939
-0.000344333
0.000148166
0.000701587
-9.81234e-05
-0.00075163
-0.00112206
0.000962896
0.00120493
0.000743298
-0.00323127
0.000629975
0.00185799
0.000176841
-2.97978e-05
3.30017e-05
0.00127207
-0.00127528
0.00220461
-0.000708029
-0.000732176
-0.000764409
-0.00107606
1.36519e-05
0.00147789
-0.000415483
-0.000136293
-0.00103831
0.0012523
-7.76905e-05
0.001043
-0.00142211
-0.000694696
0.0010738
-0.00098674
0.000958568
2.81712e-05
-2.95012e-05
0.000952353
-0.000922852
-0.000466134
-0.00109054
-0.000402455
0.00195913
-0.000810434
0.000906514
-9.60799e-05
-0.000152963
-0.00132768
-0.0003346
0.00181524
-0.0023432
0.000863874
-0.00127881
0.00275814
-0.00160394
3.71659e-05
0.00156677
0.000757879
0.000839144
-0.000810991
-0.000786031
0.000976153
-0.000559229
-0.000184669
-0.000232254
0.00130382
2.84067e-05
-0.00133222
0.00124571
-0.00372525
0.000136343
0.000845566
-3.13728e-05
-0.000814193
-0.00144442
-0.000572967
0.0019408
7.65882e-05
-0.000876895
0.00452866
-0.0027726
-0.000879165
-0.00263805
0.00317648
-0.000465201
-7.32287e-05
0.00157632
-0.000908414
0.00219073
-0.00077184
-0.00168097
0.0024829
-3.00871e-05
-4.82735e-06
-0.000121823
-0.00068035
0.000807
0.00148783
0.00190642
-0.00216864
-0.00122561
-0.00152921
0.00180808
0.000495802
-0.000774679
0.00169576
-0.000310945
-0.000663185
-0.00072163
0.000144713
-0.00108547
-0.000188335
0.00112909
-0.00322222
9.97239e-05
0.0016492
0.0014733
-0.000591311
0.00225046
-0.00087247
-0.000786677
0.000382058
-0.000937496
0.00178659
-0.00123115
-0.000193155
-0.000553012
0.00104584
-0.000299674
-0.000918777
0.00097762
-6.2445e-05
3.60231e-06
0.00160059
-0.00180672
-8.66778e-05
0.000292806
-4.87367e-05
-0.0015958
0.00160843
3.61119e-05
0.000130412
-0.000116284
-0.00152643
0.0015123
0.00220871
-0.000362558
9.40502e-05
-0.0019402
-0.00145324
-0.000305387
0.000372922
0.00138571
0.000491613
-0.000491626
1.26775e-08
0.00108931
-0.000741138
0.000726792
0.000226323
0.00208679
-0.00012477
-0.00218835
-0.000333314
0.000223111
0.000278712
-0.000168509
-0.00162885
-0.00202538
0.002928
-0.00115807
0.00132611
0.00126298
-0.00143103
-6.50336e-05
0.00129213
-0.00162993
0.000402841
-0.00123957
-0.00129808
-8.23585e-05
-0.000334378
0.00171482
-7.02305e-06
-0.000660541
0.000667564
-7.60218e-06
-0.00095222
0.00221979
-0.00125996
0.000650561
0.000916156
0.00163398
-0.000818316
7.66145e-05
-0.000892279
0.00071787
-0.00019944
-0.00119857
0.00068014
0.000901563
4.28986e-05
-0.00137382
0.000429362
-0.000648998
0.000537518
0.00203443
-0.00192295
0.00174325
0.00124582
0.000163172
-0.00315224
-0.00155846
-9.83714e-05
0.000315745
0.00134108
-0.00130656
0.00139166
-8.51059e-05
-9.11245e-05
0.000865383
-0.000129784
-0.000644475
-0.00026796
0.000551179
-0.000283219
0.00109026
0.00154934
-0.000695669
-0.00194393
0.000933201
-0.000934183
9.82454e-07
-0.00264369
0.000617082
0.00147719
0.00054941
0.000107171
-4.72299e-05
0.00128426
-0.0013442
0.00082225
3.39905e-06
-0.000825649
0.0016888
-0.00187529
-0.00120428
0.00139077
-0.00148674
-0.00287191
0.00171496
-0.000290435
0.000187577
0.00119571
-0.00109285
-0.000512312
0.00155843
-0.000164336
-0.000881778
0.000320286
-0.000846601
0.00124419
0.000973898
4.67263e-05
-0.00102062
0.00289245
-0.000699375
0.0001719
-0.00236497
0.00109291
0.000312806
0.000699758
-0.00167179
0.000803469
0.000168562
-0.00175999
4.98128e-05
0.00131965
0.000390526
-0.000328053
-0.000724087
0.000767019
0.000285121
0.00103123
-0.00132811
0.00029688
-0.000365137
-0.000709918
0.00107506
0.000910565
-0.000589646
-0.00103368
0.000712763
-0.000390016
-0.000217005
0.00156008
-0.000953057
-0.000766328
-0.00122495
0.000947752
0.00104353
-0.00150519
0.0013744
-2.53351e-05
0.000156124
-8.75052e-06
-0.000928746
-0.000225009
-0.000820705
0.00103525
1.04672e-05
0.00157
-0.00147643
0.000428708
-0.000522275
0.00238291
-0.00237115
0.00108114
-0.000415492
0.000456084
-4.05922e-05
-0.000870993
0.00085969
1.13027e-05
-7.86947e-05
0.00109046
0.000372538
-0.00138431
-0.000691256
-0.00108919
-0.000429698
0.00221014
-0.000645515
-0.000496062
0.00224166
-0.00110008
0.00110986
0.000297605
-0.00148616
-0.000214388
0.00165447
-0.000752237
-0.000687843
0.000235181
-0.00109262
-0.000478891
0.00133633
-0.000304488
0.000187167
-0.00152328
0.00164061
0.00151747
-0.00109887
-0.000839938
-0.0006266
-0.000186847
0.00165338
0.000452944
-0.00022929
-0.000226976
3.32274e-06
-0.00177937
0.00207583
-0.000211451
-8.50034e-05
0.00058118
0.000641813
-0.00061088
-0.000612113
-0.000244576
0.0012686
2.66677e-05
-0.00105069
0.00141763
6.0458e-05
-0.00126686
-0.000211235
-0.000174418
-0.00174068
-0.000431478
0.00234657
-0.000150269
0.00125956
-0.00110929
0.00152479
0.00129505
-0.00173594
-0.0010839
0.00101109
7.56829e-07
-0.00101184
0.000111314
-0.00133188
-0.000333241
0.00155381
0.00238337
-0.000340058
-0.00112024
-0.000923072
3.39326e-05
0.00239627
-4.68297e-05
0.00117146
-0.00111948
-5.19739e-05
-0.000421742
-0.000821599
0.00124334
0.00217767
-0.000581106
-0.00136861
-0.00101852
-0.00099594
0.0016744
9.481e-05
0.000402994
-0.00157213
0.00107432
5.65062e-05
-0.00135669
0.000848714
0.000451471
-6.62974e-06
0.00118251
6.85617e-06
-0.00118273
-0.000230253
-3.16456e-05
-0.00111783
-0.000294174
0.001412
-1.89251e-05
-0.00097022
0.000989145
0.00207595
0.000157802
-0.000133184
-0.00210057
0.000869586
-0.00161069
0.000388205
0.0003529
0.00054852
1.34145e-06
-0.000549861
-0.00158317
0.000258327
-6.39423e-05
0.00138879
0.000566896
4.19125e-05
0.00123644
-0.00184525
-0.000582828
0.000629064
-0.00174775
0.00170151
0.000174464
-0.000229333
-0.00163484
0.00168971
0.00116261
-0.00108606
-0.00249664
0.000284748
0.000736541
-0.00075133
-0.000762022
0.00077681
-0.000672315
0.000675194
-2.87849e-06
-0.00159846
-0.000564543
0.00239532
-0.00034317
-0.0014876
-0.000931589
-0.000283281
0.00126392
-4.90544e-05
0.000268458
0.00151826
-0.000581402
-0.00120532
-0.00300912
-0.00252846
0.00019711
0.00242341
-9.20644e-05
0.000179998
0.000129713
-0.001043
0.00073329
0.00166676
-0.00153987
-0.00171994
0.0012151
0.000348057
-0.00156316
0.00173148
-0.000320205
-0.00123891
-0.00017236
-0.00103541
-5.73676e-05
-0.00069911
0.00179189
0.00170075
-0.00143859
-0.000506302
0.000244147
7.54024e-05
0.000527199
-0.00162525
0.00102265
5.35297e-06
0.000884461
0.000135453
-0.00102527
-0.000824974
0.00105042
0.000296722
-0.00052217
1.23305e-05
0.0014533
-1.14884e-05
-0.00145415
-0.00109796
0.00111029
-0.00102338
-2.28777e-06
0.00102566
-0.00167025
-0.000154168
0.000417778
0.00140664
0.00117466
-0.00114862
0.000687407
-0.000713444
0.000289875
0.00102036
-0.00110172
-0.000208513
-0.00141381
0.00206931
-0.000238197
-0.000417301
0.000823435
-0.000786845
-3.659e-05
1.60492e-05
0.000652576
0.00171429
-0.00138146
0.00117765
0.000507079
-0.000303268
-0.000340573
0.000758879
-0.000418306
-3.5447e-05
0.00118656
-0.00115111
-0.00185959
0.000705289
0.000361785
0.000792512
-0.00333999
0.00243422
0.000921817
0.00247912
-0.000296434
-0.000424097
-0.00175859
0.000991675
0.000121635
0.000634621
-2.94359e-05
-0.000665032
5.98474e-05
0.000686735
-0.000538569
2.6803e-05
-0.00159544
0.00156864
-0.00275521
0.00197
-0.000875204
0.00211122
-0.00142883
0.000192812
0.00144122
-0.00194933
0.000602927
0.00110791
-0.00202366
0.00039013
0.000525627
-0.00102915
0.00123613
-0.000206979
0.00214739
0.000449583
-5.28895e-06
-0.00259169
-0.00103164
0.00104046
-8.81721e-06
0.00280669
-0.00251563
0.000324657
0.00166339
-5.42821e-05
-0.00160911
0.00119367
-0.00121683
2.31611e-05
-0.00119335
0.000134075
0.00105928
-0.000459951
-0.00112919
0.000395788
-0.00244195
0.00160147
0.000439524