/*--------------------------------*- C++ -*----------------------------------*\
  =========                 |
  \\      /  F ield         | OpenFOAM: The Open Source CFD Toolbox
   \\    /   O peration     | Website:  https://openfoam.org
    \\  /    A nd           | Version:  10
     \\/     M anipulation  |
\*---------------------------------------------------------------------------*/
FoamFile
{
    format      ascii;
    class       surfaceScalarField;
    location    "16";
    object      phi;
}
// * * * * * * * * * * * * * * * * * * * * * * * * * * * * * * * * * * * * * //

dimensions      [0 3 -1 0 0 0 0];

internalField   nonuniform List<scalar> 
214403
(
-0.00340321
0.00260963
0.000144322
0.000649254
-0.00168999
-0.00569289
0.000483198
0.00689968
-0.00518955
3.49764e-05
-7.17331e-05
0.00522631
0.00447648
-0.0030102
-0.00750351
0.00603723
0.0062225
-0.00786566
0.00187551
-0.000232345
-0.00273768
0.00285114
-2.70527e-05
-8.64074e-05
-0.00043127
-0.000819718
-0.00466953
0.00592052
-0.00864217
0.00491387
-0.00129335
0.00502165
-0.011778
0.00831411
0.00839312
-0.00492922
0.00720453
0.000854708
-0.00805045
-8.78891e-06
0.00255146
-0.00505269
0.00103814
0.00146308
-0.00523871
0.00164868
0.00271299
0.000877043
0.000241844
-0.00579211
0.00697392
-0.00142366
-0.00505854
0.00509288
-3.43365e-05
0.000970958
0.00604743
-0.00774859
0.000730197
-0.00613203
0.00512821
0.00155332
-0.000549505
-0.00616745
0.00601968
0.000147772
0.00199486
-7.7146e-10
-0.000527803
-0.00146705
0.00793729
-0.00475111
-0.0105539
0.00736768
-3.84212e-05
-0.00157569
4.56035e-05
0.00156851
0.00324761
-0.00317078
-7.68365e-05
-0.00627435
-0.00217071
0.00215858
0.00628648
-0.00115679
0.00690351
-0.00556512
-0.000181602
0.00341538
0.000360115
0.00119301
-0.00496851
-0.00521809
-0.00249214
0.00674789
0.000962337
0.00464526
-0.00588305
3.64167e-05
0.00120138
0.001639
-0.00142997
0.00535594
-0.00556497
0.0038712
0.00506224
-0.0061
-0.00283344
0.00565898
-0.0035504
-0.000160409
-0.00194818
-0.00296734
0.00302443
-5.70844e-05
0.00124442
-0.00258295
0.00686968
-0.00553115
0.00718022
0.000339526
-0.00125347
-0.00626627
-0.00284943
-0.0029252
0.00299599
0.00277864
-0.000610349
-0.00344107
0.00304774
0.00100368
0.00225991
-0.00158013
-0.00478879
0.004109
-0.000870984
0.00434492
-0.00156974
-0.00190419
0.00813104
-0.000189938
-0.0079411
-0.00350571
0.00683779
-0.00333208
0.000633369
-0.00748688
0.004331
0.00252252
0.00124806
-0.000501342
0.00305101
-0.00379772
0.00290684
-3.08582e-05
-0.00287598
0.00519468
-0.000109992
0.000918168
-0.00600286
-0.00660398
0.000828244
0.0070238
0.000435541
0.000449958
0.00436762
-0.00525312
-0.00207241
-0.0136228
0.0131984
0.0024968
0.00287785
0.000522659
0.000648691
-0.0040492
0.00214413
0.00163087
-0.00524619
0.0014712
0.00678852
0.00406914
-0.00744228
0.000613857
0.00574541
-0.00116459
0.000918838
-0.00343814
-0.0020275
0.0045468
0.0015701
0.00241529
0.000717746
-0.00470314
0.000941275
-0.000706324
-0.00217966
0.00194471
0.00347701
-0.00629111
0.0043842
0.00602945
-0.00567726
-0.00194804
0.00159585
0.00537944
-0.000983596
-0.0043562
0.00590526
-0.000250483
-0.00129857
0.00448952
-0.00574038
6.44001e-05
0.00118646
-0.00421815
0.000278905
0.00674067
-0.00280143
-0.00778331
-0.00731084
0.00614088
0.00895327
-0.00415623
0.00418157
0.000822779
-0.000848117
0.000653739
-0.00531132
-0.00433074
-8.95087e-05
0.00225071
0.00216954
-0.006829
0.00292949
0.00442234
-0.000522835
0.00797724
-0.00642249
0.000408633
-0.00196338
0.000366239
0.000134244
-0.00528511
0.00478463
0.000262302
-0.00144756
0.00714907
-0.00596381
-0.0176418
0.0018298
0.00194355
0.0138684
-0.00162706
0.00479672
-0.00152311
-0.00164655
0.00236248
-0.00124071
-0.00504688
0.00392512
0.000564499
0.00352124
-0.00447687
0.000391132
-9.10945e-05
0.00431211
0.00149444
-0.00571545
-0.00086139
-0.000138286
-0.00177681
0.00277648
-0.00456356
0.00498657
-0.000188841
-0.000234168
0.000159447
-0.00462596
-0.00321671
0.00284929
0.000864428
-0.000497008
-0.00859007
-0.000536665
0.00418999
0.00493674
-0.00260371
-0.00110928
0.00221551
0.00149748
0.00381029
-0.0127787
0.00177115
0.00719726
-0.00199981
0.00402521
-0.00219832
0.000172925
0.00289063
-0.0022431
0.000287384
-0.000934914
6.86953e-05
-0.00538612
0.00531743
1.60436e-05
0.00438004
-0.00439609
0.00387255
-0.000757221
0.000513045
-0.00362838
-0.0022982
0.003278
0.00108734
-0.00206713
-0.00162811
0.00692633
-0.00166497
-0.00363325
0.00327015
-0.0055736
-0.00021379
0.00251724
0.00374304
0.00397012
-0.00771316
0.00552094
-0.00620581
0.0015904
-0.000905532
0.00053232
-0.00099584
0.00721262
-0.0067491
0.000208981
-0.00117088
0.00520374
-0.00424184
0.00123422
0.0108624
0.00312517
-0.0152218
-0.00948475
0.00834717
0.00540704
-0.00426945
0.00043687
0.00334656
-0.00449957
0.000716143
0.00444269
0.0049375
-0.00161934
-0.00776085
0.0082275
-0.00499891
-0.000164681
-0.0030639
0.000358903
-0.00105126
-0.00330038
0.00399274
-0.00334517
1.93823e-05
0.00332579
0.00500279
0.000173065
0.000345091
0.0062199
0.000528169
-0.00944301
0.00269493
-0.00498379
0.00109938
0.000886181
0.00299822
-0.00315182
0.000781449
0.000387263
0.00198311
0.000774501
0.000555429
-0.00657269
0.00524276
-0.00135427
-0.00787959
0.00502334
0.00421053
0.00314613
-0.00371994
-0.00242602
0.00299982
0.00510058
-5.61371e-05
-0.00510024
5.57934e-05
0.00391161
-0.00551731
-0.00192724
0.00353293
0.0101093
-0.00305812
-0.00157515
-0.00547604
0.00573193
-6.8947e-06
-0.00527644
-0.000448594
-0.00287988
0.00339063
0.00706502
-0.00757577
0.00617664
-0.00216274
-0.00594235
0.00192845
0.00113621
-0.00165766
0.00721679
-0.00669534
-0.00817662
0.00745647
0.00706107
-0.00634091
0.0003685
-0.00635323
0.00245209
0.00353264
0.00795085
-0.000421644
-0.000161593
-0.00736761
0.00558358
-0.00108981
0.00107971
-0.00557348
-0.00651901
-0.00592532
0.0070147
0.00542962
-0.00122725
0.00352413
0.00095481
-0.00325169
-0.00278854
0.000151922
0.00540582
-0.0027692
-0.000620399
0.00699753
-0.00651454
0.000137404
-0.0059929
0.00556515
0.00108374
-0.000655986
-0.000199318
-0.00349649
0.00834107
0.00111473
-0.00371656
-0.00271139
0.00531322
-0.00295835
3.87652e-05
0.00291958
0.000904844
0.00411573
-0.00380702
-0.00121355
0.00655385
-0.0037792
-0.0010052
-0.00176945
4.33604e-05
-0.00192114
0.00187778
-0.00369921
-0.000995261
0.00138612
0.00330835
0.000380062
0.00209676
-0.00470439
0.00222756
0.00797515
-0.000720025
0.00311748
-0.0103726
0.000577335
-0.000709851
-0.00970311
0.00983562
0.000630711
-0.00276935
-0.00368114
0.00581978
0.000233101
0.00505089
-0.000281204
2.04888e-05
-0.00296479
0.0029443
0.00617063
-0.00228424
-0.00277166
-0.0037426
0.00312898
-0.00308559
0.00678718
-0.00564928
-0.000683117
-0.000454787
0.000681918
-0.00322504
0.00140966
0.00113346
-0.0055516
-0.00168018
0.00112742
0.00610436
0.00461438
-0.00750511
0.00497792
-0.00208718
-0.000203719
0.00678398
-0.00679405
0.00021379
-2.22185e-05
0.00618425
-0.00613003
-3.20092e-05
-0.00864277
0.00689384
-0.00553251
0.00728144
0.00720625
-0.00696868
-0.000237572
-0.00658114
0.00881379
-0.00161375
-0.000618906
-0.00587873
0.00141302
-0.000441992
0.0049077
-0.0097037
0.000742363
0.00624879
0.00271254
0.00172651
-0.00235807
0.00131348
-0.00236563
0.00268991
0.00432829
-0.00465256
-0.00258689
-0.0011608
0.00147979
0.0022679
-0.00349181
0.00228568
-0.00441586
0.00562199
0.00104991
8.62093e-05
-0.00771726
-0.00343886
0.00343143
7.43331e-06
0.00378268
-0.00363684
-0.000145841
-0.00568335
-0.000372179
-0.00151201
0.00140367
-0.00748645
0.00871393
-0.00263116
0.00336638
0.00579474
-0.00736717
-0.00179394
0.0064293
-0.00698337
0.000186938
0.000367134
0.00343279
0.000894355
-0.00354966
-0.000777485
-0.00542061
-0.000299139
0.00712342
0.00310912
-0.000225271
-0.00378969
0.000905835
0.00349986
-0.00299642
0.00345145
-0.00395488
-0.00612069
0.00114966
0.00833741
-0.00206945
-0.0029034
0.00958257
-0.00460972
-0.00295561
-0.00325403
0.000789031
0.000879599
0.00233741
-0.00617262
-0.00420025
-0.000369995
0.00674673
-0.00217649
0.000650411
0.00103046
0.00373129
-0.00541216
-0.00199715
0.00488873
-0.00289157
0.00157808
-0.00756908
0.00273697
0.00450423
0.00314792
-0.00677255
-0.00639147
7.71494e-05
0.00796474
-0.00165042
0.00107548
0.000919762
0.0028785
-0.00487374
0.00430688
-0.00433854
3.16538e-05
0.00161748
-0.000610524
0.00542836
-0.00643531
0.00567269
-0.00179713
0.00272697
-0.00660253
0.0104107
-0.0033428
0.00776536
-0.0148332
0.00171361
0.00318475
-0.00132634
-0.00357202
-0.00469704
0.00193007
0.00246542
0.000301551
0.00338457
-0.00255106
-6.93615e-05
-0.000764148
-0.00219629
-0.0027874
0.00811423
-0.00313054
-0.00377518
0.00489877
0.00195627
-0.00307986
0.00568131
-0.000310284
-0.00187117
-0.00886904
0.00586417
-0.000486948
-0.00843953
0.00778518
0.00361541
-0.00296106
0.0053827
-0.00606823
-0.000875329
0.00156086
0.00305576
-0.00551401
-0.00289448
-0.00313596
-0.00287899
0.0016263
0.00438865
-0.00448399
0.00139283
0.00442299
-0.00133183
0.00517568
-0.00492563
-0.00338823
0.00313818
3.13757e-05
-4.47661e-05
-0.00484406
0.00485745
0.000119004
-0.00428147
-0.000161858
0.00432433
-0.00122424
-0.00724797
0.00113998
-0.00419737
0.00377623
-0.00071884
-0.00286904
-0.00121013
-0.000404817
-9.76777e-05
0.00719959
0.000102622
-0.0171568
0.0120669
0.00872188
-0.00363197
-0.00507158
0.000345476
0.000186306
0.0045398
-0.00100769
0.0160394
-0.0188724
0.0038407
0.000799077
0.0012323
-0.00276633
0.000734946
-0.0108482
0.00584042
0.000755031
0.0042527
-0.000126787
-0.00721653
-0.00102599
0.00836931
-0.00300838
0.0108635
-0.00751751
-0.000337628
0.00487529
0.00708878
-0.00654996
-0.00541411
-0.00581615
0.00554404
0.00688116
-0.00660905
0.00225001
0.00314471
-0.00391666
-0.00147806
0.002251
-0.00151914
-0.00360091
-0.011547
-0.000453245
0.00943449
0.00256575
0.0033807
0.00051801
-0.00196865
0.00348823
0.00466856
-0.00431095
-0.00384584
-0.00577481
0.00128726
0.00563119
-0.00114363
0.00068524
0.00181086
0.00631769
-0.00671634
0.00663401
0.000641308
-0.000558979
0.00412511
0.00323908
-0.00292266
-0.000115486
-0.000822254
0.0038604
-0.00443865
-0.000884864
0.00246577
-0.00855298
0.00363597
0.00245123
0.000258971
0.00460347
-0.00510801
0.000245576
-0.0017788
0.000343584
-0.00165357
0.00308878
0.00714507
-0.0051085
0.000214434
-0.00403625
-0.00315174
0.00424766
0.00294034
0.0152437
-0.0163116
0.00533018
-0.00426232
-0.002921
0.00362966
0.0014619
-0.00217056
-0.00669961
0.00291154
0.00584183
-0.00205376
-0.00290523
0.00422282
0.00542377
-0.00674136
0.0081522
-0.00315693
-0.00539765
0.000402382
0.000141739
-0.00198352
0.00482617
-0.00298439
-0.000839339
0.000832905
-0.00638504
0.00585106
0.00190202
-0.00626617
-0.00148692
0.00734943
-0.00602821
-0.00162036
0.00155006
0.00229125
-0.00541724
0.00157593
-0.00301399
-0.00552375
0.00491221
0.00362554
-0.00092048
-0.00239046
-0.000725312
0.00299391
-0.00320195
0.00688964
-0.0066816
0.000727895
-0.00839595
0.00766806
0.00286517
-0.00374417
0.00242906
0.00154373
0.00089779
0.00126691
-0.00370842
-0.000148154
-0.0069784
0.00712655
-0.00379005
0.000502696
-0.00122996
0.00451731
-0.000455232
0.00527274
-0.00480601
-1.14968e-05
-0.00358053
-0.00189662
0.00207237
0.00340479
-0.0013342
-0.00316681
-0.00294712
-0.00432421
0.00360742
0.00366392
0.000155243
-0.00443656
0.00767365
-0.00315471
-0.000408325
-0.00411061
0.00406319
-0.00038887
-0.0029643
-0.000710026
-0.000655816
0.00572839
-0.00715189
0.00207931
0.0036998
0.00014154
0.00180124
-0.00564258
-0.000135121
-0.00303868
0.00146609
0.00170771
-0.00210173
0.00273584
0.00528821
-0.00592232
-0.00744873
-0.00193432
-0.0020871
0.00688658
-0.00635519
0.000148951
0.00199342
0.00421282
0.000612112
-0.00225438
-0.00402068
0.00566295
-0.00290498
-0.00567154
0.00143059
0.00714593
-0.00266782
-0.00295861
0.00307993
0.0025465
-0.00689755
0.00663857
0.00699705
-0.00673808
-0.000927506
-0.00161927
-0.0048902
0.00743697
-0.0066774
0.000686877
0.00679756
-0.000807036
-0.00116955
0.00313599
-0.00196644
-0.0027097
0.00500697
-0.00377129
0.00147402
-0.000116563
0.0090272
-0.00335154
-0.0055591
-0.00322939
-0.00156117
0.00648674
-0.00169618
0.001046
-0.00273865
0.00621235
-0.00451971
0.000283399
0.00401886
-0.000704058
-2.42637e-05
-0.00662652
0.00662563
2.51541e-05
0.00750906
-0.00132959
-0.0109759
0.0047964
-0.00693729
-0.000679478
0.00866142
-0.00104466
-0.00376927
0.00569424
0.000467954
-0.00239292
0.00337318
-0.00333233
-4.08495e-05
-0.00402108
0.000388392
-0.00347167
0.00710435
-0.00582646
0.0080291
-0.00167456
-0.000528073
0.00362322
-0.00151942
-0.00436743
0.00226363
-0.00701803
0.00708306
-6.50236e-05
0.00575728
-0.00837583
0.000680358
0.00193819
-0.00654388
-0.00178999
0.0111907
-0.00285685
0.00481946
-0.000204218
-0.00101166
-0.00360359
-0.00272737
-0.00466397
0.0103853
-0.000495221
-0.0068621
0.00415537
0.0108322
-0.0120834
-0.00114867
0.00239994
0.00289402
0.00137822
-0.00319676
-0.00304008
0.00316863
-0.000128554
-0.00123601
0.00690411
-0.000437493
-0.00523061
-0.00150684
0.00178732
0.0060179
-0.00629838
0.00391545
0.00919498
-0.00538008
-0.00773035
0.00670337
-0.00804236
0.00255665
-0.00121766
0.00613433
8.47707e-05
-0.0062191
0.000112227
0.00597676
-0.00608899
0.00670814
-0.00811932
0.00716846
7.69484e-05
-6.25726e-05
0.00522833
-0.0052427
0.00013508
0.00951841
-0.00948686
-0.000166631
-0.000810796
-0.00240665
-0.00486217
0.00807962
-0.00297494
-0.00177766
0.000597101
0.00563464
-0.00981503
0.00358328
-0.00477032
-0.00125087
0.00511448
0.000906718
-0.00560915
0.00619298
-0.00165553
0.0010717
0.000886518
0.00462259
-0.00157227
-0.00393683
-0.00226663
0.000571556
0.00382825
-0.00213318
-5.37127e-06
0.00171081
-0.00214202
0.000436577
-0.00239585
0.0058528
-0.00337131
-8.56354e-05
0.00175585
-0.00553921
-0.00323467
3.84391e-05
-0.00516665
0.00512822
-0.00190645
-0.00182868
0.000849038
0.0028861
0.00288752
-0.00166613
-0.00122139
0.00721591
-0.00716517
-0.00146289
0.00141215
-0.000656666
-0.0042624
0.00392869
0.000990377
-1.75313e-05
2.39367e-05
0.00385667
-0.00386308
0.0019201
-0.00157687
-0.00610502
0.00576179
0.00444048
-0.000114094
-0.00432638
-0.00651919
-0.00421926
0.00628977
0.00444868
0.00380049
0.00596485
-0.0102606
0.00361528
-0.00130043
0.00203475
-0.0043496
-0.00144782
0.00143005
-0.00795699
0.00797475
0.00225722
-0.0044452
-0.00432384
0.00651182
-0.000454538
-0.00102446
0.00483149
-0.00335249
0.00336496
-0.00413654
0.00149918
-0.000727598
0.00183146
-0.0030363
-0.00293469
0.00413953
-0.00593748
0.00668904
-0.00178393
0.00103236
0.00674228
0.00866495
-0.00954051
-0.00586672
-0.00523132
0.00520616
2.51636e-05
-0.000579876
0.00615662
-0.00769988
0.00212313
0.000238718
-0.000388831
-0.00592534
0.00607545
0.00583669
0.000245792
-0.00671593
0.000633456
-0.00247732
-0.00418711
0.00526544
0.001399
-0.00598269
0.00847722
-0.00300263
0.000508109
-0.00248434
-0.0030316
0.00179937
-0.000368491
-6.14068e-05
-0.00426836
0.00469826
-0.0139558
5.99063e-05
0.00125469
0.0126412
0.00055289
-0.00355322
-0.00183878
0.0048391
0.00869249
-0.000714835
-0.00281328
-0.00516437
-0.0015568
-0.00335691
0.000656536
0.00425717
0.00244475
-9.62407e-06
-0.00243512
0.00408342
0.00217637
-0.00135527
-0.00490452
0.00316479
-0.00250985
0.00624995
-0.00690489
0.000206247
0.00650843
-0.00214892
-0.00456576
0.00157683
0.00224877
0.00486689
-0.00313276
0.000217922
0.00291484
-0.00405151
0.000571913
0.00107626
0.000679701
-0.00560882
0.00385285
-0.00528847
0.00773843
0.00234409
0.00799805
-0.0016958
-0.00864634
-0.00508315
0.00499609
-0.00790337
0.00799043
-0.000767743
-0.00384636
0.00134554
0.00326857
-0.00423153
0.00797457
0.00236401
-0.00275286
0.000617777
-0.000228934
-0.00260454
-0.00832621
0.00260518
0.00832558
0.00547862
-0.00546817
-4.85777e-05
3.81273e-05
0.00441224
-0.00515881
0.00110167
-0.000355092
0.00113461
0.00443248
-0.00790235
0.00233526
1.95307e-05
0.00382877
-0.00384831
0.00246876
-0.00633415
0.005
-0.00238496
0.00641029
0.0053993
-0.00942463
0.00182263
-0.00185756
-0.00863977
0.0086747
-0.00259717
0.00430663
-0.00864311
0.00693364
-0.00621698
0.00494989
0.00648795
-0.00522087
-0.0038998
0.00534454
-0.00345307
0.00200833
-0.000816491
0.00355705
0.000578179
-0.00331874
0.00181469
-0.00264593
0.00272936
-0.00189813
0.0034023
0.00126685
0.00111877
-0.00578792
0.00973064
-0.00661126
-0.000396954
-0.00272242
-6.92934e-06
-0.00473226
0.00473919
0.00294188
-0.0043089
-0.0132092
0.0145762
-0.00059293
-0.00640536
-0.00194192
0.00894021
-0.000392112
-0.00296591
0.00335802
0.000901111
0.00426246
-0.000677664
-0.00448591
-0.00119397
-0.00431019
0.00347798
0.00202618
0.00330944
-0.00277117
-0.00486901
0.00847008
-0.00659425
0.00186451
0.00197476
-0.00383927
0.00639369
-0.000186976
-0.000778172
-0.00542854
-0.00122556
-0.00208432
0.00330988
0.00229567
0.00152555
0.0127696
-0.0153556
-0.0054269
0.00801288
0.00197146
0.00420004
-0.00321234
-0.00295916
-0.00448432
0.0085737
0.00570341
-0.00979278
0.00504454
0.00175065
-0.000675347
-0.00611984
0.00836885
-0.00558046
0.00360166
-0.00639005
-0.00469067
0.00214263
-0.00587714
0.00842518
-0.00761002
0.0136404
-0.00534376
-0.000686591
-0.000200892
-0.00327249
-0.00450359
0.00797697
0.00619849
0.00255889
-0.00727086
-0.00148652
0.00330725
-0.00881425
0.00556101
-5.40116e-05
-0.00780715
-0.00029561
0.00510844
0.00299432
-0.00156695
0.00404725
0.0017599
-0.0042402
-0.000994321
0.00398682
0.00320564
-0.00619814
-0.00812408
0.00417739
-0.000397767
0.00434446
0.000749652
-0.00222247
0.00440726
-0.00293444
0.00344222
-0.00172741
0.00122821
-0.00294302
0.00334695
0.000643915
0.000325217
-0.00431608
-0.00495368
0.00531567
0.00196782
-0.00232981
-0.0011675
0.00625967
0.000126798
-0.00521897
0.00504088
-0.00295829
-0.00195463
-0.000127965
0.00439142
3.47571e-05
-0.00442618
0.00320121
0.0024787
-0.000562031
-0.00511788
0.0014924
0.00394256
0.00337443
-0.0088094
-8.50243e-06
-0.00708307
0.00709158
-0.00369246
0.0143025
-0.00208598
-0.00852406
-7.09082e-05
0.00534234
-0.00527143
-0.000356401
-0.00384644
0.000691818
0.00351102
-0.0069421
0.00353898
0.00268412
0.000719001
0.00141433
0.00117649
-0.00811426
0.00552344
0.00415429
0.00656194
-0.00245257
-0.00826366
0.00625744
-0.00213988
-0.00598965
0.00187208
-0.00781066
0.00445221
0.011915
-0.00855658
-1.96106e-05
0.00298137
-0.00298114
1.93807e-05
-0.0030871
0.00305503
3.20678e-05
-0.00795002
0.000122711
0.00334299
0.000885385
0.00191549
0.00524507
-0.00804595
0.00415915
-0.00494668
0.00319019
-0.00240266
-0.00395884
0.00346762
-0.000130793
0.00062201
-0.000830125
-0.00652327
0.00834914
-0.000995743
-0.0029063
0.00139916
0.00460254
-0.00309539
0.00505661
-0.00195052
0.00074846
-0.00385455
-0.00337887
-0.000590039
0.00395712
1.17954e-05
-0.000575095
-3.07197e-05
0.00546142
-0.0048556
0.000702308
-0.000589464
0.00550482
-0.00561767
-0.0049494
0.0069117
-0.00723999
0.00527769
2.50839e-05
-0.00624194
0.00621685
-0.00221647
0.000195913
0.00558857
-0.00356801
-0.00426782
0.00498954
-0.00680477
0.00608305
-0.00437967
0.000333836
0.00133444
-0.00201907
0.00547775
0.000305715
-0.00376439
-0.00146326
0.000204837
-0.00248419
-0.00215419
-0.0070015
0.00703293
0.00212275
-0.00311963
-0.000364266
-0.000785599
0.00426949
-0.0106748
0.00360472
0.00105066
0.00601943
-0.00340171
0.00776069
-0.00384197
-0.000517018
0.00237399
0.000926715
-0.00476396
0.00467151
0.00476507
-0.00943659
0.000627665
0.010218
-0.00237249
-0.00847314
-0.000128618
-0.00018158
-0.00448626
0.00479645
-0.00489903
0.00807035
-0.00325506
8.374e-05
0.00465414
-0.00293918
-0.00421853
0.00250357
0.00115733
-0.000155276
0.00141654
0.00715871
0.00199216
-0.0103604
0.00120948
-0.0049623
-0.000647807
0.00162624
0.00398387
0.00188445
-0.00208442
-0.00283163
0.00860658
-0.00579071
0.00450153
-0.0073174
-0.00095483
0.00556082
-0.0096169
0.00501091
0.00335077
-0.00423192
-0.000429894
0.00131104
-0.00370878
-0.00129207
-0.000125189
0.00512604
-0.00276834
-0.00261729
0.00538563
0.000690814
-0.00739669
0.0065634
0.000142475
0.00284732
-0.00274671
-0.00286894
-0.00464942
0.00589896
-0.00112091
-0.000128636
0.00664152
0.00182933
-0.00715874
-0.00131211
-0.00256435
-0.00376079
-0.000433683
0.00675882
0.00418731
-0.00127512
0.00485398
-0.00776617
-0.00469077
-0.000258626
-0.0056304
0.00301312
0.000723706
-0.00630312
0.00201702
0.00356239
0.0018251
-0.00653914
0.00360161
0.00111243
0.000980431
0.000255375
-0.00491469
0.00367889
0.000752366
0.00322134
-0.000216152
0.00549203
-0.00108509
-0.00419078
-0.0021576
-0.000218225
-0.00201176
0.00438758
-0.00127389
-0.00171538
0.00328008
-0.000290808
-0.00514242
-7.56678e-05
-0.00868394
0.00311805
0.00457157
0.0122929
-0.000101423
0.00167271
-0.0138642
-0.00538423
0.00836316
0.00169785
-0.00467678
-0.00153651
0.000841908
0.00530002
-0.00460541
0.000643864
0.00182933
-0.00141452
-0.00105867
-0.00925109
-0.0019156
0.00797963
0.00318706
0.000200991
0.00388855
-0.000780102
0.000118126
0.0019661
-0.00617139
0.00408716
-0.00383174
-1.38317e-05
0.00141238
0.00243319
-0.00521368
0.00644362
-0.00102895
0.00294911
-0.00265923
-0.000289875
-0.00436146
0.000627328
-0.00338407
0.0071182
-0.00196462
0.00295787
-0.0022797
0.00128644
-0.00422353
0.00475602
-0.00196507
0.00143258
0.00190813
-0.000315987
-0.00454258
0.00295044
-0.00188759
0.0118362
-0.0159313
-0.00173609
-0.00121138
0.00118582
0.00176165
0.00565108
-0.00881866
-0.000401006
0.00356859
-0.00239603
0.00178817
0.00308105
-0.00247319
-0.000708231
0.003781
-0.00104404
-0.00202873
-0.0042582
0.000945095
0.000994574
0.00231853
-0.00235975
0.000203182
0.00215657
0.00548541
-0.00261124
-0.00278522
-8.89471e-05
0.000397656
0.00271401
-0.00411934
0.00100767
-0.00293835
-0.00356399
0.0036338
0.00286853
-0.00151233
0.00390435
-0.0033473
0.000955279
0.00141659
-0.0026821
0.00184836
-0.000582855
0.00512473
0.000135591
-0.00526032
0.00440464
-0.00542141
0.00268254
-0.00166577
-0.00692472
-0.000195726
0.00712044
0.00285503
-0.00236741
0.000552772
-0.00104039
-0.000221177
0.00490866
-0.00535972
0.000672234
-0.00246831
0.00308953
0.000795363
-0.00271458
0.00581738
0.00537443
-0.00466947
0.00463018
3.92855e-05
9.64213e-05
-0.00740969
0.00731327
0.00992329
0.00119756
-0.00211161
-0.00900924
0.0020762
-0.00809143
-0.00100479
0.00702002
0.00157766
0.0018715
0.00105032
-0.00449948
-0.00278306
-0.00278205
3.85328e-05
0.00552657
-0.00132856
0.00182134
-0.00327583
-0.00613324
0.00110537
0.00805081
-0.00302294
-0.0120483
0.00882574
0.0038805
-0.000657925
0.00533929
4.49398e-05
-0.00538423
-0.00301055
-0.00405174
0.002621
0.0044413
-0.00303693
-0.00441464
0.00131832
-0.00437624
0.00237919
0.00274942
0.00176758
-0.00231898
-0.00420404
0.00475544
-0.00300332
2.89358e-06
0.00300043
-0.00699126
0.00282553
0.00287361
0.00129213
0.00176427
-0.00471835
-0.00142216
0.00598948
-0.00189785
-0.000151297
-0.00394034
-0.00401208
0.00664894
0.00394564
-0.00658249
-0.00117319
-0.0024643
0.00090046
0.00273703
-0.0017037
-0.00137128
0.00307498
-0.00296574
-0.00622874
-0.00285383
0.00138197
1.88657e-05
0.00278883
-0.00418966
0.00568753
-0.00413867
-0.0059947
0.00444585
-0.00210936
0.00075162
0.00426319
-0.00290545
0.00402102
-0.00283103
-0.000398813
-0.000791178
-0.00461414
0.000748633
0.00360472
0.00026079
-0.0028733
0.00658402
-0.00710682
0.00277039
0.000205774
0.00413066
0.00665548
-0.00531332
-0.00418478
0.00284262
-0.00528153
0.0010993
0.00986976
-0.00514444
-0.00339135
0.00553681
0.00299898
-0.000604262
0.00536966
-0.00203566
-0.00272974
0.000302719
-0.00315155
-0.00207436
0.00492319
0.00610471
-0.0040276
-0.000247099
-0.00183001
0.00187886
0.00140403
-0.00461144
-0.00128424
0.00145481
0.00358471
-0.00375528
-0.00106064
0.00554579
-0.00683616
0.00235101
-0.00331017
0.000798132
0.00080164
0.0017104
-0.00730579
0.00742748
-0.000121688
0.00503571
-0.00496184
-7.38689e-05
0.00201905
-0.00779623
-0.0029932
0.00877038
0.00179092
0.00340621
0.000792347
-8.66816e-05
0.00299418
-0.0029075
0.00477743
0.00428378
-0.00906121
-0.00531438
0.0032448
0.00229272
-0.000223136
-0.00298436
0.000983506
0.00242656
-0.000425708
-0.00887744
0.00414472
0.0048606
-0.000127889
-0.00289816
-0.00322774
0.00312257
0.00457414
-0.000720287
-0.00294809
-0.000905764
-0.00495278
0.00534394
-0.00326446
0.000857518
-0.00546725
-0.00027941
0.00488915
-6.20813e-06
-0.00269524
0.00270144
0.0132755
0.000107318
0.00141258
-0.0147954
-0.000496692
-0.000972078
-0.00716549
0.00863426
0.00231078
-0.00312971
-0.00146015
0.00227909
0.000890482
0.00688521
-0.00277556
-0.00500013
0.00751433
-0.00751843
-1.76242e-05
2.17272e-05
-0.00420393
-0.00379135
0.0059265
0.00206878
0.00246009
0.00188929
-0.00490758
0.000558206
3.34679e-05
0.00454835
-0.0046488
6.69797e-05
-0.00628577
0.00201174
0.00509284
-0.000818804
0.00483526
0.00292461
-0.00489548
-0.00286438
0.000112208
-0.00428267
0.00217054
-0.00112496
0.00646875
-0.00347893
-0.000452993
-0.000542864
0.00447479
-0.00579941
0.000318396
0.00548101
0.00846548
0.00366327
-0.00274784
-0.00938091
-0.0055317
0.000116769
0.00552714
-0.000509115
-0.00132699
-0.00338451
0.00522061
-0.00067983
-0.00066065
-0.00178046
0.00312094
0.00139571
-0.00707277
0.00533261
0.000344452
0.00440456
-0.00068638
-0.00428534
0.000567155
-0.00544883
0.00114354
0.00044769
0.0038576
-0.002068
0.00135092
-0.00278351
0.00350059
0.00119177
0.000779029
-0.00705354
0.00508274
0.000245331
-0.00475764
-0.000331258
0.00484357
0.0047267
0.000617797
-8.06796e-05
-0.00526382
-0.00562201
0.00130831
0.0050882
-0.00405031
-0.0053812
0.00943151
0.00780121
-0.00397489
0.00167266
-0.00549898
0.000611334
0.00438921
-0.00268977
-0.0062993
0.00116894
0.00222155
0.00290882
0.0077794
-0.00801327
0.000233868
-0.00468212
-0.00159194
0.0032784
0.00299567
-0.00610181
-0.00474063
0.00317885
0.00766359
0.00638681
-0.00666962
-0.00081628
0.00109909
-0.000929782
0.00309868
-0.00244077
0.000271872
-0.00794387
0.00259299
0.00182403
0.00352685
-0.0117216
0.0145904
0.00241303
-0.00528178
0.00523034
-0.0113461
-0.000569986
0.00668574
-0.00465762
0.0059084
-0.0109493
0.00969848
-0.00489854
0.0108084
0.00106993
-0.00697975
0.000430091
0.00510494
-0.00119339
-0.00434164
0.00778246
-0.00583965
-0.000194869
-0.00174793
-0.00136816
-0.00131462
0.00200854
0.000674236
-0.00368594
-0.00765753
0.00652754
0.00481593
-0.00522214
0.00696087
0.00604373
0.00421093
-0.00309621
-0.00385655
0.00274182
0.00157108
-0.00203217
-0.000897777
0.00135886
0.00348362
-0.0034466
-0.00458583
0.0045488
-0.00140915
0.00404195
-0.000292405
-0.00234039
-0.00558512
-0.000891546
0.00690676
-0.00422504
-0.0010385
0.00522307
4.04771e-05
0.00171497
-0.0038314
0.00211643
0.00137244
-0.00182208
0.00679458
-0.00634494
0.00531538
-0.00747072
0.00108077
0.00107457
0.00337831
-0.00364408
0.000265778
-0.00536453
0.000142388
0.00479317
-0.00182497
-0.00462443
0.00165623
0.00150814
0.00122343
0.0053569
-0.00808847
0.00329517
-0.00357729
0.000282121
-4.02812e-05
0.00417655
-0.00472164
0.000585367
-0.00587585
-0.000565279
0.00781356
-0.00254762
-0.000435419
0.000588974
0.00239407
0.000351934
-0.00290586
0.00214266
0.000411265
0.00476416
-0.00456199
-0.00113195
0.000544538
0.0078472
-0.00494238
-0.00344936
-0.00270048
0.00571889
-0.00301841
-0.00729664
0.00279334
-0.00171304
0.00621634
0.00573299
-0.0051909
-0.00848597
-0.00278719
-0.00333875
0.0114679
-0.00534194
-0.00821122
0.00523145
0.00745941
-0.00447963
-0.00018094
-0.00702132
0.00720226
0.0111073
2.17045e-05
-0.00639884
-0.00473014
0.00646169
-0.00416559
-0.000575766
-0.00172033
-0.00470321
0.00334122
-0.000847667
0.00220966
6.43863e-05
-0.00484264
0.00477826
-0.00355121
0.00365555
-0.000104348
-0.00256447
-0.00270741
-0.00693631
0.0122082
-0.00654145
0.00142842
-0.0007279
0.00584093
0.00151183
0.00245314
0.00673272
-0.00607816
-0.00502359
0.00436903
-0.00186662
-0.00385039
0.00424706
0.00146995
-0.00387245
-0.00196881
0.00584745
-6.18557e-06
0.00126923
-0.000730707
-0.00359598
0.00305745
0.00427247
0.000189971
-0.00546265
0.00100021
0.00131908
-0.000919065
0.0014104
-0.00170262
0.00169676
-0.00140454
0.00349067
0.0034199
-0.00349165
-0.00341892
0.00172284
0.00402658
-0.00416305
-0.00158637
0.0036626
0.00158704
-0.00287564
0.00451243
-0.00547282
0.00115036
-0.00599946
0.00419404
0.00225849
-0.00045307
0.00715563
-0.00236571
-0.00749039
-0.00190953
0.00508667
0.00255586
0.00496102
-0.0024174
-0.00418083
-0.00113905
-0.000679576
-0.00667732
0.00624394
0.000589798
-0.000156422
-0.000415167
0.00835215
-0.000865002
-0.00707198
-0.00545245
0.00111223
0.00243069
-0.000873658
-0.00554065
0.00155658
0.00485773
0.00498695
0.000694427
-1.7024e-05
-0.00566435
-0.00745204
-6.06633e-05
5.09423e-05
0.00746176
-0.00190753
0.00209276
-0.00338856
0.00320333
-0.00513701
0.00649321
-0.000668027
-0.000688172
0.00675863
-0.00630663
-0.00558901
-0.00498155
0.0044961
-0.00142575
0.00191119
0.00404376
-0.000182658
-0.00127071
-0.0025904
-0.00756103
0.00729348
0.0035711
-0.00330355
0.00356224
0.0013569
-0.000452789
-0.00446635
0.00129531
0.00328289
-0.00410562
-0.000472579
-0.00243397
0.00244834
-1.4369e-05
-0.00142159
-0.0036287
0.00364114
0.00547485
-0.00542466
-5.01905e-05
-0.00309284
-0.00245455
0.00241767
-0.00031852
-0.0037142
-0.000401924
0.00443464
-0.000418598
-0.00321804
0.00287873
0.000757912
0.00509333
-0.00579252
0.00069919
-0.00649112
0.00665542
0.00610297
-0.00626726
-0.00435823
0.00336502
-0.00228991
0.00328312
-0.00173667
0.000742015
0.00157251
-0.000577855
-0.000181702
0.00787075
-6.87366e-05
-0.00762031
-0.00396423
0.00192191
0.00195281
0.00226793
0.00288681
-0.0050367
-0.000118038
0.0002187
-0.00626448
-0.000245323
-0.00570376
0.00570218
1.58185e-06
-0.00381795
0.00192268
-0.00420654
0.00129807
-0.00287237
0.000114145
0.0024887
0.00108045
0.00377894
7.36801e-05
-0.0032321
-0.000620523
0.00316429
-0.00789665
0.00633127
-0.0015989
0.00130464
-0.00177774
0.00661134
-0.00613825
0.00808436
0.00239125
-0.0012431
-0.00923251
-0.00206917
-0.0033973
-0.00110252
0.00656899
0.00245405
0.0102147
-0.00922482
-0.0034439
0.00117574
0.00740966
-0.00715403
-0.00143138
-0.00255879
0.000337468
0.00524517
-0.00302384
-0.000893621
0.00726651
-0.00391883
0.00526154
-0.00415323
-0.00162227
0.000513958
0.00172889
0.00452744
-0.00625633
0.00422784
0.000938875
-0.00056343
-0.00460328
-0.00389543
0.00311387
0.000313068
0.000468488
-0.000374354
-0.00549935
0.000321971
0.00555173
-0.00402954
-0.000512388
-0.000166683
0.00470861
0.00232758
-0.00516447
5.10161e-05
0.00202949