/*--------------------------------*- C++ -*----------------------------------*\
  =========                 |
  \\      /  F ield         | OpenFOAM: The Open Source CFD Toolbox
   \\    /   O peration     | Website:  https://openfoam.org
    \\  /    A nd           | Version:  10
     \\/     M anipulation  |
\*---------------------------------------------------------------------------*/
FoamFile
{
    format      ascii;
    class       volScalarField;
    location    "16";
    object      SgT;
}
// * * * * * * * * * * * * * * * * * * * * * * * * * * * * * * * * * * * * * //

dimensions      [1 -1 -3 -1 0 0 0];

internalField   nonuniform List<scalar> 
111485
(
5.82839e-15
0.00786579
0.0240743
1.99001e-15
0.049005
7.94589e-16
0.0462205
0.00615535
0.0189959
0.00122615
0.0466137
0.0094005
0.00478136
0.000795868
0.00649807
0.0304943
0.00141904
2.61903
0.0103342
4.87831e-14
1.27707e-15
2.26361e-15
0.0266587
0.0347177
0.0086116
6.80508e-15
0.039602
0.00176105
0.0155055
4.13816e-17
0.0444536
0.0194329
7.46362e-14
2.12147e-15
0.00659351
1.09873e-14
0.0105945
0.00421831
3.9236e-08
0.0240894
2.54544e-15
0.0709666
0.0158269
0.00152265
6.19486e-05
3.30951e-14
0.0298177
0.000713303
0.0475379
8.18952e-15
6.72806e-15
1.26038e-15
4.57973e-15
0.0510877
3.54566e-15
0.0436908
0.00309342
6.95358e-15
2.06646e-05
0.00479335
0.0160539
2.42708e-14
0.00475805
0.0970978
7.62928e-16
0.00316206
0.315213
0.0944493
0.00110224
0.00605574
1.71906e-05
0.00656072
1.31173e-14
0.00288378
3.65881e-15
0.000708633
1.87741e-14
0.0412297
1.21146e-15
5.25731e-14
1.59594e-06
0.0339172
1.65716e-14
2.74707e-15
0.00928321
0.00387489
3.49047e-10
0.0252905
5.91048e-05
0.00742056
0.00027508
0.0404869
0.0118387
5.75539e-05
0.0523319
1.72267e-15
6.79668e-15
0.00180389
2.84379e-08
0.00114536
1.23274e-14
0.0179745
5.39105e-16
0.0180979
0.00462132
7.80298e-15
1.75252e-15
0.00757574
0.00410361
5.97515e-08
0.00543074
0.00472459
0.00375506
0.00320212
9.39165e-15
3.36734e-05
2.25417e-15
3.46636e-15
0.0127979
3.87075e-15
2.46982e-15
5.18911e-15
5.12189e-15
3.96321e-15
0.00153976
2.97707e-06
1.10749e-14
0.0016951
5.50649e-15
2.6864e-05
0.00146384
0.0326626
2.91845e-15
7.13053e-15
1.13119e-14
0.0483651
7.11936e-15
0.0425366
0.0253306
0.00271428
0.000246627
0.00200404
0.0225066
0.00267888
0.00398513
0.0130533
1.50226e-14
3.02798e-15
3.16649e-15
0.0280863
0.00156202
1.39213e-15
2.29759e-07
0.00475902
4.52542e-07
0.0107698
0.0163051
0.0106535
6.24302e-08
1.30142e-14
1.06379e-14
0.0522304
0.0228467
1.72923e-06
3.28608e-07
0.00581315
0.003432
3.24316e-15
4.23245e-06
4.51539e-05
1.62247e-15
1.93539e-15
0.000127058
1.81226e-16
0.00550816
0.00208285
6.19256e-16
1.78058e-14
9.32117e-15
2.78934e-14
1.63071e-14
1.08946e-14
0.0015039
0.00678354
0.0297541
0.00413484
0.00759962
0.00400921
7.89932e-05
4.52484e-15
0.00481172
3.36659e-15
1.54027e-15
0.00651365
0.0104448
0.028319
0.0112933
0.0050394
3.65927e-15
0.00669851
0.000513167
4.20261e-05
0.0141932
0.00232242
2.54862e-15
0.00378423
0.0253632
5.62468e-14
0.000164012
0.00779816
0.00202801
0.00036459
8.08365e-15
3.38704e-14
0.00827766
1.06752e-11
0.119592
1.00037e-14
0.00665664
0.0204722
0.119384
8.8522e-15
0.00324986
0.0138164
1.9865e-13
4.65613e-15
1.58586e-15
0.151787
2.63821e-07
6.8706e-15
1.17813e-15
0.00944301
0.00777921
0.0148269
1.36888e-14
4.78998e-15
1.27955e-05
1.2381e-15
0.00241855
0.00949412
0.0165783
0.0116371
0.00963042
4.9904e-16
2.50507e-07
0.000624948
9.38039e-15
2.86158e-14
0.0309157
0.0205784
1.82123e-14
0.0064668
0.010732
9.86052e-16
2.93377e-15
0.000115548
3.53413e-15
4.2104e-15
4.42321e-05
9.9117e-15
0.0148679
0.0107669
0.00366715
9.34065e-15
0.01189
1.03386e-16
3.24587e-15
7.9354e-15
1.86256e-08
0.0228591
0.00615216
0.0054406
0.0364712
0.0122969
0.00157543
0.00056925
0.0325466
0.00883948
1.55548e-14
2.84365e-15
2.44304e-07
0.0226624
0.0244634
0.0118969
5.52065e-16
0.00699593
0.00204198
0.00301195
1.94366e-06
3.62503e-06
0.0137595
0.00218133
0.00193974
1.74842e-14
0.000655109
3.24257e-15
1.84898e-07
3.45304e-13
0.238344
0.0681737
0.0118876
1.25311e-14
1.02853e-15
0.00897535
0.00171408
1.03261e-14
9.11621e-16
4.66703e-15
0.000295308
0.0571856
0.00396861
0.0135585
0.0192523
3.40278e-14
3.95314e-15
1.77902e-16
0.00377986
1.74117e-12
0.000845332
0.185067
3.05101e-07
1.21033e-15
1.20183e-14
3.178e-15
1.13127e-15
0.059951
0.0119085
5.52618e-15
0.00524635
4.03294e-15
1.92029e-14
0.0669806
0.00592799
0.0114238
0.00927579
4.70165e-14
4.67357e-15
1.33467e-14
0.00943109
0.0187707
0.00479625
1.42028e-15
3.13045e-10
0.000160159
0.00222322
0.00803252
3.38545e-05
0.0284878
4.16133e-16
0.0375429
0.00355031
0.00779637
0.0253227
0.0133445
2.25031e-15
4.68382e-15
2.46912e-15
4.44291e-15
0.0313526
0.00973794
0.0330004
0.067335
4.94859e-16
0.0185419
8.95194e-16
5.42593e-14
0.0166106
1.53091e-15
0.0779649
1.61869e-14
3.4379e-16
0.022908
1.9316e-15
0.0136003
0.000287954
4.69689e-16
0.000994585
0.0165287
6.55911e-15
0.00888618
0.00918594
0.00814124
0.000684432
0.00271781
0.00552156
4.0385e-14
1.37929e-14
0.00196568
7.6228e-16
0.00624556
0.116954
1.01773e-15
3.58326e-15
0.0275505
0.000110411
0.00826578
0.0205662
1.56311e-15
0.0468404
0.0187896
1.44212e-14
0.000830795
0.00241381
9.24504e-16
6.15848e-15
0.0109524
0.0052076
4.72729e-14
1.98699e-15
3.59225e-08
2.80437e-15
0.0122823
1.73237e-15
6.2905e-15
0.0168139
1.61752e-06
0.0123394
0.0297778
1.53641e-14
8.0338e-15
0.00150035
3.43731e-14
0.000161295
0.0143184
0.121849
0.839816
8.02359e-15
0.00275321
0.000528198
2.60213e-14
0.0387953
0.0311992
8.70179e-15
7.16999e-09
8.92445e-05
5.6801e-15
0.0239105
0.0241519
0.0139209
3.37368e-14
0.000662716
0.0170154
0.0229369
8.23256e-07
1.00119e-14
6.19058e-10
1.80341e-15
1.18115e-05
0.0313472
3.57228e-16
0.00833665
9.97054e-05
2.68365e-14
9.85448e-16
5.5914e-15
1.31852e-14
0.0036905
0.00958308
0.00638887
0.00208768
0.00266442
2.31847e-14
0.00198442
4.41076e-14
0.0408286
7.23694e-16
1.19016e-14
6.11906e-16
0.0369098
5.05312e-15
1.37377e-14
1.57495e-07
1.68555e-15
5.75228e-15
0.00106225
1.12755e-14
5.05887e-14
2.57417e-15
1.96905e-15
2.09748e-14
2.23998e-15
2.68151e-14
0.00696347
1.16048e-14
0.000527994
0.00193628
0.000884221
1.21153e-14
0.000885012
3.25406e-15
1.31377e-15
0.00275998
0.00178265
0.0271067
0.0248286
2.06654e-15
0.00203363
0.0817018
0.00848091
0.00101689
0.00323122
5.25857e-15
0.0233808
6.65913e-14
0.00500297
3.83909e-15
0.0758231
5.75097e-14
0.0209998
0.000243976
4.69395e-07
4.44988e-15
0.00199612
1.2947e-14
0.0799938
0.0486114
3.4182e-14
1.10179e-14
2.33458e-14
3.75662e-16
1.3729e-09
0.0547976
1.77678e-15
3.69623e-15
0.00246943
1.93839e-15
0.0337189
2.42687e-15
0.000320899
9.31973e-15
0.000478464
1.14912e-06
0.00100297
0.0125909
4.41766e-14
0.000413917
2.40383e-14
5.744e-16
0.0149193
1.17344e-15
2.96065e-05
9.18246e-15
0.00163293
1.36545e-14
0.0643585
1.11552e-14
3.68907e-15
0.0172425
0.00325328
0.00172966
0.00389232
0.0068379
0.0207655
2.68167e-15
0.0251467
0.00606458
1.17767e-15
7.59332e-08
0.0405833
0.0152825
4.5372e-14
0.00374487
0.00679649
0.0017651
0.00100556
2.43218e-10
0.0136628
0.00121564
0.000125982
0.0233599
0.0137419
0.000603658
2.67497e-15
3.17687e-09
0.648142
1.04233e-14
0.000353828
3.51725e-15
6.66726e-14
0.00732729
0.00274602
2.24252e-07
1.62301e-05
4.75496e-14
0.0161958
0.0110482
1.88543e-15
2.00364e-10
0.00134008
1.79421e-14
5.21985e-15
2.73914e-15
4.40281e-16
0.0129598
6.91779e-16
1.47027e-15
0.00863521
0.00191587
7.15963e-14
0.0105296
9.19365e-15
0.00851518
2.21976e-15
2.78257e-14
0.0524669
1.42877e-14
2.57691e-14
4.46349e-14
0.00422042
5.33222e-14
0.0286252
0.00624414
1.58315e-16
0.0885486
0.00237041
0.0285211
0.0279781
0.000441226
7.56271e-05
6.36876e-15
0.0539126
0.046374
4.07077e-14
0.000315111
0.0404668
0.00794152
0.00140963
0.0275634
0.0260403
1.8957e-16
0.0107828
6.44878e-06
3.13272e-15
0.0347061
0.000252935
6.57089e-14
0.0109622
0.0405436
0.00132979
0.0214349
0.0195502
0.00721475
5.21511e-14
0.0103869
0.000308146
3.83276e-12
0.0170353
0.0178259
0.0357547
1.12749e-14
0.00184272
1.58064e-14
1.86883e-15
3.64782e-15
3.20513e-15
1.36996e-05
1.52284e-15
2.97809e-10
3.4676e-14
2.86346e-15
8.04214e-05
0.0427549
7.69442e-15
0.0312263
5.27328e-15
1.71799e-14
2.19026e-14
0.0387028
0.00040275
1.63408e-14
1.3719e-14
6.63656e-16
1.56843e-15
0.20783
0.0694809
5.04767e-14
0.00197466
2.00969e-06
8.98468e-15
0.03724
0.00843495
0.0115638
8.53513e-15
2.1699e-14
0.000411171
0.00106261
4.56194e-14
4.53467e-15
4.63495e-14
0.00722785
1.73975e-15
3.22662e-14
1.66075e-14
0.0419447
0.00207963
2.35095e-16
3.8523
0.351565
0.00974028
4.12788e-15
7.5673e-15
0.0553827
0.000422707
1.96126e-15
5.08265e-06
0.11339
0.00243344
0.0112917
2.60046e-15
0.0526286
0.00188552
3.17699e-15
2.76782e-15
7.31059e-15
2.59146e-15
6.36376e-15
5.51426e-15
0.0222318
1.67312e-14
1.47455e-14
1.67426e-14
0.0113969
0.0237364
5.86359e-16
4.60987e-15
0.105599
0.0142792
0.00987708
4.76221e-14
5.68729e-15
0.0370008
3.1196e-15
0.00170136
0.00264485
0.00395032
3.94256e-15
9.47972e-15
1.35741e-15
9.80955e-15
0.014787
5.62534e-15
6.00631e-15
0.00102985
3.29364e-15
0.0230877
0.00188794
5.77732e-15
0.0369004
0.354696
0.0025234
0.0291341
0.000143298
0.0438324
8.22807e-11
2.42034e-15
0.0235621
0.0682848
0.00599719
1.48323e-14
5.04822e-10
0.761393
0.00995054
9.6016e-16
0.00248336
0.0024877
0.00116456
6.3618e-15
1.66482e-14
7.09573e-15
0.0134324
2.40483e-15
0.00267658
4.19805e-15
0.00121455
0.00141394
0.0364953
0.000580505
5.8678e-15
8.31507e-15
5.17263e-15
0.0205068
5.78533e-16
8.44307e-15
7.16649e-05
1.92732e-14
1.30197e-15
1.83804e-15
5.35609e-16
0.0100519
3.20274e-15
3.60672e-16
4.43976e-10
5.56221e-16
6.21662e-15
7.37816e-16
7.71243e-15
2.99084e-06
0.00159966
1.04697e-15
0.00396952
6.4734e-06
2.99214e-07
5.97555e-05
0.00401589
2.15137e-15
9.25089e-06
0.010039
0.00039128
1.29051e-15
3.58309e-09
0.000847834
1.47268e-14
0.00983536
0.000189467
1.62437e-06
0.0232512
0.00936135
0.00224019
0.00487395
0.00196726
1.40087e-14
2.8251e-15
0.0328083
0.0262654
3.3441e-14
0.00842065
0.054165
0.0282469
3.16979e-14
0.00127099
3.09417e-15
0.0101336
0.0138741
7.30696e-15
0.00158423
0.000445512
1.19707e-06
0.00493336
1.5328e-14
0.0484013
1.48937e-05
0.00144664
3.04499e-05
1.23514e-05
3.96156e-15
1.8446e-14
0.00695233
1.63446e-15
0.000120089
0.000248756
0.000300005
5.65129e-08
7.01183e-08
2.33845e-07
1.65629e-15
1.35261e-13
0.0225932
2.22727e-14
0.000108586
0.00199584
6.73442e-14
5.16759e-15
6.53155e-07
9.00634e-10
3.40331e-15
5.07427e-06
5.03055e-15
7.99412e-16
1.5918e-14
9.32131e-15
3.65344e-14
3.71485e-15
0.00027713
1.0086e-14
1.307e-14
2.25605e-14
6.48303e-06
4.94802e-05
0.0017208
0.00913396
2.60672e-15
8.65852e-15
0.000160899
1.32767e-14
6.63149e-15
8.76764e-14
0.0185218
0.0421024
4.99459e-15
3.05433e-15
9.46796e-15
1.51027e-14
2.86753e-16
2.80356e-14
0.00678489
4.08513e-16
5.27744e-08
0.0264106
5.82615e-16
3.51022e-14
3.64139e-15
2.82129e-05
1.97127e-15
1.8689e-14
9.58055e-16
9.44864e-06
2.35055e-15
0.00424927
9.14242e-07
5.88822e-09
1.94365e-15
7.55724e-05
0.00195785
0.0440738
3.14857e-15
8.5125e-06
0.00539895
1.24081e-14
1.09921e-14
1.37931e-14
1.34761e-14
0.00811796
0.00160794
0.00322219
1.77505e-07
3.54236e-16
0.0232599
2.97117e-15
9.7347e-15
7.69678e-15
2.65273e-15
0.026307
7.61029e-15
3.60316e-14
1.62135e-06
0.0515418
2.96813e-15
0.0023436
7.58395e-14
0.000803942
1.4086e-14
5.38864e-15
6.67137e-15
5.783e-15
0.00248319
0.000593475
0.306691
1.20598e-16
1.55714e-14
0.00213344
4.22644e-15
1.03298e-14
2.59567e-15
0.036179
9.62208e-06
0.0318112
5.25663e-15
1.09122e-05
4.9837e-05
3.08021e-14
0.000128602
3.0227e-15
0.00121036
0.0248443
0.0200681
0.00116951
0.000227005
8.92822e-15
1.68133e-15
5.73517e-15
2.21864e-05
2.66981e-15
0.00750289
4.3424e-15
0.174449
3.66137e-15
0.0412475
0.00300165
1.38041e-14
9.27039e-16
2.49519e-15
1.00398e-14
0.0413001
2.50369e-14
2.26098e-14
0.0116965
0.00677163
6.07209e-14
1.82484e-15
1.26936e-15
4.03922e-14
2.30833e-14
1.7574e-15
0.0256131
0.000401374
1.31278e-14
5.99666e-15
5.32539e-07
6.43736e-14
0.00152631
0.000105845
1.53968e-14
0.00349287
1.84963e-14
0.000381745
2.5672e-15
0.00109619
2.22901e-14
7.04455e-08
2.13667e-06
0.000622451
0.0181761
0.034114
1.16453e-06
8.51375e-15
0.000541406
1.07551e-15
0.00461453
2.26747e-14
5.63801e-15
6.4796e-15
8.21754e-16
1.96938e-15
5.05066e-14
0.00721151
0.00811678
7.89148e-15
1.11479e-13
4.69578e-14
0.000789077
1.27407e-05
2.63684e-15
0.018043
0.000173295
1.14046e-14
0.0232942
0.0080621
0.00368112
0.0112649
2.37562e-15
1.31024e-14
2.74049e-15
3.2187e-15
0.0369251
4.28675e-15
0.113647
7.1866e-16
0.000316317
0.00072852
3.46688e-15
0.000969602
8.42337e-16
7.35242e-15
0.00306248
2.27561e-08
0.00930805
8.64375e-15
3.14753e-15
6.95585e-15
0.00083287
1.86099e-15
1.42e-14
4.65813e-14
2.80651e-07
5.4908e-15
6.62873e-06
5.08056e-14
1.61884e-14
9.49942e-15
0.0182869
0.00968157
0.0181737
0.03584
1.42725e-14
1.57947e-05
1.84528e-15
3.66897e-16
0.00959437
2.96189e-15
2.20101e-06
0.00035541
0.00667164
0.000371666
1.087e-09
0.00188132
2.84668e-15
1.23933e-09
3.55946e-10
0.000127344
0.000776572
0.0151311
5.86517e-08
5.83768e-17
0.0302687
2.25313e-14
1.50016e-15
1.31333e-05
0.0744153
5.2893e-08
3.36514e-16
2.55489e-15
3.19483e-07
3.59321e-15
2.42601e-14
1.80099e-05
2.2275e-14
2.73086e-14
0.0396475
0.000231719
0.000181348
0.0223308
0.00721032
4.23e-15
1.60141e-14
2.22253e-05
0.00406117
7.92082e-15
2.03221e-14
0.00968815
2.4451e-14
2.60922e-14
1.7923e-14
1.34765e-14
2.10451e-13
2.5692
1.1246e-14
0.000213077
9.06437e-16
0.0212805
7.6401e-17
5.61204e-13
3.11166e-14
1.01808e-14
1.49475e-14
5.53893e-15
0.00284217
1.47177e-15
1.45505e-14
2.12593e-14
3.21612e-14
1.56397e-14
8.34585e-15
0.00968982
7.93845e-15
0.0108395
0.00310968
4.85625e-16
0.00150157
2.02602e-16
0.00050974
2.03956e-06
0.00383785
0.0130167
4.88146e-15
9.28398e-05
0.00759211
9.52995e-06
9.08809e-15
2.97483e-06
0.019084
0.00469661
2.97909e-14
0.0258846
3.70149e-14
7.93196e-15
7.10751e-15
5.81978e-15
0.00811773
1.26596e-15
2.21852e-15
0.00829929
3.65257e-07
0.00267397
2.68062e-15
1.44596e-13
0.00063806
1.60565e-15
6.49827e-05
5.33786e-16
0.0232143
3.4531e-15
3.85248e-15
5.24122e-05
1.06683e-14
0.000137738
2.71485e-14
1.2545e-14
0.00472074
0.000439673
0.00468651
0.0151857
0.217949
0.0202125
4.59509e-16
4.06743e-14
0.00298142
0.00672924
0.0368029
0.0105591
7.11459e-15
0.0124412
6.7398e-15
5.11499e-16
0.00914519
0.0110287
1.20313e-15
0.0132113
1.14415e-14
0.00273131
0.00901036
9.41342e-15
3.70673e-15
6.76389e-15
0.002828
8.08412e-16
8.50096e-16
0.00418969
0.0214345
3.66072e-06
0.00735888
2.07405e-15
3.62653e-15
8.75521e-05
0.000778766
1.8502e-14
0.0102111
1.02697e-13
0.00255867
2.99098e-14
1.86682e-15
0.0122
1.54355e-14
3.69879e-05
0.00363134
3.92989e-15
2.32801e-15
0.00440309
5.3919e-11
0.0522505
7.68573e-15
0.252294
8.2382e-15
1.85601e-14
5.80479e-14
0.00747131
1.24628e-14
1.19755e-14
0.00555239
1.39856e-14
0.000249848
2.4019e-14
2.07172e-14
4.61749e-15
9.69613e-08
0.000780268
6.81784e-15
4.00497e-15
0.0349499
0.000942426
8.71137e-15
0.000405415
7.70703e-15
1.20767e-14
1.70952e-06
0.00289889
0.00129892
1.72753e-14
2.34656e-15
2.27179e-15
4.83864e-15
2.7938e-14
1.00581e-14
1.65589e-15
2.33282e-15
1.67781e-14
5.37312e-15
9.09804e-15
7.90693e-15
1.76834e-14
3.126e-15
6.92134e-16
1.93734e-16
1.06843e-14
5.09799e-15
1.75408e-14
6.15544e-15
2.28664e-15
0.0171956
6.47112e-15
2.61268e-15
1.182e-14
0.00657593
6.97953e-15
1.49552e-14
0.289291
4.91696e-15
3.19666e-15
0.0228658
2.91041e-12
2.40853e-15
0.00769338
0.0243048
1.04501e-15
0.00278258
0.00414962
8.6518e-15
0.0132388
0.0390568
0.0176319
0.00334199
0.0106346
1.12814e-13
1.65803e-14
0.00298315
0.0105705
0.00318746
5.46459e-15
0.00670788
0.00176033
0.0212525
0.0100373
0.000698059
0.0154707
0.000996167
0.0101548
9.65213e-15
0.0244099
0.00839309
0.00163863
0.00140419
3.45889e-15
1.64604e-15
2.72812e-15
1.71413e-14
2.5583e-15
0.00920765
0.0134539
2.41979e-15
1.52261e-15
5.91321e-14
9.60694e-16
5.77405e-15
2.48307e-15
1.25079e-14
7.41394e-14
0.00463327
0.000195094
0.0215899
7.0805e-05
8.61123e-15
8.01258e-14
0.0302417
7.0767e-06
1.86924e-15
1.11677e-14
0.00704022
4.59688e-15
8.84685e-15
2.50437e-06
0.00770688
0.0134969
0.0331561
0.0339792
4.13156e-15
0.0139246
0.00033847
4.24892e-14
2.59081e-15
0.0117463
3.83391e-14
1.47851e-15
0.0160215
1.03455
0.000167759
1.95534e-14
4.0921e-15
0.0171066
0.0198264
0.0176679
0.00551469
0.00415369
4.41983e-15
9.99781e-07
2.59943e-09
7.42411e-14
5.72078e-14
0.0166792
6.22216e-15
0.00197062
0.0247659
0.017349
0.0111318
1.57498e-14
0.00590874
5.80969e-16
6.80576e-15
7.73811e-15
1.0206e-15
0.0024602
0.87199
1.35209e-14
1.78669e-15
4.45339e-06
0.022983
0.00115619
0.00679117
0.0322078
0.00469598
0.0200647
5.79061e-16
1.60762e-14
1.99538e-14
0.0292249
0.00554326
2.82491e-08
3.316e-15
3.14425e-15
1.76374e-15
0.0216834
0.00257661
6.19796e-15
0.00478995
0.0565816
0.00623694
0.00604872
3.23403e-15
4.54796e-14
0.00674401
0.0223355
3.85636e-16
0.000341685
0.0145033
0.000945892
0.0090846
0.00458413
0.00775111
3.10182e-14
0.00323113
0.0203434
0.035173
4.39182e-10
0.0219931
1.72261e-13
0.0159845
0.000150488
1.99533e-15
0.00248429
0.00735657
0.000401117
0.0112582
1.3227e-07
0.000125714
1.4389e-05
0.0400192
0.00356644
8.37443e-15
0.0372289
0.00125256
2.31087e-15
3.42024e-15
4.17015e-08
1.21705e-05
0.00101812
1.06333
0.034178
0.0115609
1.93744e-07
0.04353
1.86075e-14
6.37472e-14
0.00382481
2.27868e-15
0.00194836
0.00392683
0.00211427
0.00450532
1.36472e-14
0.000189101
0.104254
5.01746e-15
0.0156468
0.0072928
1.83152e-16
0.00384874
0.000129967
1.65149e-15
5.40179e-09
8.41966e-05
1.4519e-14
3.56188e-14
1.1139e-16
0.00417215
0.00462442
0.0135912
3.72638e-16
0.00458296
0.0316103
9.54206e-16
0.00773032
0.0119679
0.0231106
0.00145226
1.47412e-15
0.000499735
0.0087871
0.0100635
0.00870255
0.0356661
0.156159
0.00310912
1.43073e-14
7.30195e-06
0.0480235
5.06969e-15
0.000403769
8.49164e-16
1.74348e-15
7.93014e-16
7.02573e-15
7.32687e-16
0.00311478
9.46611e-15
0.00684914
0.00110533
1.38517e-14
0.00367926
1.33875e-13
0.013361
2.73056e-15
2.39046e-05
1.84777e-14
0.0207402
0.000148661
2.23587e-06
0.00405121
0.0272789
0.0159185
0.0037514
0.0259502
5.80187e-12
0.0220465
0.0520023
0.0092967
2.26165e-14
0.00104834
0.000240717
0.00536024
0.00987835
0.000587546
1.53243e-15
2.86556e-15
1.05226e-15
0.00336522
1.08937e-14
0.000300772
0.000207776
0.00165842
0.00024434
1.49086e-16
3.6272e-15
7.10729e-15
0.00829939
0.0201358
0.00114979
8.82084e-06
0.00178169
0.00656792
0.00172442
0.000805795
0.00644304
0.0058578
0.00255582
2.19259e-14
5.05152e-16
1.18067e-14
0.0124282
0.0103802
1.08813e-14
3.35376e-15
8.26594e-15
0.00800257
0.0175038
3.03324e-14
0.00212359
2.76185e-15
6.05424e-07
0.00442788
0.0851842
1.09087e-15
2.50088e-15
0.00350755
4.15493e-15
5.6805e-05
0.0114477
9.75076e-15
0.010307
0.031053
0.0180164
3.80476e-15
0.00140784
5.69169e-16
8.71736e-05
0.0460449
3.54169e-14
4.99219e-16
0.0101829
3.14605e-13
1.50383e-15
4.1283e-05
0.000906923
3.16945e-15
1.49412e-15
2.14724e-14
6.87779e-05
0.00116048
0.00301643
0.0241632
0.00819189
1.84382e-14
6.72072e-07
0.000668092
1.52207e-15
8.63528e-16
2.84227e-16
5.8186e-15
8.02009e-15
4.1192e-15
2.34634e-14
2.17275e-15
9.1902e-15
3.69956e-14
2.59817e-09
7.89177e-16
0.000315875
3.31487e-14
0.000234146
5.3538e-14
6.85147e-05
1.34889e-13
5.2891e-15
0.0268755
0.00862428
3.73041e-14
0.0822356
9.01704e-09
4.54925e-10
1.65928e-15
0.00112834
1.13748e-11
0.00258728
5.77049e-06
0.000810389
2.19937e-15
5.03787e-15
0.00113158
2.20635e-08
1.23174e-15
4.16411e-14
0.0365885
3.13671e-15
0.0351178
1.00301e-14
2.57975e-15
1.71808e-06
0.0263203
0.00747363
3.52853e-15
0.000296011
2.96195e-14
0.00318401
1.79687e-05
0.0016772
4.5012e-06
9.56625e-15
0.0191628
0.00113071
0.00486533
8.92813e-15
2.94012e-15
4.11546e-15
0.0185442
0.00364663
0.0493969
1.36672e-16
4.44598e-07
3.79917e-16
1.11706e-14
3.6754e-14
1.32339e-14
0.00313972
0.00207014
0.00288046
0.29745
1.24237e-14
0.0252952
0.0338225
0.0161233
0.00161963
6.38226e-15
0.00492337
0.0043298
0.00463305
3.0315e-07
0.00954049
3.95415e-15
0.00142316
0.00120869
0.0307701
1.024e-06
0.00321445
7.78024e-15
0.0171921
1.05866e-14
1.58721e-14
0.0015652
1.83285e-15
0.005694
4.01097e-15
1.79371e-15
5.74887e-15
1.51638e-15
1.03128e-14
0.000782391
2.68031e-15
0.000515559
2.0085e-14
2.02935e-14
0.0166205
0.00500955
0.00741767
0.00696031
1.60928e-15
0.548554
7.10252e-16
0.0646236
2.04349e-15
0.0164249
0.0225865
0.00223322
0.0527114
2.72144e-14
8.80122e-14
3.34866e-15
0.00203935
1.60028e-15
1.10117e-15
0.0166778
2.68433e-14
2.09996e-15
0.00512723
2.12217e-14
0.0117278
6.72236e-08
1.13937e-15
2.41668e-14
4.15643e-14
0.00142016
0.00635425
1.50825e-14
0.0218311
0.000331093
4.50657e-15
0.0949047
7.92794e-15
0.0146981
0.0169885
0.00349171
2.02984e-14
0.0169501
0.00949568
0.000831945
0.0050685
0.0115046
1.26835e-15
4.97505e-15
1.72501e-06
4.37856e-16
6.82111e-15
8.6862e-16
0.018581
0.0465069
0.00426296
0.00205929
5.26432e-15
0.0472511
0.0431451
0.00398701
0.00216396
0.00879922
0.019579
0.00258465
6.07259e-15
1.97354e-15
4.15654e-15
0.00676277
7.56403e-15
0.0235139
4.61058e-14
0.000723237
5.44863e-07
0.0024919
0.0206038
2.78657e-14
1.58961e-14
0.00240783
0.000361041
3.96698e-15
6.32403e-14
2.06212e-14
3.5865e-05
0.00029071
0.000141274
0.0007939
0.00961864
0.0822319
1.33528e-14
1.28742e-14
8.49154e-15
0.00366507
0.0167156
0.019028
0.0330579
0.0016743
0.00286732
2.16453e-15
8.82683e-16
2.01178e-13
8.13694e-15
0.00883943
0.0211785
1.71145e-14
1.01352e-14
8.17495e-15
1.45461e-14
2.10174e-14
2.48699e-14
0.013117
1.002e-13
0.00092537
0.395895
1.3744e-14
1.32208e-05
0.0216424
0.00071718
4.47318e-16
2.05473e-14
0.00482044
9.45082e-16
0.0137056
9.33963e-07
0.0232506
1.47783e-14
2.48118e-12
9.09789e-15
1.70127e-15
3.35675e-15
5.42617e-14
0.188936
2.23945e-15
0.00577371
0.00118217
1.58698e-14
4.04809e-14
0.00193801
2.12475e-14
4.41204e-15
0.012226
0.000131829
6.68249e-16
2.19351e-14
5.4586e-15
0.0162017
6.01776e-15
1.12724e-14
0.000425118
0.00257078
0.0030319
1.9062e-14
8.52642e-15
1.4443e-14
0.0036955
0.00181578
0.0124368
0.00358229
1.07405e-15
0.000751871
0.0111736
0.00619141
4.36117e-15
1.54939e-15
3.49684e-15
1.8093e-15
1.65018e-14
0.0295757
0.00494887
0.00562528
3.67637e-15
2.1429e-15
2.1989e-14
4.70476e-15
1.01328e-14
9.9523e-07
0.000205909
0.0021267
1.46374e-14
2.72394e-14
3.70304e-15
2.19701e-09
0.0333788
0.110441
1.10697e-14
7.45692e-10
2.51523e-11
4.06372e-15
9.5877e-15
0.00366169
0.00623987
1.04476e-14
1.82217e-14
0.00273141
6.60027e-15
0.000663873
0.00102252
2.01004
3.01406e-15
8.89972e-15
0.0112773
0.000519842
1.07365e-14
0.639436
0.000575379
0.00606826
4.96236e-15
5.823e-14
5.69537e-15
1.94948e-15
0.00811516
8.94598e-05
3.3943e-14
0.0240882
0.0183516
0.828671
5.26033e-15
6.48436e-15
2.60298e-16
4.94129e-16
0.00650116
7.29387e-08
6.43264e-15
3.34445e-14
0.0179203
0.000786269
0.00464578
1.04914e-14
5.51923e-15
0.0275979
2.78559e-14
2.14276e-15
1.85513e-15
1.84839e-14
0.0206209
2.67531e-14
5.6918e-15
8.70238e-15
0.024832
0.0115568
6.38416e-15
5.70928e-16
4.25723e-15
0.0146602
1.88905e-07
4.94198e-15
1.80768e-15
1.06945e-15
9.16671e-16
0.00230457
0.0106834
1.47382e-15
0.00193135
0.00106311
0.00466094
3.48081e-14
7.83329e-15
1.13735e-15
2.20919e-14
1.55873e-16
0.0184487
8.81151e-14
0.0138312
3.55392e-16
0.0014886
7.25024e-14
0.00234348
3.83686e-15
3.71791e-15
0.00981644
0.156586
3.72176e-14
0.00348775
1.68079e-14
0.000370886
9.28039e-14
1.51788e-14
4.95473e-15
7.80395e-08
4.94148e-15
0.000298004
1.30052e-14
0.0338242
8.06979e-15
3.64199e-15
9.84901e-16
1.30871e-14
7.47182e-06
0.000129705
4.92877e-15
0.00536545
7.73525e-15
0.00267032
0.0175627
0.00124775
1.72688e-15
4.60019e-06
0.000434562
2.12935e-06
0.00412548
3.17107e-07
0.00163132
2.30453e-15
7.40784e-15
4.21675e-07
0.00545731
0.000235825
1.56605e-14
1.20793e-14
5.4351e-15
0.552295
4.07509e-14
7.38849e-15
2.93412e-15
1.92657e-14
4.67048e-16
2.61765e-05
0.000177171
0.000966628
6.54724e-05
1.41229e-12
0.00138271
2.57991e-16
0.00524885
1.30775e-14
6.86692e-15
4.83879e-15
7.07361e-14
1.45385e-05
3.58089e-15
4.76861e-15
2.55665e-14
0.013802
1.44789e-14
3.02934e-16
0.0099108
1.55239e-14
0.0716136
0.119276
0.536577
1.51044e-14
0.191641
1.08867
1.09118
0.613683
2.42852e-14
4.17833e-16
0.00459897
0.00433914
6.44174e-15
0.00939537
2.09417e-15
0.0302848
1.2798e-14
7.98181e-16
0.000683781
2.49473e-14
1.21303e-14
1.00782e-05
3.80876e-05
4.22786e-17
2.10635e-15
2.57324e-06
5.67091e-15
1.7793e-14
1.82406e-05
0.00776161
0.00144345
5.15343e-15
0.00740736
9.1849e-16
0.00327635
4.14102e-07
0.00693421
3.70215e-15
1.40799e-08
0.00536386
1.39321e-14
1.46945e-09
4.73421e-16
0.0301733
1.8345e-14
0.00898286
3.25368e-15
1.93857e-07
5.47037e-16
1.34124e-14
6.00806e-16
7.77672e-10
4.84167e-10
1.12865e-15
0.0112586
0.00856576
3.16755e-15
3.87648e-15
0.0302783
0.0160035
0.171411
1.64391e-14
6.55546e-05
0.02336
0.0429571
5.64687e-08
2.52383e-14
0.0531755
2.26145e-14
0.211986
4.01246e-15
3.79942e-08
3.44465e-08
8.11979e-16
5.37495e-05
3.0447e-14
0.0190883
7.71336e-15
6.12929e-15
3.12226e-15
4.52154e-15
8.65531e-15
6.11544e-15
0.000253018
0.0018236
0.125343
2.22916e-14
1.42879e-14
0.0381637
2.98319e-14
1.71939e-16
9.47024e-15
1.00538e-14
2.61895e-14
0.00545082
5.4414e-15
3.22592e-16
4.22563e-15
0.00302791
5.07143e-14
4.38188e-15
1.40543e-15
0.00301915
6.81339e-15
0.00561713
0.217466
0.00499093
0.00514178
0.0245652
2.2548e-15
4.23786e-14
5.91715e-15
0.00290994
0.00161997
1.41931e-15
1.41243e-14
0.000553787
4.26658e-14
7.73393e-16
0.309885
4.15417e-15
0.0201098
1.51652e-14
0.00217179
0.0030128
2.49501e-14
1.52172e-14
9.61885e-15
1.02069e-15
4.82773e-15
0.0168438
4.34069e-14
0.00430162
5.15351e-15
1.56346e-15
0.00636342
4.97248e-15
0.0116139
4.16037e-14
6.47583e-16
0.00216326
6.56381e-05
0.129386
1.14778e-15
1.55055e-15
1.14788e-15
0.00310006
0.163134
8.80592e-15
1.6812e-14
7.31473e-14
0.00137588
1.05936e-14
0.0178031
0.028496
9.00785e-14
3.38405e-16
0.00660027
1.60813e-14
2.13452e-14
1.09866e-15
2.14394e-14
4.59246e-15
0.0628101
1.22215e-13
1.83191e-14
1.58335e-15
1.19004e-14
5.27442e-15
8.30989e-15
2.0584e-14
1.79335e-15
3.07137e-14
0.00685664
6.20807e-15
0.0078246
2.66494e-14
2.16154e-14
0.533513
0.00249717
6.17243e-15
5.13615e-15
5.37781e-15
0.00220755
2.0143e-15
1.77217e-14
3.80799e-14
5.778e-15
0.00674691
3.7242e-17
0.00437694
3.98955e-14
0.00880553
1.31017e-14
0.0522475
2.04393e-14
1.53261e-15
0.0197686
9.69688e-15
2.20407e-15
0.0245717
0.00025471
5.10146e-15
1.39441e-14
0.0331171
0.00917463
0.0058947
0.00076348
0.00165652
0.0159752
0.000929696
0.0044135
4.69171e-14
0.0263421
3.58331e-15
1.70504e-14
1.48087e-14
1.22702e-14
3.32725e-14
0.00950373
3.68752e-14
9.86392e-16
4.3882e-15
3.82761e-06
7.72935e-06
7.73996e-15
0.00211722
2.21535e-15
0.00388311
1.09347e-15
1.18489e-06
0.00286516
1.7003e-13
0.041213
2.74367e-15
3.94486e-16
1.13732e-15
0.00269698
0.00116144
5.52358e-15
8.01844e-15
0.00226347
8.42294e-17
0.609538
5.37288e-15
0.0927675
2.14148e-15
6.45167e-15
2.58028e-15
1.23041e-14
0.00905792
3.08608e-15
3.48635e-05
2.27601e-15
0.00896096
9.37337e-15
4.74476e-15
5.05306e-12
1.89301e-13
9.56142e-15
5.51001e-14
3.27422e-14
8.63875e-15
0.00386361
0.173261
1.4262e-14
1.75332e-15
0.000334396
2.58731e-14
9.02878e-15
1.0251e-06
0.0156652
0.000138061
6.1199e-15
0.000617221
0.00302715
0.00484227
0.00757888
2.86393e-14
7.61315e-15
3.57604e-14
1.82923e-15
2.36605e-16
1.23848e-14
1.14087e-15
3.57691e-15
8.9628e-15
5.50424e-15
5.20709e-15
3.87791e-15
0.0686871
2.46282e-15
9.77215e-16
7.25352e-11
1.06399e-15
1.61775e-14
1.01299
3.26061e-15
2.07312e-15
0.0018505
2.06006e-09
4.57663e-15
2.30294e-14
2.42834e-15
0.0210061
3.64992e-15
1.65846e-14
4.74473e-08
1.03225e-15
8.92659e-15
1.25744e-15
1.12855e-14
0.109278
1.90407e-15
0.000152825
2.39327e-15
1.47114e-15
3.5936e-15
2.13671e-14
6.58203e-15
1.63739e-08
3.09009e-08
0.000102879
5.56054e-16
2.03148e-15
1.50135e-14
8.78462e-08
6.85521e-15
2.75943e-07
9.22268e-09
7.48348e-15
4.12836e-15
2.35885e-15
5.03196e-09
2.3013e-15
2.8853e-15
2.11746e-09
6.42884e-14
0.0290753
5.24496e-15
0.00658016
5.03687e-14
2.13302e-06
9.46826e-16
0.00132811
3.06466e-15
0.00380103
0.024117
2.71465e-14
0.00235927
1.34582e-05
5.93622e-15
0.010128
3.37155e-15
4.1678e-16
1.5187e-14
2.47784e-15
9.9022e-15
1.79758e-15
3.32951e-16
1.05041e-14
0.26511
2.76954e-15
2.12382e-14
1.91538e-15
1.30553e-15
9.69381e-17
0.029968
0.769114
2.94886e-06
1.02457e-05
8.31356e-15
0.00196387
0.00136639
1.89496e-14
2.89268e-14
6.77456e-16
5.14542e-15
1.00118e-14
2.32501e-14
2.0216e-14
3.78904e-15
0.000367049
6.8057e-14
7.08079e-15
0.00021598
3.49648e-06
4.78505e-14
0.0244544
2.97179e-15
1.20657e-14
1.77505e-15
0.161073
4.39549e-14
2.37096e-15
0.0245758
9.43737e-16
3.47067e-14
2.00147e-15
1.85986e-14
0.0524709
1.12745e-15
6.18935e-16
8.8129e-15
2.95154e-15
0.0056681
0.225488
0.028055
0.0420281
0.0036406
0.00024393
9.42564e-16
7.70538e-15
0.136143
0.00125158
5.95796e-14
8.62617e-08
1.40686e-15
7.91888e-11
2.0874e-14
0.205909
1.18191e-14
1.37312e-15
0.00022313
1.94825e-10
7.62181e-16
0.00975972
5.21552e-15
4.09455e-14
0.197327
0.0297197
3.20308e-15
2.04439e-15
3.97524e-15
2.22999e-15
3.45859e-15
8.92824e-15
6.74673e-16
6.95961e-16
0.0030936
2.25214e-15
1.01135e-14
1.08956e-14
1.36001e-05
1.51342e-14
6.17679e-15
4.97532e-14
2.0635e-15
8.56394e-16
1.62156e-15
0.00328284
1.51172e-15
1.58264e-16
0.00493548
2.03322e-15
0.000363563
0.0045252
1.35022e-14
0.0033643
1.57496e-15
1.35474e-15
1.89986e-15
5.53832e-15
2.5941e-15
4.13594e-14
3.53806e-14
1.61592e-14
0.00230859
6.81282e-15
7.96204e-16
1.02411e-14
1.58059e-14
1.317e-14
4.80358e-14
0.0357111
8.09449e-17
3.79101e-16
0.337223
7.58791e-16
1.45921e-15
9.0147e-15
0.00123013
1.15082e-15
5.77494e-06
8.85364e-16
5.05591e-05
0.00798293
1.84347e-15
5.18543e-14
0.0401559
1.27739e-14
2.15655e-15
0.000122999
6.87281e-07
0.00981691
2.22137e-06
8.53036e-07
1.22729e-07
7.23253e-15
8.8995e-16
0.000993654
0.000123944
0.0162205
0.0120125
2.96743e-05
6.48589e-15
0.00548667
0.00513799
0.0183863
2.59063e-14
0.0122114
0.0166379
0.00270112
0.00137135
0.00119161
0.00324339
0.0190251
0.0404555
0.0071208
0.0110084
0.00796869
3.66436e-15
0.0028711
0.0036217
0.000832026
0.00261706
0.0142202
0.013712
0.0195256
6.13111e-15
0.011085
1.69296e-14
0.00499365
0.00280281
0.000279397
0.00235073