/*--------------------------------*- C++ -*----------------------------------*\
  =========                 |
  \\      /  F ield         | OpenFOAM: The Open Source CFD Toolbox
   \\    /   O peration     | Website:  https://openfoam.org
    \\  /    A nd           | Version:  10
     \\/     M anipulation  |
\*---------------------------------------------------------------------------*/
FoamFile
{
    format      ascii;
    class       volScalarField;
    location    "16";
    object      T;
}
// * * * * * * * * * * * * * * * * * * * * * * * * * * * * * * * * * * * * * //

dimensions      [0 0 0 1 0 0 0];

internalField   nonuniform List<scalar> 
111485
(
303.15
285.091
300.958
303.15
298.392
283.15
298.902
293.387
296.286
286.224
300.497
296.183
300.185
284.558
299.958
286.732
299.331
297.442
294.01
303.15
303.15
283.15
297.218
288.675
301.585
303.15
293.16
300.625
288.817
303.15
300.78
294.325
303.15
283.15
283.446
283.15
302.311
297.565
283.149
296.586
283.15
289.559
297.009
302.873
303.192
303.15
287.34
288.534
289.594
303.15
303.15
283.15
303.15
298.894
303.15
293.465
287.873
283.15
283.319
295.42
295.821
303.15
302.044
300.22
283.15
284.55
300.156
291.503
302.095
302.516
303.158
301.876
303.15
302.095
303.15
295.371
283.15
293.409
283.15
283.15
283.236
293.327
283.15
303.15
300.286
284.212
283.15
301.537
303.115
299.069
283.334
289.559
300.837
300.386
289.764
303.15
303.15
301.537
303.149
283.416
303.15
286.618
283.15
285.152
285.72
283.15
283.15
293.062
301.422
283.147
298.873
288.005
301.265
301.669
303.15
301.96
303.15
283.15
300.115
303.15
303.15
283.15
283.15
283.15
283.391
303.151
283.15
301.793
303.15
283.176
303.1
301.925
303.15
283.15
283.15
292.469
283.15
294.158
298.776
301.086
303.135
296.792
298.956
284.764
302.275
297.758
283.15
303.15
283.15
297.106
284.926
303.15
303.144
287.276
283.156
293.676
295.598
302.52
283.154
303.15
303.15
292.14
286.223
283.153
283.157
301.163
283.684
283.15
283.152
283.152
283.15
303.15
283.207
283.15
291.519
287.15
283.15
303.15
303.15
283.15
303.15
303.15
297.619
293.454
295.744
289.701
301.348
300.394
283.19
303.15
301.426
303.15
303.15
300.13
286.251
301.383
301.327
295.697
303.15
300.857
284.586
283.16
300.736
297.056
303.15
300.387
288.181
303.15
283.225
300.159
284.802
300.665
303.15
303.15
300.679
283.15
292.744
283.15
300.584
298.643
290.32
303.15
301.728
300.531
283.15
283.15
283.15
289.488
283.157
283.15
303.15
298.595
291.325
289.848
283.15
303.15
303.109
303.15
284.324
300.06
299.218
299.475
299.345
283.15
283.144
298.831
283.15
283.15
288.735
288.315
283.15
301.152
298.846
303.15
283.15
301.065
303.15
303.15
303.121
303.15
288.243
285.85
290.72
303.15
298.299
303.15
303.15
303.15
283.148
298.033
300.954
299.391
291.183
299.444
296.206
283.211
290.283
291.521
283.15
303.15
283.149
292.425
298.736
286.443
303.15
297.973
297.239
298.852
302.957
283.166
297.058
299.326
302.023
283.15
283.607
283.15
283.149
303.15
283.866
290.247
286.258
303.15
283.15
297.562
285.232
303.15
303.15
303.15
284.562
290.195
301.034
284.4
292.973
283.15
283.15
303.15
298.326
303.15
283.808
289.443
283.153
283.15
303.15
303.15
283.15
294.301
289.935
283.15
295.662
283.15
303.15
301.016
297.257
293.968
295.771
283.15
283.15
283.15
296.565
290.949
302.381
283.15
283.15
283.15
290.048
296.91
283.212
290.426
283.15
292.742
299.522
284.188
298.613
285.234
283.15
303.15
283.15
303.15
290.646
296.683
287.922
291.903
283.15
286.323
283.15
303.15
293.769
303.15
301.731
303.15
283.15
291.905
283.15
288.722
284.617
283.15
283.977
297.983
283.15
300.125
284.671
298.808
303.019
290.991
285.987
283.15
303.15
303.144
283.15
300.966
300.805
283.15
283.15
294.715
284.348
298.151
296.887
283.15
295.048
296.055
283.15
302.053
283.885
303.15
303.15
288.191
298.553
283.15
303.15
303.15
303.15
300.731
283.15
303.15
293.944
283.17
286.871
299.924
283.15
283.15
302.613
283.15
302.451
301.407
297.805
288.584
283.15
293.846
303.378
303.15
298.601
292.258
303.15
283.15
283.305
283.15
289.992
286.065
291.581
283.15
292.805
296.557
292.997
303.147
283.15
303.15
303.15
283.168
292.664
283.15
284.313
303.131
283.15
303.15
303.15
303.15
301.856
290.453
285.972
284.187
284.296
283.15
285.679
303.15
300.692
283.15
303.15
303.15
300.635
303.15
303.15
283.151
303.15
283.15
300.637
283.15
283.15
283.15
303.15
283.15
303.15
283.15
283.665
283.15
303.129
301.868
283.744
283.15
303.085
283.15
303.15
284.689
284.66
286.092
297.483
283.15
297.445
297.556
292.223
286.767
285.243
303.15
291.691
283.15
299.826
283.15
296.751
283.15
292.015
298.513
303.151
283.15
286.748
303.15
295.473
299.047
283.15
283.15
283.15
283.15
303.15
293.638
283.15
283.15
283.238
283.15
299.778
283.15
284.775
303.15
283.429
303.119
284.633
291.845
283.15
301.428
283.15
283.15
285.668
283.15
283.256
283.15
299.639
303.15
290.626
303.15
283.15
302.391
284.449
300.049
285.626
300.048
289.443
283.15
300.593
284.524
283.15
283.141
300.286
301.567
283.15
282.468
301.03
303.059
283.119
303.15
287.546
302.161
284.385
285.359
288.134
282.578
283.15
303.15
300.599
303.15
283.55
283.15
283.15
291.727
282.685
303.149
303.115
283.15
286.237
299.566
283.15
283.15
299.586
303.15
283.15
283.15
283.15
286.121
283.15
303.15
284.799
284.217
303.15
299.689
283.15
289.226
303.15
283.15
286.117
283.15
283.15
283.15
285.344
283.15
285.42
291.923
303.15
300.342
283.442
298.661
300.939
283.304
283.455
283.15
288.925
298.411
303.15
302.257
295.995
296.844
284.707
297.41
297.168
303.15
300.209
303.134
283.15
297.105
284.821
283.15
292.334
295.676
284.838
298.734
300.605
292.292
283.15
298.879
283.462
303.15
300.568
301.96
294.051
283.15
286.442
303.15
283.15
283.15
283.15
283.302
283.15
303.15
303.15
283.15
300.407
299.212
303.15
285.589
303.15
303.15
303.15
289.998
283.42
283.15
303.15
283.15
283.15
286.793
292.34
283.15
295.089
283.137
283.15
295.26
302.205
287.718
283.15
283.15
300.226
292.041
283.15
283.15
283.15
293.947
303.15
303.15
283.15
296.197
302.358
283.15
282.378
301.708
286.495
283.15
283.15
287.443
302.961
283.15
283.159
287.202
283.756
288.757
283.15
285.683
300.246
283.15
303.15
283.15
283.15
283.15
283.15
295.619
303.15
283.15
283.15
295.232
291.762
303.15
303.15
289.79
298.365
298.265
303.15
283.15
297.933
303.15
283.824
298.796
298.306
303.15
303.15
303.15
283.15
286.028
283.15
283.15
302.707
303.15
297.768
302.254
283.15
294.007
283.268
296.388
291.946
283.419
289.731
283.15
283.15
296.833
288.029
290.811
283.15
283.15
297.642
294.911
283.15
283.898
284.575
283.469
303.15
303.15
303.15
290.713
283.15
300.019
283.15
284.356
297.558
298.462
292.218
283.15
283.15
303.15
295.33
283.15
283.15
303.099
283.15
283.15
303.15
283.15
299.278
283.15
283.15
283.15
283.15
283.15
303.15
283.15
283.172
298.743
303.15
302.53
283.131
283.393
283.095
285.502
283.15
284.431
290.5
283.393
303.15
283.149
299.698
283.15
300.216
283.145
283.144
286.183
297.445
283.209
291.869
298.013
283.15
283.15
299.02
299.761
283.15
297.301
291.236
297.58
283.15
283.244
283.15
297.884
297.012
283.15
300.039
297.661
283.149
299.739
283.15
295.601
283.145
303.127
283.162
283.16
283.15
283.15
284.423
283.15
302.966
283.581
283.061
303.147
303.149
303.147
283.15
283.15
293.765
303.15
303.196
283.855
283.15
283.15
303.154
303.149
283.15
303.165
283.15
283.15
303.15
303.15
303.15
303.15
283.364
283.15
283.15
283.15
303.157
283.302
283.88
293.419
283.15
283.15
283.331
283.15
283.15
283.15
287.21
293.547
283.15
283.15
283.15
283.15
283.15
283.15
283.994
283.15
303.15
291.531
283.15
303.15
303.15
303.153
303.15
303.15
283.15
303.171
283.15
283.687
283.145
303.152
283.15
303.061
284.38
292.04
303.15
303.128
284.43
303.15
283.15
303.15
283.15
293.992
293.429
284.615
303.148
283.15
293.18
283.15
283.15
303.15
283.15
294.805
283.15
303.15
283.163
298.121
303.15
284.366
283.15
283.569
283.15
283.15
283.15
303.15
285.803
283.469
284.153
283.15
283.15
285.601
283.15
283.15
303.15
284.326
303.164
298.513
303.15
303.127
303.127
283.15
303.129
283.15
283.443
289.098
301.046
283.789
283.166
283.15
283.15
283.15
303.184
283.15
302.897
303.15
292.661
303.15
288.7
283.82
303.15
283.15
303.15
283.15
301.771
303.15
303.15
286.371
300.531
283.15
283.15
283.15
283.15
283.15
283.15
300.783
283.573
303.15
303.15
303.157
303.15
300.167
284.412
283.15
302.099
303.15
301.607
283.15
302.565
283.15
283.148
303.152
283.312
302.1
300.199
283.147
283.15
289.33
303.15
293.337
303.15
283.15
303.15
283.15
283.15
283.15
300.779
302.041
303.15
303.15
303.15
302.902
283.15
303.15
292.844
283.086
303.15
297.503
298.336
296.458
283.374
283.15
283.15
283.15
283.15
294.59
283.15
294.783
283.15
303.057
289.818
283.15
302.856
283.15
283.15
302.73
283.148
302.913
283.15
303.15
283.15
302.381
283.15
303.15
283.15
283.148
283.15
283.17
283.15
283.15
303.15
292.987
301.086
296.07
296.978
303.15
303.115
283.15
283.15
285.649
283.15
283.158
302.84
298.785
302.937
303.15
283.359
283.15
303.15
283.15
302.989
283.316
298.33
283.15
303.15
288.054
303.15
283.15
283.126
295.034
283.147
283.15
283.15
283.149
303.15
283.15
303.141
303.15
303.15
289.88
302.983
302.991
288.955
293.208
283.15
283.15
303.084
289.026
283.15
303.15
284.724
283.15
303.15
283.15
283.15
283.15
297.371
283.15
302.936
283.15
300.454
283.15
283.15
283.15
283.15
283.15
283.15
285
283.15
283.15
283.15
283.15
283.15
283.15
291.949
283.15
298.4
302.93
283.15
302.341
283.15
302.509
303.145
292.3
288.776
303.15
292.164
284.757
303.109
303.15
303.14
295.075
288.654
283.15
287.873
283.15
283.15
283.15
283.15
287.499
283.15
283.15
291.646
303.135
285.305
283.15
283.15
302.529
283.15
283.183
303.15
299.892
283.15
283.15
302.823
283.15
303.178
303.15
283.15
289.04
298.015
292.706
285.63
292.52
294.087
283.15
283.15
302.275
290.579
292.729
284.398
283.15
294.399
283.15
303.15
300.707
298.756
283.15
297.425
283.15
292.754
297.173
303.15
283.15
283.15
301.758
283.15
283.15
300.476
296.134
283.197
291.214
283.15
283.15
302.789
300.495
283.15
300.622
283.15
300.477
283.15
283.15
300.78
283.15
283.226
301.584
283.15
283.15
302.425
283.15
287.886
303.15
290.335
303.15
303.15
303.15
300.924
283.15
283.15
299.509
283.15
302.985
283.15
283.15
303.15
283.151
288.177
283.15
283.15
288.04
288.22
283.15
283.671
283.15
303.15
302.414
283.708
301.549
283.15
283.15
283.15
283.15
283.15
283.15
283.15
283.15
283.15
283.15
283.15
303.15
283.15
283.15
283.15
283.15
283.15
283.15
283.15
283.15
303.15
286.923
283.15
283.15
283.15
294.666
283.15
303.15
302.907
283.15
283.15
294.67
283.15
283.15
301.8
295.148
283.15
303.667
303.599
283.15
301.465
293.92
297.508
301.456
298.114
303.15
283.15
296.42
291.712
301.399
283.15
302.129
302.414
300.85
288.025
287.305
301.038
301.769
301.768
303.15
285.856
297.512
285.494
297.215
283.15
283.15
283.15
303.15
283.15
291.936
297.896
283.15
283.15
283.15
283.15
283.15
303.15
283.15
303.15
292.123
303.111
298.993
302.841
283.15
283.15
285.381
283.168
283.15
283.15
301.735
303.15
283.15
298.133
299.492
297.5
298.613
300.782
303.15
291.034
302.574
303.15
303.15
300.292
303.15
283.15
282.988
295.525
302.944
283.15
303.15
289.557
286.147
297.17
292.135
302.385
303.15
303.136
303.15
303.15
283.15
298.995
283.15
291.743
290.435
299.664
284.751
303.15
301.909
303.15
283.15
303.15
303.15
291.476
299.515
283.15
303.15
303.132
291.722
303.028
299.328
292.77
288.31
292.871
283.15
303.15
283.15
291.207
298.273
303.151
303.15
303.15
303.15
297.466
302.568
283.15
299.95
301.124
284.843
299.492
303.15
303.15
298.657
292.921
283.15
302.897
299.689
302.61
291.918
297.279
298.214
303.15
286.971
298.197
291.302
283.15
289.026
303.15
288.37
301.037
303.15
288.692
301.258
300.092
293.132
283.149
283.16
283.239
301.621
300.896
303.15
288.808
301.459
303.15
283.15
303.15
303.209
298.723
290.638
296.758
303.258
283.149
297.435
303.15
303.15
292.75
303.15
300.301
283.301
301.298
291.527
303.15
283.653
293.174
303.15
283.062
298.655
303.15
300.674
286.241
303.15
303.15
283.987
303.15
283.15
283.15
285.906
299.249
291.144
303.15
285.185
297.438
283.15
298.822
298.856
288.954
303.105
283.15
301.523
299.659
298.822
300.059
288.65
290.741
302.49
303.15
301.534
288.704
303.15
298.832
283.15
283.15
303.15
283.15
303.15
297.431
283.15
300.505
283.636
303.15
283.792
283.15
289.826
303.15
303.144
303.15
294.114
302.999
303.118
299.836
290.399
289.419
290.577
298.377
303.15
299.36
292.124
298.913
303.15
283.869
283.445
299.222
287.149
283.507
303.15
283.15
303.15
285.292
303.15
303.334
284.682
303.383
302.956
303.15
303.15
283.15
300.523
300.672
285.455
303.085
286.989
295.639
301.876
292.463
288.11
302.078
296.072
283.15
283.15
303.15
285.8
289.679
283.15
283.15
303.15
301.983
288.658
303.15
296.369
303.15
283.156
285.155
301.163
303.15
303.15
292.235
303.15
283.298
290.6
283.15
297.131
294.619
296.123
303.15
302.705
283.15
302.664
293.383
303.15
303.15
288.781
283.15
303.15
301.786
284.432
303.15
303.15
283.15
302.336
303.474
289.437
299.669
298.107
303.15
303.159
302.59
303.15
283.15
303.15
303.15
303.15
303.15
303.15
303.15
303.15
283.15
303.15
303.15
283.338
303.15
303.345
303.15
303.161
303.15
303.15
300.901
303.682
303.15
291.958
303.15
303.15
283.15
302.551
303.15
302.137
303.114
283.29
283.15
303.15
302.567
283.149
303.15
303.15
291.322
283.15
292.547
283.15
283.15
283.153
291.173
284.826
303.15
296.636
283.15
303.763
303.133
284.31
302.587
283.15
292.122
303.083
301.655
283.15
303.15
283.15
304.12
284.813
296.888
303.15
303.15
303.15
303.15
303.15
303.15
302.345
302.808
297.591
292.01
303.15
287.124
292.599
284.97
303.208
283.15
286.897
302.752
284.761
283.148
287.458
303.15
283.382
302.92
292.487
302.846
301.869
303.15
302.248
303.15
303.15
297.923
303.15
284.467
303.15
303.15
283.15
303.15
303.15
302.845
303.15
283.297
283.15
283.15
285.803
284.85
300.926
286.093
303.15
294.643
303.15
290.418
303.15
287.126
300.661
301.465
293.3
303.15
303.15
303.15
289.797
283.15
303.15
289.549
283.15
283.15
301.805
303.15
286.164
283.148
283.15
303.15
303.15
300.647
298.164
303.15
293.381
303.034
283.15
298.596
303.15
286.398
288.21
302.135
303.15
296.278
296.767
302.951
301.872
301.644
303.15
303.15
303.147
303.15
283.15
303.15
289.551
300.201
294.31
302.116
283.15
300.349
291.351
298.217
283.592
298.289
289.576
302.152
283.15
283.15
283.15
302.199
283.15
290.415
283.15
301.239
303.162
289.706
298.053
283.15
303.15
301.227
301.204
303.15
283.15
303.15
286.412
301.426
302.975
302.331
297.998
288.421
303.15
303.15
303.15
294.199
285.955
289.765
295.845
283.954
302.955
303.15
303.15
283.15
283.15
285.417
299.586
303.15
303.15
283.15
303.15
303.15
303.15
300.232
303.15
285.337
292.285
283.15
283.248
293.344
285.68
303.15
303.15
301.875
303.15
299.198
283.147
297.541
303.15
303.15
283.15
303.15
303.15
303.15
305.187
303.15
301.826
301.126
303.15
303.15
301.601
303.15
283.15
287.228
303.1
303.15
303.15
303.15
297.904
303.15
303.15
302.425
302.482
301.764
303.15
283.15
303.15
302.033
302.507
301.51
302.528
283.15
300.643
287.455
297.43
283.15
303.15
303.15
303.15
303.15
294.33
287.55
299.681
303.15
303.15
303.15
303.15
283.15
303.148
284.759
285.14
283.15
303.15
303.15
283.148
299.549
294.849
283.15
303.15
303.15
303.15
303.15
289.593
289.647
303.15
303.15
302.407
303.15
301.465
283.946
291.83
303.15
283.15
301.185
303.122
303.15
303.035
301.301
286.819
303.15
303.15
303.15
303.15
293.274
284.139
303.15
302.686
298.037
289.32
303.15
303.15
303.15
303.15
299.542
303.151
303.15
303.15
298.239
302.6
288.316
303.15
303.15
297.728
303.15
303.15
303.15
303.15
288.789
303.15
283.15
283.15
295.901
291.066
303.15
303.15
303.15
296.996
303.146
303.15
303.15
303.15
303.15
303.396
300.85
303.15
287.32
302.64
299.367
303.15
303.15
303.15
303.15
283.15
285.651
303.15
302.845
283.15
302.17
303.15
303.134
303.15
283.15
301.955
285.623
283.15
302.829
303.15
302.41
283.15
303.15
303.15
303.151
303.15
283.272
303.15
290.821
283.15
283.15
303.15
303.15
298.817
302.363
283.15
302.407
283.15
284.098
287.948
302.694
283.15
303.155
302.983
303.133
284.389
283.156
302.982
283.15
283.15
283.156
302.065
302.283
303.15
283.15
283.15
295.269
303.15
283.15
303.15
303.15
303.15
303.108
303.045
302.923
302.436
303.15
302.902
303.15
284.784
303.15
303.15
283.15
303.15
303.111
303.15
283.15
303.15
288.296
303.15
303.15
303.172
283.15
302.823
302.004
296.667
303.15
289.253
294.345
283.797
289.92
283.15
283.15
287.189
284.306
283.15
303.832
283.15
286.39
303.15
283.15
303.155
303.15
303.15
303.014
303.155
303.15
283.15
303.138
303.15
283.15
283.106
298.7
302.694
303.15
301.825
303.15
285.689
303.152
301.156
303.15
303.15
301.019
303.15
303.15
303.15
287.673
303.15
285.129
303.15
303.147
303.15
283.15
283.15
303.15
303.15
303.15
288.682
302.538
303.15
303.15
288.565
286.492
291.153
303.15
302.692
287.651
287.514
303.15
303.15
287.623
283.15
291.875
303.15
303.152
303.149
303.15
300.504
283.15
302.321
283.15
303.15
303.15
303.15
303.15
303.15
284.312
302.236
291.021
303.15
303.15
290.549
303.15
303.15
303.15
303.15
303.15
300.128
303.15
303.15
283.15
299.433
303.15
283.15
303.15
301.351
283.15
299.934
290.704
302.68
299.997
299.416
303.15
303.15
303.15
300.823
288.443
283.15
303.15
300.293
303.15
303.15
291.958
303.15
287.457
303.15
297.803
284.307
303.15
283.15
303.15
303.15
303.15
285.234
303.15
300.465
303.15
303.15
299.676
283.15
284.714
303.15
303.15
288.08
301.555
296.397
303.15
303.15
303.15
301.571
292.186
303.15
283.15
303.15
300.651
303.15
284.737
296.279
303.15
303.15
301.118
303.15
303.15
283.15
303.15
283.15
294.53
303.15
283.15
303.15
303.15
303.15
303.15
303.15
303.15
283.15
301.522
283.15
302.063
303.15
303.15
296.087
300.45
303.15
283.15
303.15
300.858
283.15
303.15
303.15
303.15
300.713
303.15
297.634
303.15
285.82
283.15
286.705
303.15
303.15
298.489
283.15
303.15
287.812
283.246
303.15
303.15
285.073
283.834
300.825
301.715
301.165
293.149
301.721
283.836
303.15
297.671
283.15
283.15
303.15
303.15
303.15
301.193
303.15
303.15
303.15
303.13
283.169
283.15
283.559
303.15
301.997
283.15
303.142
296.058
283.15
294.521
303.15
303.15
283.15
299.859
283.917
303.15
283.15
299.887
303.15
297.681
303.15
295.214
303.15
283.15
303.15
283.15
299.4
283.15
283.224
283.15
286.171
303.15
303.15
283.15
283.15
303.15
303.15
303.15
303.15
284.855
284.713
283.15
303.15
283.233
283.15
283.15
303.154
289.845
283.539
283.15
301.48
284.868
300.459
288.149
303.15
303.15
303.15
303.15
283.15
283.15
283.15
303.15
283.15
283.15
303.15
283.15
297.196
283.15
303.15
283.15
303.15
303.15
283.316
283.15
303.15
301.928
303.149
303.15
303.15
303.15
288.699
283.15
303.15
303.149
283.15
303.15
303.15
303.15
295.299
283.15
283.179
303.15
303.15
303.15
303.15
303.15
303.149
303.147
284.098
303.15
283.15
303.15
303.149
303.15
303.148
303.149
283.15
283.15
283.15
303.15
303.15
283.15
303.149
283.15
287.686
283.15
301.783
283.15
303.154
303.15
284.588
283.15
284.433
297.357
303.15
284.671
303.173
303.15
297.367
283.15
303.15
303.15
303.15
303.15
283.15
303.15
303.15
299.124
283.15
303.15
303.15
303.15
303.15
292.316
290.256
303.171
283.164
303.15
301.801
302.312
303.15
283.15
283.15
303.15
303.15
303.15
283.15
283.15
283.809
303.15
303.15
303.198
303.151
283.15
288.834
303.15
283.15
303.15
287.999
303.15
283.15
302.095
283.15
283.15
283.15
303.15
299.625
303.15
303.15
303.15
283.15
284.483
293.518
295.165
289.522
303.118
303.014
283.15
283.15
301.044
283.684
283.15
303.149
303.15
303.15
283.15
294.48
303.15
283.15
302.974
303.15
303.15
283.782
303.15
303.15
288.351
289.513
303.15
283.15
303.15
283.15
303.15
303.15
303.15
303.15
283.936
303.15
303.15
303.15
302.922
303.15
303.15
283.15
283.15
283.15
283.15
302.935
283.15
283.15
300.934
303.15
284.746
284.904
303.15
301.097
303.15
283.15
303.15
283.15
283.15
303.15
303.15
303.15
302.657
303.15
303.15
303.15
283.15
303.15
283.15
286.352
303.15
303.15
291.565
303.15
283.15
283.15
302.407
303.15
303.147
283.15
303.187
286.634
283.15
283.15
299.166
283.15
283.15
303.051
303.161
293.317
303.167
303.151
303.153
283.15
283.15
302.634
283.445
285.792
300.843
283.157
283.15
291.027
301.556
301.457
283.15
300.208
290.685
300.137
302.198
302.726
284.657
295.437
299.188
286.244
293.286
300.094
303.15
298
297.533
302.778
283.662
292.294
301.139
287.316
303.15
300.996
303.15
300.702
301.473
283.635
284.974
303.15
283.15
302.29
301.663
283.145
303.173
288.534
302.673
301.816
300.796
303.15
303.233
301.109
294.986
300.433
288.88
302.904
301.655
302.199
302.262
284.209
302.492
301.571
283.178
303.15
302.89
303.15
303.15
302.074
301.983
294.256
303.15
284.664
292.251
292.318
300.826
303.15
283.995
285.179
284.388
303.15
298.756
303.15
296.415
295.324
300.706
303.142
303.15
303.15
301.92
301.232
302.775
303.15
292.592
302.74
289.936
283.15
298.373
293.973
303.15
300.519
283.15
283.203
283.15
302.557
303.095
303.15
302.982
298.348
283.148
300.498
302.213
295.328
283.527
295.796
297.021
283.453
303.132
284.731
296.355
283.318
296.808
300.467
300.218
300.331
301.973
289.689
301.553
303.15
302.718
302.648
302.662
296.558
302.892
283.15
302
293.437
303.15
283.426
286.833
301.187
302.583
290.504
284.813
287.666
302.609
296.338
303.15
303.15
294.959
283.15
292.616
283.423
303.15
290.55
290.226
283.906
303.15
297.26
298.534
284.225
301.216
294.18
290.159
300.518
303.112
303.15
303.15
283.526
302.604
283.342
285.783
303.15
303.02
303.035
303.15
285.398
300.852
297.816
283.244
299.516
302.351
300.48
286.887
283.15
303.104
301.792
283.73
283.136
303.15
303.072
303.15
303.15
284.176
302.526
296.424
283.036
283.153
303.15
283.15
302.95
303.042
302.493
301.392
303.15
283.15
283.15
301.806
301.862
283.212
295.925
303.15
303.15
301.599
285.486
283.259
301.662
301.766
301.706
284.384
303.15
283.15
298.498
297.736
303.15
302.691
302.062
284.66
284.967
302.095
303.058
303.15
298.126
284.413
283.15
303.15
300.583
301.196
301.998
289.597
302.056
285.649
300.13
300.312
290.324
297.51
303.15
303.15
300.915
284.452
302.073
283.151
300.463
301.685
283.625
288.279
302.407
283.15
283.15
283.029
303.15
303.15
299.926
298.922
302.267
283.147
283.15
283.929
283.151
283.15
283.151
303.078
300.9
299.129
295.844
283.363
303.092
300.107
303.15
283.15
302.547
289.227
300.778
292.702
283.506
303.058
283.148
283.15
302.829
301.19
302.601
283.155
291.212
284.873
303.15
284.24
301.019
283.15
283.306
284.933
284.124
283.15
283.15
301.621
283.15
289.353
302.518
302.694
301.78
283.472
298.2
290.018
283.15
303.345
292.037
283.15
283.15
283.15
303.15
301.212
302.403
299.152
301.446
299.923
288.828
283.154
290.977
290.151
303.059
291.038
299.98
292.059
283.15
286.285
301.058
301.553
283.15
283.982
299.64
283.15
303.15
283.186
301.257
303.15
284.003
302.264
303.017
303.15
283.15
292.779
303.153
301.676
283.15
283.15
283.15
302.175
297.545
303.143
302.183
303.167
303.15
288.342
303.167
290.427
300.2
300.159
296.542
283.156
301.68
283.15
290.571
301.395
289.422
290.474
298.945
300.682
301.578
287.163
291.139
284.997
283.171
302.201
286.105
283.15
283.144
300.178
283.08
300.274
286.974
296.08
299.408
289.178
299.252
283.121
299.181
283.15
289.936
288.965
298.631
283.326
283.15
300.533
283.15
302.791
283.15
303.15
286.457
286.457
283.15
298.964
298.593
287.014
303.15
303.15
301.698
289.779
302.989
283.725
301.558
287.077
303.147
284.177
288.164
303.15
301.402
283.15
283.15
287.543
286.987
283.145
285.244
301.479
286.219
301.234
303.15
285.107
301.73
291.184
303.15
303.15
301.594
302.029
303.15
292.974
294.287
283.656
296.358
286.748
289.995
303.15
302.77
296.997
284.99
283.15
287.703
291.845
299.603
283.162
283.748
282.951
301.934
303.116
283.151
303.133
303.15
300.569
293.02
298.798
293.813
283.15
291.941
295.93
285.565
283.212
291.469
283.15
300.307
303.164
292.508
284.097
303.143
291.845
298.58
288.228
300.363
291.332
287.308
283.15
303.142
285.321
289.868
293.439
283.15
283.15
283.15
303.141
283.15
283.137
286.402
303.15
283.15
303.167
283.173
291.115
288.816
303.543
302.907
289.842
303.15
296.945
303.177
301.995
287.253
283.15
292.87
303.145
303.092
286.154
283.15
283.15
283.467
286
303.051
303.143
287.491
289.456
283.477
283.163
289.837
293.209
303.15
283.15
303.095
303.15
302.323
285.001
302.336
303.092
284.055
283.77
284.04
302.859
302.159
297.407
294.021
303.067
291.242
291.023
303.15
303.096
302.576
285.422
283.376
303.15
285.93
283.385
302.929
301.698
302.16
283.15
300.316
301.84
303.15
302.137
285.383
303.15
297.865
303.15
283.15
300.677
302.673
286.301
302.481
283.15
285.159
303.003
283.15
302.292
285.347
294.853
284.322
303.15
303.018
302.882
286.48
283.15
287.107
284.247
289.757
285.705
302.238
303.15
283.15
283.15
293.134
283.15
301.046
302.148
290.348
283.15
294.039
283.15
303.15
283.15
300.096
298.532
283.151
285.26
301.737
303.07
303.155
291.823
294.17
301.177
283.201
301.809
283.145
303.15
303.143
298.961
283.15
300.762
294.736
303.15
300.938
287.279
301.963
284.891
288.149
283.15
302.207
287.697
298.391
303.08
283.15
303.15
291.639
302.147
283.078
283.147
286.737
298.306
303.149
284.454
301.002
300.974
301.229
303.153
299.864
287.61
284.9
301.565
299.859
283.713
283.105
303.16
303.149
303.15
297.314
283.163
283.15
303.15
303.149
289.885
298.909
300.275
287.747
302.792
303.15
286.416
301.582
303.15
300.946
283.793
301.434
303.15
284.537
301.385
295.534
302.764
303.15
303.15
285.155
295.04
296.333
287.349
303.15
303.15
283.15
287.181
302.383
296.122
303.15
285.543
303.15
303.15
300.462
288.694
283.15
295.502
295.831
299.083
283.15
303.15
292.65
287.186
303.15
297.909
300.481
300.385
303.15
303.15
303.15
300.191
298.289
302.786
299.856
283.15
292.871
287.635
290.56
300.535
303.15
303.15
300.731
303.093
286.524
296.046
303.15
303.147
283.15
286.417
298.883
285.553
303.15
303.15
283.338
303.122
303.15
303.15
283.15
290.492
303.15
303.15
284.562
299.284
283.15
303.15
284.597
301.297
300.127
286.962
294.955
303.15
283.495
303.15
303.15
283.309
300.5
290.37
300.357
303.15
303.129
302.153
292.586
299.734
301.313
284.43
283.45
300.864
298.342
303.15
302.745
284.122
299.694
301.351
287.65
303.15
297.391
301.381
301.467
301.508
292.874
303.15
283.15
299.133
283.15
283.15
287.711
283.15
283.997
283.15
283.15
283.15
283.15
302.742
288.116
302.69
283.15
295.614
290.907
284.72
283.15
303.15
302.665
301.714
303.164
302.621
283.15
294.762
300.222
290.135
283.15
283.15
299.76
285.907
283.15
283.15
303.149
290.536
283.15
287.098
303.149
303.152
284.295
283.15
288.16
292.179
300.786
294.601
302.949
285.596
302.489
295.194
286.232
283.15
283.536
291.556
303.07
289.043
302.641
283.15
292.345
287.708
301.006
301.288
284.879
303.101
284.881
297.006
302.986
303.146
285.109
303.145
303
293.237
302.683
283.15
303.15
303.15
294.695
290.977
283.155
301.044
284.651
284.133
284.599
303.145
288.303
300.42
283.15
283.15
302.483
303.15
294.484
302.889
303.183
299.744
303.223
302.874
283.15
301.261
302.87
283.15
303.15
301.295
303.15
284.297
298.685
283.163
291.428
283.15
287.536
303.008
299.709
283.15
303.02
290.869
301.184
303.124
303.077
283.15
283.15
301.939
301.976
283.792
302.806
302.397
302.363
303.141
283.15
293.629
283.15
302.783
287.831
302.981
303.15
283.15
302.81
285.107
291.445
302.025
283.15
302.565
301.968
301.534
302.464
303.043
303.211
303.005
303.15
283.15
301.491
297.791
303.086
303.15
289.844
284.862
303.15
283.15
285.285
303.184
303.165
302.909
301.091
284.242
303.095
290.678
294.196
303.148
288.995
303.164
283.15
289.781
283.15
299.908
298.066
284.765
288.13
299.545
296.668
295.236
299.105
293.687
303.154
293.836
296.313
283.16
299.313
293.825
303.15
298.861
299.07
303.15
291.11
303.17
301.634
303.15
286.875
285.96
302.787
289.621
283.15
283.15
300.291
301.16
283.711
283.15
303.15
300.178
302.296
300.58
299.819
302.774
292.527
289.592
286.6
292.449
284.277
290.303
283.304
295.693
290.382
293.852
287.05
284.271
303.163
283.272
303.148
285.528
300.661
283.151
300.413
298.393
288.686
302.092
285.378
299.005
283.15
302.945
283.154
283.117
287.57
299.582
303.15
300.331
303.016
299.879
302.748
303.15
301.215
284.922
294.837
302.017
303.149
283.692
283.15
290.24
285.223
285.71
303.126
303.148
283.15
283.15
283.175
303.15
293.378
303.15
303.147
294.012
303.44
303.15
300.411
303.15
303.15
293.582
290.544
303.15
289.78
302.031
289.508
303.15
303.15
285.876
283.333
290.264
303.226
303.15
303.145
285.429
283.243
283.15
288.925
287.53
303.15
284.289
303.15
303.15
303.132
287.283
303.15
303.147
283.271
303.152
302.643
287.868
283.153
283.58
297.355
290.653
303.15
285.883
284.407
301.29
287.072
302.172
290.535
293.789
303.15
303.15
283.99
303.147
302.94
295.88
302.94
302.727
287.133
283.15
285.289
283.216
297.051
302.583
285.324
303.15
283.78
286.67
303.124
283.174
303.15
286.353
283.15
300.125
303.15
299.657
299.795
283.297
283.354
302.309
290.756
301.361
303.15
301.354
301.711
303.15
303.15
298.272
293.347
283.15
288.729
303.15
295.225
283.352
303.15
296.833
298.67
288.937
303.15
302.742
294.141
295.299
284.437
303.16
298.62
296.047
283.971
303.123
302.79
287.322
298.369
289.774
290.75
289.687
283.15
302.939
303.152
303.15
303.175
293.02
296.235
302.974
301.245
303.15
284.428
303.15
303.037
302.846
303.15
293.47
296.197
303.15
285.339
303.094
303.15
303.086
303.158
286
293.254
291.049
288.351
293.373
303.15
301.174
291.369
295.272
293.361
303.141
303.15
300.504
303.19
284.214
303.191
303.15
303.15
303.143
303.15
284.905
303.15
284.197
303.146
303.15
290.147
303.144
292.387
295.447
303.133
295.253
285.955
283.437
303.124
302.936
284.665
283.15
297.052
303.15
285.471
302.9
302.014
303.019
298.436
287.001
303.15
298.645
289.848
299.259
283.15
283.612
303.15
303.145
303.191
294.033
303.15
292.361
289.277
303.196
303.15
284.755
298.695
293.145
299.526
302.454
301.593
300.333
303.15
284.693
296.971
302.357
285.571
298.351
292.212
284.441
291.57
303.15
286.577
291.73
290.079
299.374
303.15
286.402
284.077
303.15
302.411
288.086
302.092
283.15
303.15
299.773
301.66
288.917
301.955
301.926
301.781
303.15
289.258
285.091
301.932
302.212
297.068
303.15
283.199
303.15
301.956
303.15
302.79
303.15
291.587
303.15
296.465
283.15
289.433
303.15
283.15
292.163
301.41
300.365
289.137
300.447
303.15
302.473
303.15
302.359
285.173
303.15
300.351
290.336
303.15
300.758
303.15
303.15
293.15
283.15
285.48
293.167
300.875
303.15
291.077
293.773
288.124
289.606
288.062
299.191
300.265
300.746
287.335
287.046
301.218
283.15
303.15