/*--------------------------------*- C++ -*----------------------------------*\
  =========                 |
  \\      /  F ield         | OpenFOAM: The Open Source CFD Toolbox
   \\    /   O peration     | Website:  https://openfoam.org
    \\  /    A nd           | Version:  10
     \\/     M anipulation  |
\*---------------------------------------------------------------------------*/
FoamFile
{
    format      ascii;
    class       volVectorField;
    location    "16";
    object      U;
}
// * * * * * * * * * * * * * * * * * * * * * * * * * * * * * * * * * * * * * //

dimensions      [0 1 -1 0 0 0 0];

internalField   nonuniform List<vector> 
111485
(
(1.45791 -1.45777 0.000533832)
(4.27308 -0.0101956 -0.0255958)
(4.20621 0.0110551 0.0127732)
(1.4574 -1.45766 0.000135162)
(4.36939 0.0207614 0.000326899)
(1.53599 1.53482 -0.000183145)
(4.2921 0.0129815 0.00124625)
(4.42194 -0.0131103 0.00541388)
(4.28908 -0.00215202 0.00350923)
(4.40354 -0.0480493 -0.0197573)
(4.22988 0.0101583 0.01278)
(4.42546 -0.0120619 0.0202861)
(4.16648 0.00388187 0.00951292)
(4.22811 -0.00901056 -0.0296568)
(4.26858 0.0172884 0.0088581)
(4.37157 -0.0299346 -0.0228764)
(4.30947 -0.00506172 0.00705679)
(1.51096 -0.102046 0.218641)
(4.37571 0.0133904 -0.00951903)
(1.45425 -1.45261 6.88922e-05)
(1.45591 -1.45553 -0.00136611)
(1.5374 1.53711 -0.000184947)
(4.32946 0.0164195 -0.00377472)
(4.41077 -0.0289799 -0.00993321)
(4.32898 0.0135514 -0.00301784)
(1.4678 -1.46233 -0.00216139)
(4.44269 -0.020763 0.0214426)
(4.21235 -0.00797737 0.00160461)
(4.39167 0.00662272 -0.011279)
(1.45577 -1.4557 -8.36726e-05)
(4.43674 0.0690047 -0.0176847)
(4.38595 -0.00987554 0.0012901)
(1.45085 -1.45345 0.00202514)
(1.53679 1.5402 -0.00354285)
(1.54115 0.64875 0.243201)
(1.54654 1.55714 -0.0225355)
(4.4141 0.0689104 -0.0273065)
(4.27727 0.0099308 0.0393658)
(4.38676 1.33523 0.0738748)
(4.38358 0.0211065 0.00125925)
(1.51942 1.53338 -0.010813)
(4.42261 0.00710335 -0.0272348)
(4.38336 0.021739 0.00740961)
(4.21295 -0.0256691 0.00170076)
(4.40941 -0.075137 -0.0383134)
(1.45855 -1.44668 0.00532936)
(4.41879 -0.0188789 0.018079)
(4.40404 -0.027632 -0.00900658)
(4.42493 0.000773939 -0.0225779)
(1.44763 -1.42881 0.00793078)
(1.44443 -1.43102 0.0083387)
(1.7456 1.46934 0.0264894)
(1.43943 -1.43456 0.00481658)
(4.41492 0.0198367 -0.0355922)
(1.43613 -1.43089 0.000816961)
(4.36413 0.0114915 -0.00507096)
(4.37042 -0.0192581 -0.0104092)
(1.53872 1.53571 0.000966986)
(3.9894 -0.00822414 -0.0699369)
(4.38933 0.0183346 -0.0025323)
(4.38756 0.0202446 -0.000784625)
(1.45303 -1.45615 0.00214959)
(4.08803 0.00415949 0.0268286)
(4.43857 -0.0117486 0.0340751)
(1.59084 1.44286 0.0037878)
(4.00454 0.00915859 -0.00868246)
(3.08088 -0.240139 0.105464)
(4.40075 -0.0157814 0.00605838)
(3.97637 0.00146691 0.0154137)
(3.76291 -0.00580306 0.00309537)
(4.24153 0.0360146 -0.0135978)
(3.93513 -0.0107207 0.021453)
(1.57765 -1.42176 -0.0315693)
(4.04194 0.00654652 0.0315649)
(1.45732 -1.45654 -0.000147301)
(4.3848 -0.0101441 0.00812823)
(1.53719 1.53755 7.3531e-06)
(4.4146 -0.00933405 0.0228914)
(1.53697 1.53589 5.59363e-05)
(1.39283 1.36153 -0.0447533)
(4.26471 -0.0638843 0.0428459)
(4.41374 0.0154124 0.00164898)
(1.5347 1.53213 -0.000123431)
(1.45733 -1.45703 0.000756617)
(4.14138 -0.000382834 0.00921302)
(3.97174 0.0110431 -0.01765)
(3.41441 2.21845 -0.593723)
(4.36036 0.0522634 0.0049618)
(4.20198 0.106515 0.090946)
(4.26423 0.00643151 0.0145715)
(4.4976 0.0882353 -0.0561001)
(4.36712 -0.0076455 0.00689193)
(4.09112 -0.00695004 0.0140381)
(4.17342 -0.00464499 0.00512227)
(4.42507 0.0145558 -0.0248901)
(1.45749 -1.45702 -0.000262552)
(1.45698 -1.45672 0.000674718)
(4.35792 0.0486008 0.0155252)
(4.4884 -0.880428 0.0624875)
(4.08129 0.0141479 0.0264403)
(1.45758 -1.4573 0.000453332)
(4.3784 -0.0232124 0.00184378)
(1.54517 1.54793 0.00854818)
(4.34528 0.000718732 -0.00252617)
(4.32103 -0.0236219 -0.028496)
(1.50835 1.35113 -0.031304)
(1.53741 1.53711 -0.000219617)
(4.39298 -0.0133295 -0.00131574)
(4.0452 -0.0222954 0.00490304)
(3.87984 -0.11466 -0.120283)
(4.1369 -0.00385694 0.00905735)
(4.35789 0.00636227 -0.00272753)
(4.05924 -0.00216892 0.0156082)
(3.9943 -0.0200323 0.00917144)
(1.47085 -1.46333 0.000510181)
(3.85452 -0.00516115 0.0118903)
(1.46276 -1.45786 -0.00220245)
(1.54542 1.539 0.0062548)
(4.28538 0.0181786 0.01388)
(1.45705 -1.45609 0.000544414)
(1.46889 -1.46276 -0.00159718)
(2.02074 1.59198 0.0958622)
(1.52754 1.53398 -0.00223554)
(1.5419 1.53815 -0.00354659)
(4.18744 -0.00957506 0.0190741)
(1.16413 -0.818881 -0.221334)
(1.92787 1.65974 0.0581071)
(3.893 -0.00116337 0.0186693)
(1.45713 -1.45647 -0.000451057)
(4.40093 0.329079 -0.119912)
(4.39708 0.0806315 -0.0426824)
(4.34994 0.0496981 0.0159911)
(1.4534 -1.44984 -0.00696999)
(1.97941 1.72436 0.173419)
(1.8499 1.65142 0.0774884)
(4.3912 0.0139851 -0.00731121)
(1.53792 1.53814 -0.000418066)
(4.36673 0.0108864 0.000886919)
(4.33605 0.0153215 0.00735348)
(4.27 0.0184925 0.0156774)
(3.35164 0.000393546 0.0146389)
(4.37959 0.0231684 0.00441196)
(4.34164 0.0270511 0.0153175)
(4.12614 0.00348468 -0.017725)
(4.31139 -0.0087767 0.00416326)
(4.26652 -0.000594953 0.00823399)
(1.53812 1.53841 -0.000384345)
(1.4571 -1.45721 0.000111926)
(1.53504 1.53579 0.00285031)
(4.36718 0.0175383 0.00227288)
(4.12799 0.00685426 -0.0164026)
(1.45588 -1.45487 0.000537943)
(2.86592 -0.0165629 0.0282206)
(4.2603 0.0204051 0.00975675)
(4.66843 0.18556 0.0836229)
(4.39035 0.0126402 -0.00879714)
(4.36733 0.0137051 -0.0032174)
(4.05597 0.000425545 -0.00556396)
(4.71004 0.229007 0.057471)
(1.44967 -1.4632 0.00580223)
(1.45534 -1.45673 0.0012384)
(4.37937 0.0124821 -0.00949541)
(4.29305 -0.0148747 -0.0153036)
(4.74032 0.258154 0.0621713)
(4.67459 0.226218 0.0853469)
(4.08422 0.00758493 0.0215138)
(4.37324 0.0532227 -0.0195036)
(1.51967 1.53229 0.000349227)
(4.79744 0.320312 0.0770466)
(4.57289 0.22838 0.0704444)
(1.53689 1.53772 0.000398323)
(1.45567 -1.45539 -0.000203446)
(3.51276 0.00409281 -0.0262939)
(1.53772 1.53848 9.77078e-05)
(4.34775 -0.00966666 -0.00168683)
(4.18012 0.0027365 -0.00993354)
(1.5379 1.50243 -0.00712684)
(1.57343 -1.44353 0.0131599)
(1.46067 -1.45295 -0.00241728)
(1.5142 1.43063 -0.0141527)
(1.58398 -1.45814 0.0247862)
(1.45541 -1.45644 0.000947137)
(4.36037 0.0173056 0.00457979)
(4.35772 0.0110129 -0.00822373)
(4.34267 0.0144244 -0.00369521)
(4.30777 -0.0101322 0.0156232)
(4.13865 -0.00934553 0.00333252)
(4.15606 0.00875475 0.0139698)
(3.68572 0.0466816 0.00512332)
(1.45649 -1.45129 -0.000151853)
(4.03696 0.000957397 0.0041061)
(1.56976 -1.4575 0.0145432)
(1.4693 -1.47177 -0.000834667)
(4.19579 0.00962717 0.0145293)
(4.4054 -0.0540182 -0.0190421)
(4.35619 0.00900166 -0.020021)
(4.18632 -0.00420118 0.00655959)
(4.25115 -0.00223331 0.00519206)
(1.45463 -1.45196 0.00322291)
(4.17455 -0.018871 0.00485493)
(4.17042 -0.00550369 -0.0258689)
(2.91938 0.933732 0.120154)
(4.27119 -0.0329144 0.00284363)
(4.33156 -0.00743736 0.0039902)
(1.46243 -1.45437 -0.00218049)
(4.17849 0.0121283 0.0149137)
(4.37271 0.00929289 -0.00350026)
(1.59605 -1.44169 0.00584048)
(4.20109 0.0102811 0.0152374)
(4.40613 -0.00523221 0.0249521)
(4.12612 0.00365626 -0.0187323)
(4.16788 0.0106671 0.0190269)
(1.58152 -1.46242 0.0196044)
(1.45615 -1.45659 -0.000219617)
(4.16873 0.0106175 0.0189219)
(2.73053 1.71528 -0.169023)
(4.45661 0.0192563 -0.0424438)
(1.53724 1.53803 -0.000909431)
(4.19302 0.00786969 0.0160713)
(4.18384 0.00658656 0.00485014)
(4.43116 -0.0144344 0.0270825)
(1.45871 -1.45799 0.000600782)
(3.91024 -0.000263335 0.010986)
(4.38756 0.0617189 0.0305041)
(2.41393 1.62412 -0.176671)
(1.53792 1.538 -0.00118087)
(1.53689 1.53766 0.00038531)
(4.48586 -0.0287696 0.0407741)
(4.18737 0.0988969 -0.0105396)
(1.61835 1.36801 -0.03069)
(1.81064 -1.40178 0.0553244)
(4.19879 0.00320642 0.00567612)
(4.32671 0.00832526 0.000716358)
(4.39524 0.0111171 0.00240093)
(1.59632 1.39254 -0.0403425)
(1.54042 -1.42394 -0.00545548)
(4.22202 0.0484046 -0.0561763)
(1.45713 -1.45673 0.000874984)
(3.99689 0.00449078 -0.0239733)
(4.14924 0.00458475 0.0136054)
(4.19621 0.00163289 0.00757562)
(4.20406 0.0105787 0.00895927)
(4.21989 0.00855361 0.0119893)
(1.53325 1.53331 0.00486639)
(3.18412 -0.00996413 -0.122195)
(4.28196 0.010145 0.016935)
(1.5304 1.53344 -0.00202562)
(1.53686 1.53761 -0.000219065)
(4.45664 -0.0528468 -0.00512945)
(4.35702 0.0184126 -0.00734206)
(1.57576 1.34599 -0.041172)
(3.96364 -0.00240184 0.0119937)
(4.26572 0.0120986 0.0128429)
(1.4577 -1.45688 -0.000498893)
(1.9447 1.83208 -0.0119418)
(4.38784 0.0381825 -0.0168999)
(1.46116 -1.44235 0.000661704)
(1.61645 -1.14524 -0.0276014)
(2.23587 -0.781626 -0.0794401)
(1.45813 -1.45418 -0.000222033)
(4.28399 -0.00768226 -0.00771454)
(4.16744 -0.00759315 -0.0102615)
(4.34587 0.00706783 -0.0126088)
(1.45659 -1.45681 -8.32472e-05)
(4.30491 0.0131646 0.0111078)
(1.45744 -1.45774 0.000150898)
(1.4574 -1.45807 0.000265236)
(1.455 -1.44957 0.00250527)
(2.94271 0.0107131 -0.0453499)
(4.40889 -0.0207321 0.0244705)
(4.21223 0.0151229 0.0197373)
(4.27991 0.0139335 0.0106837)
(4.44202 -0.0276822 -0.00119685)
(4.25611 0.00973352 0.00949388)
(4.3737 0.0160184 0.00565225)
(4.39666 0.0724819 -0.00720452)
(4.2949 0.00947803 0.000581109)
(4.33769 0.0101945 0.000662972)
(1.56232 1.53688 -0.000827437)
(1.45541 -1.45526 -0.00162403)
(2.68723 0.0167911 -0.0657101)
(4.36078 -0.0101704 0.00139677)
(4.4114 0.0337109 0.0373794)
(4.15001 -0.00517916 -0.00743042)
(1.45718 -1.45636 0.000402685)
(4.35353 0.0133742 0.00836308)
(4.37628 0.0216377 0.0104499)
(4.26924 0.00840692 0.00707304)
(3.76283 -0.00383137 -0.0184548)
(3.94103 -0.0440432 -0.0978328)
(4.33482 0.0149452 0.0024728)
(4.26053 0.0112489 0.00955881)
(4.34991 0.0321942 -0.0195757)
(1.53842 1.53847 0.000184919)
(3.98478 0.020833 -0.000615352)
(1.53695 1.53745 -0.000579255)
(1.25544 0.961293 -0.196545)
(1.64312 -1.04807 -0.107117)
(4.51536 -0.0403913 0.0577578)
(4.44312 -0.0274593 -0.000928732)
(4.33876 -0.00190645 0.000217948)
(1.4595 -1.45593 -0.000537689)
(1.53258 1.54126 0.0124605)
(4.34511 0.0145065 0.008229)
(4.15849 0.00783437 -0.00684327)
(1.45656 -1.45559 0.000103229)
(1.45785 -1.45704 0.00131617)
(1.42715 -1.43455 0.0110973)
(4.13349 0.00597751 -0.00322192)
(4.31876 0.00603176 -0.00519379)
(4.12382 0.000771277 0.0147808)
(3.98515 0.00673217 -0.022943)
(4.4038 0.01036 -0.0101845)
(1.76054 1.5151 0.0398519)
(1.53457 1.53818 0.00301334)
(1.45741 -1.45525 -0.000861117)
(4.33048 0.0144606 0.011895)
(2.79836 -2.3716 -0.167448)
(4.12694 -0.00472833 0.00406023)
(4.48424 -0.0313214 0.0952768)
(3.61212 0.00220454 -0.0739652)
(1.53753 1.53756 -0.000177536)
(1.45584 -1.45722 0.000793754)
(1.45745 -1.45829 -0.000803985)
(1.93661 1.6269 0.0985548)
(4.3792 0.0142864 -0.000502418)
(4.42048 -0.0252157 0.00153234)
(1.54136 1.54516 0.000553131)
(4.34182 0.0116227 -0.00117242)
(1.62436 1.31874 0.0921103)
(1.46465 -1.44823 -0.0021956)
(4.45122 -0.0155837 0.0361754)
(4.33532 0.0153724 0.00688479)
(4.43814 -0.0067595 0.0111453)
(4.34505 0.0121308 -0.000843924)
(1.48329 1.31871 0.0790944)
(1.91747 1.65109 0.104909)
(1.53482 1.5369 -0.00236726)
(4.33856 0.0149519 0.00590418)
(4.33445 0.0130351 -0.000280136)
(4.42 0.0749022 -0.0245051)
(1.52456 1.52154 0.00335383)
(3.03301 2.68894 -0.640485)
(4.14035 0.040317 0.0365929)
(4.41747 -0.0208887 0.0106656)
(4.35642 0.0163762 0.0104665)
(4.1346 0.424356 -0.0363722)
(4.40183 0.0105218 -0.010169)
(1.53452 1.53449 0.000305056)
(4.40518 0.0121806 -0.00859976)
(4.22788 0.00554486 0.00852825)
(4.45987 -0.103241 0.000390004)
(4.46403 -0.0264746 0.0530895)
(4.32758 -0.0332386 -0.0298496)
(1.53282 1.53928 -0.00600786)
(1.45593 -1.45776 -0.00271961)
(1.54094 1.53262 0.00563)
(1.44804 -1.45213 -0.000533665)
(4.4141 -0.0213456 -8.45151e-05)
(4.38824 -0.00787343 0.00275693)
(4.36326 0.0204105 -0.0148139)
(4.39826 0.0122995 -0.0129961)
(1.5283 1.53001 -0.00630869)
(4.36026 -0.0287101 -0.00919088)
(1.53599 1.53668 0.000606656)
(1.451 -1.45534 0.000245612)
(4.4002 0.0124836 -0.00946373)
(1.34464 -1.34636 0.0196179)
(2.41939 -0.422997 -0.0346813)
(1.44131 -1.4359 0.00128005)
(1.5516 1.53095 0.0122229)
(4.35233 0.00824449 -0.00581857)
(1.53782 1.53698 0.000609914)
(4.31026 0.0109386 -0.00315464)
(4.0955 0.00241941 -0.0189938)
(1.53878 1.53866 -0.000351167)
(3.95576 -0.00177854 -0.0195274)
(4.28129 0.00689293 0.00790677)
(1.54795 1.35989 -0.0501885)
(4.27613 0.0188596 0.0193495)
(4.03335 0.0205261 -0.00309676)
(4.29928 0.0240712 0.00631068)
(4.00093 0.0155118 0.0496338)
(4.34165 0.0128501 0.0020561)
(4.13915 0.000573348 -0.00943702)
(1.51699 1.2999 -0.00564056)
(1.4564 -1.45096 0.00546409)
(3.71697 0.00828548 0.088059)
(1.5278 1.53304 -0.00885694)
(4.2912 0.0224545 0.0198804)
(4.45318 -0.0227473 0.0434141)
(1.54912 1.48171 0.0124256)
(1.53463 1.541 -0.000310364)
(4.40308 -0.00913408 0.00317539)
(4.23858 -0.019344 -0.0393161)
(4.25606 0.022318 0.00246301)
(4.41884 0.0089386 -0.00205602)
(1.53745 1.5358 -0.000479476)
(4.47266 -0.0132053 0.0705987)
(4.40106 -0.0150471 0.0218309)
(1.5407 1.53785 1.30245e-05)
(4.32436 0.0656322 0.053437)
(4.12216 -0.0169595 -0.0427188)
(1.45636 -1.45526 -0.000264972)
(1.4563 -1.45611 0.000257058)
(4.30656 0.0139195 -0.00386319)
(4.324 0.00417569 -0.00601188)
(1.5447 1.54491 -0.00197677)
(1.45954 -1.45491 -0.00152411)
(2.57869 -1.38737 0.315267)
(1.45705 -1.458 0.000533974)
(4.32501 -0.0026462 0.00921329)
(1.52981 1.53472 0.00363209)
(1.45748 -1.45786 6.64911e-05)
(4.43979 -0.00502391 0.0145445)
(4.01748 -0.0473249 -0.114436)
(4.39244 -0.024393 0.00631123)
(4.23176 0.000171636 0.00805827)
(1.53925 1.53821 4.64087e-05)
(1.99298 1.53902 0.074616)
(4.23742 0.0538733 0.0796032)
(1.86876 1.65089 0.0870727)
(4.22106 0.0183438 0.0330856)
(4.20429 -0.0346752 0.00351073)
(4.38329 -0.0120419 -0.0104064)
(3.05796 0.102074 0.107143)
(1.83569 1.58272 0.0781061)
(4.39675 0.00775229 -0.0413456)
(4.4445 0.134343 -0.0476563)
(1.45547 -1.45822 0.00247467)
(4.424 0.0112874 -0.0427957)
(4.43284 -0.0210186 0.0158309)
(1.45924 -1.4589 0.00153364)
(4.27438 0.239796 -0.13384)
(3.74107 -0.000822408 -0.0525895)
(1.93874 1.52618 0.0625884)
(4.40782 -0.00867316 0.0185093)
(4.35709 0.0062728 -0.00614435)
(4.3452 0.0119958 -0.00223606)
(1.53705 1.53592 -0.00042165)
(4.33383 -0.00692406 0.0298022)
(4.43092 -0.00378392 0.0142686)
(4.31715 0.0416951 -0.00450853)
(2.72537 -0.0370082 0.0458171)
(1.86842 1.76464 -0.0370298)
(2.56827 -0.0651378 0.0847379)
(1.45573 -1.45751 0.00102522)
(3.99088 -0.129978 -0.128737)
(4.33485 -0.00753279 -0.0284701)
(1.53835 1.53731 0.00210317)
(4.10923 0.00967183 -0.0308056)
(3.39438 -0.00833623 0.060989)
(1.9913 1.762 -0.0183992)
(1.45748 -1.4565 0.000160769)
(1.70805 -1.4481 0.0457474)
(1.45709 -1.45652 0.000116755)
(4.31152 0.0224402 -0.000475019)
(4.34337 0.0226563 -0.0075885)
(4.28806 -0.0131552 -0.0119378)
(4.03338 0.0101758 -0.0226473)
(4.3965 -0.089753 -0.0180685)
(1.53711 1.53101 -0.00306321)
(4.26408 0.000114736 -0.00935393)
(1.46086 -1.45012 0.000500755)
(4.2188 0.0163058 0.00975057)
(1.54236 1.54198 -0.000888511)
(1.45643 -1.45531 -1.52169e-05)
(1.44549 -1.44953 -0.00204716)
(4.14535 -0.0282912 0.00613616)
(1.45398 -1.45451 -0.000958425)
(1.45781 -1.45741 0.000452581)
(1.51487 1.01117 -0.063057)
(1.45729 -1.45843 0.000465744)
(1.52272 1.54378 0.0143475)
(4.24943 -0.0150367 -0.00648557)
(1.53891 1.5367 0.000623775)
(1.82041 1.3457 0.00221052)
(1.53909 1.53912 0.00164547)
(1.45512 -1.45104 -0.00100184)
(1.53856 1.53473 -0.00104572)
(1.45316 -1.44575 -0.00761284)
(1.53341 1.53323 -0.000233327)
(3.8734 0.000119761 -0.032558)
(1.54107 1.53272 0.00629738)
(3.97528 0.0552894 0.0782205)
(4.34294 0.00453135 0.000726828)
(4.48788 -0.170969 -0.0254363)
(1.53923 1.53249 -0.00018898)
(3.78528 0.0117326 0.0611715)
(1.54089 1.53533 0.00178563)
(1.45749 -1.45832 -0.000708504)
(4.29767 -0.0415156 -0.0459709)
(4.29514 -0.0344829 -0.0358964)
(4.29174 -0.00927462 -0.0121139)
(4.48653 0.0119076 -0.0749826)
(1.76506 1.48618 -0.0480642)
(4.39098 0.00364838 -0.023126)
(4.38978 0.0017547 -0.0213111)
(4.34874 0.0095702 6.99653e-05)
(4.2809 0.00492137 0.000811001)
(4.36561 -0.0444668 -0.0291976)
(1.45425 -1.45452 -0.000554126)
(4.35497 0.00783299 -0.00138186)
(2.00822 1.74913 -0.011739)
(4.32929 0.00804309 -0.00895023)
(1.53791 1.53673 0.000214387)
(4.41303 0.0156846 -0.0239826)
(1.98672 1.65036 0.0154854)
(4.35253 0.00432508 -0.00600198)
(4.35874 -0.0201221 0.0159256)
(1.68307 -0.842178 -0.00947451)
(1.54028 1.54204 0.0169104)
(4.28783 0.00777818 0.00682161)
(1.4572 -1.4561 0.000154514)
(4.42716 0.0183233 -0.0257389)
(4.39246 0.0219523 -0.0178916)
(1.53752 1.53334 -0.0125518)
(1.53556 1.53483 0.00370554)
(1.50585 1.34934 -0.038553)
(1.53693 1.53798 0.000916542)
(3.07842 -0.163438 0.0829191)
(4.42942 0.0159447 -0.025751)
(1.55722 1.52078 -0.0010529)
(1.53514 1.53787 0.00177721)
(3.79154 0.00214351 -0.0110669)
(1.53794 1.53776 -6.758e-05)
(4.3615 0.0150953 -0.0174312)
(1.53776 1.53702 0.000121444)
(4.32168 -0.0265463 -0.0181974)
(1.45801 -1.45773 0.000529464)
(4.06155 -0.0214263 -0.0599571)
(3.36062 -0.0127093 0.00467101)
(4.06032 0.0122347 -0.00972998)
(4.35477 0.00582462 -0.00735852)
(1.5471 1.53549 -0.00466596)
(3.96055 0.00383988 -0.00045292)
(1.54059 1.53525 0.00131381)
(1.5377 1.5389 -0.00373443)
(4.296 -0.016688 -0.00965775)
(1.53814 1.53669 -0.000167972)
(3.67071 3.24345e-05 -0.0377104)
(1.48827 1.36995 -0.0432739)
(4.37254 0.0235029 -0.0140687)
(1.45631 -1.4568 -0.000291291)
(4.39994 0.0103996 -0.00931642)
(1.45764 -1.45641 0.000158305)
(1.82188 1.61422 0.0458743)
(4.46009 0.156551 -0.0106671)
(4.29213 -0.03527 -0.04679)
(4.33975 0.0165449 0.000525532)
(4.38983 -0.0527263 -0.0326951)
(4.31977 0.00908591 -0.00513483)
(4.43579 -0.0297405 -0.00476939)
(1.52802 1.53986 -0.00680194)
(4.33746 0.0222937 0.0145553)
(4.30466 -0.0392394 -0.0452155)
(1.53723 1.53787 -0.000696985)
(3.64514 -0.0461749 -0.156831)
(4.43858 -0.031157 -0.0222103)
(4.26412 0.019393 0.0159663)
(1.5244 1.50306 -0.00887021)
(1.89216 0.385215 -0.298058)
(4.17299 0.0112504 0.0128598)
(3.42504 -0.0136894 0.0342868)
(3.54285 0.915213 -0.00654554)
(1.89137 -0.958886 -0.0796798)
(4.42069 -0.0466461 -0.00721904)
(4.15202 0.0164026 0.0295938)
(4.28902 -0.041408 -0.044417)
(4.35795 -0.0244756 -0.00975055)
(4.30202 0.0257802 0.0104164)
(3.80886 0.49566 -0.025185)
(1.89839 1.61234 0.013124)
(3.87239 -0.141976 0.0319114)
(3.74308 -0.327629 0.0769091)
(1.45548 -1.45609 0.00084579)
(3.81676 0.0255957 -0.011283)
(1.5465 1.51782 -0.00774968)
(1.80435 1.64056 0.0150619)
(4.3142 0.00507558 -0.00218474)
(3.83265 0.650167 -0.0206539)
(4.61531 -0.389057 -0.0722479)
(4.15728 -0.714334 0.0153603)
(1.79929 1.71069 -0.123836)
(4.39577 -0.0256841 -0.00758839)
(4.34942 0.0250025 0.0188258)
(1.53428 1.52995 -0.000406143)
(1.97511 1.10012 -0.0445177)
(4.35167 0.0317087 0.0186944)
(1.45589 -1.45066 0.000970927)
(1.5376 1.5373 -0.000140757)
(1.5359 1.53548 0.000221957)
(1.53883 1.53091 0.00161032)
(4.39949 -0.0451624 -0.0205554)
(1.53799 1.53773 0.000876304)
(1.46323 -1.46317 0.00785222)
(4.318 -0.0267995 -0.0219676)
(3.98094 -0.000622012 -0.0126116)
(2.14959 -1.88144 -0.0988255)
(4.35246 0.0310284 0.0181758)
(1.78508 1.44422 0.0322454)
(4.37361 -0.0172938 -0.00889989)
(1.43297 -1.43194 -0.00640804)
(1.5347 1.53774 -0.000692461)
(4.38247 -0.027007 -0.00790174)
(1.53786 1.52938 -0.00603799)
(1.53737 1.53394 0.000987513)
(1.76167 1.68777 0.0494324)
(4.13157 -0.00298523 -0.00297995)
(2.52925 2.11982 -0.279033)
(4.31942 -0.0186591 -0.00912985)
(4.31097 0.00463166 -0.00285454)
(1.44658 -1.43724 -0.011706)
(4.48517 -0.0135779 0.140141)
(4.11523 -0.0242727 -0.060123)
(4.29997 0.00138376 -0.00226479)
(4.36822 0.0776885 0.0099697)
(4.38251 0.0443143 -0.0942046)
(3.78197 0.00178215 -0.0359413)
(1.53609 1.5353 0.000584527)
(4.3854 0.00434587 0.0110984)
(4.35503 0.0177485 0.000142295)
(1.44405 -1.46302 0.00296244)
(4.06682 -0.00268662 0.000259285)
(4.40433 0.0257848 -0.00836012)
(4.39487 0.0203459 -0.00685924)
(4.01016 -0.0173649 -0.0406503)
(4.39164 0.0214709 -0.00549856)
(4.39685 0.0219184 -0.00415645)
(1.4616 -1.44232 0.00865803)
(4.39246 -0.00931872 0.0218369)
(3.64764 -0.0220837 -0.00554904)
(1.8537 1.61086 0.100305)
(4.38977 0.0178086 -0.00927346)
(4.19251 0.00465133 -0.00956653)
(2.46017 2.00596 -0.300404)
(4.31475 0.00590729 -0.00141994)
(4.39233 0.0151858 -0.0131989)
(4.19449 0.00111691 -0.0169229)
(4.36118 0.0218725 0.000143494)
(4.31237 0.0464541 0.017907)
(4.32095 0.00562076 0.000479749)
(1.50444 1.47155 0.00189465)
(4.36063 0.0225663 -0.000573229)
(4.09677 -0.0258079 -0.0544637)
(1.63064 -0.974714 0.0385026)
(4.34075 0.0340658 0.0225302)
(4.29343 0.0351558 0.0347816)
(4.34605 0.0141049 -0.00231794)
(1.53677 1.53393 0.0016986)
(4.22856 0.0253184 -0.040511)
(1.45742 -1.45105 0.00377857)
(1.53771 1.53815 -0.000798116)
(1.53308 1.52105 -8.8675e-05)
(1.53946 1.53127 0.00083837)
(3.66478 0.00204067 -0.0177005)
(1.82833 1.57734 0.0628103)
(3.31401 -0.229327 0.27339)
(1.45359 -1.45354 0.000242904)
(1.53698 1.55564 -1.25732e-06)
(4.35593 0.042104 0.0235467)
(4.36614 0.0105866 -0.0170622)
(1.45806 -1.45789 2.30772e-05)
(4.3747 -0.0270678 -0.00358277)
(1.45712 -1.45579 0.00483686)
(1.45829 -1.45716 -0.000740807)
(1.43552 -1.43584 0.00445263)
(4.44712 -0.0369002 -0.00766692)
(3.70145 0.0194171 -0.0105381)
(1.81005 1.63216 0.0202063)
(1.47254 -1.45618 0.00389343)
(1.5357 1.54035 -0.00199164)
(1.53666 1.53786 -0.000206728)
(4.46681 0.00884199 -0.0487991)
(4.331 0.00745978 -0.0030973)
(1.82838 1.71988 0.079282)
(4.41532 0.0142746 -0.0228448)
(4.11398 -0.057587 -0.167371)
(1.53527 1.53583 -0.0008297)
(4.40345 0.0122526 -0.0197905)
(4.04072 0.00358299 0.0216791)
(4.30594 0.0238112 -0.0284936)
(1.53887 1.53788 -0.000220914)
(1.5364 1.53577 -4.21745e-05)
(4.2692 0.0190244 0.0227478)
(4.35159 0.00859089 -0.00131069)
(1.81578 1.65247 0.0258293)
(1.53227 1.53259 0.000182105)
(1.56042 1.51485 -0.00308915)
(4.3135 -0.00861263 0.00498148)
(1.45563 -1.4558 -0.00194816)
(1.45761 -1.45289 0.00125807)
(1.5331 1.53379 0.00073443)
(4.40129 0.0137711 -0.0170144)
(3.85726 -0.0184713 0.00661245)
(1.53833 1.53842 0.000206596)
(1.70685 0.349556 0.295253)
(1.85491 -0.189598 -0.0680145)
(4.28064 0.0226993 -0.00218393)
(1.53539 1.53802 -0.000725399)
(1.53769 1.53486 -0.000798349)
(4.43201 -0.0447268 -0.0100527)
(4.23693 0.0719367 0.0647166)
(1.84221 1.6474 0.076787)
(2.67844 0.877997 0.0628518)
(4.1759 0.0980642 0.118954)
(3.99693 0.0113218 -0.0285776)
(4.23792 0.00347636 -0.00333035)
(1.59522 1.49721 -0.00265528)
(4.22096 0.0109837 0.000298112)
(4.37458 -0.0292463 0.0303569)
(1.54146 1.53746 -0.00178317)
(1.44758 -1.42446 0.0019068)
(1.53341 1.53417 -0.000154581)
(1.53601 1.53637 -0.000536072)
(1.5381 1.54028 -0.00168022)
(1.53872 1.53903 -0.000136301)
(4.41149 0.0148926 -0.0181138)
(1.45623 -1.45614 0.0010646)
(1.53621 1.53654 -4.88038e-05)
(1.52879 1.50877 -0.000230928)
(4.41493 0.014859 -0.0236503)
(4.3471 0.00955091 -0.0031727)
(1.46338 -1.44424 -0.000532014)
(1.44055 -1.4258 0.00221132)
(4.45001 -0.0212305 0.0378798)
(4.23086 0.00363209 0.00546414)
(4.22402 0.00510782 0.00704373)
(1.45814 -1.45409 -0.000776999)
(1.53537 1.53597 0.000809656)
(4.22766 0.00295529 0.00658219)
(1.45767 -1.4566 5.28303e-05)
(4.17658 0.0112347 0.00084741)
(4.28679 0.0073938 0.0149168)
(4.29547 0.0149825 0.00736673)
(1.46708 -1.45646 0.00460942)
(1.45699 -1.45757 0.000448534)
(1.45679 -1.45769 0.000449143)
(1.53783 1.53807 0.000384774)
(4.33635 -0.0188395 -0.0120367)
(1.53615 1.53728 0.000216325)
(1.5352 1.53558 0.000389374)
(4.31327 0.0116179 -0.015621)
(1.45682 -1.45753 0.000637469)
(4.24329 -0.0015624 0.00531363)
(3.88244 -0.0321641 0.0131886)
(1.55064 1.50084 0.00744637)
(4.34586 0.0140156 -0.00271932)
(2.05387 0.311299 -0.053882)
(4.28223 0.00325141 0.00404503)
(4.44466 -0.0161714 0.00919838)
(3.91401 0.01581 0.00443684)
(4.43033 -0.000665756 0.0284088)
(3.20495 0.0700015 -0.120232)
(1.82829 1.46557 0.0298364)
(4.27268 0.000203564 0.00250801)
(4.44742 0.0343382 0.00575275)
(4.34434 -0.0125283 -0.00517071)
(1.57472 1.37157 -0.0464723)
(1.94789 0.192349 -0.0994527)
(2.32218 -0.15328 0.0758787)
(4.2729 0.00671349 0.00380994)
(1.53539 1.53763 0.00200188)
(4.20178 -0.00985789 -0.0310748)
(4.29002 -0.00399614 -0.0103878)
(4.16845 -0.037662 -0.066657)
(1.59335 -1.12526 -0.0851945)
(1.4574 -1.45755 0.00078796)
(1.45694 -1.45695 -2.29821e-05)
(4.37065 -0.0143173 -0.0026129)
(1.78962 1.48511 -0.0184272)
(4.14368 0.0140391 0.00666769)
(1.66661 1.51922 0.0205872)
(4.12855 -0.00776649 -0.0277602)
(4.23265 -0.0064244 0.0052173)
(4.19291 -0.00348382 0.0155015)
(4.34814 0.010998 -0.00401274)
(1.53673 1.53564 -0.000466813)
(1.52829 1.52414 -0.0022715)
(1.55816 -1.42012 0.00654923)
(4.34321 0.0161876 0.000940697)
(1.53836 1.53421 -0.000187823)
(1.77115 1.52651 -0.0661829)
(4.443 0.0783608 -0.0677975)
(1.54371 1.54191 -0.000790376)
(1.53148 1.53882 0.00451664)
(1.45424 -1.44839 -0.00378031)
(1.53794 1.53853 0.000468682)
(4.14769 -0.00241007 0.0148881)
(1.57528 1.49324 0.0049053)
(1.53795 1.53619 0.00017945)
(3.53824 0.502205 -0.364496)
(1.79531 1.45379 -0.0198123)
(1.53202 1.53287 -0.0127884)
(2.10173 -1.24396 0.0761428)
(1.53759 1.53539 -0.00126827)
(3.39892 0.0129716 -0.0303507)
(4.22999 -0.00537835 0.0118527)
(1.45619 -1.45598 -0.000548995)
(4.15915 0.00466023 -0.00983186)
(4.20517 0.681531 -0.0961472)
(4.14086 -0.0405523 -0.065017)
(4.5483 0.168412 0.00396859)
(4.0858 0.00475221 -0.00748172)
(1.53787 1.52714 0.00483413)
(4.30218 -0.0402106 -0.0459847)
(4.45807 -0.0168042 0.0103345)
(4.14007 -0.0407375 -0.0656087)
(1.45671 -1.45719 -3.08876e-05)
(4.51441 1.1939 0.314224)
(4.13815 0.00569392 0.00800636)
(2.04398 1.63486 -0.0956952)
(4.1114 0.00195313 0.00603314)
(4.48787 0.0554094 -0.0420881)
(4.28532 0.0845276 0.00506821)
(4.24838 -0.0138489 -0.0177283)
(4.24909 0.0136725 0.00107172)
(4.52285 0.0644612 -0.0240666)
(4.36868 -0.0070663 -0.00742136)
(4.33299 -0.00754003 0.00487138)
(1.52762 1.53259 0.00606511)
(1.5334 1.52607 0.00481795)
(4.167 0.0110086 0.00559636)
(4.09863 0.00425873 0.00578819)
(1.53474 1.53845 -0.000309576)
(4.22299 0.00563624 0.00042752)
(4.43975 -0.0185441 0.00527412)
(4.35643 -0.0119267 0.00456692)
(1.54209 1.52687 9.07895e-05)
(4.26999 0.0846287 0.0196854)
(1.53552 1.53412 0.000312498)
(4.33659 -0.00666915 0.00355511)
(4.36116 -0.00824027 0.00328992)
(1.53654 1.53582 -0.000192864)
(4.15458 0.0188522 -0.0146608)
(4.35132 -0.00589944 0.00135969)
(4.25335 0.0790184 0.00681903)
(4.19625 0.00145082 0.0139514)
(1.56613 1.53673 -0.00222885)
(4.36575 -0.0132222 0.0145787)
(4.26631 0.0961282 0.00145058)
(4.49827 -0.105006 0.0266572)
(3.79056 0.0482249 0.0149817)
(3.38387 0.0100195 -0.0475718)
(1.53951 1.52368 -0.00277148)
(1.53426 1.53301 0.00148125)
(4.19514 0.056094 0.00733763)
(1.53781 1.53822 -0.000431587)
(3.67201 -0.0104992 -0.0101421)
(4.21313 -0.0216166 -0.0320623)
(2.5729 0.362487 -0.090962)
(4.66725 -0.296581 0.111665)
(4.12017 -0.183522 0.0523193)
(4.58736 -0.163513 0.0437318)
(1.53785 1.53816 -0.000406208)
(2.0843 1.77005 0.0148637)
(4.35985 0.0125634 -0.00357226)
(1.45125 -1.45645 -0.00442483)
(0.799954 -0.556877 0.240965)
(4.32765 -0.0811614 -0.0653534)
(1.53779 1.53376 -0.00287179)
(1.53825 1.53658 -5.84516e-05)
(3.85636 -0.0760406 -0.00440234)
(3.15564 -0.202911 0.0406761)
(1.53835 1.53831 -0.000265116)
(3.90737 -0.0712779 0.0116722)
(1.53664 1.53513 0.00023433)
(1.53686 1.53902 -0.00254488)
(1.4565 -1.45669 -0.000245512)
(1.45839 -1.45479 0.00352793)
(1.42994 -1.4191 0.00516382)
(1.45644 -1.4538 7.37766e-07)
(3.89652 0.0305943 -0.0145256)
(1.53539 1.52662 -0.00124465)
(1.53679 1.53736 0.000458146)
(1.52933 1.53782 0.00266655)
(3.62783 -0.802365 -0.210721)
(4.11512 -0.034639 -0.0757845)
(3.98649 -0.000950779 -0.0398349)
(4.35999 0.0127918 -0.00393691)
(1.53222 1.52219 0.000277803)
(1.54111 1.53577 -2.08262e-05)
(4.1808 -0.0709589 -0.086015)
(1.53756 1.53845 -0.00135536)
(1.53708 1.53578 0.000655356)
(2.44197 1.40405 0.0514112)
(4.45385 -0.0601106 -0.00525038)
(4.34605 0.0106313 -0.00323863)
(1.53593 1.53593 -0.000112556)
(1.53777 1.53472 0.00177799)
(1.53363 1.52964 -0.00203562)
(1.53588 1.53337 -0.000313013)
(1.53982 1.53961 -0.00167059)
(1.54042 1.53634 0.000166253)
(4.36425 -0.100544 -0.0630405)
(1.53857 1.5343 -0.000330122)
(3.02549 0.0438206 0.0998689)
(4.38537 -0.0100009 0.0112602)
(1.53658 1.53871 -0.000305205)
(1.4479 -1.45383 -0.00394532)
(1.43795 -1.42449 0.00163349)
(3.68525 0.0425933 0.197383)
(1.43065 -1.42894 -0.00570618)
(1.45528 -1.45629 0.00143941)
(1.52992 1.5322 -0.00962743)
(3.95202 -0.0601191 0.00276582)
(1.53468 1.53462 -0.000327695)
(4.32857 -0.0561334 -0.0355284)
(3.45445 0.0546273 -0.0177261)
(2.85192 0.00420487 0.112674)
(1.53499 1.53534 0.000479261)
(2.96164 -0.756012 0.0602038)
(4.36243 -0.00870161 0.000729981)
(4.39216 0.010157 -0.0118024)
(1.56329 -1.48961 -0.0181246)
(4.23121 -0.0676347 -0.0117275)
(4.31591 -0.00849337 -0.00681956)
(1.45727 -1.44728 0.0014515)
(1.58584 1.50458 0.00743193)
(2.06124 -1.58664 -0.129905)
(1.53306 1.53207 0.000186518)
(4.3708 0.00973184 -0.00194699)
(4.35268 -0.00604643 0.0066078)
(4.43403 -0.0527168 0.0220386)
(2.92423 -0.00181615 0.159256)
(1.53814 1.53749 -0.000192175)
(4.37307 0.00996806 -0.00296713)
(1.58278 1.50613 -0.0017461)
(1.91865 1.62448 -0.00766581)
(1.96032 -1.52381 -0.0617494)
(1.537 1.53741 0.000631227)
(4.37429 0.0126571 -0.00345386)
(1.53457 1.53099 0.00149271)
(1.44214 -1.4181 0.000389086)
(3.99124 -0.0548786 -0.0985271)
(4.27516 -0.00977316 0.0055493)
(1.44218 -1.419 -0.004458)
(4.30094 0.00761926 -0.00217669)
(1.63922 1.60213 -0.0102512)
(4.36811 -0.0372463 -0.0189849)
(1.44993 1.38771 0.0158527)
(1.53828 1.53905 -0.000707199)
(1.54622 1.54099 0.0051863)
(1.45755 -1.45778 0.000445383)
(4.247 0.00890877 -0.00752336)
(3.80141 0.00629738 -0.0165309)
(4.40273 -0.00348623 0.0805114)
(1.53292 1.53329 0.000935261)
(1.53352 1.50484 0.00982461)
(4.22791 0.00949005 -0.00707622)
(1.53797 1.5383 -0.000513438)
(1.78029 1.61528 0.022128)
(1.45672 -1.45559 0.000669023)
(4.18185 0.0262326 -0.00272573)
(4.45109 -0.112979 -0.0312351)
(4.35969 0.011524 -0.00430996)
(1.45979 -1.45619 0.00234846)
(3.45875 -0.00448121 0.0951897)